/*--------------------------------*- C++ -*----------------------------------*\
  =========                 |
  \\      /  F ield         | OpenFOAM: The Open Source CFD Toolbox
   \\    /   O peration     | Website:  https://openfoam.org
    \\  /    A nd           | Version:  dev
     \\/     M anipulation  |
\*---------------------------------------------------------------------------*/
FoamFile
{
    version     2.0;
    format      ascii;
    class       volScalarField;
    location    "2500";
    object      a;
}
// * * * * * * * * * * * * * * * * * * * * * * * * * * * * * * * * * * * * * //

dimensions      [0 -1 0 0 0 0 0];

internalField   nonuniform List<scalar> 
9729
(
0.100011
0.100011
0.100011
0.100011
0.100011
0.100011
0.100011
0.100011
0.100011
0.100011
0.10001
0.100011
0.100011
0.100011
0.100011
0.10001
0.10001
0.100011
0.100011
0.100011
0.100011
0.10001
0.10001
0.10001
0.100011
0.100011
0.100011
0.100011
0.10001
0.10001
0.10001
0.10001
0.100011
0.100011
0.100011
0.100011
0.100009
0.10001
0.10001
0.10001
0.10001
0.100011
0.100011
0.100011
0.100011
0.100009
0.100009
0.10001
0.10001
0.10001
0.10001
0.100011
0.100011
0.100011
0.100011
0.100009
0.100009
0.100009
0.10001
0.10001
0.10001
0.10001
0.100011
0.100011
0.100011
0.100011
0.100009
0.100009
0.100009
0.100009
0.10001
0.10001
0.10001
0.10001
0.100011
0.100011
0.100011
0.100011
0.100009
0.100009
0.100009
0.100009
0.100009
0.10001
0.10001
0.10001
0.10001
0.100011
0.100011
0.100011
0.100011
0.100008
0.100009
0.100009
0.100009
0.100009
0.100009
0.10001
0.10001
0.10001
0.10001
0.100011
0.100011
0.100011
0.100011
0.100008
0.100008
0.100009
0.100009
0.100009
0.100009
0.100009
0.10001
0.10001
0.10001
0.10001
0.100011
0.100011
0.100011
0.100011
0.100008
0.100008
0.100008
0.100009
0.100009
0.100009
0.100009
0.100009
0.10001
0.10001
0.10001
0.10001
0.100011
0.100011
0.100011
0.100011
0.100008
0.100008
0.100008
0.100008
0.100009
0.100009
0.100009
0.100009
0.100009
0.10001
0.10001
0.10001
0.10001
0.100011
0.100011
0.100011
0.100011
0.100007
0.100008
0.100008
0.100008
0.100008
0.100008
0.100009
0.100009
0.100009
0.100009
0.10001
0.10001
0.10001
0.10001
0.100011
0.100011
0.100011
0.100011
0.100007
0.100007
0.100008
0.100008
0.100008
0.100008
0.100008
0.100009
0.100009
0.100009
0.100009
0.10001
0.10001
0.10001
0.10001
0.100011
0.100011
0.100011
0.100011
0.100007
0.100007
0.100007
0.100008
0.100008
0.100008
0.100008
0.100008
0.100009
0.100009
0.100009
0.100009
0.10001
0.10001
0.10001
0.10001
0.100011
0.100011
0.100011
0.100011
0.100007
0.100007
0.100007
0.100007
0.100008
0.100008
0.100008
0.100008
0.100008
0.100009
0.100009
0.100009
0.100009
0.10001
0.10001
0.10001
0.10001
0.100011
0.100011
0.100011
0.100011
0.100006
0.100007
0.100007
0.100007
0.100007
0.100008
0.100008
0.100008
0.100008
0.100008
0.100009
0.100009
0.100009
0.100009
0.10001
0.10001
0.10001
0.10001
0.100011
0.100011
0.100011
0.100011
0.100006
0.100006
0.100007
0.100007
0.100007
0.100007
0.100008
0.100008
0.100008
0.100008
0.100008
0.100009
0.100009
0.100009
0.100009
0.10001
0.10001
0.10001
0.10001
0.100011
0.100011
0.100011
0.100011
0.100006
0.100006
0.100006
0.100007
0.100007
0.100007
0.100007
0.100008
0.100008
0.100008
0.100008
0.100008
0.100009
0.100009
0.100009
0.100009
0.10001
0.10001
0.10001
0.10001
0.100011
0.100011
0.100011
0.100011
0.100006
0.100006
0.100006
0.100006
0.100007
0.100007
0.100007
0.100007
0.100008
0.100008
0.100008
0.100008
0.100008
0.100009
0.100009
0.100009
0.100009
0.10001
0.10001
0.10001
0.10001
0.100011
0.100011
0.100011
0.100011
0.100006
0.100006
0.100006
0.100006
0.100006
0.100007
0.100007
0.100007
0.100007
0.100008
0.100008
0.100008
0.100008
0.100008
0.100009
0.100009
0.100009
0.100009
0.10001
0.10001
0.10001
0.10001
0.100011
0.100011
0.100011
0.100011
0.100005
0.100006
0.100006
0.100006
0.100006
0.100006
0.100007
0.100007
0.100007
0.100007
0.100008
0.100008
0.100008
0.100008
0.100008
0.100009
0.100009
0.100009
0.100009
0.10001
0.10001
0.10001
0.10001
0.100011
0.100011
0.100011
0.100011
0.100005
0.100005
0.100006
0.100006
0.100006
0.100006
0.100006
0.100007
0.100007
0.100007
0.100007
0.100008
0.100008
0.100008
0.100008
0.100008
0.100009
0.100009
0.100009
0.100009
0.10001
0.10001
0.10001
0.10001
0.100011
0.100011
0.100011
0.100011
0.100005
0.100005
0.100005
0.100006
0.100006
0.100006
0.100006
0.100006
0.100007
0.100007
0.100007
0.100007
0.100008
0.100008
0.100008
0.100008
0.100008
0.100009
0.100009
0.100009
0.100009
0.10001
0.10001
0.10001
0.10001
0.100011
0.100011
0.100011
0.100011
0.100005
0.100005
0.100005
0.100005
0.100006
0.100006
0.100006
0.100006
0.100006
0.100007
0.100007
0.100007
0.100007
0.100008
0.100008
0.100008
0.100008
0.100008
0.100009
0.100009
0.100009
0.100009
0.10001
0.10001
0.10001
0.10001
0.100011
0.100011
0.100011
0.100011
0.100004
0.100005
0.100005
0.100005
0.100005
0.100006
0.100006
0.100006
0.100006
0.100006
0.100007
0.100007
0.100007
0.100007
0.100008
0.100008
0.100008
0.100008
0.100008
0.100009
0.100009
0.100009
0.100009
0.10001
0.10001
0.10001
0.10001
0.100011
0.100011
0.100011
0.100011
0.100004
0.100004
0.100005
0.100005
0.100005
0.100005
0.100006
0.100006
0.100006
0.100006
0.100006
0.100007
0.100007
0.100007
0.100007
0.100008
0.100008
0.100008
0.100008
0.100008
0.100009
0.100009
0.100009
0.100009
0.10001
0.10001
0.10001
0.10001
0.100011
0.100011
0.100011
0.100011
0.100004
0.100004
0.100004
0.100005
0.100005
0.100005
0.100005
0.100006
0.100006
0.100006
0.100006
0.100006
0.100007
0.100007
0.100007
0.100007
0.100008
0.100008
0.100008
0.100008
0.100008
0.100009
0.100009
0.100009
0.100009
0.10001
0.10001
0.10001
0.10001
0.100011
0.100011
0.100011
0.100011
0.100004
0.100004
0.100004
0.100004
0.100005
0.100005
0.100005
0.100005
0.100006
0.100006
0.100006
0.100006
0.100006
0.100007
0.100007
0.100007
0.100007
0.100008
0.100008
0.100008
0.100008
0.100008
0.100009
0.100009
0.100009
0.100009
0.10001
0.10001
0.10001
0.10001
0.100011
0.100011
0.100011
0.100011
0.100011
0.100004
0.100004
0.100004
0.100004
0.100004
0.100005
0.100005
0.100005
0.100005
0.100006
0.100006
0.100006
0.100006
0.100006
0.100007
0.100007
0.100007
0.100007
0.100008
0.100008
0.100008
0.100008
0.100008
0.100009
0.100009
0.100009
0.100009
0.10001
0.10001
0.10001
0.10001
0.100011
0.100011
0.100011
0.100011
0.100011
0.100011
0.100003
0.100004
0.100004
0.100004
0.100004
0.100004
0.100005
0.100005
0.100005
0.100005
0.100006
0.100006
0.100006
0.100006
0.100006
0.100007
0.100007
0.100007
0.100007
0.100008
0.100008
0.100008
0.100008
0.100008
0.100009
0.100009
0.100009
0.100009
0.10001
0.10001
0.10001
0.10001
0.100011
0.10001
0.100011
0.100011
0.100011
0.100011
0.100011
0.100011
0.100011
0.100003
0.100003
0.100004
0.100004
0.100004
0.100004
0.100004
0.100005
0.100005
0.100005
0.100005
0.100006
0.100006
0.100006
0.100006
0.100006
0.100007
0.100007
0.100007
0.100007
0.100008
0.100008
0.100008
0.100008
0.100008
0.100009
0.100009
0.100009
0.100009
0.10001
0.10001
0.10001
0.10001
0.10001
0.10001
0.100011
0.100011
0.100011
0.100011
0.100011
0.100011
0.100011
0.100003
0.100003
0.100003
0.100004
0.100004
0.100004
0.100004
0.100004
0.100005
0.100005
0.100005
0.100005
0.100006
0.100006
0.100006
0.100006
0.100006
0.100007
0.100007
0.100007
0.100007
0.100008
0.100008
0.100008
0.100008
0.100008
0.100009
0.100009
0.100009
0.100009
0.10001
0.10001
0.10001
0.10001
0.10001
0.10001
0.10001
0.100011
0.100011
0.100011
0.100011
0.100011
0.100011
0.100011
0.100003
0.100003
0.100003
0.100003
0.100004
0.100004
0.100004
0.100004
0.100004
0.100005
0.100005
0.100005
0.100005
0.100006
0.100006
0.100006
0.100006
0.100006
0.100007
0.100007
0.100007
0.100007
0.100008
0.100008
0.100008
0.100008
0.100008
0.100009
0.100009
0.100009
0.100009
0.10001
0.10001
0.10001
0.10001
0.10001
0.10001
0.10001
0.10001
0.100011
0.100011
0.100011
0.100011
0.100011
0.100011
0.100011
0.100002
0.100003
0.100003
0.100003
0.100003
0.100004
0.100004
0.100004
0.100004
0.100004
0.100005
0.100005
0.100005
0.100005
0.100006
0.100006
0.100006
0.100006
0.100006
0.100007
0.100007
0.100007
0.100007
0.100008
0.100008
0.100008
0.100008
0.100008
0.100009
0.100009
0.100009
0.100009
0.10001
0.10001
0.10001
0.10001
0.10001
0.10001
0.10001
0.10001
0.10001
0.100011
0.100011
0.100011
0.100011
0.100011
0.100011
0.100011
0.100002
0.100002
0.100003
0.100003
0.100003
0.100003
0.100004
0.100004
0.100004
0.100004
0.100004
0.100005
0.100005
0.100005
0.100005
0.100006
0.100006
0.100006
0.100006
0.100006
0.100007
0.100007
0.100007
0.100007
0.100008
0.100008
0.100008
0.100008
0.100008
0.100009
0.100009
0.100009
0.100009
0.100009
0.10001
0.10001
0.10001
0.10001
0.10001
0.10001
0.10001
0.10001
0.10001
0.100011
0.100011
0.100011
0.100011
0.100011
0.100011
0.100011
0.100002
0.100002
0.100002
0.100003
0.100003
0.100003
0.100003
0.100004
0.100004
0.100004
0.100004
0.100004
0.100005
0.100005
0.100005
0.100005
0.100006
0.100006
0.100006
0.100006
0.100006
0.100007
0.100007
0.100007
0.100007
0.100008
0.100008
0.100008
0.100008
0.100008
0.100009
0.100009
0.100009
0.100009
0.100009
0.100009
0.10001
0.10001
0.10001
0.10001
0.10001
0.10001
0.10001
0.10001
0.10001
0.100011
0.100011
0.100011
0.100011
0.100011
0.100011
0.100011
0.100002
0.100002
0.100002
0.100002
0.100003
0.100003
0.100003
0.100003
0.100004
0.100004
0.100004
0.100004
0.100004
0.100005
0.100005
0.100005
0.100005
0.100006
0.100006
0.100006
0.100006
0.100006
0.100007
0.100007
0.100007
0.100007
0.100008
0.100008
0.100008
0.100008
0.100008
0.100009
0.100009
0.100009
0.100009
0.100009
0.100009
0.100009
0.10001
0.10001
0.10001
0.10001
0.10001
0.10001
0.10001
0.10001
0.10001
0.100011
0.100011
0.100011
0.100011
0.100011
0.100011
0.100011
0.100001
0.100002
0.100002
0.100002
0.100002
0.100003
0.100003
0.100003
0.100003
0.100004
0.100004
0.100004
0.100004
0.100004
0.100005
0.100005
0.100005
0.100005
0.100006
0.100006
0.100006
0.100006
0.100006
0.100007
0.100007
0.100007
0.100007
0.100008
0.100008
0.100008
0.100008
0.100008
0.100009
0.100009
0.100009
0.100009
0.100009
0.100009
0.100009
0.100009
0.10001
0.10001
0.10001
0.10001
0.10001
0.10001
0.10001
0.10001
0.100011
0.100011
0.100011
0.100011
0.100011
0.100011
0.100011
0.100011
0.100001
0.100001
0.100002
0.100002
0.100002
0.100002
0.100003
0.100003
0.100003
0.100003
0.100004
0.100004
0.100004
0.100004
0.100004
0.100005
0.100005
0.100005
0.100005
0.100006
0.100006
0.100006
0.100006
0.100006
0.100007
0.100007
0.100007
0.100007
0.100008
0.100008
0.100008
0.100008
0.100009
0.100008
0.100009
0.100009
0.100009
0.100009
0.100009
0.100009
0.10001
0.10001
0.10001
0.10001
0.10001
0.100011
0.100011
0.100012
0.100011
0.100012
0.100011
0.100011
0.100012
0.100013
0.100011
0.100011
0.100011
0.100011
0.100001
0.100001
0.100001
0.100002
0.100002
0.100002
0.100002
0.100003
0.100003
0.100003
0.100003
0.100004
0.100004
0.100004
0.100004
0.100004
0.100005
0.100005
0.100005
0.100005
0.100006
0.100006
0.100006
0.100006
0.100006
0.100007
0.100007
0.100007
0.100007
0.100008
0.100008
0.100008
0.100008
0.100009
0.100008
0.100009
0.100009
0.100009
0.100009
0.100009
0.100009
0.100011
0.100012
0.100013
0.100017
0.100016
0.100027
0.100017
0.100033
0.100015
0.100029
0.10002
0.100013
0.100025
0.100031
0.100011
0.100013
0.100011
0.100011
0.100001
0.100001
0.100001
0.100001
0.100002
0.100002
0.100002
0.100002
0.100003
0.100003
0.100003
0.100003
0.100004
0.100004
0.100004
0.100004
0.100004
0.100005
0.100005
0.100005
0.100005
0.100006
0.100006
0.100006
0.100006
0.100006
0.100007
0.100007
0.100007
0.100007
0.100008
0.100008
0.100008
0.100008
0.100009
0.100009
0.100008
0.100009
0.100009
0.100009
0.100009
0.100013
0.100014
0.100025
0.100038
0.100051
0.100097
0.100077
0.100185
0.100081
0.100234
0.100055
0.100188
0.100096
0.100033
0.100147
0.100192
0.100012
0.100028
0.100011
0.100012
0.100001
0.100001
0.100001
0.100001
0.100001
0.100002
0.100002
0.100002
0.100002
0.100003
0.100003
0.100003
0.100003
0.100004
0.100004
0.100004
0.100004
0.100004
0.100005
0.100005
0.100005
0.100005
0.100006
0.100006
0.100006
0.100006
0.100006
0.100007
0.100007
0.100007
0.100007
0.100008
0.100009
0.100009
0.100008
0.100009
0.100009
0.100009
0.100009
0.100009
0.100009
0.100014
0.100014
0.100055
0.10007
0.100185
0.100326
0.10043
0.100871
0.100626
0.101524
0.100623
0.101791
0.100401
0.101419
0.100725
0.100206
0.101101
0.101405
0.100021
0.100166
0.100011
0.100015
0.1
0.100001
0.100001
0.100001
0.100001
0.100001
0.100002
0.100002
0.100002
0.100002
0.100003
0.100003
0.100003
0.100003
0.100004
0.100004
0.100004
0.100004
0.100004
0.100005
0.100005
0.100005
0.100005
0.100006
0.100006
0.100006
0.100006
0.100006
0.100007
0.100007
0.100007
0.100008
0.100011
0.100019
0.100011
0.100017
0.100012
0.100016
0.10001
0.100011
0.100015
0.100017
0.100079
0.100088
0.100504
0.100675
0.101621
0.102652
0.103369
0.10621
0.104483
0.109985
0.10427
0.110778
0.10281
0.108655
0.10467
0.101476
0.10666
0.108086
0.100098
0.101179
0.100012
0.100044
0.1
0.1
0.100001
0.100001
0.100001
0.100001
0.100001
0.100002
0.100002
0.100002
0.100002
0.100003
0.100003
0.100003
0.100003
0.100004
0.100004
0.100004
0.100004
0.100004
0.100005
0.100005
0.100005
0.100005
0.100006
0.100006
0.100006
0.100006
0.100006
0.100007
0.100008
0.100011
0.10002
0.10004
0.100053
0.100079
0.100021
0.100033
0.10004
0.100061
0.100021
0.100031
0.100095
0.100116
0.100821
0.100956
0.103906
0.105185
0.110229
0.115039
0.118259
0.128782
0.123625
0.14126
0.121883
0.145515
0.115049
0.138148
0.122548
0.108285
0.129628
0.134146
0.100676
0.106717
0.100019
0.100256
0.1
0.1
0.100001
0.100001
0.100001
0.100001
0.100001
0.100002
0.100002
0.100002
0.100002
0.100003
0.100003
0.100003
0.100003
0.100004
0.100004
0.100004
0.100004
0.100004
0.100005
0.100005
0.100005
0.100005
0.100006
0.100006
0.100006
0.100006
0.100007
0.100011
0.100025
0.10006
0.100135
0.100173
0.100094
0.100185
0.100268
0.100087
0.100123
0.100268
0.100378
0.100147
0.100215
0.101049
0.1012
0.106477
0.107716
0.120366
0.125623
0.140791
0.153004
0.161149
0.181155
0.173833
0.202675
0.173728
0.211167
0.157339
0.203992
0.176375
0.134185
0.190666
0.197689
0.103874
0.127868
0.100064
0.101351
0.1
0.1
0.100001
0.100001
0.100001
0.100001
0.100001
0.100002
0.100002
0.100002
0.100002
0.100003
0.100003
0.100003
0.100003
0.100004
0.100004
0.100004
0.100004
0.100004
0.100005
0.100005
0.100005
0.100005
0.100006
0.100006
0.100006
0.100009
0.100023
0.100079
0.100235
0.100551
0.10115
0.10042
0.100868
0.100799
0.101128
0.100465
0.100635
0.102
0.102386
0.101404
0.101728
0.108745
0.109654
0.130863
0.135636
0.164547
0.174747
0.200082
0.216731
0.228993
0.251426
0.245673
0.274285
0.247004
0.282956
0.230541
0.277237
0.251048
0.160453
0.199227
0.263491
0.26706
0.232748
0.116645
0.19009
0.146631
0.188014
0.100224
0.105302
0.1
0.1
0.100001
0.100001
0.100001
0.100001
0.100001
0.100002
0.100002
0.100002
0.100002
0.100003
0.100003
0.100003
0.100003
0.100004
0.100004
0.100004
0.100004
0.100004
0.100005
0.100005
0.100005
0.100005
0.100006
0.100006
0.100013
0.10006
0.100277
0.100934
0.102181
0.103991
0.10452
0.106916
0.101545
0.102436
0.10385
0.105004
0.102696
0.103283
0.112303
0.113216
0.110499
0.111446
0.139464
0.142386
0.183812
0.191195
0.230735
0.242097
0.27004
0.284847
0.29667
0.313848
0.311623
0.331918
0.313073
0.339821
0.299676
0.330619
0.314391
0.288171
0.311878
0.230678
0.295458
0.322523
0.316174
0.297378
0.26591
0.126173
0.16426
0.172202
0.22643
0.217566
0.100092
0.141875
0.106344
0.126827
0.1
0.1
0.100001
0.100001
0.100001
0.100001
0.100001
0.100002
0.100002
0.100002
0.100002
0.100003
0.100003
0.100003
0.100003
0.100004
0.100004
0.100004
0.100004
0.100004
0.100005
0.100005
0.100005
0.100005
0.100007
0.100023
0.100164
0.10093
0.103516
0.107807
0.11233
0.112998
0.115101
0.11269
0.119521
0.106345
0.109084
0.116964
0.119442
0.114127
0.115407
0.146492
0.147203
0.144453
0.145714
0.196597
0.200337
0.251222
0.25803
0.29639
0.304733
0.326728
0.334797
0.345635
0.353615
0.344033
0.350922
0.356698
0.361308
0.343669
0.355332
0.360315
0.370561
0.36392
0.338547
0.331222
0.348925
0.353334
0.338185
0.263261
0.324759
0.34851
0.34414
0.325975
0.296586
0.190668
0.206563
0.257439
0.248515
0.10012
0.102736
0.110981
0.170355
0.144807
0.1
0.1
0.100001
0.100001
0.100001
0.100001
0.100001
0.100002
0.100002
0.100002
0.100002
0.100003
0.100003
0.100003
0.100003
0.100004
0.100004
0.100004
0.100004
0.100004
0.100005
0.100005
0.100005
0.100007
0.100038
0.1004
0.102724
0.111073
0.1238
0.133064
0.144149
0.126283
0.142094
0.134106
0.142862
0.122598
0.127784
0.151167
0.154121
0.14798
0.149233
0.204224
0.204244
0.202633
0.203822
0.262642
0.265441
0.310298
0.313623
0.339116
0.340198
0.356399
0.355545
0.36434
0.365946
0.366268
0.365275
0.366321
0.370077
0.372002
0.364567
0.372971
0.374807
0.381962
0.378694
0.362341
0.35598
0.370198
0.373077
0.362443
0.293222
0.351155
0.367844
0.371927
0.352288
0.324956
0.235889
0.218651
0.286979
0.277426
0.100184
0.104464
0.120174
0.196052
0.166686
0.1
0.1
0.100001
0.100001
0.100001
0.100001
0.100001
0.100002
0.100002
0.100002
0.100002
0.100003
0.100003
0.100003
0.100003
0.100004
0.100004
0.100004
0.100004
0.100004
0.100005
0.100005
0.100006
0.100045
0.100632
0.10527
0.122724
0.147782
0.164321
0.17496
0.183293
0.189772
0.152976
0.16495
0.170898
0.18056
0.158102
0.163857
0.205124
0.207075
0.204127
0.204332
0.266832
0.266181
0.266779
0.267124
0.31507
0.315199
0.339551
0.338412
0.353475
0.349721
0.363916
0.361609
0.359209
0.356233
0.372227
0.3713
0.369544
0.367069
0.377197
0.377662
0.376728
0.380816
0.385649
0.382833
0.387325
0.387631
0.380669
0.376878
0.38733
0.387771
0.382766
0.321339
0.374744
0.387793
0.391867
0.376069
0.351253
0.263963
0.245743
0.31485
0.304944
0.100213
0.130576
0.105873
0.221422
0.18817
0.1
0.1
0.100001
0.100001
0.100001
0.100001
0.100001
0.100002
0.100002
0.100002
0.100002
0.100003
0.100003
0.100003
0.100003
0.100003
0.100004
0.100004
0.100004
0.100004
0.100005
0.100006
0.100043
0.100708
0.107021
0.132604
0.171184
0.196911
0.21907
0.253174
0.219811
0.248189
0.191128
0.206717
0.221744
0.230683
0.210157
0.215068
0.264784
0.265438
0.265288
0.264756
0.312889
0.311695
0.314698
0.313966
0.336437
0.334434
0.345505
0.341266
0.353353
0.349866
0.342468
0.364158
0.360706
0.356982
0.353008
0.374875
0.372167
0.368801
0.364923
0.382026
0.380151
0.377219
0.391576
0.392349
0.385519
0.388047
0.391002
0.393861
0.393233
0.399312
0.396633
0.398522
0.347707
0.395002
0.403269
0.407476
0.39683
0.375351
0.29111
0.272403
0.341248
0.331425
0.100437
0.140741
0.110136
0.247705
0.213898
0.1
0.1
0.100001
0.100001
0.100001
0.100001
0.100001
0.100002
0.100002
0.100002
0.100002
0.100003
0.100003
0.100003
0.100003
0.100003
0.100004
0.100004
0.100004
0.100004
0.100005
0.100031
0.100671
0.107351
0.138102
0.189746
0.228689
0.257984
0.285667
0.300981
0.306993
0.271709
0.288681
0.241901
0.256271
0.27646
0.2837
0.267342
0.271091
0.309505
0.30964
0.310625
0.309807
0.329506
0.328366
0.33256
0.330906
0.336915
0.333066
0.33465
0.326854
0.348937
0.344607
0.332779
0.337446
0.360735
0.35653
0.352489
0.348664
0.373472
0.369167
0.364734
0.360648
0.382456
0.37839
0.373718
0.396361
0.393972
0.383741
0.384297
0.389729
0.401136
0.404176
0.405311
0.399953
0.408715
0.372276
0.411125
0.413135
0.417485
0.413863
0.396905
0.317788
0.300343
0.366278
0.357122
0.103423
0.16247
0.129046
0.279244
0.251761
0.1
0.1
0.100001
0.100001
0.100001
0.100001
0.100001
0.100002
0.100002
0.100002
0.100002
0.100003
0.100003
0.100003
0.100003
0.100003
0.100004
0.100004
0.100004
0.100005
0.100017
0.10047
0.106928
0.138941
0.200871
0.252528
0.278169
0.293868
0.307279
0.316023
0.313727
0.310009
0.315068
0.293372
0.302703
0.314846
0.317827
0.31036
0.312256
0.32663
0.32651
0.327501
0.326934
0.324309
0.322815
0.329424
0.326487
0.318481
0.31208
0.328376
0.32272
0.311438
0.317695
0.344903
0.341088
0.335863
0.340236
0.357239
0.354171
0.351536
0.349116
0.369105
0.36525
0.362303
0.360442
0.378669
0.373752
0.369927
0.396306
0.390803
0.378807
0.37948
0.3847
0.403114
0.409352
0.4061
0.398157
0.413481
0.394768
0.421747
0.417877
0.422636
0.425679
0.41529
0.345196
0.330889
0.389887
0.382333
0.155485
0.21353
0.199503
0.315754
0.30313
0.1
0.1
0.100001
0.100001
0.100001
0.100001
0.100001
0.100002
0.100002
0.100002
0.100002
0.100003
0.100003
0.100003
0.100003
0.100004
0.100004
0.100004
0.100004
0.100008
0.100224
0.105206
0.137211
0.202589
0.263007
0.284749
0.292259
0.29345
0.285569
0.267006
0.314161
0.302485
0.321661
0.319642
0.320595
0.321973
0.32643
0.325778
0.32652
0.326608
0.321058
0.320666
0.321896
0.321388
0.297365
0.295438
0.305713
0.300798
0.29959
0.284671
0.330704
0.324454
0.310135
0.317606
0.346566
0.343656
0.353839
0.358036
0.35971
0.360083
0.360877
0.361496
0.367458
0.366886
0.368317
0.371774
0.374512
0.372208
0.372468
0.391625
0.385307
0.376675
0.381072
0.381337
0.399901
0.409229
0.402046
0.392637
0.412909
0.414802
0.42781
0.417402
0.422934
0.433161
0.42896
0.372823
0.362084
0.411821
0.406328
0.285218
0.301352
0.331281
0.353612
0.354173
0.1
0.1
0.100001
0.100001
0.100001
0.100001
0.100001
0.100002
0.100002
0.100002
0.100002
0.100003
0.100003
0.100003
0.100003
0.100004
0.100004
0.100004
0.100006
0.100087
0.102802
0.130387
0.200289
0.264512
0.285595
0.286295
0.25988
0.200467
0.243604
0.208431
0.286924
0.266367
0.313352
0.302464
0.32408
0.320379
0.315561
0.311142
0.319871
0.31831
0.294178
0.29358
0.294579
0.294349
0.251966
0.24827
0.270122
0.259504
0.308334
0.295545
0.283429
0.270263
0.34772
0.339705
0.319319
0.330077
0.361514
0.360457
0.387656
0.392359
0.376493
0.381802
0.38691
0.391165
0.375767
0.381935
0.39026
0.400061
0.377009
0.381125
0.389215
0.38652
0.384861
0.384832
0.394596
0.387157
0.393985
0.404828
0.396158
0.389233
0.408564
0.431053
0.42977
0.413578
0.420082
0.437449
0.438214
0.39915
0.391289
0.431127
0.428465
0.274435
0.367722
0.371945
0.387645
0.392905
0.1
0.100001
0.100001
0.100001
0.100001
0.100001
0.100001
0.100002
0.100002
0.100002
0.100002
0.100003
0.100003
0.100003
0.100004
0.100004
0.100005
0.100007
0.100036
0.101202
0.119733
0.191641
0.262971
0.285184
0.275313
0.226456
0.157792
0.141106
0.123979
0.189442
0.161441
0.241222
0.215835
0.281415
0.263516
0.304495
0.294872
0.283081
0.275466
0.29189
0.288382
0.247034
0.246495
0.246845
0.246856
0.204372
0.191682
0.250359
0.22514
0.325309
0.307915
0.290572
0.273977
0.380026
0.369595
0.341715
0.356662
0.393708
0.394174
0.429759
0.43636
0.410387
0.420396
0.429136
0.435673
0.400303
0.413723
0.428424
0.44343
0.393369
0.406002
0.421914
0.389113
0.393917
0.407395
0.422297
0.404915
0.39261
0.399216
0.396248
0.39348
0.40334
0.442989
0.428533
0.408858
0.416487
0.438917
0.445065
0.423386
0.418324
0.446396
0.447852
0.17296
0.403496
0.344548
0.417135
0.421267
0.100002
0.100001
0.100001
0.100001
0.100001
0.100001
0.100002
0.100002
0.100002
0.100002
0.100002
0.100003
0.100003
0.100004
0.100006
0.100009
0.100012
0.100028
0.100494
0.110627
0.172169
0.257272
0.284465
0.268517
0.206556
0.142866
0.110348
0.111006
0.104927
0.135883
0.120002
0.184149
0.158177
0.231807
0.209524
0.264858
0.250393
0.232992
0.223125
0.244408
0.239913
0.186247
0.185415
0.186639
0.185984
0.183749
0.158772
0.265716
0.243935
0.207048
0.225555
0.352339
0.330593
0.308329
0.2864
0.420018
0.407011
0.372781
0.391138
0.439015
0.439308
0.464935
0.47536
0.457622
0.469719
0.478655
0.483635
0.439944
0.458943
0.477506
0.494104
0.424797
0.445201
0.467255
0.40067
0.41556
0.444346
0.463723
0.437427
0.397633
0.400141
0.401484
0.40693
0.40458
0.452052
0.427304
0.409887
0.41753
0.440165
0.449841
0.446593
0.444066
0.458626
0.464264
0.232109
0.413601
0.355252
0.442972
0.441282
0.100006
0.100004
0.100002
0.100002
0.100001
0.100001
0.100002
0.100002
0.100002
0.100002
0.100003
0.100004
0.100007
0.100014
0.100026
0.100035
0.100041
0.100254
0.10468
0.149677
0.242535
0.28295
0.268408
0.203943
0.14361
0.111131
0.100941
0.101872
0.10101
0.108008
0.103694
0.129641
0.116295
0.169979
0.147954
0.209673
0.191545
0.169847
0.15875
0.182748
0.177846
0.132572
0.130082
0.143985
0.13624
0.21057
0.19839
0.176117
0.159603
0.144164
0.279438
0.254791
0.231757
0.378487
0.355074
0.330247
0.304731
0.451357
0.435813
0.399701
0.418696
0.484363
0.482166
0.477187
0.4933
0.507534
0.516898
0.52143
0.521666
0.489367
0.509758
0.526905
0.539809
0.468912
0.494186
0.517946
0.425344
0.451624
0.491934
0.512926
0.4818
0.411856
0.405256
0.415416
0.433116
0.409051
0.460096
0.428669
0.414336
0.423394
0.443306
0.453917
0.468107
0.4678
0.469678
0.479619
0.138362
0.417516
0.300003
0.464686
0.455234
0.100021
0.10001
0.100005
0.100002
0.100001
0.100001
0.100002
0.100002
0.100002
0.100003
0.100006
0.100018
0.10005
0.100095
0.10012
0.100116
0.100203
0.101835
0.129207
0.2188
0.279128
0.270492
0.208131
0.151182
0.117661
0.102523
0.100063
0.100157
0.100202
0.100287
0.101025
0.100473
0.105169
0.102332
0.119537
0.11058
0.145424
0.131704
0.118867
0.113607
0.127188
0.12355
0.11011
0.106882
0.130686
0.117316
0.220435
0.208725
0.186184
0.165645
0.147553
0.295512
0.269697
0.244422
0.389609
0.368734
0.345807
0.32119
0.460531
0.443596
0.408836
0.426622
0.517033
0.507181
0.475195
0.495339
0.548154
0.551001
0.549552
0.542327
0.538492
0.554811
0.566315
0.572375
0.519299
0.543507
0.563021
0.462448
0.495727
0.541578
0.558394
0.529113
0.436777
0.416583
0.434839
0.466781
0.418372
0.468268
0.436615
0.424615
0.436812
0.454883
0.46069
0.487294
0.488806
0.48254
0.495685
0.114937
0.412482
0.24175
0.482778
0.465029
0.100058
0.100025
0.100009
0.100003
0.100002
0.100001
0.100002
0.100002
0.100004
0.100015
0.100059
0.100174
0.100311
0.100374
0.100351
0.100312
0.101046
0.114927
0.190672
0.269274
0.275027
0.219914
0.166815
0.131899
0.106776
0.100432
0.100052
0.100021
0.100029
0.100055
0.10011
0.10007
0.100514
0.100221
0.102493
0.101159
0.108713
0.104926
0.10252
0.101567
0.105054
0.103687
0.107082
0.103419
0.140993
0.126504
0.116223
0.232415
0.219159
0.19772
0.17684
0.157624
0.304298
0.280672
0.256639
0.388059
0.369836
0.349481
0.327368
0.454923
0.436633
0.404522
0.42032
0.530242
0.513983
0.460492
0.487459
0.573299
0.571016
0.562693
0.550594
0.577407
0.586649
0.590067
0.590461
0.56527
0.58305
0.59495
0.501969
0.537331
0.581412
0.592142
0.56834
0.463238
0.432771
0.459209
0.499098
0.437259
0.481581
0.455078
0.449412
0.472114
0.483317
0.47998
0.505005
0.507272
0.499126
0.512667
0.104231
0.395258
0.186894
0.498618
0.471133
0.100132
0.100048
0.100014
0.100006
0.100002
0.100001
0.100002
0.100008
0.100039
0.100178
0.100546
0.101007
0.10127
0.10117
0.10087
0.101032
0.107445
0.16203
0.25084
0.275713
0.237157
0.185791
0.14846
0.11508
0.101524
0.100045
0.100017
0.10001
0.100015
0.100016
0.100021
0.100017
0.100057
0.100031
0.100223
0.100104
0.100878
0.100452
0.100581
0.100332
0.101829
0.10101
0.110503
0.10421
0.149012
0.132504
0.128898
0.117855
0.240433
0.222768
0.204221
0.185722
0.16708
0.304413
0.283248
0.261761
0.373666
0.359845
0.34335
0.324661
0.43512
0.414219
0.385905
0.398577
0.533829
0.512775
0.445554
0.480859
0.587158
0.579943
0.5693
0.554596
0.601209
0.603236
0.603124
0.599936
0.597778
0.608057
0.612033
0.53886
0.576899
0.609101
0.622364
0.606191
0.497441
0.464433
0.510647
0.546376
0.481457
0.504945
0.499885
0.507633
0.531589
0.520078
0.511608
0.521187
0.523206
0.518017
0.528542
0.10284
0.381641
0.183329
0.513313
0.477191
0.100215
0.100091
0.100016
0.100004
0.100002
0.100003
0.100015
0.100098
0.1005
0.101612
0.103349
0.10437
0.104066
0.102883
0.10172
0.104996
0.139413
0.227172
0.273662
0.253058
0.205887
0.16657
0.127278
0.103584
0.100217
0.100007
0.100007
0.100013
0.100009
0.100007
0.100009
0.100011
0.100009
0.100019
0.100014
0.100056
0.100031
0.100176
0.100095
0.100501
0.100276
0.101826
0.1009
0.117455
0.122135
0.110297
0.105689
0.157224
0.142339
0.133823
0.241503
0.220845
0.204824
0.188619
0.172718
0.296017
0.278377
0.260113
0.349359
0.339837
0.327245
0.312515
0.410416
0.383594
0.357207
0.367011
0.535345
0.511013
0.438906
0.478635
0.593912
0.584764
0.57286
0.557274
0.613247
0.613086
0.610527
0.605826
0.618559
0.622387
0.623339
0.593695
0.621494
0.628867
0.635135
0.631452
0.565261
0.529582
0.577091
0.607614
0.550572
0.529664
0.544453
0.562425
0.56533
0.555085
0.540534
0.536755
0.537505
0.539396
0.545893
0.110479
0.387467
0.21389
0.525013
0.487276
0.100247
0.100076
0.100013
0.100003
0.100003
0.100023
0.100198
0.10114
0.104375
0.109779
0.113523
0.112927
0.108949
0.104344
0.105084
0.126647
0.201223
0.266289
0.261739
0.224303
0.184724
0.142532
0.107286
0.100576
0.100023
0.100006
0.100006
0.100006
0.100007
0.100006
0.100007
0.100009
0.100008
0.100016
0.100012
0.100043
0.100026
0.100139
0.100079
0.100562
0.100291
0.102359
0.101067
0.126016
0.118772
0.111875
0.108366
0.104819
0.159495
0.146383
0.136064
0.2364
0.212566
0.20009
0.1869
0.17326
0.278552
0.265229
0.251188
0.317522
0.310945
0.301795
0.290972
0.395717
0.355745
0.323263
0.332394
0.53723
0.511458
0.437471
0.479574
0.599362
0.590488
0.578248
0.56199
0.623336
0.621832
0.619139
0.614719
0.63139
0.632723
0.633733
0.626256
0.634764
0.639341
0.648102
0.640635
0.608943
0.588361
0.606203
0.622313
0.588172
0.551943
0.565187
0.580953
0.575327
0.565801
0.560968
0.549608
0.548078
0.559253
0.562665
0.281837
0.412904
0.359074
0.534622
0.502565
0.100252
0.100068
0.100007
0.100004
0.100031
0.100311
0.102242
0.108825
0.119391
0.12638
0.126331
0.120588
0.111746
0.107237
0.12288
0.180097
0.250785
0.262613
0.238658
0.20123
0.158392
0.113373
0.101223
0.100062
0.100006
0.100006
0.100006
0.100006
0.100007
0.100006
0.100007
0.100009
0.100008
0.100016
0.100011
0.100041
0.100025
0.100141
0.100076
0.100564
0.100284
0.102659
0.101182
0.126892
0.119344
0.112951
0.108622
0.105309
0.158708
0.147192
0.13621
0.224281
0.198843
0.190254
0.180456
0.169865
0.252731
0.244151
0.234642
0.281115
0.275429
0.268671
0.261157
0.390432
0.341207
0.28874
0.303084
0.54121
0.514573
0.4438
0.488981
0.608126
0.598986
0.586544
0.570306
0.633158
0.630664
0.62688
0.622248
0.645561
0.649236
0.64724
0.629877
0.636211
0.650478
0.694428
0.693557
0.61383
0.596063
0.606397
0.623109
0.58908
0.565511
0.575371
0.588149
0.584233
0.577735
0.568803
0.558498
0.556179
0.569883
0.571314
0.377932
0.470598
0.462591
0.544216
0.522465
0.100216
0.10003
0.100007
0.100035
0.10042
0.103301
0.113489
0.128613
0.1387
0.140045
0.134352
0.124266
0.113914
0.123906
0.170824
0.234478