/*--------------------------------*- C++ -*----------------------------------*\
  =========                 |
  \\      /  F ield         | OpenFOAM: The Open Source CFD Toolbox
   \\    /   O peration     | Website:  https://openfoam.org
    \\  /    A nd           | Version:  dev
     \\/     M anipulation  |
\*---------------------------------------------------------------------------*/
FoamFile
{
    version     2.0;
    format      ascii;
    class       volScalarField;
    location    "2500";
    object      alphat;
}
// * * * * * * * * * * * * * * * * * * * * * * * * * * * * * * * * * * * * * //

dimensions      [1 -1 -1 0 0 0 0];

internalField   nonuniform List<scalar> 
9729
(
0.00015006
0.000154197
0.000147026
0.000141406
0.000185411
0.000131627
0.000130816
0.000195459
0.000175826
0.000124418
0.000126039
0.000188533
0.000201299
0.000151707
0.000122486
0.000122511
0.000169852
0.000215912
0.000186686
0.000137424
0.000121248
0.000120592
0.000151272
0.000215127
0.000211559
0.000159838
0.000131228
0.000120323
0.000119977
0.000140152
0.000205563
0.000225831
0.000190321
0.000143916
0.000127635
0.00011968
0.000119742
0.000131862
0.000184232
0.000233142
0.00021631
0.000163644
0.000136089
0.000125143
0.000119197
0.000119573
0.000127058
0.000160722
0.000229671
0.000231942
0.000189177
0.000147569
0.00013134
0.000123427
0.000118832
0.00011896
0.000124069
0.000147798
0.000217334
0.000242525
0.000216735
0.000163944
0.000138918
0.000128116
0.000122182
0.000118526
0.000118168
0.00012248
0.000137709
0.000193313
0.00024615
0.000235945
0.000185888
0.000148739
0.000133569
0.000125815
0.00012124
0.000118287
0.00011752
0.000121714
0.000131523
0.000167774
0.00024117
0.000246648
0.000211981
0.000162289
0.000140258
0.000129967
0.000124151
0.000120498
0.000118094
0.000117037
0.000121176
0.000127813
0.000154232
0.000227351
0.000255352
0.000235097
0.00018148
0.000148356
0.000134935
0.00012736
0.000122847
0.000119914
0.000117935
0.000116808
0.000120752
0.000125477
0.000143666
0.000201967
0.000256883
0.000250445
0.000204767
0.000159875
0.000140459
0.000131033
0.000125389
0.000121843
0.000119455
0.000117809
0.000116941
0.000120094
0.000123886
0.000136701
0.000176558
0.000251165
0.000258194
0.000229434
0.000175944
0.000147429
0.000135135
0.000128257
0.000123854
0.000121052
0.000119066
0.000117701
0.000117129
0.000119053
0.000122932
0.000132164
0.000161332
0.000236774
0.000265504
0.000248484
0.000196235
0.000156774
0.000140092
0.000131372
0.000126165
0.000122658
0.000120416
0.000118778
0.000117614
0.000117265
0.000118098
0.000122052
0.000129098
0.000150716
0.000212257
0.000266108
0.000261258
0.000219587
0.000169979
0.00014582
0.000134955
0.000128586
0.000124497
0.000121765
0.000119846
0.000118514
0.000117539
0.000117339
0.000117363
0.000121262
0.00012689
0.000142868
0.000188132
0.000260654
0.000267473
0.000241906
0.000187771
0.000153493
0.000139014
0.000131393
0.000126442
0.000123196
0.000121026
0.000119427
0.000118295
0.000117476
0.000117363
0.000116821
0.000120632
0.000125155
0.000137669
0.000169434
0.000247566
0.000273605
0.000258593
0.000208064
0.000164374
0.000143961
0.000134343
0.000128644
0.000124734
0.000122201
0.000120342
0.000119069
0.000118111
0.000117421
0.000117363
0.000116486
0.000120098
0.000123822
0.000133914
0.000159158
0.000225901
0.000274249
0.000269404
0.000230237
0.000178926
0.000150067
0.000137904
0.000130956
0.000126459
0.000123403
0.000121308
0.000119815
0.000118771
0.00011795
0.000117372
0.00011735
0.000116304
0.0001194
0.000122757
0.000131187
0.000150852
0.000202035
0.000270043
0.000275159
0.000250305
0.00019718
0.000158821
0.000141829
0.000133634
0.000128373
0.000124779
0.000122375
0.000120597
0.000119386
0.000118517
0.00011781
0.000117328
0.000117322
0.000116167
0.000118689
0.000122074
0.000129263
0.000144968
0.000181224
0.000259017
0.000279489
0.000266347
0.000216725
0.000170916
0.000146864
0.00013662
0.000130381
0.000126346
0.000123481
0.00012144
0.000120016
0.00011903
0.000118298
0.000117689
0.00011729
0.000117279
0.000116064
0.000118173
0.000121561
0.00012786
0.000141111
0.000169331
0.00024081
0.000280801
0.000275384
0.00023716
0.000186354
0.000153822
0.000139909
0.000132737
0.000127924
0.000124695
0.000122397
0.000120708
0.000119534
0.000118731
0.000118115
0.000117576
0.000117255
0.000117239
0.000116007
0.000117829
0.000121165
0.000126874
0.000139041
0.000161213
0.000218226
0.000278234
0.000280873
0.000255671
0.000203851
0.000163861
0.000143874
0.000135176
0.000129767
0.000125987
0.000123342
0.000121482
0.000120099
0.000119135
0.000118482
0.000117949
0.000117472
0.000117222
0.000117209
0.000115967
0.000117589
0.000120823
0.000126183
0.00013768
0.000154785
0.000198018
0.000270051
0.00028353
0.000271509
0.00022268
0.000176276
0.000149594
0.00013808
0.000131664
0.000127421
0.000124425
0.000122302
0.000120742
0.000119587
0.000118806
0.000118263
0.000117798
0.000117376
0.00011719
0.000117185
0.00011593
0.00011743
0.000120515
0.000125684
0.000136511
0.000150501
0.000180977
0.000254539
0.000285666
0.000279322
0.000240301
0.000191881
0.000157278
0.000141295
0.000133889
0.000128927
0.000125557
0.000123121
0.000121425
0.000120121
0.000119165
0.000118522
0.000118074
0.000117661
0.000117282
0.000117161
0.000117162
0.000115902
0.000117331
0.000120303
0.000125405
0.000135609
0.000147505
0.000172144
0.000235619
0.000284556
0.000284365
0.000258409
0.000207735
0.000167885
0.00014568
0.000136282
0.000130674
0.000126754
0.000124002
0.000122105
0.000120686
0.000119591
0.000118812
0.000118283
0.000117912
0.000117528
0.000117194
0.000117135
0.00011714
0.000115862
0.000117279
0.000120217
0.00012539
0.000135062
0.000145376
0.000164752
0.000214336
0.000279452
0.000286588
0.000272655
0.000225333
0.000180088
0.000152042
0.000139092
0.000132588
0.000128133
0.000125064
0.000122787
0.000121238
0.000120061
0.000119162
0.000118517
0.00011809
0.000117761
0.000117404
0.000117112
0.000117114
0.000117115
0.000115809
0.000117322
0.000120244
0.000125541
0.000134665
0.000143793
0.000159103
0.000196167
0.00026775
0.000289432
0.00028125
0.00024134
0.000194662
0.000160196
0.000142652
0.000134627
0.000129655
0.000126144
0.000123549
0.000121787
0.000120513
0.000119556
0.000118812
0.000118277
0.000117922
0.00011762
0.000117284
0.000117041
0.000117104
0.000117079
0.000115764
0.000117442
0.000120373
0.000125757
0.000134369
0.000142405
0.000154952
0.000183321
0.000252377
0.000289401
0.000286638
0.00025749
0.000209704
0.000170389
0.000147528
0.00013719
0.000131302
0.000127319
0.000124527
0.000122364
0.000120943
0.000119927
0.000119154
0.000118533
0.000118089
0.000117769
0.000117475
0.000117157
0.000116985
0.000117107
0.00011704
0.000115731
0.000117612
0.000120547
0.000126157
0.000134361
0.00014129
0.000151762
0.000175276
0.000233835
0.000287266
0.000289929
0.000270468
0.000225118
0.000182356
0.000153819
0.000139939
0.000133188
0.000128759
0.000125539
0.000123062
0.000121372
0.000120253
0.000119471
0.000118838
0.000118316
0.00011794
0.000117641
0.000117329
0.000117037
0.000116962
0.000117128
0.000116983
0.000115717
0.00011788
0.000120825
0.000126639
0.000134283
0.0001404
0.000149276
0.000168628
0.000215302
0.000280631
0.000291856
0.000282008
0.000240158
0.000195309
0.000161855
0.000143573
0.000135228
0.000130188
0.000126651
0.000123952
0.000121877
0.000120555
0.000119727
0.000119122
0.000118589
0.000118159
0.000117835
0.000117542
0.000117215
0.000116966
0.000117034
0.000117208
0.000116901
0.000115768
0.000118243
0.000121229
0.000127186
0.000134164
0.000139681
0.000147225
0.00016319
0.000199679
0.000268999
0.000293679
0.000287715
0.000253044
0.000209451
0.000171398
0.000148456
0.000137705
0.000131831
0.000127859
0.000124934
0.000122555
0.000120917
0.000119931
0.000119328
0.000118856
0.000118431
0.000118072
0.000117788
0.000117487
0.000117142
0.000117
0.0001172
0.00011726
0.000117344
0.000116816
0.000115933
0.000118661
0.000121772
0.000127791
0.00013408
0.000139115
0.000145563
0.000158934
0.000187562
0.000255212
0.000293605
0.000291803
0.000267497
0.000222473
0.000182656
0.000154767
0.000140385
0.000133666
0.000129231
0.000125944
0.000123415
0.000121428
0.000120169
0.000119459
0.000119038
0.000118714
0.000118377
0.000118074
0.000117804
0.000117487
0.000117167
0.000117237
0.000117437
0.000117567
0.000117308
0.000117458
0.00011673
0.000116193
0.000119064
0.000122477
0.000128416
0.000134009
0.000138613
0.00014411
0.000155512
0.000180134
0.000239342
0.000291452
0.000294699
0.000278009
0.000236289
0.000194425
0.00016245
0.000144282
0.000135643
0.00013066
0.000127098
0.00012435
0.000122139
0.000120529
0.000119585
0.000119107
0.000118883
0.000118686
0.000118428
0.000118195
0.000117951
0.000117625
0.000117281
0.00011742
0.00011768
0.000117456
0.000117778
0.000117659
0.000117902
0.000117357
0.000117621
0.000116655
0.000116499
0.000119433
0.000123304
0.00012896
0.00013392
0.000138141
0.000142843
0.000152643
0.000173679
0.000222654
0.000285622
0.000296672
0.000287797
0.000248668
0.000206731
0.000171504
0.000149081
0.000138082
0.000132209
0.000128327
0.000125323
0.000122983
0.000121091
0.000119809
0.000119136
0.00011889
0.000118853
0.00011879
0.000118658
0.000118528
0.000118306
0.000117632
0.000118037
0.000117628
0.000118086
0.00011795
0.000118223
0.000117982
0.000118352
0.000117435
0.000117899
0.000116589
0.00011683
0.000119811
0.000124157
0.000129365
0.000133794
0.00013769
0.000141734
0.000150245
0.000168193
0.000208468
0.000275944
0.000299421
0.000292686
0.000260975
0.000219021
0.000181466
0.000155138
0.000140825
0.000134092
0.000129609
0.000126432
0.000123872
0.000121805
0.000120229
0.000119244
0.000118832
0.000118854
0.000118981
0.000119102
0.000119158
0.000119115
0.000118446
0.000118929
0.000117991
0.000118416
0.00011826
0.000118663
0.000118548
0.000118933
0.000118373
0.000118883
0.000117242
0.000115111
0.000116539
0.000117169
0.000120229
0.000125008
0.000129698
0.00013365
0.00013724
0.000140767
0.000148306
0.00016371
0.000196308
0.000264
0.000299653
0.000297318
0.000273202
0.000230892
0.000192199
0.000162245
0.000144732
0.000136001
0.000131149
0.000127582
0.000124839
0.000122619
0.000120817
0.000119534
0.000118842
0.000118788
0.000119013
0.000119385
0.000119765
0.000119944
0.000119507
0.000120156
0.000118865
0.000119505
0.000118678
0.000119099
0.000118972
0.000118815
0.000119416
0.000113332
0.000109666
0.000104726
9.75201e-05
9.62408e-05
0.000116507
0.000117528
0.00012071
0.000125767
0.000129978
0.000133509
0.000136785
0.00013986
0.000146711
0.000160228
0.000187271
0.000250601
0.000298398
0.00030067
0.000283405
0.000242974
0.000203223
0.00017041
0.000149301
0.000138413
0.000132618
0.000128833
0.000125925
0.000123488
0.000121539
0.000120016
0.000119028
0.000118766
0.000118974
0.000119527
0.000120276
0.000120896
0.00012076
0.000120108
0.000120278
0.00011734
0.000119612
0.000117635
0.000119389
0.000116613
0.00011482
0.000101423
0.000106776
9.73917e-05
9.19859e-05
8.86569e-05
8.18814e-05
8.14175e-05
0.000116486
0.000117892
0.000121253
0.000126456
0.000130251
0.000133378
0.000136364
0.000139036
0.000145342
0.000157683
0.000181279
0.000235751
0.000294253
0.000302814
0.000293122
0.000254159
0.000214425
0.00017966
0.000154818
0.000141281
0.000134507
0.000130101
0.000127014
0.000124461
0.000122345
0.000120641
0.000119415
0.000118881
0.000118949
0.000119592
0.000120674
0.00012175
0.000117009
0.000113227
0.000111912
0.000107208
0.000110488
0.000104237
0.000109826
0.000103314
0.000108262
0.000101799
0.000100305
8.67334e-05
9.25201e-05
8.4006e-05
7.85436e-05
7.63511e-05
6.98777e-05
7.00494e-05
0.000116478
0.000118244
0.000121839
0.00012708
0.000130534
0.000133233
0.000135884
0.00013833
0.000144148
0.000156074
0.000176084
0.000220865
0.000286117
0.000306803
0.00029835
0.000265872
0.000225418
0.000189302
0.000161645
0.000144926
0.000136432
0.000131651
0.000128144
0.000125569
0.000123213
0.000121383
0.000119955
0.000119154
0.000119036
0.000119627
0.000120948
0.00012257
0.000110815
0.000107276
0.000103691
0.000101524
9.88557e-05
9.52495e-05
9.75895e-05
9.26867e-05
9.53005e-05
9.02642e-05
9.42976e-05
8.87993e-05
8.7606e-05
7.49597e-05
8.07557e-05
7.34868e-05
6.81804e-05
6.66989e-05
6.0456e-05
6.10225e-05
0.000116485
0.000118556
0.000122442
0.000127577
0.000130832
0.000133036
0.000135408
0.000137717
0.000143102
0.000154803
0.000171645
0.000208374
0.0002748
0.00030761
0.000303962
0.000277681
0.000236453
0.000199479
0.00016903
0.000149402
0.000138842
0.000133177
0.000129457
0.000126693
0.000124312
0.000122179
0.000120623
0.000119573
0.000119275
0.000119722
0.000121114
0.00012329
0.000107872
0.000104053
9.87524e-05
9.77497e-05
9.21256e-05
9.07314e-05
8.85052e-05
8.5385e-05
8.63072e-05
8.27709e-05
8.38064e-05
7.99972e-05
8.29629e-05
7.87456e-05
7.72606e-05
6.58079e-05
7.1271e-05
6.50115e-05
5.97644e-05
5.86562e-05
5.29404e-05
5.39198e-05
0.000116482
0.000118776
0.000122971
0.000127951
0.000131114
0.000132782
0.00013497
0.000137162
0.000142184
0.000153482
0.000168081
0.000197491
0.00026129
0.000306634
0.000308005
0.000288508
0.000247569
0.000209776
0.000177593
0.000154467
0.000141725
0.000135159
0.000130827
0.000127874
0.000125546
0.000123238
0.000121368
0.000120171
0.000119659
0.000119908
0.000121211
0.000123645
0.000108486
0.000103005
9.572e-05
9.62883e-05
8.83851e-05
8.80594e-05
8.31039e-05
8.16803e-05
7.9577e-05
7.69416e-05
7.71805e-05
7.44943e-05
7.47907e-05
7.17295e-05
7.35473e-05
7.03674e-05
6.81557e-05
5.84355e-05
6.33718e-05
5.8309e-05
5.29246e-05
5.23052e-05
4.70615e-05
4.82108e-05
0.000116447
0.000118953
0.00012341
0.00012825
0.000131291
0.00013247
0.00013453
0.00013666
0.00014135
0.000152073
0.000165513
0.00018974
0.000246965
0.000302993
0.000310235
0.000299027
0.00025872
0.000219944
0.000186515
0.000160897
0.000145055
0.000137067
0.00013252
0.000129125
0.000126795
0.000124587
0.000122381
0.000120889
0.000120252
0.000120267
0.000121428
0.000121702
0.000108763
9.90248e-05
9.56161e-05
9.55264e-05
8.61368e-05
8.69554e-05
8.00772e-05
7.93197e-05
7.50282e-05
7.37679e-05
7.17528e-05
6.97211e-05
6.94213e-05
6.73669e-05
6.71808e-05
6.47203e-05
6.54707e-05
6.32532e-05
6.0255e-05
5.24382e-05
5.64599e-05
5.28242e-05
4.75269e-05
4.71329e-05
4.25023e-05
4.38437e-05
0.000116371
0.00011909
0.000123763
0.000128452
0.000131308
0.000132087
0.000134047
0.000136172
0.000140557
0.000150686
0.000163453
0.000184314
0.000232407
0.000295143
0.000314518
0.000305053
0.000270458
0.000230492
0.000195635
0.000167706
0.00014944
0.000139298
0.000134209
0.0001306
0.000128072
0.000126
0.000123901
0.00012191
0.000120971
0.0001209
0.000121929
0.000124566
0.000101607
9.83312e-05
9.16698e-05
8.60896e-05
8.71678e-05
7.84212e-05
7.85187e-05
7.2809e-05
7.20499e-05
6.83557e-05
6.73231e-05
6.54232e-05
6.37872e-05
6.30362e-05
6.16015e-05
6.08784e-05
5.9233e-05
5.86043e-05
5.77661e-05
5.40088e-05
4.78126e-05
5.06368e-05
4.86216e-05
4.30225e-05
4.30058e-05
3.91698e-05
4.08433e-05
0.000116348
0.00011933
0.000124152
0.000128551
0.000131172
0.000131609
0.00013346
0.000135632
0.000139785
0.000149338
0.00016157
0.0001795
0.000218912
0.000284111
0.000315756
0.000311361
0.000282551
0.000241058
0.000205498
0.000175228
0.000154202
0.000142089
0.00013601
0.0001322
0.000129468
0.000127519
0.000125547
0.000123519
0.000121844
0.000121548
0.00012259
0.000125299
0.000100033
9.16253e-05
8.72803e-05
8.72021e-05
8.92628e-05
7.85228e-05
7.94301e-05
7.1603e-05
7.13721e-05
6.64342e-05
6.60963e-05
6.27432e-05
6.23414e-05
6.03771e-05
5.95357e-05
5.80801e-05
5.85089e-05
5.60736e-05
5.64537e-05
5.32418e-05
5.40678e-05
4.96581e-05
4.46082e-05
4.66482e-05
4.61536e-05
3.93328e-05
4.03948e-05
3.71833e-05
3.84157e-05
0.000116823
0.000120067
0.000124669
0.000128645
0.000130851
0.000131044
0.000132768
0.000134978
0.000138971
0.000148028
0.000159726
0.000175448
0.00020775
0.000270769
0.000314807
0.000315701
0.000294937
0.000252051
0.000214989
0.000183672
0.000159803
0.000145329
0.000137751
0.000133899
0.000130983
0.000129112
0.000127215
0.000125454
0.00012361
0.000122485
0.000123185
0.00012589
9.88549e-05
8.88274e-05
8.54133e-05
8.0848e-05
8.17249e-05
7.95188e-05
8.07884e-05
7.23883e-05
7.34061e-05
6.61762e-05
6.58875e-05
6.19072e-05
6.18316e-05
6.03757e-05
6.36344e-05
6.245e-05
7.11888e-05
6.22968e-05
8.12752e-05
5.96305e-05
7.90167e-05
5.31805e-05
6.90296e-05
5.55361e-05
4.31797e-05
5.81187e-05
6.34357e-05
3.70915e-05
3.93504e-05
3.69573e-05
3.67392e-05
0.000118572
0.000121644
0.000125569
0.000128921
0.000130522
0.000130478
0.00013199
0.0001342
0.000138072
0.000146744
0.000157949
0.000172476
0.000198941
0.000256466
0.000311327
0.000318181
0.000305794
0.000264086
0.000224916
0.000192056
0.000166145
0.000149311
0.000139872
0.00013543
0.000132566
0.000130759
0.000129028
0.000127607
0.000126256
0.000124912
0.000124801
0.000127045
0.000102142
8.44572e-05
8.25804e-05
7.87891e-05
7.43605e-05
7.57509e-05
7.35579e-05
7.44953e-05
6.60916e-05
6.73107e-05
6.20137e-05
6.2865e-05
6.85707e-05
7.54616e-05
9.04398e-05
9.71488e-05
9.75614e-05
0.000105856
9.50449e-05
0.000113732
9.4807e-05
0.000108907
8.99004e-05
0.000101631
9.3763e-05
6.31122e-05
9.60232e-05
9.65736e-05
3.70768e-05
5.48785e-05
4.08896e-05
3.81306e-05
0.000121457
0.000124818
0.000127261
0.000129622
0.000130493
0.000130152
0.000131284
0.000133326
0.000137085
0.000145478
0.000156285
0.000169999
0.000192369
0.000242442
0.000303754
0.000323036
0.000312554
0.000276266
0.000235565
0.000201311
0.000172881
0.000153737
0.000142457
0.000136862
0.000134094
0.000132465
0.000131008
0.000129946
0.000129164
0.000128617
0.000128332
0.000124187
9.04261e-05
7.75434e-05
8.23184e-05
8.43752e-05
7.64039e-05
7.93219e-05
7.32568e-05
7.71115e-05
6.86499e-05
7.15917e-05
6.3783e-05
6.71695e-05
8.36717e-05
9.16148e-05
0.000100411
0.000103936
0.000120005
0.000136588
0.000140209
0.000170989
0.000147286
0.000193739
0.000134647
0.000193949
0.00011267
0.000169247
0.00012476
9.4043e-05
0.000136048
0.000143189
4.55114e-05
8.59997e-05
5.26162e-05
4.78935e-05
0.00013364
0.000133152
0.000132481
0.000131278
0.000130327
0.000131011
0.000132542
0.000136046
0.000144218
0.00015475
0.000167758
0.000187191
0.00022921
0.000292924
0.000324543
0.000319903
0.000289221
0.000245946
0.00021082
0.000180866
0.000158586
0.000145445
0.000138369
0.000135418
0.000134059
0.000133043
0.000132583
0.000132573
0.000132741
0.000133623
0.000116296
9.49039e-05
8.61072e-05
8.0296e-05
6.61227e-05
8.67615e-05
9.40786e-05
7.92237e-05
8.29412e-05
8.85717e-05
0.000100668
7.20858e-05
8.06726e-05
8.78698e-05
8.58979e-05
0.000107302
0.000110781
0.000154703
0.000172004
0.00020406
0.00023677
0.000242326
0.000289661
0.000259553
0.000324442
0.000250776
0.000333486
0.000207266
0.000311818
0.000245137
0.000141637
0.000276124
0.000293239
7.38157e-05
0.000126553
9.19882e-05
6.60313e-05
0.000149813
0.000141868
0.000135974
0.000131978
0.000131276
0.000132262
0.0001353
0.000142985
0.000153328
0.000165726
0.000183017
0.00021776
0.000279821
0.000323669
0.000324407
0.000303149
0.000257943
0.000220022
0.000189141
0.000164513
0.000148837
0.000140196
0.000136531
0.000135369
0.000134902
0.000135238
0.000136461
0.000137778
0.000139023
0.000132952
0.000124935
0.00011429
0.000107535
0.000106367
0.000107082
0.000104023
0.000101718
0.000105329
0.000104083
9.13895e-05
9.65554e-05
8.56637e-05
8.84429e-05
0.000114355
0.000118971
0.000189414
0.00020675
0.000267892
0.000296056
0.00033419
0.000374704
0.000385784
0.00043949
0.000412298
0.000481353
0.000409369
0.000492135
0.000369257
0.000474665
0.000415407
0.000210618
0.000302867
0.000445495
0.000456531
0.000383711
9.82331e-05
0.000281034
0.000175858
0.000276595
6.4894e-05
6.52934e-05
0.000161515
0.000150355
0.0001391
0.000133497
0.000132633
0.000135238
0.000142208
0.000152008
0.000163936
0.000179886
0.000208616
0.000265777
0.000320314
0.000327513
0.000314096
0.000270944
0.000230533
0.000197746
0.00017098
0.000152846
0.000142348
0.000137507
0.000136332
0.000136385
0.000137631
0.000140354
0.000143429
0.000143056
0.000130202
0.00011275
0.000110378
0.000112636
0.000117172
0.000130558
0.000101886
9.85104e-05
0.000110658
0.000118179
0.000101005
0.000107181
0.000142566
0.00015194
0.000125254
0.000133631
0.000222374
0.000236836
0.000322413
0.000345574
0.000409893
0.000439538
0.000486322
0.000526705
0.00054117
0.000589748
0.000564462
0.000623389
0.000558127
0.000625081
0.000523064
0.000592036
0.000556493
0.000498755
0.000545206
0.000378814
0.000514103
0.000560588
0.000550727
0.000517903
0.000456575
0.00012144
0.000218331
0.000237012
0.000370235
0.000351436
2.27648e-05
0.000156839
6.71946e-05
0.000120909
0.000171279
0.000158873
0.000142335
0.000135404
0.000135856
0.000142183
0.000151016
0.000162373
0.00017735
0.000201521
0.000251981
0.000312959
0.000333131
0.000321756
0.000283973
0.000241437
0.00020722
0.00017847
0.000157359
0.000144909
0.0001387
0.000136983
0.000137395
0.000139555
0.000143793
0.00014888
0.000145419
0.000121848
0.000118783
0.0001366
0.000164314
0.000178
0.000187102
0.000170674
0.000226972
0.000124348
0.000142893
0.000184637
0.000205052
0.000160796
0.000170907
0.000274684
0.000287593
0.000250203
0.000262456
0.000364208
0.000380093
0.000465931
0.000486731
0.000559488
0.000587699
0.000631603
0.000667651
0.000672955
0.000713896
0.000643962
0.000668056
0.000689911
0.000710589
0.000622076
0.000649873
0.000683716
0.000695743
0.000673793
0.000602903
0.000583045
0.000615381
0.000633999
0.000590379
0.000452324
0.000564186
0.000598416
0.000595682
0.000564924
0.000517042
0.000290635
0.000327377
0.000442217
0.000425886
7.93553e-06
4.82862e-05
8.03458e-05
0.000243768
0.000179162
0.000181149
0.000166703
0.000145436
0.000139091
0.00014277
0.000150787
0.000161181
0.000175245
0.000196381
0.000239442
0.000302106
0.000335569
0.000330088
0.0002984
0.000252608
0.000216727
0.000186803
0.000163017
0.000148202
0.000140261
0.000137567
0.000138058
0.000140752
0.000146361
0.000153616
0.000151179
0.000141028
0.000182935
0.000244197
0.000325825
0.000395891
0.000271627
0.00036366
0.000307079
0.000351543
0.000231463
0.000266568
0.000333174
0.000351938
0.000301387
0.000315968
0.000412046
0.000420805
0.000392475
0.00040271
0.000502205
0.00051389
0.000611952
0.000629973
0.000696206
0.000724144
0.000746408
0.000770863
0.000728439
0.000744453
0.00075777
0.000768711
0.00070595
0.000724564
0.000740393
0.000659545
0.000681494
0.000714464
0.00071614
0.000700182
0.000641706
0.000620712
0.000645082
0.000664352
0.000623097
0.000512307
0.000598289
0.000623158
0.000621078
0.000596675
0.000563007
0.000401589
0.000366854
0.000503175
0.000488644
4.24696e-06
5.64905e-05
0.000107955
0.000317901
0.000249051
0.000192271
0.00017249
0.000148869
0.000145418
0.000151125
0.00016078
0.000173648
0.000192646
0.000228886
0.000289721
0.00033396
0.000335219
0.000313198
0.00026618
0.000226761
0.000195679
0.000169764
0.000152337
0.000142277
0.000138233
0.000138505
0.000141527
0.000148021
0.000155376
0.00016215
0.000194401
0.000306879
0.000471613
0.000541847
0.000537879
0.000481566
0.0005368
0.000394632
0.000448544
0.000423447
0.000451206
0.000373033
0.000396866
0.000448411
0.000459571
0.000429523
0.00043848
0.00053235
0.000535265
0.000521689
0.000527239
0.000643026
0.000651689
0.000744524
0.000759086
0.000787931
0.000790833
0.000777414
0.000782863
0.000785894
0.000784371
0.000753328
0.000763576
0.000770953
0.000775064
0.000730497
0.000743297
0.000752924
0.00068358
0.000699608
0.00072897
0.000696646
0.000712418
0.000664862
0.000644619
0.000661851
0.00068129
0.000641746
0.000558519
0.000617773
0.000637046
0.00063111
0.000614003
0.00059389
0.000466836
0.000434358
0.000551018
0.000539303
3.36023e-06
0.000154957
6.85343e-05
0.000385648
0.000298978
0.000203031
0.000174907
0.000153298
0.000152962
0.000160935
0.000172767
0.000190076
0.000220506
0.000276891
0.000331314
0.000339203
0.000324579
0.000279862
0.000238099
0.000205164
0.000177478
0.000157105
0.000145049
0.000139062
0.000138694
0.000141803
0.000148888
0.000154745
0.000171269
0.000236064
0.000426906
0.000649686
0.000683823
0.000627219
0.000590895
0.000535351
0.000576808
0.000479875
0.00051245
0.000501455
0.000518652
0.00047143
0.000485506
0.000544434
0.000551292
0.000538602
0.0005412
0.000666868
0.000668935
0.000658043
0.000663515
0.000768418
0.000776532
0.000794356
0.000797215
0.000782988
0.000778587
0.000761282
0.00077469
0.000771536
0.000766704
0.000760591
0.000745336
0.000727284
0.00071165
0.000702431
0.000720342
0.000693543
0.00066971
0.0006945
0.000685146
0.000662175
0.000610143
0.000645554
0.000675613
0.00065618
0.000667375
0.000682866
0.000648782
0.000590075
0.000624826
0.000640187
0.000630985
0.000618917
0.000610342
0.000521047
0.000491961
0.00058477
0.000576721
5.09379e-06
0.000167204
9.60356e-05
0.00041008
0.000264448
0.000212198
0.000173918
0.000158847
0.000162033
0.000172714
0.000188095
0.000214571
0.000264623
0.00032537
0.000345926
0.000333581
0.0002942
0.000249766
0.00021527
0.000186031
0.000163021
0.00014864
0.000140412
0.000139147
0.000141624
0.000149491
0.000156118
0.000175092
0.00025452
0.000503393
0.000765426
0.00076905
0.000699453
0.00065309
0.000676603
0.000705927
0.000590783
0.000624607
0.000539122
0.000562911
0.000583759
0.00060031
0.00055891
0.000569277
0.000674931
0.000680862
0.000671103
0.000672729
0.000796043
0.000801063
0.000783651
0.000790167
0.000802047
0.000812139
0.00075666
0.00076035
0.000754148
0.000746112
0.000664051
0.000675472
0.000700842
0.000705665
0.000716317
0.000713185
0.000649181
0.000634876
0.000628148
0.000628263
0.00063195
0.000607305
0.000590444
0.000640382
0.000600116
0.000580723
0.000542895
0.000566546
0.000647962
0.000657396
0.000616849
0.000601373
0.000643059
0.000607048
0.000621926
0.000624955
0.000611911
0.000613763
0.000614134
0.000562962
0.000495851
0.000603807
0.000599376
1.72923e-05
0.00016207
0.00013176
0.000385444
0.000255533
0.000218654
0.000174045
0.000165914
0.000173128
0.000187439
0.000210122
0.000254156
0.000315558
0.000351244
0.000342919
0.000310335
0.00026292
0.000226034
0.000195912
0.000170625
0.00015351
0.000143072
0.000139904
0.000141599
0.000148911
0.000156341
0.000178525
0.00025637
0.000527531
0.000839666
0.000824022
0.000744418
0.000754166
0.000882452
0.000804037
0.000886314
0.000703546
0.00075174
0.000625492
0.000662961
0.000712963
0.000736029
0.00068874
0.000699328
0.000817222
0.000826682
0.000806034
0.000810802
0.000850534
0.000862145
0.000824858
0.000838207
0.000768757
0.000782838
0.000656827
0.00065128
0.00065376
0.000650483
0.000700844
0.000687926
0.000585972
0.000598095
0.000634447
0.000648223
0.000660398
0.000643775
0.000581034
0.000577934
0.000580395
0.000588798
0.000560833
0.000550073
0.000545762
0.000561846
0.000531559
0.000529253
0.000508267
0.000515288
0.000569247
0.000590839
0.000542308
0.000530612
0.000569192
0.000610922
0.000600654
0.00055549
0.000545198
0.000588461
0.000607432
0.000564559
0.000478365
0.000609068
0.000602841
0.000187835
0.000172773
0.000187793
0.000390064
0.000278936
0.000218948
0.000177154
0.000175236
0.000187452
0.000207717
0.000245279
0.000305518
0.000351438
0.000350678
0.00032603
0.000277655
0.000238078
0.000207034
0.00017963
0.000160057
0.000148005
0.000141465
0.00014209
0.000148619
0.000159448
0.000177017
0.000247674
0.000519369
0.000882921
0.000865902
0.000778162
0.000815747
0.000886054
0.000984942
0.00098119
0.00095814
0.00098315
0.000868708
0.00092085
0.000774117
0.000818931
0.000875145
0.000904319
0.000837876
0.000853903
0.00089917
0.000913407
0.000873802
0.000886282
0.000737211
0.000755759
0.000750418
0.000734564
0.000620084
0.0006364
0.000576472
0.000569492
0.00056763
0.00056667
0.000627553
0.000612195
0.000519771
0.00053102
0.00060376
0.000606462
0.00058919
0.000573351
0.000546385
0.000551285
0.000560263
0.000575174
0.000523482
0.000523572
0.000527831
0.000506063
0.000495729
0.000507366
0.000498466
0.000494118
0.00050635
0.00052179
0.000487643
0.000487821
0.000506525
0.000603501
0.000534219
0.000496856
0.000486363
0.000522887
0.000575139
0.000548174
0.000484986
0.000599802
0.000582437
0.00027091
0.000183898
0.00019629
0.000423209
0.000313115
0.000214952
0.000182391
0.000188236
0.000206584
0.000239434
0.000295099
0.000348106
0.00035821
0.000340007
0.000292897
0.000250733
0.000219305
0.000190897
0.00016782
0.000154503
0.000146143
0.000143312
0.000149007
0.000160861
0.000168799
0.000224044
0.000477741
0.000895322
0.000908459
0.00080838
0.000833561
0.000886892
0.000905307
0.000978041
0.000897821
0.00100909
0.00100465
0.000988726
0.0010046
0.000936299
0.000964581
0.000966747
0.00098545
0.000930128
0.000948381
0.000858615
0.000896989
0.000782343
0.000817626
0.000557574
0.000568621
0.000589711
0.000558036
0.000498781
0.000497331
0.000502722
0.000505803
0.000510645
0.000503378
0.000496006
0.000498146
0.000558498
0.000544166
0.000466163
0.000475131
0.000560013
0.000541574
0.00052428
0.000509398
0.000534172
0.000542957
0.000536913
0.000516354
0.000511455
0.000517399
0.000523404
0.000482674
0.00048696
0.000504916
0.000499983
0.000493565
0.000474757
0.0004758
0.000466484
0.000475715
0.000466378
0.00056698
0.000477311
0.000457643
0.000448838
0.00047552
0.000519744
0.000551911
0.000524833
0.000569766
0.000572827
0.000338621
0.000189759
0.000187567
0.000500629
0.000360518
0.000210702
0.000191974
0.000206787
0.00023501
0.000286832
0.000345214
0.000368194
0.000352728
0.000310141
0.000264888
0.000231175
0.000202785
0.000179717
0.000162559
0.000153988
0.000147954
0.000150086
0.000161189
0.000158759
0.000203806
0.000396566
0.000886149
0.000947804
0.00083738
0.000855214
0.00089851
0.000797171
0.000577832
0.000462312
0.000802652
0.000687259
0.000960135
0.000891025
0.00101288
0.000999766
0.00100358
0.00101239
0.000966295
0.000971378
0.000938088
0.000954701
0.000678445
0.000723606
0.000596438
0.000636191
0.00039893
0.000398083
0.00046853
0.000420127
0.000441739
0.000440091
0.000438991
0.000438319
0.000458056
0.000451073
0.000442712
0.000445884
0.00049639
0.000485129
0.000443907
0.000449637
0.000498568
0.000484452
0.000473762
0.000466196
0.000519571
0.000497514
0.000477552
0.000463185
0.000510586
0.000508397
0.000483517
0.000482764
0.000489089
0.000501235
0.000474022
0.000492198
0.000471583
0.00046038
0.000467872
0.000478986
0.000452493
0.00052961
0.000448782
0.000446262
0.000447567
0.000462233
0.000487883
0.000576032
0.000566509
0.000548618
0.000550893
0.000246456