/*--------------------------------*- C++ -*----------------------------------*\
  =========                 |
  \\      /  F ield         | OpenFOAM: The Open Source CFD Toolbox
   \\    /   O peration     | Website:  https://openfoam.org
    \\  /    A nd           | Version:  dev
     \\/     M anipulation  |
\*---------------------------------------------------------------------------*/
FoamFile
{
    version     2.0;
    format      ascii;
    class       volScalarField;
    location    "2500";
    object      CO2;
}
// * * * * * * * * * * * * * * * * * * * * * * * * * * * * * * * * * * * * * //

dimensions      [0 0 0 0 0 0 0];

internalField   nonuniform List<scalar> 
9729
(
5.22894e-30
1.54315e-29
1.08638e-29
3.02725e-29
4.07067e-29
1.09127e-29
4.66972e-29
8.01865e-29
4.47461e-29
7.23275e-30
5.35607e-29
1.34531e-28
9.00927e-29
3.35086e-29
2.08258e-30
6.28353e-29
1.962e-28
1.88997e-28
8.46449e-29
1.82734e-29
6.51187e-31
4.56637e-29
2.33558e-28
3.18349e-28
1.67323e-28
6.70763e-29
9.9643e-30
1.91891e-31
3.59519e-29
2.03403e-28
4.60177e-28
3.63818e-28
1.25013e-28
3.40419e-29
3.56293e-30
9.63728e-32
6.64543e-29
2.64564e-28
6.41368e-28
5.95037e-28
3.0862e-28
8.23042e-29
1.93675e-29
2.07343e-30
3.89151e-32
3.37889e-29
3.4057e-28
8.23193e-28
8.78207e-28
6.10314e-28
2.57817e-28
6.04778e-29
1.03317e-29
6.00201e-31
3.30104e-32
5.77095e-29
4.20475e-28
1.03697e-27
1.27501e-27
9.71796e-28
5.10766e-28
1.71545e-28
3.60904e-29
3.74232e-30
2.85552e-31
3.05382e-32
5.69573e-29
2.5364e-28
1.0965e-27
1.70798e-27
1.4923e-27
9.23015e-28
3.97538e-28
9.47365e-29
1.74847e-29
1.09846e-30
2.30793e-31
1.37474e-32
1.76721e-29
2.58491e-28
9.94133e-28
2.58717e-27
2.42798e-27
1.54393e-27
7.88443e-28
2.81524e-28
4.2428e-29
5.70652e-30
1.02522e-30
1.63456e-31
1.46444e-32
1.93056e-29
2.3181e-28
1.2314e-27
3.34788e-27
3.5147e-27
2.5617e-27
1.27506e-27
5.33846e-28
1.46329e-28
2.39014e-29
4.18163e-30
5.71756e-31
1.09454e-31
8.17452e-33
1.67992e-29
3.54575e-28
1.32055e-27
3.274e-27
4.87476e-27
4.02702e-27
2.34002e-27
1.15649e-27
3.80059e-28
9.16735e-29
1.502e-29
2.72155e-30
4.99903e-31
8.19003e-32
1.75505e-33
1.52802e-29
3.27673e-28
1.07413e-27
3.03175e-27
6.33415e-27
5.7935e-27
3.78882e-27
1.7983e-27
6.87444e-28
2.33463e-28
5.04911e-29
8.28735e-30
1.63795e-30
3.51055e-31
4.76712e-32
1.02126e-33
1.79651e-29
2.76678e-28
1.2025e-27
4.01024e-27
6.96544e-27
8.00418e-27
6.20082e-27
3.47007e-27
1.63469e-27
5.70847e-28
1.53242e-28
2.31631e-29
8.17958e-30
1.60438e-30
1.35187e-31
2.42561e-32
9.23681e-34
3.34145e-29
3.49965e-28
1.20013e-27
2.85232e-27
8.08365e-27
1.05998e-26
8.73492e-27
5.81667e-27
2.84738e-27
1.16576e-27
3.75419e-28
1.01407e-28
2.19597e-29
7.01609e-30
6.77054e-31
7.99454e-32
1.39078e-32
5.48478e-34
1.68986e-29
2.14002e-28
1.28142e-27
2.56807e-27
9.35967e-27
1.16701e-26
1.2583e-26
8.35019e-27
4.8714e-27
1.84267e-27
8.52196e-28
2.6874e-28
4.85567e-29
1.54621e-29
4.70383e-30
7.19098e-31
5.2093e-32
7.10544e-33
8.10036e-34
3.19042e-29
2.47008e-28
9.01593e-28
2.81645e-27
9.85769e-27
1.38014e-26
1.74977e-26
1.33065e-26
7.88484e-27
4.21958e-27
1.31861e-27
5.56752e-28
1.99064e-28
6.27306e-29
1.94914e-29
2.51988e-30
5.20884e-31
4.73872e-32
2.44879e-32
4.79426e-33
2.7249e-29
2.13403e-28
9.80719e-28
2.38834e-27
1.04026e-26
1.69307e-26
2.04848e-26
1.91137e-26
1.2384e-26
6.84725e-27
3.24364e-27
1.0745e-27
3.66508e-28
1.44903e-28
5.45074e-29
1.77678e-29
1.77983e-30
3.48478e-31
1.44805e-31
1.28883e-31
3.91003e-32
9.2946e-30
2.0566e-28
1.09022e-27
2.94872e-27
1.01298e-26
1.9078e-26
2.50515e-26
2.56752e-26
1.70273e-26
9.9258e-27
5.10741e-27
2.42789e-27
7.52799e-28
3.4746e-28
1.48662e-28
5.59073e-29
1.50022e-29
2.25549e-30
9.6819e-31
7.71734e-31
6.92875e-31
3.03688e-31
1.26175e-29
8.85368e-29
1.17339e-27
4.10125e-27
9.37364e-27
2.12636e-26
3.01635e-26
3.30032e-26
2.70847e-26
1.48e-26
8.95384e-27
4.33537e-27
1.99405e-27
7.15663e-28
3.76795e-28
1.66548e-28
5.71482e-29
1.02221e-29
4.38495e-30
4.69553e-30
4.90958e-30
3.39735e-30
9.37875e-31
1.56518e-29
8.1978e-29
8.32289e-28
4.75439e-27
1.09236e-26
1.94509e-26
3.23458e-26
4.54396e-26
3.40982e-26
2.55744e-26
1.39164e-26
7.40311e-27
3.0966e-27
1.57252e-27
8.19528e-28
3.01934e-28
1.62297e-28
4.83449e-29
1.94161e-29
2.50282e-29
3.286e-29
2.60106e-29
3.26491e-29
4.63695e-30
1.75547e-29
9.49874e-29
6.41011e-28
3.88513e-27
1.2029e-26
2.41666e-26
4.29478e-26
5.84492e-26
4.95923e-26
3.35954e-26
2.23523e-26
1.04832e-26
5.53905e-27
3.28015e-27
1.70343e-27
9.12108e-28
4.2242e-28
1.09408e-28
8.23744e-29
8.81776e-29
1.68153e-28
2.15593e-28
2.44359e-28
1.191e-28
9.22525e-29
1.439e-29
1.15791e-28
9.31434e-28
3.37224e-27
8.45043e-27
2.22216e-26
4.86288e-26
6.52664e-26
6.9623e-26
4.79528e-26
3.22271e-26
2.02931e-26
1.0476e-26
5.52573e-27
3.39046e-27
2.0506e-27
7.92551e-28
4.81424e-28
2.64676e-28
3.62238e-28
5.47063e-28
1.23265e-27
1.28938e-27
1.24881e-27
7.33176e-28
9.12938e-28
3.95592e-29
2.91101e-28
9.55417e-28
3.67004e-27
8.55516e-27
2.0223e-26
6.0188e-26
8.38029e-26
8.99104e-26
7.39738e-26
4.73358e-26
3.01265e-26
1.75588e-26
1.00085e-26
5.46376e-27
3.59282e-27
2.6769e-27
1.35994e-27
7.97308e-28
1.48446e-27
1.44677e-27
3.15084e-27
8.05403e-27
1.3076e-26
8.07982e-27
1.46918e-26
5.44905e-27
2.81398e-28
6.57185e-28
9.88379e-28
3.53252e-27
9.87456e-27
1.88595e-26
5.50617e-26
9.78568e-26
1.09458e-25
9.90725e-26
6.77601e-26
4.39723e-26
2.8451e-26
1.74718e-26
9.62808e-27
6.83866e-27
4.68766e-27
3.60255e-27
3.86261e-27
5.94929e-27
8.81668e-27
1.45043e-26
2.18244e-26
6.55835e-26
1.21634e-25
1.07121e-25
1.83554e-25
1.38008e-25
1.70021e-27
4.22489e-27
4.26525e-27
3.56787e-27
1.04454e-26
2.22824e-26
6.06065e-26
1.28042e-25
1.36096e-25
1.29193e-25
9.84487e-26
5.88892e-26
4.19355e-26
2.82967e-26
1.9346e-26
1.37999e-26
1.18227e-26
9.82881e-27
9.47035e-27
1.37442e-26
3.43147e-26
5.22981e-26
1.15331e-25
2.33943e-25
7.6441e-25
1.18276e-24
1.5983e-24
1.94818e-24
1.25723e-24
9.60192e-27
3.22912e-26
1.9616e-26
9.98872e-27
9.31967e-27
2.45891e-26
6.15179e-26
1.37936e-25
1.65484e-25
1.75209e-25
1.29407e-25
9.31271e-26
5.97561e-26
3.80781e-26
3.15666e-26
2.33378e-26
2.23092e-26
2.33012e-26
3.28954e-26
5.27009e-26
1.04817e-25
2.37922e-25
4.23578e-25
1.15799e-24
4.5858e-24
1.20173e-23
1.29484e-23
1.61483e-23
2.38462e-23
9.22482e-24
8.77352e-26
1.4667e-25
7.9999e-26
3.60296e-26
2.04108e-26
3.46708e-26
7.05605e-26
1.29351e-25
2.05975e-25
2.34722e-25
1.7265e-25
1.18048e-25
8.86427e-26
5.72253e-26
4.72745e-26
4.36991e-26
4.36547e-26
4.61565e-26
8.02018e-26
2.01621e-25
4.64636e-25
9.95036e-25
2.53047e-24
5.07892e-24
2.77981e-23
6.72855e-23
1.71241e-22
2.49272e-22
2.40579e-22
1.8867e-22
1.49975e-22
1.90255e-25
5.47733e-25
4.22227e-25
1.92492e-25
7.1061e-26
4.88091e-26
6.77458e-26
1.32051e-25
2.76532e-25
2.96323e-25
2.54545e-25
1.78124e-25
1.15128e-25
9.08724e-26
7.78716e-26
7.42667e-26
1.16484e-25
1.48743e-25
2.10839e-25
6.86627e-25
1.54441e-24
3.03975e-24
1.05708e-23
2.74002e-23
1.0499e-22
4.31742e-22
1.19448e-21
1.72163e-21
2.38686e-21
2.1992e-21
1.4709e-21
1.12207e-21
5.1354e-25
1.81742e-24
1.60191e-24
8.46499e-25
3.27561e-25
1.24986e-25
9.94105e-26
1.63515e-25
3.4745e-25
3.72134e-25
3.47291e-25
2.63645e-25
1.88615e-25
1.44188e-25
1.30925e-25
1.47223e-25
2.07203e-25
4.77776e-25
9.18238e-25
1.8975e-24
4.60677e-24
1.02258e-23
4.06961e-23
1.11753e-22
4.5514e-22
1.85069e-21
5.30762e-21
1.39021e-20
2.4e-20
2.18692e-20
1.69876e-20
1.45519e-20
5.50714e-21
3.73438e-24
6.54208e-24
5.36058e-24
3.04493e-24
1.21366e-24
4.66542e-25
3.13647e-25
4.12765e-25
5.59581e-25
5.41041e-25
4.97176e-25
4.14589e-25
2.6762e-25
2.19969e-25
1.93504e-25
3.59927e-25
7.43028e-25
1.49064e-24
2.39454e-24
6.56104e-24
9.29887e-24
3.23287e-23
1.32704e-22
5.56546e-22
2.51236e-21
7.93621e-21
2.48416e-20
7.85401e-20
1.70027e-19
1.71342e-19
1.97987e-19
9.53318e-20
9.45801e-20
2.49852e-21
1.94379e-20
1.02618e-23
1.88852e-23
1.93938e-23
1.01782e-23
4.93326e-24
1.89683e-24
9.75201e-25
1.14599e-24
1.36521e-24
9.87408e-25
1.07882e-24
9.33551e-25
7.14574e-25
4.07906e-25
4.25781e-25
7.55456e-25
1.94505e-24
5.80089e-24
1.09048e-23
1.66497e-23
4.38635e-23
9.3178e-23
3.98451e-22
1.84617e-21
1.02169e-20
3.47342e-20
1.16168e-19
2.89626e-19
6.42804e-19
1.58341e-18
1.44844e-18
8.90503e-19
1.19419e-18
1.4253e-19
1.21739e-18
1.40181e-20
1.16028e-19
3.56651e-23
3.90883e-23
6.08055e-23
3.21158e-23
1.89888e-23
7.29101e-24
3.44706e-24
3.69291e-24
4.89735e-24
4.34189e-24
2.1698e-24
2.13511e-24
1.91097e-24
1.39643e-24
1.2633e-24
1.96275e-24
3.70422e-24
1.60726e-23
4.03993e-23
5.26305e-23
1.12097e-22
2.87341e-22
1.23141e-21
5.74631e-21
3.39166e-20
1.96223e-19
6.80646e-19
1.1457e-18
4.9136e-18
5.50006e-18
1.34621e-17
1.19586e-17
3.2629e-18
1.06073e-17
5.38589e-18
1.44571e-17
1.97233e-17
5.43284e-19
4.70813e-18
5.46867e-20
5.533e-19
9.75386e-23
1.79514e-22
1.79189e-22
1.0376e-22
5.82271e-23
2.54452e-23
1.49792e-23
1.67758e-23
2.09442e-23
1.81804e-23
1.05005e-23
9.11426e-24
6.52615e-24
4.6291e-24
3.60047e-24
4.97526e-24
9.911e-24
4.19261e-23
8.40523e-23
2.45551e-22
4.31429e-22
1.17739e-21
3.25954e-21
1.8585e-20
1.32394e-19
6.58366e-19
2.91803e-18
6.5005e-18
1.52111e-17
4.09741e-17
5.74832e-17
8.63464e-17
3.09891e-17
9.28074e-17
6.6534e-17
2.86038e-17
8.55391e-17
1.17256e-16
3.06731e-18
2.26076e-17
1.66761e-19
3.29857e-18
4.11829e-22
4.19318e-22
5.3357e-22
3.89829e-22
2.28925e-22
6.94035e-23
4.84596e-23
5.62655e-23
9.01262e-23
8.93463e-23
5.09778e-23
2.60249e-23
2.73898e-23
1.48113e-23
1.07387e-23
1.82145e-23
3.55259e-23
8.75182e-23
3.86544e-22
8.68923e-22
1.50225e-21
2.62856e-21
9.71632e-21
5.21218e-20
3.82342e-19
2.36249e-18
9.63823e-18
3.556e-17
1.14756e-16
1.1493e-16
2.15535e-16
4.33885e-16
3.01539e-16
7.27526e-16
1.98505e-16
5.68357e-16
4.58853e-16
1.97728e-16
6.40012e-16
9.45584e-16
2.46004e-17
1.51722e-16
8.12916e-19
1.90281e-17
1.18353e-21
2.31476e-21
2.00805e-21
1.10494e-21
5.79929e-22
3.29629e-22
1.32052e-22
2.26445e-22
3.86975e-22
3.79253e-22
3.02502e-22
1.41274e-22
9.45355e-23
5.1621e-23
5.52001e-23
5.73084e-23
9.15981e-23
2.07491e-22
6.21235e-22
2.48421e-21
4.72843e-21
6.32057e-21
2.37604e-20
1.28828e-19
9.95669e-19
7.11667e-18
3.25523e-17
1.20101e-16
3.22129e-16
8.37362e-16
9.43409e-16
1.58773e-15
1.7458e-15
4.89136e-15
1.85474e-15
5.5526e-15
1.51327e-15
5.40367e-15
3.08266e-15
1.42531e-15
6.10165e-15
9.51478e-15
1.63379e-16
1.11117e-15
4.062e-18
8.75432e-17
4.76173e-21
9.08423e-21
6.32102e-21
3.64564e-21
1.5933e-21
9.82911e-22
5.4995e-22
6.11876e-22
1.16736e-21
1.74029e-21
1.41162e-21
1.13401e-21
6.69994e-22
2.76984e-22
1.95982e-22
1.98883e-22
2.7533e-22
6.06725e-22
1.43805e-21
6.47148e-21
1.49212e-20
1.8925e-20
5.50411e-20
3.02636e-19
2.63767e-18
1.6906e-17
1.08476e-16
4.51821e-16
1.22012e-15
2.8703e-15
6.08206e-15
7.81647e-15
1.00829e-14
2.13729e-14
1.55189e-14
3.94895e-14
2.05583e-14
6.6376e-14
1.50495e-14
6.70624e-14
3.66848e-14
1.16398e-14
7.12465e-14
1.0712e-13
1.07698e-15
1.02691e-14
3.29854e-17
4.809e-16
3.49354e-20
3.90295e-20
2.42929e-20
1.29393e-20
4.82715e-21
2.83898e-21
1.83176e-21
1.42678e-21
3.46682e-21
7.04915e-21
8.53073e-21
4.34154e-21
3.19626e-21
1.15638e-21
4.88152e-22
7.41075e-22
6.31372e-22
2.24892e-21
4.45859e-21
1.45848e-20
3.97029e-20
6.25413e-20
1.18739e-19
6.36114e-19
7.95695e-18
5.37678e-17
2.76801e-16
1.28483e-15
5.36995e-15
1.66429e-14
2.99197e-14
4.7188e-14
4.36682e-14
9.08234e-14
9.08154e-14
1.83492e-13
1.90554e-13
4.87432e-13
2.58377e-13
8.66477e-13
1.8638e-13
8.5464e-13
4.52765e-13
1.24586e-13
8.59562e-13
1.26612e-12
7.68694e-15
1.13307e-13
1.30561e-16
4.00693e-15
1.67788e-19
2.0335e-19
1.4013e-19
5.57701e-20
2.25474e-20
8.33564e-21
5.05097e-21
5.29407e-21
1.04983e-20
1.54442e-20
2.94818e-20
2.05097e-20
1.34584e-20
8.87032e-21
2.09305e-21
2.09177e-21
3.0356e-21
6.45851e-21
1.36835e-20
2.56085e-20
9.65521e-20
1.67163e-19
2.8864e-19
1.29875e-18
1.37212e-17
1.58477e-16
7.84959e-16
4.48745e-15
2.14781e-14
6.58132e-14
2.07112e-13
2.51413e-13
1.74842e-13
3.55771e-13
3.60428e-13
6.82316e-13
1.19416e-12
2.37127e-12
2.56415e-12
6.72388e-12
3.4002e-12
1.17448e-11
2.37885e-12
1.11793e-11
5.66785e-12
1.44381e-12
1.04566e-11
1.50524e-11
8.09678e-14
1.3079e-12
1.06993e-15
4.01323e-14
4.2941e-19
8.56258e-19
5.4125e-19
2.88614e-19
1.18438e-19
3.38907e-20
1.25915e-20
1.19991e-20
2.31708e-20
5.07558e-20
1.11904e-19
1.22785e-19
9.48325e-20
3.80791e-20
1.3907e-20
7.01116e-21
7.00504e-21
1.75041e-20
2.65954e-20
5.97561e-20
1.48106e-19
3.67691e-19
6.80645e-19
2.57952e-18
3.2157e-17
3.32137e-16
2.85386e-15
1.52241e-14
8.71521e-14
3.37481e-13
7.54362e-13
1.72531e-12
7.37327e-13
1.58569e-12
1.18714e-12
1.97772e-12
4.48412e-12
8.58795e-12
1.69069e-11
3.4224e-11
3.53074e-11
9.4613e-11
4.51225e-11
1.57194e-10
3.04024e-11
1.43136e-10
6.9803e-11
1.68575e-11
1.24664e-10
1.75707e-10
8.87504e-13
1.50829e-11
1.03533e-14
4.19675e-13
3.17765e-18
4.58891e-18
2.9194e-18
1.40426e-18
4.86361e-19
1.44993e-19
4.85669e-20
3.19991e-20
6.69591e-20
1.88376e-19
3.36891e-19
4.10444e-19
3.45041e-19
1.58136e-19
7.69706e-20
2.58517e-20
2.31319e-20
4.14561e-20
8.0883e-20
1.27456e-19
2.75444e-19
7.70506e-19
1.44038e-18
5.65956e-18
6.64094e-17
7.01179e-16
5.89706e-15
4.77881e-14
3.10836e-13
1.50083e-12
4.69177e-12
4.97891e-12
3.52762e-12
8.35005e-12
3.61364e-12
6.93995e-12
1.31931e-11
1.77816e-11
6.39724e-11
1.25554e-10
2.37822e-10
4.94488e-10
4.74492e-10
1.27796e-09
5.76447e-10
1.99907e-09
3.75564e-10
1.74082e-09
8.26311e-10
1.9467e-10
1.42779e-09
1.97969e-09
9.76788e-12
1.70953e-10
1.04267e-13
4.41916e-12
1.35387e-17
1.21595e-17
1.07626e-17
5.03186e-18
1.95391e-18
6.46298e-19
2.01403e-19
1.33394e-19
2.05874e-19
5.66547e-19
8.4961e-19
1.0697e-18
1.2618e-18
9.46553e-19
4.07863e-19
1.11553e-19
6.66644e-20
1.11104e-19
1.8043e-19
3.69771e-19
7.98895e-19
1.46902e-18
3.15468e-18
1.26529e-17
1.38298e-16
1.36345e-15
1.40544e-14
1.31058e-13
1.014e-12
5.67784e-12
2.19146e-11
4.76492e-11
2.63856e-11
6.32219e-12
1.44299e-11
3.04136e-11
2.51011e-11
4.01847e-11
1.92214e-10
2.35685e-10
9.32451e-10
1.84562e-09
3.19805e-09
6.77439e-09
5.99715e-09
1.61143e-08
6.89426e-09
2.35487e-08
4.38765e-09
1.96693e-08
9.23283e-09
2.18778e-09
1.54551e-08
2.11633e-08
1.05636e-10
1.86356e-09
1.05439e-12
4.58895e-11
4.16071e-17
5.4758e-17
4.59762e-17
1.92965e-17
8.37836e-18
2.94035e-18
8.63192e-19
4.77267e-19
6.8992e-19
1.04666e-18
2.55317e-18
4.01807e-18
3.80689e-18
2.80798e-18
1.41266e-18
6.75806e-19
2.36771e-19
2.0689e-19
3.67028e-19
7.47691e-19
1.67204e-18
3.56632e-18
7.06908e-18
2.59667e-17
3.51103e-16
3.47978e-15
3.76604e-14
3.54113e-13
2.95831e-12
1.64473e-11
7.43091e-11
2.37482e-10
5.35288e-10
7.08813e-11
2.80977e-10
7.37581e-11
1.48215e-10
2.71007e-10
3.43731e-10
2.91283e-09
3.59424e-09
1.30734e-08
2.56269e-08
4.00077e-08
8.54655e-08
6.96533e-08
1.85285e-07
7.57537e-08
2.51827e-07
4.76162e-08
2.02655e-07
9.56495e-08
2.33077e-08
1.56027e-07
2.10005e-07
1.10049e-09
1.91762e-08
1.05904e-11
4.63366e-10
9.81179e-17
1.89268e-16
1.26616e-16
8.19728e-17
2.96716e-17
1.15344e-17
3.17093e-18
1.27362e-18
1.75327e-18
3.53026e-18
5.62257e-18
1.05621e-17
1.24072e-17
9.8839e-18
5.76712e-18
2.50155e-18
1.33303e-18
7.44274e-19
1.03812e-18
1.27755e-18
3.29245e-18
7.22691e-18
1.26002e-17
5.30666e-17
7.3324e-16
9.63531e-15
1.09283e-13
1.05787e-12
8.38143e-12
4.87671e-11
2.33416e-10
8.99647e-10
2.30773e-09
1.34005e-09
2.85327e-09
2.97708e-10
6.22293e-10
5.28604e-10
9.449e-10
3.8586e-09
4.22669e-09
4.13615e-08
5.31866e-08
1.69859e-07
3.22591e-07
4.55657e-07
9.72747e-07
7.27276e-07
1.90006e-06
7.50549e-07
2.39252e-06
4.69987e-07
1.87942e-06
9.04246e-07
2.29157e-07
1.43718e-06
1.89968e-06
1.09888e-08
1.84032e-07
1.0476e-10
4.50102e-09
1.94515e-16
3.94534e-16
3.95969e-16
2.71994e-16
1.04245e-16
4.55948e-17
1.7414e-17
5.87571e-18
5.83565e-18
9.80832e-18
2.23865e-17
2.15138e-17
3.54847e-17
2.62061e-17
1.7113e-17
8.56659e-18
4.57201e-18
2.2596e-18
2.31073e-18
3.73867e-18
5.6175e-18
1.69329e-17
2.13848e-17
8.90096e-17
1.48676e-15
2.37862e-14
3.19398e-13
3.38339e-12
2.74539e-11
1.69755e-10
7.70674e-10
2.91715e-09
1.01687e-08
8.89481e-09
4.72414e-10
6.29955e-09
1.23389e-08
1.77122e-09
3.4885e-09
5.22567e-09
8.21237e-09
5.83331e-08
6.22234e-08
5.21736e-07
6.99524e-07
1.95054e-06
3.5072e-06
4.58316e-06
9.41865e-06
6.60381e-06
1.62937e-05
6.50087e-06
1.89171e-05
4.1257e-06
1.48703e-05
7.49801e-06
2.04455e-06
1.13971e-05
1.45296e-05
1.03902e-07
1.62308e-06
1.01323e-09
4.13903e-08
3.19286e-16
8.06024e-16
9.60248e-16
6.82178e-16
3.87321e-16
1.60359e-16
7.13507e-17
2.21026e-17
1.5182e-17
2.66925e-17
6.0096e-17
7.81848e-17
8.79323e-17
9.20728e-17
6.81299e-17
2.77428e-17
1.07636e-17
5.83814e-18
5.86293e-18
7.88084e-18
1.68314e-17
2.98587e-17
5.9347e-17
1.34616e-16
2.72032e-15
5.95109e-14
8.73776e-13
1.05534e-11
9.60904e-11
6.33992e-10
3.16374e-09
1.0078e-08
3.15868e-08
1.0397e-07
2.5696e-08
8.3519e-08
4.09996e-08
7.96809e-08
1.32718e-08
2.60682e-08
6.85066e-08
9.03565e-08
8.18169e-07
9.20848e-07
5.49926e-06
7.45724e-06
1.76154e-05
2.88456e-05
3.62264e-05
6.69002e-05
4.76293e-05
0.000106526
4.49931e-05
0.000113927
2.9415e-05
9.10239e-05
4.87245e-05
1.52583e-05
6.93561e-05
8.40619e-05
9.14437e-07
1.21646e-05
9.4623e-09
3.50232e-07
6.77155e-16
1.76771e-15
1.91075e-15
1.44928e-15
8.78121e-16
3.85531e-16
2.19576e-16
8.46069e-17
5.24498e-17
7.2505e-17
1.2008e-16
1.84714e-16
2.43615e-16
2.23268e-16
2.27457e-16
1.13229e-16
5.23098e-17
2.10718e-17
1.31785e-17
1.79929e-17
3.33734e-17
5.4853e-17
9.46412e-17
2.30517e-16
3.46711e-15
1.15967e-13
2.27741e-12
3.00817e-11
3.24304e-10
2.43369e-09
1.27489e-08
4.02954e-08
1.16018e-07
3.08085e-07
4.31719e-07
6.80235e-07
1.25186e-07
2.39603e-07
3.22847e-07
5.23026e-07
1.30548e-07
2.25125e-07
9.85487e-07
1.16679e-06
9.15873e-06
1.07195e-05
4.25602e-05
5.66311e-05
0.000110179
0.000162031
0.000195341
0.000308454
0.000250935
0.000440654
0.000231226
0.000483999
0.000157923
0.000403699
0.000236531
8.59938e-05
0.00031074
0.000357939
6.93898e-06
6.9574e-05
8.24723e-08
2.58303e-06
3.26331e-15
4.29371e-15
3.57972e-15
2.52473e-15
1.1425e-15
5.19943e-16
2.88238e-16
1.64341e-16
2.55223e-16
3.99319e-16
4.97078e-16
6.15884e-16
6.69314e-16
7.12799e-16
5.92955e-16
2.1468e-16
6.25578e-17
4.22232e-17
3.40685e-17
5.35431e-17
1.36291e-16
2.31351e-16
3.32458e-16
3.79148e-15
1.57651e-13
4.98872e-12
8.03546e-11
9.34942e-10
8.01876e-09
4.5619e-08
1.71639e-07
5.03663e-07
1.20527e-06
1.57567e-06
8.34985e-07
1.72345e-06
2.51365e-06
7.82075e-07
1.13e-06
2.68177e-06
3.78451e-06
1.46349e-06
2.14844e-06
1.16744e-05
1.30796e-05
7.08411e-05
8.43668e-05
0.000219477
0.000276215
0.000438004
0.00057036
0.000656603
0.000876044
0.000791926
0.00111122
0.000788352
0.00120262
0.000608433
0.00111981
0.000813658
0.000357632
0.000968622
0.0010446
3.99941e-05
0.000290046
5.64444e-07
1.38936e-05
8.18966e-15
8.05149e-15
5.80001e-15
2.78491e-15
1.3019e-15
6.13933e-16
5.99523e-16
5.52342e-16
8.30964e-16
1.43891e-15
1.4355e-15
1.38892e-15
1.89982e-15
1.92055e-15
6.01622e-16
3.86457e-16
1.47191e-16
1.02827e-16
1.63828e-16
2.72624e-16
4.21477e-16
6.27999e-16
3.99059e-15
1.68162e-13
7.2373e-12
1.95761e-10
2.58997e-09
2.48658e-08
1.64364e-07
7.01746e-07
2.18016e-06
5.10595e-06
1.06507e-05
3.93354e-06
8.09583e-06
7.86909e-06
1.09985e-05
4.64346e-06
6.30031e-06
2.09771e-05
2.48629e-05
1.49874e-05
1.82331e-05
9.54334e-05
0.000104917
0.000332678
0.00038404
0.000696079
0.000807705
0.00108581
0.00127229
0.00140761
0.00166431
0.00159409
0.0019257
0.00160608
0.00202398
0.00141548
0.00195362
0.0016474
0.000637177
0.00105991
0.00178919
0.00182961
0.00143585
0.000171411
0.000957987
0.000486558
0.000933599
2.16565e-06
5.35606e-05
1.73082e-14
1.40802e-14
8.21113e-15
3.82142e-15
1.70145e-15
1.46492e-15
1.76547e-15
2.41271e-15
3.63939e-15
4.07196e-15
4.33187e-15
5.2811e-15
6.89918e-15
2.69802e-15
9.52843e-16
4.40528e-16
2.82205e-16
2.96113e-16
4.30369e-16
7.43497e-16
1.77595e-15
4.45477e-15
1.53209e-13
8.10841e-12
3.06397e-10
6.67623e-09
7.26382e-08
5.50145e-07
2.66101e-06
8.8856e-06
2.04479e-05
3.716e-05
4.24309e-05
6.50942e-05
1.48765e-05
2.31245e-05
3.89884e-05
4.99873e-05
2.78876e-05
3.36003e-05
0.000131089
0.000140082
0.000113309
0.000122607
0.000425154
0.000456432
0.00090723
0.000988498
0.00143042
0.00155938
0.00187957
0.00205363
0.00218928
0.00239536
0.00236475
0.00260943
0.00237895
0.00270253
0.00221621
0.0025878
0.00239221
0.00207812
0.00235971
0.00141115
0.00216284
0.00248541
0.00241004
0.00218478
0.0018155
0.000268005
0.000670821
0.000758485
0.00136187
0.00126032
6.90989e-07
0.000428251
6.27505e-05
0.000270052
3.03259e-14
2.19264e-14
1.05865e-14
5.51787e-15
4.15564e-15
4.85723e-15
8.27025e-15
1.15218e-14
1.51025e-14
1.48658e-14
1.69727e-14
2.94917e-14
1.15155e-14
3.43944e-15
1.2296e-15
6.22255e-16
5.22329e-16
1.09544e-15
1.81675e-15
3.2883e-15
7.88542e-15
1.11053e-13
7.46089e-12
3.72522e-10
1.14397e-08
1.87393e-07
1.62531e-06
9.23758e-06
3.40829e-05
7.42441e-05
0.000116709
0.000123958
0.00014129
0.000122649
0.000189273
6.25868e-05
8.8479e-05
0.000175649
0.000199528
0.000148766
0.000160934
0.00049924
0.000505462
0.000478536
0.00049177
0.001048
0.00108914
0.00166306
0.00174105
0.00218906
0.00228639
0.00254963
0.00264399
0.00277595
0.00287062
0.00275379
0.00283763
0.00290774
0.00296377
0.00274619
0.00288825
0.00295063
0.0030739
0.00299305
0.00268243
0.00259251
0.00280715
0.00286241
0.00267549
0.0017838
0.00251172
0.00279876
0.0027466
0.00252553
0.00217458
0.000955876
0.00113527
0.00171519
0.00161079
1.02801e-06
2.63305e-05
0.000108006
0.000731022
0.000454193
4.88055e-14
3.21788e-14
1.84994e-14
1.26989e-14
2.48283e-14
2.83601e-14
4.49969e-14
5.68361e-14
5.86452e-14
5.63662e-14
8.93268e-14
5.94501e-14
1.75058e-14
4.91083e-15
2.02077e-15
1.32498e-15
1.98564e-15
4.10461e-15
9.10873e-15
2.08325e-14
1.12274e-13
4.8322e-12
3.5387e-10
1.54987e-08
3.65551e-07
4.19441e-06
2.78028e-05
0.000110334
0.000232378
0.000320548
0.000437165
0.000256832
0.000417586
0.000343187
0.000432031
0.000229672
0.000280321
0.000540318
0.000568747
0.000511801
0.000522632
0.00113084
0.00112953
0.00111433
0.00112708
0.00179354
0.00182485
0.00235091
0.00238837
0.00269409
0.00270494
0.00290184
0.00289035
0.0029999
0.00301811
0.00302107
0.00300825
0.00302368
0.00306868
0.00309102
0.00299952
0.00310187
0.003125
0.00320986
0.00317121
0.00297075
0.00289187
0.00306531
0.00310181
0.00296936
0.00213383
0.00283
0.00303409
0.00308285
0.00284291
0.00251242
0.00146405
0.00126597
0.00205892
0.00194498
1.62775e-06
4.27903e-05
0.000198882
0.0010102
0.000683875
8.93728e-14
7.70853e-14
6.48357e-14
7.22251e-14
1.14188e-13
1.75868e-13
2.31833e-13
2.40014e-13
2.12594e-13
2.16977e-13
2.92151e-13
9.37179e-14
2.44203e-14
8.21721e-15
4.09988e-15
5.39314e-15
1.15699e-14
2.72651e-14
6.80761e-14
2.17226e-13
3.00732e-12
2.39491e-10
1.55988e-08
4.57459e-07
6.96154e-06
5.63488e-05
0.000236406
0.000487899
0.000651446
0.000758516
0.000855691
0.000921306
0.000536122
0.000659417
0.000737472
0.000837719
0.000607751
0.000665723
0.00113197
0.00114926
0.00112655
0.00112666
0.00183848
0.00182946
0.00183956
0.00184231
0.00240385
0.00240312
0.00269635
0.00268045
0.00286453
0.00281859
0.00299154
0.00296321
0.00293448
0.00289912
0.00309276
0.00308114
0.00305952
0.00302988
0.003153
0.00315774
0.0031461
0.00319601
0.00325397
0.00321947
0.00327245
0.0032768
0.00319286
0.00314547
0.00327262
0.00327883
0.00321598
0.00246799
0.0031163
0.00327609
0.00332474
0.00313168
0.00282947
0.00178548
0.00157174
0.00238892
0.00226877
1.77112e-06
0.000301489
5.38091e-05
0.00128956
0.000909573
3.16946e-13
3.89292e-13
4.22469e-13
5.04748e-13
7.00093e-13
9.40883e-13
1.00764e-12
8.66594e-13
7.08691e-13
9.41989e-13
4.8065e-13
1.29275e-13
3.9307e-14
1.45808e-14
1.62587e-14
3.57752e-14
8.84189e-14
2.36689e-13
6.99223e-13
3.48573e-12
1.09396e-10
1.13083e-08
4.45677e-07
8.03975e-06
7.72955e-05
0.000348038
0.000745926
0.00100809
0.00123751
0.00162237
0.00125735
0.00157209
0.000948397
0.00111488
0.00129958
0.00139473
0.00117979
0.0012298
0.00180699
0.00181176
0.00181734
0.00180823
0.00237218
0.00235681
0.00239652
0.00238618
0.00265471
0.00262926
0.00276677
0.00271404
0.00286511
0.00282392
0.00273952
0.00299564
0.0029557
0.00291256
0.00286735
0.00312356
0.00309165
0.00305293
0.00300868
0.00320926
0.0031866
0.00315226
0.00332387
0.00333248
0.00325058
0.00328076
0.00331591
0.00335114
0.00334299
0.00341564
0.00338358
0.00340593
0.00278543
0.00336224
0.00346241
0.00351248
0.00338401
0.00312218
0.00210179
0.00187715
0.00270577
0.0025849
3.0566e-06
0.000392681
8.56908e-05
0.00158055
0.00117481
2.02268e-12
2.60038e-12
3.57945e-12
2.93504e-12
3.82817e-12
4.19363e-12
3.65251e-12
2.70373e-12
2.85978e-12
2.43944e-12
6.93196e-13
1.89832e-13
6.13818e-14
5.35677e-14
1.10949e-13
2.96309e-13
8.58706e-13
2.62998e-12
8.66697e-12
7.47588e-11
4.57105e-09
3.26457e-07
7.76436e-06
8.24532e-05
0.0004148
0.000958982
0.00136791
0.00169373
0.00201828
0.00219677
0.00228026
0.00184858
0.00204618
0.00151587
0.00167503
0.00192546
0.00200491
0.00182851
0.0018674
0.00232562
0.00232595
0.00234271
0.00233122
0.00256545
0.00255031
0.00260527
0.00258383
0.00265903
0.00260991
0.00264541
0.00254928
0.00282135
0.00277296
0.00265605
0.00270987
0.00296357
0.00291961
0.00287862
0.0028388
0.00310953
0.00306224
0.00301739
0.00297949
0.00321454
0.00316829
0.00311811
0.00337976
0.003351
0.00323152
0.00324178
0.0033018
0.00343682
0.00347298
0.003486
0.0034221
0.00352663
0.00308372
0.00355614
0.003579
0.00363061
0.00358911
0.00338453
0.00241702
0.00220103
0.00300918
0.0028951
1.97915e-05
0.000587349
0.000231438
0.00193494
0.00157786
1.40353e-11
1.66689e-11
1.4355e-11
1.62433e-11
1.7632e-11
1.55621e-11
1.11584e-11
7.89934e-12
9.25351e-12
3.66061e-12
9.11218e-13
2.78762e-13
1.80873e-13
3.50683e-13
9.9836e-13
3.16614e-12
1.02763e-11
3.22574e-11
1.14712e-10
1.8551e-09
1.63171e-07
5.72313e-06
7.87141e-05
0.000428621
0.00109725
0.00165127
0.00194062
0.00213038
0.00229741
0.0023945
0.0023742
0.00231245
0.00237726
0.00211367
0.00222441
0.00237928
0.00241333
0.00233195
0.00235042
0.00252562
0.0025231
0.00253855
0.00253043
0.00249747
0.00247755
0.00256385
0.00252605
0.00244409
0.00236178
0.00260012
0.00253135
0.00238831
0.0024675
0.00279606
0.0027525
0.00272176
0.00277665
0.00294609
0.00291887
0.00289603
0.00287375
0.00307358
0.00303885
0.0030172
0.00301087
0.00317684
0.00312996
0.00309738
0.00337899
0.00331683
0.00318774
0.00320698
0.00325383
0.00345937
0.00353365
0.00349452
0.00340179
0.00358227
0.00335764
0.00368155
0.00363396
0.00369021
0.00372915
0.00360668
0.00274534
0.00256327
0.00329708
0.00320269
0.000352998
0.00106335
0.000776845
0.00236133
0.00216467
9.02463e-11
8.35699e-11
7.70608e-11
7.76878e-11
6.80286e-11
4.83076e-11
2.96556e-11
3.08129e-11
1.82268e-11
4.65714e-12
1.26813e-12
6.22966e-13
1.1116e-12
3.4018e-12
1.18054e-11
4.06519e-11
1.28505e-10
3.64358e-10
1.66643e-09
5.3866e-08
2.79336e-06
6.15941e-05
0.000413418
0.00112648
0.00178512
0.00202717
0.00211576
0.00214452
0.00206597
0.00185597
0.00238419
0.00225666
0.00246289
0.00244267
0.00244632
0.0024649
0.00252001
0.0025126
0.00252235
0.00252224
0.00245325
0.00244838
0.00246499
0.00245782
0.00217334
0.00214718
0.00228194
0.00221859
0.00224579
0.00205855
0.00265454
0.00257327
0.00238732
0.00248306
0.00284996
0.00281793
0.00296691
0.00302565
0.00302021
0.00303724
0.00305719
0.00307045
0.00308721
0.00310136
0.00314248
0.00320392
0.00315236
0.00314748
0.00317363
0.00333095
0.00326947
0.00319666
0.00326644
0.00324794
0.00342384
0.00353137
0.0034508
0.00334699
0.00357448
0.00360089
0.00375188
0.00362665
0.00369045
0.00381684
0.00376951
0.00308296
0.00294533
0.00356532
0.00349929
0.00190995
0.00207877
0.00241797
0.00282842
0.00281355
5.44152e-10
4.41598e-10
3.78102e-10
3.14394e-10
2.19403e-10
1.27157e-10
7.74344e-11
9.19618e-11
2.38585e-11
5.51486e-12
2.20225e-12
3.53158e-12
1.17481e-11
4.47939e-11
1.63058e-10
5.23661e-10
1.42426e-09
3.47972e-09
2.4717e-08
1.08364e-06
3.42837e-05
0.000347514
0.00110608
0.00181135
0.00204145
0.00205072
0.00176658
0.00111039
0.00159373
0.0012
0.00207834
0.00184754
0.00237483
0.00225275
0.00249377
0.00245317
0.00239047
0.00234096
0.00243912
0.00242138
0.0021292
0.00212292
0.00213486
0.00213119
0.00164707
0.00159877
0.00187601
0.00174275
0.00236818
0.00220632
0.00205574
0.0018946
0.00288296
0.00277524
0.00250889
0.00264825
0.00307335
0.00305973
0.00339477
0.00346749
0.00327741
0.0033536
0.00342352
0.00347767
0.00324289
0.003343
0.00346683
0.00360442
0.00322856
0.00330974
0.00343686
0.00329904
0.00330039
0.00334649
0.00348361
0.00335848
0.00336904
0.00348366
0.00340123
0.0033412
0.00352629
0.00379595
0.00377079
0.00358263
0.00365647
0.00386374
0.00387914
0.0034114
0.0033142
0.00380012
0.00377245
0.0021062
0.00297381
0.00317179
0.0032658
0.00333672
2.98455e-09
2.14931e-09
1.59465e-09
1.06565e-09
5.93229e-10
2.93436e-10
2.72616e-10
1.17593e-10
2.36707e-11
7.9728e-12
1.11576e-11
4.06413e-11
1.7108e-10
6.6177e-10
2.16818e-09
5.81672e-09
1.24698e-08
2.96291e-08
3.97101e-07
1.52192e-05
0.000231718
0.00102287
0.00179803
0.00203742
0.00191828
0.00137005
0.000621616
0.000458243
0.000264059
0.000993617
0.00068583
0.00156213
0.0012819
0.00200841
0.00180913
0.0022665
0.00215884
0.00200922
0.00192575
0.00210495
0.00206727
0.00158118
0.00157715
0.00157905
0.00157846
0.00111438
0.000968497
0.00165526
0.00135686
0.00256614
0.00234916
0.00213673
0.00193597
0.00328496
0.00314135
0.00277478
0.00296898
0.00350403
0.0035026
0.00390413
0.00400623
0.00374438
0.00387509
0.00398201
0.00405342
0.00359972
0.00378798
0.00398844
0.0041874
0.00348317
0.00366901
0.00389304
0.00335945
0.00345391
0.00367706
0.00387972
0.00362844
0.00338348
0.00344302
0.0034288
0.00342276
0.00349053
0.00393833
0.00375458
0.00354822
0.00362437
0.00387543
0.00395791
0.00371527
0.00365496
0.00398334
0.00400661
0.000875364
0.00351029
0.00292834
0.00364912
0.00372058
1.46401e-08
9.07989e-09
5.65309e-09
3.00648e-09
1.37861e-09
6.38405e-10
6.57082e-10
1.0015e-10
2.9513e-11
3.43566e-11
1.38125e-10
6.4145e-10
2.66355e-09
9.03706e-09
2.42918e-08
4.98288e-08
7.8755e-08
2.68156e-07
5.99547e-06
0.000128461
0.000820753
0.0017425
0.00203123
0.00183079
0.00113089
0.000442543
0.000106749
0.0001238
5.39574e-05
0.000404508
0.000226533
0.00093215
0.000651013
0.00144767
0.0012055
0.00180951
0.00165098
0.00143834
0.0013337
0.00155727
0.00151139
0.000905417
0.00089947
0.00090876