/*--------------------------------*- C++ -*----------------------------------*\
  =========                 |
  \\      /  F ield         | OpenFOAM: The Open Source CFD Toolbox
   \\    /   O peration     | Website:  https://openfoam.org
    \\  /    A nd           | Version:  dev
     \\/     M anipulation  |
\*---------------------------------------------------------------------------*/
FoamFile
{
    version     2.0;
    format      ascii;
    class       volScalarField;
    location    "2500";
    object      G;
}
// * * * * * * * * * * * * * * * * * * * * * * * * * * * * * * * * * * * * * //

dimensions      [1 0 -3 0 0 0 0];

internalField   nonuniform List<scalar> 
9729
(
3744.71
3749.83
3750.99
3754.35
3756.13
3757.93
3758.28
3760.67
3763.09
3765.51
3761.61
3764.61
3767.64
3770.67
3773.73
3764.34
3767.95
3771.57
3775.23
3778.9
3782.6
3766.5
3770.69
3774.9
3779.16
3783.45
3787.78
3792.15
3768.1
3772.84
3777.62
3782.46
3787.37
3792.33
3797.33
3802.38
3769.16
3774.43
3779.76
3785.16
3790.65
3796.22
3801.87
3807.57
3813.32
3769.68
3775.47
3781.32
3787.27
3793.31
3799.47
3805.73
3812.09
3818.51
3825
3769.69
3775.97
3782.33
3788.79
3795.37
3802.09
3808.94
3815.92
3823.02
3830.19
3837.44
3769.2
3775.96
3782.8
3789.75
3796.84
3804.08
3811.49
3819.07
3826.8
3834.67
3842.64
3850.69
3768.24
3775.45
3782.75
3790.17
3797.74
3805.48
3813.41
3821.55
3829.88
3838.41
3847.09
3855.88
3864.77
3766.83
3774.46
3782.2
3790.06
3798.08
3806.29
3814.72
3823.38
3832.27
3841.41
3850.76
3860.29
3869.96
3879.74
3765
3773.01
3781.16
3789.44
3797.89
3806.54
3815.43
3824.57
3833.99
3843.69
3853.66
3863.89
3874.33
3884.93
3895.65
3762.76
3771.13
3779.67
3788.34
3797.19
3806.25
3815.56
3825.15
3835.05
3845.27
3855.82
3866.68
3877.83
3889.23
3900.82
3912.55
3760.14
3768.86
3777.74
3786.77
3795.99
3805.43
3815.14
3825.15
3835.49
3846.18
3857.25
3868.69
3880.49
3892.63
3905.06
3917.7
3930.52
3757.17
3766.2
3775.41
3784.77
3794.33
3804.12
3814.19
3824.58
3835.32
3846.44
3857.98
3869.94
3882.33
3895.14
3908.33
3921.86
3935.64
3949.61
3753.87
3763.19
3772.7
3782.36
3792.23
3802.34
3812.74
3823.47
3834.57
3846.08
3858.04
3870.47
3883.38
3896.78
3910.66
3924.98
3939.7
3954.71
3969.94
3750.26
3759.85
3769.63
3779.57
3789.72
3800.11
3810.81
3821.85
3833.27
3845.13
3857.46
3870.29
3883.67
3897.6
3912.08
3927.11
3942.66
3958.65
3974.99
3991.58
3746.37
3756.2
3766.23
3776.42
3786.82
3797.47
3808.43
3819.74
3831.45
3843.61
3856.26
3869.46
3883.23
3897.61
3912.62
3928.28
3944.55
3961.41
3978.8
3996.58
4014.66
3742.23
3752.27
3762.52
3772.94
3783.56
3794.45
3805.63
3817.18
3829.14
3841.56
3854.49
3867.99
3882.1
3896.87
3912.33
3928.51
3945.41
3963.03
3981.32
4000.23
4019.6
4039.32
3737.84
3748.08
3758.54
3769.15
3779.98
3791.06
3802.45
3814.2
3826.37
3839.02
3852.18
3865.93
3880.33
3895.41
3911.24
3927.85
3945.29
3963.54
3982.62
4002.48
4023.05
4044.18
4065.7
3733.24
3743.65
3754.29
3765.08
3776.08
3787.34
3798.91
3810.83
3823.18
3836.01
3849.37
3863.33
3877.95
3893.29
3909.41
3926.37
3944.22
3963.01
3982.74
4003.41
4024.98
4047.39
4070.46
4093.98
3728.45
3739.01
3749.81
3760.76
3771.91
3783.32
3795.03
3807.1
3819.6
3832.57
3846.08
3860.21
3875
3890.54
3906.88
3924.11
3942.29
3961.48
3981.74
4003.07
4025.48
4048.94
4073.39
4098.62
4124.45
3723.48
3734.18
3745.11
3756.19
3767.48
3779.01
3790.85
3803.04
3815.65
3828.74
3842.37
3856.61
3871.53
3887.21
3903.72
3921.14
3939.55
3959.04
3979.68
4001.52
4024.6
4048.93
4074.5
4101.22
4128.92
4157.34
3718.36
3729.18
3740.22
3751.42
3762.82
3774.45
3786.39
3798.68
3811.38
3824.55
3838.26
3852.58
3867.58
3883.35
3899.97
3917.51
3936.07
3955.75
3976.65
3998.85
4022.43
4047.44
4073.89
4101.8
4131.12
4161.62
4192.92
3713.11
3724.02
3735.16
3746.46
3757.94
3769.67
3781.68
3794.04
3806.8
3820.03
3833.79
3848.16
3863.2
3879.01
3895.67
3913.27
3931.92
3951.7
3972.74
3995.15
4019.06
4044.54
4071.67
4100.49
4131.07
4163.34
4196.96
4231.54
3707.74
3718.73
3729.96
3741.33
3752.88
3764.67
3776.75
3789.16
3801.96
3815.22
3829
3843.38
3858.43
3874.24
3890.89
3908.49
3927.14
3946.95
3968.04
3990.54
4014.6
4040.36
4067.93
4097.41
4128.91
4162.52
4198.09
4235.27
4273.65
3702.27
3713.32
3724.61
3736.05
3747.66
3759.5
3771.61
3784.05
3796.87
3810.14
3823.92
3838.28
3853.31
3869.08
3885.68
3903.23
3921.82
3941.58
3962.63
3985.12
4009.19
4035.03
4062.81
4092.7
4124.82
4159.34
4196.34
4235.67
4276.99
4319.77
3696.71
3707.82
3719.16
3730.64
3742.29
3754.16
3766.3
3778.75
3791.57
3804.83
3818.58
3832.9
3847.87
3863.57
3880.09
3897.53
3916.01
3935.65
3956.58
3978.96
4002.94
4028.71
4056.48
4086.49
4118.94
4154.04
4191.96
4232.8
4276.48
4322.61
4370.57
3691.09
3702.23
3713.6
3725.11
3736.79
3748.68
3760.82
3773.27
3786.08
3799.3
3813.01
3827.27
3842.16
3857.75
3874.15
3891.46
3909.78
3929.23
3949.97
3972.15
3995.94
4021.52
4049.12
4079
4111.46
4146.8
4185.23
4226.97
4272.23
4320.96
4372.78
4426.88
3685.41
3696.57
3707.97
3719.5
3731.19
3743.08
3755.21
3767.65
3780.42
3793.6
3807.24
3821.42
3836.2
3851.67
3867.92
3885.05
3903.17
3922.41
3942.9
3964.8
3988.29
4013.57
4040.87
4070.45
4102.63
4137.84
4176.38
4218.53
4264.63
4315.01
4369.69
4428.27
4489.77
3679.69
3690.86
3702.27
3713.8
3725.49
3737.37
3749.49
3761.89
3774.62
3787.74
3801.3
3815.37
3830.04
3845.36
3861.44
3878.37
3896.26
3915.23
3935.42
3956.98
3980.1
4004.99
4031.86
4060.99
4092.71
4127.45
4165.69
4207.78
4254.14
4305.26
4361.57
4423.4
4490.07
4541.57
4543.28
3673.94
3685.11
3696.51
3708.04
3719.72
3731.58
3743.67
3756.02
3768.7
3781.74
3795.21
3809.17
3823.69
3838.85
3854.74
3871.44
3889.07
3907.75
3927.6
3948.78
3971.47
3995.87
4022.22
4050.79
4081.89
4115.95
4153.5
4195.04
4241.11
4292.28
4349.2
4412.41
4483.2
4542.84
4540.15
4579.2
4580.76
3668.18
3679.33
3690.72
3702.23
3713.88
3725.71
3737.76
3750.06
3762.67
3775.63
3788.99
3802.83
3817.2
3832.18
3847.86
3864.32
3881.67
3900.02
3919.51
3940.27
3962.49
3986.34
4012.08
4039.97
4070.34
4103.56
4140.17
4180.74
4225.95
4276.52
4333.19
4396.85
4458.75
4450.33
4535.61
4488.47
4528.78
4579.85
4576.52
4619.33
4620.74
3662.4
3673.53
3684.9
3696.39
3708.01
3719.8
3731.79
3744.03
3756.56
3769.42
3782.67
3796.37
3810.58
3825.37
3840.83
3857.03
3874.09
3892.1
3911.19
3931.51
3953.22
3976.49
4001.56
4028.69
4058.2
4090.48
4125.99
4165.32
4209.19
4258.48
4314.12
4377.13
4440.99
4430.24
4479.29
4571
4520.13
4563.25
4619.33
4615.2
4662.23
4663.43
3656.63
3667.73
3679.07
3690.52
3702.09
3713.84
3725.77
3737.94
3750.38
3763.14
3776.27
3789.83
3803.87
3818.46
3833.68
3849.62
3866.36
3884.02
3902.7
3922.56
3943.73
3966.4
3990.77
4017.08
4045.65
4076.86
4111.17
4149.09
4191.33
4238.81
4292.64
4354.07
4418.82
4406.12
4468.65
4456.8
4509.7
4608.65
4553.46
4599.76
4661.46
4656.46
4708.23
4709.19
3650.87
3661.93
3673.23
3684.63
3696.16
3707.85
3719.72
3731.81
3744.15
3756.81
3769.81
3783.21
3797.07
3811.46
3826.44
3842.1
3858.53
3875.82
3894.09
3913.46
3934.09
3956.13
3979.78
4005.26
4032.86
4062.91
4095.89
4132.3
4172.76
4218.13
4269.54
4328.43
4392.94
4378.62
4443.93
4430.03
4497.71
4484.45
4541.71
4648.74
4588.64
4638.48
4706.63
4700.63
4757.74
4758.41
3645.12
3656.14
3667.39
3678.75
3690.22
3701.84
3713.64
3725.64
3737.89
3750.43
3763.29
3776.54
3790.22
3804.4
3819.14
3834.51
3850.62
3867.53
3885.38
3904.27
3924.34
3945.74
3968.66
3993.31
4019.92
4048.81
4080.4
4115.19
4153.75
4196.88
4245.58
4301.25
4364.06
4348.68
4415.33
4399.79
4470.09
4454.71
4528.22
4513.32
4575.4
4691.53
4625.81
4679.65
4755.15
4747.97
4811.2
4811.47
3639.41
3650.37
3661.57
3672.87
3684.28
3695.83
3707.55
3719.46
3731.61
3744.02
3756.75
3769.83
3783.33
3797.29
3811.79
3826.88
3842.66
3859.2
3876.62
3895.02
3914.53
3935.3
3957.49
3981.29
4006.92
4034.66
4064.88
4098.01
4134.59
4175.36
4221.26
4273.47
4333.43
4317.69
4383.68
4367.09
4438.47
4421.41
4497.29
4480.24
4560.22
4543.47
4610.85
4737.26
4665.16
4723.51
4807.33
4798.79
4869.12
4868.89
3633.72
3644.63
3655.77
3667
3678.34
3689.82
3701.45
3713.27
3725.31
3737.6
3750.18
3763.11
3776.42
3790.16
3804.41
3819.22
3834.67
3850.84
3867.83
3885.75
3904.7
3924.83
3946.3
3969.26
3993.93
4020.55
4049.42
4080.94
4115.56
4153.93
4196.93
4245.66
4302.33
4286.67
4350.36
4333.51
4403.75
4385.7
4462.28
4443.53
4525.56
4506.61
4593.73
4574.92
4648.2
4786.26
4706.92
4770.32
4863.7
4853.62
4932.08
4931.29
3628.06
3638.91
3649.99
3661.15
3672.42
3683.82
3695.36
3707.08
3719.01
3731.17
3743.61
3756.37
3769.49
3783.02
3797.02
3811.55
3826.68
3842.48
3859.05
3876.48
3894.89
3914.39
3935.14
3957.28
3981.01
4006.53
4034.11
4064.08
4096.83
4132.88
4172.97
4218.16
4271.46
4256.04
4316.8
4300.14
4367.5
4349.3
4424.19
4404.51
4486.73
4466.09
4554.93
4533.86
4628.89
4607.78
4687.63
4838.99
4751.28
4820.42
4924.82
4912.92
5000.79
4999.31
3622.45
3633.23
3644.24
3655.34
3666.53
3677.84
3689.29
3700.9
3712.71
3724.74
3737.04
3749.63
3762.56
3775.88
3789.63
3803.88
3818.69
3834.13
3850.29
3867.24
3885.11
3904
3924.04
3945.39
3968.21
3992.67
4019.01
4047.51
4078.49
4112.37
4149.72
4191.4
4241.08
4226.06
4283.72
4267.43
4331.25
4313.4
4384.73
4365.03
4444.93
4423.47
4511.83
4489.11
4585.44
4562.01
4665.83
4642.11
4729.34
4895.78
4798.51
4874.12
4991.27
4977.1
5076.02
5073.74
3616.88
3627.6
3638.54
3649.56
3660.67
3671.89
3683.24
3694.75
3706.44
3718.34
3730.49
3742.91
3755.65
3768.76
3782.27
3796.24
3810.73
3825.82
3841.56
3858.05
3875.39
3893.68
3913.04
3933.61
3955.54
3978.99
4004.16
4031.28
4060.61
4092.47
4127.32
4165.78
4211.76
4197.64
4251.38
4235.63
4295.81
4278.47
4345.57
4326.41
4401.96
4380.64
4465.94
4442.51
4537.6
4512.55
4617.12
4591.03
4704.71
4678.03
4773.52
4956.99
4848.85
4931.78
5063.82
5046.9
5158.87
5155.66
3611.37
3622.02
3632.88
3643.82
3654.85
3665.98
3677.24
3688.64
3700.21
3711.98
3723.97
3736.23
3748.78
3761.67
3774.94
3788.64
3802.83
3817.56
3832.91
3848.94
3865.76
3883.45
3902.15
3921.95
3943.02
3965.51
3989.56
4015.39
4043.21
4073.24
4105.81
4141.4
4180.64
4220.45
4205.75
4261.4
4244.77
4307.6
4289.12
4359.66
4339.09
4419.12
4396.03
4487.14
4461.54
4563.98
4536.35
4650
4620.91
4745.72
4715.67
4820.35
5023.31
4902.57
4993.93
5143.48
5123.17
5250.64
5246.26
3605.91
3616.49
3627.28
3638.14
3649.09
3660.13
3671.28
3682.57
3694.02
3705.65
3717.5
3729.59
3741.95
3754.63
3767.67
3781.11
3795
3809.39
3824.34
3839.94
3856.25
3873.37
3891.41
3910.47
3930.7
3952.25
3975.24
3999.85
4026.28
4054.65
4085.2
4118.22
4154.27
4198.25
4183.57
4228.74
4213.26
4271
4253.43
4318.96
4299.27
4373.41
4351.33
4436.09
4411.08
4508.44
4480.46
4590.91
4560.41
4684.13
4651.63
4788.9
4754.98
4869.92
5095.38
4960.03
5061.04
5231.3
5206.8
5352.87
5346.99
3600.51
3611.02
3621.73
3632.52
3643.37
3654.32
3665.37
3676.55
3687.88
3699.38
3711.07
3723
3735.18
3747.65
3760.46
3773.64
3787.24
3801.3
3815.89
3831.06
3846.89
3863.46
3880.86
3899.21
3918.63
3939.25
3961.22
3984.68
4009.8
4036.67
4065.43
4096.25
4129.38
4169.74
4156.24
4204.65
4189.53
4236.56
4220.31
4280.06
4261.54
4329.79
4308.81
4386.7
4362.99
4452.77
4425.69
4529.75
4499.18
4618.35
4584.72
4719.5
4683.26
4834.24
4796.03
4922.54
5173.87
5021.66
5133.76
5328.58
5298.96
5467.68
5459.84
3595.17
3605.61
3616.25
3626.95
3637.72
3648.57
3659.52
3670.59
3681.79
3693.16
3704.7
3716.46
3728.46
3740.74
3753.32
3766.25
3779.57
3793.31
3807.54
3822.31
3837.68
3853.72
3870.52
3888.19
3906.83
3926.57
3947.56
3969.92
3993.81
4019.31
4046.48
4075.39
4106.11
4138.9
4175.07
4161.19
4210.48
4194.82
4243.81
4226.8
4288.47
4268.98
4339.94
4317.59
4399.41
4373.96
4469.08
4439.8
4551.13
4517.83
4646.49
4609.64
4756.38
4716.32
4882.14
4839.53
4978.82
5259.78
5088.48
5213.4
5437.01
5400.99
5597.8
5587.43
3589.99
3600.25
3610.82
3621.44
3632.13
3642.89
3653.74
3664.69
3675.78
3687
3698.4
3710
3721.82
3733.89
3746.26
3758.94
3771.99
3785.43
3799.32
3813.7
3828.63
3844.17
3860.4
3877.42
3895.31
3914.21
3934.25
3955.56
3978.29
4002.53
4028.3
4055.57
4084.3
4114.55
4151.59
4138.23
4179.82
4165.43
4215.65
4199.41
4250.39
4232.63
4296.11
4275.65
4349.3
4325.54
4411.52
4384.25
4485.24
4453.69
4573.06
4536.98
4676.13
4636.01
4795.9
4752.08
4933.69
4887.1
5040.43
5354.64
5162.86
5302.95
5558.83
5515.23
5746.49
5732.87
3595.06
3605.46
3616
3626.6
3637.27
3648.02
3658.87
3669.83
3680.92
3692.17
3703.61
3715.25
3727.13
3739.28
3751.73
3764.51
3777.67
3791.23
3805.24
3819.75
3834.82
3850.51
3866.91
3884.09
3902.19
3921.32
3941.62
3963.23
3986.29
4010.8
4036.68
4063.79
4091.96
4125.81
4113.85
4154.92
4141.44
4183.9
4169.08
4220.04
4203.25
4256.2
4237.68
4302.89
4281.44
4357.93
4332.71
4423.35
4394.2
4501.78
4467.83
4596.3
4557.27
4708.31
4664.88
4839.63
4792.13
4991.19
4940.92
5110.71
5462.05
5249.31
5408.22
5697.19
5646.7
5917.54
5899.81
3600.25
3610.63
3621.14
3631.72
3642.37
3653.11
3663.95
3674.91
3686.02
3697.29
3708.76
3720.45
3732.39
3744.61
3757.14
3770.01
3783.26
3796.92
3811.04
3825.67
3840.85
3856.66
3873.18
3890.5
3908.76
3928.08
3948.62
3970.51
3993.85
4018.55
4044.38
4070.99
4098.05
4128.72
4116.64
4157.6
4143.95
4187.25
4172.04
4223.59
4206.25
4261.13
4241.86
4308.86
4286.38
4366.14
4339.41
4435.28
4404.1
4519.31
4482.76
4621.98
4579.76
4744.85
4697.85
4890.15
4838.95
5058.27
5004.52
5194.31
5573.52
5544.98
5354.37
5490.49
5518.96
5856.26
5645.16
5777.85
5749.85
6116.07
6092.78
3605.41
3615.75
3626.23
3636.79
3647.42
3658.14
3668.97
3679.94
3691.06
3702.35
3713.85
3725.59
3737.58
3749.86
3762.46
3775.41
3788.75
3802.5
3816.7
3831.41
3846.67
3862.56
3879.16
3896.59
3914.96
3934.44
3955.19
3977.37
4000.98
4025.79
4051.26
4076.91
4107.14
4095.83
4131.05
4118.83
4159.58
4145.76
4189.8
4174.24
4226.24
4208.36
4265.18
4245.16
4314.25
4290.64
4374.18
4345.78
4447.77
4414.28
4538.61
4498.92
4651.08
4604.77
4787.03
4735.26
4949.85
4893.5
5139.4
5046.48
5076.42
5285.56
5255.43
5617.78
5463.25
5432.09
5340.73
5561.76
5590.24
6010.82
5984.13
5863.97
5723.83
5838.07
6348.84
6113.62
6272.56
6250.59
3610.52
3620.82
3631.27
3641.8
3652.41
3663.11
3673.94
3684.9
3696.03
3707.34
3718.87
3730.64
3742.68
3755.02
3767.69
3780.71
3794.11
3807.93
3822.19
3836.95
3852.25
3868.18
3884.81
3902.28
3920.72
3940.33
3961.31
3983.82
4007.76
4032.44
4056.92
4085.21
4074.8
4108.62
4097.31
4132.73
4120.39
4160.76
4146.79
4191.49
4175.63
4227.98
4209.53
4268.45
4247.6
4319.18
4294.31
4382.2
4351.86
4460.89
4424.5
4559.48
4515.72
4683.16
4631.39
4837.44
4808.72
4780.48
4751.62
5016.84
4985.69
4863.07
4922.3
4954.77
5117.29
5225.82
5193.62
5086.16
5309.95
5697.01
5532.18
5500
5400.91
5638.82
5668.71
6089.59
5959.17
5811.78
5934.31
6550.76
6545.89
6395.6
6227.15
6374.36
3615.59
3625.83
3636.26
3646.75
3657.34
3668.02
3678.83
3689.79
3700.93
3712.25
3723.81
3735.61
3747.69
3760.08
3772.8
3785.88
3799.33
3813.18
3827.47
3842.24
3857.54
3873.44
3890.06
3907.51
3925.99
3945.72
3967.02
3990.03
4014.03
4037.72
4060.15
4086.47
4075.82
4109.25
4097.8
4133.63
4121.16
4161
4146.84
4192.24
4176.09
4228.8
4209.71
4271.02
4249.22
4323.54
4297.17
4389.78
4357.11
4473.84
4433.9
4580.8
4532.11
4723.1
4694.24
4665.98
4637.68
4832.82
4802.42
4771.8
5053.99
5020.92
4890.03
4952.67
4987.27
5161.48
5277.58
5243.47
5128.02
5368.06
5784.19
5607.17
5466.02
5572.87
5722.42
5754.46
6065.34
6204.87
5907.9
6040.24
6695.63
6691.02
6530.05
6353.14
6510.27
3620.61
3630.8
3641.18
3651.65
3662.2
3672.86
3683.66
3694.61
3705.74
3717.08
3728.65
3740.49
3752.6
3765.03
3777.8
3790.91
3804.38
3818.24
3832.51
3847.24
3862.47
3878.3
3894.83
3912.21
3930.68
3950.64
3972.47
3995.62
4018.64
4040.26
4065.47
4054.94
4086.77
4076.02
4108.78
4097.18
4133.51
4120.86
4160.08
4145.7
4191.95
4175.45
4228.38
4208.6
4272.61
4249.71
4326.77
4298.69
4396.12
4360.82
4485.72
4441.69
4610.16
4582.86
4556.56
4530.64
4741.16
4710.57
4680.32
4650.41
4857.56
4824.95
4792.22
5093.26
5057.62
4917.84
4983.89
5021.18
5208.5
5333.08
5296.22
5172.18
5430.27
5879.21
5688.13
5535.91
5650.97
5813.04
5847.69
6181.65
6332
6013.03
6156.34
6851.38
6676.23
6846.55
6491.18
6658.71
3625.58
3635.71
3646.06
3656.48
3667
3677.63
3688.4
3699.34
3710.47
3721.81
3733.4
3745.26
3757.41
3769.87
3782.66
3795.78
3809.24
3823.07
3837.28
3851.91
3867.01
3882.68
3899.05
3916.3
3934.84
3955.25
3977.32
3999.57
4020.47
4038.85
4064.15
4053.36
4085.95
4074.96
4107.05
4095.26
4132.16
4119.31
4157.78
4143.14
4190.33
4173.45
4226.3
4205.84
4272.68
4248.58
4328.24
4298.29
4400.51
4362.4
4505.76
4481.35
4447.16
4621.06
4592.29
4564.36
4537.18
4759.44
4726.84
4694.6
4662.84
4882.9
4847.88
4812.82
5134.47
5095.81
4946.32
5015.9
5056.25
5258.09
5392.31
5352.12
5218.52
5496.65
5982.74
5775.31
5610.46
5734.33
5911.08
5948.87
6309.32
6471.6
6127.84
6283.49
7018.16
6832.96
7012.35
6642.34
6820.02
3630.48
3640.56
3650.86
3661.24
3671.71
3682.32
3693.06
3703.98
3715.1
3726.45
3738.05
3749.93
3762.1
3774.58
3787.37
3800.47
3813.89
3827.64
3841.74
3856.2
3871.1
3886.52
3902.64
3919.82
3938.69
3959.5
3980.9
4000.88
4018.35
4040.02
4029.68
4061.51
4050.61
4083.8
4072.56
4103.9
4091.9
4129.38
4116.35
4153.9
4139.06
4187.08
4169.84
4222.3
4201.29
4270.73
4245.42
4327.44
4295.58
4402.43
4361.49
4510.9
4485.56
4437.26
4462.48
4631.69
4601.26
4571.75
4543.11
4777.77
4742.99
4708.68
4674.96
4908.69
4871.06
4833.49
5177.52
5135.41
4975.33
5048.56
5092.32
5310.24
5455.09
5410.91
5266.96
5567
6095.21
5869.07
5689.66
5823.14
6016.37
6058.14
6449.42
6625.13
6253.09
6422.67
7199.51
7002.42
7196.17
6809.33
6999.9
3635.3
3645.33
3655.58
3665.91
3676.34
3686.91
3697.62
3708.53
3719.64
3730.98
3742.59
3754.48
3766.67
3779.15
3791.93
3804.99
3818.33
3831.94
3845.85
3860.07
3874.66
3889.74
3905.61
3923.03
3942.5
3963.02
3982.29
3999.11
4013.12
4036.3
4026.1
4057.63
4046.8
4080.2
4068.77
4099.35
4087.19
4125.14
4111.96
4148.57
4133.64
4182.17
4164.67
4216.35
4194.99
4266.48
4240.09
4324.09
4290.42
4413.64
4390.71
4348.81
4369.4
4515.39
4488.57
4437.78
4463.85
4641.94
4609.77
4578.61
4548.44
4796.04
4758.96
4722.48
4686.7
4934.8
4894.38
4854.16
5222.22
5176.18
5004.74
5081.82
5129.22
5364.7
5521.02
5472.28
5317.19
5641.39
6217.35
5969.25
5773.42
5917.36
6129.14
6176.13
6603.78
6795.93
6389.78
6575.59
7428.48
7198.73
7432.35
6998.59
7213.35
3640.05
3650.02
3660.21
3670.49
3680.87
3691.39
3702.08
3712.96
3724.05
3735.4
3747.02
3758.92
3771.11
3783.58
3796.32
3809.3
3822.51
3835.93
3849.58
3863.46
3877.63
3892.29
3908.28
3926.5
3946.2
3965.13
3981.71
3995.42
4013.1
4004.6
4032.21
4022.37
4053.06
4042.46
4075.41
4064.03
4093.78
4081.66
4119.66
4106.43
4142.09
4127.24
4175.69
4158.14
4208.72
4187.23
4260.01
4232.84
4318.17
4283.14
4413.06
4389.48
4346.47
4367.32
4519.28
4491.1
4437.41
4464.5
4651.75
4617.75
4584.88
4553.11
4814.17
4774.7
4735.93
4698
4961.11
4917.75
4874.74
5268.21
5217.89
5034.54
5115.71
5166.86
5421.33
5590.19
5536.37
5369.01
5719.56
6350.15
6076.03
5861.47
6017.38
6250.09
6303.69
6775.24
6989.38
6539.29
6744.65
7795.31
7456.38
7792.43
7220.47
7481.02
3644.73
3654.63
3664.75
3674.97
3685.3
3695.77
3706.41
3717.27
3728.35
3739.69
3751.32
3763.23
3775.41
3787.85
3800.52
3813.38
3826.4
3839.56
3852.86
3866.29
3879.93
3894.47
3911.46
3930.47
3949.33
3966.05
3979.95
3991.98
4010.25
4002.41
4028.14
4018.87
4048.24
4037.97
4070.04
4058.92
4087.71
4075.86
4113.33
4100.19
4134.85
4120.25
4167.99
4150.65
4199.86
4178.52
4251.74
4224.13
4322.56
4302.88
4285.2
4268.17
4411.74
4387.39
4343.01
4364.52
4522.47
4492.94
4436.03
4464.15
4661
4625.06
4590.38
4556.93
4832.09
4790.07
4748.89
4708.64
4987.57
4941.1
4895.12
5315.36
5260.54
5064.76
5150.15
5205.29
5480.2
5662.47
5603.03
5422.57
5801.33
6494.59
6189.76
5954.27
6123.32
6379.53
6441.24
6967.79
7211.65
6703.5
6932.64
8321.06
7809.68
8278.93
7485.33
7812.96
3649.31
3659.14
3669.19
3679.34
3689.6
3700.02
3710.63
3721.45
3732.52
3743.86
3755.49
3767.4
3779.58
3791.97
3804.54
3817.22
3829.98
3842.8
3855.63
3868.5
3881.75
3897.24
3915.62
3934.53
3951.75
3966.29
3978.89
3994.3
3988.13
4008.22
4001.02
4024.64
4016.1
4043.61
4033.84
4064.61
4053.88
4081.71
4070.34
4106.6
4093.77
4127.4
4113.24
4159.64
4142.75
4190.41
4169.62
4242.02
4214.5
4318.07
4298.43
4280.35
4263.4
4409.48
4384.43
4338.94
4360.97
4524.74
4493.81
4433.37
4462.51
4669.44
4631.43
4594.82
4559.59
4849.6
4804.84
4761.03
4718.27
5014.15
4964.26
4915.03
5363.83
5304.25
5095.16
5184.87
5244.49
5541.31
5737.88
5672.33
5477.99
5887.26
6651.88
6310.59
6052.17
6235.54
6518.4
6589.76
7185.59
7468.18
6884.34
7142.73
8782.61
8237.75
8755.35
7796.69
8197.79
3653.8
3663.55
3673.52
3683.59
3693.78
3704.14
3714.7
3725.5
3736.56
3747.91
3759.54
3771.46
3783.61
3795.92
3808.34
3820.79
3833.21
3845.58
3857.85
3870.16
3884.02
3901.41
3920.37
3938.24
3953.66
3966.92
3979
3994.04
3987.96
4007.13
4000.42
4022.12
4014.33
4039.66
4030.56
4059.58
4049.36
4076.32
4065.55
4100.07
4087.79
4120.41
4106.88
4151.39
4135.15
4180.88
4161.02
4242.31
4227.13
4200.92
4213.8
4313.13
4293.45
4275.24
4258.2
4406.05
4380.47
4334.22
4356.59
4525.77
4493.4
4429.29
4459.37
4676.7
4636.47
4597.82
4560.72
4866.39
4818.63
4771.95
4726.49
5040.55
4986.89
4934.09
5413.82
5349.16
5125.34
5219.51
5284.34
5604.69
5816.99
5744.56
5535.41
5977.56
6823.27
6439.65
6155.62
6354.83
6667.8
6750.44
7431.56
7761.33
7084.01
7376.91
9268.47
8688.63
9234.12
8149.77
8613.35
3658.19
3667.85
3677.72
3687.7
3697.82
3708.12
3718.64
3729.41
3740.46
3751.82
3763.48
3775.4
3787.5
3799.71
3811.91
3824.04
3836.04
3847.86
3859.52
3871.96
3887.85
3906.59
3925.04
3941.37
3955.34
3967.55
3978.95
3993.95
3987.91
4006.72
4000.21
4020.74
4013.53
4036.79
4028.46
4055.39
4045.78
4072
4061.88
4094.38
4082.8
4114.25
4101.53
4143.58
4128.16
4195.97
4179.89
4169.08
4159.63
4150.61
4236.93
4222.24
4208.72
4307.62
4288.03
4269.83
4252.78
4401.32
4375.39
4328.74
4351.29
4525.23
4491.43
4423.89
4454.71
4682.39
4639.85
4599.11
4560.12
4882.01
4830.99
4781.25
4732.96
5066.39
5008.61
4951.83
5465.37
5394.96
5154.92
5253.48
5324.21
5670.4
5899.83
5819.8
5594.64
6072.4
7010.65
6577.77
6265.14
6481.68
6829.06
6924.79
7707.75
8089.36
7304.47
7636.43
9744.28
9145.56
9709.42
8534.39
9044.8
3662.46
3672.01
3681.79
3691.68
3701.71
3711.95
3722.42
3733.17
3744.24
3755.63
3767.31
3779.23
3791.27
3803.32
3815.24
3826.95
3838.43
3849.65
3861.05
3875.18
3893.13
3911.91
3929.05
3943.79
3956.37
3967.52
3981.45
3987.64
3975.71
3993.72
4006.42
3999.96
4020.07
4013.11
4035.15
4027.39
4052.39
4043.48
4068.82
4059.31
4089.82
4078.96
4108.64
4096.79
4136.2
4121.65
4191.31
4175.42
4164.99
4155.45
4146.53
4231.66
4217.24
4203.82
4301.61
4282.23
4264.15
4247.26
4395.42
4369.28
4322.58
4345.14
4522.92
4487.76
4417.3
4448.73
4686.29
4641.44
4598.66
4557.86
4896.03
4841.55
4788.66
4737.55
5091.26
5028.96
4967.85
5518.03
5440.88
5183.33
5286.1
5363.36
5738.22
5986.33
5897.82
5655.21
6171.97
7216.3
6725.98
6380.68
6616.85
7004.39
7115.19
8014.52
8448.15
7547.53
7923.08
10139.6
9602.54
10125.6
8940.77
9482.45
3666.6
3676.05
3685.71
3695.49
3705.44
3715.61
3726.05
3736.8
3747.89
3759.33
3771.06
3782.98
3794.93
3806.73
3818.27
3829.48
3840.38
3851.12
3863.59
3880.13
3898.78
3916.56
3932.03
3945.18
3956.43
3966.88
3987.32
3981
3975.21
3993.35
4005.95
3999.55
4019.42
4012.56
4034.05
4026.56
4050.37
4041.97
4066.05
4057.01
4085.84
4075.64
4103.07
4091.98
4134.82
4127.38
4115.28
4186.7
4171.18
4160.93
4151.49
4142.79
4226.41
4212.24
4198.98
4295.2
4276.09
4258.24
4241.67
4388.47
4362.24
4315.87
4338.2
4519.05
4482.63
4409.59
4441.54
4688.38
4641.32
4596.62
4554.19
4908.11
4850.1
4794.1
4740.27
5114.58
5047.44
4981.79
5571.04
5486.1
5209.99
5316.8
5401.04
5807.65
6076.2
5977.76
5716.16
6276.31
7442.43
6886.52
6503.15
6762.93
7197.35
7324.53
8350.37
8831.63
7815.16
8237.54
10505.1
10035.2
10498.3
9361.57
9917.76
3670.61
3679.92
3689.46
3699.13
3708.99
3719.1
3729.52
3740.29
3751.44
3762.96
3774.76
3786.67
3798.45
3809.91
3820.95
3831.6
3841.96
3853.12
3867.89
3885.8
3903.86
3919.97
3933.76
3945.43
3955.82
3966.05
3986.86
3980.47
3974.77
3992.84
4005.28
3998.97
4018.51
4011.78
4032.78
4025.5
4048.48
4040.43
4063
4054.41
4081.71
4072.08
4097.13
4086.73
4131.11
4123.71
4113.62
4107.46
4182.23
4167.05
4156.97
4147.65
4139.05
4221.11
4207.19
4194.23
4288.37
4269.63
4252.15
4236.02
4380.53
4354.31
4308.55
4330.47
4513.96
4476.32
4400.91
4433.37
4688.71
4639.58
4593.07
4549.2
4918.04
4856.56
4797.54
4741.08
5135.8
5063.57
4993.33
5623.31
5529.83
5234.45
5344.86
5436.68
5877.56
6169.23
6059.53
5776.23
6386.12
7691.9
7062.9
6634.56
6922.19
7409.55
7555.48
8712.71
9236.04
8108.85
8579.14
10862.9
10442.9
10860
9793.76
10352.4
3674.46
3683.63
3693.03
3702.58
3712.35
3722.41
3732.83
3743.66
3754.92
3766.57
3778.46
3790.29
3801.79
3812.77
3823.22
3833.33
3843.67
3856.63
3873.27
3891.05
3907.63
3922.05
3934.31
3944.87
3954.97
3968.02
3974.15
3962.54
3986.28
3979.85
3992.2
4004.43
3998.24
4017.36
4010.8
4031.22
4024.16
4046.29
4038.58
4059.53
4051.45
4077.12
4068.07
4095.11
4104.01
4089.99
4081.05
4127.54
4120.28
4110.17
4177.88
4162.99
4153.08
4143.89
4135.39
4215.74
4202.15
4189.55
4281.17
4262.91
4245.94
4230.31
4371.71
4345.6
4300.75
4322.1
4507.77
4469.03
4391.61
4424.56
4687.26
4636.2
4588.06
4542.93
4925.61
4860.68
4798.68
4739.69
5154.59
5077.04
5002.1
5673.64
5570.76
5255.95
5369.49
5469.05
5947.5
6265.38
6142.13
5834.4
6501.66
7965.46
7255.91
6775.06
7093.87
7640.17
7808.5
9099.71
9660.72
8429.02
8947.3
11236.6
10848.3
11256.6
10241.5
10801.3
3678.14
3687.16
3696.4
3705.83
3715.51
3725.54
3735.99
3746.94
3758.39
3770.21
3782.1
3793.71
3804.78
3815.19
3825.09
3834.98
3846.45
3861.42
3878.44
3895.12
3910.07
3922.97
3933.91
3944.05
3953.96
3973.55
3967.37
3961.88
3985.6
3979.16
3991.43
4003.44
3997.37
4016.01
4009.64
4029.37
4022.58
4043.76
4036.42
4055.71
4048.15
4072.09
4063.67
4100.71
4091.83
4086.7
4078.77
4074.47
4123.97
4116.8
4106.76
4173.64
4159
4149.23
4140.16
4131.74
4210.43
4197.24
4185.03
4273.68
4256.04
4239.69
4224.58
4362.22
4336.24
4292.57
4313.21
4500.56
4460.97
4381.97
4415.25
4683.77
4630.96
4581.4
4535.22
4930.33
4861.95
4797.04
4735.62
5170.34
5087.39
5007.48
5720.85
5603.6
5273.73
5388.95
5492.66
6016.36
6363.69
6221.94
5888.27
6619.29
8263.25
7462.71
6922.7
7274.66
7887.94
8081.83
9512.74
10109.4
8775.83
9342.8
11755.7
11300.2
11806.8
10714.3
11296.5
3681.63
3690.47
3699.55
3708.85
3718.46
3728.49
3739.05
3750.21
3761.88
3773.75
3785.48
3796.75
3807.31
3817.14
3826.76
3837.25
3850.48
3866.33
3882.67
3897.92
3911.38
3922.87
3933.16
3943.17
3952.98
3972.87
3966.73
3961.35
3984.82
3978.4
3990.56
4002.3
3996.39
4014.49
4008.33
4027.29
4020.8
4040.93
4033.99
4051.58
4044.58
4066.69
4058.92
4097.34
4088.49
4083.47
4075.61
4071.35
4120.42
4113.31
4103.31
4169.48
4155.12
4145.46
4136.46
4128.12
4205.23
4192.51
4180.64
4265.9
4249.03
4233.43
4218.88
4352.42
4326.54
4284.07
4304
4492.18
4452.09
4371.94
4405.25
4677.71
4623.34
4572.57
4525.61
4931.58
4859.79
4792.06
4728.33
5178.62
5089.29
5006.33
5765.4
5651.66
5292.25
5390.88
5491.43
6082.55
6460.6
6313.97
5955.92
6747.16
8584.9
7682.52
7081.28
7467.84
8153.66
8376.58
9952.5
10587.8
9148.67
9766.7
12732.7
11877.9
12645.1
11229.5
11878.5
3684.91
3693.54
3702.45
3711.62
3721.19
3731.29
3742.08
3753.5
3765.27
3777.04
3788.48
3799.33
3809.36
3818.79
3828.69
3840.51
3854.94
3870.53
3885.74
3899.6
3911.67
3922.25
3932.38
3942.3
3951.98
3960.71
3972.15
3966.07
3983.97
3977.6
3989.61
4001.06
3995.3
4012.83
4006.9
4025.03
4018.87
4037.86
4031.35
4047.18
4040.79
4064.26
4060.61
4053.83
4093.91
4085.05
4080.16
4072.31
4068.19
4116.83
4109.79
4099.78
4165.42
4151.25
4141.7
4132.76
4124.48
4200.22
4187.94
4176.36
4258.09
4242.1
4227.28
4213.34
4342.45
4316.78
4275.45
4294.71
4482.29
4442.14
4361.25
4394.11
4668.59
4612.84
4561.07
4513.72
4928.24
4854.43
4784.75
4719.35
5206.03
5079.63
4998.74
5780.22
5633.41
5299.85
5387.57
5487.93
6109.33
6502.96
6296.96
5938.81
6732.57
8930.28
7916.43
7072.05
7462.35
8433.82
8692.76
10423.2
11105.7
9549.61
10221.9
13646.8
12609.6
13528.5
11809.4
12554.8
3687.94
3696.34
3705.07
3714.14
3723.74
3734.06
3745.15
3756.74
3768.44
3779.96
3791.04
3801.43
3810.97
3820.46
3831.29
3844.3
3858.91
3873.74
3887.75
3900.29
3911.26
3921.6
3931.64
3941.44
3953.84
3960.15
3959.51
3948.71
3971.42
3965.41
3983.07
3976.78
3988.59
3999.73
3994.14
4011.06
4005.37
4022.64
4016.82
4034.6
4028.56
4042.57
4036.84
4061.21
4057.68
4048.51
4090.35
4081.46
4076.72
4068.89
4064.94
4113.13
4106.17
4096.11
4161.4
4147.23
4137.79
4128.94
4120.72
4195.31
4183.41
4172.12
4250.36
4235.26
4221.2
4207.88
4332.21
4306.97
4266.86
4285.43
4470.56
4430.7
4349.28
4381.14
4658.38
4601.96
4549.62
4501.28
4922.16
4848.86
4779.17
4713.6
5191.3
5076.39
4995.59
5777.11
5629.49
5297.04
5384.59
5484.85
6106.22
6499.9
6293.06
5934.86
6729.11
9302.29
7915.74
7068.74
7459
8438.54
9021.69
10931.1
11675.4
9994.3
10710.8
14270.8
13399.5
14264.6
12456.7
13292.7
3690.68
3698.84
3707.39
3716.43
3726.23
3736.92
3748.25
3759.79
3771.25
3782.41
3793.07
3802.98
3812.35
3822.49
3834.36
3847.89
3862.11
3876
3888.81
3900.2
3910.8
3921
3930.94
3940.6
3958.98
3953.34
3964.74
3948.19
3970.68
3982.15
3975.95
3987.54
3998.35
3992.94
4009.22
4003.78
4020.16
4014.68
4031.22
4025.68
4037.81
4032.81
4058.05
4054.71
4043
4051.63
4045.66
4086.6
4077.66
4073.11
4065.3
4061.56
4109.24
4102.38
4092.2
4157.21
4142.77
4133.52
4124.83
4116.72
4190.2
4178.7
4167.7
4242.5
4228.26
4214.91
4202.24
4321.38
4296.98
4258.16
4276.05
4456.89
4417.21
4336.76
4367.46
4652.68
4596.49
4544.35
4478.61
4919.09
4845.84
4776.23
4710.71
5187.62
5073.58
4992.86
5774.1
5626.09
5294.3
5382.03
5482.18
6103.06
6496.56
6289.39
5931.32
6725.45
9695.44
7912.14
7065.11
7455.15
8434.93
9033.03
11482.4
12302.3
10457.4
11248.7
14749.5
14171.5
14890
13163.6
14064.7
3693.1
3700.98
3709.41
3718.63
3728.85
3739.89
3751.21
3762.5
3773.58
3784.32
3794.51
3804.09
3813.85
3824.89
3837.43
3850.92
3864.49
3877.37
3889.11
3899.99
3910.38
3920.45
3930.26
3939.89
3964.13
3958.46
3952.89
3969.94
3947.8
3981.22
3975.13
3986.49
3996.97
3991.74
4007.37
4002.18
4017.66
4012.53
4027.79
4022.74
4033.1
4040.29
4028.81
4054.76
4048.47
4042.75
4082.59
4073.6
4069.3
4061.54
4058.05
4105
4098.31
4087.96
4152.51
4137.46
4128.57
4120.16
4112.29
4184.46
4173.38
4162.72
4233.97
4220.56
4207.98
4195.98
4309.19
4285.88
4248.83
4265.94
4440.13
4402.31
4317.92
4359.45
4649.88
4593.8
4482.14
4541.78
4916.44
4843.25
4773.68
4708.23
5184.6
5071.21
4990.56
5771.37
5623.27
5291.85