/*--------------------------------*- C++ -*----------------------------------*\
  =========                 |
  \\      /  F ield         | OpenFOAM: The Open Source CFD Toolbox
   \\    /   O peration     | Website:  https://openfoam.org
    \\  /    A nd           | Version:  dev
     \\/     M anipulation  |
\*---------------------------------------------------------------------------*/
FoamFile
{
    version     2.0;
    format      ascii;
    class       volScalarField;
    location    "2500";
    object      H2O;
}
// * * * * * * * * * * * * * * * * * * * * * * * * * * * * * * * * * * * * * //

dimensions      [0 0 0 0 0 0 0];

internalField   nonuniform List<scalar> 
9729
(
4.98358e-30
1.47074e-29
1.03541e-29
2.8852e-29
3.87966e-29
1.04006e-29
4.4506e-29
7.64239e-29
4.26465e-29
6.89336e-30
5.10475e-29
1.28218e-28
8.58652e-29
3.19363e-29
1.98486e-30
5.98869e-29
1.86993e-28
1.80129e-28
8.06731e-29
1.74159e-29
6.20632e-31
4.3521e-29
2.22599e-28
3.03411e-28
1.59472e-28
6.39289e-29
9.49675e-30
1.82887e-31
3.42649e-29
1.93858e-28
4.38584e-28
3.46747e-28
1.19147e-28
3.24445e-29
3.39575e-30
9.18507e-32
6.3336e-29
2.5215e-28
6.11273e-28
5.67116e-28
2.94138e-28
7.84422e-29
1.84588e-29
1.97614e-30
3.70891e-32
3.22035e-29
3.24589e-28
7.84566e-28
8.36999e-28
5.81676e-28
2.45719e-28
5.764e-29
9.84692e-30
5.72038e-31
3.14614e-32
5.50016e-29
4.00745e-28
9.88311e-28
1.21518e-27
9.26197e-28
4.86799e-28
1.63495e-28
3.43969e-29
3.56672e-30
2.72153e-31
2.91053e-32
5.42847e-29
2.41738e-28
1.04505e-27
1.62784e-27
1.42228e-27
8.79704e-28
3.78884e-28
9.02912e-29
1.66643e-29
1.04692e-30
2.19963e-31
1.31023e-32
1.68428e-29
2.46362e-28
9.47485e-28
2.46577e-27
2.31405e-27
1.47149e-27
7.51447e-28
2.68314e-28
4.04372e-29
5.43876e-30
9.7711e-31
1.55786e-31
1.39573e-32
1.83997e-29
2.20933e-28
1.17361e-27
3.19079e-27
3.34978e-27
2.4415e-27
1.21523e-27
5.08797e-28
1.39463e-28
2.27798e-29
3.98542e-30
5.44927e-31
1.04318e-31
7.79095e-33
1.6011e-29
3.37937e-28
1.25859e-27
3.12037e-27
4.64602e-27
3.83806e-27
2.23022e-27
1.10223e-27
3.62225e-28
8.73719e-29
1.43152e-29
2.59385e-30
4.76446e-31
7.80573e-32
1.6727e-33
1.45632e-29
3.12297e-28
1.02373e-27
2.88949e-27
6.03694e-27
5.52165e-27
3.61104e-27
1.71392e-27
6.55187e-28
2.22508e-28
4.8122e-29
7.89848e-30
1.56109e-30
3.34583e-31
4.54343e-32
9.73339e-34
1.71221e-29
2.63696e-28
1.14607e-27
3.82206e-27
6.6386e-27
7.6286e-27
5.90986e-27
3.30724e-27
1.55798e-27
5.44061e-28
1.46051e-28
2.20763e-29
7.79577e-30
1.52909e-30
1.28844e-31
2.31179e-32
8.80339e-34
3.18466e-29
3.33544e-28
1.14382e-27
2.71848e-27
7.70434e-27
1.01024e-26
8.32505e-27
5.54373e-27
2.71378e-27
1.11106e-27
3.57803e-28
9.66483e-29
2.09293e-29
6.68687e-30
6.45284e-31
7.61941e-32
1.32552e-32
5.22742e-34
1.61056e-29
2.0396e-28
1.22129e-27
2.44757e-27
8.92048e-27
1.11225e-26
1.19926e-26
7.95837e-27
4.64282e-27
1.75621e-27
8.12209e-28
2.5613e-28
4.62782e-29
1.47365e-29
4.48311e-30
6.85355e-31
4.96486e-32
6.77203e-33
7.72027e-34
3.04072e-29
2.35418e-28
8.59288e-28
2.68429e-27
9.39514e-27
1.31538e-26
1.66766e-26
1.26821e-26
7.51486e-27
4.02158e-27
1.25674e-27
5.30627e-28
1.89723e-28
5.97871e-29
1.85768e-29
2.40164e-30
4.96443e-31
4.51637e-32
2.33388e-32
4.56929e-33
2.59704e-29
2.03389e-28
9.347e-28
2.27628e-27
9.91444e-27
1.61362e-26
1.95236e-26
1.82169e-26
1.18029e-26
6.52595e-27
3.09144e-27
1.02408e-27
3.49311e-28
1.38104e-28
5.19498e-29
1.69341e-29
1.69631e-30
3.32126e-31
1.38011e-31
1.22835e-31
3.72656e-32
8.85847e-30
1.9601e-28
1.03906e-27
2.81036e-27
9.65447e-27
1.81828e-26
2.3876e-26
2.44704e-26
1.62284e-26
9.46006e-27
4.86775e-27
2.31396e-27
7.17475e-28
3.31156e-28
1.41686e-28
5.3284e-29
1.42983e-29
2.14966e-30
9.2276e-31
7.35522e-31
6.60363e-31
2.89438e-31
1.20255e-29
8.43824e-29
1.11833e-27
3.9088e-27
8.9338e-27
2.02659e-26
2.87481e-26
3.14546e-26
2.58138e-26
1.41055e-26
8.53369e-27
4.13194e-27
1.90048e-27
6.82082e-28
3.59114e-28
1.58733e-28
5.44666e-29
9.74242e-30
4.1792e-30
4.4752e-30
4.67921e-30
3.23793e-30
8.93867e-31
1.49174e-29
7.81313e-29
7.93235e-28
4.5313e-27
1.0411e-26
1.85382e-26
3.0828e-26
4.33074e-26
3.24982e-26
2.43744e-26
1.32634e-26
7.05573e-27
2.9513e-27
1.49873e-27
7.81073e-28
2.87766e-28
1.54682e-28
4.60764e-29
1.8505e-29
2.38538e-29
3.13181e-29
2.47901e-29
3.11171e-29
4.41937e-30
1.67309e-29
9.05303e-29
6.10933e-28
3.70283e-27
1.14646e-26
2.30327e-26
4.09325e-26
5.57065e-26
4.72653e-26
3.2019e-26
2.13035e-26
9.99125e-27
5.27914e-27
3.12623e-27
1.6235e-27
8.69309e-28
4.02598e-28
1.04274e-28
7.85091e-29
8.404e-29
1.60263e-28
2.05476e-28
2.32893e-28
1.13511e-28
8.79237e-29
1.37147e-29
1.10358e-28
8.87728e-28
3.214e-27
8.05391e-27
2.11789e-26
4.6347e-26
6.22039e-26
6.6356e-26
4.57027e-26
3.07149e-26
1.93409e-26
9.98441e-27
5.26644e-27
3.23137e-27
1.95438e-27
7.55362e-28
4.58834e-28
2.52257e-28
3.45241e-28
5.21393e-28
1.17481e-27
1.22887e-27
1.19022e-27
6.98773e-28
8.701e-28
3.77029e-29
2.77442e-28
9.10586e-28
3.49783e-27
8.15373e-27
1.92741e-26
5.73638e-26
7.98706e-26
8.56915e-26
7.05027e-26
4.51147e-26
2.87128e-26
1.67349e-26
9.53885e-27
5.20738e-27
3.42423e-27
2.55129e-27
1.29613e-27
7.59896e-28
1.4148e-27
1.37889e-27
3.00299e-27
7.67611e-27
1.24624e-26
7.70069e-27
1.40024e-26
5.19336e-27
2.68194e-28
6.26348e-28
9.42001e-28
3.36677e-27
9.41121e-27
1.79746e-26
5.2478e-26
9.32651e-26
1.04322e-25
9.44237e-26
6.45806e-26
4.1909e-26
2.7116e-26
1.6652e-26
9.1763e-27
6.51777e-27
4.4677e-27
3.43351e-27
3.68137e-27
5.67013e-27
8.40298e-27
1.38237e-26
2.08004e-26
6.25062e-26
1.15926e-25
1.02095e-25
1.74941e-25
1.31532e-25
1.62043e-27
4.02664e-27
4.06512e-27
3.40045e-27
9.95527e-27
2.12368e-26
5.77627e-26
1.22034e-25
1.2971e-25
1.23131e-25
9.38292e-26
5.6126e-26
3.99678e-26
2.6969e-26
1.84382e-26
1.31524e-26
1.12679e-26
9.36761e-27
9.02598e-27
1.30993e-26
3.27046e-26
4.98441e-26
1.09919e-25
2.22966e-25
7.28541e-25
1.12726e-24
1.52331e-24
1.85676e-24
1.19824e-24
9.15137e-27
3.0776e-26
1.86956e-26
9.52002e-27
8.88237e-27
2.34353e-26
5.86313e-26
1.31463e-25
1.57719e-25
1.66987e-25
1.23334e-25
8.87573e-26
5.69522e-26
3.62914e-26
3.00854e-26
2.22427e-26
2.12624e-26
2.22079e-26
3.13519e-26
5.0228e-26
9.98983e-26
2.26758e-25
4.03702e-25
1.10366e-24
4.37062e-24
1.14535e-23
1.23408e-23
1.53906e-23
2.27273e-23
8.79196e-24
8.36184e-26
1.39788e-25
7.62452e-26
3.4339e-26
1.94531e-26
3.30439e-26
6.72496e-26
1.23282e-25
1.9631e-25
2.23708e-25
1.64548e-25
1.12509e-25
8.44833e-26
5.45401e-26
4.50562e-26
4.16486e-26
4.16063e-26
4.39907e-26
7.64385e-26
1.9216e-25
4.42833e-25
9.48346e-25
2.41174e-24
4.8406e-24
2.64937e-23
6.41282e-23
1.63206e-22
2.37575e-22
2.2929e-22
1.79817e-22
1.42938e-22
1.81328e-25
5.22032e-25
4.02415e-25
1.83459e-25
6.77266e-26
4.65188e-26
6.4567e-26
1.25855e-25
2.63556e-25
2.82419e-25
2.42601e-25
1.69766e-25
1.09726e-25
8.66084e-26
7.42176e-26
7.07819e-26
1.11018e-25
1.41764e-25
2.00946e-25
6.54408e-25
1.47194e-24
2.89712e-24
1.00748e-23
2.61145e-23
1.00064e-22
4.11483e-22
1.13843e-21
1.64085e-21
2.27486e-21
2.09601e-21
1.40188e-21
1.06942e-21
4.89443e-25
1.73214e-24
1.52675e-24
8.06778e-25
3.12191e-25
1.19121e-25
9.47459e-26
1.55843e-25
3.31146e-25
3.54672e-25
3.30995e-25
2.51274e-25
1.79764e-25
1.37422e-25
1.24782e-25
1.40315e-25
1.9748e-25
4.55357e-25
8.75152e-25
1.80846e-24
4.39061e-24
9.74595e-24
3.87865e-23
1.06509e-22
4.33783e-22
1.76385e-21
5.05857e-21
1.32498e-20
2.28739e-20
2.0843e-20
1.61905e-20
1.38691e-20
5.24873e-21
3.55915e-24
6.23511e-24
5.10904e-24
2.90205e-24
1.15672e-24
4.44651e-25
2.98929e-25
3.93397e-25
5.33324e-25
5.15654e-25
4.73847e-25
3.95135e-25
2.55062e-25
2.09647e-25
1.84425e-25
3.43038e-25
7.08163e-25
1.4207e-24
2.28219e-24
6.25317e-24
8.86254e-24
3.08118e-23
1.26477e-22
5.30431e-22
2.39448e-21
7.56382e-21
2.36759e-20
7.48548e-20
1.62048e-19
1.63302e-19
1.88697e-19
9.08585e-20
9.01421e-20
2.38128e-21
1.85258e-20
9.7803e-24
1.79991e-23
1.84837e-23
9.70061e-24
4.70178e-24
1.80783e-24
9.29442e-25
1.09222e-24
1.30115e-24
9.41075e-25
1.0282e-24
8.89746e-25
6.81044e-25
3.88766e-25
4.05802e-25
7.20007e-25
1.85378e-24
5.5287e-24
1.03931e-23
1.58684e-23
4.18053e-23
8.88058e-23
3.79755e-22
1.75954e-21
9.73752e-21
3.31043e-20
1.10717e-19
2.76036e-19
6.12641e-19
1.50911e-18
1.38048e-18
8.48718e-19
1.13815e-18
1.35842e-19
1.16027e-18
1.33603e-20
1.10584e-19
3.39916e-23
3.72541e-23
5.79524e-23
3.06088e-23
1.80978e-23
6.94889e-24
3.28531e-24
3.51963e-24
4.66756e-24
4.13816e-24
2.06798e-24
2.03492e-24
1.8213e-24
1.33091e-24
1.20402e-24
1.87065e-24
3.53041e-24
1.53184e-23
3.85036e-23
5.01609e-23
1.06837e-22
2.73858e-22
1.17363e-21
5.47668e-21
3.23252e-20
1.87016e-19
6.48708e-19
1.09194e-18
4.68304e-18
5.24198e-18
1.28304e-17
1.13974e-17
3.1098e-18
1.01096e-17
5.13317e-18
1.37787e-17
1.87978e-17
5.17791e-19
4.48721e-18
5.21207e-20
5.27337e-19
9.29618e-23
1.71091e-22
1.70781e-22
9.88917e-23
5.54949e-23
2.42512e-23
1.42763e-23
1.59886e-23
1.99614e-23
1.73274e-23
1.00078e-23
8.68659e-24
6.21992e-24
4.41189e-24
3.43153e-24
4.74181e-24
9.44595e-24
3.99588e-23
8.01083e-23
2.34029e-22
4.11185e-22
1.12215e-21
3.10659e-21
1.77129e-20
1.26181e-19
6.27473e-19
2.78111e-18
6.19547e-18
1.44974e-17
3.90515e-17
5.47859e-17
8.22948e-17
2.9535e-17
8.84526e-17
6.3412e-17
2.72617e-17
8.15254e-17
1.11754e-16
2.92339e-18
2.15468e-17
1.58936e-19
3.14379e-18
3.92505e-22
3.99643e-22
5.08533e-22
3.71537e-22
2.18184e-22
6.61469e-23
4.61857e-23
5.36253e-23
8.58972e-23
8.51539e-23
4.85857e-23
2.48037e-23
2.61046e-23
1.41163e-23
1.02348e-23
1.73599e-23
3.3859e-23
8.34115e-23
3.68407e-22
8.2815e-22
1.43176e-21
2.50522e-21
9.2604e-21
4.96761e-20
3.64402e-19
2.25163e-18
9.18597e-18
3.38914e-17
1.09371e-16
1.09537e-16
2.05421e-16
4.13526e-16
2.8739e-16
6.93388e-16
1.89191e-16
5.41688e-16
4.37322e-16
1.8845e-16
6.09981e-16
9.01215e-16
2.34461e-17
1.44603e-16
7.74771e-19
1.81352e-17
1.12799e-21
2.20614e-21
1.91382e-21
1.0531e-21
5.52716e-22
3.14162e-22
1.25856e-22
2.1582e-22
3.68817e-22
3.61457e-22
2.88308e-22
1.34645e-22
9.00996e-23
4.91988e-23
5.26099e-23
5.46193e-23
8.73e-23
1.97755e-22
5.92085e-22
2.36765e-21
4.50656e-21
6.02399e-21
2.26455e-20
1.22783e-19
9.48949e-19
6.78273e-18
3.10249e-17
1.14465e-16
3.07014e-16
7.9807e-16
8.99141e-16
1.51323e-15
1.66389e-15
4.66184e-15
1.76771e-15
5.29205e-15
1.44226e-15
5.15011e-15
2.93801e-15
1.35843e-15
5.81534e-15
9.06832e-15
1.55713e-16
1.05903e-15
3.8714e-18
8.34354e-17
4.5383e-21
8.65797e-21
6.02442e-21
3.47457e-21
1.51854e-21
9.36789e-22
5.24145e-22
5.83165e-22
1.11259e-21
1.65863e-21
1.34539e-21
1.0808e-21
6.38556e-22
2.63987e-22
1.86786e-22
1.89551e-22
2.62411e-22
5.78256e-22
1.37057e-21
6.16781e-21
1.42211e-20
1.8037e-20
5.24584e-20
2.88435e-19
2.5139e-18
1.61127e-17
1.03386e-16
4.3062e-16
1.16287e-15
2.73562e-15
5.79667e-15
7.4497e-15
9.60975e-15
2.037e-14
1.47907e-14
3.76365e-14
1.95936e-14
6.32615e-14
1.43433e-14
6.39157e-14
3.49634e-14
1.10936e-14
6.79034e-14
1.02093e-13
1.02644e-15
9.78724e-15
3.14376e-17
4.58334e-16
3.32961e-20
3.71981e-20
2.3153e-20
1.23322e-20
4.60065e-21
2.70577e-21
1.74581e-21
1.35983e-21
3.30414e-21
6.71838e-21
8.13044e-21
4.13782e-21
3.04628e-21
1.10212e-21
4.65246e-22
7.06301e-22
6.01747e-22
2.14339e-21
4.24938e-21
1.39005e-20
3.78399e-20
5.96067e-20
1.13167e-19
6.06265e-19
7.58358e-18
5.12449e-17
2.63813e-16
1.22454e-15
5.11798e-15
1.5862e-14
2.85157e-14
4.49738e-14
4.16191e-14
8.65617e-14
8.65541e-14
1.74882e-13
1.81612e-13
4.6456e-13
2.46253e-13
8.25819e-13
1.77635e-13
8.14537e-13
4.31519e-13
1.1874e-13
8.19228e-13
1.20671e-12
7.32625e-15
1.0799e-13
1.24435e-16
3.81891e-15
1.59915e-19
1.93808e-19
1.33555e-19
5.31532e-20
2.14894e-20
7.94451e-21
4.81396e-21
5.04565e-21
1.00056e-20
1.47195e-20
2.80984e-20
1.95473e-20
1.28269e-20
8.45409e-21
1.99484e-21
1.99362e-21
2.89316e-21
6.15546e-21
1.30415e-20
2.44069e-20
9.20216e-20
1.59319e-19
2.75096e-19
1.23781e-18
1.30774e-17
1.51041e-16
7.48127e-16
4.27689e-15
2.04703e-14
6.27251e-14
1.97394e-13
2.39616e-13
1.66638e-13
3.39077e-13
3.43516e-13
6.503e-13
1.13813e-12
2.26001e-12
2.44383e-12
6.40837e-12
3.24066e-12
1.11937e-11
2.26723e-12
1.06547e-11
5.40189e-12
1.37606e-12
9.96597e-12
1.43461e-11
7.71685e-14
1.24653e-12
1.01973e-15
3.82491e-14
4.09261e-19
8.16079e-19
5.15853e-19
2.75071e-19
1.12881e-19
3.23004e-20
1.20007e-20
1.14361e-20
2.20835e-20
4.83742e-20
1.06654e-19
1.17024e-19
9.03827e-20
3.62923e-20
1.32544e-20
6.68218e-21
6.67635e-21
1.66827e-20
2.53475e-20
5.69521e-20
1.41156e-19
3.50438e-19
6.48707e-19
2.45848e-18
3.06481e-17
3.16553e-16
2.71994e-15
1.45098e-14
8.30627e-14
3.21645e-13
7.18965e-13
1.64435e-12
7.0273e-13
1.51129e-12
1.13144e-12
1.88492e-12
4.27371e-12
8.18498e-12
1.61136e-11
3.26181e-11
3.36507e-11
9.01735e-11
4.30052e-11
1.49818e-10
2.89758e-11
1.3642e-10
6.65277e-11
1.60665e-11
1.18814e-10
1.67462e-10
8.45859e-13
1.43752e-11
9.86746e-15
3.99983e-13
3.02854e-18
4.37358e-18
2.78241e-18
1.33837e-18
4.63539e-19
1.38189e-19
4.62879e-20
3.04976e-20
6.38171e-20
1.79537e-19
3.21083e-19
3.91185e-19
3.28851e-19
1.50716e-19
7.33589e-20
2.46387e-20
2.20465e-20
3.95108e-20
7.70877e-20
1.21476e-19
2.62519e-19
7.34352e-19
1.37279e-18
5.394e-18
6.32933e-17
6.68278e-16
5.62035e-15
4.55458e-14
2.9625e-13
1.4304e-12
4.47162e-12
4.74529e-12
3.36209e-12
7.95824e-12
3.44407e-12
6.61431e-12
1.25741e-11
1.69473e-11
6.09706e-11
1.19663e-10
2.26662e-10
4.71285e-10
4.52227e-10
1.21799e-09
5.49398e-10
1.90527e-09
3.57941e-10
1.65914e-09
7.87538e-10
1.85535e-10
1.36079e-09
1.88679e-09
9.30954e-12
1.62931e-10
9.93748e-14
4.2118e-12
1.29034e-17
1.1589e-17
1.02576e-17
4.79575e-18
1.86222e-18
6.15971e-19
1.91953e-19
1.27135e-19
1.96213e-19
5.39963e-19
8.09744e-19
1.0195e-18
1.2026e-18
9.02138e-19
3.88724e-19
1.06318e-19
6.35363e-20
1.05891e-19
1.71964e-19
3.5242e-19
7.61409e-19
1.40009e-18
3.00666e-18
1.20592e-17
1.31808e-16
1.29948e-15
1.33949e-14
1.24908e-13
9.66419e-13
5.41141e-12
2.08863e-11
4.54134e-11
2.51475e-11
6.02553e-12
1.37528e-11
2.89865e-11
2.39233e-11
3.82991e-11
1.83195e-10
2.24626e-10
8.88697e-10
1.75902e-09
3.04799e-09
6.45651e-09
5.71575e-09
1.53581e-08
6.57076e-09
2.24438e-08
4.18177e-09
1.87463e-08
8.7996e-09
2.08513e-09
1.47299e-08
2.01703e-08
1.00679e-10
1.77612e-09
1.00492e-12
4.37362e-11
3.96548e-17
5.21885e-17
4.38189e-17
1.8391e-17
7.98523e-18
2.80238e-18
8.22688e-19
4.54872e-19
6.57547e-19
9.9755e-19
2.43336e-18
3.82953e-18
3.62826e-18
2.67622e-18
1.34637e-18
6.44095e-19
2.25661e-19
1.97182e-19
3.49806e-19
7.12607e-19
1.59358e-18
3.39898e-18
6.73738e-18
2.47483e-17
3.34629e-16
3.3165e-15
3.58933e-14
3.37497e-13
2.8195e-12
1.56755e-11
7.08223e-11
2.26339e-10
5.1017e-10
6.75553e-11
2.67793e-10
7.02972e-11
1.41261e-10
2.58291e-10
3.27602e-10
2.77615e-09
3.42559e-09
1.24599e-08
2.44244e-08
3.81304e-08
8.14552e-08
6.6385e-08
1.76591e-07
7.21991e-08
2.40011e-07
4.53819e-08
1.93146e-07
9.11613e-08
2.22141e-08
1.48705e-07
2.00151e-07
1.04886e-09
1.82764e-08
1.00935e-11
4.41623e-10
9.35139e-17
1.80387e-16
1.20675e-16
7.81263e-17
2.82793e-17
1.09932e-17
3.02214e-18
1.21386e-18
1.671e-18
3.36461e-18
5.35874e-18
1.00665e-17
1.1825e-17
9.42012e-18
5.49651e-18
2.38417e-18
1.27048e-18
7.09351e-19
9.89404e-19
1.2176e-18
3.13796e-18
6.8878e-18
1.2009e-17
5.05766e-17
6.98834e-16
9.18319e-15
1.04155e-13
1.00823e-12
7.98815e-12
4.64788e-11
2.22464e-10
8.57433e-10
2.19945e-09
1.27717e-09
2.71939e-09
2.83739e-10
5.93093e-10
5.038e-10
9.00563e-10
3.67754e-09
4.02836e-09
3.94207e-08
5.06909e-08
1.61889e-07
3.07454e-07
4.34276e-07
9.27102e-07
6.9315e-07
1.8109e-06
7.15331e-07
2.28025e-06
4.47933e-07
1.79123e-06
8.61816e-07
2.18404e-07
1.36974e-06
1.81054e-06
1.04731e-08
1.75397e-07
9.98446e-11
4.28982e-09
1.85388e-16
3.76021e-16
3.77389e-16
2.59231e-16
9.93533e-17
4.34553e-17
1.65968e-17
5.60001e-18
5.56182e-18
9.34808e-18
2.13361e-17
2.05043e-17
3.38196e-17
2.49765e-17
1.631e-17
8.16462e-18
4.35748e-18
2.15358e-18
2.2023e-18
3.56324e-18
5.35391e-18
1.61384e-17
2.03814e-17
8.4833e-17
1.417e-15
2.26701e-14
3.04411e-13
3.22463e-12
2.61657e-11
1.6179e-10
7.34512e-10
2.78027e-09
9.69157e-09
8.47744e-09
4.50247e-10
6.00395e-09
1.17599e-08
1.68811e-09
3.32481e-09
4.98047e-09
7.82702e-09
5.5596e-08
5.93037e-08
4.97255e-07
6.667e-07
1.85901e-06
3.34263e-06
4.3681e-06
8.9767e-06
6.29394e-06
1.55291e-05
6.19583e-06
1.80295e-05
3.93211e-06
1.41725e-05
7.14618e-06
1.94861e-06
1.08623e-05
1.38478e-05
9.90265e-08
1.54692e-06
9.65685e-10
3.94482e-08
3.04304e-16
7.68202e-16
9.1519e-16
6.50168e-16
3.69146e-16
1.52834e-16
6.80027e-17
2.10655e-17
1.44697e-17
2.54401e-17
5.72761e-17
7.45162e-17
8.38062e-17
8.77524e-17
6.4933e-17
2.6441e-17
1.02586e-17
5.56419e-18
5.58783e-18
7.51105e-18
1.60416e-17
2.84576e-17
5.65623e-17
1.283e-16
2.59268e-15
5.67185e-14
8.32776e-13
1.00582e-11
9.15815e-11
6.04243e-10
3.01529e-09
9.60515e-09
3.01046e-08
9.90917e-08
2.44902e-08
7.96e-08
3.90758e-08
7.59421e-08
1.2649e-08
2.4845e-08
6.5292e-08
8.61167e-08
7.79778e-07
8.77639e-07
5.24122e-06
7.10733e-06
1.67888e-05
2.74921e-05
3.45266e-05
6.3761e-05
4.53944e-05
0.000101528
4.28819e-05
0.000108581
2.80348e-05
8.67528e-05
4.64382e-05
1.45423e-05
6.61017e-05
8.01175e-05
8.71529e-07
1.15938e-05
9.0183e-09
3.33798e-07
6.45381e-16
1.68477e-15
1.82109e-15
1.38127e-15
8.36917e-16
3.67441e-16
2.09273e-16
8.06369e-17
4.99887e-17
6.91028e-17
1.14445e-16
1.76046e-16
2.32184e-16
2.12792e-16
2.16784e-16
1.07916e-16
4.98553e-17
2.00831e-17
1.25601e-17
1.71486e-17
3.18075e-17
5.22791e-17
9.02003e-17
2.197e-16
3.30442e-15
1.10525e-13
2.17054e-12
2.86702e-11
3.09087e-10
2.31949e-09
1.21507e-08
3.84046e-08
1.10574e-07
2.93629e-07
4.11461e-07
6.48316e-07
1.19312e-07
2.2836e-07
3.07698e-07
4.98484e-07
1.24422e-07
2.14562e-07
9.39245e-07
1.11204e-06
8.72898e-06
1.02165e-05
4.05632e-05
5.39738e-05
0.000105009
0.000154428
0.000186175
0.000293981
0.00023916
0.000419977
0.000220376
0.000461288
0.000150512
0.000384756
0.000225432
8.19587e-05
0.000296159
0.000341144
6.61338e-06
6.63094e-05
7.86024e-08
2.46183e-06
3.11018e-15
4.09223e-15
3.41175e-15
2.40627e-15
1.08889e-15
4.95546e-16
2.74713e-16
1.5663e-16
2.43247e-16
3.80582e-16
4.73754e-16
5.86985e-16
6.37908e-16
6.79352e-16
5.65132e-16
2.04606e-16
5.96224e-17
4.0242e-17
3.24699e-17
5.10307e-17
1.29896e-16
2.20495e-16
3.16858e-16
3.61357e-15
1.50253e-13
4.75464e-12
7.65842e-11
8.91072e-10
7.64249e-09
4.34785e-08
1.63585e-07
4.8003e-07
1.14872e-06
1.50173e-06
7.95805e-07
1.64258e-06
2.39571e-06
7.45377e-07
1.07698e-06
2.55593e-06
3.60693e-06
1.39482e-06
2.04763e-06
1.11266e-05
1.24659e-05
6.7517e-05
8.04081e-05
0.000209179
0.000263254
0.000417451
0.000543597
0.000625794
0.000834937
0.000754767
0.00105907
0.00075136
0.00114619
0.000579883
0.00106727
0.000775479
0.000340851
0.000923171
0.000995586
3.81175e-05
0.000276437
5.37959e-07
1.32417e-05
7.80538e-15
7.67369e-15
5.52786e-15
2.65423e-15
1.24081e-15
5.85126e-16
5.71392e-16
5.26425e-16
7.91973e-16
1.3714e-15
1.36814e-15
1.32375e-15
1.81067e-15
1.83043e-15
5.73392e-16
3.68324e-16
1.40284e-16
9.80019e-17
1.56141e-16
2.59831e-16
4.017e-16
5.98531e-16
3.80334e-15
1.60271e-13
6.8977e-12
1.86575e-10
2.46844e-09
2.3699e-08
1.56652e-07
6.68818e-07
2.07786e-06
4.86636e-06
1.01509e-05
3.74897e-06
7.71595e-06
7.49985e-06
1.04825e-05
4.42557e-06
6.00468e-06
1.99928e-05
2.36962e-05
1.42841e-05
1.73776e-05
9.09553e-05
9.99937e-05
0.000317068
0.00036602
0.000663417
0.000769805
0.00103486
0.00121259
0.00134156
0.00158622
0.00151929
0.00183534
0.00153071
0.001929
0.00134907
0.00186195
0.00157009
0.000607279
0.00101018
0.00170524
0.00174376
0.00136847
0.000163368
0.000913035
0.000463727
0.000889792
2.06403e-06
5.10474e-05
1.6496e-14
1.34195e-14
7.82583e-15
3.64211e-15
1.62161e-15
1.39618e-15
1.68262e-15
2.2995e-15
3.46862e-15
3.88089e-15
4.1286e-15
5.0333e-15
6.57545e-15
2.57142e-15
9.08132e-16
4.19857e-16
2.68963e-16
2.82218e-16
4.10175e-16
7.0861e-16
1.69262e-15
4.24574e-15
1.4602e-13
7.72794e-12
2.9202e-10
6.36296e-09
6.92298e-08
5.2433e-07
2.53615e-06
8.46866e-06
1.94884e-05
3.54163e-05
4.04399e-05
6.20398e-05
1.41785e-05
2.20395e-05
3.71589e-05
4.76418e-05
2.65791e-05
3.20237e-05
0.000124938
0.000133509
0.000107993
0.000116854
0.000405204
0.000435015
0.00086466
0.000942115
0.0013633
0.00148621
0.00179138
0.00195726
0.00208656
0.00228297
0.00225378
0.00248698
0.00226733
0.00257572
0.00211222
0.00246637
0.00227996
0.00198061
0.00224899
0.00134494
0.00206135
0.00236878
0.00229696
0.00208227
0.00173031
0.000255429
0.000639344
0.000722894
0.00129796
0.00120118
6.58566e-07
0.000408156
5.9806e-05
0.00025738
2.89029e-14
2.08975e-14
1.00898e-14
5.25896e-15
3.96064e-15
4.62931e-15
7.88219e-15
1.09811e-14
1.43938e-14
1.41683e-14
1.61763e-14
2.81079e-14
1.09752e-14
3.27805e-15
1.1719e-15
5.93057e-16
4.9782e-16
1.04404e-15
1.7315e-15
3.134e-15
7.51541e-15
1.05842e-13
7.11081e-12
3.55042e-10
1.09029e-08
1.786e-07
1.54904e-06
8.80412e-06
3.24836e-05
7.07603e-05
0.000111233
0.000118142
0.00013466
0.000116894
0.000180392
5.965e-05
8.43273e-05
0.000167407
0.000190166
0.000141785
0.000153383
0.000475814
0.000481745
0.000456081
0.000468694
0.000998822
0.00103804
0.00158502
0.00165935
0.00208634
0.00217911
0.00242999
0.00251992
0.0026457
0.00273592
0.00262458
0.00270448
0.0027713
0.0028247
0.00261733
0.00275273
0.00281218
0.00292966
0.00285261
0.00255656
0.00247086
0.00267543
0.00272809
0.00254995
0.0017001
0.00239386
0.00266744
0.00261772
0.00240702
0.00207254
0.000911023
0.00108199
0.00163471
0.00153521
9.79771e-07
2.5095e-05
0.000102938
0.00069672
0.000432881
4.65154e-14
3.06689e-14
1.76313e-14
1.21031e-14
2.36633e-14
2.70293e-14
4.28855e-14
5.41691e-14
5.58934e-14
5.37213e-14
8.51353e-14
5.66605e-14
1.66844e-14
4.6804e-15
1.92595e-15
1.26281e-15
1.89247e-15
3.91201e-15
8.68132e-15
1.9855e-14
1.07006e-13
4.60546e-12
3.37265e-10
1.47714e-08
3.48399e-07
3.9976e-06
2.64982e-05
0.000105156
0.000221474
0.000305507
0.000416652
0.000244781
0.000397991
0.000327084
0.000411759
0.000218895
0.000267168
0.000514965
0.00054206
0.000487786
0.000498108
0.00107778
0.00107653
0.00106204
0.0010742
0.00170938
0.00173922
0.0022406
0.0022763
0.00256767
0.00257801
0.00276568
0.00275473
0.00285914
0.00287649
0.00287931
0.0028671
0.0028818
0.00292468
0.00294598
0.00285878
0.00295632
0.00297837
0.00305924
0.00302241
0.00283136
0.00275617
0.00292148
0.00295626
0.00283002
0.0020337
0.00269721
0.00289172
0.0029382
0.00270951
0.00239453
0.00139536
0.00120657
0.00196231
0.00185372
1.55138e-06
4.07825e-05
0.00018955
0.000962801
0.000651785
8.51791e-14
7.34682e-14
6.17934e-14
6.88361e-14
1.0883e-13
1.67616e-13
2.20955e-13
2.28752e-13
2.02618e-13
2.06795e-13
2.78442e-13
8.93203e-14
2.32744e-14
7.83163e-15
3.9075e-15
5.14008e-15
1.1027e-14
2.59857e-14
6.48817e-14
2.07033e-13
2.8662e-12
2.28253e-10
1.48669e-08
4.35994e-07
6.63488e-06
5.37047e-05
0.000225313
0.000465005
0.000620878
0.000722925
0.00081554
0.000878076
0.000510966
0.000628476
0.000702867
0.000798411
0.000579233
0.000634486
0.00107885
0.00109533
0.00107369
0.0010738
0.00175221
0.00174362
0.00175324
0.00175586
0.00229105
0.00229035
0.00256983
0.00255467
0.00273012
0.00268634
0.00285117
0.00282416
0.00279678
0.00276308
0.00294763
0.00293656
0.00291595
0.00288771
0.00300505
0.00300957
0.00299848
0.00304604
0.00310128
0.0030684
0.0031189
0.00312304
0.00304304
0.00299787
0.00311905
0.00312498
0.00306508
0.00235218
0.00297008
0.00312236
0.00316873
0.00298473
0.0026967
0.0017017
0.00149799
0.00227683
0.00216232
1.68801e-06
0.000287342
5.12842e-05
0.00122905
0.000866893
3.02073e-13
3.71025e-13
4.02646e-13
4.81064e-13
6.67243e-13
8.96734e-13
9.60356e-13
8.2593e-13
6.75438e-13
8.97788e-13
4.58097e-13
1.23209e-13
3.74626e-14
1.38966e-14
1.54958e-14
3.40965e-14
8.427e-14
2.25583e-13
6.66413e-13
3.32217e-12
1.04263e-10
1.07777e-08
4.24765e-07
7.6625e-06
7.36686e-05
0.000331707
0.000710925
0.00096079
0.00117944
0.00154624
0.00119835
0.00149832
0.000903895
0.00106256
0.0012386
0.00132929
0.00112443
0.0011721
0.0017222
0.00172674
0.00173206
0.00172339
0.00226087
0.00224622
0.00228407
0.00227421
0.00253015
0.00250589
0.00263695
0.00258669
0.00273067
0.00269142
0.00261097
0.00285507
0.00281701
0.00277589
0.00273281
0.00297699
0.00294658
0.00290968
0.00286751
0.00305867
0.00303708
0.00300434
0.0031679
0.00317611
0.00309805
0.00312682
0.00316032
0.0031939
0.00318612
0.00325537
0.00322481
0.00324612
0.00265473
0.00320447
0.00329994
0.00334766
0.00322522
0.00297567
0.00200317
0.00178907
0.00257881
0.00246361
2.91317e-06
0.000374255
8.16699e-05
0.00150639
0.00111969
1.92777e-12
2.47836e-12
3.41149e-12
2.79732e-12
3.64854e-12
3.99686e-12
3.48112e-12
2.57686e-12
2.72559e-12
2.32497e-12
6.60669e-13
1.80924e-13
5.85016e-14
5.10541e-14
1.05743e-13
2.82405e-13
8.18413e-13
2.50657e-12
8.26029e-12
7.12509e-11
4.35656e-09
3.11139e-07
7.40003e-06
7.85842e-05
0.000395336
0.000913983
0.00130373
0.00161425
0.00192357
0.00209369
0.00217327
0.00176184
0.00195017
0.00144474
0.00159643
0.00183511
0.00191083
0.00174271
0.00177977
0.00221649
0.00221681
0.00223278
0.00222183
0.00244507
0.00243064
0.00248302
0.00246259
0.00253426
0.00248744
0.00252128
0.00242966
0.00268897
0.00264284
0.00253142
0.00258272
0.00282451
0.00278262
0.00274355
0.0027056
0.00296362
0.00291855
0.0028758
0.00283969
0.0030637
0.00301962
0.0029718
0.00322117
0.00319376
0.00307989
0.00308967
0.00314687
0.00327555
0.00331002
0.00332242
0.00326152
0.00336114
0.00293903
0.00338927
0.00341106
0.00346025
0.00342069
0.00322571
0.00230361
0.00209776
0.00286798
0.00275926
1.88628e-05
0.000559789
0.000220578
0.00184415
0.00150383
1.33768e-11
1.58867e-11
1.36814e-11
1.54811e-11
1.68046e-11
1.48319e-11
1.06348e-11
7.52868e-12
8.81931e-12
3.48884e-12
8.68461e-13
2.65682e-13
1.72385e-13
3.34228e-13
9.51513e-13
3.01757e-12
9.79413e-12
3.07438e-11
1.09329e-10
1.76805e-09
1.55515e-07
5.45458e-06
7.50206e-05
0.000408509
0.00104577
0.00157378
0.00184956
0.00203042
0.00218961
0.00228214
0.00226279
0.00220394
0.00226571
0.00201449
0.00212004
0.00226764
0.00230009
0.00222252
0.00224013
0.00240711
0.0024047
0.00241944
0.00241169
0.00238029
0.00236129
0.00244355
0.00240752
0.00232941
0.00225096
0.00247811
0.00241257
0.00227624
0.00235171
0.00266486
0.00262334
0.00259405
0.00264636
0.00280785
0.00278191
0.00276014
0.00273891
0.00292936
0.00289626
0.00287562
0.00286959
0.00302777
0.00298309
0.00295204
0.00322044
0.00316119
0.00303816
0.0030565
0.00310115
0.00329704
0.00336784
0.00333054
0.00324217
0.00341418
0.00320009
0.0035088
0.00346344
0.00351705
0.00355417
0.00343745
0.00261652
0.00244299
0.00314237
0.00305241
0.000336434
0.00101346
0.000740393
0.00225053
0.00206309
8.60117e-11
7.96486e-11
7.34449e-11
7.40425e-11
6.48365e-11
4.60408e-11
2.82641e-11
2.9367e-11
1.73715e-11
4.43861e-12
1.20863e-12
5.93734e-13
1.05944e-12
3.24218e-12
1.12515e-11
3.87444e-11
1.22475e-10
3.47262e-10
1.58824e-09
5.13384e-08
2.66229e-06
5.8704e-05
0.000394019
0.00107362
0.00170136
0.00193205
0.00201648
0.0020439
0.00196903
0.00176888
0.00227232
0.00215077
0.00234732
0.00232806
0.00233153
0.00234924
0.00240177
0.0023947
0.002404
0.00240389
0.00233813
0.0023335
0.00234933
0.0023425
0.00207136
0.00204642
0.00217486
0.00211449
0.00214041
0.00196195
0.00252998
0.00245252
0.0022753
0.00236654
0.00271623
0.0026857
0.00282769
0.00288367
0.00287849
0.00289473
0.00291373
0.00292638
0.00294235
0.00295584
0.00299503
0.00305358
0.00300445
0.00299979
0.00302471
0.00317465
0.00311605
0.00304667
0.00311316
0.00309554
0.00326319
0.00336567
0.00328888
0.00318994
0.00340675
0.00343192
0.00357583
0.00345648
0.00351729
0.00363774
0.00359264
0.0029383
0.00280713
0.00339802
0.00333509
0.00182033
0.00198123
0.00230451
0.0026957
0.00268153
5.18619e-10
4.20877e-10
3.60361e-10
2.99642e-10
2.09108e-10
1.21191e-10
7.38009e-11
8.76466e-11
2.27389e-11
5.25609e-12
2.09891e-12
3.36587e-12
1.11968e-11
4.26921e-11
1.55407e-10
4.9909e-10
1.35743e-09
3.31644e-09
2.35572e-08
1.0328e-06
3.2675e-05
0.000331207
0.00105418
0.00172635
0.00194566
0.0019545
0.00168368
0.00105828
0.00151894
0.00114369
0.00198082
0.00176085
0.00226339
0.00214704
0.00237675
0.00233806
0.0022783
0.00223112
0.00232467
0.00230776
0.00202929
0.0020233
0.00203469
0.00203119
0.00156979
0.00152375
0.00178798
0.00166098
0.00225706
0.0021028
0.00195928
0.0018057
0.00274768
0.00264502
0.00239116
0.00252399
0.00292913
0.00291615
0.00323548
0.00330479
0.00312362
0.00319623
0.00326287
0.00331449
0.00309073
0.00318614
0.00330416
0.00343529
0.00307707
0.00315443
0.0032756
0.00314424
0.00314553
0.00318946
0.00332015
0.00320089
0.00321095
0.00332019
0.00324164
0.00318442
0.00336083
0.00361783
0.00359385
0.00341452
0.00348489
0.00368244
0.00369712
0.00325132
0.00315869
0.0036218
0.00359544
0.00200737
0.00283427
0.00302296
0.00311256
0.00318015
2.84451e-09
2.04846e-09
1.51983e-09
1.01565e-09
5.65393e-10
2.79667e-10
2.59824e-10
1.12076e-10
2.256e-11
7.59869e-12
1.06341e-11
3.87343e-11
1.63052e-10
6.30718e-10
2.06644e-09
5.54379e-09
1.18847e-08
2.82388e-08
3.78468e-07
1.45051e-05
0.000220845
0.000974873
0.00171366
0.00194182
0.00182827
0.00130576
0.000592447
0.000436741
0.000251669
0.000946993
0.000653649
0.00148883
0.00122175
0.00191417
0.00172424
0.00216015
0.00205754
0.00191494
0.00183539
0.00200618
0.00197027
0.00150698
0.00150315
0.00150496
0.00150439
0.00106209
0.000923052
0.00157759
0.00129319
0.00244572
0.00223893
0.00203647
0.00184513
0.00313082
0.00299395
0.00264458
0.00282966
0.00333961
0.00333825
0.00372094
0.00381825
0.00356868
0.00369326
0.00379517
0.00386322
0.00343081
0.00361024
0.00380129
0.00399091
0.00331973
0.00349685
0.00371037
0.00320182
0.00329184
0.00350452
0.00369767
0.00345819
0.00322472
0.00328146
0.00326791
0.00326215
0.00332674
0.00375353
0.0035784
0.00338173
0.00345431
0.00369359
0.0037722
0.00354094
0.00348346
0.00379643
0.00381861
0.00083429
0.00334558
0.00279093
0.00347789
0.003546
1.39532e-08
8.65384e-09
5.38783e-09
2.86541e-09
1.31392e-09
6.08449e-10
6.2625e-10
9.54505e-11
2.81282e-11
3.27445e-11
1.31644e-10
6.11351e-10
2.53857e-09
8.61301e-09
2.31519e-08
4.74907e-08
7.50595e-08
2.55574e-07
5.71415e-06
0.000122433
0.000782241
0.00166074
0.00193592
0.00174489
0.00107782
0.000421778
0.00010174
0.000117991
5.14256e-05
0.000385527
0.000215904
0.000888411
0.000620465
0.00137974
0.00114893
0.0017246
0.00157351
0.00137085
0.00127112
0.0014842
0.00144047
0.000862932