/*--------------------------------*- C++ -*----------------------------------*\
  =========                 |
  \\      /  F ield         | OpenFOAM: The Open Source CFD Toolbox
   \\    /   O peration     | Website:  https://openfoam.org
    \\  /    A nd           | Version:  dev
     \\/     M anipulation  |
\*---------------------------------------------------------------------------*/
FoamFile
{
    version     2.0;
    format      ascii;
    class       volScalarField;
    location    "2500";
    object      k;
}
// * * * * * * * * * * * * * * * * * * * * * * * * * * * * * * * * * * * * * //

dimensions      [0 2 -2 0 0 0 0];

internalField   nonuniform List<scalar> 
9729
(
0.000158194
0.000164488
0.00015159
0.000141258
0.000213038
0.00012404
0.000120095
0.00022588
0.000193446
0.000110074
0.000110985
0.000211942
0.000232571
0.000150868
0.000106442
0.000105679
0.000177786
0.000253426
0.00020542
0.00012633
0.000104655
0.000102991
0.000145015
0.000250318
0.000243945
0.000159121
0.000116498
0.00010335
0.000101472
0.000126906
0.000231917
0.000264386
0.000205462
0.00013306
0.000111407
0.00010246
0.000100625
0.000115031
0.000194494
0.000273348
0.000245835
0.000160594
0.000121263
0.000108004
0.000101816
0.000100125
0.000108225
0.000156784
0.000266367
0.000269323
0.000198761
0.000135469
0.000114615
0.000105709
0.000101329
9.95713e-05
0.000104238
0.000134877
0.000244625
0.000283553
0.000240803
0.000157626
0.000123004
0.000110233
0.000104109
0.000100937
9.90757e-05
0.000101896
0.000120396
0.000205242
0.000287553
0.000270073
0.000189104
0.000134688
0.000115747
0.000107263
0.000102882
0.000100631
9.86885e-05
0.00010043
0.000111767
0.000165493
0.000278882
0.000286056
0.000227938
0.000152145
0.000122797
0.000111003
0.000105061
0.000101942
0.000100388
9.83938e-05
9.94117e-05
0.00010662
0.000141694
0.000255911
0.000297494
0.000263201
0.000178599
0.000131935
0.00011571
0.000107611
0.000103397
0.000101217
0.000100191
9.82189e-05
9.86652e-05
0.000103399
0.000126111
0.000216287
0.000299089
0.000286454
0.000211912
0.000146133
0.000121238
0.000110774
0.000105095
0.000102136
0.000100652
0.000100036
9.82861e-05
9.8045e-05
0.000101239
0.00011624
0.000176618
0.000290182
0.000298491
0.000248308
0.000167107
0.000128795
0.000114449
0.000107221
0.000103198
0.000101165
0.000100188
9.99063e-05
9.83978e-05
9.7262e-05
9.96994e-05
0.000110035
0.000150148
0.00026758
0.000308248
0.00027787
0.000195215
0.000139678
0.000119138
0.000109666
0.000104609
0.000101732
0.000100403
9.98365e-05
9.98017e-05
9.84965e-05
9.65549e-05
9.83687e-05
0.000105947
0.000133476
0.000229936
0.000309004
0.000297714
0.000228084
0.000156166
0.000125009
0.000112715
0.000106235
0.000102577
0.000100637
9.97495e-05
9.95273e-05
9.97137e-05
9.85674e-05
9.59794e-05
9.7236e-05
0.000103016
0.000122358
0.000191535
0.000301058
0.000307954
0.000261071
0.000179232
0.000133453
0.000116317
0.000108215
0.000103618
0.00010102
9.97633e-05
9.92593e-05
9.9274e-05
9.96403e-05
9.86173e-05
9.55008e-05
9.63264e-05
0.00010076
0.000115129
0.000161421
0.000280924
0.000316226
0.000287338
0.000207167
0.000146076
0.000120992
0.000110521
0.000104895
0.000101571
9.98367e-05
9.89956e-05
9.8852e-05
9.90666e-05
9.95763e-05
9.86403e-05
9.51212e-05
9.55846e-05
9.90391e-05
0.000110108
0.000143226
0.000247189
0.000317125
0.000304999
0.000237954
0.000164171
0.000127239
0.000113423
0.000106391
0.000102325
0.000100015
9.882e-05
9.84006e-05
9.85242e-05
9.88869e-05
9.95201e-05
9.86375e-05
9.4873e-05
9.48938e-05
9.76978e-05
0.000106545
0.000130854
0.000209936
0.000310877
0.000314716
0.000267598
0.000187745
0.000136722
0.000116854
0.000108246
0.000103282
0.000100385
9.88107e-05
9.80184e-05
9.79283e-05
9.82503e-05
9.87302e-05
9.94711e-05
9.86112e-05
9.46983e-05
9.42219e-05
9.65854e-05
0.000104006
0.000122513
0.000177317
0.000294027
0.00032088
0.000292575
0.00021425
0.000150856
0.000121584
0.000110419
0.000104421
0.000100939
9.88773e-05
9.77549e-05
9.73755e-05
9.75457e-05
9.80173e-05
9.85965e-05
9.94267e-05
9.85671e-05
9.45788e-05
9.36812e-05
9.56719e-05
0.000102007
0.000116977
0.00015626
0.000265263
0.000322239
0.000308328
0.000242482
0.000169856
0.000128632
0.000113066
0.000105829
0.000101556
9.90636e-05
9.76417e-05
9.69398e-05
9.68543e-05
9.72359e-05
9.78258e-05
9.84741e-05
9.93863e-05
9.85252e-05
9.44959e-05
9.32392e-05
9.49652e-05
0.000100485
0.000113556
0.000142428
0.000230442
0.000317911
0.000317752
0.000269232
0.000192462
0.000139517
0.000116518
0.000107435
0.000102414
9.93324e-05
9.75456e-05
9.66349e-05
9.62791e-05
9.64331e-05
9.69868e-05
9.76573e-05
9.83586e-05
9.93485e-05
9.84894e-05
9.44069e-05
9.28691e-05
9.43946e-05
9.93751e-05
0.000111115
0.000132671
0.000198272
0.000305091
0.000321879
0.000293107
0.000217304
0.000154187
0.000121849
0.000109391
0.000103402
9.97633e-05
9.75742e-05
9.63951e-05
9.58364e-05
9.57336e-05
9.61027e-05
9.67718e-05
9.75011e-05
9.82506e-05
9.93112e-05
9.84578e-05
9.43115e-05
9.25865e-05
9.39289e-05
9.85653e-05
0.000109163
0.000126078
0.000171496
0.000280753
0.000323841
0.000307665
0.000241668
0.000173054
0.000129684
0.000112008
0.000104621
0.000100302
9.76718e-05
9.6163e-05
9.54592e-05
9.51757e-05
9.52974e-05
9.58249e-05
9.65909e-05
9.73618e-05
9.81435e-05
9.92748e-05
9.84268e-05
9.42127e-05
9.23726e-05
9.35935e-05
9.79991e-05
0.000107626
0.000121396
0.000154813
0.000250877
0.000321248
0.000316507
0.000266414
0.000193454
0.000141231
0.000115844
0.00010606
0.000101082
9.78712e-05
9.59963e-05
9.50779e-05
9.46812e-05
9.46272e-05
9.49457e-05
9.56015e-05
9.64438e-05
9.72251e-05
9.80384e-05
9.92419e-05
9.83924e-05
9.40915e-05
9.22066e-05
9.33589e-05
9.76553e-05
0.000106455
0.000117875
0.000142921
0.00021853
0.000312621
0.000320319
0.000287881
0.000215865
0.000155581
0.000121807
0.000108081
0.000101949
9.82784e-05
9.60091e-05
9.47055e-05
9.41696e-05
9.40338e-05
9.41964e-05
9.46664e-05
9.54333e-05
9.63055e-05
9.70947e-05
9.79402e-05
9.92167e-05
9.83518e-05
9.39449e-05
9.21218e-05
9.32092e-05
9.74851e-05
0.000105482
0.000115125
0.000134146
0.000189702
0.000294508
0.000323119
0.000302623
0.000237416
0.000172976
0.000130278
0.000111005
0.000103073
9.87989e-05
9.61025e-05
9.44283e-05
9.36579e-05
9.34261e-05
9.35314e-05
9.386e-05
9.44575e-05
9.5294e-05
9.61734e-05
9.69602e-05
9.78532e-05
9.9206e-05
9.82976e-05
9.37798e-05
9.21026e-05
9.31942e-05
9.74705e-05
0.000104668
0.00011276
0.000127669
0.000168178
0.000269997
0.000321993
0.000312419
0.000258944
0.000191645
0.000141502
0.000115311
0.000104595
9.94627e-05
9.63234e-05
9.43817e-05
9.31911e-05
9.27924e-05
9.285e-05
9.31511e-05
9.36158e-05
9.43097e-05
9.51689e-05
9.60347e-05
9.68149e-05
9.77824e-05
9.92131e-05
9.82256e-05
9.36027e-05
9.21374e-05
9.32681e-05
9.75819e-05
0.000103988
0.00011069
0.000122642
0.000153601
0.000241438
0.000317352
0.000318095
0.000277861
0.000210992
0.000155154
0.000121354
0.000106717
0.000100297
9.6751e-05
9.44216e-05
9.28711e-05
9.21685e-05
9.21097e-05
9.24298e-05
9.28803e-05
9.34499e-05
9.42069e-05
9.50676e-05
9.58867e-05
9.66766e-05
9.77622e-05
9.92472e-05
9.81278e-05
9.3433e-05
9.22666e-05
9.34338e-05
9.77577e-05
0.000103306
0.000108927
0.00011856
0.00014277
0.000212968
0.000306629
0.000320332
0.00029499
0.000230088
0.000170496
0.000129653
0.000109704
0.00010142
9.72089e-05
9.45601e-05
9.27589e-05
9.1644e-05
9.13506e-05
9.16259e-05
9.21375e-05
9.2695e-05
9.33561e-05
9.41588e-05
9.50002e-05
9.57738e-05
9.65995e-05
9.78761e-05
9.93676e-05
9.80021e-05
9.33221e-05
9.24947e-05
9.37193e-05
9.79637e-05
0.000102634
0.00010732
0.00011523
0.000134299
0.000188134
0.000288709
0.000321548
0.000305994
0.000247447
0.000187156
0.000140086
0.000114022
0.00010302
9.78255e-05
9.48112e-05
9.27685e-05
9.13227e-05
9.06711e-05
9.07673e-05
9.12975e-05
9.19497e-05
9.26192e-05
9.33573e-05
9.41882e-05
9.49861e-05
9.57095e-05
9.66614e-05
9.81273e-05
9.97801e-05
9.92783e-05
9.78631e-05
9.33074e-05
9.27957e-05
9.41353e-05
9.82117e-05
0.000102008
0.000105779
0.000112414
0.000127701
0.000168626
0.000267014
0.000320234
0.000313264
0.000265954
0.000203266
0.000152553
0.000120106
0.000105102
9.87385e-05
9.5185e-05
9.28417e-05
9.12131e-05
9.01848e-05
8.99553e-05
9.0365e-05
9.11e-05
9.19077e-05
9.26766e-05
9.34828e-05
9.43079e-05
9.5049e-05
9.57907e-05
9.70144e-05
9.87923e-05
9.83546e-05
9.98506e-05
9.94563e-05
9.77135e-05
9.33747e-05
9.31115e-05
9.47066e-05
9.84868e-05
0.000101398
0.000104358
0.000109902
0.00012246
0.000154853
0.000242596
0.000315906
0.000317719
0.000281866
0.000219795
0.000166113
0.000128
0.000108315
9.98014e-05
9.56774e-05
9.30492e-05
9.12145e-05
8.99321e-05
8.93077e-05
8.94361e-05
9.01126e-05
9.10607e-05
9.20205e-05
9.28848e-05
9.37655e-05
9.46067e-05
9.53103e-05
9.62458e-05
9.58791e-05
9.79489e-05
9.65022e-05
9.7518e-05
9.91182e-05
9.8851e-05
9.99244e-05
9.97012e-05
9.75644e-05
9.34994e-05
9.34505e-05
9.54119e-05
9.86912e-05
0.000100788
0.000103064
0.000107672
0.00011812
0.000144339
0.000217795
0.00030662
0.000319935
0.000297026
0.000235344
0.00018024
0.00013767
0.000112611
0.000101506
9.62792e-05
9.33519e-05
9.12835e-05
8.98521e-05
8.89001e-05
8.86361e-05
8.90793e-05
9.00167e-05
9.11916e-05
9.2317e-05
9.33289e-05
9.43287e-05
9.51709e-05
9.56373e-05
9.56293e-05
9.62012e-05
9.85523e-05
9.72314e-05
9.82123e-05
9.9596e-05
9.95588e-05
0.000100037
0.000100082
9.74193e-05
9.36653e-05
9.38503e-05
9.61501e-05
9.8762e-05
0.000100148
0.000101901
0.00010571
0.000114484
0.00013594
0.000195572
0.000291989
0.000322451
0.000306431
0.000251267
0.000194424
0.000148538
0.000118456
0.000103646
9.72741e-05
9.37251e-05
9.14833e-05
8.98586e-05
8.86978e-05
8.80682e-05
8.81424e-05
8.89003e-05
9.01487e-05
9.15414e-05
9.2895e-05
9.41544e-05
9.5248e-05
9.56862e-05
9.58685e-05
9.61204e-05
9.61729e-05
9.7087e-05
9.94584e-05
9.80528e-05
9.92696e-05
0.000100219
0.000100469
0.000100172
0.000100505
9.72863e-05
9.38696e-05
9.42836e-05
9.68701e-05
9.87326e-05
9.95215e-05
0.000100836
0.000103985
0.000111504
0.000129215
0.000176455
0.000273665
0.000321962
0.00031413
0.000267322
0.000208406
0.000160382
0.000125642
0.000106872
9.83704e-05
9.43296e-05
9.17478e-05
8.99486e-05
8.8633e-05
8.77386e-05
8.74298e-05
8.78614e-05
8.90106e-05
9.05527e-05
9.22639e-05
9.39873e-05
9.54282e-05
9.61525e-05
9.65443e-05
9.63472e-05
9.67621e-05
9.71042e-05
9.72256e-05
9.80708e-05
0.000100597
9.92712e-05
0.000100629
0.000101037
0.000101515
0.000100267
0.000100805
9.71728e-05
9.41054e-05
9.47689e-05
9.74947e-05
9.8648e-05
9.89415e-05
9.98556e-05
0.000102447
0.000109067
0.000123933
0.000161608
0.000253101
0.000319301
0.000319235
0.000282775
0.000222445
0.000172652
0.000134176
0.000111007
0.000100144
9.49685e-05
9.21133e-05
9.01583e-05
8.86505e-05
8.75858e-05
8.69728e-05
8.70238e-05
8.79199e-05
8.94483e-05
9.1427e-05
9.36689e-05
9.57377e-05
9.68899e-05
9.73145e-05
9.73433e-05
9.79579e-05
9.75421e-05
9.81894e-05
9.81821e-05
9.84608e-05
9.93388e-05
0.000101773
0.000100669
0.000101894
0.0001016
0.000102356
0.000100348
0.000101078
9.70783e-05
9.43677e-05
9.53174e-05
9.80466e-05
9.85894e-05
9.84005e-05
9.89999e-05
0.000101091
0.000107027
0.000119973
0.000150476
0.000230888
0.000312899
0.000322318
0.000297681
0.000236338
0.000185028
0.000143943
0.000116296
0.00010239
9.59982e-05
9.25467e-05
9.03981e-05
8.87888e-05
8.75584e-05
8.67297e-05
8.64396e-05
8.69955e-05
8.83391e-05
9.04523e-05
9.31556e-05
9.59344e-05
9.76524e-05
9.80338e-05
9.85046e-05
9.89645e-05
9.89357e-05
9.96455e-05
9.90422e-05
9.97833e-05
9.95157e-05
9.99213e-05
0.000100761
0.000102857
0.000102006
0.000103152
0.000102162
0.000103255
0.00010043
0.000101391
9.70009e-05
9.46385e-05
9.59083e-05
9.85448e-05
9.85564e-05
9.78945e-05
9.81769e-05
9.99348e-05
0.000105287
0.000117187
0.000141933
0.000208991
0.000300768
0.00032647
0.000307884
0.000251153
0.000197298
0.000154353
0.00012299
0.00010544
9.72498e-05
9.32181e-05
9.07119e-05
8.90606e-05
8.76395e-05
8.6656e-05
8.61011e-05
8.62971e-05
8.73549e-05
8.94085e-05
9.24452e-05
9.59407e-05
9.82797e-05
9.85957e-05
9.93732e-05
9.97395e-05
0.000100309
0.000100856
0.000100612
0.000101433
0.000100681
0.000101612
0.000100978
0.000101502
0.000102192
0.000104037
0.000103396
0.000104523
0.000102812
0.000104303
0.000100515
0.00010176
9.69366e-05
9.48682e-05
9.64852e-05
9.89306e-05
9.85664e-05
9.74023e-05
9.74284e-05
9.89393e-05
0.000103792
0.000114991
0.000135188
0.000189517
0.00028411
0.00032709
0.000316995
0.000267077
0.000209643
0.000165209
0.00013064
0.000109456
9.90396e-05
9.39989e-05
9.12078e-05
8.93892e-05
8.79462e-05
8.6712e-05
8.59733e-05
8.58397e-05
8.65895e-05
8.84126e-05
9.15311e-05
9.57756e-05
9.8715e-05
9.89362e-05
0.000100089
0.000100424
0.000101347
0.000101756
0.000102208
0.000102882
0.000102593
0.000103561
0.000102544
0.000103774
0.000102557
0.000103429
0.000103752
0.000105366
0.00010492
0.000106039
0.000103615
0.000105574
0.000100613
0.000102184
9.68676e-05
9.49959e-05
9.69716e-05
9.91734e-05
9.85697e-05
9.69052e-05
9.67835e-05
9.80692e-05
0.000102499
0.000113011
0.000129954
0.000172702
0.000264146
0.00032542
0.000323356
0.000283287
0.000222446
0.000176188
0.000139405
0.000114292
0.000101318
9.51655e-05
9.18118e-05
8.9817e-05
8.83982e-05
8.70341e-05
8.60089e-05
8.56369e-05
8.60837e-05
8.7599e-05
9.05681e-05
9.5164e-05
9.89775e-05
9.90734e-05
0.00010072
0.000101029
0.000102187
0.000102574
0.00010346
0.000103958
0.000104432
0.000105217
0.000104946
0.000106086
0.000104825
0.00010638
0.000104446
0.000105876
0.000105567
0.000106877
0.000106645
0.000107753
0.000104652
0.000107091
0.000100706
0.000102717
9.67469e-05
9.50245e-05
9.72873e-05
9.92691e-05
9.84785e-05
9.64047e-05
9.61775e-05
9.73251e-05
0.000101357
0.000111143
0.000126051
0.000159889
0.000242883
0.000320188
0.000327141
0.000299724
0.000236034
0.000187051
0.000148723
0.000120463
0.000104166
9.65291e-05
9.26888e-05
9.03599e-05
8.8926e-05
8.76268e-05
8.63372e-05
8.56554e-05
8.58588e-05
8.7053e-05
8.9816e-05
9.46035e-05
9.90216e-05
9.83976e-05
0.000101258
0.000101572
0.00010302
0.00010346
0.000104482
0.000104983
0.00010587
0.00010647
0.000107085
0.000107958
0.000107787
0.000109102
0.00010764
0.000109572
0.000106882
0.000108868
0.000107891
0.000108568
0.000108736
0.000109844
0.000105988
0.000108776
0.000100762
0.000103462
9.65279e-05
9.49199e-05
9.74018e-05
9.91961e-05
9.82147e-05
9.58525e-05
9.55364e-05
9.6642e-05
0.000100325
0.000109405
0.000123001
0.000150316
0.000221355
0.000309114
0.000332122
0.000311314
0.000251197
0.000198223
0.000158253
0.000127296
0.000108035
9.8211e-05
9.36863e-05
9.11027e-05
8.95442e-05
8.83533e-05
8.7135e-05
8.60178e-05
8.58756e-05
8.68391e-05
8.93369e-05
9.40217e-05
0.000100522
0.000101714
0.00010259
0.000103922
0.000104432
0.000105595
0.000106233
0.00010706
0.000107759
0.000108672
0.00010948
0.000110366
0.000111477
0.000111339
0.000113204
0.000111058
0.00011391
0.000109828
0.00011262
0.000110775
0.000110634
0.000111813
0.000112949
0.000107528
0.000110759
0.000100892
0.000104285
9.62324e-05
9.46876e-05
9.73342e-05
9.88334e-05
9.77026e-05
9.51667e-05
9.48002e-05
9.59224e-05
9.93636e-05
0.000107777
0.000120465
0.000142799
0.000201281
0.000293235
0.000333585
0.000321765
0.000267993
0.000209913
0.000168265
0.000134857
0.000112452
0.000100429
9.48236e-05
9.19595e-05
9.02874e-05
8.92359e-05
8.81669e-05
8.70474e-05
8.62814e-05
8.69064e-05
8.92249e-05
9.38206e-05
0.000100732
0.000105701
0.000106106
0.000104817
0.000105381
0.000106946
0.000107714
0.000108492
0.000109425
0.000110196
0.000111198
0.000112685
0.000114386
0.000116107
0.000119409
0.000117894
0.00012498
0.000117099
0.000126918
0.000114371
0.00012301
0.000116959
0.000113671
0.000120281
0.00012323
0.000109332
0.000112958
0.000100961
0.000105741
9.62116e-05
9.46496e-05
9.71028e-05
9.82043e-05
9.6843e-05
9.4305e-05
9.3937e-05
9.51046e-05
9.83903e-05
0.000106244
0.000118162
0.000136877
0.00018391
0.000273992
0.000332296
0.000329062
0.000286345
0.000222591
0.000178119
0.000143274
0.000117703
0.000103147
9.60788e-05
9.28978e-05
9.11227e-05
9.02212e-05
8.9357e-05
8.84712e-05
8.7568e-05
8.75297e-05
8.9528e-05
9.40023e-05
0.000101047
0.000106711
0.000105844
0.000109868
0.000110604
0.000108387
0.000109195
0.000110275
0.000111459
0.000112044
0.00011342
0.000116185
0.000118597
0.000125449
0.000134961
0.000140285
0.000164975
0.000148968
0.000197397
0.000146722
0.000206928
0.000133682
0.000184966
0.000149485
0.000124319
0.000167826
0.000182849
0.000109952
0.000121144
0.00010123
0.000105519
9.72196e-05
9.53509e-05
9.70797e-05
9.75205e-05
9.58151e-05
9.33036e-05
9.2931e-05
9.41662e-05
9.73612e-05
0.000104779
0.000116003
0.000132462
0.000169735
0.000252999
0.000327653
0.000333549
0.000304074
0.000237317
0.000188216
0.000151848
0.000123787
0.000106499
9.76642e-05
9.37936e-05
9.19951e-05
9.12369e-05
9.06883e-05
9.02321e-05
8.97097e-05
8.94495e-05
9.08236e-05
9.49499e-05
0.00010159
0.000109708
0.000111009
0.000112551
0.000114393
0.000115129
0.000112432
0.000113546
0.000114416
0.000116107
0.000120609
0.00012281
0.000147331
0.000160698
0.000208272
0.00026946
0.000295822
0.000444281
0.000341512
0.000613552
0.000324579
0.000634162
0.000250264
0.000525544
0.000335239
0.000186577
0.000426908
0.000493884
0.000114806
0.000171326
0.000101202
0.000106691
9.90935e-05
9.80292e-05
9.81785e-05
9.74433e-05
9.51092e-05
9.24664e-05
9.19087e-05
9.30865e-05
9.62601e-05
0.000103379
0.000114005
0.000129016
0.000158886
0.000232055
0.000317506
0.000339425
0.000316952
0.000253758
0.000199271
0.000160994
0.00013042
0.000110404
9.96446e-05
9.46862e-05
9.28166e-05
9.22491e-05
9.21409e-05
9.23216e-05
9.25076e-05
9.28403e-05
9.4012e-05
9.81422e-05
0.000103259
0.000112223
0.000119424
0.000121584
0.000116215
0.000117318
0.0001212
0.000123859
0.000117277
0.000119269
0.000124592
0.000128294
0.000173865
0.0001873
0.000346076
0.000428194
0.000655292
0.000911943
0.00101452
0.00152109
0.0012271
0.0020214
0.00113617
0.00216348
0.000810319
0.00185345
0.00114107
0.000506063
0.00146367
0.0016909
0.000142473
0.000434452
0.000101092
0.000115793
0.000108438
0.000103727
9.99541e-05
9.56102e-05
9.23066e-05
9.13395e-05
9.20614e-05
9.50597e-05
0.000102024
0.000112211
0.000126154
0.000150609
0.000212176
0.000302301
0.00034191
0.000328801
0.000272181
0.000210906
0.00017039
0.000138178
0.000114837
0.00010198
9.56639e-05
9.34954e-05
9.31541e-05
9.3582e-05
9.46755e-05
9.59763e-05
9.74329e-05
9.98275e-05
0.000103567
0.000108248
0.000118946
0.000126926
0.000120266
0.000136714
0.000143709
0.000127558
0.000131335
0.000147232
0.000159216
0.000132453
0.000140059
0.000200015
0.000216395
0.000515848
0.000606322
0.00120247
0.00149836
0.00209036
0.00266471
0.00289599
0.00375334
0.00337132
0.00458373
0.003372
0.00496049
0.00270117
0.0047289
0.00357349
0.0017252
0.00431557
0.00478439
0.000296122
0.00144912
0.000102908
0.000168837
0.000122445
0.000109688
0.000100528
9.38889e-05
9.15114e-05
9.16318e-05
9.4072e-05
0.000100673
0.000110631
0.000123721
0.000144355
0.000194609
0.000283675
0.000340966
0.000337033
0.000292767
0.000224853
0.000179613
0.000146362
0.000120349
0.000104638
9.68972e-05
9.40318e-05
9.38302e-05
9.48146e-05
9.69828e-05
0.0001
0.000103379
0.000107976
0.000112555
0.000120755
0.000140597
0.000190173
0.000153742
0.000179524
0.000201171
0.000225642
0.00017093
0.000186674
0.000300559
0.000340809
0.000238001
0.000269254
0.000692694
0.00077936
0.00180282
0.00209732
0.0032042
0.00368279
0.00454499
0.00524771
0.00573467
0.00674143
0.0065148
0.00793535
0.0067096
0.00850121
0.0060802
0.00838879
0.00726419
0.00304497
0.00503562
0.00816358
0.0086028
0.00680144
0.000921292
0.00462301
0.00243691
0.00461506
0.000111366
0.00038382
0.000132729
0.000116659
0.000101907
9.38993e-05
9.19861e-05
9.38358e-05
9.9691e-05
0.000109208
0.000121687
0.000139805
0.000180145
0.000263273
0.000336891
0.000342651
0.000311447
0.0002414
0.000190052
0.000154791
0.000126554
0.000107942
9.83921e-05
9.44745e-05
9.42399e-05
9.56853e-05
9.89486e-05
0.000104079
0.000110609
0.000118611
0.000130811
0.000160373
0.000229033
0.000372912
0.000467956
0.000656152
0.000256902
0.00032016
0.000489541
0.000590574
0.000378513
0.000434668
0.0010789
0.00119051
0.000870892
0.00097273
0.00235871
0.0025873
0.00411099
0.00446628
0.00583911
0.00632511
0.00762934
0.00840723
0.00923722
0.0103323
0.010228
0.0117735
0.0104648
0.0124034
0.00986278
0.0117751
0.0107156
0.00943276
0.0107511
0.00679725
0.0101222
0.0116144
0.0111214
0.0103843
0.00869523
0.00146128
0.00351697
0.00383602
0.00670472
0.00635579
0.000117091
0.00237576
0.000510676
0.00169589
0.000141527
0.000125085
0.000104271
9.49965e-05
9.4398e-05
9.95465e-05
0.000108144
0.000120004
0.000136475
0.000168897
0.000242771
0.000327622
0.000349753
0.000325745
0.000259606
0.000201744
0.000163863
0.000133746
0.000111973
0.000100195
9.50414e-05
9.43731e-05
9.61056e-05
0.000100401
0.000107629
0.000118349
0.000136487
0.00018228
0.000320523
0.000577294
0.000967182
0.00109838
0.00138231
0.00125111
0.00184698
0.000704904
0.000937771
0.00160065
0.00183498
0.00130543
0.00143298
0.00311074
0.00326407
0.00278645
0.00295599
0.0047384
0.00494484
0.00672528
0.00702386
0.00903585
0.0095539
0.0113196
0.0121816
0.0131818
0.0144036
0.0128816
0.0136381
0.0143826
0.0151402
0.0127538
0.0137966
0.0146335
0.0156961
0.0147209
0.0124073
0.0119242
0.0131463
0.0135328
0.0124407
0.00871578
0.0118887
0.0132681
0.0129029
0.0121156
0.0105181
0.00517604
0.0059023
0.00857788
0.00828203
0.000112122
0.000363109
0.000842033
0.0042492
0.00297129
0.000151535
0.000133456
0.000106799
9.78142e-05
0.000100143
0.000107916
0.000118789
0.000134015
0.000160749
0.000223789
0.000313125
0.000354009
0.000339066
0.000280381
0.000214492
0.00017323
0.000141745
0.000117166
0.000102605
9.58538e-05
9.43538e-05
9.61531e-05
0.000101094
0.000110101
0.000126082
0.000168987
0.000330546
0.000856397
0.00170392
0.00274405
0.00378914
0.00235812
0.00349971
0.00302658
0.00354254
0.00214386
0.00254548
0.00376555
0.00396726
0.00341943
0.00357974
0.00528077
0.0053449
0.00509408
0.00520057
0.00722068
0.00733489
0.0099548
0.0102253
0.0128245
0.0133555
0.0153735
0.0160429
0.0157799
0.0163912
0.0168805
0.0173005
0.0155056
0.0162798
0.0169603
0.014594
0.0156044
0.0165455
0.0174409
0.0165557
0.0142446
0.0136683
0.0148442
0.0153349
0.0141512
0.0105347
0.0135493
0.0145554
0.0148762
0.0137628
0.0122502
0.00779392
0.00707144
0.0104184
0.0101446
0.000123522
0.000691091
0.00164761
0.00605616
0.00469383
0.000164394
0.000139938
0.000109555
0.000103232
0.000108357
0.000118422
0.000132362
0.000155099
0.000207544
0.000295824
0.000353736
0.000348743
0.00030271
0.000230818
0.000183138
0.00015041
0.000123522
0.000105868
9.70604e-05
9.42966e-05
9.59177e-05
0.000101126
0.000111456
0.00013208
0.000208396
0.000621569
0.00198918
0.00425631
0.00545939
0.00565192
0.00513111
0.00584153
0.00407676
0.00473006
0.00474095
0.00503369
0.00419686
0.00445048
0.00551797
0.00558797
0.00540235
0.00545779
0.007332
0.00726444
0.00737265
0.00736327
0.0103705
0.0104059
0.0136853
0.0138392
0.01638
0.0163248
0.017606
0.0177944
0.0178708
0.0177923
0.0175365
0.0180089
0.0183648
0.0185883
0.0173275
0.0179962
0.0185438
0.0163811
0.0173616
0.0182239
0.0190205
0.0182493
0.0159754
0.0153583
0.0165312
0.0170593
0.0157911
0.0122774
0.015129
0.0161481
0.0164223
0.0153206
0.0138944
0.00967932
0.00896745
0.0121851
0.0119427
0.000136196
0.00294734
0.00120433
0.00793614
0.00650946
0.000177757
0.000142871
0.000113428
0.000110762
0.000118675
0.000131554
0.000151608
0.00019447
0.000277459
0.000351076
0.000356472
0.000322524
0.000249113
0.000194797
0.000159619
0.00013099
0.000110191
9.89374e-05
9.43701e-05
9.53766e-05
0.000100632
0.000111909
0.000134754
0.000233475
0.000886642
0.00333462
0.00662191
0.00741911
0.00682341
0.00652279
0.00595466
0.00645602
0.00534976
0.00571159
0.0058929
0.00603917
0.00566508
0.00576623
0.0070641
0.00705028
0.00720649
0.00713277
0.010232
0.0101108
0.0103805
0.0103269
0.0138428
0.0138006
0.0161524
0.0159008
0.0176754
0.0174186
0.017091
0.0186456
0.0185752
0.0184087
0.0181593
0.0189558
0.019198
0.019253
0.0191639
0.0188804
0.0193815
0.0196814
0.0180662
0.0189674
0.0196381
0.0202754
0.0197192
0.0176498
0.0169971
0.0181531
0.0186829
0.0173819
0.0139348
0.0166359
0.0176852
0.0179035
0.0167868
0.01544
0.0115156
0.0108425
0.013867
0.0136642
0.000183092
0.00459642
0.00258576
0.00986725
0.00865818
0.000189802
0.000142007
0.000118771
0.000120272
0.000131587
0.000149337
0.000185193
0.000259398
0.000344345
0.000365979
0.000339069
0.00026942
0.000207847
0.000169629
0.000139506
0.000115847
0.0001016
9.49779e-05
9.50322e-05
9.96766e-05
0.000111442
0.000134495
0.000238254
0.00100357
0.00431241
0.00824156
0.00856037
0.00766898
0.00732019
0.00815767
0.00868119
0.00687172
0.00735414
0.00623647
0.00651268
0.0072705
0.00748423
0.00707154
0.00713494
0.00976414
0.00972447
0.00999497
0.00987285
0.0135075
0.0133826
0.0137215
0.0136207
0.0156664
0.0155199
0.016432
0.0159144
0.0178439
0.0174842
0.0154485
0.0161125
0.0189864
0.0187005
0.0183197
0.0178524
0.0197602
0.0196755
0.019461
0.0191134
0.0200448
0.0201805
0.0201167
0.0195868
0.0203165
0.0205181
0.0208432
0.0207518
0.0192112
0.0185626
0.0196479
0.0201169
0.0188917
0.0154851
0.0180586
0.0191278
0.0192745
0.0181454
0.0168748
0.0132856
0.0127113
0.0154321
0.0152571
0.000736162
0.007317
0.00653207
0.0120242
0.0114762
0.000198747
0.000141136
0.0001259
0.000132394
0.000148759
0.000178415
0.000243831
0.000332646
0.000375029
0.000354908
0.000293046
0.000223343
0.000180548
0.000149479
0.000123293
0.000105811
9.67576e-05
9.51113e-05
9.8724e-05
0.000109701
0.000132059
0.000227866
0.000996366
0.00464849
0.00925997
0.00921024
0.00814963
0.00865431
0.0120663
0.0109431
0.0126841
0.0091121
0.00999594
0.00784028
0.00841891
0.00998058
0.0103373
0.00973831
0.00980773
0.013091
0.0130983
0.0132667
0.0131578
0.0153262
0.0152896
0.0154248
0.0153687
0.0154851
0.0152811
0.0149297
0.0143863
0.0136948
0.0140084
0.0173244
0.0167263
0.0142673
0.0149417
0.0186445
0.0181103
0.017529
0.0169253
0.0198708
0.0194496
0.0189071
0.0183131
0.0205054
0.0202521
0.0197737
0.0208002
0.0210799
0.0206401
0.0205727
0.0210278
0.0205558
0.0199896
0.0209033
0.0211515
0.0202399
0.0168948
0.0193521
0.0203888
0.0204529
0.0193579
0.0181744
0.0149506
0.0145331
0.016819
0.0166348
0.0168764
0.0121583
0.0177944
0.0141413
0.0143268
0.000200337
0.000142297
0.000135804
0.000148963
0.000174971
0.000230302
0.000319731
0.000379202
0.0003692
0.000317931
0.000242097
0.000193046
0.000160751
0.000132502
0.000112294
0.000100531
9.60459e-05
9.83654e-05
0.000108438
0.000128631
0.000195175
0.000869527
0.0045458
0.00981145
0.00965378
0.00842142
0.00952298
0.012093
0.0150585
0.0147529
0.0145881
0.0150946
0.012785
0.0138014
0.010975
0.0118207
0.0136869
0.0141729
0.0131673
0.0133547
0.0153143
0.0154032
0.0152694
0.0152784
0.015163
0.0152076
0.0151619
0.0151437
0.0125089
0.0122502
0.0136266
0.0130198
0.0121182
0.0125102
0.016291
0.0156232
0.0137478
0.0144304
0.01772
0.0171757
0.0166861
0.0161945
0.0191584
0.0185087
0.017909
0.0174467
0.0201362
0.0194527
0.0187301
0.0213032
0.0210328
0.0198439
0.0194745
0.0203556
0.0213922
0.0211427
0.0215233
0.0214134
0.0212703
0.0181189
0.0204448
0.0213086
0.021286
0.0203447
0.019284
0.0163457
0.0159704
0.0179496
0.017671
0.0323474
0.0165912
0.0283777
0.0156262
0.0159227
0.000195503
0.000146689
0.000150588
0.000173593
0.000221486
0.000305319
0.000379477
0.00038337
0.000342185
0.000263482
0.000206993
0.000173376
0.000144496
0.000120623
0.000106687
9.95504e-05
9.90461e-05
0.000107921
0.000126301
0.000169336
0.000614669
0.00399887
0.00994387
0.0100547
0.00860458
0.00962314
0.0116609
0.0130367
0.0151612
0.0134814
0.0160411
0.0158253
0.0157429
0.0160229
0.0147488
0.0152846
0.016035
0.0163032
0.0155671
0.0157859
0.015606
0.0158127
0.0152967
0.0154292
0.0119317
0.0120303
0.0120233
0.0119402
0.010623
0.0100626
0.0097506
0.00941778
0.013048
0.0123435
0.0110682
0.0116665
0.0156687
0.0150772
0.0139451
0.0146503
0.0171099
0.0167959
0.01648
0.0161371
0.0180828
0.0176283
0.0173682
0.0172006
0.0190273
0.0182864
0.0177421
0.0209415
0.0201192
0.018599
0.0182335
0.019116
0.0214484
0.0215885
0.0214295
0.020846
0.0216059
0.0190826
0.0211874
0.0215754
0.0214904
0.0209532
0.0201021
0.0172848
0.016729
0.0187472
0.0183051
0.0275138
0.0181573
0.0301972
0.0160316
0.0160887
0.000188177
0.000156887
0.000174075
0.000214872
0.00029408
0.000378458
0.000400758
0.0003654
0.000288589
0.000223602
0.000186536
0.000158097
0.000133758
0.000115722
0.000106579
0.000102656
0.000108414
0.000125579
0.000155494
0.000405108
0.00289307
0.00977476
0.0104662
0.00871948
0.00955686
0.011006
0.0100275
0.0074289
0.00554897
0.0120857
0.00977152
0.0153077
0.0138613
0.016536
0.0161734
0.0165574
0.0166296
0.0162771
0.0162473
0.0160269
0.0161919
0.0130043
0.0133412
0.0122743
0.012623
0.00696696
0.00686246
0.00819979
0.00744057
0.0100578
0.00939462
0.00881259
0.0083203
0.0131545
0.0123244
0.0107464
0.0115104
0.015734
0.0152475
0.0151357
0.0159211
0.0171347
0.0171436
0.0171571
0.0170922
0.0174609
0.0173833
0.0174363
0.017685
0.0179083
0.0175025
0.0173814
0.0198905
0.0188192
0.0176113
0.0174269
0.0179608
0.0207778
0.0214214
0.0207528
0.0197077
0.0214299
0.0197114
0.0213005
0.0213919
0.0212922
0.0209929
0.0205453
0.017684
0.0167542
0.0192012
0.0185507
0.0101101
0.0180858
0.021695
0.0157507
0.0158672
0.000186063
0.000177194
0.000213571
0.000283201
0.000375602
0.000417773
0.000389162
0.000318427
0.000243271
0.000202055
0.000175218
0.000149654
0.000131072
0.000117039
0.000110512
0.000112343
0.000126531
0.000150837
0.000271676
0.00183373
0.00891414
0.0108856
0.00873764
0.00940002
0.0105629
0.00849862
0.00267048
0.00274156
0.00165317
0.00628368
0.00411002
0.0111513
0.00879188
0.0144803
0.0130478
0.0160378
0.0154761
0.0135054
0.0130829
0.0135775
0.0136327
0.00792353
0.00821299
0.00702946
0.00747248
0.00425613
0.00337562
0.00724487
0.00648516
0.00522487
0.00594479
0.0102082
0.00934644
0.00858336
0.00788906
0.0142001
0.0131804
0.0111471
0.0121465
0.016896
0.0165122
0.0167212
0.0176552
0.0180384
0.0184125
0.0187158
0.0188086
0.0174298
0.0177404
0.0182272
0.0188289
0.0173408
0.0173063
0.0175091
0.0186351
0.0178029
0.0172363
0.0171874
0.0173365
0.0196428
0.0207783
0.0197105
0.0185948
0.0208112
0.0200047
0.0210738
0.0207715
0.0207471
0.0208514
0.0206252
0.0176763
0.0164588
0.01936
0.0185937
0.0153963
0.017905
0.0213404
0.0154579