/*--------------------------------*- C++ -*----------------------------------*\
  =========                 |
  \\      /  F ield         | OpenFOAM: The Open Source CFD Toolbox
   \\    /   O peration     | Website:  https://openfoam.org
    \\  /    A nd           | Version:  dev
     \\/     M anipulation  |
\*---------------------------------------------------------------------------*/
FoamFile
{
    version     2.0;
    format      ascii;
    class       volScalarField;
    location    "2500";
    object      N2;
}
// * * * * * * * * * * * * * * * * * * * * * * * * * * * * * * * * * * * * * //

dimensions      [0 0 0 0 0 0 0];

internalField   nonuniform List<scalar> 
9729
(
0.76699
0.76699
0.76699
0.76699
0.76699
0.76699
0.76699
0.76699
0.76699
0.76699
0.76699
0.76699
0.76699
0.76699
0.76699
0.76699
0.76699
0.76699
0.76699
0.76699
0.76699
0.76699
0.76699
0.76699
0.76699
0.76699
0.76699
0.76699
0.76699
0.76699
0.76699
0.76699
0.76699
0.76699
0.76699
0.76699
0.76699
0.76699
0.76699
0.76699
0.76699
0.76699
0.76699
0.76699
0.76699
0.76699
0.76699
0.76699
0.76699
0.76699
0.76699
0.76699
0.76699
0.76699
0.76699
0.76699
0.76699
0.76699
0.76699
0.76699
0.76699
0.76699
0.76699
0.76699
0.76699
0.76699
0.76699
0.76699
0.76699
0.76699
0.76699
0.76699
0.76699
0.76699
0.76699
0.76699
0.76699
0.76699
0.76699
0.76699
0.76699
0.76699
0.76699
0.76699
0.76699
0.76699
0.76699
0.76699
0.76699
0.76699
0.76699
0.76699
0.76699
0.76699
0.76699
0.76699
0.76699
0.76699
0.76699
0.76699
0.76699
0.76699
0.76699
0.76699
0.76699
0.76699
0.76699
0.76699
0.76699
0.76699
0.76699
0.76699
0.76699
0.76699
0.76699
0.76699
0.76699
0.76699
0.76699
0.76699
0.76699
0.76699
0.76699
0.76699
0.76699
0.76699
0.76699
0.76699
0.76699
0.76699
0.76699
0.76699
0.76699
0.76699
0.76699
0.76699
0.76699
0.76699
0.76699
0.76699
0.76699
0.76699
0.76699
0.76699
0.76699
0.76699
0.76699
0.76699
0.76699
0.76699
0.76699
0.76699
0.76699
0.76699
0.76699
0.76699
0.76699
0.76699
0.76699
0.76699
0.76699
0.76699
0.76699
0.76699
0.76699
0.76699
0.76699
0.76699
0.76699
0.76699
0.76699
0.76699
0.76699
0.76699
0.76699
0.76699
0.76699
0.76699
0.76699
0.76699
0.76699
0.76699
0.76699
0.76699
0.76699
0.76699
0.76699
0.76699
0.76699
0.76699
0.76699
0.76699
0.76699
0.76699
0.76699
0.76699
0.76699
0.76699
0.76699
0.76699
0.76699
0.76699
0.76699
0.76699
0.76699
0.76699
0.76699
0.76699
0.76699
0.76699
0.76699
0.76699
0.76699
0.76699
0.76699
0.76699
0.76699
0.76699
0.76699
0.76699
0.76699
0.76699
0.76699
0.76699
0.76699
0.76699
0.76699
0.76699
0.76699
0.76699
0.76699
0.76699
0.76699
0.76699
0.76699
0.76699
0.76699
0.76699
0.76699
0.76699
0.76699
0.76699
0.76699
0.76699
0.76699
0.76699
0.76699
0.76699
0.76699
0.76699
0.76699
0.76699
0.76699
0.76699
0.76699
0.76699
0.76699
0.76699
0.76699
0.76699
0.76699
0.76699
0.76699
0.76699
0.76699
0.76699
0.76699
0.76699
0.76699
0.76699
0.76699
0.76699
0.76699
0.76699
0.76699
0.76699
0.76699
0.76699
0.76699
0.76699
0.76699
0.76699
0.76699
0.76699
0.76699
0.76699
0.76699
0.76699
0.76699
0.76699
0.76699
0.76699
0.76699
0.76699
0.76699
0.76699
0.76699
0.76699
0.76699
0.76699
0.76699
0.76699
0.76699
0.76699
0.76699
0.76699
0.76699
0.76699
0.76699
0.76699
0.76699
0.76699
0.76699
0.76699
0.76699
0.76699
0.76699
0.76699
0.76699
0.76699
0.76699
0.76699
0.76699
0.76699
0.76699
0.76699
0.76699
0.76699
0.76699
0.76699
0.76699
0.76699
0.76699
0.76699
0.76699
0.76699
0.76699
0.76699
0.76699
0.76699
0.76699
0.76699
0.76699
0.76699
0.76699
0.76699
0.76699
0.76699
0.76699
0.76699
0.76699
0.76699
0.76699
0.76699
0.76699
0.76699
0.76699
0.76699
0.76699
0.76699
0.76699
0.76699
0.76699
0.76699
0.76699
0.76699
0.76699
0.76699
0.76699
0.76699
0.76699
0.76699
0.76699
0.76699
0.76699
0.76699
0.76699
0.76699
0.76699
0.76699
0.76699
0.76699
0.76699
0.76699
0.76699
0.76699
0.76699
0.76699
0.76699
0.76699
0.76699
0.76699
0.76699
0.76699
0.76699
0.76699
0.76699
0.76699
0.76699
0.76699
0.76699
0.76699
0.76699
0.76699
0.76699
0.76699
0.76699
0.76699
0.76699
0.76699
0.76699
0.76699
0.76699
0.76699
0.76699
0.76699
0.76699
0.76699
0.76699
0.76699
0.76699
0.76699
0.76699
0.76699
0.76699
0.76699
0.76699
0.76699
0.76699
0.76699
0.76699
0.76699
0.76699
0.76699
0.76699
0.76699
0.76699
0.76699
0.76699
0.76699
0.76699
0.76699
0.76699
0.76699
0.76699
0.76699
0.76699
0.76699
0.76699
0.76699
0.76699
0.76699
0.76699
0.76699
0.76699
0.76699
0.76699
0.76699
0.76699
0.76699
0.76699
0.76699
0.76699
0.76699
0.76699
0.76699
0.76699
0.76699
0.76699
0.76699
0.76699
0.76699
0.76699
0.76699
0.76699
0.76699
0.76699
0.76699
0.76699
0.76699
0.76699
0.76699
0.76699
0.76699
0.76699
0.76699
0.76699
0.76699
0.76699
0.76699
0.76699
0.76699
0.76699
0.76699
0.76699
0.76699
0.76699
0.76699
0.76699
0.76699
0.76699
0.76699
0.76699
0.76699
0.76699
0.76699
0.76699
0.76699
0.76699
0.76699
0.76699
0.76699
0.76699
0.76699
0.76699
0.76699
0.76699
0.76699
0.76699
0.76699
0.76699
0.76699
0.76699
0.76699
0.76699
0.76699
0.76699
0.76699
0.76699
0.76699
0.76699
0.76699
0.76699
0.76699
0.76699
0.76699
0.76699
0.76699
0.76699
0.76699
0.76699
0.76699
0.76699
0.76699
0.76699
0.76699
0.76699
0.76699
0.76699
0.76699
0.76699
0.76699
0.76699
0.76699
0.76699
0.76699
0.76699
0.76699
0.76699
0.76699
0.76699
0.76699
0.76699
0.76699
0.76699
0.76699
0.76699
0.76699
0.76699
0.76699
0.76699
0.76699
0.76699
0.76699
0.76699
0.76699
0.76699
0.76699
0.76699
0.76699
0.76699
0.76699
0.76699
0.76699
0.76699
0.76699
0.76699
0.76699
0.76699
0.76699
0.76699
0.76699
0.76699
0.76699
0.76699
0.76699
0.76699
0.76699
0.76699
0.76699
0.76699
0.76699
0.76699
0.76699
0.76699
0.76699
0.76699
0.76699
0.76699
0.76699
0.76699
0.76699
0.76699
0.76699
0.76699
0.76699
0.76699
0.76699
0.76699
0.76699
0.76699
0.76699
0.76699
0.76699
0.76699
0.76699
0.76699
0.76699
0.76699
0.76699
0.76699
0.76699
0.76699
0.76699
0.76699
0.76699
0.76699
0.76699
0.76699
0.76699
0.76699
0.76699
0.76699
0.76699
0.76699
0.76699
0.76699
0.76699
0.76699
0.76699
0.76699
0.76699
0.76699
0.76699
0.76699
0.76699
0.76699
0.76699
0.76699
0.76699
0.76699
0.76699
0.76699
0.76699
0.76699
0.76699
0.76699
0.76699
0.76699
0.76699
0.76699
0.76699
0.76699
0.76699
0.76699
0.76699
0.76699
0.76699
0.76699
0.76699
0.76699
0.76699
0.76699
0.76699
0.76699
0.76699
0.76699
0.76699
0.76699
0.76699
0.76699
0.76699
0.76699
0.76699
0.76699
0.76699
0.76699
0.76699
0.76699
0.76699
0.76699
0.76699
0.76699
0.76699
0.76699
0.76699
0.76699
0.76699
0.76699
0.76699
0.76699
0.76699
0.76699
0.76699
0.76699
0.76699
0.76699
0.76699
0.76699
0.76699
0.76699
0.76699
0.76699
0.76699
0.76699
0.76699
0.76699
0.76699
0.76699
0.76699
0.76699
0.76699
0.76699
0.76699
0.76699
0.76699
0.76699
0.76699
0.76699
0.76699
0.76699
0.76699
0.76699
0.76699
0.76699
0.76699
0.76699
0.76699
0.76699
0.76699
0.76699
0.76699
0.76699
0.76699
0.76699
0.76699
0.76699
0.76699
0.76699
0.76699
0.76699
0.76699
0.76699
0.76699
0.76699
0.76699
0.76699
0.76699
0.76699
0.76699
0.76699
0.76699
0.76699
0.76699
0.76699
0.76699
0.76699
0.76699
0.76699
0.76699
0.76699
0.76699
0.76699
0.76699
0.76699
0.76699
0.76699
0.76699
0.76699
0.76699
0.76699
0.76699
0.76699
0.76699
0.76699
0.76699
0.76699
0.76699
0.76699
0.76699
0.76699
0.76699
0.76699
0.76699
0.76699
0.76699
0.76699
0.76699
0.76699
0.76699
0.76699
0.76699
0.76699
0.76699
0.76699
0.76699
0.76699
0.76699
0.76699
0.76699
0.76699
0.76699
0.76699
0.76699
0.76699
0.76699
0.76699
0.76699
0.76699
0.76699
0.76699
0.76699
0.76699
0.76699
0.76699
0.76699
0.76699
0.76699
0.76699
0.76699
0.76699
0.76699
0.76699
0.76699
0.76699
0.76699
0.76699
0.76699
0.76699
0.76699
0.76699
0.76699
0.76699
0.76699
0.76699
0.76699
0.76699
0.76699
0.76699
0.76699
0.76699
0.76699
0.76699
0.76699
0.76699
0.76699
0.76699
0.76699
0.76699
0.76699
0.76699
0.76699
0.76699
0.76699
0.76699
0.76699
0.76699
0.76699
0.76699
0.76699
0.76699
0.76699
0.76699
0.76699
0.76699
0.76699
0.76699
0.76699
0.76699
0.76699
0.76699
0.76699
0.76699
0.76699
0.76699
0.76699
0.76699
0.76699
0.76699
0.76699
0.76699
0.76699
0.76699
0.76699
0.76699
0.76699
0.76699
0.76699
0.76699
0.76699
0.76699
0.76699
0.76699
0.76699
0.76699
0.76699
0.76699
0.76699
0.76699
0.76699
0.76699
0.76699
0.76699
0.76699
0.76699
0.76699
0.76699
0.76699
0.76699
0.76699
0.76699
0.76699
0.76699
0.76699
0.76699
0.76699
0.76699
0.76699
0.76699
0.76699
0.76699
0.76699
0.76699
0.76699
0.76699
0.76699
0.76699
0.76699
0.76699
0.76699
0.76699
0.76699
0.76699
0.76699
0.76699
0.76699
0.76699
0.76699
0.76699
0.76699
0.76699
0.76699
0.76699
0.76699
0.76699
0.76699
0.76699
0.76699
0.76699
0.76699
0.76699
0.76699
0.76699
0.76699
0.76699
0.76699
0.76699
0.76699
0.76699
0.76699
0.76699
0.76699
0.76699
0.76699
0.76699
0.76699
0.76699
0.76699
0.76699
0.76699
0.76699
0.76699
0.76699
0.76699
0.76699
0.76699
0.76699
0.76699
0.76699
0.76699
0.76699
0.76699
0.76699
0.76699
0.76699
0.76699
0.76699
0.76699
0.76699
0.76699
0.76699
0.76699
0.76699
0.76699
0.76699
0.76699
0.76699
0.76699
0.76699
0.76699
0.76699
0.76699
0.76699
0.76699
0.76699
0.76699
0.76699
0.76699
0.76699
0.76699
0.76699
0.76699
0.76699
0.76699
0.76699
0.76699
0.76699
0.76699
0.76699
0.76699
0.76699
0.76699
0.76699
0.76699
0.76699
0.76699
0.76699
0.76699
0.76699
0.76699
0.76699
0.76699
0.76699
0.76699
0.76699
0.76699
0.76699
0.76699
0.76699
0.76699
0.76699
0.76699
0.76699
0.76699
0.76699
0.76699
0.76699
0.76699
0.76699
0.76699
0.76699
0.76699
0.76699
0.76699
0.76699
0.76699
0.76699
0.76699
0.76699
0.76699
0.76699
0.76699
0.76699
0.76699
0.76699
0.76699
0.76699
0.76699
0.76699
0.76699
0.76699
0.76699
0.76699
0.76699
0.76699
0.76699
0.76699
0.76699
0.76699
0.76699
0.76699
0.76699
0.76699
0.76699
0.76699
0.76699
0.76699
0.76699
0.76699
0.76699
0.76699
0.76699
0.76699
0.76699
0.76699
0.76699
0.76699
0.76699
0.76699
0.76699
0.76699
0.76699
0.76699
0.76699
0.76699
0.76699
0.76699
0.76699
0.76699
0.76699
0.76699
0.76699
0.76699
0.76699
0.76699
0.76699
0.76699
0.76699
0.76699
0.76699
0.76699
0.76699
0.76699
0.76699
0.76699
0.76699
0.76699
0.76699
0.76699
0.76699
0.76699
0.76699
0.76699
0.76699
0.76699
0.76699
0.76699
0.76699
0.76699
0.76699
0.76699
0.76699
0.76699
0.76699
0.76699
0.76699
0.76699
0.76699
0.76699
0.76699
0.76699
0.76699
0.76699
0.76699
0.76699
0.76699
0.76699
0.76699
0.76699
0.76699
0.76699
0.76699
0.76699
0.76699
0.76699
0.76699
0.76699
0.76699
0.76699
0.76699
0.76699
0.76699
0.76699
0.76699
0.76699
0.76699
0.76699
0.76699
0.76699
0.76699
0.76699
0.76699
0.76699
0.76699
0.76699
0.76699
0.76699
0.76699
0.76699
0.76699
0.76699
0.76699
0.76699
0.76699
0.76699
0.76699
0.76699
0.76699
0.76699
0.76699
0.76699
0.76699
0.76699
0.76699
0.76699
0.76699
0.76699
0.76699
0.76699
0.76699
0.76699
0.766989
0.76699
0.766989
0.76699
0.766989
0.76699
0.76699
0.766989
0.766989
0.76699
0.76699
0.76699
0.76699
0.76699
0.76699
0.76699
0.76699
0.76699
0.76699
0.76699
0.76699
0.76699
0.76699
0.76699
0.76699
0.76699
0.76699
0.76699
0.76699
0.76699
0.76699
0.76699
0.76699
0.76699
0.76699
0.76699
0.76699
0.76699
0.76699
0.76699
0.76699
0.76699
0.76699
0.76699
0.76699
0.76699
0.76699
0.76699
0.76699
0.76699
0.76699
0.76699
0.76699
0.76699
0.76699
0.76699
0.76699
0.76699
0.766989
0.766989
0.766988
0.766986
0.766987
0.766983
0.766987
0.766982
0.766988
0.766984
0.766987
0.766989
0.766985
0.766984
0.76699
0.766989
0.76699
0.76699
0.76699
0.76699
0.76699
0.76699
0.76699
0.76699
0.76699
0.76699
0.76699
0.76699
0.76699
0.76699
0.76699
0.76699
0.76699
0.76699
0.76699
0.76699
0.76699
0.76699
0.76699
0.76699
0.76699
0.76699
0.76699
0.76699
0.76699
0.76699
0.76699
0.76699
0.76699
0.76699
0.76699
0.76699
0.76699
0.76699
0.76699
0.76699
0.76699
0.76699
0.76699
0.76699
0.76699
0.76699
0.766988
0.766987
0.766983
0.766978
0.766975
0.766963
0.766971
0.766947
0.766972
0.766944
0.766978
0.766953
0.76697
0.766984
0.766962
0.766956
0.76699
0.766985
0.76699
0.76699
0.76699
0.76699
0.76699
0.76699
0.76699
0.76699
0.76699
0.76699
0.76699
0.76699
0.76699
0.76699
0.76699
0.76699
0.76699
0.76699
0.76699
0.76699
0.76699
0.76699
0.76699
0.76699
0.76699
0.76699
0.76699
0.76699
0.76699
0.76699
0.76699
0.76699
0.76699
0.76699
0.76699
0.76699
0.76699
0.76699
0.76699
0.76699
0.76699
0.76699
0.76699
0.76699
0.76699
0.76699
0.766986
0.766986
0.766973
0.766967
0.766945
0.766924
0.766911
0.766865
0.766888
0.766811
0.766896
0.766793
0.766926
0.766826
0.766894
0.766955
0.766864
0.766844
0.766987
0.766962
0.76699
0.766989
0.76699
0.76699
0.76699
0.76699
0.76699
0.76699
0.76699
0.76699
0.76699
0.76699
0.76699
0.76699
0.76699
0.76699
0.76699
0.76699
0.76699
0.76699
0.76699
0.76699
0.76699
0.76699
0.76699
0.76699
0.76699
0.76699
0.76699
0.76699
0.76699
0.76699
0.76699
0.76699
0.76699
0.766989
0.76699
0.766989
0.766989
0.76699
0.76699
0.766989
0.766988
0.766989
0.766989
0.766985
0.766985
0.766961
0.766956
0.766901
0.766878
0.766812
0.766758
0.766723
0.766634
0.766668
0.766538
0.766669
0.766501
0.766742
0.766534
0.766659
0.766844
0.766596
0.766565
0.766974
0.766872
0.76699
0.766984
0.76699
0.76699
0.76699
0.76699
0.76699
0.76699
0.76699
0.76699
0.76699
0.76699
0.76699
0.76699
0.76699
0.76699
0.76699
0.76699
0.76699
0.76699
0.76699
0.76699
0.76699
0.76699
0.76699
0.76699
0.76699
0.76699
0.76699
0.76699
0.76699
0.76699
0.766989
0.766988
0.766986
0.766988
0.766987
0.766987
0.766986
0.766988
0.766987
0.766981
0.76698
0.766984
0.766983
0.766951
0.766947
0.766855
0.766834
0.766707
0.766661
0.766548
0.766472
0.766417
0.766313
0.766341
0.766207
0.766337
0.766167
0.766414
0.766195
0.76632
0.766731
0.766559
0.766262
0.766246
0.766406
0.76692
0.7666
0.766792
0.76661
0.766989
0.766968
0.76699
0.76699
0.76699
0.76699
0.76699
0.76699
0.76699
0.76699
0.76699
0.76699
0.76699
0.76699
0.76699
0.76699
0.76699
0.76699
0.76699
0.76699
0.76699
0.76699
0.76699
0.76699
0.76699
0.76699
0.76699
0.76699
0.76699
0.76699
0.766989
0.766986
0.766982
0.766975
0.766973
0.766964
0.766984
0.766981
0.766974
0.76697
0.766979
0.766976
0.766937
0.766933
0.766944
0.76694
0.766817
0.766804
0.766621
0.766588
0.766408
0.766356
0.766225
0.766154
0.766099
0.766015
0.766028
0.765928
0.766022
0.76589
0.766088
0.765937
0.766017
0.766144
0.76603
0.766416
0.76611
0.765979
0.766009
0.766101
0.766251
0.766881
0.766717
0.766681
0.766436
0.766477
0.76699
0.766816
0.766964
0.76688
0.76699
0.76699
0.76699
0.76699
0.76699
0.76699
0.76699
0.76699
0.76699
0.76699
0.76699
0.76699
0.76699
0.76699
0.76699
0.76699
0.76699
0.76699
0.76699
0.76699
0.76699
0.76699
0.76699
0.76699
0.76699
0.76699
0.766989
0.766986
0.766976
0.76696
0.766943
0.76694
0.766933
0.76694
0.766913
0.766965
0.766954
0.766919
0.766909
0.766929
0.766925
0.766787
0.766784
0.766795
0.76679
0.766564
0.766547
0.766313
0.766282
0.766099
0.76606
0.765953
0.765914
0.765861
0.765822
0.76587
0.765835
0.765807
0.765784
0.765873
0.765815
0.76579
0.765739
0.765772
0.765899
0.765935
0.765848
0.765825
0.765901
0.766264
0.765968
0.765851
0.765873
0.765962
0.766105
0.766601
0.766528
0.766292
0.766335
0.76699
0.766979
0.766946
0.766692
0.766805
0.76699
0.76699
0.76699
0.76699
0.76699
0.76699
0.76699
0.76699
0.76699
0.76699
0.76699
0.76699
0.76699
0.76699
0.76699
0.76699
0.76699
0.76699
0.76699
0.76699
0.76699
0.76699
0.76699
0.76699
0.76699
0.766988
0.766979
0.766945
0.766895
0.76686
0.766812
0.766886
0.76682
0.76685
0.766814
0.766897
0.766876
0.76677
0.766759
0.766782
0.766777
0.76653
0.76653
0.766537
0.766531
0.76626
0.766248
0.766034
0.766018
0.765894
0.765889
0.765809
0.765814
0.765769
0.765762
0.765761
0.765766
0.76576
0.765741
0.765732
0.76577
0.765728
0.765719
0.765684
0.7657
0.765781
0.765813
0.765743
0.765728
0.765782
0.766122
0.765839
0.765756
0.765736
0.765833
0.765968
0.766394
0.766475
0.766152
0.766199
0.766989
0.766973
0.766909
0.766579
0.766712
0.76699
0.76699
0.76699
0.76699
0.76699
0.76699
0.76699
0.76699
0.76699
0.76699
0.76699
0.76699
0.76699
0.76699
0.76699
0.76699
0.76699
0.76699
0.76699
0.76699
0.76699
0.76699
0.76699
0.76699
0.766987
0.766967
0.766894
0.766791
0.766725
0.766681
0.766642
0.766615
0.766772
0.766722
0.76669
0.766649
0.766743
0.766719
0.766529
0.766522
0.766532
0.766532
0.766242
0.766246
0.766242
0.76624
0.766012
0.766012
0.765893
0.765899
0.765825
0.765843
0.765773
0.765784
0.765796
0.76581
0.765732
0.765736
0.765745
0.765757
0.765707
0.765705
0.76571
0.76569
0.765666
0.76568
0.765659
0.765657
0.765691
0.76571
0.765658
0.765656
0.765682
0.765986
0.765722
0.765657
0.765637
0.765716
0.765839
0.766263
0.76635
0.766018
0.766067
0.766989
0.766867
0.766968
0.766465
0.76662
0.76699
0.76699
0.76699
0.76699
0.76699
0.76699
0.76699
0.76699
0.76699
0.76699
0.76699
0.76699
0.76699
0.76699
0.76699
0.76699
0.76699
0.76699
0.76699
0.76699
0.76699
0.76699
0.76699
0.766987
0.766959
0.766848
0.766687
0.76658
0.766487
0.76633
0.766478
0.76635
0.766604
0.766536
0.766461
0.766423
0.76651
0.76649
0.766255
0.766253
0.766251
0.766254
0.766025
0.766031
0.766015
0.766019
0.76591
0.76592
0.765864
0.765886
0.765824
0.765841
0.765875
0.765771
0.765787
0.765805
0.765823
0.765719
0.765732
0.765748
0.765766
0.765684
0.765693
0.765707
0.765638
0.765634
0.765667
0.765655
0.765641
0.765627
0.76563
0.7656
0.765613
0.765604
0.765857
0.765622
0.765581
0.765561
0.765613
0.76572
0.766135
0.766226
0.765889
0.765938
0.766989
0.76683
0.766955
0.766347
0.766512
0.76699
0.76699
0.76699
0.76699
0.76699
0.76699
0.76699
0.76699
0.76699
0.76699
0.76699
0.76699
0.76699
0.76699
0.76699
0.76699
0.76699
0.76699
0.76699
0.76699
0.76699
0.76699
0.766987
0.766956
0.766821
0.7666
0.766433
0.766301
0.766169
0.766096
0.766062
0.766238
0.766158
0.766373
0.766309
0.766207
0.766174
0.766246
0.76623
0.766044
0.766044
0.766037
0.766042
0.765946
0.765952
0.76593
0.765939
0.765908
0.765928
0.765914
0.765953
0.765842
0.765862
0.765909
0.765887
0.765784
0.765802
0.765819
0.765835
0.765725
0.765744
0.765762
0.765778
0.765682
0.765701
0.765721
0.765615
0.765627
0.765675
0.765671
0.765647
0.765592
0.765577
0.765572
0.765598
0.765555
0.765735
0.765543
0.765534
0.765513
0.76553
0.765613
0.766007
0.766094
0.765766
0.765812
0.766982
0.766751
0.766896
0.766203
0.766348
0.76699
0.76699
0.76699
0.76699
0.76699
0.76699
0.76699
0.76699
0.76699
0.76699
0.76699
0.76699
0.76699
0.76699
0.76699
0.76699
0.76699
0.76699
0.76699
0.76699
0.76699
0.766988
0.766958
0.766816
0.766544
0.766318
0.7662
0.766123
0.766055
0.766016
0.766024
0.766049
0.766023
0.76613
0.766085
0.766022
0.766008
0.766041
0.766034
0.765962
0.765963
0.765957
0.76596
0.765974
0.765982
0.765947
0.765962
0.765996
0.766029
0.765932
0.76596
0.766018
0.765986
0.765852
0.76587
0.765883
0.76586
0.765791
0.765802
0.765812
0.765821
0.765739
0.765754
0.765762
0.765765
0.765697
0.765717
0.76573
0.765615
0.765641
0.765693
0.765685
0.765666
0.765583
0.765552
0.765568
0.765606
0.765533
0.765624
0.765492
0.765511
0.765489
0.765473
0.765523
0.765873
0.765947
0.765649
0.765687
0.766846
0.766557
0.766674
0.766029
0.766109
0.76699
0.76699
0.76699
0.76699
0.76699
0.76699
0.76699
0.76699
0.76699
0.76699
0.76699
0.76699
0.76699
0.76699
0.76699
0.76699
0.76699
0.76699
0.76699
0.76699
0.766989
0.766965
0.766822
0.766532
0.766264
0.766165
0.766129
0.766117
0.766149
0.766235
0.76602
0.766072
0.765988
0.765996
0.765995
0.765987
0.765965
0.765968
0.765964
0.765964
0.765992
0.765994
0.765987
0.76599
0.766106
0.766116
0.766062
0.766087
0.766076
0.766152
0.76591
0.765943
0.766019
0.76598
0.76583
0.765844
0.765783
0.765759
0.765761
0.765754
0.765746
0.765741
0.765734
0.765728
0.765711
0.765686
0.765707
0.765709
0.765699
0.765635
0.76566
0.765689
0.765661
0.765669
0.765597
0.765553
0.765586
0.765628
0.765536
0.765525
0.765464
0.765514
0.765488
0.765437
0.765456
0.765736
0.765792
0.765539
0.765566
0.766213
0.766144
0.766006
0.765839
0.765845
0.76699
0.76699
0.76699
0.76699
0.76699
0.76699
0.76699
0.76699
0.76699
0.76699
0.76699
0.76699
0.76699
0.76699
0.76699
0.76699
0.76699
0.76699
0.76699
0.76699
0.766976
0.766849
0.76654
0.766253
0.766159
0.766156
0.766271
0.766538
0.766342
0.766502
0.766144
0.766238
0.766024
0.766073
0.765975
0.765992
0.766017
0.766038
0.765998
0.766005
0.766124
0.766126
0.766121
0.766123
0.76632
0.76634
0.766227
0.766281
0.766026
0.766092
0.766154
0.766219
0.765817
0.765861
0.765969
0.765913
0.76574
0.765745
0.765609
0.765579
0.765657
0.765626
0.765597
0.765575
0.765671
0.76563
0.765579
0.765524
0.765676
0.765643
0.765592
0.765648
0.765647
0.765628
0.765573
0.765624
0.765619
0.765573
0.765606
0.765631
0.765555
0.765446
0.765456
0.765532
0.765502
0.765418
0.765412
0.765602
0.765642
0.765444
0.765455
0.766133
0.76578
0.7657
0.765661
0.765632
0.76699
0.76699
0.76699
0.76699
0.76699
0.76699
0.76699
0.76699
0.76699
0.76699
0.76699
0.76699
0.76699
0.76699
0.76699
0.76699
0.76699
0.76699
0.76699
0.766984
0.766896
0.766574
0.766258
0.766161
0.76621
0.766433
0.766737
0.766804
0.766883
0.766586
0.766711
0.766354
0.766468
0.766173
0.766254
0.766068
0.766112
0.766173
0.766207
0.766134
0.766149
0.766347
0.766348
0.766348
0.766348
0.766537
0.766596
0.766317
0.766438
0.765946
0.766034
0.766121
0.766202
0.765654
0.765712
0.765861
0.765782
0.765564
0.765565
0.765402
0.76536
0.765467
0.765413
0.76537
0.765341
0.765525
0.765449
0.765367
0.765286
0.765573
0.765497
0.765406
0.765623
0.765585
0.765494
0.765412
0.765514
0.765613
0.765589
0.765595
0.765597
0.76557
0.765388
0.765462
0.765546
0.765515
0.765413
0.76538
0.765478
0.765503
0.765369
0.76536
0.766634
0.765562
0.765799
0.765505
0.765476
0.76699
0.76699
0.76699
0.76699
0.76699
0.76699
0.76699
0.76699
0.76699
0.76699
0.76699
0.76699
0.76699
0.76699
0.76699
0.76699
0.76699
0.76699
0.766988
0.766938
0.766656
0.766281
0.766164
0.766245
0.76653
0.76681
0.766947
0.76694
0.766968
0.766825
0.766898
0.766611
0.766725
0.766401
0.7665
0.766254
0.766318
0.766405
0.766447
0.766356
0.766375
0.766622
0.766624
0.76662
0.766623
0.766629
0.766741
0.766249
0.766352
0.766523
0.766438
0.765823
0.765933
0.766043
0.76615
0.76546
0.765534
0.765717
0.76562
0.765331
0.765336
0.765255
0.765187
0.765213
0.765155
0.765116
0.765102
0.765305
0.765202
0.765104
0.765021
0.765394
0.765279
0.765158
0.765546
0.765454
0.765288
0.765183
0.765329
0.765575
0.765577
0.765556
0.765511
0.765558
0.765344
0.765469
0.765535
0.765505
0.765409
0.765359
0.765362
0.76537
0.765311
0.76528
0.766332
0.765485
0.765719
0.765369
0.765364
0.76699
0.76699
0.76699
0.76699
0.76699
0.76699
0.76699
0.76699
0.76699
0.76699
0.76699
0.76699
0.76699
0.76699
0.76699
0.76699
0.76699
0.766989
0.766966
0.766756
0.766341
0.766169
0.766246
0.766547
0.76681
0.766945
0.766986
0.766982
0.766986
0.766952
0.766973
0.766854
0.766914
0.766677
0.766773
0.766505
0.766584
0.766687
0.766733
0.766634
0.766654
0.766854
0.766864
0.766806
0.766839
0.76651
0.766569
0.766667
0.766738
0.766805
0.766194
0.766309
0.766414
0.765711
0.765827
0.76595
0.766073
0.765332
0.765416
0.765603
0.765505
0.765107
0.765135
0.765221
0.765134
0.764958
0.764921
0.764913
0.764928
0.765039
0.764934
0.76485
0.764792
0.765152
0.765015
0.76489
0.7654
0.765252
0.765029
0.764918
0.765086
0.765484
0.76554
0.765467
0.765356
0.765528
0.765306
0.765459
0.765511
0.765476
0.765394
0.765342
0.765256
0.765247
0.765257
0.765206
0.766813
0.765445
0.766025
0.765252
0.765282
0.76699
0.76699
0.76699
0.76699
0.76699
0.76699
0.76699
0.76699
0.76699
0.76699
0.76699
0.76699
0.76699
0.76699
0.76699
0.76699
0.766989
0.766981
0.76685
0.766445
0.766183
0.766238
0.76653
0.766781
0.766922
0.766981
0.76699
0.766989
0.766989
0.766989
0.766985
0.766988
0.766966
0.766979
0.766901
0.766941
0.76679
0.766849
0.766908
0.76693
0.766875
0.766889
0.766948
0.766961
0.766862
0.766918
0.766472
0.766528
0.766626
0.766714
0.766791
0.766129
0.766249
0.766364
0.76567
0.765776
0.765889
0.766008
0.765309
0.765395
0.765572
0.765481
0.764978
0.765049
0.765266
0.765152
0.764766
0.764766
0.7648
0.76486
0.764786
0.764708
0.76466
0.764648
0.764883
0.764758
0.764661
0.765192
0.765009
0.764768
0.764679
0.764831
0.765339
0.765469
0.765354
0.765169
0.765473
0.76527
0.76542
0.765454
0.765407
0.765338
0.765312
0.76516
0.765137
0.765197
0.765126
0.76692
0.765469
0.766328
0.765154
0.765224
0.76699
0.76699
0.76699
0.76699
0.76699
0.76699
0.76699
0.76699
0.76699
0.76699
0.76699
0.766989
0.766989
0.766989
0.766989
0.766989
0.766985
0.766917
0.766571
0.766222
0.766213
0.766479
0.766714
0.766863
0.766965
0.766988
0.76699
0.76699
0.76699
0.76699
0.76699
0.76699
0.766988
0.766989
0.766978
0.766985
0.766951
0.766968
0.766979
0.766983
0.766969
0.766974
0.76696
0.766976
0.766819
0.76688
0.766923
0.766424
0.766488
0.766579
0.766668
0.766749
0.766099
0.766208
0.766317
0.765688
0.765779
0.76588
0.765989
0.765368
0.765455
0.765607
0.765531
0.764944
0.765043
0.765377
0.765233
0.764656
0.764693
0.764756
0.764842
0.764595
0.764565
0.76456
0.764569
0.764647
0.764562
0.764511
0.764975
0.764786
0.764565
0.764505
0.764625
0.765189
0.765377
0.765219
0.764989
0.76537
0.765213
0.765331
0.765329
0.76524
0.765208
0.765224
0.76507
0.765044
0.765114
0.765041
0.76697
0.765564
0.766603
0.765068
0.76519
0.766989
0.76699
0.76699
0.76699
0.76699
0.76699
0.76699
0.76699
0.76699
0.766989
0.766988
0.766986
0.766985
0.766986
0.766987
0.766986
0.766954
0.7667
0.766303
0.766205
0.7664
0.766632
0.766793
0.766932
0.766984
0.76699
0.76699
0.76699
0.76699
0.76699
0.76699
0.76699
0.76699
0.76699
0.766989
0.76699
0.766986
0.766988
0.766988
0.766989
0.766982
0.766986
0.766946
0.766973
0.766786
0.766855
0.76687
0.766916
0.766396
0.766477
0.766557
0.766634
0.766711
0.766105
0.766203
0.766301
0.765766
0.765835
0.765918
0.76601
0.765499
0.765589
0.765708
0.765653
0.764952
0.765088
0.765486
0.765294
0.764606
0.764661
0.764737
0.764835
0.764494
0.764491
0.764505
0.764536
0.764487
0.764451
0.764439
0.764773
0.764574
0.764433
0.764374
0.764444
0.764999
0.765209
0.764948
0.764725
0.765148
0.765095
0.765113
0.76504
0.764938
0.765014
0.765075
0.764986
0.764961
0.765011
0.764954
0.76698
0.765666
0.766663
0.764992
0.765168
0.766989
0.76699
0.76699
0.76699
0.76699
0.76699
0.76699
0.76699
0.766988
0.766984
0.766977
0.766974
0.766975
0.766979
0.766983
0.766968
0.766806
0.766409
0.766212
0.766322
0.766541
0.766714
0.766882
0.766976
0.766989
0.76699
0.76699
0.76699
0.76699
0.76699
0.76699
0.76699
0.76699
0.76699
0.76699
0.76699
0.76699
0.766989
0.76699
0.766988
0.766989
0.766982
0.766986
0.766918
0.766898
0.766947
0.766966
0.766755
0.766815
0.766851
0.766396
0.76649
0.766557
0.766625
0.766692
0.766152
0.766233
0.766314
0.76589
0.76594
0.766004
0.766075
0.765653
0.765759
0.765853
0.765816
0.764959
0.765112
0.765539
0.765317
0.764581
0.764643
0.764722
0.764826
0.764438
0.764449
0.764473
0.764507
0.764395
0.764386
0.764384
0.764495
0.764386
0.764353
0.764331
0.764346
0.764655
0.764877
0.764622
0.764458
0.764794
0.76496
0.764877
0.764756
0.764745
0.764811
0.764908
0.764904
0.764887
0.7649
0.764865
0.766968
0.765659
0.76658
0.764935
0.765123
0.766989
0.76699
0.76699
0.76699
0.76699
0.76699
0.766989
0.766985
0.766972
0.766952
0.766938
0.766941
0.766957
0.766974
0.766968
0.766868
0.766527
0.766239
0.766273
0.766455
0.766633
0.766817
0.766962
0.766988
0.76699
0.76699
0.76699
0.76699
0.76699
0.76699
0.76699
0.76699
0.76699
0.76699
0.76699
0.76699
0.76699
0.766989
0.76699
0.766988
0.766989
0.76698
0.766986
0.766884
0.766914
0.766941
0.766955
0.76697
0.766748
0.766801
0.766844
0.766424
0.76653
0.766581
0.766636
0.766691
0.76624
0.766299
0.76636
0.766051
0.766086
0.766133
0.766184
0.765754
0.765923
0.766024
0.76599
0.764956
0.76512
0.765553
0.765317
0.764554
0.764616
0.764699
0.764805
0.764393
0.764411
0.764435
0.76447
0.764346
0.76434
0.764342
0.764386
0.764344
0.764307
0.764281
0.764305
0.764471
0.764589
0.764498
0.764406
0.76461
0.76484
0.764759
0.764656
0.764706
0.76476
0.764789
0.764835
0.764832
0.764797
0.764771
0.766396
0.76556
0.765985
0.764884
0.765057
0.766989
0.76699
0.76699
0.76699
0.76699
0.766989
0.76698
0.766953
0.76691
0.766883
0.766884
0.766909
0.766946
0.766961
0.76689
0.766628
0.766307
0.766264
0.766385
0.766558
0.766748
0.766937
0.766985
0.76699
0.76699
0.76699
0.76699
0.76699
0.76699
0.76699
0.76699
0.76699
0.76699
0.76699
0.76699
0.76699
0.76699
0.766989
0.76699
0.766988
0.766989
0.766979
0.766985
0.766881
0.76691
0.766937
0.766954
0.766968
0.766752
0.766799
0.766843
0.766481
0.766587
0.766623
0.766664
0.766707
0.766362
0.766398
0.766438
0.766229
0.766258
0.766292
0.766325
0.765796
0.766022
0.766198
0.766148
0.764938
0.765111
0.765521
0.765262
0.764517
0.764578
0.764659
0.764763
0.764358
0.76438
0.764407
0.76444
0.764297
0.764296
0.764309
0.764372
0.764343
0.764274
0.764173
0.764175
0.764459
0.764564
0.764508
0.764413
0.764614
0.764761
0.764713
0.764626
0.764667
0.764709
0.764747
0.764784
0.764786
0.764739
0.764717
0.765719
0.765272
0.765313
0.764842
0.764957
0.766989
0.76699
0.76699
0.76699
0.766988
0.766976
0.766933
0.76687
0.766829
0.766825
0.766851
0.766894
0.766936
0.766888
0.766679
0.766384
0.76627
0.766339
0.766495
0.766684
0.766901
0.766981
0.76699
0.76699
0.76699
0.76699
0.76699
0.76699
0.76699
0.76699
0.76699
0.76699
0.76699
0.76699
0.76699
0.76699
0.76699
0.766989
0.76699
0.766988
0.766989
0.766974
0.766981
0.766985
0.766879
0.766905
0.766933
0.766949
0.766965
0.766764
0.766803
0.766843
0.766554
0.766609
0.766643
0.766682
0.766721
0.766487
0.766505
0.766528
0.766385
0.766414
0.766441
0.766464
0.76579
0.766049
0.766337
0.76624
0.764897
0.765058
0.765386
0.765118
0.764483
0.764535
0.764605
0.764696
0.764346
0.764374
0.764394
0.764425
0.764264
0.764193
0.764224
0.764201
0.764194
0.764184
0.764109
0.764107
0.764244
0.764306
0.764284
0.764226
0.764336
0.764734
0.764674
0.764361
0.764386
0.76467
0.764694
0.764725
0.764754
0.764706
0.764667
0.766406
0.765058
0.765198
0.764802
0.764871
0.766989
0.76699
0.76699
0.766988
0.766972
0.766916
0.766834
0.76678
0.766767
0.766787
0.766828
0.766875
0.766864
0.766681
0.766437
0.766292
0.766323
0.766451
0.766633
0.766858
0.766974
0.766989
0.76699
0.76699
0.76699
0.76699
0.76699
0.76699
0.76699
0.76699
0.76699
0.76699
0.76699
0.76699
0.76699
0.76699
0.76699
0.76699
0.76699
0.766989
0.76699
0.766987
0.766989
0.766973
0.766979
0.766984
0.76687
0.766887
0.766924
0.766936
0.76696
0.766758
0.766803
0.766826
0.766581
0.766562
0.766604
0.766655
0.766709
0.766526
0.766539
0.766559
0.766442
0.76647
0.766493
0.766506
0.765673
0.765995
0.766382
0.766246
0.7648
0.764954
0.765124
0.764936
0.764462