/*--------------------------------*- C++ -*----------------------------------*\
  =========                 |
  \\      /  F ield         | OpenFOAM: The Open Source CFD Toolbox
   \\    /   O peration     | Website:  https://openfoam.org
    \\  /    A nd           | Version:  dev
     \\/     M anipulation  |
\*---------------------------------------------------------------------------*/
FoamFile
{
    version     2.0;
    format      ascii;
    class       volScalarField;
    location    "2500";
    object      nut;
}
// * * * * * * * * * * * * * * * * * * * * * * * * * * * * * * * * * * * * * //

dimensions      [0 2 -1 0 0 0 0];

internalField   nonuniform List<scalar> 
9729
(
0.000128065
0.000131611
0.000125483
0.000120696
0.000158292
0.000112338
0.000111657
0.000166894
0.000150112
0.00010618
0.000107576
0.000160988
0.000171899
0.000129511
0.000104525
0.000104562
0.000145037
0.000184408
0.000159419
0.000117308
0.000103466
0.000102919
0.000129164
0.000183751
0.000180698
0.000136484
0.000112013
0.000102674
0.000102391
0.000119657
0.000175585
0.000192922
0.000162549
0.000122874
0.00010894
0.000102124
0.000102191
0.000112576
0.000157365
0.000199185
0.00018479
0.000139753
0.000116184
0.00010681
0.000101711
0.000102043
0.000108471
0.000137277
0.000196228
0.000198178
0.000161604
0.000126016
0.000112123
0.000105341
0.0001014
0.000101521
0.000105919
0.000126229
0.000185687
0.000207242
0.000185181
0.000140034
0.000118619
0.000109364
0.000104277
0.000101138
0.000100844
0.000104554
0.0001176
0.000165154
0.000210352
0.000201628
0.000158814
0.000127031
0.000114043
0.000107395
0.000103471
0.000100933
0.000100288
0.000103898
0.000112308
0.000143333
0.000206103
0.0002108
0.000181143
0.00013864
0.000119776
0.000110959
0.000105973
0.000102837
0.000100768
9.98759e-05
0.000103438
0.00010914
0.00013176
0.000194287
0.000218257
0.000200927
0.000155064
0.000126722
0.000115225
0.000108731
0.000104857
0.000102337
0.000100632
9.96806e-05
0.000103077
0.000107143
0.000122718
0.000172593
0.000219576
0.000214076
0.000175
0.000136591
0.000119967
0.000111886
0.000107045
0.000103999
0.000101944
0.000100523
9.97933e-05
0.000102514
0.000105778
0.000116758
0.000150875
0.000214685
0.00022072
0.000196112
0.000150347
0.000125944
0.000115411
0.00010951
0.000105731
0.000103322
0.000101612
0.000100431
9.99537e-05
0.000101623
0.000104964
0.000112885
0.00013785
0.000202386
0.000226984
0.000212429
0.000167729
0.000133956
0.000119667
0.000112188
0.000107722
0.000104708
0.000102777
0.000101365
0.000100357
0.000100071
0.000100809
0.000104213
0.000110257
0.000128772
0.000181424
0.000227506
0.000223371
0.00018772
0.000145269
0.000124583
0.00011527
0.000109806
0.000106295
0.000103943
0.000102289
0.000101139
0.000100293
0.000100132
0.000100178
0.000103536
0.000108369
0.000122064
0.000160782
0.000222849
0.000228699
0.000206828
0.000160502
0.000131167
0.000118759
0.000112218
0.000107969
0.000105181
0.000103312
0.000101931
0.000100951
0.000100238
0.000100155
9.97164e-05
0.000102995
0.000106885
0.000117618
0.000144795
0.00021166
0.000233959
0.000221121
0.000177887
0.000140487
0.000123006
0.00011476
0.000109869
0.000106511
0.000104329
0.000102727
0.000101625
0.000100794
0.000100191
0.000100154
9.94292e-05
0.000102539
0.000105744
0.000114407
0.000136014
0.000193127
0.000234521
0.000230385
0.000196871
0.00015296
0.000128251
0.000117817
0.000111859
0.000107999
0.000105372
0.000103565
0.000102275
0.00010137
0.000100657
0.000100149
0.000100143
9.92736e-05
0.000101943
0.000104836
0.000112074
0.000128912
0.000172709
0.00023093
0.000235321
0.000214055
0.000168591
0.000135758
0.000121195
0.000114165
0.000109649
0.000106561
0.000104492
0.000102957
0.000101909
0.000101153
0.000100536
0.000100112
0.000100119
9.91556e-05
0.000101335
0.000104255
0.000110426
0.000123885
0.000154909
0.000221503
0.000239044
0.000227797
0.000185333
0.000146123
0.000125525
0.000116734
0.00011138
0.000107915
0.00010545
0.000103691
0.00010246
0.000101604
0.000100966
0.000100432
0.000100079
0.000100083
9.90676e-05
0.000100895
0.000103818
0.000109228
0.000120581
0.000144736
0.00020593
0.000240172
0.000235552
0.000202834
0.000159348
0.00013149
0.000119564
0.00011341
0.000109275
0.0001065
0.000104522
0.000103064
0.000102048
0.000101348
0.000100808
0.000100337
0.000100049
0.000100049
9.90197e-05
0.0001006
0.000103479
0.000108385
0.000118814
0.000137805
0.000186614
0.00023798
0.00024026
0.000218693
0.000174331
0.000140097
0.000122977
0.000115512
0.000110868
0.000107619
0.000105342
0.000103739
0.000102543
0.000101706
0.000101135
0.000100668
0.000100247
0.000100021
0.000100022
9.89857e-05
0.000100399
0.000103187
0.000107789
0.000117647
0.000132307
0.000169316
0.000230986
0.000242546
0.000232262
0.000190469
0.000150741
0.000127887
0.000118015
0.000112506
0.000108858
0.000106283
0.000104452
0.000103106
0.000102105
0.000101425
0.000100948
0.000100538
0.000100164
9.99942e-05
0.000100001
9.89569e-05
0.000100264
0.000102925
0.000107366
0.00011665
0.00012865
0.000154749
0.000217717
0.000244386
0.000238965
0.000205565
0.000164111
0.00013448
0.000120781
0.000114422
0.000110163
0.000107264
0.000105165
0.000103703
0.000102573
0.000101743
0.000101182
0.000100786
0.00010042
0.000100085
9.99689e-05
9.99828e-05
9.89304e-05
0.000100176
0.000102746
0.000107131
0.000115879
0.000126084
0.000147192
0.000201524
0.000243449
0.000243294
0.000221079
0.000177697
0.000143574
0.00012455
0.000116487
0.00011167
0.000108302
0.000105933
0.000104297
0.00010307
0.000102121
0.000101441
0.000100978
0.000100648
0.000100307
0.00010001
9.99467e-05
9.99644e-05
9.88964e-05
0.000100135
0.000102672
0.000107121
0.000115414
0.000124268
0.000140881
0.000183317
0.000239089
0.000245213
0.000233285
0.000192775
0.000154035
0.000130013
0.000118908
0.000113323
0.000109494
0.000106853
0.000104891
0.000103555
0.000102535
0.000101753
0.000101188
0.000100812
0.000100519
0.000100202
9.994e-05
9.99294e-05
9.99434e-05
9.88561e-05
0.000100174
0.000102697
0.000107251
0.000115077
0.000122914
0.000136049
0.000167777
0.000229083
0.000247659
0.000240662
0.000206491
0.000166519
0.000137009
0.00012197
0.000115081
0.00011081
0.000107792
0.000105557
0.000104036
0.000102934
0.000102102
0.000101452
0.000100984
0.000100669
0.000100398
0.000100099
9.98794e-05
9.99202e-05
9.99159e-05
9.88195e-05
0.000100273
0.000102803
0.000107437
0.000114833
0.000121732
0.000132494
0.000156798
0.000215933
0.000247643
0.000245286
0.000220333
0.000179413
0.000145749
0.00012616
0.000117289
0.000112233
0.000108809
0.000106407
0.000104542
0.000103313
0.000102432
0.000101757
0.000101215
0.000100824
0.000100539
0.000100275
9.99911e-05
9.98321e-05
9.99233e-05
9.98811e-05
9.87919e-05
0.000100425
0.000102961
0.00010778
0.000114827
0.000120778
0.000129765
0.000149923
0.000200064
0.000245826
0.000248121
0.000231455
0.000192628
0.000156007
0.000131561
0.000119659
0.000113861
0.000110054
0.000107285
0.000105152
0.000103692
0.000102723
0.000102042
0.000101487
0.00010103
0.000100697
0.000100429
0.000100151
9.9889e-05
9.98122e-05
9.99414e-05
9.98323e-05
9.8781e-05
0.000100656
0.000103201
0.0001082
0.000114768
0.000120023
0.000127645
0.000144239
0.000184205
0.000240148
0.000249784
0.000241356
0.000205521
0.000167111
0.000138456
0.000122782
0.000115623
0.000111292
0.000108249
0.000105926
0.000104138
0.000102994
0.000102272
0.000101742
0.000101275
0.000100895
0.000100607
0.000100345
0.000100054
9.98291e-05
9.9875e-05
0.00010001
9.9766e-05
9.88268e-05
0.000100967
0.000103546
0.000108669
0.000114664
0.000119418
0.000125898
0.000139592
0.000170842
0.000230202
0.000251357
0.000246256
0.00021657
0.000179232
0.00014664
0.000126981
0.000117757
0.000112711
0.000109297
0.000106778
0.00010473
0.000103315
0.00010246
0.000101932
0.000101515
0.00010114
0.000100822
0.000100567
0.000100298
9.99915e-05
9.98575e-05
0.000100016
0.000100048
0.000100126
9.96939e-05
9.89672e-05
0.000101327
0.000104012
0.000109189
0.000114596
0.000118936
0.000124481
0.000135952
0.00016048
0.00021841
0.000251306
0.000249774
0.000228956
0.000190399
0.000156292
0.000132398
0.000120067
0.000114297
0.000110483
0.000107656
0.000105478
0.000103765
0.000102676
0.000102055
0.000101682
0.000101394
0.000101093
0.000100823
0.000100582
0.000100298
0.000100014
0.00010006
0.000100213
0.000100332
0.000100089
0.000100224
9.96218e-05
9.91868e-05
0.000101672
0.000104611
0.000109728
0.000114539
0.000118507
0.000123242
0.000133027
0.000154128
0.000204831
0.00024947
0.000252268
0.000237976
0.000202243
0.000166384
0.000138987
0.000123417
0.000116003
0.000111719
0.000108656
0.00010629
0.000104385
0.000102995
0.000102175
0.000101754
0.00010155
0.00010137
0.000101138
0.000100927
0.000100707
0.000100418
0.000100106
0.00010023
0.000100434
0.000100254
0.000100525
0.000100403
0.000100617
0.000100131
0.000100364
9.9558e-05
9.94534e-05
0.000101989
0.000105318
0.000110197
0.000114467
0.000118108
0.000122161
0.000130575
0.000148606
0.000190551
0.000244488
0.00025397
0.000246373
0.000212858
0.000176934
0.000146757
0.000127537
0.000118103
0.00011306
0.000109721
0.000107137
0.000105119
0.000103489
0.000102379
0.000101791
0.000101569
0.000101524
0.000101459
0.000101335
0.000101211
0.000101011
0.000100418
0.00010077
0.000100408
0.000100781
0.000100678
0.000100905
0.000100679
0.000101002
0.000100197
0.000100601
9.95025e-05
9.97334e-05
0.000102314
0.000106058
0.000110546
0.000114361
0.000117725
0.000121214
0.000128527
0.000143915
0.000178415
0.00023621
0.000256336
0.000250575
0.000223413
0.000187475
0.000155301
0.00013274
0.000120467
0.000114685
0.000110832
0.000108097
0.000105893
0.000104111
0.00010275
0.000101896
0.000101531
0.000101538
0.000101635
0.000101725
0.000101762
0.000101713
0.000101126
0.000101544
0.000100724
0.000101093
0.00010095
0.000101274
0.000101189
0.000101511
0.000101013
0.000101456
0.000100033
9.82228e-05
9.94595e-05
0.000100029
0.000102676
0.000106787
0.00011083
0.000114243
0.000117344
0.00012039
0.000126871
0.000140081
0.000168009
0.000225989
0.000256546
0.000254555
0.000233901
0.000197656
0.000164506
0.000138838
0.000123822
0.000116332
0.000112162
0.000109093
0.000106733
0.00010482
0.000103265
0.000102156
0.00010155
0.000101493
0.000101673
0.000101979
0.000102292
0.000102433
0.000102043
0.000102603
0.000101482
0.000102035
0.000101311
0.000101677
0.000101556
0.000101405
0.00010193
9.67316e-05
9.35833e-05
8.93747e-05
8.32061e-05
8.21212e-05
9.94308e-05
0.000100337
0.000103087
0.00010744
0.000111063
0.000114125
0.000116957
0.000119617
0.000125507
0.000137104
0.000160279
0.000214523
0.000255481
0.00025744
0.000242654
0.000208018
0.000173962
0.000145843
0.000127749
0.000118409
0.000113432
0.000110176
0.000107674
0.000105574
0.000103894
0.000102578
0.000101723
0.000101485
0.00010165
0.000102112
0.00010274
0.000103258
0.000103125
0.000102574
0.000102701
0.000100198
0.000102121
0.000100439
0.000101919
9.95549e-05
9.80131e-05
8.65618e-05
9.11419e-05
8.31268e-05
7.84968e-05
7.56615e-05
6.98632e-05
6.94729e-05
9.94149e-05
0.000100647
0.000103547
0.000108032
0.000111304
0.000114016
0.000116599
0.000118914
0.000124338
0.000134928
0.000155153
0.000201812
0.000251943
0.000259288
0.000250989
0.000217614
0.000183569
0.00015378
0.000132488
0.000120878
0.000115062
0.000111276
0.000108618
0.000106419
0.000104596
0.000103126
0.000102063
0.000101594
0.00010164
0.000102178
0.000103092
0.000103999
9.99346e-05
9.67094e-05
9.55692e-05
9.1558e-05
9.43424e-05
8.90102e-05
9.37665e-05
8.82126e-05
9.24209e-05
8.69088e-05
8.56237e-05
7.40254e-05
7.89741e-05
7.17027e-05
6.7026e-05
6.51602e-05
5.96214e-05
5.9773e-05
9.94097e-05
0.000100949
0.000104056
0.000108563
0.000111551
0.000113889
0.000116192
0.000118312
0.000123318
0.000133551
0.000150709
0.000189073
0.000244983
0.000262717
0.000255484
0.000227659
0.000193001
0.000162052
0.000138349
0.000124012
0.000116723
0.000112614
0.000109597
0.000107378
0.000105347
0.000103772
0.000102536
0.000101839
0.000101726
0.00010222
0.000103336
0.000104713
9.46549e-05
9.16373e-05
8.85596e-05
8.67139e-05
8.44198e-05
8.13453e-05
8.33295e-05
7.91479e-05
8.13661e-05
7.70707e-05
8.05007e-05
7.58116e-05
7.47844e-05
6.39777e-05
6.89331e-05
6.27251e-05
5.81832e-05
5.69236e-05
5.15827e-05
5.20709e-05
9.94138e-05
0.000101213
0.000104566
0.000108992
0.000111815
0.000113722
0.000115786
0.000117789
0.000122423
0.000132464
0.000146911
0.000178385
0.000235296
0.000263417
0.000260305
0.00023779
0.000202465
0.000170782
0.000144686
0.000127859
0.000118796
0.000113933
0.000110733
0.000108352
0.000106301
0.000104464
0.00010312
0.000102209
0.000101941
0.000102312
0.000103491
0.000105336
9.21517e-05
8.88944e-05
8.43514e-05
8.34996e-05
7.86821e-05
7.74958e-05
7.55813e-05
7.29213e-05
7.36965e-05
7.06812e-05
7.15534e-05
6.83052e-05
7.08254e-05
6.72294e-05
6.59542e-05
5.61676e-05
6.08381e-05
5.54922e-05
5.10019e-05
5.00605e-05
4.51704e-05
4.60105e-05
9.9415e-05
0.000101409
0.000105026
0.000109319
0.000112056
0.000113504
0.00011541
0.000117315
0.000121638
0.000131335
0.000143862
0.00016907
0.00022373
0.000262589
0.000263782
0.000247079
0.000212004
0.000179615
0.000152035
0.000132208
0.000121277
0.000115641
0.000111917
0.000109375
0.00010737
0.000105381
0.000103768
0.000102731
0.000102281
0.000102481
0.000103584
0.000105655
9.2687e-05
8.80088e-05
8.17703e-05
8.22603e-05
7.54961e-05
7.5222e-05
7.09774e-05
6.97656e-05
6.79574e-05
6.57111e-05
6.59042e-05
6.36143e-05
6.38569e-05
6.12469e-05
6.27885e-05
6.00777e-05
5.81829e-05
4.98762e-05
5.40965e-05
4.97722e-05
4.51655e-05
4.46411e-05
4.01545e-05
4.11395e-05
9.93869e-05
0.000101555
0.000105397
0.000109569
0.000112203
0.000113243
0.000115037
0.000116887
0.000120926
0.000130129
0.000141661
0.000162435
0.000211466
0.00025948
0.000265705
0.000256104
0.000221569
0.000188341
0.000159689
0.000137733
0.000124144
0.000117284
0.000113378
0.000110457
0.000108448
0.000106545
0.000104647
0.000103357
0.000102799
0.000102799
0.00010378
0.000104003
9.2936e-05
8.46187e-05
8.16909e-05
8.1619e-05
7.35838e-05
7.4287e-05
6.84001e-05
6.77568e-05
6.40807e-05
6.30078e-05
6.12764e-05
5.95452e-05
5.92796e-05
5.75288e-05
5.73607e-05
5.52633e-05
5.58946e-05
5.40051e-05
5.14396e-05
4.47585e-05
4.81975e-05
4.50917e-05
4.05599e-05
4.02276e-05
3.62647e-05
3.74134e-05
9.93233e-05
0.000101679
0.000105708
0.000109748
0.000112227
0.000112922
0.000114622
0.00011647
0.000120246
0.000128941
0.000139897
0.00015779
0.000199001
0.000252759
0.000269383
0.000261282
0.00023164
0.000197389
0.000167514
0.000143575
0.000127913
0.00011921
0.000114835
0.000111731
0.000109553
0.000107765
0.000105958
0.000104243
0.000103426
0.000103353
0.00010422
0.000106462
8.68311e-05
8.40216e-05
7.83345e-05
7.3552e-05
7.4477e-05
6.6993e-05
6.70799e-05
6.21923e-05
6.15472e-05
5.83824e-05
5.75037e-05
5.5872e-05
5.44782e-05
5.38286e-05
5.26067e-05
5.19809e-05
5.05793e-05
5.00339e-05
4.93219e-05
4.61087e-05
4.08116e-05
4.32282e-05
4.1506e-05
3.67166e-05
3.67063e-05
3.34215e-05
3.48537e-05
9.93066e-05
0.000101889
0.000106038
0.000109834
0.000112112
0.000112513
0.000114122
0.000116007
0.000119584
0.000127785
0.000138285
0.000153667
0.000187447
0.000243318
0.000270453
0.000266697
0.000242015
0.000206457
0.000175978
0.000150029
0.000132003
0.000121611
0.000116386
0.000113112
0.000110757
0.000109076
0.000107375
0.000105631
0.000104186
0.00010392
0.000104799
0.000107102
8.54979e-05
7.83001e-05
7.45913e-05
7.45111e-05
7.62765e-05
6.70873e-05
6.7866e-05
6.11689e-05
6.09748e-05
5.67478e-05
5.6462e-05
5.35897e-05
5.32496e-05
5.15641e-05
5.08491e-05
4.95983e-05
4.99687e-05
4.78804e-05
4.82097e-05
4.54575e-05
4.61673e-05
4.23966e-05
3.80779e-05
3.98258e-05
3.94021e-05
3.35687e-05
3.44792e-05
3.17268e-05
3.27828e-05
9.97153e-05
0.000102522
0.000106488
0.000109922
0.000111841
0.000112028
0.000113532
0.000115445
0.000118887
0.000126663
0.000136705
0.000150196
0.000177888
0.000231893
0.000269646
0.000270428
0.00025264
0.00021589
0.000184121
0.000157279
0.000136811
0.000124398
0.00011789
0.000114575
0.000112063
0.000110447
0.000108813
0.000107295
0.000105708
0.000104734
0.000105321
0.000107621
8.44996e-05
7.59192e-05
7.30044e-05
6.90901e-05
6.98435e-05
6.7946e-05
6.90346e-05
6.18467e-05
6.27188e-05
5.65336e-05
5.62897e-05
5.2882e-05
5.28201e-05
5.15703e-05
5.43581e-05
5.334e-05
6.08129e-05
5.32068e-05
6.94323e-05
5.0925e-05
6.75008e-05
4.54101e-05
5.89595e-05
4.7423e-05
3.68615e-05
4.96303e-05
5.41717e-05
3.1657e-05
3.35902e-05
3.15343e-05
3.1353e-05
0.000101212
0.000103876
0.000107266
0.000110162
0.000111562
0.000111549
0.000112868
0.000114779
0.000118116
0.000125562
0.000135182
0.000147649
0.000170343
0.000219645
0.000266671
0.000272562
0.000261954
0.000226212
0.000192642
0.000164472
0.000142259
0.000127818
0.000119721
0.000115898
0.000113434
0.00011187
0.000110373
0.000109145
0.00010798
0.00010682
0.000106714
0.000108622
8.73211e-05
7.21925e-05
7.05797e-05
6.73439e-05
6.35466e-05
6.47377e-05
6.28531e-05
6.36569e-05
5.64678e-05
5.75113e-05
5.2979e-05
5.3709e-05
5.85803e-05
6.44727e-05
7.72737e-05
8.30271e-05
8.33804e-05
9.05245e-05
8.12402e-05
9.73229e-05
8.10266e-05
9.31988e-05
7.68041e-05
8.69295e-05
8.01302e-05
5.38936e-05
8.20901e-05
8.25798e-05
3.16463e-05
4.6857e-05
3.48901e-05
3.25417e-05
0.000103685
0.000106603
0.00010872
0.000110765
0.00011154
0.000111272
0.000112264
0.000114034
0.000117271
0.000124478
0.000133755
0.000145525
0.000164714
0.000207634
0.000260184
0.000276729
0.00026776
0.000236665
0.000201779
0.000172417
0.000148041
0.000131623
0.000121943
0.000117137
0.000114751
0.000113342
0.00011208
0.000111157
0.000110476
0.000109998
0.000109744
0.00010619
7.73147e-05
6.62941e-05
7.03646e-05
7.2127e-05
6.53009e-05
6.77983e-05
6.26037e-05
6.59016e-05
5.86597e-05
6.11763e-05
5.44968e-05
5.73925e-05
7.14933e-05
7.82865e-05
8.58408e-05
8.88809e-05
0.000102709
0.000117016
0.000120178
0.000146865
0.000126362
0.000166789
0.000115469
0.000167089
9.64858e-05
0.000145588
0.000106989
8.04151e-05
0.000116822
0.000123054
3.88519e-05
7.35108e-05
4.48966e-05
4.08768e-05
0.00011416
0.000113775
0.000113225
0.000112221
0.000111425
0.000112033
0.000113362
0.000116382
0.000123396
0.000132437
0.000143603
0.000160277
0.000196299
0.00025091
0.00027803
0.000274067
0.000247777
0.000210689
0.000180574
0.000154894
0.000135791
0.000124516
0.000118437
0.000115894
0.00011472
0.000113834
0.000113425
0.000113404
0.000113535
0.00011428
9.94525e-05
8.11522e-05
7.3625e-05
6.86472e-05
5.6532e-05
7.41646e-05
8.04246e-05
6.77116e-05
7.08932e-05
7.5695e-05
8.60397e-05
6.15973e-05
6.89391e-05
7.50915e-05
7.34118e-05
9.17872e-05
9.4791e-05
0.000132678
0.000147672
0.000175683
0.000204334
0.00020943
0.000251323
0.000224844
0.000282651
0.000217212
0.000290975
0.00017894
0.000271656
0.000212403
0.000121715
0.000239898
0.000255098
6.30561e-05
0.000108614
7.84938e-05
5.63711e-05
0.000128041
0.000121269
0.000116246
0.000112842
0.000112262
0.000113123
0.000115742
0.000122339
0.000131216
0.000141858
0.000156699
0.000186489
0.000239687
0.000277283
0.000277935
0.000259726
0.000220981
0.000188475
0.000161999
0.000140878
0.000127432
0.000120014
0.000116858
0.000115849
0.000115438
0.000115711
0.000116742
0.000117856
0.000118909
0.000113708
0.000106845
9.77388e-05
9.19622e-05
9.09396e-05
9.15645e-05
8.893e-05
8.69693e-05
9.00299e-05
8.89731e-05
7.81291e-05
8.25559e-05
7.3218e-05
7.56019e-05
9.78732e-05
0.000101846
0.00016279
0.000177859
0.000231717
0.000256592
0.000291042
0.000327405
0.000337849
0.000386616
0.000362208
0.000425307
0.000359676
0.000435505
0.000323341
0.000419494
0.000365183
0.0001819
0.000263532
0.000392548
0.000402504
0.000336056
8.412e-05
0.000244088
0.000151464
0.000240129
5.53767e-05
5.57839e-05
0.000138092
0.000128559
0.000118943
0.000114164
0.000113443
0.000115688
0.000121672
0.000130083
0.000140322
0.000154013
0.000178653
0.000227656
0.00027441
0.000280605
0.000269116
0.000232134
0.000197495
0.000169384
0.000146431
0.000130877
0.000121868
0.000117703
0.000116681
0.000116715
0.000117769
0.000120085
0.000122702
0.000122371
0.00011137
9.64445e-05
9.44275e-05
9.63803e-05
0.000100258
0.000111762
8.71243e-05
8.42558e-05
9.46542e-05
0.000101113
8.63701e-05
9.16662e-05
0.00012212
0.000130176
0.000107245
0.000114443
0.000191446
0.000204018
0.000279935
0.000300485
0.000359155
0.00038601
0.000429423
0.000466498
0.000480334
0.000525312
0.000502408
0.000557158
0.000496792
0.000559387
0.000464253
0.000528702
0.000495371
0.000441608
0.000484977
0.000331614
0.000455778
0.0004996
0.00049025
0.000459285
0.000402433
0.000104175
0.000188659
0.000205121
0.000323823
0.000306834
1.94254e-05
0.000134928
5.74148e-05
0.000103716
0.000146473
0.000135868
0.000121731
0.000115818
0.000116217
0.00012165
0.000129231
0.00013898
0.000151836
0.000172573
0.000215836
0.000268109
0.000285425
0.000275691
0.000243311
0.000206851
0.000177514
0.000152863
0.000134755
0.00012407
0.000118736
0.000117251
0.000117587
0.000119425
0.000123038
0.000127377
0.000124406
0.000104245
0.000101659
0.000116982
0.000140811
0.000152539
0.000160397
0.000146241
0.000194717
0.000106421
0.000122356
0.000158315
0.000175903
0.000137793
0.000146497
0.000236828
0.000247996
0.000215625
0.000226247
0.000317028
0.000331104
0.000409942
0.000428837
0.000496712
0.000522659
0.000564103
0.000597304
0.000603171
0.000640941
0.000576807
0.000599231
0.000619573
0.000638768
0.000556969
0.000583209
0.000614342
0.000626303
0.000605721
0.000539181
0.000520607
0.000551381
0.000568643
0.000527806
0.00039846
0.000502985
0.00053594
0.0005331
0.000503717
0.000458421
0.000252398
0.000285206
0.000389094
0.000374055
6.77087e-06
4.12234e-05
6.87066e-05
0.000210852
0.000154194
0.000154938
0.000142586
0.000124405
0.000118988
0.000122151
0.000129032
0.000137955
0.000150027
0.000168164
0.00020509
0.000258812
0.000287518
0.000282842
0.000255689
0.000216437
0.000185674
0.000160013
0.000139614
0.000126903
0.000120084
0.00011776
0.000118168
0.000120456
0.000125246
0.00013144
0.00012935
0.000120704
0.00015679
0.000209733
0.000280248
0.00034117
0.000233315
0.000313268
0.000264133
0.000302865
0.000198676
0.000229024
0.000287514
0.00030387
0.000259931
0.000272569
0.000359231
0.00036687
0.00034205
0.000351059
0.000442889
0.000453454
0.000544863
0.000561298
0.000623432
0.000648644
0.000670582
0.000692509
0.000655246
0.000669906
0.000681982
0.000691738
0.000635103
0.000652368
0.000666915
0.000592871
0.000613627
0.000643728
0.000646024
0.000631188
0.000576479
0.000556845
0.000580303
0.000598081
0.000559603
0.000453896
0.000536038
0.000560159
0.000558646
0.000534651
0.000501867
0.000351829
0.0003203
0.000445238
0.000431553
3.62365e-06
4.82415e-05
9.24699e-05
0.00027632
0.00021522
0.000164468
0.000147556
0.000127357
0.000124417
0.000129319
0.000137608
0.000148654
0.00016496
0.000196041
0.000248202
0.000286141
0.000287247
0.000268384
0.000228081
0.000194286
0.000167632
0.000145408
0.000130458
0.000121823
0.000118342
0.000118561
0.000121133
0.000126674
0.000132958
0.000138755
0.000166483
0.00026363
0.000406913
0.000468801
0.000466164
0.000418009
0.000466506
0.000340621
0.000388007
0.000366739
0.00039148
0.000322319
0.000343274
0.000390985
0.000400848
0.000374463
0.000382282
0.000469888
0.000472395
0.000460465
0.000465399
0.00057311
0.000580856
0.000666856
0.000679765
0.000707616
0.000709769
0.000699441
0.000704075
0.000706521
0.000704792
0.000678651
0.000687814
0.00069428
0.000697709
0.000658524
0.000670181
0.000678798
0.000616335
0.000631406
0.000657764
0.000629042
0.000643258
0.000599312
0.000580536
0.000597252
0.000614977
0.000578501
0.000497482
0.000555896
0.000574715
0.000569704
0.000552573
0.000531999
0.000411189
0.0003812
0.000490153
0.000478782
2.86703e-06
0.000132976
5.85368e-05
0.000336814
0.000259388
0.000173689
0.000149639
0.000131161
0.00013089
0.000137736
0.000147894
0.000162751
0.000188856
0.000237206
0.000283874
0.000290668
0.000278149
0.000239821
0.000204017
0.000175774
0.00015203
0.000134555
0.000124209
0.000119063
0.000118731
0.000121381
0.000127428
0.000132424
0.00014657
0.000202252
0.000367492
0.000563138
0.00059536
0.000548166
0.000519773
0.000467925
0.000506926
0.000417171
0.000446794
0.000438562
0.000454363
0.000411424
0.000424088
0.000480324
0.00048642
0.000475249
0.000477476
0.000594118
0.000595813
0.000586471
0.000591259
0.000687876
0.000694883
0.000712397
0.000714403
0.000703199
0.000698815
0.000682384
0.000697042
0.000693804
0.000689016
0.000683053
0.000671781
0.000655238
0.000640809
0.000632101
0.00064994
0.000625602
0.000603837
0.000627389
0.000619085
0.00059778
0.000551002
0.000583228
0.000610444
0.000592686
0.000603503
0.000617358
0.000586477
0.000528178
0.000564275
0.000579111
0.000571125
0.000559049
0.000549143
0.000461303
0.000433932
0.000522743
0.000514541
4.34623e-06
0.000143717
8.20735e-05
0.000359909
0.00023048
0.000181547
0.000148807
0.000135925
0.000138672
0.000147843
0.000161047
0.000183764
0.000226689
0.000278782
0.000296432
0.000285874
0.000252122
0.000214029
0.000184448
0.000159372
0.000139636
0.000127297
0.000120231
0.000119131
0.000121238
0.000127959
0.000133613
0.00014985
0.000218098
0.000433874
0.000665986
0.000673783
0.00061617
0.000578439
0.000601043
0.000628028
0.000521655
0.00055341
0.000473297
0.000495552
0.000516102
0.000531469
0.000493292
0.000502787
0.000600847
0.000606133
0.000597607
0.000598942
0.00071165
0.000715966
0.000701001
0.000706599
0.000718132
0.000726624
0.00067726
0.000679549
0.00067679
0.000669079
0.000594314
0.000605045
0.000630247
0.000634158
0.000643322
0.000640112
0.000584983
0.000571703
0.000565266
0.000565042
0.000570235
0.000547653
0.000532068
0.000578977
0.000542399
0.00052409
0.000489968
0.000511733
0.000586188
0.000594901
0.000558366
0.000543981
0.000582299
0.00054581
0.000563204
0.000566249
0.000554756
0.000556002
0.00055467
0.000500906
0.000439651
0.000542238
0.000537282
1.4759e-05
0.000139788
0.000112909
0.000340267
0.000224234
0.000187086
0.00014893
0.000141992
0.000148192
0.000160478
0.000179945
0.000217712
0.000270373
0.00030099
0.000293885
0.000265964
0.000225316
0.000193687
0.000167852
0.000146164
0.00013148
0.000122521
0.00011979
0.000121225
0.000127474
0.000133818
0.000152798
0.000219679
0.000454808
0.000732408
0.00072554
0.0006586
0.000669353
0.000785397
0.000716714
0.000789822
0.0006262
0.000669861
0.000554806
0.000589175
0.000635303
0.000656246
0.000613212
0.000622839
0.00073011
0.000738527
0.000720272
0.000724434
0.000759627
0.000769746
0.000737474
0.000748961
0.000685918
0.000697575
0.000587342
0.000581757
0.000582666
0.000580469
0.000628619
0.000616611
0.000524851
0.000536159
0.000570307
0.000582434
0.000593147
0.000578002
0.000523244
0.000520179
0.000522208
0.00052969
0.000505754
0.000495713
0.000491587
0.000507956
0.000480176
0.000477292
0.00045843
0.000465074
0.000515131
0.000535113
0.00049093
0.000479812
0.000515786
0.000551492
0.000544864
0.000503657
0.000494637
0.00053409
0.000550338
0.000504878
0.000426567
0.000549275
0.000542853
0.000161309
0.000150278
0.000162513
0.000346706
0.000247144
0.000187356
0.000151609
0.000149991
0.000160481
0.000177875
0.000210097
0.000261762
0.000301157
0.00030054
0.000279428
0.000237958
0.000204023
0.000177397
0.000153892
0.000137102
0.000126757
0.000121138
0.000121657
0.000127231
0.00013649
0.000151517
0.000212181
0.000447666
0.000770574
0.000764269
0.000689554
0.000723886
0.000786633
0.000873279
0.000866894
0.000854008
0.000874463
0.000775259
0.000821538
0.000690605
0.000730842
0.000781786
0.000807754
0.000748517
0.000762835
0.000802465
0.000815096
0.00077999
0.00079103
0.000654899
0.00067108
0.000667824
0.000653039
0.000551377
0.000564175
0.000515815
0.000508937
0.000505818
0.000505716
0.000563213
0.00054915
0.000467185
0.000477704
0.000543189
0.000545724
0.00053031
0.000516138
0.000492053
0.000496536
0.000504887
0.000518749
0.00047184
0.000471869
0.000475859
0.000457176
0.000447457
0.000457538
0.000449885
0.000445859
0.000457953
0.000472529
0.000441135
0.000440734
0.00045891
0.000546669
0.000485023
0.000450402
0.000441207
0.0004751
0.000522231
0.000492712
0.000434992
0.000542985
0.000526715
0.000238924
0.000162713
0.000174599
0.000378895
0.000280264
0.000183955
0.000156111
0.000161145
0.000176894
0.000205079
0.000252824
0.000298301
0.000306996
0.000291418
0.000251035
0.000214882
0.000187927
0.00016356
0.000143764
0.000132336
0.000125156
0.000122714
0.000127574
0.00013771
0.000144492
0.000191867
0.000411335
0.000781144
0.000802271
0.000716611
0.000738942
0.000782424
0.000789719
0.000860253
0.000784382
0.000894877
0.000887475
0.000881164
0.0008935
0.000836064
0.000860754
0.000861843
0.000877785
0.000829882
0.000845911
0.000762151
0.000796118
0.000694534
0.000725802
0.000490909
0.000500218
0.000521208
0.000492116
0.000444272
0.000441854
0.000445563
0.000447112
0.000458419
0.000451172
0.000442767
0.000445628
0.000502778
0.000489773
0.000421635
0.000430169
0.000505585
0.00048946
0.000474302
0.000461204
0.000482015
0.00049061
0.00048598
0.00046827
0.000461408
0.000467277
0.000473519
0.00043579
0.00043966
0.000456195
0.000452536
0.000445969
0.000428999
0.000430553
0.000421648
0.000429696
0.000422207
0.000514956
0.000433407
0.000414553
0.000406925
0.000432286
0.000472599
0.000498435
0.000473279
0.000517462
0.000519983
0.000299457
0.000170277
0.000168797
0.000451114
0.000325191
0.000180339
0.000164338
0.000177059
0.000201277
0.000245728
0.000295815
0.000315554
0.000302329
0.000265827
0.000227028
0.000198114
0.00017376
0.00015397
0.000139248
0.000131886
0.0001267
0.000128509
0.000137999
0.000135908
0.000174494
0.000340778
0.000772055
0.000836869
0.000742326
0.000756513
0.000787402
0.000689539
0.000498316
0.00039733
0.000698709
0.000595057
0.000844031
0.000779517
0.000897184
0.000882581
0.000892819
0.000899026
0.000855953
0.000859232
0.000832332
0.000846523
0.000596622
0.000636284
0.000524502
0.000559446
0.000347993
0.000346371
0.000412507
0.000368023
0.000394661
0.000391851
0.000389546
0.000387681
0.000413666
0.000406518
0.000396804
0.000400822
0.000449608
0.000439417
0.000404506
0.000410264
0.000453035
0.00044103
0.000431969
0.000425527
0.000471106
0.000452285
0.00043535
0.000423429
0.000462176
0.000461368
0.000440141
0.00043617
0.000442452
0.000454867
0.000431306
0.000446321
0.000426152
0.000416303
0.000422998
0.000433077
0.00040937
0.00048191
0.000407365
0.000403988
0.00040554
0.000420217
0.00044405
0.000522418
0.000513295
0.000499457