/*--------------------------------*- C++ -*----------------------------------*\
  =========                 |
  \\      /  F ield         | OpenFOAM: The Open Source CFD Toolbox
   \\    /   O peration     | Website:  https://openfoam.org
    \\  /    A nd           | Version:  dev
     \\/     M anipulation  |
\*---------------------------------------------------------------------------*/
FoamFile
{
    version     2.0;
    format      ascii;
    class       volScalarField;
    location    "2500";
    object      O2;
}
// * * * * * * * * * * * * * * * * * * * * * * * * * * * * * * * * * * * * * //

dimensions      [0 0 0 0 0 0 0];

internalField   nonuniform List<scalar> 
9729
(
0.23301
0.23301
0.23301
0.23301
0.23301
0.23301
0.23301
0.23301
0.23301
0.23301
0.23301
0.23301
0.23301
0.23301
0.23301
0.23301
0.23301
0.23301
0.23301
0.23301
0.23301
0.23301
0.23301
0.23301
0.23301
0.23301
0.23301
0.23301
0.23301
0.23301
0.23301
0.23301
0.23301
0.23301
0.23301
0.23301
0.23301
0.23301
0.23301
0.23301
0.23301
0.23301
0.23301
0.23301
0.23301
0.23301
0.23301
0.23301
0.23301
0.23301
0.23301
0.23301
0.23301
0.23301
0.23301
0.23301
0.23301
0.23301
0.23301
0.23301
0.23301
0.23301
0.23301
0.23301
0.23301
0.23301
0.23301
0.23301
0.23301
0.23301
0.23301
0.23301
0.23301
0.23301
0.23301
0.23301
0.23301
0.23301
0.23301
0.23301
0.23301
0.23301
0.23301
0.23301
0.23301
0.23301
0.23301
0.23301
0.23301
0.23301
0.23301
0.23301
0.23301
0.23301
0.23301
0.23301
0.23301
0.23301
0.23301
0.23301
0.23301
0.23301
0.23301
0.23301
0.23301
0.23301
0.23301
0.23301
0.23301
0.23301
0.23301
0.23301
0.23301
0.23301
0.23301
0.23301
0.23301
0.23301
0.23301
0.23301
0.23301
0.23301
0.23301
0.23301
0.23301
0.23301
0.23301
0.23301
0.23301
0.23301
0.23301
0.23301
0.23301
0.23301
0.23301
0.23301
0.23301
0.23301
0.23301
0.23301
0.23301
0.23301
0.23301
0.23301
0.23301
0.23301
0.23301
0.23301
0.23301
0.23301
0.23301
0.23301
0.23301
0.23301
0.23301
0.23301
0.23301
0.23301
0.23301
0.23301
0.23301
0.23301
0.23301
0.23301
0.23301
0.23301
0.23301
0.23301
0.23301
0.23301
0.23301
0.23301
0.23301
0.23301
0.23301
0.23301
0.23301
0.23301
0.23301
0.23301
0.23301
0.23301
0.23301
0.23301
0.23301
0.23301
0.23301
0.23301
0.23301
0.23301
0.23301
0.23301
0.23301
0.23301
0.23301
0.23301
0.23301
0.23301
0.23301
0.23301
0.23301
0.23301
0.23301
0.23301
0.23301
0.23301
0.23301
0.23301
0.23301
0.23301
0.23301
0.23301
0.23301
0.23301
0.23301
0.23301
0.23301
0.23301
0.23301
0.23301
0.23301
0.23301
0.23301
0.23301
0.23301
0.23301
0.23301
0.23301
0.23301
0.23301
0.23301
0.23301
0.23301
0.23301
0.23301
0.23301
0.23301
0.23301
0.23301
0.23301
0.23301
0.23301
0.23301
0.23301
0.23301
0.23301
0.23301
0.23301
0.23301
0.23301
0.23301
0.23301
0.23301
0.23301
0.23301
0.23301
0.23301
0.23301
0.23301
0.23301
0.23301
0.23301
0.23301
0.23301
0.23301
0.23301
0.23301
0.23301
0.23301
0.23301
0.23301
0.23301
0.23301
0.23301
0.23301
0.23301
0.23301
0.23301
0.23301
0.23301
0.23301
0.23301
0.23301
0.23301
0.23301
0.23301
0.23301
0.23301
0.23301
0.23301
0.23301
0.23301
0.23301
0.23301
0.23301
0.23301
0.23301
0.23301
0.23301
0.23301
0.23301
0.23301
0.23301
0.23301
0.23301
0.23301
0.23301
0.23301
0.23301
0.23301
0.23301
0.23301
0.23301
0.23301
0.23301
0.23301
0.23301
0.23301
0.23301
0.23301
0.23301
0.23301
0.23301
0.23301
0.23301
0.23301
0.23301
0.23301
0.23301
0.23301
0.23301
0.23301
0.23301
0.23301
0.23301
0.23301
0.23301
0.23301
0.23301
0.23301
0.23301
0.23301
0.23301
0.23301
0.23301
0.23301
0.23301
0.23301
0.23301
0.23301
0.23301
0.23301
0.23301
0.23301
0.23301
0.23301
0.23301
0.23301
0.23301
0.23301
0.23301
0.23301
0.23301
0.23301
0.23301
0.23301
0.23301
0.23301
0.23301
0.23301
0.23301
0.23301
0.23301
0.23301
0.23301
0.23301
0.23301
0.23301
0.23301
0.23301
0.23301
0.23301
0.23301
0.23301
0.23301
0.23301
0.23301
0.23301
0.23301
0.23301
0.23301
0.23301
0.23301
0.23301
0.23301
0.23301
0.23301
0.23301
0.23301
0.23301
0.23301
0.23301
0.23301
0.23301
0.23301
0.23301
0.23301
0.23301
0.23301
0.23301
0.23301
0.23301
0.23301
0.23301
0.23301
0.23301
0.23301
0.23301
0.23301
0.23301
0.23301
0.23301
0.23301
0.23301
0.23301
0.23301
0.23301
0.23301
0.23301
0.23301
0.23301
0.23301
0.23301
0.23301
0.23301
0.23301
0.23301
0.23301
0.23301
0.23301
0.23301
0.23301
0.23301
0.23301
0.23301
0.23301
0.23301
0.23301
0.23301
0.23301
0.23301
0.23301
0.23301
0.23301
0.23301
0.23301
0.23301
0.23301
0.23301
0.23301
0.23301
0.23301
0.23301
0.23301
0.23301
0.23301
0.23301
0.23301
0.23301
0.23301
0.23301
0.23301
0.23301
0.23301
0.23301
0.23301
0.23301
0.23301
0.23301
0.23301
0.23301
0.23301
0.23301
0.23301
0.23301
0.23301
0.23301
0.23301
0.23301
0.23301
0.23301
0.23301
0.23301
0.23301
0.23301
0.23301
0.23301
0.23301
0.23301
0.23301
0.23301
0.23301
0.23301
0.23301
0.23301
0.23301
0.23301
0.23301
0.23301
0.23301
0.23301
0.23301
0.23301
0.23301
0.23301
0.23301
0.23301
0.23301
0.23301
0.23301
0.23301
0.23301
0.23301
0.23301
0.23301
0.23301
0.23301
0.23301
0.23301
0.23301
0.23301
0.23301
0.23301
0.23301
0.23301
0.23301
0.23301
0.23301
0.23301
0.23301
0.23301
0.23301
0.23301
0.23301
0.23301
0.23301
0.23301
0.23301
0.23301
0.23301
0.23301
0.23301
0.23301
0.23301
0.23301
0.23301
0.23301
0.23301
0.23301
0.23301
0.23301
0.23301
0.23301
0.23301
0.23301
0.23301
0.23301
0.23301
0.23301
0.23301
0.23301
0.23301
0.23301
0.23301
0.23301
0.23301
0.23301
0.23301
0.23301
0.23301
0.23301
0.23301
0.23301
0.23301
0.23301
0.23301
0.23301
0.23301
0.23301
0.23301
0.23301
0.23301
0.23301
0.23301
0.23301
0.23301
0.23301
0.23301
0.23301
0.23301
0.23301
0.23301
0.23301
0.23301
0.23301
0.23301
0.23301
0.23301
0.23301
0.23301
0.23301
0.23301
0.23301
0.23301
0.23301
0.23301
0.23301
0.23301
0.23301
0.23301
0.23301
0.23301
0.23301
0.23301
0.23301
0.23301
0.23301
0.23301
0.23301
0.23301
0.23301
0.23301
0.23301
0.23301
0.23301
0.23301
0.23301
0.23301
0.23301
0.23301
0.23301
0.23301
0.23301
0.23301
0.23301
0.23301
0.23301
0.23301
0.23301
0.23301
0.23301
0.23301
0.23301
0.23301
0.23301
0.23301
0.23301
0.23301
0.23301
0.23301
0.23301
0.23301
0.23301
0.23301
0.23301
0.23301
0.23301
0.23301
0.23301
0.23301
0.23301
0.23301
0.23301
0.23301
0.23301
0.23301
0.23301
0.23301
0.23301
0.23301
0.23301
0.23301
0.23301
0.23301
0.23301
0.23301
0.23301
0.23301
0.23301
0.23301
0.23301
0.23301
0.23301
0.23301
0.23301
0.23301
0.23301
0.23301
0.23301
0.23301
0.23301
0.23301
0.23301
0.23301
0.23301
0.23301
0.23301
0.23301
0.23301
0.23301
0.23301
0.23301
0.23301
0.23301
0.23301
0.23301
0.23301
0.23301
0.23301
0.23301
0.23301
0.23301
0.23301
0.23301
0.23301
0.23301
0.23301
0.23301
0.23301
0.23301
0.23301
0.23301
0.23301
0.23301
0.23301
0.23301
0.23301
0.23301
0.23301
0.23301
0.23301
0.23301
0.23301
0.23301
0.23301
0.23301
0.23301
0.23301
0.23301
0.23301
0.23301
0.23301
0.23301
0.23301
0.23301
0.23301
0.23301
0.23301
0.23301
0.23301
0.23301
0.23301
0.23301
0.23301
0.23301
0.23301
0.23301
0.23301
0.23301
0.23301
0.23301
0.23301
0.23301
0.23301
0.23301
0.23301
0.23301
0.23301
0.23301
0.23301
0.23301
0.23301
0.23301
0.23301
0.23301
0.23301
0.23301
0.23301
0.23301
0.23301
0.23301
0.23301
0.23301
0.23301
0.23301
0.23301
0.23301
0.23301
0.23301
0.23301
0.23301
0.23301
0.23301
0.23301
0.23301
0.23301
0.23301
0.23301
0.23301
0.23301
0.23301
0.23301
0.23301
0.23301
0.23301
0.23301
0.23301
0.23301
0.23301
0.23301
0.23301
0.23301
0.23301
0.23301
0.23301
0.23301
0.23301
0.23301
0.23301
0.23301
0.23301
0.23301
0.23301
0.23301
0.23301
0.23301
0.23301
0.23301
0.23301
0.23301
0.23301
0.23301
0.23301
0.23301
0.23301
0.23301
0.23301
0.23301
0.23301
0.23301
0.23301
0.23301
0.23301
0.23301
0.23301
0.23301
0.23301
0.23301
0.23301
0.23301
0.23301
0.23301
0.23301
0.23301
0.23301
0.23301
0.23301
0.23301
0.23301
0.23301
0.23301
0.23301
0.23301
0.23301
0.23301
0.23301
0.23301
0.23301
0.23301
0.23301
0.23301
0.23301
0.23301
0.23301
0.23301
0.23301
0.23301
0.23301
0.23301
0.23301
0.23301
0.23301
0.23301
0.23301
0.23301
0.23301
0.23301
0.23301
0.23301
0.23301
0.23301
0.23301
0.23301
0.23301
0.23301
0.23301
0.23301
0.23301
0.23301
0.23301
0.23301
0.23301
0.23301
0.23301
0.23301
0.23301
0.23301
0.23301
0.23301
0.23301
0.23301
0.23301
0.23301
0.23301
0.23301
0.23301
0.23301
0.23301
0.23301
0.23301
0.23301
0.23301
0.23301
0.23301
0.23301
0.23301
0.23301
0.23301
0.23301
0.23301
0.23301
0.23301
0.23301
0.23301
0.23301
0.23301
0.23301
0.23301
0.23301
0.23301
0.23301
0.23301
0.23301
0.23301
0.23301
0.23301
0.23301
0.23301
0.23301
0.23301
0.23301
0.23301
0.23301
0.23301
0.23301
0.23301
0.23301
0.23301
0.23301
0.23301
0.23301
0.23301
0.23301
0.23301
0.23301
0.23301
0.23301
0.23301
0.23301
0.23301
0.23301
0.23301
0.23301
0.23301
0.23301
0.23301
0.23301
0.23301
0.23301
0.23301
0.23301
0.23301
0.23301
0.23301
0.23301
0.23301
0.23301
0.23301
0.23301
0.23301
0.23301
0.23301
0.23301
0.23301
0.23301
0.23301
0.23301
0.23301
0.23301
0.23301
0.23301
0.23301
0.23301
0.23301
0.23301
0.23301
0.23301
0.23301
0.23301
0.23301
0.23301
0.23301
0.23301
0.23301
0.23301
0.23301
0.23301
0.23301
0.23301
0.23301
0.23301
0.23301
0.23301
0.23301
0.23301
0.23301
0.23301
0.23301
0.23301
0.23301
0.23301
0.23301
0.23301
0.23301
0.23301
0.23301
0.23301
0.23301
0.23301
0.23301
0.23301
0.23301
0.23301
0.23301
0.23301
0.23301
0.23301
0.23301
0.23301
0.23301
0.23301
0.23301
0.23301
0.23301
0.23301
0.23301
0.23301
0.23301
0.23301
0.23301
0.23301
0.23301
0.23301
0.23301
0.23301
0.23301
0.23301
0.23301
0.23301
0.23301
0.23301
0.23301
0.23301
0.23301
0.23301
0.23301
0.23301
0.23301
0.23301
0.23301
0.23301
0.23301
0.23301
0.23301
0.23301
0.23301
0.23301
0.23301
0.23301
0.23301
0.23301
0.23301
0.23301
0.23301
0.23301
0.23301
0.23301
0.23301
0.23301
0.23301
0.23301
0.23301
0.23301
0.23301
0.23301
0.23301
0.23301
0.23301
0.23301
0.23301
0.23301
0.23301
0.23301
0.23301
0.23301
0.23301
0.23301
0.23301
0.23301
0.23301
0.23301
0.23301
0.23301
0.23301
0.23301
0.23301
0.23301
0.23301
0.23301
0.23301
0.23301
0.23301
0.23301
0.23301
0.23301
0.23301
0.23301
0.23301
0.23301
0.23301
0.23301
0.23301
0.23301
0.23301
0.23301
0.23301
0.23301
0.23301
0.23301
0.23301
0.23301
0.23301
0.23301
0.23301
0.23301
0.23301
0.23301
0.23301
0.23301
0.23301
0.23301
0.23301
0.23301
0.23301
0.23301
0.23301
0.23301
0.23301
0.23301
0.23301
0.23301
0.23301
0.23301
0.23301
0.23301
0.23301
0.23301
0.23301
0.23301
0.23301
0.23301
0.23301
0.23301
0.23301
0.23301
0.23301
0.23301
0.23301
0.23301
0.23301
0.23301
0.23301
0.23301
0.23301
0.23301
0.23301
0.23301
0.23301
0.23301
0.23301
0.23301
0.23301
0.23301
0.23301
0.23301
0.23301
0.23301
0.23301
0.23301
0.23301
0.23301
0.23301
0.23301
0.23301
0.23301
0.23301
0.23301
0.23301
0.233009
0.233008
0.233009
0.233007
0.233009
0.233006
0.233009
0.233007
0.233009
0.23301
0.233008
0.233007
0.23301
0.23301
0.23301
0.23301
0.23301
0.23301
0.23301
0.23301
0.23301
0.23301
0.23301
0.23301
0.23301
0.23301
0.23301
0.23301
0.23301
0.23301
0.23301
0.23301
0.23301
0.23301
0.23301
0.23301
0.23301
0.23301
0.23301
0.23301
0.23301
0.23301
0.23301
0.23301
0.23301
0.23301
0.23301
0.23301
0.23301
0.23301
0.23301
0.23301
0.23301
0.23301
0.23301
0.23301
0.23301
0.23301
0.23301
0.233009
0.233009
0.233007
0.233005
0.233003
0.232995
0.233
0.232985
0.233
0.232981
0.233004
0.232987
0.232998
0.233007
0.232992
0.232988
0.23301
0.233007
0.23301
0.23301
0.23301
0.23301
0.23301
0.23301
0.23301
0.23301
0.23301
0.23301
0.23301
0.23301
0.23301
0.23301
0.23301
0.23301
0.23301
0.23301
0.23301
0.23301
0.23301
0.23301
0.23301
0.23301
0.23301
0.23301
0.23301
0.23301
0.23301
0.23301
0.23301
0.23301
0.23301
0.23301
0.23301
0.23301
0.23301
0.23301
0.23301
0.23301
0.23301
0.23301
0.23301
0.23301
0.233009
0.233009
0.233001
0.232998
0.232983
0.232965
0.232954
0.232907
0.232936
0.232845
0.23294
0.232834
0.232965
0.232869
0.232935
0.232986
0.232903
0.23288
0.233009
0.232991
0.23301
0.233009
0.23301
0.23301
0.23301
0.23301
0.23301
0.23301
0.23301
0.23301
0.23301
0.23301
0.23301
0.23301
0.23301
0.23301
0.23301
0.23301
0.23301
0.23301
0.23301
0.23301
0.23301
0.23301
0.23301
0.23301
0.23301
0.23301
0.23301
0.23301
0.23301
0.23301
0.23301
0.23301
0.23301
0.23301
0.233009
0.233009
0.23301
0.23301
0.23301
0.233009
0.23301
0.23301
0.233008
0.233008
0.232996
0.232993
0.232944
0.232922
0.23284
0.232759
0.232708
0.232533
0.232622
0.232329
0.232652
0.232262
0.232766
0.232386
0.232644
0.232877
0.23253
0.232457
0.232999
0.232902
0.23301
0.233006
0.23301
0.23301
0.23301
0.23301
0.23301
0.23301
0.23301
0.23301
0.23301
0.23301
0.23301
0.23301
0.23301
0.23301
0.23301
0.23301
0.23301
0.23301
0.23301
0.23301
0.23301
0.23301
0.23301
0.23301
0.23301
0.23301
0.23301
0.23301
0.23301
0.23301
0.23301
0.233009
0.233008
0.233008
0.233009
0.233007
0.233006
0.233009
0.233008
0.233006
0.233004
0.233008
0.233007
0.232992
0.23299
0.2329
0.23288
0.232671
0.232583
0.232333
0.232128
0.231995
0.231655
0.231786
0.231292
0.231791
0.23115
0.232069
0.231279
0.231752
0.232457
0.231512
0.231395
0.232948
0.232562
0.233009
0.232989
0.23301
0.23301
0.23301
0.23301
0.23301
0.23301
0.23301
0.23301
0.23301
0.23301
0.23301
0.23301
0.23301
0.23301
0.23301
0.23301
0.23301
0.23301
0.23301
0.23301
0.23301
0.23301
0.23301
0.23301
0.23301
0.23301
0.23301
0.23301
0.23301
0.233009
0.233007
0.233002
0.232994
0.233004
0.232997
0.232998
0.232993
0.233003
0.233
0.232978
0.232972
0.232987
0.232982
0.232862
0.232848
0.232496
0.232416
0.231934
0.231761
0.231331
0.231043
0.230834
0.230437
0.230545
0.230032
0.230527
0.22988
0.230821
0.229989
0.230463
0.232025
0.231371
0.230244
0.230181
0.23079
0.232745
0.231529
0.232258
0.231567
0.233007
0.232927
0.23301
0.23301
0.23301
0.23301
0.23301
0.23301
0.23301
0.23301
0.23301
0.23301
0.23301
0.23301
0.23301
0.23301
0.23301
0.23301
0.23301
0.23301
0.23301
0.23301
0.23301
0.23301
0.23301
0.23301
0.23301
0.23301
0.23301
0.233009
0.233006
0.232996
0.232978
0.232953
0.232944
0.232909
0.232987
0.232974
0.23295
0.232933
0.232967
0.232958
0.232807
0.232793
0.232835
0.23282
0.232353
0.232304
0.231607
0.231482
0.230798
0.230599
0.230104
0.229835
0.229625
0.229306
0.229354
0.228975
0.229332
0.228831
0.229583
0.229009
0.229311
0.229797
0.229361
0.230828
0.229666
0.229167
0.229284
0.229632
0.230203
0.232596
0.231973
0.231837
0.230904
0.231061
0.233009
0.232348
0.232913
0.232593
0.23301
0.23301
0.23301
0.23301
0.23301
0.23301
0.23301
0.23301
0.23301
0.23301
0.23301
0.23301
0.23301
0.23301
0.23301
0.23301
0.23301
0.23301
0.23301
0.23301
0.23301
0.23301
0.23301
0.23301
0.23301
0.23301
0.233007
0.232996
0.232957
0.232895
0.23283
0.232818
0.232792
0.23282
0.232717
0.232913
0.232873
0.232738
0.232701
0.23278
0.232761
0.232238
0.232228
0.23227
0.23225
0.23139
0.231326
0.230439
0.230318
0.229625
0.229475
0.229068
0.228922
0.228718
0.228571
0.228752
0.228622
0.228514
0.228427
0.228764
0.228544
0.228448
0.228257
0.228382
0.228862
0.229001
0.22867
0.228584
0.228873
0.230252
0.229126
0.228683
0.228763
0.229105
0.229648
0.231532
0.231255
0.230358
0.230519
0.233008
0.232969
0.232843
0.23188
0.232308
0.23301
0.23301
0.23301
0.23301
0.23301
0.23301
0.23301
0.23301
0.23301
0.23301
0.23301
0.23301
0.23301
0.23301
0.23301
0.23301
0.23301
0.23301
0.23301
0.23301
0.23301
0.23301
0.23301
0.23301
0.233009
0.233004
0.232967
0.232839
0.232651
0.232514
0.232334
0.232613
0.232364
0.232479
0.232342
0.232655
0.232577
0.232175
0.232131
0.232219
0.232202
0.231261
0.231263
0.231287
0.231267
0.230237
0.230188
0.229375
0.229317
0.228844
0.228828
0.228523
0.228541
0.228372
0.228343
0.228339
0.228359
0.228335
0.228265
0.228231
0.228372
0.228214
0.228178
0.228047
0.228107
0.228417
0.228539
0.22827
0.228214
0.228419
0.229711
0.228634
0.228319
0.228243
0.228614
0.229125
0.230746
0.231053
0.229827
0.230003
0.233007
0.232944
0.232703
0.231448
0.231953
0.23301
0.23301
0.23301
0.23301
0.23301
0.23301
0.23301
0.23301
0.23301
0.23301
0.23301
0.23301
0.23301
0.23301
0.23301
0.23301
0.23301
0.23301
0.23301
0.23301
0.23301
0.23301
0.23301
0.233009
0.232999
0.232923
0.232644
0.232256
0.232003
0.231837
0.231687
0.231585
0.232181
0.23199
0.23187
0.231715
0.23207
0.231981
0.23126
0.231233
0.231268
0.231268
0.230167
0.230181
0.230166
0.230161
0.229293
0.229294
0.228841
0.228865
0.228581
0.228652
0.228384
0.228428
0.228473
0.228527
0.228228
0.228246
0.228279
0.228325
0.228135
0.228127
0.228145
0.228068
0.227979
0.228032
0.22795
0.227943
0.228073
0.228146
0.22795
0.22794
0.228037
0.229194
0.228192
0.227944
0.227869
0.228168
0.228635
0.230249
0.23058
0.229316
0.229502
0.233007
0.232544
0.232927
0.231016
0.231604
0.23301
0.23301
0.23301
0.23301
0.23301
0.23301
0.23301
0.23301
0.23301
0.23301
0.23301
0.23301
0.23301
0.23301
0.23301
0.23301
0.23301
0.23301
0.23301
0.23301
0.23301
0.23301
0.233009
0.232998
0.23289
0.232472
0.231857
0.231451
0.231097
0.230501
0.231066
0.230579
0.231544
0.231286
0.231001
0.230853
0.231186
0.231108
0.230216
0.230209
0.2302
0.230214
0.229342
0.229366
0.229304
0.22932
0.228905
0.228945
0.228732
0.228814
0.22858
0.228644
0.228774
0.228378
0.22844
0.228507
0.228576
0.22818
0.22823
0.22829
0.228358
0.228048
0.228083
0.228136
0.227871
0.227857
0.227984
0.227937
0.227883
0.227828
0.227841
0.227729
0.227778
0.227744
0.228703
0.227811
0.227656
0.227579
0.227778
0.228182
0.22976
0.230108
0.228826
0.229013
0.233005
0.232403
0.232878
0.230566
0.231194
0.23301
0.23301
0.23301
0.23301
0.23301
0.23301
0.23301
0.23301
0.23301
0.23301
0.23301
0.23301
0.23301
0.23301
0.23301
0.23301
0.23301
0.23301
0.23301
0.23301
0.23301
0.233009
0.232998
0.232883
0.232369
0.231527
0.230895
0.230391
0.229889
0.229613
0.229484
0.230152
0.229846
0.230666
0.23042
0.230033
0.22991
0.230183
0.230123
0.229414
0.229414
0.229388
0.229405
0.229043
0.229067
0.228982
0.229015
0.228899
0.228975
0.22892
0.229068
0.228648
0.228722
0.228903
0.22882
0.228428
0.228496
0.228559
0.228621
0.228202
0.228275
0.228344
0.228403
0.22804
0.228111
0.228189
0.227784
0.227829
0.228013
0.227998
0.227905
0.227696
0.22764
0.22762
0.227719
0.227557
0.228242
0.227511
0.227476
0.227396
0.22746
0.227777
0.229273
0.229607
0.228357
0.228534
0.232979
0.232102
0.232652
0.230018
0.23057
0.23301
0.23301
0.23301
0.23301
0.23301
0.23301
0.23301
0.23301
0.23301
0.23301
0.23301
0.23301
0.23301
0.23301
0.23301
0.23301
0.23301
0.23301
0.23301
0.23301
0.23301
0.233001
0.232888
0.232347
0.231313
0.230457
0.230009
0.229716
0.229458
0.229308
0.229339
0.229434
0.229334
0.229742
0.229571
0.229331
0.229278
0.229404
0.229376
0.229105
0.229109
0.229085
0.229097
0.229148
0.229179
0.229046
0.229104
0.229231
0.229358
0.22899
0.229096
0.229317
0.229195
0.228687
0.228754
0.228802
0.228717
0.228455
0.228497
0.228532
0.228567
0.228258
0.228311
0.228345
0.228355
0.228098
0.22817
0.228221
0.227785
0.227881
0.228081
0.228051
0.227979
0.227661
0.227546
0.227607
0.22775
0.227471
0.227818
0.227318
0.227391
0.227304
0.227244
0.227433
0.228765
0.229047
0.227912
0.228058
0.232464
0.231366
0.231809
0.229359
0.229663
0.23301
0.23301
0.23301
0.23301
0.23301
0.23301
0.23301
0.23301
0.23301
0.23301
0.23301
0.23301
0.23301
0.23301
0.23301
0.23301
0.23301
0.23301
0.23301
0.23301
0.233006
0.232915
0.232371
0.231268
0.23025
0.229876
0.229739
0.229694
0.229816
0.23014
0.229324
0.229521
0.229202
0.229233
0.229227
0.229199
0.229113
0.229125
0.22911
0.22911
0.229217
0.229224
0.229199
0.22921
0.22965
0.22969
0.229482
0.22958
0.229538
0.229827
0.228905
0.229031
0.229319
0.229171
0.228603
0.228653
0.228423
0.228332
0.22834
0.228314
0.228283
0.228262
0.228237
0.228215
0.228151
0.228056
0.228136
0.228143
0.228103
0.22786
0.227955
0.228067
0.227959
0.227988
0.227716
0.22755
0.227674
0.227835
0.227483
0.227442
0.227209
0.227402
0.227304
0.227108
0.227182
0.228243
0.228456
0.227497
0.227599
0.230057
0.229796
0.229271
0.228637
0.22866
0.23301
0.23301
0.23301
0.23301
0.23301
0.23301
0.23301
0.23301
0.23301
0.23301
0.23301
0.23301
0.23301
0.23301
0.23301
0.23301
0.23301
0.23301
0.23301
0.233008
0.232957
0.232473
0.2313
0.230209
0.229853
0.229839
0.230278
0.231293
0.230546
0.231155
0.229796
0.230153
0.229338
0.229527
0.229154
0.229217
0.229314
0.22939
0.229239
0.229266
0.229718
0.229727
0.229709
0.229715
0.230463
0.230538
0.230109
0.230315
0.229348
0.229599
0.229831
0.230081
0.228552
0.228719
0.229131
0.228915
0.228258
0.228279
0.227761
0.227648
0.227942
0.227825
0.227716
0.227633
0.227996
0.227841
0.22765
0.227437
0.228018
0.227892
0.227696
0.227909
0.227907
0.227836
0.227624
0.227817
0.227801
0.227624
0.227751
0.227844
0.227558
0.227141
0.22718
0.22747
0.227356
0.227036
0.227012
0.227735
0.227886
0.227134
0.227177
0.229753
0.228412
0.228106
0.22796
0.227851
0.23301
0.23301
0.23301
0.23301
0.23301
0.23301
0.23301
0.23301
0.23301
0.23301
0.23301
0.23301
0.23301
0.23301
0.23301
0.23301
0.23301
0.23301
0.233009
0.232986
0.232652
0.231428
0.23023
0.22986
0.230044
0.230892
0.232049
0.232301
0.232602
0.231474
0.23195
0.230595
0.231028
0.229905
0.230213
0.229505
0.229672
0.229903
0.230032
0.229755
0.229814
0.230565
0.230571
0.230568
0.230569
0.231287
0.231512
0.230451
0.230912
0.229042
0.229378
0.229706
0.230017
0.227931
0.228153
0.22872
0.228419
0.227592
0.227594
0.226973
0.226815
0.22722
0.227018
0.226853
0.226742
0.227444
0.227153
0.226843
0.226535
0.227624
0.227337
0.22699
0.227816
0.227669
0.227324
0.227011
0.2274
0.227778
0.227686
0.227708
0.227718
0.227613
0.22692
0.227205
0.227524
0.227406
0.227018
0.22689
0.227265
0.227359
0.226851
0.226815
0.231657
0.227582
0.228482
0.227368
0.227257
0.23301
0.23301
0.23301
0.23301
0.23301
0.23301
0.23301
0.23301
0.23301
0.23301
0.23301
0.23301
0.23301
0.23301
0.23301
0.23301
0.23301
0.23301
0.233001
0.232811
0.231741
0.230316
0.229869
0.230179
0.231261
0.232326
0.232845
0.232819
0.232927
0.232385
0.23266
0.231569
0.232003
0.230772
0.231146
0.230212
0.230457
0.230786
0.230948
0.230602
0.230673
0.23161
0.231619
0.231605
0.231617
0.231639
0.232063
0.230194
0.230587
0.231235
0.23091
0.228574
0.228993
0.229411
0.229817
0.227196
0.227475
0.228172
0.227803
0.226703
0.226725
0.226416
0.226157
0.226258
0.226036
0.225889
0.225836
0.226608
0.226214
0.225842
0.225525
0.226944
0.226509
0.226047
0.227523
0.227173
0.22654
0.226143
0.226698
0.227632
0.227639
0.227558
0.22739
0.227566
0.226754
0.227229
0.22748
0.227368
0.227
0.226811
0.226824
0.226854
0.226628
0.226512
0.230511
0.227292
0.228181
0.22685
0.226832
0.23301
0.23301
0.23301
0.23301
0.23301
0.23301
0.23301
0.23301
0.23301
0.23301
0.23301
0.23301
0.23301
0.23301
0.23301
0.23301
0.233009
0.233005
0.23292
0.232122
0.230543
0.229889
0.230184
0.231328
0.232326
0.23284
0.232996
0.232978
0.232994
0.232867
0.232945
0.232495
0.232722
0.23182
0.232185
0.231168
0.231465
0.231857
0.232033
0.231657
0.231731
0.232493
0.23253
0.232309
0.232436
0.231186
0.231411
0.231783
0.232054
0.232307
0.229983
0.23042
0.230822
0.228147
0.228592
0.229057
0.229526
0.226709
0.227026
0.227738
0.227366
0.225854
0.225961
0.226287
0.225956
0.225289
0.225147
0.225117
0.225172
0.225597
0.225197
0.224878
0.224657
0.226023
0.225503
0.225027
0.226966
0.226406
0.225558
0.225137
0.225775
0.227286
0.227499
0.227223
0.226801
0.227456
0.226612
0.227191
0.227388
0.227256
0.226945
0.226746
0.226419
0.226385
0.226425
0.226232
0.232337
0.227137
0.229341
0.226407
0.226519
0.23301
0.23301
0.23301
0.23301
0.23301
0.23301
0.23301
0.23301
0.23301
0.23301
0.23301
0.23301
0.233009
0.233009
0.233008
0.233008
0.233007
0.232975
0.232476
0.230939
0.229944
0.23015
0.231262
0.232214
0.23275
0.232974
0.233009
0.233008
0.233007
0.233005
0.232992
0.233002
0.232918
0.232968
0.232673
0.232824
0.232248
0.232472
0.232699
0.232783
0.232573
0.232627
0.23285
0.232901
0.232522
0.232737
0.23104
0.231253
0.231626
0.231961
0.232253
0.229738
0.230192
0.23063
0.227992
0.228395
0.228826
0.229279
0.226621
0.226949
0.227619
0.227275
0.225363
0.225633
0.226456
0.226026
0.224556
0.224558
0.224686
0.224914
0.224632
0.224337
0.224157
0.224109
0.225003
0.224527
0.224159
0.226178
0.225482
0.224564
0.224228
0.224804
0.226734
0.227228
0.226791
0.226088
0.227245
0.226473
0.227042
0.227172
0.226994
0.226731
0.226632
0.226054
0.22597
0.226196
0.225927
0.232742
0.227229
0.230493
0.226032
0.226297
0.233009
0.23301
0.23301
0.23301
0.23301
0.23301
0.23301
0.23301
0.23301
0.23301
0.233009
0.233007
0.233006
0.233005
0.233005
0.233005
0.232992
0.232732
0.231416
0.230091
0.230055
0.231069
0.231963
0.232528
0.232914
0.233004
0.233009
0.23301
0.23301
0.233009
0.233008
0.233009
0.233001
0.233006
0.232966
0.232989
0.232862
0.232925
0.232968
0.232984
0.232929
0.23295
0.232898
0.232955
0.232362
0.232592
0.232754
0.230859
0.231102
0.231448
0.231785
0.232096
0.229623
0.230039
0.230451
0.228062
0.228408
0.228793
0.229204
0.226845
0.227175
0.227753
0.227465
0.225236
0.225612
0.22688
0.226334
0.224138
0.224281
0.224521
0.224847
0.223909
0.223795
0.223773
0.223807
0.224107
0.223783
0.223589
0.225352
0.224633
0.223792
0.223566
0.224021
0.226166
0.226881
0.22628
0.225405
0.226854
0.226255
0.226705
0.226699
0.22636
0.226237
0.226299
0.225712
0.225616
0.225882
0.225604
0.232935
0.227589
0.231541
0.225706
0.226169
0.233008
0.233009
0.23301
0.23301
0.23301
0.23301
0.23301
0.23301
0.233009
0.233007
0.233002
0.232995
0.232992
0.232994
0.232998
0.232993
0.232873
0.231908
0.2304
0.230027
0.230767
0.231648
0.232261
0.232789
0.232988
0.233009
0.23301
0.23301
0.23301
0.23301
0.23301
0.23301
0.233009
0.23301
0.233006
0.233008
0.232995
0.233002
0.233001
0.233005
0.232981
0.232994
0.232844
0.232944
0.232235
0.232495
0.232554
0.232729
0.230751
0.231061
0.231363
0.231658
0.23195
0.229648
0.230021
0.230391
0.228358
0.228622
0.228937
0.229284
0.227344
0.227685
0.228137
0.227929
0.225265
0.22578
0.227293
0.226566
0.223951
0.22416
0.224449
0.224819
0.223522
0.223512
0.223565
0.223683
0.223497
0.223362
0.223315
0.224583
0.223829
0.223291
0.223069
0.223333
0.225443
0.226241
0.22525
0.224404
0.226011
0.225808
0.225878
0.225601
0.225213
0.225501
0.225731
0.225394
0.2253
0.225489
0.225273
0.23297
0.22798
0.231769
0.225419
0.226084
0.233007
0.233009
0.23301
0.23301
0.23301
0.23301
0.23301
0.233008
0.233002
0.232986
0.232961
0.232947
0.232953
0.232969
0.232985
0.232925
0.23231
0.230803
0.230053
0.23047
0.231304
0.231962
0.232599
0.232958
0.233007
0.23301
0.23301
0.23301
0.23301
0.23301
0.23301
0.23301
0.23301
0.23301
0.23301
0.233009
0.23301
0.233007
0.233009
0.233002
0.233006
0.232981
0.232996
0.232737
0.232662
0.232848
0.23292
0.232117
0.232346
0.232483
0.230751
0.23111
0.231366
0.231625
0.231876
0.229826
0.230131
0.230441
0.22883
0.22902
0.229263
0.229534
0.22793
0.228331
0.228689
0.22855
0.225291
0.225872
0.227494
0.226651
0.223855
0.224091
0.224392
0.224785
0.223311
0.223353
0.223444
0.223574
0.223149
0.223112
0.223107
0.22353
0.223113
0.222987
0.222906
0.222963
0.224136
0.224981
0.224011
0.223388
0.224666
0.225297
0.224978
0.224518
0.22448
0.224729
0.225097
0.225084
0.225017
0.225067
0.224933
0.232926
0.22795
0.231453
0.225201
0.225915
0.233006
0.233009
0.23301
0.23301
0.23301
0.23301
0.233007
0.232992
0.232943
0.232864
0.232811
0.232823
0.232883
0.232948
0.232927
0.232548
0.231252
0.230158
0.230287
0.230977
0.231654
0.232353
0.232903
0.233002
0.23301
0.23301
0.23301
0.23301
0.23301
0.23301
0.23301
0.23301
0.23301
0.23301
0.23301
0.233009
0.23301
0.233008
0.233009
0.233001
0.233005
0.232972
0.232993
0.232607
0.23272
0.232824
0.232878
0.232934
0.232089
0.232292
0.232454
0.230858
0.231261
0.231457
0.231664
0.231875
0.230161
0.230384
0.230616
0.22944
0.229576
0.229753
0.229947
0.228314
0.228953
0.229339
0.229209
0.225278
0.225903
0.227549
0.226651
0.223752
0.22399
0.224303
0.224706
0.22314
0.223207
0.2233
0.223432
0.222961
0.222939
0.222947
0.223115
0.222955
0.222812
0.222716
0.222804
0.223435
0.223887
0.22354
0.22319
0.223964
0.224839
0.224532
0.224138
0.224329
0.224536
0.224645
0.224819
0.22481
0.224678
0.224577
0.230752
0.227576
0.22919
0.225006
0.225662
0.233006
0.233009
0.23301
0.23301
0.233009
0.233005
0.232974
0.232871
0.232707
0.232602
0.232608
0.232702
0.232842
0.2329
0.23263
0.231635
0.230414
0.230253
0.230712
0.231367
0.232088
0.23281
0.232992
0.233009
0.23301
0.23301
0.23301
0.23301
0.23301
0.23301
0.23301
0.23301
0.23301
0.23301
0.23301
0.233009
0.23301
0.233008
0.233009
0.233001
0.233006
0.232968
0.232991
0.232594
0.232708
0.232807
0.232873
0.232925
0.232105
0.232283
0.232451
0.231075
0.231477
0.231615
0.231771
0.231934
0.230621
0.230758
0.230911
0.230118
0.230229
0.230355
0.230484
0.22847
0.229332
0.23
0.229808
0.225212
0.225867
0.227426
0.226442
0.22361
0.223843
0.224151
0.224546
0.223006
0.223091
0.223195
0.22332
0.222776
0.222771
0.22282
0.223061
0.222952
0.222688
0.222305
0.22231
0.223391
0.22379
0.223576
0.223215
0.223982
0.224539
0.224357
0.224025
0.224183
0.224342
0.224487
0.224625
0.224632
0.224454
0.224373
0.228179
0.226481
0.226635
0.224847
0.225284
0.233007
0.23301
0.23301
0.233009
0.233003
0.232955
0.232791
0.232553
0.232398
0.232383
0.232481
0.232647
0.232806
0.232622
0.231827
0.230707
0.230275
0.230538
0.231129
0.231849
0.232672
0.232975
0.233008
0.23301
0.23301
0.23301
0.23301
0.23301
0.23301
0.23301
0.23301
0.23301
0.23301
0.23301
0.23301
0.233009
0.23301
0.233008
0.233009
0.233001
0.233006
0.232949
0.232975
0.232989
0.232587
0.232689
0.232794
0.232854
0.232915
0.232149
0.232301
0.232451
0.231352
0.231564
0.231693
0.23184
0.231989
0.231098
0.231166
0.231256
0.230711
0.230821
0.230925
0.231012
0.228451
0.229435
0.23053
0.230159
0.225055
0.225668
0.226914
0.225895
0.223482
0.223679
0.223944
0.224293
0.222962
0.223069
0.223143
0.223262
0.222649
0.222379
0.222499
0.222412
0.222383
0.222347
0.222061
0.222054
0.222573
0.222808
0.222725
0.222506
0.222922
0.224437
0.22421
0.223017
0.223113
0.224192
0.224283
0.224403
0.224513
0.22433
0.22418
0.230792
0.225669
0.2262
0.224693
0.224956
0.233008
0.23301
0.233009
0.233002
0.232942
0.232729
0.232417
0.232212
0.232163
0.232239
0.232395
0.232572
0.232533
0.231837
0.230907
0.230359
0.230477
0.230963
0.231652
0.232508
0.232948
0.233007
0.23301
0.23301
0.23301
0.23301
0.23301
0.23301
0.23301
0.23301
0.23301
0.23301
0.23301
0.23301
0.23301
0.23301
0.23301
0.23301
0.23301
0.233008
0.233009
0.233
0.233006
0.232944
0.23297
0.232986
0.232556
0.232619
0.232758
0.232806
0.232894
0.232129
0.232298
0.232385
0.231454
0.231382
0.231545
0.231736
0.231941
0.231246
0.231297
0.231373
0.230926
0.231035
0.231121
0.231171
0.228003