/*--------------------------------*- C++ -*----------------------------------*\
  =========                 |
  \\      /  F ield         | OpenFOAM: The Open Source CFD Toolbox
   \\    /   O peration     | Website:  https://openfoam.org
    \\  /    A nd           | Version:  dev
     \\/     M anipulation  |
\*---------------------------------------------------------------------------*/
FoamFile
{
    version     2.0;
    format      ascii;
    class       volScalarField;
    location    "2500";
    object      omega;
}
// * * * * * * * * * * * * * * * * * * * * * * * * * * * * * * * * * * * * * //

dimensions      [0 0 -1 0 0 0 0];

internalField   nonuniform List<scalar> 
9729
(
1.23527
1.24981
1.20805
1.17036
1.34586
1.10418
1.07557
1.35343
1.28868
1.03668
1.03169
1.31651
1.35295
1.1649
1.01835
1.01069
1.2258
1.37427
1.28855
1.0769
1.0115
1.0007
1.12272
1.36227
1.35001
1.16586
1.04004
1.00658
0.991027
1.06058
1.32083
1.37043
1.264
1.0829
1.02265
1.00328
0.984677
1.0218
1.23594
1.37233
1.33035
1.14912
1.04371
1.01118
1.00103
0.981201
0.997732
1.1421
1.35744
1.35899
1.22992
1.07501
1.02223
1.0035
0.999301
0.98079
0.984133
1.06852
1.3174
1.36822
1.30036
1.12563
1.03697
1.00794
0.99839
0.998019
0.982461
0.974578
1.02378
1.24273
1.36701
1.33946
1.19073
1.06028
1.01495
0.998771
0.994304
0.997009
0.984047
0.966619
0.99518
1.1546
1.35312
1.35701
1.25833
1.09741
1.02522
1.0004
0.991389
0.991304
0.996225
0.985161
0.961072
0.976912
1.07539
1.31718
1.36304
1.30994
1.15178
1.04114
1.00421
0.989703
0.986081
0.989056
0.995623
0.985336
0.957199
0.965056
1.02764
1.25316
1.36212
1.33809
1.21092
1.06986
1.0106
0.990057
0.981776
0.982088
0.98733
0.99515
0.984896
0.956403
0.957085
0.995565
1.17062
1.35166
1.35236
1.26615
1.11148
1.02263
0.991671
0.979096
0.976049
0.97912
0.985986
0.994777
0.984434
0.957083
0.949845
0.974746
1.08921
1.32213
1.35801
1.30806
1.16387
1.04271
0.995578
0.977522
0.971103
0.971577
0.976909
0.984923
0.994472
0.984264
0.957801
0.943923
0.960911
1.03653
1.2674
1.35822
1.33282
1.21503
1.07501
1.00342
0.97783
0.967485
0.96502
0.968192
0.97517
0.984068
0.994229
0.98437
0.958085
0.939155
0.950609
1.00241
1.19127
1.35095
1.34654
1.26226
1.1167
1.01743
0.979441
0.964334
0.959698
0.960437
0.965648
0.97379
0.98339
0.994032
0.984647
0.957724
0.935258
0.942694
0.978836
1.11482
1.32724
1.35163
1.29946
1.1646
1.03978
0.983627
0.963059
0.954731
0.953617
0.956943
0.963674
0.972715
0.982866
0.993863
0.984884
0.956673
0.932175
0.936589
0.962427
1.05302
1.27993
1.35223
1.32387
1.20868
1.0733
0.992107
0.962698
0.951117
0.947471
0.949163
0.954186
0.962114
0.971924
0.982418
0.993719
0.98497
0.955672
0.930849
0.931913
0.950667
1.01506
1.21555
1.3462
1.33739
1.25013
1.11361
1.0071
0.964183
0.948149
0.941933
0.942038
0.945632
0.952028
0.960935
0.971303
0.982034
0.993596
0.984937
0.955047
0.929804
0.926437
0.941862
0.988929
1.14465
1.32742
1.34235
1.28437
1.15603
1.03239
0.968603
0.945901
0.937518
0.935357
0.937668
0.942754
0.950377
0.960056
0.970797
0.981722
0.993483
0.984852
0.95469
0.928504
0.921536
0.933891
0.970111
1.07963
1.28812
1.3417
1.30896
1.19547
1.06595
0.978262
0.945649
0.933159
0.929361
0.930171
0.934172
0.940576
0.949102
0.959422
0.970416
0.981437
0.993379
0.984769
0.954315
0.926828
0.917726
0.927115
0.955744
1.03355
1.23486
1.33587
1.32253
1.2311
1.104
0.995858
0.947475
0.93008
0.923748
0.922999
0.925989
0.931517
0.93891
0.948151
0.958984
0.970096
0.981159
0.993277
0.984674
0.953743
0.925004
0.914795
0.921942
0.944479
1.00275
1.17101
1.32082
1.32708
1.26197
1.14089
1.02286
0.952784
0.926931
0.919084
0.916452
0.918058
0.922862
0.929493
0.937599
0.947521
0.958632
0.969795
0.980892
0.993169
0.984563
0.953056
0.923426
0.912597
0.918028
0.935811
0.980008
1.10822
1.28953
1.32512
1.28749
1.17563
1.05449
0.964337
0.927367
0.914346
0.910489
0.910572
0.914402
0.920507
0.927884
0.936646
0.947052
0.958373
0.969543
0.980598
0.993057
0.984438
0.952313
0.922102
0.910925
0.914758
0.92878
0.962812
1.05177
1.2449
1.31957
1.30092
1.20506
1.08867
0.983679
0.9301
0.910488
0.905187
0.903692
0.906197
0.911608
0.918608
0.926616
0.935972
0.946758
0.958228
0.969273
0.980286
0.992948
0.984275
0.951415
0.92082
0.909293
0.911633
0.922382
0.948559
1.01448
1.19209
1.30755
1.30628
1.23403
1.11977
1.01004
0.936881
0.908942
0.899634
0.897567
0.898512
0.90289
0.909372
0.917089
0.925731
0.935545
0.946645
0.958081
0.968991
0.97999
0.992868
0.984075
0.950319
0.919619
0.907615
0.908945
0.916622
0.936631
0.986014
1.13068
1.28559
1.3047
1.25746
1.14976
1.03877
0.950866
0.910105
0.895657
0.891603
0.891558
0.894574
0.900245
0.907635
0.916056
0.925162
0.935367
0.946607
0.957922
0.968647
0.979713
0.992852
0.983804
0.949001
0.918517
0.906534
0.90723
0.911486
0.926299
0.96358
1.07258
1.25037
1.30023
1.27369
1.17524
1.06817
0.970858
0.914003
0.891771
0.88622
0.885251
0.88699
0.891424
0.898164
0.906452
0.915428
0.924919
0.935393
0.946588
0.957715
0.968234
0.979469
0.992893
0.983425
0.947473
0.917473
0.905861
0.905378
0.905602
0.916474
0.945108
1.02453
1.2068
1.29096
1.28202
1.2005
1.09534
0.994531
0.922419
0.891842
0.88087
0.879123
0.880098
0.883207
0.888865
0.896681
0.9058
0.915195
0.924973
0.935549
0.946616
0.957424
0.967841
0.979462
0.993055
0.982926
0.94586
0.916652
0.905358
0.903493
0.900134
0.907547
0.928826
0.989812
1.15615
1.27683
1.28244
1.22222
1.11953
1.02026
0.936419
0.893487
0.877164
0.873456
0.87354
0.875692
0.880029
0.886954
0.895904
0.905598
0.915276
0.925279
0.935906
0.946738
0.957224
0.967649
0.979987
0.993577
0.98232
0.9443
0.91609
0.905097
0.901487
0.895089
0.898694
0.915265
0.962078
1.10121
1.25416
1.27925
1.24258
1.14258
1.04421
0.955304
0.897943
0.874852
0.867933
0.867467
0.868796
0.87198
0.877615
0.885878
0.895675
0.90577
0.91575
0.925958
0.936571
0.94704
0.957176
0.967993
0.981114
0.997321
0.99153
0.981636
0.942812
0.915807
0.905046
0.899468
0.890149
0.889384
0.903059
0.939313
1.05076
1.22253
1.27428
1.25419
1.16159
1.06758
0.976078
0.907156
0.87536
0.863874
0.861534
0.862391
0.86476
0.869125
0.87611
0.885451
0.895928
0.906441
0.916751
0.927196
0.937624
0.947662
0.957778
0.969561
0.985821
0.980292
0.997621
0.99234
0.980845
0.941403
0.915803
0.905323
0.897551
0.885271
0.880609
0.891759
0.920567
1.00471
1.18437
1.26631
1.25945
1.18443
1.08679
0.998372
0.920943
0.877631
0.860332
0.856408
0.856367
0.858163
0.861542
0.867104
0.875321
0.88559
0.896706
0.907773
0.918397
0.929046
0.939421
0.94914
0.961444
0.956586
0.975253
0.962579
0.970089
0.987206
0.982444
0.997935
0.993398
0.979976
0.940133
0.91628
0.905938
0.895587
0.880504
0.872626
0.881394
0.904612
0.971282
1.14297
1.25413
1.25974
1.2056
1.10564
1.01868
0.938085
0.882967
0.859472
0.851576
0.85081
0.852025
0.854766
0.859034
0.865761
0.875116
0.886263
0.898229
0.909894
0.92099
0.931997
0.942182
0.952393
0.948984
0.958105
0.977883
0.965771
0.973315
0.989247
0.985711
0.998401
0.994846
0.979064
0.939157
0.91728
0.906578
0.893401
0.875713
0.865588
0.872096
0.890739
0.944589
1.09616
1.23614
1.25792
1.22292
1.12468
1.03707
0.956454
0.892397
0.860373
0.848185
0.84565
0.84631
0.848577
0.851953
0.857112
0.865027
0.875601
0.887831
0.900689
0.913199
0.925244
0.936438
0.946204
0.944108
0.954296
0.951332
0.961737
0.982068
0.969008
0.977916
0.992139
0.990277
0.999033
0.996909
0.978149
0.938426
0.918261
0.907134
0.89085
0.871137
0.859323
0.863733
0.878876
0.92243
1.05027
1.21096
1.25499
1.23404
1.14289
1.05439
0.974931
0.904955
0.86311
0.845599
0.841013
0.841007
0.842747
0.845571
0.849645
0.855849
0.8652
0.877015
0.890629
0.904733
0.918816
0.931618
0.942278
0.940946
0.949403
0.948323
0.958473
0.956224
0.965677
0.987752
0.973919
0.983973
0.99626
0.996174
1.00005
1.0003
0.97729
0.937896
0.919314
0.90743
0.888214
0.866954
0.853783
0.856457
0.869007
0.903929
1.00829
1.17983
1.2498
1.24004
1.16534
1.06936
0.992472
0.920005
0.868946
0.845749
0.837227
0.836055
0.837327
0.839703
0.843028
0.847867
0.855501
0.86633
0.879965
0.89536
0.911709
0.927174
0.939538
0.938617
0.947832
0.947573
0.955165
0.955227
0.963338
0.962692
0.971424
0.99564
0.981258
0.993634
1.00188
1.0053
1.00112
1.0039
0.976496
0.937608
0.92052
0.907566
0.885764
0.86304
0.849063
0.850118
0.860772
0.889166
0.969853
1.14407
1.24195
1.24309
1.18603
1.08604
1.00795
0.936031
0.877787
0.847057
0.834314
0.831683
0.83226
0.834328
0.837108
0.841011
0.846926
0.856305
0.869137
0.885241
0.903615
0.922453
0.93731
0.936568
0.947437
0.947256
0.955757
0.956999
0.962986
0.964073
0.971038
0.971593
0.980941
1.00709
0.993337
1.00819
1.01076
1.01882
1.00244
1.00913
0.975769
0.93749
0.9217
0.907721
0.88351
0.859558
0.844955
0.844672
0.853783
0.877465
0.941765
1.10535
1.22771
1.24267
1.2051
1.1032
1.02226
0.952494
0.888984
0.850244
0.833167
0.827766
0.82769
0.829408
0.831909
0.835061
0.83972
0.847389
0.858728
0.874668
0.894606
0.916227
0.935049
0.934184
0.947152
0.94688
0.958479
0.959625
0.966483
0.969345
0.973516
0.977673
0.981586
0.983888
0.994044
1.02439
1.00965
1.02805
1.02274
1.03782
1.00412
1.01651
0.975082
0.937314
0.922717
0.907689
0.881515
0.856492
0.841456
0.839972
0.847812
0.868094
0.9202
1.06241
1.20746
1.24172
1.21779
1.12316
1.03545
0.967371
0.902927
0.856067
0.833698
0.82504
0.823674
0.824991
0.827329
0.830069
0.833719
0.839849
0.849405
0.86415
0.884437
0.90924
0.932018
0.930649
0.9467
0.946268
0.96083
0.961594
0.972537
0.975575
0.982369
0.987458
0.989537
0.997611
0.996319
1.00219
1.01235
1.04847
1.03183
1.05555
1.03954
1.06468
1.00632
1.02633
0.974376
0.936758
0.923313
0.907191
0.879648
0.85376
0.838608
0.83595
0.842656
0.860478
0.903326
1.02148
1.18065
1.23927
1.22584
1.14654
1.04925
0.980921
0.916924
0.864482
0.835425
0.82294
0.820359
0.821184
0.823308
0.825899
0.828855
0.833602
0.84164
0.854781
0.874348
0.900705
0.927509
0.925165
0.945619
0.944706
0.962761
0.963443
0.978544
0.981165
0.992999
0.998569
1.00558
1.01421
1.01348
1.02705
1.01781
1.03027
1.03828
1.08151
1.06278
1.0929
1.06385
1.10168
1.00882
1.0401
0.973437
0.935695
0.923052
0.905999
0.877682
0.851309
0.83606
0.832646
0.838174
0.854098
0.889803
0.984326
1.14857
1.23396
1.23122
1.17032
1.06528
0.99315
0.93133
0.874612
0.839074
0.823035
0.817522
0.818057
0.819984
0.822441
0.825034
0.828735
0.835208
0.846828
0.865445
0.892205
0.922617
0.916163
0.942931
0.941622
0.96451
0.964646
0.984313
0.986888
1.00394
1.00921
1.02361
1.03232
1.04066
1.05467
1.05002
1.07213
1.05072
1.07461
1.07732
1.12627
1.10675
1.14325
1.09813
1.15289
1.01157
1.05883
0.971856
0.933529
0.921424
0.903853
0.875146
0.848838
0.833489
0.829758
0.83433
0.848486
0.879224
0.952635
1.11233
1.22296
1.2329
1.19149
1.08443
1.00423
0.944715
0.886613
0.844599
0.823851
0.815833
0.815372
0.817357
0.819873
0.822355
0.825165
0.83031
0.840216
0.857194
0.883146
0.922802
0.938194
0.940954
0.964765
0.964461
0.990187
0.992454
1.01448
1.02002
1.04069
1.05027
1.07002
1.08542
1.09496
1.12266
1.10563
1.14681
1.10176
1.14412
1.13512
1.18376
1.17603
1.22477
1.14774
1.21624
1.01556
1.08539
0.969043
0.929317
0.91792
0.899846
0.871471
0.845831
0.830692
0.826866
0.83091
0.843425
0.871139
0.929275
1.0738
1.20515
1.23343
1.20648
1.10734
1.01674
0.956168
0.898872
0.851891
0.82582
0.814732
0.812997
0.815185
0.818108
0.821113
0.824071
0.828144
0.83628
0.851392
0.875996
0.917742
0.959301
0.958577
0.963195
0.962107
0.994854
0.996341
1.02535
1.03077
1.05917
1.06955
1.10446
1.12928
1.16467
1.22162
1.21009
1.32856
1.21685
1.37614
1.19335
1.33555
1.26236
1.27344
1.3519
1.44694
1.20924
1.29189
1.02009
1.13449
0.964863
0.923214
0.911865
0.893396
0.865899
0.841801
0.827408
0.823806
0.827596
0.838799
0.864357
0.911321
1.03385
1.18155
1.23234
1.21682
1.13341
1.03104
0.967398
0.910953
0.860332
0.829165
0.81499
0.810806
0.813139
0.81687
0.821195
0.82456
0.828394
0.835733
0.850053
0.873456
0.914078
0.957326
0.946947
0.996203
0.995164
0.996915
0.996739
1.03521
1.03951
1.07795
1.08876
1.15964
1.19564
1.32378
1.47877
1.56815
1.95167
1.72782
2.44966
1.71058
2.55936
1.53408
2.29649
1.81623
1.51773
2.14579
2.44593
1.24388
1.50179
1.02392
1.14349
0.960557
0.917934
0.905039
0.885245
0.85885
0.836437
0.823359
0.820412
0.824283
0.834477
0.858121
0.897139
0.996427
1.15185
1.22868
1.22375
1.16079
1.04909
0.977024
0.923245
0.870158
0.833209
0.815766
0.809276
0.811003
0.815559
0.821654
0.826715
0.830802
0.837382
0.85109
0.874128
0.914313
0.975942
0.993988
0.998456
1.04458
1.04693
1.04201
1.04344
1.09543
1.10685
1.22854
1.26296
1.6782
1.89908
2.53344
3.24544
3.54786
4.90785
4.20373
6.30429
4.00584
6.8044
3.16354
6.04563
4.18368
2.60261
5.20048
5.98069
1.38981
2.49304
1.02522
1.17587
0.955718
0.919569
0.903038
0.879729
0.852691
0.830993
0.818684
0.816306
0.820831
0.830497
0.852336
0.886554
0.964619
1.11761
1.22032
1.22656
1.18372
1.07223
0.987569
0.933749
0.880974
0.838795
0.817138
0.808339
0.80885
0.813903
0.8221
0.830548
0.837358
0.844015
0.856647
0.8817
0.925774
1.00121
1.07954
1.10534
1.05171
1.05975
1.14896
1.18134
1.11549
1.13359
1.29584
1.35567
2.13167
2.3925
4.0316
4.81762
6.38007
7.7933
8.44181
10.3571
9.71103
12.1195
9.83964
12.9481
8.39832
12.7308
10.6653
6.29313
12.5291
13.7411
2.06792
5.91004
1.02521
1.48961
0.949876
0.91168
0.882793
0.85198
0.828418
0.815294
0.8121
0.816791
0.826798
0.84728
0.87849
0.939678
1.08088
1.20482
1.22976
1.19971
1.09849
1.00103
0.943602
0.892084
0.845692
0.819005
0.807717
0.80673
0.812014
0.82209
0.834695
0.846322
0.858172
0.873534
0.906687
0.970903
1.09689
1.18115
1.10296
1.32146
1.42515
1.21191
1.26855
1.64144
1.78395
1.43044
1.54156
2.66361
2.94768
5.62004
6.3964
9.06302
10.1465
11.8985
13.041
13.828
14.9343
14.994
16.2169
15.524
17.0478
15.0954
17.4077
16.8241
14.1741
17.9892
18.7551
4.69617
13.3419
1.10652
2.9951
0.956296
0.904499
0.864791
0.832037
0.815162
0.810016
0.812774
0.822895
0.843122
0.872148
0.921224
1.04354
1.18353
1.22967
1.21263
1.12721
1.01752
0.95298
0.903474
0.854273
0.821127
0.807383
0.80467
0.809934
0.821349
0.838149
0.856594
0.877159
0.90805
0.974752
1.13019
1.4385
2.06794
1.57023
1.96063
2.26212
2.5945
1.89859
2.0981
3.84695
4.12823
3.25058
3.56148
7.07746
7.65235
11.0745
11.792
13.8281
14.3527
15.6163
16.0282
16.9741
17.437
17.9863
18.658
18.6546
19.5204
18.8043
19.9974
19.8919
16.7398
19.1082
20.7964
21.3732
20.239
10.9521
18.9399
16.089
19.2191
1.53232
6.88048
0.961166
0.907434
0.856775
0.822496
0.81086
0.81111
0.819344
0.839529
0.867196
0.907744
1.00835
1.15645
1.22769
1.22112
1.1573
1.03991
0.962313
0.913847
0.864257
0.824756
0.807364
0.802649
0.807671
0.819821
0.840192
0.86671
0.901451
0.969276
1.17456
1.66286
2.42549
3.86917
4.66754
5.87097
2.94868
3.79985
5.1719
5.84073
4.38245
4.74186
8.83481
9.1454
8.12058
8.49973
12.3204
12.6817
14.6855
14.8636
16.2579
16.3859
17.7665
18.022
19.2308
19.6689
20.358
21.1314
21.0648
22.1731
21.2444
22.2717
21.6315
21.36
22.1682
20.4975
22.2086
23.2473
22.6852
22.6096
21.6066
14.0271
18.6419
18.7013
20.7049
20.7141
2.85585
17.6076
8.89449
16.3514
0.96623
0.920633
0.856565
0.820222
0.812255
0.818306
0.836827
0.863459
0.898831
0.978701
1.1248
1.22197
1.22538
1.18156
1.06697
0.975311
0.923102
0.874939
0.830936
0.807564
0.800446
0.804879
0.817314
0.840699
0.874762
0.92912
1.09712
1.74858
3.15292
4.93488
6.86868
7.20064
8.61807
8.55516
9.48543
6.62371
7.66428
10.1105
10.4318
9.47384
9.78168
13.135
13.1618
12.9226
13.0653
14.9463
14.9344
16.4054
16.3788
18.1913
18.2794
20.0665
20.3943
21.8542
22.4725
22.3326
22.7594
23.2138
23.7022
22.8986
23.6563
23.8198
25.0615
24.3031
23.0114
22.9045
23.8426
23.7984
23.5706
21.8737
23.6362
24.7568
24.2034
24.0524
22.9442
20.5075
20.6949
22.0458
22.1412
1.95641
8.29452
12.2555
20.1525
19.2698
0.97804
0.935968
0.858471
0.822053
0.81983
0.836348
0.861071
0.89327
0.955902
1.09118
1.20985
1.23126
1.19878
1.09657
0.991015
0.932981
0.885838
0.839211
0.808533
0.798222
0.801238
0.813701
0.839259
0.87908
0.959236
1.30644
2.73847
5.46208
8.12424
9.7915
11.1063
10.107
11.1716
11.4585
11.6968
10.7907
11.1145
13.0969
13.0558
13.1552
13.1333
14.7002
14.5689
14.8928
14.8139
16.3036
16.1756
18.2703
18.2172
20.5707
20.5899
22.9256
23.1663
24.0824
24.4679
24.7522
25.0101
24.4144
24.955
25.431
24.6159
25.4298
25.7026
26.9972
26.2294
24.7097
24.5459
25.5801
25.6401
25.2879
23.2096
25.2767
25.9845
26.629
25.7416
24.4091
22.1526
22.0775
23.3997
23.5071
2.99105
14.3256
17.8178
21.9172
21.8095
0.999551
0.948368
0.86022
0.829723
0.837904
0.860573
0.890403
0.940222
1.05868
1.19187
1.23623
1.21408
1.1279
1.012
0.94262
0.89726
0.849485
0.811512
0.796734
0.796814
0.809014
0.834838
0.879861
0.979555
1.5019
3.73353
7.54536
10.46
11.6454
12.1243
12.2751
12.5219
11.9686
12.1907
12.9273
12.8581
13.0208
12.9648
14.113
13.9404
14.4269
14.2769
15.6037
15.3779
16.0113
15.8214
18.0952
17.9147
20.5221
20.3589
23.1481
23.0001
25.1715
25.2734
25.294
25.2447
25.8403
26.1829
26.4515
26.6419
26.3127
26.8527
27.3185
26.5782
27.4968
27.7058
29.1899
28.3702
26.6563
26.4554
27.6787
27.7397
27.2967
24.6791
27.2156
28.0975
28.826
27.726
26.1174
23.5398
23.5243
24.8598
24.9438
3.93196
22.1644
20.5738
23.5624
24.1743
1.02342
0.954776
0.864796
0.846225
0.861611
0.889515
0.93153
1.02972
1.16969
1.23673
1.22639
1.15954
1.03875
0.954807
0.908095
0.861608
0.818927
0.79654
0.792605
0.803298
0.829056
0.878212
0.983763
1.59292
4.38385
9.07399
11.7589
12.4615
12.4477
12.5493
12.7257
12.7356
12.8239
12.7835
13.4369
13.2915
13.7694
13.5968
14.707
14.4942
15.1636
14.9385
17.2222
16.9698
17.6999
17.4659
20.124
19.8603
22.6734
22.2574
25.1357
24.926
25.046
26.7496
26.773
26.7174
26.5855
27.708
28.0169
28.2329
28.3469
28.3431
28.894
29.342
28.7959
29.8057
29.9315
31.5948
30.7543
28.9131
28.6782
30.0795
30.122
29.6379
26.3827
29.4819
30.5385
31.3478
30.0274
28.1165
24.9632
24.9867
26.5274
26.5562
6.27662
27.2637
30.8177
25.2761
27.1149
1.04547
0.954307
0.873799
0.86731
0.890045
0.927284
1.00778
1.14429
1.23518
1.23461
1.18608
1.06861
0.971116
0.919656
0.875349
0.829636
0.798136
0.789962
0.797714
0.822156
0.870924
0.97601
1.58995
4.60145
9.93933
12.375
12.7049
12.4462
12.6551
13.5725
13.8229
13.1729
13.2888
13.1767
13.1423
14.0873
14.0822
14.3354
14.1908
16.2506
16.0434
16.725
16.4838
18.9805
18.6916
19.5741
19.2764
21.8155
21.3589
24.2625
23.4191
26.3655
26.1317
25.9938
26.6303
28.3606
28.2895
28.132
27.8895
29.6761
29.892
29.9892
29.9818
30.5585
31.0332
31.344
31.2931
32.3723
32.2531
33.8854
33.2677
31.4588
31.2029
32.7698
32.7954
32.2746
28.3708
32.0641
33.2571
34.1287
32.6356
30.4231
26.5232
26.592
28.4601
28.3968
19.7402
34.5487
47.3446
27.2226
30.2998
1.06233
0.947666
0.886668
0.8934
0.926979
0.991502
1.11997
1.23032
1.24598
1.20764
1.10182
0.991245
0.932163
0.890541
0.843528
0.804765
0.789722
0.79398
0.814386
0.860578
0.95305
1.49128
4.53555
10.2208
12.6432
12.6943
12.3742
12.9294
15.3634
15.2684
16.0595
14.5514
14.9224
14.1316
14.2893
15.71
15.7522
15.8808
15.7468
17.9302
17.7357
18.419
18.1628
20.1759
19.8631
20.9158
20.5201
22.5758
21.906
25.4191
24.729
23.5037
24.1329
27.5595
27.1261
27.1835
27.8681
29.8956
29.7515
29.5525
29.2825
31.4932
31.5297
31.5078
31.4747
32.6857
32.8731
32.9178
33.9934
34.8994
34.1561
35.4299
35.3412
34.2746
34.014
35.679
35.5644
35.1736
30.6347
34.8911
36.1963
37.1052
35.4916
33.0241
28.293
28.3537
30.6204
30.4153
75.4561
42.1708
66.3639
29.0666
32.3781
1.06929
0.938578
0.905412
0.928232
0.983675
1.09617
1.22146
1.25915
1.22846
1.13779
1.01739
0.946198
0.906168
0.861003
0.819057
0.793099
0.792862
0.80855
0.852288
0.93203
1.28814
4.09804
10.1544
12.7326
12.6314
12.2129
13.1554
15.3731
17.2437
17.0181
17.082
17.2615
16.4912
16.7995
15.8919
16.1741
17.5072
17.5461
17.5912
17.5067
19.0841
18.8975
19.5764
19.3146
20.5679
20.2655
21.3394
20.9068
22.6866
21.6498
26.4176
25.5823
23.9577
24.7377
28.9251
28.4498
29.4269
30.2078
31.4652
31.4733
31.4648
31.3763
32.9143
32.9489
33.1127
33.4185
34.2069
34.1638
34.1854
36.3725
36.6133
35.3476
36.3637
36.5594
37.0219
36.9731
38.3024
37.6535
38.1321
33.1442
37.912
39.1404
40.0804
38.5246
35.8404
30.1711
29.9976
32.9521
32.5342
86.324
43.0544
76.416
30.377
32.7741
1.06278
0.939648
0.93449
0.981337
1.08
1.20764
1.27213
1.24878
1.17421
1.04958
0.963284
0.92257
0.883443
0.839035
0.806186
0.795409
0.807127
0.845949
0.917153
1.13513
3.20363
9.7217
12.7299
12.5327
12.0073
13.0229
14.9036
16.508
17.6241
17.1874
17.9255
17.8319
17.866
17.9328
17.6408
17.7572
18.6054
18.5731
18.7582
18.6614
19.5587
19.3961
19.9977
19.7611
19.8386
19.5493
20.7595
20.2051
23.9111
22.7735
21.8838
21.0636
28.4631
27.3588
24.9978
26.1799
31.1643
30.7841
33.0738
34.0571
33.8417
34.3151
34.7458
34.989
34.4238
34.9426
35.7386
36.7322
35.2863
35.4747
36.0528
37.7595
37.5302
36.4053
37.6391
37.3985
38.7773
39.3983
39.7884
38.7791
40.3909
35.7937
40.9118
41.3553
42.2755
41.339
38.6983
32.016
31.3836
35.3519
34.7006
74.4317
42.3629
76.0991
31.0293
32.6777
1.04346
0.954659
0.983147
1.06754
1.19677
1.27937
1.27001
1.20862
1.08562
0.984908
0.941559
0.909855
0.868727
0.831051
0.808112
0.810231
0.843628
0.909994
1.04607
2.32161
8.48961
12.6607
12.5064
11.7462
12.6328
13.9776
14.5423
14.908
13.9656
17.2971
16.4211
18.1364
17.7819
18.431
18.3252
18.5451
18.4974
19.0163
18.9091
19.2554
19.1275
19.1709
19.0892
19.3729
19.2587
17.3554
16.7783
19.8779
18.5165
25.4847
23.975
22.6228
21.4617
31.7998
30.3169
27.0825
28.7169
34.9948
34.6994
37.4178
38.807
37.8221
38.8718
39.7184
40.167
37.0637
38.4344
40.0511
41.7663
36.8941
37.9362
39.4906
38.4978
38.4942
38.5323
40.405
39.0502
39.7054
40.7381
40.6703
39.5171
41.7221
38.3596
42.8841
42.6872
43.3921
43.0622
41.1295
33.8503
32.6404
37.7542
36.9817
47.364
41.0673
54.1985
31.502
33.0509
1.02967
0.99262
1.0658
1.18665
1.28814
1.29498
1.24287
1.12756
1.01154
0.963563
0.940501
0.904047
0.866403
0.836952
0.824945
0.848017
0.910213
1.01077
1.66472
6.61936
12.4406
12.5409
11.4243
12.0466
13.0855
12.8558
9.1679
10.9053
8.1043
15.3375
13.2356
17.4823
16.5852
18.3894
18.0474
18.7788
18.6101
18.6719
18.472
18.9772
18.8297
17.0615
17.1343
16.7405
16.9297
15.8121
14.0857
21.1622
19.7064
17.3736
18.5544
27.7694
25.9012
24.1688
22.5812
35.6941
33.7641
29.7371
31.7505
40.1984
39.7532
41.2793
43.2734
43.3979
44.7542
45.6609
45.9287
41.4483
43.6475
45.8885
47.97
40.0986
42.2268
44.735
39.6933
40.6437
42.5635
45.347
42.5493
40.5989
41.7133
41.7455
41.0473
42.744
40.6972
43.8879
43.4814
44.2246
44.4161
43.0273
35.8273
34.2168
40.2404
39.4677
50.4121
38.8819
53.3683
32.636
34.6744
1.04144
1.06944
1.18638
1.29485
1.32786
1.27811
1.17468
1.04618
0.988269
0.969935
0.948886
0.910607
0.881281
0.863585
0.874976
0.924689
1.00965
1.33953
4.64554
11.8244
12.6575
11.1099
11.5143
12.3443
11.8039
8.43461
3.95324
5.59804
4.566
9.28708
6.98648
14.5176
12.055
17.1298
16.1849
18.1805
17.7339
16.7967
16.3546
17.1283
17.0306
12.2264
12.2792
12.783
12.2482
17.82
17.5233
15.8592
14.5041
12.9862
22.364
20.7632
19.2593
29.8172
27.7861
25.8769
24.0657
38.9929
36.6001
31.9796
34.2447
45.7129
44.7935
44.1821
46.9267
49.7247
50.9992
51.5587
51.5233
47.4091
50.0428
52.4545
54.5179
45.2729
48.2734
51.3322
42.4391
45.0028
48.6428
52.3777
48.5249
42.5611
42.9353
44.0358
44.5502
43.79
43.0135
45.2246
44.7811
46.2727
46.524
44.992
38.3541
36.8139
42.8816
42.7232
50.8699
40.3522
69.4001
35.3993
37.5333
1.0952
1.19242
1.3052
1.35902
1.31881
1.22575
1.08828
1.01374
1.00312
0.994115
0.979921
0.953695
0.946757
0.958342
0.992683
1.05258
1.26872
3.1277
10.2676
12.6604
11.0266
11.0501
11.7935
11.2909
8.59327
4.25886
2.99044
3.33482
2.90551
3.69667
4.84288
4.08725
7.76937
6.0554
12.239
9.93765
15.5439
14.1616
11.073
10.0207
12.1522
11.779
8.40322
7.54313
11.4109
9.669
18.9964
18.7519
17.29
15.7119
13.9628
23.6774
22.06
20.5073
31.151
29.1406
27.2126
25.3927
41.2449
38.3927
33.347
35.7469
50.7759
49.192
46.1943
49.8347
56.1184
57.0412
57.2429
56.7899
54.2507
56.9173
59.2256
61.0809
52.0968
55.5004
58.6736
47.8916
52.0757
56.2919
60.892
56.51
46.3833
44.906
47.3468
50.0458
46.1969
45.6975
48.472
48.3935
51.7659
51.4091
48.328
42.058
40.8783
46.9605
47.7097
49.1131
46.8727
66.2871
39.2015
41.8772
1.22103
1.32756
1.38607
1.36739
1.28232
1.14055
1.04619
1.0325
1.05257
1.06246
1.08826
1.12646
1.18081
1.21683
1.24525
1.3414
2.36588
7.97364
12.5277
11.113
10.644
11.4038
11.1277
9.10791
5.27637
2.87629
3.05621
2.81559
2.72084
3.22783
3.64644
3.4048
4.44928
3.97263
6.17611
5.15773
8.73079
7.43385
6.06893
5.53983
7.02321
6.56711
8.04899
6.67472
14.2527
12.3035
10.5909
20.1906
19.9892
18.6556
17.2929
15.8471
24.7565
23.1808
21.6611
31.8108
29.962
28.1573
26.419
42.4968
39.1346
33.878
36.2457
55.3568
52.9818
47.7266
52.4515
62.381
62.8634
62.8334
61.8915
61.5401
64.0502
66.1122
67.6551
60.0633
63.5586
66.6951
54.6528
59.7626
65.1071
70.1952
65.0415
51.3601
49.2046
54.2843
56.9349
52.512
51.2363
56.2711
57.9544
64.5003
64.1643
56.6256
47.1902
45.2863
53.7275
54.1167
30.6628
52.5344
67.3901
43.5057
47.5321
1.3962
1.4291
1.41807
1.34387
1.20603
1.08455
1.07247
1.10854
1.18965
1.31955
1.55165
1.77683
1.88816
1.85671
1.75222
2.25972
5.88777
11.9895
11.3795
10.3555
11.0554
11.1107
9.7437
6.69776
3.15718
2.52454
2.93663
2.73742
2.6528
3.06642
3.3873
3.21988
3.78028
3.57472
4.28546
4.0102
5.04691
4.62583
5.0409
4.71204
5.90728
5.41826
10.4999
7.87476
15.6996
14.0095
14.1369
12.0805
21.3338
21.1413
19.8496
18.545
17.1774
25.7401
24.2008
22.7271
32.184
30.5974
28.9714
27.354
43.0565
39.169
33.9835
36.1511
59.7537
56.58
49.8609
55.9085
68.5896
68.8368
68.6552
67.3156
69.4353
71.7103
73.5544
74.9846
69.135
72.8742
76.1683
63.8267
71.6335
75.2443
86.2594
79.3399
61.7419
59.7904
70.3523
71.4517
67.2004
60.7193
73.8537
75.206
85.6651
78.1203
68.9093
52.4883
50.8073
61.8541
60.9139
21.3682
57.3532
74.442
49.3898
51.3092
1.5473
1.47966
1.40861
1.28067
1.1405
1.10851
1.1821
1.349
1.75501
2.48754
3.31794
3.7553
3.63338
3.09465
2.61367
4.81759
10.5528
11.3691
10.1876
10.6855
11.1205
10.2829
7.90856
3.76426
2.50525
2.46887
2.57733
2.39171
2.8467
2.67692
2.97574
3.27617
3.12016
3.61677
3.44293
3.9982
3.80215
4.4356
4.20571
5.07012
4.68791
6.4263
5.60416
13.2286
13.5973
11.0417
9.4095
17.101
15.6682
15.2516
22.4516
22.3908
21.0587
19.7784
18.4598
26.874
25.334
23.8383
32.6387
31.4394
29.9971
28.4868
43.7005
38.9925
34.0073
35.7572
64.8065
61.0211
54.0135
60.9077
75.6792
75.8287
75.3314
73.7401
78.9793
81.3577
83.3158
84.5545
80.2596
85.0813
89.463
82.9519
94.8513
92.6373
122.397
109.255
83.7526
79.9231
97.8281
101.278
92.3807
70.6189
89.3285
106.492
110.777
90.7965
79.8216
59.3881
56.8045
70.3009
68.7455
26.1452
63.372
79.3335
52.3287
54.3847
1.63767
1.48012
1.37062
1.20535
1.16264
1.24301
1.5481
2.35548
3.83656
5.2338
5.74559
5.57337
4.9934
4.07195
4.70915
9.07725
11.1248
10.1148
10.4107
11.1121
10.7021
8.95946
4.9091
2.59824
2.28885
2.53585
2.40483
2.34648
2.78016
2.61869
2.90003
3.18725
3.03561
3.53207
3.35241
3.93075
3.72571
4.39124
4.15347
5.38823
4.86532
7.30897
6.11983
14.894
14.2554
12.4756
11.7575
9.67999
18.2883
16.8139
16.5221
23.7622
24.0245
22.4998
21.1037
19.6883
28.34
26.7696
25.2233
33.4776
32.6876
31.4336
29.9837
46.1848
39.714
34.3355
35.7858
70.8802
66.6494
60.5838
67.6877
85.0647
85.0615
83.9229
81.9662
93.049
96.0247
98.1381
99.3265
99.7827
108.464
114.547
126.871
166.088
138.93
206.479
203.494
124.961
122.704
169.015
163.879
149.288
79.7484
113.091
155.193
158.747
114.132
91.098
65.0921
60.0941
78.1803
74.5541
74.948
62.9751
76.6629
56.927
54.3277
1.65332
1.45209
1.30458
1.21863
1.30911
1.73957
3.02857
5.13538
6.70971
7.15839
6.99835
6.50904
5.76938
5.23442
8.15278
10.4919
9.99567
10.1718
11.0469
11.0076
9.80455
6.2925
2.84864
2.24637
2.19319
2.48406
2.37178
2.30542
2.72182
2.57705
2.84188
3.13172
2.97872
3.48715
3.30155
3.91031
3.68833
4.46325
4.15674
5.62776
4.99761
8.24448
6.56499
16.0306
15.5194
13.5874
12.6577
10.7894
19.6504
18.0897
17.7899
25.4962
26.3538
24.5627
22.9396
21.2256
30.2316
28.6276
27.0612
34.7662
34.2441
33.2269
31.8421
51.164
43.2147
35.5235
37.172
78.6498
74.0408
70.7579
77.1481
99.7737
99.1661
96.3135
93.3602
120.438
123.353
125.958
127.135
164.923
201.138
196.334
204.53
201.459
224.868
482.046
471.05
204.516
197.263
192.145
217.938
204.167
90.282
161.199
212.509
218.252
162.975
114.117
69.9243
67.4006
87.6848
83.6928
107.368
56.9909
84.352
58.6523
53.2093
1.63484
1.39234
1.29443
1.35974
1.89528
3.58749
6.1563
7.70464
8.05359
7.93
7.56143
7.04823
6.55611
7.87354
9.7765
9.67015
9.88555
10.8742
11.2078
10.4214
7.63681
3.27444
2.25024
2.10555
2.10603
2.25103
2.44844
2.33425
2.68286
2.5438
2.80532
3.09896
2.94405
3.45877
3.27025
3.90493
3.66822
4.5299
4.18403
5.81307
5.05387
9.96363
8.26744
7.09537
17.4507
17.0145
14.7866
13.936
11.6789
21.5432
19.5915
19.5816
27.8884
29.7619
27.6797
25.7776
23.5968
32.6761
31.1077
29.5667
36.5562
35.9595
35.2652
34.1314
59.7976
51.1397
38.0258
40.7461
89.1506
84.5693
85.6292
90.8447
127.621
124.995
118.629
111.39
204.85
201.355
197.553
192.369
240.828
431.291
444.589
474.681
477.175
468.262
887.017
873.483
483.03
479.158
468.204
486.281
475.006
112.469
223.174
479.048
478.123
230.247
164.821
83.2672
71.8372
107.904
112.734
134.582
56.4894
111.02
62.2966
54.0178
1.59303
1.36942
1.41074
1.9889
3.94339
6.86487
8.31744
8.60095
8.45752
8.19109
7.84766
7.5301
7.94558
9.13673
9.15418
9.57944
10.6903
11.306
10.8497
8.69362
3.87852
2.2979
2.04721
2.00835
2.0797
2.22301
2.16911
2.00512
2.41496
2.29394
2.65125
2.50996
2.77517
3.07101
2.915
3.43704
3.24443
3.89465
3.65167
4.54109
4.17982
6.09103
5.12627
10.5906
9.02529
7.80549
19.5254
19.4136
16.4498
15.6242
12.8231
24.6969
21.9996
22.5658
31.35
34.6285
32.2976
30.0158
27.4016
36.039
34.6278
33.1541
39.9824
38.5359
37.8125
37.1468
73.3752
64.8112
43.7146
50.3648
103.927
100.673
106.472
112.553
184.187
178.113
164.745
152.015
435.155
439.29
427.185
430.211
473.876
839.606
837.336
882.795
874.127
830.119
2555.36
2489.07
887.777
906.273
878.241
888.203
896.49
162.526
476.775
894.956
888.375
487.493
231.979
91.6333
83.8512
168.439
123.069
123.654
61.0781
138.351
68.6653
57.0737
1.54672
1.45281
1.99161
4.10502
7.28086
8.70337
8.8993
8.77982
8.48979
8.16667
7.98359
8.07993
8.61858
8.75664
9.32765
10.5993
11.3391
11.1279
9.42532
4.62165
2.38962
2.01279
1.93474
1.89571
2.14056
2.01906
2.259
1.95797
2.37802
2.61864
2.47607
2.74252
3.04098
2.88307
3.41196
3.21732
3.86942
3.62669
4.5457
4.15964
6.45551
5.26623
11.7051
9.62959
7.6143
10.5118
9.46996
23.0609