/*--------------------------------*- C++ -*----------------------------------*\
  =========                 |
  \\      /  F ield         | OpenFOAM: The Open Source CFD Toolbox
   \\    /   O peration     | Website:  https://openfoam.org
    \\  /    A nd           | Version:  dev
     \\/     M anipulation  |
\*---------------------------------------------------------------------------*/
FoamFile
{
    version     2.0;
    format      ascii;
    class       volScalarField;
    location    "2500";
    object      p_rgh;
}
// * * * * * * * * * * * * * * * * * * * * * * * * * * * * * * * * * * * * * //

dimensions      [1 -1 -2 0 0 0 0];

internalField   nonuniform List<scalar> 
9729
(
0.00401556
0.0052267
0.00467402
0.00536974
0.00791982
0.00414004
0.00514746
0.00927818
0.00797881
0.0033179
0.0045725
0.00957671
0.010262
0.00692736
0.00236248
0.00417455
0.00931278
0.011767
0.00992361
0.00572074
0.00175257
0.00351015
0.00847642
0.0122562
0.0120543
0.00903757
0.0048408
0.0012325
0.00298762
0.00719343
0.012066
0.0135733
0.0111762
0.00744941
0.0038401
0.00078817
0.00294897
0.00671637
0.0118046
0.0141382
0.0134334
0.0100211
0.00646778
0.00323633
0.000361866
0.00244551
0.00614569
0.0109923
0.0142175
0.0148696
0.0126996
0.00894211
0.00550481
0.00249157
1.62398e-05
0.00239251
0.00580646
0.009936
0.0138001
0.0155104
0.0144304
0.0112927
0.00774764
0.00453507
0.00197412
-0.00038254
0.00215601
0.00482237
0.00859368
0.0128887
0.0156996
0.0157129
0.0133924
0.00977087
0.00667455
0.00367339
0.00149533
-0.000847989
0.0017225
0.00445472
0.00761996
0.0123492
0.0155425
0.0164846
0.0150815
0.0121829
0.00843357
0.00554007
0.00326603
0.00105087
-0.00115091
0.00155674
0.00414494
0.00722291
0.0117182
0.0148451
0.0168387
0.0161889
0.0137877
0.0106153
0.00763898
0.00498951
0.00261545
0.000547552
-0.00151804
0.00137745
0.0040024
0.00683975
0.0101701
0.0142924
0.0167993
0.017188
0.0156423
0.0126023
0.00956716
0.00670706
0.00444292
0.00217823
0.000148964
-0.0019309
0.0012006
0.00365481
0.00603379
0.00894054
0.0136321
0.0161926
0.0175346
0.0166946
0.0139969
0.0112053
0.00842003
0.00583971
0.00366942
0.00170836
-0.000199413
-0.00222725
0.00104082
0.00326961
0.00573815
0.00881428
0.0122876
0.0157449
0.0176629
0.0177072
0.016086
0.0130502
0.0101329
0.00731188
0.0053737
0.003213
0.00119069
-0.000575147
-0.00253781
0.000996296
0.00309014
0.00542193
0.00772162
0.0113709
0.0149945
0.0173234
0.0180942
0.0171509
0.0146435
0.0116802
0.00905064
0.00674165
0.00474331
0.00269238
0.000842737
-0.000900349
-0.00281176
0.000762963
0.00265421
0.00499139
0.00714945
0.0107358
0.013366
0.0170066
0.0181032
0.0179183
0.0157923
0.0133959
0.0106175
0.007923
0.00593789
0.00421383
0.00238926
0.000487311
-0.00127842
-0.00309846
0.000736908
0.00253574
0.00443635
0.00669436
0.010001
0.0124346
0.0164537
0.0181328
0.0184037
0.0173039
0.0145173
0.0119442
0.00958918
0.00752559
0.00563889
0.00366458
0.00201674
0.00016989
-0.00151372
-0.00336048
0.000613297
0.00224565
0.0042301
0.00619048
0.00935779
0.011977
0.0154549
0.0179385
0.018575
0.0180251
0.0161668
0.0135649
0.0105854
0.00861121
0.00684603
0.00511532
0.0032665
0.0015953
-0.000113212
-0.00176291
-0.00358003
0.000438721
0.00204821
0.0039229
0.00593575
0.00870322
0.0112919
0.0142419
0.0175132
0.0184672
0.0184057
0.016998
0.0149109
0.0120707
0.00994551
0.00804583
0.00632961
0.00465027
0.0030018
0.00133162
-0.000399446
-0.00201744
-0.00375812
0.000407352
0.00177357
0.00362531
0.00570596
0.0080264
0.0107857
0.0131635
0.016934
0.0185229
0.0186728
0.0179474
0.0160069
0.0136978
0.011092
0.00918302
0.00751649
0.0058509
0.00420981
0.00261572
0.000999982
-0.000623926
-0.00231438
-0.00400049
0.000346891
0.00163815
0.00338957
0.00543744
0.00756234
0.0098673
0.0122098
0.0161825
0.0180392
0.018911
0.018419
0.0169526
0.0145136
0.0122052
0.0102539
0.00840435
0.00695184
0.0054313
0.0038556
0.00235837
0.000733609
-0.000879427
-0.00241523
-0.00419996
0.000271679
0.00150899
0.00309153
0.00505091
0.00716559
0.00943535
0.0120736
0.0154204
0.0174665
0.0186766
0.0187753
0.017459
0.0155959
0.0136032
0.0113587
0.00971672
0.00804762
0.00640233
0.00505025
0.00355279
0.00210096
0.000532334
-0.000981869
-0.00259881
-0.00426653
0.00012976
0.00138002
0.00302512
0.00472007
0.00640879
0.00871412
0.0113623
0.0140494
0.016926
0.0183938
0.0188516
0.0183637
0.0167294
0.0145518
0.0126095
0.0107151
0.00894948
0.00764068
0.00610675
0.00475104
0.00329735
0.00194427
0.000336184
-0.00113519
-0.00281055
-0.00438498
5.41652e-05
0.00139489
0.00287097
0.00452132
0.0062014
0.00834858
0.011002
0.0135483
0.0162053
0.0180377
0.0187725
0.018639
0.0174334
0.0155687
0.0134979
0.0115042
0.0101758
0.00865486
0.00711734
0.00584954
0.00431202
0.00302358
0.00175124
0.000294115
-0.00127367
-0.0028112
-0.0045322
3.08832e-05
0.00110917
0.00245643
0.00429259
0.00600127
0.0078577
0.0102156
0.0127391
0.0151304
0.0176745
0.018503
0.0187421
0.0180178
0.016416
0.0144017
0.0125894
0.0109126
0.00959619
0.00822825
0.00684592
0.0056034
0.004266
0.00282049
0.00158888
0.000212664
-0.00134925
-0.00282653
-0.00451464
9.4113e-06
0.000978129
0.00247519
0.0039707
0.00577401
0.0075111
0.00983047
0.0125298
0.0143149
0.0171059
0.0182456
0.0186135
0.0183234
0.0171159
0.015438
0.0135282
0.0118639
0.0104351
0.0090542
0.00769322
0.0065866
0.0053205
0.00408654
0.00268079
0.00149619
0.000129766
-0.00130135
-0.0028585
-0.00453372
-2.17516e-05
0.00112719
0.00235088
0.00381046
0.00545112
0.00717132
0.0092779
0.0117941
0.013576
0.0165072
0.0178048
0.0185451
0.0184339
0.0173563
0.0162532
0.0143042
0.012623
0.0112631
0.0099876
0.00866768
0.00743211
0.00629713
0.00506921
0.00380305
0.00272414
0.00151021
8.36348e-05
-0.00131281
-0.00278589
-0.00451883
9.62618e-05
0.00111717
0.00201034
0.0033149
0.00517341
0.00716587
0.00890974
0.0109403
0.0132082
0.0158541
0.0173086
0.018156
0.0184483
0.0178061
0.0168194
0.0151243
0.0133495
0.0118974
0.0106994
0.0095232
0.00830402
0.0072013
0.00611011
0.00487358
0.00383312
0.00266533
0.00154633
0.00024729
-0.00116501
-0.0026556
-0.00435153
3.28692e-05
0.00103671
0.00216206
0.00349337
0.00485397
0.00678378
0.00837665
0.0102535
0.0128142
0.0149412
0.0167725
0.0178642
0.0182089
0.0181217
0.0172086
0.0157653
0.0141399
0.0126469
0.0113435
0.0102934
0.00918361
0.00797491
0.00699847
0.00597328
0.0048249
0.00386139
0.00278136
0.00159147
0.000366431
-0.000970769
-0.00250531
-0.00415404
-2.29552e-05
0.000981544
0.00207828
0.00334802
0.0048864
0.0066328
0.00811475
0.00988726
0.0122191
0.0141043
0.0159736
0.0174154
0.0181368
0.0182207
0.0175251
0.0163568
0.014637
0.0134083
0.012162
0.0109927
0.00992261
0.00882849
0.00784763
0.00680957
0.00584879
0.00493495
0.00387774
0.00288122
0.00178956
0.000581214
-0.000697018
-0.00216359
-0.00388902
9.68593e-05
0.000984871
0.00195578
0.00313084
0.00461031
0.00614329
0.00803917
0.00962823
0.0117037
0.0135033
0.0154159
0.0169254
0.017722
0.0180811
0.0176394
0.0167729
0.0154341
0.0139769
0.0127232
0.011659
0.0105131
0.0095611
0.00861415
0.00777217
0.00682929
0.0058698
0.00500219
0.0041092
0.0030862
0.00201434
0.000922555
-0.000426556
-0.00183206
-0.00458163
-0.0034086
9.4316e-05
0.000879602
0.00188881
0.00294055
0.00440224
0.00588299
0.00757665
0.00923539
0.0110612
0.0129486
0.0148073
0.0164024
0.0173936
0.0177909
0.0177508
0.016987
0.0159209
0.014578
0.0133998
0.0121908
0.0112513
0.0102056
0.0093046
0.00848815
0.00754627
0.00667811
0.00593466
0.00498064
0.00422913
0.00342196
0.00236048
0.0012827
8.82419e-06
-0.00223092
-0.00113089
-0.00436886
-0.00314602
0.000105601
0.000681896
0.00176697
0.00258523
0.00431189
0.00560928
0.00709302
0.00879697
0.0105083
0.0123405
0.0140957
0.0157512
0.0169251
0.0175588
0.0176465
0.0171972
0.0161229
0.015053
0.0139066
0.0127537
0.0117163
0.0107998
0.00991772
0.00908089
0.00829647
0.0075466
0.00680245
0.00602985
0.00537909
0.00451598
0.00378175
0.00282624
0.000954857
0.00180721
-0.000146428
0.00114735
0.000757953
-0.00204259
-0.000891289
-0.00414482
-0.0028886
8.90102e-05
0.000800599
0.00168904
0.00242004
0.00412908
0.00537846
0.00679045
0.00837669
0.00998456
0.0117181
0.0133845
0.0151204
0.0163863
0.0171883
0.0174642
0.0171863
0.0165353
0.015306
0.014223
0.0133306
0.0123237
0.0114656
0.0104587
0.00972719
0.00899538
0.0082581
0.00758431
0.00682432
0.00624865
0.00568017
0.00487585
0.00421515
0.00262675
0.00338753
0.00202119
0.000134173
0.00165453
0.00108721
-0.0017559
-0.00058293
-0.00392252
-0.00258455
9.47323e-05
0.000636475
0.00159833
0.00260041
0.00391023
0.00506499
0.00642463
0.00787802
0.00946412
0.0111102
0.0127794
0.0144632
0.0158345
0.0167362
0.0171757
0.0172032
0.0166819
0.015757
0.0147208
0.0137174
0.0128082
0.0118686
0.0110873
0.010284
0.00951572
0.00886547
0.0082377
0.00771969
0.00712158
0.00648263
0.00594063
0.00531113
0.00411964
0.00465647
0.00281413
0.00350772
0.00252893
0.000520735
0.00200469
0.00145564
-0.00135327
-0.000192774
-0.00363729
-0.00222211
4.44569e-05
0.000727004
0.00161044
0.00243029
0.00356288
0.00486239
0.00613035
0.00746713
0.00897151
0.0105159
0.0120838
0.0137396
0.0152366
0.0162241
0.0168983
0.0170313
0.0167446
0.0159542
0.0148904
0.0140511
0.0131961
0.0122668
0.0115191
0.0107686
0.0100368
0.00937248
0.00875198
0.00827472
0.00774228
0.00731123
0.00677751
0.00627507
0.00519684
0.00577474
0.004199
0.0048353
0.00323261
0.00389208
0.00281824
0.000904008
0.00237268
0.00188583
-0.000947189
0.000211169
-0.00330175
-0.00185361
-9.04457e-06
0.000677847
0.00142615
0.00233732
0.00312659
0.00457535
0.00574589
0.00704726
0.0084143
0.0099365
0.0114865
0.0130556
0.0146069
0.0157012
0.0164596
0.0168031
0.0167147
0.0160899
0.0152062
0.0143246
0.0135556
0.0126381
0.0119188
0.0110991
0.0104682
0.00977728
0.00930935
0.0087765
0.00826286
0.00795548
0.00758571
0.00716969
0.00627818
0.00674529
0.00541618
0.00598573
0.00457981
0.00521652
0.00359964
0.00433231
0.00322956
0.00133764
0.00283383
0.00238353
-0.000519939
0.000687328
-0.00289372
-0.0014479
2.80796e-06
0.000555699
0.00118907
0.00221708
0.00304169
0.00428964
0.0053895
0.00660452
0.00792376
0.00934933
0.0108601
0.0123212
0.0139852
0.0151093
0.0159493
0.0164796
0.0165224
0.0161906
0.0154779
0.0146127
0.0138646
0.0131552
0.0122746
0.0115833
0.0109078
0.0102446
0.00956027
0.00907643
0.00874279
0.00840651
0.00827391
0.00796221
0.00724995
0.00762458
0.00648577
0.00699204
0.0057968
0.00635989
0.00501463
0.00563806
0.00404399
0.00479353
0.00371664
0.00185572
0.00336583
0.00294934
-7.38225e-05
0.00121795
-0.00251501
-0.000975782
-7.59712e-06
0.000478887
0.00122967
0.00193308
0.00289706
0.00385254
0.00506219
0.00616614
0.00742319
0.00874836
0.01022
0.0116549
0.0132995
0.0145064
0.0154673
0.0160632
0.0163627
0.0161696
0.0156989
0.0148468
0.0141292
0.0134331
0.0126404
0.0118808
0.0110306
0.0105835
0.00985311
0.00942353
0.00907772
0.00889574
0.00864442
0.00865128
0.00803019
0.00831232
0.00745481
0.00783734
0.00682323
0.00731725
0.006213
0.00675375
0.00548167
0.00609572
0.00454916
0.00531185
0.00427719
0.00243609
0.00397028
0.00357797
0.000459804
0.00180497
-0.00207301
-0.000467987
-9.74048e-05
0.000345636
0.000975245
0.00180019
0.00282468
0.00353673
0.00467517
0.00571701
0.00687172
0.00814451
0.00958656
0.0110305
0.0125614
0.0138187
0.0149013
0.0156423
0.0159943
0.0160504
0.0156668
0.015062
0.0142045
0.0136695
0.0129534
0.0121851
0.0115364
0.0108445
0.0102677
0.00968935
0.0093411
0.00917257
0.00917436
0.00883043
0.0086635
0.00892526
0.00821886
0.00853858
0.00773711
0.00812472
0.0071917
0.00767348
0.00666688
0.00718778
0.00600591
0.00661475
0.00513151
0.00590921
0.00491409
0.00307505
0.00464211
0.00427157
0.00102735
0.00242888
-0.00159022
7.85187e-05
-8.30176e-05
0.000384917
0.000951197
0.00172445
0.00251722
0.0031762
0.00422109
0.00528598
0.00637215
0.00758797
0.00894842
0.0103563
0.0118039
0.0131257
0.0143136
0.0151143
0.0156856
0.0157999
0.0157
0.0150846
0.0144079
0.0138742
0.0132094
0.0125394
0.0118603
0.0111413
0.0105031
0.0099102
0.00955414
0.00934562
0.00930429
0.00954924
0.00919658
0.00941357
0.00882788
0.00908549
0.00846527
0.00876735
0.00807433
0.00843189
0.00759437
0.00805913
0.00717706
0.00767551
0.00660901
0.00721239
0.00579247
0.00659042
0.0056253
0.00376016
0.00538745
0.00502182
0.00163823
0.00310167
-0.00107196
0.000659683
-0.000105343
0.000192766
0.000706791
0.00137322
0.00213504
0.0029629
0.00390105
0.004855
0.00588153
0.00702487
0.00825977
0.00966462
0.0110757
0.0124412
0.013668
0.0145524
0.0152019
0.015541
0.0155091
0.0152943
0.0146669
0.0139598
0.0134793
0.0128119
0.0120867
0.0113187
0.0107619
0.010139
0.00965473
0.00940256
0.00940373
0.00957622
0.00976751
0.00984196
0.00936249
0.00959058
0.00905408
0.00929413
0.00875504
0.00903819
0.00843227
0.00875647
0.00804843
0.00847954
0.00775988
0.00823088
0.00729758
0.00790297
0.00653369
0.00736399
0.00642176
0.00449877
0.00620463
0.00583783
0.00228604
0.00381878
-0.000525121
0.00127002
-0.0001349
0.000158139
0.00066015
0.00124553
0.00199913
0.00274113
0.00347775
0.0044374
0.00536267
0.00644382
0.00762797
0.00898333
0.0103327
0.0116539
0.0129511
0.0139569
0.0146849
0.0151104
0.0152567
0.0151592
0.0147994
0.0142428
0.0136708
0.0130918
0.0124352
0.0115735
0.0110036
0.0104113
0.00979213
0.00952628
0.00945429
0.00963508
0.00992559
0.00991969
0.0101286
0.00959508
0.00977
0.00931137
0.0095524
0.00906661
0.0093157
0.00881719
0.00909701
0.00857315
0.00895451
0.00843845
0.00889794
0.00809115
0.00873237
0.00737871
0.00827315
0.00731677
0.0052922
0.00712359
0.0067518
0.0029658
0.00457648
4.43853e-05
0.00190219
-0.000150111
0.000108162
0.000449322
0.00101218
0.00172964
0.0023804
0.00311869
0.00396812
0.00484511
0.00584196
0.00699435
0.00826868
0.00961681
0.01096
0.0122538
0.013278
0.0141406
0.0147065
0.0150056
0.0149101
0.0147125
0.0143145
0.0137204
0.0133306
0.012615
0.0119166
0.0111253
0.010595
0.0100029
0.00956656
0.00946386
0.00957641
0.0101786
0.0103691
0.0104439
0.010027
0.0102138
0.0098113
0.0100006
0.00959565
0.00981847
0.00939561
0.00960072
0.00925854
0.00950276
0.00924603
0.00963666
0.00931785
0.00993863
0.00911129
0.0100321
0.00840036
0.00958154
0.00844884
0.00616999
0.00835319
0.00802856
0.00367537
0.00539694
0.000625147
0.00255257
-0.000146799
1.6677e-05
0.000345946
0.000853828
0.00145767
0.00200323
0.00275758
0.00349957
0.00435472
0.00529097
0.00639375
0.00760607
0.00889592
0.0102163
0.0114944
0.0126068
0.0135305
0.0141976
0.0145845
0.014788
0.0145672
0.0143663
0.0138994
0.0134243
0.0127819
0.0121153
0.0114146
0.0106821
0.0100734
0.00953566
0.00934409
0.00948536
0.00993238
0.0106243
0.0104472
0.0106162
0.0107043
0.0102482
0.0104067
0.0101093
0.0101985
0.00989152
0.0100873
0.00980061
0.00998515
0.0100199
0.0104433
0.0106694
0.0117229
0.0112634
0.0133401
0.0112065
0.0141043
0.0101562
0.01315
0.0108087
0.00741855
0.0113705
0.0115298
0.00442029
0.00650232
0.00120707
0.00321291
-0.000118362
-4.4781e-05
0.000223809
0.00063003
0.00116597
0.00172062
0.00240126
0.00306949
0.00386853
0.00474708
0.00579862
0.00692456
0.0081664
0.00947709
0.0107471
0.0118755
0.0128487
0.0135868
0.0141546
0.0144146
0.0144561
0.0142265
0.0141151
0.0136525
0.0133397
0.0125662
0.0116656
0.0108312
0.0100592
0.00943038
0.00903231
0.00914347
0.0096927
0.010247
0.0108363
0.0108722
0.0109569
0.0109578
0.0105543
0.0106319
0.0104204
0.0104646
0.0102785
0.0104888
0.0109574
0.0114063
0.0132414
0.0151808
0.0170611
0.0224094
0.0196928
0.0303948
0.019519
0.0326308
0.0161523
0.028678
0.0199293
0.0109845
0.0237812
0.0262459
0.00532073
0.00946251
0.00175281
0.00391377
-5.19866e-05
-5.48127e-05
8.16091e-05
0.000395441
0.000875843
0.0014009
0.00201332
0.00267946
0.0034102
0.00424336
0.00521021
0.00626491
0.00745509
0.00873952
0.00995371
0.0111324
0.012172
0.0130147
0.0136174
0.0140446
0.014195
0.0141257
0.0139658
0.0138109
0.0134937
0.0129721
0.0121727
0.0112093
0.0101651
0.00928355
0.00866398
0.0085325
0.00901284
0.0101569
0.0110596
0.0108275
0.0111684
0.0110645
0.0112811
0.0114088
0.0108357
0.0109757
0.0108184
0.0109253
0.0118617
0.0123024
0.0174743
0.0197732
0.029662
0.0380897
0.0458497
0.0648222
0.057431
0.0904392
0.0551497
0.100863
0.0417499
0.0880893
0.0570342
0.0259835
0.0714375
0.0805909
0.00728731
0.0218399
0.00221399
0.00495509
-3.20946e-05
1.47708e-05
0.000248157
0.000642755
0.0010894
0.00165407
0.00226295
0.00294965
0.00371467
0.00460878
0.00562016
0.00676144
0.00798199
0.00920397
0.010408
0.0114422
0.012331
0.0130543
0.0134946
0.0137887
0.0139773
0.0139715
0.0137979
0.0136187
0.0134312
0.0127644
0.0117803
0.0106384
0.00937532
0.00837671
0.00781024
0.00807894
0.00925142
0.0108932
0.0102331
0.0116461
0.011472
0.0115913
0.0115855
0.0119798
0.012315
0.0112942
0.0116118
0.0126649
0.0131018
0.0220709
0.0242507
0.0471789
0.0559012
0.085822
0.106535
0.126588
0.161817
0.15438
0.207464
0.157602
0.229109
0.127178
0.219326
0.166482
0.0803529
0.196448
0.21175
0.0147124
0.0666431
0.00262633
0.007757
-9.97415e-06
0.000116423
0.00040635
0.000787761
0.00130071
0.00186471
0.00250376
0.00321392
0.00404572
0.0049735
0.0060801
0.00724206
0.0084591
0.00961008
0.0106877
0.0116557
0.0124082
0.0129942
0.0134191
0.0135825
0.0136635
0.0137649
0.0136887
0.0135865
0.0132603
0.0124729
0.0112566
0.00980912
0.00827297
0.00721268
0.00717727
0.00836653
0.0106961
0.0114573
0.0116428
0.0129743
0.013143
0.0125893
0.0128049
0.0150903
0.0158594
0.0136599
0.0144125
0.026045
0.0276009
0.0643784
0.0718863
0.125467
0.141558
0.19399
0.221111
0.254287
0.292473
0.293386
0.344723
0.302555
0.37018
0.274448
0.365724
0.317964
0.134904
0.215173
0.345239
0.353291
0.283834
0.0420917
0.196122
0.105646
0.192227
0.00318089
0.0163854
2.4937e-05
0.000215668
0.000529732
0.000953761
0.00148199
0.00206666
0.0027308
0.00350416
0.00438203
0.00541269
0.00651724
0.00772828
0.00883159
0.00994013
0.0109029
0.0117183
0.012407
0.0128798
0.0131283
0.0133564
0.0135689
0.0135974
0.013619
0.0135406
0.0130738
0.0120485
0.0104865
0.00862775
0.00697088
0.00672232
0.00855198
0.0120959
0.0156928
0.0176338
0.0133321
0.0138838
0.017836
0.019034
0.0164214
0.0172107
0.0318561
0.0331834
0.0289965
0.0305107
0.0776833
0.0818967
0.155318
0.165957
0.24276
0.259209
0.322321
0.344453
0.38266
0.409598
0.421863
0.455867
0.433628
0.481996
0.413685
0.470473
0.440079
0.393049
0.439339
0.279981
0.409883
0.462791
0.449142
0.414675
0.351692
0.0616651
0.142156
0.158593
0.27172
0.25357
0.00269966
0.0936025
0.0177556
0.0615383
5.56232e-05
0.000295573
0.000649641
0.00113109
0.00165268
0.00227477
0.00298623
0.00381206
0.00476333
0.00582982
0.0069938
0.00807274
0.00918049
0.0101721
0.0110118
0.0117126
0.0122502
0.012707
0.0129413
0.0131748
0.013439
0.0137223
0.0136798
0.0135631
0.0128447
0.0114358
0.0094813
0.00783812
0.00847642
0.0127927
0.0195467
0.0240877
0.0247178
0.0265637
0.0340232
0.0202622
0.0230063
0.0373974
0.0400648
0.0343276
0.0357803
0.0865132
0.0866817
0.0846662
0.0860534
0.173132
0.177489
0.271403
0.279585
0.359831
0.369111
0.42713
0.434657
0.475909
0.483642
0.485689
0.496429
0.504693
0.51045
0.494182
0.514787
0.51806
0.539707
0.529261
0.488019
0.476372
0.509486
0.5149
0.491299
0.347008
0.468325
0.513802
0.504095
0.47173
0.413957
0.197252
0.230862
0.335688
0.31779
0.00115879
0.00789361
0.0266729
0.153896
0.0985867
7.8329e-05
0.000369083
0.000779715
0.00126347
0.00182549
0.00248793
0.00325542
0.00414173
0.00515089
0.00626322
0.00734878
0.00842354
0.00943637
0.0103128
0.0110277
0.0116198
0.0120526
0.0124262
0.0127628
0.0131566
0.0135256
0.0139087
0.013856
0.0135986
0.0125469
0.0109181
0.0105398
0.0166396
0.0291281
0.0408472
0.0586786
0.0412239
0.06033
0.0560293
0.0659634
0.0433302
0.0490462
0.0885138
0.0910651
0.0867299
0.0872354
0.178282
0.176207
0.17944
0.179541
0.284005
0.285433
0.373433
0.374018
0.435084
0.430049
0.481026
0.471173
0.512946
0.512421
0.509448
0.503634
0.526417
0.530568
0.531132
0.534667
0.548783
0.545387
0.561644
0.557631
0.533866
0.5246
0.550461
0.552759
0.538277
0.407996
0.519978
0.549786
0.558654
0.523161
0.470657
0.291888
0.255822
0.39607
0.377152
-0.00019929
0.0104504
0.0453836
0.207752
0.144047
9.40672e-05
0.000438413
0.000882557
0.0014002
0.00200934
0.00271829
0.00354547
0.0044932
0.00555203
0.0066449
0.00766779
0.00869705
0.00960074
0.0103273
0.0109506
0.0114298
0.0118334
0.0122436
0.0127293
0.0132416
0.0138577
0.0141864
0.0141149
0.0136172
0.0126533
0.01484
0.0306865
0.0560273
0.0759227
0.0927845
0.112642
0.118138
0.0773645
0.0907942
0.108095
0.118759
0.0947785
0.100701
0.1701
0.170076
0.173802
0.171637
0.278466
0.274175
0.28453
0.282014
0.371831
0.367802
0.422332
0.414351
0.4591
0.444516
0.497211
0.488718
0.480103
0.470299
0.5284
0.523271
0.516464
0.508138
0.547296
0.545596
0.541137
0.56573
0.573036
0.561171
0.572814
0.575009
0.568782
0.564498
0.582768
0.580593
0.576745
0.464354
0.564957
0.587193
0.595677
0.568417
0.522109
0.349783
0.311928
0.452172
0.432811
-0.00479209
0.0657725
0.00964303
0.260131
0.187386
0.00010582
0.000497396
0.000984598
0.00154443
0.00220014
0.0029702
0.00385932
0.00486163
0.00593549
0.00694191
0.00796153
0.00888302
0.00963446
0.0102644
0.0107596
0.0111824
0.0116167
0.012152
0.0127983
0.0134952
0.0142846
0.0145857
0.0144095
0.0141859
0.0187189
0.0431885
0.0829562
0.112561
0.142952
0.196368
0.162673
0.197399
0.130246
0.148199
0.181425
0.19051
0.171524
0.175276
0.261399
0.258799
0.269387
0.264878
0.352328
0.34654
0.363028
0.357901
0.40599
0.398316
0.430161
0.416944
0.460842
0.45089
0.430717
0.498835
0.488373
0.477207
0.465505
0.534789
0.526704
0.517211
0.506421
0.557587
0.551928
0.54424
0.586144
0.586286
0.567888
0.576182
0.582682
0.593481
0.594946
0.604838
0.597365
0.605673
0.516102
0.602335
0.615178
0.623475
0.606603
0.567997
0.404977
0.366215
0.504206
0.485295
-0.0174732
0.0822802
0.00745511
0.31298
0.236664
0.000120825
0.000559338
0.00109077
0.00169803
0.00241234
0.00324517
0.00419364
0.00522735
0.00624732
0.00723453
0.00817315
0.00895248
0.00958218
0.0100782
0.0104864
0.0109088
0.0114471
0.012161
0.0129987
0.0139847
0.0148395
0.0151252
0.015343
0.0210058
0.0511499
0.104255
0.147406
0.187792
0.233423
0.268582
0.274467
0.235778
0.255147
0.202452
0.218568
0.262372
0.268608
0.257458
0.25869
0.330714
0.326808
0.340839
0.335395
0.378615
0.372898
0.391228
0.384694
0.404725
0.394293
0.409901
0.390856
0.453662
0.440987
0.412924
0.42545
0.495077
0.483496
0.472049
0.460559
0.534864
0.524261
0.513419
0.503005
0.560667
0.55152
0.541246
0.595914
0.590817
0.567278
0.572228
0.582519
0.607137
0.614711
0.615906
0.604341
0.623659
0.563022
0.63075
0.632099
0.640198
0.636425
0.607642
0.45809
0.421744
0.552235
0.534883
-0.0408258
0.116417
0.0189112
0.375081
0.308791
0.000140449
0.000628112
0.00120741
0.0018678
0.0026467
0.00354269
0.00453578
0.00556411
0.00652729
0.00747616
0.00828569
0.00891654
0.00940842
0.00978561
0.0101561
0.010646
0.0113532
0.012289
0.0133794
0.0146457
0.0155471
0.0162002
0.0220669
0.0535936
0.116985
0.172249
0.207189
0.238224
0.271635
0.29526
0.288389
0.293738
0.297154
0.278077
0.287416
0.321208
0.321287
0.323558
0.321743
0.357789
0.353411
0.3675
0.362462
0.369709
0.363758
0.384766
0.376625
0.372202
0.358245
0.40106
0.387843
0.363922
0.376489
0.448726
0.436735
0.418433
0.431356
0.49276
0.482883
0.473317
0.463705
0.531155
0.521893
0.513753
0.507061
0.557093
0.54742
0.539177
0.597338
0.587285
0.562221
0.567656
0.576633
0.611461
0.623933
0.617745
0.602445
0.631662
0.604472
0.648171
0.639475
0.647758
0.655639
0.639816
0.51122
0.481205
0.595995
0.581951
-0.0306213
0.20106
0.100797
0.446199
0.408066
0.000166471
0.000706455
0.0013311
0.00205774
0.0029044
0.00385596
0.0048682
0.00584576
0.00679048
0.00763232
0.00828654
0.008773
0.00910785
0.00939926
0.00978928
0.0104173
0.0113653
0.012572
0.0139701
0.015437
0.0165752
0.02168
0.0527359
0.118429
0.180896
0.208421
0.227554
0.246325
0.255299
0.230007
0.298001
0.279991
0.315166
0.308753
0.321155
0.319403
0.340755
0.335756
0.349259
0.345154
0.349542
0.345127
0.358571
0.35393
0.326167
0.32003
0.345164
0.334534
0.340453
0.313578
0.404678
0.38988
0.359506
0.374871
0.453856
0.443085
0.447072
0.460809
0.501882
0.497387
0.493053
0.487722
0.533291
0.530061
0.529797
0.531712
0.554242
0.549824
0.549024
0.591205
0.58069
0.563126
0.574514
0.575101
0.606848
0.623689
0.611377
0.594659
0.630105
0.639683
0.656847
0.637408
0.64619
0.666437
0.662065
0.563264
0.540558
0.634902
0.625079
0.133963
0.376254
0.357359
0.518951
0.508571
0.000198728
0.000789761
0.00147091
0.00227058
0.00318282
0.00417239
0.00517636
0.0061144
0.00700224
0.00769651
0.00818121
0.00848339
0.00868083
0.00892394
0.00941522
0.0102668
0.0115006
0.013037
0.0148192
0.0164496
0.0201069
0.0470703
0.114501
0.178364
0.202051
0.210794
0.197801
0.14452
0.207055
0.159784
0.267447
0.238324
0.308258
0.290674
0.329528
0.321001
0.326615
0.317035
0.340158
0.334139
0.308236
0.304188
0.315437
0.311776
0.254091
0.245776
0.287618
0.268492
0.352835
0.330656
0.310418
0.288924
0.430955
0.412728
0.372458
0.392996
0.480936
0.472035
0.498916
0.514721
0.534781
0.537783
0.539573
0.538968
0.553287
0.561136
0.571582
0.583211
0.563719
0.570385
0.58264
0.585908
0.583428
0.581633
0.601343
0.588144
0.598352
0.616165
0.602898
0.592207
0.621877
0.666361
0.657344
0.629201
0.639035
0.67068
0.675697
0.611049
0.593991
0.667067
0.662458
0.177853
0.511095
0.497183
0.581462
0.582328
0.000234412
0.000879689
0.00162983
0.00250714
0.00347344
0.00448389
0.00545213
0.0063841
0.00712555
0.0076452
0.00792903
0.0080487
0.00811296
0.00839251
0.00904856
0.0102025
0.0118041
0.0137013
0.0158257
0.0186174
0.037342
0.10454
0.171522
0.193211
0.18767
0.147544
0.0843491
0.0765943
0.0528093
0.14182
0.104619
0.211341
0.176888
0.268255
0.242347
0.304763
0.288859
0.280677
0.267721
0.298713
0.290856
0.236413
0.233467
0.240952
0.238511
0.179581
0.158256
0.255482
0.214108
0.376217
0.347269
0.319027
0.292025
0.479435
0.456783
0.404487
0.43158
0.534552
0.526555
0.559541
0.579226
0.594503
0.603903
0.609633
0.610359
0.599039
0.618072
0.637911
0.656648
0.595822
0.615991
0.640473
0.592027
0.601612
0.623055
0.650432
0.62129
0.598028
0.608169
0.603689
0.600638
0.613958
0.684186
0.652484
0.621121
0.631276
0.669111
0.683964
0.652353
0.639898
0.690156
0.692077
0.123837
0.594834
0.503463
0.633076
0.637214
0.000269119
0.000979905
0.00181043
0.00276364
0.00377072
0.00478937
0.00576013
0.00657221
0.00716426
0.00747441
0.00749819
0.00742079
0.00740415
0.00777221
0.00872115
0.0102503
0.012272
0.0146382
0.0172782
0.0285836
0.0851558
0.161153
0.18418
0.169364
0.113545
0.0567047
0.0299223
0.0386553
0.0279048
0.0750392
0.0526417
0.139595
0.105256
0.203677
0.173269
0.251175
0.22991
0.209644
0.194999
0.228622
0.220702
0.14561
0.143556
0.148733
0.146337
0.148103
0.108575
0.276631
0.242494
0.184917
0.213942
0.413678
0.378555
0.343313
0.308818
0.535909
0.509062
0.4477
0.479592
0.604897
0.594507
0.599252
0.627047
0.671974
0.681903
0.685027
0.680006
0.667134
0.693696
0.71731
0.735418
0.651007
0.682699
0.715513
0.614322
0.640651
0.685663
0.718336
0.67677
0.607625
0.608862
0.613021
0.625256
0.6143
0.695985
0.646887
0.621372
0.631147
0.666652
0.687285
0.688523
0.681642
0.706237
0.714321
0.160327
0.636425
0.530684
0.678496
0.681894
0.000303488
0.00109594
0.00201202
0.00303722
0.00407514
0.0051125
0.0060128
0.0067179
0.00710679
0.00712279
0.00683914
0.00652929
0.00652691
0.00710499
0.00843994
0.01048
0.0129358
0.0157833
0.0222462
0.0632879
0.143669
0.175466
0.158643
0.0984982
0.0468408
0.0222836
0.0167293
0.025135
0.021542
0.0372259
0.0297275
0.0682537
0.0496005
0.122643
0.0932092
0.176075
0.151466
0.121081
0.106096
0.139241
0.13212
0.067184
0.0635174
0.0851898
0.0729089
0.189193
0.169718
0.135639
0.110626
0.0870859
0.295138
0.257309
0.221906
0.447271
0.411276
0.373109
0.333948
0.570162
0.54089
0.480497
0.511384
0.668898
0.651147
0.603268
0.636968
0.746132
0.748528
0.741294
0.726811
0.746098
0.771414
0.789193
0.798312
0.723545
0.760369
0.792233
0.65758
0.700234
0.760991
0.793151
0.747337
0.633069
0.616849
0.636584
0.670129
0.619662
0.704222
0.64614
0.62534
0.635977
0.666508
0.688206
0.719107
0.719306
0.71882
0.732227
0.0696479
0.660387
0.435917
0.718665
0.717292
0.000341459
0.00123121
0.00223377
0.00332596
0.00442024
0.00544235
0.00627442
0.00679132
0.0068703
0.00650293
0.00588141
0.00541034
0.00547957
0.00645446
0.008335
0.0108822
0.0138799
0.0182063
0.0437884
0.118703
0.1662
0.151737
0.0921815
0.0435958
0.0197069
0.0119875
0.0147259
0.0187114
0.0127354
0.0210951
0.0255394
0.0232366
0.0332837
0.0285317
0.0535545
0.0412123
0.0882271
0.0698651
0.0489446
0.0422419
0.0595594
0.0548813
0.0355487
0.0306095
0.067178
0.0464857
0.203302
0.185331
0.151225
0.120252
0.093023
0.317159
0.278245
0.239908
0.457445
0.426306
0.392193
0.35548
0.570958
0.541269
0.486296
0.51372
0.702014
0.671241
0.582441
0.624587
0.797374
0.787656
0.768081
0.740493
0.816401
0.8316
0.837232
0.832158
0.799585
0.830445
0.851492
0.717426
0.768829
0.831919
0.854337
0.816646
0.673507
0.635109
0.667795
0.722163
0.63379
0.710301
0.653363
0.638556
0.651856
0.67784
0.691371
0.744434
0.751704
0.730716
0.749739
0.0377421
0.664878
0.31797
0.752748
0.743826
0.000389092
0.00137945
0.00248576
0.00365801
0.00479686
0.00578992
0.00649302
0.00673117
0.00638464
0.00555358
0.0045459
0.00405359
0.00447794
0.00591768
0.00839431
0.0114335
0.0152372
0.0295935
0.0914619
0.153374
0.150545
0.0949509
0.0492208
0.0247644
0.00914042
0.00862311
0.016818
0.0132451
0.0112746
0.0187996
0.0220012
0.0205225
0.0244222
0.0232558
0.027814
0.0257869
0.0359964
0.0310935
0.0248001
0.0237698
0.0279006
0.0261467
0.0321508
0.0260111
0.083584
0.0617024
0.0464429
0.220965
0.200575
0.168949
0.137743
0.108717
0.327847
0.292838
0.257102
0.448434
0.42323
0.394163
0.362003
0.545727
0.516332
0.470824
0.492557
0.705479
0.66637
0.540175
0.591471
0.820688
0.800306
0.7724
0.737548
0.862573
0.862745
0.855499
0.843688
0.85998
0.876581
0.882529
0.776365
0.826858
0.879359
0.889756
0.865982
0.71526
0.661267
0.707209
0.771917
0.660924
0.718636
0.672663
0.668962
0.685464
0.700341
0.706706
0.766567
0.77802
0.745739
0.767063
0.00993975
0.635273
0.192053
0.780701
0.758421
0.000444761
0.00155945
0.00275977
0.00404269
0.00520157
0.00615287
0.00664822
0.00646491
0.0055476
0.00414559
0.00298676
0.00281889
0.00374145
0.00558938
0.00855074
0.0121918
0.0206059
0.065034
0.13334
0.147404
0.105396
0.0594383
0.0320003
0.0100759
0.00442131
0.00694913
0.0151202
0.011867
0.0100695
0.0168665
0.0196765
0.0184053