/*--------------------------------*- C++ -*----------------------------------*\
  =========                 |
  \\      /  F ield         | OpenFOAM: The Open Source CFD Toolbox
   \\    /   O peration     | Website:  https://openfoam.org
    \\  /    A nd           | Version:  dev
     \\/     M anipulation  |
\*---------------------------------------------------------------------------*/
FoamFile
{
    version     2.0;
    format      ascii;
    class       surfaceScalarField;
    location    "2500";
    object      phi;
}
// * * * * * * * * * * * * * * * * * * * * * * * * * * * * * * * * * * * * * //

dimensions      [1 0 -1 0 0 0 0];

internalField   nonuniform List<scalar> 
19286
(
1.53618e-07
1.09653e-07
1.34506e-07
2.77346e-07
4.39054e-07
1.00128e-07
1.11952e-07
3.87531e-07
4.33792e-07
2.82617e-07
6.43512e-07
8.53764e-08
9.29584e-08
4.72338e-07
4.02417e-07
4.18887e-07
6.61653e-07
2.64464e-07
8.08279e-07
7.33909e-08
7.80995e-08
5.40519e-07
3.53714e-07
5.21037e-07
6.61845e-07
4.1867e-07
8.36932e-07
2.35821e-07
9.53359e-07
6.57015e-08
6.5669e-08
6.00936e-07
2.98215e-07
5.96e-07
6.37398e-07
5.45506e-07
8.63192e-07
3.92318e-07
9.79941e-07
2.0924e-07
1.0894e-06
5.98577e-08
5.56572e-08
6.59802e-07
2.46004e-07
6.5316e-07
5.89812e-07
6.43574e-07
8.72718e-07
5.36021e-07
1.0165e-06
3.55707e-07
1.10864e-06
1.90012e-07
1.21603e-06
5.50575e-08
4.87117e-08
7.1635e-07
2.06431e-07
6.99335e-07
5.28642e-07
7.14319e-07
8.58074e-07
6.58239e-07
1.05075e-06
5.01803e-07
1.14165e-06
3.22739e-07
1.23187e-06
1.74197e-07
1.33464e-06
5.08593e-08
4.3763e-08
7.70107e-07
1.80138e-07
7.42644e-07
4.61804e-07
7.66175e-07
8.18304e-07
7.54071e-07
1.0721e-06
6.36913e-07
1.18564e-06
4.5784e-07
1.25973e-06
2.94851e-07
1.3484e-06
1.60411e-07
1.44484e-06
4.72852e-08
4.01083e-08
8.2024e-07
1.63298e-07
7.86968e-07
3.98136e-07
8.06244e-07
7.59254e-07
8.25216e-07
1.07052e-06
7.55608e-07
1.23019e-06
5.92296e-07
1.29867e-06
4.18888e-07
1.37142e-06
2.71825e-07
1.45623e-06
1.49016e-07
1.5485e-06
4.4005e-08
3.76835e-08
8.68063e-07
1.50505e-07
8.33027e-07
3.45038e-07
8.40046e-07
6.88842e-07
8.76656e-07
1.04266e-06
8.53061e-07
1.26328e-06
7.22532e-07
1.34772e-06
5.43256e-07
1.40478e-06
3.8552e-07
1.47626e-06
2.51796e-07
1.55833e-06
1.39172e-07
1.64581e-06
4.0964e-08
3.4737e-08
9.14079e-07
1.38764e-07
8.79782e-07
3.05911e-07
8.72201e-07
6.16686e-07
9.12241e-07
9.93003e-07
9.26269e-07
1.27579e-06
8.40534e-07
1.4005e-06
6.69751e-07
1.44928e-06
4.98683e-07
1.50458e-06
3.57179e-07
1.57564e-06
2.34478e-07
1.65542e-06
1.2955e-07
1.73688e-06
3.81253e-08
3.20721e-08
9.56213e-07
1.29246e-07
9.23626e-07
2.79428e-07
9.06248e-07
5.49887e-07
9.38898e-07
9.2799e-07
9.77182e-07
1.26332e-06
9.38711e-07
1.4455e-06
7.95525e-07
1.50353e-06
6.15559e-07
1.5429e-06
4.60426e-07
1.60138e-06
3.31419e-07
1.67112e-06
2.18769e-07
1.74553e-06
1.20862e-07
1.82255e-06
3.56704e-08
2.98336e-08
9.95e-07
1.21078e-07
9.64358e-07
2.59701e-07
9.43325e-07
4.92023e-07
9.64061e-07
8.55182e-07
1.0116e-06
1.22726e-06
1.0132e-06
1.47288e-06
9.11267e-07
1.56346e-06
7.35666e-07
1.59239e-06
5.65888e-07
1.63534e-06
4.26405e-07
1.69363e-06
3.08899e-07
1.75951e-06
2.04761e-07
1.82993e-06
1.13476e-07
1.90321e-06
3.34381e-08
2.77291e-08
1.03081e-06
1.13194e-07
1.00287e-06
2.42043e-07
9.82013e-07
4.46124e-07
9.89267e-07
7.81406e-07
1.03781e-06
1.17242e-06
1.06649e-06
1.47822e-06
1.00785e-06
1.61965e-06
8.55005e-07
1.65169e-06
6.76492e-07
1.67778e-06
5.2351e-07
1.72362e-06
3.96428e-07
1.78011e-06
2.88316e-07
1.84247e-06
1.92221e-07
1.91032e-06
1.06357e-07
1.97928e-06
3.12378e-08
2.57061e-08
1.06366e-06
1.05397e-07
1.0386e-06
2.26978e-07
1.0179e-06
4.12396e-07
1.01564e-06
7.10671e-07
1.05985e-06
1.10563e-06
1.10456e-06
1.46e-06
1.0847e-06
1.66234e-06
9.6514e-07
1.71771e-06
7.88949e-07
1.73026e-06
6.23968e-07
1.7612e-06
4.85823e-07
1.80688e-06
3.69659e-07
1.86234e-06
2.6841e-07
1.92222e-06
1.80318e-07
1.98615e-06
9.94623e-08
2.05103e-06
2.91247e-08
2.39796e-08
1.09251e-06
9.85542e-08
1.07042e-06
2.14533e-07
1.05103e-06
3.83647e-07
1.0466e-06
6.50316e-07
1.07612e-06
1.03366e-06
1.13178e-06
1.42092e-06
1.14367e-06
1.6862e-06
1.06083e-06
1.78428e-06
8.98549e-07
1.79297e-06
7.26255e-07
1.80756e-06
5.77724e-07
1.84105e-06
4.51625e-07
1.88768e-06
3.44324e-07
1.94035e-06
2.50278e-07
1.99729e-06
1.69163e-07
2.05745e-06
9.30223e-08
2.11883e-06
2.71796e-08
2.2297e-08
1.11832e-06
9.1846e-08
1.0992e-06
2.01326e-07
1.08366e-06
3.57374e-07
1.07725e-06
6.04687e-07
1.0922e-06
9.59231e-07
1.15044e-06
1.36664e-06
1.18604e-06
1.68797e-06
1.14187e-06
1.84187e-06
1.00327e-06
1.86375e-06
8.27752e-07
1.86361e-06
6.70226e-07
1.88255e-06
5.36252e-07
1.91792e-06
4.21387e-07
1.96351e-06
3.21141e-07
2.01386e-06
2.3371e-07
2.06839e-06
1.5821e-07
2.12496e-06
8.69079e-08
2.18239e-06
2.54272e-08
2.04734e-08
1.14063e-06
8.6068e-08
1.1241e-06
1.88134e-07
1.11236e-06
3.36465e-07
1.10454e-06
5.68108e-07
1.11378e-06
8.881e-07
1.16327e-06
1.30404e-06
1.21293e-06
1.66887e-06
1.20505e-06
1.88409e-06
1.09964e-06
1.938e-06
9.29006e-07
1.92863e-06
7.62672e-07
1.93218e-06
6.20589e-07
1.95448e-06
4.99676e-07
1.99215e-06
3.92738e-07
2.03567e-06
2.99253e-07
2.08383e-06
2.18256e-07
2.13527e-06
1.47884e-07
2.18819e-06
8.10962e-08
2.24264e-06
2.35954e-08
1.88765e-08
1.1586e-06
8.01619e-08
1.14649e-06
1.75218e-07
1.137e-06
3.18088e-07
1.13067e-06
5.36037e-07
1.13654e-06
8.29307e-07
1.17245e-06
1.23679e-06
1.23037e-06
1.63218e-06
1.2496e-06
1.90731e-06
1.1818e-06
2.00918e-06
1.02848e-06
2.00225e-06
8.55308e-07
1.99103e-06
7.03692e-07
1.99797e-06
5.77075e-07
2.02589e-06
4.6592e-07
2.06191e-06
3.66544e-07
2.10367e-06
2.79401e-07
2.14976e-06
2.03755e-07
2.19799e-06
1.38077e-07
2.24839e-06
7.53436e-08
2.29912e-06
2.19448e-08
1.71043e-08
1.17312e-06
7.35171e-08
1.16524e-06
1.63393e-07
1.15828e-06
3.01546e-07
1.15346e-06
5.09056e-07
1.15758e-06
7.8338e-07
1.18243e-06
1.16793e-06
1.24126e-06
1.58288e-06
1.27969e-06
1.90937e-06
1.2475e-06
2.0682e-06
1.12276e-06
2.08146e-06
9.49226e-07
2.05761e-06
7.88682e-07
2.04881e-06
6.52809e-07
2.06481e-06
5.38061e-07
2.09263e-06
4.35096e-07
2.12841e-06
3.41806e-07
2.16868e-06
2.60503e-07
2.21235e-06
1.89385e-07
2.25778e-06
1.28639e-07
2.30472e-06
6.97419e-08
2.35233e-06
2.01849e-08
1.55625e-08
1.18364e-06
6.76685e-08
1.17895e-06
1.52717e-07
1.17587e-06
2.86724e-07
1.17307e-06
4.8524e-07
1.17704e-06
7.46876e-07
1.19405e-06
1.10258e-06
1.24756e-06
1.52619e-06
1.29786e-06
1.89282e-06
1.29616e-06
2.11067e-06
1.20494e-06
2.161e-06
1.0431e-06
2.13295e-06
8.74023e-07
2.10881e-06
7.28645e-07
2.11037e-06
6.07352e-07
2.12945e-06
5.01357e-07
2.15769e-06
4.05817e-07
2.19173e-06
3.18718e-07
2.2303e-06
2.42519e-07
2.27108e-06
1.76106e-07
2.31399e-06
1.19369e-07
2.35782e-06
6.42647e-08
2.40206e-06
1.86307e-08
1.41775e-08
1.19032e-06
6.21881e-08
1.18908e-06
1.4241e-07
1.18922e-06
2.72492e-07
1.19004e-06
4.63875e-07
1.19435e-06
7.15822e-07
1.20815e-06
1.04472e-06
1.25168e-06
1.46625e-06
1.30747e-06
1.86093e-06
1.32979e-06
2.13505e-06
1.27183e-06
2.23451e-06
1.13156e-06
2.21552e-06
9.60497e-07
2.1765e-06
8.06417e-07
2.16263e-06
6.76346e-07
2.17154e-06
5.65259e-07
2.19085e-06
4.6818e-07
2.21916e-06
3.78384e-07
2.25211e-06
2.96852e-07
2.28843e-06
2.25173e-07
2.32717e-06
1.62913e-07
2.36711e-06
1.10077e-07
2.40754e-06
5.87906e-08
2.44875e-06
1.67926e-08
1.27616e-08
1.19299e-06
5.66611e-08
1.19584e-06
1.3297e-07
1.1984e-06
2.60268e-07
1.20135e-06
4.46492e-07
1.20734e-06
6.89911e-07
1.22025e-06
9.99594e-07
1.25317e-06
1.40706e-06
1.31084e-06
1.81802e-06
1.35035e-06
2.14071e-06
1.32408e-06
2.29502e-06
1.21128e-06
2.3002e-06
1.04682e-06
2.25204e-06
8.84985e-07
2.22261e-06
7.46476e-07
2.2185e-06
6.29401e-07
2.22943e-06
5.26665e-07
2.25109e-06
4.36258e-07
2.27758e-06
3.52969e-07
2.30948e-06
2.75795e-07
2.3439e-06
2.0842e-07
2.37984e-06
1.50176e-07
2.41678e-06
1.00789e-07
2.45463e-06
5.28847e-08
2.49161e-06
1.60304e-08
1.13604e-08
1.19143e-06
5.15505e-08
1.19806e-06
1.25132e-07
1.20363e-06
2.49228e-07
1.20944e-06
4.30701e-07
1.21704e-06
6.6825e-07
1.2289e-06
9.6519e-07
1.25444e-06
1.35004e-06
1.31008e-06
1.76913e-06
1.35969e-06
2.12953e-06
1.36151e-06
2.34013e-06
1.27893e-06
2.38335e-06
1.1281e-06
2.3365e-06
9.62282e-07
2.29064e-06
8.16836e-07
2.27212e-06
6.92837e-07
2.27318e-06
5.85644e-07
2.28641e-06
4.9131e-07
2.30718e-06
4.06638e-07
2.33382e-06
3.28617e-07
2.3641e-06
2.55595e-07
2.39634e-06
1.919e-07
2.43009e-06
1.36823e-07
2.46408e-06
9.12592e-08
2.49811e-06
4.63617e-08
2.54012e-06
1.35445e-08
1.02131e-08
1.18576e-06
4.77971e-08
1.19514e-06
1.18272e-07
1.20487e-06
2.38695e-07
1.21407e-06
4.17984e-07
1.22202e-06
6.50734e-07
1.23444e-06
9.39124e-07
1.25489e-06
1.29989e-06
1.30443e-06
1.71834e-06
1.36078e-06
2.10491e-06
1.38418e-06
2.36813e-06
1.33347e-06
2.45906e-06
1.20318e-06
2.42563e-06
1.03909e-06
2.36646e-06
8.86422e-07
2.33162e-06
7.57114e-07
2.32133e-06
6.44667e-07
2.32625e-06
5.45771e-07
2.34111e-06
4.57375e-07
2.36163e-06
3.78824e-07
2.38784e-06
3.04861e-07
2.41622e-06
2.35703e-07
2.44661e-06
1.75398e-07
2.47728e-06
1.23695e-07
2.50889e-06
8.04676e-08
2.54692e-06
3.95547e-08
2.57527e-06
1.13229e-08
9.41882e-09
1.17684e-06
4.36601e-08
1.18985e-06
1.11051e-07
1.2023e-06
2.30352e-07
1.21312e-06
4.0992e-07
1.22206e-06
6.3827e-07
1.23435e-06
9.19917e-07
1.25352e-06
1.2582e-06
1.29637e-06
1.66687e-06
1.35577e-06
2.07057e-06
1.39505e-06
2.37901e-06
1.37324e-06
2.5224e-06
1.27009e-06
2.51522e-06
1.11345e-06
2.44982e-06
9.55669e-07
2.39775e-06
8.2048e-07
2.37461e-06
7.03665e-07
2.37043e-06
6.00469e-07
2.37809e-06
5.08755e-07
2.39311e-06
4.25879e-07
2.41452e-06
3.52123e-07
2.43921e-06
2.81863e-07
2.4662e-06
2.1608e-07
2.49406e-06
1.58579e-07
2.52209e-06
1.10467e-07
2.55887e-06
6.85245e-08
2.58309e-06
3.17225e-08
2.60652e-06
8.93803e-09
8.6595e-09
1.16574e-06
3.96855e-08
1.18077e-06
1.05837e-07
1.19497e-06
2.2474e-07
1.20783e-06
4.04157e-07
1.21879e-06
6.30165e-07
1.22997e-06
9.03813e-07
1.25028e-06
1.2251e-06
1.28658e-06
1.61713e-06
1.34596e-06
2.03044e-06
1.39585e-06
2.37385e-06
1.40009e-06
2.57094e-06
1.32465e-06
2.602e-06
1.18345e-06
2.53889e-06
1.0243e-06
2.47152e-06
8.81901e-07
2.43361e-06
7.61616e-07
2.41871e-06
6.55408e-07
2.41894e-06
5.59601e-07
2.42771e-06
4.74117e-07
2.44421e-06
3.96185e-07
2.46531e-06
3.26004e-07
2.48883e-06
2.59254e-07
2.51391e-06
1.96209e-07
2.5393e-06
1.41362e-07
2.5709e-06
9.84031e-08
2.59627e-06
5.53489e-08
2.61504e-06
2.31923e-08
2.63307e-06
5.98974e-09
8.01446e-09
1.15074e-06
3.865e-08
1.16671e-06
1.03198e-07
1.18336e-06
2.20549e-07
1.19914e-06
4.00024e-07
1.21185e-06
6.26789e-07
1.22207e-06
8.92311e-07
1.24117e-06
1.20088e-06
1.27438e-06
1.57171e-06
1.33175e-06
1.98722e-06
1.38912e-06
2.35749e-06
1.41221e-06
2.60398e-06
1.36708e-06
2.68013e-06
1.24648e-06
2.6313e-06
1.09099e-06
2.55281e-06
9.42911e-07
2.49845e-06
8.17e-07
2.47246e-06
7.07818e-07
2.46361e-06
6.10724e-07
2.46528e-06
5.22047e-07
2.47649e-06
4.41799e-07
2.49371e-06
3.67771e-07
2.51387e-06
3.00962e-07
2.53641e-06
2.36765e-07
2.5595e-06
1.75981e-07
2.58766e-06
1.246e-07
2.6121e-06
8.25183e-08
2.6292e-06
4.11803e-08
2.64256e-06
1.36998e-08
2.65389e-06
2.47039e-09
7.86312e-09
1.13181e-06
3.7851e-08
1.15148e-06
1.0007e-07
1.16981e-06
2.17285e-07
1.18651e-06
3.99332e-07
1.19964e-06
6.27809e-07
1.21074e-06
8.85831e-07
1.22823e-06
1.18073e-06
1.26137e-06
1.53205e-06
1.31389e-06
1.94343e-06
1.37547e-06
2.33261e-06
1.41396e-06
2.61964e-06
1.39645e-06
2.74691e-06
1.30025e-06
2.72347e-06
1.15424e-06
2.64115e-06
1.0026e-06
2.56997e-06
8.712e-07
2.53024e-06
7.59229e-07
2.51212e-06
6.59278e-07
2.50648e-06
5.6947e-07
2.51127e-06
4.87199e-07
2.52421e-06
4.11304e-07
2.54139e-06
3.40243e-07
2.56116e-06
2.76168e-07
2.58194e-06
2.14312e-07
2.60824e-06
1.55383e-07
2.63201e-06
1.047e-07
2.64768e-06
6.40303e-08
2.65891e-06
2.48099e-08
2.66543e-06
2.1607e-09
2.66895e-06
-1.41314e-09
7.77095e-09
1.10976e-06
3.68525e-08
1.13276e-06
9.92943e-08
1.1521e-06
2.186e-07
1.16832e-06
4.0326e-07
1.18249e-06
6.31764e-07
1.19555e-06
8.82847e-07
1.21354e-06
1.16484e-06
1.24425e-06
1.50087e-06
1.29243e-06
1.90054e-06
1.3567e-06
2.3003e-06
1.40773e-06
2.62209e-06
1.41143e-06
2.79961e-06
1.34371e-06
2.8126e-06
1.21109e-06
2.73426e-06
1.06108e-06
2.64876e-06
9.23973e-07
2.5931e-06
8.08321e-07
2.5643e-06
7.06984e-07
2.55108e-06
6.14676e-07
2.5492e-06
5.31598e-07
2.55713e-06
4.54193e-07
2.57079e-06
3.81893e-07
2.58821e-06
3.13215e-07
2.60722e-06
2.50886e-07
2.63127e-06
1.91276e-07
2.65547e-06
1.31941e-07
2.67076e-06
8.161e-08
2.68082e-06
4.21166e-08
2.68412e-06
6.07505e-09
2.68127e-06
-1.0148e-08
2.67563e-06
-6.41416e-09
7.76059e-09
1.08525e-06
3.71186e-08
1.10945e-06
1.01608e-07
1.13037e-06
2.2413e-07
1.14642e-06
4.10147e-07
1.16126e-06
6.37572e-07
1.17652e-06
8.83167e-07
1.19508e-06
1.15576e-06
1.22259e-06
1.47599e-06
1.26886e-06
1.85928e-06
1.33355e-06
2.26255e-06
1.39437e-06
2.61339e-06
1.4164e-06
2.83732e-06
1.37364e-06
2.89418e-06
1.2622e-06
2.82956e-06
1.11575e-06
2.73419e-06
9.75618e-07
2.66153e-06
8.55474e-07
2.6208e-06
7.51873e-07
2.59934e-06
6.58655e-07
2.59069e-06
5.73157e-07
2.59249e-06
4.96255e-07
2.60172e-06
4.23266e-07
2.61659e-06
3.53501e-07
2.63425e-06
2.86201e-07
2.65611e-06
2.26058e-07
2.68207e-06
1.64645e-07
2.6972e-06
1.05486e-07
2.707e-06
5.54241e-08
2.70957e-06
1.66933e-08
2.70323e-06
-1.58883e-08
2.69095e-06
-2.54951e-08
2.67126e-06
-1.02295e-08
8.20139e-09
1.05894e-06
3.84955e-08
1.08381e-06
1.045e-07
1.10647e-06
2.32152e-07
1.12224e-06
4.19904e-07
1.13663e-06
6.45248e-07
1.15345e-06
8.87555e-07
1.17196e-06
1.152e-06
1.1987e-06
1.45549e-06
1.24287e-06
1.82119e-06
1.30679e-06
2.22325e-06
1.37277e-06
2.59673e-06
1.41097e-06
2.85986e-06
1.39382e-06
2.96434e-06
1.30334e-06
2.92391e-06
1.16781e-06
2.82444e-06
1.02544e-06
2.73631e-06
9.00797e-07
2.68166e-06
7.9455e-07
2.65065e-06
7.00549e-07
2.63462e-06
6.14686e-07
2.62999e-06
5.35628e-07
2.6342e-06
4.63612e-07
2.64598e-06
3.93847e-07
2.6621e-06
3.25588e-07
2.68175e-06
2.60535e-07
2.71014e-06
1.97969e-07
2.72598e-06
1.3586e-07
2.73708e-06
7.53249e-08
2.74056e-06
2.44191e-08
2.73416e-06
-1.42336e-08
2.71743e-06
-4.23509e-08
2.69092e-06
-4.51624e-08
2.65791e-06
-3.2648e-09
-7.02703e-09
9.05953e-09
1.03137e-06
4.03524e-08
1.05704e-06
1.09159e-07
1.07908e-06
2.42609e-07
1.09575e-06
4.32283e-07
1.10975e-06
6.55474e-07
1.12622e-06
8.94604e-07
1.1463e-06
1.15099e-06
1.17285e-06
1.43992e-06
1.21414e-06
1.78723e-06
1.27663e-06
2.18403e-06
1.34596e-06
2.57113e-06
1.39836e-06
2.87007e-06
1.40072e-06
3.02112e-06
1.337e-06
3.01393e-06
1.21324e-06
2.91924e-06
1.07296e-06
2.81737e-06
9.44346e-07
2.74699e-06
8.35431e-07
2.70541e-06
7.39773e-07
2.68087e-06
6.54262e-07
2.66945e-06
5.75187e-07
2.6688e-06
5.01126e-07
2.67635e-06
4.33222e-07
2.69052e-06
3.65426e-07
2.70925e-06
2.98036e-07
2.73875e-06
2.31847e-07
2.75661e-06
1.6732e-07
2.76996e-06
1.03018e-07
2.77585e-06
4.00307e-08
2.77121e-06
-1.26734e-08
2.75392e-06
-5.07276e-08
2.72678e-06
-7.82122e-08
2.67973e-06
-2.78694e-08
-3.91001e-08
1.31266e-06
-2.09794e-09
1.31732e-06
-1.16888e-08
9.75446e-09
1.0036e-06
4.21883e-08
1.02949e-06
1.16046e-07
1.05007e-06
2.53562e-07
1.06789e-06
4.48136e-07
1.07995e-06
6.68547e-07
1.09654e-06
9.02368e-07
1.11842e-06
1.15193e-06
1.14527e-06
1.42876e-06
1.18391e-06
1.75736e-06
1.24389e-06
2.14501e-06
1.31563e-06
2.53849e-06
1.37852e-06
2.86869e-06
1.39967e-06
3.06407e-06
1.35772e-06
3.0972e-06
1.25377e-06
3.01515e-06
1.11732e-06
2.90395e-06
9.86344e-07
2.81791e-06
8.73378e-07
2.76398e-06
7.76777e-07
2.73021e-06
6.90316e-07
2.71141e-06
6.12279e-07
2.70464e-06
5.39202e-07
2.70793e-06
4.69515e-07
2.71908e-06
4.04637e-07
2.73641e-06
3.38276e-07
2.76519e-06
2.71621e-07
2.78795e-06
2.00502e-07
2.80424e-06
1.33e-07
2.81447e-06
6.43976e-08
2.81322e-06
-1.98034e-09
2.79806e-06
-5.68496e-08
2.76749e-06
-4.47446e-08
-4.67074e-08
1.35867e-06
-5.37705e-08
1.35728e-06
-6.06467e-08
1.31931e-06
-2.98603e-08
1.32788e-06
-4.76682e-08
1.30384e-06
-4.28298e-09
1.30948e-06
-1.7335e-08
1.05643e-08
9.74598e-07
4.57588e-08
9.9998e-07
1.24184e-07
1.02127e-06
2.668e-07
1.03664e-06
4.6783e-07
1.04817e-06
6.83355e-07
1.06503e-06
9.11528e-07
1.08727e-06
1.15457e-06
1.11567e-06
1.4211e-06
1.15284e-06
1.73128e-06
1.20989e-06
2.10641e-06
1.2824e-06
2.50264e-06
1.3514e-06
2.85652e-06
1.39062e-06
3.09319e-06
1.37052e-06
3.17005e-06
1.28483e-06
3.11041e-06
1.15848e-06
2.99576e-06
1.02545e-06
2.89414e-06
9.10073e-07
2.82636e-06
8.10957e-07
2.78286e-06
7.24146e-07
2.75569e-06
6.45962e-07
2.74225e-06
5.7477e-07
2.73993e-06
5.07185e-07
2.74806e-06
4.40542e-07
2.76364e-06
3.77378e-07
2.7906e-06
3.12732e-07
2.81773e-06
2.41811e-07
2.8383e-06
1.66439e-07
2.85404e-06
9.33842e-08
2.85845e-06
1.91431e-08
2.84882e-06
-5.27357e-08
2.82096e-06
-5.39828e-08
-5.63699e-08
1.37077e-06
-5.68512e-08
1.38383e-06
-5.97656e-08
1.33684e-06
-6.27262e-08
1.36948e-06
-6.90462e-08
1.35066e-06
-7.4465e-08
1.31222e-06
-3.25953e-08
1.31941e-06
-5.4855e-08
1.28988e-06
-5.91699e-09
1.29482e-06
-2.22698e-08
1.16762e-08
9.44996e-07
4.97076e-08
9.70594e-07
1.34292e-07
9.89752e-07
2.86337e-07
1.00161e-06
4.8876e-07
1.01569e-06
6.99342e-07
1.03208e-06
9.21755e-07
1.05468e-06
1.15752e-06
1.08423e-06
1.41553e-06
1.12115e-06
1.70943e-06
1.17461e-06
2.06944e-06
1.24674e-06
2.46434e-06
1.32061e-06
2.83521e-06
1.37264e-06
3.10982e-06
1.37392e-06
3.23108e-06
1.30946e-06
3.20159e-06
1.19356e-06
3.09102e-06
1.06313e-06
2.97584e-06
9.43561e-07
2.89357e-06
8.42847e-07
2.83916e-06
7.54647e-07
2.80307e-06
6.76649e-07
2.78143e-06
6.06672e-07
2.7732e-06
5.4148e-07
2.77713e-06
4.78059e-07
2.79006e-06
4.14066e-07
2.81473e-06
3.5335e-07
2.84532e-06
2.85105e-07
2.87054e-06
2.09543e-07
2.89284e-06
1.27604e-07
2.90486e-06
4.69639e-08
2.90237e-06
-3.43842e-08
2.88189e-06
-5.7457e-08
-5.61899e-08
1.39784e-06
-6.80276e-08
1.41374e-06
-7.22763e-08
1.3836e-06
-7.38913e-08
1.32995e-06
-7.32673e-08
1.36533e-06
-8.37135e-08
1.34373e-06
-8.82542e-08
1.3003e-06
-3.80767e-08
1.30871e-06
-6.32746e-08
1.27418e-06
-7.0105e-09
1.2796e-06
-2.76883e-08
1.28471e-08
9.15636e-07
5.42488e-08
9.40398e-07
1.47431e-07
9.57387e-07
3.0852e-07
9.67515e-07
5.07605e-07
9.82626e-07
7.16119e-07
9.98797e-07
9.3267e-07
1.02109e-06
1.16119e-06
1.05092e-06
1.4111e-06
1.08853e-06
1.69143e-06
1.13908e-06
2.03403e-06
1.20994e-06
2.42454e-06
1.28649e-06
2.80689e-06
1.34889e-06
3.11369e-06
1.36872e-06
3.27931e-06
1.32563e-06
3.28626e-06
1.2248e-06
3.18751e-06
1.09712e-06
3.06365e-06
9.75459e-07
2.96562e-06
8.71481e-07
2.89923e-06
7.82734e-07
2.8535e-06
7.04276e-07
2.82302e-06
6.35067e-07
2.80804e-06
5.71751e-07
2.80603e-06
5.12536e-07
2.81544e-06
4.52673e-07
2.83675e-06
3.92013e-07
2.87062e-06
3.28027e-07
2.90035e-06
2.55289e-07
2.92847e-06
1.73901e-07
2.94936e-06
8.30916e-08
2.95719e-06
-7.8744e-09
2.94661e-06
-5.21468e-08
-4.70353e-08
1.43038e-06
-7.40814e-08
1.44796e-06
-7.37762e-08
1.39881e-06
-8.32346e-08
1.41549e-06
-8.89531e-08
1.38204e-06
-9.06065e-08
1.32052e-06
-8.50723e-08
1.36074e-06
-1.00718e-07
1.33547e-06
-1.03201e-07
1.28768e-06
-4.61781e-08
1.29674e-06
-7.23196e-08
1.25739e-06
-8.47785e-09
1.26375e-06
-3.40463e-08
1.3991e-08
8.86408e-07
6.05746e-08
9.09255e-07
1.6094e-07
9.26807e-07
3.29913e-07
9.35874e-07
5.25519e-07
9.49364e-07
7.33743e-07
9.64953e-07
9.44656e-07
9.86754e-07
1.16578e-06
1.01641e-06
1.40695e-06
1.05501e-06
1.67655e-06
1.10344e-06
2.0013e-06
1.17177e-06
2.38416e-06
1.25026e-06
2.7728e-06
1.32053e-06
3.10587e-06
1.35668e-06
3.31412e-06
1.33387e-06
3.36267e-06
1.24919e-06
3.28342e-06
1.12884e-06
3.1555e-06
1.00527e-06
3.04312e-06
8.97917e-07
2.96351e-06
8.07182e-07
2.90767e-06
7.2854e-07
2.86808e-06
6.59203e-07
2.84455e-06
5.98526e-07
2.83511e-06
5.42631e-07
2.83979e-06
4.88011e-07
2.85631e-06
4.33096e-07
2.89208e-06
3.70555e-07
2.92708e-06
3.01295e-07
2.95985e-06
2.23878e-07
2.99005e-06
1.33222e-07
3.01049e-06
2.97657e-08
3.01282e-06
-3.95673e-08
-3.44711e-08
1.46707e-06
-7.12547e-08
1.48571e-06
-6.56727e-08
1.4336e-06
-9.21941e-08
1.45313e-06
-9.33155e-08
1.39905e-06
-1.00237e-07
1.41777e-06
-1.07668e-07
1.38008e-06
-1.09941e-07
1.30955e-06
-9.78786e-08
1.35311e-06
-1.18347e-07
1.32542e-06
-1.19063e-07
1.27418e-06
-5.66087e-08
1.28284e-06
-8.09735e-08
1.23701e-06
-9.05681e-09
1.24242e-06
-3.94611e-08
1.53579e-08
8.58645e-07
6.56024e-08
8.81402e-07
1.73501e-07
8.96476e-07
3.51377e-07
9.05277e-07
5.46303e-07
9.15029e-07
7.50998e-07
9.32161e-07
9.56509e-07
9.53054e-07
1.17019e-06
9.82246e-07
1.40294e-06
1.02036e-06
1.66371e-06
1.06781e-06
1.97133e-06
1.13334e-06
2.34335e-06
1.21248e-06
2.73483e-06
1.28816e-06
3.0884e-06
1.33793e-06
3.33551e-06
1.33525e-06
3.42752e-06
1.26896e-06
3.37572e-06
1.15684e-06
3.25075e-06
1.03347e-06
3.12655e-06
9.21906e-07
3.03269e-06
8.28718e-07
2.96582e-06
7.48992e-07
2.91651e-06
6.79969e-07
2.88309e-06
6.20637e-07
2.8657e-06
5.67767e-07
2.86368e-06
5.18736e-07
2.87563e-06
4.68681e-07
2.90953e-06
4.15582e-07
2.94555e-06
3.52061e-07
2.98635e-06
2.74773e-07
3.02562e-06
1.88244e-07
3.05858e-06
8.5097e-08
3.07654e-06
-2.21675e-08
-1.18039e-08
1.5059e-06
-5.97837e-08
1.52438e-06
-5.29581e-08
1.47361e-06
-9.17405e-08
1.49475e-06
-8.6815e-08
1.43793e-06
-1.1236e-07
1.45919e-06
-1.14586e-07
1.39776e-06
-1.17914e-07
1.41836e-06
-1.28263e-07
1.37324e-06
-1.30069e-07
1.29614e-06
-1.11182e-07
1.34438e-06
-1.37309e-07
1.31358e-06
-1.36491e-07
1.25242e-06
-6.66089e-08
1.26423e-06
-9.27881e-08
1.21367e-06
-8.70002e-09
1.21823e-06
-4.40241e-08
1.67169e-08
8.32606e-07
7.04151e-08
8.53677e-07
1.8846e-07
8.66307e-07
3.72055e-07
8.75853e-07
5.68816e-07
8.827e-07
7.65737e-07
9.00263e-07
9.68575e-07
9.20057e-07
1.17478e-06
9.48413e-07
1.39972e-06
9.85473e-07
1.65171e-06
1.03231e-06
1.94426e-06
1.09486e-06
2.30277e-06
1.17386e-06
2.69407e-06
1.25325e-06
3.06258e-06
1.31394e-06
3.34422e-06
1.32917e-06
3.48031e-06
1.28241e-06
3.46238e-06
1.18226e-06
3.34792e-06
1.05969e-06
3.21512e-06
9.44823e-07
3.10736e-06
8.47183e-07
3.02813e-06
7.66374e-07
2.96876e-06
6.96752e-07
2.9252e-06
6.37821e-07
2.89827e-06
5.88172e-07
2.88711e-06
5.4438e-07
2.89321e-06
5.01086e-07
2.92149e-06
4.56746e-07
2.95901e-06
4.02074e-07
3.00455e-06
3.33849e-07
3.05375e-06
2.46626e-07
3.09963e-06
1.4715e-07
3.13339e-06
8.16084e-09
2.00485e-08
1.54463e-06
-4.24205e-08
1.56177e-06
-2.89523e-08
1.51649e-06
-8.15318e-08
1.53819e-06
-7.46625e-08
1.48169e-06
-1.14243e-07
1.50512e-06
-1.1025e-07
1.44065e-06
-1.34652e-07
1.46447e-06
-1.38408e-07
1.39434e-06
-1.39008e-07
1.41754e-06
-1.51469e-07
1.36597e-06
-1.51649e-07
1.27939e-06
-1.26339e-07
1.33421e-06
-1.57932e-07
1.29889e-06
-1.55979e-07
1.22857e-06
-7.69448e-08
1.24318e-06
-1.07401e-07
1.18603e-06
-9.95806e-09
1.19114e-06
-4.91294e-08
1.73358e-08
8.08967e-07
7.56762e-08
8.2731e-07
2.0281e-07
8.39322e-07
3.91265e-07
8.47028e-07
5.91751e-07
8.52858e-07
7.80867e-07
8.67448e-07
9.80634e-07
8.88154e-07
1.17991e-06
9.14905e-07
1.39696e-06
9.51183e-07
1.64024e-06
9.96923e-07
1.92024e-06
1.05638e-06
2.26347e-06
1.13414e-06
2.65176e-06
1.21615e-06
3.02977e-06
1.28601e-06
3.3405e-06
1.31759e-06
3.51971e-06
1.28964e-06
3.54168e-06
1.20308e-06
3.44464e-06
1.08547e-06
3.30741e-06
9.67292e-07
3.18733e-06
8.64676e-07
3.09483e-06
7.80439e-07
3.02558e-06
7.09517e-07
2.97128e-06
6.50639e-07
2.93306e-06
6.02861e-07
2.91197e-06
5.63262e-07
2.91003e-06
5.27536e-07
2.93091e-06
4.91573e-07
2.96785e-06
4.47849e-07
3.01573e-06
3.90869e-07
3.07272e-06
3.14848e-07
3.13244e-06
2.138e-07
3.18226e-06
4.32835e-08
5.4956e-08
1.58092e-06
-1.09927e-08
1.59556e-06
5.40115e-09
1.55961e-06
-6.38507e-08
1.57958e-06
-4.89262e-08
1.52939e-06
-1.05806e-07
1.55339e-06
-9.8672e-08
1.48971e-06
-1.39483e-07
1.5161e-06
-1.36642e-07
1.4428e-06
-1.59906e-07
1.46975e-06
-1.65359e-07
1.38989e-06
-1.6293e-07
1.41632e-06
-1.77895e-07
1.3578e-06
-1.75241e-07
1.2601e-06
-1.43257e-07
1.32165e-06
-1.80694e-07
1.28128e-06
-1.7715e-07
1.20285e-06
-8.86642e-08
1.21992e-06
-1.24468e-07
1.15543e-06
-1.28324e-08
1.16018e-06
-5.38814e-08
1.84158e-08
7.85123e-07
8.2303e-08
8.02258e-07
2.17242e-07
8.12748e-07
4.12518e-07
8.17883e-07
6.13847e-07
8.24914e-07
7.97679e-07
8.36017e-07
9.91782e-07
8.56347e-07
1.18644e-06
8.81623e-07
1.39531e-06
9.16567e-07
1.63064e-06
9.60785e-07
1.89977e-06
1.01742e-06
2.22617e-06
1.09364e-06
2.60812e-06
1.17777e-06
2.99162e-06
1.25424e-06
3.32686e-06
1.29959e-06
3.54672e-06
1.2906e-06
3.61117e-06
1.22006e-06
3.5391e-06
1.10857e-06
3.40414e-06
9.88644e-07
3.27264e-06
8.82003e-07
3.16724e-06
7.92173e-07
3.08721e-06
7.18793e-07
3.02214e-06
6.58628e-07
2.97263e-06
6.11066e-07
2.93988e-06
5.74978e-07
2.92694e-06
5.46323e-07
2.93799e-06
5.20417e-07
2.97148e-06
4.87912e-07
3.01995e-06
4.43576e-07
3.08269e-06
3.80869e-07
3.15388e-06
2.93354e-07
3.22325e-06
7.96704e-08
9.31424e-08
1.61272e-06
2.61124e-08
1.62504e-06
4.26313e-08
1.59951e-06
-3.0934e-08
1.61723e-06
-1.23214e-08
1.57722e-06
-8.7685e-08
1.59978e-06
-7.1492e-08
1.54304e-06
-1.32757e-07
1.56979e-06
-1.25431e-07
1.49733e-06
-1.67066e-07
1.52768e-06
-1.66996e-07
1.44471e-06
-1.88297e-07
1.47484e-06
-1.95484e-07
1.38482e-06
-1.89941e-07
1.41389e-06
-2.06964e-07
1.34777e-06
-2.01354e-07
1.23733e-06
-1.60663e-07
1.3063e-06
-2.0571e-07
1.26015e-06
-1.99963e-07
1.17101e-06
-9.94978e-08
1.18846e-06
-1.41914e-07
1.11759e-06
-1.54049e-08
1.12389e-06
-6.01802e-08
2.03745e-08
7.60182e-07
8.85627e-08
7.78812e-07
2.33226e-07
7.8625e-07
4.33508e-07
7.91711e-07
6.33614e-07
7.98184e-07
8.1706e-07
8.05523e-07
1.00431e-06
8.23522e-07
1.19484e-06
8.47945e-07
1.39583e-06
8.81133e-07
1.62316e-06
9.24081e-07
1.88192e-06
9.78668e-07
2.19187e-06
1.05173e-06
2.56432e-06
1.13745e-06
2.95011e-06
1.21925e-06
3.30449e-06
1.2766e-06
3.56103e-06
1.28525e-06
3.66942e-06
1.23235e-06
3.6291e-06
1.13004e-06
3.50311e-06
1.0096e-06
3.36409e-06
8.97143e-07
3.24713e-06
8.02158e-07
3.15495e-06
7.24392e-07
3.07947e-06
6.61444e-07
3.01828e-06
6.13075e-07
2.97226e-06
5.78629e-07
2.94561e-06
5.56278e-07
2.94363e-06
5.40607e-07
2.97048e-06
5.21376e-07
3.01527e-06
4.92548e-07
3.08163e-06
4.44601e-07
3.1628e-06
3.71933e-07
3.24612e-06
1.25875e-07
1.44532e-07
1.64177e-06
6.29262e-08
1.64878e-06
8.61224e-08
1.63516e-06
8.17629e-09
1.64988e-06
2.78999e-08
1.62115e-06
-5.23058e-08
1.64118e-06
-3.23654e-08
1.59636e-06
-1.14258e-07
1.6214e-06
-9.65353e-08
1.55753e-06
-1.62609e-07
1.58752e-06
-1.55431e-07
1.50688e-06
-1.99107e-07
1.53962e-06
-1.99734e-07
1.44559e-06
-2.19992e-07
1.4796e-06
-2.29489e-07
1.37766e-06
-2.19824e-07
1.4102e-06
-2.39496e-07
1.33547e-06
-2.30514e-07
1.20933e-06
-1.81533e-07
1.28744e-06
-2.32984e-07
1.2347e-06
-2.2532e-07
1.13551e-06
-1.11118e-07
1.15355e-06
-1.59955e-07
1.07663e-06
-1.79401e-08
1.08412e-06
-6.76703e-08
2.17193e-08
7.33757e-07
9.49321e-08
7.53762e-07
2.50787e-07
7.613e-07
4.54284e-07
7.65489e-07
6.55472e-07
7.69806e-07
8.39004e-07
7.76243e-07
1.01807e-06
7.91785e-07
1.20346e-06
8.14898e-07
1.39751e-06
8.46322e-07
1.61632e-06
8.88037e-07
1.86532e-06
9.40712e-07
2.15987e-06
1.0107e-06
2.51978e-06
1.09629e-06
2.90634e-06
1.18118e-06
3.27452e-06
1.24921e-06
3.56287e-06
1.27469e-06
3.71513e-06
1.23951e-06
3.71255e-06
1.14882e-06
3.60255e-06
1.03059e-06
3.46046e-06
9.13218e-07
3.33304e-06
8.11222e-07
3.22932e-06
7.27664e-07
3.14427e-06
6.59553e-07
3.07193e-06
6.07779e-07
3.01191e-06
5.73303e-07
2.96925e-06
5.54932e-07
2.95104e-06
5.48827e-07
2.96581e-06
5.45209e-07
3.00232e-06
5.3428e-07
3.06908e-06
5.05028e-07
3.15737e-06
4.49969e-07
3.25585e-06
3.6217e-07
1.65908e-06
1.15558e-07
1.66484e-06
1.38756e-07
1.66576e-06
4.70339e-08
1.67653e-06
7.53324e-08
1.66022e-06
-1.08712e-08
1.67739e-06
1.07189e-08
1.64548e-06
-7.63947e-08
1.6676e-06
-5.44936e-08
1.61673e-06
-1.43468e-07
1.64514e-06
-1.24953e-07
1.57327e-06
-1.96267e-07
1.60697e-06
-1.89135e-07
1.51537e-06
-2.34882e-07
1.55233e-06
-2.36682e-07
1.4455e-06
-2.55293e-07
1.48389e-06
-2.67865e-07
1.3688e-06
-2.53142e-07
1.40522e-06
-2.75915e-07
1.32055e-06
-2.63622e-07
1.17775e-06
-2.05725e-07
1.26462e-06
-2.62902e-07
1.20501e-06
-2.52579e-07
1.09601e-06
-1.23005e-07
1.11547e-06
-1.79416e-07
1.03253e-06
-2.07558e-08
1.04092e-06
-7.6067e-08
2.29374e-08
6.99992e-07
1.03666e-07
7.24997e-07
2.69667e-07
7.34834e-07
4.77357e-07
7.38069e-07
6.78695e-07
7.42155e-07
8.5902e-07
7.49825e-07
1.03192e-06
7.62429e-07
1.21154e-06
7.83771e-07
1.39912e-06
8.13361e-07
1.60913e-06
8.53586e-07
1.84943e-06
9.03998e-07
2.12987e-06
9.70783e-07
2.47447e-06
1.05607e-06
2.85843e-06
1.14419e-06
3.23488e-06
1.22081e-06
3.55017e-06
1.26191e-06
3.74386e-06
1.24588e-06
3.78361e-06
1.16841e-06
3.69762e-06
1.05362e-06
3.55835e-06
9.32703e-07
3.42286e-06
8.23311e-07
3.30975e-06
7.30852e-07
3.21522e-06
6.56675e-07
3.13304e-06
5.98403e-07
3.06019e-06
5.59575e-07
3.00031e-06
5.42217e-07
2.96393e-06
5.42037e-07
2.96036e-06
5.54228e-07
2.98361e-06
5.63861e-07
3.04513e-06
5.58164e-07
3.13757e-06
5.24761e-07
3.25208e-06
4.53666e-07
-1.69468e-06
3.37681e-06
1.65571e-07
1.79304e-07
1.68659e-06
1.05482e-07
1.30649e-07
1.69305e-06
3.13598e-08
1.70632e-06
6.20493e-08
1.68859e-06
-3.1863e-08
1.70809e-06
-8.79037e-09
1.67163e-06
-1.02894e-07
1.69664e-06
-7.95037e-08
1.63977e-06
-1.7627e-07
1.67088e-06
-1.56066e-07
1.59029e-06
-2.34226e-07
1.62793e-06
-2.26784e-07
1.52463e-06
-2.75624e-07
1.56672e-06
-2.78759e-07
1.44528e-06
-2.95343e-07
1.48895e-06
-3.11532e-07
1.35852e-06
-2.91101e-07
1.39876e-06
-3.16146e-07
1.30176e-06
-3.0075e-07
1.14161e-06
-2.31863e-07
1.23872e-06
-2.96598e-07
1.17001e-06
-2.80966e-07
1.05151e-06
-1.33599e-07
1.07114e-06
-1.99043e-07
9.83401e-07
-2.25757e-08
9.90175e-07
-8.28461e-08
2.39938e-08
6.54434e-07
1.11313e-07
6.92292e-07
2.90308e-07
7.04364e-07
5.01848e-07
7.10212e-07
7.00613e-07
7.16134e-07
8.77142e-07
7.23993e-07
1.04717e-06
7.34633e-07
1.21966e-06
7.54371e-07
1.40098e-06
7.81992e-07
1.60265e-06
8.19928e-07
1.83461e-06
8.68499e-07
2.10239e-06
9.31518e-07
2.43047e-06
1.01483e-06
2.80913e-06
1.10534e-06
3.19044e-06
1.18861e-06
3.52724e-06
1.24371e-06
3.75949e-06
1.24626e-06
3.84291e-06
1.18656e-06
3.78663e-06
1.07941e-06
3.6551e-06
9.56815e-07
3.514e-06
8.41547e-07
3.39278e-06
7.40257e-07
3.29011e-06
6.55827e-07
3.20008e-06
5.89589e-07
3.1157e-06
5.42882e-07
3.04032e-06
5.19564e-07
2.98278e-06
5.23386e-07
2.95612e-06
5.46271e-07
2.96055e-06
5.77231e-07
3.00993e-06
5.99005e-07
3.10304e-06
5.926e-07
3.2262e-06
5.50544e-07