/*--------------------------------*- C++ -*----------------------------------*\
  =========                 |
  \\      /  F ield         | OpenFOAM: The Open Source CFD Toolbox
   \\    /   O peration     | Website:  https://openfoam.org
    \\  /    A nd           | Version:  dev
     \\/     M anipulation  |
\*---------------------------------------------------------------------------*/
FoamFile
{
    version     2.0;
    format      ascii;
    class       volScalarField;
    location    "2500";
    object      qr;
}
// * * * * * * * * * * * * * * * * * * * * * * * * * * * * * * * * * * * * * //

dimensions      [1 0 -3 0 0 0 0];

internalField   uniform 0;

boundaryField
{
    lowerOutlet
    {
        type            calculated;
        value           nonuniform List<scalar> 
148
(
952.328
955.462
958.931
962.716
966.82
971.251
976.017
981.126
986.591
992.423
998.638
1005.25
1012.29
1019.76
1027.71
1036.15
1045.12
1054.65
1064.8
1075.61
1087.14
1099.45
1112.62
1126.75
1141.96
1158.38
1176.14
1195.43
1216.45
1239.48
1264.84
1292.96
1324.36
1351.26
1390.12
1434.54
1485.99
1546.4
1618.33
1705.58
1814.03
1953.37
2138.05
2356.15
2680.43
3471.17
4332.79
5257.55
5172.61
4394.12
3277.01
2638.02
2266.6
2022.03
1828.66
1702.44
1604.48
1526.42
1462.6
1409.21
1363.71
1324.4
1290.02
1259.66
1225.83
1202.13
1180.59
1160.92
1142.85
1126.19
1110.75
1096.4
1083.02
1070.52
1058.84
1047.86
1037.54
1027.81
1018.63
1009.96
1001.77
994.025
986.698
979.765
973.207
967.004
961.141
955.603
950.379
945.456
940.826
936.481
932.413
928.616
925.086
921.819
918.835
-7214.17
1580.73
1659.72
1756.66
1879.06
2038.85
2254.37
2589.8
3129.74
4149.96
4799.84
6453.84
3514.86
2763.57
2344.13
2075.11
1886.84
1761.23
1650.57
1563.35
1493.01
1434.78
1385.59
1514.93
2428.57
2739.64
3631.41
4511.63
5901.28
4109.9
3077.51
2527.85
2196.61
1973.26
1343.37
2506.43
2838.28
3952.14
4698.34
6214.53
3802.77
2908.49
2430.59
2133.08
1928.3
1370.06
1411.55
1459.28
1306.65
1274.39
1245.77
)
;
    }
    top
    {
        type            calculated;
        value           nonuniform List<scalar> 
100
(
873.342
873.454
874.174
875.415
877.138
879.12
881.222
883.365
885.502
887.593
889.621
891.568
893.425
895.16
896.753
898.213
899.514
900.657
901.709
902.705
903.784
905.048
906.216
907.399
908.57
909.577
909.489
903.684
886.82
866.755
856.63
856.502
866.067
882.969
898.796
909.937
919.602
927.379
930.764
932.394
933.615
934.571
935.44
936.143
936.667
937.17
937.555
937.872
937.992
937.952
937.783
937.495
937.132
936.655
936.101
935.456
934.758
933.98
933.132
932.212
931.221
930.266
929.191
928.014
926.816
925.527
924.135
922.71
921.109
919.484
917.684
915.845
913.927
912.048
910.046
908.194
906.638
905.278
905.399
911.621
909.145
906.642
904.114
901.563
898.993
896.407
893.807
891.196
888.578
885.955
883.33
880.703
875.249
871.703
868.289
865.003
862.24
859.981
858.524
858.152
)
;
    }
    sides
    {
        type            calculated;
        value           nonuniform List<scalar> 
100
(
952.345
954.894
957.149
959.105
960.763
962.128
963.207
964.005
964.53
964.791
964.797
964.558
964.082
963.383
962.471
961.358
960.056
958.576
956.932
955.135
953.197
951.129
948.943
946.649
944.259
941.782
939.228
936.607
933.928
931.199
928.428
925.622
922.789
919.934
917.065
914.187
911.305
908.425
905.549
902.683
899.829
896.989
894.165
891.36
888.58
885.828
883.104
880.408
877.741
875.151
918.851
921.35
923.606
925.613
927.372
928.885
930.159
931.196
932.004
932.588
932.954
933.11
933.064
932.823
932.395
931.79
931.017
930.083
929
927.774
926.416
924.934
923.336
921.632
919.828
917.934
915.956
913.902
911.778
909.592
907.35
905.057
902.718
900.341
897.928
895.485
893.015
890.523
888.013
885.486
882.946
880.392
877.825
875.25
872.676
870.105
867.535
864.965
862.396
859.878
)
;
    }
    front
    {
        type            empty;
    }
    back
    {
        type            empty;
    }
    roller
    {
        type            calculated;
        value           nonuniform List<scalar> 
142
(
3315.15
1966.41
1432.57
1223.04
1220.27
1098.05
1065
3674.81
3293.52
4555.14
2441.57
1771.81
1560.37
1318.68
1235.5
1237.47
1193.81
1184.39
1065.72
1065.07
1068.45
1070.26
7208.19
8547.86
8915.74
9304.85
9147.64
7766.37
7131.4
3932.62
3036.81
2806.17
2175.27
1892.39
1404.84
1213.9
1205.61
1124.93
1118.45
1102.27
5313.54
8121.61
7667.02
9310.36
9176.86
8348.15
8827.55
6489.46
4081.44
4238.5
3590.09
2611.33
2041.44
1929.28
2130.75
1821.87
1519.49
1671.88
1257.61
1192.43
1180.84
1160.35
1146.46
1134.26
1102.93
1094.49
1112.37
1106.54
1069.4
1067.68
1066.59
1064.67
1067.09
1072.46
1078.7
1075.01
4923.69
2337.7
1767
1726.74
1340.15
1276.5
1292.89
1153.53
1146.96
1079.96
6131.6
6622.39
5684.34
5046.38
2535.99
3032.31
1832.49
2327.32
1455.66
1576.15
1358.43
1537.98
1433.99
1290.86
1403.64
1169.92
1084.06
1064.62
1064.45
1065.86
1093.79
2787
1707.2
2044.84
1322.77
1263.21
1274.72
1175.6
1159.44
1112.35
1076.28
1082.3
1085.26
5778.71
4615.47
2223.73
1604.51
1653.5
1481.81
1616.46
1377.88
1501.43
1466.68
1306.31
1375.68
1349.73
1250.74
1204.95
1167.77
1122.84
1139.12
1131.81
1088.95
1071.52
1073.32
1089.59
)
;
    }
    burner
    {
        type            calculated;
        value           nonuniform List<scalar> 
14
(
-121308
-118488
-119859
-118890
-118919
-122478
-125128
-120314
-118326
-121480
-119506
-118448
-123739
-124196
)
;
    }
}


// ************************************************************************* //
