/*--------------------------------*- C++ -*----------------------------------*\
  =========                 |
  \\      /  F ield         | OpenFOAM: The Open Source CFD Toolbox
   \\    /   O peration     | Website:  https://openfoam.org
    \\  /    A nd           | Version:  dev
     \\/     M anipulation  |
\*---------------------------------------------------------------------------*/
FoamFile
{
    version     2.0;
    format      ascii;
    class       volScalarField;
    location    "2500";
    object      rAU;
}
// * * * * * * * * * * * * * * * * * * * * * * * * * * * * * * * * * * * * * //

dimensions      [-1 3 1 0 0 0 0];

internalField   nonuniform List<scalar> 
9729
(
0.00821784
0.00828324
0.00824045
0.00826631
0.00839679
0.00817593
0.00823734
0.00839077
0.00840074
0.00812111
0.00821204
0.00838972
0.00838469
0.00841254
0.00806931
0.00819282
0.00839476
0.00837707
0.00839406
0.00842203
0.00802084
0.00817499
0.0084047
0.0083778
0.00837875
0.00840887
0.00842676
0.00797605
0.00815679
0.00841508
0.00838409
0.00837003
0.00839171
0.00841946
0.00842892
0.00793436
0.00813786
0.00842406
0.00839587
0.0083666
0.00837688
0.00840761
0.0084253
0.00843039
0.00789572
0.00811913
0.00842824
0.00840869
0.00836958
0.00836642
0.00839289
0.00841878
0.00842844
0.00843119
0.00785961
0.00810271
0.00843029
0.00841818
0.00837812
0.00836051
0.00837739
0.00840885
0.00842486
0.00843032
0.00843178
0.0078258
0.00808659
0.00843173
0.00842506
0.00839103
0.00835954
0.00836548
0.00839542
0.00841917
0.00842832
0.00843157
0.00843216
0.00779418
0.00806928
0.00843292
0.00842929
0.00840528
0.00836375
0.00835813
0.0083806
0.00841105
0.00842493
0.00843037
0.00843271
0.00843241
0.0077646
0.00805303
0.0084322
0.00843243
0.00841586
0.00837297
0.00835383
0.00836738
0.0083993
0.00842046
0.00842863
0.00843213
0.00843342
0.00843248
0.00773682
0.00803875
0.00843141
0.00843442
0.00842308
0.00838688
0.0083537
0.00835768
0.00838595
0.00841378
0.00842592
0.00843097
0.0084334
0.00843416
0.00843253
0.0077106
0.00802551
0.00843145
0.00843526
0.00842774
0.0084016
0.0083582
0.00835163
0.00837182
0.00840421
0.00842225
0.0084292
0.00843255
0.0084342
0.00843477
0.00843253
0.00768593
0.00801355
0.00843166
0.00843618
0.00843159
0.00841216
0.0083683
0.00834815
0.00836012
0.00839255
0.00841743
0.0084272
0.00843127
0.00843386
0.00843503
0.00843517
0.00843245
0.00766259
0.00800256
0.00843202
0.00843692
0.00843337
0.00842008
0.00838191
0.00834892
0.00835146
0.00837836
0.00840979
0.00842484
0.00843028
0.00843299
0.00843471
0.0084356
0.00843554
0.00843236
0.00764066
0.00799183
0.0084316
0.00843744
0.00843492
0.00842606
0.00839513
0.00835375
0.00834692
0.00836499
0.0083986
0.0084211
0.00842933
0.0084322
0.00843405
0.00843542
0.00843618
0.00843582
0.0084322
0.00761998
0.00798327
0.00843043
0.00843767
0.00843618
0.00842979
0.00840701
0.00836264
0.00834433
0.00835496
0.0083861
0.0084142
0.00842743
0.00843215
0.00843405
0.00843521
0.00843593
0.00843662
0.00843604
0.00843209
0.00760043
0.00797597
0.00842948
0.0084382
0.00843704
0.00843254
0.00841567
0.00837501
0.00834477
0.00834773
0.00837296
0.00840536
0.00842421
0.00843107
0.00843406
0.00843526
0.00843593
0.00843644
0.00843691
0.00843625
0.00843194
0.00758208
0.00796893
0.00842853
0.00843861
0.00843793
0.00843445
0.00842208
0.0083884
0.00834878
0.00834325
0.00836105
0.00839408
0.00841881
0.00842943
0.00843392
0.0084357
0.00843621
0.0084365
0.00843695
0.00843723
0.00843638
0.00843175
0.00756482
0.00796378
0.00842635
0.00843898
0.00843864
0.00843566
0.00842658
0.00840075
0.00835664
0.00834128
0.00835137
0.00838243
0.00841148
0.00842689
0.0084328
0.00843592
0.00843698
0.00843693
0.00843695
0.00843723
0.00843745
0.00843654
0.00843151
0.00754865
0.00795864
0.00842462
0.00843933
0.00843916
0.00843663
0.00842911
0.00840964
0.00836793
0.00834137
0.00834507
0.00837013
0.00840271
0.00842262
0.00843108
0.00843513
0.00843731
0.0084379
0.00843751
0.00843732
0.00843755
0.00843766
0.00843664
0.00843141
0.00753349
0.00795283
0.00842236
0.00843948
0.0084394
0.00843736
0.0084311
0.00841681
0.00838091
0.00834437
0.00834105
0.00835874
0.00839182
0.00841756
0.00842946
0.00843402
0.00843707
0.0084387
0.0084386
0.00843799
0.00843763
0.00843777
0.00843787
0.00843679
0.00843127
0.00752055
0.00794899
0.00841701
0.00843987
0.00843966
0.00843744
0.00843208
0.00842174
0.00839281
0.00835078
0.00833949
0.00834954
0.00838027
0.00841043
0.00842716
0.00843325
0.0084362
0.00843834
0.00843975
0.00843932
0.00843839
0.00843789
0.00843801
0.008438
0.00843677
0.00843139
0.00750894
0.00794787
0.00841102
0.00844008
0.00844003
0.00843806
0.00843319
0.0084253
0.00840384
0.00836044
0.00833931
0.00834386
0.00836887
0.00840079
0.00842321
0.00843256
0.00843547
0.00843791
0.00843968
0.00844046
0.0084399
0.00843857
0.00843805
0.0084382
0.00843823
0.00843674
0.00843153
0.00749887
0.00794445
0.008407
0.00843987
0.00844026
0.00843854
0.0084339
0.00842745
0.00841122
0.00837182
0.00834158
0.0082851
0.00835834
0.00839065
0.00841675
0.00843085
0.00843573
0.00843736
0.00843913
0.00844063
0.00844121
0.00844039
0.00843898
0.0084382
0.00843845
0.00843846
0.00843646
0.00843158
0.00749045
0.00793881
0.00839885
0.0084402
0.00844025
0.00843883
0.00843453
0.00842946
0.00841758
0.00838425
0.00834611
0.0082709
0.00834986
0.00837982
0.00840919
0.00842741
0.00843535
0.00843802
0.00843891
0.00844005
0.00844126
0.00844182
0.00844073
0.00843919
0.00843838
0.00843902
0.00843838
0.0084364
0.00843157
0.0073971
0.00793754
0.0083861
0.00843918
0.00844045
0.00843888
0.00843506
0.0084308
0.00842182
0.00839563
0.00835405
0.00832516
0.00834437
0.00836958
0.00840008
0.00842269
0.00843345
0.00843796
0.00843976
0.00844009
0.00844092
0.00844194
0.00844228
0.00844099
0.00843924
0.00843891
0.00843946
0.00843834
0.0084364
0.00828903
0.00737802
0.00794175
0.00837554
0.00843646
0.00844
0.00843888
0.00843596
0.00843206
0.00842461
0.00840506
0.00836399
0.00833907
0.00811807
0.00836017
0.00839091
0.00841667
0.00843096
0.00843691
0.00843995
0.00844108
0.00844094
0.0084416
0.00844251
0.0084427
0.00844118
0.00843962
0.00843921
0.00843968
0.00843848
0.00839946
0.00826222
0.00747665
0.00794686
0.00836917
0.00843275
0.00844055
0.00843872
0.00843616
0.00843291
0.00842701
0.00841211
0.008375
0.0083419
0.00800187
0.00835206
0.00838141
0.00840947
0.00842764
0.00843583
0.00843928
0.00844151
0.0084422
0.00844176
0.00844212
0.00844297
0.00844304
0.00844152
0.00843992
0.00843944
0.00843976
0.00843856
0.00838961
0.00843161
0.00747731
0.0079553
0.00836409
0.00842797
0.00843959
0.00843911
0.00843669
0.00843397
0.0084293
0.00841744
0.00838615
0.00834686
0.00819452
0.00834584
0.00837229
0.00840151
0.0084232
0.00843413
0.0084388
0.00844117
0.00844289
0.00844315
0.00844241
0.00844269
0.00844331
0.00844336
0.00844193
0.00844
0.0084395
0.00843987
0.00843866
0.00843664
0.00843173
0.00747298
0.00797021
0.00836273
0.00842575
0.00843773
0.00843892
0.00843666
0.0084352
0.00843137
0.00842189
0.00839638
0.00835465
0.00831413
0.00817557
0.00836382
0.00839289
0.00841759
0.00843207
0.00843813
0.00844077
0.00844254
0.00844387
0.00844392
0.00844294
0.00844314
0.00844372
0.00844381
0.00844208
0.00844011
0.00843953
0.00843992
0.00843877
0.00843642
0.00842168
0.00645716
0.00816246
0.00798511
0.00836699
0.00842587
0.00843747
0.00843879
0.00843698
0.00843571
0.00843294
0.00842507
0.00840484
0.00836368
0.00833849
0.00812096
0.00835566
0.0083847
0.00841083
0.00842874
0.00843726
0.00844066
0.00844229
0.00844369
0.00844486
0.00844462
0.0084434
0.00844329
0.00844407
0.00844398
0.00844199
0.00844003
0.00843957
0.00844
0.00842809
0.00849861
0.00818773
0.00818389
0.00644365
0.00813102
0.00799775
0.00837131
0.00842538
0.00843833
0.00843888
0.00843726
0.00843613
0.00843426
0.00842779
0.00841115
0.00837358
0.00834102
0.00828286
0.00834917
0.0083761
0.00840372
0.0084242
0.00843561
0.00844032
0.00844232
0.00844351
0.00844453
0.00844562
0.00844517
0.00844364
0.00844379
0.00844429
0.00844397
0.00844212
0.00843993
0.00843946
0.00842903
0.00836696
0.0081871
0.00818002
0.00833946
0.00817821
0.00816023
0.0081585
0.00645028
0.00812832
0.00801039
0.0083738
0.00842447
0.00843892
0.00843882
0.00843762
0.00843681
0.00843542
0.00843013
0.00841628
0.00838369
0.00834548
0.00833609
0.0083437
0.00836825
0.00839607
0.00841916
0.00843311
0.00843949
0.00844236
0.00844374
0.00844469
0.00844537
0.00844637
0.0084457
0.0084441
0.00844393
0.00844413
0.00844394
0.00844199
0.00843965
0.00842783
0.00818739
0.00818308
0.00816104
0.00815523
0.00815446
0.00815361
0.0081585
0.00815841
0.00646266
0.00812725
0.00802252
0.00837611
0.00842385
0.00843932
0.00843879
0.00843783
0.00843733
0.00843631
0.00843209
0.00842066
0.00839309
0.00835208
0.00833545
0.00834005
0.0083606
0.00838857
0.00841315
0.00842997
0.0084386
0.00844207
0.00844384
0.00844477
0.0084455
0.00844617
0.0084469
0.00844616
0.00844455
0.00844391
0.00844405
0.00844372
0.0084416
0.00842801
0.00818038
0.00817895
0.00816211
0.00815758
0.00815911
0.00815456
0.00815277
0.00815375
0.00815916
0.00816215
0.00648312
0.00813743
0.00803426
0.00837985
0.00842425
0.00843896
0.00843848
0.00843828
0.00843798
0.00843724
0.00843372
0.00842418
0.00840117
0.00835976
0.00833617
0.00833706
0.00835364
0.00838101
0.00840675
0.00842597
0.00843671
0.00844166
0.00844381
0.00844492
0.00844571
0.00844621
0.00844679
0.00844744
0.00844657
0.00844503
0.0084436
0.00844369
0.0084433
0.00843082
0.00817794
0.00818101
0.00815463
0.00815312
0.00816066
0.0081572
0.00815665
0.00816113
0.00815567
0.00816822
0.00817775
0.00819245
0.00653559
0.00818164
0.00804707
0.00838261
0.00842554
0.00843883
0.00843787
0.00843853
0.00843842
0.00843805
0.00843493
0.00842687
0.00840788
0.00836838
0.00833812
0.00833492
0.00834733
0.00837348
0.00839998
0.00842122
0.0084345
0.00844085
0.00844372
0.00844502
0.00844593
0.00844642
0.00844679
0.00844717
0.00844789
0.008447
0.00844518
0.00844314
0.00844306
0.00843485
0.00818616
0.00819129
0.00815483
0.0081642
0.00815676
0.00816176
0.00816281
0.00816779
0.00816563
0.00819931
0.00818154
0.00820719
0.00821889
0.00823285
0.0065898
0.00822353
0.00806156
0.00838616
0.00842633
0.00843871
0.0084382
0.00843884
0.00843888
0.00843872
0.00843599
0.00842887
0.00841297
0.00837758
0.00834145
0.00833353
0.00834171
0.00836624
0.0083929
0.0084158
0.00843161
0.00843977
0.0084434
0.00844527
0.0084461
0.00844675
0.00844718
0.00844732
0.00844761
0.00844761
0.00844694
0.00844486
0.00844224
0.0084369
0.00820055
0.00820848
0.00817907
0.00819167
0.00817565
0.00819355
0.00817897
0.008193
0.00818539
0.00820197
0.00819798
0.00824022
0.00821885
0.00824466
0.00825608
0.00826637
0.00664136
0.00825628
0.00807391
0.00839225
0.00842736
0.00843824
0.00843851
0.00843883
0.00843951
0.0084394
0.00843699
0.00843039
0.00841722
0.00838689
0.00834705
0.0083321
0.00833783
0.00835877
0.00838589
0.00840983
0.00842783
0.00843808
0.00844287
0.0084451
0.00844625
0.00844692
0.00844726
0.00844768
0.00844771
0.00844764
0.00844714
0.00844651
0.00844389
0.00843799
0.008215
0.00822045
0.00820241
0.00820868
0.00821095
0.00822348
0.00820874
0.00822448
0.00821549
0.00822787
0.00822027
0.00823722
0.00823231
0.00827313
0.00825162
0.00827522
0.00828599
0.00829225
0.00669147
0.00828234
0.00808442
0.00839642
0.00842803
0.00843846
0.00843923
0.00843928
0.00844013
0.00844018
0.00843797
0.00843182
0.00842112
0.0083959
0.00835473
0.00833246
0.0083345
0.00835211
0.00837877
0.00840351
0.00842321
0.00843567
0.00844166
0.00844468
0.00844613
0.0084469
0.00844753
0.00844793
0.00844817
0.00844794
0.00844728
0.00844648
0.00844558
0.00844227
0.00822428
0.0082286
0.00821285
0.00821572
0.00823311
0.00823779
0.00823903
0.00825
0.00824012
0.00825157
0.00824723
0.00825618
0.00825127
0.00826539
0.00826132
0.00829859
0.00827898
0.00830053
0.00831071
0.00831324
0.00674245
0.00830284
0.00809645
0.00839926
0.00842981
0.00843895
0.00843929
0.00843963
0.00844059
0.008441
0.00843906
0.00843331
0.00842429
0.00840388
0.00836408
0.00833489
0.00833272
0.00834631
0.00837266
0.00839752
0.00841865
0.00843288
0.00844041
0.00844406
0.00844579
0.00844673
0.0084474
0.00844792
0.00844832
0.00844828
0.00844775
0.00844667
0.00844546
0.00844769
0.00823491
0.00824415
0.00821793
0.00821884
0.00824087
0.00824196
0.00825839
0.00826248
0.0082627
0.00827267
0.00826642
0.00827494
0.00827253
0.00827921
0.00827706
0.00828881
0.00828657
0.00831837
0.00830273
0.00832097
0.00833067
0.00833113
0.00679851
0.00831955
0.00810675
0.00840151
0.00843014
0.00843826
0.00843894
0.0084403
0.00844122
0.00844155
0.00843984
0.00843449
0.00842634
0.00840983
0.00837369
0.00833877
0.00833194
0.00834117
0.00836649
0.00839234
0.00841408
0.00843058
0.0084398
0.00844374
0.00844588
0.00844678
0.00844721
0.00844762
0.00844818
0.00844842
0.00844799
0.00844701
0.0084454
0.00844615
0.00824243
0.00809529
0.00822573
0.00823024
0.00824413
0.00824343
0.00826449
0.00826527
0.00828032
0.00828397
0.00828321
0.00829199
0.0082881
0.00829453
0.00829389
0.0082985
0.00829873
0.00830845
0.0083085
0.00833457
0.00832312
0.00833734
0.00834676
0.00834628
0.00685843
0.00833271
0.00811617
0.00840219
0.00843101
0.00843857
0.00843944
0.00844081
0.00844127
0.0084418
0.00844016
0.00843518
0.00842774
0.00841399
0.00838249
0.00834375
0.00833014
0.00833686
0.00835912
0.00838604
0.00840916
0.00842734
0.00843884
0.00844422
0.00844635
0.00844761
0.00844794
0.00844782
0.00839142
0.00814859
0.00844824
0.00844731
0.00844568
0.00844585
0.00835729
0.00822342
0.00806675
0.00825209
0.00825407
0.00826618
0.00826623
0.00828482
0.00828501
0.00829881
0.00830187
0.00830042
0.008308
0.0083058
0.00831
0.00831211
0.00831378
0.00831583
0.00832331
0.00832646
0.00834703
0.00833981
0.00834931
0.00835979
0.00835876
0.00692077
0.00834265
0.00812862
0.00839901
0.00843091
0.00843848
0.00843955
0.00844087
0.00844153
0.00844183
0.00844035
0.00843564
0.00842881
0.00841721
0.00839067
0.00835032
0.00832934
0.00833198
0.0083512
0.00837862
0.00840292
0.00842259
0.00843624
0.00844363
0.00844646
0.00844812
0.00844876
0.0084488
0.008392
0.00800991
0.00839983
0.008448
0.00844607
0.00844621
0.0084674
0.00828499
0.00829079
0.00824799
0.0082442
0.00827358
0.00827485
0.00828493
0.00828648
0.00830196
0.0083009
0.00831343
0.00831421
0.00831236
0.00831498
0.00831677
0.00831034
0.00832434
0.00831372
0.00832769
0.00832542
0.00833605
0.00835574
0.00834478
0.00834571
0.00836936
0.0083673
0.00698675
0.00835075
0.0081484
0.00839364
0.00843098
0.00843888
0.00843986
0.00844096
0.00844196
0.00844202
0.00844072
0.00843629
0.00842992
0.00842
0.00839796
0.00835838
0.00833026
0.00832852
0.00834319
0.00837087
0.00839614
0.00841717
0.0084324
0.0084416
0.00844583
0.00844749
0.0084484
0.00844888
0.00844911
0.00827628
0.00840495
0.00844851
0.00844713
0.00844676
0.00846149
0.00829784
0.00813279
0.00826365
0.00826333
0.00826991
0.00826535
0.00829194
0.00829163
0.00830034
0.00830365
0.00831156
0.00830735
0.00831057
0.00830264
0.00829794
0.00828128
0.00829678
0.00825995
0.00830537
0.00826585
0.00831457
0.00828563
0.00830785
0.00834809
0.00830789
0.00830057
0.00837523
0.00835964
0.00704954
0.00835561
0.00819109
0.00838787
0.00843081
0.0084389
0.00844013
0.00844164
0.00844263
0.00844251
0.00844125
0.00843703
0.00843105
0.00842218
0.00840408
0.00836744
0.00833306
0.00832648
0.00833661
0.00836289
0.00838951
0.00841151
0.00842848
0.00843894
0.00844474
0.00844676
0.00844789
0.00844808
0.00844827
0.00844074
0.0084436
0.00844309
0.00844848
0.00844946
0.00846408
0.00837733
0.00826383
0.00809208
0.00828084
0.00827709
0.00828668
0.0082823
0.00830844
0.00830508
0.00830489
0.00830508
0.00828994
0.00827375
0.0082504
0.00822762
0.00822254
0.00819707
0.00822219
0.00817091
0.00823525
0.00817562
0.00824891
0.00819893
0.00823858
0.00830228
0.00823115
0.00822229
0.00836939
0.00831899
0.00709365
0.00834865
0.00828535
0.00839114
0.00843073
0.00843846
0.00844025
0.00844202
0.00844308
0.00844325
0.00844193
0.00843789
0.00843211
0.00842397
0.00840896
0.00837654
0.00833816
0.00832442
0.0083318
0.00835526
0.00838272
0.00840589
0.0084244
0.00843663
0.00844327
0.00844622
0.0084471
0.0084472
0.00844715
0.008447
0.00844688
0.00844673
0.00844795
0.00845222
0.0084676
0.00849685
0.00832189
0.0083216
0.00827472
0.00826986
0.00827963
0.00826895
0.00829686
0.00828714
0.00830774
0.00829957
0.0082597
0.00824979
0.00821069
0.00819561
0.0081628
0.00812396
0.00811269
0.00805609
0.0080951
0.00793745
0.00808875
0.00790863
0.00815279
0.00793811
0.00806867
0.00822599
0.00804452
0.0080803
0.00833865
0.00824588
0.00710342
0.00831505
0.00841531
0.0084316
0.00843716
0.00844005
0.00844208
0.00844341
0.00844372
0.00844256
0.00843857
0.00843295
0.00842545
0.00841282
0.00838504
0.00834516
0.00832415
0.00832697
0.00834728
0.00837588
0.00839982
0.00841962
0.00843403
0.00844213
0.00844576
0.00844678
0.00844692
0.00844641
0.00844555
0.00844472
0.0084438
0.00844328
0.008451
0.00846295
0.00845339
0.00832808
0.00812526
0.00825015
0.00823483
0.00826243
0.00825679
0.00824693
0.00822417
0.00828549
0.00826641
0.00825192
0.00824961
0.00818785
0.00818034
0.00808167
0.00804281
0.00796154
0.0078735
0.00780761
0.00768089
0.0077266
0.00757886
0.00778293
0.00767606
0.00791098
0.00770586
0.00786602
0.00798149
0.0078193
0.00770276
0.00827555
0.00806567
0.00706297
0.00818163
0.00841853
0.00843185
0.00843676
0.00844084
0.0084432
0.00844387
0.00844294
0.00843918
0.00843368
0.00842655
0.00841573
0.00839247
0.00835335
0.0083253
0.00832368
0.00833897
0.00836799
0.00839393
0.00841473
0.00843056
0.00844037
0.0084453
0.00844668
0.00844657
0.00844592
0.00844448
0.00844247
0.00844101
0.00844093
0.00844623
0.00838146
0.00841343
0.00810204
0.00819882
0.00800531
0.00820585
0.00819908
0.00821098
0.00820681
0.00820943
0.00819179
0.00824095
0.00822556
0.00816902
0.00815196
0.00801572
0.00798728
0.00779663
0.00773437
0.00753624
0.0074269
0.00757265
0.00744301
0.00748545
0.00739648
0.00755638
0.00751458
0.00765669
0.00735396
0.00747812
0.00680651
0.00612322
0.00741654
0.00540974
0.00569214
0.00807551
0.00634341
0.00700332
0.00626496
0.0068963
0.00792354
0.00839636
0.00842875
0.00843598
0.00844132
0.00844348
0.00844286
0.00843948
0.00843429
0.00842752
0.00841787
0.00839857
0.00836219
0.00832786
0.00832128
0.00833201
0.00835932
0.00838688
0.00840917
0.00842657
0.00843812
0.00844442
0.00844654
0.00844637
0.00844539
0.00844357
0.00844057
0.00843808
0.00843977
0.00838634
0.00827376
0.00806388
0.00793701
0.0082189
0.00789567
0.00817533
0.00816384
0.00814487
0.00812472
0.0081767
0.00816092
0.00807889
0.00805647
0.008131
0.00810467
0.00795077
0.00791533
0.00769272
0.00765743
0.00736211
0.00731854
0.00732924
0.00724154
0.0074281
0.00734937
0.0071837
0.00708113
0.00721361
0.00711098
0.00725659
0.00463624
0.00498215
0.0052716
0.00489361
0.00564429
0.00517922
0.00504086
0.00515536
0.00503609
0.00529053
0.00738465
0.00659226
0.0065462
0.00568025
0.0057647
0.00709143
0.00670428
0.00775233
0.0070809
0.0083784
0.00842544
0.00843519
0.00844166
0.00844243
0.00843964
0.00843491
0.00842855
0.00841966
0.00840367
0.00837126
0.00833312
0.00831902
0.00832686
0.00835119
0.00837952
0.00840279
0.00842197
0.00843543
0.00844293
0.00844619
0.00844653
0.00844501
0.00844276
0.00843907
0.00843518
0.00843629
0.00840685
0.00820127
0.00790159
0.0079399
0.00786006
0.00773807
0.00797715
0.00786321
0.00810086
0.0080447
0.00797518
0.00793063
0.00803779
0.00801162
0.00783001
0.00780739
0.00788484
0.00785611
0.00762279
0.00759771
0.00731481
0.00738195
0.00719097
0.00715761
0.00727764
0.00720636
0.0069998
0.00689123
0.00468222
0.00435132
0.00458388
0.00453969
0.00480284
0.00472311
0.00477556
0.00459952
0.00465066
0.00496396
0.00494141
0.00483297
0.00464758
0.00479147
0.00531711
0.00487769
0.00477677
0.00477122
0.00487023
0.00505773
0.00607142
0.00588614
0.00534967
0.00541451
0.00534099
0.00764076
0.00750434
0.00633348
0.00668887
0.00836264
0.00842258
0.00843501
0.00844072
0.00843969
0.00843562
0.00842988
0.00842158
0.00840791
0.00838005
0.00834099
0.00831932
0.00832256
0.00834344
0.00837308
0.00839691
0.00841668
0.00843201
0.00844136
0.00844585
0.0084467
0.00844551
0.00844225
0.00843825
0.00843288
0.00842926
0.00842028
0.00825972
0.0081181
0.00813436
0.00809229
0.00762205
0.00728241
0.00772388
0.00763212
0.00787482
0.00780741
0.00770883
0.00766394
0.00778277
0.00774905
0.0075733
0.00757231
0.00758454
0.00757548
0.00739387
0.00737524
0.00715846
0.00721946
0.00714572
0.00710131
0.00683091
0.00681646
0.00449205
0.00445368
0.00441301
0.00413557
0.00442156
0.00436549
0.00432878
0.00457229
0.00450014
0.00440082
0.00441748
0.00445174
0.00461418
0.00470612
0.00461521
0.00455618
0.00468434
0.0050722
0.00475896
0.00469075
0.00470509
0.0047719
0.00489482
0.00551994
0.00567699
0.00509967
0.00515151
0.00499546
0.00752375
0.00716399
0.00591796
0.00630084
0.00834699
0.00840126
0.00843412
0.00843834
0.008436
0.00843088
0.00842349
0.00841131
0.00838769
0.0083497
0.00832171
0.00832011
0.00833594
0.00836572
0.00838774
0.00841206
0.0084287
0.00843976
0.00844569
0.0084475
0.00844655
0.00844323
0.00843776
0.00843234
0.00842208
0.00839574
0.00827453
0.00824078
0.00826975
0.008195
0.00745269
0.00705683
0.00754384
0.00744192
0.00751235
0.00745829
0.0076158
0.00756553
0.00750827
0.00747947
0.00756114
0.00753605
0.00738349
0.00738965
0.00737069
0.00737351
0.00722361
0.00719768
0.00707098
0.00703885
0.00678281
0.00698032
0.00389013
0.00400407
0.00421623
0.00431258
0.00430452
0.00428447
0.00426843
0.00425687
0.00435851
0.00433055
0.00432782
0.00450179
0.00445344
0.00438929
0.00448924
0.00444975
0.00454664
0.00463479
0.00457355
0.0045079
0.00462941
0.00490144
0.00469837
0.00466034
0.00467187
0.00473057
0.0047923
0.00523748
0.00536967
0.00492341
0.00496247
0.00431265
0.00689107
0.00738888
0.00560802
0.00610535
0.00831072
0.00838419
0.00843225
0.00843449
0.00843068
0.00842415
0.00841353
0.00839347
0.00835801
0.00832432
0.00831778
0.00832938
0.00835751
0.00837919
0.00840336
0.0084253
0.00843809
0.00844542
0.00844845
0.00844776
0.00844488
0.00843888
0.00843234
0.00841745
0.00837345
0.00828854
0.00821827
0.00818008
0.00811023
0.00779017
0.00718617
0.00677102
0.00738959
0.00729757
0.00734742
0.00728548
0.00744374
0.00740023
0.00704552
0.00663867
0.00738582
0.00737242
0.00718394
0.00717506
0.0071852
0.00718343
0.00700712
0.00698513
0.00697088
0.00695152
0.0043104
0.00442938
0.0066194
0.00425052
0.00407834
0.00402976
0.00419957
0.00435678
0.00440109
0.00444131
0.00446792
0.004409
0.00446703
0.00454171
0.00449563
0.00451973
0.00455923
0.00473341
0.00462041
0.00452859
0.00460216
0.00459367
0.00454314
0.00461542
0.00479494
0.00469238
0.00466076
0.004679
0.004726
0.00473757
0.00502608
0.00515995
0.00481045
0.00483569
0.0035654
0.00684182
0.00690124
0.00553052
0.00620195
0.00827838
0.0083715
0.00842908
0.00842884
0.0084232
0.00841409
0.00839714
0.00836525
0.0083278
0.00831378
0.00832269
0.00834823
0.00837773
0.00839518
0.00842081
0.00843549
0.00844446
0.0084489
0.0084488
0.00844609
0.00844048
0.00843313
0.00841562
0.00836342
0.00825396
0.00817534
0.00808731
0.00802116
0.00795904
0.00697788
0.00662328
0.0069512
0.00683023
0.00720166
0.00709164
0.00722903
0.00717339
0.00684031
0.007221
0.00714079
0.00712515
0.0071635
0.00715303
0.0069617
0.00694358
0.00697737
0.00697283
0.00693057
0.00690998
0.00683837
0.00682783
0.00424847
0.00438897
0.00465117
0.00462866
0.00447739
0.00446556
0.00443026
0.0044066
0.00461266
0.00466791
0.00470151
0.00471312
0.00464864
0.00473211
0.00480952
0.00463943
0.00476188
0.00482703
0.00498733
0.00489114
0.00462958
0.00463499
0.00473736
0.00474961
0.00468205
0.00474387
0.00472374
0.00473723
0.00476581
0.00474937
0.00472852
0.00489287
0.00514983
0.00475535
0.00476618
0.00299048
0.00682986
0.00644857
0.00561248
0.00624254
0.00825051
0.00836316
0.00842466
0.00842159
0.00841334
0.00839907
0.00837094
0.00833268
0.00831028
0.00831527
0.00833737
0.00836852
0.0083776
0.00841446
0.00843101
0.00844189
0.00844795
0.00844926
0.00844671
0.00844109
0.00843412
0.00841615
0.00836314
0.00824033
0.00812825
0.00806413
0.00792355
0.00808494
0.00765505
0.00682611
0.00653206
0.00689673
0.00680373
0.00709915
0.00700606
0.00706228
0.00702689
0.0070665
0.00704781
0.00689551
0.00687486
0.00692862
0.00691305
0.00686411
0.00683711
0.00690607
0.00689136
0.00698809
0.00696865
0.00468083
0.00469527
0.00482878
0.00468979
0.00440786
0.00444805
0.00477532
0.00474375
0.00470268
0.00466524
0.00461945
0.00460098
0.00486147
0.00488685
0.00489001
0.0048721
0.00490728
0.00495768
0.00499791
0.00490149
0.00502546
0.00504003
0.00514722
0.00510817
0.00486762
0.0048042
0.00498551
0.00501154
0.00488274
0.00474376
0.00482071
0.00492687
0.00496764
0.00485302
0.00477038
0.00489568
0.00520774
0.00474639
0.00477442
0.00463626
0.00674471
0.0062568
0.00559054
0.00612852
0.00822804
0.00836303
0.00841898
0.00841246
0.00839977
0.00837549
0.00833797
0.00830934
0.00830857
0.00832645
0.00835776
0.00834709
0.00839005
0.00842456
0.0084373
0.00844471
0.00844824
0.00844683
0.00844124
0.00843405
0.00842017
0.00837059
0.00824368
0.00810089
0.0080185
0.00789711
0.00803193
0.00823565
0.00663641
0.00650854
0.00664602
0.00660563
0.00678518
0.00670128
0.00696522
0.00687987
0.00680146
0.0067556
0.00685259
0.00682956
0.00674897
0.00671897
0.00681146
0.00678071
0.00700839
0.00697842
0.00700136
0.00702051
0.00693359
0.00705952
0.00481187
0.00483309
0.00496196
0.00482984
0.00462914
0.00468992
0.00504424
0.00500995
0.00483519
0.00479741
0.00479323
0.00483412
0.00501378
0.00500816
0.00498517
0.00496233
0.00507398
0.00508327
0.00509025
0.00513046
0.00519532
0.00515293
0.00520781
0.00521494
0.00512089
0.00505602
0.0052094
0.00520493
0.00512706
0.00478729
0.00502582
0.00516032
0.00521477
0.00505822
0.00488718
0.0049455
0.00517056
0.00479322
0.00483728
0.00238245
0.00620726
0.00575048
0.00541159
0.0055386
0.00821512
0.00837713
0.0084111
0.00840001
0.00837872
0.00834335
0.00831019
0.00830273
0.00831666
0.00834677
0.00831873
0.00835951
0.00841643
0.00843108
0.00836223
0.00844457
0.00844574
0.00844112
0.00843401
0.00842624
0.00838453
0.00825929
0.00809746
0.00799779
0.00809161
0.00773342
0.00818554
0.00779954
0.00658925
0.00655205
0.00655316
0.0065579
0.00658137
0.0065563
0.00669211
0.00662985
0.00663778
0.00659416
0.00669083
0.0066685
0.00680117
0.00674113
0.0069301
0.00686689
0.00730267
0.00727743
0.00725123
0.00729617
0.00526999
0.00526415
0.00523108
0.00541439
0.00508422
0.00510978
0.00512553
0.00511575
0.00488814
0.00495365
0.00529403
0.00526329
0.00494891
0.00498053
0.00503079
0.00509625
0.00508078
0.00506959
0.00506471
0.00511016
0.00514517
0.00512825
0.00513343
0.00525288
0.00525618
0.00519006
0.00522209
0.00523483
0.00528147
0.00525331
0.00532109
0.00528881
0.00530984
0.00489833
0.0052537
0.0053413
0.00538681
0.00525004
0.00506517
0.0049443
0.00504076
0.00488593
0.00490019
0.00309923
0.00610428
0.00624171
0.00503631
0.00483196
0.00821717
0.00838534
0.0083994
0.00838105
0.00834824
0.00831176
0.00829696
0.00830765
0.00833525
0.00831172
0.00832467
0.00840772
0.00835476
0.00836451
0.00833612
0.00844212
0.00844012
0.00843313
0.00843005
0.00839846
0.00828764
0.00804164
0.00802705
0.00807957
0.00773583
0.00812654
0.00808837
0.00721874
0.00719681
0.00683904
0.00700941
0.00662789
0.00671402
0.00653791
0.00656992
0.00655136
0.00653132
0.00639705
0.00636567
0.0066834
0.00664244
0.00705969
0.00698362
0.00721781
0.00713881
0.00757977
0.00756954
0.00728748
0.00738859
0.00540186
0.00539037
0.00531475
0.00550704
0.00532926
0.00535296
0.00538392
0.00536329
0.00515082
0.00521404
0.00544061
0.00542343
0.00516858
0.00522796
0.00527328
0.00532069
0.00514711
0.00520202
0.00527272
0.00534811
0.00517608
0.00518605
0.00526306
0.00527964
0.00526277
0.00524337
0.00532473
0.00526619
0.00533138
0.00534947
0.00534542
0.00530337
0.00539909
0.00502859
0.00537684
0.00541318
0.00541516
0.0053198
0.00519842
0.00493316
0.0049654
0.00498146
0.00500427
0.00315928
0.00589808
0.00595033
0.00465853
0.00512949
0.00821333
0.00837347
0.0083814
0.00835228
0.00831403
0.00829191
0.00829862
0.00832289
0.00835031
0.00831083
0.0083903
0.00819822
0.00842438
0.00835316
0.00841016
0.00843649
0.00843148
0.00842816
0.00840881
0.00832413
0.0080638
0.00807098
0.00810906
0.0079861
0.00803993
0.00762135
0.00810193
0.0076703
0.00761649
0.0073326
0.00752812
0.00697038
0.00713552
0.00672334
0.00683308
0.00658267
0.00663942
0.00681522
0.00654332
0.00689983
0.00683161
0.00731706
0.00726154
0.00750147
0.00740215
0.00766997
0.00769178
0.00575046
0.00576589
0.00613549
0.00581403
0.00557343
0.00557359
0.00558472
0.00561275
0.00546324
0.00548384
0.00554301
0.00550459
0.00535441
0.00539563
0.00548539
0.00548673
0.00540496
0.00543656
0.00545069
0.00546778
0.00535639
0.0054479
0.00552238
0.00557296
0.00530169
0.00540046
0.00552813
0.00529256
0.00532914
0.00544913
0.00559895
0.00543894
0.00534556
0.00538636
0.00537109
0.00535062
0.00539886
0.00511854
0.00535576
0.00537157
0.00533697
0.00530735
0.00524121
0.00502786
0.00507744
0.00511239
0.00515567
0.00357085
0.00623816
0.00625415
0.00510992
0.00512378
0.00818889
0.00834639
0.00835363
0.00831605
0.00828445
0.00828892
0.00831
0.00834294
0.00834957
0.0083715
0.00825111
0.00825651
0.00842229
0.00841752
0.00842987
0.00842802
0.00842392
0.00841313
0.00835737
0.00817812
0.00810401
0.00814835
0.00816628
0.00800945
0.00730718
0.00823677
0.00819291
0.00793972
0.00791562
0.00779044
0.00788644
0.00749966
0.0076453
0.00716302
0.00732989
0.00658102
0.00698893
0.0072519
0.00731839
0.00723142
0.00722018
0.00766346
0.00762982
0.00779708
0.00771681
0.0062517
0.00628036
0.00639025
0.00636379
0.00672983
0.00576624
0.00582472
0.00590799
0.00561115
0.00563151
0.00567599
0.00572752
0.00548935
0.00550092
0.00557947
0.00553002
0.00547441
0.00548463
0.00548398
0.00550453
0.0055986
0.00559746
0.00558142
0.00557482
0.00563168
0.00570549
0.00575457
0.00578164
0.00557756
0.00570655
0.00582667
0.00540927
0.00556058
0.00576959
0.00595505
0.00575883
0.00541639
0.00539321
0.00542952
0.00551787
0.00534381
0.00520342
0.00535439
0.00531742
0.00532831
0.00538851
0.0052814
0.00520526
0.00525991
0.00526779
0.00533553
0.00410565
0.00580507
0.00680303
0.00501128
0.00524377
0.00814793
0.008308
0.00830132
0.00828115
0.00793015
0.00829611
0.00832935
0.00834355
0.00835837
0.0083867
0.0082269
0.00841037
0.00841625
0.0084226
0.00842313
0.00842047
0.00841358
0.00838131
0.00823025