/*--------------------------------*- C++ -*----------------------------------*\
  =========                 |
  \\      /  F ield         | OpenFOAM: The Open Source CFD Toolbox
   \\    /   O peration     | Website:  https://openfoam.org
    \\  /    A nd           | Version:  dev
     \\/     M anipulation  |
\*---------------------------------------------------------------------------*/
FoamFile
{
    version     2.0;
    format      ascii;
    class       volScalarField;
    location    "2500";
    object      rho;
}
// * * * * * * * * * * * * * * * * * * * * * * * * * * * * * * * * * * * * * //

dimensions      [1 -3 0 0 0 0 0];

internalField   nonuniform List<scalar> 
9729
(
1.17176
1.17162
1.17167
1.17158
1.17132
1.17171
1.17159
1.17115
1.17129
1.17177
1.17163
1.1711
1.17103
1.17138
1.17184
1.17166
1.1711
1.17084
1.17104
1.17148
1.17187
1.17172
1.17116
1.17075
1.17078
1.17111
1.17154
1.17189
1.17176
1.17128
1.17074
1.17058
1.17085
1.17125
1.17161
1.1719
1.17174
1.17131
1.17073
1.17048
1.17057
1.17095
1.17132
1.17164
1.17191
1.17179
1.17135
1.17079
1.17043
1.17037
1.17062
1.17104
1.17139
1.17169
1.17192
1.17177
1.17136
1.17088
1.17043
1.17025
1.17039
1.17075
1.17113
1.17146
1.17171
1.17193
1.17178
1.17146
1.171
1.1705
1.17018
1.1702
1.17048
1.17089
1.17122
1.17152
1.17173
1.17194
1.17182
1.17147
1.17109
1.17052
1.17015
1.17006
1.17024
1.17058
1.171
1.17131
1.17153
1.17174
1.17194
1.17182
1.17148
1.1711
1.17055
1.17018
1.16996
1.17006
1.17036
1.17073
1.17105
1.17133
1.17157
1.17176
1.17195
1.17182
1.17147
1.17111
1.1707
1.17019
1.16991
1.16989
1.17009
1.17046
1.17081
1.17112
1.17136
1.17158
1.17177
1.17196
1.17183
1.17149
1.17118
1.17081
1.17022
1.16992
1.16978
1.16991
1.17026
1.17059
1.17091
1.17119
1.17141
1.1716
1.17178
1.17196
1.17183
1.17151
1.17118
1.17078
1.17034
1.16992
1.1697
1.16973
1.16995
1.17033
1.17068
1.171
1.17121
1.17143
1.17163
1.17179
1.17196
1.17182
1.17151
1.17118
1.17088
1.17041
1.16995
1.16968
1.16961
1.16976
1.17009
1.17046
1.17077
1.17103
1.17124
1.17145
1.17163
1.17179
1.17197
1.17183
1.17154
1.17121
1.17092
1.17043
1.1701
1.16964
1.16954
1.1696
1.1699
1.17021
1.17055
1.17087
1.17109
1.17127
1.17146
1.17164
1.17181
1.17197
1.17182
1.17153
1.17125
1.17093
1.17048
1.17017
1.16964
1.16946
1.16946
1.16964
1.17002
1.17035
1.17064
1.17088
1.17109
1.1713
1.17147
1.17165
1.17181
1.17197
1.17182
1.17155
1.17124
1.17096
1.17051
1.17016
1.1697
1.1694
1.16936
1.16948
1.16975
1.17011
1.17049
1.17073
1.17093
1.17112
1.17132
1.17149
1.17166
1.17181
1.17197
1.17183
1.17155
1.17124
1.17094
1.17054
1.17019
1.1698
1.16937
1.16929
1.16935
1.16958
1.16988
1.17026
1.17053
1.17076
1.17096
1.17115
1.17132
1.17149
1.17166
1.17181
1.17197
1.17182
1.17156
1.17125
1.17092
1.17058
1.17019
1.16987
1.16936
1.16919
1.16923
1.16938
1.16968
1.17
1.17035
1.17059
1.1708
1.17099
1.17117
1.17134
1.17151
1.17167
1.17183
1.17198
1.17181
1.17156
1.17125
1.17091
1.17059
1.17025
1.16993
1.16938
1.16917
1.1691
1.16923
1.16948
1.16984
1.17016
1.17042
1.17066
1.17084
1.17101
1.17119
1.17135
1.17152
1.17168
1.17182
1.17198
1.17181
1.17155
1.17126
1.17092
1.17058
1.17024
1.16987
1.1694
1.16915
1.16904
1.16909
1.16933
1.16963
1.16992
1.17024
1.17046
1.17067
1.17088
1.17103
1.1712
1.17136
1.17152
1.17167
1.17182
1.17197
1.17183
1.17155
1.17122
1.17092
1.17064
1.17028
1.16989
1.16951
1.16912
1.16897
1.16898
1.16911
1.1694
1.16973
1.17002
1.17029
1.17053
1.1707
1.17089
1.17105
1.17121
1.17136
1.17153
1.17168
1.17183
1.17197
1.17183
1.17152
1.17121
1.1709
1.17061
1.17026
1.16985
1.16949
1.16913
1.16891
1.16888
1.16898
1.16921
1.16953
1.16985
1.17014
1.17033
1.17054
1.17074
1.1709
1.17108
1.17123
1.17137
1.17152
1.17168
1.17183
1.17198
1.17182
1.17155
1.17125
1.17088
1.17057
1.17027
1.16989
1.16952
1.16919
1.16885
1.16881
1.16886
1.16904
1.16933
1.16966
1.16994
1.17019
1.17038
1.17057
1.17075
1.17091
1.17107
1.17124
1.17138
1.17153
1.17168
1.17182
1.17197
1.17182
1.17155
1.1712
1.17089
1.17054
1.17024
1.16986
1.16944
1.16921
1.16882
1.16873
1.16876
1.16889
1.16914
1.16943
1.16974
1.17001
1.17022
1.17042
1.17061
1.17076
1.17093
1.17108
1.17125
1.17138
1.17153
1.17168
1.17182
1.17197
1.17182
1.17149
1.17119
1.17086
1.17053
1.17022
1.16986
1.16946
1.16922
1.16879
1.16867
1.16865
1.16876
1.16901
1.16923
1.16956
1.16984
1.17006
1.17026
1.17045
1.17063
1.17078
1.17095
1.17111
1.17124
1.17138
1.17154
1.17168
1.17182
1.17197
1.17178
1.17147
1.17122
1.17091
1.17051
1.17013
1.16983
1.1695
1.16916
1.16877
1.16862
1.16859
1.16864
1.16883
1.16906
1.16937
1.16967
1.16991
1.17011
1.17029
1.17048
1.17064
1.1708
1.17096
1.1711
1.17125
1.17138
1.17153
1.17167
1.17182
1.17197
1.17179
1.17146
1.17114
1.17081
1.17051
1.17011
1.16983
1.16952
1.1691
1.1688
1.16858
1.1685
1.16855
1.16867
1.1689
1.16919
1.16948
1.16974
1.16996
1.17014
1.17032
1.1705
1.17065
1.17081
1.17097
1.1711
1.17124
1.17139
1.17153
1.17167
1.17182
1.17196
1.1718
1.17145
1.17112
1.17078
1.17042
1.17005
1.16977
1.16947
1.16908
1.16882
1.16858
1.16843
1.16843
1.16853
1.16874
1.169
1.16933
1.16956
1.16979
1.16999
1.17017
1.17035
1.17051
1.17067
1.17082
1.17096
1.17111
1.17124
1.17138
1.17152
1.17166
1.17181
1.17196
1.17176
1.17142
1.1711
1.17077
1.1704
1.17006
1.16968
1.1694
1.16905
1.16879
1.16853
1.16837
1.16836
1.16842
1.1686
1.16884
1.16912
1.1694
1.16964
1.16983
1.17003
1.1702
1.17036
1.17051
1.17066
1.17082
1.17096
1.17109
1.17124
1.17138
1.17151
1.17167
1.17181
1.17204
1.17196
1.17175
1.17142
1.17107
1.17076
1.17037
1.17002
1.16967
1.16936
1.16905
1.16875
1.1685
1.16832
1.16827
1.16833
1.16846
1.16869
1.16895
1.16923
1.16946
1.16969
1.16987
1.17006
1.17022
1.17037
1.17053
1.17069
1.17082
1.17097
1.1711
1.17123
1.17137
1.17151
1.17166
1.17187
1.17178
1.17204
1.17195
1.17174
1.17146
1.17106
1.17079
1.17031
1.16999
1.16967
1.16933
1.16903
1.16873
1.16848
1.16828
1.1682
1.16822
1.16834
1.16854
1.16881
1.16906
1.1693
1.16953
1.16973
1.16991
1.17008
1.17024
1.17039
1.17054
1.17068
1.17082
1.17095
1.1711
1.17122
1.17136
1.17158
1.1715
1.17171
1.17158
1.17163
1.17187
1.17178
1.17203
1.17195
1.17173
1.17139
1.17104
1.17077
1.17027
1.16995
1.16962
1.1693
1.169
1.16872
1.16847
1.16824
1.16814
1.16814
1.16823
1.16841
1.16863
1.16892
1.16917
1.16937
1.16957
1.16975
1.16994
1.17009
1.17024
1.17039
1.17054
1.17069
1.17082
1.17094
1.17109
1.17122
1.17142
1.17134
1.1715
1.17171
1.17156
1.17163
1.17187
1.17178
1.17204
1.17195
1.17172
1.17142
1.17101
1.17065
1.17024
1.16993
1.1696
1.16929
1.16898
1.1687
1.16844
1.16821
1.16808
1.16806
1.16813
1.16827
1.16848
1.16874
1.16899
1.16922
1.16942
1.16962
1.16978
1.16995
1.17011
1.17026
1.1704
1.17053
1.17067
1.17082
1.17095
1.17109
1.17127
1.17121
1.17143
1.17136
1.17148
1.1717
1.17155
1.17162
1.17186
1.17177
1.17204
1.17194
1.17173
1.17135
1.17095
1.17063
1.17025
1.16987
1.16955
1.16926
1.16895
1.16868
1.16843
1.1682
1.16803
1.16799
1.16802
1.16815
1.16834
1.16859
1.16887
1.16908
1.16928
1.16948
1.16964
1.16981
1.16997
1.17012
1.17027
1.17041
1.17055
1.17068
1.17082
1.17096
1.17114
1.17107
1.17129
1.17122
1.17142
1.17135
1.17148
1.17169
1.17155
1.17162
1.17185
1.17177
1.17203
1.17194
1.17174
1.17133
1.17096
1.17058
1.1703
1.16985
1.16954
1.16923
1.16895
1.16866
1.1684
1.16818
1.16798
1.16792
1.16794
1.16804
1.16821
1.16845
1.16871
1.16894
1.16914
1.16934
1.16951
1.16968
1.16983
1.16999
1.17013
1.17028
1.17043
1.17055
1.17068
1.17082
1.171
1.17094
1.17115
1.17108
1.17128
1.17121
1.17141
1.17134
1.17148
1.17168
1.17154
1.1716
1.17184
1.17176
1.17202
1.17193
1.17171
1.17134
1.17099
1.17054
1.17023
1.16982
1.16951
1.16921
1.16893
1.16865
1.16838
1.16817
1.16794
1.16786
1.16787
1.16794
1.16809
1.1683
1.16854
1.16879
1.16899
1.16917
1.16937
1.16953
1.16969
1.16985
1.17001
1.17016
1.17029
1.17043
1.17054
1.17068
1.17086
1.17079
1.17101
1.17094
1.17114
1.17107
1.17127
1.1712
1.1714
1.17133
1.17146
1.17167
1.17153
1.17159
1.17184
1.17174
1.17202
1.17192
1.17169
1.17133
1.1709
1.17056
1.17017
1.16985
1.16948
1.1692
1.16891
1.16864
1.16837
1.16815
1.16791
1.16781
1.16778
1.16785
1.16796
1.16816
1.16838
1.16864
1.16885
1.16904
1.16923
1.1694
1.16959
1.16971
1.16989
1.17003
1.17017
1.17029
1.17043
1.17054
1.17072
1.17066
1.17086
1.1708
1.171
1.17093
1.17113
1.17106
1.17126
1.17119
1.17139
1.17131
1.17145
1.17165
1.17151
1.17157
1.17182
1.17173
1.17202
1.17191
1.17172
1.17135
1.17095
1.17052
1.17008
1.16983
1.16947
1.16919
1.16891
1.16864
1.16836
1.16812
1.16789
1.16777
1.16772
1.16775
1.16787
1.16803
1.16825
1.16849
1.16874
1.16891
1.1691
1.16927
1.16943
1.16958
1.16973
1.1699
1.17004
1.17017
1.17028
1.17045
1.17059
1.17053
1.17073
1.17066
1.17086
1.17079
1.17099
1.17092
1.17112
1.17105
1.17124
1.17117
1.17137
1.1713
1.17143
1.17163
1.17149
1.17154
1.17181
1.17171
1.17202
1.1719
1.17168
1.17125
1.17086
1.17044
1.17008
1.16984
1.16949
1.16918
1.16891
1.16863
1.16835
1.1681
1.16788
1.16773
1.16765
1.16767
1.16775
1.16792
1.1681
1.16836
1.1686
1.16878
1.16897
1.16913
1.16929
1.16945
1.1696
1.16976
1.16991
1.17004
1.17017
1.17027
1.17046
1.17039
1.1706
1.17053
1.17072
1.17066
1.17085
1.17078
1.17098
1.17091
1.1711
1.17103
1.17122
1.17115
1.17135
1.17127
1.1714
1.17161
1.17146
1.17152
1.17179
1.17168
1.17201
1.17189
1.17165
1.17131
1.17091
1.1705
1.17012
1.16978
1.16945
1.16917
1.1689
1.16863
1.16837
1.1681
1.16787
1.16769
1.16759
1.1676
1.16767
1.1678
1.16799
1.16819
1.16844
1.16867
1.16883
1.16901
1.16917
1.16934
1.16947
1.16962
1.16978
1.16992
1.17005
1.17017
1.1703
1.17025
1.17046
1.17039
1.17059
1.17053
1.17072
1.17065
1.17084
1.17077
1.17097
1.17089
1.17108
1.17101
1.1712
1.17113
1.17132
1.17125
1.17137
1.17158
1.17143
1.17148
1.17177
1.17166
1.172
1.17187
1.17163
1.17124
1.17081
1.17043
1.17003
1.16972
1.16947
1.16916
1.16891
1.16864
1.16837
1.1681
1.16787
1.16769
1.16755
1.16753
1.16758
1.16771
1.16787
1.16807
1.16829
1.16852
1.16871
1.16888
1.16904
1.16922
1.16934
1.16948
1.16964
1.16978
1.16992
1.17004
1.17017
1.17031
1.17024
1.17046
1.1704
1.17059
1.17053
1.17071
1.17065
1.17083
1.17076
1.17095
1.17088
1.17105
1.17098
1.17117
1.17109
1.17129
1.17121
1.17134
1.17155
1.17138
1.17144
1.17174
1.17162
1.17199
1.17185
1.1716
1.17117
1.17082
1.17041
1.17
1.16972
1.16945
1.16917
1.16892
1.16867
1.16839
1.16811
1.16786
1.16766
1.16751
1.16747
1.16749
1.1676
1.16775
1.16796
1.16817
1.16839
1.16861
1.16876
1.16894
1.16908
1.16924
1.16934
1.16948
1.16963
1.16977
1.16991
1.17001
1.17018
1.17011
1.17032
1.17025
1.17046
1.1704
1.17058
1.17052
1.17069
1.17063
1.17081
1.17074
1.17091
1.17083
1.17101
1.17091
1.17112
1.171
1.17124
1.17113
1.17128
1.1715
1.17131
1.17135
1.17171
1.17157
1.17198
1.17182
1.17157
1.17113
1.17073
1.17033
1.16997
1.16975
1.16944
1.16919
1.16893
1.16868
1.1684
1.16812
1.16787
1.16765
1.16748
1.16741
1.16742
1.1675
1.16765
1.16782
1.16805
1.16825
1.16847
1.16866
1.16884
1.16899
1.16912
1.16924
1.16935
1.16949
1.16962
1.16975
1.16989
1.17003
1.16998
1.17018
1.17011
1.17032
1.17026
1.17045
1.1704
1.17056
1.17051
1.17067
1.17061
1.17075
1.17065
1.17079
1.17062
1.17084
1.17057
1.17095
1.1706
1.17111
1.1708
1.17108
1.1714
1.17103
1.17101
1.17167
1.17149
1.17197
1.17179
1.17153
1.17105
1.17063
1.17028
1.16995
1.1697
1.16942
1.1692
1.16895
1.1687
1.16841
1.16815
1.16788
1.16764
1.16746
1.16737
1.16736
1.16743
1.16754
1.16771
1.16791
1.16815
1.16832
1.16853
1.16866
1.16885
1.16902
1.16914
1.16926
1.16937
1.16949
1.16961
1.16972
1.16989
1.17003
1.16995
1.17017
1.17012
1.17031
1.17026
1.17043
1.17039
1.17053
1.17047
1.17054
1.17044
1.17038
1.17008
1.17008
1.16936
1.16992
1.16861
1.17007
1.16854
1.17052
1.16912
1.17013
1.17105
1.16973
1.16946
1.1716
1.17119
1.17196
1.17175
1.17141
1.17087
1.17054
1.17025
1.16992
1.16967
1.16942
1.16918
1.16895
1.16871
1.16844
1.16817
1.1679
1.16764
1.16746
1.16734
1.16729
1.16733
1.16744
1.16759
1.16779
1.16801
1.16823
1.1684
1.16856
1.16872
1.16888
1.16903
1.16916
1.16927
1.16937
1.16948
1.16959
1.16969
1.16988
1.16981
1.17003
1.16997
1.17017
1.1701
1.17031
1.17025
1.1704
1.17035
1.17034
1.17025
1.16974
1.16938
1.16839
1.16725
1.16668
1.16426
1.16559
1.16158
1.16609
1.16076
1.16773
1.16251
1.1661
1.16947
1.16458
1.16362
1.17141
1.16989
1.17194
1.17165
1.17064
1.17031
1.17007
1.16982
1.16963
1.1694
1.16919
1.16897
1.16874
1.16848
1.1682
1.16792
1.16766
1.16745
1.1673
1.16724
1.16726
1.16734
1.1675
1.16768
1.16787
1.16808
1.16829
1.16846
1.16858
1.16874
1.1689
1.16903
1.16916
1.16926
1.16936
1.16946
1.16954
1.16969
1.16965
1.16985
1.16977
1.17002
1.16995
1.17011
1.17002
1.17028
1.1702
1.17017
1.17008
1.16903
1.16869
1.166
1.16477
1.16152
1.15874
1.15707
1.15254
1.15437
1.14785
1.15452
1.1461
1.1583
1.14784
1.15412
1.16368
1.15101
1.14951
1.17064
1.16516
1.17192
1.17137
1.17004
1.16986
1.16971
1.16958
1.16938
1.16918
1.16898
1.16876
1.16851
1.16825
1.16795
1.16768
1.16745
1.16729
1.16721
1.16719
1.16726
1.16738
1.16755
1.16776
1.16798
1.16816
1.16835
1.16849
1.16862
1.16876
1.16891
1.16904
1.16915
1.16925
1.16931
1.16934
1.16934
1.16965
1.16947
1.16972
1.16959
1.16993
1.16983
1.16972
1.16958
1.16998
1.16985
1.1684
1.16815
1.16355
1.16244
1.15612
1.1538
1.14825
1.14447
1.14188
1.13676
1.13829
1.13178
1.13816
1.13003
1.14201
1.13152
1.13753
1.15787
1.14926
1.13488
1.13423
1.14181
1.16777
1.15137
1.16105
1.15186
1.17187
1.17047
1.16962
1.16954
1.16946
1.16935
1.16917
1.16899
1.16878
1.16854
1.16829
1.16799
1.16772
1.16745
1.16728
1.16717
1.16714
1.16719
1.16728
1.16744
1.16765
1.16786
1.16805
1.16825
1.16841
1.16853
1.16865
1.16879
1.16892
1.16904
1.1691
1.16907
1.16891
1.16867
1.16871
1.16818
1.16943
1.16918
1.16907
1.16878
1.16944
1.16926
1.16743
1.16718
1.16792
1.16767
1.16155
1.16086
1.15174
1.15006
1.14127
1.13867
1.1325
1.12906
1.12665
1.12266
1.12351
1.11887
1.12346
1.11744
1.12668
1.11979
1.12339
1.12941
1.12419
1.14234
1.12797
1.12207
1.12336
1.12763
1.13454
1.16573
1.15728
1.15547
1.14333
1.14536
1.17191
1.16239
1.17034
1.16578
1.16935
1.16931
1.16926
1.16911
1.16898
1.16879
1.16857
1.16832
1.16804
1.16775
1.16747
1.16728
1.16714
1.16709
1.16712
1.16721
1.16735
1.16751
1.16774
1.16795
1.16814
1.16829
1.16846
1.16856
1.16869
1.16882
1.16891
1.16886
1.16844
1.1677
1.16691
1.16691
1.16649
1.16708
1.16565
1.16845
1.16785
1.16626
1.16571
1.16694
1.16663
1.15984
1.15967
1.16036
1.16004
1.14882
1.14796
1.13658
1.135
1.12638
1.12444
1.11966
1.11778
1.1157
1.11382
1.11642
1.11485
1.11353
1.11244
1.11689
1.1143
1.11292
1.11087
1.11238
1.11818
1.11993
1.11607
1.11493
1.11855
1.13518
1.12168
1.11657
1.11739
1.12151
1.12788
1.15149
1.14786
1.13653
1.13857
1.17201
1.17133
1.1694
1.15611
1.16193
1.16918
1.16914
1.16905
1.16895
1.1688
1.1686
1.16836
1.16808
1.16779
1.1675
1.16728
1.16712
1.16704
1.16704
1.16712
1.16725
1.16742
1.16762
1.16783
1.16802
1.1682
1.16833
1.16849
1.16859
1.16871
1.16876
1.16838
1.16676
1.16433
1.16263
1.16039
1.16421
1.16086
1.16259
1.16073
1.16503
1.16393
1.15881
1.15818
1.15949
1.15922
1.14702
1.14702
1.14742
1.14713
1.13393
1.13328
1.12313
1.12235
1.11673
1.1164
1.11308
1.11315
1.1117
1.11128
1.11113
1.11128
1.11155
1.11067
1.11018
1.11246
1.1106
1.10988
1.10854
1.10931
1.11315
1.11469
1.11163
1.11081
1.11346
1.12869
1.11613
1.11247
1.11176
1.11601
1.12182
1.14143
1.14534
1.13012
1.13229
1.17201
1.17099
1.16746
1.15048
1.15719
1.16904
1.16898
1.16891
1.16879
1.16862
1.16839
1.16813
1.16784
1.16754
1.16728
1.16712
1.167
1.16698
1.16704
1.16715
1.16731
1.16751
1.16771
1.1679
1.16808
1.16822
1.16837
1.16852
1.16862
1.16861
1.16769
1.16405
1.159
1.15581
1.15384
1.15205
1.15068
1.15857
1.15602
1.15463
1.15256
1.15734
1.15612
1.14687
1.1465
1.14704
1.14701
1.13293
1.13309
1.13296
1.13287
1.122
1.12195
1.11647
1.11669
1.1135
1.11421
1.11148
1.1119
1.11234
1.11291
1.11004
1.11015
1.11044
1.11087
1.10929
1.1091
1.1092
1.1091
1.10802
1.10825
1.10747
1.10751
1.10938
1.11039
1.10816
1.10783
1.10932
1.12269
1.11131
1.10845
1.10779
1.11117
1.11634
1.13533
1.13945
1.12418
1.12641
1.17202
1.1653
1.17079
1.14499
1.15263
1.16893
1.16886
1.16877
1.16863
1.16843
1.16818
1.16789
1.16759
1.1673
1.16712
1.16698
1.16692
1.16696
1.16706
1.16721
1.16739
1.16759
1.16778
1.16796
1.16813
1.16824
1.16841
1.16855
1.16851
1.16718
1.16167
1.15369
1.14859
1.14421
1.13683
1.1441
1.13785
1.15031
1.14695
1.14341
1.14149
1.14585
1.14482
1.13347
1.13337
1.1333
1.13346
1.12245
1.12273
1.12204
1.12221
1.11709
1.1175
1.11505
1.11592
1.11347
1.11415
1.11562
1.1114
1.11204
1.11275
1.11352
1.10949
1.10995
1.11055
1.11126
1.10832
1.1086
1.10909
1.10697
1.10671
1.10773
1.10733
1.10686
1.10676
1.10713
1.10584
1.10611
1.10624
1.11719
1.10731
1.10547
1.10481
1.10709
1.11144
1.12951
1.13373
1.11866
1.12085
1.172
1.16342
1.17012
1.1394
1.14738
1.16883
1.16875
1.16863
1.16846
1.16823
1.16795
1.16764
1.16734
1.16711
1.16696
1.16688
1.16689
1.16697
1.1671
1.16728
1.16747
1.16767
1.16785
1.16802
1.16815
1.16827
1.16844
1.16844
1.167
1.16023
1.14931
1.14139
1.13516
1.12906
1.12571
1.12404
1.13252
1.12865
1.13908
1.13593
1.13109
1.12953
1.13302
1.13224
1.1233
1.12329
1.12298
1.1232
1.11859
1.11886
1.1179
1.11827
1.11685
1.11769
1.11724
1.1189
1.1143
1.11513
1.11734
1.1164
1.11201
1.11276
1.11346
1.11416
1.10974
1.1105
1.11124
1.11189
1.10823
1.10892
1.10972
1.10606
1.10641
1.10806
1.10802
1.10711
1.10538
1.10505
1.10474
1.1055
1.10434
1.11219
1.10426
1.10368
1.10303
1.10389
1.10721
1.12389
1.12783
1.11355
1.11557
1.17164
1.1594
1.16696
1.13277
1.13958
1.16873
1.16863
1.16848
1.16827
1.168
1.1677
1.16739
1.16712
1.16696
1.16685
1.16683
1.1669
1.16701
1.16717
1.16736
1.16755
1.16774
1.16791
1.16807
1.16817
1.16831
1.16837
1.16702
1.1599
1.14645
1.13574
1.1303
1.12671
1.12357
1.12184
1.12217
1.12352
1.12223
1.12741
1.12524
1.12224
1.12157
1.12317
1.12281
1.11931
1.11936
1.11907
1.11922
1.11967
1.12004
1.11849
1.11916
1.12077
1.12223
1.1183
1.11951
1.12201
1.12062
1.1149
1.11566
1.11645
1.11552
1.11247
1.11296
1.11338
1.11379
1.11045
1.11103
1.11142
1.11159
1.10891
1.10966
1.1102
1.10609
1.10701
1.10887
1.10871
1.10797
1.10505
1.10414
1.10466
1.10587
1.10354
1.10776
1.10239
1.10291
1.10222
1.1018
1.10374
1.11821
1.12143
1.10886
1.1105
1.16445
1.14969
1.15556
1.12506
1.12864
1.16862
1.16849
1.16831
1.16806
1.16777
1.16745
1.16716
1.16696
1.16683
1.16678
1.16682
1.16692
1.16707
1.16724
1.16744
1.16762
1.1678
1.16796
1.1681
1.1682
1.1683
1.16728
1.16017
1.1458
1.13298
1.1285
1.1269
1.12639
1.12787
1.13185
1.12193
1.12429
1.12054
1.12089
1.12093
1.12053
1.11942
1.11955
1.11938
1.11938
1.12051
1.12061
1.12027
1.12042
1.12569
1.12618
1.12368
1.12484
1.12461
1.12802
1.1176
1.11898
1.1222
1.12053
1.11424
1.1148
1.11256
1.11161
1.11151
1.1113
1.11103
1.11085
1.11042
1.11026
1.10968
1.10877
1.10945
1.10957
1.10922
1.10693
1.10788
1.10891
1.10799
1.10824
1.10568
1.10425
1.10543
1.10684
1.10376
1.10396
1.10143
1.10314
1.10235
1.10058
1.10131
1.11256
1.11493
1.10464
1.10579
1.13388
1.1302
1.12423
1.11695
1.11721
1.1685
1.16834
1.16812
1.16784
1.16752
1.16721
1.16696
1.16682
1.16674
1.16676
1.16684
1.16697
1.16714
1.16733
1.16751
1.16769
1.16785
1.16801
1.16811
1.16823
1.16771
1.16144
1.14617
1.13236
1.12806
1.12805
1.13352
1.14637
1.13692
1.14462
1.12763
1.13203
1.12207
1.12435
1.11989
1.12062
1.12172
1.12265
1.1208
1.12114
1.12657
1.1267
1.12643
1.12651
1.1358
1.13675
1.13143
1.13395
1.12269
1.12556
1.12828
1.13127
1.11393
1.11571
1.12024
1.11785
1.11082
1.11106
1.10561
1.10452
1.10765
1.10647
1.10537
1.1045
1.10821
1.1067
1.10481
1.10268
1.10846
1.10726
1.10535
1.10758
1.10758
1.1068
1.10484
1.10672
1.10666
1.10509
1.10633
1.1071
1.10462
1.10103
1.1013
1.10394
1.103
1.10001
1.09976
1.10729
1.10893
1.10108
1.10162
1.13078
1.11441
1.1112
1.10976
1.10863
1.16837
1.16817
1.1679
1.16759
1.16727
1.167
1.16682
1.1667
1.1667
1.16676
1.16688
1.16704
1.16722
1.1674
1.16758
1.16775
1.1679
1.16804
1.16814
1.16798
1.16371
1.14778
1.13256
1.12805
1.13047
1.14111
1.15609
1.15957
1.16355
1.14876
1.15495
1.13756
1.14305
1.12896
1.13278
1.12406
1.1261
1.12891
1.13052
1.12706
1.12779
1.13714
1.13724
1.13715
1.13718
1.14637
1.1493
1.13581
1.14158
1.11929
1.12311
1.12693
1.13062
1.10731
1.1096
1.11569
1.11243
1.10405
1.10403
1.09741
1.09597
1.10051
1.09846
1.09675
1.09557
1.10287
1.1
1.09694
1.09389
1.10474
1.10194
1.09855
1.10683
1.10541
1.10194
1.09904
1.10279
1.10661
1.10588
1.10609
1.10601
1.10534
1.09898
1.10167
1.10464
1.10363
1.09999
1.09871
1.10263
1.10367
1.09843
1.09823
1.1546
1.10573
1.116
1.10384
1.10278
1.16821
1.16797
1.16767
1.16735
1.16704
1.16682
1.16668
1.16665
1.1667
1.1668
1.16695
1.16712
1.1673
1.16748
1.16764
1.16779
1.16795
1.16806
1.16808
1.16573
1.15176
1.13356
1.12806
1.1319
1.14562
1.15958
1.16677
1.16654
1.168
1.16075
1.16442
1.15004
1.15571
1.13981
1.14459
1.13276
1.13584
1.14
1.14207
1.13764
1.13855
1.15062
1.15075
1.15052
1.1507
1.15105
1.15662
1.13283
1.13765
1.14582
1.14169
1.11397
1.11868
1.12351
1.12829
1.09953
1.10229
1.10957
1.10566
1.0951
1.09521
1.09173
1.08941
1.09113
1.0889
1.08739
1.08677
1.09482
1.091
1.0874
1.08435
1.09825
1.09405
1.08963
1.10411
1.10074
1.09452
1.09095
1.09619
1.10532
1.10558
1.10477
1.10296
1.10504
1.09752
1.10202
1.10432
1.10331
1.09995
1.09811
1.09849
1.09895
1.09647
1.09559
1.14033
1.10305
1.11273
1.09903
1.09887
1.16802
1.16774
1.16742
1.16711
1.16685
1.16668
1.16662
1.16664
1.16672
1.16686
1.16703
1.1672
1.16738
1.16754
1.16769
1.16784
1.16799
1.16806
1.16706
1.15666
1.13635
1.12821
1.13185
1.1463
1.15949
1.16663
1.16898
1.16879
1.16898
1.16731
1.16835
1.16229
1.16535
1.15336
1.15817
1.1449
1.14874
1.15389
1.15622
1.15125
1.15224
1.16241
1.16292
1.15992
1.16163
1.14527
1.14824
1.15307
1.15663
1.15998
1.13031
1.13566
1.14066
1.10911
1.11403
1.11934
1.12483
1.09445
1.09749
1.10472
1.10088
1.08684
1.08771
1.09052
1.08758
1.08206
1.08065
1.0803
1.08074
1.08537
1.08161
1.07865
1.07661
1.08962
1.08475
1.08037
1.0989
1.09361
1.0855
1.0819
1.08773
1.10213
1.10437
1.10174
1.09751
1.10408
1.09636
1.10171
1.10346
1.10227
1.09954
1.09768
1.09501
1.09493
1.09484
1.09345
1.16332
1.10184
1.12642
1.09526
1.09623
1.16781
1.1675
1.16718
1.16689
1.16668
1.16658
1.16658
1.16665
1.16678
1.16693
1.16712
1.16728
1.16744
1.16758
1.16772
1.16787
1.16798
1.16768
1.16125
1.14133
1.12878
1.13136
1.14538
1.1579
1.16528
1.1686
1.1693
1.16925
1.16921
1.16925
1.16909
1.16922
1.1681
1.16878
1.16477
1.16682
1.15908
1.16207
1.16522
1.16636
1.16351
1.16424
1.16738
1.16808
1.16289
1.16583
1.14348
1.14626
1.15109
1.15547
1.15933
1.12733
1.13287
1.1383
1.10728
1.1117
1.11658
1.12185
1.09358
1.09666
1.10333
1.09984
1.08237
1.08473
1.09243
1.08851
1.07567
1.07567
1.07676
1.07874
1.07679
1.07418
1.07261
1.07222
1.08043
1.07618
1.07299
1.09168
1.08529
1.07681
1.07423
1.07922
1.09713
1.1019
1.09773
1.09112
1.10199
1.09537
1.10038
1.10137
1.09986
1.09782
1.09693
1.09224
1.09176
1.0933
1.09145
1.16854
1.10312
1.14031
1.09237
1.09452
1.16757
1.16725
1.16694
1.1667
1.16656
1.16653
1.16658
1.1667
1.16685
1.16702
1.16719
1.16733
1.16744
1.16757
1.16771
1.16787
1.16782
1.16455
1.1474
1.13054
1.13004
1.1428
1.15443
1.16213
1.16766
1.16912
1.16935
1.16937
1.1693
1.16938
1.16941
1.1694
1.16934
1.1694
1.16888
1.16919
1.16745
1.16831
1.16903
1.16925
1.16848
1.16877
1.16815
1.16895
1.16087
1.16396
1.16618
1.14122
1.14434
1.14882
1.15322
1.15732
1.12591
1.13097
1.13608
1.10797
1.11176
1.11613
1.12091
1.09599
1.09905
1.1047
1.10182
1.08154
1.08483
1.09707
1.09205
1.0725
1.07375
1.07582
1.07864
1.0709
1.07001
1.0699
1.07025
1.07287
1.07019
1.0687
1.08438
1.07798
1.07061
1.06927
1.07279
1.09182
1.09838
1.09264
1.08479
1.09826
1.09416
1.09769
1.09725
1.09543
1.09488
1.09489
1.09
1.08941
1.09151
1.08959
1.17107
1.10737
1.15329
1.09009
1.09378
1.1673
1.167
1.16674
1.16655
1.1665
1.16652
1.16662
1.16677
1.16694
1.16709
1.16718
1.16723
1.16731
1.16746
1.16766
1.16777
1.16632
1.15374
1.13436
1.12959
1.13884
1.15018
1.15841
1.16582
1.16881
1.16931
1.16942
1.16943
1.16938
1.16945
1.16951
1.16948
1.16955
1.16954
1.16954
1.16956
1.1694
1.1695
1.16961
1.16966
1.16933
1.16951
1.16761
1.16896
1.15922
1.16272
1.1636
1.16597
1.13987
1.14383
1.14774
1.15159
1.15544
1.12617
1.13073
1.13533
1.11121
1.11413
1.11773
1.12181
1.10136
1.10452
1.10888
1.10682
1.08228
1.08701
1.10172
1.09486
1.07151
1.07326
1.07568
1.0789
1.06827
1.0683
1.06885
1.06987
1.06833
1.06741
1.0672
1.07768
1.07198
1.06745
1.06772
1.06895
1.08529
1.09285
1.0853
1.07751
1.09197
1.09204
1.09339
1.09088
1.09037
1.09168
1.09218
1.08823
1.08762
1.08963
1.08798
1.17154
1.11211
1.15621
1.08828
1.09352
1.16703
1.16676
1.16655
1.16648
1.16647
1.16655
1.16668
1.16685
1.16695
1.1669
1.16671
1.16665
1.16684
1.1672
1.16757
1.16692
1.15894
1.13943
1.12986
1.135
1.1456
1.15431
1.16311
1.16828
1.16919
1.16943
1.16942
1.16937
1.16947
1.16948
1.16951
1.16958
1.16955
1.16964
1.16961
1.16967
1.16966
1.16969
1.16968
1.16976
1.16979
1.16945
1.16966
1.1662
1.16512
1.16774
1.16877
1.1577
1.16078
1.16268
1.13988
1.14447
1.14779
1.15117
1.15449
1.12833
1.13209
1.13595
1.11657
1.11871
1.12154
1.12478
1.10783
1.11164
1.11508
1.11373
1.08313
1.08842
1.10422
1.09618
1.07133
1.0733
1.07591
1.07933
1.06732
1.06791
1.06883
1.07007
1.0668
1.06674
1.06692
1.0725
1.07035
1.06725
1.06914
1.06939
1.07833
1.08522
1.08004
1.07479
1.08585
1.08999
1.09023
1.08717
1.08857
1.08983
1.09012
1.08685
1.0862
1.0881
1.08677
1.17085
1.11207
1.15226
1.08701
1.09249
1.16678
1.16657
1.16647
1.16643
1.16648
1.16661
1.16674
1.16675
1.16629
1.16538
1.16479
1.16505
1.16598
1.16701
1.16691
1.16201
1.14514
1.13113
1.13262
1.14131
1.15017
1.15966
1.16741
1.169
1.16933
1.16948
1.16948
1.16942
1.16951
1.16951
1.16956
1.16964
1.1696
1.1697
1.16967
1.16976
1.16973
1.16979
1.16978
1.16986
1.16987
1.16949
1.16977
1.16442
1.16601
1.16746
1.16825
1.16902
1.15735
1.16008
1.16232
1.14124
1.14644
1.14901
1.15171
1.1545
1.13245
1.13525
1.13816
1.12373
1.12534
1.12745
1.12983
1.11232
1.11873
1.12263
1.12133
1.08378
1.08932
1.10519
1.09668
1.07163
1.07367
1.07627
1.07963
1.06762
1.06858
1.0697
1.07094
1.0672
1.06763
1.0681
1.07319
1.07292
1.06979
1.07405
1.07327
1.07745
1.08234
1.08023
1.07597
1.0848
1.08863
1.08953
1.08696
1.08895
1.0898
1.08917
1.08572
1.08513
1.0872
1.08592
1.14422
1.10837
1.12586
1.08608
1.09082
1.16657
1.16646
1.16639
1.16642
1.16653
1.16666
1.16644
1.16528
1.16328
1.16201
1.16218
1.16353
1.16553
1.1665
1.16304
1.15004
1.13433
1.13214
1.13787
1.14634
1.15601
1.16603
1.16876
1.16921
1.16943
1.16952
1.16952
1.16948
1.16957
1.16957
1.16961
1.1697
1.16966
1.16979
1.16975
1.16986
1.16983
1.16987
1.16988
1.16994
1.16998
1.1695
1.16982
1.16428
1.16588
1.16726
1.16822
1.16894
1.15761
1.15999
1.16231
1.14406
1.14929
1.15113
1.15316
1.15533
1.13825
1.14001
1.14192
1.13199
1.13338
1.13492
1.13656
1.1144
1.1233
1.13061
1.12849
1.08399
1.08965
1.10473
1.09588
1.07252
1.07436
1.07671
1.07973
1.0695
1.07056
1.07165
1.07284
1.07103
1.07396
1.07394
1.07567
1.07506
1.07412
1.09583
1.09583
1.07942
1.0838
1.08231
1.07835
1.08634
1.08805
1.09015
1.08861
1.09064
1.09061
1.08925
1.08488
1.08461
1.0868
1.08565
1.11592
1.09778
1.0993
1.08544
1.0882
1.16645
1.16638
1.16637
1.16646
1.16654
1.16614
1.1642
1.16123
1.15931
1.15922
1.16061
1.16293
1.16521
1.16291
1.15248
1.13802
1.13239
1.13562
1.14319
1.15274
1.16405
1.16844
1.1691
1.16932
1.1695
1.16951
1.16957
1.16958
1.16962
1.16964
1.16967
1.16977
1.16972
1.16986
1.16982
1.16994
1.1699
1.16999
1.16998
1.17
1.17007
1.16932
1.16966
1.16987
1.16423
1.16568
1.16712
1.16799
1.16884
1.15826
1.1603
1.16238
1.14773
1.15048
1.15222
1.15413
1.15613
1.14438
1.14534
1.1464
1.13946
1.14096
1.14219
1.14341
1.11464
1.12478
1.13721
1.13283
1.08375
1.08911
1.10105
1.09251
1.0742
1.07567
1.0774
1.07972
1.07575
1.07623
1.07657
1.07717
1.07477
1.09661
1.09586
1.09537
1.09451
1.0944
1.11551
1.11512
1.09634
1.09822
1.09501
1.09509
1.0995
1.0883
1.09171
1.10089
1.10213
1.09205
1.09019
1.08467
1.08426
1.08729
1.08635
1.14605
1.0909
1.09599
1.08476
1.08611
1.16635
1.16633
1.16639
1.16645
1.1659
1.16333
1.15943
1.15687
1.15634
1.15744
1.1596
1.16209
1.16171
1.15258
1.1405
1.13342
1.13481
1.14101
1.15009
1.16173
1.16798
1.16899
1.16922
1.16941
1.1696
1.16958
1.16961
1.16954
1.16965
1.16965
1.16969
1.1697
1.16974
1.16984
1.16979
1.16993
1.16988
1.17002
1.16998
1.17007
1.17005
1.17007
1.17011
1.16928
1.16963
1.16989
1.16386
1.16478
1.16669
1.16739
1.1686
1.15804
1.16031
1.16154
1.14914
1.14823
1.15038
1.15284
1.15555
1.14636
1.14715
1.14797
1.14221
1.14389
1.14477
1.14562
1.11119
1.12315
1.13943
1.13339
1.08263
1.08721
1.09356
1.08785
1.07779
1.07858
1.0794
1.08119
1.09598
1.09606
1.0958
1.09599
1.0951
1.11508
1.1145
1.11494
1.11485
1.11432
1.13833
1.13809
1.11512
1.11558
1.11476
1.11499
1.11633
1.08908
1.10323
1.11732
1.1182
1.10437
1.09121
1.08468
1.08408
1.08832
1.08614
1.16766
1.08783
1.10313
1.08419
1.08497
1.16629
1.16633
1.16641
1.16579
1.16277
1.15802
1.15476
1.15372
1.1543
1.15577
1.15749
1.15797
1.1516
1.14107
1.13464
1.13488
1.1399
1.14829
1.15973
1.16744
1.16888
1.16912
1.1693
1.16948
1.16967
1.16965
1.1697
1.16957
1.16971
1.16975
1.16976
1.1698
1.1699
1.16985
1.17
1.16995
1.17007
1.17004
1.17011
1.1701
1.17011
1.17017
1.16904
1.16956
1.16997
1.16936
1.16963
1.16204
1.16206
1.16535
1.16581
1.16794
1.15495
1.15863
1.15813
1.14678
1.14014
1.1429
1.1466
1.15085
1.14436
1.145
1.14561
1.14088
1.14299
1.1437
1.14426
1.10232
1.11476
1.13714
1.12727
1.08181
1.08536
1.08794
1.08573
1.09589
1.09598
1.09518
1.08406
1.11447
1.11438
1.11373
1.11376
1.11505
1.1378
1.13733
1.13799
1.1379
1.13724
1.15907
1.15907
1.13799
1.13811
1.13774
1.13799
1.1384
1.09053
1.11907
1.13888
1.13931
1.12018
1.10482
1.08492
1.08387
1.08769
1.08743
1.16873
1.08792
1.12793
1.08393
1.08467
1.16628
1.16634
1.16578
1.16257
1.15709
1.15305
1.15159
1.15156
1.15216
1.15269
1.1521
1.14803
1.14076
1.13556
1.13535
1.13973
1.1475
1.15842
1.16695
1.16877
1.16904
1.1692
1.16937
1.16953
1.16972
1.1697
1.16968
1.16974
1.16961
1.16981
1.1698
1.16986
1.16996
1.16991
1.17005
1.17001
1.17012
1.17008
1.17017
1.17015
1.17011
1.16986
1.17024
1.16842
1.16887
1.16933
1.15723
1.1565
1.16214
1.16257
1.1664
1.14701
1.15301
1.1507
1.13854
1.12719
1.13025
1.13477
1.14066
1.13632
1.1367
1.13726
1.13165
1.13504
1.13598
1.13633
1.09088
1.09875
1.12459
1.11039
1.08346
1.08456
1.08667
1.09354
1.11302
1.11305
1.09385
1.11164
1.13735
1.13709
1.13667
1.13653
1.13789