/*--------------------------------*- C++ -*----------------------------------*\
  =========                 |
  \\      /  F ield         | OpenFOAM: The Open Source CFD Toolbox
   \\    /   O peration     | Website:  https://openfoam.org
    \\  /    A nd           | Version:  dev
     \\/     M anipulation  |
\*---------------------------------------------------------------------------*/
FoamFile
{
    version     2.0;
    format      ascii;
    class       volScalarField;
    location    "2500";
    object      T;
}
// * * * * * * * * * * * * * * * * * * * * * * * * * * * * * * * * * * * * * //

dimensions      [0 0 0 1 0 0 0];

internalField   nonuniform List<scalar> 
9729
(
300.088
300.124
300.11
300.131
300.2
300.101
300.129
300.242
300.206
300.086
300.117
300.256
300.273
300.184
300.068
300.11
300.255
300.322
300.27
300.159
300.06
300.095
300.237
300.343
300.336
300.253
300.143
300.054
300.083
300.206
300.346
300.387
300.318
300.217
300.124
300.051
300.086
300.198
300.348
300.413
300.39
300.293
300.198
300.117
300.048
300.075
300.188
300.332
300.425
300.441
300.376
300.271
300.18
300.105
300.047
300.078
300.184
300.309
300.423
300.47
300.435
300.344
300.246
300.162
300.1
300.045
300.075
300.159
300.275
300.406
300.488
300.484
300.413
300.309
300.225
300.147
300.095
300.041
300.065
300.154
300.253
300.4
300.496
300.519
300.473
300.386
300.279
300.202
300.145
300.092
300.041
300.063
300.15
300.249
300.392
300.487
300.544
300.518
300.443
300.349
300.266
300.195
300.135
300.087
300.04
300.062
300.152
300.246
300.352
300.482
300.557
300.563
300.51
300.416
300.327
300.248
300.188
300.132
300.084
300.037
300.06
300.147
300.227
300.322
300.474
300.552
300.589
300.556
300.468
300.383
300.303
300.232
300.175
300.127
300.082
300.036
300.059
300.14
300.226
300.33
300.443
300.553
300.609
300.603
300.546
300.449
300.36
300.279
300.227
300.171
300.121
300.08
300.035
300.062
300.141
300.225
300.303
300.426
300.544
300.615
300.632
300.594
300.509
300.416
300.337
300.271
300.217
300.164
300.119
300.078
300.035
300.057
300.132
300.219
300.294
300.418
300.503
300.622
300.65
300.635
300.559
300.479
300.392
300.311
300.256
300.21
300.163
300.116
300.075
300.034
300.06
300.134
300.207
300.289
300.407
300.487
300.622
300.67
300.669
300.624
300.527
300.443
300.369
300.308
300.255
300.202
300.16
300.114
300.075
300.033
300.059
300.13
300.209
300.282
300.398
300.488
300.606
300.684
300.695
300.665
300.595
300.506
300.409
300.348
300.296
300.247
300.197
300.155
300.113
300.074
300.033
300.055
300.128
300.207
300.285
300.389
300.48
300.581
300.691
300.712
300.698
300.639
300.563
300.466
300.397
300.338
300.288
300.241
300.196
300.154
300.111
300.073
300.034
300.058
300.123
300.205
300.289
300.378
300.479
300.561
300.692
300.737
300.728
300.69
300.615
300.532
300.444
300.381
300.33
300.281
300.234
300.192
300.15
300.11
300.07
300.032
300.059
300.124
300.205
300.292
300.376
300.462
300.544
300.688
300.743
300.76
300.728
300.665
300.573
300.491
300.425
300.365
300.32
300.275
300.23
300.19
300.148
300.108
300.072
300.032
300.058
300.125
300.201
300.289
300.376
300.463
300.561
300.682
300.747
300.776
300.764
300.702
300.627
300.551
300.472
300.415
300.361
300.31
300.269
300.227
300.187
300.146
300.109
300.071
300.034
300.054
300.125
300.209
300.288
300.359
300.453
300.555
300.652
300.753
300.792
300.792
300.757
300.685
300.599
300.526
300.458
300.398
300.355
300.307
300.266
300.224
300.187
300.144
300.108
300.068
300.034
300.052
300.133
300.212
300.293
300.367
300.457
300.563
300.657
300.751
300.807
300.815
300.792
300.731
300.652
300.571
300.497
300.448
300.395
300.344
300.304
300.257
300.22
300.185
300.146
300.107
300.07
300.032
300.053
300.123
300.201
300.296
300.376
300.456
300.552
300.649
300.735
300.822
300.834
300.822
300.776
300.702
300.619
300.547
300.484
300.435
300.388
300.341
300.301
300.26
300.217
300.183
300.146
300.106
300.071
300.034
300.054
300.122
300.212
300.294
300.383
300.461
300.56
300.668
300.729
300.829
300.854
300.846
300.813
300.75
300.675
300.596
300.529
300.475
300.424
300.376
300.338
300.296
300.257
300.215
300.181
300.144
300.108
300.07
300.034
300.053
300.137
300.216
300.3
300.385
300.467
300.559
300.663
300.726
300.836
300.868
300.874
300.846
300.783
300.726
300.641
300.571
300.516
300.466
300.417
300.372
300.332
300.291
300.251
300.217
300.182
300.143
300.107
300.071
300.033
300.062
300.143
300.207
300.287
300.39
300.49
300.567
300.651
300.741
300.84
300.88
300.89
300.876
300.827
300.77
300.691
300.614
300.552
300.503
300.456
300.41
300.369
300.329
300.287
300.252
300.215
300.182
300.145
300.108
300.072
300.035
300.059
300.144
300.227
300.313
300.391
300.493
300.566
300.647
300.754
300.833
300.891
300.911
300.898
300.869
300.811
300.737
300.661
300.595
300.539
300.495
300.45
300.403
300.365
300.327
300.286
300.253
300.217
300.181
300.145
300.11
300.072
300.036
300.056
300.146
300.232
300.319
300.413
300.508
300.579
300.658
300.758
300.828
300.89
300.927
300.929
300.904
300.851
300.783
300.7
300.641
300.584
300.533
300.487
300.442
300.402
300.361
300.324
300.289
300.251
300.217
300.182
300.146
300.111
300.074
300.036
300.066
300.153
300.235
300.321
300.416
300.504
300.604
300.676
300.766
300.834
300.901
300.942
300.947
300.932
300.885
300.826
300.754
300.682
300.622
300.572
300.521
300.479
300.438
300.401
300.362
300.323
300.289
300.254
300.218
300.182
300.148
300.11
300.074
300.017
300.037
300.067
300.151
300.241
300.324
300.424
300.513
300.605
300.685
300.766
300.842
300.909
300.956
300.969
300.954
300.922
300.863
300.798
300.726
300.666
300.609
300.563
300.516
300.474
300.436
300.395
300.357
300.323
300.284
300.253
300.221
300.184
300.149
300.111
300.059
300.081
300.017
300.038
300.07
300.141
300.244
300.314
300.439
300.521
300.605
300.692
300.771
300.847
300.912
300.964
300.987
300.981
300.951
300.902
300.832
300.768
300.706
300.648
300.597
300.552
300.51
300.469
300.431
300.395
300.359
300.322
300.291
300.254
300.222
300.186
300.133
300.152
300.1
300.131
300.118
300.058
300.08
300.018
300.039
300.07
300.158
300.25
300.318
300.449
300.532
300.615
300.7
300.776
300.851
300.914
300.974
301.001
301.003
300.979
300.934
300.878
300.804
300.741
300.69
300.638
300.594
300.545
300.507
300.469
300.43
300.394
300.356
300.323
300.292
300.255
300.223
300.172
300.191
300.151
300.101
300.138
300.12
300.059
300.081
300.017
300.04
300.073
300.15
300.255
300.35
300.456
300.536
300.621
300.702
300.781
300.855
300.921
300.981
301.016
301.022
301.004
300.97
300.915
300.849
300.785
300.727
300.676
300.627
300.585
300.543
300.502
300.465
300.428
300.395
300.36
300.323
300.291
300.256
300.211
300.225
300.17
300.187
300.157
300.103
300.139
300.121
300.062
300.083
300.017
300.041
300.07
300.168
300.271
300.354
300.452
300.549
300.632
300.709
300.788
300.859
300.923
300.984
301.028
301.039
301.031
300.999
300.951
300.886
300.817
300.763
300.712
300.661
300.62
300.579
300.538
300.499
300.461
300.427
300.391
300.358
300.323
300.289
300.242
300.26
300.205
300.223
300.173
300.189
300.157
300.104
300.14
300.123
300.064
300.085
300.018
300.042
300.067
300.172
300.268
300.366
300.438
300.555
300.636
300.715
300.789
300.863
300.93
300.989
301.039
301.056
301.052
301.027
300.985
300.924
300.857
300.798
300.748
300.696
300.654
300.61
300.572
300.532
300.498
300.46
300.422
300.391
300.358
300.323
300.277
300.294
300.24
300.258
300.207
300.225
300.175
300.193
300.158
300.106
300.142
300.126
300.066
300.088
300.02
300.044
300.073
300.168
300.258
300.376
300.456
300.562
300.641
300.719
300.794
300.866
300.934
300.99
301.051
301.07
301.07
301.053
301.013
300.962
300.899
300.836
300.784
300.738
300.688
300.648
300.609
300.569
300.526
300.489
300.456
300.421
300.392
300.358
300.313
300.33
300.275
300.294
300.243
300.261
300.21
300.228
300.177
300.195
300.161
300.109
300.146
300.13
300.068
300.091
300.02
300.046
300.077
300.17
300.282
300.369
300.47
300.554
300.649
300.722
300.797
300.867
300.937
300.995
301.058
301.084
301.091
301.075
301.046
300.996
300.94
300.873
300.819
300.772
300.724
300.68
300.634
300.602
300.558
300.522
300.487
300.456
300.42
300.394
300.348
300.363
300.312
300.329
300.277
300.296
300.245
300.263
300.213
300.231
300.18
300.199
300.165
300.114
300.15
300.135
300.071
300.095
300.021
300.048
300.069
300.165
300.269
300.38
300.494
300.556
300.651
300.724
300.795
300.866
300.939
301.002
301.062
301.093
301.108
301.099
301.069
301.028
300.972
300.912
300.847
300.804
300.758
300.713
300.674
300.634
300.596
300.555
300.519
300.487
300.458
300.416
300.381
300.397
300.347
300.363
300.313
300.331
300.279
300.298
300.249
300.266
300.217
300.235
300.185
300.203
300.17
300.119
300.156
300.141
300.075
300.1
300.023
300.051
300.08
300.188
300.29
300.4
300.492
300.554
300.646
300.726
300.797
300.868
300.94
301.005
301.063
301.102
301.125
301.118
301.099
301.056
301.01
300.944
300.883
300.837
300.79
300.748
300.708
300.668
300.629
300.589
300.553
300.518
300.485
300.461
300.414
300.431
300.379
300.395
300.347
300.363
300.316
300.332
300.282
300.301
300.252
300.27
300.222
300.24
300.19
300.209
300.177
300.125
300.163
300.149
300.079
300.106
300.024
300.055
300.085
300.173
300.278
300.383
300.48
300.568
300.654
300.728
300.798
300.868
300.935
301.006
301.066
301.112
301.139
301.137
301.12
301.087
301.039
300.988
300.924
300.865
300.824
300.78
300.738
300.696
300.663
300.624
300.585
300.549
300.516
300.486
300.453
300.467
300.413
300.43
300.38
300.395
300.349
300.365
300.318
300.335
300.286
300.305
300.258
300.275
300.228
300.246
300.197
300.217
300.184
300.132
300.171
300.157
300.085
300.114
300.026
300.059
300.089
300.19
300.303
300.401
300.504
300.584
300.65
300.73
300.795
300.865
300.933
301.005
301.066
301.113
301.148
301.156
301.142
301.11
301.068
301.018
300.962
300.905
300.855
300.812
300.772
300.727
300.696
300.661
300.62
300.586
300.551
300.518
300.487
300.452
300.47
300.414
300.429
300.381
300.397
300.352
300.367
300.322
300.338
300.291
300.309
300.264
300.283
300.236
300.256
300.205
300.227
300.194
300.141
300.182
300.169
300.091
300.123
300.028
300.064
300.096
300.208
300.298
300.404
300.51
300.582
300.653
300.725
300.79
300.857
300.929
301
301.066
301.12
301.159
301.169
301.164
301.138
301.1
301.044
300.992
300.936
300.88
300.843
300.798
300.76
300.722
300.695
300.66
300.623
300.588
300.552
300.527
300.483
300.501
300.448
300.466
300.414
300.43
300.384
300.399
300.355
300.37
300.327
300.343
300.3
300.32
300.276
300.3
300.249
300.277
300.218
300.247
300.21
300.154
300.202
300.192
300.1
300.135
300.031
300.071
300.105
300.217
300.321
300.425
300.517
300.576
300.656
300.719
300.787
300.853
300.926
300.998
301.064
301.122
301.164
301.183
301.182
301.162
301.125
301.082
301.021
300.97
300.914
300.868
300.822
300.785
300.752
300.72
300.692
300.658
300.625
300.592
300.558
300.523
300.536
300.484
300.501
300.448
300.464
300.417
300.429
300.388
300.402
300.362
300.377
300.342
300.366
300.331
300.374
300.318
300.388
300.292
300.378
300.25
300.33
300.259
300.178
300.271
300.276
300.111
300.157
300.034
300.08
300.115
300.237
300.346
300.436
300.522
300.587
300.66
300.717
300.782
300.847
300.921
300.991
301.06
301.123
301.17
301.193
301.197
301.181
301.153
301.108
301.057
300.997
300.954
300.901
300.866
300.82
300.777
300.745
300.717
300.689
300.658
300.629
300.599
300.557
300.522
300.542
300.486
300.499
300.45
300.463
300.421
300.431
300.395
300.41
300.393
300.418
300.434
300.508
300.511
300.69
300.549
300.881
300.512
300.898
300.401
300.752
300.497
300.266
300.599
300.668
300.128
300.231
300.038
300.091
300.145
300.284
300.368
300.444
300.528
300.593
300.659
300.72
300.78
300.844
300.915
300.983
301.054
301.122
301.169
301.202
301.213
301.204
301.177
301.14
301.089
301.032
300.977
300.933
300.891
300.852
300.811
300.774
300.741
300.714
300.687
300.66
300.634
300.608
300.558
300.576
300.523
300.537
300.487
300.504
300.452
300.466
300.429
300.44
300.443
300.467
300.596
300.685
300.935
301.223
301.368
301.981
301.644
302.664
301.518
302.875
301.102
302.428
301.515
300.665
301.902
302.144
300.177
300.558
300.042
300.114
300.342
300.427
300.488
300.554
300.602
300.663
300.718
300.776
300.836
300.904
300.974
301.048
301.116
301.171
301.211
301.225
301.221
301.201
301.162
301.116
301.068
301.015
300.96
300.917
300.887
300.847
300.807
300.773
300.741
300.715
300.689
300.667
300.646
300.608
300.618
300.567
300.587
300.525
300.543
300.501
300.524
300.46
300.479
300.487
300.509
300.774
300.86
301.54
301.852
302.679
303.389
303.818
304.987
304.515
306.208
304.477
306.667
303.505
306.212
304.582
302.131
305.387
305.776
300.371
301.754
300.047
300.186
300.495
300.541
300.581
300.615
300.669
300.719
300.773
300.829
300.894
300.961
301.039
301.109
301.171
301.212
301.235
301.239
301.222
301.191
301.15
301.094
301.039
300.993
300.945
300.909
300.878
300.841
300.803
300.772
300.742
300.719
300.703
300.696
300.697
300.618
300.662
300.601
300.633
300.547
300.572
300.599
300.636
300.534
300.567
300.932
300.996
302.161
302.444
304.063
304.661
306.103
307.094
307.775
309.131
308.726
310.464
308.76
310.933
307.743
310.534
308.928
303.614
305.841
309.633
309.807
307.795
301.093
305.294
302.8
305.166
300.061
300.412
300.604
300.625
300.645
300.675
300.723
300.77
300.823
300.885
300.952
301.028
301.1
301.17
301.213
301.244
301.251
301.24
301.216
301.176
301.122
301.069
301.022
300.97
300.929
300.899
300.868
300.834
300.8
300.772
300.756
300.765
300.803
300.866
300.854
300.988
300.674
300.735
300.763
300.837
300.67
300.717
301.177
301.239
301.054
301.117
302.672
302.847
305.195
305.632
307.936
308.624
310.27
311.195
311.845
312.929
312.697
313.965
312.711
314.359
311.837
313.712
312.731
311.101
312.512
307.656
311.488
313.087
312.737
311.58
309.724
301.609
303.768
304.231
307.395
306.861
300.05
302.457
300.446
301.598
300.672
300.682
300.697
300.736
300.77
300.82
300.877
300.943
301.016
301.091
301.165
301.213
301.25
301.264
301.258
301.235
301.199
301.157
301.1
301.045
300.998
300.961
300.918
300.891
300.86
300.827
300.803
300.815
300.922
301.11
301.308
301.308
301.415
301.266
301.628
300.921
301.072
301.473
301.613
301.301
301.38
303.106
303.151
302.975
303.055
305.954
306.179
309.18
309.6
311.919
312.446
313.751
314.269
314.84
315.358
314.638
315.071
315.439
315.741
314.507
315.222
315.605
316.173
315.754
314.153
313.672
314.733
315.047
314.05
309.552
313.195
314.593
314.368
313.24
311.512
305.261
306.206
309.193
308.652
300.024
300.195
300.68
304.068
302.577
300.718
300.728
300.751
300.777
300.816
300.87
300.932
301.003
301.08
301.156
301.213
301.254
301.276
301.276
301.257
301.225
301.18
301.129
301.076
301.028
300.983
300.951
300.909
300.884
300.853
300.841
300.938
301.347
301.963
302.395
302.966
301.993
302.846
302.405
302.88
301.785
302.063
303.37
303.531
303.196
303.265
306.423
306.425
306.32
306.395
309.886
310.06
312.802
313.016
314.556
314.649
315.566
315.547
315.945
316.063
316.105
316.065
315.985
316.232
316.369
315.731
316.248
316.449
316.824
316.608
315.54
315.112
315.96
316.19
315.451
311.293
314.714
315.727
315.923
314.748
313.154
307.894
306.865
310.906
310.325
300.023
300.28
301.171
305.524
303.789
300.752
300.768
300.788
300.818
300.864
300.922
300.99
301.066
301.145
301.212
301.254
301.285
301.292
301.276
301.249
301.208
301.159
301.107
301.058
301.012
300.978
300.94
300.902
300.877
300.88
301.11
302.032
303.321
304.14
304.649
305.113
305.468
303.433
304.087
304.446
304.979
303.747
304.061
306.461
306.56
306.418
306.426
310.154
310.111
310.146
310.169
313.112
313.126
314.629
314.569
315.449
315.253
316.009
315.891
315.769
315.612
316.408
316.377
316.298
316.178
316.614
316.668
316.64
316.664
316.968
316.903
317.121
317.108
316.587
316.305
316.925
317.019
316.599
312.917
316.046
316.841
317.027
316.084
314.656
309.512
308.417
312.513
311.909
300.02
301.717
300.331
306.958
304.965
300.78
300.798
300.822
300.86
300.912
300.978
301.052
301.131
301.206
301.255
301.291
301.305
301.295
301.272
301.235
301.188
301.137
301.088
301.042
300.999
300.971
300.93
300.893
300.904
301.24
302.638
304.689
306.013
307.157
309.108
307.188
308.837
305.565
306.441
307.37
307.874
306.728
306.998
310.007
310.036
310.053
310.011
312.988
312.912
313.1
313.054
314.459
314.345
315.022
314.782
315.459
315.269
314.863
316.032
315.854
315.656
315.444
316.56
316.432
316.267
316.068
316.885
316.808
316.672
317.26
317.333
317.051
317.16
317.291
317.318
317.212
317.575
317.499
317.461
314.422
317.159
317.676
317.859
317.22
316.008
311.071
309.939
314.019
313.419
300.025
302.194
300.5
308.43
306.331
300.805
300.828
300.858
300.904
300.965
301.037
301.117
301.195
301.254
301.293
301.316
301.313
301.293
301.26
301.216
301.167
301.117
301.071
301.027
300.994
300.963
300.922
300.92
301.285
303.007
305.824
307.901
309.554
311.191
312.096
312.551
310.261
311.301
308.513
309.35
310.645
311.065
310.128
310.336
312.756
312.758
312.842
312.784
314.046
313.972
314.235
314.134
314.525
314.295
314.418
313.961
315.228
314.998
314.389
314.647
315.86
315.654
315.458
315.266
316.49
316.28
316.073
315.894
316.911
316.717
316.497
317.515
317.416
316.958
316.968
317.221
317.702
317.794
317.882
317.669
317.991
315.799
318.011
318.178
318.359
318.116
317.186
312.591
311.523
315.425
314.866
300.116
303.222
301.296
310.195
308.381
300.831
300.859
300.899
300.953
301.022
301.1
301.181
301.251
301.294
301.324
301.329
301.312
301.284
301.243
301.196
301.146
301.099
301.056
301.015
300.99
300.954
300.939
301.279
303.091
306.572
309.401
310.855
311.826
312.677
313.151
313.06
312.693
313.043
311.638
312.226
313.042
313.224
312.79
312.888
313.846
313.831
313.913
313.871
313.75
313.649
314.074
313.891
313.45
313.052
314.124
313.794
313.109
313.491
315.062
314.852
314.631
314.889
315.734
315.598
315.48
315.365
316.294
316.132
316.022
315.976
316.722
316.512
316.36
317.505
317.249
316.732
316.774
316.981
317.794
318.049
317.905
317.565
318.215
317.031
318.536
318.391
318.586
318.702
318.155
314.14
313.259
316.724
316.266
301.933
305.728
304.209
312.273
311.304
300.859
300.894
300.942
301.006
301.083
301.165
301.241
301.294
301.328
301.341
301.33
301.306
301.269
301.224
301.175
301.127
301.083
301.042
301.007
300.98
300.956
301.214
303.021
306.742
310.137
311.341
311.774
311.913
311.514
310.443
313.125
312.484
313.507
313.412
313.401
313.509
313.816
313.78
313.826
313.826
313.519
313.49
313.584
313.545
312.111
311.975
312.657
312.341
312.403
311.48
314.317
313.936
313.057
313.513
315.242
315.085
315.704
315.966
315.997
316.055
316.129
316.179
316.3
316.343
316.504
316.756
316.57
316.535
316.632
317.269
317.005
316.72
316.975
316.905
317.617
318.018
317.688
317.295
318.155
318.094
318.806
318.327
318.549
319.044
318.839
315.694
315.041
317.903
317.579
309.895
310.885
312.495
314.484
314.413
300.891
300.933
300.991
301.064
301.146
301.227
301.292
301.329
301.352
301.347
301.327
301.293
301.25
301.203
301.155
301.11
301.069
301.03
301.003
300.975
301.106
302.696
306.644
310.304
311.461
311.464
309.994
306.594
309.087
307.051
311.578
310.394
313.09
312.469
313.686
313.485
313.186
312.931
313.44
313.346
311.87
311.833
311.909
311.885
309.392
309.139
310.561
309.885
312.923
312.145
311.407
310.604
315.325
314.833
313.591
314.245
316.185
316.12
317.638
317.943
317.067
317.396
317.704
317.949
316.913
317.333
317.862
318.458
316.842
317.176
317.71
317.086
317.086
317.305
317.85
317.326
317.343
317.781
317.433
317.222
317.912
318.919
318.842
318.1
318.363
319.204
319.277
317.161
316.703
318.903
318.749
310.72
315.184
316.073
316.471
316.785
300.926
300.978
301.047
301.127
301.21
301.283
301.329
301.36
301.361
301.346
301.316
301.276
301.23
301.183
301.138
301.096
301.057
301.02
300.996
301.036
302.118
306.222
310.25
311.463
310.811
307.976
304.069
303.176
302.162
305.968
304.365
308.918
307.466
311.222
310.195
312.548
311.995
311.235
310.802
311.736
311.538
309.032
309.007
309.031
309.023
306.598
305.834
309.389
307.859
313.852
312.808
311.771
310.778
317.163
316.525
314.838
315.741
318.075
318.08
319.953
320.36
319.071
319.651
320.135
320.471
318.404
319.213
320.081
320.949
317.879
318.667
319.623
317.297
317.693
318.666
319.483
318.426
317.356
317.559
317.501
317.525
317.709
319.495
318.736
317.903
318.185
319.21
319.572
318.465
318.172
319.651
319.705
304.448
317.598
314.742
318.123
318.422
300.967
301.03
301.107
301.191
301.27
301.327
301.365
301.372
301.362
301.337
301.299
301.256
301.209
301.164
301.122
301.083
301.045
301.015
301.012
301.606
305.185
309.98
311.459
310.427
306.79
303.173
301.344
301.401
301.033
302.875
301.94
305.637
304.167
308.321
307.062
310.199
309.377
308.273
307.726
308.899
308.656
305.489
305.454
305.515
305.469
305.378
303.937
310.182
308.899
306.743
307.828
315.314
314.017
312.699
311.404
319.352
318.571
316.534
317.627
320.607
320.576
321.572
322.237
321.739
322.381
322.817
322.996
320.682
321.776
322.81
323.695
319.708
320.901
322.167
318.054
319.003
320.765
321.785
320.289
317.716
317.64
317.869
318.375
317.79
319.909
318.636
317.991
318.274
319.219
319.739
319.631
319.5
320.205
320.452
308.176
318.345
315.644
319.476
319.522
301.015
301.087
301.171
301.253
301.321
301.365
301.38
301.376
301.356
301.322
301.278
301.234
301.189
301.148
301.109
301.071
301.034
301.016
301.268
303.919
309.235
311.421
310.44
306.61
303.197
301.379
300.785
300.834
300.784
301.208
300.945
302.482
301.704
304.776
303.536
306.981
305.977
304.64
304.038
305.323
305.067
302.453
302.323
303.091
302.652
306.886
306.109
304.854
303.936
303.076
310.86
309.428
308.1
316.665
315.298
313.838
312.341
320.795
319.93
317.891
318.973
322.978
322.728
321.919
322.766
324.362
324.773
324.876
324.749
323.398
324.489
325.356
325.954
322.169
323.574
324.85
319.52
321.024
323.356
324.398
322.711
318.61
317.978
318.716
319.911
318.059
320.236
318.724
318.233
318.568
319.334
319.86
320.618
320.637
320.667
321.06
302.217
318.684
311.895
320.544
320.267
301.07
301.15
301.234
301.309
301.363
301.39
301.39
301.374
301.342
301.302
301.255
301.214
301.173
301.136
301.102
301.064
301.036
301.112
302.744
307.915
311.266
310.572
306.852
303.603
301.721
300.881
300.705
300.715
300.725
300.718
300.757
300.726
301.008
300.836
301.851
301.331
303.304
302.539
301.737
301.449
302.174
301.986
301.192
301.014
302.331
301.585
307.356
306.625
305.368
304.233
303.242
311.664
310.173
308.724
317.176
315.945
314.595
313.152
321.045
320.167
318.281
319.266
324.273
323.589
321.37
322.494
326.232
326.232
325.911
325.331
325.899
326.668
327.13
327.245
324.83
326.076
327.016
321.574
323.413
325.889
326.646
325.179
320.018
318.671
319.848
321.732
318.645
320.515
319.097
318.82
319.244
319.818
320.07
321.402
321.535
321.1
321.624
300.895
318.32
308.179
321.362
320.751
301.131
301.214
301.295
301.357
301.395
301.402
301.39
301.361
301.322
301.279
301.235
301.201
301.172
301.141
301.104
301.063
301.077
301.904
306.32
310.792
310.928
307.53
304.497
302.521
301.116
300.747
300.691
300.685
300.702
300.685
300.677
300.679
300.694
300.68
300.812
300.732
301.173
300.955
300.774
300.719
300.912
300.839
300.997
300.794
302.847
302.059
301.495
307.952
307.128
305.957
304.813
303.757
312.048
310.682
309.314
316.984
315.928
314.72
313.408
320.357
319.49
317.897
318.708
324.512
323.558
320.042
321.472
327.163
326.794
326.183
325.354
327.636
327.899
327.93
327.825
327.05
327.842
328.283
323.673
325.54
327.715
328.11
327.067
321.531
319.666
321.298
323.556
319.698
320.852
319.854
319.981
320.487
320.639
320.641
322.036
322.202
321.604
322.148
300.26
317.128
304.786
322.008
320.958
301.2
301.28
301.347
301.395
301.41
301.404
301.381
301.343
301.299
301.262
301.239
301.226
301.205
301.167
301.116
301.088
301.456
304.671
309.768
311.048
308.577
305.6
303.474
301.582
300.827
300.701
300.674
300.671
300.682
300.665
300.651
300.658
300.64
300.644
300.644
300.64
300.68
300.656
300.627
300.614
300.7
300.652
301.131
300.79
303.267
302.375
302.15
301.549
308.309
307.264
306.238
305.237
304.241
311.976
310.747
309.516
316.082
315.273
314.279
313.163
318.832
317.944
316.728
317.301
324.293
322.922
318.724
320.664
327.45
326.932
326.22
325.273
328.41
328.402
328.235
327.932
328.391
328.662
328.723
325.627
327.3
328.646
328.547
328.19
323.41
321.235
323.394
325.664
321.477
321.441
321.05
321.766
321.888
321.522
321.394
322.534
322.708
322.127
322.598
300.142
315.803
304.033
322.524
321.029
301.269
301.34
301.395
301.414
301.417
301.399
301.364
301.322
301.295
301.308
301.355
301.372
301.324
301.233
301.137
301.303
303.333
308.418
310.975
309.598
306.794
304.527
302.272
300.961
300.731
300.669
300.671
300.683
300.66
300.658
300.651
300.632
300.641
300.619
300.625
300.61
300.613
300.607
300.608
300.589
300.582
300.666
300.615
301.49
301.763
301.1
300.84
303.658
302.87
302.384
308.307
307.095
306.225
305.346
304.484
311.394
310.382
309.348
314.6
314.011
313.236
312.355
317.013
315.958
315.01
315.38
324.039
322.509
318.017
320.287
327.498
326.914
326.146
325.141
328.686
328.509
328.232
327.862
328.834
328.851
328.793
327.117
327.743
328.684
328.096
328.024
325.396
323.395
324.872
326.411
323.184
322.005
321.909
322.782
322.364
322.01
321.953
322.919
323.11
322.548
322.934
300.316
315.812
305.054
322.882
321.319
301.336
301.39
301.417
301.428
301.415
301.383
301.349
301.345
301.463
301.693
301.843
301.776
301.541
301.281
301.305
302.549
306.912
310.633
310.235
307.923
305.603
303.151
301.18
300.778
300.694
300.658
300.657
300.672
300.649
300.648
300.637
300.617
300.626
300.602
300.609
300.588
300.595
300.58
300.584
300.562
300.56
300.656
300.586
301.941
301.537
301.17
300.97
300.774
303.748
303.046
302.474
307.945
306.578
305.907
305.206
304.482
310.284
309.537
308.761
312.639
312.204
311.631
310.989
315.762
314
312.939
313.292
323.845
322.245
317.743
320.14
327.398
326.794
326.029
325.046
328.581
328.292
327.953
327.583
328.695
328.561
328.417
326.874
326.944
327.89
326.582
326.826
325.607
324.173
324.778
326.036
323.442
322.373
322.084
322.814
322.239
322.003
322.197
323.238
323.412
322.786
323.158
307.145
316.839
312.037
323.144
321.789
301.39
301.418
301.436
301.429
301.401
301.368
301.423
301.717
302.225
302.55
302.504
302.161
301.653
301.408
302.286
305.63
309.774
310.363
308.833
306.602
304.09
301.529
300.837
300.723
300.669
300.648
300.646
300.656
300.635
300.634
300.624
300.601
300.612
300.58
300.59
300.561
300.569
300.559
300.558
300.544
300.532
300.653
300.573
301.976
301.568
301.22
300.977
300.795
303.681
303.07
302.476
307.202
305.834
305.354
304.828
304.267
308.738
308.27
307.766
310.408
310.035
309.624
309.186
315.185
312.753
310.778
311.349
323.776
322.146
317.866
320.359
327.116
326.574
325.883
325.002
327.993
327.673
327.349
326.996
327.506
326.613
326.624
326.119
326.294
326.557
320.06
320.06
325.009
323.728
324.158
325.32
322.987
322.522
321.887
322.317
321.728
321.75
322.161
323.471
323.552
322.888
323.222
314.739
319.811
319.381
323.323
322.537
301.419
301.44
301.442
301.419
301.4
301.501
301.992
302.746
303.237
303.261
302.905
302.314
301.734
302.318
304.998
308.791
310.294
309.433
307.429
304.933
302.031
300.919
300.752
300.695
300.649
300.649
300.633
300.63
300.621
300.617
300.608
300.583
300.595
300.561
300.572
300.541
300.552
300.53
300.53
300.528
300.509
300.698
300.612
300.559
301.989
301.619
301.254
301.033
300.82
303.514
302.991
302.459
306.242
305.523
305.071
304.578
304.062
307.118
306.866
306.589
308.419
308.019
307.697
307.374
315.115
312.349
309.016
310.183
323.835
322.29
318.89
321.303
326.595
326.164
325.66
324.987
326.084
325.947
325.85
325.678
326.358
319.838
320.065
320.203
320.452
320.48
314.394
314.505
319.931
319.401
320.333
320.291
319.039
322.44
321.415
318.644
318.293
321.313
321.87
323.517
323.649
322.732
323
306.659
321.766
320.313
323.512
323.132
301.447
301.452
301.437
301.422
301.561
302.212
303.207
303.863
303.999
303.718
303.163
302.527
302.624
304.97
308.134
310.019
309.648
308.003
305.622
302.622
301.034
300.779
300.722
300.672
300.626
300.631
300.624
300.641
300.613
300.613
300.604
300.599
300.592
300.567
300.579
300.545
300.556
300.52
300.531
300.509
300.513
300.51
300.5
300.709
300.621
300.554
302.083
301.847
301.364
301.186
300.879
303.571
302.988
302.672
305.872
306.11
305.55
304.911
304.212
306.599
306.392
306.179
307.69
307.248
307.016
306.792
316.059
312.787
308.426
310.032
324.142
322.824
320.997
322.627
325.5
325.272
325.038
324.529
320.034
320.013
320.101
320.046
320.277
314.523
314.693
314.558
314.581
314.734
308.08
308.144
314.511
314.391
314.62
314.546
314.186
322.191
317.98
313.913
313.672
317.655
321.559
323.502
323.696
322.408
323.055
301.114
322.641
318.289
323.67
323.452
301.461
301.451
301.431
301.589
302.355
303.567
304.406
304.676
304.525
304.146
303.703
303.582
305.225
307.984
309.691
309.629
308.294
306.09
303.133
301.171
300.807
300.745
300.7
300.655
300.607
300.612
300.6
300.633
300.599
300.588
300.586
300.576
300.551
300.564
300.525
300.538
300.508
300.516
300.498
300.501
300.498
300.484
300.77
300.638
300.533
300.688
300.619
302.544
302.539
301.702
301.585
301.048
304.366
303.418
303.547
306.489
308.235
307.506
306.535
305.425
307.122
306.955
306.795
308.042
307.481
307.298
307.147
318.526
315.073
309.028
311.67
324.372
323.337
322.593
323.22
320.088
320.063
320.311
323.652
314.703
314.732
314.922
314.913
314.529
308.229
308.361
308.171
308.196
308.38
302.562
302.561
308.173
308.144
308.243
308.173
308.068
321.752
313.431
307.943
307.831
313.125
317.529
323.423
323.745
322.594
322.657
300.85
322.609
311.463
323.738
323.532
301.464
301.45
301.59
302.405
303.806
304.847
305.225
305.234
305.077
304.942
305.093
306.155
308.064
309.447
309.503
308.339
306.295
303.467
301.295
300.835
300.765
300.726
300.681
300.642
300.594
300.599
300.605
300.589
300.621
300.573
300.575
300.561
300.535
300.548
300.514
300.523
300.496
300.505
300.483
300.488
300.498
300.561
300.464
300.926
300.811
300.696
303.777
303.964
302.518
302.408
301.437
306.428
304.866
305.465
308.659
311.7
310.874
309.661
308.097
309.247
309.147
308.998
310.494
309.585
309.337
309.244
321.759
319.532
312.39
316.283
323.87
323.551
322.943
320.808
315.128
315.119
320.709
315.526
308.355
308.429
308.545
308.583
308.203
302.59
302.618
302.559
302.56
302.607
302.551
302.553