/*--------------------------------*- C++ -*----------------------------------*\
  =========                 |
  \\      /  F ield         | OpenFOAM: The Open Source CFD Toolbox
   \\    /   O peration     | Website:  https://openfoam.org
    \\  /    A nd           | Version:  dev
     \\/     M anipulation  |
\*---------------------------------------------------------------------------*/
FoamFile
{
    version     2.0;
    format      ascii;
    class       volVectorField;
    location    "2500";
    object      U;
}
// * * * * * * * * * * * * * * * * * * * * * * * * * * * * * * * * * * * * * //

dimensions      [0 1 -1 0 0 0 0];

internalField   nonuniform List<vector> 
9729
(
(0.00455684 0.00685626 0)
(0.01103 0.0061977 -2.05723e-28)
(0.00457791 0.0183712 0)
(0.0155709 0.00521553 7.72974e-28)
(0.0121636 0.0186422 0)
(0.00401045 0.0268952 -3.37296e-28)
(0.0193308 0.00433513 0)
(0.0173576 0.0180303 1.23562e-27)
(0.0118505 0.0278202 -5.62708e-27)
(0.00340868 0.0340665 -2.19182e-28)
(0.0224132 0.00363045 9.2757e-28)
(0.0210701 0.016257 1.3564e-27)
(0.0181684 0.0284475 -6.59325e-27)
(0.0106706 0.0349959 -4.3819e-27)
(0.00303617 0.0404572 0)
(0.0251176 0.00302994 9.20762e-28)
(0.0238912 0.0138713 1.42059e-27)
(0.0230276 0.0280066 -3.58204e-27)
(0.0175169 0.0363789 -5.09555e-27)
(0.00940062 0.0411667 -3.11586e-31)
(0.0027669 0.0463672 3.32436e-27)
(0.0277288 0.00255128 1.07217e-30)
(0.0263607 0.0115068 1.42704e-27)
(0.0265782 0.0264178 -1.68401e-27)
(0.0233998 0.0373435 -4.06935e-27)
(0.0159454 0.0425888 -1.06682e-27)
(0.00847545 0.0469032 -2.84902e-27)
(0.00254645 0.0518371 3.29581e-27)
(0.0302687 0.00220449 0)
(0.0287015 0.00953751 4.28462e-29)
(0.0291255 0.0240157 -1.04817e-28)
(0.028132 0.0373191 8.889e-28)
(0.0222953 0.0443048 -2.16189e-27)
(0.0143607 0.0480344 -9.07178e-28)
(0.00776428 0.052281 4.30757e-28)
(0.00235549 0.0569416 0)
(0.0326479 0.00197664 0)
(0.0309337 0.0081525 1.61538e-29)
(0.03103 0.0211888 4.48526e-29)
(0.0316385 0.0361195 9.69298e-28)
(0.0279524 0.0456591 8.72736e-28)
(0.0203963 0.0497413 -2.97937e-27)
(0.0131015 0.0532274 7.83401e-28)
(0.00714755 0.0573363 0)
(0.00218827 0.0616895 0)
(0.0348406 0.00181421 0)
(0.0331176 0.00729741 2.56686e-29)
(0.0327396 0.01832 3.69494e-29)
(0.0340965 0.0339314 0)
(0.0326064 0.0461514 1.1608e-27)
(0.0263507 0.0517697 -1.15288e-31)
(0.0185475 0.0546765 4.18599e-28)
(0.0120427 0.0581415 0)
(0.0066245 0.0620192 0)
(0.00203983 0.066144 -1.66687e-27)
(0.0368913 0.00168479 0)
(0.0352212 0.00670648 0)
(0.0344725 0.0157825 -8.37954e-28)
(0.035831 0.0310987 5.22868e-28)
(0.0361731 0.0455277 0)
(0.031837 0.0535842 1.92428e-27)
(0.0241393 0.0566209 0)
(0.0170153 0.0593647 0)
(0.0111289 0.0627058 0)
(0.00617459 0.0664455 5.94424e-28)
(0.00189969 0.0703222 -1.64537e-27)
(0.0388204 0.0015632 -2.15445e-28)
(0.037227 0.00621704 0)
(0.0362201 0.0138178 8.74396e-28)
(0.0371379 0.0279731 -5.33509e-28)
(0.0387184 0.043819 -5.74889e-28)
(0.0364883 0.0546592 0)
(0.029772 0.0588982 0)
(0.0220837 0.0610496 0)
(0.0157121 0.0637683 1.76221e-27)
(0.01034 0.0670435 1.07876e-27)
(0.00575464 0.0706097 0)
(0.00177006 0.0742348 0)
(0.0406314 0.0014472 -2.08912e-28)
(0.0391195 0.00576462 6.40615e-28)
(0.0379934 0.012476 1.90027e-27)
(0.0383581 0.0249303 -1.08105e-27)
(0.0404344 0.0413066 -5.94833e-28)
(0.0401505 0.0546986 -8.6186e-29)
(0.0351119 0.0611218 0)
(0.027311 0.0631996 4.21154e-28)
(0.0203495 0.0652167 2.46343e-31)
(0.0145598 0.0679736 8.82544e-28)
(0.00963437 0.0711746 5.09146e-28)
(0.00535972 0.0745016 0)
(0.00165103 0.0779188 7.86482e-28)
(0.0423079 0.0013471 0)
(0.0408789 0.00536104 6.36166e-28)
(0.0397488 0.0115405 0)
(0.039647 0.0222084 3.409e-28)
(0.0415911 0.0383131 0)
(0.0428293 0.0536453 -9.33205e-28)
(0.0397756 0.062792 4.92737e-28)
(0.0326267 0.0657285 0)
(0.0250747 0.067095 -1.03468e-27)
(0.0188295 0.06927 4.38468e-28)
(0.0135331 0.0720171 2.48722e-27)
(0.00898185 0.0750205 0)
(0.00499784 0.0781648 0)
(0.00154176 0.0813806 7.64539e-28)
(0.0438416 0.00125667 0)
(0.0425298 0.00501162 1.71027e-27)
(0.0414649 0.0107527 0)
(0.0409886 0.0199938 0)
(0.0424951 0.0350992 2.21528e-27)
(0.0446513 0.0516401 -1.0032e-27)
(0.0435241 0.0635614 1.00429e-27)
(0.0377792 0.0683383 -9.97101e-29)
(0.0299477 0.0694497 0)
(0.0231404 0.0709251 -4.33084e-28)
(0.0174682 0.0731542 4.2927e-28)
(0.0126182 0.0757879 3.37181e-32)
(0.00838172 0.0786408 0)
(0.00466778 0.0816107 7.046e-31)
(0.00143855 0.084642 -7.38709e-28)
(0.0452447 0.00117002 0)
(0.0440637 0.00467996 1.2478e-27)
(0.0430529 0.0100434 -7.6444e-29)
(0.0424456 0.0183353 -2.07312e-27)
(0.0433813 0.0319429 2.48875e-27)
(0.0458545 0.0489728 -3.09722e-28)
(0.0463645 0.0632915 3.52598e-28)
(0.042398 0.0705778 0)
(0.0349394 0.0722171 -1.0379e-28)
(0.0275538 0.0729687 0)
(0.0214422 0.0746069 -4.28971e-28)
(0.0162746 0.0768041 0)
(0.0117784 0.079357 -2.50531e-27)
(0.00783079 0.08205 -2.02509e-27)
(0.00435524 0.0848619 -5.65566e-28)
(0.00134149 0.0877211 -7.10872e-28)
(0.0464911 0.00109211 0)
(0.0454557 0.00436059 -9.28795e-33)
(0.0445145 0.00945535 -1.637e-27)
(0.0439311 0.0170351 -2.05127e-27)
(0.0443149 0.0290853 2.50356e-27)
(0.0466794 0.0459447 0)
(0.0483667 0.0620192 2.89766e-27)
(0.0462503 0.0720841 0)
(0.0398341 0.0751674 8.04517e-28)
(0.0321016 0.0754604 0)
(0.0254672 0.0764175 -8.52245e-28)
(0.0199277 0.0781069 0)
(0.015179 0.0803113 4.20046e-28)
(0.0109948 0.0827172 -1.50024e-27)
(0.00731705 0.0852715 -2.26438e-27)
(0.00405904 0.0879288 -2.49258e-28)
(0.00124884 0.090628 -3.39513e-28)
(0.0475929 0.00102045 -1.77188e-28)
(0.0466795 0.00407454 -5.93859e-28)
(0.0458819 0.00891435 0)
(0.0453177 0.0158797 -8.53081e-28)
(0.0453827 0.0267976 2.51111e-27)
(0.04728 0.0427424 -1.15353e-27)
(0.0496911 0.059957 6.00314e-27)
(0.0492453 0.0726524 -2.87149e-27)
(0.0443492 0.0779371 0)
(0.0367239 0.078383 2.75263e-27)
(0.0295692 0.0786306 0)
(0.0236058 0.0797417 -8.33833e-28)
(0.0185648 0.0815008 5.31494e-28)
(0.0141533 0.0836024 -3.91068e-28)
(0.0102653 0.0858925 -1.69712e-27)
(0.00682799 0.0883196 -2.70004e-27)
(0.00378058 0.090827 8.2965e-28)
(0.00116109 0.0933606 -3.2368e-28)
(0.0485421 0.000948433 1.86206e-27)
(0.0477745 0.00381494 0)
(0.0471063 0.00834478 -1.3178e-27)
(0.046606 0.0148581 -7.60564e-28)
(0.0465498 0.0250402 1.59275e-27)
(0.0478255 0.0395838 0)
(0.050541 0.0573893 1.77048e-27)
(0.0514163 0.0722662 -3.12418e-27)
(0.0482519 0.0801503 9.40071e-29)
(0.0412981 0.0815786 2.22648e-35)
(0.0337628 0.0812593 -1.61903e-34)
(0.0273273 0.081719 2.08281e-28)
(0.0219548 0.0829435 3.20512e-28)
(0.0173079 0.0847137 0)
(0.0132012 0.0867217 0)
(0.00958322 0.0889106 -7.38189e-28)
(0.00635944 0.0911975 -2.59071e-27)
(0.00351733 0.0935489 6.40434e-28)
(0.00107756 0.0959366 0)
(0.049318 0.000876455 0)
(0.0487263 0.00355949 2.20707e-31)
(0.0481678 0.00778316 7.748e-28)
(0.0477809 0.014006 -2.58786e-27)
(0.0476739 0.0236126 1.23157e-30)
(0.0484848 0.0367351 0)
(0.0510391 0.0545313 -3.14194e-27)
(0.0528972 0.0710242 0)
(0.051374 0.081596 -1.57278e-27)
(0.0456291 0.0847716 -1.40826e-27)
(0.0380011 0.0842745 1.9505e-27)
(0.0311233 0.0840706 1.44969e-27)
(0.0253567 0.0846744 1.81744e-28)
(0.0204531 0.0860688 -1.3806e-27)
(0.0161366 0.087754 0)
(0.0123146 0.0896846 0)
(0.00893711 0.0917606 0)
(0.00591651 0.0939021 -2.68767e-27)
(0.00326122 0.0961235 -1.39945e-30)
(0.000995612 0.0983625 0)
(0.0499314 0.000803906 0)
(0.0495059 0.00329734 0)
(0.0491003 0.00725587 -1.89216e-27)
(0.0487895 0.0132659 1.38266e-27)
(0.0487169 0.0223706 2.44108e-27)
(0.0492343 0.0344496 -4.71716e-27)
(0.0513319 0.0515704 -2.4121e-27)
(0.0538223 0.0691161 0)
(0.0537198 0.082134 -2.01157e-27)
(0.0494882 0.0876482 1.53753e-27)
(0.0422128 0.0876076 2.65111e-27)
(0.0349738 0.0867796 1.09628e-27)
(0.0288055 0.0867299 1.55503e-27)
(0.0236008 0.0876538 -9.04023e-28)
(0.0190688 0.088996 -7.38003e-28)
(0.0150527 0.0906408 -4.41836e-28)
(0.0114911 0.0924968 -2.98282e-28)
(0.0083154 0.0944427 3.96812e-28)
(0.00549078 0.0964713 -2.48631e-27)
(0.00300748 0.0985438 7.06614e-29)
(0.000914473 0.100641 0)
(0.0503911 0.000734411 0)
(0.0501248 0.00303265 0)
(0.049877 0.00676728 -7.50397e-28)
(0.0496684 0.0125943 9.58084e-28)
(0.0496383 0.0212836 5.69126e-27)
(0.0499762 0.0326967 -8.88255e-28)
(0.0515825 0.0486568 3.1475e-27)
(0.0543084 0.066772 -6.13547e-27)
(0.0553715 0.0818092 0)
(0.0527269 0.0898847 1.65076e-27)
(0.0462994 0.0910763 0)
(0.0388228 0.0898534 0)
(0.032301 0.0891177 1.16098e-27)
(0.0267753 0.0894803 -7.5117e-28)
(0.0220033 0.0904616 1.5774e-28)
(0.0177854 0.0918045 -5.4547e-28)
(0.0140381 0.0933969 -8.30633e-28)
(0.0107021 0.0951558 3.14434e-28)
(0.00772073 0.0969871 2.57359e-28)
(0.00507471 0.0988871 2.07364e-27)
(0.00275905 0.100821 -1.09846e-27)
(0.000834828 0.102774 0)
(0.0506857 0.000670619 0)
(0.050571 0.00278579 0)
(0.05046 0.00631406 1.64665e-27)
(0.0504146 0.0119678 9.48943e-28)
(0.0504363 0.0203093 0)
(0.0507331 0.0312876 1.93734e-27)
(0.0518935 0.0459752 5.41761e-27)
(0.0545056 0.0642129 -3.55888e-27)
(0.0564122 0.0807178 0)
(0.0552515 0.0913467 -6.78734e-28)
(0.0500627 0.0944331 3.54821e-27)
(0.0426814 0.0932575 0)
(0.0357862 0.0918697 0)
(0.029935 0.0915845 7.37802e-28)
(0.0249246 0.0921723 -1.03891e-27)
(0.0205155 0.093178 0)
(0.016577 0.0944862 1.29341e-27)
(0.0130771 0.0960159 6.09934e-28)
(0.00994392 0.0976623 -5.31305e-28)
(0.00715072 0.0993918 -1.46001e-29)
(0.00466508 0.101163 -2.92663e-29)
(0.00251728 0.102947 -2.22818e-27)
(0.000753547 0.104761 0)
(0.0507985 0.000608427 0)
(0.0508591 0.00255591 2.3558e-27)
(0.0508769 0.00589541 -6.94821e-28)
(0.0509508 0.0113964 8.49901e-28)
(0.0510905 0.0194615 2.99194e-27)
(0.0514083 0.0300727 2.77611e-27)
(0.0522699 0.0437149 8.93595e-28)
(0.0545504 0.0616125 -3.59299e-27)
(0.0569707 0.0790404 -1.15343e-27)
(0.0570745 0.0919681 0)
(0.0533266 0.0973766 -3.46082e-27)
(0.0464631 0.0969276 0)
(0.039258 0.0949509 0)
(0.0330845 0.0940235 9.17636e-29)
(0.0278156 0.0941087 0)
(0.0232136 0.0947495 0)
(0.0191145 0.0957782 6.30973e-28)
(0.015449 0.0970369 1.19332e-27)
(0.0121621 0.0984891 -1.74502e-28)
(0.00921412 0.100052 -9.38937e-28)
(0.00659169 0.101661 7.48828e-28)
(0.00425683 0.103291 -3.64929e-27)
(0.00226382 0.104946 -1.56237e-27)
(0.000666278 0.106594 -2.06906e-27)
(0.0507353 0.000548789 -2.13863e-27)
(0.0509664 0.00233295 2.94846e-27)
(0.0511488 0.00553037 1.99804e-27)
(0.0513237 0.0108909 -1.94619e-27)
(0.0515441 0.0187577 3.09621e-27)
(0.0519098 0.0290607 -7.13296e-35)
(0.0526121 0.0419955 -3.16678e-27)
(0.0544885 0.0590774 -1.21918e-26)
(0.0571238 0.0770027 -7.65194e-27)
(0.0582629 0.0918392 6.37509e-27)
(0.055976 0.099706 -7.33879e-27)
(0.0500389 0.100586 6.85664e-28)
(0.0427322 0.0984308 0)
(0.0362084 0.0967725 3.63971e-28)
(0.030677 0.0962833 2.58567e-28)
(0.0258857 0.0965173 0)
(0.0216387 0.097256 -8.91565e-28)
(0.0178127 0.0982403 5.84249e-28)
(0.0143815 0.0994729 -1.54941e-27)
(0.0112791 0.100854 -6.77704e-28)
(0.00850765 0.102308 0)
(0.0060267 0.103796 1.48283e-27)
(0.00383946 0.105312 -3.31902e-27)
(0.00199206 0.106782 -1.68271e-27)
(0.000575249 0.108283 -6.52984e-28)
(0.0505039 0.000494167 0)
(0.0508861 0.00213455 -1.87381e-27)
(0.0512377 0.00521375 2.17429e-27)
(0.0515367 0.01043 3.90027e-27)
(0.0518353 0.0181669 -2.08467e-27)
(0.0522456 0.0282225 -5.86774e-28)
(0.0528377 0.0407171 2.22414e-27)
(0.0543501 0.0567545 1.21342e-31)
(0.0570195 0.0748268 -6.40689e-27)
(0.0588851 0.0910035 2.41978e-27)
(0.0579635 0.101233 0)
(0.053227 0.104078 0)
(0.0461895 0.102169 6.20494e-27)
(0.0393129 0.0998722 -2.66144e-27)
(0.0335125 0.0987217 3.45748e-28)
(0.02852 0.0984977 -1.80387e-27)
(0.0241149 0.0988898 0)
(0.0201699 0.0996249 -1.85239e-27)
(0.0165951 0.100617 -3.09712e-28)
(0.0133548 0.101802 -9.46052e-28)
(0.0104243 0.103089 0)
(0.0078058 0.104457 -6.6875e-28)
(0.00545323 0.10582 6.44235e-28)
(0.00340254 0.107172 -1.16153e-27)
(0.00171114 0.108473 -5.4932e-28)
(0.000476327 0.109801 -2.52303e-28)
(0.050143 0.000449192 -7.30795e-29)
(0.0506472 0.00195472 0)
(0.0511267 0.00491071 -3.58238e-27)
(0.0515567 0.0100346 1.73923e-27)
(0.051952 0.0177127 3.3083e-27)
(0.0523667 0.0275662 0)
(0.0529588 0.0397705 9.1425e-28)
(0.0541863 0.0547605 1.07148e-30)
(0.0566924 0.0725927 -3.887e-27)
(0.0590345 0.0896675 -1.74238e-27)
(0.0592698 0.102137 2.28175e-27)
(0.0559153 0.10705 1.18536e-27)
(0.0494896 0.106096 6.74591e-27)
(0.042433 0.10328 -2.92508e-27)
(0.0363241 0.101439 2.62442e-27)
(0.0311182 0.100697 -6.38917e-28)
(0.0265518 0.100697 0)
(0.0224813 0.101163 -8.10827e-28)
(0.0187935 0.101917 3.45265e-28)
(0.0154375 0.102901 2.7649e-28)
(0.0123543 0.104018 0)
(0.00958457 0.105244 -5.62279e-28)
(0.00708765 0.106483 -2.83546e-28)
(0.00486533 0.107709 0)
(0.00293507 0.108893 -1.64201e-27)
(0.00140729 0.110005 -6.64264e-28)
(0.000365712 0.111125 0)
(0.0496692 0.00041485 -2.72737e-27)
(0.0502707 0.00179703 2.60917e-27)
(0.050858 0.00464597 1.32608e-27)
(0.0513988 0.00973968 -3.99466e-27)
(0.0518723 0.017403 -1.24526e-27)
(0.052281 0.0271279 -2.28232e-27)
(0.0529182 0.0390203 3.13245e-27)
(0.053983 0.0531454 -5.9062e-27)
(0.0562209 0.0704068 -6.29317e-27)
(0.0588775 0.0880433 0)
(0.0600515 0.102118 4.1328e-27)
(0.0579929 0.109536 2.87124e-27)
(0.0525163 0.109891 1.2038e-27)
(0.0455241 0.107039 0)
(0.0390986 0.104427 3.29313e-28)
(0.0336983 0.103118 4.74185e-27)
(0.0289635 0.102696 -5.94033e-28)
(0.0247441 0.102847 2.80158e-28)
(0.0209611 0.10335 -7.86153e-28)
(0.0175004 0.104142 3.31212e-28)
(0.0143096 0.105096 0)
(0.0113793 0.106158 8.27024e-28)
(0.00874083 0.107281 0)
(0.00635274 0.108399 -3.7149e-28)
(0.00423526 0.10947 -2.13733e-27)
(0.00242546 0.110477 -9.40355e-28)
(0.00106053 0.111346 2.97364e-28)
(0.000239055 0.112241 0)
(0.0490391 0.000386563 2.81406e-27)
(0.0497651 0.00169564 -2.76312e-27)
(0.0504276 0.00446469 4.23168e-27)
(0.0510751 0.00951926 1.7224e-27)
(0.0516178 0.0171953 1.06316e-27)
(0.0520515 0.0268898 -2.39599e-27)
(0.0526452 0.0384403 3.91721e-27)
(0.0536847 0.0519096 -3.56585e-27)
(0.055656 0.0683312 -6.20053e-27)
(0.0584438 0.0862125 0)
(0.0602175 0.101655 4.23362e-27)
(0.059482 0.11123 -2.02303e-27)
(0.0551307 0.113509 -1.10174e-27)
(0.0485133 0.110952 3.40851e-27)
(0.0418568 0.107762 0)
(0.0361831 0.105781 -2.34183e-27)
(0.0313338 0.104891 -2.27624e-27)
(0.0269871 0.104688 0)
(0.0230813 0.10491 2.54055e-28)
(0.019541 0.10549 0)
(0.016269 0.106296 -1.40258e-27)
(0.0132189 0.107199 2.5873e-28)
(0.0104247 0.108199 4.49118e-28)
(0.00787918 0.109224 0)
(0.00558233 0.110209 7.72564e-29)
(0.00354436 0.111112 -2.99039e-28)
(0.00185821 0.11189 2.05817e-28)
(0.000663767 0.112487 1.27059e-31)
(9.20885e-05 0.113109 6.48847e-29)
(0.04825 0.000368098 -4.32447e-29)
(0.0491187 0.00163538 2.89796e-27)
(0.0498483 0.00434307 -1.09824e-27)
(0.0505597 0.00935766 -1.5849e-27)
(0.0511822 0.0170942 1.0378e-27)
(0.0516743 0.026831 2.45747e-27)
(0.052215 0.0380583 8.3802e-27)
(0.0532337 0.0509667 -5.79551e-27)
(0.0550031 0.066494 -3.83765e-27)
(0.0577633 0.0843064 -2.18887e-27)
(0.0600836 0.100741 0)
(0.0603839 0.112293 -8.56362e-27)
(0.057263 0.116614 4.04222e-27)
(0.0512961 0.114992 2.52637e-27)
(0.0445638 0.111397 0)
(0.0386221 0.108719 -5.61434e-27)
(0.0335886 0.107294 -7.53745e-27)
(0.0291693 0.106704 4.46472e-27)
(0.0251656 0.1066 0)
(0.0215417 0.106942 -1.74925e-27)
(0.0182072 0.107579 -7.58883e-28)
(0.0150861 0.108354 6.36228e-28)
(0.0121668 0.109228 2.51021e-28)
(0.00946364 0.110162 -9.29931e-29)
(0.00698385 0.111086 0)
(0.00474566 0.11192 -7.25699e-30)
(0.00278242 0.112607 8.98129e-28)
(0.00120462 0.113116 4.15879e-28)
(0.000192082 0.113398 7.65958e-28)
(-8.76002e-05 0.113743 5.83948e-28)
(0.0473174 0.000361124 -3.78753e-29)
(0.0483104 0.00160099 0)
(0.0491618 0.00427921 2.37362e-27)
(0.0498801 0.00931726 -3.52278e-27)
(0.0505526 0.0171479 -1.64345e-27)
(0.0511014 0.026934 0)
(0.0516701 0.037856 2.97073e-27)
(0.0526125 0.0502252 5.71332e-27)
(0.0542773 0.0649573 -7.68095e-31)
(0.0568994 0.0824193 -2.12698e-27)
(0.0596209 0.0994652 1.85635e-27)
(0.0606523 0.112638 -5.0874e-27)
(0.0588834 0.11922 4.20725e-27)
(0.0537534 0.11889 4.84697e-27)
(0.0471961 0.115356 -1.11941e-27)
(0.040997 0.111933 0)
(0.0357733 0.109891 -1.07589e-26)
(0.0312594 0.108888 -4.8201e-27)
(0.0271923 0.108454 2.04688e-27)
(0.0234918 0.10851 -1.04757e-27)
(0.0201027 0.108949 0)
(0.0169355 0.109592 1.0494e-27)
(0.0139377 0.110367 3.14703e-28)
(0.0111169 0.111203 -4.82894e-28)
(0.00846685 0.112081 -1.39803e-28)
(0.00602601 0.11288 7.08805e-29)
(0.00381607 0.113513 0)
(0.00191333 0.113948 -7.65226e-29)
(0.000430613 0.11412 -1.00777e-27)
(-0.000305468 0.114033 6.77894e-28)
(-0.000318335 0.113958 0)
(0.0462747 0.0003611 0)
(0.0473588 0.00159561 3.09494e-27)
(0.0483205 0.0043029 2.96992e-27)
(0.0490706 0.00944802 3.60052e-27)
(0.0497247 0.0173668 -2.69202e-27)
(0.0503425 0.0271528 -2.58111e-27)
(0.0509551 0.0378034 1.45931e-27)
(0.0518607 0.049689 6.76176e-27)
(0.0534367 0.0637263 3.83271e-27)
(0.0558977 0.0806066 6.2354e-27)
(0.0588339 0.0979144 -8.80715e-31)
(0.060526 0.112439 1.48527e-27)
(0.0598625 0.121159 -4.33622e-31)
(0.0558676 0.122598 4.05103e-27)
(0.0496453 0.119409 5.6853e-27)
(0.0433358 0.115475 -5.5451e-28)
(0.0378855 0.112714 -1.13957e-26)
(0.0332558 0.11122 -5.17133e-27)
(0.0291358 0.110465 -4.69804e-27)
(0.02538 0.110223 1.84336e-27)
(0.0219447 0.110414 1.58872e-27)
(0.0187428 0.110901 1.53992e-28)
(0.0157084 0.111581 1.72037e-27)
(0.0128084 0.112345 2.10902e-28)
(0.0100328 0.113186 -2.36357e-28)
(0.00740011 0.113962 0)
(0.0049615 0.114592 0)
(0.00276664 0.114986 8.37157e-34)
(0.000903757 0.115098 0)
(-0.000470324 0.114824 -3.40183e-27)
(-0.00092702 0.114353 2.26649e-27)
(-0.000579509 0.113702 -2.11271e-27)
(0.0451727 0.000372314 -3.1931e-27)
(0.0463012 0.00162212 0)
(0.0473187 0.00440215 3.0378e-27)
(0.0481192 0.00973761 2.91423e-27)
(0.0487354 0.0177305 -1.93424e-27)
(0.0493972 0.02745 1.21374e-27)
(0.0500611 0.0379065 -9.83288e-28)
(0.050978 0.049405 3.30853e-27)
(0.0524421 0.0627601 3.78118e-27)
(0.0547917 0.0788917 4.11659e-27)
(0.0577939 0.0962378 0)
(0.0601882 0.111922 6.93771e-28)
(0.0604252 0.12238 3.78943e-27)
(0.0574682 0.125879 7.31366e-28)
(0.0519199 0.123534 6.81428e-27)
(0.0455832 0.119245 4.48335e-27)
(0.0399431 0.115794 -6.64786e-27)
(0.0351551 0.113741 -5.49997e-27)
(0.0309765 0.112606 -5.03744e-27)
(0.0271833 0.112063 -4.64332e-27)
(0.0237174 0.11199 3.75074e-27)
(0.0205064 0.112275 -1.29823e-27)
(0.0174572 0.112837 1.86571e-27)
(0.0145236 0.113541 0)
(0.0116658 0.114374 -1.67532e-29)
(0.0088863 0.115149 2.68307e-28)
(0.00622752 0.115799 -1.10044e-27)
(0.00376147 0.116221 1.38302e-29)
(0.00155828 0.116305 0)
(-0.000305767 0.116023 4.8832e-28)
(-0.00149006 0.115298 -4.57063e-27)
(-0.00170292 0.114182 3.22915e-27)
(-0.00092544 0.112969 1.26448e-26)
(0.0440142 0.000398296 -3.19084e-29)
(0.0451716 0.0016847 -3.3351e-27)
(0.0461934 0.00456682 0)
(0.0470465 0.0101476 -6.93676e-28)
(0.0476353 0.0182237 -1.87619e-27)
(0.0482785 0.0278358 1.17965e-27)
(0.0490263 0.0381446 2.41922e-27)
(0.0499542 0.0493119 0)
(0.0513292 0.0620072 0)
(0.0535779 0.0773324 -2.13938e-27)
(0.0565855 0.0945275 -1.6483e-27)
(0.0594186 0.11096 -4.5333e-27)
(0.0603246 0.123167 3.89194e-27)
(0.0586748 0.128599 -6.07774e-28)
(0.0538648 0.127514 7.31122e-27)
(0.0477462 0.123265 5.43222e-27)
(0.0419183 0.119126 0)
(0.0369878 0.116454 -5.83175e-27)
(0.0327059 0.114893 0)
(0.0288917 0.114013 -9.91058e-27)
(0.0254125 0.11366 -3.1592e-27)
(0.0222053 0.113723 -4.27184e-27)
(0.01917 0.114128 0)
(0.0162349 0.114764 0)
(0.0133544 0.115579 1.54515e-27)
(0.0104847 0.116397 2.22853e-29)
(0.00765314 0.117098 5.00016e-28)
(0.00492336 0.117596 -1.68663e-27)
(0.00238179 0.117757 0)
(0.000114321 0.117471 1.34293e-28)
(-0.001732 0.116705 -1.16844e-27)
(-0.00279592 0.115415 7.74261e-27)
(-0.00268971 0.113514 1.30287e-26)
(-0.000602211 0.111975 -1.62521e-27)
(-0.0017318 0.111879 8.64677e-27)
(0.0428257 0.000431266 -3.43582e-29)
(0.0439937 0.00177595 -1.24875e-28)
(0.045017 0.0048129 0)
(0.0458648 0.0106067 -6.68193e-28)
(0.0464401 0.0188443 -9.15924e-28)
(0.0470583 0.0283279 -1.1472e-27)
(0.0478543 0.0384648 -2.41089e-27)
(0.0488279 0.0493194 2.20593e-27)
(0.0501431 0.0614498 0)
(0.0522729 0.0759507 -8.00659e-27)
(0.0552476 0.0928328 3.1776e-27)
(0.0583239 0.109668 -6.36202e-27)
(0.0600188 0.123236 -4.66955e-28)
(0.0592975 0.130774 -4.4691e-27)
(0.0555331 0.131254 4.81445e-27)
(0.0497256 0.127366 -3.81297e-31)
(0.0438372 0.122747 2.94743e-27)
(0.0387101 0.119377 5.00555e-28)
(0.0343597 0.117327 -2.55068e-28)
(0.0304936 0.116077 -1.04659e-26)
(0.0270136 0.115416 -4.92456e-27)
(0.02382 0.115241 -7.70248e-27)
(0.0208209 0.115469 0)
(0.0179239 0.116 0)
(0.0150609 0.116768 1.82022e-27)
(0.0121756 0.117639 5.94587e-28)
(0.00923459 0.118454 -2.74889e-28)
(0.00629291 0.119061 8.70889e-28)
(0.00342984 0.119372 -5.83293e-29)
(0.000749344 0.119195 -3.08077e-27)
(-0.00163415 0.118447 0)
(-0.0034202 0.117126 6.19388e-27)
(-0.00426738 0.115014 -5.77122e-28)
(-0.0029201 0.112295 4.91715e-27)
(-0.00402839 0.112941 8.94371e-28)
(-0.000683677 0.111053 -8.91813e-28)
(-0.00199407 0.111024 -3.50767e-27)
(0.0415958 0.000467978 0)
(0.0427842 0.00189492 0)
(0.0438239 0.00513454 0)
(0.0445774 0.0111304 1.67256e-27)
(0.0451849 0.0195943 0)
(0.045751 0.0289172 -4.81442e-27)
(0.0465622 0.0388358 0)
(0.047605 0.0493983 -4.39247e-27)
(0.0489105 0.0610496 0)
(0.0509094 0.074744 2.90809e-35)
(0.053802 0.0911726 0)
(0.0570344 0.108176 1.13826e-27)
(0.0594214 0.122978 -8.0898e-28)
(0.0595399 0.132259 -4.93916e-27)
(0.0567297 0.134644 -4.69385e-28)
(0.0515488 0.131505 -3.96883e-27)
(0.0456324 0.12657 4.23173e-28)
(0.0403776 0.122538 3.69547e-27)
(0.035894 0.11993 7.3709e-28)
(0.0320003 0.118263 -8.43158e-27)
(0.0285044 0.117269 0)
(0.0253328 0.116825 -4.75789e-27)
(0.0223886 0.116845 -4.76204e-27)
(0.019551 0.117248 -8.39011e-28)
(0.0167502 0.117941 -2.23697e-27)
(0.0139101 0.118847 1.41343e-27)
(0.010953 0.119792 1.26748e-28)
(0.00786821 0.120563 -4.28094e-28)
(0.00475633 0.12108 1.0984e-27)
(0.00167923 0.121113 -3.04246e-27)
(-0.0012242 0.120507 8.50909e-35)
(-0.00370965 0.11921 -7.82038e-28)
(-0.0048362 0.116512 -3.87706e-27)
(-0.00521489 0.117666 4.57849e-27)
(-0.00510644 0.113741 -1.73538e-27)
(-0.00551966 0.11643 -2.46039e-27)
(-0.00598946 0.114746 2.89341e-28)
(-0.00338991 0.111504 -1.68394e-27)
(-0.00470003 0.112203 2.87705e-27)
(-0.000749139 0.10998 -9.82116e-28)
(-0.00229446 0.109975 -4.44578e-27)
(0.0403459 0.000512338 -1.53306e-27)
(0.0415416 0.00204779 0)
(0.0425388 0.00552338 0)
(0.0432318 0.0118189 -6.13237e-28)
(0.0438295 0.020443 1.81085e-27)
(0.0443774 0.029587 -2.17781e-27)
(0.0451884 0.0392548 -2.34027e-27)
(0.0462705 0.0495237 0)
(0.0476311 0.0607707 -1.93333e-27)
(0.0495027 0.0737171 3.85266e-27)
(0.052288 0.0895388 -4.17965e-27)
(0.0555977 0.106563 0)
(0.058424 0.122213 4.28563e-27)
(0.0594019 0.133272 -2.73055e-28)
(0.0575797 0.137508 3.41576e-28)
(0.0530473 0.135535 -4.12749e-31)
(0.0473526 0.130617 -4.41379e-27)
(0.0419244 0.125919 2.90887e-27)
(0.0373435 0.122711 0)
(0.0333855 0.120604 -2.34721e-27)
(0.0298754 0.119237 -1.1947e-28)
(0.02673 0.118482 -5.55182e-29)
(0.0238405 0.11825 1.8851e-28)
(0.0210954 0.118502 -4.9314e-27)
(0.0183926 0.119106 -3.82284e-27)
(0.0156366 0.119999 1.16273e-27)
(0.0127429 0.121051 -1.08336e-28)
(0.0096437 0.122024 -6.46895e-28)
(0.00634694 0.122806 -2.60152e-28)
(0.00297298 0.123112 -1.46366e-27)
(-0.000402644 0.122801 -1.28626e-31)
(-0.00359918 0.121677 6.50827e-27)
(-0.0055299 0.118824 1.71869e-33)
(-0.00568073 0.120149 6.15603e-32)
(-0.00615447 0.117577 1.21991e-26)
(-0.00597277 0.113094 -1.55074e-27)
(-0.00686237 0.115953 2.37753e-28)
(-0.00710551 0.114155 6.20291e-28)
(-0.00389587 0.110508 -1.47848e-27)
(-0.00546352 0.111277 2.24898e-27)
(-0.000853515 0.1087 0)
(-0.0026381 0.108717 -4.71417e-27)
(0.0390964 0.000564826 -1.48599e-27)
(0.0402717 0.00223377 2.38069e-32)
(0.0412328 0.00601734 0)
(0.0418319 0.0127112 0)
(0.0423715 0.02131 -1.75332e-27)
(0.0429643 0.0303119 -1.0642e-27)
(0.0437563 0.0397157 0)
(0.0448559 0.0496699 1.48428e-27)
(0.0462867 0.0605614 0)
(0.0480776 0.072863 0)
(0.0507394 0.0879679 2.35259e-35)
(0.0540594 0.104875 -4.41837e-27)
(0.0572063 0.121114 4.31947e-27)
(0.0588685 0.133683 -1.89183e-28)
(0.0580294 0.139875 0)
(0.0543202 0.139324 3.72885e-28)
(0.0488864 0.134752 -3.34466e-27)
(0.0434064 0.129574 0)
(0.0386645 0.125694 3.58771e-27)
(0.0346572 0.123101 0)
(0.0311202 0.121343 2.43137e-28)
(0.0279876 0.120222 -1.1669e-28)
(0.0251574 0.119711 5.22558e-27)
(0.0225239 0.119755 -5.2474e-27)
(0.019947 0.120226 -5.17853e-27)
(0.0173367 0.121085 -1.85637e-28)
(0.0145653 0.1222 -4.61557e-27)
(0.0115488 0.123359 -1.17721e-27)
(0.00823186 0.124438 5.85975e-28)
(0.00463569 0.125127 4.74364e-28)
(0.000872812 0.125178 -1.73398e-27)
(-0.00294806 0.124427 4.03232e-27)
(-0.00576136 0.121513 -1.38374e-27)
(-0.00565475 0.123034 1.37658e-27)
(-0.0066432 0.118849 -3.04807e-27)
(-0.00698379 0.120244 1.53333e-27)
(-0.00757373 0.117299 1.56199e-27)
(-0.00696152 0.112255 -3.78145e-28)
(-0.0081371 0.115421 5.19896e-28)
(-0.00834698 0.113413 6.64263e-28)
(-0.00448971 0.109306 2.74158e-27)
(-0.00631469 0.110166 1.07741e-26)
(-0.000977846 0.107207 -1.24037e-27)
(-0.0030162 0.107255 0)
(0.0378507 0.000618414 -4.16358e-29)
(0.0389999 0.00245842 -1.48445e-27)
(0.0399295 0.00657986 -2.23481e-28)
(0.0404623 0.0136657 -1.37378e-27)
(0.0409069 0.0221274 -1.65765e-27)
(0.0415216 0.031058 1.04346e-27)
(0.04231 0.0402048 -1.24356e-27)
(0.0434031 0.04984 1.44377e-27)
(0.0448718 0.0603783 0)
(0.0466395 0.0721616 0)
(0.0491649 0.0864941 4.73381e-27)
(0.0524558 0.103141 -9.22184e-27)
(0.055817 0.119757 -4.60806e-27)
(0.0580719 0.13357 -4.81554e-27)
(0.0581062 0.141633 4.52838e-27)
(0.0552637 0.14281 2.12972e-28)
(0.0503023 0.138901 -8.13309e-27)
(0.0447866 0.133426 -3.65501e-27)
(0.0399041 0.128913 3.66529e-27)
(0.0357834 0.12577 3.45458e-27)
(0.0322376 0.12359 0)
(0.0290982 0.122079 -6.14641e-29)
(0.0263301 0.121245 0)
(0.0238003 0.121007 0)
(0.0213853 0.121303 -5.48828e-27)
(0.0189633 0.122068 0)
(0.016388 0.123214 -5.5951e-27)
(0.0135186 0.124554 0)
(0.0102727 0.125906 3.22141e-28)
(0.00664522 0.126988 -6.49629e-28)
(0.00262765 0.127571 8.39392e-28)
(-0.00171883 0.127313 1.1941e-27)
(-0.00544451 0.12458 0)
(-0.00502671 0.126247 0)
(-0.00717821 0.121756 -1.5197e-27)
(-0.00723187 0.123388 2.76421e-30)
(-0.00813415 0.118775 -5.51584e-27)
(-0.00856723 0.120355 9.93948e-29)
(-0.00901357 0.116899 -7.4364e-27)
(-0.00805619 0.111255 -4.04275e-28)
(-0.00956874 0.114789 2.1883e-27)
(-0.00966595 0.112518 -5.00872e-32)
(-0.0051288 0.107891 7.439e-27)
(-0.00722168 0.108839 1.58505e-26)
(-0.00112362 0.105451 -1.39666e-27)
(-0.00343735 0.105526 -1.11428e-27)
(0.0366742 0.000676458 -1.49269e-27)
(0.0377682 0.00269331 2.64959e-28)
(0.0386089 0.00716049 -2.22192e-28)
(0.0391509 0.0145921 -1.32963e-27)
(0.039486 0.0229552 -2.82074e-27)
(0.0401096 0.031788 -1.14821e-27)
(0.0408723 0.0407094 -1.21561e-27)
(0.0419528 0.05003 0)
(0.0434031 0.0602043 -1.60503e-27)
(0.0451854 0.0715753 0)
(0.047583 0.0851401 0)
(0.0508111 0.101389 -8.53867e-27)
(0.0542961 0.118185 -2.80859e-28)
(0.0570331 0.133007 8.30121e-29)
(0.0578861 0.142837 4.68484e-27)
(0.0559306 0.145842 -4.56895e-27)
(0.0515007 0.142967 -3.91206e-27)
(0.0461078 0.137472 -3.79517e-27)
(0.0410479 0.132347 3.39728e-27)
(0.0368035 0.128636 4.06933e-28)
(0.0331985 0.125998 2.88649e-27)
(0.0300537 0.124081 -2.76647e-27)
(0.027322 0.122867 -6.21236e-29)
(0.0249032 0.122287 0)
(0.0226741 0.122348 -6.04622e-27)
(0.0204539 0.12295 2.04608e-28)
(0.0181427 0.124076 2.15589e-29)
(0.0155132 0.125548 -4.04854e-28)
(0.0124503 0.127163 -5.21027e-27)
(0.00889101 0.128672 5.80023e-28)
(0.00481199 0.129791 3.30928e-29)
(0.000117402 0.130204 0)
(-0.00443939 0.12791 1.34608e-27)
(-0.00366377 0.129615 0)
(-0.00707518 0.125119 0)
(-0.00674143 0.126928 -2.97377e-27)
(-0.00885713 0.122046 5.00369e-29)
(-0.0089919 0.123839 -1.69628e-27)
(-0.00971206 0.11855 -1.1497e-27)
(-0.0102626 0.120319 0)
(-0.0106027 0.116401 -3.97402e-27)
(-0.00923179 0.110049 8.66733e-28)
(-0.0110938 0.114001 1.80631e-27)
(-0.0110949 0.111429 5.16174e-27)
(-0.00584679 0.106189 1.39905e-26)
(-0.00824627 0.107235 4.5372e-27)
(-0.00128501 0.103379 -3.13233e-27)
(-0.00390737 0.103473 -9.66248e-27)
(0.0355591 0.000748772 -5.28258e-29)
(0.0365689 0.00292494 -1.0864e-27)
(0.0373565 0.00777098 8.86503e-28)
(0.0378528 0.0154948 0)
(0.0381389 0.0238789 -1.97083e-27)
(0.0386918 0.0324709 -1.01379e-27)
(0.0394739 0.0412272 -2.38391e-27)
(0.0405152 0.0502309 5.48984e-27)
(0.0419226 0.0600502 4.67907e-27)
(0.0437138 0.0710521 7.78843e-27)
(0.0460005 0.0839162 0)
(0.0491389 0.0996354 -4.19082e-27)
(0.0526912 0.116478 -6.21397e-31)
(0.0557994 0.13205 4.73647e-27)
(0.057334 0.143475 -6.99376e-29)
(0.0562929 0.148392 -4.65383e-27)
(0.0525458 0.146824 0)
(0.0473181 0.141612 -1.53573e-28)
(0.04215 0.136049 3.52814e-27)
(0.0377104 0.131709 -3.17503e-27)
(0.0340257 0.12858 -4.29251e-32)
(0.0308527 0.126251 -2.78497e-27)
(0.0281298 0.1246 0)
(0.0258058 0.123641 0)
(0.0237563 0.123369 -5.59722e-27)
(0.0217918 0.123754 -3.37364e-28)
(0.0197544 0.124764 7.06818e-29)
(0.0174576 0.126287 -9.34653e-29)
(0.0147121 0.128125 -6.01037e-27)
(0.0113409 0.130068 1.38369e-27)
(0.00732393 0.131767 1.80272e-28)
(0.00255823 0.132869 0)
(-0.00268753 0.13127 0)
(-0.00160245 0.132894 3.56667e-28)
(-0.00614757 0.128785 1.44937e-27)
(-0.00539906 0.13066 0)
(-0.00892546 0.125731 2.39021e-29)
(-0.00863892 0.12772 -3.24503e-27)
(-0.0106656 0.122195 0)
(-0.0109018 0.1242 -3.73606e-27)
(-0.0114457 0.118202 8.18378e-27)
(-0.0121426 0.12016 0)
(-0.0123254 0.115761 -4.76281e-28)
(-0.0105522 0.108583 -8.10849e-27)
(-0.0127796 0.113059 0)
(-0.0127077 0.1101 5.97574e-27)
(-0.00664608 0.104153 -5.95652e-27)
(-0.00937888 0.105314 -4.29132e-27)
(-0.00145622 0.10098 2.54213e-27)
(-0.00440422 0.101102 1.40819e-27)
(0.0344884 0.000821536 0)
(0.0354215 0.0031846 0)
(0.0361521 0.00841677 8.24035e-28)
(0.0365573 0.0163796 0)
(0.0368589 0.0248814 0)
(0.0372762 0.0331363 -8.82428e-27)
(0.0381023 0.0417587 -2.27888e-27)
(0.0390875 0.0504562 1.69947e-26)
(0.0404535 0.0599311 6.07516e-27)
(0.0422225 0.070563 6.81079e-27)
(0.0444188 0.08283 6.54328e-28)