/*--------------------------------*- C++ -*----------------------------------*\
  =========                 |
  \\      /  F ield         | OpenFOAM: The Open Source CFD Toolbox
   \\    /   O peration     | Website:  https://openfoam.org
    \\  /    A nd           | Version:  dev
     \\/     M anipulation  |
\*---------------------------------------------------------------------------*/
FoamFile
{
    version     2.0;
    format      ascii;
    class       volScalarField;
    location    "2500";
    object      a;
}
// * * * * * * * * * * * * * * * * * * * * * * * * * * * * * * * * * * * * * //

dimensions      [0 -1 0 0 0 0 0];

internalField   nonuniform List<scalar> 
9844
(
0.100011
0.100011
0.100011
0.100011
0.100011
0.100011
0.100011
0.100011
0.100011
0.100011
0.10001
0.100011
0.100011
0.100011
0.100011
0.10001
0.10001
0.100011
0.100011
0.100011
0.100011
0.10001
0.10001
0.10001
0.100011
0.100011
0.100011
0.100011
0.10001
0.10001
0.10001
0.10001
0.100011
0.100011
0.100011
0.100011
0.100009
0.10001
0.10001
0.10001
0.10001
0.100011
0.100011
0.100011
0.100011
0.100009
0.100009
0.10001
0.10001
0.10001
0.10001
0.100011
0.100011
0.100011
0.100011
0.100009
0.100009
0.100009
0.10001
0.10001
0.10001
0.10001
0.100011
0.100011
0.100011
0.100011
0.100009
0.100009
0.100009
0.100009
0.10001
0.10001
0.10001
0.10001
0.100011
0.100011
0.100011
0.100011
0.100009
0.100009
0.100009
0.100009
0.100009
0.10001
0.10001
0.10001
0.10001
0.100011
0.100011
0.100011
0.100011
0.100008
0.100009
0.100009
0.100009
0.100009
0.100009
0.10001
0.10001
0.10001
0.10001
0.100011
0.100011
0.100011
0.100011
0.100008
0.100008
0.100009
0.100009
0.100009
0.100009
0.100009
0.10001
0.10001
0.10001
0.10001
0.100011
0.100011
0.100011
0.100011
0.100008
0.100008
0.100008
0.100009
0.100009
0.100009
0.100009
0.100009
0.10001
0.10001
0.10001
0.10001
0.100011
0.100011
0.100011
0.100011
0.100008
0.100008
0.100008
0.100008
0.100009
0.100009
0.100009
0.100009
0.100009
0.10001
0.10001
0.10001
0.10001
0.100011
0.100011
0.100011
0.100011
0.100007
0.100008
0.100008
0.100008
0.100008
0.100009
0.100009
0.100009
0.100009
0.100009
0.10001
0.10001
0.10001
0.10001
0.100011
0.100011
0.100011
0.100011
0.100007
0.100007
0.100008
0.100008
0.100008
0.100008
0.100009
0.100009
0.100009
0.100009
0.100009
0.10001
0.10001
0.10001
0.10001
0.100011
0.100011
0.100011
0.100011
0.100007
0.100007
0.100007
0.100008
0.100008
0.100008
0.100008
0.100009
0.100009
0.100009
0.100009
0.100009
0.10001
0.10001
0.10001
0.10001
0.100011
0.100011
0.100011
0.100011
0.100007
0.100007
0.100007
0.100007
0.100008
0.100008
0.100008
0.100008
0.100008
0.100009
0.100009
0.100009
0.100009
0.10001
0.10001
0.10001
0.10001
0.100011
0.100011
0.100011
0.100011
0.100006
0.100007
0.100007
0.100007
0.100007
0.100008
0.100008
0.100008
0.100008
0.100008
0.100009
0.100009
0.100009
0.100009
0.10001
0.10001
0.10001
0.10001
0.100011
0.100011
0.100011
0.100011
0.100006
0.100006
0.100007
0.100007
0.100007
0.100007
0.100008
0.100008
0.100008
0.100008
0.100008
0.100009
0.100009
0.100009
0.100009
0.10001
0.10001
0.10001
0.10001
0.100011
0.100011
0.100011
0.100011
0.100006
0.100006
0.100006
0.100007
0.100007
0.100007
0.100007
0.100008
0.100008
0.100008
0.100008
0.100008
0.100009
0.100009
0.100009
0.100009
0.10001
0.10001
0.10001
0.10001
0.100011
0.100011
0.100011
0.100011
0.100006
0.100006
0.100006
0.100006
0.100007
0.100007
0.100007
0.100007
0.100008
0.100008
0.100008
0.100008
0.100008
0.100009
0.100009
0.100009
0.100009
0.10001
0.10001
0.10001
0.10001
0.100011
0.100011
0.100011
0.100011
0.100006
0.100006
0.100006
0.100006
0.100006
0.100007
0.100007
0.100007
0.100007
0.100008
0.100008
0.100008
0.100008
0.100008
0.100009
0.100009
0.100009
0.100009
0.10001
0.10001
0.10001
0.10001
0.100011
0.100011
0.100011
0.100011
0.100005
0.100006
0.100006
0.100006
0.100006
0.100006
0.100007
0.100007
0.100007
0.100007
0.100008
0.100008
0.100008
0.100008
0.100008
0.100009
0.100009
0.100009
0.100009
0.10001
0.10001
0.10001
0.10001
0.100011
0.100011
0.100011
0.100011
0.100005
0.100005
0.100006
0.100006
0.100006
0.100006
0.100006
0.100007
0.100007
0.100007
0.100007
0.100008
0.100008
0.100008
0.100008
0.100008
0.100009
0.100009
0.100009
0.100009
0.10001
0.10001
0.10001
0.10001
0.100011
0.100011
0.100011
0.100011
0.100005
0.100005
0.100005
0.100006
0.100006
0.100006
0.100006
0.100006
0.100007
0.100007
0.100007
0.100007
0.100008
0.100008
0.100008
0.100008
0.100008
0.100009
0.100009
0.100009
0.100009
0.10001
0.10001
0.10001
0.10001
0.100011
0.100011
0.100011
0.100011
0.100005
0.100005
0.100005
0.100005
0.100006
0.100006
0.100006
0.100006
0.100006
0.100007
0.100007
0.100007
0.100007
0.100008
0.100008
0.100008
0.100008
0.100008
0.100009
0.100009
0.100009
0.100009
0.10001
0.10001
0.10001
0.10001
0.100011
0.100011
0.100011
0.100011
0.100004
0.100005
0.100005
0.100005
0.100005
0.100006
0.100006
0.100006
0.100006
0.100006
0.100007
0.100007
0.100007
0.100007
0.100008
0.100008
0.100008
0.100008
0.100008
0.100009
0.100009
0.100009
0.100009
0.10001
0.10001
0.10001
0.10001
0.100011
0.100011
0.100011
0.100011
0.100004
0.100004
0.100005
0.100005
0.100005
0.100005
0.100006
0.100006
0.100006
0.100006
0.100006
0.100007
0.100007
0.100007
0.100007
0.100008
0.100008
0.100008
0.100008
0.100008
0.100009
0.100009
0.100009
0.100009
0.10001
0.10001
0.10001
0.10001
0.100011
0.100011
0.100011
0.100011
0.100004
0.100004
0.100004
0.100005
0.100005
0.100005
0.100005
0.100006
0.100006
0.100006
0.100006
0.100006
0.100007
0.100007
0.100007
0.100007
0.100008
0.100008
0.100008
0.100008
0.100008
0.100009
0.100009
0.100009
0.100009
0.10001
0.10001
0.10001
0.10001
0.100011
0.100011
0.100011
0.100011
0.100004
0.100004
0.100004
0.100004
0.100005
0.100005
0.100005
0.100005
0.100006
0.100006
0.100006
0.100006
0.100006
0.100007
0.100007
0.100007
0.100007
0.100008
0.100008
0.100008
0.100008
0.100008
0.100009
0.100009
0.100009
0.100009
0.10001
0.10001
0.10001
0.10001
0.100011
0.100011
0.100011
0.100011
0.100011
0.100004
0.100004
0.100004
0.100004
0.100004
0.100005
0.100005
0.100005
0.100005
0.100006
0.100006
0.100006
0.100006
0.100006
0.100007
0.100007
0.100007
0.100007
0.100008
0.100008
0.100008
0.100008
0.100008
0.100009
0.100009
0.100009
0.100009
0.10001
0.10001
0.10001
0.10001
0.100011
0.100011
0.100011
0.100011
0.100011
0.100011
0.100003
0.100004
0.100004
0.100004
0.100004
0.100004
0.100005
0.100005
0.100005
0.100005
0.100006
0.100006
0.100006
0.100006
0.100006
0.100007
0.100007
0.100007
0.100007
0.100008
0.100008
0.100008
0.100008
0.100008
0.100009
0.100009
0.100009
0.100009
0.10001
0.10001
0.10001
0.10001
0.100011
0.10001
0.100011
0.100011
0.100011
0.100011
0.100011
0.100011
0.100011
0.100003
0.100003
0.100004
0.100004
0.100004
0.100004
0.100004
0.100005
0.100005
0.100005
0.100005
0.100006
0.100006
0.100006
0.100006
0.100006
0.100007
0.100007
0.100007
0.100007
0.100008
0.100008
0.100008
0.100008
0.100008
0.100009
0.100009
0.100009
0.100009
0.10001
0.10001
0.10001
0.10001
0.10001
0.10001
0.100011
0.100011
0.100011
0.100011
0.100011
0.100011
0.100011
0.100003
0.100003
0.100003
0.100004
0.100004
0.100004
0.100004
0.100004
0.100005
0.100005
0.100005
0.100005
0.100006
0.100006
0.100006
0.100006
0.100006
0.100007
0.100007
0.100007
0.100007
0.100008
0.100008
0.100008
0.100008
0.100008
0.100009
0.100009
0.100009
0.100009
0.10001
0.10001
0.10001
0.10001
0.10001
0.10001
0.10001
0.100011
0.100011
0.100011
0.100011
0.100011
0.100011
0.100011
0.100003
0.100003
0.100003
0.100003
0.100004
0.100004
0.100004
0.100004
0.100004
0.100005
0.100005
0.100005
0.100005
0.100006
0.100006
0.100006
0.100006
0.100006
0.100007
0.100007
0.100007
0.100007
0.100008
0.100008
0.100008
0.100008
0.100008
0.100009
0.100009
0.100009
0.10001
0.10001
0.10001
0.100011
0.10001
0.100011
0.10001
0.100011
0.100011
0.100011
0.100011
0.100011
0.100011
0.100011
0.100011
0.100011
0.100002
0.100003
0.100003
0.100003
0.100003
0.100004
0.100004
0.100004
0.100004
0.100004
0.100005
0.100005
0.100005
0.100005
0.100006
0.100006
0.100006
0.100006
0.100006
0.100007
0.100007
0.100007
0.100007
0.100008
0.100008
0.100008
0.100008
0.100008
0.100009
0.100009
0.100011
0.100016
0.100014
0.100024
0.100013
0.100021
0.100012
0.100016
0.100011
0.100012
0.100011
0.100011
0.100011
0.100011
0.100011
0.100011
0.100011
0.100011
0.100002
0.100002
0.100003
0.100003
0.100003
0.100003
0.100004
0.100004
0.100004
0.100004
0.100004
0.100005
0.100005
0.100005
0.100005
0.100006
0.100006
0.100006
0.100006
0.100006
0.100007
0.100007
0.100007
0.100007
0.100008
0.100008
0.100008
0.100008
0.100009
0.10001
0.100016
0.100042
0.100048
0.100107
0.100046
0.100114
0.100034
0.100092
0.100021
0.100055
0.100013
0.100026
0.100014
0.100011
0.100014
0.100013
0.100011
0.100011
0.100011
0.100011
0.100002
0.100002
0.100002
0.100003
0.100003
0.100003
0.100003
0.100004
0.100004
0.100004
0.100004
0.100004
0.100005
0.100005
0.100005
0.100005
0.100006
0.100006
0.100006
0.100006
0.100006
0.100007
0.100007
0.100007
0.100007
0.100008
0.100008
0.100008
0.100009
0.100011
0.100033
0.100124
0.100228
0.100487
0.10028
0.100647
0.100258
0.10067
0.100176
0.100537
0.100085
0.100309
0.100031
0.10012
0.100034
0.100013
0.100033
0.100029
0.100011
0.100012
0.100011
0.100011
0.100002
0.100002
0.100002
0.100002
0.100003
0.100003
0.100003
0.100003
0.100004
0.100004
0.100004
0.100004
0.100004
0.100005
0.100005
0.100005
0.100005
0.100006
0.100006
0.100006
0.100006
0.100006
0.100007
0.100007
0.100007
0.100007
0.100008
0.100008
0.100009
0.100012
0.100044
0.100325
0.100817
0.101398
0.101325
0.102433
0.10156
0.103273
0.101437
0.103382
0.101001
0.102745
0.100491
0.101667
0.100152
0.100687
0.100169
0.100023
0.100163
0.100134
0.100012
0.100018
0.100011
0.100011
0.100001
0.100002
0.100002
0.100002
0.100002
0.100003
0.100003
0.100003
0.100003
0.100004
0.100004
0.100004
0.100004
0.100004
0.100005
0.100005
0.100005
0.100005
0.100006
0.100006
0.100006
0.100006
0.100006
0.100007
0.100007
0.100007
0.100007
0.100008
0.100008
0.100017
0.100078
0.100455
0.101952
0.102742
0.103873
0.105737
0.10584
0.109311
0.106925
0.112255
0.10646
0.11305
0.104676
0.111015
0.102491
0.107153
0.100857
0.103311
0.100943
0.100093
0.100906
0.100742
0.100015
0.100056
0.100011
0.100013
0.100001
0.100001
0.100002
0.100002
0.100002
0.100002
0.100003
0.100003
0.100003
0.100003
0.100004
0.100004
0.100004
0.100004
0.100004
0.100005
0.100005
0.100005
0.100005
0.100006
0.100006
0.100006
0.100006
0.100006
0.100007
0.100007
0.100007
0.100007
0.100008
0.100017
0.100138
0.10103
0.103624
0.103056
0.107632
0.11006
0.113424
0.117928
0.118939
0.126494
0.122205
0.133013
0.12176
0.13531
0.116956
0.132312
0.109897
0.123603
0.103978
0.112415
0.104281
0.100501
0.10409
0.103378
0.100032
0.100273
0.100012
0.10002
0.100001
0.100001
0.100001
0.100002
0.100002
0.100002
0.100002
0.100003
0.100003
0.100003
0.100003
0.100004
0.100004
0.100004
0.100004
0.100004
0.100005
0.100005
0.100005
0.100005
0.100006
0.100006
0.100006
0.100006
0.100006
0.100007
0.100007
0.100007
0.100008
0.100016
0.100142
0.101506
0.110741
0.111694
0.115711
0.122375
0.126797
0.134139
0.14136
0.144077
0.154634
0.149852
0.163857
0.149965
0.167331
0.143451
0.164289
0.130032
0.153778
0.114265
0.135145
0.11496
0.10232
0.11419
0.111862
0.100125
0.101266
0.100014
0.100055
0.100001
0.100001
0.100001
0.100001
0.100002
0.100002
0.100002
0.100002
0.100003
0.100003
0.100003
0.100003
0.100004
0.100004
0.100004
0.100004
0.100004
0.100005
0.100005
0.100005
0.100005
0.100006
0.100006
0.100006
0.100006
0.100006
0.100007
0.100007
0.100007
0.100015
0.100132
0.101477
0.111692
0.136064
0.138243
0.130556
0.133852
0.147771
0.153422
0.164027
0.172023
0.176347
0.187173
0.183174
0.197054
0.183641
0.200699
0.177027
0.197798
0.16222
0.18747
0.138268
0.167976
0.13893
0.108425
0.136692
0.131258
0.100554
0.104808
0.100026
0.100206
0.100001
0.100001
0.100001
0.100001
0.100001
0.100002
0.100002
0.100002
0.100002
0.100003
0.100003
0.100003
0.100003
0.100004
0.100004
0.100004
0.100004
0.100004
0.100005
0.100005
0.100005
0.100005
0.100006
0.100006
0.100006
0.100006
0.100006
0.100007
0.100007
0.100014
0.100112
0.101368
0.11101
0.139307
0.139996
0.163643
0.165308
0.15792
0.161329
0.178594
0.183975
0.196213
0.203549
0.208828
0.218787
0.215544
0.228421
0.215903
0.23173
0.209526
0.228684
0.195169
0.218688
0.170923
0.1999
0.170932
0.123389
0.16732
0.159501
0.102098
0.114273
0.10007
0.100693
0.1
0.100001
0.100001
0.100001
0.100001
0.100001
0.100002
0.100002
0.100002
0.100002
0.100003
0.100003
0.100003
0.100003
0.100004
0.100004
0.100004
0.100004
0.100004
0.100005
0.100005
0.100005
0.100005
0.100006
0.100006
0.100006
0.100006
0.100006
0.100007
0.100011
0.100096
0.101231
0.110893
0.139665
0.136699
0.166029
0.16592
0.192313
0.193124
0.187974
0.190704
0.209349
0.213871
0.227003
0.233591
0.239487
0.249078
0.245909
0.258848
0.245804
0.261778
0.239163
0.257888
0.225072
0.247237
0.201963
0.228818
0.200991
0.147676
0.196399
0.187664
0.106466
0.132368
0.100187
0.10206
0.1
0.1
0.100001
0.100001
0.100001
0.100001
0.100001
0.100002
0.100002
0.100002
0.100002
0.100003
0.100003
0.100003
0.100003
0.100004
0.100004
0.100004
0.100004
0.100004
0.100005
0.100005
0.100005
0.100005
0.100006
0.100006
0.100006
0.100006
0.100007
0.10001
0.100075
0.101103
0.110389
0.150832
0.165552
0.167687
0.192928
0.192306
0.219491
0.219246
0.217012
0.21883
0.238741
0.242555
0.257159
0.263728
0.270554
0.281087
0.277218
0.292066
0.276218
0.294876
0.268032
0.28906
0.252746
0.275839
0.229984
0.255677
0.228213
0.174399
0.222875
0.213675
0.116399
0.155618
0.100376
0.105348
0.1
0.1
0.100001
0.100001
0.100001
0.100001
0.100001
0.100002
0.100002
0.100002
0.100002
0.100003
0.100003
0.100003
0.100003
0.100004
0.100004
0.100004
0.100004
0.100004
0.100005
0.100005
0.100005
0.100005
0.100006
0.100006
0.100006
0.100006
0.100009
0.100053
0.1009
0.109663
0.147167
0.187642
0.185459
0.191006
0.18969
0.218438
0.216851
0.245551
0.244601
0.244989
0.245848
0.268874
0.272442
0.289898
0.297259
0.305903
0.317668
0.313557
0.330167
0.311208
0.333816
0.300034
0.325677
0.28088
0.308016
0.25609
0.28315
0.253511
0.199632
0.247587
0.237846
0.132442
0.17944
0.100761
0.111421
0.1
0.1
0.100001
0.100001
0.100001
0.100001
0.100001
0.100002
0.100002
0.100002
0.100002
0.100003
0.100003
0.100003
0.100003
0.100004
0.100004
0.100004
0.100004
0.100004
0.100005
0.100005
0.100005
0.100005
0.100006
0.100006
0.100006
0.100008
0.100039
0.10065
0.10829
0.14273
0.183306
0.178133
0.209367
0.206791
0.214614
0.212144
0.242585
0.239743
0.273392
0.271256
0.274365
0.274212
0.302762
0.306123
0.325935
0.330013
0.339473
0.342296
0.348141
0.35104
0.350917
0.359884
0.337841
0.364076
0.312751
0.34511
0.282714
0.31435
0.278979
0.223206
0.271936
0.261184
0.152198
0.202613
0.101225
0.119619
0.1
0.1
0.100001
0.100001
0.100001
0.100001
0.100001
0.100002
0.100002
0.100002
0.100002
0.100003
0.100003
0.100003
0.100003
0.100004
0.100004
0.100004
0.100004
0.100004
0.100005
0.100005
0.100005
0.100005
0.100006
0.100006
0.100008
0.100032
0.100456
0.106614
0.138193
0.187799
0.203366
0.203722
0.228988
0.225417
0.236376
0.232755
0.267684
0.263265
0.304629
0.300987
0.307069
0.30636
0.331587
0.331724
0.341563
0.340294
0.349182
0.344996
0.358053
0.351342
0.36889
0.36275
0.373802
0.377761
0.349851
0.380861
0.312683
0.352084
0.331922
0.29091
0.309395
0.229586
0.250016
0.281886
0.301103
0.305605
0.295464
0.26903
0.289014
0.173969
0.241154
0.230911
0.207818
0.101866
0.130978
0.1
0.100001
0.100001
0.100001
0.100001
0.100001
0.100001
0.100002
0.100002
0.100002
0.100002
0.100003
0.100003
0.100003
0.100003
0.100004
0.100004
0.100004
0.100004
0.100004
0.100005
0.100005
0.100005
0.100005
0.100006
0.100008
0.10003
0.100354
0.105165
0.133916
0.183202
0.216158
0.211009
0.221686
0.218848
0.247644
0.242567
0.258255
0.252968
0.29581
0.289594
0.329494
0.327536
0.331225
0.330516
0.338182
0.33624
0.338754
0.331066
0.338061
0.322569
0.346695
0.3231
0.364998
0.337876
0.384423
0.376204
0.3626
0.3692
0.385846
0.390703
0.39174
0.351209
0.327733
0.349644
0.370447
0.324932
0.261347
0.315246
0.320553
0.309026
0.28128
0.301908
0.219526
0.178968
0.206996
0.252339
0.242422
0.106785
0.192318
0.170166
0.136791
0.100001
0.100001
0.100001
0.100001
0.100001
0.100001
0.100001
0.100002
0.100002
0.100002
0.100002
0.100003
0.100003
0.100003
0.100003
0.100004
0.100004
0.100004
0.100004
0.100004
0.100005
0.100005
0.100005
0.100006
0.100008
0.100032
0.10032
0.104201
0.129924
0.178789
0.215288
0.229242
0.227311
0.237701
0.233478
0.267334
0.260009
0.282501
0.274954
0.32369
0.317304
0.334784
0.33543
0.334916
0.334543
0.324313
0.31943
0.31073
0.303136
0.30785
0.302549
0.312681
0.303974
0.347506
0.330422
0.319582
0.309691
0.38256
0.366505
0.363787
0.347326
0.386907
0.39566
0.386698
0.395007
0.369681
0.345735
0.367434
0.387602
0.341813
0.272999
0.336696
0.330655
0.32367
0.293898
0.315859
0.232009
0.221296
0.263913
0.254479
0.152692
0.108181
0.128935
0.209731
0.195578
0.100001
0.100001
0.100001
0.100001
0.100001
0.100001
0.100001
0.100002
0.100002
0.100002
0.100002
0.100003
0.100003
0.100003
0.100003
0.100004
0.100004
0.100004
0.100004
0.100004
0.100005
0.100005
0.100006
0.10001
0.10004
0.100319
0.103834
0.126212
0.174198
0.210475
0.232354
0.226925
0.24145
0.236781
0.253165
0.247063
0.289368
0.279229
0.309062
0.299545
0.335689
0.335022
0.32068
0.325486
0.317595
0.318414
0.297477
0.292301
0.299472
0.296234
0.302647
0.305417
0.306953
0.305676
0.307139
0.31178
0.331207
0.318592
0.311568
0.308348
0.371203
0.353352
0.349611
0.333342
0.398093
0.398775
0.376241
0.391302
0.387143
0.36408
0.385364
0.399896
0.359633
0.285165
0.353923
0.347154
0.339394
0.307217
0.330773
0.245225
0.23662
0.275993
0.266985
0.181334
0.124476
0.166886
0.228969
0.222278
0.100001
0.100001
0.100001
0.100001
0.100001
0.100001
0.100001
0.100002
0.100002
0.100002
0.100002
0.100003
0.100003
0.100003
0.100003
0.100004
0.100004
0.100004
0.100004
0.100004
0.100005
0.100006
0.100012
0.100049
0.100354
0.10368
0.123599
0.169022
0.205825
0.223058
0.239275
0.232924
0.25304
0.245884
0.269653
0.260947
0.312721
0.300326
0.331768
0.32364
0.33158
0.337222
0.291174
0.299138
0.288081
0.28785
0.291582
0.285276
0.309165
0.308168
0.317601
0.324069
0.329424
0.333959
0.308884
0.313233
0.32032
0.328772
0.321164
0.314475
0.312232
0.314039
0.358453
0.336989
0.341983
0.325032
0.40222
0.396246
0.364716
0.382131
0.400875
0.382237
0.400715
0.405452
0.37778
0.297992
0.371776
0.364484
0.356058
0.321363
0.346606
0.258666
0.252012
0.288605
0.279642
0.221306
0.195143
0.232691
0.248174
0.246837
0.100001
0.1
0.100001
0.100001
0.100001
0.100001
0.100001
0.100002
0.100002
0.100002
0.100002
0.100003
0.100003
0.100003
0.100003
0.100004
0.100004
0.100004
0.100004
0.100005
0.100006
0.100016
0.100068
0.100456
0.103808
0.122636
0.164306
0.201416
0.214729
0.225818
0.217761
0.244648
0.23499
0.264893
0.254528
0.287828
0.275951
0.333333
0.321228
0.339585
0.338589
0.310626
0.323477
0.27099
0.275632
0.277175
0.271292
0.300541
0.288237
0.345516
0.340362
0.337444
0.345316
0.351452
0.353863
0.32048
0.329453
0.339923
0.350534
0.318468
0.316895
0.320247
0.32784
0.348294
0.330116
0.336266
0.323726
0.401483
0.388794
0.355754
0.371962
0.407926
0.398833
0.409717
0.406485
0.395177
0.31157
0.389451
0.382153
0.373372
0.336417
0.363234
0.27179
0.266564
0.301723
0.292518
0.253191
0.231881
0.261516
0.265342
0.266589
0.100001
0.1
0.100001
0.100001
0.100001
0.100001
0.100001
0.100002
0.100002
0.100002
0.100002
0.100003
0.100003
0.100003
0.100003
0.100004
0.100004
0.100004
0.100004
0.100007
0.100023
0.100107
0.100668
0.10444
0.122723
0.161501
0.197659
0.209379
0.201971
0.220776
0.207528
0.248323
0.234121
0.277236
0.26277
0.306887
0.291951
0.341878
0.337508
0.334991
0.341614
0.287918
0.304851
0.261475
0.266056
0.274536
0.264263
0.322887
0.297715
0.376145
0.372554
0.35244
0.365171
0.360127
0.368004
0.373678
0.376399
0.338511
0.350541
0.362604
0.373523
0.3227
0.326628
0.335273
0.347122
0.343577
0.329866
0.336976
0.329085
0.395796
0.380013
0.351856
0.364155
0.410769
0.410352
0.414172
0.403023
0.409286
0.325892
0.40569
0.399456
0.390683
0.352295
0.38038
0.284888
0.280537
0.315479
0.305972
0.272749
0.177351
0.249222
0.280264
0.281197
0.1
0.1
0.100001
0.100001
0.100001
0.100001
0.100001
0.100002
0.100002
0.100002
0.100002
0.100003
0.100003
0.100003
0.100003
0.100004
0.100004
0.100004
0.100008
0.100034
0.100185
0.101118
0.106017
0.123642
0.160889
0.195274
0.206527
0.194901
0.182856
0.176287
0.210906
0.194658
0.250051
0.229825
0.289501
0.270199
0.324847
0.307841
0.344194
0.344069
0.322566
0.336861
0.277966
0.294916
0.258427
0.264955
0.273812
0.260626
0.340302
0.322053
0.296668
0.390656
0.3837
0.358149
0.372835
0.382463
0.388966
0.392567
0.392993
0.360407
0.373616
0.385548
0.395385
0.33344
0.34261
0.355326
0.369481
0.345062
0.336136
0.344044
0.340436
0.388622
0.373288
0.353973
0.360911
0.409967
0.416429
0.415669
0.397565
0.417732
0.34091
0.417259
0.414293
0.407482
0.36871
0.397337
0.298378
0.293986
0.329795
0.319823
0.278495
0.127876
0.211544
0.292687
0.290868
0.1
0.1
0.100001
0.100001
0.100001
0.100001
0.100001
0.100002
0.100002
0.100002
0.100002
0.100003
0.100003
0.100003
0.100003
0.100004
0.100004
0.100009
0.100051
0.100333
0.102064
0.109039
0.12655
0.161145
0.194445
0.205351
0.193394
0.162346
0.163265
0.153926
0.196993
0.176898
0.249356
0.222069
0.300605
0.276092
0.338044
0.322072
0.343279
0.347174
0.313249
0.33084
0.278394
0.295357
0.259217
0.270598
0.267917
0.257923
0.340419
0.322254
0.295119
0.27426
0.401623
0.391743
0.358579
0.377359
0.402658
0.407109
0.408338
0.406972
0.3836
0.396291
0.406781
0.414645
0.350091
0.363114
0.377922
0.392653
0.352711
0.347989
0.356177
0.357327
0.382983
0.37067
0.362179
0.363707
0.406325
0.419823
0.414367
0.393027
0.42246
0.356464
0.424157
0.423903
0.420823
0.385245
0.413303
0.311824
0.306369
0.344453
0.333688
0.269953
0.120159
0.194144
0.302454
0.293714
0.1
0.1
0.100001
0.100001
0.100001
0.100001
0.100001
0.100002
0.100002
0.100002
0.100002
0.100003
0.100003
0.100003
0.100003
0.100004
0.10001
0.100076
0.100596
0.103723
0.113607
0.131942
0.162435
0.19443
0.205095
0.193661
0.163426
0.132687
0.133685
0.142434
0.134665
0.181211
0.157482
0.246508
0.212176
0.309453
0.279866
0.344515
0.332954
0.343365
0.349537
0.312927
0.329792
0.287133
0.304267
0.26438
0.282128
0.26344
0.256131
0.254288
0.337785
0.315551
0.28296
0.26544
0.409805
0.397255
0.356945
0.379505
0.419796
0.421776
0.421425
0.41759
0.405969
0.41695
0.425231
0.430711
0.370715
0.385817
0.400988
0.414745
0.365067
0.36505
0.373296
0.378173
0.381033
0.374102
0.374687
0.372299
0.402889
0.42119
0.41234
0.391575
0.425593
0.372097
0.428334
0.430059
0.429801
0.401272
0.425822
0.324625
0.317136
0.359106
0.347108
0.256955
0.128253
0.1952
0.308978
0.28965
0.1
0.1
0.100001
0.100001
0.100001
0.100001
0.100001
0.100002
0.100002
0.100002
0.100002
0.100003
0.100003
0.100003
0.100004
0.100012
0.100109
0.101029
0.106302
0.119462
0.1388
0.166
0.194884
0.204893
0.194388
0.166002
0.127424
0.11529
0.114251
0.127279
0.118659
0.169526
0.143584
0.243235
0.204191
0.315545
0.281835
0.348319
0.338995
0.346126
0.352188
0.320334
0.334626
0.300878
0.31734
0.263899
0.274522
0.288978
0.255389
0.252693
0.254964
0.248235
0.331535
0.305859
0.271192
0.254465
0.41618
0.400896
0.354554
0.37996
0.433791
0.434196
0.432492
0.42636
0.426133
0.434746
0.440655
0.4445
0.393383
0.408782
0.4228
0.434462
0.382196
0.385917
0.394098
0.400819
0.384813
0.382988
0.391745
0.384528
0.401817
0.420642
0.411531
0.395337
0.427479
0.387375
0.431691
0.434791
0.435954
0.416072
0.434291
0.336176
0.325713
0.373271
0.359635
0.246804
0.150713
0.196399
0.311337
0.282192
0.1
0.1
0.100001
0.100001
0.100001
0.100001
0.100001
0.100002
0.100002
0.100002
0.100002
0.100003
0.100003
0.100005
0.100014
0.100143
0.101582
0.109706
0.125982
0.14643
0.172404
0.19638
0.204655
0.194277
0.167054
0.128926
0.105974
0.106624
0.10786
0.105772
0.122557
0.112782
0.165865
0.139428
0.242817
0.201608
0.31874
0.283515
0.351103
0.341966
0.350945
0.354511
0.331372
0.342797
0.308156
0.32364
0.262997
0.273587
0.281009
0.292252
0.247122
0.245705
0.252598
0.243842
0.324924
0.295394
0.259489
0.243945
0.419847
0.401854
0.349758
0.37873
0.445754
0.444944
0.440869
0.432826
0.443321
0.449497
0.453794
0.455756
0.416234
0.430311
0.442081
0.451048
0.402857
0.408488
0.416476
0.423497
0.393418
0.395281
0.411994
0.401672
0.40549
0.420485
0.414791
0.40363
0.428497
0.401888
0.435483
0.438912
0.440686
0.428239
0.440324
0.346141
0.331781
0.386709
0.370855
0.239023
0.132422
0.178993
0.310514
0.275978
0.1
0.1
0.100001
0.100001
0.100001
0.100001
0.100002
0.100002
0.100002
0.100002
0.100003
0.100004
0.100006
0.10002
0.100174
0.102164
0.113249
0.132506
0.15425
0.179674
0.198658
0.204152
0.193435
0.166566
0.129051
0.105355
0.102142
0.101568
0.106384
0.103432
0.124621
0.112495
0.173477
0.145021
0.247837
0.208659
0.32039
0.286866
0.352918
0.342828
0.353265
0.354896
0.337432
0.348017
0.301343
0.310361
0.31901
0.258309
0.269926
0.270375
0.281765
0.239178
0.239163
0.246813
0.237144
0.317363
0.285448
0.248274
0.23417
0.420932
0.401143
0.343651
0.375232
0.455679
0.452705
0.446199
0.435805
0.457275
0.461727
0.464097
0.464237
0.437475
0.449105
0.457968
0.464122
0.424773
0.430907
0.438333
0.44439
0.405389
0.411492
0.432709
0.421004
0.412862
0.423589
0.421387
0.414289
0.431997
0.415598
0.439132
0.443123
0.444719
0.436574
0.444543
0.354546
0.335661
0.398714
0.380963
0.226769
0.108139
0.147258
0.308623
0.268809
0.1
0.100001
0.100001
0.100001
0.100001
0.100001
0.100002
0.100002
0.100003
0.100004
0.100006
0.100011
0.100033
0.100203
0.10256
0.116222
0.13834
0.16178
0.185466
0.199409
0.202883
0.190828
0.164026
0.127179
0.105469
0.100566
0.10157
0.100785
0.10764
0.103353
0.135088
0.117392
0.190693
0.160482
0.258546
0.223755
0.321832
0.292572
0.352423
0.34203
0.348702
0.350292
0.332549
0.343712
0.292394
0.302739
0.299315
0.293401
0.246704
0.258568
0.251621
0.262963
0.230381
0.230985
0.235444
0.225963
0.308621
0.274846
0.235869
0.222781
0.42056
0.398744
0.336601
0.37065
0.461864
0.45667
0.44852
0.436803
0.468338
0.470345
0.470553
0.468736
0.455675
0.464194
0.469981
0.473586
0.444896
0.451067
0.456169
0.461676
0.419769
0.428405
0.449572
0.438507
0.422787
0.430133
0.432286
0.428333
0.439025
0.426699
0.443141
0.445574
0.44692
0.441991
0.447567
0.361533
0.33809
0.41009
0.39024
0.207067
0.102269
0.124291
0.306001
0.258413
0.100001
0.100001
0.100001
0.100001
0.100001
0.100002
0.100002
0.100004
0.100007
0.100013
0.100025
0.10006
0.100244
0.102716
0.118122
0.14298
0.168065
0.189418
0.199213
0.200107
0.184929
0.157541
0.123013
0.104851
0.100497
0.10039
0.100704
0.1002
0.101746
0.110424
0.104316
0.14482
0.123059
0.206941
0.174396
0.269423
0.23888
0.321539
0.297742
0.348264
0.338641
0.328637
0.332688
0.301138
0.318239
0.273823
0.28412
0.281311
0.27023
0.228927
0.240188
0.226005
0.236969
0.219407
0.220029
0.21866
0.210471
0.298844
0.26316
0.222068
0.209237
0.419621
0.395958
0.328624
0.365419
0.46489
0.458578
0.449586
0.437025
0.475056
0.475173
0.474243
0.471288
0.469513
0.474611
0.477613
0.478869
0.460371
0.46588
0.46976
0.47334
0.436765
0.447314
0.469674
0.458681
0.438353
0.440753
0.445371
0.447347
0.44379
0.435396
0.446045
0.4482
0.450294
0.446819
0.450282
0.367323
0.339405
0.420879
0.398339
0.183408
0.100289
0.107263
0.302044
0.244462
0.100004
0.100002
0.100002
0.100002
0.100004
0.100005
0.100009
0.100018
0.100036
0.100069
0.100122
0.100324
0.102802
0.118818
0.14621
0.172533
0.191542
0.198517
0.195103
0.176705
0.148498
0.118471
0.10366
0.100398
0.100104
0.100809
0.100377
0.100203
0.101938
0.111005
0.104623
0.146827
0.124168
0.211358
0.177656
0.271443
0.243307
0.313899
0.295014
0.333473
0.327266
0.279957
0.291466
0.252384
0.256258
0.256379
0.248039
0.259158
0.244076
0.234454
0.205437
0.215435
0.194535
0.204193
0.205732
0.205979
0.19697
0.190989
0.288296
0.25048
0.207165
0.1937
0.418793
0.393889
0.321542
0.361445
0.467015
0.460427
0.450771
0.437218
0.47914
0.478939
0.477638
0.474787
0.478545
0.481452
0.482627
0.483278
0.475889
0.477917
0.482434
0.483199
0.457837
0.46593
0.480554
0.474141
0.452817
0.446027
0.45167
0.460516
0.447647
0.441972
0.449596
0.451604
0.453871
0.449793
0.455061
0.371994
0.340314
0.429904
0.405824
0.154306
0.100046
0.101823
0.295793
0.227563
0.100011
0.100005
0.100004
0.100007
0.100013
0.100028
0.10006
0.100112
0.100178
0.100256
0.1005
0.102966
0.11879
0.147878
0.175526
0.191876
0.196819
0.188925
0.167637
0.139072
0.114048
0.102668
0.100293
0.100047
0.100086
0.100825
0.100353
0.100195
0.101922
0.110328
0.104488
0.142828
0.122262
0.202313
0.171112
0.255945
0.231525
0.289475
0.274957
0.296342
0.297317
0.191271
0.21815
0.219055
0.231836
0.191229
0.187469
0.214234
0.224457
0.207311
0.196394
0.17783
0.185689
0.160606
0.168292
0.189396
0.188909
0.172075
0.169338
0.277974
0.237472
0.191684
0.17672
0.41882
0.393266
0.317726
0.3599
0.469907
0.462613
0.452151
0.437915
0.483604
0.483342
0.481688
0.478369
0.485461
0.486598
0.488004
0.488201
0.484324
0.486423
0.488453
0.489099
0.467222
0.474326
0.490712
0.479111
0.460734
0.450773
0.457398
0.466632
0.45157
0.447834
0.453288
0.455997
0.458382
0.454117
0.459772
0.377194
0.340041
0.436444
0.415306
0.130274
0.100015
0.100364
0.288642
0.207935
0.100033
0.100014
0.100017
0.100034
0.100076
0.100167
0.100295
0.10044
0.100591
0.100921
0.103374
0.118541
0.148199
0.176845
0.191624
0.194338
0.182632
0.159105
0.130757
0.110398
0.101914
0.100217
0.100028
0.100027
0.100091
0.100193
0.10005
0.100728
0.100276
0.101606
0.107639
0.103525
0.130595
0.115946
0.176329
0.151788
0.218727
0.199762
0.240613
0.232655
0.232995
0.239245
0.166569
0.128661
0.132805
0.13163
0.170379
0.179262
0.153687
0.176827
0.186276
0.161822
0.153394
0.149328
0.154171
0.128658
0.133177
0.170841
0.169337
0.147001
0.147169
0.270151
0.22474
0.176974
0.159567
0.420307
0.394353
0.316845
0.360039
0.47318
0.46529
0.454441
0.439769
0.487911
0.486252
0.483793
0.480117
0.490537
0.492913
0.493044
0.492282
0.495314
0.495877
0.496559
0.498672
0.472938
0.483591
0.490917
0.488337
0.465903
0.456862
0.464629
0.475942
0.45775
0.449535
0.459121
0.460963
0.462669
0.45887
0.467442
0.381348
0.339652
0.442915
0.423503
0.111264
0.100012
0.100119
0.277979
0.180379
0.100096
0.100052
0.10009
0.100214
0.10046
0.100817