/*--------------------------------*- C++ -*----------------------------------*\
  =========                 |
  \\      /  F ield         | OpenFOAM: The Open Source CFD Toolbox
   \\    /   O peration     | Website:  https://openfoam.org
    \\  /    A nd           | Version:  dev
     \\/     M anipulation  |
\*---------------------------------------------------------------------------*/
FoamFile
{
    version     2.0;
    format      ascii;
    class       volScalarField;
    location    "2500";
    object      alphat;
}
// * * * * * * * * * * * * * * * * * * * * * * * * * * * * * * * * * * * * * //

dimensions      [1 -1 -1 0 0 0 0];

internalField   nonuniform List<scalar> 
9844
(
0.000149778
0.000154149
0.000146264
0.000141917
0.00018397
0.000130891
0.000130848
0.000194364
0.000174016
0.000124159
0.000126118
0.000188076
0.000198853
0.000149867
0.000122101
0.000122525
0.000170175
0.000213701
0.000184038
0.000136236
0.000120764
0.00012065
0.000151568
0.000213414
0.000208689
0.000157852
0.000130095
0.00011985
0.000120109
0.000140597
0.000205
0.000222778
0.000187088
0.000142371
0.000126482
0.000119193
0.000119867
0.000132321
0.000184965
0.000230545
0.000212835
0.000161121
0.00013474
0.000124045
0.000118809
0.000119679
0.000127483
0.000161425
0.000227691
0.000228654
0.000185752
0.000145592
0.000130261
0.00012224
0.000118472
0.000119051
0.00012445
0.000148528
0.000216693
0.000239461
0.000212774
0.000161411
0.000137509
0.000127029
0.000121184
0.000118189
0.000118295
0.000122794
0.000138307
0.000193167
0.000243517
0.000232543
0.000182441
0.000147022
0.000132591
0.000124591
0.000120303
0.000118
0.00011768
0.000122013
0.00013221
0.000167794
0.000238839
0.000243506
0.000208598
0.000159777
0.000139167
0.000128941
0.000123035
0.000119702
0.000117829
0.000117246
0.000121481
0.00012853
0.000154435
0.000225255
0.000252614
0.00023157
0.000178888
0.000146824
0.000134039
0.000126282
0.000121688
0.000119272
0.000117598
0.000117062
0.000121034
0.000126213
0.000143954
0.000200414
0.00025395
0.000247683
0.000201657
0.000158078
0.000139575
0.000130194
0.000124362
0.000120729
0.000118791
0.000117484
0.000117184
0.000120348
0.000124568
0.00013725
0.000174883
0.000248193
0.000255252
0.000227428
0.000173875
0.000146224
0.000134649
0.000127459
0.000122641
0.000120107
0.000118264
0.000117412
0.000117323
0.00011937
0.000123607
0.000132754
0.000161102
0.000233291
0.000263304
0.000246134
0.000195101
0.000155449
0.000139374
0.000130921
0.000125288
0.000121477
0.000119498
0.00011787
0.000117344
0.000117396
0.00011848
0.000122672
0.000129744
0.000150185
0.000208215
0.000263249
0.000259745
0.000218723
0.000169183
0.000145144
0.00013465
0.000128131
0.000123499
0.000120688
0.000118814
0.000117617
0.000117268
0.000117426
0.000117848
0.000121781
0.000127492
0.000142674
0.000182973
0.000257094
0.000265863
0.000242728
0.000187673
0.000152776
0.00013898
0.00013113
0.000125931
0.000122127
0.000119975
0.000118208
0.000117421
0.000117212
0.000117379
0.000117368
0.000120835
0.000125662
0.000137397
0.000167864
0.00024197
0.000273021
0.000258433
0.000209662
0.000164529
0.00014366
0.000134612
0.000128463
0.000124161
0.000121154
0.00011928
0.000117784
0.000117231
0.000117166
0.000117281
0.000117105
0.000120002
0.000124318
0.000133553
0.00015673
0.000217564
0.000272592
0.000270261
0.000232854
0.000180422
0.00015046
0.000138165
0.000131205
0.000126357
0.000122734
0.00012036
0.000118601
0.000117477
0.000117085
0.00011713
0.000117191
0.000117107
0.000119355
0.000123408
0.000130839
0.000148353
0.000192837
0.000266587
0.000275457
0.000255147
0.000200277
0.000159835
0.000142462
0.000134163
0.000128582
0.000124634
0.000121615
0.000119648
0.000118062
0.000117211
0.000116979
0.000117108
0.000117119
0.000117125
0.000118664
0.000122669
0.000128831
0.000142537
0.00017494
0.000252282
0.000282273
0.000268802
0.000221831
0.000173791
0.00014774
0.000137404
0.00013111
0.000126579
0.000123238
0.000120746
0.000119012
0.000117691
0.000117011
0.000116909
0.000117099
0.000117065
0.000117109
0.00011808
0.00012183
0.000127267
0.000138245
0.000164159
0.000229577
0.000282134
0.000279671
0.000244115
0.000190609
0.000156064
0.000140939
0.00013364
0.000128703
0.000124964
0.000122104
0.000120027
0.000118435
0.000117384
0.000116862
0.00011688
0.00011711
0.000117035
0.000117057
0.000117627
0.000121061
0.000126125
0.000134955
0.000155146
0.000205622
0.000277173
0.000284274
0.000264852
0.000210837
0.000166968
0.000145626
0.000136658
0.00013082
0.000126798
0.000123649
0.000121163
0.000119409
0.000118024
0.000117157
0.000116788
0.000116907
0.000117149
0.000117014
0.000116994
0.000117296
0.000120445
0.000125217
0.000132632
0.000148465
0.000184006
0.000264909
0.00029078
0.000277867
0.000231121
0.00018196
0.000152088
0.000139663
0.00013322
0.000128677
0.000125246
0.000122529
0.000120428
0.000118877
0.000117727
0.000117023
0.0001168
0.000117001
0.000117224
0.000116998
0.000116933
0.000117046
0.000119983
0.000124486
0.000131053
0.000143593
0.000172541
0.000245926
0.000292272
0.000287635
0.000252809
0.000198807
0.000161301
0.000143498
0.00013575
0.000130602
0.000126946
0.000123976
0.000121612
0.00011983
0.000118465
0.000117526
0.000116994
0.000116912
0.000117186
0.000117351
0.000116988
0.00011688
0.000116864
0.00011969
0.000124018
0.000129887
0.000139987
0.000163564
0.000222134
0.000289201
0.000293538
0.000271383
0.000218485
0.000173162
0.000148763
0.000138449
0.000132688
0.000128608
0.000125497
0.000122937
0.00012089
0.000119383
0.000118195
0.000117437
0.000117089
0.000117149
0.000117498
0.000117546
0.000116978
0.000116826
0.000116756
0.000119541
0.000123603
0.000128859
0.000137344
0.000156094
0.000201476
0.000280536
0.000298536
0.000285754
0.000237671
0.000188047
0.000156003
0.000141554
0.000134758
0.000130323
0.000127023
0.000124341
0.000122121
0.000120359
0.000119057
0.000118052
0.000117494
0.000117339
0.000117561
0.000117982
0.000117706
0.000116975
0.000116771
0.000116696
0.000119454
0.000123287
0.000128208
0.000135306
0.000150484
0.000184196
0.000264711
0.000302755
0.000294609
0.000257497
0.0002049
0.000165575
0.000145737
0.000137228
0.00013199
0.000128529
0.000125758
0.000123437
0.000121475
0.000119968
0.000118842
0.00011806
0.000117722
0.000117792
0.000118206
0.000118762
0.000118224
0.000116968
0.000116701
0.000116692
0.000119404
0.000123058
0.000127855
0.000133848
0.000146375
0.000174357
0.000246908
0.00030149
0.000302346
0.000275107
0.000222594
0.000177831
0.000151358
0.000139726
0.000133897
0.000129968
0.000127135
0.000124771
0.000122735
0.000121007
0.00011973
0.000118803
0.00011826
0.000118176
0.00011851
0.000119255
0.000119638
0.000119135
0.000116963
0.000116641
0.000116725
0.000119385
0.000122893
0.000127632
0.000132783
0.000143355
0.000167274
0.000226575
0.000297164
0.000305718
0.000291423
0.000241229
0.000191844
0.000158943
0.000142914
0.000135868
0.000131433
0.000128463
0.000126062
0.000124025
0.000122223
0.000120733
0.000119677
0.000118995
0.000118697
0.000118941
0.000119602
0.000120718
0.000121103
0.000116083
0.000116954
0.000116595
0.000116802
0.000119403
0.000122797
0.000127473
0.000131979
0.000141105
0.00016124
0.000208562
0.000287824
0.000310697
0.000300613
0.000257873
0.000207799
0.000168439
0.000147387
0.000138048
0.000132968
0.00012965
0.000127278
0.00012526
0.000123485
0.000121886
0.000120674
0.000119854
0.000119449
0.000119442
0.000120084
0.000121243
0.000122336
0.000109813
8.92116e-05
0.000116943
0.000116561
0.000116917
0.000119456
0.000122771
0.000127309
0.000131344
0.000139364
0.000156499
0.000193758
0.000274865
0.000313842
0.000307564
0.000276308
0.000223654
0.000180039
0.000153116
0.000140585
0.000134591
0.000130862
0.000128372
0.000126408
0.000124703
0.000123156
0.000121815
0.000120859
0.000120306
0.000120265
0.000120625
0.000121629
0.000123254
0.00010394
8.6049e-05
7.10835e-05
7.30052e-05
0.000116934
0.000116536
0.000117055
0.000119541
0.000122787
0.000127137
0.000130815
0.000137931
0.000152925
0.000183562
0.000261018
0.000313281
0.00031395
0.000290673
0.000240182
0.000192913
0.000160453
0.000143885
0.000136467
0.000132101
0.000129391
0.000127443
0.000125836
0.000124397
0.000123076
0.000121999
0.000121343
0.000121148
0.000121511
0.000122469
0.000114822
9.40664e-05
8.22387e-05
7.21223e-05
7.26025e-05
6.29433e-05
6.64936e-05
0.000116922
0.000116533
0.000117189
0.000119654
0.000122832
0.000126986
0.000130422
0.000136743
0.000150095
0.000177198
0.000245673
0.000310948
0.000318095
0.000303833
0.000256629
0.000206931
0.000169265
0.00014825
0.000138492
0.000133508
0.000130338
0.000128382
0.000126848
0.000125525
0.000124329
0.000123261
0.000122561
0.000122234
0.000122527
0.00012333
0.000106241
8.82328e-05
8.34575e-05
7.9157e-05
7.03326e-05
7.51632e-05
6.65913e-05
6.64903e-05
6.50796e-05
5.70145e-05
5.92996e-05
0.000116917
0.000116552
0.000117312
0.00011977
0.000122878
0.000126829
0.000130146
0.000135849
0.000147791
0.000172646
0.000230497
0.000305567
0.000323505
0.00031249
0.000270792
0.000221846
0.000179759
0.000153597
0.000140932
0.000134933
0.000131381
0.000129211
0.000127766
0.00012649
0.000125464
0.000124576
0.000123863
0.000123604
0.000123801
0.000119843
9.98558e-05
8.29449e-05
7.53029e-05
7.36156e-05
7.11158e-05
6.32756e-05
6.19792e-05
6.10041e-05
5.97854e-05
5.85101e-05
5.13542e-05
5.3553e-05
0.000116916
0.000116563
0.000117406
0.000119843
0.000122912
0.000126704
0.000129935
0.000135236
0.000145975
0.000168475
0.00021678
0.000296856
0.000327994
0.000319863
0.000286635
0.000235981
0.000191533
0.000160422
0.000144023
0.000136636
0.000132468
0.000129961
0.000128551
0.000127393
0.000126416
0.000125796
0.000125234
0.000125031
0.000125299
0.000114911
9.46923e-05
7.86898e-05
7.01391e-05
6.88866e-05
6.90756e-05
6.63285e-05
6.12085e-05
5.69391e-05
5.83805e-05
5.48447e-05
5.42756e-05
5.31526e-05
4.66277e-05
4.88552e-05
0.000116913
0.000116574
0.00011747
0.000119892
0.000122907
0.000126636
0.000129775
0.000134814
0.000144661
0.000164935
0.000205598
0.000286694
0.000331193
0.000326848
0.000300565
0.000250377
0.000203774
0.000168493
0.000148183
0.000138469
0.000133668
0.000130675
0.000129046
0.00012816
0.000127285
0.000126757
0.000126552
0.000126479
0.000126854
0.000113299
9.17592e-05
7.60297e-05
6.62766e-05
6.59888e-05
6.38719e-05
6.18158e-05
6.01166e-05
5.87782e-05
5.62424e-05
5.16158e-05
5.27892e-05
4.99552e-05
4.92842e-05
4.85986e-05
4.26844e-05
4.50066e-05
0.000116913
0.000116581
0.0001175
0.000119917
0.000122856
0.000126553
0.000129642
0.000134485
0.000143775
0.00016208
0.000196785
0.000275493
0.000331059
0.000333193
0.000312666
0.000264467
0.000216654
0.000177594
0.000153217
0.000140756
0.000134957
0.000131517
0.000129509
0.000128642
0.000128075
0.000127575
0.000127594
0.000127906
0.000128434
0.0001148
9.22434e-05
7.49033e-05
6.43995e-05
6.50024e-05
6.01134e-05
5.98214e-05
5.69315e-05
5.56731e-05
5.46078e-05
5.33099e-05
5.10909e-05
4.72379e-05
4.82414e-05
4.58156e-05
4.53886e-05
4.45717e-05
3.94729e-05
4.1889e-05
0.000116908
0.000116577
0.000117495
0.000119932
0.000122787
0.000126436
0.00012952
0.000134173
0.000143081
0.000159948
0.000190446
0.000263746
0.00032932
0.000338634
0.000324326
0.000277819
0.000229254
0.000187878
0.00015916
0.000143791
0.000136336
0.00013251
0.000130041
0.000129036
0.000128541
0.000128385
0.00012835
0.000129127
0.000129978
0.000119016
9.4455e-05
7.77112e-05
6.50691e-05
6.90445e-05
5.93194e-05
6.28395e-05
5.52058e-05
5.66587e-05
5.204e-05
5.21139e-05
4.9712e-05
4.90815e-05
4.67647e-05
4.35922e-05
4.43217e-05
4.23215e-05
4.21906e-05
4.13469e-05
3.69147e-05
3.94249e-05
0.000116907
0.000116567
0.000117462
0.000119954
0.000122703
0.00012628
0.000129364
0.000133868
0.000142395
0.000158673
0.00018598
0.00025147
0.00032529
0.000344921
0.000332985
0.000292084
0.000241971
0.000198456
0.000166274
0.000147423
0.000138158
0.000133452
0.000130625
0.000129313
0.000128878
0.000128878
0.000129138
0.000129861
0.000131313
0.000126914
0.000101431
8.37573e-05
7.64838e-05
9.24934e-05
6.92944e-05
9.24493e-05
6.33606e-05
8.20583e-05
5.56617e-05
7.02677e-05
4.98411e-05
5.71205e-05
4.61386e-05
4.80215e-05
4.37305e-05
4.05703e-05
4.16326e-05
3.98494e-05
3.96614e-05
3.88062e-05
3.5099e-05
3.75945e-05
0.000116915
0.000116534
0.000117373
0.000119976
0.000122627
0.000126127
0.000129196
0.000133562
0.000141727
0.000157774
0.000182509
0.000239088
0.000317907
0.000349937
0.000341108
0.000306691
0.000254612
0.000209577
0.000174083
0.000151892
0.000140163
0.000134524
0.000131239
0.000129591
0.000129133
0.000129051
0.000129738
0.000130608
0.000132241
0.000132552
0.000110582
0.000105783
0.000114563
0.000134713
0.000126541
0.000136916
0.00012294
0.000137365
0.000108949
0.000130969
8.38065e-05
0.000122724
6.05396e-05
0.000103437
4.6211e-05
6.4257e-05
4.44235e-05
3.81728e-05
4.23693e-05
3.98651e-05
3.77597e-05
3.69312e-05
3.37114e-05
3.64686e-05
0.000116949
0.000116469
0.000117207
0.000119956
0.000122569
0.000126014
0.000129026
0.000133291
0.000141146
0.000156843
0.000179485
0.000227392
0.000308687
0.000353827
0.00034871
0.000320419
0.000267427
0.000220741
0.000182839
0.000157019
0.0001428
0.000135724
0.000132064
0.000129911
0.000129253
0.000129165
0.000129871
0.000131286
0.000132929
0.000134337
0.00012477
0.000121359
0.000139441
0.000148181
0.000149893
0.000165852
0.000158062
0.00018478
0.000157076
0.000194465
0.000145383
0.000188328
0.000128798
0.00016614
0.000115861
0.000137529
6.67809e-05
0.000115964
6.69849e-05
3.75265e-05
6.3848e-05
5.65888e-05
3.65975e-05
3.6003e-05
3.30246e-05
3.62129e-05
0.00011703
0.000116361
0.000116964
0.000119857
0.000122522
0.000125944
0.000128904
0.000133035
0.000140646
0.000155639
0.000176449
0.000217122
0.000297552
0.000353142
0.000355568
0.000333508
0.000281156
0.000231925
0.000192032
0.000163076
0.000145988
0.000137275
0.000132926
0.000130273
0.000129271
0.000129167
0.000129876
0.000131534
0.00013362
0.000135145
0.000135356
0.000138178
0.000155899
0.000138228
0.000181493
0.000200845
0.000214745
0.000245624
0.00023733
0.000284869
0.000243323
0.000307415
0.000228154
0.000305523
0.000190669
0.000275471
0.000146404
0.000217648
0.000115294
0.000152805
0.000112688
4.7695e-05
0.000107832
0.000100703
3.6179e-05
4.03969e-05
3.32148e-05
3.6938e-05
0.000117297
0.000116367
0.000116777
0.000119658
0.000122429
0.000125873
0.000128874
0.000132807
0.000140209
0.000154328
0.000174067
0.000208749
0.000285075
0.000351167
0.000361225
0.000344917
0.000294475
0.000243539
0.00020153
0.000169813
0.000149898
0.000139102
0.000133817
0.000130656
0.000129293
0.00012914
0.000129707
0.000131522
0.000134018
0.000135834
0.000136613
0.000145977
0.000218748
0.000214113
0.00023922
0.000276465
0.000307025
0.000333373
0.000380625
0.000373854
0.000435759
0.000387785
0.00046298
0.000371935
0.000460753
0.000324228
0.00042927
0.000242797
0.00036469
0.000156366
0.000260542
0.000154829
9.24317e-05
0.000147248
0.000133276
3.78798e-05
7.35415e-05
3.47191e-05
3.92467e-05
0.000118206
0.00011718
0.000116991
0.000119482
0.000122288
0.000125831
0.000128843
0.000132757
0.000139738
0.000153176
0.000172443
0.000202271
0.000272264
0.000346358
0.000366881
0.00035454
0.000309262
0.000255503
0.00021136
0.000177057
0.000154372
0.000141396
0.000134788
0.000131235
0.000129347
0.000129073
0.000129467
0.000131301
0.000134093
0.00013661
0.000136616
0.000143873
0.000229544
0.000378215
0.000398399
0.000334837
0.000360298
0.000422865
0.000460342
0.000489008
0.000532896
0.000526068
0.000577313
0.000536159
0.00059599
0.000519748
0.000591254
0.000474786
0.000563568
0.000393099
0.000506685
0.000267902
0.000408606
0.000263543
0.000114425
0.000246424
0.000216492
5.20269e-05
9.4348e-05
3.89059e-05
4.72247e-05
0.000120795
0.000121247
0.000118504
0.000119659
0.00012222
0.000125798
0.000128857
0.00013274
0.000139636
0.000152141
0.000170936
0.000197447
0.0002597
0.000337833
0.000371499
0.000362287
0.000325305
0.000267868
0.000221427
0.000184962
0.00015932
0.00014427
0.000136016
0.000132012
0.000129498
0.00012891
0.000129171
0.000130858
0.000133904
0.000137195
0.000136758
0.000140659
0.000224158
0.000406897
0.000419072
0.000532496
0.000545902
0.000490851
0.000514997
0.000568148
0.000597286
0.000616925
0.000646747
0.000639769
0.00067094
0.000642755
0.000676824
0.000627779
0.000669758
0.000592299
0.000650628
0.00052543
0.000608885
0.000411693
0.000531696
0.00040312
0.000177976
0.000380581
0.000340842
8.07568e-05
0.000135114
5.10407e-05
7.48875e-05
0.000131316
0.00013295
0.000124767
0.000121108
0.000122498
0.00012586
0.000128911
0.000132801
0.000139685
0.000151361
0.0001694
0.000193819
0.000247762
0.00032732
0.000372627
0.000369918
0.00033883
0.000281451
0.000231821
0.000193227
0.000165026
0.000147523
0.000137842
0.000132786
0.000129836
0.000128727
0.000128852
0.000130195
0.000133409
0.000137424
0.000137289
0.000137035
0.000223633
0.000420229
0.000407218
0.000554604
0.000558471
0.000644462
0.000650877
0.000618419
0.000633552
0.000668348
0.000684695
0.000690926
0.000703263
0.00069377
0.000697896
0.000686421
0.000682734
0.000676193
0.000671415
0.000659167
0.000666806
0.000615694
0.000658927
0.00052859
0.000614303
0.00051595
0.000284443
0.000491706
0.000453339
9.69645e-05
0.000215194
8.60787e-05
7.79283e-05
0.000137688
0.000151016
0.000142612
0.000127586
0.00012397
0.000126258
0.000129212
0.000132932
0.000139863
0.000150926
0.000167916
0.000191283
0.000237314
0.000315097
0.000371364
0.000374891
0.000353019
0.000295602
0.000242714
0.000201888
0.000171253
0.000151383
0.000139856
0.000133689
0.000130433
0.000128672
0.000128584
0.000129438
0.000132538
0.00013707
0.000138468
0.000134264
0.000220783
0.000493005
0.000563432
0.00057663
0.000655521
0.000657006
0.000707206
0.000710913
0.000695227
0.000702224
0.000708634
0.000713715
0.000694273
0.000688711
0.000669266
0.000652994
0.000650814
0.000624145
0.000645668
0.000610889
0.000651526
0.000615675
0.000653867
0.000636792
0.000606706
0.000647279
0.00059312
0.000397303
0.000571928
0.000539929
0.000145196
0.000317547
6.5586e-05
9.45548e-05
0.000150302
0.000162448
0.000144513
0.0001298
0.000127772
0.000129997
0.000133335
0.000140175
0.000150894
0.000166695
0.000189445
0.000228606
0.000302096
0.000367781
0.000378951
0.000363887
0.000309053
0.000254316
0.000210796
0.000178018
0.000155604
0.000142433
0.000134949
0.000131187
0.000128817
0.000128289
0.000128802
0.000131345
0.000135932
0.000139228
0.000131979
0.000213797
0.000479651
0.000647414
0.000640212
0.000655629
0.00065392
0.000711672
0.000710887
0.000717208
0.000718332
0.000714633
0.000715871
0.000680952
0.00067787
0.000636936
0.000623124
0.000597688
0.000574248
0.000573753
0.000540094
0.000570478
0.000525579
0.000590135
0.000532736
0.000625669
0.000570243
0.000639971
0.000618686
0.000629628
0.00049134
0.00061761
0.000598049
0.000221234
0.000417778
4.4274e-05
0.000131316
0.000154011
0.000167127
0.000145089
0.000132044
0.000131263
0.000133938
0.0001408
0.000150958
0.000165817
0.000187911
0.000221657
0.000288925
0.000360434
0.000383438
0.000371787
0.000325042
0.000266149
0.000220144
0.000185181
0.000160496
0.000145273
0.000136794
0.000131965
0.000129286
0.000128047
0.000128289
0.000130164
0.000134619
0.000138721
0.000129265
0.000202985
0.000455932
0.000635547
0.000615734
0.000701693
0.000697747
0.000708861
0.000706229
0.000719721
0.000721135
0.000672445
0.000675183
0.000674654
0.000672053
0.000611746
0.000606364
0.000556518
0.000545067
0.00051586
0.000502337
0.000489524
0.000471044
0.00048106
0.000448452
0.000499863
0.000442778
0.000558059
0.000474942
0.000615734
0.000552765
0.00061593
0.000562897
0.000618846
0.000617847
0.000313765
0.000504313
4.17229e-05
0.000180131
0.000160555
0.000168737
0.000143319
0.000134067
0.000134961
0.000141064
0.000151193
0.000165267
0.000186438
0.000216388
0.000276224
0.000350604
0.000384566
0.000378739
0.000340618
0.00027921
0.000229802
0.000192888
0.000165692
0.00014869
0.00013867
0.000133074
0.000129984
0.000128129
0.000127816
0.000129039
0.000133103
0.000137265
0.000126782
0.000187931
0.000431117
0.000648321
0.000689748
0.000696277
0.000723839
0.000724835
0.000722297
0.000723365
0.000680244
0.00068693
0.000600806
0.000605495
0.000601813
0.000599416
0.000537624
0.000536006
0.000498437
0.000500886
0.000470973
0.00048518
0.000442843
0.000465555
0.000416722
0.000431507
0.000412792
0.00039437
0.000459728
0.000388658
0.000554273
0.000449404
0.000503748
0.000595991
0.000557938
0.000575531
0.000605456
0.000604676
0.000573001
0.000564803
0.0005817
0.000611592
0.000591112
0.000410913
0.000593985
0.000577379
0.000523291
4.10405e-05
0.000209167
0.000169521
0.000166882
0.000139938
0.000136542
0.000141644
0.0001518
0.000165172
0.000185167
0.000212483
0.000264603
0.000338801
0.000383834
0.000383573
0.00035428
0.000292907
0.000240278
0.00020062
0.000171833
0.000152182
0.000141088
0.000134541
0.000130703
0.000128625
0.000127547
0.000128071
0.000131211
0.000135009
0.000124495
0.000171976
0.000409536
0.000634663
0.000728926
0.000723836
0.000724408
0.000727552
0.0007116
0.00072056
0.000694636
0.000703001
0.000613773
0.000625196
0.000533636
0.000537608
0.000533748
0.000532809
0.000507779
0.000511137
0.000505916
0.000528538
0.000504648
0.000540573
0.000482135
0.000528282
0.000431474
0.000489816
0.000375322
0.0004029
0.000432267
0.000407798
0.000371114
0.000361801
0.0003583
0.000450099
0.000512645
0.000453584
0.000402144
0.000519381
0.000611144
0.00054186
0.000529804
0.000554932
0.000600435
0.000568395
0.00055353
0.000352182
0.000471282
0.000606649
0.00059661
9.67659e-05
0.000349903
0.000251584
0.00015965
0.000178048
0.000155207
0.000140235
0.000141927
0.000152198
0.000165208
0.000184155
0.000209705
0.00025448
0.000326056
0.00038122
0.000386227
0.000367037
0.000307612
0.000251134
0.000209159
0.000177719
0.000156661
0.000143602
0.000136207
0.000131747
0.000129322
0.000127852
0.000127436
0.000129447
0.000132029
0.000121591
0.000159928
0.000391491
0.000625938
0.000756215
0.000753478
0.000765702
0.000730045
0.000739704
0.000672648
0.000690864
0.000639357
0.00065541
0.000544697
0.000555302
0.000513231
0.000509292
0.000513925
0.000516068
0.000547285
0.000559621
0.000564634
0.000574678
0.000555623
0.000569202
0.000526829
0.00054514
0.000455943
0.000485249
0.000498775
0.000514919
0.000382562
0.000414371
0.00042424
0.000450607
0.000366297
0.000348315
0.000371653
0.000351363
0.000402427
0.000463809
0.000406807
0.000362602
0.000473871
0.000606567
0.000486996
0.000502268
0.000519302
0.000581293
0.000537183
0.000562575
0.000464998
0.000609233
0.0006066
0.000165687
4.51471e-05
0.000141471
0.000375406
0.000283553
0.000178081
0.000147886
0.000143003
0.000152128
0.000165332
0.000183608
0.000207854
0.00024616
0.00031304
0.000375107
0.000388036
0.000375532
0.00032122
0.000263288
0.000217754
0.000184813
0.000160815
0.000146574
0.000138184
0.000133156
0.000130073
0.00012854
0.000127603
0.000128232
0.000128902
0.000118843
0.000154405
0.000375195
0.000625283
0.00077021
0.000794591
0.000813617
0.000751937
0.000774511
0.000710736
0.000731283
0.000616576
0.000644242
0.000571374
0.000592336
0.00050628
0.000506588
0.000566891
0.000555127
0.000567397
0.000570146
0.000580881
0.000584655
0.000573641
0.000572873
0.000550142
0.000547567
0.000519203
0.000523863
0.000522879
0.000521975
0.000474026
0.000490788
0.000501219
0.000506044
0.000399071
0.000425823
0.000439032
0.000462084
0.000340753
0.0003404
0.000385007
0.000358503
0.000361959
0.000414356
0.000364307
0.000334505
0.000425255
0.000592244
0.000439846
0.000457296
0.000477286
0.00055479
0.000498815
0.000544557
0.000481252
0.000600871
0.000597102
0.000156401
0.000155948
0.000180942
0.000401989
0.000255837
0.000167452
0.00014711
0.000150766
0.00016524
0.000183334
0.000206691
0.000239725
0.00030055
0.000366043
0.000388321
0.00038141
0.000336658
0.000275503
0.000227471
0.000191399
0.000166428
0.000149152
0.000140358
0.000134805
0.000131343
0.000129236
0.000128238
0.000127702
0.000126836
0.000116829
0.00015398
0.000365663
0.00062598
0.000781516
0.00086175
0.000798512
0.000828943
0.000733207
0.000765967
0.000673674
0.000702522
0.000556351
0.00059036
0.000514149
0.00053071
0.00053557
0.000514272
0.000600797
0.000601705
0.00059053
0.00059643
0.0005712
0.000573473
0.000542868
0.000536832
0.000520136
0.000518161
0.000516276
0.000512687
0.000507072
0.000505813
0.000503761
0.000501819
0.000478155
0.00048749
0.000490933
0.000490544
0.000410686
0.00044799
0.000432573
0.000463969
0.000329752
0.000344782
0.000394535
0.000369721
0.000330491
0.000369527
0.000330174
0.000319903
0.000378658
0.00057026
0.000392348
0.000410228
0.000431692
0.000520522
0.000455451
0.00055621
0.000521558
0.000582688
0.000591578
0.000143303
0.000287869
0.0001844
0.000419068
0.000247955
0.000160139
0.000151531
0.000164636
0.000182885
0.000206307
0.000235065
0.000289123
0.000355523
0.000387838
0.000384699
0.00035057
0.00028852
0.00023714
0.000199405
0.000171188
0.000153346
0.000142073
0.000136665
0.000132882
0.000130473
0.00012873
0.000127566
0.000124938
0.000112369
0.000156583
0.000366655
0.000624721
0.000785914
0.00089456
0.000849781
0.000881477
0.000783677
0.000820143
0.000702866
0.000743187
0.00062587
0.000663181
0.00050972
0.000541154
0.000498355
0.000496041
0.000593687
0.000569667
0.000610122
0.000622165
0.000580658
0.000594032
0.000531851
0.000532281
0.000501645
0.0004958
0.000500435
0.000499656
0.000498987
0.000498339
0.000488115
0.00048526
0.000482963
0.000481648
0.000472428
0.000475136
0.000473614
0.000470147
0.000415752
0.00044829
0.000431442
0.000456484
0.000330755
0.000353616
0.000397994
0.000377492
0.000311948
0.000333118
0.000306965
0.000316941
0.000339859
0.000540319
0.000350292
0.00036516
0.000385349
0.000480157
0.000409636
0.000589908
0.000582192
0.000556415
0.000568072
0.000144087
0.000312166
0.000209729
0.000458231
0.000238908
0.000159491
0.000162448
0.000182432
0.000205492
0.000232581
0.000279232
0.000344364
0.000385279
0.000386662
0.000361626
0.000301791
0.000247673
0.000207171
0.000177284
0.000156678
0.000144957
0.000138129
0.000134702
0.000132434
0.000129982
0.000127546
0.000120969
0.000107315
0.000165084
0.000372645
0.000621089
0.000784472
0.000919107
0.000908063
0.000823298
0.000849044
0.000755725
0.000793415
0.000667632
0.000712696
0.00057829
0.000621681
0.0004922
0.000509358
0.000534961
0.000503481
0.000624663
0.00061465
0.000600036
0.000629003
0.000544417
0.000568052
0.000492889
0.000499276
0.000481293
0.00047853
0.000476921
0.000478312
0.000481336
0.000481869
0.000481897
0.00048173
0.000466437
0.000463553
0.000461997
0.000461834
0.000458683
0.00045639
0.000451944
0.000447303
0.000413631
0.000439924
0.000422376
0.000441707
0.000337033
0.000359845
0.000395062
0.000379541
0.000304172
0.000305499
0.000294189
0.000320304
0.000308788
0.000503441
0.000316118
0.00032717
0.000342739
0.000435528
0.000364213
0.000575637
0.00057965
0.00052294
0.000537218
0.000150106
0.00033267
0.000235668
0.000531717
0.000239675
0.000165522
0.000179977
0.00020514
0.000230754
0.000271881
0.000333157
0.000380662
0.000386492
0.000370526
0.000314887
0.000258606
0.000215721
0.000183448
0.000161053
0.000147387
0.000139895
0.000136307
0.000134595
0.000132614
0.000127832
0.000114644
0.000107956
0.000184483
0.000391267
0.000623632
0.000778133
0.000941275
0.000954126
0.00079422
0.000816321
0.000769537
0.000781215
0.000719338
0.000747253
0.000634412
0.000680074
0.000542199
0.000585109
0.000505257
0.000498563
0.000585117
0.000542839
0.000645057
0.000643918
0.000601128
0.00064078
0.000516825
0.000555115
0.000476621
0.000478506
0.000486268
0.00046718
0.000466978
0.000466681
0.000466355
0.000462891
0.000464764
0.000465677
0.000466882
0.000443594
0.000441439
0.000440956
0.000441985
0.000438876
0.00043359
0.000427879
0.000423108
0.000404104
0.000424288
0.000406373
0.000421142
0.000341694
0.00036081
0.000385248
0.000375677
0.000304102
0.000288013
0.00028969
0.000323215
0.000286253
0.000460847
0.000288856
0.000296042
0.000307436
0.000389978
0.00032371
0.000546893
0.000554828
0.000482457
0.000498786
0.000150595
0.000183736
0.000204673
0.000557124
0.00027987
0.000181127
0.000203584
0.000230409
0.000266023
0.000323394
0.000374005
0.000385319
0.00037538
0.000326479
0.000269739
0.000224282
0.000190442
0.00016546
0.000149827
0.000141607
0.000137931
0.00013663
0.000135301
0.000129023
0.000106959
0.000119812
0.00022878
0.000437821
0.000634453
0.000772635
0.00095371
0.00099903
0.000801461
0.000667957
0.000668279
0.000681515
0.000671753
0.000674631
0.000687743
0.000605571
0.000646
0.000521958
0.000556969
0.000534965
0.000508845
0.000623379
0.000582812
0.000663151
0.000665641
0.000534613
0.000593936
0.000521123
0.000524417
0.000468845
0.000472906
0.0004832
0.000503173
0.000453323
0.000454057
0.000455979
0.000454653
0.000444641
0.000447502
0.000449253
0.000451953
0.000419926
0.000418655
0.000419257
0.000421319
0.000415096
0.000408327
0.000402214
0.000397756
0.000387949
0.000403193
0.000384994
0.000396567
0.000341682
0.000356226
0.000369092
0.00036553
0.000304969
0.000278539
0.000287968
0.000322119
0.000271512
0.000415821
0.000268502
0.000270689
0.00027827
0.000346312
0.000290369
0.000512006
0.000529085
0.000439433
0.000459345
0.000204804
0.000140891
0.000180804
0.000543292
0.000314044
0.000204958
0.000229618
0.000263185
0.000314161
0.00036718
0.000382691
0.000378358
0.00033713
0.000280857
0.000233261
0.000197555
0.00017091
0.00015237
0.000143144
0.000139614
0.000138791
0.000138016
0.000129919
0.000106686
0.000152877
0.000301818
0.000497884
0.000650188
0.000779619
0.000960901
0.00103841
0.000877868
0.000503984
0.000544645
0.000496674
0.000489985
0.000563187
0.000523051
0.000623901
0.000604184
0.000579369
0.000609315
0.000512274
0.000538723
0.000562987
0.000524058
0.000649041
0.000611629
0.000658101
0.00068356
0.000441438
0.000503866
0.00048421
0.000447404
0.000410264
0.000461244
0.000470668
0.000486547
0.000452538
0.000439198
0.000441381
0.000446673
0.000443335
0.000425577
0.000428859
0.000432479
0.000436426
0.000395119
0.000394496
0.000395806
0.00039915
0.000388729
0.000381259
0.000375021
0.000370449
0.000366464
0.000378004
0.00035938
0.000369214
0.000336464
0.00034579
0.000347536
0.000349551
0.000302786
0.000273202
0.000284624
0.000316379
0.000261801
0.000372423
0.000253951
0.000250957
0.0002543
0.000308218
0.000263591
0.000479235
0.000508096
0.000398498
0.000422425
0.000297168
0.000164426