/*--------------------------------*- C++ -*----------------------------------*\
  =========                 |
  \\      /  F ield         | OpenFOAM: The Open Source CFD Toolbox
   \\    /   O peration     | Website:  https://openfoam.org
    \\  /    A nd           | Version:  dev
     \\/     M anipulation  |
\*---------------------------------------------------------------------------*/
FoamFile
{
    version     2.0;
    format      ascii;
    class       volScalarField;
    location    "2500";
    object      CO2;
}
// * * * * * * * * * * * * * * * * * * * * * * * * * * * * * * * * * * * * * //

dimensions      [0 0 0 0 0 0 0];

internalField   nonuniform List<scalar> 
9844
(
5.25351e-33
2.09943e-32
1.18227e-32
5.21526e-32
4.87885e-32
1.13839e-32
1.19299e-31
1.40009e-31
5.70911e-32
3.90476e-33
2.11905e-31
4.07974e-31
1.84291e-31
3.40974e-32
1.17319e-33
9.55961e-31
1.47345e-30
6.41552e-31
1.89255e-31
1.80892e-32
1.46047e-33
3.19083e-30
3.97644e-30
2.25338e-30
5.49947e-31
1.375e-31
1.37508e-32
2.8026e-34
8.47917e-30
1.11837e-29
6.69381e-30
2.53362e-30
4.02507e-31
7.26735e-32
4.54562e-33
1.97639e-34
1.97383e-29
3.61791e-29
1.88153e-29
7.80022e-30
1.77076e-30
3.68203e-31
4.03619e-32
2.00101e-33
5.37022e-35
7.65822e-29
1.20388e-28
7.57116e-29
2.96658e-29
8.33403e-30
1.42727e-30
1.91812e-31
2.3408e-32
1.05624e-33
4.05169e-35
1.75821e-28
3.28035e-28
2.00809e-28
1.00674e-28
3.0334e-29
6.65433e-30
9.91349e-31
1.23234e-31
8.60016e-33
4.80361e-34
4.89743e-36
3.14249e-28
8.26582e-28
6.96723e-28
3.1654e-28
9.95969e-29
2.5757e-29
4.74877e-30
4.75666e-31
3.57334e-32
3.62279e-33
1.24675e-34
1.07884e-36
2.19157e-28
1.78907e-27
1.99495e-27
8.93856e-28
3.72731e-28
9.3445e-29
2.10975e-29
2.46694e-30
2.14533e-31
1.59971e-32
1.1884e-33
3.57233e-35
9.14883e-37
6.25737e-28
3.18726e-27
5.22608e-27
3.05812e-27
1.1868e-27
3.4407e-28
7.34727e-29
1.37125e-29
1.45317e-30
1.51604e-31
6.21401e-33
3.96543e-34
1.19299e-35
1.15227e-36
1.9522e-27
9.69092e-27
1.32525e-26
8.77791e-27
3.88005e-27
1.12285e-27
2.07109e-28
3.6813e-29
7.52844e-30
8.35963e-31
6.82062e-32
2.79497e-33
1.08829e-34
1.40298e-35
8.89157e-36
1.63029e-26
2.31887e-26
4.3418e-26
2.79961e-26
1.30128e-26
3.95928e-27
7.87674e-28
1.23677e-28
2.32393e-29
3.48844e-30
3.04523e-31
2.26971e-32
1.16519e-33
1.31228e-34
1.54387e-34
2.1357e-34
9.80833e-26
9.15121e-26
1.37198e-25
8.22512e-26
3.84046e-26
1.24692e-26
3.38476e-27
5.04405e-28
8.83033e-29
1.21194e-29
1.92441e-30
1.28714e-31
7.26149e-33
6.84259e-34
9.90801e-34
1.35808e-33
2.33795e-33
1.98164e-25
5.03959e-25
4.05891e-25
3.20328e-25
1.27622e-25
3.77307e-26
1.13722e-26
2.62336e-27
3.60824e-28
4.96177e-29
6.78284e-30
6.4395e-31
5.06836e-32
4.84366e-33
7.0857e-33
1.32812e-32
2.38268e-32
2.32221e-32
1.52563e-25
1.21933e-24
1.33248e-24
8.12576e-25
4.55122e-25
1.2799e-25
3.98426e-26
9.70769e-27
1.3219e-27
1.54924e-28
2.23092e-29
3.03174e-30
2.20369e-31
3.51986e-32
4.46048e-32
9.6489e-32
1.60731e-31
3.19812e-31
8.48092e-32
6.01926e-25
2.48181e-24
3.8512e-24
3.26345e-24
1.88901e-24
5.46098e-25
1.27524e-25
3.81376e-26
5.59282e-27
6.68408e-28
1.03589e-28
1.13205e-29
9.50083e-31
1.64521e-31
2.0612e-31
6.05511e-31
1.13337e-30
2.15826e-30
2.86816e-30
9.50095e-31
5.27369e-25
3.71911e-24
7.46282e-24
8.91578e-24
4.24301e-24
2.36998e-24
6.33185e-25
1.40621e-25
3.00252e-26
3.40094e-27
3.30341e-28
3.511e-29
5.73313e-30
6.92135e-31
7.40282e-31
2.8883e-30
6.34738e-30
9.99361e-30
1.87413e-29
2.59119e-29
1.77866e-29
5.29554e-25
5.42015e-24
9.10457e-24
1.9673e-23
1.53548e-23
6.50922e-24
2.27485e-24
5.74786e-25
1.19093e-25
2.09806e-26
1.74901e-27
1.43795e-28
1.72079e-29
3.19505e-30
3.35539e-30
8.72432e-30
3.15427e-29
5.97877e-29
9.09998e-29
1.62269e-28
2.22219e-28
2.08081e-28
1.24262e-24
5.17139e-24
1.64272e-23
2.80546e-23
3.81918e-23
1.73887e-23
5.69512e-24
2.04957e-24
4.20393e-25
8.55262e-26
1.36545e-26
9.019e-28
7.57514e-29
1.19063e-29
1.08067e-29
4.39331e-29
1.29712e-28
2.94124e-28
5.51166e-28
8.04073e-28
1.42097e-27
1.93913e-27
2.23177e-27
6.2586e-24
1.06601e-23
4.30366e-23
6.63873e-23
8.35918e-23
5.84056e-23
1.60843e-23
5.6318e-24
1.7577e-24
3.05706e-25
5.22389e-26
5.51439e-27
5.49674e-28
4.57721e-29
3.4315e-29
1.24311e-28
4.92337e-28
1.41659e-27
3.09502e-27
4.41565e-27
5.24578e-27
2.09302e-26
3.07229e-26
2.17955e-26
3.187e-24
4.16388e-23
8.37919e-23
1.06627e-22
1.51953e-22
1.33152e-22
5.80496e-23
1.56586e-23
5.04942e-24
1.12036e-24
1.45157e-25
3.21376e-26
3.11546e-27
1.96456e-28
9.79435e-29
4.02468e-28
1.58696e-27
5.64946e-27
1.21101e-26
2.9047e-26
3.39948e-26
7.57299e-26
2.63153e-25
3.49801e-25
1.15431e-25
3.0622e-24
6.05132e-23
1.52191e-22
2.11443e-22
3.10103e-22
2.48151e-22
1.58044e-22
5.42527e-23
1.46747e-23
2.74022e-24
5.79458e-25
9.45186e-26
1.52171e-26
1.4257e-27
2.58152e-28
8.71238e-28
3.93016e-27
1.76776e-26
5.78109e-26
1.34704e-25
3.23091e-25
5.03725e-25
1.60129e-24
3.2012e-24
3.22953e-24
1.54316e-24
2.21769e-24
6.39405e-23
1.82812e-22
3.86375e-22
4.9984e-22
5.00472e-22
3.12914e-22
1.46155e-22
4.44205e-23
9.19058e-24
1.65651e-24
2.72255e-25
5.11226e-26
5.78465e-27
7.48136e-28
1.60678e-27
9.48168e-27
3.92849e-26
1.82096e-25
5.10166e-25
1.5114e-24
3.32895e-24
1.26154e-23
2.75305e-23
3.67036e-23
4.48199e-23
1.9055e-23
1.61274e-24
4.57731e-23
2.29093e-22
5.35855e-22
7.18281e-22
8.43306e-22
7.28751e-22
3.33917e-22
1.21135e-22
3.69243e-23
6.49124e-24
1.06808e-24
1.925e-25
1.92076e-26
3.07129e-27
5.21705e-27
2.12574e-26
1.1323e-25
4.8657e-25
1.65696e-24
5.68995e-24
1.86691e-23
8.59042e-23
3.28344e-22
4.31283e-22
7.64457e-22
5.48722e-22
2.49106e-22
3.00982e-24
3.35929e-23
1.33142e-22
5.57909e-22
1.23854e-21
1.32089e-21
1.37202e-21
7.67444e-22
2.4242e-22
9.72002e-23
2.35875e-23
3.53283e-24
6.71681e-25
9.65703e-26
8.94918e-27
1.32969e-26
6.00259e-26
3.00185e-25
1.09682e-24
3.87586e-24
1.61994e-23
8.24116e-23
4.39043e-22
2.81149e-21
7.91957e-21
9.16095e-21
1.41814e-20
8.00977e-21
3.73797e-21
4.17382e-24
1.62827e-23
1.52507e-22
6.61314e-22
1.2968e-21
2.1549e-21
2.25414e-21
1.55163e-21
6.70832e-22
2.08513e-22
6.56769e-23
1.52097e-23
2.11472e-24
3.5177e-25
5.36091e-26
3.57524e-26
1.73706e-25
7.45595e-25
3.12362e-24
1.71163e-23
6.54846e-23
3.92512e-22
2.35863e-21
1.63365e-20
7.76161e-20
1.65571e-19
1.7891e-19
2.19049e-19
1.27042e-19
3.28845e-20
1.63904e-23
3.7125e-23
9.68803e-23
5.57224e-22
1.77765e-21
3.6458e-21
3.13884e-21
2.70806e-21
1.51647e-21
5.12765e-22
1.55066e-22
3.96997e-23
7.63322e-24
1.26377e-24
1.48253e-25
9.93565e-26
4.35575e-25
1.99435e-24
9.8858e-24
3.69096e-23
2.19441e-22
1.76691e-21
1.33301e-20
9.44618e-20
4.68411e-19
1.86682e-18
2.75258e-18
3.43106e-18
2.54497e-18
1.41062e-18
4.06558e-19
3.2309e-23
1.04579e-22
2.49951e-22
4.72625e-22
2.37347e-21
4.61248e-21
4.89019e-21
5.31668e-21
2.93691e-21
1.19258e-21
3.12156e-22
9.98708e-23
2.25472e-23
3.22087e-24
5.66778e-25
1.79485e-25
1.03174e-24
4.43055e-24
2.45401e-23
1.00267e-22
4.95499e-22
4.70117e-21
7.67508e-20
7.36434e-19
3.71001e-18
1.26263e-17
3.48772e-17
4.91567e-17
4.7162e-17
3.49311e-17
1.24966e-17
1.85658e-18
1.29874e-22
2.37621e-22
4.96705e-22
7.75267e-22
2.17919e-21
5.25587e-21
6.71473e-21
7.86712e-21
5.46357e-21
2.63782e-21
8.82092e-22
2.27824e-22
4.78219e-23
1.16438e-23
1.15137e-24
4.40546e-25
2.0967e-24
1.14527e-23
5.37054e-23
2.40046e-22
1.18231e-21
1.55185e-20
2.2908e-19
3.66073e-18
2.51398e-17
1.08207e-16
2.76934e-16
4.80607e-16
6.09171e-16
5.94214e-16
2.96354e-16
7.56639e-17
1.17287e-17
4.46236e-22
7.92535e-22
8.80923e-22
1.80913e-21
3.03032e-21
6.9222e-21
1.06562e-20
1.09806e-20
9.43808e-21
4.83027e-21
1.81335e-21
5.34176e-22
1.49461e-22
2.97295e-23
4.34517e-24
1.23551e-24
4.14972e-24
2.67055e-23
1.11356e-22
6.81124e-22
3.02099e-21
3.19942e-20
6.24726e-19
1.06623e-17
1.47088e-16
5.95309e-16
2.09443e-15
5.78297e-15
9.81606e-15
1.02393e-14
6.18383e-15
2.1255e-15
4.25626e-16
8.94889e-18
1.20334e-16
8.02889e-22
3.27759e-21
2.32824e-21
3.9826e-21
5.16143e-21
8.43752e-21
1.12403e-20
1.44144e-20
1.29863e-20
9.10244e-21
3.61966e-21
1.10595e-21
3.37486e-22
8.54095e-23
1.60316e-23
3.34058e-24
6.48618e-24
5.32928e-23
2.56169e-22
1.56164e-21
6.98013e-21
5.55462e-20
1.53948e-18
3.42051e-17
5.07394e-16
3.5558e-15
1.52268e-14
5.53861e-14
1.32915e-13
1.88225e-13
1.53068e-13
7.30251e-14
1.25629e-14
8.96965e-16
1.03299e-14
4.8854e-17
5.18419e-16
6.82991e-21
1.03754e-20
1.12933e-20
9.81154e-21
7.80667e-21
1.0733e-20
1.52513e-20
2.17651e-20
2.34616e-20
1.59623e-20
7.22582e-21
2.81857e-21
7.42576e-22
1.81727e-22
4.47611e-23
9.73928e-24
1.19621e-23
1.04038e-22
5.73383e-22
2.58272e-21
1.5649e-20
1.14476e-19
2.20443e-18
7.4879e-17
1.67934e-15
1.9029e-14
9.70361e-14
4.33273e-13
1.36915e-12
2.75522e-12
3.2193e-12
2.06289e-12
2.3059e-13
1.34561e-12
9.90325e-14
1.12503e-12
1.00597e-12
6.64996e-15
7.56526e-14
1.97381e-16
3.41244e-15
3.1171e-20
3.29566e-20
3.46882e-20
2.75247e-20
1.67618e-20
1.96776e-20
2.10258e-20
2.50996e-20
3.29544e-20
2.60263e-20
1.51727e-20
5.5964e-21
1.82155e-21
4.75317e-22
1.12326e-22
2.6652e-23
3.65613e-23
1.60564e-22
1.22986e-21
5.50286e-21
2.99269e-20
1.97723e-19
3.50956e-18
9.94129e-17
3.4623e-15
7.52039e-14
4.32996e-13
2.52905e-12
1.06689e-11
2.94774e-11
5.08585e-11
5.18044e-11
6.61871e-12
4.07202e-11
7.99278e-12
8.21547e-13
8.60507e-12
8.16714e-12
4.75147e-14
5.83614e-13
1.00552e-15
2.44976e-14
1.15954e-19
1.87125e-19
1.64286e-19
1.10045e-19
4.89944e-20
3.84336e-20
2.99959e-20
3.47235e-20
4.46416e-20
3.93019e-20
2.41367e-20
1.12014e-20
3.6089e-21
1.01495e-21
2.4852e-22
7.09569e-23
7.49902e-23
2.79162e-22
1.8683e-21
1.00082e-20
4.53138e-20
2.95462e-19
5.59413e-18
1.5868e-16
4.24177e-15
1.34782e-13
2.44173e-12
1.03121e-11
5.88339e-11
2.29278e-10
5.65889e-10
8.6568e-10
2.14847e-10
1.05308e-09
5.60523e-11
3.51297e-10
6.9182e-11
6.52661e-12
7.35241e-11
6.61696e-11
3.58247e-13
4.50076e-12
7.28892e-15
1.80509e-13
5.9313e-19
8.25783e-19
6.14466e-19
4.04324e-19
1.82749e-19
8.96481e-20
6.05241e-20
6.02079e-20
7.02813e-20
5.84292e-20
3.94287e-20
2.04706e-20
7.03557e-21
1.97555e-21
6.14242e-22
1.75484e-22
1.79003e-22
5.96765e-22
3.10196e-21
2.09729e-20
9.74108e-20
5.45919e-19
7.01043e-18
2.4105e-16
7.4308e-15
1.62228e-13
3.16511e-12
4.31625e-11
2.28487e-10
1.24402e-09
4.32608e-09
9.81313e-09
4.35533e-09
1.65018e-08
1.89754e-09
8.87656e-09
4.84158e-10
2.97846e-09
5.86867e-10
5.12079e-11
6.01117e-10
5.25325e-10
2.68906e-12
3.41829e-11
5.3917e-14
1.33183e-12
2.43396e-18
4.62368e-18
2.60699e-18
1.99863e-18
9.42168e-19
3.87323e-19
1.73776e-19
1.13799e-19
9.99511e-20
8.63427e-20
5.99614e-20
3.36864e-20
1.34664e-20
3.86252e-21
1.20498e-21
4.34695e-22
3.96518e-22
1.44311e-21
5.07636e-21
3.7534e-20
1.87264e-19
1.08144e-18
9.48056e-18
2.61335e-16
1.05723e-14
3.23185e-13
4.76947e-12
6.89299e-11
9.11262e-10
4.64708e-09
2.31487e-08
7.09719e-08
5.27636e-08
1.62488e-07
3.62805e-08
1.29862e-07
1.56317e-08
7.03536e-08
4.03168e-09
2.39942e-08
4.76301e-09
3.93063e-10
4.76072e-09
4.04871e-09
1.98035e-11
2.52848e-10
3.99205e-13
9.61427e-12
2.49826e-17
2.8251e-17
1.8848e-17
1.01588e-17
4.01256e-18
1.53921e-18
4.87449e-19
2.08833e-19
1.55775e-19
1.29723e-19
9.30235e-20
5.37339e-20
2.51017e-20
8.40482e-21
2.63707e-21
8.62546e-22
8.84692e-22
2.30242e-21
1.28618e-20
6.74417e-20
4.36601e-19
1.83473e-18
1.08957e-17
2.50476e-16
1.06874e-14
4.23793e-13
1.24387e-11
1.27698e-10
1.42376e-09
1.71962e-08
8.32409e-08
3.73559e-07
4.36542e-07
1.10054e-06
4.14689e-07
1.18074e-06
2.74585e-07
9.33929e-07
1.20808e-07
5.15464e-07
3.19096e-08
1.81101e-07
3.69111e-08
2.92829e-09
3.61834e-08
3.00889e-08
1.41127e-10
1.80537e-09
2.93737e-12
6.74254e-11
1.15182e-16
1.57223e-16
1.11336e-16
4.47234e-17
1.93871e-17
6.96676e-18
2.21062e-18
6.6019e-19
2.86862e-19
1.9046e-19
1.47845e-19
8.8515e-20
4.33411e-20
1.59647e-20
5.6266e-21
2.21782e-21
2.32537e-21
6.09699e-21
2.06441e-20
1.20059e-19
7.40698e-19
3.14312e-18
1.83046e-17
2.22696e-16
9.36275e-15
4.15661e-13
1.48705e-11
3.7039e-10
3.01132e-09
2.57714e-08
2.74579e-07
1.28349e-06
2.45899e-06
5.33615e-06
3.05058e-06
7.14779e-06
2.8085e-06
7.41657e-06
1.88849e-06
5.94569e-06
8.60706e-07
3.39697e-06
2.37222e-07
1.25772e-06
2.69485e-07
2.10355e-08
2.61267e-07
2.13669e-07
9.70134e-10
1.24139e-08
2.11199e-11
4.54338e-10
3.7235e-16
7.4324e-16
5.40644e-16
2.46816e-16
9.74848e-17
3.26728e-17
8.50386e-18
2.34068e-18
8.12453e-19
3.57656e-19
2.24166e-19
1.42541e-19
7.38879e-20
3.02538e-20
1.15712e-20
5.55875e-21
5.16014e-21
1.54035e-20
5.01262e-20
1.95158e-19
1.2521e-18
6.24599e-18
2.87165e-17
2.33758e-16
6.59936e-15
3.38571e-13
1.38489e-11
4.18016e-10
6.23788e-09
4.47317e-08
3.96437e-07
3.51037e-06
8.9916e-06
1.53938e-05
1.46687e-05
2.68178e-05
1.73304e-05
3.61884e-05
1.60015e-05
3.75432e-05
1.11576e-05
3.05475e-05
5.45936e-06
1.86309e-05
1.62041e-06
7.6855e-06
1.81805e-06
1.45017e-07
1.75381e-06
1.42559e-06
6.39285e-09
8.19812e-08
1.45683e-10
2.90372e-09
2.03799e-15
3.33156e-15
2.09378e-15
1.33345e-15
4.84023e-16
1.50033e-16
4.08903e-17
1.12486e-17
2.25358e-18
7.34586e-19
3.80659e-19
2.24824e-19
1.26049e-19
5.61229e-20
2.32447e-20
1.28474e-20
1.37123e-20
3.51408e-20
8.7832e-20
3.00086e-19
1.98125e-18
1.14292e-17
5.99621e-17
4.0379e-16
5.4344e-15
2.21713e-13
1.05252e-11
3.69115e-10
7.43236e-09
9.54696e-08
7.67596e-07
4.95306e-06
2.1465e-05
3.00982e-05
4.2571e-05
6.28761e-05
6.4248e-05
0.000102021
7.64004e-05
0.000134428
7.1616e-05
0.000143605
5.19861e-05
0.000121863
2.78635e-05
7.94494e-05
9.6194e-06
3.70397e-05
1.061e-05
9.50468e-07
1.02084e-05
8.36807e-06
4.00092e-08
5.15913e-07
9.52529e-10
1.74315e-08
1.12864e-14
2.01335e-14
1.31938e-14
6.70805e-15
2.29509e-15
8.00282e-16
1.82943e-16
5.52493e-17
1.21675e-17
2.66234e-18
7.84698e-19
3.57326e-19
2.18474e-19
1.12807e-19
5.0113e-20
2.69752e-20
3.29901e-20
7.70302e-20
2.14681e-19
6.5699e-19
3.67549e-18
1.9919e-17
1.12975e-16
6.32267e-16
5.59237e-15
1.5409e-13
6.82979e-12
2.67974e-10
7.09727e-09
1.05938e-07
1.4339e-06
1.11969e-05
3.97539e-05
3.36189e-05
8.34776e-05
0.000109777
0.000146595
0.000195211
0.000206809
0.000288345
0.000242862
0.000359609
0.000238744
0.000385321
0.000187216
0.000353672
0.000109853
0.000260196
4.4528e-05
0.000137757
4.79962e-05
5.63135e-06
4.59571e-05
3.80751e-05
2.3697e-07
3.02238e-06
5.78566e-09
9.6812e-08
8.11003e-14
1.39725e-13
8.89936e-14
3.97374e-14
1.47782e-14
5.11059e-15
1.09122e-15
2.87477e-16
6.50775e-17
1.20501e-17
2.44477e-18
6.73339e-19
3.76723e-19
2.4347e-19
1.15817e-19
6.91587e-20
6.42049e-20
1.45224e-19
3.93598e-19
1.32894e-18
5.55058e-18
3.97175e-17
1.87367e-16
1.09604e-15
7.52676e-15
1.33945e-13
4.47043e-12
1.80227e-10
5.5958e-09
9.83843e-08
1.48111e-06
1.63904e-05
0.000116798
0.000127416
0.000170866
0.000243122
0.000290629
0.00037074
0.000448542
0.000479151
0.000593487
0.00054271
0.000695052
0.000544752
0.000733855
0.000474941
0.000701257
0.000330669
0.000587507
0.000158286
0.000386672
0.00016613
2.62637e-05
0.000157866
0.000132337
1.30567e-06
1.43378e-05
3.23503e-08
4.92952e-07
5.45725e-13
9.62919e-13
6.04266e-13
2.87379e-13
1.01015e-13
4.20539e-14
6.80584e-15
1.52893e-15
3.25533e-16
6.21115e-17
1.01231e-17
2.12827e-18
8.57441e-19
5.66484e-19
3.33291e-19
1.83895e-19
1.93038e-19
2.69923e-19
8.28321e-19
2.04688e-18
8.60563e-18
5.75875e-17
3.2383e-16
1.61498e-15
1.12373e-14
1.44714e-13
3.37131e-12
1.17311e-10
3.97903e-09
9.01687e-08
1.38134e-06
1.61038e-05
0.000126852
0.00038983
0.000412987
0.000330925
0.000366175
0.000517629
0.000578551
0.000695606
0.000782862
0.000831902
0.000951469
0.000908134
0.00106264
0.000913856
0.00110406
0.000841327
0.00107183
0.000679722
0.000956944
0.000420857
0.000742729
0.000428179
9.4421e-05
0.000403933
0.000344865
6.21008e-06
5.42372e-05
1.62426e-07
2.22336e-06
3.05766e-12
6.04693e-12
3.92118e-12
1.65481e-12
5.73414e-13
2.2591e-13
5.37017e-14
9.7109e-15
1.6135e-15
2.90555e-16
5.0873e-17
7.80555e-18
2.04898e-18
1.39459e-18
9.1437e-19
6.42585e-19
4.33816e-19
8.03251e-19
1.73328e-18
4.55354e-18
1.92756e-17
8.57831e-17
5.14689e-16
2.65156e-15
1.91696e-14
1.92608e-13
3.26029e-12
8.12595e-11
2.65983e-09
7.21074e-08
1.16045e-06
1.49008e-05
0.00011952
0.000424236
0.000431203
0.000688314
0.000705915
0.00062697
0.000663604
0.000854791
0.000913793
0.00105206
0.00113418
0.00119526
0.00130859
0.00127219
0.00142016
0.00127649
0.00145876
0.00120404
0.00142336
0.00104264
0.00130817
0.000775043
0.00109548
0.000775214
0.000259059
0.000735921
0.000651193
2.37567e-05
0.000159523
6.69875e-07
7.79808e-06
1.08127e-11
2.96164e-11
2.31591e-11
1.06692e-11
3.58345e-12
1.35556e-12
2.97952e-13
7.75838e-14
9.32208e-15
1.29087e-15
2.2314e-16
3.40262e-17
7.11678e-18
3.87573e-18
2.19606e-18
1.97781e-18
1.34883e-18
1.75815e-18
2.68436e-18
9.91046e-18
3.2768e-17
1.70306e-16
8.34078e-16
4.75668e-15
3.50563e-14
3.05722e-13
3.58088e-12
6.8611e-11
1.76669e-09
5.00937e-08
9.83434e-07
1.33782e-05
0.000117767
0.000427513
0.000395535
0.000713139
0.000711464
0.00100465
0.00101284
0.00095761
0.000987364
0.00119936
0.00125026
0.00140286
0.00147894
0.00154899
0.00166158
0.00162491
0.00177805
0.00162359
0.00181363
0.00154513
0.00176696
0.00138111
0.00163964
0.0011185
0.00142398
0.00110753
0.000523003
0.00105621
0.000959388
7.30068e-05
0.00035736
2.02467e-06
2.34832e-05
1.7468e-11
8.30949e-11
1.05567e-10
6.0014e-11
2.26231e-11
7.88045e-12
2.19671e-12
4.23196e-13
6.37243e-14
7.45821e-15
9.35946e-16
1.32335e-16
2.51381e-17
1.05867e-17
8.14051e-18
4.09254e-18
3.91633e-18
4.59623e-18
6.5458e-18
1.67338e-17
5.47899e-17
2.49709e-16
1.36297e-15
8.11867e-15
6.29898e-14
5.53742e-13
4.89766e-12
6.87405e-11
1.30775e-09
3.30872e-08
7.56622e-07
1.20027e-05
0.00011238
0.000546895
0.000707022
0.000729829
0.00101031
0.00100255
0.0013123
0.00130914
0.00128552
0.00130563
0.00153859
0.0015827
0.00175696
0.00183485
0.00191834
0.00204353
0.00199968
0.00217645
0.00198773
0.00221316
0.00188842
0.00214413
0.00170436
0.00198206
0.00143715
0.00173872
0.00141653
0.000813781
0.00135525
0.0012508
0.000183238
0.000609507
4.30766e-06
6.09136e-05
9.48555e-11
2.73848e-10
2.62772e-10
1.27967e-10
4.34019e-11
8.67568e-12
2.07012e-12
3.45575e-13
4.33977e-14
4.16582e-15
5.23489e-16
8.74907e-17
3.1806e-17
2.55045e-17
1.70914e-17
1.36767e-17
1.06014e-17
1.31292e-17
2.80406e-17
8.20625e-17
3.24249e-16
1.94376e-15
1.59167e-14
1.13553e-13
9.52374e-13
8.33305e-12
7.86291e-11
1.2059e-09
2.32416e-08
5.1682e-07
9.85889e-06
0.000104552
0.000507391
0.000948949
0.000924285
0.000987217
0.000972163
0.00129908
0.00127977
0.00161599
0.00160417
0.00161064
0.00161982
0.00189561
0.0019373
0.00215011
0.00223746
0.00234483
0.00247884
0.00244047
0.00262748
0.00241417
0.00267941
0.00227797
0.00259382
0.0020427
0.00237434
0.00174316
0.00206993
0.00171213
0.00109331
0.00164202
0.00152841
0.000358523
0.000870129
8.87504e-06
0.000129266
2.79152e-10
6.99902e-10
5.51434e-10
2.07904e-10
4.40462e-11
8.6217e-12
2.09124e-12
2.31912e-13
2.28495e-14
1.85582e-15
3.33113e-16
8.8168e-17
6.81174e-17
5.90249e-17
3.55459e-17
3.03666e-17
2.79901e-17
5.02743e-17
1.2493e-16
4.97466e-16
3.09245e-15
2.93604e-14
2.25176e-13
1.6578e-12
1.41071e-11
1.15519e-10
1.25444e-09
1.91138e-08
3.57818e-07
7.16693e-06
9.01815e-05
0.00046021
0.000900251
0.000843022
0.00119254
0.00116281
0.00125359
0.00122477
0.00157945
0.0015455
0.00194635
0.00192016
0.00195902
0.00195655
0.00230045
0.00233745
0.00256317
0.00259987
0.00271171
0.00272868
0.00281558
0.00282711
0.00287126
0.00293824
0.0027409
0.00301775
0.00243221
0.00282653
0.00206404
0.00245226
0.00201799
0.00136028
0.00193235
0.0018035
0.000573508
0.00112773
1.45549e-05
0.000220644
7.39356e-10
1.5933e-09
8.74579e-10
2.03077e-10
4.57306e-11
9.10887e-12
1.31514e-12
1.2108e-13
9.36836e-15
1.12103e-15
3.29629e-16
1.64008e-16
1.61728e-16
1.01513e-16
8.90442e-17
7.24736e-17
1.12655e-16
2.33867e-16
7.858e-16
4.62341e-15
4.31383e-14
4.35368e-13
3.1534e-12
2.29426e-11
1.95347e-10
1.56145e-09
1.9143e-08
2.77047e-07
5.00673e-06
7.24518e-05
0.000411908
0.000949154
0.00112349
0.00112705
0.00141799
0.00137598
0.00150544
0.0014625
0.00187688
0.00182375
0.00231642
0.00227294
0.00234646
0.00233746
0.0026112
0.00260804
0.00271665
0.00269471
0.00279828
0.002738
0.00290219
0.00280631
0.00303856
0.00294224
0.00312725
0.00313641
0.00288362
0.00321871
0.00243159
0.00291205
0.00266704
0.00216326
0.00239054
0.00143393
0.00167186
0.00205299
0.00228826
0.00234365
0.00221887
0.00189765
0.00213997
0.000811372
0.00156837
0.00144993
0.00118653
2.17464e-05
0.000342403
1.95252e-09
3.0153e-09
8.46759e-10
1.80405e-10
3.7166e-11
7.7742e-12
6.44946e-13
4.95019e-14
3.46306e-15
8.19043e-16
4.6133e-16
5.73361e-16
2.63774e-16
1.9568e-16
2.13186e-16
2.19311e-16
4.79389e-16
1.46475e-15
6.57066e-15
5.80558e-14
6.43675e-13
6.00721e-12
4.12811e-11
3.0074e-10
2.46833e-09
2.12597e-08
2.57237e-07
3.82214e-06
5.67159e-05
0.000366242
0.000898615
0.0012681
0.00120907
0.00133233
0.00129911
0.00163711
0.00157674
0.00176377
0.00170058
0.00221094
0.00213655
0.00258351
0.00256487
0.00260176
0.00259342
0.00266596
0.00264004
0.00265002
0.00255179
0.00262266
0.0024525
0.0027146
0.00245601
0.00294341
0.00260995
0.00321184
0.00308051
0.00289908
0.00311193
0.00329045
0.00328346
0.00332825
0.00290188
0.00261573
0.00288425
0.00312926
0.00258178
0.00180617
0.00246221
0.00252776
0.00238543
0.00204575
0.00229777
0.00131949
0.000863604
0.00117686
0.00169964
0.00158331
7.1169e-05
0.00101014
0.000767294
0.000401117
5.84231e-09
2.99527e-09
6.98887e-10
1.13694e-10
1.92679e-11
4.22003e-12
2.52087e-13
1.62739e-14
2.54015e-15
1.53031e-15
1.48441e-15
1.08876e-15
6.04734e-16
6.39546e-16
5.97869e-16
1.28633e-15
2.5325e-15
1.19049e-14
8.34366e-14
8.52518e-13
9.04672e-12
7.64479e-11
5.13553e-10
3.75214e-09
2.92173e-08
2.76437e-07
3.38974e-06
4.57862e-05
0.000323513
0.00085061
0.00125752
0.00141945
0.00139669
0.00151908
0.00146915
0.00187122
0.00178389
0.00205212
0.00196215
0.00252742
0.00245806
0.00262533
0.00263722
0.00262322
0.00262086
0.00247104
0.00241286
0.00233777
0.00226466
0.00233102
0.00228524
0.00237573
0.0023134
0.00272469
0.0025381
0.00244297
0.00236609
0.00315576
0.00294632
0.00291432
0.00272327
0.00330947
0.00337779
0.00320666
0.00334043
0.00312281
0.00283692
0.00309826
0.00332329
0.00278939
0.00194581
0.00272668
0.0026523
0.00256606
0.00219953
0.00246956
0.00146192
0.00133723
0.00183689
0.00172434
0.000568132
7.75952e-05
0.000294549
0.00120287
0.0010406
8.47162e-09
2.61612e-09
4.60916e-10
6.61111e-11
1.34506e-11
1.30663e-12
8.12155e-14
8.29606e-15
4.14826e-15
4.68303e-15
6.27404e-15
2.04285e-15
1.69743e-15
2.1876e-15
2.71129e-15
6.4252e-15
2.33898e-14
1.32787e-13
1.12702e-12
1.20813e-11
1.17001e-10
9.07503e-10
6.16144e-09
4.61866e-08
3.59602e-07
3.34845e-06
4.11435e-05
0.000283159
0.000801248
0.00120251
0.00145685
0.00139292
0.00156364
0.00150866
0.00170242
0.00162997
0.00213323
0.00201288
0.0023643
0.00225343
0.00264692
0.00264395
0.00243164
0.0024915
0.00239077
0.00240227
0.00220067
0.00213547
0.00225669
0.00221917
0.00232606
0.00238403
0.00235007
0.00236133
0.00240957
0.00248642
0.00255302
0.00244196
0.0023904
0.00238037
0.00300678
0.00279987
0.00275325
0.00258295
0.00341172
0.00339281
0.00307053
0.00326741
0.00332358
0.00305984
0.00330831
0.00344196
0.00300719
0.00209302
0.00293829
0.00285588
0.00276045
0.00236299
0.00265396
0.00161459
0.00151187
0.00198156
0.00187281
0.000860285
0.000227513
0.000645522
0.00141915
0.00133724
8.29568e-09
1.80744e-09
2.52341e-10
3.37083e-11
5.37513e-12
3.90802e-13
3.27255e-14
1.26028e-14
1.49849e-14
1.99274e-14
8.86467e-15
5.99637e-15
7.46211e-15
7.95483e-15
1.79994e-14
5.49313e-14
2.39946e-13
1.6106e-12
1.53552e-11
1.59483e-10
1.39946e-09
1.02108e-08
7.04231e-08
4.47894e-07
3.65434e-06
3.93609e-05
0.000253525
0.000745283
0.00114916
0.00134896
0.00154062
0.00146673
0.00170233
0.00161816
0.00189907
0.00179577
0.00240737
0.00226255
0.0026162
0.00253324
0.00257113
0.00264996
0.00209107
0.00217619
0.00207572
0.00206125
0.00215718
0.00207258
0.0024283
0.00240143
0.00256825
0.00265464
0.00271721
0.00276672
0.002422
0.00250213
0.00260769
0.00272215
0.00247728
0.00243126
0.0024375
0.00249718
0.00286282
0.00262975
0.00269135
0.00252622
0.00344122
0.00333451
0.00293989
0.00314589
0.00346272
0.00327685
0.00347105
0.00348758
0.0032252
0.00224953
0.0031559
0.00306884
0.00296612
0.00253756
0.00285012
0.00177262
0.00169099
0.00213444
0.0020251
0.00130316
0.000954747
0.00141602
0.00164135
0.00162346
7.00711e-09
1.00873e-09
1.15032e-10
2.17415e-11
1.66667e-12
1.36021e-13
4.32133e-14
4.40014e-14
7.70784e-14
3.43264e-14
2.30623e-14
2.67308e-14
3.15983e-14
5.36896e-14
1.45071e-13
5.06112e-13
2.594e-12
2.0125e-11
2.03469e-10
1.98009e-09
1.60007e-08
1.12177e-07
6.41785e-07
4.63363e-06
4.028e-05
0.000241147
0.000692731
0.00109876
0.00124945
0.00138691
0.00129127
0.00160765
0.00149465
0.00184457
0.00172308
0.0021151
0.00197479
0.00263875
0.00250764
0.00269243
0.00268815
0.00231211
0.00247076
0.00187796
0.00192603
0.00196663
0.00188844
0.00228673
0.00211645
0.00288671
0.00277648
0.00283168
0.00292477
0.00298849
0.00300721
0.00260236
0.00273131
0.00286956
0.00300118
0.0024848
0.00250028
0.00257897
0.00270062
0.00276704
0.00258674
0.0026567
0.00254998
0.00340672
0.00323173
0.00285582
0.00302937
0.00352844
0.00346288
0.00355723
0.00347913
0.00342859
0.00241646
0.00336881
0.00328262
0.00317899
0.00272411
0.00305598
0.00192902
0.0018633
0.00229485
0.00218119
0.00169093
0.00146472
0.00180292
0.00184558
0.00186008
4.46022e-09
4.69976e-10
4.79757e-11
6.42482e-12
5.44851e-13
1.54786e-13
1.44222e-13
1.69554e-13
1.29751e-13
9.1641e-14
1.00902e-13
1.41357e-13
1.71611e-13
4.14156e-13
1.21736e-12
4.8396e-12
2.93712e-11
2.58258e-10
2.6467e-09
2.40543e-08
1.83309e-07
1.03076e-06
6.73153e-06
4.60074e-05
0.000241172
0.000659239
0.0010554
0.00118452
0.00110638
0.00133316
0.00117803
0.00165495
0.00148935
0.00199187
0.00182303
0.00233978
0.00216437
0.00272696
0.00268504
0.0026193
0.00271288
0.00206081
0.00225785
0.00177915
0.00183385
0.00193498
0.00181021
0.00251725
0.00218525
0.00323157
0.00314578
0.00283925
0.00302903
0.00311327
0.00319789
0.00324879
0.00325893
0.00284999
0.00300698
0.00315564
0.00328279
0.0025712
0.0026601
0.0027958
0.0029603
0.00274112
0.00262316
0.0027071
0.00264656
0.00332378
0.00312939
0.00283643
0.00295568
0.00354544
0.00357638
0.00359817
0.0034206
0.00357655
0.00259353
0.00355127
0.00348841
0.00339101
0.00292116
0.00326624
0.0020865
0.00203111
0.00246412
0.00234567
0.00193563
0.000904313
0.00170192
0.00202672
0.00204057
2.33179e-09
1.85836e-10
2.49583e-11
2.07302e-12
5.67994e-13
4.84006e-13
6.96425e-13
5.47995e-13
3.58255e-13
3.88605e-13
5.86676e-13
5.87259e-13
1.24615e-12
3.24293e-12
1.04923e-11
4.9118e-11
3.50826e-10
3.46535e-09
3.49131e-08
2.97994e-07
1.81079e-06
1.11718e-05
6.12429e-05
0.000249077
0.000650053
0.00102659
0.00114918
0.00101871
0.000896118
0.000816488
0.00122419
0.0010348
0.00167833
0.00144388
0.00213672
0.0019121
0.00254951
0.00235099
0.00275089
0.00275585
0.00247063
0.00265091
0.00196861
0.00216229
0.00175265
0.00183474
0.0019076
0.00176754
0.00266784
0.00243292
0.00211705
0.00337134
0.0032478
0.00285737
0.00307394
0.00337939
0.00344016
0.00345803
0.00343994
0.00313261
0.00329484
0.00343379
0.00354099
0.00274244
0.00288641
0.00306253
0.00324623
0.00279947
0.00272743
0.00281614
0.00282414
0.0032375
0.00306502
0.00290099
0.00294156
0.00351638
0.00363676
0.00360021
0.00335158
0.00366111
0.00278002
0.00366796
0.00364822
0.00358546
0.00312501
0.00347404
0.00225064
0.00219488
0.00264132
0.00251648
0.00202455
0.00031933
0.0012834
0.00218016
0.00216492
1.01246e-09
8.52516e-11
8.49811e-12
2.20857e-12
1.71365e-12
2.04064e-12
2.23246e-12
1.38919e-12
1.45265e-12
2.21881e-12
2.22303e-12
3.89919e-12
9.23598e-12
2.57648e-11
9.54626e-11
5.3331e-10
4.58668e-09
4.9554e-08
4.76328e-07
3.3049e-06
2.05773e-05
9.15585e-05
0.000276271
0.000651888
0.00101509
0.00113383
0.000997338
0.000655736
0.000679566
0.000570459
0.00106941
0.000837967
0.00167155
0.00135745
0.00226591
0.00198084
0.00269456
0.00251664
0.00274058
0.0027943
0.00237569
0.00258531
0.00199185
0.00218635
0.00177744
0.00192277
0.00182135
0.00173983
0.00263377
0.00240652
0.00205815
0.00184346
0.00346932
0.00330224
0.00282416
0.00307894
0.00361161
0.00363955
0.00363201
0.00357727
0.00341954
0.00356747
0.00368239
0.00376093
0.00297473
0.00315694
0.00334971
0.00353116
0.0029128
0.00290856
0.00299832
0.00305825
0.00318256
0.00305638
0.00301858
0.00301211
0.00346599
0.00366667
0.00357435
0.00330619
0.00371054
0.00297341
0.00373831
0.00374766
0.00372663
0.00332794
0.00365877
0.00241631
0.0023479
0.00282377
0.00268886
0.00193902
0.000228815
0.00109292
0.00230257
0.00220913
3.72433e-10
4.98403e-11
1.05036e-11
7.14197e-12
7.65099e-12
7.87759e-12
5.24729e-12
5.30286e-12
7.39244e-12
9.62269e-12
1.25399e-11
2.73699e-11
6.88944e-11
2.13378e-10
9.24159e-10
6.3218e-09
6.77471e-08
7.50141e-07
5.99039e-06
3.74074e-05
0.000138175
0.000331162
0.00066396
0.00101423
0.00112979
0.000999023
0.000664687
0.000336499
0.00034508
0.000452996
0.000362237
0.000893944
0.000624998
0.00163663
0.00124498
0.00236604
0.00202162
0.00276735
0.00263879
0.00274913
0.00282579
0.00238939
0.00258711
0.00211474
0.00230978
0.00186321
0.0020774
0.00175534
0.00170835
0.00171438
0.00254398
0.00227849
0.00189742
0.00174085
0.00353472
0.00332747
0.00274822
0.00305948
0.00379855
0.00380099
0.00376425
0.00367719
0.00368668
0.00380743
0.00389086
0.00393737
0.00324611
0.00344414
0.00363213
0.00379344
0.00309481
0.00314364
0.00323274
0.00333064
0.00318014
0.00313084
0.00319956
0.00313224
0.00342974
0.00367059
0.00355052
0.00330668
0.00374044
0.00316832
0.00378461
0.00381247
0.00382224
0.00352604
0.00379117
0.00257578
0.0024825
0.00300647
0.00285678
0.00180454
0.000330667
0.00113107
0.00238708
0.00217089
1.47835e-10
7.48668e-11
3.91125e-11
3.3051e-11
2.49719e-11
1.8911e-11
1.8831e-11
2.54435e-11
3.94789e-11
4.09555e-11
8.34367e-11
1.95297e-10
5.33782e-10
1.85828e-09
9.63598e-09
8.83307e-08
1.1041e-06
1.05285e-05
6.39056e-05
0.000198959
0.000402664
0.000698353
0.00101818
0.00112754
0.00100712
0.000692179
0.000278978
0.000156501
0.000143228
0.000293358
0.000196067
0.000763104
0.000474748
0.00159374
0.00115101
0.00243192
0.00203815
0.00281308
0.00270533
0.00279091
0.00286226
0.0024933
0.00265774
0.00229025
0.00247499
0.00186464
0.00198969
0.00215195
0.00167521
0.00166497
0.00175581
0.00165766
0.00242649
0.0021324
0.00175329