/*--------------------------------*- C++ -*----------------------------------*\
  =========                 |
  \\      /  F ield         | OpenFOAM: The Open Source CFD Toolbox
   \\    /   O peration     | Website:  https://openfoam.org
    \\  /    A nd           | Version:  dev
     \\/     M anipulation  |
\*---------------------------------------------------------------------------*/
FoamFile
{
    version     2.0;
    format      ascii;
    class       volScalarField;
    location    "2500";
    object      G;
}
// * * * * * * * * * * * * * * * * * * * * * * * * * * * * * * * * * * * * * //

dimensions      [1 0 -3 0 0 0 0];

internalField   nonuniform List<scalar> 
9844
(
3915.81
3921.34
3922.69
3926.19
3928.25
3930.34
3930.34
3933.12
3935.91
3938.73
3933.8
3937.28
3940.79
3944.31
3947.86
3936.58
3940.75
3944.95
3949.18
3953.45
3957.75
3938.69
3943.52
3948.4
3953.33
3958.31
3963.34
3968.41
3940.16
3945.63
3951.16
3956.76
3962.44
3968.2
3974.01
3979.88
3941
3947.08
3953.23
3959.48
3965.84
3972.3
3978.86
3985.49
3992.19
3941.23
3947.9
3954.65
3961.52
3968.51
3975.65
3982.92
3990.31
3997.79
4005.35
3940.88
3948.11
3955.43
3962.88
3970.48
3978.26
3986.21
3994.32
4002.58
4010.95
4019.41
3939.97
3947.73
3955.6
3963.6
3971.78
3980.15
3988.74
3997.54
4006.54
4015.71
4025.01
4034.42
3938.53
3946.8
3955.17
3963.7
3972.42
3981.35
3990.53
3999.97
4009.66
4019.59
4029.73
4040.01
4050.42
3936.58
3945.32
3954.18
3963.2
3972.42
3981.88
3991.62
4001.65
4011.98
4022.61
4033.52
4044.68
4056
4067.48
3934.16
3943.34
3952.65
3962.12
3971.81
3981.77
3992.02
4002.59
4013.51
4024.79
4036.42
4048.37
4060.6
4073.04
4085.65
3931.28
3940.88
3950.6
3960.5
3970.63
3981.03
3991.75
4002.83
4014.29
4026.15
4038.43
4051.11
4064.18
4077.56
4091.19
4105
3927.99
3937.97
3948.08
3958.37
3968.89
3979.71
3990.86
4002.39
4014.34
4026.73
4039.6
4052.94
4066.75
4080.99
4095.62
4110.52
4125.64
3924.31
3934.64
3945.1
3955.75
3966.64
3977.82
3989.36
4001.3
4013.69
4026.56
4039.95
4053.88
4068.35
4083.37
4098.88
4114.83
4131.11
4147.64
3920.25
3930.91
3941.7
3952.67
3963.89
3975.42
3987.3
3999.6
4012.38
4025.67
4039.52
4053.97
4069.03
4084.72
4101.02
4117.91
4135.3
4153.07
4171.13
3915.86
3926.81
3937.91
3949.18
3960.69
3972.52
3984.71
3997.33
4010.44
4024.1
4038.34
4053.24
4068.81
4085.09
4102.08
4119.78
4138.15
4157.11
4176.5
4196.23
3911.16
3922.37
3933.74
3945.28
3957.07
3969.16
3981.62
3994.52
4007.92
4021.89
4036.47
4051.74
4067.74
4084.52
4102.11
4120.5
4139.71
4159.69
4180.35
4201.53
4223.09
3906.19
3917.63
3929.24
3941.02
3953.04
3965.37
3978.07
3991.21
4004.86
4019.08
4033.95
4049.52
4065.88
4083.06
4101.14
4120.13
4140.04
4160.89
4182.63
4205.17
4228.3
4251.88
3900.97
3912.6
3924.42
3936.42
3948.65
3961.19
3974.09
3987.43
4001.28
4015.72
4030.81
4046.64
4063.27
4080.77
4099.23
4118.69
4139.2
4160.77
4183.41
4207.09
4231.68
4256.99
4282.81
3895.52
3907.33
3919.33
3931.51
3943.93
3956.64
3969.71
3983.23
3997.24
4011.85
4027.12
4043.13
4059.97
4077.72
4096.46
4116.28
4137.25
4159.4
4182.77
4207.37
4233.18
4260.06
4287.78
4316.12
3889.87
3901.83
3913.99
3926.33
3938.9
3951.76
3964.97
3978.62
3992.77
4007.51
4022.9
4039.05
4056.04
4073.96
4092.9
4112.97
4134.25
4156.84
4180.79
4206.13
4232.89
4261.06
4290.48
4320.9
4352.13
3884.05
3896.14
3908.43
3920.9
3933.59
3946.57
3959.91
3973.66
3987.91
4002.73
4018.22
4034.45
4051.53
4069.54
4088.61
4108.83
4130.32
4153.18
4177.54
4203.45
4230.95
4260.1
4290.9
4323.17
4356.7
4391.17
3878.08
3890.27
3902.68
3915.25
3928.04
3941.12
3954.54
3968.37
3982.69
3997.57
4013.1
4029.38
4046.49
4064.55
4083.66
4103.95
4125.53
4148.54
4173.12
4199.4
4227.45
4257.35
4289.15
4322.89
4358.43
4395.49
4433.59
3871.98
3884.26
3896.75
3909.4
3922.28
3935.43
3948.91
3962.79
3977.15
3992.05
4007.6
4023.88
4040.98
4059.02
4078.12
4098.39
4119.98
4143.02
4167.68
4194.12
4222.49
4252.9
4285.44
4320.22
4357.31
4396.57
4437.58
4479.86
3865.76
3878.11
3890.67
3903.39
3916.32
3929.52
3943.04
3956.95
3971.32
3986.23
4001.75
4017.99
4035.05
4053.03
4072.05
4092.24
4113.74
4136.72
4161.33
4187.76
4216.22
4246.89
4279.9
4315.39
4353.53
4394.44
4437.88
4483.44
4530.52
3859.46
3871.85
3884.46
3897.23
3910.2
3923.43
3936.97
3950.89
3965.25
3980.12
3995.6
4011.77
4028.74
4046.61
4065.51
4085.56
4106.91
4129.72
4154.17
4180.46
4208.81
4239.47
4272.66
4308.57
4347.38
4389.35
4434.55
4482.78
4533.59
4586.28
3853.08
3865.5
3878.15
3890.94
3903.94
3917.18
3930.72
3944.62
3958.95
3973.78
3989.19
4005.26
4022.11
4039.83
4058.56
4078.42
4099.55
4122.12
4146.31
4172.34
4200.44
4230.87
4263.93
4299.91
4339.05
4381.63
4427.89
4478
4531.76
4588.71
4647.96
3846.65
3859.09
3871.75
3884.56
3897.55
3910.79
3924.31
3938.18
3952.46
3967.22
3982.54
3998.5
4015.2
4032.75
4051.26
4070.87
4091.74
4114
4137.86
4163.53
4191.25
4221.29
4253.97
4289.66
4328.73
4371.51
4418.31
4469.45
4525.19
4585.41
4649.58
4716.6
3840.17
3852.61
3865.28
3878.08
3891.07
3904.29
3917.78
3931.6
3945.82
3960.49
3975.7
3991.52
4008.05
4025.4
4043.67
4063
4083.54
4105.45
4128.91
4154.13
4181.35
4210.87
4243
4278.13
4316.72
4359.25
4406.1
4457.63
4514.36
4576.64
4644.46
4717.22
4793.5
3833.67
3846.1
3858.75
3871.54
3884.51
3897.69
3911.14
3924.9
3939.03
3953.61
3968.69
3984.36
4000.71
4017.83
4035.84
4054.85
4075.03
4096.54
4119.54
4144.25
4170.89
4199.77
4231.2
4265.58
4303.38
4345.19
4391.56
4442.93
4499.87
4563.04
4632.93
4709.85
4792.84
4857.18
4858.92
3827.15
3839.56
3852.19
3864.95
3877.88
3891.02
3904.41
3918.1
3932.14
3946.6
3961.54
3977.05
3993.19
4010.08
4027.81
4046.5
4066.29
4087.33
4109.83
4133.97
4159.97
4188.12
4218.74
4252.23
4289.03
4329.76
4375.11
4425.71
4482.2
4545.31
4615.96
4694.73
4782.99
4857.93
4854.04
4903.48
4904.98
3820.63
3833.01
3845.61
3858.33
3871.21
3884.29
3897.61
3911.22
3925.16
3939.49
3954.29
3969.61
3985.55
4002.18
4019.62
4037.96
4057.35
4077.93
4099.87
4123.39
4148.7
4176.06
4205.78
4238.24
4273.9
4313.34
4357.28
4406.49
4461.81
4524.07
4594.28
4673.72
4751.78
4740.65
4847.72
4788.2
4838.54
4903.4
4898.77
4952.94
4954.16
3814.13
3826.46
3839.01
3851.69
3864.51
3877.53
3890.77
3904.28
3918.11
3932.31
3946.95
3962.08
3977.8
3994.18
4011.31
4029.3
4048.28
4068.38
4089.76
4112.61
4137.17
4163.68
4192.45
4223.82
4258.21
4296.2
4338.49
4385.87
4439.31
4499.89
4568.7
4647.17
4728.16
4713.69
4776.12
4891.27
4827.07
4880.96
4951.95
4946.42
5005.9
5006.82
3807.64
3819.92
3832.42
3845.04
3857.8
3870.74
3883.89
3897.3
3911.01
3925.07
3939.54
3954.49
3969.97
3986.09
4002.91
4020.54
4039.1
4058.71
4079.53
4101.72
4125.5
4151.11
4178.86
4209.09
4242.15
4278.58
4319.06
4364.36
4415.46
4473.57
4540.01
4616.36
4698.39
4681.48
4761.99
4746.07
4813.42
4937.71
4868.05
4925.96
5003.92
4997.32
5062.73
5063.32
3801.19
3813.4
3825.84
3838.39
3851.08
3863.94
3876.99
3890.29
3903.88
3917.79
3932.09
3946.84
3962.1
3977.94
3994.45
4011.72
4029.86
4048.98
4069.23
4090.77
4113.78
4138.49
4165.17
4194.18
4225.87
4260.68
4299.26
4342.35
4390.84
4445.95
4509.19
4582.27
4663.95
4644.94
4728.93
4710.49
4797.57
4779.89
4852.7
4987.21
4911.4
4973.82
5059.62
5051.8
5123.84
5124.09
3794.77
3806.92
3819.29
3831.76
3844.37
3857.14
3870.09
3883.28
3896.73
3910.49
3924.62
3939.17
3954.19
3969.76
3985.96
4002.87
4020.59
4039.23
4058.92
4079.8
4102.05
4125.87
4151.5
4179.26
4209.52
4242.68
4279.32
4320.12
4365.88
4417.74
4477.18
4546.07
4625.68
4605.32
4690.99
4670.39
4760.85
4740.52
4834.97
4815.3
4894.15
5040.1
4957.34
5024.79
5119.52
5110.31
5189.75
5189.65
3788.4
3800.47
3812.76
3825.16
3837.68
3850.35
3863.2
3876.27
3889.58
3903.19
3917.14
3931.48
3946.27
3961.58
3977.46
3994.02
4011.32
4029.49
4048.62
4068.86
4090.37
4113.32
4137.93
4164.47
4193.28
4224.76
4259.42
4297.93
4340.94
4389.45
4444.85
4508.9
4585.01
4563.92
4649.13
4627.2
4719.04
4696.5
4794.16
4771.7
4874.34
4852.43
4937.97
5096.74
5006.12
5079.19
5184.12
5173.3
5261.08
5260.52
3782.08
3794.07
3806.28
3818.6
3831.02
3843.59
3856.33
3869.27
3882.45
3895.9
3909.67
3923.8
3938.36
3953.4
3968.98
3985.18
4002.08
4019.77
4038.37
4057.99
4078.76
4100.87
4124.5
4149.88
4177.3
4207.11
4239.78
4275.95
4316.26
4361.46
4412.76
4471.82
4543.35
4522.31
4604.91
4582.35
4673.22
4649.39
4748.04
4723.34
4828.93
4804.08
4915.88
4891.46
4984.35
5157.54
5057.99
5137.37
5253.85
5241.19
5338.54
5337.35
3775.82
3787.73
3799.85
3812.07
3824.41
3836.87
3849.49
3862.31
3875.34
3888.63
3902.22
3916.15
3930.47
3945.24
3960.52
3976.37
3992.88
4010.12
4028.19
4047.2
4067.28
4088.57
4111.25
4135.51
4161.62
4189.86
4220.63
4254.46
4292.04
4334.04
4381.36
4435.42
4502
4481.46
4559.96
4537.64
4625.19
4600.9
4697.93
4672.06
4778.05
4751.04
4865.27
4837.8
4959.69
4932.45
5033.45
5222.92
5113.26
5199.73
5329.3
5314.57
5422.95
5420.97
3769.62
3781.44
3793.48
3805.6
3817.84
3830.19
3842.7
3855.38
3868.27
3881.39
3894.8
3908.53
3922.62
3937.13
3952.11
3967.62
3983.74
4000.54
4018.11
4036.54
4055.94
4076.46
4098.23
4121.43
4146.28
4173.04
4202.03
4233.69
4268.59
4307.4
4350.91
4400.22
4461.76
4441.88
4515.69
4494.07
4576.81
4553
4645.94
4619.87
4723.44
4695.55
4809.28
4779.96
4903.35
4873.18
5005.86
4975.57
5085.57
5293.49
5172.28
5266.83
5411.26
5394.13
5515.23
5512.4
3763.49
3775.22
3787.16
3799.19
3811.32
3823.57
3835.95
3848.5
3861.24
3874.2
3887.43
3900.95
3914.81
3929.06
3943.75
3958.94
3974.68
3991.05
4008.13
4026.01
4044.77
4064.54
4085.45
4107.65
4131.32
4156.69
4184.02
4213.68
4246.11
4281.86
4321.69
4366.48
4422.97
4404.33
4472.96
4452.17
4529.6
4506.71
4594.13
4568.79
4667.53
4639.69
4750.23
4720.34
4842.24
4810.71
4943.59
4910.9
5054.78
5021.49
5141.19
5369.83
5235.67
5339.32
5500.66
5480.6
5616.51
5612.74
3757.44
3769.06
3780.92
3792.85
3804.87
3817
3829.26
3841.67
3854.27
3867.07
3880.11
3893.43
3907.07
3921.06
3935.47
3950.33
3965.71
3981.68
3998.29
4015.63
4033.78
4052.85
4072.95
4094.21
4116.77
4140.84
4166.63
4194.43
4224.62
4257.62
4294
4334.59
4380.63
4432.06
4412.55
4484.35
4462.47
4543.96
4519.77
4612.3
4585.42
4690.43
4660.81
4778.89
4747.01
4877.69
4843.99
4986.9
4951.88
5107.28
5071.38
5201.25
5452.69
5304.5
5418.44
5598.59
5575.03
5727.98
5723.1
3751.45
3762.98
3774.74
3786.57
3798.48
3810.5
3822.63
3834.91
3847.36
3860
3872.86
3885.98
3899.39
3913.14
3927.26
3941.82
3956.85
3972.41
3988.58
4005.41
4022.98
4041.39
4060.73
4081.1
4102.64
4125.5
4149.87
4175.97
4204.1
4234.62
4267.95
4304.72
4346.1
4401.18
4381.73
4441.26
4420.85
4496.18
4473.15
4559.14
4533.59
4631.73
4603.21
4715.16
4683.6
4810.05
4775.99
4916.44
4880.4
5034.46
4997.04
5164.74
5126.69
5267.33
5543.33
5380.64
5506.14
5706.2
5678.72
5851.08
5844.93
3745.54
3756.98
3768.63
3780.36
3792.17
3804.07
3816.08
3828.22
3840.52
3852.99
3865.68
3878.6
3891.79
3905.3
3919.15
3933.4
3948.09
3963.28
3979.01
3995.36
4012.39
4030.17
4048.79
4068.34
4088.93
4110.68
4133.75
4158.29
4184.57
4212.85
4243.45
4276.86
4314.06
4363.52
4345.62
4408.78
4388.71
4450.86
4429.45
4508.71
4484.46
4575.36
4548.3
4652.6
4622.2
4741.87
4708.01
4843.95
4807.22
4958.96
4920.01
5087.29
5046.75
5228.7
5188.23
5341.25
5643.7
5466.28
5604.88
5825.02
5793.78
5987.69
5980.05
3739.7
3751.05
3762.61
3774.23
3785.93
3797.72
3809.6
3821.61
3833.76
3846.07
3858.58
3871.3
3884.28
3897.55
3911.14
3925.09
3939.45
3954.27
3969.59
3985.48
4001.99
4019.18
4037.13
4055.92
4075.63
4096.37
4118.25
4141.39
4165.99
4192.26
4220.44
4250.89
4284.36
4328.95
4312.76
4369.53
4351.14
4416.87
4395.93
4461.03
4438.54
4521.99
4496.38
4592.53
4563.74
4674.73
4642.15
4770.36
4733.78
4880.42
4840.47
5005.22
4962.6
5145.47
5100.87
5299.97
5255.97
5424.12
5756.8
5562.77
5716.44
5956.96
5923.19
6140.11
6130.69
3734.02
3745.19
3756.66
3768.18
3779.77
3791.45
3803.21
3815.08
3827.08
3839.23
3851.56
3864.09
3876.86
3889.89
3903.22
3916.89
3930.94
3945.4
3960.33
3975.78
3991.79
4008.43
4025.75
4043.83
4062.73
4082.54
4103.35
4125.23
4148.33
4172.8
4198.83
4226.67
4256.93
4290.98
4333.66
4316.75
4375.88
4356.76
4425.26
4403.35
4471.68
4448.01
4535.8
4508.69
4610.4
4579.66
4697.87
4662.79
4800.38
4760.66
4919.26
4875.53
5055.04
5008.05
5208.84
5159.32
5378.89
5330.08
5516.46
5885.03
5670.67
5841.68
6104.5
6069.9
6311.16
6299.77
3739.5
3750.79
3762.22
3773.71
3785.27
3796.9
3808.64
3820.5
3832.49
3844.64
3856.98
3869.54
3882.35
3895.43
3908.82
3922.56
3936.68
3951.23
3966.26
3981.81
3997.92
4014.66
4032.07
4050.22
4069.18
4089.02
4109.78
4131.55
4154.43
4178.56
4204.1
4231.51
4262.02
4304.44
4288.26
4338.53
4321.08
4382.39
4362.43
4433.76
4410.79
4482.62
4457.69
4549.89
4521.17
4628.74
4595.87
4721.79
4683.92
4831.74
4788.41
4960.32
4912.23
5108.37
5056.24
5277.62
5222.32
5465.81
5410.82
5618.69
6029.85
5790.61
5982.16
6271.31
6236.33
6503.61
6490.34
3745.08
3756.34
3767.73
3779.17
3790.69
3802.29
3814.01
3825.85
3837.83
3849.98
3862.33
3874.91
3887.75
3900.87
3914.31
3928.11
3942.3
3956.93
3972.03
3987.65
4003.84
4020.64
4038.1
4056.27
4075.22
4094.98
4115.57
4137.06
4159.53
4183.08
4208
4235.31
4273.25
4258.76
4307.95
4291.38
4343.42
4325.27
4388.89
4368.05
4442.29
4418.21
4493.7
4467.46
4564.14
4533.73
4647.29
4612.07
4746.03
4704.94
4864.04
4816.48
5003.35
4950.06
5165.25
5106.89
5351.96
5289.77
5561.27
5498.3
5731.32
6192.81
5924.4
6140
6461.02
6425.32
6719.39
6704.43
3750.62
3761.82
3773.16
3784.56
3796.04
3807.61
3819.3
3831.12
3843.09
3855.24
3867.6
3880.19
3893.05
3906.21
3919.69
3933.54
3947.79
3962.47
3977.62
3993.29
4009.53
4026.35
4043.8
4061.93
4080.78
4100.32
4120.6
4141.64
4163.49
4186.3
4210.86
4238.63
4275.69
4260.6
4311.29
4294.13
4348.21
4329.3
4395.33
4373.56
4450.89
4425.69
4504.83
4477.28
4578.27
4546.12
4665.43
4627.66
4770.14
4725.36
4896.9
4844.47
5047.94
4988.77
5225.48
5159.65
5431.86
5361.41
5666.58
5551.91
5588.52
5842.93
5807.47
6344.92
6317.14
6053.62
6017.55
5909.01
6132.05
6287.72
6253.45
6675.79
6441.92
6572.77
6596.17
6960.5
6943.69
3756.1
3767.25
3778.53
3789.89
3801.32
3812.86
3824.51
3836.31
3848.26
3860.41
3872.77
3885.38
3898.26
3911.44
3924.96
3938.84
3953.12
3967.83
3983.02
3998.72
4014.96
4031.76
4049.14
4067.14
4085.76
4104.98
4124.8
4145.2
4166.25
4188.5
4213.11
4247.67
4233.79
4277.82
4262.32
4314.32
4296.46
4352.83
4333.1
4401.77
4379
4459.42
4433.19
4515.77
4486.95
4591.62
4557.61
4682.45
4641.68
4793.39
4744.26
4929.7
4871.7
5093.77
5027.8
5288.78
5219.39
5182.73
5515.61
5476.9
5397.82
5438.31
5638.93
5771.88
5732.73
5600.62
5871.95
6414.02
6094.79
5979.92
6216.6
6381.94
6345.74
6708.42
6866.35
6849.36
6547.05
6686.12
7234.98
6995.49
7145.42
7156.41
3761.53
3772.6
3783.84
3795.14
3806.53
3818.02
3829.64
3841.41
3853.35
3865.49
3877.85
3890.46
3903.35
3916.54
3930.08
3943.98
3958.28
3973
3988.2
4003.89
4020.08
4036.8
4054.05
4071.83
4090.13
4108.9
4128.1
4147.71
4168.04
4190.05
4214.08
4248.4
4234.03
4279.53
4263.52
4316.99
4298.37
4357.31
4336.64
4408.25
4384.44
4467.26
4440.24
4525.77
4495.73
4603.14
4567.19
4697.54
4653.45
4815.66
4761.81
4962.54
4898.63
5147.01
5110.97
5075.65
5039.98
5358.03
5317.02
5247.43
5209.5
5561.22
5520.28
5435.6
5478.35
5692.61
5833.06
5791.84
5651.12
5939.77
6517.27
6054.44
6176.35
6306.03
6482.7
6443.62
6830.94
6981.63
6659.21
6807.96
7306.73
7477.11
7474.72
7137.71
7301.02
3766.88
3777.89
3789.06
3800.31
3811.65
3823.1
3834.68
3846.42
3858.33
3870.45
3882.8
3895.41
3908.3
3921.5
3935.04
3948.94
3963.24
3977.95
3993.12
4008.75
4024.86
4041.45
4058.5
4075.99
4093.86
4112.04
4130.48
4149.3
4169.21
4190.4
4220.09
4207.31
4248.57
4233.84
4280.8
4264.21
4319.38
4299.93
4361.7
4339.99
4414.51
4389.81
4473.67
4446.17
4533.92
4502.83
4612.15
4574.12
4710.57
4662.52
4836.64
4777.24
5004.85
4969.73
4935.18
4901.06
5171.58
5133.86
5096.49
5059.1
5392.77
5349.66
5276.87
5236.73
5608.59
5564.67
5474.17
5519.66
5748.46
5897.49
5853.15
5703.47
6010.99
6627.39
6132.71
6262.5
6400.65
6590.24
6548.02
6963.47
7125.82
6779.54
6939.47
7474.85
7660.12
7663.09
7296.09
7477.25
3772.15
3783.1
3794.21
3805.4
3816.68
3828.08
3839.62
3851.32
3863.2
3875.3
3887.63
3900.23
3913.11
3926.3
3939.83
3953.72
3967.98
3982.66
3997.76
4013.3
4029.28
4045.68
4062.46
4079.57
4096.9
4114.37
4132.03
4150.29
4169.38
4188.82
4218.98
4205.92
4248.15
4233.03
4281.61
4264.35
4321.59
4301.19
4366.03
4343.24
4419.91
4394.54
4478.01
4450.32
4539.43
4507.55
4618.19
4578.05
4720.87
4668.49
4867.58
4834.75
4802.54
4771.45
5021.98
4985.1
4948.61
4912.63
5196.68
5156.98
5117.55
5078.18
5428.56
5306.96
5382.9
5264.5
5657.51
5610.32
5513.78
5562.18
5806.37
5965.02
5917.09
5757.73
6085.67
6745.31
6215.22
6353.61
6501.25
6705.25
6659.57
7107.64
7285.09
6908.96
7082.06
7674.52
7901.9
7909.46
7474.28
7681.1
3777.34
3788.22
3799.26
3810.38
3821.61
3832.95
3844.44
3856.1
3867.95
3880.02
3892.33
3904.9
3917.76
3930.93
3944.43
3958.27
3972.49
3987.1
4002.11
4017.52
4033.33
4049.49
4065.92
4082.54
4099.21
4115.95
4132.98
4150.5
4167.92
4192.01
4181.01
4217.32
4204.11
4247.2
4231.67
4281.98
4263.97
4323.62
4302.18
4369.95
4346.25
4423.82
4398.07
4479.89
4452.23
4542.02
4509.55
4620.96
4578.85
4727.5
4670.72
4877.33
4842.71
4808.84
4776.3
5038.99
5000.06
4961.51
4923.49
5222.21
5180.34
5138.71
5097.1
5465.29
5337.67
5416.86
5292.78
5708.06
5657.4
5554.57
5606.05
5866.72
6035.82
5983.85
5814.19
6164.35
6871.73
6302.42
6450.06
6608.38
6828.1
6778.38
7265.57
7461.87
7048.75
7237.22
7919.18
8236.71
8224.96
7675.89
7916.87
3782.44
3793.24
3804.21
3815.27
3826.43
3837.71
3849.14
3860.75
3872.56
3884.59
3896.87
3909.41
3922.24
3935.37
3948.82
3962.6
3976.74
3991.25
4006.14
4021.4
4036.98
4052.83
4068.85
4084.88
4100.83
4116.93
4133.3
4149.46
4164.71
4189.51
4178.46
4215.09
4201.69
4245.79
4229.77
4281.99
4263.17
4325.13
4302.75
4372.94
4348.57
4425.73
4399.86
4479.65
4452.1
4541.87
4509.18
4620.16
4576.33
4745.95
4713.98
4655.13
4683.74
4886.24
4849.72
4813.99
4779.45
5055.64
5014.45
4973.66
4933.47
5248.07
5203.79
5159.73
5115.65
5502.98
5368.96
5451.57
5321.45
5760.45
5706.1
5596.54
5651.39
5929.5
6110.25
6053.51
5872.76
6247.26
7007.81
6394.36
6552.2
6722.29
6959.8
6905.11
7439.09
7658.35
7200.24
7406.29
8206.08
8581.14
8556.32
7902.22
8182.02
3787.45
3798.17
3809.06
3820.04
3831.13
3842.34
3853.71
3865.27
3877.03
3889.02
3901.26
3913.75
3926.53
3939.6
3952.97
3966.67
3980.71
3995.1
4009.84
4024.9
4040.21
4055.71
4071.23
4086.55
4101.87
4117.38
4132.71
4147.21
4166.09
4157.38
4186.59
4175.75
4212.35
4198.76
4243.95
4227.41
4281.63
4262
4325.68
4302.62
4374.52
4349.74
4425.62
4399.73
4477.41
4450.01
4539.07
4506.65
4629.23
4604.91
4570.54
4746.82
4713.42
4652.69
4681.95
4894.14
4855.65
4818.05
4781.75
5071.7
5028.05
4984.88
4942.42
5274.1
5227.15
5180.38
5133.57
5541.63
5400.76
5486.97
5350.35
5814.74
5756.54
5639.64
5698.18
5994.62
6188.29
6126.37
5933.45
6334.3
7154.77
6491.4
6660.54
6843.57
7101.42
7040.79
7629.56
7875.53
7364.17
7590.47
8512.57
8873.92
8858.67
8151.28
8466.89
3792.36
3802.99
3813.8
3824.69
3835.69
3846.84
3858.14
3869.64
3881.34
3893.28
3905.47
3917.91
3930.62
3943.6
3956.89
3970.48
3984.39
3998.63
4013.19
4028.02
4043.05
4058.14
4072.99
4087.65
4102.46
4117.17
4131.28
4144.26
4163.61
4155.18
4183.43
4172.91
4209.23
4195.49
4241.72
4224.64
4280.8
4260.45
4324.98
4301.57
4374.31
4349.34
4423.58
4397.67
4473.22
4445.96
4533.91
4502.04
4626.04
4601.85
4575.26
4554.38
4746.53
4711.75
4649.11
4679.15
4900.96
4860.46
4820.99
4782.98
5086.94
5040.68
4995.02
4950.24
5300.07
5250.15
5200.4
5150.65
5581.12
5432.93
5522.94
5379.27
5871.12
5808.79
5683.78
5746.38
6062.5
6270.15
6202.83
5996.82
6425.86
7312.95
6593.81
6775.72
6973.04
7253.23
7185.77
7837.86
8111.96
7541.49
7790.19
8815.54
9145.49
9140.57
8418.63
8760.4
3797.16
3807.7
3818.41
3829.21
3840.12
3851.18
3862.42
3873.85
3885.5
3897.38
3909.5
3921.87
3934.49
3947.38
3960.54
3973.99
3987.75
4001.83
4016.2
4030.82
4045.51
4059.98
4074.15
4088.34
4102.52
4116.3
4129.31
4145.71
4138.48
4161.28
4153.23
4180.33
4170.18
4205.89
4192.15
4239.14
4221.58
4279.35
4258.47
4322.9
4299.48
4372.2
4347.22
4419.55
4393.61
4466.87
4439.69
4537.23
4520.15
4495.04
4621.88
4597.35
4569.85
4549.93
4745.12
4709
4644.51
4675.31
4906.63
4864.12
4822.79
4783.08
5101.15
5052.18
5003.99
4956.88
5325.71
5272.52
5219.55
5166.66
5621.35
5465.3
5559.34
5407.96
5929.93
5862.87
5728.93
5795.92
6133.53
6356.12
6282.98
6062.94
6522.1
7483.06
6702.13
6898.23
7110.62
7415.76
7340.25
8063.32
8364.94
7732.88
8005.16
9110.28
9430.43
9431.98
8699.11
9056.11
3801.86
3812.28
3822.88
3833.58
3844.4
3855.38
3866.54
3877.91
3889.49
3901.3
3913.34
3925.62
3938.14
3950.9
3963.92
3977.22
3990.81
4004.73
4018.95
4033.27
4047.4
4061.21
4074.87
4088.55
4102.02
4114.95
4127.12
4143.97
4136.9
4159.09
4151.29
4177.53
4167.69
4202.67
4189.08
4236.27
4218.42
4277.13
4255.97
4319.44
4296.28
4368.2
4343.45
4413.32
4387.51
4467.18
4453.47
4430.73
4532.34
4515.79
4480.79
4496.18
4616.77
4592
4563.87
4544.45
4742.59
4705.17
4638.94
4670.46
4911.11
4866.61
4823.44
4782.05
5114.2
5062.47
5011.73
4962.27
5350.75
5294.01
5237.6
5181.46
5662.22
5497.7
5595.91
5436.18
5991.02
5918.74
5775.16
5846.85
6207.78
6446.25
6367.08
6131.58
6623.59
7665.76
6816.99
7027.91
7256.37
7589.46
7504.62
8303.79
8631.76
7937.63
8234.11
9408.37
9753.55
9751.32
8987.51
9354.91
3806.43
3816.73
3827.22
3837.81
3848.53
3859.42
3870.5
3881.8
3893.31
3905.04
3917
3929.17
3941.55
3954.17
3967.02
3980.14
3993.58
4007.39
4021.35
4035.18
4048.7
4061.95
4075.17
4088.3
4101.08
4113.35
4128.8
4122.21
4142.3
4135.46
4157.03
4149.41
4175.11
4165.46
4199.81
4186.44
4233.19
4215.4
4274.05
4252.9
4314.65
4291.95
4362.44
4338.16
4404.9
4379.5
4461.66
4447.9
4429.02
4415.96
4527.11
4511.09
4475.59
4490.29
4610.75
4585.83
4557.18
4538.2
4738.94
4700.3
4632.45
4664.62
4914.36
4867.89
4822.9
4779.87
5125.96
5071.45
5018.16
4966.36
5375
5314.45
5254.42
5194.92
5703.62
5529.74
5632.3
5463.7
6054.24
5976.51
5822.22
5899.22
6285.71
6541.07
6455.41
6203.27
6730.77
7860.45
6938.48
7164.97
7411.18
7774.08
7679.1
8557.29
8909
8155.23
8475.28
9720.2
10093
10083.7
9280.95
9660.57
3810.87
3821.03
3831.4
3841.87
3852.49
3863.29
3874.3
3885.52
3896.95
3908.6
3920.45
3932.48
3944.72
3957.15
3969.82
3982.77
3996.14
4009.74
4023.29
4036.53
4049.47
4062.3
4075.07
4087.69
4099.96
4111.68
4127.45
4120.95
4140.63
4133.98
4155.01
4147.56
4172.96
4163.35
4197.34
4184.19
4230.01
4212.61
4270.11
4249.33
4308.61
4286.6
4355.07
4331.45
4403.22
4390.89
4369.75
4455.63
4442.16
4422.65
4409.8
4521.15
4505.35
4469.43
4483.82
4603.92
4578.9
4549.81
4531.17
4734.26
4694.48
4625.14
4657.91
4916.33
4867.93
4821.19
4776.57
5136.35
5079.04
5023.18
4969.07
5398.31
5333.76
5269.9
5206.94
5745.14
5561.06
5668.14
5490.24
6120.09
6036.36
5869.46
5952.79
6367.37
6640.79
6547.94
6278.07
6843.92
8066.75
7067.2
7310.49
7575.6
7969.43
7863.35
8822.1
9193.67
8384.73
8727.5
10041.4
10398.6
10394.9
9580.08
9972.84
3815.15
3825.18
3835.41
3845.76
3856.28
3866.99
3877.92
3889.07
3900.42
3911.97
3923.68
3935.56
3947.61
3959.84
3972.32
3985.21
3998.44
4011.72
4024.73
4037.41
4049.92
4062.34
4074.74
4086.98
4098.86
4110.02
4126.13
4119.88
4138.93
4132.47
4153
4145.67
4170.94
4161.31
4195.09
4182.13
4226.74
4209.95
4265.42
4245.34
4301.54
4280.42
4346.23
4323.49
4397.18
4384.77
4356.18
4367.37
4448.91
4435.66
4415.9
4403.3
4514.39
4498.76
4462.49
4476.59
4596.31
4571.28
4541.69
4523.35
4728.58
4687.84
4617.08
4650.46
4916.97
4866.74
4818.33
4772.16
5145.25
5085.11
5026.72
4970.35
5420.49
5351.71
5283.89
5217.38
5786.07
5591.44
5702.95
5515.68
6188.26
6097.73
5916.37
6006.93
6452.74
6745.97
6645.3
6355.89
6964.17
8284.65
7203.58
7464.64
7749.13
8175.32
8057.38
9096.14
9484.54
8624.76
8990.25
10356.2
10677.8
10681.5
9884.14
10284.9
3819.27
3829.15
3839.24
3849.47
3859.89
3870.52
3881.38
3892.45
3903.71
3915.13
3926.69
3938.38
3950.21
3962.23
3974.64
3987.49
4000.49
4013.3
4025.79
4038.02
4050.13
4062.27
4074.44
4086.37
4097.7
4111.76
4118.66
4105.86
4124.83
4137.27
4131
4151.04
4143.83
4168.9
4159.29
4192.76
4180.02
4223.29
4207.18
4260.16
4241.01
4293.76
4273.65
4336.38
4314.67
4390.97
4378.99
4350.2
4361.59
4441.67
4428.67
4408.95
4396.66
4506.81
4491.34
4454.98
4468.77
4587.94
4562.92
4532.91
4514.88
4721.99
4680.39
4608.32
4642.29
4916.24
4864.29
4814.35
4766.74
5152.54
5089.59
5028.7
4970.09
5441.28
5368.04
5296.17
5226.09
5826.08
5620.56
5736.39
5539.65
6258.35
6160.29
5962.87
6061.6
6542.09
6857.31
6747.35
6436.69
7091.2
8512.86
7347.2
7627.05
7931.2
8391.4
8260.86
9377.56
9780.12
8875.06
9260.9
10656.5
10946.7
10952.1
10190.8
10590.5
3823.22
3832.94
3842.88
3852.99
3863.31
3873.87
3884.67
3895.66
3906.81
3918.09
3929.46
3940.92
3952.52
3964.45
3976.89
3989.62
4002.24
4014.59
4026.6
4038.46
4050.34
4062.35
4074.22
4085.63
4096.41
4117.71
4110.88
4104.94
4123.71
4135.83
4129.72
4149.29
4142.24
4166.83
4157.39
4190.19
4177.75
4219.53
4204.12
4254.46
4236.35
4285.7
4266.61
4334.06
4323.76
4305.59
4384.69
4373.03
4344.82
4355.87
4434.18
4421.47
4402.05
4390.12
4498.57
4483.27
4447.2
4460.68
4578.87
4553.89
4523.68
4505.94
4714.56
4672.19
4599
4633.49
4914
4860.4
4809.15
4760.36
5158.07
5092.29
5028.9
4968.1
5460.36
5382.5
5306.48
5232.72
5864.83
5648.01
5768.04
5561.61
6330.16
6223.3
6008.22
6115.71
6634.69
6974.15
6853.47
6519.55
7223.92
8750.47
7497.73
7797.12
8121.93
8616.79
8473.91
9664.17
10079.4
9134.17
9537.3
10941.4
11209
11214
10495.7
10887.1
3826.97
3836.52
3846.31
3856.3
3866.55
3877.06
3887.8
3898.71
3909.73
3920.82
3931.96
3943.18
3954.66
3966.68
3979.11
3991.56
4003.78
4015.66
4027.31
4038.94
4050.73
4062.45
4073.81
4084.68
4095.11
4116.8
4110.06
4104.24
4122.72
4134.7
4128.66
4147.91
4141.01
4164.91
4155.78
4187.43
4175.46
4215.47
4200.77
4248.5
4231.43
4277.96
4259.79
4328.94
4318.42
4294.51
4303.94
4378.48
4367.09
4339.57
4350.38
4426.75
4414.29
4395.58
4383.96
4489.87
4474.82
4439.45
4452.58
4569.28
4544.38
4514.11
4496.73
4706.3
4663.29
4589.31
4624.16
4910.06
4854.88
4802.54
4752.9
5161.44
5092.78
5026.91
4964.01
5477.15
5394.54
5314.24
5236.69
5901.8
5673.34
5797.44
5581.24
6402.87
6285.79
6046.67
6168.11
6729.96
7095.14
6962.37
6603.53
7361.73
8997.37
7655.06
7974.52
8321.56
8851.23
8696.34
9955.21
10380.6
9399.76
9818.8
11214.3
11467.9
11473.2
10796.6
11176.2
3830.51
3839.87
3849.52
3859.42
3869.63
3880.11
3890.79
3901.59
3912.44
3923.3
3934.19
3945.26
3956.85
3968.97
3981.24
3993.35
4005.13
4016.63
4028.03
4039.55
4051.04
4062.28
4073.14
4083.58
4096.87
4103.36
4091.27
4115.93
4109.22
4121.83
4133.81
4127.76
4146.92
4140.11
4163.3
4154.55
4184.69
4173.34
4211.3
4197.35
4242.58
4226.42
4290.06
4276.9
4268.22
4253.24
4324.15
4313.9
4299.77
4372.58
4361.39
4334.61
4345.27
4419.69
4407.51
4389.72
4378.35
4480.97
4466.33
4432.08
4444.83
4559.35
4534.51
4504.47
4487.49
4697.19
4653.82
4579.49
4614.47
4904.21
4847.64
4794.36
4744.19
5162.06
5090.48
5022.17
4957.31
5491.31
5403.6
5318.84
5237.45
5930
5695.91
5821.4
5593.71
6475.16
6344.48
6100.33
6217.47
6827.06
7219.52
7073.18
6684.37
7505.13
9252.26
7818.94
8159.76
8531.38
9095.35
8929.76
10250
10681
9671.7
10106.1
11478.2
11723.2
11731.9
11092.9
11456.8
3833.81
3842.98
3852.5
3862.36
3872.56
3883.03
3893.63
3904.28
3914.91
3925.52
3936.22
3947.4
3959.17
3971.25
3983.25
3994.96
4006.35
4017.56
4028.77
4040
4051.06
4061.83
4072.26
4082.29
4102.58
4096.05
4090.39
4115.08
4108.37
4120.98
4133.06
4126.95
4146.19
4139.41
4162.03
4153.64
4182.19
4171.51
4207.24
4194.1
4236.96
4221.56
4286.14
4273.21
4264.39
4244.22
4252.07
4319.76
4309.65
4295.67
4367.14
4356.11
4330.06
4340.56
4413.21
4401.34
4384.32
4373.14
4472.23
4458.14
4425.31
4437.68
4549.4
4524.56
4495.1
4478.56
4686.98
4643.69
4569.62
4604.46
4895.99
4838.26
4784.26
4733.92
5159.53
5085.03
5014.24
4947.5
5496.93
5406.02
5318.7
5234.82
5931.84
5719.38
5826.12
5626.41
6544.06
6415.49
6082.6
6235.03
6926.58
7345.32
7181.54
6777.27
7654.35
9514.58
7989.61
8354.98
8757.71
9348.14
9172.51
10547.3
10979.9
9950.98
10399
11739.1
11971.3
11992.8
11385.7
11728.1
3836.82
3845.81
3855.26
3865.15
3875.38
3885.81
3896.3
3906.75
3917.12
3927.51
3938.3
3949.71
3961.55
3973.43
3985.08
3996.39
4007.43
4018.36
4029.29
4040.13
4050.78
4061.15
4071.21
4080.95
4101.73
4095.24
4089.68
4114.21
4107.48
4120.11
4132.26
4126.1
4145.44
4138.66
4160.85
4152.77
4179.82
4169.82
4203.07
4190.89
4230.72
4216.38
4282.28
4269.26
4260.54
4240.56
4248.4
4315.42
4305.43
4291.65
4362.1
4351.24
4325.62
4336
4407.22
4395.66
4379.13
4368.12
4463.95
4450.49
4419.02
4431.05
4539.64
4514.92
4486.12
4470.15
4675.23
4632.57
4559.61
4593.95
4884.78
4826.15
4771.85
4721.72
5154.53
5077.65
5004.84
4936.8
5489.11
5400.15
5314.18
5230.68
5928.98
5729.73
5823.44
5611.32
6570.86
6399.29
6079.45
6232.58
7034.38
7481.7
7230.37
6761.86
7812.61
9786.1
8170.19
8564.2
8996.34
9610.76
9422.99
10845.4
11277.8
10238.7
10695.2
12008
12196.5
12262.7
11672.5
12004.3
3839.5
3848.37
3857.84
3867.81
3878.05
3888.39
3898.7
3908.91
3919.06
3929.5
3940.56
3952.12
3963.85
3975.43
3986.68
3997.57
4008.25
4018.89
4029.5
4039.99
4050.27
4060.3
4070.05
4079.5
4088.81
4100.86
4094.38
4113.28
4106.54
4119.15
4131.28
4125.13
4144.39
4137.67
4159.32
4151.56
4177.09
4167.8
4198.44
4187.27
4224.01
4210.67
4278.24
4265.14
4256.61
4236.78
4244.42
4311.12
4301.27
4287.49
4357.25
4346.55
4321.2
4331.44
4401.51
4390.24
4373.89
4363.08
4456.25
4443.39
4412.99
4424.67
4530.02
4505.58
4477.5
4462.12
4661.45
4619.76
4549.24
4582.48
4873.35
4814.47
4759.31
4707.48
5150.2
5072.73
4999.48
4931.43
5486.39
5397.52
5311.62
5228.17
5926.42
5727.56
5821.01
5608.18
6568.42
6396.05
6076.8
6230.07
7022.3
7470.56
7228.2
6758.7
7806.39
10068.2
8168.08
8567.33
9227.53
8910.04
9894.93
9693.63
11145.1
11574.6
10532.4
10994.3
12291.3
12465.9
12584.4
11959.6
12289.8
3841.76
3850.65
3860.22
3870.26
3880.47
3890.69
3900.8
3910.8
3920.96
3931.68
3942.95
3954.49
3965.97
3977.14
3987.93
3998.39
4008.77
4019.15
4029.45
4039.62
4049.58
4059.32
4068.79
4077.98
4088.06
4087.15
4099.95
4093.5
4112.28
4105.57
4118.09
4130.1
4124.02
4142.93
4136.38
4157.24
4149.85
4173.74
4165.18
4193.1
4183
4221.44
4232.75
4215.18
4204.13
4273.96
4260.73
4252.41
4240.14
4306.66
4296.96
4283.07
4352.39
4341.84
4316.59
4326.67
4395.84
4384.82
4368.39
4357.79
4448.89
4436.57
4406.97
4418.26
4520.5
4496.58
4469.02
4454.26
4646.56
4606.04
4537.59
4569.36
4868.39
4810.13
4735.02
4689.9
5147.75
5070.33
4997.14
4929.19
5484.07
5395.27
5309.44
5226.03
5924.22
5725.44