/*--------------------------------*- C++ -*----------------------------------*\
  =========                 |
  \\      /  F ield         | OpenFOAM: The Open Source CFD Toolbox
   \\    /   O peration     | Website:  https://openfoam.org
    \\  /    A nd           | Version:  dev
     \\/     M anipulation  |
\*---------------------------------------------------------------------------*/
FoamFile
{
    version     2.0;
    format      ascii;
    class       volScalarField;
    location    "2500";
    object      H2O;
}
// * * * * * * * * * * * * * * * * * * * * * * * * * * * * * * * * * * * * * //

dimensions      [0 0 0 0 0 0 0];

internalField   nonuniform List<scalar> 
9844
(
5.007e-33
2.00092e-32
1.12679e-32
4.97054e-32
4.64991e-32
1.08498e-32
1.13701e-31
1.33439e-31
5.44122e-32
3.72154e-33
2.01962e-31
3.88831e-31
1.75643e-31
3.24974e-32
1.11814e-33
9.11104e-31
1.40431e-30
6.11449e-31
1.80375e-31
1.72404e-32
1.39194e-33
3.04111e-30
3.78985e-30
2.14764e-30
5.24142e-31
1.31048e-31
1.31055e-32
2.67109e-34
8.0813e-30
1.06589e-29
6.37971e-30
2.41473e-30
3.8362e-31
6.92634e-32
4.33232e-33
1.88365e-34
1.88121e-29
3.44815e-29
1.79324e-29
7.43421e-30
1.68767e-30
3.50926e-31
3.8468e-32
1.90712e-33
5.11823e-35
7.29888e-29
1.14739e-28
7.2159e-29
2.82738e-29
7.94297e-30
1.3603e-30
1.82812e-31
2.23097e-32
1.00668e-33
3.86158e-35
1.67571e-28
3.12643e-28
1.91387e-28
9.59498e-29
2.89106e-29
6.34209e-30
9.44832e-31
1.17451e-31
8.19661e-33
4.57821e-34
4.66763e-36
2.99503e-28
7.87796e-28
6.64031e-28
3.01687e-28
9.49235e-29
2.45484e-29
4.52594e-30
4.53346e-31
3.40567e-32
3.4528e-33
1.18825e-34
1.02822e-36
2.08874e-28
1.70512e-27
1.90134e-27
8.51914e-28
3.55241e-28
8.90603e-29
2.01075e-29
2.35118e-30
2.04467e-31
1.52465e-32
1.13263e-33
3.4047e-35
8.71954e-37
5.96375e-28
3.0377e-27
4.98085e-27
2.91463e-27
1.13111e-27
3.27926e-28
7.00252e-29
1.30691e-29
1.38498e-30
1.4449e-31
5.92243e-33
3.77936e-34
1.13702e-35
1.0982e-36
1.86059e-27
9.23619e-27
1.26306e-26
8.36602e-27
3.69799e-27
1.07017e-27
1.97391e-28
3.50856e-29
7.17519e-30
7.96737e-31
6.50057e-32
2.66382e-33
1.03722e-34
1.33714e-35
8.47435e-36
1.55379e-26
2.21006e-26
4.13807e-26
2.66824e-26
1.24022e-26
3.7735e-27
7.50714e-28
1.17874e-28
2.21489e-29
3.32475e-30
2.90234e-31
2.16321e-32
1.11052e-33
1.2507e-34
1.47142e-34
2.03549e-34
9.34809e-26
8.72181e-26
1.3076e-25
7.83917e-26
3.66025e-26
1.18841e-26
3.22594e-27
4.80737e-28
8.41599e-29
1.15507e-29
1.83411e-30
1.22674e-31
6.92076e-33
6.52152e-34
9.4431e-34
1.29435e-33
2.22825e-33
1.88866e-25
4.80311e-25
3.86845e-25
3.05297e-25
1.21634e-25
3.59603e-26
1.08385e-26
2.50026e-27
3.43893e-28
4.72895e-29
6.46456e-30
6.13734e-31
4.83054e-32
4.61638e-33
6.75322e-33
1.2658e-32
2.27088e-32
2.21325e-32
1.45404e-25
1.16211e-24
1.26995e-24
7.74447e-25
4.33766e-25
1.21984e-25
3.7973e-26
9.25217e-27
1.25987e-27
1.47655e-28
2.12624e-29
2.88948e-30
2.10029e-31
3.3547e-32
4.25118e-32
9.19614e-32
1.53189e-31
3.04805e-31
8.08297e-32
5.73682e-25
2.36536e-24
3.67049e-24
3.11032e-24
1.80037e-24
5.20474e-25
1.21541e-25
3.6348e-26
5.33038e-27
6.37044e-28
9.87282e-29
1.07893e-29
9.05502e-31
1.56801e-31
1.96449e-31
5.77098e-31
1.08019e-30
2.05699e-30
2.73358e-30
9.05514e-31
5.02623e-25
3.54459e-24
7.11264e-24
8.49742e-24
4.04392e-24
2.25877e-24
6.03474e-25
1.34023e-25
2.86163e-26
3.24136e-27
3.14841e-28
3.34625e-29
5.46412e-30
6.59658e-31
7.05546e-31
2.75278e-30
6.04954e-30
9.52468e-30
1.78619e-29
2.46961e-29
1.6952e-29
5.04705e-25
5.16582e-24
8.67735e-24
1.87499e-23
1.46343e-23
6.20378e-24
2.1681e-24
5.47815e-25
1.13504e-25
1.99961e-26
1.66694e-27
1.37047e-28
1.64005e-29
3.04513e-30
3.19795e-30
8.31495e-30
3.00626e-29
5.69823e-29
8.67298e-29
1.54655e-28
2.11792e-28
1.98317e-28
1.18432e-24
4.92874e-24
1.56564e-23
2.67382e-23
3.63997e-23
1.65728e-23
5.42789e-24
1.9534e-24
4.00667e-25
8.1513e-26
1.30138e-26
8.5958e-28
7.21969e-29
1.13476e-29
1.02996e-29
4.18716e-29
1.23626e-28
2.80322e-28
5.25304e-28
7.66343e-28
1.35429e-27
1.84814e-27
2.12704e-27
5.96493e-24
1.01599e-23
4.10171e-23
6.32722e-23
7.96694e-23
5.5665e-23
1.53296e-23
5.36753e-24
1.67522e-24
2.91362e-25
4.97877e-26
5.25563e-27
5.23882e-28
4.36244e-29
3.27049e-29
1.18478e-28
4.69235e-28
1.35012e-27
2.94979e-27
4.20846e-27
4.99963e-27
1.99481e-26
2.92813e-26
2.07728e-26
3.03745e-24
3.96849e-23
7.98602e-23
1.01624e-22
1.44823e-22
1.26904e-22
5.53257e-23
1.49238e-23
4.81249e-24
1.06779e-24
1.38346e-25
3.06296e-26
2.96927e-27
1.87238e-28
9.33476e-29
3.83583e-28
1.51249e-27
5.38437e-27
1.15419e-26
2.7684e-26
3.23996e-26
7.21764e-26
2.50805e-25
3.33387e-25
1.10015e-25
2.91852e-24
5.76738e-23
1.45049e-22
2.01522e-22
2.95552e-22
2.36507e-22
1.50628e-22
5.1707e-23
1.39861e-23
2.61164e-24
5.52268e-25
9.00834e-26
1.45031e-26
1.3588e-27
2.46038e-28
8.30357e-28
3.74574e-27
1.68481e-26
5.50983e-26
1.28383e-25
3.0793e-25
4.80089e-25
1.52615e-24
3.05099e-24
3.07799e-24
1.47075e-24
2.11363e-24
6.09402e-23
1.74234e-22
3.68245e-22
4.76386e-22
4.76989e-22
2.98231e-22
1.39297e-22
4.23361e-23
8.75933e-24
1.57878e-24
2.5948e-25
4.87237e-26
5.51322e-27
7.13032e-28
1.53139e-27
9.03677e-27
3.74416e-26
1.73551e-25
4.86227e-25
1.44048e-24
3.17274e-24
1.20234e-23
2.62387e-23
3.49813e-23
4.27169e-23
1.81609e-23
1.53706e-24
4.36253e-23
2.18344e-22
5.10711e-22
6.84577e-22
8.03735e-22
6.94556e-22
3.18248e-22
1.15451e-22
3.51917e-23
6.18665e-24
1.01796e-24
1.83467e-25
1.83063e-26
2.92717e-27
4.97225e-27
2.02599e-26
1.07917e-25
4.63738e-25
1.57921e-24
5.42296e-24
1.77931e-23
8.18733e-23
3.12937e-22
4.11046e-22
7.28586e-22
5.22974e-22
2.37417e-22
2.86859e-24
3.20166e-23
1.26894e-22
5.3173e-22
1.18043e-21
1.25891e-21
1.30764e-21
7.31433e-22
2.31045e-22
9.26393e-23
2.24807e-23
3.36706e-24
6.40163e-25
9.2039e-26
8.52926e-27
1.26729e-26
5.72093e-26
2.861e-25
1.04535e-24
3.69399e-24
1.54393e-23
7.85446e-23
4.18442e-22
2.67956e-21
7.54796e-21
8.73109e-21
1.3516e-20
7.63393e-21
3.56258e-21
3.97797e-24
1.55186e-23
1.45351e-22
6.30283e-22
1.23595e-21
2.05379e-21
2.14837e-21
1.47883e-21
6.39355e-22
1.98729e-22
6.25951e-23
1.4496e-23
2.01549e-24
3.35263e-25
5.10936e-26
3.40748e-26
1.65555e-25
7.10609e-25
2.97705e-24
1.63131e-23
6.24118e-23
3.74094e-22
2.24796e-21
1.557e-20
7.39741e-20
1.57802e-19
1.70515e-19
2.08771e-19
1.21081e-19
3.13415e-20
1.56213e-23
3.5383e-23
9.23343e-23
5.31078e-22
1.69424e-21
3.47472e-21
2.99156e-21
2.58098e-21
1.44531e-21
4.88705e-22
1.4779e-22
3.78369e-23
7.27505e-24
1.20447e-24
1.41296e-25
9.46944e-26
4.15136e-25
1.90077e-24
9.42193e-24
3.51777e-23
2.09144e-22
1.684e-21
1.27046e-20
9.00294e-20
4.46432e-19
1.77922e-18
2.62342e-18
3.27007e-18
2.42555e-18
1.34443e-18
3.87481e-19
3.0793e-23
9.96716e-23
2.38223e-22
4.50448e-22
2.2621e-21
4.39605e-21
4.66073e-21
5.0672e-21
2.7991e-21
1.13662e-21
2.97509e-22
9.51846e-23
2.14892e-23
3.06974e-24
5.40183e-25
1.71063e-25
9.83332e-25
4.22265e-24
2.33886e-23
9.55624e-23
4.72249e-22
4.48058e-21
7.31494e-20
7.01878e-19
3.53593e-18
1.20338e-17
3.32407e-17
4.68501e-17
4.49491e-17
3.3292e-17
1.19102e-17
1.76946e-18
1.2378e-22
2.26471e-22
4.73398e-22
7.38889e-22
2.07694e-21
5.00925e-21
6.39965e-21
7.49797e-21
5.20721e-21
2.51405e-21
8.40701e-22
2.17134e-22
4.5578e-23
1.10975e-23
1.09734e-24
4.19874e-25
1.99831e-24
1.09153e-23
5.11854e-23
2.28783e-22
1.12684e-21
1.47903e-20
2.18331e-19
3.48896e-18
2.39602e-17
1.0313e-16
2.6394e-16
4.58055e-16
5.80587e-16
5.66332e-16
2.82448e-16
7.21135e-17
1.11783e-17
4.25298e-22
7.55347e-22
8.39588e-22
1.72424e-21
2.88813e-21
6.59739e-21
1.01562e-20
1.04654e-20
8.99522e-21
4.60361e-21
1.72827e-21
5.09111e-22
1.42448e-22
2.83345e-23
4.14128e-24
1.17753e-24
3.955e-24
2.54524e-23
1.0613e-22
6.49163e-22
2.87923e-21
3.0493e-20
5.95412e-19
1.0162e-17
1.40187e-16
5.67375e-16
1.99615e-15
5.51161e-15
9.35546e-15
9.75883e-15
5.89367e-15
2.02576e-15
4.05654e-16
8.52898e-18
1.14688e-16
7.65215e-22
3.1238e-21
2.21899e-21
3.79573e-21
4.91924e-21
8.04161e-21
1.07128e-20
1.3738e-20
1.23769e-20
8.67532e-21
3.44981e-21
1.05405e-21
3.2165e-22
8.14019e-23
1.52793e-23
3.18383e-24
6.18183e-24
5.07921e-23
2.44148e-22
1.48837e-21
6.6526e-21
5.29398e-20
1.46724e-18
3.26001e-17
4.83586e-16
3.38895e-15
1.45123e-14
5.27872e-14
1.26678e-13
1.79393e-13
1.45886e-13
6.95986e-14
1.19734e-14
8.54876e-16
9.84516e-15
4.65616e-17
4.94093e-16
6.50943e-21
9.88856e-21
1.07634e-20
9.35115e-21
7.44036e-21
1.02294e-20
1.45356e-20
2.07438e-20
2.23607e-20
1.52133e-20
6.88676e-21
2.68632e-21
7.07732e-22
1.732e-22
4.26608e-23
9.28228e-24
1.14008e-23
9.91558e-23
5.46478e-22
2.46153e-21
1.49147e-20
1.09105e-19
2.10099e-18
7.13655e-17
1.60054e-15
1.81361e-14
9.24828e-14
4.12943e-13
1.3049e-12
2.62593e-12
3.06824e-12
1.96609e-12
2.1977e-13
1.28247e-12
9.43856e-14
1.07224e-12
9.58769e-13
6.33793e-15
7.21028e-14
1.88119e-16
3.25232e-15
2.97083e-20
3.14102e-20
3.30606e-20
2.62332e-20
1.59753e-20
1.87542e-20
2.00392e-20
2.39218e-20
3.1408e-20
2.48051e-20
1.44607e-20
5.3338e-21
1.73608e-21
4.53013e-22
1.07056e-22
2.54014e-23
3.48457e-23
1.5303e-22
1.17215e-21
5.24465e-21
2.85227e-20
1.88445e-19
3.34488e-18
9.47482e-17
3.29984e-15
7.16751e-14
4.12678e-13
2.41038e-12
1.01683e-11
2.80942e-11
4.8472e-11
4.93736e-11
6.30814e-12
3.88095e-11
7.61773e-12
7.82997e-13
8.2013e-12
7.78391e-12
4.52852e-14
5.56229e-13
9.58336e-16
2.33481e-14
1.10513e-19
1.78345e-19
1.56577e-19
1.04881e-19
4.66954e-20
3.66302e-20
2.85884e-20
3.30942e-20
4.25469e-20
3.74577e-20
2.30042e-20
1.06758e-20
3.43956e-21
9.67326e-22
2.36859e-22
6.76274e-23
7.14714e-23
2.66063e-22
1.78064e-21
9.5386e-21
4.31875e-20
2.81598e-19
5.33163e-18
1.51234e-16
4.04273e-15
1.28457e-13
2.32716e-12
9.82825e-12
5.60733e-11
2.18519e-10
5.39336e-10
8.2506e-10
2.04765e-10
1.00367e-09
5.34221e-11
3.34813e-10
6.59357e-11
6.22036e-12
7.00741e-11
6.30647e-11
3.41437e-13
4.28957e-12
6.9469e-15
1.72039e-13
5.65298e-19
7.87035e-19
5.85633e-19
3.85352e-19
1.74174e-19
8.54416e-20
5.76841e-20
5.73828e-20
6.69834e-20
5.56875e-20
3.75786e-20
1.951e-20
6.70544e-21
1.88286e-21
5.8542e-22
1.67249e-22
1.70603e-22
5.68763e-22
2.95641e-21
1.99888e-20
9.284e-20
5.20302e-19
6.68148e-18
2.29739e-16
7.08212e-15
1.54616e-13
3.0166e-12
4.11372e-11
2.17766e-10
1.18565e-09
4.12308e-09
9.35267e-09
4.15096e-09
1.57275e-08
1.8085e-09
8.46004e-09
4.6144e-10
2.8387e-09
5.59329e-10
4.88051e-11
5.72911e-10
5.00675e-10
2.56288e-12
3.2579e-11
5.1387e-14
1.26933e-12
2.31975e-18
4.40672e-18
2.48466e-18
1.90485e-18
8.97959e-19
3.69148e-19
1.65622e-19
1.08459e-19
9.52611e-20
8.22913e-20
5.71478e-20
3.21057e-20
1.28345e-20
3.68128e-21
1.14844e-21
4.14298e-22
3.77912e-22
1.37539e-21
4.83816e-21
3.57728e-20
1.78477e-19
1.0307e-18
9.03571e-18
2.49072e-16
1.00762e-14
3.0802e-13
4.54567e-12
6.56955e-11
8.68503e-10
4.42903e-09
2.20625e-08
6.76417e-08
5.02878e-08
1.54864e-07
3.45781e-08
1.23768e-07
1.48982e-08
6.70524e-08
3.8425e-09
2.28683e-08
4.53952e-09
3.74619e-10
4.53733e-09
3.85873e-09
1.88743e-11
2.40984e-10
3.80473e-13
9.16314e-12
2.38103e-17
2.69254e-17
1.79636e-17
9.6821e-18
3.82428e-18
1.46699e-18
4.64576e-19
1.99034e-19
1.48466e-19
1.23636e-19
8.86585e-20
5.12125e-20
2.39239e-20
8.01044e-21
2.51333e-21
8.22072e-22
8.43179e-22
2.19438e-21
1.22583e-20
6.42772e-20
4.16114e-19
1.74864e-18
1.03845e-17
2.38723e-16
1.01859e-14
4.03907e-13
1.18551e-11
1.21706e-10
1.35695e-09
1.63893e-08
7.93349e-08
3.5603e-07
4.16059e-07
1.0489e-06
3.95231e-07
1.12533e-06
2.617e-07
8.90106e-07
1.1514e-07
4.91277e-07
3.04123e-08
1.72603e-07
3.51791e-08
2.79089e-09
3.44856e-08
2.86771e-08
1.34505e-10
1.72066e-09
2.79954e-12
6.42616e-11
1.09777e-16
1.49846e-16
1.06111e-16
4.26249e-17
1.84774e-17
6.63985e-18
2.10689e-18
6.29212e-19
2.73402e-19
1.81523e-19
1.40907e-19
8.43616e-20
4.13074e-20
1.52156e-20
5.36259e-21
2.11375e-21
2.21626e-21
5.8109e-21
1.96755e-20
1.14426e-19
7.05942e-19
2.99564e-18
1.74457e-17
2.12246e-16
8.92342e-15
3.96157e-13
1.41727e-11
3.5301e-10
2.87002e-09
2.45621e-08
2.61695e-07
1.22326e-06
2.3436e-06
5.08576e-06
2.90744e-06
6.8124e-06
2.67672e-06
7.06856e-06
1.79987e-06
5.6667e-06
8.20319e-07
3.23758e-06
2.26091e-07
1.19871e-06
2.5684e-07
2.00484e-08
2.49008e-07
2.03643e-07
9.24612e-10
1.18314e-08
2.01289e-11
4.33019e-10
3.54878e-16
7.08365e-16
5.15276e-16
2.35235e-16
9.29105e-17
3.11397e-17
8.10483e-18
2.23085e-18
7.7433e-19
3.40873e-19
2.13647e-19
1.35853e-19
7.04208e-20
2.88342e-20
1.10283e-20
5.29791e-21
4.91801e-21
1.46807e-20
4.77741e-20
1.86001e-19
1.19335e-18
5.95291e-18
2.7369e-17
2.2279e-16
6.2897e-15
3.22684e-13
1.3199e-11
3.98401e-10
5.94518e-09
4.26328e-08
3.77835e-07
3.34566e-06
8.56969e-06
1.46715e-05
1.39804e-05
2.55594e-05
1.65172e-05
3.44903e-05
1.52506e-05
3.57816e-05
1.06341e-05
2.91141e-05
5.20319e-06
1.77567e-05
1.54437e-06
7.32488e-06
1.73274e-06
1.38212e-07
1.67151e-06
1.3587e-06
6.09288e-09
7.81344e-08
1.38847e-10
2.76747e-09
1.94236e-15
3.17524e-15
1.99554e-15
1.27088e-15
4.61311e-16
1.42993e-16
3.89716e-17
1.07208e-17
2.14783e-18
7.00117e-19
3.62797e-19
2.14274e-19
1.20135e-19
5.34894e-20
2.2154e-20
1.22446e-20
1.30689e-20
3.34919e-20
8.37106e-20
2.86005e-19
1.88828e-18
1.0893e-17
5.71485e-17
3.84843e-16
5.1794e-15
2.11309e-13
1.00314e-11
3.51795e-10
7.08361e-09
9.09899e-08
7.31578e-07
4.72064e-06
2.04578e-05
2.86859e-05
4.05734e-05
5.99258e-05
6.12333e-05
9.72342e-05
7.28154e-05
0.00012812
6.82555e-05
0.000136867
4.95467e-05
0.000116145
2.65561e-05
7.57214e-05
9.16803e-06
3.53017e-05
1.01121e-05
9.05869e-07
9.7294e-06
7.97542e-06
3.81318e-08
4.91705e-07
9.07834e-10
1.66136e-08
1.07568e-14
1.91888e-14
1.25747e-14
6.39329e-15
2.1874e-15
7.6273e-16
1.74358e-16
5.26569e-17
1.15966e-17
2.53742e-18
7.47878e-19
3.40559e-19
2.08222e-19
1.07514e-19
4.77616e-20
2.57095e-20
3.14421e-20
7.34157e-20
2.04607e-19
6.26162e-19
3.50303e-18
1.89843e-17
1.07674e-16
6.02599e-16
5.32996e-15
1.46859e-13
6.50932e-12
2.554e-10
6.76425e-09
1.00967e-07
1.36662e-06
1.06715e-05
3.78886e-05
3.20414e-05
7.95606e-05
0.000104626
0.000139717
0.000186051
0.000197105
0.000274815
0.000231466
0.000342735
0.000227541
0.000367241
0.000178431
0.000337076
0.000104699
0.000247987
4.24386e-05
0.000131293
4.57441e-05
5.36711e-06
4.38007e-05
3.62885e-05
2.25851e-07
2.88056e-06
5.51418e-09
9.22692e-08
7.72948e-14
1.33168e-13
8.48178e-14
3.78728e-14
1.40848e-14
4.87079e-15
1.04002e-15
2.73987e-16
6.20238e-17
1.14847e-17
2.33005e-18
6.41743e-19
3.59046e-19
2.32046e-19
1.10383e-19
6.59135e-20
6.11922e-20
1.3841e-19
3.75129e-19
1.26658e-18
5.29013e-18
3.78538e-17
1.78575e-16
1.04461e-15
7.17358e-15
1.2766e-13
4.26067e-12
1.7177e-10
5.33323e-09
9.37678e-08
1.41161e-06
1.56213e-05
0.000111317
0.000121437
0.000162849
0.000231714
0.000276992
0.000353344
0.000427495
0.000456667
0.000565639
0.000517245
0.000662438
0.000519191
0.00069942
0.000452655
0.000668352
0.000315153
0.000559939
0.000150859
0.000368528
0.000158335
2.50313e-05
0.000150458
0.000126128
1.24441e-06
1.3665e-05
3.08323e-08
4.69822e-07
5.20118e-13
9.17736e-13
5.75912e-13
2.73894e-13
9.62746e-14
4.00806e-14
6.48649e-15
1.45718e-15
3.10258e-16
5.91971e-17
9.64812e-18
2.0284e-18
8.17207e-19
5.39903e-19
3.17652e-19
1.75266e-19
1.8398e-19
2.57257e-19
7.89454e-19
1.95083e-18
8.20183e-18
5.48854e-17
3.08635e-16
1.5392e-15
1.07101e-14
1.37924e-13
3.21312e-12
1.11807e-10
3.79232e-09
8.59377e-08
1.31652e-06
1.53481e-05
0.000120899
0.000371538
0.000393608
0.000315397
0.000348993
0.00049334
0.000551404
0.000662966
0.000746128
0.000792867
0.000906823
0.000865521
0.00101278
0.000870975
0.00105225
0.000801849
0.00102153
0.000647827
0.000912041
0.00040111
0.000707878
0.000408088
8.99905e-05
0.000384979
0.000328683
5.91868e-06
5.16922e-05
1.54805e-07
2.11903e-06
2.91419e-12
5.76319e-12
3.73718e-12
1.57716e-12
5.46508e-13
2.1531e-13
5.11818e-14
9.25523e-15
1.53779e-15
2.76921e-16
4.84859e-17
7.43929e-18
1.95283e-18
1.32915e-18
8.71465e-19
6.12433e-19
4.1346e-19
7.6556e-19
1.65195e-18
4.33987e-18
1.83712e-17
8.17579e-17
4.90539e-16
2.52714e-15
1.82701e-14
1.83571e-13
3.10731e-12
7.74465e-11
2.53502e-09
6.87239e-08
1.106e-06
1.42016e-05
0.000113911
0.00040433
0.00041097
0.000656016
0.000672792
0.000597551
0.000632466
0.000814682
0.000870915
0.0010027
0.00108096
0.00113917
0.00124719
0.00121249
0.00135353
0.00121659
0.00139031
0.00114754
0.00135657
0.000993717
0.00124679
0.000738675
0.00104407
0.000738838
0.000246903
0.00070139
0.000620637
2.2642e-05
0.000152038
6.38443e-07
7.43217e-06
1.03054e-11
2.82267e-11
2.20724e-11
1.01685e-11
3.4153e-12
1.29195e-12
2.83971e-13
7.39433e-14
8.88466e-15
1.2303e-15
2.12669e-16
3.24296e-17
6.78284e-18
3.69387e-18
2.09301e-18
1.88501e-18
1.28553e-18
1.67565e-18
2.5584e-18
9.44543e-18
3.12304e-17
1.62314e-16
7.9494e-16
4.53348e-15
3.34114e-14
2.91377e-13
3.41286e-12
6.53915e-11
1.68379e-09
4.77431e-08
9.37288e-07
1.27504e-05
0.000112241
0.000407453
0.000376975
0.000679677
0.00067808
0.000957511
0.000965315
0.000912676
0.000941034
0.00114309
0.0011916
0.00133703
0.00140955
0.00147631
0.00158361
0.00154866
0.00169461
0.0015474
0.00172853
0.00147263
0.00168405
0.0013163
0.0015627
0.00106601
0.00135716
0.00105556
0.000498462
0.00100665
0.000914371
6.95811e-05
0.000340591
1.92967e-06
2.23813e-05
1.66483e-11
7.91958e-11
1.00614e-10
5.71979e-11
2.15616e-11
7.51067e-12
2.09363e-12
4.03339e-13
6.07342e-14
7.10825e-15
8.92029e-16
1.26125e-16
2.39585e-17
1.00899e-17
7.75854e-18
3.9005e-18
3.73256e-18
4.38056e-18
6.23865e-18
1.59486e-17
5.2219e-17
2.37992e-16
1.29901e-15
7.73772e-15
6.00342e-14
5.27759e-13
4.66785e-12
6.5515e-11
1.24638e-09
3.15346e-08
7.21119e-07
1.14395e-05
0.000107106
0.000521233
0.000673847
0.000695583
0.000962905
0.000955508
0.00125073
0.00124771
0.0012252
0.00124437
0.00146639
0.00150843
0.00167452
0.00174876
0.00182833
0.00194764
0.00190585
0.00207432
0.00189446
0.00210931
0.00179981
0.00204352
0.00162438
0.00188905
0.00136972
0.00165713
0.00135006
0.000775596
0.00129166
0.00119211
0.00017464
0.000580907
4.10554e-06
5.80553e-05
9.04046e-11
2.60998e-10
2.50442e-10
1.21963e-10
4.13653e-11
8.26859e-12
1.97298e-12
3.29359e-13
4.13613e-14
3.97035e-15
4.98925e-16
8.33853e-17
3.03135e-17
2.43077e-17
1.62894e-17
1.30349e-17
1.0104e-17
1.25132e-17
2.67248e-17
7.82119e-17
3.09035e-16
1.85255e-15
1.51699e-14
1.08225e-13
9.07686e-13
7.94204e-12
7.49396e-11
1.14931e-09
2.2151e-08
4.9257e-07
9.39628e-06
9.96464e-05
0.000483583
0.000904422
0.000880915
0.000940894
0.000926546
0.00123812
0.00121972
0.00154016
0.0015289
0.00153506
0.00154381
0.00180666
0.00184639
0.00204922
0.00213247
0.0022348
0.00236253
0.00232595
0.00250419
0.00230089
0.00255369
0.00217108
0.00247211
0.00194685
0.00226293
0.00166136
0.00197281
0.00163179
0.00104201
0.00156497
0.00145669
0.0003417
0.0008293
8.4586e-06
0.0001232
2.66053e-10
6.67061e-10
5.25559e-10
1.98148e-10
4.19794e-11
8.21715e-12
1.99311e-12
2.2103e-13
2.17773e-14
1.76874e-15
3.17482e-16
8.40309e-17
6.49211e-17
5.62553e-17
3.3878e-17
2.89417e-17
2.66767e-17
4.79153e-17
1.19067e-16
4.74123e-16
2.94735e-15
2.79827e-14
2.1461e-13
1.58001e-12
1.34452e-11
1.10098e-10
1.19558e-09
1.8217e-08
3.41029e-07
6.83063e-06
8.59499e-05
0.000438616
0.000858008
0.000803465
0.00113658
0.00110824
0.00119477
0.0011673
0.00150534
0.00147298
0.00185502
0.00183006
0.0018671
0.00186474
0.00219251
0.00222777
0.0024429
0.00247787
0.00258447
0.00260064
0.00268346
0.00269445
0.00273653
0.00280037
0.00261229
0.00287614
0.00231808
0.0026939
0.00196719
0.00233719
0.0019233
0.00129645
0.00184168
0.00171888
0.000546597
0.00107481
1.38719e-05
0.000210291
7.04663e-10
1.51853e-09
8.33541e-10
1.93548e-10
4.35848e-11
8.68145e-12
1.25343e-12
1.15398e-13
8.92877e-15
1.06843e-15
3.14161e-16
1.56312e-16
1.54139e-16
9.67494e-17
8.4866e-17
6.90729e-17
1.07369e-16
2.22893e-16
7.48928e-16
4.40646e-15
4.11141e-14
4.1494e-13
3.00543e-12
2.1866e-11
1.86181e-10
1.48818e-09
1.82448e-08
2.64047e-07
4.7718e-06
6.90521e-05
0.00039258
0.000904617
0.00107077
0.00107417
0.00135146
0.00131142
0.0014348
0.00139387
0.00178881
0.00173818
0.00220773
0.00216629
0.00223635
0.00222778
0.00248867
0.00248567
0.00258917
0.00256827
0.00266697
0.00260953
0.00276601
0.00267463
0.00289598
0.00280418
0.00298051
0.00298924
0.00274832
0.00306767
0.00231749
0.00277541
0.00254189
0.00206176
0.00227836
0.00136664
0.00159341
0.00195666
0.00218088
0.00223368
0.00211475
0.0018086
0.00203955
0.0007733
0.00149478
0.00138189
0.00113085
2.07259e-05
0.000326336
1.8609e-09
2.87382e-09
8.07026e-10
1.7194e-10
3.54221e-11
7.40941e-12
6.14683e-13
4.71791e-14
3.30056e-15
7.80611e-16
4.39683e-16
5.46457e-16
2.51397e-16
1.86498e-16
2.03183e-16
2.09021e-16
4.56895e-16
1.39602e-15
6.26235e-15
5.53316e-14
6.13471e-13
5.72534e-12
3.9344e-11
2.86629e-10
2.3525e-09
2.02622e-08
2.45167e-07
3.64279e-06
5.40546e-05
0.000349057
0.000856449
0.0012086
0.00115234
0.00126981
0.00123815
0.00156029
0.00150276
0.00168101
0.00162078
0.0021072
0.0020363
0.00246228
0.00244452
0.00247967
0.00247173
0.00254087
0.00251616
0.00252567
0.00243205
0.0024996
0.00233742
0.00258722
0.00234076
0.00280529
0.00248748
0.00306113
0.00293596
0.00276304
0.00296591
0.00313605
0.00312939
0.00317208
0.00276571
0.00249299
0.00274891
0.00298242
0.00246063
0.00172142
0.00234668
0.00240915
0.0022735
0.00194976
0.00218995
0.00125758
0.000823081
0.00112164
0.00161988
0.00150901
6.78295e-05
0.000962743
0.000731291
0.000382295
5.56817e-09
2.85472e-09
6.66093e-10
1.08359e-10
1.83638e-11
4.02201e-12
2.40258e-13
1.55103e-14
2.42096e-15
1.4585e-15
1.41476e-15
1.03767e-15
5.76358e-16
6.09536e-16
5.69815e-16
1.22597e-15
2.41367e-15
1.13463e-14
7.95215e-14
8.12516e-13
8.62222e-12
7.28607e-11
4.89456e-10
3.57608e-09
2.78463e-08
2.63466e-07
3.23068e-06
4.36377e-05
0.000308333
0.000810697
0.00119851
0.00135285
0.00133115
0.0014478
0.00140021
0.00178342
0.00170019
0.00195583
0.00187008
0.00240883
0.00234272
0.00250214
0.00251347
0.00250013
0.00249788
0.00235509
0.00229964
0.00222808
0.00215839
0.00222164
0.00217801
0.00226425
0.00220485
0.00259684
0.00241901
0.00232834
0.00225507
0.00300768
0.00280807
0.00277757
0.00259548
0.00315418
0.0032193
0.00305619
0.00318369
0.00297628
0.0027038
0.00295288
0.00316735
0.0026585
0.00185451
0.00259874
0.00252785
0.00244565
0.00209632
0.00235368
0.00139333
0.00127448
0.0017507
0.00164343
0.000541474
7.39542e-05
0.000280728
0.00114643
0.000991774
8.07411e-09
2.49336e-09
4.39288e-10
6.3009e-11
1.28194e-11
1.24532e-12
7.74046e-14
7.90679e-15
3.95361e-15
4.46329e-15
5.97964e-15
1.947e-15
1.61778e-15
2.08495e-15
2.58407e-15
6.12371e-15
2.22922e-14
1.26556e-13
1.07414e-12
1.15144e-11
1.11511e-10
8.64921e-10
5.87233e-09
4.40194e-08
3.42728e-07
3.19133e-06
3.9213e-05
0.000269872
0.000763651
0.00114609
0.00138849
0.00132756
0.00149027
0.00143786
0.00162254
0.00155349
0.00203313
0.00191843
0.00225336
0.0021477
0.00252272
0.00251988
0.00231754
0.00237459
0.00227859
0.00228955
0.00209741
0.00203526
0.0021508
0.00211504
0.00221691
0.00227217
0.0022398
0.00225053
0.00229651
0.00236975
0.00243323
0.00232738
0.00227823
0.00226868
0.00286569
0.00266849
0.00262406
0.00246175
0.00325163
0.00323361
0.00292645
0.00311409
0.00316763
0.00291626
0.00315307
0.00328046
0.00286608
0.00199481
0.00280042
0.00272187
0.00263092
0.00225211
0.00252943
0.00153883
0.00144093
0.00188858
0.00178493
0.000819917
0.000216838
0.000615232
0.00135256
0.00127449
7.90643e-09
1.72263e-09
2.405e-10
3.21266e-11
5.12291e-12
3.72464e-13
3.11899e-14
1.20115e-14
1.42817e-14
1.89924e-14
8.44872e-15
5.715e-15
7.11196e-15
7.58157e-15
1.71548e-14
5.23537e-14
2.28687e-13
1.53502e-12
1.46347e-11
1.52e-10
1.33379e-09
9.73167e-09
6.71187e-08
4.26877e-07
3.48287e-06
3.7514e-05
0.000241629
0.000710312
0.00109523
0.00128566
0.00146833
0.00139791
0.00162246
0.00154223
0.00180996
0.0017115
0.00229441
0.00215638
0.00249344
0.00241437
0.00245048
0.00252561
0.00199295
0.00207408
0.00197832
0.00196453
0.00205596
0.00197533
0.00231436
0.00228875
0.00244774
0.00253008
0.00258971
0.0026369
0.00230835
0.00238472
0.00248533
0.00259442
0.00236104
0.00231718
0.00232312
0.00238
0.00272849
0.00250636
0.00256506
0.00240768
0.00327975
0.00317805
0.00280195
0.00299828
0.00330024
0.00312309
0.00330818
0.00332393
0.00307387
0.00214398
0.00300782
0.00292484
0.00282694
0.00241849
0.00271638
0.00168944
0.00161165
0.00203429
0.00193008
0.00124201
0.000909947
0.00134958
0.00156434
0.00154728
6.67831e-09
9.61401e-10
1.09634e-10
2.07213e-11
1.58847e-12
1.29639e-13
4.11856e-14
4.19367e-14
7.34617e-14
3.27157e-14
2.19802e-14
2.54765e-14
3.01156e-14
5.11703e-14
1.38264e-13
4.82364e-13
2.47228e-12
1.91806e-11
1.93922e-10
1.88717e-09
1.52499e-08
1.06913e-07
6.1167e-07
4.4162e-06
3.83899e-05
0.000229832
0.000660226
0.00104721
0.00119083
0.00132183
0.00123068
0.00153222
0.00142452
0.00175802
0.00164223
0.00201586
0.00188212
0.00251493
0.00238997
0.00256609
0.00256201
0.00220362
0.00235482
0.00178984
0.00183565
0.00187435
0.00179983
0.00217943
0.00201714
0.00275126
0.0026462
0.00269881
0.00278753
0.00284826
0.0028661
0.00248025
0.00260315
0.00273491
0.00286036
0.00236821
0.00238296
0.00245796
0.0025739
0.0026372
0.00246536
0.00253204
0.00243033
0.00324687
0.00308009
0.00272182
0.00288722
0.00336287
0.00330039
0.00339032
0.00331587
0.00326771
0.00230307
0.00321074
0.00312859
0.00302982
0.00259629
0.00291259
0.0018385
0.00177587
0.00218717
0.00207884
0.00161158
0.00139599
0.00171833
0.00175898
0.0017728
4.25093e-09
4.47923e-10
4.57245e-11
6.12335e-12
5.19285e-13
1.47523e-13
1.37455e-13
1.61598e-13
1.23663e-13
8.73409e-14
9.61674e-14
1.34724e-13
1.63559e-13
3.94722e-13
1.16024e-12
4.61251e-12
2.7993e-11
2.46139e-10
2.52251e-09
2.29256e-08
1.74707e-07
9.82395e-07
6.41566e-06
4.38486e-05
0.000229855
0.000628305
0.00100587
0.00112894
0.00105446
0.00127061
0.00112275
0.0015773
0.00141947
0.00189841
0.00173749
0.00222999
0.00206281
0.002599
0.00255905
0.00249639
0.00258559
0.00196411
0.0021519
0.00169567
0.0017478
0.00184418
0.00172527
0.00239913
0.00208271
0.00307993
0.00299817
0.00270602
0.0028869
0.00296718
0.00304783
0.00309634
0.00310601
0.00271626
0.00286588
0.00300757
0.00312875
0.00245055
0.00253528
0.00266461
0.00282139
0.0026125
0.00250007
0.00258007
0.00252238
0.00316781
0.00298255
0.00270333
0.00281699
0.00337908
0.00340857
0.00342933
0.0032601
0.00340873
0.00247183
0.00338463
0.00332473
0.0032319
0.00278409
0.00311298
0.00198859
0.0019358
0.0023485
0.0022356
0.0018448
0.000861879
0.00162206
0.00193162
0.00194482
2.22237e-09
1.77116e-10
2.37872e-11
1.97574e-12
5.41342e-13
4.61295e-13
6.63746e-13
5.22282e-13
3.41445e-13
3.70371e-13
5.59147e-13
5.59703e-13
1.18768e-12
3.09076e-12
1e-11
4.68132e-11
3.34364e-10
3.30275e-09
3.32748e-08
2.84011e-07
1.72582e-06
1.06476e-05
5.83692e-05
0.00023739
0.00061955
0.000978417
0.00109526
0.000970908
0.000854069
0.000778176
0.00116675
0.000986242
0.00159957
0.00137613
0.00203646
0.00182238
0.00242988
0.00224067
0.00262181
0.00262654
0.0023547
0.00252652
0.00187624
0.00206083
0.00167041
0.00174865
0.00181809
0.0016846
0.00254266
0.00231876
0.00201771
0.00321315
0.0030954
0.00272329
0.0029297
0.00322082
0.00327874
0.00329577
0.00327853
0.00298561
0.00314023
0.00327267
0.00337484
0.00261375
0.00275097
0.00291883
0.00309391
0.00266811
0.00259945
0.002684
0.00269163
0.00308558
0.0029212
0.00276487
0.00280354
0.00335138
0.00346611
0.00343127
0.00319431
0.00348932
0.00264958
0.00349585
0.00347704
0.00341722
0.00297838
0.00331102
0.00214504
0.00209189
0.00251738
0.0023984
0.00192955
0.000304346
0.00122318
0.00207786
0.00206334
9.64954e-10
8.12514e-11
8.09935e-12
2.10493e-12
1.63324e-12
1.94489e-12
2.1277e-12
1.32401e-12
1.38449e-12
2.1147e-12
2.11871e-12
3.71623e-12
8.80259e-12
2.45558e-11
9.09832e-11
5.08286e-10
4.37146e-09
4.72288e-08
4.53978e-07
3.14983e-06
1.96118e-05
8.72623e-05
0.000263308
0.000621299
0.000967461
0.00108063
0.00095054
0.000624967
0.000647679
0.000543691
0.00101923
0.000798647
0.00159311
0.00129375
0.00215958
0.00188789
0.00256812
0.00239855
0.00261199
0.00266318
0.00226422
0.002464
0.00189839
0.00208376
0.00169404
0.00183255
0.00173589
0.00165819
0.00251019
0.00229359
0.00196157
0.00175696
0.00330653
0.00314729
0.00269165
0.00293447
0.00344214
0.00346877
0.00346159
0.00340942
0.00325908
0.00340008
0.0035096
0.00358445
0.00283514
0.0030088
0.00319253
0.00336547
0.00277612
0.00277208
0.00285763
0.00291475
0.00303323
0.00291296
0.00287693
0.00287077
0.00330335
0.00349462
0.00340663
0.00315106
0.00353643
0.00283389
0.0035629
0.0035718
0.00355176
0.00317178
0.00348709
0.00230293
0.00223773
0.00269127
0.00256269
0.00184804
0.000218079
0.00104164
0.00219453
0.00210547
3.54958e-10
4.75017e-11
1.00107e-11
6.80685e-12
7.29198e-12
7.50795e-12
5.00108e-12
5.05404e-12
7.04556e-12
9.17116e-12
1.19515e-11
2.60856e-11
6.56617e-11
2.03366e-10
8.80795e-10
6.02516e-09
6.45682e-08
7.14942e-07
5.7093e-06
3.56522e-05
0.000131691
0.000315623
0.000632805
0.000966641
0.00107677
0.000952146
0.000633498
0.00032071
0.000328888
0.00043174
0.00034524
0.000851998
0.000595671
0.00155984
0.00118656
0.00225502
0.00192676
0.00263749
0.00251497
0.00262013
0.00269319
0.00227727
0.00246572
0.00201551
0.00220139
0.00177578
0.00197992
0.00167297
0.00162819
0.00163394
0.00242461
0.00217158
0.00180839
0.00165916
0.00336886
0.00317134
0.00261926
0.00291592
0.00362031
0.00362264
0.00358762
0.00350464
0.00351369
0.00362878
0.00370829
0.00375262
0.00309379
0.00328253
0.0034617
0.00361544
0.00294959
0.00299613
0.00308105
0.00317436
0.00303092
0.00298393
0.00304943
0.00298527
0.00326881
0.00349835
0.00338392
0.00315152
0.00356493
0.00301965
0.00360702
0.00363358
0.00364289
0.00336058
0.00361328
0.00245492
0.00236601
0.00286539
0.00272273
0.00171987
0.000315151
0.001078
0.00227507
0.00206903
1.40898e-10
7.13538e-11
3.72772e-11
3.15001e-11
2.38002e-11
1.80237e-11
1.79474e-11
2.42496e-11
3.76264e-11
3.90338e-11
7.95216e-11
1.86133e-10
5.08735e-10
1.77108e-09
9.18383e-09
8.4186e-08
1.05229e-06
1.00345e-05
6.0907e-05
0.000189623
0.000383769
0.000665584
0.000970399
0.00107463
0.000959864
0.0006597
0.000265888
0.000149158
0.000136507
0.000279593
0.000186867
0.000727297
0.000452471
0.00151896
0.00109701
0.0023178
0.00194252
0.00268108
0.00257839
0.00265996
0.00272795
0.00237631
0.00253303
0.00218279
0.00235886
0.00177715
0.00189632
0.00205098
0.0015966
0.00158684
0.00167342
0.00157988
0.00231263
0.00203234
0.00167102
0.00154991
0.00340559