/*--------------------------------*- C++ -*----------------------------------*\
  =========                 |
  \\      /  F ield         | OpenFOAM: The Open Source CFD Toolbox
   \\    /   O peration     | Website:  https://openfoam.org
    \\  /    A nd           | Version:  dev
     \\/     M anipulation  |
\*---------------------------------------------------------------------------*/
FoamFile
{
    version     2.0;
    format      ascii;
    class       volScalarField;
    location    "2500";
    object      k;
}
// * * * * * * * * * * * * * * * * * * * * * * * * * * * * * * * * * * * * * //

dimensions      [0 2 -2 0 0 0 0];

internalField   nonuniform List<scalar> 
9844
(
0.000157571
0.000164282
0.000150054
0.000142059
0.00021029
0.000122579
0.000120298
0.000223815
0.000190057
0.000109354
0.000111019
0.000210971
0.000228446
0.000147701
0.000105754
0.000105572
0.000178045
0.000249508
0.000200648
0.000124263
0.000103859
0.000102879
0.000145227
0.000247218
0.000238823
0.000155637
0.000114625
0.000102583
0.000101396
0.000127216
0.000230506
0.000258879
0.000199972
0.000130346
0.000109554
0.000101775
0.000100559
0.000115358
0.000194996
0.000268396
0.000239726
0.00015644
0.000118923
0.000106302
0.000101179
0.000100048
0.000108526
0.000157523
0.000262391
0.000263267
0.000193131
0.000132189
0.000112647
0.000104088
0.000100714
9.94437e-05
0.000104487
0.0001356
0.000242622
0.000277695
0.000234052
0.000153431
0.000120601
0.000108392
0.000102517
0.000100363
9.89607e-05
0.000102162
0.000120904
0.000204536
0.00028227
0.000263817
0.000183663
0.000131776
0.000113868
0.000105369
0.000101355
0.000100118
9.86041e-05
0.000100697
0.000112354
0.000164963
0.000274308
0.000280054
0.000222257
0.00014822
0.000120828
0.000109222
0.000103201
0.000100554
9.99027e-05
9.83481e-05
9.96659e-05
0.000107245
0.000141538
0.000252102
0.000292101
0.000257024
0.000174444
0.000129502
0.000114066
0.000105891
0.000101526
9.99526e-05
9.965e-05
9.81986e-05
9.88997e-05
0.000104042
0.000126035
0.000213235
0.00029354
0.00028116
0.0002072
0.000143331
0.000119673
0.000109301
0.000103424
0.000100293
9.93596e-05
9.9509e-05
9.82821e-05
9.83408e-05
0.000101869
0.000116433
0.000173555
0.000284608
0.000292977
0.000244788
0.000164168
0.000126961
0.000113367
0.000105871
0.000101333
9.94354e-05
9.87725e-05
9.94132e-05
9.84001e-05
9.76047e-05
0.000100302
0.000110353
0.000148508
0.000261411
0.000303943
0.000273754
0.000193527
0.000137777
0.000117998
0.000108814
0.000103185
9.98633e-05
9.86638e-05
9.83187e-05
9.93247e-05
9.8494e-05
9.685e-05
9.8924e-05
0.000106311
0.000132029
0.000222852
0.000303944
0.000294768
0.000227145
0.000155022
0.000123972
0.00011209
0.000105358
0.000101042
9.88213e-05
9.78745e-05
9.8008e-05
9.92342e-05
9.85525e-05
9.61969e-05
9.77393e-05
0.000103355
0.00012128
0.000183204
0.000294875
0.000304937
0.000262282
0.000179487
0.000132532
0.000116048
0.000107799
0.000102689
9.93934e-05
9.79111e-05
9.71936e-05
9.77621e-05
9.91645e-05
9.85354e-05
9.56784e-05
9.67294e-05
0.000101106
0.000114106
0.00015629
0.000271767
0.000314963
0.00028765
0.000209993
0.000146385
0.000120644
0.000110644
0.000104544
0.000100588
9.81809e-05
9.708e-05
9.66939e-05
9.75343e-05
9.91088e-05
9.84601e-05
9.53898e-05
9.58956e-05
9.93408e-05
0.000109091
0.000138706
0.000234465
0.000314713
0.000306573
0.000242965
0.000166599
0.000127719
0.000113718
0.000106589
0.000102003
9.89131e-05
9.71991e-05
9.63058e-05
9.63135e-05
9.73584e-05
9.90658e-05
9.83884e-05
9.53531e-05
9.52171e-05
9.7926e-05
0.000105475
0.00012663
0.000195629
0.000306181
0.000315822
0.000275797
0.000193001
0.000138409
0.000117671
0.000108852
0.000103533
9.99878e-05
9.75942e-05
9.63406e-05
9.56865e-05
9.59943e-05
9.72319e-05
9.90416e-05
9.83295e-05
9.53314e-05
9.44985e-05
9.67492e-05
0.000102775
0.000118385
0.00016586
0.000284861
0.000325397
0.000298966
0.000223087
0.000155094
0.000122947
0.00011144
0.000105277
0.000101187
9.83755e-05
9.6555e-05
9.55993e-05
9.52414e-05
9.57537e-05
9.715e-05
9.90329e-05
9.82828e-05
9.52866e-05
9.38808e-05
9.56752e-05
0.00010067
0.000112496
0.000146811
0.000250168
0.000326161
0.000316802
0.000254684
0.000176904
0.000131712
0.000114504
0.000107098
0.000102532
9.93108e-05
9.70784e-05
9.5703e-05
9.49485e-05
9.48807e-05
9.558e-05
9.7123e-05
9.90508e-05
9.82516e-05
9.52189e-05
9.3376e-05
9.47284e-05
9.89427e-05
0.000108103
0.000133182
0.000212821
0.000319363
0.000325973
0.000285518
0.000203759
0.000144396
0.000118875
0.000109218
0.000103891
0.00010038
9.78129e-05
9.6005e-05
9.49891e-05
9.44765e-05
9.46169e-05
9.55001e-05
9.71714e-05
9.91047e-05
9.82315e-05
9.51424e-05
9.29668e-05
9.3959e-05
9.74184e-05
0.000104842
0.000123487
0.000179042
0.000301416
0.000335095
0.000308251
0.000232286
0.000162571
0.000125393
0.000111701
0.000105399
0.00010146
9.86481e-05
9.65601e-05
9.51686e-05
9.44017e-05
9.41401e-05
9.44738e-05
9.55341e-05
9.73064e-05
9.92099e-05
9.82179e-05
9.5062e-05
9.26204e-05
9.33661e-05
9.61329e-05
0.000102489
0.000116552
0.000157574
0.000272093
0.000338359
0.000325165
0.000262696
0.000184592
0.000135408
0.000115088
0.000107042
0.000102563
9.95423e-05
9.72421e-05
9.55535e-05
9.45066e-05
9.3964e-05
9.3932e-05
9.44651e-05
9.56992e-05
9.75659e-05
9.93898e-05
9.82094e-05
9.49762e-05
9.23448e-05
9.28956e-05
9.51826e-05
0.000100647
0.000111562
0.000142329
0.000236263
0.000334281
0.000336222
0.000291086
0.000210604
0.000149324
0.000120089
0.000109026
0.000103682
0.000100399
9.79897e-05
9.6116e-05
9.47803e-05
9.40323e-05
9.36941e-05
9.38648e-05
9.46196e-05
9.60338e-05
9.80014e-05
9.96704e-05
9.82017e-05
9.48809e-05
9.21424e-05
9.25428e-05
9.45076e-05
9.90705e-05
0.00010789
0.000131067
0.00020338
0.000321882
0.000344142
0.000314935
0.000237405
0.000167632
0.000127548
0.000111617
0.000104909
0.000101204
9.87065e-05
9.67709e-05
9.52582e-05
9.42279e-05
9.37133e-05
9.35752e-05
9.39849e-05
9.49781e-05
9.66091e-05
9.86796e-05
9.99852e-05
9.81927e-05
9.47769e-05
9.19902e-05
9.22875e-05
9.40573e-05
9.79046e-05
0.000105032
0.00012293
0.000175807
0.000298476
0.000350665
0.00033153
0.000265275
0.000189284
0.000138197
0.000115369
0.000106432
0.000101971
9.93586e-05
9.74233e-05
9.58498e-05
9.4614e-05
9.38533e-05
9.35427e-05
9.36543e-05
9.43316e-05
9.5615e-05
9.75055e-05
9.97448e-05
0.000100692
9.81778e-05
9.46572e-05
9.1886e-05
9.21019e-05
9.37048e-05
9.70805e-05
0.000102871
0.000117016
0.000157654
0.000270635
0.000349627
0.000345049
0.000291837
0.000212838
0.000152512
0.000120811
0.000108403
0.000102895
9.99008e-05
9.79776e-05
9.64632e-05
9.51726e-05
9.41787e-05
9.36696e-05
9.35832e-05
9.39857e-05
9.4985e-05
9.66258e-05
9.89358e-05
0.000101111
0.00010177
9.81593e-05
9.45457e-05
9.18176e-05
9.19773e-05
9.33948e-05
9.64624e-05
0.000101242
0.000112734
0.000144621
0.000239817
0.000343804
0.000352028
0.000317306
0.000238019
0.000169781
0.00012874
0.00011109
0.000103998
0.000100426
9.84209e-05
9.69728e-05
9.57688e-05
9.47236e-05
9.39702e-05
9.37181e-05
9.39272e-05
9.4637e-05
9.6065e-05
9.81678e-05
0.000101001
0.000103316
0.000103277
9.81345e-05
9.44495e-05
9.17909e-05
9.19089e-05
9.31368e-05
9.59685e-05
9.99948e-05
0.000109568
0.000135033
0.000211702
0.000330528
0.00035945
0.000335079
0.00026198
0.000189882
0.000139285
0.000115104
0.000105415
0.000100984
9.87018e-05
9.73312e-05
9.62856e-05
9.53283e-05
9.44808e-05
9.40515e-05
9.40767e-05
9.4611e-05
9.5718e-05
9.76772e-05
0.000100473
0.00010363
0.000105951
0.000104156
9.81019e-05
9.43647e-05
9.18157e-05
9.18886e-05
9.29579e-05
9.5519e-05
9.90009e-05
0.000107105
0.000127969
0.000187945
0.000310837
0.000364654
0.000348392
0.000287785
0.00021075
0.000152765
0.000120697
0.000107415
0.000101697
9.89319e-05
9.75276e-05
9.66233e-05
9.58746e-05
9.51409e-05
9.45834e-05
9.44425e-05
9.47907e-05
9.57777e-05
9.73856e-05
9.99377e-05
0.000103489
0.000106292
0.000107395
0.000102178
0.000106104
9.8065e-05
9.42891e-05
9.18745e-05
9.19057e-05
9.28331e-05
9.51161e-05
9.81609e-05
0.000105098
0.000122719
0.000170511
0.000289034
0.000364895
0.000359752
0.000310662
0.000232615
0.000168349
0.000128384
0.000110183
0.000102698
9.92107e-05
9.75896e-05
9.67814e-05
9.62581e-05
9.57653e-05
9.52736e-05
9.50052e-05
9.52365e-05
9.60294e-05
9.75585e-05
9.99419e-05
0.000102966
0.000106012
0.000108016
0.000108281
0.000108996
0.000102469
0.000106484
9.80269e-05
9.42381e-05
9.19395e-05
9.19488e-05
9.27377e-05
9.47811e-05
9.7485e-05
0.000103463
0.000118607
0.000158332
0.00026527
0.000361861
0.000367948
0.000332104
0.000254884
0.000185721
0.000138083
0.000114102
0.000104041
9.96348e-05
9.75715e-05
9.67948e-05
9.64339e-05
9.62077e-05
9.59559e-05
9.57442e-05
9.59344e-05
9.65941e-05
9.80514e-05
0.000100256
0.000102948
0.000105584
0.000107559
0.000107278
0.000109193
0.0001082
0.000109393
0.000108648
0.000109489
0.00010267
0.000106847
9.79912e-05
9.42129e-05
9.19869e-05
9.19958e-05
9.26749e-05
9.44919e-05
9.69879e-05
0.000102223
0.000115306
0.000149132
0.000241812
0.00035431
0.00037624
0.000349009
0.000275318
0.000204444
0.000150024
0.000119306
0.000105944
0.000100214
9.76191e-05
9.66629e-05
9.64314e-05
9.63846e-05
9.64608e-05
9.65436e-05
9.67738e-05
9.75265e-05
9.89317e-05
0.000101044
0.000103192
0.00010569
0.000107305
0.000107428
0.000108417
0.000109851
0.000109836
0.000110217
0.000109076
0.000110003
0.000102948
0.000107303
9.79602e-05
9.41888e-05
9.20083e-05
9.20018e-05
9.26427e-05
9.42689e-05
9.66252e-05
0.000101361
0.000112752
0.000141824
0.000220454
0.000341525
0.000383445
0.000363299
0.000297782
0.000222725
0.000163774
0.000126308
0.000108499
0.000101107
9.7756e-05
9.64176e-05
9.62427e-05
9.63704e-05
9.6678e-05
9.7204e-05
9.76855e-05
9.85721e-05
0.000100153
0.000102108
0.00010393
0.000106253
0.000107672
0.000108154
0.000108659
0.000109153
0.000110373
0.000110602
0.00011083
0.00011138
0.000109495
0.000110512
0.000103279
0.00010776
9.79277e-05
9.41572e-05
9.19901e-05
9.19681e-05
9.25949e-05
9.41371e-05
9.63603e-05
0.000100779
0.000110905
0.000136054
0.000202058
0.000325529
0.00038909
0.000376072
0.000319789
0.000241449
0.000178431
0.000134939
0.000112159
0.000102287
9.80483e-05
9.61561e-05
9.57765e-05
9.61554e-05
9.66719e-05
9.74989e-05
9.85172e-05
9.96411e-05
0.00010144
0.00010359
0.000105427
0.000107692
0.00010874
0.000109998
0.000109613
0.000110433
0.00011086
0.000111463
0.0001116
0.000111418
0.000112363
0.000112553
0.000109821
0.000110996
0.000103671
0.000108177
9.78973e-05
9.41137e-05
9.19347e-05
9.19148e-05
9.25262e-05
9.40312e-05
9.61534e-05
0.000100344
0.000109631
0.000131574
0.000187027
0.000307452
0.000390016
0.00038752
0.000340659
0.000260304
0.000194016
0.000144959
0.000116957
0.000104028
9.84986e-05
9.60334e-05
9.52655e-05
9.56506e-05
9.6484e-05
9.7504e-05
9.89566e-05
0.000100654
0.000102772
0.000104959
0.000107788
0.00011069
0.000111362
0.000114288
0.000111552
0.000113581
0.000112139
0.000113349
0.000112386
0.00011327
0.000113382
0.000112237
0.000113842
0.000113751
0.000110126
0.00011144
0.000104103
0.000108535
9.78669e-05
9.40458e-05
9.18619e-05
9.18498e-05
9.24431e-05
9.38833e-05
9.59608e-05
9.99463e-05
0.000108672
0.000128217
0.000175428
0.00028841
0.000387726
0.000397206
0.000361631
0.000279249
0.000209449
0.000156524
0.000122874
0.000106463
9.9176e-05
9.60547e-05
9.48001e-05
9.50453e-05
9.597e-05
9.73539e-05
9.89685e-05
0.000101358
0.000103998
0.000106621
0.000110031
0.000116515
0.000118007
0.000126148
0.000117424
0.000125187
0.000115992
0.000122321
0.00011479
0.000118646
0.000114422
0.00011638
0.000115104
0.000113095
0.00011529
0.000114919
0.000110321
0.000111896
0.000104561
0.000108772
9.78377e-05
9.3951e-05
9.17628e-05
9.17823e-05
9.23546e-05
9.36877e-05
9.57475e-05
9.95659e-05
0.000107814
0.000125945
0.000166509
0.000268794
0.000381819
0.000406771
0.000378578
0.000300255
0.000225199
0.000168651
0.000130189
0.000109567
0.000100261
9.61591e-05
9.43999e-05
9.43403e-05
9.52888e-05
9.68282e-05
9.88265e-05
0.000101438
0.000104942
0.000108121
0.000114458
0.000127272
0.000138817
0.000164862
0.000141874
0.000176563
0.000137956
0.000174285
0.000129689
0.000160115
0.000122082
0.00014057
0.000117525
0.00012543
0.000118083
0.000113961
0.000117875
0.000116854
0.000110439
0.000112387
0.000105013
0.000108849
9.78129e-05
9.38145e-05
9.15974e-05
9.17074e-05
9.22733e-05
9.34997e-05
9.55395e-05
9.92132e-05
0.000107028
0.00012424
0.000159339
0.000249275
0.000370657
0.000414988
0.000393831
0.000322703
0.000241407
0.000181439
0.00013849
0.000113649
0.000101727
9.64165e-05
9.41001e-05
9.36564e-05
9.44907e-05
9.59936e-05
9.83593e-05
0.000101297
0.000105356
0.00010927
0.000116776
0.000150657
0.000196538
0.000252135
0.000239075
0.000334654
0.00025141
0.000394728
0.000233851
0.000390003
0.000194925
0.000329304
0.000154329
0.00024233
0.000128076
0.000168119
0.000129198
0.000115079
0.000128221
0.000125079
0.00011052
0.000112826
0.000105342
0.00010872
9.78116e-05
9.3622e-05
9.13221e-05
9.15827e-05
9.22061e-05
9.33798e-05
9.53503e-05
9.89128e-05
0.000106355
0.000122748
0.000153421
0.00023082
0.000356065
0.000421733
0.000407347
0.00034624
0.000258364
0.00019445
0.000147889
0.000118576
0.000103749
9.6941e-05
9.39951e-05
9.30209e-05
9.3583e-05
9.50625e-05
9.74584e-05
0.000100904
0.000105248
0.000110767
0.000121262
0.00016535
0.000302442
0.000380083
0.000463859
0.000622933
0.00060598
0.000890484
0.000667479
0.00108029
0.00060912
0.00109574
0.000460857
0.000913964
0.000297867
0.000620064
0.000179047
0.000348406
0.000183485
0.000120391
0.000179176
0.000166085
0.000110491
0.000115348
0.000105497
0.000108309
9.78558e-05
9.33736e-05
9.09198e-05
9.13529e-05
9.21239e-05
9.33581e-05
9.52372e-05
9.86511e-05
0.000105797
0.000121329
0.000148329
0.000214342
0.00033836
0.000421832
0.000419676
0.000369088
0.000277477
0.000207632
0.000157912
0.000124549
0.000106332
9.77842e-05
9.40213e-05
9.24177e-05
9.26253e-05
9.39828e-05
9.64163e-05
0.000100078
0.000104857
0.000111149
0.000129176
0.000218884
0.000460796
0.000420695
0.000796316
0.00101039
0.00123144
0.00160056
0.00159573
0.00217291
0.00176359
0.00253616
0.00166315
0.0025871
0.00128684
0.00229922
0.000784749
0.00167603
0.000385406
0.000922914
0.000397553
0.00014748
0.000379041
0.000329987
0.000111166
0.000129325
0.000105357
0.000107884
9.81466e-05
9.32507e-05
9.04863e-05
9.09842e-05
9.19722e-05
9.34109e-05
9.52336e-05
9.84528e-05
0.000105325
0.000119988
0.000144465
0.000200374
0.000318469
0.00041918
0.00042974
0.000390689
0.000297489
0.000221605
0.000168342
0.00013134
0.000109729
9.89753e-05
9.41355e-05
9.19078e-05
9.16906e-05
9.28605e-05
9.51745e-05
9.89538e-05
0.00010404
0.000110827
0.00013061
0.000271426
0.00109946
0.00116136
0.00152972
0.00197878
0.00233598
0.00275079
0.00328823
0.00330738
0.00401487
0.00354438
0.0044195
0.00342142
0.00446927
0.00291694
0.00415754
0.00202248
0.00343984
0.00101135
0.00226731
0.00102831
0.000260884
0.000962705
0.000813937
0.000116488
0.000190794
0.000104818
0.000109057
9.9349e-05
9.40352e-05
9.03473e-05
9.05981e-05
9.17341e-05
9.34873e-05
9.53094e-05
9.84295e-05
0.000104877
0.00011879
0.000141817
0.000188959
0.000297848
0.000412109
0.000438451
0.000409037
0.000319936
0.000236561
0.000179191
0.000138757
0.000113803
0.000100654
9.44105e-05
9.15932e-05
9.08159e-05
9.17275e-05
9.38269e-05
9.75784e-05
0.000102878
0.000109949
0.000129432
0.000270563
0.00120584
0.0031028
0.00329928
0.00266878
0.00294106
0.00375773
0.00415781
0.00461645
0.00510169
0.00515244
0.00574504
0.00536447
0.00609802
0.0052436
0.00615092
0.00475834
0.00588471
0.00382629
0.00522407
0.00238586
0.00405465
0.00236839
0.000609045
0.0022021
0.00187617
0.000142161
0.000397102
0.000104251
0.000117295
0.000103073
9.87463e-05
9.16659e-05
9.05754e-05
9.15179e-05
9.35409e-05
9.55192e-05
9.85096e-05
0.000104779
0.000117721
0.000139812
0.000180043
0.000277504
0.00039902
0.000445994
0.000423731
0.000345887
0.000252675
0.000190406
0.000146916
0.000118441
0.000102859
9.50108e-05
9.15487e-05
9.00704e-05
9.05987e-05
9.23853e-05
9.59779e-05
0.000101452
0.000108847
0.000126669
0.000260539
0.0011687
0.00336388
0.00345543
0.00485053
0.00494677
0.00447273
0.00470063
0.00547824
0.00576528
0.00620489
0.00654823
0.00666816
0.00710874
0.00687919
0.00744802
0.00680634
0.00754011
0.00640235
0.00736527
0.00555209
0.00680469
0.00413741
0.00573238
0.00408048
0.00143208
0.00384928
0.00341
0.000234564
0.000929336
0.000105588
0.000146789
0.000118849
0.000114186
9.89136e-05
9.20224e-05
9.17041e-05
9.3692e-05
9.57679e-05
9.87699e-05
0.000104869
0.000116918
0.000138108
0.000173122
0.000258138
0.00038208
0.00044823
0.000437327
0.000370142
0.000271313
0.000202165
0.000155532
0.000123879
0.000105512
9.60991e-05
9.16176e-05
8.95646e-05
8.95403e-05
9.09628e-05
9.41508e-05
9.96576e-05
0.000107478
0.000124103
0.000245917
0.00114156
0.00344194
0.00329175
0.00498178
0.00497169
0.00613239
0.00612669
0.00596154
0.00607796
0.00679124
0.00695754
0.00742546
0.00763755
0.0078392
0.00808206
0.00802953
0.0083001
0.0080233
0.00836559
0.00777865
0.00831945
0.00708004
0.00806331
0.00578865
0.00722218
0.00570559
0.00276937
0.00545177
0.00499355
0.000491407
0.001953
0.000113026
0.000236945
0.000130399
0.000143414
0.000122369
9.96805e-05
9.327e-05
9.42322e-05
9.62404e-05
9.91036e-05
0.000105194
0.000116519
0.000136606
0.000168217
0.000240859
0.000362293
0.00044648
0.000446617
0.000395266
0.000291819
0.000214945
0.000164582
0.000129925
0.000108837
9.75195e-05
9.18656e-05
8.9361e-05
8.85996e-05
8.96572e-05
9.22303e-05
9.74435e-05
0.000105489
0.000121743
0.000232601
0.00109868
0.00408875
0.00493345
0.00505209
0.00609319
0.0060147
0.00704923
0.00699288
0.00704576
0.00706999
0.00775746
0.0078193
0.00821556
0.00828157
0.00844359
0.0085273
0.00853686
0.00863007
0.00855368
0.0086421
0.00850296
0.00863226
0.0082364
0.00862546
0.00724898
0.0083275
0.0071576
0.00430753
0.00691914
0.00650269
0.00109197
0.00333333
0.000132014
0.000479563
0.000147055
0.000155641
0.00012289
0.000100067
9.5811e-05
9.71555e-05
9.9725e-05
0.000105673
0.000116553
0.000135407
0.000164834
0.000226187
0.000341185
0.000441178
0.000453712
0.000416017
0.000312962
0.000228915
0.00017402
0.000136575
0.00011258
9.9398e-05
9.2486e-05
8.93616e-05
8.79568e-05
8.84278e-05
9.04265e-05
9.49535e-05
0.00010272
0.000118339
0.000216807
0.00102649
0.00387396
0.00563217
0.00546369
0.00590889
0.00578964
0.0068881
0.00675232
0.00769181
0.0075754
0.00781168
0.0077726
0.00828954
0.00826682
0.00857012
0.00856952
0.00869109
0.0087365
0.00870576
0.00877664
0.00867484
0.00872609
0.00868894
0.00864998
0.00871382
0.00872114
0.00835884
0.00877854
0.00829415
0.00584157
0.00814758
0.00784711
0.00212313
0.00486016
0.000181522
0.000988425
0.000150979
0.000159758
0.000120595
0.000100381
9.85155e-05
0.000100556
0.000106531
0.000116784
0.000134508
0.000162396
0.000214221
0.000319763
0.000429926
0.000460042
0.000431568
0.00033794
0.000244121
0.000183963
0.000143708
0.000117019
0.000101581
9.36078e-05
8.94969e-05
8.76774e-05
8.73644e-05
8.88137e-05
9.25026e-05
9.96585e-05
0.000114039
0.000194335
0.000921892
0.00355252
0.00533287
0.00506445
0.00625323
0.00608611
0.00659841
0.006435
0.00743285
0.00727124
0.00797899
0.00783407
0.00820359
0.00810288
0.00854738
0.00848478
0.00878188
0.00881448
0.00890254
0.00909899
0.00886135
0.00916604
0.00868924
0.00895957
0.00857203
0.00861556
0.00875744
0.00847486
0.00884755
0.00880028
0.00889532
0.00728822
0.00892706
0.00884537
0.003516
0.00640707
0.000267921
0.00186886
0.000160128
0.000158603
0.000113884
0.000101162
0.000101674
0.00010712
0.000117413
0.000133982
0.000160434
0.000204922
0.000299007
0.000414095
0.000461532
0.000444542
0.000363893
0.000261579
0.000194609
0.000151373
0.000121836
0.0001044
9.48885e-05
8.99878e-05
8.76649e-05
8.67002e-05
8.73736e-05
9.01915e-05
9.65487e-05
0.000109348
0.000172771
0.000794747
0.00323674
0.00522744
0.00588205
0.00584945
0.0067443
0.006585
0.00709665
0.00692079
0.00767743
0.00751406
0.00809964
0.00792314
0.00838407
0.00825515
0.00881967
0.00878289
0.00933732
0.00955682
0.00968378
0.0103208
0.00959906
0.0105748
0.00909888
0.0101357
0.00853472
0.00922817
0.00840883
0.0083879
0.00888932
0.00834313
0.00861882
0.0090355
0.00896406
0.00772914
0.00858512
0.00912301
0.00915438
0.00905694
0.0092491
0.00912273
0.00933261
0.00516169
0.00834976
0.00802904
0.00690006
0.000387711
0.00328851
0.000169698
0.000147772
0.000107224
0.000103142
0.000107838
0.000118336
0.000133937
0.000158938
0.000197934
0.000279912
0.000394999
0.000460222
0.000453421
0.000388494
0.000280941
0.000206411
0.000159146
0.000127564
0.000107384
9.66124e-05
9.07918e-05
8.77889e-05
8.6487e-05
8.63287e-05
8.81193e-05
9.3457e-05
0.000104733
0.000157351
0.000673234
0.0029788
0.00494126
0.00622362
0.00603279
0.00642621
0.00631415
0.00703705
0.00690888
0.00734788
0.00718702
0.00774617
0.00757507
0.0083095
0.00807652
0.00868251
0.0085291
0.00973388
0.00975194
0.0109271
0.0114036
0.0116869
0.0125802
0.0115989
0.0128166
0.0106813
0.0122202
0.00928124
0.0101574
0.011043
0.00822292
0.00826387
0.00926103
0.00858602
0.00837583
0.00876293
0.00843071
0.00817727
0.00886342
0.00904473
0.00914151
0.00899704
0.00929194
0.0093862
0.00942895
0.00763918
0.00576063
0.00718944
0.0088856
0.00864228
0.0013305
0.00672147
0.00593809
0.00417657
0.000169829
0.000125764
0.000105909
0.000108057
0.000118756
0.000134153
0.000157791
0.000193
0.000263078
0.000374392
0.000455617
0.000458616
0.000411171
0.000302654
0.000219197
0.00016782
0.000133144
0.000111213
9.85025e-05
9.1793e-05
8.81817e-05
8.65074e-05
8.58669e-05
8.65923e-05
9.05942e-05
0.000100633
0.000147764
0.000583078
0.00277562
0.00475173
0.00634759
0.0067125
0.00677069
0.00680642
0.00673769
0.00715407
0.00706545
0.00741613
0.0072744
0.00782898
0.00757917
0.00915119
0.00871114
0.00968411
0.00950382
0.011685
0.011693
0.0130654
0.0131193
0.0135303
0.0138757
0.0132024
0.0138581
0.0116154
0.0123518
0.0126896
0.0132086
0.0100057
0.0109528
0.011038
0.0116776
0.00819699
0.00850233
0.00992673
0.00911865
0.00818179
0.00854711
0.00822631
0.00814487
0.00867477
0.00938808
0.00883478
0.00901904
0.00921884
0.00954241
0.00941814
0.008344
0.00803451
0.00932175
0.00917061
0.00585595
0.00189312
0.0050377
0.00772482
0.00736256
0.000156134
0.000113415
0.000108454
0.000118534
0.000134277
0.000157213
0.000189767
0.000249067
0.000353169
0.000445557
0.000461043
0.000427926
0.000324404
0.000233975
0.000176733
0.000139895
0.000114885
0.000100818
9.31341e-05
8.89058e-05
8.67311e-05
8.58324e-05
8.58443e-05
8.83853e-05
9.76208e-05
0.000143332
0.000537686
0.00259374
0.00469755
0.00632108
0.00726198
0.00732161
0.00706421
0.00716338
0.00702291
0.00702634
0.0071437
0.00710273
0.00738255
0.00724153
0.00823833
0.00778408
0.0107738
0.0101711
0.0115322
0.01122
0.0129225
0.0125638
0.0139018
0.0136039
0.0143021
0.014449
0.0134846
0.0138929
0.0141751
0.0145164
0.0122361
0.0126716
0.0130662
0.0134324
0.0107154
0.0113977
0.0115542
0.0121204
0.00838934
0.00896238
0.0105255
0.00973941
0.0081153
0.0083095
0.00811065
0.00827363
0.00843366
0.00960555
0.00860417
0.00881194
0.00904942
0.0095972
0.00929978
0.00896662
0.00874509
0.00960992
0.00953789
0.00776183
0.00639823
0.0111243
0.00859461
0.00876357
0.000135952
0.000111292
0.000116739
0.000134075
0.000156876
0.000187784
0.000238052
0.000332738
0.000431071
0.000460757
0.000439237
0.000348835
0.000249922
0.000186968
0.00014627
0.00011979
0.000102922
9.46444e-05
8.99316e-05
8.74159e-05
8.60432e-05
8.5748e-05
8.72542e-05
9.62221e-05
0.000143243
0.000529023
0.00246411
0.00468383
0.00628044
0.00787482
0.00765399
0.00792497
0.00727184
0.00745516
0.00711161
0.00715872
0.00707563
0.00707792
0.00742425
0.00718776
0.00942638
0.00862284
0.0114757
0.0111097
0.0121881
0.0118234
0.0130611
0.0124822
0.0142835
0.0136921
0.0147651
0.0149764
0.0150448
0.0149649
0.0138169
0.0142009
0.0145955
0.0149625
0.0125559
0.0129445
0.0133277
0.0137306
0.0111972
0.0119424
0.0117426
0.0123909
0.0087841
0.00952771
0.0109757
0.0103039
0.0081689
0.00813815
0.00810998
0.00859544
0.00821366
0.00971284
0.00835385
0.0085578
0.00881388
0.00953028
0.0090924
0.00938891
0.0092087
0.00974437
0.00969181
0.0101273
0.0222137
0.0169348
0.00919337
0.00965288
0.000124375
0.000115693
0.000133053
0.000156266
0.000187145
0.000229822
0.000313957
0.000414149
0.000458551
0.000446126
0.000372008
0.000267534
0.000197483
0.000153996
0.000124045
0.000106242
9.58711e-05
9.11805e-05
8.84018e-05
8.68298e-05
8.59962e-05
8.71133e-05
9.62327e-05
0.000147401
0.000544973
0.00242719
0.00463789
0.00617703
0.0080202
0.0083241
0.00847505
0.00789179
0.00814018
0.0073889
0.00761698
0.00711814
0.00721607
0.00706693
0.00704631
0.00787771
0.0073456
0.0106131
0.00984763
0.0113849
0.0112133
0.0119636
0.0115971
0.012774
0.0118512
0.0147952
0.0137951
0.0152846
0.0155115
0.0155807
0.0154948
0.0141607
0.0146077
0.0150511
0.0154613
0.0127836
0.0131785
0.0136006
0.0140612
0.0115181
0.0121877
0.0119672
0.0125887
0.00929067
0.0100558
0.0112794
0.0107311
0.00841153
0.00809008
0.00825454
0.00904013
0.00811286
0.00968963
0.00818017
0.00831751
0.00854424
0.0093544
0.00882266
0.00954505
0.00937617
0.00973329
0.0096521
0.0113686
0.0307994
0.0236621
0.00941793
0.00999976
0.000123553
0.000128696
0.000155526
0.000185872
0.000225182
0.000297423
0.000396141
0.000452843
0.000449469
0.000391345
0.000286432
0.000209193
0.000161646
0.000129531
0.000108862
9.79201e-05
9.21473e-05
8.96756e-05
8.81988e-05
8.69451e-05
8.75557e-05
9.77668e-05
0.000163316
0.000611302
0.00245267
0.00454847
0.00601317
0.00803826
0.00859522
0.00829658
0.00836103
0.0079786
0.00818514
0.00747901
0.00772313
0.00710788
0.00726241
0.00726005
0.00707902
0.00886543
0.00790133
0.0109646
0.0105379
0.0107448
0.0108422
0.0111522
0.0107867
0.0124575
0.0112562
0.0156341
0.0149605
0.0133484
0.0143198
0.0158018
0.016029
0.016083
0.0159584
0.014552
0.0150528
0.0155367
0.0159709
0.0129923
0.0134287
0.0139086
0.0144274
0.0117314
0.01237
0.0121372
0.0127775
0.00978567
0.0104693
0.0114896
0.0110288
0.00877969
0.00814856
0.00854127
0.00949627
0.00810619
0.00953377
0.00812215
0.00818608
0.00831482
0.00907715
0.00851654
0.00946976
0.00929679
0.00957482
0.00945914
0.0124683
0.0257455
0.0254001
0.00941766
0.0102955
0.000130987
0.000151928
0.000185339
0.000221503
0.000285164
0.000377644
0.00044449
0.000448856
0.000407152
0.000305786
0.000221931
0.000170075
0.000135239
0.000112339
9.96175e-05
9.32531e-05
9.08583e-05
8.98428e-05
8.91104e-05
8.93312e-05
0.000103667
0.00020487
0.000778484
0.00257791
0.00448453
0.00580132
0.00801237
0.00873721
0.00753584
0.00755189
0.00788201
0.00767988
0.00795785
0.00796369
0.00758095
0.00780759
0.00713059
0.00731399
0.00770669
0.00720498
0.00976291
0.00871911
0.0108781
0.0107053
0.0102907
0.0105383
0.0104625
0.0101953
0.0126061
0.0117219
0.0107298
0.0158534
0.015152
0.0132773
0.0142424
0.0163176
0.01651
0.0165208
0.0163152
0.0149666
0.0155029
0.0160096
0.0164546
0.0132201
0.0137086
0.0142382
0.0147944
0.0118973
0.012544
0.0123021
0.012984
0.010189
0.0107681
0.0116573
0.0112428
0.00919303
0.00834248
0.0089004
0.0098899
0.00820322
0.00923993
0.00814102
0.0081468
0.00818343
0.00872268
0.00822152
0.00923062
0.00908553
0.00925207
0.0090988
0.0139717
0.00891804
0.0187774
0.00946284
0.0109008
0.000151724
0.000182923
0.000220625
0.000274913
0.000361883
0.000432753
0.000446279
0.000416725
0.000323736
0.000235432
0.000178707
0.00014182
0.000115975
0.0001013
9.4263e-05
9.19902e-05
9.15901e-05
9.18874e-05
9.3972e-05
0.000119061
0.000300425
0.00111435
0.00291253
0.00447602
0.00559664
0.00789854
0.00892707
0.00710595
0.00606899
0.00585948
0.00696688
0.00644038
0.0077777
0.00749041
0.00765111
0.00781588
0.00718484
0.00733809
0.00822677
0.00752436
0.010211
0.00932034
0.0107123
0.0106718
0.0102284
0.0105314
0.0101144
0.0100427
0.0123258
0.0115483
0.010547
0.010121
0.0160968
0.0152366
0.0130147
0.0141691
0.0168008
0.0169644
0.0169415
0.0166724
0.0153568
0.0159047
0.0164169
0.0168569
0.0134708
0.0139978
0.0145504
0.0151153
0.0120588
0.0127336
0.0124795
0.0132069
0.0104922
0.0109883
0.0118199
0.0114164
0.0095731
0.00862739
0.00925608
0.0101974
0.00840099
0.00884539
0.00823986
0.00815079
0.00805965
0.00832358
0.00798319
0.00889201
0.00896991
0.00882759
0.00870032
0.0148773
0.00470046
0.0139784
0.00977111
0.0118366
0.000184643
0.000218825
0.000269934
0.00034654
0.000421467
0.000440545
0.000422539
0.000339973
0.000249571
0.00018794
0.000148543
0.000120662
0.000103054
9.51122e-05
9.3114e-05
9.35102e-05
9.51095e-05
0.000101866
0.0001531
0.00049976
0.00167061
0.00336777
0.00449506
0.00550032
0.00774706
0.00911817
0.00767269
0.00390559
0.00425858
0.00410748
0.00384696
0.00559155
0.00468873
0.00738982
0.0066128
0.00760268
0.00765362
0.00721413
0.0073177
0.00861194
0.00772972
0.0103383
0.00961852
0.0106933
0.0106607
0.0102324
0.0105794
0.00997748
0.00992303
0.00995678
0.0119858
0.0111573
0.0101985
0.00991966
0.0163208
0.0153378
0.0127924
0.0141051
0.017196
0.0173389
0.017295
0.0169779
0.0156711
0.016204
0.0166957
0.0171356
0.0137195
0.0142538
0.0147915
0.0153154
0.0122296
0.0129334
0.0126606
0.013418
0.0107227
0.0111701
0.0119878
0.011584
0.00988299
0.00894193
0.00956473
0.0104351
0.00865817
0.00839562
0.0084025
0.00812631
0.00793025
0.00792126
0.00774687
0.00865543
0.00909299
0.00839771
0.00839053
0.0138343
0.00518307
0.0118269
0.010418
0.0124558
0.00022216
0.000265607
0.000337076
0.000407989
0.000434985
0.00042255
0.000354777
0.000263593
0.000197884
0.000155958
0.000125477
0.000105888
9.59998e-05
9.4062e-05
9.52977e-05
9.85573e-05
0.000112732
0.000225313
0.000838685
0.00245011
0.00389352
0.00456053
0.00550437
0.00773742
0.00930742
0.00819931
0.00370425
0.00174257
0.00183256
0.00210457
0.00178675
0.00401359
0.00281177
0.00667153
0.00543962
0.00735602
0.00725673
0.0072588
0.0072293
0.00884827
0.00792263
0.0103649
0.00974112
0.0107098
0.0106851
0.0101073
0.0102955
0.0105202
0.00982367
0.00981843
0.00991841
0.00972622
0.0116362
0.0107598
0.00984265
0.00963568
0.0165447
0.0154709
0.0126293
0.0141079
0.0174948
0.0176496
0.0176011
0.0172508
0.0158288
0.0163286
0.0168107
0.0172649
0.0139194
0.0144082
0.0148876
0.0153765
0.0123983
0.0131124
0.0128122
0.013565
0.0109139
0.0113437
0.0121478
0.0117516
0.0101348
0.00924507
0.00983046
0.0106383
0.00891132
0.00797971
0.00847714
0.00809889
0.00778128
0.00768325
0.00764872
0.00863779
0.00950884
0.00806817
0.00825402
0.0124641
0.00756416
0.011547
0.0111708
0.01241
0.000269069