/*--------------------------------*- C++ -*----------------------------------*\
  =========                 |
  \\      /  F ield         | OpenFOAM: The Open Source CFD Toolbox
   \\    /   O peration     | Website:  https://openfoam.org
    \\  /    A nd           | Version:  dev
     \\/     M anipulation  |
\*---------------------------------------------------------------------------*/
FoamFile
{
    version     2.0;
    format      ascii;
    class       volScalarField;
    location    "2500";
    object      N2;
}
// * * * * * * * * * * * * * * * * * * * * * * * * * * * * * * * * * * * * * //

dimensions      [0 0 0 0 0 0 0];

internalField   nonuniform List<scalar> 
9844
(
0.76699
0.76699
0.76699
0.76699
0.76699
0.76699
0.76699
0.76699
0.76699
0.76699
0.76699
0.76699
0.76699
0.76699
0.76699
0.76699
0.76699
0.76699
0.76699
0.76699
0.76699
0.76699
0.76699
0.76699
0.76699
0.76699
0.76699
0.76699
0.76699
0.76699
0.76699
0.76699
0.76699
0.76699
0.76699
0.76699
0.76699
0.76699
0.76699
0.76699
0.76699
0.76699
0.76699
0.76699
0.76699
0.76699
0.76699
0.76699
0.76699
0.76699
0.76699
0.76699
0.76699
0.76699
0.76699
0.76699
0.76699
0.76699
0.76699
0.76699
0.76699
0.76699
0.76699
0.76699
0.76699
0.76699
0.76699
0.76699
0.76699
0.76699
0.76699
0.76699
0.76699
0.76699
0.76699
0.76699
0.76699
0.76699
0.76699
0.76699
0.76699
0.76699
0.76699
0.76699
0.76699
0.76699
0.76699
0.76699
0.76699
0.76699
0.76699
0.76699
0.76699
0.76699
0.76699
0.76699
0.76699
0.76699
0.76699
0.76699
0.76699
0.76699
0.76699
0.76699
0.76699
0.76699
0.76699
0.76699
0.76699
0.76699
0.76699
0.76699
0.76699
0.76699
0.76699
0.76699
0.76699
0.76699
0.76699
0.76699
0.76699
0.76699
0.76699
0.76699
0.76699
0.76699
0.76699
0.76699
0.76699
0.76699
0.76699
0.76699
0.76699
0.76699
0.76699
0.76699
0.76699
0.76699
0.76699
0.76699
0.76699
0.76699
0.76699
0.76699
0.76699
0.76699
0.76699
0.76699
0.76699
0.76699
0.76699
0.76699
0.76699
0.76699
0.76699
0.76699
0.76699
0.76699
0.76699
0.76699
0.76699
0.76699
0.76699
0.76699
0.76699
0.76699
0.76699
0.76699
0.76699
0.76699
0.76699
0.76699
0.76699
0.76699
0.76699
0.76699
0.76699
0.76699
0.76699
0.76699
0.76699
0.76699
0.76699
0.76699
0.76699
0.76699
0.76699
0.76699
0.76699
0.76699
0.76699
0.76699
0.76699
0.76699
0.76699
0.76699
0.76699
0.76699
0.76699
0.76699
0.76699
0.76699
0.76699
0.76699
0.76699
0.76699
0.76699
0.76699
0.76699
0.76699
0.76699
0.76699
0.76699
0.76699
0.76699
0.76699
0.76699
0.76699
0.76699
0.76699
0.76699
0.76699
0.76699
0.76699
0.76699
0.76699
0.76699
0.76699
0.76699
0.76699
0.76699
0.76699
0.76699
0.76699
0.76699
0.76699
0.76699
0.76699
0.76699
0.76699
0.76699
0.76699
0.76699
0.76699
0.76699
0.76699
0.76699
0.76699
0.76699
0.76699
0.76699
0.76699
0.76699
0.76699
0.76699
0.76699
0.76699
0.76699
0.76699
0.76699
0.76699
0.76699
0.76699
0.76699
0.76699
0.76699
0.76699
0.76699
0.76699
0.76699
0.76699
0.76699
0.76699
0.76699
0.76699
0.76699
0.76699
0.76699
0.76699
0.76699
0.76699
0.76699
0.76699
0.76699
0.76699
0.76699
0.76699
0.76699
0.76699
0.76699
0.76699
0.76699
0.76699
0.76699
0.76699
0.76699
0.76699
0.76699
0.76699
0.76699
0.76699
0.76699
0.76699
0.76699
0.76699
0.76699
0.76699
0.76699
0.76699
0.76699
0.76699
0.76699
0.76699
0.76699
0.76699
0.76699
0.76699
0.76699
0.76699
0.76699
0.76699
0.76699
0.76699
0.76699
0.76699
0.76699
0.76699
0.76699
0.76699
0.76699
0.76699
0.76699
0.76699
0.76699
0.76699
0.76699
0.76699
0.76699
0.76699
0.76699
0.76699
0.76699
0.76699
0.76699
0.76699
0.76699
0.76699
0.76699
0.76699
0.76699
0.76699
0.76699
0.76699
0.76699
0.76699
0.76699
0.76699
0.76699
0.76699
0.76699
0.76699
0.76699
0.76699
0.76699
0.76699
0.76699
0.76699
0.76699
0.76699
0.76699
0.76699
0.76699
0.76699
0.76699
0.76699
0.76699
0.76699
0.76699
0.76699
0.76699
0.76699
0.76699
0.76699
0.76699
0.76699
0.76699
0.76699
0.76699
0.76699
0.76699
0.76699
0.76699
0.76699
0.76699
0.76699
0.76699
0.76699
0.76699
0.76699
0.76699
0.76699
0.76699
0.76699
0.76699
0.76699
0.76699
0.76699
0.76699
0.76699
0.76699
0.76699
0.76699
0.76699
0.76699
0.76699
0.76699
0.76699
0.76699
0.76699
0.76699
0.76699
0.76699
0.76699
0.76699
0.76699
0.76699
0.76699
0.76699
0.76699
0.76699
0.76699
0.76699
0.76699
0.76699
0.76699
0.76699
0.76699
0.76699
0.76699
0.76699
0.76699
0.76699
0.76699
0.76699
0.76699
0.76699
0.76699
0.76699
0.76699
0.76699
0.76699
0.76699
0.76699
0.76699
0.76699
0.76699
0.76699
0.76699
0.76699
0.76699
0.76699
0.76699
0.76699
0.76699
0.76699
0.76699
0.76699
0.76699
0.76699
0.76699
0.76699
0.76699
0.76699
0.76699
0.76699
0.76699
0.76699
0.76699
0.76699
0.76699
0.76699
0.76699
0.76699
0.76699
0.76699
0.76699
0.76699
0.76699
0.76699
0.76699
0.76699
0.76699
0.76699
0.76699
0.76699
0.76699
0.76699
0.76699
0.76699
0.76699
0.76699
0.76699
0.76699
0.76699
0.76699
0.76699
0.76699
0.76699
0.76699
0.76699
0.76699
0.76699
0.76699
0.76699
0.76699
0.76699
0.76699
0.76699
0.76699
0.76699
0.76699
0.76699
0.76699
0.76699
0.76699
0.76699
0.76699
0.76699
0.76699
0.76699
0.76699
0.76699
0.76699
0.76699
0.76699
0.76699
0.76699
0.76699
0.76699
0.76699
0.76699
0.76699
0.76699
0.76699
0.76699
0.76699
0.76699
0.76699
0.76699
0.76699
0.76699
0.76699
0.76699
0.76699
0.76699
0.76699
0.76699
0.76699
0.76699
0.76699
0.76699
0.76699
0.76699
0.76699
0.76699
0.76699
0.76699
0.76699
0.76699
0.76699
0.76699
0.76699
0.76699
0.76699
0.76699
0.76699
0.76699
0.76699
0.76699
0.76699
0.76699
0.76699
0.76699
0.76699
0.76699
0.76699
0.76699
0.76699
0.76699
0.76699
0.76699
0.76699
0.76699
0.76699
0.76699
0.76699
0.76699
0.76699
0.76699
0.76699
0.76699
0.76699
0.76699
0.76699
0.76699
0.76699
0.76699
0.76699
0.76699
0.76699
0.76699
0.76699
0.76699
0.76699
0.76699
0.76699
0.76699
0.76699
0.76699
0.76699
0.76699
0.76699
0.76699
0.76699
0.76699
0.76699
0.76699
0.76699
0.76699
0.76699
0.76699
0.76699
0.76699
0.76699
0.76699
0.76699
0.76699
0.76699
0.76699
0.76699
0.76699
0.76699
0.76699
0.76699
0.76699
0.76699
0.76699
0.76699
0.76699
0.76699
0.76699
0.76699
0.76699
0.76699
0.76699
0.76699
0.76699
0.76699
0.76699
0.76699
0.76699
0.76699
0.76699
0.76699
0.76699
0.76699
0.76699
0.76699
0.76699
0.76699
0.76699
0.76699
0.76699
0.76699
0.76699
0.76699
0.76699
0.76699
0.76699
0.76699
0.76699
0.76699
0.76699
0.76699
0.76699
0.76699
0.76699
0.76699
0.76699
0.76699
0.76699
0.76699
0.76699
0.76699
0.76699
0.76699
0.76699
0.76699
0.76699
0.76699
0.76699
0.76699
0.76699
0.76699
0.76699
0.76699
0.76699
0.76699
0.76699
0.76699
0.76699
0.76699
0.76699
0.76699
0.76699
0.76699
0.76699
0.76699
0.76699
0.76699
0.76699
0.76699
0.76699
0.76699
0.76699
0.76699
0.76699
0.76699
0.76699
0.76699
0.76699
0.76699
0.76699
0.76699
0.76699
0.76699
0.76699
0.76699
0.76699
0.76699
0.76699
0.76699
0.76699
0.76699
0.76699
0.76699
0.76699
0.76699
0.76699
0.76699
0.76699
0.76699
0.76699
0.76699
0.76699
0.76699
0.76699
0.76699
0.76699
0.76699
0.76699
0.76699
0.76699
0.76699
0.76699
0.76699
0.76699
0.76699
0.76699
0.76699
0.76699
0.76699
0.76699
0.76699
0.76699
0.76699
0.76699
0.76699
0.76699
0.76699
0.76699
0.76699
0.76699
0.76699
0.76699
0.76699
0.76699
0.76699
0.76699
0.76699
0.76699
0.76699
0.76699
0.76699
0.76699
0.76699
0.76699
0.76699
0.76699
0.76699
0.76699
0.76699
0.76699
0.76699
0.76699
0.76699
0.76699
0.76699
0.76699
0.76699
0.76699
0.76699
0.76699
0.76699
0.76699
0.76699
0.76699
0.76699
0.76699
0.76699
0.76699
0.76699
0.76699
0.76699
0.76699
0.76699
0.76699
0.76699
0.76699
0.76699
0.76699
0.76699
0.76699
0.76699
0.76699
0.76699
0.76699
0.76699
0.76699
0.76699
0.76699
0.76699
0.76699
0.76699
0.76699
0.76699
0.76699
0.76699
0.76699
0.76699
0.76699
0.76699
0.76699
0.76699
0.76699
0.76699
0.76699
0.76699
0.76699
0.76699
0.76699
0.76699
0.76699
0.76699
0.76699
0.76699
0.76699
0.76699
0.76699
0.76699
0.76699
0.76699
0.76699
0.76699
0.76699
0.76699
0.76699
0.76699
0.76699
0.76699
0.76699
0.76699
0.76699
0.76699
0.76699
0.76699
0.76699
0.76699
0.76699
0.76699
0.76699
0.76699
0.76699
0.76699
0.76699
0.76699
0.76699
0.76699
0.76699
0.76699
0.76699
0.76699
0.76699
0.76699
0.76699
0.76699
0.76699
0.76699
0.76699
0.76699
0.76699
0.76699
0.76699
0.76699
0.76699
0.76699
0.76699
0.76699
0.76699
0.76699
0.76699
0.76699
0.76699
0.76699
0.76699
0.76699
0.76699
0.76699
0.76699
0.76699
0.76699
0.76699
0.76699
0.76699
0.76699
0.766989
0.766989
0.766988
0.766989
0.766987
0.766989
0.766987
0.766989
0.766988
0.76699
0.766989
0.76699
0.766989
0.76699
0.76699
0.76699
0.76699
0.76699
0.76699
0.76699
0.76699
0.76699
0.76699
0.76699
0.76699
0.76699
0.76699
0.76699
0.76699
0.76699
0.76699
0.76699
0.76699
0.76699
0.76699
0.76699
0.76699
0.76699
0.76699
0.76699
0.76699
0.76699
0.76699
0.76699
0.76699
0.76699
0.76699
0.76699
0.76699
0.76699
0.76699
0.76699
0.766989
0.766986
0.766984
0.766984
0.766979
0.766983
0.766975
0.766983
0.766975
0.766985
0.766978
0.766988
0.766982
0.766989
0.766987
0.766989
0.76699
0.766989
0.766989
0.76699
0.76699
0.76699
0.76699
0.76699
0.76699
0.76699
0.76699
0.76699
0.76699
0.76699
0.76699
0.76699
0.76699
0.76699
0.76699
0.76699
0.76699
0.76699
0.76699
0.76699
0.76699
0.76699
0.76699
0.76699
0.76699
0.76699
0.76699
0.76699
0.76699
0.76699
0.76699
0.76699
0.76699
0.76699
0.766988
0.766981
0.766978
0.766973
0.766964
0.766964
0.766948
0.766959
0.766935
0.766961
0.766932
0.766969
0.76694
0.766979
0.766958
0.766986
0.766975
0.766986
0.76699
0.766986
0.766987
0.76699
0.76699
0.76699
0.76699
0.76699
0.76699
0.76699
0.76699
0.76699
0.76699
0.76699
0.76699
0.76699
0.76699
0.76699
0.76699
0.76699
0.76699
0.76699
0.76699
0.76699
0.76699
0.76699
0.76699
0.76699
0.76699
0.76699
0.76699
0.76699
0.76699
0.76699
0.76699
0.76699
0.76699
0.766989
0.766985
0.766974
0.766976
0.766956
0.766945
0.76693
0.766911
0.766906
0.766873
0.766891
0.766844
0.766893
0.766833
0.766914
0.766846
0.766945
0.766884
0.766972
0.766934
0.76697
0.766988
0.766971
0.766975
0.76699
0.766989
0.76699
0.76699
0.76699
0.76699
0.76699
0.76699
0.76699
0.76699
0.76699
0.76699
0.76699
0.76699
0.76699
0.76699
0.76699
0.76699
0.76699
0.76699
0.76699
0.76699
0.76699
0.76699
0.76699
0.76699
0.76699
0.76699
0.76699
0.76699
0.76699
0.76699
0.76699
0.76699
0.766989
0.766983
0.766942
0.766938
0.76692
0.766891
0.766872
0.766839
0.766808
0.766795
0.766749
0.766769
0.766707
0.766768
0.766691
0.766797
0.766705
0.766855
0.766751
0.766926
0.766833
0.766922
0.766979
0.766926
0.766936
0.766989
0.766984
0.76699
0.76699
0.76699
0.76699
0.76699
0.76699
0.76699
0.76699
0.76699
0.76699
0.76699
0.76699
0.76699
0.76699
0.76699
0.76699
0.76699
0.76699
0.76699
0.76699
0.76699
0.76699
0.76699
0.76699
0.76699
0.76699
0.76699
0.76699
0.76699
0.76699
0.76699
0.76699
0.766989
0.766983
0.766938
0.766831
0.766822
0.766855
0.766841
0.766779
0.766755
0.766707
0.766671
0.766652
0.766603
0.766621
0.766558
0.766618
0.766541
0.766648
0.766554
0.766713
0.766601
0.766819
0.766688
0.766816
0.766952
0.766826
0.76685
0.766987
0.766968
0.76699
0.766989
0.76699
0.76699
0.76699
0.76699
0.76699
0.76699
0.76699
0.76699
0.76699
0.76699
0.76699
0.76699
0.76699
0.76699
0.76699
0.76699
0.76699
0.76699
0.76699
0.76699
0.76699
0.76699
0.76699
0.76699
0.76699
0.76699
0.76699
0.76699
0.76699
0.76699
0.76699
0.766984
0.766941
0.766817
0.766815
0.76671
0.766703
0.766735
0.76672
0.766642
0.766618
0.766562
0.766529
0.766504
0.766458
0.766472
0.766412
0.766471
0.766397
0.7665
0.766411
0.766566
0.766458
0.766675
0.766544
0.766675
0.766885
0.766691
0.766725
0.76698
0.766925
0.76699
0.766987
0.76699
0.76699
0.76699
0.76699
0.76699
0.76699
0.76699
0.76699
0.76699
0.76699
0.76699
0.76699
0.76699
0.76699
0.76699
0.76699
0.76699
0.76699
0.76699
0.76699
0.76699
0.76699
0.76699
0.76699
0.76699
0.76699
0.76699
0.76699
0.76699
0.76699
0.76699
0.766985
0.766942
0.766816
0.766829
0.7667
0.766701
0.766581
0.766578
0.7666
0.766588
0.766502
0.766481
0.766419
0.766388
0.76636
0.766314
0.766329
0.766267
0.766329
0.766252
0.766361
0.766271
0.766428
0.766323
0.766535
0.766411
0.766539
0.766777
0.76656
0.7666
0.76696
0.766845
0.766989
0.76698
0.76699
0.76699
0.76699
0.76699
0.76699
0.76699
0.76699
0.76699
0.76699
0.76699
0.76699
0.76699
0.76699
0.76699
0.76699
0.76699
0.76699
0.76699
0.76699
0.76699
0.76699
0.76699
0.76699
0.76699
0.76699
0.76699
0.76699
0.76699
0.76699
0.76699
0.76699
0.766985
0.766944
0.766767
0.766702
0.766693
0.766579
0.766582
0.766456
0.766457
0.766467
0.766459
0.766364
0.766346
0.766275
0.766243
0.76621
0.766159
0.766176
0.766105
0.766181
0.76609
0.766222
0.766118
0.766297
0.766184
0.766405
0.766283
0.766414
0.766659
0.766439
0.766481
0.766915
0.766742
0.766988
0.766965
0.76699
0.76699
0.76699
0.76699
0.76699
0.76699
0.76699
0.76699
0.76699
0.76699
0.76699
0.76699
0.76699
0.76699
0.76699
0.76699
0.76699
0.76699
0.76699
0.76699
0.76699
0.76699
0.76699
0.76699
0.76699
0.76699
0.76699
0.76699
0.76699
0.76699
0.766986
0.766947
0.766784
0.766604
0.766614
0.766588
0.766594
0.766461
0.766469
0.766333
0.766337
0.766335
0.766331
0.766219
0.766202
0.766115
0.76608
0.766036
0.765981
0.765997
0.765921
0.766008
0.7659
0.766063
0.765935
0.766159
0.766024
0.766281
0.766148
0.766293
0.766545
0.766322
0.766368
0.766844
0.766636
0.766986
0.766937
0.76699
0.76699
0.76699
0.76699
0.76699
0.76699
0.76699
0.76699
0.76699
0.76699
0.76699
0.76699
0.76699
0.76699
0.76699
0.76699
0.76699
0.76699
0.76699
0.76699
0.76699
0.76699
0.76699
0.76699
0.76699
0.76699
0.76699
0.76699
0.76699
0.766987
0.766953
0.766803
0.766624
0.766647
0.766505
0.766517
0.76648
0.766492
0.766347
0.766361
0.766198
0.766209
0.766193
0.766194
0.766054
0.766039
0.765947
0.765932
0.765887
0.76588
0.765844
0.76584
0.765822
0.765795
0.765875
0.765762
0.766
0.76584
0.76615
0.765992
0.766169
0.766437
0.766204
0.766256
0.766757
0.766531
0.766984
0.7669
0.76699
0.76699
0.76699
0.76699
0.76699
0.76699
0.76699
0.76699
0.76699
0.76699
0.76699
0.76699
0.76699
0.76699
0.76699
0.76699
0.76699
0.76699
0.76699
0.76699
0.76699
0.76699
0.76699
0.76699
0.76699
0.76699
0.76699
0.76699
0.766988
0.766961
0.766822
0.766604
0.766533
0.766531
0.766413
0.76643
0.766378
0.766395
0.766226
0.766248
0.766048
0.766065
0.766035
0.766039
0.765928
0.765929
0.765885
0.765894
0.765852
0.765876
0.765809
0.765848
0.765754
0.765793
0.765718
0.765714
0.765817
0.76568
0.766001
0.765805
0.765905
0.76611
0.766017
0.766407
0.76631
0.766155
0.766059
0.766036
0.766087
0.766218
0.766119
0.76666
0.766352
0.7664
0.766507
0.766981
0.766851
0.76699
0.76699
0.76699
0.76699
0.76699
0.76699
0.76699
0.76699
0.76699
0.76699
0.76699
0.76699
0.76699
0.76699
0.76699
0.76699
0.76699
0.76699
0.76699
0.76699
0.76699
0.76699
0.76699
0.76699
0.76699
0.76699
0.76699
0.766988
0.766967
0.766841
0.766624
0.766474
0.766498
0.766448
0.766461
0.766324
0.766349
0.766272
0.766298
0.76609
0.766121
0.765939
0.765946
0.765931
0.765935
0.765905
0.765916
0.765912
0.765952
0.765923
0.765992
0.765886
0.765991
0.765792
0.765928
0.765683
0.765737
0.765811
0.765724
0.765651
0.765654
0.765636
0.765809
0.765926
0.765817
0.765717
0.76594
0.766255
0.765988
0.765962
0.766019
0.766158
0.766055
0.766453
0.766639
0.766511
0.766299
0.766346
0.766961
0.766579
0.766678
0.766827
0.76699
0.76699
0.76699
0.76699
0.76699
0.76699
0.76699
0.76699
0.76699
0.76699
0.76699
0.76699
0.76699
0.76699
0.76699
0.76699
0.76699
0.76699
0.76699
0.76699
0.76699
0.76699
0.76699
0.76699
0.76699
0.76699
0.766989
0.766971
0.766858
0.766644
0.766478
0.766413
0.766422
0.766372
0.766392
0.766229
0.766264
0.766155
0.766192
0.765962
0.76599
0.765922
0.765917
0.765923
0.765924
0.765985
0.766008
0.766039
0.766069
0.766042
0.76606
0.766023
0.766049
0.765881
0.765957
0.765996
0.766027
0.765706
0.765791
0.765804
0.765882
0.765644
0.765616
0.765685
0.765631
0.765719
0.765836
0.765729
0.765638
0.765855
0.766198
0.765881
0.765911
0.765946
0.766095
0.765985
0.766395
0.766446
0.766243
0.766288
0.766759
0.766958
0.76687
0.766501
0.766567
0.76699
0.76699
0.76699
0.76699
0.76699
0.76699
0.76699
0.76699
0.76699
0.76699
0.76699
0.76699
0.76699
0.76699
0.76699
0.76699
0.76699
0.76699
0.76699
0.76699
0.76699
0.76699
0.76699
0.76699
0.76699
0.766989
0.766973
0.766875
0.766664
0.766501
0.766397
0.766423
0.766354
0.766376
0.766297
0.766327
0.766122
0.766171
0.766028
0.766073
0.765913
0.765914
0.766001
0.765976
0.766017
0.766013
0.766095
0.766121
0.766072
0.766087
0.766044
0.76602
0.766034
0.766029
0.76601
0.765978
0.765951
0.765996
0.766017
0.766022
0.765767
0.765851
0.76587
0.765939
0.765602
0.76561
0.765741
0.765661
0.765638
0.765745
0.765644
0.76559
0.765767
0.766138
0.765795
0.765828
0.765867
0.766029
0.76591
0.766333
0.766375
0.766184
0.766228
0.76664
0.766897
0.766727
0.766413
0.766446
0.76699
0.76699
0.76699
0.76699
0.76699
0.76699
0.76699
0.76699
0.76699
0.76699
0.76699
0.76699
0.76699
0.76699
0.76699
0.76699
0.76699
0.76699
0.76699
0.76699
0.76699
0.76699
0.76699
0.76699
0.766989
0.766974
0.766887
0.766687
0.766522
0.766441
0.766363
0.766393
0.766297
0.766332
0.766217
0.766259
0.766011
0.766069
0.765926
0.765959
0.765944
0.765912
0.766139
0.766105
0.766146
0.766151
0.766112
0.766147
0.766002
0.766013
0.765945
0.76591
0.765885
0.765864
0.766005
0.765972
0.765929
0.765883
0.765982
0.766001
0.765998
0.765974
0.765825
0.76592
0.765895
0.765962
0.76559
0.765633
0.765794
0.76571
0.765581
0.765657
0.765578
0.765571
0.765678
0.766075
0.765706
0.765741
0.765783
0.765958
0.76583
0.766269
0.766302
0.766122
0.766166
0.76646
0.766602
0.766414
0.766322
0.76633
0.76699
0.76699
0.76699
0.76699
0.76699
0.76699
0.76699
0.76699
0.76699
0.76699
0.76699
0.76699
0.76699
0.76699
0.76699
0.76699
0.76699
0.76699
0.76699
0.76699
0.76699
0.76699
0.76699
0.766988
0.766974
0.766892
0.766708
0.766543
0.766482
0.766426
0.766465
0.766336
0.766382
0.76624
0.766289
0.766129
0.766187
0.765916
0.76597
0.765895
0.765896
0.766049
0.765985
0.766226
0.766206
0.76619
0.766222
0.76606
0.766129
0.765816
0.76586
0.765838
0.7658
0.765774
0.765767
0.765931
0.765879
0.765823
0.765769
0.765979
0.765973
0.765941
0.765891
0.765864
0.765938
0.765909
0.765953
0.765604
0.765675
0.765828
0.765758
0.765554
0.765581
0.765543
0.765575
0.765595
0.766007
0.765619
0.765654
0.765697
0.765882
0.765747
0.766205
0.766232
0.766056
0.766103
0.766302
0.766394
0.766256
0.766239
0.766233
0.76699
0.76699
0.76699
0.76699
0.76699
0.76699
0.76699
0.76699
0.76699
0.76699
0.76699
0.76699
0.76699
0.76699
0.76699
0.76699
0.76699
0.76699
0.76699
0.76699
0.76699
0.76699
0.766987
0.766971
0.766892
0.766722
0.766561
0.766508
0.76654
0.766448
0.766511
0.766317
0.766384
0.76618
0.766248
0.766038
0.766109
0.765881
0.765898
0.765924
0.765886
0.766152
0.766071
0.766266
0.766244
0.766203
0.766254
0.765966
0.766101
0.765675
0.76571
0.765835
0.765758
0.765723
0.765689
0.765668
0.765664
0.76583
0.765767
0.765706
0.765654
0.765944
0.765908
0.765853
0.765786
0.765875
0.765923
0.765889
0.765913
0.765638
0.765717
0.765836
0.765787
0.765548
0.765535
0.765526
0.765598
0.765535
0.765935
0.765545
0.765571
0.76561
0.765802
0.765661
0.766141
0.766164
0.765987
0.766036
0.766202
0.766622
0.766298
0.766165
0.76616
0.76699
0.76699
0.76699
0.76699
0.76699
0.76699
0.76699
0.76699
0.76699
0.76699
0.76699
0.76699
0.76699
0.76699
0.76699
0.76699
0.76699
0.76699
0.76699
0.76699
0.766989
0.766985
0.766965
0.766889
0.766726
0.766572
0.766522
0.766576
0.766625
0.766658
0.766492
0.766569
0.766307
0.766403
0.766121
0.766212
0.765953
0.766034
0.765871
0.765869
0.765985
0.765911
0.766189
0.76611
0.766277
0.766244
0.766214
0.766271
0.765905
0.766
0.766129
0.765618
0.765669
0.765827
0.765739
0.765615
0.76559
0.765583
0.76559
0.765716
0.76565
0.765593
0.765549
0.765874
0.765816
0.765744
0.765669
0.765851
0.76588
0.765844
0.765841
0.765673
0.765743
0.76581
0.765793
0.765559
0.76551
0.765525
0.765626
0.7655
0.765859
0.765498
0.765506
0.765531
0.765719
0.765577
0.766074
0.766097
0.765915
0.765966
0.766166
0.76686
0.766468
0.766103
0.766109
0.76699
0.76699
0.76699
0.76699
0.76699
0.76699
0.76699
0.76699
0.76699
0.76699
0.76699
0.76699
0.76699
0.76699
0.76699
0.76699
0.76699
0.76699
0.76699
0.766989
0.766982
0.766953
0.766878
0.766725
0.766577
0.766529
0.766584
0.766723
0.766714
0.766758
0.766555
0.766649
0.76631
0.766438
0.766068
0.766184
0.765894
0.765966
0.765875
0.765853
0.766023
0.765938
0.76618
0.7661
0.766267
0.766208
0.766249
0.766282
0.765918
0.766011
0.766153
0.76624
0.765579
0.765646
0.765841
0.765737
0.765521
0.765509
0.765512
0.765535
0.765599
0.765539
0.765492
0.76546
0.76578
0.765706
0.765627
0.765553
0.765805
0.765807
0.76577
0.765746
0.765695
0.765747
0.765762
0.765765
0.76558
0.765498
0.765536
0.765645
0.76548
0.76578
0.765469
0.765465
0.765474
0.765636
0.765501
0.766007
0.766035
0.765841
0.765896
0.766201
0.766897
0.766545
0.766053
0.766091
0.76699
0.76699
0.76699
0.76699
0.76699
0.76699
0.76699
0.76699
0.76699
0.76699
0.76699
0.76699
0.76699
0.76699
0.76699
0.76699
0.76699
0.76699
0.766988
0.766975
0.766934
0.766855
0.76672
0.766577
0.76653
0.766584
0.76672
0.766853
0.76685
0.766806
0.766843
0.766626
0.766736
0.766324
0.766483
0.766027
0.766168
0.765864
0.765916
0.765872
0.76584
0.766018
0.765937
0.76613
0.76605
0.766232
0.766145
0.766276
0.766295
0.766293
0.765955
0.766063
0.766218
0.766282
0.765552
0.765636
0.765872
0.765745
0.765445
0.765444
0.765459
0.765494
0.76549
0.765441
0.765407
0.765388
0.765669
0.765589
0.765512
0.765447
0.765731
0.765711
0.765675
0.765635
0.765696
0.765716
0.765688
0.765716
0.765595
0.765497
0.765545
0.765645
0.765468
0.765701
0.76545
0.765439
0.765435
0.765555
0.765448
0.765942
0.76598
0.765767
0.765828
0.766256
0.766855
0.76653
0.766019
0.766107
0.76699
0.76699
0.76699
0.76699
0.76699
0.76699
0.76699
0.76699
0.76699
0.76699
0.76699
0.76699
0.76699
0.76699
0.76699
0.76699
0.76699
0.766986
0.766964
0.766909
0.766826
0.766706
0.766576
0.766531
0.76658
0.766708
0.766876
0.766926
0.766932
0.766871
0.76691
0.76668
0.766797
0.766342
0.766522
0.766001
0.766161
0.765846
0.765889
0.765855
0.765826
0.765976
0.765909
0.766058
0.765983
0.766231
0.766181
0.766114
0.766308
0.766313
0.766276
0.766316
0.766003
0.766122
0.766277
0.766328
0.765536
0.765635
0.765902
0.765757
0.765383
0.76539
0.765415
0.765463
0.765395
0.76536
0.765338
0.765329
0.765553
0.765475
0.765408
0.765355
0.765636
0.7656
0.765565
0.765519
0.765665
0.765667
0.765594
0.765644
0.765594
0.765501
0.765545
0.765615
0.765462
0.765624
0.765436
0.765417
0.765408
0.765485
0.76541
0.765883
0.765936
0.765695
0.765764
0.766297
0.766732
0.766507
0.766005
0.766139
0.76699
0.76699
0.76699
0.76699
0.76699
0.76699
0.76699
0.76699
0.76699
0.76699
0.76699
0.76699
0.76699
0.76699
0.76699
0.766989
0.766983
0.766949
0.766881
0.766793
0.766679
0.76657
0.766532
0.766581
0.766703
0.766869
0.766965
0.766963
0.766956
0.766966
0.76689
0.766934
0.766697
0.766815
0.766347
0.766535
0.765988
0.766156
0.765831
0.765876
0.765828
0.765813
0.765918
0.765865
0.766026
0.765955
0.766237
0.766187
0.76616
0.766108
0.766343
0.766341
0.766287
0.766333
0.766052
0.766182
0.766333
0.766372
0.765533
0.765643
0.76594
0.765782
0.765331
0.765349
0.765386
0.765448
0.765318
0.765294
0.765281
0.76528
0.76544
0.765372
0.765319
0.765281
0.765527
0.765485
0.765451
0.765407
0.765617
0.765596
0.765488
0.765551
0.765566
0.765499
0.765521
0.765568
0.765457
0.765551
0.765417
0.765397
0.765385
0.765433
0.765384
0.765832
0.765904
0.765627
0.765707
0.766326
0.766824
0.766591
0.766006
0.766163
0.76699
0.76699
0.76699
0.76699
0.76699
0.76699
0.76699
0.76699
0.76699
0.76699
0.76699
0.76699
0.76699
0.76699
0.766989
0.766981
0.766934
0.766853
0.766759
0.766646
0.76656
0.766535
0.766584
0.766704
0.766868
0.766968
0.766981
0.766984
0.766962
0.766975
0.76688
0.766934
0.766663
0.766789
0.766327
0.766506
0.765984
0.766144
0.765822
0.765873
0.765818
0.765811
0.76589
0.765841
0.766066
0.766025
0.765988
0.766265
0.766211
0.76622
0.766167
0.766378
0.766369
0.766319
0.766367
0.7661
0.766238
0.766385
0.766416
0.765538
0.765662
0.765983
0.765813
0.765294
0.765324
0.765374
0.765444
0.765257
0.765243
0.765242
0.76525
0.765339
0.765286
0.765249
0.765225
0.765416
0.765375
0.765344
0.765309
0.765549
0.765507
0.765383
0.765449
0.765524
0.765478
0.765483
0.765508
0.765434
0.765485
0.765399
0.765375
0.765366
0.765397
0.765366
0.765789
0.765883
0.765567
0.765656
0.76638
0.76695
0.766756
0.766011
0.766193
0.76699
0.76699
0.76699
0.76699
0.76699
0.76699
0.76699
0.76699
0.76699
0.76699
0.76699
0.76699
0.76699
0.766989
0.766979
0.766921
0.766827
0.766725
0.76662
0.766556
0.76654
0.766595
0.766714
0.766875
0.766967
0.766988
0.766983
0.766987
0.766955
0.766975
0.766833
0.766911
0.766587
0.76672
0.766279
0.766438
0.765979
0.766119
0.765826
0.765879
0.765845
0.765837
0.765923
0.765869
0.766118
0.766068
0.766102
0.766127
0.766328
0.766274
0.766318
0.766267
0.766421
0.766405
0.76638
0.766426
0.766152
0.766294
0.766443
0.766471
0.765552
0.765686
0.76603
0.765849
0.765276
0.765315
0.76537
0.765447
0.765213
0.765212
0.765217
0.765238
0.765257
0.765221
0.7652
0.765191
0.765318
0.765281
0.765261
0.765232
0.76547
0.765418
0.7653
0.765361
0.765468
0.76544
0.765424
0.765432
0.765399
0.765436
0.765375
0.765364
0.765355
0.765374
0.765352
0.765754
0.765869
0.765511
0.76561
0.766475
0.766976
0.766862
0.766021
0.766241
0.76699
0.76699
0.76699
0.76699
0.76699
0.76699
0.76699
0.76699
0.76699
0.76699
0.76699
0.76699
0.766989
0.766978
0.766912
0.766806
0.766697
0.766602
0.766557
0.766552
0.766619
0.766741
0.766892
0.76697
0.766988
0.766988
0.766987
0.766989
0.766982
0.766944
0.766971
0.766792
0.766888
0.766516
0.766662
0.76623
0.766371
0.765982
0.766097
0.765849
0.765898
0.765955
0.765934
0.766095
0.766008
0.766217
0.76617
0.766194
0.766247
0.76642
0.766369
0.766447
0.766399
0.766475
0.76646
0.766466
0.766506
0.766209
0.766354
0.766507
0.766536
0.765566
0.765711
0.766079
0.765886
0.765267
0.76531
0.765371
0.765454
0.76519
0.765193
0.765206
0.765227
0.765199
0.76518
0.765173
0.765171
0.765244
0.765215
0.765198
0.765182
0.765384
0.765325
0.765209
0.765265
0.765388
0.765387
0.765352
0.765337
0.765367
0.7654
0.76536
0.765351
0.765342
0.765354
0.76534
0.765724
0.765861
0.765462
0.765569
0.766585
0.766988
0.766948
0.766039
0.766307
0.76699
0.76699
0.76699
0.76699
0.76699
0.76699
0.76699
0.76699
0.76699
0.76699
0.76699
0.766989
0.766978
0.766908
0.766791
0.766676
0.766591
0.766559
0.766574
0.766655
0.76678
0.766911
0.766974
0.766988
0.76699
0.766986
0.766988
0.766989
0.766981
0.766942
0.76697
0.766785
0.766884
0.766499
0.766649
0.766225
0.766354
0.766025
0.766115
0.765929
0.76596
0.766209
0.76615
0.766343
0.766326
0.766326
0.766349
0.766298
0.766381
0.766425
0.766537
0.766493
0.766599
0.766558
0.766541
0.766532
0.766575
0.766604
0.766268
0.76642
0.766579
0.766611
0.765575
0.765727
0.766124
0.765914
0.765259
0.765306
0.765371
0.765458
0.765171
0.765177
0.765192
0.765216
0.765163
0.765155
0.765152
0.765151
0.765178
0.765161
0.765148
0.765145
0.76528
0.765237
0.765167
0.765194
0.765312
0.765353
0.765318
0.765272
0.76535
0.765374
0.765345
0.765337
0.765327
0.765343
0.765319
0.7657
0.765855
0.765421
0.765533
0.766715
0.76699
0.766979
0.766068
0.766385
0.76699
0.76699
0.76699
0.76699
0.76699
0.76699
0.76699
0.76699
0.766989
0.766989
0.766988
0.766977
0.766908
0.766783
0.766662
0.766589
0.766567
0.766601
0.766695
0.76682
0.766929
0.766979
0.766989
0.76699
0.76699
0.766986
0.766988
0.766989
0.766982
0.766945
0.766971
0.766806
0.766894
0.766546
0.766683
0.766306
0.766416
0.766152
0.766219
0.766124
0.766117
0.766634
0.766512
0.766502
0.766443
0.766634
0.766651
0.766514
0.76647
0.766555
0.766604
0.76667
0.766637
0.766755
0.766723
0.76662
0.766619
0.766696
0.766711
0.766327
0.766487
0.766654
0.766694
0.765578
0.765733
0.76615
0.765926
0.765251
0.765301
0.765369
0.76546
0.765153
0.765163
0.76518
0.765205
0.765139
0.765133
0.765132
0.765134
0.765149
0.765134
0.765128
0.765126
0.765236
0.765203
0.765129
0.765179
0.765273
0.765334
0.765294
0.765247
0.765331
0.765348
0.765328
0.765319
0.765308
0.765323
0.7653
0.765674
0.765856
0.765396
0.765489
0.766826
0.76699
0.766988
0.766102
0.76647
0.76699
0.76699
0.76699
0.76699
0.76699
0.766989
0.766989
0.766988
0.766988
0.766986
0.766976
0.766909
0.766781
0.766655
0.76659
0.766578
0.76663
0.766733
0.766857
0.766945
0.766982
0.766989
0.76699
0.76699
0.76699
0.766989
0.76699
0.766987
0.766989
0.766983
0.766958
0.766975
0.766862
0.766923
0.766669
0.766773
0.766486
0.766568
0.766394
0.766426
0.766437
0.766403
0.76674
0.766889
0.766872
0.766875
0.766724
0.766687
0.766794
0.766688
0.766648
0.766761
0.766797
0.766802
0.766782
0.76689
0.766874
0.766708
0.766712
0.766813
0.766813
0.766374
0.766555
0.766726
0.766775
0.765574
0.765729
0.766157
0.765929
0.765241
0.765293
0.765362
0.765453
0.765143
0.765157
0.765176
0.765202
0.765116
0.765113
0.765118
0.765128
0.765115
0.765103
0.765105
0.765096
0.765215
0.765175
0.765134
0.765146
0.765254
0.765305
0.765265
0.765211
0.765307
0.765342
0.765308
0.765302
0.765293
0.765302
0.765272
0.765653
0.765857
0.765372
0.765451
0.766927
0.76699
0.766989
0.766151
0.766591
0.76699
0.76699
0.76699
0.766989
0.766988
0.766987
0.766986
0.766984
0.766982
0.766972
0.76691
0.766781
0.766655
0.766592
0.766589
0.766654
0.766764
0.766883
0.766956
0.766984
0.766989
0.76699
0.76699
0.76699
0.766989
0.76699
0.76699
0.766988
0.766989
0.766986
0.766973
0.766981
0.766927
0.766956
0.766824
0.766882
0.766723
0.766767
0.766712
0.766701
0.766804
0.766744
0.766908
0.766941
0.766922
0.766952
0.766959
0.766874
0.766838
0.766924
0.766854
0.766827
0.766898
0.766914
0.766903
0.766899
0.766938
0.766935
0.766798
0.76681
0.766902
0.766898
0.766394
0.766605
0.766777
0.766839
0.765557
0.765709
0.766144
0.765911
0.765236
0.765283
0.76535
0.765437
0.765141
0.765157
0.765178
0.765201
0.765092
0.765098
0.76511
0.765119
0.765049
0.765086
0.765048
0.765088
0.765183
0.765176
0.765055
0.76506
0.765222
0.765266
0.765228
0.765198
0.765277
0.765322
0.765279
0.765271
0.765255
0.765271
0.765256
0.765618
0.765864
0.765335
0.765412
0.76696
0.76699
0.76699
0.76619
0.766725
0.766989
0.766989
0.766988
0.766985
0.766981
0.766977
0.766975
0.766973
0.766963
0.766908
0.766783
0.766656
0.766595
0.766598
0.766672
0.766784
0.766898
0.766963
0.766985
0.766989
0.76699
0.76699
0.76699
0.76699
0.76699
0.76699
0.76699
0.766989
0.766989
0.766988
0.766983
0.766986
0.766968
0.766978
0.766936
0.766954
0.766906
0.766919
0.766917
0.766908
0.766948
0.766932
0.766949