/*--------------------------------*- C++ -*----------------------------------*\
  =========                 |
  \\      /  F ield         | OpenFOAM: The Open Source CFD Toolbox
   \\    /   O peration     | Website:  https://openfoam.org
    \\  /    A nd           | Version:  dev
     \\/     M anipulation  |
\*---------------------------------------------------------------------------*/
FoamFile
{
    version     2.0;
    format      ascii;
    class       volScalarField;
    location    "2500";
    object      nut;
}
// * * * * * * * * * * * * * * * * * * * * * * * * * * * * * * * * * * * * * //

dimensions      [0 2 -1 0 0 0 0];

internalField   nonuniform List<scalar> 
9844
(
0.000127826
0.000131574
0.000124836
0.000121137
0.000157066
0.000111712
0.000111687
0.000165965
0.000148572
0.000105958
0.00010764
0.000160603
0.000169821
0.000127944
0.000104198
0.000104574
0.000145323
0.00018253
0.000157171
0.000116297
0.000103056
0.000102973
0.000129428
0.0001823
0.00017826
0.000134796
0.000111049
0.000102272
0.000102509
0.000120051
0.000175114
0.00019033
0.000159802
0.000121562
0.000107958
0.000101712
0.000102299
0.000112977
0.000157996
0.000196984
0.000181837
0.000137613
0.000115037
0.000105875
0.000101382
0.00010214
0.000108845
0.000137885
0.000194556
0.000195389
0.00015869
0.000124334
0.000111207
0.000104332
0.000101094
0.000101603
0.000106251
0.000126857
0.000185156
0.000204646
0.000181815
0.000137881
0.000117422
0.000108441
0.000103429
0.00010085
0.000100957
0.000104834
0.000118125
0.000165051
0.000208122
0.000198742
0.000155885
0.000125572
0.000113212
0.000106357
0.000102674
0.000100689
0.000100428
0.000104164
0.000112912
0.000143351
0.00020413
0.000208136
0.000178274
0.000136501
0.000118853
0.00011009
0.000105025
0.00010216
0.000100543
0.000100057
0.000103706
0.000109763
0.000131929
0.000192523
0.000215938
0.000197938
0.000152868
0.000125423
0.000114468
0.000107816
0.000103873
0.000101792
0.000100346
9.98993e-05
0.000103322
0.000107782
0.000122964
0.000171283
0.000217091
0.000211736
0.000172356
0.000135068
0.000119219
0.000111178
0.000106174
0.000103052
0.00010138
0.000100247
0.000100003
0.000102733
0.000106374
0.000117242
0.000149459
0.000212174
0.000218228
0.000194419
0.000148596
0.000124925
0.000115002
0.000108837
0.000104702
0.00010252
0.00010093
0.000100187
0.000100124
0.000101894
0.000105548
0.000113392
0.000137669
0.000199432
0.000225127
0.000210441
0.000166772
0.000132834
0.000119064
0.000111813
0.000106978
0.000103705
0.000101999
0.000100592
0.000100128
0.000100186
0.000101138
0.000104747
0.000110823
0.000128338
0.000177987
0.000225087
0.000222103
0.000186998
0.000144601
0.000124016
0.000115017
0.000109425
0.000105448
0.000103029
0.000101414
0.000100376
0.000100063
0.000100209
0.000100598
0.000103981
0.000108887
0.000121908
0.000156404
0.000219824
0.000227349
0.00020755
0.000160434
0.000130562
0.000118738
0.000112003
0.000107543
0.000104274
0.00010242
0.000100895
0.000100209
0.000100014
0.000100171
0.00010019
0.000103176
0.000107327
0.000117398
0.000143476
0.00020689
0.00023348
0.000221006
0.000179266
0.000140638
0.00012276
0.000114999
0.000109721
0.000106027
0.000103442
0.000101826
0.000100533
0.000100047
9.99752e-05
0.000100087
9.99636e-05
0.000102464
0.000106179
0.000114095
0.000133958
0.000186019
0.00023312
0.000231142
0.000199128
0.000154251
0.000128594
0.000118057
0.000112082
0.000107919
0.000104806
0.000102763
0.000101245
0.000100271
9.99217e-05
9.99447e-05
0.000100009
9.99645e-05
0.000101907
0.000105401
0.00011177
0.000126798
0.000164868
0.000227986
0.0002356
0.000218221
0.000171257
0.000136634
0.000121749
0.000114628
0.000109836
0.000106443
0.000103849
0.000102154
0.000100784
0.000100044
9.9831e-05
9.99263e-05
9.99474e-05
9.99767e-05
0.000101318
0.000104763
0.00011006
0.000121822
0.000149563
0.000215748
0.000241438
0.000229921
0.00018972
0.000148594
0.000126283
0.000117417
0.000112013
0.000108122
0.000105249
0.000103105
0.00010161
0.000100467
9.98711e-05
9.97705e-05
9.99188e-05
9.99032e-05
9.99628e-05
0.000100822
0.00010405
0.000108729
0.000118143
0.000140341
0.000196332
0.000241327
0.000239235
0.000208804
0.000163003
0.000133422
0.000120458
0.000114192
0.000109951
0.000106739
0.000104279
0.00010249
0.000101116
0.000100205
9.97458e-05
9.97461e-05
9.99288e-05
9.98756e-05
9.99214e-05
0.000100435
0.000103391
0.000107751
0.000115331
0.000132627
0.000175844
0.000237085
0.000243187
0.000226565
0.000180332
0.000142769
0.000124484
0.000116791
0.000111779
0.00010832
0.000105613
0.000103473
0.000101961
0.000100765
0.000100009
9.96828e-05
9.97704e-05
9.99614e-05
9.98576e-05
9.98686e-05
0.000100152
0.000102866
0.000106977
0.000113343
0.000126914
0.000157354
0.000226595
0.000248761
0.000237723
0.000197707
0.000155616
0.000130032
0.000119378
0.000113846
0.000109942
0.000106992
0.000104655
0.000102844
0.000101507
0.00010051
9.98962e-05
9.96932e-05
9.9851e-05
0.000100026
9.98446e-05
9.98175e-05
9.99369e-05
0.000102474
0.00010635
0.000111992
0.000122749
0.000147542
0.000210357
0.00025004
0.000246095
0.000216282
0.000170052
0.000137931
0.000122673
0.000116024
0.000111603
0.000108456
0.000105905
0.00010387
0.000102333
0.000101153
0.000100339
9.98721e-05
9.97887e-05
0.00010001
0.000100135
9.9836e-05
9.97713e-05
9.97843e-05
0.000102225
0.000105945
0.000110993
0.000119667
0.000139863
0.000190003
0.00024742
0.00025116
0.000232198
0.000186912
0.000148097
0.000127197
0.00011835
0.000113399
0.000109894
0.000107217
0.000105016
0.000103252
0.000101951
0.000100923
0.000100264
9.99544e-05
9.9992e-05
0.000100276
0.000100301
9.98299e-05
9.97252e-05
9.96893e-05
0.000102095
0.000105595
0.000110115
0.000117407
0.000133473
0.000172323
0.000240005
0.000255444
0.000244513
0.00020335
0.000160854
0.000133409
0.000121022
0.000115187
0.000111374
0.000108532
0.000106226
0.000104315
0.000102797
0.000101671
0.000100801
0.000100313
0.000100168
0.000100345
0.00010069
0.000100438
9.98259e-05
9.9676e-05
9.96404e-05
0.000102024
0.000105322
0.000109556
0.000115664
0.000128677
0.000157542
0.000226476
0.000259065
0.000252108
0.000220335
0.000175296
0.000141619
0.000124619
0.000117316
0.000112816
0.000109837
0.000107452
0.000105453
0.000103763
0.000102462
0.000101488
0.000100809
0.000100508
0.000100555
0.000100897
0.000101357
0.000100882
9.98213e-05
9.96181e-05
9.96349e-05
0.00010198
0.000105129
0.000109262
0.000114409
0.000125164
0.000149125
0.000211242
0.000257988
0.000258742
0.000235425
0.000190459
0.000152122
0.000129446
0.000119469
0.000114462
0.000111083
0.000108642
0.000106608
0.000104852
0.000103362
0.000102257
0.000101454
0.00010098
0.000100896
0.00010117
0.000101793
0.000102106
0.00010166
9.98167e-05
9.95676e-05
9.96663e-05
0.000101964
0.000104993
0.000109072
0.000113494
0.000122586
0.000143071
0.000193845
0.000254293
0.000261642
0.000249409
0.000206427
0.000164134
0.000135949
0.000122213
0.000116163
0.00011235
0.000109793
0.000107721
0.000105966
0.000104415
0.000103128
0.000102212
0.000101619
0.000101355
0.000101551
0.000102104
0.000103045
0.000103358
9.90565e-05
9.981e-05
9.95291e-05
9.97328e-05
0.00010198
0.000104909
0.000108935
0.000112812
0.000120661
0.000137913
0.000178428
0.000246304
0.000265913
0.000257289
0.000220694
0.000177804
0.000144092
0.000126056
0.000118043
0.000113677
0.000110821
0.000108776
0.000107038
0.000105503
0.000104124
0.000103078
0.000102365
0.000102008
0.000101991
0.000102529
0.000103508
0.000104427
9.37241e-05
7.61278e-05
9.98008e-05
9.95e-05
9.98294e-05
0.000102027
0.000104887
0.000108799
0.000112274
0.00011916
0.000133859
0.000165767
0.000235223
0.000268615
0.000263256
0.000236493
0.000191396
0.000154042
0.000130972
0.00012023
0.000115076
0.000111872
0.000109726
0.000108029
0.000106558
0.000105218
0.000104064
0.000103235
0.000102751
0.000102706
0.000103003
0.00010385
0.000105226
8.87258e-05
7.34433e-05
6.06527e-05
6.23004e-05
9.97917e-05
9.94807e-05
9.99464e-05
0.000102103
0.000104903
0.000108652
0.000111819
0.000117929
0.000130792
0.000157046
0.000223372
0.000268142
0.000268736
0.000248808
0.000205567
0.000165078
0.000137264
0.000123068
0.000116701
0.000112945
0.000110611
0.000108928
0.00010754
0.000106295
0.000105153
0.000104219
0.000103649
0.000103471
0.000103771
0.00010458
9.80404e-05
8.03096e-05
7.02011e-05
6.15536e-05
6.19699e-05
5.37074e-05
5.67439e-05
9.97841e-05
9.94794e-05
0.000100065
0.0001022
0.000104939
0.000108519
0.000111487
0.00011692
0.00012837
0.000151608
0.000210234
0.000266152
0.000272297
0.000260091
0.000219665
0.000177095
0.00014483
0.000126818
0.000118448
0.000114162
0.000111435
0.000109745
0.000108417
0.000107274
0.000106234
0.00010531
0.0001047
0.000104411
0.000104651
0.000105327
9.07247e-05
7.53391e-05
7.12509e-05
6.75838e-05
6.00377e-05
6.41675e-05
5.68491e-05
5.67477e-05
5.55495e-05
4.86488e-05
5.06054e-05
9.97802e-05
9.94925e-05
0.00010017
0.000102296
0.000104978
0.000108388
0.000111249
0.000116152
0.0001264
0.00014771
0.000197248
0.00026155
0.000276939
0.000267519
0.00023181
0.000189882
0.000153832
0.000131411
0.000120551
0.000115397
0.00011234
0.000110467
0.000109215
0.000108109
0.000107219
0.000106444
0.000105824
0.000105591
0.00010575
0.00010236
8.52817e-05
7.08326e-05
6.42973e-05
6.28607e-05
6.07174e-05
5.40148e-05
5.29158e-05
5.20803e-05
5.10262e-05
4.99432e-05
4.38192e-05
4.57022e-05
9.97791e-05
9.95042e-05
0.000100253
0.000102363
0.000105009
0.000108282
0.000111066
0.000115626
0.000124848
0.000144138
0.000185511
0.000254092
0.000280793
0.000273845
0.00024539
0.000202001
0.000163925
0.00013727
0.000123207
0.000116868
0.000113281
0.000111119
0.000109899
0.000108891
0.000108044
0.000107498
0.000107003
0.000106822
0.00010704
9.81578e-05
8.08803e-05
6.72063e-05
5.98956e-05
5.88297e-05
5.89802e-05
5.66387e-05
5.22618e-05
4.86069e-05
4.98446e-05
4.68233e-05
4.63248e-05
4.53714e-05
3.97867e-05
4.1694e-05
9.97765e-05
9.95121e-05
0.000100306
0.000102402
0.000105002
0.000108218
0.000110928
0.000115271
0.000123728
0.000141108
0.000175943
0.000245394
0.000283542
0.000279843
0.000257336
0.000214345
0.000174421
0.000144195
0.000126785
0.000118452
0.000114321
0.000111744
0.000110335
0.000109565
0.000108796
0.000108336
0.000108143
0.000108066
0.00010838
9.67893e-05
7.83829e-05
6.49412e-05
5.66038e-05
5.63614e-05
5.45447e-05
5.27923e-05
5.13332e-05
5.01939e-05
4.80228e-05
4.4064e-05
4.50722e-05
4.26502e-05
4.20656e-05
4.14852e-05
3.64224e-05
3.84103e-05
9.9775e-05
9.95187e-05
0.000100329
0.000102424
0.000104964
0.000108152
0.000110823
0.000114993
0.000122969
0.000138667
0.000168406
0.000235812
0.000283437
0.000285295
0.000267714
0.000226429
0.000185466
0.000152
0.000131109
0.000120422
0.000115438
0.000112479
0.000110746
0.000109988
0.00010949
0.000109043
0.000109051
0.000109299
0.000109736
9.80827e-05
7.88036e-05
6.39855e-05
5.50068e-05
5.5525e-05
5.13415e-05
5.10952e-05
4.862e-05
4.75483e-05
4.66306e-05
4.55255e-05
4.36256e-05
4.03278e-05
4.11907e-05
3.91174e-05
3.87417e-05
3.8049e-05
3.36825e-05
3.57506e-05
9.97733e-05
9.95182e-05
0.000100329
0.00010244
0.000104902
0.00010805
0.000110716
0.000114723
0.000122372
0.000136836
0.000162978
0.000225759
0.000281949
0.000289966
0.000277718
0.000237881
0.000196274
0.000160819
0.000136213
0.000123033
0.000116635
0.000113343
0.000111211
0.000110337
0.000109898
0.000109753
0.000109704
0.000110359
0.000111071
0.000101691
8.07018e-05
6.63905e-05
5.55851e-05
5.89849e-05
5.06696e-05
5.36802e-05
4.71523e-05
4.83967e-05
4.44441e-05
4.45105e-05
4.24515e-05
4.19162e-05
3.99331e-05
3.72168e-05
3.78453e-05
3.61356e-05
3.60132e-05
3.52974e-05
3.15001e-05
3.36486e-05
9.97735e-05
9.95096e-05
0.000100302
0.000102457
0.000104831
0.000107919
0.000110582
0.000114453
0.000121786
0.000135746
0.000159158
0.000215248
0.000278499
0.00029536
0.00028515
0.000250115
0.000207184
0.000169895
0.000142315
0.000126156
0.000118206
0.000114162
0.000111726
0.000110585
0.000110196
0.000110183
0.000110396
0.000110993
0.000112224
0.000108454
8.66668e-05
7.15646e-05
6.53454e-05
7.90325e-05
5.91998e-05
7.89924e-05
5.41265e-05
7.01098e-05
4.7545e-05
6.00299e-05
4.25685e-05
4.87917e-05
3.94017e-05
4.10137e-05
3.73439e-05
3.46383e-05
3.55509e-05
3.40265e-05
3.38555e-05
3.31298e-05
2.99513e-05
3.20875e-05
9.97794e-05
9.94818e-05
0.000100226
0.000102473
0.000104769
0.000107789
0.000110438
0.000114196
0.000121216
0.000134974
0.000156183
0.000204653
0.000272179
0.000299664
0.000292122
0.000262643
0.000218025
0.000179436
0.000149021
0.000129996
0.000119934
0.000115092
0.000112262
0.000110834
0.000110429
0.000110341
0.000110915
0.000111651
0.000113026
0.000113281
9.44994e-05
9.03932e-05
9.79019e-05
0.000115142
0.000108144
0.000117046
0.000105066
0.000117446
9.31004e-05
0.000111973
7.16029e-05
0.000104902
5.17135e-05
8.83877e-05
3.94666e-05
5.48903e-05
3.79389e-05
3.25929e-05
3.6183e-05
3.40426e-05
3.22335e-05
3.15305e-05
2.87679e-05
3.11276e-05
9.9808e-05
9.94242e-05
0.000100079
0.000102457
0.000104719
0.000107683
0.000110291
0.000113965
0.000120713
0.000134177
0.00015359
0.00019464
0.000264287
0.000303004
0.000298646
0.000274417
0.000229018
0.000189014
0.000156533
0.000134399
0.000122205
0.000116131
0.000112982
0.000111123
0.000110545
0.000110453
0.00011104
0.000112237
0.000113635
0.000114819
0.000106631
0.000103722
0.000119204
0.000126702
0.000128187
0.0001419
0.000135226
0.000158213
0.000134408
0.000166607
0.000124383
0.00016137
0.000110142
0.000142287
9.90215e-05
0.000117673
5.70471e-05
9.91264e-05
5.72209e-05
3.20433e-05
5.45388e-05
4.83339e-05
3.12427e-05
3.07399e-05
2.81825e-05
3.09106e-05
9.98769e-05
9.93317e-05
9.98715e-05
0.00010237
0.000104674
0.000107624
0.000110186
0.000113746
0.000120281
0.000133143
0.000150989
0.000185847
0.000254756
0.000302418
0.000304531
0.000285642
0.000240793
0.000198609
0.000164423
0.000139604
0.00012495
0.000117469
0.000113732
0.000111444
0.00011057
0.000110467
0.000111058
0.00011246
0.000114231
0.00011553
0.000115693
0.000118115
0.000133336
0.000118211
0.000155354
0.000172017
0.000184044
0.000210725
0.00020364
0.000244843
0.000208924
0.000264588
0.000195873
0.000263083
0.00016351
0.000237041
0.000125343
0.00018692
9.85665e-05
0.000130896
9.6343e-05
4.07326e-05
9.2184e-05
8.60717e-05
3.0887e-05
3.44952e-05
2.83457e-05
3.15309e-05
0.000100106
9.93385e-05
9.97128e-05
0.0001022
0.000104594
0.000107559
0.000110157
0.000113552
0.000119906
0.000132018
0.000148947
0.000178677
0.000244073
0.000300726
0.000309384
0.000295431
0.000252217
0.000208572
0.000172572
0.000145387
0.00012831
0.000119048
0.000114505
0.000111785
0.000110599
0.000110455
0.000110927
0.000112463
0.000114583
0.000116124
0.000116788
0.000124816
0.000187394
0.000183454
0.000205155
0.000237422
0.000263927
0.000287017
0.000328218
0.000322553
0.000376829
0.000334981
0.000401153
0.000321287
0.00039951
0.000279672
0.000371956
0.000208813
0.000315272
0.000133999
0.000224321
0.0001327
7.89778e-05
0.000126177
0.00011414
3.23414e-05
6.28164e-05
2.96303e-05
3.35033e-05
0.000100884
0.000100034
9.98959e-05
0.000102048
0.000104472
0.00010752
0.000110128
0.000113506
0.000119503
0.000131029
0.000147554
0.000173127
0.000233102
0.000296609
0.000314237
0.000303687
0.000264901
0.000218834
0.000181006
0.000151603
0.000132154
0.000121021
0.000115349
0.000112289
0.000110657
0.000110406
0.000110734
0.000112288
0.00011466
0.0001168
0.000116798
0.000123024
0.000196708
0.000325799
0.000343355
0.000288077
0.000310211
0.000365155
0.000398009
0.00042374
0.00046257
0.000457049
0.00050274
0.000466482
0.000520083
0.000452235
0.000516334
0.000412513
0.000491835
0.000340443
0.000441202
0.000230811
0.000354302
0.000227082
9.79131e-05
0.000212221
0.000186215
4.4427e-05
8.06599e-05
3.32043e-05
4.03169e-05
0.000103097
0.000103511
0.000101191
0.000102201
0.000104416
0.000107494
0.000110139
0.000113491
0.000119415
0.000130142
0.00014626
0.000168992
0.000222342
0.000289307
0.000318196
0.000310336
0.00027866
0.000229446
0.000189644
0.000158389
0.000136407
0.000123495
0.00011641
0.000112967
0.000110799
0.000110278
0.000110487
0.000111921
0.000114511
0.000117308
0.000116926
0.000120283
0.000192078
0.000350765
0.000361328
0.000461426
0.00047322
0.000424804
0.000446035
0.000493873
0.000519806
0.000538278
0.000565183
0.000559687
0.000588192
0.000563078
0.000594524
0.000549983
0.000588704
0.000518183
0.00057151
0.000458263
0.000533705
0.000357193
0.000464178
0.000349744
0.000152812
0.000329923
0.000294969
6.89889e-05
0.000115767
4.35615e-05
6.39426e-05
0.000112083
0.000113512
0.000106546
0.000103443
0.000104654
0.000107548
0.000110181
0.00011354
0.000119454
0.000129471
0.000144941
0.000165884
0.000212119
0.000280304
0.000319166
0.000316885
0.000290262
0.000241097
0.000198562
0.000165485
0.000141308
0.000126299
0.000117984
0.00011364
0.0001111
0.000110136
0.000110225
0.000111363
0.000114101
0.000117516
0.000117391
0.000117192
0.000191636
0.000362308
0.000350872
0.000480846
0.000484196
0.000561883
0.000567585
0.000538664
0.000552173
0.000584783
0.000599663
0.000606754
0.000618432
0.0006108
0.000615624
0.000605103
0.000603406
0.000596061
0.000593738
0.000580247
0.000589199
0.000540376
0.000580972
0.00046165
0.000539556
0.000450499
0.000245524
0.000428892
0.000394676
8.29226e-05
0.000185123
7.34674e-05
6.65623e-05
0.000117519
0.000128947
0.000121799
0.000108983
0.000105914
0.000107891
0.000110437
0.000113652
0.000119599
0.00012909
0.000143668
0.000163707
0.000203167
0.000269833
0.000318086
0.000321153
0.000302432
0.000253238
0.000207912
0.000172917
0.000146656
0.000129616
0.000119724
0.000114425
0.000111623
0.0001101
0.00011001
0.000110724
0.000113367
0.000117229
0.000118408
0.000114828
0.000189185
0.000426087
0.000488467
0.000500142
0.000571621
0.000572846
0.000620137
0.000623366
0.000609295
0.000615669
0.000623816
0.00062878
0.000613414
0.000609286
0.000592857
0.000579596
0.000577244
0.000555115
0.000572564
0.000543618
0.000576833
0.000547291
0.000577134
0.000564625
0.000532989
0.000571634
0.000520836
0.000344899
0.000501641
0.000472636
0.000124454
0.000274544
5.59816e-05
8.0829e-05
0.000128313
0.000138745
0.000123457
0.000110903
0.00010919
0.000111111
0.000113994
0.000119863
0.000129059
0.000142616
0.00016213
0.000195707
0.000258695
0.000315018
0.000324639
0.000311758
0.000264776
0.000217866
0.000180562
0.000152463
0.000133242
0.000121941
0.000115514
0.000112279
0.000110236
0.000109769
0.000110193
0.000112357
0.000116269
0.000119072
0.000112878
0.00018318
0.000414243
0.000563951
0.000557426
0.000571494
0.000569857
0.000623934
0.000623046
0.000632264
0.000633141
0.000629902
0.000631114
0.000603024
0.000600705
0.000566288
0.00055476
0.000532949
0.000513082
0.000512318
0.000483595
0.000509183
0.000470933
0.000525649
0.000476742
0.000555285
0.000508656
0.000565203
0.00054931
0.00055575
0.000428807
0.000544458
0.00052613
0.000190302
0.000363029
3.77935e-05
0.000112412
0.00013149
0.000142774
0.000123981
0.00011285
0.000112197
0.000114508
0.000120398
0.00012911
0.000141859
0.000160812
0.000189753
0.000247412
0.000308725
0.000328486
0.000318537
0.000278492
0.00022802
0.000188586
0.000158612
0.000137447
0.000124387
0.000117106
0.000112955
0.000110649
0.000109574
0.000109766
0.000111356
0.000115159
0.000118653
0.000110564
0.000173881
0.000393411
0.000553126
0.000535297
0.000614065
0.00061029
0.000620994
0.000618381
0.000634116
0.000635013
0.00059602
0.000598209
0.000598077
0.000595761
0.000545164
0.000540682
0.000497871
0.000487901
0.000462468
0.000450461
0.000439488
0.000422962
0.000432216
0.000403292
0.000448262
0.00039863
0.000498207
0.000426426
0.000546624
0.000493617
0.000546379
0.00049367
0.000548186
0.000546104
0.000271046
0.000440358
3.56172e-05
0.000154478
0.000137091
0.00014419
0.000122503
0.000114599
0.000115383
0.000120624
0.000129308
0.000141383
0.000159544
0.000185243
0.00023653
0.000300302
0.000329453
0.000324504
0.000291852
0.000239227
0.000196877
0.000165227
0.00014191
0.000127327
0.000118725
0.000113916
0.000111256
0.000109656
0.000109375
0.000110405
0.000113869
0.000117422
0.00010845
0.000160948
0.000371666
0.000564813
0.000602875
0.000608639
0.000636045
0.000636467
0.000635617
0.000636103
0.000602289
0.000607702
0.000535596
0.000539431
0.000536716
0.000534517
0.000481332
0.000479878
0.000446894
0.000448955
0.000422724
0.000435093
0.000398034
0.000417856
0.000375266
0.00038802
0.000372183
0.000355596
0.000413089
0.000350855
0.000494801
0.000403959
0.000451234
0.000529868
0.000497746
0.000505391
0.000533906
0.000536637
0.00051038
0.000503505
0.000517564
0.000541379
0.000525284
0.000356609
0.000522823
0.000507117
0.000457399
3.50375e-05
0.000179817
0.000144783
0.000142653
0.000119631
0.000116735
0.000121117
0.000129825
0.000141297
0.000158448
0.000181894
0.000226577
0.000290186
0.000328829
0.000328655
0.000303571
0.000250978
0.000205866
0.000171867
0.000147183
0.000130329
0.000120809
0.000115185
0.000111883
0.000110089
0.000109156
0.00010959
0.000112262
0.000115502
0.000106505
0.000147257
0.000352767
0.000552399
0.000638879
0.000633739
0.000635616
0.000638017
0.000627647
0.000634925
0.000613934
0.000620699
0.000546298
0.000555836
0.000477637
0.000481081
0.000477827
0.000476949
0.000454954
0.000457801
0.000453103
0.000472684
0.000451707
0.000482663
0.000432077
0.000471642
0.00038793
0.00043823
0.000338746
0.000362931
0.000388343
0.000367581
0.000335331
0.000326841
0.000323903
0.000404516
0.00045885
0.000407541
0.000362564
0.000464643
0.000540137
0.000483888
0.000473586
0.000494985
0.00053276
0.000506311
0.000485
0.000305929
0.000411836
0.000535173
0.000525234
8.27013e-05
0.000304797
0.000218114
0.00013741
0.000152188
0.00013271
0.0001199
0.000121363
0.000130167
0.000141324
0.000157575
0.00017951
0.00021791
0.000279264
0.000326588
0.00033093
0.000314517
0.000263594
0.000215184
0.0001792
0.000152238
0.000134179
0.000122975
0.000116624
0.000112788
0.000110697
0.000109426
0.00010906
0.000110765
0.000112959
0.00010403
0.000136927
0.000336966
0.000544322
0.000662718
0.000662197
0.0006727
0.000642671
0.000650637
0.000595559
0.00061084
0.000567687
0.000581127
0.000487171
0.000496151
0.000459646
0.000456232
0.000460207
0.000462136
0.000488879
0.000499476
0.000503318
0.000511746
0.000495187
0.000507009
0.000469766
0.000485726
0.000408579
0.000433673
0.000445171
0.000459098
0.000344944
0.000372488
0.000381199
0.000403776
0.000331055
0.00031508
0.00033533
0.00031765
0.000362779
0.000416443
0.000366595
0.00032777
0.000425183
0.000537314
0.000436562
0.000449763
0.000464425
0.000517006
0.000479725
0.00049419
0.000407546
0.000538686
0.000535322
0.000143083
3.85886e-05
0.000121477
0.000328201
0.000247133
0.0001523
0.000126464
0.000122289
0.00013011
0.000141431
0.000157101
0.000177917
0.000210785
0.000268112
0.00032135
0.000332482
0.000321808
0.000275269
0.000225614
0.000186576
0.00015833
0.00013775
0.000125534
0.00011833
0.000114008
0.000111352
0.000110026
0.000109212
0.000109738
0.000110297
0.000101685
0.000132197
0.000322711
0.000543254
0.000674334
0.000698814
0.000714764
0.000662474
0.000681748
0.000627589
0.000644978
0.000548178
0.000571701
0.000509794
0.000527605
0.000453634
0.000453914
0.00050618
0.000496163
0.000506279
0.000508838
0.000516799
0.000519653
0.000510803
0.000509877
0.000490383
0.000488645
0.000462855
0.000467142
0.000466681
0.000466503
0.000423732
0.000438037
0.000447048
0.000451335
0.000359033
0.000381975
0.000393567
0.000413236
0.000308372
0.000307951
0.000346681
0.000323728
0.000327182
0.000373191
0.000329228
0.000302835
0.000382719
0.000525851
0.000395461
0.000410665
0.000428028
0.000494649
0.000446642
0.00047965
0.000423121
0.000532543
0.000528249
0.000135848
0.000133721
0.00015649
0.000352843
0.000224227
0.000143232
0.000125818
0.00012895
0.000141353
0.000156863
0.000176914
0.000205271
0.000257411
0.000313582
0.000332726
0.000326857
0.000288514
0.000236095
0.000194918
0.000163988
0.000142572
0.000127753
0.000120204
0.000115432
0.000112452
0.000110634
0.000109766
0.000109296
0.000108544
9.99705e-05
0.000131839
0.000314362
0.00054329
0.000683585
0.000756472
0.000703225
0.000729107
0.000647434
0.000675432
0.000596746
0.000621275
0.000496757
0.000525946
0.000460517
0.00047477
0.000479307
0.00046085
0.000533648
0.000535187
0.000524398
0.000529518
0.000507932
0.000509286
0.000484877
0.000479344
0.000465505
0.000464421
0.000463225
0.000460407
0.000452611
0.000452113
0.000451076
0.000450188
0.000426987
0.000435074
0.000438245
0.000438365
0.000368721
0.000400903
0.000387449
0.000414619
0.000298507
0.000311617
0.0003546
0.000333257
0.000299277
0.000333794
0.000299016
0.000289764
0.000341792
0.000507552
0.000353803
0.000369472
0.000388239
0.000465281
0.000408932
0.000491244
0.00046
0.000517676
0.000524656
0.000125533
0.000250427
0.000161863
0.0003693
0.000218449
0.000136989
0.000129617
0.00014084
0.000156478
0.000176578
0.000201278
0.00024762
0.000304566
0.000332312
0.000329685
0.000300451
0.000247267
0.000203219
0.000170863
0.000146664
0.000131358
0.000121684
0.000117036
0.000113781
0.000111704
0.000110199
0.000109191
0.000106931
9.61685e-05
0.00013408
0.000315162
0.000541675
0.000686806
0.000783925
0.000746322
0.000772888
0.000690859
0.000721627
0.000622044
0.000656425
0.000556297
0.000588153
0.000456771
0.000483971
0.00044692
0.000444835
0.000529214
0.000509103
0.00054015
0.00055125
0.000514804
0.000525991
0.000474062
0.000473144
0.000451403
0.00044542
0.000449757
0.00044975
0.000449631
0.000449207
0.000436966
0.000435329
0.00043424
0.000433978
0.000421968
0.000424543
0.000423761
0.000421502
0.000372783
0.000400964
0.000386285
0.000408121
0.000299229
0.000319112
0.000357305
0.0003397
0.000282707
0.000301641
0.00027829
0.00028701
0.000307594
0.000482103
0.00031677
0.000329818
0.000347552
0.000430336
0.000368824
0.000522363
0.000514984
0.000495549
0.000505046
0.000127107
0.000274174
0.000185383
0.000405236
0.000211344
0.000136448
0.000138977
0.000156093
0.000175877
0.000199147
0.000239147
0.000295002
0.000330122
0.000331374
0.000309939
0.000258655
0.00021226
0.000177533
0.000151901
0.000134225
0.000124166
0.000118301
0.000115351
0.000113395
0.000111282
0.000109184
0.000103544
9.18577e-05
0.000141389
0.000320325
0.000538213
0.00068501
0.00080454
0.000793552
0.000722252
0.000742806
0.000666648
0.000697921
0.000592236
0.000630463
0.000515835
0.000553005
0.00044172
0.00045683
0.000479234
0.000451728
0.000554689
0.000547549
0.000530406
0.000556534
0.000482473
0.000502381
0.000441016
0.000444335
0.000435356
0.000432322
0.000428859
0.000431367
0.000434484
0.000435566
0.000435966
0.000435909
0.000419184
0.000417636
0.000417217
0.00041791
0.000410274
0.000408841
0.00040575
0.000402636
0.000370786
0.000393735
0.000378489
0.000395524
0.000304522
0.00032426
0.000354617
0.000341209
0.00027569
0.000277023
0.000266822
0.000289781
0.000279995
0.00045035
0.000286533
0.000296289
0.000309974
0.000391397
0.000328833
0.00051102
0.00051415
0.000466905
0.000478809
0.000132969
0.000288969
0.000207874
0.000471632
0.000212657
0.000141623
0.000153998
0.000175573
0.000197579
0.000232848
0.000285398
0.000326166
0.000331231
0.000317578
0.000269893
0.000221644
0.000184874
0.000157196
0.000137986
0.000126259
0.000119824
0.000116736
0.000115256
0.000113546
0.00010944
9.81414e-05
9.24223e-05
0.000158068
0.000336402
0.000540347
0.000679136
0.000823461
0.000832582
0.000691235
0.000709493
0.000673656
0.000681591
0.000634698
0.000656669
0.000564062
0.000602424
0.000485263
0.000522026
0.000453676
0.000447702
0.000523023
0.000486631
0.000572033
0.000572856
0.000531158
0.000567017
0.000457835
0.000490604
0.000427443
0.000427534
0.000432239
0.000423446
0.000422493
0.000419726
0.000420822
0.000419512
0.000421626
0.000422592
0.000423591
0.000400379
0.000399443
0.000399869
0.000401472
0.000393625
0.000389782
0.000385713
0.0003825
0.000362592
0.000380369
0.000364767
0.000378161
0.000308351
0.000324852
0.000346164
0.000337708
0.000275475
0.000261345
0.000262709
0.000292116
0.000259818
0.000413327
0.000262188
0.000268625
0.00027872
0.000351414
0.000293031
0.000486743
0.000493406
0.000431854
0.000445671
0.000133598
0.000157771
0.000179098
0.000495368
0.000248805
0.000154994
0.000174242
0.00019728
0.000227827
0.000277031
0.000320462
0.000330227
0.000321748
0.000279843
0.000231201
0.000192226
0.000163203
0.000141774
0.000128361
0.000121302
0.000118138
0.00011701
0.000115858
0.000110471
9.1574e-05
0.000102601
0.000196156
0.000376657
0.000549756
0.000674221
0.000834152
0.000871512
0.000694548
0.000578951
0.000578094
0.000594841
0.000583898
0.000595084
0.000603344
0.000539537
0.000572838
0.000468261
0.000498258
0.000480358
0.000457285
0.000556508
0.000522035
0.000588399
0.000592537
0.000472608
0.000526413
0.000460957
0.000463254
0.000420211
0.000422324
0.000429032
0.000445188
0.000411425
0.000411072
0.000409833
0.000410228
0.000404334
0.000407124
0.000408686
0.000410826
0.000380635
0.00038034
0.000381553
0.00038389
0.000373626
0.000368572
0.000364127
0.00036108
0.000348699
0.000362474
0.000346542
0.000357358
0.000308114
0.000320722
0.00033223
0.000328947
0.000276039
0.000252811
0.000261016
0.000290945
0.00024656
0.000373921
0.000243897
0.000245893
0.00025269
0.000312876
0.000263426
0.000456825
0.000471605
0.000394337
0.000411431
0.000181383
0.000120765
0.000157632
0.000483963
0.000279351
0.000175423
0.000196602
0.000225394
0.000269118
0.000314615
0.000327976
0.00032431
0.000288985
0.000240745
0.000199935
0.000169314
0.000146458
0.000130551
0.000122629
0.000119589
0.000118871
0.000118194
0.000111249
9.1353e-05
0.000130969
0.00025903
0.000428819
0.000563543
0.00068032
0.000840414
0.00090594
0.000760962
0.000434039
0.000469158
0.00042862
0.000422157
0.000489927
0.0004528
0.000549929
0.000528901
0.00051704
0.000540633
0.000460164
0.00048292
0.000505701
0.000471278
0.000579684
0.000548
0.000585225
0.000609864
0.000390844
0.000447812
0.000427794
0.000394982
0.000362255
0.000412747
0.000419398
0.000430809
0.00039967
0.000398906
0.000399658
0.000400911
0.000399823
0.000387998
0.000391015
0.000394115
0.000397216
0.000359522
0.0003596
0.000361241
0.000364548
0.000351309
0.00034559
0.000340888
0.000337532
0.000330295
0.000341025
0.000324608
0.000334046
0.000303428
0.000311678
0.000313672
0.000315119
0.000273916
0.000247935
0.000257877
0.000285782
0.000237794
0.000335746
0.000230773
0.000228108
0.00023114
0.00027913
0.000239467
0.000428566
0.000453778
0.000358471
0.000379223
0.000262501
0.000141228