/*--------------------------------*- C++ -*----------------------------------*\
  =========                 |
  \\      /  F ield         | OpenFOAM: The Open Source CFD Toolbox
   \\    /   O peration     | Website:  https://openfoam.org
    \\  /    A nd           | Version:  dev
     \\/     M anipulation  |
\*---------------------------------------------------------------------------*/
FoamFile
{
    version     2.0;
    format      ascii;
    class       volScalarField;
    location    "2500";
    object      O2;
}
// * * * * * * * * * * * * * * * * * * * * * * * * * * * * * * * * * * * * * //

dimensions      [0 0 0 0 0 0 0];

internalField   nonuniform List<scalar> 
9844
(
0.23301
0.23301
0.23301
0.23301
0.23301
0.23301
0.23301
0.23301
0.23301
0.23301
0.23301
0.23301
0.23301
0.23301
0.23301
0.23301
0.23301
0.23301
0.23301
0.23301
0.23301
0.23301
0.23301
0.23301
0.23301
0.23301
0.23301
0.23301
0.23301
0.23301
0.23301
0.23301
0.23301
0.23301
0.23301
0.23301
0.23301
0.23301
0.23301
0.23301
0.23301
0.23301
0.23301
0.23301
0.23301
0.23301
0.23301
0.23301
0.23301
0.23301
0.23301
0.23301
0.23301
0.23301
0.23301
0.23301
0.23301
0.23301
0.23301
0.23301
0.23301
0.23301
0.23301
0.23301
0.23301
0.23301
0.23301
0.23301
0.23301
0.23301
0.23301
0.23301
0.23301
0.23301
0.23301
0.23301
0.23301
0.23301
0.23301
0.23301
0.23301
0.23301
0.23301
0.23301
0.23301
0.23301
0.23301
0.23301
0.23301
0.23301
0.23301
0.23301
0.23301
0.23301
0.23301
0.23301
0.23301
0.23301
0.23301
0.23301
0.23301
0.23301
0.23301
0.23301
0.23301
0.23301
0.23301
0.23301
0.23301
0.23301
0.23301
0.23301
0.23301
0.23301
0.23301
0.23301
0.23301
0.23301
0.23301
0.23301
0.23301
0.23301
0.23301
0.23301
0.23301
0.23301
0.23301
0.23301
0.23301
0.23301
0.23301
0.23301
0.23301
0.23301
0.23301
0.23301
0.23301
0.23301
0.23301
0.23301
0.23301
0.23301
0.23301
0.23301
0.23301
0.23301
0.23301
0.23301
0.23301
0.23301
0.23301
0.23301
0.23301
0.23301
0.23301
0.23301
0.23301
0.23301
0.23301
0.23301
0.23301
0.23301
0.23301
0.23301
0.23301
0.23301
0.23301
0.23301
0.23301
0.23301
0.23301
0.23301
0.23301
0.23301
0.23301
0.23301
0.23301
0.23301
0.23301
0.23301
0.23301
0.23301
0.23301
0.23301
0.23301
0.23301
0.23301
0.23301
0.23301
0.23301
0.23301
0.23301
0.23301
0.23301
0.23301
0.23301
0.23301
0.23301
0.23301
0.23301
0.23301
0.23301
0.23301
0.23301
0.23301
0.23301
0.23301
0.23301
0.23301
0.23301
0.23301
0.23301
0.23301
0.23301
0.23301
0.23301
0.23301
0.23301
0.23301
0.23301
0.23301
0.23301
0.23301
0.23301
0.23301
0.23301
0.23301
0.23301
0.23301
0.23301
0.23301
0.23301
0.23301
0.23301
0.23301
0.23301
0.23301
0.23301
0.23301
0.23301
0.23301
0.23301
0.23301
0.23301
0.23301
0.23301
0.23301
0.23301
0.23301
0.23301
0.23301
0.23301
0.23301
0.23301
0.23301
0.23301
0.23301
0.23301
0.23301
0.23301
0.23301
0.23301
0.23301
0.23301
0.23301
0.23301
0.23301
0.23301
0.23301
0.23301
0.23301
0.23301
0.23301
0.23301
0.23301
0.23301
0.23301
0.23301
0.23301
0.23301
0.23301
0.23301
0.23301
0.23301
0.23301
0.23301
0.23301
0.23301
0.23301
0.23301
0.23301
0.23301
0.23301
0.23301
0.23301
0.23301
0.23301
0.23301
0.23301
0.23301
0.23301
0.23301
0.23301
0.23301
0.23301
0.23301
0.23301
0.23301
0.23301
0.23301
0.23301
0.23301
0.23301
0.23301
0.23301
0.23301
0.23301
0.23301
0.23301
0.23301
0.23301
0.23301
0.23301
0.23301
0.23301
0.23301
0.23301
0.23301
0.23301
0.23301
0.23301
0.23301
0.23301
0.23301
0.23301
0.23301
0.23301
0.23301
0.23301
0.23301
0.23301
0.23301
0.23301
0.23301
0.23301
0.23301
0.23301
0.23301
0.23301
0.23301
0.23301
0.23301
0.23301
0.23301
0.23301
0.23301
0.23301
0.23301
0.23301
0.23301
0.23301
0.23301
0.23301
0.23301
0.23301
0.23301
0.23301
0.23301
0.23301
0.23301
0.23301
0.23301
0.23301
0.23301
0.23301
0.23301
0.23301
0.23301
0.23301
0.23301
0.23301
0.23301
0.23301
0.23301
0.23301
0.23301
0.23301
0.23301
0.23301
0.23301
0.23301
0.23301
0.23301
0.23301
0.23301
0.23301
0.23301
0.23301
0.23301
0.23301
0.23301
0.23301
0.23301
0.23301
0.23301
0.23301
0.23301
0.23301
0.23301
0.23301
0.23301
0.23301
0.23301
0.23301
0.23301
0.23301
0.23301
0.23301
0.23301
0.23301
0.23301
0.23301
0.23301
0.23301
0.23301
0.23301
0.23301
0.23301
0.23301
0.23301
0.23301
0.23301
0.23301
0.23301
0.23301
0.23301
0.23301
0.23301
0.23301
0.23301
0.23301
0.23301
0.23301
0.23301
0.23301
0.23301
0.23301
0.23301
0.23301
0.23301
0.23301
0.23301
0.23301
0.23301
0.23301
0.23301
0.23301
0.23301
0.23301
0.23301
0.23301
0.23301
0.23301
0.23301
0.23301
0.23301
0.23301
0.23301
0.23301
0.23301
0.23301
0.23301
0.23301
0.23301
0.23301
0.23301
0.23301
0.23301
0.23301
0.23301
0.23301
0.23301
0.23301
0.23301
0.23301
0.23301
0.23301
0.23301
0.23301
0.23301
0.23301
0.23301
0.23301
0.23301
0.23301
0.23301
0.23301
0.23301
0.23301
0.23301
0.23301
0.23301
0.23301
0.23301
0.23301
0.23301
0.23301
0.23301
0.23301
0.23301
0.23301
0.23301
0.23301
0.23301
0.23301
0.23301
0.23301
0.23301
0.23301
0.23301
0.23301
0.23301
0.23301
0.23301
0.23301
0.23301
0.23301
0.23301
0.23301
0.23301
0.23301
0.23301
0.23301
0.23301
0.23301
0.23301
0.23301
0.23301
0.23301
0.23301
0.23301
0.23301
0.23301
0.23301
0.23301
0.23301
0.23301
0.23301
0.23301
0.23301
0.23301
0.23301
0.23301
0.23301
0.23301
0.23301
0.23301
0.23301
0.23301
0.23301
0.23301
0.23301
0.23301
0.23301
0.23301
0.23301
0.23301
0.23301
0.23301
0.23301
0.23301
0.23301
0.23301
0.23301
0.23301
0.23301
0.23301
0.23301
0.23301
0.23301
0.23301
0.23301
0.23301
0.23301
0.23301
0.23301
0.23301
0.23301
0.23301
0.23301
0.23301
0.23301
0.23301
0.23301
0.23301
0.23301
0.23301
0.23301
0.23301
0.23301
0.23301
0.23301
0.23301
0.23301
0.23301
0.23301
0.23301
0.23301
0.23301
0.23301
0.23301
0.23301
0.23301
0.23301
0.23301
0.23301
0.23301
0.23301
0.23301
0.23301
0.23301
0.23301
0.23301
0.23301
0.23301
0.23301
0.23301
0.23301
0.23301
0.23301
0.23301
0.23301
0.23301
0.23301
0.23301
0.23301
0.23301
0.23301
0.23301
0.23301
0.23301
0.23301
0.23301
0.23301
0.23301
0.23301
0.23301
0.23301
0.23301
0.23301
0.23301
0.23301
0.23301
0.23301
0.23301
0.23301
0.23301
0.23301
0.23301
0.23301
0.23301
0.23301
0.23301
0.23301
0.23301
0.23301
0.23301
0.23301
0.23301
0.23301
0.23301
0.23301
0.23301
0.23301
0.23301
0.23301
0.23301
0.23301
0.23301
0.23301
0.23301
0.23301
0.23301
0.23301
0.23301
0.23301
0.23301
0.23301
0.23301
0.23301
0.23301
0.23301
0.23301
0.23301
0.23301
0.23301
0.23301
0.23301
0.23301
0.23301
0.23301
0.23301
0.23301
0.23301
0.23301
0.23301
0.23301
0.23301
0.23301
0.23301
0.23301
0.23301
0.23301
0.23301
0.23301
0.23301
0.23301
0.23301
0.23301
0.23301
0.23301
0.23301
0.23301
0.23301
0.23301
0.23301
0.23301
0.23301
0.23301
0.23301
0.23301
0.23301
0.23301
0.23301
0.23301
0.23301
0.23301
0.23301
0.23301
0.23301
0.23301
0.23301
0.23301
0.23301
0.23301
0.23301
0.23301
0.23301
0.23301
0.23301
0.23301
0.23301
0.23301
0.23301
0.23301
0.23301
0.23301
0.23301
0.23301
0.23301
0.23301
0.23301
0.23301
0.23301
0.23301
0.23301
0.23301
0.23301
0.23301
0.23301
0.23301
0.23301
0.23301
0.23301
0.23301
0.23301
0.23301
0.23301
0.23301
0.23301
0.23301
0.23301
0.23301
0.23301
0.23301
0.23301
0.23301
0.23301
0.23301
0.23301
0.23301
0.23301
0.23301
0.23301
0.23301
0.23301
0.23301
0.23301
0.23301
0.23301
0.23301
0.23301
0.23301
0.23301
0.23301
0.23301
0.23301
0.23301
0.23301
0.23301
0.23301
0.23301
0.23301
0.23301
0.23301
0.23301
0.23301
0.23301
0.23301
0.23301
0.23301
0.23301
0.23301
0.23301
0.23301
0.23301
0.23301
0.23301
0.23301
0.23301
0.23301
0.23301
0.23301
0.23301
0.23301
0.23301
0.23301
0.23301
0.23301
0.23301
0.23301
0.23301
0.23301
0.23301
0.23301
0.23301
0.23301
0.23301
0.23301
0.23301
0.23301
0.23301
0.23301
0.23301
0.23301
0.23301
0.23301
0.23301
0.23301
0.23301
0.23301
0.23301
0.23301
0.23301
0.23301
0.23301
0.23301
0.23301
0.23301
0.23301
0.23301
0.23301
0.23301
0.23301
0.23301
0.23301
0.23301
0.23301
0.23301
0.23301
0.23301
0.23301
0.23301
0.23301
0.23301
0.233009
0.233009
0.233008
0.233009
0.233008
0.23301
0.233009
0.23301
0.233009
0.23301
0.23301
0.23301
0.23301
0.23301
0.23301
0.23301
0.23301
0.23301
0.23301
0.23301
0.23301
0.23301
0.23301
0.23301
0.23301
0.23301
0.23301
0.23301
0.23301
0.23301
0.23301
0.23301
0.23301
0.23301
0.23301
0.23301
0.23301
0.23301
0.23301
0.23301
0.23301
0.23301
0.23301
0.23301
0.23301
0.23301
0.23301
0.23301
0.23301
0.23301
0.233008
0.233006
0.233002
0.233005
0.232999
0.233006
0.232999
0.233007
0.233001
0.233009
0.233005
0.23301
0.233008
0.23301
0.23301
0.23301
0.23301
0.23301
0.23301
0.23301
0.23301
0.23301
0.23301
0.23301
0.23301
0.23301
0.23301
0.23301
0.23301
0.23301
0.23301
0.23301
0.23301
0.23301
0.23301
0.23301
0.23301
0.23301
0.23301
0.23301
0.23301
0.23301
0.23301
0.23301
0.23301
0.23301
0.23301
0.23301
0.23301
0.23301
0.23301
0.233009
0.233005
0.232996
0.232986
0.232987
0.232969
0.232983
0.232954
0.232985
0.232952
0.232993
0.232963
0.233002
0.232981
0.233007
0.232998
0.233007
0.23301
0.233007
0.233008
0.23301
0.23301
0.23301
0.23301
0.23301
0.23301
0.23301
0.23301
0.23301
0.23301
0.23301
0.23301
0.23301
0.23301
0.23301
0.23301
0.23301
0.23301
0.23301
0.23301
0.23301
0.23301
0.23301
0.23301
0.23301
0.23301
0.23301
0.23301
0.23301
0.23301
0.23301
0.23301
0.23301
0.23301
0.233009
0.233002
0.232977
0.232963
0.232944
0.232913
0.232911
0.232852
0.232892
0.232802
0.232899
0.232788
0.23293
0.232822
0.232967
0.232887
0.232995
0.232953
0.232994
0.233009
0.232994
0.232997
0.23301
0.233009
0.23301
0.23301
0.23301
0.23301
0.23301
0.23301
0.23301
0.23301
0.23301
0.23301
0.23301
0.23301
0.23301
0.23301
0.23301
0.23301
0.23301
0.23301
0.23301
0.23301
0.23301
0.23301
0.23301
0.23301
0.23301
0.23301
0.23301
0.23301
0.23301
0.23301
0.23301
0.23301
0.233008
0.232993
0.232949
0.232958
0.232881
0.23284
0.232783
0.232708
0.23269
0.232564
0.232634
0.232454
0.232641
0.232414
0.232721
0.232463
0.23284
0.232608
0.232941
0.232797
0.232936
0.233001
0.232939
0.232951
0.23301
0.233005
0.23301
0.23301
0.23301
0.23301
0.23301
0.23301
0.23301
0.23301
0.23301
0.23301
0.23301
0.23301
0.23301
0.23301
0.23301
0.23301
0.23301
0.23301
0.23301
0.23301
0.23301
0.23301
0.23301
0.23301
0.23301
0.23301
0.23301
0.23301
0.23301
0.23301
0.23301
0.23301
0.233008
0.232985
0.232829
0.232813
0.232746
0.232634
0.232561
0.232437
0.232316
0.232269
0.232092
0.232171
0.231935
0.232168
0.231875
0.232276
0.231926
0.232499
0.232102
0.232765
0.232412
0.232753
0.232969
0.232766
0.232805
0.233008
0.232988
0.23301
0.233009
0.23301
0.23301
0.23301
0.23301
0.23301
0.23301
0.23301
0.23301
0.23301
0.23301
0.23301
0.23301
0.23301
0.23301
0.23301
0.23301
0.23301
0.23301
0.23301
0.23301
0.23301
0.23301
0.23301
0.23301
0.23301
0.23301
0.23301
0.23301
0.23301
0.23301
0.233008
0.232985
0.232814
0.232407
0.232371
0.232498
0.232444
0.23221
0.232115
0.231934
0.2318
0.231724
0.231539
0.231606
0.231367
0.231597
0.231303
0.231709
0.231353
0.231959
0.23153
0.232359
0.231862
0.232348
0.232864
0.232385
0.232477
0.233
0.232926
0.23301
0.233007
0.23301
0.23301
0.23301
0.23301
0.23301
0.23301
0.23301
0.23301
0.23301
0.23301
0.23301
0.23301
0.23301
0.23301
0.23301
0.23301
0.23301
0.23301
0.23301
0.23301
0.23301
0.23301
0.23301
0.23301
0.23301
0.23301
0.23301
0.23301
0.23301
0.23301
0.233008
0.232987
0.232825
0.232354
0.232343
0.231946
0.231918
0.232041
0.231984
0.231688
0.231597
0.231383
0.231256
0.231162
0.230987
0.231043
0.230814
0.231036
0.230754
0.231148
0.230809
0.231398
0.230987
0.231812
0.231316
0.231811
0.232609
0.231872
0.232003
0.232973
0.232763
0.233009
0.232998
0.23301
0.23301
0.23301
0.23301
0.23301
0.23301
0.23301
0.23301
0.23301
0.23301
0.23301
0.23301
0.23301
0.23301
0.23301
0.23301
0.23301
0.23301
0.23301
0.23301
0.23301
0.23301
0.23301
0.23301
0.23301
0.23301
0.23301
0.23301
0.23301
0.23301
0.233008
0.232989
0.232828
0.232349
0.232398
0.231907
0.23191
0.231457
0.231444
0.231529
0.231483
0.231156
0.231077
0.230841
0.230723
0.230615
0.230441
0.230498
0.230261
0.2305
0.230206
0.230621
0.230278
0.230874
0.230475
0.231281
0.230808
0.231298
0.232201
0.231377
0.231527
0.232897
0.232457
0.233007
0.232974
0.23301
0.23301
0.23301
0.23301
0.23301
0.23301
0.23301
0.23301
0.23301
0.23301
0.23301
0.23301
0.23301
0.23301
0.23301
0.23301
0.23301
0.23301
0.23301
0.23301
0.23301
0.23301
0.23301
0.23301
0.23301
0.23301
0.23301
0.23301
0.23301
0.23301
0.233009
0.232991
0.232836
0.232164
0.231917
0.231882
0.231448
0.23146
0.230981
0.230986
0.231022
0.230991
0.230631
0.230563
0.230293
0.230173
0.230044
0.22985
0.229918
0.229645
0.229937
0.229588
0.23009
0.229695
0.230375
0.229945
0.230788
0.230322
0.23082
0.231752
0.230914
0.231076
0.232727
0.232068
0.233003
0.232916
0.23301
0.23301
0.23301
0.23301
0.23301
0.23301
0.23301
0.23301
0.23301
0.23301
0.23301
0.23301
0.23301
0.23301
0.23301
0.23301
0.23301
0.23301
0.23301
0.23301
0.23301
0.23301
0.23301
0.23301
0.23301
0.23301
0.23301
0.23301
0.23301
0.233009
0.232995
0.232848
0.232225
0.231543
0.231581
0.231484
0.231507
0.231001
0.231031
0.230511
0.23053
0.23052
0.230505
0.230079
0.230014
0.229685
0.22955
0.229384
0.229177
0.229236
0.228947
0.229277
0.228867
0.229488
0.228999
0.229852
0.229339
0.230315
0.229809
0.230363
0.231319
0.230471
0.230647
0.232456
0.231665
0.232996
0.23281
0.23301
0.23301
0.23301
0.23301
0.23301
0.23301
0.23301
0.23301
0.23301
0.23301
0.23301
0.23301
0.23301
0.23301
0.23301
0.23301
0.23301
0.23301
0.23301
0.23301
0.23301
0.23301
0.23301
0.23301
0.23301
0.23301
0.23301
0.23301
0.233009
0.232999
0.232871
0.232298
0.231618
0.231706
0.231166
0.231212
0.231072
0.231116
0.230568
0.23062
0.23
0.230041
0.229981
0.229985
0.229453
0.229396
0.229047
0.22899
0.228817
0.228791
0.228656
0.228639
0.22857
0.228467
0.228772
0.228344
0.229249
0.22864
0.229819
0.229218
0.22989
0.230907
0.230022
0.230221
0.232123
0.231266
0.232987
0.232669
0.23301
0.23301
0.23301
0.23301
0.23301
0.23301
0.23301
0.23301
0.23301
0.23301
0.23301
0.23301
0.23301
0.23301
0.23301
0.23301
0.23301
0.23301
0.23301
0.23301
0.23301
0.23301
0.23301
0.23301
0.23301
0.23301
0.23301
0.23301
0.233002
0.232898
0.232373
0.231542
0.231273
0.231267
0.230817
0.230882
0.230682
0.230749
0.230108
0.23019
0.229428
0.229496
0.229382
0.229396
0.228972
0.228977
0.228809
0.228843
0.228683
0.228776
0.228523
0.228671
0.228312
0.228461
0.228175
0.22816
0.228551
0.228033
0.22925
0.228507
0.228886
0.229665
0.229314
0.230793
0.230425
0.229836
0.229472
0.229386
0.229579
0.230076
0.229701
0.231755
0.230585
0.230768
0.231175
0.232976
0.232481
0.23301
0.23301
0.23301
0.23301
0.23301
0.23301
0.23301
0.23301
0.23301
0.23301
0.23301
0.23301
0.23301
0.23301
0.23301
0.23301
0.23301
0.23301
0.23301
0.23301
0.23301
0.23301
0.23301
0.23301
0.23301
0.23301
0.23301
0.233004
0.232922
0.232444
0.231621
0.231049
0.23114
0.23095
0.231001
0.230479
0.230572
0.230283
0.230381
0.229591
0.229706
0.229015
0.229044
0.228987
0.229
0.228888
0.228928
0.228912
0.229064
0.228955
0.229218
0.228813
0.229212
0.228459
0.228974
0.228044
0.228247
0.228527
0.228198
0.227922
0.227933
0.227864
0.228523
0.228965
0.22855
0.228171
0.229018
0.230217
0.229203
0.229101
0.229322
0.229847
0.229457
0.23097
0.231675
0.23119
0.230382
0.230562
0.2329
0.231448
0.231824
0.23239
0.23301
0.23301
0.23301
0.23301
0.23301
0.23301
0.23301
0.23301
0.23301
0.23301
0.23301
0.23301
0.23301
0.23301
0.23301
0.23301
0.23301
0.23301
0.23301
0.23301
0.23301
0.23301
0.23301
0.23301
0.23301
0.23301
0.233005
0.232939
0.23251
0.231695
0.231066
0.230815
0.23085
0.230661
0.230738
0.230117
0.230252
0.229837
0.229976
0.229102
0.229209
0.228951
0.228932
0.228954
0.228958
0.229189
0.229279
0.229395
0.229508
0.229406
0.229476
0.229337
0.229433
0.228797
0.229086
0.229233
0.229351
0.22813
0.228454
0.228504
0.228799
0.227893
0.227787
0.228052
0.227845
0.228181
0.228623
0.228219
0.227871
0.228697
0.230001
0.228794
0.228909
0.229042
0.229609
0.229191
0.23075
0.230942
0.23017
0.230344
0.232132
0.23289
0.232555
0.23115
0.231401
0.23301
0.23301
0.23301
0.23301
0.23301
0.23301
0.23301
0.23301
0.23301
0.23301
0.23301
0.23301
0.23301
0.23301
0.23301
0.23301
0.23301
0.23301
0.23301
0.23301
0.23301
0.23301
0.23301
0.23301
0.233009
0.233005
0.232946
0.232572
0.231771
0.231151
0.230757
0.230856
0.230592
0.230677
0.230378
0.23049
0.229712
0.229898
0.229354
0.229526
0.228917
0.228922
0.22925
0.229158
0.229313
0.229296
0.229607
0.229708
0.229521
0.229579
0.229413
0.229324
0.229376
0.229359
0.229284
0.229165
0.229062
0.229234
0.229314
0.229329
0.228361
0.228681
0.228753
0.229016
0.227735
0.227764
0.228262
0.227958
0.227871
0.228279
0.227895
0.227688
0.22836
0.229774
0.228467
0.228594
0.228742
0.229356
0.228906
0.230513
0.230672
0.229946
0.230114
0.23168
0.232658
0.232012
0.230816
0.230942
0.23301
0.23301
0.23301
0.23301
0.23301
0.23301
0.23301
0.23301
0.23301
0.23301
0.23301
0.23301
0.23301
0.23301
0.23301
0.23301
0.23301
0.23301
0.23301
0.23301
0.23301
0.23301
0.23301
0.233009
0.233004
0.232949
0.232618
0.231858
0.231233
0.230924
0.230628
0.230742
0.230378
0.230508
0.230074
0.230233
0.229288
0.229512
0.228965
0.229093
0.229034
0.228913
0.229777
0.229645
0.2298
0.229823
0.229675
0.229805
0.229255
0.229297
0.229039
0.228905
0.228809
0.228732
0.229265
0.229141
0.228978
0.228801
0.22918
0.229251
0.229241
0.229149
0.228583
0.228944
0.228849
0.229104
0.227689
0.227854
0.228464
0.228146
0.227656
0.227943
0.227643
0.227617
0.228023
0.229532
0.22813
0.228265
0.228424
0.229086
0.228603
0.230269
0.230395
0.22971
0.229879
0.230995
0.231534
0.230821
0.230472
0.2305
0.23301
0.23301
0.23301
0.23301
0.23301
0.23301
0.23301
0.23301
0.23301
0.23301
0.23301
0.23301
0.23301
0.23301
0.23301
0.23301
0.23301
0.23301
0.23301
0.23301
0.23301
0.23301
0.233009
0.233003
0.232948
0.232637
0.231939
0.231311
0.231078
0.230866
0.231013
0.230524
0.230699
0.230158
0.230346
0.22974
0.229957
0.22893
0.229133
0.228847
0.228854
0.229435
0.22919
0.230106
0.230032
0.229969
0.23009
0.229474
0.229737
0.228546
0.228717
0.228632
0.228488
0.228389
0.22836
0.228986
0.228787
0.228573
0.228369
0.229168
0.229144
0.229022
0.228834
0.228732
0.22901
0.228902
0.229067
0.227742
0.228013
0.228594
0.228326
0.227554
0.227656
0.22751
0.22763
0.227709
0.229274
0.227801
0.227934
0.228095
0.228798
0.228285
0.230027
0.230129
0.229462
0.229637
0.230395
0.230745
0.230222
0.230156
0.230134
0.23301
0.23301
0.23301
0.23301
0.23301
0.23301
0.23301
0.23301
0.23301
0.23301
0.23301
0.23301
0.23301
0.23301
0.23301
0.23301
0.23301
0.23301
0.23301
0.23301
0.23301
0.233008
0.233
0.232939
0.232637
0.231991
0.231378
0.231178
0.231299
0.230949
0.231188
0.230451
0.230707
0.22993
0.230191
0.229392
0.229663
0.228793
0.228858
0.22896
0.228815
0.229824
0.229519
0.230259
0.230174
0.230018
0.230211
0.229118
0.229631
0.228013
0.228146
0.22862
0.228326
0.228196
0.228065
0.227987
0.227971
0.228603
0.228361
0.228131
0.227934
0.229034
0.228897
0.228687
0.228433
0.228772
0.228954
0.228824
0.228918
0.227871
0.228171
0.228624
0.22844
0.227528
0.22748
0.227446
0.227721
0.22748
0.229
0.227519
0.227616
0.227767
0.228493
0.22796
0.229784
0.229869
0.2292
0.229383
0.230017
0.231612
0.230378
0.229876
0.229855
0.23301
0.23301
0.23301
0.23301
0.23301
0.23301
0.23301
0.23301
0.23301
0.23301
0.23301
0.23301
0.23301
0.23301
0.23301
0.23301
0.23301
0.23301
0.23301
0.23301
0.233007
0.232993
0.232915
0.232625
0.232005
0.231423
0.231233
0.231435
0.231624
0.231748
0.231117
0.23141
0.230415
0.230777
0.229706
0.230053
0.229068
0.229375
0.228756
0.228749
0.22919
0.228911
0.229966
0.229667
0.2303
0.230173
0.23006
0.230277
0.228885
0.229248
0.229737
0.227797
0.227988
0.228592
0.228257
0.227785
0.227691
0.227663
0.227691
0.228166
0.227915
0.227701
0.227535
0.22877
0.228547
0.228275
0.227991
0.228681
0.228793
0.228656
0.228643
0.228004
0.228271
0.228524
0.228462
0.227573
0.227387
0.227443
0.227828
0.227349
0.228711
0.227338
0.227369
0.227466
0.228178
0.227638
0.22953
0.229616
0.228926
0.229119
0.22988
0.232516
0.231026
0.229639
0.229663
0.23301
0.23301
0.23301
0.23301
0.23301
0.23301
0.23301
0.23301
0.23301
0.23301
0.23301
0.23301
0.23301
0.23301
0.23301
0.23301
0.23301
0.23301
0.233009
0.233005
0.232978
0.232868
0.232583
0.232002
0.23144
0.231257
0.231468
0.231996
0.231959
0.232128
0.231356
0.231714
0.230425
0.230911
0.229506
0.229947
0.228844
0.229119
0.228772
0.228689
0.229337
0.229013
0.22993
0.229629
0.230262
0.230037
0.230194
0.23032
0.228938
0.229289
0.229828
0.23016
0.227646
0.227904
0.228643
0.228249
0.227426
0.227382
0.227394
0.227479
0.227723
0.227494
0.227316
0.227195
0.22841
0.228129
0.227831
0.22755
0.228506
0.228513
0.228374
0.228281
0.228089
0.228284
0.228343
0.228353
0.227651
0.22734
0.227483
0.227898
0.227273
0.228412
0.22723
0.227215
0.227248
0.227864
0.227353
0.229274
0.22938
0.228644
0.228852
0.230012
0.232656
0.23132
0.22945
0.229594
0.23301
0.23301
0.23301
0.23301
0.23301
0.23301
0.23301
0.23301
0.23301
0.23301
0.23301
0.23301
0.23301
0.23301
0.23301
0.23301
0.23301
0.233009
0.233001
0.232952
0.232796
0.232498
0.231983
0.231442
0.231263
0.231465
0.231982
0.23249
0.232476
0.23231
0.23245
0.231628
0.232044
0.230479
0.231085
0.229352
0.229884
0.228731
0.22893
0.228759
0.228641
0.229315
0.22901
0.22974
0.229439
0.230129
0.229798
0.230296
0.230368
0.230359
0.229076
0.229487
0.230076
0.230318
0.227545
0.227865
0.228761
0.228279
0.227137
0.227133
0.22719
0.227324
0.22731
0.227123
0.226994
0.226922
0.227991
0.227685
0.227394
0.227144
0.228225
0.228149
0.228011
0.22786
0.228093
0.228169
0.228063
0.228167
0.227707
0.227334
0.22752
0.227897
0.227226
0.228111
0.227158
0.227115
0.2271
0.227558
0.227148
0.229027
0.229171
0.228361
0.228593
0.23022
0.232499
0.231261
0.229319
0.229653
0.23301
0.23301
0.23301
0.23301
0.23301
0.23301
0.23301
0.23301
0.23301
0.23301
0.23301
0.23301
0.23301
0.23301
0.23301
0.23301
0.233008
0.232994
0.232911
0.232702
0.232387
0.23193
0.231436
0.231267
0.231453
0.23194
0.232579
0.232768
0.232789
0.232556
0.232707
0.23183
0.232276
0.230546
0.23123
0.22925
0.229859
0.22866
0.228827
0.228695
0.228584
0.229155
0.228901
0.229469
0.229183
0.230127
0.229933
0.229683
0.23042
0.230436
0.230295
0.230447
0.229258
0.229713
0.230299
0.230495
0.227485
0.227861
0.228877
0.228325
0.226904
0.226928
0.227026
0.227207
0.22695
0.226814
0.22673
0.226696
0.227549
0.227252
0.226996
0.226796
0.227864
0.227729
0.227594
0.22742
0.227976
0.22798
0.227705
0.227894
0.227703
0.227349
0.227517
0.227786
0.227203
0.22782
0.227103
0.227031
0.226997
0.227291
0.227007
0.228803
0.229003
0.228087
0.22835
0.230376
0.232029
0.231173
0.229265
0.229774
0.23301
0.23301
0.23301
0.23301
0.23301
0.23301
0.23301
0.23301
0.23301
0.23301
0.23301
0.23301
0.23301
0.23301
0.23301
0.233008
0.232985
0.232856
0.232596
0.232262
0.231826
0.231414
0.231271
0.231454
0.231919
0.232551
0.232917
0.232908
0.232882
0.232919
0.232631
0.232796
0.231895
0.232344
0.230565
0.231283
0.229204
0.229842
0.228606
0.228777
0.228596
0.228536
0.228937
0.228736
0.229348
0.229075
0.230147
0.229959
0.229856
0.229657
0.230553
0.230542
0.230339
0.230513
0.229445
0.22994
0.230514
0.23066
0.227473
0.227891
0.22902
0.22842
0.226704
0.226772
0.226915
0.227148
0.226655
0.226565
0.226516
0.226512
0.227119
0.226861
0.226658
0.226515
0.227451
0.227291
0.227161
0.226995
0.227792
0.22771
0.227301
0.227541
0.227599
0.227343
0.227426
0.227607
0.227185
0.22754
0.227033
0.226956
0.226909
0.227091
0.226906
0.228609
0.228883
0.22783
0.228134
0.230487
0.23238
0.231495
0.22927
0.229869
0.23301
0.23301
0.23301
0.23301
0.23301
0.23301
0.23301
0.23301
0.23301
0.23301
0.23301
0.23301
0.23301
0.23301
0.233007
0.232975
0.232797
0.232488
0.232132
0.231704
0.231375
0.231279
0.231466
0.231925
0.232546
0.232926
0.232975
0.232985
0.232902
0.232953
0.232591
0.232798
0.231769
0.232247
0.230489
0.23117
0.229185
0.229795
0.228572
0.228767
0.228555
0.22853
0.228829
0.228643
0.2295
0.229341
0.229203
0.230254
0.23005
0.230082
0.229883
0.230684
0.230649
0.230459
0.230644
0.229628
0.230153
0.230712
0.23083
0.227492
0.227964
0.229183
0.228538
0.226563
0.22668
0.226867
0.227134
0.226424
0.22637
0.226366
0.226396
0.226736
0.226534
0.226392
0.226304
0.227027
0.226873
0.226754
0.226621
0.227533
0.227374
0.226902
0.227155
0.227437
0.227264
0.227281
0.227376
0.227098
0.227291
0.226962
0.226873
0.226839
0.226957
0.226837
0.228446
0.228803
0.227604
0.22794
0.230693
0.232858
0.23212
0.229291
0.22998
0.23301
0.23301
0.23301
0.23301
0.23301
0.23301
0.23301
0.23301
0.23301
0.23301
0.23301
0.23301
0.23301
0.233007
0.232967
0.232746
0.232389
0.232005
0.231603
0.23136
0.231299
0.231507
0.231962
0.232572
0.232923
0.233001
0.232984
0.232997
0.232878
0.232953
0.232412
0.232711
0.231477
0.231985
0.230308
0.230914
0.229167
0.229701
0.228585
0.228787
0.228658
0.228629
0.228955
0.228749
0.229694
0.229507
0.229635
0.229731
0.230493
0.230288
0.230457
0.230262
0.230847
0.230788
0.23069
0.230865
0.229826
0.230363
0.23093
0.231036
0.227544
0.228054
0.229361
0.228673
0.226495
0.226643
0.226853
0.227146
0.226258
0.226253
0.226273
0.226352
0.226424
0.226288
0.226207
0.226173
0.226655
0.226514
0.226439
0.226329
0.227234
0.227036
0.226588
0.226818
0.227226
0.227121
0.227059
0.22709
0.226964
0.227104
0.226872
0.226831
0.226797
0.226869
0.226785
0.228311
0.228748
0.22739
0.227765
0.231051
0.232959
0.232524
0.229328
0.230164
0.23301
0.23301
0.23301
0.23301
0.23301
0.23301
0.23301
0.23301
0.23301
0.23301
0.23301
0.233009
0.233006
0.232964
0.232713
0.23231
0.231896
0.231534
0.231363
0.231344
0.231601
0.232063
0.232636
0.232932
0.233002
0.233004
0.232998
0.233007
0.23298
0.232834
0.232937
0.232259
0.232623
0.231209
0.231762
0.230122
0.230658
0.229181
0.229615
0.228673
0.22886
0.229077
0.228997
0.22961
0.229279
0.230074
0.229893
0.229984
0.230185
0.230843
0.230652
0.230947
0.230762
0.231051
0.230998
0.23102
0.23117
0.230041
0.230594
0.231175
0.231285
0.227596
0.228147
0.229549
0.228814
0.22646
0.226623
0.226856
0.227174
0.226168
0.226182
0.226229
0.22631
0.226204
0.226133
0.226104
0.226096
0.226375
0.226263
0.226201
0.226137
0.226905
0.226682
0.226243
0.226454
0.22692
0.226918
0.226784
0.226728
0.226841
0.226966
0.226815
0.22678
0.226745
0.226791
0.22674
0.228198
0.228719
0.227201
0.22761
0.231473
0.233003
0.23285
0.229394
0.230415
0.23301
0.23301
0.23301
0.23301
0.23301
0.23301
0.23301
0.23301
0.23301
0.233009
0.233008
0.233005
0.232963
0.232699
0.232253
0.231817
0.231494
0.231374
0.231428
0.231738
0.23221
0.232708
0.232951
0.233004
0.233008
0.232996
0.233004
0.233007
0.232978
0.232826
0.232933
0.232232
0.232608
0.231145
0.231716
0.230102
0.230595
0.229341
0.229683
0.228979
0.229095
0.230041
0.229819
0.230553
0.230486
0.230487
0.230574
0.230381
0.230696
0.230863
0.231289
0.231123
0.231524
0.231368
0.231304
0.231271
0.231434
0.231544
0.230267
0.230842
0.231446
0.231571
0.227633
0.22821
0.22972
0.228921
0.226432
0.226609
0.226856
0.227189
0.226098
0.226121
0.226176
0.226266
0.226065
0.226037
0.226025
0.22602
0.226125
0.22606
0.226008
0.225999
0.22651
0.226348
0.22608
0.226183
0.226634
0.22679
0.226657
0.22648
0.226776
0.226868
0.226757
0.226727
0.226688
0.22675
0.226661
0.228108
0.228698
0.227048
0.227472
0.231963
0.233009
0.232967
0.229506
0.230711
0.23301
0.23301
0.23301
0.23301
0.23301
0.23301
0.233009
0.233008
0.233007
0.233006
0.233002
0.232961
0.232699
0.232222
0.231764
0.231487
0.231401
0.231532
0.23189
0.232365
0.232779
0.232966
0.233005
0.233009
0.233009
0.232996
0.233004
0.233007
0.232978
0.232841
0.232936
0.23231
0.232646
0.231324
0.231845
0.230409
0.230828
0.229825
0.230079
0.229718
0.229692
0.231656
0.231192
0.231154
0.230929
0.231658
0.23172
0.231203
0.231032
0.231357
0.231542
0.231795
0.231667
0.232118
0.231997
0.231602
0.231599
0.231894
0.231949
0.230489
0.231099
0.231731
0.231884
0.227645
0.228231
0.229817
0.228967
0.226401
0.22659
0.226849
0.227194
0.226028
0.226065
0.22613
0.226227
0.225977
0.225951
0.225947
0.225955
0.226011
0.225957
0.225932
0.225925
0.226343
0.226219
0.225937
0.226126
0.226485
0.226716
0.226564
0.226387
0.226707
0.226768
0.226693
0.226661
0.226617
0.226673
0.226588
0.22801
0.228699
0.226952
0.227306
0.232387
0.23301
0.233001
0.229635
0.231033
0.23301
0.23301
0.23301
0.23301
0.233009
0.233008
0.233006
0.233004
0.233002
0.232996
0.232955
0.232703
0.232215
0.231738
0.231491
0.231443
0.231641
0.232035
0.232504
0.232839
0.232979
0.233007
0.23301
0.23301
0.233009
0.233007
0.233009
0.232998
0.233006
0.232984
0.232888
0.232953
0.232525
0.232757
0.23179
0.232186
0.231095
0.231407
0.230745
0.230867
0.23091
0.23078
0.232061
0.232627
0.23256
0.232573
0.231999
0.231857
0.232266
0.231862
0.231709
0.232141
0.232276
0.232297
0.232221
0.23263
0.232571
0.231939
0.231954
0.232339
0.232339
0.230669
0.231356
0.232007
0.232194
0.227627
0.228218
0.229844
0.228978
0.226364
0.22656
0.226822
0.22717
0.22599
0.226045
0.226116
0.226213
0.22589
0.225878
0.225894
0.225932
0.225884
0.22584
0.225844
0.22581
0.226264
0.226111
0.225958
0.226003
0.226411
0.226607
0.226455
0.226248
0.226615
0.226746
0.226616
0.226593
0.22656
0.226594
0.226481
0.227929
0.228704
0.22686
0.227159
0.23277
0.23301
0.233007
0.229821
0.231494
0.233009
0.233009
0.233009
0.233007
0.233003
0.232998
0.232993
0.232988
0.232981
0.232941
0.232704
0.232217
0.231737
0.231498
0.231486
0.231733
0.232151
0.232605
0.232882
0.232987
0.233007
0.23301
0.23301
0.23301
0.233008
0.233009
0.23301
0.233002
0.233007
0.232993
0.232944
0.232977
0.232772
0.232883
0.232381
0.232599
0.231995
0.232164
0.231954
0.231913
0.232302
0.232074
0.232697
0.232825
0.23275
0.232865
0.232891
0.232567
0.232434
0.232758
0.232493
0.232392
0.232661
0.232721
0.232678
0.232664
0.232811
0.232801
0.232282
0.232324
0.232675
0.232659
0.230747
0.231545
0.2322
0.232435
0.227564
0.228142
0.229793
0.228909
0.226344
0.226522
0.226777
0.227109
0.225984
0.226044
0.226125
0.226212
0.225797
0.22582
0.225863
0.225901
0.225632
0.225774
0.225629
0.225781
0.226141
0.226114
0.225655
0.225674
0.226291
0.226459
0.226314
0.226201
0.226498
0.226671
0.226506
0.226477
0.226415
0.226477
0.226419
0.227795
0.228732
0.226721
0.227012
0.232898
0.23301
0.233009
0.229968
0.232005
0.233005
0.233006
0.233001
0.232991
0.232976
0.232962
0.232952
0.232944
0.232906
0.232698
0.232224
0.231741
0.23151
0.231521
0.231801
0.232226
0.23266
0.232907
0.232991
0.233008
0.23301
0.23301
0.23301
0.23301
0.233009
0.23301
0.23301
0.233005
0.233008
0.233001
0.232983
0.232995
0.232928
0.232963
0.232806
0.232874
0.232692
0.232739
0.232732
0.232698