/*--------------------------------*- C++ -*----------------------------------*\
  =========                 |
  \\      /  F ield         | OpenFOAM: The Open Source CFD Toolbox
   \\    /   O peration     | Website:  https://openfoam.org
    \\  /    A nd           | Version:  dev
     \\/     M anipulation  |
\*---------------------------------------------------------------------------*/
FoamFile
{
    version     2.0;
    format      ascii;
    class       volScalarField;
    location    "2500";
    object      omega;
}
// * * * * * * * * * * * * * * * * * * * * * * * * * * * * * * * * * * * * * //

dimensions      [0 0 -1 0 0 0 0];

internalField   nonuniform List<scalar> 
9844
(
1.23271
1.24859
1.20201
1.17271
1.33887
1.09727
1.0771
1.34857
1.27923
1.03204
1.03139
1.31361
1.34522
1.15442
1.01494
1.00954
1.22517
1.36694
1.27663
1.06849
1.00779
0.999082
1.12207
1.35611
1.33974
1.15462
1.0322
1.00304
0.989138
1.05968
1.31632
1.36016
1.25138
1.07226
1.01478
1.00062
0.982991
1.02107
1.23418
1.36253
1.31835
1.13682
1.03378
1.00404
0.997994
0.979519
0.997067
1.14242
1.34867
1.3474
1.21704
1.06318
1.01295
0.997666
0.996245
0.978748
0.983396
1.06891
1.31037
1.35696
1.28731
1.11278
1.02707
0.999548
0.991191
0.995162
0.980229
0.974518
1.02353
1.23923
1.35627
1.32743
1.17819
1.04941
1.0058
0.990712
0.987156
0.994334
0.981836
0.96672
0.995059
1.15076
1.34379
1.34553
1.24672
1.08586
1.01662
0.992119
0.982632
0.984282
0.99363
0.982919
0.961046
0.977058
1.07283
1.30946
1.35271
1.29851
1.14114
1.03252
0.996487
0.982154
0.977405
0.981929
0.993066
0.982976
0.957197
0.965294
1.02497
1.24493
1.35215
1.32788
1.20216
1.06117
1.00381
0.983116
0.974097
0.973225
0.980075
0.992636
0.982787
0.95725
0.957649
0.9931
1.16123
1.34139
1.34253
1.25908
1.10479
1.0163
0.98578
0.97275
0.967823
0.969909
0.978624
0.992278
0.982785
0.9579
0.950299
0.9732
1.07873
1.31078
1.3501
1.30086
1.16043
1.03721
0.99105
0.973178
0.964539
0.962958
0.967303
0.977405
0.991977
0.983112
0.957604
0.944406
0.959283
1.02876
1.25207
1.35034
1.32717
1.21469
1.07206
0.999645
0.974553
0.962829
0.958215
0.95916
0.9651
0.976412
0.991716
0.983468
0.956247
0.939969
0.949201
0.994843
1.17135
1.34142
1.34127
1.2637
1.11876
1.01509
0.977343
0.962463
0.95487
0.95319
0.95598
0.963317
0.975582
0.991502
0.98367
0.954971
0.937516
0.942031
0.971962
1.08932
1.31358
1.34899
1.30155
1.1714
1.04086
0.982761
0.96213
0.952814
0.948706
0.949136
0.953393
0.961809
0.974887
0.991334
0.983749
0.954246
0.935892
0.935599
0.956149
1.03545
1.26044
1.35
1.32634
1.22014
1.08006
0.993195
0.96325
0.950994
0.945184
0.943772
0.945855
0.951217
0.96053
0.974346
0.991206
0.983796
0.953869
0.93435
0.929084
0.943679
0.998675
1.18658
1.34298
1.3405
1.26384
1.12697
1.01299
0.966512
0.949612
0.942614
0.939352
0.939773
0.943095
0.949422
0.959521
0.973965
0.991146
0.983812
0.953537
0.932696
0.923506
0.933803
0.971786
1.10896
1.32034
1.34774
1.3003
1.17587
1.04375
0.973584
0.949103
0.939867
0.93586
0.934692
0.936477
0.940846
0.947984
0.958772
0.973735
0.991134
0.98378
0.95322
0.931158
0.919508
0.925885
0.952203
1.04611
1.27421
1.35153
1.32423
1.21973
1.08528
0.987184
0.950573
0.937877
0.932521
0.930412
0.930945
0.933781
0.939004
0.946867
0.958236
0.973702
0.991214
0.98374
0.952937
0.929716
0.916214
0.918254
0.937327
1.00418
1.21028
1.34704
1.34042
1.2602
1.12991
1.01139
0.954943
0.935158
0.929432
0.926696
0.926146
0.927826
0.931626
0.937595
0.94608
0.95804
0.973951
0.99143
0.983716
0.952676
0.928259
0.913407
0.910647
0.925002
0.972993
1.13783
1.3302
1.34706
1.29668
1.1749
1.04469
0.964321
0.935686
0.925803
0.922853
0.922018
0.922654
0.925365
0.930005
0.936625
0.945719
0.958281
0.974516
0.991844
0.983708
0.952359
0.926789
0.911123
0.903926
0.915151
0.949516
1.068
1.29348
1.35322
1.3213
1.2146
1.0855
0.981708
0.938168
0.922582
0.919003
0.917809
0.918204
0.919938
0.923516
0.928929
0.936145
0.94586
0.959019
0.975566
0.992561
0.983707
0.951939
0.925444
0.908734
0.898412
0.906791
0.932271
1.01763
1.24347
1.35107
1.33868
1.25361
1.12675
1.00828
0.944115
0.921211
0.914312
0.913597
0.913934
0.915255
0.91795
0.922325
0.928372
0.936177
0.946627
0.960414
0.977318
0.99371
0.983691
0.951424
0.924296
0.906439
0.895002
0.899696
0.918942
0.981974
1.18023
1.34115
1.34723
1.28801
1.16747
1.04214
0.956071
0.922285
0.910774
0.908683
0.909467
0.910988
0.913177
0.91664
0.921727
0.928316
0.936917
0.94819
0.962772
0.980033
0.995488
0.983639
0.950849
0.923221
0.904564
0.893046
0.893651
0.908086
0.955338
1.11594
1.31792
1.35358
1.31503
1.20396
1.0798
0.975835
0.925769
0.907228
0.903869
0.904603
0.906664
0.908931
0.911827
0.915977
0.921714
0.929027
0.938545
0.95087
0.96639
0.984093
0.998122
0.983536
0.950201
0.922226
0.90314
0.891328
0.888511
0.899153
0.934906
1.05719
1.28116
1.35521
1.33356
1.23962
1.1175
1.00257
0.933298
0.907366
0.898946
0.899334
0.901841
0.904841
0.907683
0.911157
0.916019
0.922416
0.930732
0.941412
0.955083
0.971926
0.990258
1.00107
0.983395
0.949563
0.92125
0.902056
0.889534
0.884391
0.892046
0.919629
1.01084
1.23716
1.352
1.34546
1.27223
1.15304
1.03441
0.946977
0.908986
0.895271
0.893864
0.896425
0.900219
0.903772
0.907187
0.911201
0.916897
0.924306
0.933722
0.945979
0.961451
0.980171
0.999593
1.00775
0.983213
0.948963
0.920368
0.901248
0.887782
0.880971
0.886382
0.908065
0.979114
1.18648
1.34195
1.35176
1.30235
1.18707
1.06793
0.966636
0.913121
0.893015
0.888344
0.890641
0.894786
0.899549
0.90356
0.907388
0.912433
0.919028
0.927485
0.938494
0.952682
0.970683
0.992367
1.01097
1.01801
0.982978
0.948389
0.919726
0.900628
0.886264
0.877942
0.881778
0.898832
0.955997
1.13379
1.32146
1.35753
1.32339
1.21689
1.10112
0.991708
0.921548
0.893412
0.883731
0.884329
0.88883
0.894421
0.899743
0.904228
0.908893
0.91483
0.922526
0.932539
0.945465
0.962329
0.983488
1.00811
1.02737
1.01499
1.03672
0.982696
0.947813
0.919237
0.900126
0.884946
0.87542
0.877856
0.891195
0.938278
1.08574
1.29396
1.36083
1.33868
1.2486
1.13158
1.01982
0.935303
0.8953
0.88001
0.878397
0.882276
0.888486
0.895087
0.900941
0.906051
0.91159
0.918838
0.928076
0.940129
0.95565
0.976306
1.00255
1.02788
1.04607
1.04646
1.0205
1.04528
0.98239
0.947312
0.918794
0.899693
0.88373
0.873404
0.874406
0.884905
0.923946
1.04435
1.26178
1.35961
1.35127
1.27688
1.16033
1.04871
0.953415
0.899728
0.878366
0.872751
0.875593
0.881997
0.889474
0.896844
0.903248
0.909169
0.916278
0.925132
0.936939
0.951854
0.97124
0.997172
1.01884
1.0165
1.04586
1.02906
1.04668
1.05511
1.05787
1.02486
1.0554
0.98207
0.946935
0.91831
0.899309
0.882807
0.871794
0.871806
0.880086
0.91223
1.00962
1.22593
1.35466
1.35856
1.30461
1.18769
1.07669
0.975251
0.907885
0.87883
0.868434
0.868962
0.875037
0.882953
0.891549
0.89966
0.906988
0.914479
0.923625
0.935522
0.951445
0.971709
0.997576
1.01713
1.01841
1.03097
1.0589
1.05068
1.06085
1.06791
1.07219
1.03104
1.0675
0.98177
0.946581
0.917758
0.898779
0.882236
0.870586
0.869982
0.87663
0.903114
0.983945
1.18836
1.3441
1.36558
1.32666
1.21351
1.1026
0.999079
0.920143
0.880622
0.865137
0.862952
0.867694
0.875734
0.885014
0.894804
0.904238
0.912918
0.922769
0.935658
0.952641
0.974337
1.00127
1.02075
1.02487
1.03345
1.03789
1.0562
1.07507
1.06527
1.08
1.08183
1.0876
1.03863
1.08049
0.981471
0.946188
0.917098
0.898104
0.881838
0.869888
0.868671
0.874278
0.896359
0.964185
1.14843
1.32656
1.37225
1.34387
1.24269
1.12645
1.02299
0.935809
0.884639
0.863528
0.857655
0.860502
0.868053
0.877612
0.888561
0.899964
0.910994
0.92204
0.935965
0.955966
0.980371
1.01051
1.03041
1.04039
1.04272
1.05155
1.06076
1.06646
1.07302
1.0929
1.08927
1.10221
1.09631
1.10365
1.04777
1.09406
0.981181
0.945689
0.916334
0.897392
0.881505
0.869437
0.867629
0.872606
0.891534
0.948853
1.11057
1.3038
1.37602
1.35832
1.27247
1.1496
1.0461
0.953673
0.892054
0.863859
0.853262
0.853793
0.860214
0.869643
0.881212
0.894182
0.907434
0.920903
0.936535
0.958365
0.99163
1.02975
1.05142
1.07378
1.06253
1.08087
1.07447
1.08793
1.08179
1.09269
1.10082
1.1126
1.11645
1.12838
1.11036
1.11981
1.05821
1.10713
0.980893
0.945012
0.915606
0.896617
0.881233
0.868889
0.866727
0.871196
0.888044
0.937011
1.07639
1.27752
1.37516
1.36983
1.30215
1.1739
1.06713
0.973297
0.902075
0.865318
0.850309
0.84747
0.852436
0.861405
0.873261
0.887027
0.902141
0.918441
0.936316
0.962799
1.00215
1.072
1.10798
1.18372
1.11781
1.19553
1.11683
1.18484
1.11185
1.15806
1.11455
1.14059
1.13348
1.13534
1.14878
1.15826
1.12304
1.13643
1.06945
1.11853
0.980598
0.94414
0.914867
0.895815
0.880983
0.868129
0.865851
0.869926
0.88528
0.927804
1.04619
1.24876
1.37099
1.3772
1.32765
1.20047
1.08695
0.992678
0.914791
0.868505
0.848188
0.842304
0.844927
0.853102
0.864724
0.878792
0.895204
0.913911
0.935114
0.9646
1.02608
1.16036
1.30137
1.53117
1.36341
1.69208
1.34917
1.71043
1.28359
1.60404
1.21174
1.42518
1.16747
1.26966
1.18976
1.16047
1.20338
1.20556
1.13371
1.15395
1.08033
1.12582
0.980291
0.943032
0.913911
0.894942
0.880732
0.867433
0.865097
0.868798
0.882951
0.920474
1.02021
1.21804
1.36181
1.38484
1.34817
1.22867
1.10724
1.01116
0.929333
0.87425
0.848195
0.837737
0.83822
0.845012
0.85567
0.869973
0.886797
0.907264
0.932136
0.96459
1.03888
1.34128
1.79096
2.18977
2.20592
2.85917
2.39288
3.36093
2.29622
3.48301
1.98394
3.13915
1.60407
2.46884
1.32386
1.79249
1.36279
1.19495
1.37513
1.35432
1.14211
1.17472
1.08905
1.12808
0.979998
0.941641
0.912501
0.893863
0.88051
0.867175
0.864531
0.867925
0.881054
0.914822
0.9989
1.18588
1.34726
1.39184
1.36398
1.26173
1.12814
1.02876
0.94478
0.882273
0.848971
0.834756
0.831944
0.8371
0.846561
0.860663
0.87769
0.899031
0.926201
0.964712
1.06645
1.47694
2.53718
2.99982
3.61863
4.38994
4.48124
5.62839
4.96606
6.48407
4.89715
6.7902
4.18422
6.4234
3.0081
5.26939
1.95895
3.51476
2.06577
1.30193
2.08039
1.98298
1.14991
1.23333
1.09311
1.12335
0.979764
0.940018
0.910367
0.892377
0.880104
0.867443
0.864328
0.867293
0.879582
0.911267
0.982388
1.15332
1.32817
1.39486
1.37811
1.29213
1.15235
1.04543
0.960403
0.892161
0.851
0.832426
0.826692
0.829272
0.837711
0.850774
0.86816
0.889902
0.917939
0.962082
1.11654
1.85314
3.45588
3.55884
5.12583
5.87375
6.691
7.59547
7.83606
8.87469
8.44131
9.58532
8.49096
9.83377
7.87006
9.69965
6.26083
8.96653
3.91012
7.05076
4.12644
1.77944
4.11179
3.83386
1.17105
1.52323
1.08941
1.1204
0.980424
0.938716
0.907469
0.89026
0.879329
0.86846
0.864528
0.867025
0.878391
0.908874
0.96991
1.12144
1.30481
1.39389
1.38902
1.32244
1.1795
1.06249
0.975492
0.903379
0.855181
0.831391
0.822106
0.822187
0.829033
0.840707
0.857989
0.879877
0.907991
0.954389
1.11836
2.17462
5.86709
6.33052
7.45644
8.33446
8.85084
9.58409
10.0184
10.2537
10.6543
10.5809
11.017
10.6491
11.1869
10.4299
11.1775
9.68563
10.9107
7.54743
10.1074
7.74912
3.30325
7.6298
7.13107
1.29548
2.58595
1.07625
1.15074
0.984787
0.940032
0.904414
0.887801
0.878076
0.869486
0.865444
0.867175
0.877608
0.906595
0.961124
1.09145
1.27776
1.3894
1.39529
1.3469
1.20776
1.08101
0.989974
0.915265
0.86114
0.831707
0.818478
0.815692
0.820696
0.830822
0.84732
0.869
0.897244
0.941338
1.10817
2.19928
6.13011
9.52364
9.60893
9.26413
9.48083
10.2908
10.4465
10.8945
11.029
11.2733
11.4275
11.4998
11.7251
11.5949
11.9127
11.535
11.9648
11.2391
11.8405
10.3369
11.444
10.4297
6.22026
10.3765
10.0753
1.86901
4.92317
1.06374
1.36611
0.999767
0.953967
0.905867
0.886251
0.876475
0.870193
0.867257
0.867997
0.877437
0.904564
0.955918
1.06539
1.2481
1.37923
1.40164
1.36539
1.24125
1.10124
1.00402
0.927568
0.868293
0.8329
0.816171
0.810405
0.812918
0.821548
0.836166
0.857549
0.885952
0.927875
1.08333
2.16605
6.08449
9.59012
9.56312
10.512
10.4534
10.5289
10.5387
11.0924
11.0912
11.5273
11.586
11.9141
12.0857
12.2171
12.5277
12.3756
12.808
12.3554
12.8874
12.1155
12.7499
11.5831
12.3495
11.667
9.37149
11.6672
11.5605
3.40003
8.02766
1.11436
2.06525
1.06036
1.00594
0.928364
0.889599
0.876256
0.871164
0.869187
0.869911
0.877904
0.903048
0.952852
1.04363
1.21695
1.36309
1.40438
1.38008
1.2752
1.12533
1.01814
0.939854
0.876661
0.835418
0.814509
0.806208
0.806161
0.813
0.825247
0.845441
0.873412
0.914583
1.05718
2.09842
5.95693
9.50003
9.38163
10.3604
10.2679
10.914
10.7943
11.0673
11.0073
11.6133
11.6024
12.238
12.3499
12.8343
13.1282
13.2697
13.7554
13.4605
14.0897
13.4058
14.1199
13.1021
13.879
12.539
13.3854
12.665
11.2794
12.7113
12.6523
5.9261
10.5498
1.33815
3.55975
1.1096
1.11219
1.00468
0.914639
0.880617
0.873402
0.871448
0.871993
0.879556
0.902624
0.950847
1.02755
1.18552
1.34265
1.40365
1.39067
1.30696
1.15235
1.03383
0.951796
0.885919
0.839688
0.814537
0.802849
0.800562
0.804718
0.814992
0.832971
0.85954
0.899858
1.02816
2.02564
5.80741
9.59605
10.0999
10.1013
10.6595
10.4997
11.3672
11.2179
11.5638
11.4834
12.4355
12.4357
13.3932
13.5923
14.2422
14.7125
14.789
15.5464
14.9393
15.8974
14.7408
15.7727
14.2712
15.2764
13.6006
14.5679
13.7425
12.4892
13.793
13.7583
8.77412
12.1413
1.95855
5.93306
1.14607
1.12178
0.995406
0.902288
0.877471
0.874397
0.874827
0.881616
0.903096
0.949453
1.01668
1.15574
1.31887
1.40048
1.39759
1.33442
1.18199
1.05071
0.963768
0.895795
0.844928
0.815135
0.800649
0.795889
0.797896
0.805581
0.820617
0.845108
0.883462
0.993843
1.92071
5.60371
9.35191
9.98699
9.80165
10.3394
10.1598
11.0398
10.8376
12.1655
11.9648
12.4014
12.3157
13.7466
13.7619
15.1339
15.4472
16.3075
17.0275
16.9929
18.1487
17.0368
18.5294
16.5299
18.1439
15.6925
17.1455
14.7891
15.981
14.9242
13.6228
14.9646
14.9148
11.1566
13.3878
3.51476
8.7929
1.14821
1.11896
0.972695
0.889504
0.878057
0.878159
0.884824
0.90453
0.948183
1.00985
1.12894
1.29243
1.39259
1.40049
1.35484
1.21346
1.07062
0.975487
0.906033
0.851372
0.816654
0.799342
0.792325
0.792395
0.797307
0.809116
0.830691
0.8654
0.96111
1.75768
5.30186
9.03006
9.64133
9.46102
10.1833
9.97248
10.6256
10.4062
11.7216
11.4505
13.3871
13.0959
13.7166
13.6009
15.6786
15.6927
17.6389
18.0661
19.2501
20.1993
20.1629
21.6711
20.104
22.2161
19.1228
21.6129
17.5779
19.8741
16.1858
17.8282
16.2805
14.7633
16.2847
16.1972
12.972
14.5497
5.66471
12.0979
1.16805
1.09996
0.929637
0.882748
0.881192
0.88805
0.908007
0.947655
1.00558
1.10624
1.26414
1.37893
1.4009
1.36991
1.24684
1.09343
0.988481
0.916152
0.858544
0.819939
0.799226
0.789949
0.787959
0.790659
0.798845
0.816916
0.84789
0.931238
1.59309
4.93791
8.70875
9.25518
9.75666
9.6107
10.6035
10.3462
11.165
10.88
12.7471
12.3647
15.1227
14.688
15.621
15.4441
18.3235
18.3023
20.8938
21.2868
22.9081
23.7209
24.1161
25.3074
24.2465
26.1215
22.9315
25.9513
20.356
23.9071
17.9655
20.6534
19.1006
17.0524
18.0093
15.2934
16.0798
17.0003
17.9364
17.9878
17.8704
16.8509
17.7668
14.4744
15.9705
15.8327
15.0855
7.87154
16.8784
1.17209
1.03588
0.896292
0.883558
0.890366
0.911503
0.947906
1.00309
1.08818
1.2354
1.36119
1.39958
1.37963
1.27975
1.11939
1.00265
0.925984
0.866704
0.823944
0.799712
0.788224
0.784651
0.785608
0.790871
0.804081
0.832491
0.906763
1.47741
4.57182
8.44411
8.94509
9.74147
9.51937
10.1102
9.89653
11.2118
10.8814
11.9685
11.5789
14.1794
13.6282
17.3971
16.7883
18.1708
17.8826
21.3953
21.3017
24.1161
24.1251
25.8726
26.0642
26.8444
27.1744
27.5341
27.8854
27.3988
27.9872
28.4361
22.3704
24.644
28.3349
26.508
20.7058
19.0976
20.6868
22.554
19.0758
16.7452
18.8918
18.9977
18.7722
17.6181
18.6228
15.7509
15.4678
15.7919
16.6032
16.4541
15.0887
16.382
17.5772
19.1787
1.11591
0.947662
0.883309
0.890366
0.912341
0.949254
1.00137
1.07515
1.20728
1.34064
1.39508
1.38584
1.30731
1.14818
1.01865
0.9365
0.87458
0.828845
0.800995
0.787083
0.781834
0.781477
0.784702
0.793991
0.817898
0.890877
1.4204
4.25831
8.23711
8.72963
9.57811
10.1367
10.0649
10.5908
10.3555
12.0123
11.5668
13.0638
12.5177
16.0703
15.2759
19.9092
19.0937
21.0429
20.565
23.9017
23.4105
25.9585
25.6363
27.3237
27.3678
28.1042
28.5307
28.4288
28.4819
28.505
28.7708
29.0067
29.4045
28.9561
28.9209
24.7602
26.9846
29.6028
28.7066
22.5531
20.5241
22.4398
24.8494
20.4024
17.4722
20.2372
20.0529
19.85
18.457
19.6324
16.3638
16.4541
17.3046
17.131
21.7882
22.8839
31.8347
17.0105
18.1994
1.02517
0.896819
0.886861
0.911032
0.949417
1.00071
1.06661
1.18162
1.31724
1.38652
1.38667
1.32975
1.1785
1.03706
0.947246
0.883565
0.834009
0.803117
0.787071
0.779824
0.778889
0.78011
0.786032
0.805419
0.885071
1.40956
4.06731
8.03733
8.64706
9.37382
10.3919
10.2434
10.6634
10.5074
11.1903
10.8939
13.0317
12.4239
14.4814
13.7253
18.1607
17.1488
21.2846
20.4995
22.7784
22.0502
25.005
24.1774
27.2155
26.6807
29.1653
29.5694
29.1335
29.7402
30.3742
31.1174
28.8771
28.9281
29.2278
29.7616
29.8452
29.8389
29.3575
29.3303
27.2052
29.1033
30.3608
30.0852
24.8036
22.2661
24.6354
27.3206
22.0362
18.2667
21.7573
21.4577
21.1421
19.402
20.8216
17.0169
17.0313
18.0453
17.8134
23.1166
39.111
45.3753
17.499
19.0444
0.949172
0.884553
0.905305
0.948511
1.00008
1.06145
1.15969
1.29263
1.37466
1.38479
1.34382
1.20907
1.05857
0.959211
0.891952
0.840206
0.805631
0.787363
0.77909
0.777364
0.777731
0.781187
0.798331
0.886478
1.43285
4.01265
7.83846
8.62124
9.1875
10.4099
10.8841
10.8694
11.2318
11.0376
11.9173
11.5226
14.2436
13.4575
16.1216
15.1395
19.6667
18.7107
21.5043
20.7585
23.2422
22.3285
25.7142
24.5093
29.4579
28.5643
31.7184
32.2475
32.4785
32.5036
30.527
31.41
32.357
33.2361
29.4057
29.7523
30.4116
31.3222
30.3675
29.7887
30.3076
29.885
29.4268
30.575
30.9523
30.9188
27.2954
24.3808
27.1222
29.6636
24.0312
19.1366
23.6116
23.1623
22.7022
20.4829
22.2345
17.5986
17.472
18.8233
18.4727
26.0756
70.1683
53.7399
17.8988
19.6728
0.90792
0.892576
0.944711
0.998646
1.05985
1.14182
1.26789
1.3598
1.37988
1.35319
1.23817
1.08197
0.971774
0.901285
0.845776
0.808791
0.787869
0.779079
0.776944
0.777319
0.780374
0.797809
0.899953
1.53274
4.06454
7.70139
8.56213
8.99385
10.2308
11.1535
10.9654
11.4232
11.2803
11.8784
11.6037
12.7956
12.269
15.4715
14.5594
17.6267
16.5131
20.0546
19.3431
21.0773
20.3416
23.2392
22.0481
26.9458
25.0477
32.7761
30.971
33.9841
34.4892
34.6521
34.4936
32.4069
33.5556
34.6608
35.6269
30.2951
31.0416
32.095
33.3597
30.8976
30.3959
30.9802
30.8455
31.0487
31.5118
31.5679
31.59
29.7535
26.8203
29.6617
31.4976
26.3753
20.0987
25.8237
25.2185
24.5841
21.7374
23.9211
18.0899
17.8066
19.6414
19.1113
27.5228
79.2039
64.5847
18.1798
20.0589
0.90549
0.926027
0.996367
1.05683
1.13073
1.24368
1.34284
1.37175
1.35638
1.26265
1.10739
0.985551
0.910513
0.852739
0.811038
0.788621
0.778921
0.777413
0.777804
0.781307
0.801912
0.944203
1.77793
4.32354
7.65681
8.45106
8.77822
9.99113
10.8313
11.4871
11.256
11.9682
11.7279
12.6284
12.2499
13.7794
13.1326
16.4359
15.496
18.4992
17.4914
19.7671
19.2457
20.2578
19.4817
23.1146
21.4712
28.2472
25.3327
35.911
34.605
31.1254
33.1963
36.3692
36.8004
36.8904
36.6096
34.7152
36.0428
37.2389
38.2163
31.6674
32.8459
34.2786
35.8323
31.6392
31.4169
32.0675
32.3053
32.1345
32.2868
32.4001
32.3228
31.8463
29.4147
32.0111
32.7705
28.9512
21.1697
28.3463
27.6287
26.8243
23.1917
25.8993
18.5311
18.0819
20.507
19.7555
30.5138
75.1598
62.8423
18.4871
20.964
0.924898
0.98656
1.05563
1.12109
1.22468
1.32322
1.36277
1.35512
1.28205
1.13299
1.00129
0.919953
0.860317
0.814128
0.788994
0.778248
0.77832
0.779508
0.784794
0.816259
1.05631
2.21668
4.92499
7.66319
8.29936
8.54222
9.73011
10.4941
10.902
10.6441
11.7004
11.2676
12.538
12.1274
13.4399
12.9603
14.6943
14.0108
16.9872
16.0933
18.6663
17.9173
19.0166
18.6876
19.3741
18.5856
22.8521
20.781
29.4918
27.4174
24.8236
37.4389
35.8633
31.6332
33.8441
38.8966
39.1579
39.0941
38.5164
37.3811
38.8113
40.0371
40.9858
33.5856
35.1701
36.9139
38.6782
32.8119
32.9786
33.7258
34.3347
33.0435
33.1476
33.6756
33.2916
33.3715
31.9213
33.8793
33.8561
31.573
22.355
31.0503
30.3278
29.3608
24.8217
28.0569
18.964
18.4139
21.4241
20.4159
33.4364
51.6942
54.6499
19.1027
22.4297
0.9789
1.04982
1.11833
1.20667
1.30629
1.3504
1.35143
1.29519
1.15685
1.0183
0.929672
0.868981
0.818025
0.789182
0.777096
0.778666
0.782757
0.793105
0.85065
1.30017
2.92809
5.68096
7.73258
8.14184
8.3009
9.46895
10.2432
10.231
10.4827
10.1359
11.7122
11.03
13.0699
12.4148
14.1809
13.6442
15.3437
14.7275
17.1263
16.4544
18.3484
17.8539
18.2058
18.0104
18.5379
17.9193
21.9423
19.8411
29.3324
27.3445
24.5833
22.6652
39.1245
37.0655
31.7561
34.5395
41.5519
41.669
41.4535
40.5827
40.3452
41.8171
43.0266
43.9108
36.0542
37.9783
39.9596
41.8613
34.5821
35.1298
36.0115
36.957
34.0531
34.261
35.5775
34.7059
34.6802
34.1258
35.4618
35.0494
34.0729
23.6558
33.7842
33.1477
31.8954
26.6035
30.3052
19.4648
19.02
22.3859
21.1465
31.8443
38.9223
42.1306
20.1898
23.8014
1.05256
1.11304
1.19761
1.28769
1.33963
1.34322
1.30289
1.17644
1.03666
0.940007
0.877327
0.823864
0.789378
0.775611
0.778615
0.786654
0.804692
0.915663
1.67592
3.81586
6.44949
7.8536
7.97642
8.0849
9.21814
10.0649
10.0829
8.99826
9.07707
9.58304
9.11262
11.413
10.355
13.4378
12.5029
14.7043
14.1568
15.6773
15.153
17.0297
16.4016
17.8344
17.5521
17.6328
17.4804
18.1325
17.7298
21.5586
20.2235
18.9565
29.0391
26.6032
23.6729
22.0378
40.9139
38.3773
31.9083
35.2785
44.3197
44.3433
43.883
42.7423
43.5887
45.0612
46.2175
47.0052
39.0525
41.2449
43.3909
45.3746
37.0263
37.9249
39.0028
40.1682
35.3386
35.8386
38.2178
36.7606
36.0804
36.0657
37.0903
36.5141
36.4104
25.0059
36.4102
35.6248
34.3093
28.3784
32.3505
20.1963
20.0384
23.4265
22.1256
28.9434
36.6999
32.9228
21.6042
24.4156
1.11968
1.18767
1.27676
1.326
1.3353
1.30317
1.1936
1.05493
0.950982
0.885813
0.830164
0.790052
0.773569
0.777969
0.790141
0.817606
1.01065
2.21192
4.80406
7.11995
7.93463
7.82363
7.91715
9.01037
9.9459
10.023
8.53936
7.04532
7.21866
7.83794
7.17026
10.7657
9.10085
13.5224
12.3284
14.886
14.3591
15.7542
15.2625
16.8268
16.2849
17.3648
17.182
17.4842
17.3216
18.2294
17.9542
17.8443
20.8448
19.938
18.5017
18.9795
28.7057
25.8507
22.8702
21.2783
42.9084
39.8887
32.2506
36.2355
47.3068
47.253
46.5894
45.14
47.1221
48.5603
49.6693
50.4358
42.5727
44.9589
47.2123
49.2363
40.2523
41.3846
42.752
43.9816
37.1089
38.0926
41.7283
39.6194
37.7277
37.9782
38.9732
38.4817
38.6219
26.4208
38.4692
37.7667
36.2929
30.1904
34.4781
21.2387
21.3837
24.8132
23.4009
26.6443
30.5548
30.4452
23.0203
24.8687
1.19338
1.26372
1.31735
1.32439
1.30152
1.20582
1.07116
0.962788
0.894459
0.839515
0.792155
0.772299
0.776496
0.792011
0.829692
1.11893
2.81948
5.80922
7.64513
7.97035
7.71252
7.81122
8.92574
9.87312
10.0048
8.53399
5.06778
5.45924
5.05205
4.84386
6.75119
5.64835
10.2252
8.35544
13.3267
11.9785
14.7639
14.2197
15.6824
15.1703
16.6673
16.1945
17.1667
16.9709
17.6629
17.5528
18.4896
18.2078
18.3232
18.118
20.2503
19.5507
18.725
18.9846
28.3974
25.2064
22.1785
20.5966
45.1281
41.5784
32.7403
37.3252
50.6423
50.5071
49.5636
47.7992
50.9645
52.3924
53.5464
54.223
46.6206
49.1411
51.4557
53.4782
44.3612
45.5491
47.3503
48.434
39.5959
41.2211
46.2609
43.4507
39.9675
40.0394
41.3129
41.2948
40.3453
28.4229
40.2492
39.5843
38.7583
32.9635
38.0851
22.5148
22.9082
26.4884
24.8125
26.483
31.764
33.2874
24.3342
25.695
1.26717
1.30557
1.31693
1.29665
1.2135
1.08468
0.974945
0.905006
0.850647
0.798454
0.772232
0.775531
0.793153
0.841484
1.2151
3.38736
6.59538
7.96518
7.96858
7.60707
7.79424
8.93285
9.83817
9.98638
8.55373
4.73329
3.77879
3.70788
4.52965
4.00891
6.64662
5.36736
10.106
8.30358
13.0141
11.7327
14.5209
13.9138
15.6055
15.0181
16.7701
16.3036
17.3631
17.1051
18.03
17.9508
18.1348
18.6259
18.4945
18.5517
18.5281
19.7486
19.273
18.7834
18.9483
28.3339
24.6978
21.7921
20.2072
47.6626
43.5656
33.4198
38.6666
54.3542
54.1219
52.9189
50.7961
55.201
56.7034
57.8707
58.458
51.2464
53.86
56.2015
58.2276
49.4915
50.5066
52.9426
53.6276
43.1256
45.5548
52.0851
48.5813
42.8551
41.8487
43.5518
44.8195
42.1725
30.6263
42.4051
42.8288
43.2394
35.6258
41.0412
24.1133
24.5708
28.1718
26.7057
28.2478
23.3667
34.4792
25.6016
27.3167
1.30732
1.30645
1.29149
1.2174
1.09607
0.987238
0.915422
0.862718
0.807566
0.774173
0.775762
0.795789
0.858323
1.29947
3.79123
7.16266
8.17322
7.95948
7.51991
7.80883
8.96869
9.79308
9.93441
8.47939
4.71077
3.16934
3.54355
3.30046
4.63032
3.9259
7.46492
5.85647
10.4651
9.06205
12.8025
11.7225
14.4082
13.6819
15.7018
15.0493
17.2999
16.7572
18.1208
17.7918
18.4504
18.3434
18.51
18.5709
18.5823
18.5515
18.6047
18.6528
19.4795
19.1411
18.6706
18.8097
28.4323
24.4519
21.52
19.9239
50.6446
45.9755
34.3964
40.3891
58.5614
58.1068
56.6814
54.2207
60.0596
61.6086
62.7535
63.2402
56.5899
59.2971
61.6863
63.8633
55.8376
56.4327
59.6807
59.8175
47.3287
50.4508
58.2485
54.1025
45.7282
44.3267
47.1632
48.5435
45.4616
32.7439
47.1115
48.4728
46.8799
38.5388
45.6395
26.2378
26.2379
30.764
29.6149
30.6566
16.8066
31.6131
27.1628
29.5661
1.30748
1.28404
1.21743
1.10425
0.998891
0.925605
0.873283
0.819708
0.78318
0.780688
0.805908
0.89087
1.399
4.02133
7.56721
8.32534
7.93895
7.4856
7.85299
9.03104
9.73536
9.81225
8.23378
4.55229
3.02843
3.11478
3.25497
2.91665
3.57577
5.17025
4.15803
8.13308
6.57841
10.7721
9.55492
12.8534
11.8521
14.5934
13.773
16.0712
15.3289
18.1471
17.4378
18.6103
18.579
18.6694
18.6566
18.7138
18.7475
18.4947
18.508
18.4504
18.6257
19.3148
19.0086
18.5336
18.6706
28.7332
24.2907
21.3033
19.7213
54.2217
48.9959
35.8598
42.6921
63.2962
62.6844
60.9861
58.1884
65.7983
67.3604
68.4713
68.8639
63.0152
65.9135
68.5228
70.9107
62.7751
63.5756
67.5519
67.4582
52.184
56.8016
69.0422
62.4989
50.8814
49.4629
54.935
55.8593
52.46
36.6794
54.6781
53.9308
54.3135
44.487
53.5599
28.3027
27.8629
34.8674
32.1304
32.092
6.8697
25.7792
29.3515
31.4344
1.28538
1.21643
1.10757
1.00608
0.934784
0.886808
0.842183
0.809147
0.803686
0.842146
0.964998
1.55311
4.21551
7.84954
8.45308
7.90996
7.47008
7.92877
9.03443
9.6505
9.60323
7.80063
4.25197
2.86194
2.75602
3.31449
3.10165
2.92404
3.70115
5.36976
4.34702
8.30294
6.76768
10.9201
9.70617
13.0557
12.0147
14.9256
14.0334
16.6622
15.7935
18.4212
17.6581
18.6106
18.539
18.5716
18.7063
18.7405
18.7103
18.7
18.0983
18.2159
17.8976
18.2545
19.175
18.9005
18.1189
18.2407
29.4152
24.3433
21.1091
19.423
58.5935
52.8841
38.09
45.8825
68.8649
68.0055
66.0879
62.9871
72.9333
74.5532
75.537
75.8815
71.2605
74.7499
77.8477
80.5232
76.2786
72.5287
83.168
77.8268
62.3902
70.2521
91.6258
80.2122
62.0085
59.3987
68.0778
70.8446
62.7925
41.9494
63.1261
64.5294
63.5492
50.2594
60.2187
30.2121
30.4593
37.8837
34.9395
34.572
3.17206
20.0059
31.2925
34.2043
1.22169
1.11139
1.01132
0.946412
0.91062
0.88293
0.867628
0.880289
0.958222
1.15324
1.84428
4.51463
8.00533
8.55539
7.88708
7.45431
7.94137
9.00715
9.52517
9.30515
7.21044
3.89385
2.67842
2.56383
2.69077
3.3548
3.10326
2.90494
3.75095
5.39496
4.38923
8.27394
6.76395
10.8822
9.66552
13.0594
12.0016
14.9912
14.0346
16.8237
15.9328
17.239
17.0891
18.4693
18.5165
17.3724
17.5913
18.5037
18.6418
18.395
18.261
17.3328
17.5277
16.7702
17.3049
18.8596
18.517
17.3331
17.4234
30.7291
24.645
21.1708
19.1414
64.0963
57.9548
41.4981
50.4238
75.7903
74.5567
72.3813
68.9264
82.7582
84.5013
85.3467
85.6373
83.2062
88.0551
92.259
95.6343
106.565
90.0946
120.826
97.7781
81.6706
97.1103
157.189
120.53
79.3473
73.5671
87.8666
95.2769
75.7388
45.9407
78.4182
77.9522
75.3666
56.6443
71.9201
34.0719
32.5796
42.7901
41.1291
36.0381
1.92735
11.0783
34.0779
35.5069
1.13851
1.02455
0.971006
0.954052
0.964049
1.01254
1.11363
1.29704
1.6256
2.48624
5.00083
8.08682
8.6037
7.87494
7.43099
7.93161
8.92229
9.35482
8.93399
6.53853
3.5177
2.49516
2.39107
2.46968
2.71719
2.87673
2.55476
3.36586
3.09493
3.76099
5.2857
4.37233
7.89258
6.50763
10.4489
9.23509
12.5671
11.5586
14.4537
13.4981
16.1275
15.2996
16.9914
15.4313
15.0701
14.7544
17.5967
17.6363
16.8513
17.7395
18.0533
17.5023
17.2369
16.2223
16.379
15.7949
16.0704
18.2511
17.7885
16.2811
16.558
33.1297
25.5047
21.732
19.1248
71.2672
64.6017
46.7622
57.0187
85.1727
83.2153
80.5583
76.6379
98.2974
100.084
100.988
101.288
107.113
114.546
120.621
124.777
197.296
139.665
195.396
167.79
122.007
163.996
216.154
199.677
109.473
94.29
122.999
150.944
102.408
56.0968
104.913
103.449
99.0398
76.245
108.435
36.8736
36.2284
52.5635
45.4239
34.7211
17.2073
17.6042
35.9197
39.9838
1.11641
1.02977
1.04993
1.17326
1.40158
1.76171
2.26834
2.86366
3.71072
5.64326
8.10551
8.60336
7.86179
7.4045
7.89862
8.82016
9.16203
8.53634
5.88424
3.16826
2.32353
2.23518
2.28872
2.35115
2.85583
2.63608
2.49833
3.36541
3.06644
3.74407
5.02961
4.28121
7.18007
6.0148
9.53005
8.38903
11.4553
10.5608
13.0734
12.3109
14.5041
13.6905
15.5627
15.0116
14.8288
13.3295
13.9649
16.5398
16.6927
15.6997
16.479
16.8952
16.3507
16.2083
15.7526
15.7067
15.6813
15.7585
17.8842
17.1521
15.9342
16.4349
37.4036
27.6318
23.4331
19.8606
81.1672
73.2145
55.0157
66.5178
99.7331
96.2732
91.7612
87.0364
127.417
128.866
129.864
130.066
206.006
203.447
212.999
212.323
461.86
221.63
479.308
217.176
194.887
192.228
496.028
484.992
164.846
149.706
200.435
214.825
155.444
67.8289
158.613
158.925
167.483
88.0833
120.094
42.8332
38.5938
58.763
55.4792
28.8386
3.49139
30.1495
38.847
41.4873
1.32795
1.32368
1.71551
2.48944
3.33199
3.9906
4.39179
4.93991
6.22475
8.08662
8.57328
7.83438
7.37081
7.84051
8.71019
8.98093
8.18393
5.35534
2.87599
2.17164
2.09649
2.13487
2.16935
2.24842
2.81449
2.58157
2.45621
3.33232
3.00709
3.67822
4.7169
4.12949
6.35348
5.46271
8.28423
7.3236
9.95116
9.16594
11.0389
10.6349
13.0225
11.944
15.2942
15.126
14.485
13.5186
14.2016
15.9522
15.8462
15.6032
15.928
16.0808
16.0495
16.0977
15.9422
15.738
16.5592
16.3062
18.0282
17.0621
16.4051
17.0996
44.8159
32.6612
28.4811
22.5081
95.8713
84.6949
67.8166
79.2898
126.052
120.157
109.518
101.305
208.258
203.899
192.824
188.463
429.855
441.873
429.619
434.742
856.019
481.438
860.595
458.508
504.53
507.221
875.094
873.438
211.468
211.858
530.026
513.061
225.02
77.3301
235.921
228.198
153.297
106.215
170.92
46.6115
43.4507
75.7279
61.6025
34.8274
0.789541
33.7921
42.4285
42.7173
2.43327
2.95968
4.19293
5.02836
5.36536
5.59785
5.88023
6.68343
8.03293
8.48324
7.78208
7.31793
7.7768
8.60217
8.8304
7.93317
5.01989
2.66562
2.041
1.97509
2.00291
2.01778
2.07551
2.11541
2.37162
2.73532
2.50753
3.25607
2.92659
3.56306
4.40866
3.94347
5.6142
4.96715
7.06118
6.32788
8.41563
7.76689
9.96269
8.88051
13.2236
11.5453
15.7926
16.8385
15.356
14.303
16.0453
16.3024
15.9717
16.6251
16.2132
16.1271
16.7336
17.1665
17.7972
17.0857
19.5518
18.609
19.4326
17.8977
18.775