/*--------------------------------*- C++ -*----------------------------------*\
  =========                 |
  \\      /  F ield         | OpenFOAM: The Open Source CFD Toolbox
   \\    /   O peration     | Website:  https://openfoam.org
    \\  /    A nd           | Version:  dev
     \\/     M anipulation  |
\*---------------------------------------------------------------------------*/
FoamFile
{
    version     2.0;
    format      ascii;
    class       volScalarField;
    location    "2500";
    object      p_rgh;
}
// * * * * * * * * * * * * * * * * * * * * * * * * * * * * * * * * * * * * * //

dimensions      [1 -1 -2 0 0 0 0];

internalField   nonuniform List<scalar> 
9844
(
0.00418588
0.00563282
0.00492733
0.00576038
0.00818919
0.00432793
0.00539096
0.00959444
0.00829163
0.00324048
0.00432002
0.00989455
0.0108744
0.0071987
0.00247706
0.00421928
0.0100673
0.0123703
0.0108141
0.00599356
0.00211777
0.00401803
0.00934667
0.0129107
0.0128267
0.00965942
0.00515293
0.00146248
0.003613
0.0084297
0.0126854
0.0144515
0.0121207
0.00810431
0.00418035
0.00114974
0.00308832
0.00753129
0.0121426
0.0150795
0.014308
0.0110954
0.00697504
0.0034704
0.000652729
0.00311636
0.00719105
0.0115852
0.0152166
0.0159152
0.0134921
0.00945953
0.00603692
0.00300604
0.000350746
0.0028809
0.00651709
0.0103956
0.0147143
0.0166464
0.0154893
0.0121782
0.00837459
0.00518148
0.00247366
-0.000117146
0.0026193
0.00600122
0.00984123
0.0141617
0.0166924
0.0168332
0.0145614
0.0104625
0.00711576
0.00451296
0.00197636
-0.000429891
0.00216141
0.00550396
0.00909724
0.0125529
0.0165689
0.0175717
0.0163733
0.0128192
0.00930184
0.0063381
0.00391899
0.001561
-0.000654689
0.00195947
0.00497088
0.00836991
0.0115126
0.0162869
0.0179128
0.0175553
0.0151365
0.0115269
0.00842635
0.00566251
0.0033861
0.00117234
-0.000984023
0.00170564
0.00457601
0.00788739
0.010385
0.0153606
0.0179027
0.0182409
0.0165586
0.0136604
0.0103277
0.00758768
0.0050974
0.00286641
0.000741502
-0.00134812
0.00160454
0.00406086
0.00723903
0.0103629
0.0147079
0.0176261
0.0187054
0.017921
0.0153224
0.0121401
0.00920846
0.00675772
0.00457867
0.00253029
0.000551354
-0.00144509
0.00161066
0.00359682
0.00663193
0.00926591
0.013479
0.0170075
0.0188282
0.0188185
0.0170099
0.0139684
0.0111312
0.00841314
0.00609775
0.00394544
0.0020997
0.000103922
-0.00166204
0.00146214
0.00363483
0.00618001
0.00911778
0.0128884
0.0161523
0.0185736
0.0193503
0.018267
0.0156567
0.0127556
0.00992777
0.00770324
0.00554798
0.00353333
0.00177206
-8.55176e-05
-0.00183075
0.00116413
0.00342749
0.0055282
0.00784631
0.0117709
0.0153776
0.0180595
0.0194288
0.0190392
0.0169778
0.0142393
0.0115491
0.00903804
0.00710082
0.00512949
0.00325158
0.00141869
-0.000235626
-0.00206628
0.00115297
0.00327616
0.00540182
0.00773332
0.011222
0.0140974
0.0174038
0.019279
0.0196213
0.0182635
0.0159439
0.0130671
0.0106101
0.00844014
0.00642001
0.00471937
0.00293176
0.00125296
-0.000398701
-0.00219575
0.000960347
0.00296567
0.00510531
0.00737075
0.00957382
0.0135561
0.016773
0.0189522
0.0198357
0.019223
0.0171928
0.0144007
0.0121829
0.00975306
0.00779845
0.0060122
0.00432895
0.00258794
0.00106463
-0.000528415
-0.00223355
0.000824256
0.00273071
0.00454563
0.00700373
0.0087486
0.0130646
0.0157517
0.0184284
0.0197952
0.0198644
0.018327
0.0158913
0.0133934
0.0110964
0.0091455
0.00715037
0.00560831
0.00396196
0.00237277
0.00087235
-0.000692868
-0.00224728
0.00070434
0.00237281
0.00427786
0.006255
0.00875826
0.01228
0.0150869
0.0176669
0.0194997
0.0200701
0.0193143
0.0172595
0.0147385
0.0123933
0.0102804
0.00853254
0.00677418
0.0051489
0.0036817
0.00218162
0.000595977
-0.00083768
-0.00227419
0.000693545
0.00217569
0.00421979
0.0061595
0.00864604
0.0111152
0.0142469
0.0171144
0.0191322
0.0200498
0.019819
0.0183295
0.0159587
0.0136412
0.0114987
0.00958719
0.00792831
0.00635571
0.0048776
0.00339059
0.00196311
0.000642779
-0.000804278
-0.00222274
0.000510484
0.00218361
0.00401476
0.00569606
0.00814184
0.0106801
0.0132554
0.0164761
0.0185461
0.0198955
0.0200564
0.0192605
0.0170629
0.0147009
0.0127095
0.0108425
0.00904555
0.00746385
0.00589058
0.00452451
0.00317575
0.00173362
0.000590792
-0.000732829
-0.00219006
0.000432957
0.00210384
0.00374428
0.00551237
0.00786008
0.0100034
0.0126432
0.0156563
0.0179268
0.0195079
0.0202735
0.019721
0.0180721
0.0158742
0.0137905
0.0119021
0.0101373
0.00852981
0.00708185
0.00557129
0.00435613
0.00292789
0.00176656
0.000606074
-0.000665788
-0.00203127
0.000364419
0.0019558
0.00344035
0.00530561
0.0073749
0.0094354
0.0120476
0.0147127
0.0172804
0.018932
0.0200727
0.0199738
0.0189072
0.0167931
0.0146375
0.0127921
0.0111509
0.00931349
0.00804767
0.00661485
0.00537371
0.0040114
0.00285491
0.00178663
0.000636768
-0.000503577
-0.00180568
0.00030661
0.00180376
0.00335105
0.00509381
0.006679
0.00887324
0.0115672
0.0139932
0.0165353
0.0184643
0.019878
0.0201531
0.0195182
0.0175985
0.0157164
0.0138638
0.0119339
0.0104667
0.00896
0.00764332
0.00632273
0.00513567
0.00384827
0.00281945
0.00180711
0.000789357
-0.000335857
-0.00154246
0.000323199
0.00165395
0.00298598
0.00465661
0.00656782
0.0084807
0.0110276
0.0133127
0.0154756
0.0177383
0.0193734
0.0200755
0.0198367
0.0183955
0.0165743
0.014694
0.0129628
0.0113114
0.00955634
0.00840454
0.00707374
0.00600878
0.00476939
0.00372831
0.00283996
0.00188035
0.000994016
-4.67754e-05
-0.00115357
0.000212465
0.00137894
0.00289693
0.00457223
0.00603925
0.00787345
0.0104516
0.0127292
0.0148047
0.0173449
0.0189668
0.0198944
0.0199334
0.0189543
0.0174635
0.0156445
0.0138884
0.0122855
0.0107044
0.00935414
0.0080298
0.00686007
0.00564413
0.00459325
0.0036977
0.00283272
0.00199689
0.00127244
0.00037885
-0.000719706
0.000225622
0.0013512
0.00261406
0.00418728
0.00586375
0.00790161
0.00950445
0.012176
0.0141009
0.0165864
0.0184029
0.0195569
0.0199328
0.0193916
0.0179749
0.0164013
0.0147163
0.0131368
0.0116971
0.0101132
0.00896403
0.00761235
0.00640194
0.00523558
0.0043835
0.0036408
0.0028874
0.00224742
0.00160401
0.000888766
-0.000140483
0.000126592
0.00127464
0.00258017
0.0039496
0.00573198
0.00751655
0.00883997
0.0118477
0.0136188
0.0158553
0.0178434
0.0191857
0.019816
0.0195247
0.0185339
0.0168422
0.0154463
0.0139264
0.0124415
0.0110365
0.00947629
0.00823878
0.00732824
0.00615752
0.0049953
0.00429009
0.00370523
0.00308578
0.0026251
0.00215463
0.00149944
0.000454213
0.000118214
0.00116705
0.0024011
0.00372616
0.00533289
0.00702741
0.00862298
0.011221
0.0131455
0.014966
0.0172068
0.0186825
0.0194809
0.0196504
0.0187374
0.0174543
0.0160891
0.0146181
0.0131404
0.0117218
0.0104036
0.00929347
0.00781589
0.0067362
0.00587689
0.00495965
0.00427062
0.00371105
0.00330804
0.00307441
0.00274491
0.00223589
0.00123857
7.84908e-05
0.00104558
0.00218351
0.00357748
0.00501367
0.00682072
0.00836378
0.0101212
0.0125661
0.0144577
0.0167019
0.0181872
0.0191914
0.0195475
0.0190397
0.0181231
0.0165159
0.0152741
0.0135461
0.0125425
0.0112391
0.00976453
0.00862878
0.00707924
0.00645817
0.00548327
0.00471216
0.00419462
0.00383072
0.00366276
0.00360727
0.00344149
0.00302981
0.000676448
0.00205222
-3.8774e-05
0.0010062
0.00195094
0.00343891
0.00478719
0.00641946
0.00776887
0.00934294
0.0115377
0.0138469
0.0159452
0.0175867
0.0187457
0.0193463
0.0192449
0.0184316
0.0168911
0.0157655
0.0145392
0.013135
0.0119323
0.0105633
0.00939647
0.00810967
0.00693438
0.00585543
0.00516103
0.00455598
0.00418074
0.00407212
0.00415568
0.00427456
0.00401624
0.00307621
0.00399798
0.00111521
0.0024303
3.7611e-06
0.000951224
0.00196528
0.00323004
0.00439241
0.00588734
0.00749835
0.00912444
0.0108742
0.0134146
0.0150726
0.0169771
0.0182525
0.0190321
0.0191968
0.0186088
0.0176529
0.0162738
0.0150582
0.0136456
0.0125755
0.0113133
0.00996661
0.00892739
0.00746121
0.00641471
0.00544308
0.00486346
0.00439025
0.00425985
0.00441536
0.00472365
0.00469742
0.00492723
0.00468354
0.004638
0.0052938
0.00358898
0.0045169
0.00150554
0.0029579
-2.86802e-05
0.000735677
0.00176392
0.0028879
0.00406034
0.00563571
0.00700205
0.00846237
0.0103482
0.0126708
0.0143866
0.0162859
0.0177163
0.0186569
0.0190358
0.0187095
0.0180802
0.0167749
0.0156139
0.0143273
0.013157
0.0119596
0.01063
0.00944606
0.00826551
0.00680901
0.00588311
0.00496961
0.00451067
0.00426811
0.00440356
0.00480999
0.00508451
0.00520044
0.00509144
0.00527408
0.00572033
0.00588396
0.00415917
0.00514283
0.00190479
0.00351657
-9.20029e-05
0.000712488
0.00170774
0.00278819
0.00384054
0.00530782
0.00643173
0.00790356
0.00982375
0.0118906
0.0137131
0.0154918
0.0171551
0.0181768
0.0187509
0.0186862
0.0181651
0.0172089
0.0158532
0.0148992
0.0135489
0.0123783
0.0113115
0.00990389
0.00876416
0.00735274
0.00596953
0.00528581
0.00447745
0.00417098
0.00416146
0.00457055
0.00515852
0.00509129
0.00538571
0.00552797
0.00603696
0.00594271
0.00635166
0.00658451
0.00480595
0.00583934
0.00235644
0.00409988
-0.000150105
0.000557558
0.00147484
0.00247998
0.00346324
0.0047218
0.00601812
0.00763176
0.00941572
0.0111872
0.013042
0.0147629
0.016568
0.0177303
0.0184377
0.0185714
0.0182031
0.0174921
0.0163738
0.0153856
0.0141166
0.0130188
0.0119064
0.0108925
0.00914862
0.00828156
0.00651966
0.00517849
0.00459994
0.00385818
0.0037638
0.00404466
0.0048586
0.00460721
0.00554281
0.00542734
0.00623307
0.00629367
0.00667721
0.00667831
0.00707624
0.00735507
0.00547391
0.00656931
0.00282656
0.00471406
-0.000235275
0.000461417
0.00121754
0.00228019
0.00335322
0.00454785
0.00588555
0.00728537
0.00881747
0.0106181
0.0124786
0.0141358
0.0159517
0.0172947
0.0180143
0.0183955
0.0181921
0.0176325
0.0167388
0.0157276
0.0145647
0.0136603
0.0126432
0.0114304
0.0102663
0.00847532
0.00753028
0.00578577
0.00435229
0.0038424
0.00322881
0.00331968
0.00421723
0.00379802
0.00520601
0.00487594
0.00622711
0.00604582
0.00686434
0.00691256
0.00741815
0.00746238
0.00787782
0.0081892
0.00617983
0.00734671
0.00331109
0.00535545
-0.000207683
0.000429174
0.00120054
0.00214662
0.0029879
0.00412851
0.0054102
0.00670833
0.00817847
0.00980341
0.0117522
0.0134294
0.0151744
0.0167114
0.0175877
0.0180776
0.0181519
0.0176227
0.0170439
0.0160501
0.0152296
0.0142166
0.0130113
0.0119866
0.0107435
0.00956981
0.0077582
0.00654327
0.00495464
0.00343541
0.00291
0.00246232
0.00334986
0.0029068
0.0044954
0.00409371
0.00577209
0.00547118
0.00683957
0.00669427
0.00761531
0.00769059
0.00825181
0.00830541
0.00876398
0.00910078
0.00691647
0.00816555
0.00380916
0.00602352
-0.000230462
0.000339441
0.00106361
0.00186494
0.00273695
0.00387169
0.00496389
0.005965
0.0076403
0.00922853
0.0111188
0.012659
0.0144047
0.016054
0.0170913
0.0177208
0.0180009
0.0177304
0.0170676
0.0163111
0.0154829
0.014662
0.0136682
0.0124377
0.011139
0.00999599
0.00883111
0.00678781
0.00536198
0.00387265
0.00228282
0.00190576
0.0025722
0.0025487
0.00385663
0.00394261
0.00529646
0.00554289
0.00661172
0.00693211
0.00772808
0.00800116
0.00850752
0.00878546
0.00922677
0.00920848
0.00978531
0.0101251
0.00768328
0.00902489
0.00431666
0.00671442
-0.000290036
0.000243765
0.000904595
0.00158254
0.00251651
0.00354253
0.00455302
0.005633
0.00717589
0.00857109
0.0103338
0.0120011
0.0136503
0.0153813
0.0165216
0.0172967
0.0176913
0.0176579
0.0172856
0.0165173
0.0156778
0.0150114
0.0140008
0.0129627
0.0119517
0.0105015
0.0091659
0.00797131
0.00571784
0.00403451
0.00259573
0.00132127
0.0026025
0.00321585
0.00465783
0.00616933
0.00671795
0.00948814
0.00829701
0.0117397
0.0091807
0.0125054
0.00956745
0.012022
0.00977576
0.011167
0.0106095
0.0101935
0.0111948
0.01147
0.00847808
0.00993645
0.0048325
0.00742032
-0.000313372
0.00012094
0.000648595
0.00140264
0.00224584
0.00297247
0.00414085
0.00520703
0.00649409
0.0079665
0.00956629
0.0112803
0.0129251
0.0146927
0.0159152
0.0167872
0.0173257
0.0174635
0.0172192
0.0165986
0.0159342
0.0152764
0.0145651
0.0136138
0.0126256
0.0113563
0.00984763
0.0083815
0.0070293
0.00465912
0.00259046
0.00177852
0.00382269
0.00477283
0.00827827
0.0111679
0.013822
0.0197709
0.018308
0.0281833
0.0198687
0.0328833
0.0183353
0.0315924
0.0153
0.0255893
0.0126227
0.0185689
0.013716
0.011401
0.0142711
0.0142072
0.00929905
0.010973
0.00534982
0.00813162
-0.000320498
3.30571e-05
0.00050222
0.00113662
0.00185976
0.00269294
0.00373896
0.00477625
0.00588663
0.00730665
0.00884151
0.0105291
0.0121917
0.0138886
0.0152381
0.0162202
0.0168841
0.0172092
0.0171813
0.016802
0.0161741
0.0154308
0.0149042
0.0140324
0.0130242
0.0121251
0.0107821
0.00918202
0.00753175
0.00597283
0.00337351
0.00236291
0.00629936
0.00474748
0.0140349
0.0178983
0.0267442
0.0342188
0.0403024
0.0535987
0.0504869
0.0705451
0.0534617
0.0799827
0.0467173
0.0784682
0.0335825
0.0637018
0.0213858
0.0411045
0.0231525
0.0135687
0.0234468
0.0220874
0.0101741
0.0125421
0.00585939
0.00884923
-0.000295635
-1.7775e-05
0.000378586
0.000919551
0.00159291
0.00228009
0.00326027
0.00436413
0.00536453
0.00666429
0.00812996
0.00976368
0.0114286
0.013059
0.0145061
0.0156108
0.0163638
0.0168214
0.0169738
0.016768
0.0162543
0.015695
0.0150822
0.0144493
0.0134886
0.012659
0.0116671
0.0101631
0.00840936
0.00654757
0.00485815
0.00439831
0.0177777
0.0202239
0.0273292
0.0413591
0.048264
0.0665201
0.0781576
0.090187
0.107985
0.107199
0.132064
0.113366
0.146015
0.105188
0.146726
0.0804033
0.130533
0.0469989
0.0942466
0.0500012
0.0193963
0.0492233
0.0442288
0.0112704
0.0161704
0.00635173
0.00962637
-0.000237928
-4.71854e-05
0.000249532
0.000698195
0.00130906
0.00191761
0.00283949
0.00386124
0.00487708
0.00604451
0.00743972
0.00898492
0.0106375
0.0122623
0.0137595
0.0149447
0.0158462
0.0163813
0.0166793
0.0165533
0.0162211
0.0156694
0.0152906
0.0145833
0.0139061
0.0129938
0.0123559
0.0111904
0.0095417
0.00776745
0.00569851
0.00503662
0.0199026
0.061224
0.0639673
0.0538284
0.0585315
0.08789
0.0959535
0.122823
0.134478
0.152825
0.169429
0.174045
0.196795
0.183293
0.213442
0.177336
0.216913
0.152064
0.203526
0.103514
0.167846
0.106961
0.0358801
0.103375
0.0917522
0.0132781
0.0263119
0.00680156
0.010691
-0.000147045
-3.83248e-05
0.00016393
0.00053394
0.00108834
0.00164637
0.00247608
0.00341502
0.00436879
0.00545139
0.00674222
0.00818951
0.00983899
0.0114354
0.0129416
0.0142455
0.0152344
0.0159463
0.0163174
0.0164026
0.0162456
0.0157482
0.0153334
0.0148927
0.0142943
0.0135315
0.0127294
0.0120298
0.0106867
0.00871782
0.00681238
0.00616025
0.0193068
0.065143
0.0658817
0.10769
0.108823
0.10177
0.105636
0.143103
0.149328
0.181896
0.190674
0.214259
0.227269
0.237504
0.256171
0.249032
0.274615
0.24606
0.280384
0.224128
0.270195
0.177322
0.238357
0.179993
0.0734689
0.174109
0.158046
0.0181846
0.0510733
0.00715636
0.0125477
-4.12753e-05
1.15311e-05
0.000117643
0.000387153
0.000843432
0.00135225
0.00203326
0.00293713
0.00383538
0.00484456
0.00606722
0.007461
0.00905955
0.010619
0.0121423
0.013506
0.0145759
0.0153884
0.0158704
0.0162044
0.0161221
0.0159079
0.0153437
0.0150093
0.0146031
0.0140632
0.0132382
0.0126353
0.0117488
0.0100232
0.00824736
0.00763285
0.0201834
0.0651522
0.0595221
0.108679
0.10744
0.154569
0.153525
0.153028
0.154634
0.196323
0.199553
0.236264
0.241816
0.270071
0.280108
0.295041
0.311224
0.308293
0.331578
0.307461
0.338556
0.288639
0.329814
0.246548
0.301366
0.247676
0.131728
0.240219
0.222726
0.0303443
0.0958788
0.00767606
0.0167977
8.85377e-06
5.05311e-05
0.000114835
0.000271982
0.000611788
0.00108897
0.00166752
0.00251461
0.0032436
0.00416947
0.00541604
0.00669668
0.00821943
0.00978236
0.0112934
0.0126908
0.0138546
0.0147876
0.0154277
0.0157794
0.0159329
0.0158042
0.0154575
0.015094
0.0148192
0.0143995
0.0138863
0.0131384
0.0125488
0.0114085
0.00963543
0.0091473
0.021013
0.0823057
0.106048
0.10928
0.151192
0.148586
0.196911
0.193398
0.200454
0.199411
0.244552
0.244947
0.286602
0.289968
0.323676
0.332562
0.351533
0.367834
0.366009
0.391004
0.365212
0.397819
0.346932
0.387279
0.308202
0.35847
0.30818
0.194034
0.29969
0.281828
0.0562231
0.151358
0.00889089
0.0263355
7.54843e-06
8.28806e-05
0.000190088
0.000424712
0.000828175
0.00134756
0.00206081
0.00274193
0.00360968
0.00471382
0.00598591
0.00742847
0.00892451
0.0104402
0.0118704
0.0131078
0.0140912
0.0148448
0.0153311
0.0155785
0.0155488
0.0153264
0.0150827
0.0149164
0.0146687
0.0142585
0.0137394
0.013231
0.0125631
0.0112351
0.0105975
0.0216405
0.0772362
0.138858
0.135101
0.145339
0.142595
0.189553
0.185103
0.234616
0.22937
0.243268
0.239574
0.290673
0.288848
0.337905
0.340066
0.3811
0.3883
0.413484
0.42813
0.428964
0.456327
0.42607
0.463962
0.403847
0.448567
0.36425
0.414557
0.363091
0.252113
0.354009
0.335768
0.0962041
0.207142
0.0101884
0.042801
-2.31933e-05
6.8233e-05
0.000253334
0.000586605
0.00102562
0.00163028
0.00229154
0.00306114
0.00405166
0.00525282
0.00663542
0.00808353
0.0095705
0.0109881
0.0122841
0.0133821
0.0142045
0.0148192
0.0151899
0.0153657
0.0152722
0.0150909
0.0148944
0.0148055
0.0145771
0.0141662
0.0137179
0.0134458
0.012629
0.0120849
0.0215276
0.0715148
0.131922
0.123608
0.170942
0.166827
0.1803
0.17564
0.223322
0.216925
0.271808
0.264252
0.284887
0.278423
0.338839
0.334533
0.388085
0.381414
0.42764
0.417446
0.464002
0.453647
0.493172
0.492089
0.494033
0.523835
0.464951
0.515316
0.41913
0.47484
0.416234
0.30556
0.405736
0.386457
0.144068
0.260707
0.0110501
0.0640113
-8.69696e-05
3.90825e-05
0.000350172
0.000701448
0.00122582
0.00185062
0.0025281
0.00342532
0.0045224
0.00590637
0.0072229
0.00867836
0.0100717
0.0114466
0.0125998
0.0135467
0.0142699
0.0147063
0.0149938
0.015124
0.0150497
0.0149267
0.0147896
0.014751
0.0145496
0.0141804
0.013883
0.0137556
0.0135124
0.0211231
0.0659246
0.138414
0.161708
0.162413
0.198553
0.193415
0.210502
0.204366
0.255765
0.247145
0.31035
0.300299
0.32751
0.319096
0.371632
0.360734
0.403022
0.38714
0.436972
0.415175
0.475968
0.450291
0.517398
0.493767
0.548995
0.541552
0.531751
0.571116
0.477679
0.541007
0.508249
0.440778
0.474965
0.319995
0.364204
0.426614
0.463503
0.470043
0.454318
0.40342
0.443252
0.195749
0.345835
0.324117
0.272529
0.0113541
0.0919462
-0.000192636
6.94287e-05
0.00041594
0.000833443
0.00138602
0.00202484
0.00283728
0.00381737
0.00513273
0.00641688
0.00777185
0.00917717
0.0105585
0.0117435
0.0127898
0.0135954
0.014208
0.0146043
0.0148011
0.0149249
0.0149006
0.014828
0.0147468
0.014767
0.0145644
0.0143245
0.0144048
0.0146688
0.0207602
0.0606439
0.13174
0.180795
0.173225
0.188244
0.18451
0.223238
0.21664
0.238659
0.230638
0.289538
0.278707
0.333331
0.326136
0.350442
0.341281
0.37075
0.355574
0.389147
0.36195
0.411632
0.374425
0.450708
0.402862
0.505329
0.449276
0.56224
0.53659
0.507304
0.566131
0.587129
0.578676
0.588768
0.542913
0.506761
0.543494
0.571998
0.504316
0.388536
0.4908
0.498624
0.480933
0.42891
0.46882
0.299139
0.206684
0.271201
0.370226
0.349379
0.0206371
0.237182
0.184573
0.103409
-0.000152593
0.00016437
0.000502873
0.0009907
0.00156661
0.00226871
0.00314809
0.00437018
0.0056468
0.006865
0.00825047
0.00959765
0.0108812
0.0119738
0.012902
0.0136522
0.0140961
0.0144828
0.0147275
0.0148167
0.0148199
0.0147815
0.0147602
0.0148299
0.0146756
0.0146021
0.0153403
0.0205045
0.0554575
0.124888
0.179431
0.199945
0.197364
0.210541
0.205367
0.24782
0.239022
0.267909
0.257521
0.318481
0.308791
0.327279
0.323782
0.343078
0.333932
0.337682
0.317418
0.344143
0.319255
0.372269
0.351007
0.406341
0.385508
0.478726
0.448892
0.431001
0.416077
0.557105
0.524342
0.515359
0.48456
0.59363
0.599419
0.568346
0.590702
0.574477
0.539505
0.574114
0.599043
0.53525
0.413054
0.528523
0.519736
0.508802
0.454458
0.495808
0.326828
0.302945
0.394907
0.375308
0.138392
0.00868955
0.0626098
0.275913
0.240999
-5.47461e-05
0.000235833
0.000624719
0.00113395
0.00176233
0.00251976
0.00362053
0.00486037
0.00599926
0.0073271
0.00863683
0.0099771
0.0111181
0.0121158
0.0129321
0.0135691
0.0140541
0.0144351
0.014663
0.0147613
0.0147837
0.0147737
0.0148305
0.0149181
0.0149311
0.0155376
0.0203508
0.0502821
0.116844
0.171017
0.205366
0.19751
0.217344
0.211538
0.231057
0.224032
0.274154
0.262742
0.297776
0.286045
0.322141
0.320931
0.291976
0.294444
0.303666
0.29566
0.296132
0.274135
0.330945
0.309245
0.373285
0.365586
0.408389
0.404748
0.405273
0.409746
0.456988
0.437626
0.426075
0.420079
0.537174
0.505313
0.494114
0.466927
0.60773
0.601694
0.550089
0.580669
0.602414
0.571564
0.603388
0.615251
0.566776
0.438065
0.559405
0.549778
0.53786
0.48067
0.523825
0.355486
0.336173
0.420038
0.401639
0.198052
0.00223358
0.124688
0.317793
0.299203
5.30391e-06
0.00031428
0.000732834
0.00128282
0.00194206
0.00290347
0.00407871
0.00514331
0.00639911
0.00766843
0.00904195
0.0102096
0.0112593
0.0121985
0.0129525
0.0135545
0.014048
0.0144216
0.0146387
0.0147439
0.0147744
0.0147997
0.01494
0.0152032
0.0156411
0.0202145
0.046221
0.107246
0.161296
0.190708
0.216051
0.206472
0.233467
0.224783
0.252153
0.24251
0.30068
0.287965
0.318723
0.311673
0.301683
0.311188
0.239643
0.24559
0.254767
0.24319
0.284882
0.259203
0.353516
0.330906
0.413338
0.417173
0.416546
0.41373
0.421076
0.426815
0.435131
0.443653
0.448573
0.438258
0.434968
0.438922
0.518354
0.478606
0.491774
0.460952
0.61177
0.593412
0.532849
0.564115
0.621297
0.601893
0.625404
0.621268
0.597403
0.463701
0.590199
0.580204
0.5676
0.507676
0.552607
0.383933
0.368849
0.445596
0.427528
0.28345
0.0832681
0.259983
0.358668
0.350667
4.59608e-05
0.000383124
0.000840893
0.00141305
0.00223345
0.00331534
0.00430961
0.00548046
0.00670075
0.00806979
0.00925333
0.0103652
0.0113693
0.0122396
0.0129644
0.0135731
0.0140782
0.0144413
0.0146489
0.0147495
0.0147829
0.0148854
0.0151103
0.0158297
0.0200462
0.0437997
0.0981245
0.150803
0.174922
0.197033
0.184695
0.224338
0.210778
0.249616
0.237157
0.274864
0.262073
0.321393
0.312027
0.318545
0.321954
0.260343
0.280243
0.204687
0.20648
0.233125
0.213075
0.297425
0.258918
0.412628
0.375688
0.45047
0.453946
0.452367
0.443456
0.448558
0.460441
0.47248
0.482428
0.451596
0.449975
0.457122
0.46937
0.506359
0.474341
0.488412
0.465994
0.606571
0.579155
0.522215
0.548532
0.62986
0.627086
0.636557
0.619528
0.625068
0.490014
0.619344
0.609711
0.59731
0.535488
0.581727
0.410864
0.398655
0.471347
0.452994
0.348426
0.14867
0.321881
0.393584
0.389607
8.13215e-05
0.000448396
0.000930488
0.00162192
0.0025852
0.00350358
0.00458632
0.00575525
0.0070807
0.00827548
0.00941461
0.0104694
0.0114359
0.0122747
0.0130051
0.0136366
0.0141552
0.014493
0.0146817
0.0147639
0.0148312
0.0149921
0.0158842
0.0203174
0.0422849
0.0913592
0.140913
0.162097
0.159284
0.191342
0.17079
0.230233
0.210725
0.266196
0.248828
0.298181
0.282623
0.325851
0.328231
0.301144
0.31755
0.221935
0.247494
0.185557
0.18919
0.221756
0.195845
0.321194
0.260149
0.459361
0.435372
0.370904
0.407953
0.488567
0.489883
0.485681
0.47515
0.484451
0.499348
0.511815
0.520092
0.465512
0.474427
0.489014
0.506522
0.503973
0.480806
0.496529
0.480934
0.594641
0.565185
0.520449
0.539029
0.631449
0.641827
0.641229
0.610573
0.644386
0.516861
0.643324
0.637013
0.625785
0.56376
0.610289
0.436827
0.426245
0.497457
0.478777
0.388106
0.0872131
0.326844
0.422821
0.419419
0.00011154
0.000500577
0.001069
0.00189567
0.0027355
0.0037201
0.00482615
0.00607273
0.00727271
0.008418
0.00950697
0.0105462
0.0114825
0.0123321
0.013097
0.0137611
0.014269
0.0145704
0.0147207
0.0147823
0.0149363
0.0159299
0.0213452
0.0414759
0.0870447
0.132897
0.152466
0.143828
0.13616
0.125093
0.178823
0.154624
0.233228
0.205708
0.282448
0.259192
0.319668
0.302746
0.324071
0.333046
0.276958
0.304393
0.205598
0.23169
0.177281
0.186101
0.210728
0.183966
0.33819
0.298027
0.240759
0.473361
0.443779
0.367274
0.407884
0.523084
0.520211
0.510594
0.495446
0.523824
0.53839
0.548456
0.552994
0.491166
0.507171
0.526609
0.545745
0.512775
0.496375
0.512226
0.506978
0.582528
0.556634
0.529668
0.537704
0.626247
0.649006
0.640107
0.600405
0.654583
0.544027
0.657681
0.657135
0.650645
0.591811
0.637204
0.462843
0.452358
0.523697
0.504513
0.411902
0.0515784
0.2695
0.447621
0.443205
0.000133947
0.000575338
0.00125901
0.00200732
0.00289675
0.00392185
0.0050791
0.00625464
0.00738466
0.00848955
0.00957278
0.0105872
0.0115451
0.0124445
0.0132572
0.0139477
0.014411
0.0146586
0.0147484
0.01497
0.0164207
0.0234238
0.0425238
0.0837315
0.12693
0.145439
0.135942
0.102116
0.110631
0.0949348
0.16062
0.131502
0.23252
0.195637
0.296932
0.267153
0.334151
0.32064
0.32019
0.335559
0.262065
0.293601
0.20672
0.233755
0.178222
0.197357
0.191655
0.175449
0.326778
0.286807
0.227224
0.19345
0.481081
0.445273
0.356583
0.402466
0.55155
0.5434
0.529557
0.508977
0.562078
0.573589
0.579377
0.579143
0.524196
0.544647
0.565289
0.582951
0.528499
0.522364
0.537756
0.539588
0.574916
0.555757
0.545382
0.547304
0.618117
0.651544
0.634891
0.593703
0.659605
0.571032
0.66536
0.668462
0.667287
0.618411
0.65947
0.488252
0.476657
0.549654
0.529608
0.405846
0.0509205
0.240418
0.468758
0.455281
0.000156625
0.000684679
0.00133326
0.00212309
0.00305914
0.00411785
0.00524345
0.00634745
0.0074459
0.0085235
0.00959315
0.0106395
0.011662
0.0126339
0.013504
0.0141777
0.0145807
0.0147511
0.0150877
0.0175811
0.0266541
0.0459427
0.0814848
0.122065
0.139955
0.131026
0.0983893
0.0653382
0.0648582
0.0832445
0.0702283
0.139511
0.105786
0.228358
0.182194
0.308263
0.271836
0.341318
0.334091
0.321292
0.339338
0.263427
0.293877
0.223753
0.251531
0.189926
0.219741
0.178572
0.171053
0.169204
0.308155
0.263432
0.199627
0.174577
0.483682
0.442201
0.339701
0.393578
0.572512
0.560215
0.541942
0.516649
0.595717
0.602529
0.603179
0.597953
0.561034
0.582526
0.601265
0.615003
0.553364
0.554421
0.568986
0.575816
0.574552
0.56543
0.569437
0.562717
0.612147
0.649983
0.630065
0.593339
0.661587
0.597052
0.669302
0.674526
0.676594
0.642901
0.673505
0.512333
0.498207
0.574665
0.553427
0.38366
0.0685521
0.242592
0.484511
0.449743
0.000187536
0.000724074
0.00141124
0.00224487
0.00320299
0.00425493
0.00531536
0.00637876
0.00744113
0.0085196
0.00962157
0.0107433
0.0118705
0.0129253
0.0138341
0.0144584
0.0147905
0.0153591
0.0194411
0.0308565
0.0504273
0.0813029
0.117747
0.134889
0.127693
0.0976527
0.054202
0.0432534
0.0398145
0.0633693
0.0497698
0.123333
0.0870911
0.223086
0.170667
0.316147
0.273771
0.346802
0.342087
0.329047
0.346179
0.279034
0.30538
0.24981
0.276882
0.190315
0.208693
0.231938
0.163527
0.16121
0.173856
0.158967
0.285831
0.237638
0.174628
0.154538
0.482001
0.435925
0.322939
0.382979
0.587201
0.571924
0.549726
0.520078
0.622688
0.62414
0.62016
0.611129
0.597849
0.617211
0.63162
0.639905
0.583645
0.589749
0.603205
0.611542
0.583872
0.580498
0.598673
0.585282
0.611478
0.646532
0.628864
0.601636
0.660775
0.620971
0.671179
0.677483
0.681115
0.662509
0.681
0.533976
0.515677
0.598073
0.575101
0.359439
0.0770886
0.236312
0.490543
0.432533
0.000194334
0.000762857
0.00147988
0.00234
0.00331256
0.00430214
0.00530861
0.00632849
0.00739375
0.00849922
0.00968812
0.0109421
0.0121889
0.0133369
0.0142366
0.0148114
0.0158548
0.0217533
0.0354485
0.0553021
0.083927
0.114376
0.129836
0.12351
0.0959573
0.0536326
0.028613
0.0285247
0.033911
0.0295059
0.0568995
0.0421999
0.117497
0.0809608
0.221445
0.166048
0.320612
0.275405
0.353036
0.347401
0.342137
0.354889
0.301734
0.323867
0.263754
0.290934
0.187338
0.205372
0.216538
0.23615
0.14852
0.14939
0.168594
0.151165
0.263062
0.211516
0.149912
0.135405
0.475728
0.425681
0.302494
0.366481
0.597586
0.578154
0.551883
0.517969
0.641907
0.638647
0.631016
0.618907
0.631145
0.645764
0.654329
0.656547
0.616574
0.62424
0.636223
0.643304
0.597855
0.602318
0.629811
0.613593
0.61875
0.644824
0.634699
0.614544
0.659248
0.642893
0.67153
0.678654
0.682699
0.675618
0.684776
0.552269
0.527541
0.619103
0.593722
0.338558
0.0462207
0.199607
0.488267
0.417809
0.000200707
0.000807277
0.00155912
0.00243381
0.00334982
0.00428844
0.00522517
0.00623222
0.00729338
0.00850077
0.00983171
0.0112595
0.0126513
0.0138365
0.0147569
0.0164055
0.0241171
0.0397218
0.0599309
0.0871576
0.111916
0.124522
0.118704
0.0926921
0.0521597
0.0258575
0.0239284
0.0222565
0.0320126
0.026704
0.059227
0.0416376
0.126676
0.0876627
0.227667
0.174558
0.32413
0.28015
0.359806
0.351398
0.35271
0.362336
0.316775
0.338339
0.252448
0.268727
0.285897
0.176756
0.197104
0.195839
0.216585
0.133293
0.137174
0.155927
0.136706
0.23963
0.186169
0.125759
0.114521
0.465545
0.409856
0.278876
0.346662
0.601424
0.57808
0.548115
0.511142
0.653445
0.6464
0.634697
0.619473
0.657785
0.666087
0.668184
0.664776
0.647613
0.654255
0.663899
0.667823
0.618132
0.628218
0.657478
0.642195
0.630141
0.648719
0.643645
0.632727
0.660418
0.660932
0.670194
0.677455
0.682864
0.682774
0.685996
0.566942
0.534149
0.636682
0.609471
0.315201
0.0203766
0.130368
0.483431
0.405217
0.00020883
0.000846496
0.00161505
0.00245879
0.00332576
0.00417573
0.0050507
0.0060447
0.00720021
0.00854924
0.0101145
0.0117332
0.0132439
0.0145501
0.0167201
0.0260665
0.043038
0.0637515
0.0885523
0.108029
0.118424
0.112266
0.0877092
0.0492103
0.025167
0.0197188
0.0230329
0.021116
0.0333199
0.0264024
0.0727346
0.0476319
0.14968
0.108058
0.242944
0.195116
0.328927
0.289581
0.364728
0.35451
0.352876
0.362357
0.313491
0.337871
0.236184
0.255541
0.254559
0.241987
0.152931
0.174481
0.160826
0.18244
0.1138
0.121299
0.13182
0.112478
0.213242
0.159502
0.0980437
0.0887582
0.45015
0.391044
0.25236
0.323913
0.598238
0.572454
0.540126
0.500398
0.657225
0.645878
0.631648
0.612463
0.675384
0.676691
0.67244
0.663937
0.67085
0.675963
0.680211
0.682114
0.641291
0.652887
0.674903
0.664404
0.645094
0.654206
0.653175
0.651765
0.66218
0.673119
0.66894
0.675826
0.68168
0.685774
0.685117
0.578177
0.537635
0.651834
0.622644
0.276239
0.0144412
0.0800991
0.478609
0.386174
0.000218878
0.000875756
0.00164126
0.00244086
0.00320249
0.00393052
0.00479783
0.00581345
0.00711407
0.00874326
0.0105525
0.0123889
0.0141019
0.0166764
0.0269735
0.0450383
0.0660714
0.0876139
0.102774
0.110911
0.102768
0.0791537
0.0442319
0.0241653
0.0187463
0.0186488
0.0205293
0.0177744
0.0225075
0.0360287
0.0268502
0.084744
0.0542016
0.17148
0.12598
0.259522
0.216403
0.332257
0.299353
0.364651
0.354492
0.327046
0.340839
0.264823
0.30179
0.203351
0.223449
0.226017
0.203272
0.117586
0.139145
0.113666
0.135771
0.0891265
0.097078
0.0971693
0.0790856
0.183684
0.129179
0.0658896
0.0573773
0.432957
0.369933
0.222875
0.298528
0.589836
0.561772
0.527204
0.484607
0.652558
0.638793
0.621116
0.599999
0.681985
0.676467
0.666924
0.655172
0.681687
0.684773
0.683781
0.683711
0.660062
0.668467
0.677008
0.674587