/*--------------------------------*- C++ -*----------------------------------*\
  =========                 |
  \\      /  F ield         | OpenFOAM: The Open Source CFD Toolbox
   \\    /   O peration     | Website:  https://openfoam.org
    \\  /    A nd           | Version:  dev
     \\/     M anipulation  |
\*---------------------------------------------------------------------------*/
FoamFile
{
    version     2.0;
    format      ascii;
    class       surfaceScalarField;
    location    "2500";
    object      phi;
}
// * * * * * * * * * * * * * * * * * * * * * * * * * * * * * * * * * * * * * //

dimensions      [1 0 -1 0 0 0 0];

internalField   nonuniform List<scalar> 
19519
(
1.56607e-07
1.07859e-07
1.3765e-07
2.7149e-07
4.40906e-07
9.81635e-08
1.13949e-07
3.76438e-07
4.35429e-07
2.76975e-07
6.41881e-07
8.2788e-08
9.32412e-08
4.55226e-07
4.03742e-07
4.08141e-07
6.61671e-07
2.5719e-07
7.99569e-07
7.03059e-08
7.77251e-08
5.17162e-07
3.55531e-07
5.03408e-07
6.63796e-07
4.05997e-07
8.31535e-07
2.25262e-07
9.39476e-07
6.20528e-08
6.61033e-08
5.69253e-07
3.02179e-07
5.70536e-07
6.4121e-07
5.26064e-07
8.616e-07
3.75934e-07
9.67422e-07
1.97316e-07
1.06916e-06
5.56119e-08
5.72285e-08
6.17584e-07
2.52479e-07
6.19008e-07
5.95827e-07
6.1595e-07
8.74458e-07
5.13215e-07
1.00721e-06
3.36154e-07
1.08981e-06
1.76668e-07
1.18638e-06
5.05237e-08
5.01555e-08
6.64932e-07
2.12721e-07
6.57362e-07
5.36792e-07
6.78058e-07
8.62744e-07
6.27651e-07
1.04564e-06
4.74787e-07
1.12612e-06
2.99895e-07
1.20326e-06
1.59799e-07
1.29575e-06
4.61639e-08
4.49994e-08
7.10447e-07
1.85832e-07
6.91861e-07
4.73318e-07
7.2088e-07
8.25783e-07
7.14988e-07
1.07087e-06
6.02432e-07
1.1732e-06
4.27689e-07
1.23215e-06
2.71024e-07
1.30982e-06
1.45756e-07
1.39636e-06
4.21464e-08
4.14788e-08
7.52364e-07
1.68897e-07
7.27463e-07
4.12565e-07
7.52597e-07
7.69515e-07
7.7705e-07
1.07253e-06
7.13362e-07
1.22057e-06
5.55086e-07
1.2748e-06
3.8501e-07
1.3347e-06
2.46137e-07
1.40898e-06
1.33136e-07
1.48963e-06
3.85226e-08
3.83737e-08
7.92242e-07
1.5562e-07
7.65655e-07
3.62862e-07
7.7711e-07
7.01346e-07
8.20788e-07
1.04762e-06
8.02011e-07
1.25699e-06
6.7694e-07
1.32894e-06
5.01015e-07
1.36975e-06
3.49973e-07
1.42988e-06
2.25238e-07
1.50097e-06
1.21799e-07
1.57505e-06
3.51977e-08
3.54629e-08
8.30332e-07
1.43829e-07
8.04044e-07
3.27575e-07
8.00946e-07
6.28701e-07
8.49852e-07
1.00053e-06
8.67901e-07
1.27272e-06
7.86295e-07
1.38553e-06
6.2034e-07
1.41655e-06
4.54187e-07
1.45998e-06
3.19874e-07
1.52024e-06
2.05975e-07
1.58566e-06
1.11211e-07
1.6546e-06
3.20144e-08
3.29843e-08
8.67249e-07
1.32599e-07
8.41573e-07
3.02589e-07
8.2904e-07
5.60395e-07
8.69244e-07
9.38447e-07
9.11931e-07
1.26299e-06
8.776e-07
1.4338e-06
7.37999e-07
1.47497e-06
5.62002e-07
1.50085e-06
4.13326e-07
1.54761e-06
2.92516e-07
1.60356e-06
1.88079e-07
1.66458e-06
1.01243e-07
1.72819e-06
2.88905e-08
3.11655e-08
9.02694e-07
1.23286e-07
8.76609e-07
2.82398e-07
8.61773e-07
5.0386e-07
8.85515e-07
8.67725e-07
9.39992e-07
1.22944e-06
9.45509e-07
1.4637e-06
8.47703e-07
1.53845e-06
6.7448e-07
1.5529e-06
5.0993e-07
1.58353e-06
3.77414e-07
1.62875e-06
2.67335e-07
1.68134e-06
1.71331e-07
1.73752e-06
9.19201e-08
1.79493e-06
2.60088e-08
2.98039e-08
9.36669e-07
1.16686e-07
9.09331e-07
2.63898e-07
8.95087e-07
4.62882e-07
9.02735e-07
7.95339e-07
9.57889e-07
1.17771e-06
9.91729e-07
1.47028e-06
9.38937e-07
1.59734e-06
7.8881e-07
1.61549e-06
6.12002e-07
1.62853e-06
4.6493e-07
1.6618e-06
3.44374e-07
1.70509e-06
2.43593e-07
1.75369e-06
1.55185e-07
1.80422e-06
8.26135e-08
1.85629e-06
2.30849e-08
2.86326e-08
9.69691e-07
1.11274e-07
9.42089e-07
2.46094e-07
9.27124e-07
4.32021e-07
9.25945e-07
7.26774e-07
9.7132e-07
1.11344e-06
1.02226e-06
1.45302e-06
1.009e-06
1.64265e-06
8.93623e-07
1.68526e-06
7.19093e-07
1.68395e-06
5.56463e-07
1.70315e-06
4.23632e-07
1.73601e-06
3.13483e-07
1.77623e-06
2.21052e-07
1.81957e-06
1.39857e-07
1.8655e-06
7.34172e-08
1.91189e-06
2.02839e-08
2.71826e-08
1.00009e-06
1.07559e-07
9.73385e-07
2.31167e-07
9.56908e-07
4.06285e-07
9.53001e-07
6.68519e-07
9.8422e-07
1.04254e-06
1.04224e-06
1.4151e-06
1.06019e-06
1.66764e-06
9.84018e-07
1.75439e-06
8.24432e-07
1.75029e-06
6.52833e-07
1.75341e-06
5.06163e-07
1.77411e-06
3.85533e-07
1.80544e-06
2.84259e-07
1.84137e-06
1.9927e-07
1.88069e-06
1.24691e-07
1.92085e-06
6.44613e-08
1.9618e-06
1.74605e-08
2.57982e-08
1.02781e-06
1.03515e-07
1.00414e-06
2.1746e-07
9.87112e-07
3.82155e-07
9.81144e-07
6.23499e-07
9.97876e-07
9.71039e-07
1.05572e-06
1.36158e-06
1.09577e-06
1.66948e-06
1.05835e-06
1.81372e-06
9.2475e-07
1.82445e-06
7.5029e-07
1.81251e-06
5.93756e-07
1.81976e-06
4.60556e-07
1.84173e-06
3.49292e-07
1.87011e-06
2.55514e-07
1.90215e-06
1.77793e-07
1.93636e-06
1.092e-07
1.97075e-06
5.54797e-08
2.00616e-06
1.43926e-08
2.43779e-08
1.0518e-06
9.83164e-08
1.0329e-06
2.04435e-07
1.01722e-06
3.63399e-07
1.00587e-06
5.88888e-07
1.01576e-06
9.02953e-07
1.06597e-06
1.29818e-06
1.11913e-06
1.64911e-06
1.11615e-06
1.85623e-06
1.01583e-06
1.90148e-06
8.47725e-07
1.88211e-06
6.80745e-07
1.87377e-06
5.39757e-07
1.88464e-06
4.17651e-07
1.90502e-06
3.14425e-07
1.92991e-06
2.27792e-07
1.95763e-06
1.56493e-07
1.98616e-06
9.38223e-08
2.01555e-06
4.6097e-08
2.04394e-06
1.12738e-08
2.29077e-08
1.07234e-06
9.34811e-08
1.05663e-06
1.93628e-07
1.04381e-06
3.5043e-07
1.03015e-06
5.56791e-07
1.03795e-06
8.4416e-07
1.07446e-06
1.23081e-06
1.13335e-06
1.61086e-06
1.15738e-06
1.87792e-06
1.09445e-06
1.97362e-06
9.43677e-07
1.96049e-06
7.69329e-07
1.93641e-06
6.18115e-07
1.93504e-06
4.89352e-07
1.94621e-06
3.76475e-07
1.9639e-06
2.80387e-07
1.98533e-06
2.00144e-07
2.0082e-06
1.34492e-07
2.03124e-06
7.81421e-08
2.05394e-06
3.61015e-08
2.07593e-06
8.09989e-09
2.12294e-08
1.0901e-06
8.78791e-08
1.07794e-06
1.8284e-07
1.06742e-06
3.34232e-07
1.06e-06
5.27094e-07
1.05981e-06
7.98366e-07
1.08371e-06
1.16322e-06
1.14213e-06
1.55953e-06
1.18466e-06
1.87767e-06
1.15765e-06
2.03311e-06
1.03497e-06
2.04313e-06
8.61001e-07
2.00853e-06
6.97148e-07
1.99327e-06
5.59907e-07
1.99368e-06
4.41893e-07
2.00412e-06
3.36367e-07
2.0189e-06
2.46845e-07
2.03623e-06
1.72133e-07
2.053e-06
1.12717e-07
2.07042e-06
6.16765e-08
2.08619e-06
2.5849e-08
2.10133e-06
4.69788e-09
1.95137e-08
1.10495e-06
8.11538e-08
1.0968e-06
1.73097e-07
1.08772e-06
3.17326e-07
1.08431e-06
5.08784e-07
1.07826e-06
7.61396e-07
1.09675e-06
1.09842e-06
1.1485e-06
1.49986e-06
1.20179e-06
1.85748e-06
1.20485e-06
2.07478e-06
1.11598e-06
2.12518e-06
9.52914e-07
2.08994e-06
7.79614e-07
2.05909e-06
6.31344e-07
2.0482e-06
5.05402e-07
2.05005e-06
3.95957e-07
2.05828e-06
2.96982e-07
2.06974e-06
2.13356e-07
2.08135e-06
1.4385e-07
2.09329e-06
8.98305e-08
2.1034e-06
4.44825e-08
2.11231e-06
1.48795e-08
2.12069e-06
9.47756e-10
1.8133e-08
1.11686e-06
7.45857e-08
1.11149e-06
1.65317e-07
1.10455e-06
3.03385e-07
1.10158e-06
4.95404e-07
1.09764e-06
7.27573e-07
1.11205e-06
1.03997e-06
1.15505e-06
1.43654e-06
1.21177e-06
1.82134e-06
1.23792e-06
2.09586e-06
1.18377e-06
2.19905e-06
1.04214e-06
2.17756e-06
8.65289e-07
2.13353e-06
7.0517e-07
2.10988e-06
5.69666e-07
2.10218e-06
4.53311e-07
2.10341e-06
3.50867e-07
2.1088e-06
2.57947e-07
2.11576e-06
1.78983e-07
2.12258e-06
1.14632e-07
2.12753e-06
6.57317e-08
2.13032e-06
2.64172e-08
2.13182e-06
3.77854e-09
2.13261e-06
-2.897e-09
1.67055e-08
1.12517e-06
6.96179e-08
1.1218e-06
1.58571e-07
1.11822e-06
2.90973e-07
1.1168e-06
4.77812e-07
1.11909e-06
6.99776e-07
1.12546e-06
9.89705e-07
1.16234e-06
1.37321e-06
1.21845e-06
1.77365e-06
1.25949e-06
2.09673e-06
1.23704e-06
2.25896e-06
1.12386e-06
2.26784e-06
9.51939e-07
2.21672e-06
7.82104e-07
2.17805e-06
6.36994e-07
2.16044e-06
5.11409e-07
2.15468e-06
4.02085e-07
2.15367e-06
3.06018e-07
2.15567e-06
2.18054e-07
2.15756e-06
1.44027e-07
2.15784e-06
8.43504e-08
2.15588e-06
4.02439e-08
2.15105e-06
7.18654e-09
2.14428e-06
-7.87667e-09
2.13655e-06
-6.7638e-09
1.5447e-08
1.12961e-06
6.5788e-08
1.12898e-06
1.5206e-07
1.12828e-06
2.80132e-07
1.12903e-06
4.60707e-07
1.13403e-06
6.79472e-07
1.1394e-06
9.48576e-07
1.16657e-06
1.31207e-06
1.22338e-06
1.71927e-06
1.27288e-06
2.07971e-06
1.27652e-06
2.3015e-06
1.19448e-06
2.35406e-06
1.0376e-06
2.30694e-06
8.61674e-07
2.25421e-06
7.05896e-07
2.2252e-06
5.72105e-07
2.21136e-06
4.54693e-07
2.20438e-06
3.51393e-07
2.20101e-06
2.60702e-07
2.19835e-06
1.77322e-07
2.19448e-06
1.0742e-07
2.18838e-06
5.18882e-08
2.17796e-06
1.3356e-08
2.16526e-06
-1.37823e-08
2.15002e-06
-2.13429e-08
2.13716e-06
-1.16716e-08
1.45171e-08
1.13111e-06
6.20118e-08
1.13337e-06
1.46364e-07
1.13465e-06
2.71961e-07
1.13629e-06
4.45893e-07
1.14378e-06
6.60714e-07
1.15277e-06
9.16463e-07
1.17147e-06
1.25475e-06
1.22381e-06
1.66213e-06
1.28049e-06
2.04792e-06
1.30466e-06
2.32486e-06
1.25317e-06
2.43028e-06
1.11827e-06
2.40234e-06
9.42229e-07
2.33856e-06
7.77361e-07
2.2959e-06
6.35296e-07
2.27292e-06
5.10547e-07
2.26019e-06
3.98884e-07
2.25097e-06
3.01438e-07
2.24421e-06
2.14833e-07
2.23669e-06
1.35155e-07
2.22696e-06
6.88765e-08
2.21251e-06
1.74116e-08
2.19471e-06
-1.60543e-08
2.17326e-06
-3.69981e-08
2.15383e-06
-3.80143e-08
2.12235e-06
-1.73887e-08
1.37398e-08
1.13027e-06
5.88772e-08
1.13422e-06
1.41512e-07
1.13812e-06
2.63817e-07
1.14276e-06
4.31764e-07
1.1505e-06
6.42103e-07
1.16221e-06
8.91855e-07
1.17731e-06
1.20392e-06
1.2223e-06
1.60427e-06
1.28164e-06
2.00651e-06
1.32193e-06
2.32997e-06
1.29957e-06
2.49241e-06
1.19102e-06
2.49768e-06
1.02295e-06
2.43003e-06
8.50742e-07
2.37324e-06
7.00012e-07
2.33996e-06
5.68231e-07
2.32003e-06
4.50712e-07
2.30589e-06
3.43952e-07
2.29555e-06
2.5013e-07
2.28437e-06
1.6718e-07
2.2713e-06
9.08525e-08
2.25404e-06
2.73794e-08
2.23231e-06
-2.01511e-08
2.20547e-06
-4.82345e-08
2.1793e-06
-6.2461e-08
2.14033e-06
-5.5972e-08
2.09637e-06
-2.3627e-08
1.32875e-08
1.12713e-06
5.6101e-08
1.13302e-06
1.3625e-07
1.13945e-06
2.56339e-07
1.14564e-06
4.22122e-07
1.15245e-06
6.25118e-07
1.16729e-06
8.71983e-07
1.18215e-06
1.16204e-06
1.21913e-06
1.54666e-06
1.27984e-06
1.95936e-06
1.32878e-06
2.31896e-06
1.3329e-06
2.5376e-06
1.25439e-06
2.58694e-06
1.10173e-06
2.52709e-06
9.25803e-07
2.45789e-06
7.66138e-07
2.41278e-06
6.27221e-07
2.3845e-06
5.037e-07
2.36601e-06
3.90652e-07
2.35049e-06
2.89018e-07
2.33662e-06
1.97875e-07
2.32063e-06
1.1788e-07
2.3012e-06
4.36917e-08
2.27647e-06
-1.67878e-08
2.24611e-06
-6.07411e-08
2.21484e-06
-8.37256e-08
2.1701e-06
-9.22001e-08
2.11676e-06
-7.6324e-08
2.05806e-06
-3.08007e-08
1.2761e-08
1.12258e-06
5.31757e-08
1.13004e-06
1.31662e-07
1.13758e-06
2.50958e-07
1.14483e-06
4.13857e-07
1.15384e-06
6.11611e-07
1.16587e-06
8.5429e-07
1.18505e-06
1.12842e-06
1.21572e-06
1.49048e-06
1.27524e-06
1.90897e-06
1.33017e-06
2.29455e-06
1.3532e-06
2.56655e-06
1.30392e-06
2.66735e-06
1.17396e-06
2.62777e-06
1.00111e-06
2.54991e-06
8.3373e-07
2.49137e-06
6.87543e-07
2.45426e-06
5.57557e-07
2.42927e-06
4.40299e-07
2.40925e-06
3.31904e-07
2.3932e-06
2.32457e-07
2.37521e-06
1.43377e-07
2.35383e-06
6.52995e-08
2.32725e-06
-6.98151e-09
2.29449e-06
-6.51063e-08
2.25939e-06
-1.05244e-07
2.21075e-06
-1.2432e-07
2.15052e-06
-1.25922e-07
2.08118e-06
-9.94295e-08
2.00614e-06
-3.90952e-08
1.21854e-08
1.11607e-06
5.11227e-08
1.12461e-06
1.28565e-07
1.13311e-06
2.46501e-07
1.14199e-06
4.06427e-07
1.15215e-06
6.05682e-07
1.15977e-06
8.34491e-07
1.18555e-06
1.10116e-06
1.21224e-06
1.43865e-06
1.26737e-06
1.85753e-06
1.32666e-06
2.26098e-06
1.36376e-06
2.5782e-06
1.34154e-06
2.73414e-06
1.23707e-06
2.72788e-06
1.07387e-06
2.64845e-06
9.02561e-07
2.5764e-06
7.48687e-07
2.52856e-06
6.13215e-07
2.49699e-06
4.8996e-07
2.47311e-06
3.76367e-07
2.45322e-06
2.71909e-07
2.43393e-06
1.73735e-07
2.41096e-06
8.62669e-08
2.38332e-06
9.26341e-09
2.34923e-06
-6.16778e-08
2.31157e-06
-1.1723e-07
2.26134e-06
-1.5578e-07
2.19658e-06
-1.70332e-07
2.11962e-06
-1.64314e-07
2.0325e-06
-1.2577e-07
1.93791e-06
-4.87445e-08
1.19412e-08
1.10743e-06
4.99273e-08
1.11727e-06
1.26467e-07
1.12667e-06
2.43314e-07
1.13628e-06
4.02436e-07
1.14588e-06
6.02091e-07
1.15566e-06
8.14128e-07
1.17997e-06
1.07944e-06
1.20719e-06
1.3945e-06
1.25644e-06
1.80513e-06
1.31988e-06
2.22098e-06
1.36658e-06
2.57391e-06
1.36804e-06
2.78491e-06
1.29073e-06
2.82213e-06
1.14284e-06
2.75186e-06
9.70508e-07
2.66739e-06
8.1157e-07
2.60827e-06
6.68962e-07
2.56879e-06
5.41396e-07
2.53985e-06
4.23275e-07
2.51635e-06
3.13266e-07
2.49527e-06
2.10531e-07
2.47178e-06
1.12963e-07
2.4441e-06
2.54842e-08
2.40964e-06
-5.11017e-08
2.3704e-06
-1.20421e-07
2.32094e-06
-1.76767e-07
2.25388e-06
-2.13028e-07
2.17246e-06
-2.23122e-07
2.0767e-06
-2.08469e-07
1.96838e-06
-1.56203e-07
1.85133e-06
-5.98231e-08
1.18789e-08
1.09747e-06
4.9365e-08
1.10798e-06
1.2496e-07
1.11877e-06
2.41229e-07
1.12869e-06
3.9953e-07
1.13907e-06
5.95491e-07
1.15244e-06
8.01443e-07
1.16828e-06
1.05909e-06
1.20025e-06
1.35754e-06
1.24409e-06
1.75205e-06
1.30943e-06
2.17669e-06
1.36408e-06
2.5572e-06
1.38329e-06
2.81869e-06
1.33431e-06
2.90594e-06
1.20691e-06
2.85643e-06
1.03819e-06
2.7653e-06
8.72581e-07
2.69333e-06
7.26502e-07
2.64428e-06
5.9345e-07
2.60972e-06
4.71526e-07
2.58278e-06
3.56796e-07
2.55909e-06
2.49408e-07
2.5359e-06
1.46374e-07
2.50879e-06
4.82975e-08
2.47485e-06
-3.96914e-08
2.43582e-06
-1.16486e-07
2.38853e-06
-1.87942e-07
2.32119e-06
-2.44003e-07
2.23779e-06
-2.78304e-07
2.13733e-06
-2.83678e-07
2.01921e-06
-2.59236e-07
1.88675e-06
-1.91587e-07
1.74452e-06
-7.24566e-08
1.16843e-08
1.08685e-06
4.91028e-08
1.0977e-06
1.23236e-07
1.10967e-06
2.41e-07
1.1189e-06
3.97876e-07
1.13023e-06
5.90059e-07
1.14449e-06
7.96431e-07
1.15743e-06
1.03704e-06
1.19028e-06
1.3261e-06
1.23165e-06
1.70103e-06
1.29505e-06
2.13024e-06
1.35576e-06
2.53104e-06
1.39022e-06
2.83584e-06
1.36612e-06
2.97726e-06
1.26299e-06
2.95837e-06
1.10495e-06
2.8683e-06
9.35173e-07
2.78384e-06
7.82045e-07
2.72456e-06
6.46208e-07
2.68253e-06
5.20647e-07
2.65187e-06
4.02467e-07
2.6261e-06
2.8988e-07
2.60214e-06
1.83171e-07
2.57529e-06
7.99677e-08
2.54264e-06
-1.94258e-08
2.506e-06
-1.09833e-07
2.46211e-06
-1.90022e-07
2.39671e-06
-2.63382e-07
2.31439e-06
-3.20513e-07
2.21223e-06
-3.53128e-07
2.08921e-06
-3.53598e-07
1.9453e-06
-3.17709e-07
1.7852e-06
-2.32237e-07
1.61521e-06
-2.60304e-08
-6.05628e-08
1.14595e-08
1.07485e-06
4.91925e-08
1.08676e-06
1.22623e-07
1.09824e-06
2.43283e-07
1.10734e-06
3.97982e-07
1.11882e-06
5.85628e-07
1.13466e-06
7.89772e-07
1.15107e-06
1.01608e-06
1.17834e-06
1.29637e-06
1.21997e-06
1.6543e-06
1.27833e-06
2.08155e-06
1.34364e-06
2.4978e-06
1.38899e-06
2.83834e-06
1.3877e-06
3.03344e-06
1.30993e-06
3.0551e-06
1.1662e-06
2.97422e-06
9.99046e-07
2.87866e-06
8.4028e-07
2.8092e-06
6.97378e-07
2.7587e-06
5.69952e-07
2.72369e-06
4.48772e-07
2.69526e-06
3.33256e-07
2.66909e-06
2.22847e-07
2.64337e-06
1.15069e-07
2.61314e-06
9.46893e-09
2.57889e-06
-9.22743e-08
2.54003e-06
-1.87682e-07
2.47955e-06
-2.72792e-07
2.40059e-06
-3.49503e-07
2.29995e-06
-4.08141e-07
2.17523e-06
-4.39048e-07
2.02476e-06
-4.32968e-07
1.8526e-06
-3.85011e-07
1.6587e-06
-1.21804e-07
-1.53859e-07
7.39009e-07
-2.23991e-08
7.50166e-07
-7.1714e-08
1.15026e-08
1.06122e-06
4.93959e-08
1.07462e-06
1.24159e-07
1.08517e-06
2.4603e-07
1.09546e-06
3.97483e-07
1.10777e-06
5.79857e-07
1.12436e-06
7.81401e-07
1.14298e-06
1.00097e-06
1.16614e-06
1.26757e-06
1.2071e-06
1.61307e-06
1.2611e-06
2.03147e-06
1.32833e-06
2.45854e-06
1.38287e-06
2.82991e-06
1.39737e-06
3.07403e-06
1.34709e-06
3.14287e-06
1.22222e-06
3.07994e-06
1.06046e-06
2.97877e-06
8.98962e-07
2.89761e-06
7.51877e-07
2.83935e-06
6.16791e-07
2.7981e-06
4.95522e-07
2.76619e-06
3.77826e-07
2.73824e-06
2.64183e-07
2.71311e-06
1.53083e-07
2.68584e-06
4.24065e-08
2.65425e-06
-6.59255e-08
2.62097e-06
-1.73174e-07
2.567e-06
-2.75088e-07
2.49418e-06
-3.66311e-07
2.39869e-06
-4.4815e-07
2.27642e-06
-5.09236e-07
2.12374e-06
-5.37911e-07
1.93714e-06
-2.43343e-07
-2.74055e-07
8.68644e-07
-2.08533e-07
8.54261e-07
-2.40576e-07
7.51693e-07
-1.23316e-07
7.70274e-07
-1.72414e-07
6.97774e-07
-2.1819e-08
7.03672e-07
-7.76025e-08
1.17719e-08
1.04729e-06
4.91681e-08
1.06143e-06
1.26396e-07
1.07234e-06
2.48191e-07
1.08296e-06
3.97152e-07
1.0957e-06
5.76538e-07
1.1111e-06
7.75312e-07
1.13054e-06
9.89255e-07
1.1547e-06
1.24274e-06
1.19106e-06
1.57596e-06
1.24418e-06
1.98207e-06
1.31046e-06
2.41586e-06
1.37098e-06
2.8116e-06
1.40115e-06
3.09827e-06
1.37307e-06
3.21847e-06
1.27147e-06
3.18353e-06
1.11857e-06
3.08354e-06
9.55647e-07
2.99041e-06
8.06124e-07
2.92288e-06
6.68342e-07
2.87482e-06
5.39966e-07
2.8417e-06
4.19998e-07
2.80964e-06
3.06449e-07
2.78384e-06
1.93479e-07
2.75795e-06
8.09094e-08
2.72909e-06
-3.24915e-08
2.70035e-06
-1.45303e-07
2.65565e-06
-2.61763e-07
2.59242e-06
-3.73258e-07
2.50614e-06
-4.7368e-07
2.39084e-06
-5.62462e-07
2.24175e-06
-6.27135e-07
2.05302e-06
-3.1388e-07
-3.39775e-07
8.93433e-07
-2.681e-07
9.25321e-07
-3.0591e-07
7.81739e-07
-2.19965e-07
8.75704e-07
-2.89511e-07
8.0811e-07
-2.66909e-07
7.1279e-07
-1.32412e-07
7.26173e-07
-1.85768e-07
6.52254e-07
-2.27275e-08
6.57846e-07
-8.31749e-08
1.17905e-08
1.03281e-06
4.94085e-08
1.047e-06
1.2832e-07
1.05952e-06
2.51095e-07
1.06943e-06
3.98124e-07
1.08191e-06
5.74205e-07
1.09804e-06
7.67842e-07
1.11854e-06
9.76512e-07
1.14336e-06
1.22263e-06
1.17477e-06
1.54028e-06
1.22658e-06
1.93487e-06
1.29138e-06
2.37032e-06
1.35608e-06
2.78538e-06
1.3971e-06
3.1081e-06
1.39135e-06
3.27977e-06
1.31173e-06
3.28245e-06
1.17259e-06
3.18992e-06
1.01218e-06
3.08709e-06
8.58936e-07
3.00841e-06
7.20468e-07
2.9533e-06
5.89947e-07
2.91446e-06
4.67174e-07
2.88288e-06
3.46735e-07
2.85452e-06
2.35582e-07
2.82951e-06
1.21955e-07
2.80384e-06
6.16451e-09
2.77867e-06
-1.10845e-07
2.74411e-06
-2.33702e-07
2.692e-06
-3.61269e-07
2.61826e-06
-4.85303e-07
2.51519e-06
-5.97928e-07
2.37602e-06
-6.96608e-07
2.19086e-06
-3.71857e-07
-3.92991e-07
9.54125e-07
-3.42646e-07
9.91668e-07
-3.7728e-07
9.01156e-07
-3.31325e-07
7.4375e-07
-2.37505e-07
8.31901e-07
-3.1326e-07
7.65873e-07
-2.8899e-07
6.67701e-07
-1.42241e-07
6.81197e-07
-1.99229e-07
6.03282e-07
-2.44013e-08
6.08945e-07
-8.88202e-08
1.16187e-08
1.01819e-06
4.96098e-08
1.03259e-06
1.29478e-07
1.04583e-06
2.53097e-07
1.05742e-06
3.97497e-07
1.06988e-06
5.69918e-07
1.08619e-06
7.6047e-07
1.10539e-06
9.66428e-07
1.12854e-06
1.20742e-06
1.15849e-06
1.50764e-06
1.20734e-06
1.89001e-06
1.27145e-06
2.32309e-06
1.33854e-06
2.75146e-06
1.38993e-06
3.10693e-06
1.39831e-06
3.32667e-06
1.34443e-06
3.37264e-06
1.22153e-06
3.29589e-06
1.06664e-06
3.18755e-06
9.1161e-07
3.09721e-06
7.70068e-07
3.03394e-06
6.39787e-07
2.98821e-06
5.16259e-07
2.95486e-06
3.95127e-07
2.92714e-06
2.7427e-07
2.90196e-06
1.63196e-07
2.87825e-06
4.76473e-08
2.85525e-06
-7.04531e-08
2.83059e-06
-1.97319e-07
2.78945e-06
-3.31086e-07
2.7312e-06
-4.74138e-07
2.64475e-06
-6.1478e-07
2.52265e-06
-7.44448e-07
2.34974e-06
-4.18457e-07
-4.36892e-07
1.02625e-06
-4.06406e-07
1.0688e-06
-4.35496e-07
9.31739e-07
-3.73189e-07
9.66073e-07
-4.11571e-07
8.61443e-07
-3.60822e-07
6.99229e-07
-2.55494e-07
7.92453e-07
-3.39794e-07
7.21561e-07
-3.11275e-07
6.18602e-07
-1.51867e-07
6.32336e-07
-2.12921e-07
5.50553e-07
-2.66855e-08
5.56672e-07
-9.4916e-08
1.13496e-08
1.00301e-06
4.9737e-08
1.01807e-06
1.29763e-07
1.03229e-06
2.52611e-07
1.04619e-06
3.97168e-07
1.05771e-06
5.67343e-07
1.07264e-06
7.56039e-07
1.09063e-06
9.59239e-07
1.11258e-06
1.1936e-06
1.14233e-06
1.47938e-06
1.1867e-06
1.84751e-06
1.24981e-06
2.27621e-06
1.31819e-06
2.71253e-06
1.37738e-06
3.09652e-06
1.40016e-06
3.35841e-06
1.36651e-06
3.45224e-06
1.26481e-06
3.40015e-06
1.11729e-06
3.29109e-06
9.63144e-07
3.19011e-06
8.18653e-07
3.11717e-06
6.86759e-07
3.06504e-06
5.62932e-07
3.02789e-06
4.43128e-07
2.99872e-06
3.23369e-07
2.97345e-06
2.02614e-07
2.95168e-06
8.96584e-08
2.93058e-06
-2.76439e-08
2.914e-06
-1.53908e-07
2.88291e-06
-2.90728e-07
2.84026e-06
-4.4006e-07
2.77538e-06
-6.04681e-07
2.67548e-06
-7.67499e-07
2.52443e-06
-4.52278e-07
-4.66734e-07
1.11085e-06
-4.60465e-07
1.15906e-06
-4.85062e-07
1.00543e-06
-4.45723e-07
1.04823e-06
-4.7825e-07
8.95853e-07
-4.07551e-07
9.34278e-07
-4.49947e-07
8.23375e-07
-3.91694e-07
6.50393e-07
-2.73503e-07
7.48934e-07
-3.67116e-07
6.73023e-07
-3.33852e-07
5.66215e-07
-1.61373e-07
5.79607e-07
-2.26265e-07
4.95306e-07
-2.92027e-08
5.01318e-07
-1.00901e-07
1.12682e-08
9.86151e-07
5.00453e-08
1.00267e-06
1.30629e-07
1.01715e-06
2.52029e-07
1.03284e-06
3.98165e-07
1.04526e-06
5.65403e-07
1.05964e-06
7.51536e-07
1.07699e-06
9.50356e-07
1.09944e-06
1.17896e-06
1.12716e-06
1.45386e-06
1.16777e-06
1.80678e-06
1.2273e-06
2.22934e-06
1.29662e-06
2.67001e-06
1.36071e-06
3.07782e-06
1.39612e-06
3.37655e-06
1.38199e-06
3.51855e-06
1.30015e-06
3.49953e-06
1.16526e-06
3.39579e-06
1.01259e-06
3.28677e-06
8.66551e-07
3.20298e-06
7.32843e-07
3.14378e-06
6.0786e-07
3.10201e-06
4.88714e-07
3.0695e-06
3.72396e-07
3.04376e-06
2.53069e-07
3.02226e-06
1.32092e-07
3.0083e-06
1.19517e-08
2.99351e-06
-1.07168e-07
2.9714e-06
-2.42461e-07
2.94316e-06
-3.93566e-07
2.89935e-06
-5.63951e-07
2.8281e-06
-7.57215e-07
2.71148e-06
-4.73664e-07
-4.80754e-07
1.2081e-06
-5.01277e-07
1.2604e-06
-5.18997e-07
1.09631e-06
-5.08498e-07
1.14738e-06
-5.36075e-07
9.77305e-07
-4.88699e-07
1.02504e-06
-5.25937e-07
8.598e-07
-4.43924e-07
9.00995e-07
-4.91088e-07
7.81147e-07
-4.23852e-07
5.97301e-07
-2.91142e-07
7.00667e-07
-3.94702e-07
6.19723e-07
-3.56213e-07
5.10321e-07
-1.70331e-07
5.2295e-07
-2.38839e-07
4.37253e-07
-3.13991e-08
4.43143e-07
-1.06755e-07
1.11851e-08
9.67963e-07
4.95659e-08
9.86641e-07
1.31826e-07
1.00145e-06
2.50403e-07
1.01873e-06
3.97709e-07
1.03332e-06
5.62572e-07
1.04811e-06
7.45528e-07
1.06564e-06
9.39436e-07
1.08796e-06
1.16541e-06
1.11304e-06
1.43064e-06
1.15029e-06
1.76905e-06
1.20547e-06
2.1822e-06
1.27445e-06
2.62514e-06
1.34147e-06
3.05048e-06
1.38796e-06
3.38351e-06
1.38912e-06
3.57166e-06
1.32886e-06
3.59112e-06
1.20851e-06
3.50051e-06
1.06048e-06
3.38605e-06
9.13349e-07
3.29164e-06
7.77877e-07
3.22428e-06
6.52342e-07
3.17695e-06
5.33037e-07
3.14071e-06
4.17482e-07
3.1135e-06
3.02646e-07
3.09109e-06
1.84264e-07
3.0767e-06
6.36822e-08
3.06787e-06
-6.24199e-08
3.0535e-06
-1.89246e-07
3.03791e-06
-3.37227e-07
3.01431e-06
-5.0846e-07
2.97258e-06
-7.08333e-07
2.89625e-06
-4.70759e-07
-4.71082e-07
1.31685e-06
-5.30063e-07
1.37227e-06
-5.36119e-07
1.20417e-06
-5.58019e-07
1.26455e-06
-5.79302e-07
1.07801e-06
-5.61408e-07
1.13729e-06
-5.95282e-07
9.47513e-07
-5.3516e-07
1.00016e-06
-5.78515e-07
8.187e-07
-4.81419e-07
8.63291e-07
-5.35615e-07
7.33472e-07
-4.56594e-07
5.39901e-07
-3.08031e-07
6.47626e-07
-4.22539e-07
5.61734e-07
-3.77977e-07
4.51e-07
-1.78136e-07
4.62339e-07
-2.50113e-07
3.77598e-07
-3.30889e-08
3.82371e-07
-1.11485e-07
1.03116e-08
9.48302e-07
4.8507e-08
9.68912e-07
1.31301e-07
9.87132e-07
2.48103e-07
1.00375e-06
3.96991e-07
1.01934e-06
5.59611e-07
1.03621e-06
7.38896e-07
1.05473e-06
9.29836e-07
1.07524e-06
1.15318e-06
1.10018e-06
1.40994e-06
1.1337e-06
1.7341e-06
1.1853e-06
2.1356e-06
1.25204e-06
2.57872e-06
1.32073e-06
3.01567e-06
1.37618e-06
3.38033e-06
1.3911e-06
3.61042e-06
1.35031e-06
3.67317e-06
1.24685e-06
3.60345e-06
1.10558e-06
3.48735e-06
9.59086e-07
3.38347e-06
8.21518e-07
3.30653e-06
6.9547e-07
3.25298e-06
5.76267e-07
3.21254e-06
4.61187e-07
3.18269e-06
3.48326e-07
3.15913e-06
2.34514e-07
3.14227e-06
1.18743e-07
3.13382e-06
-2.2563e-09
3.13022e-06
-1.39154e-07
3.12248e-06
-2.73828e-07
3.11684e-06
-4.39772e-07
3.10499e-06
-6.40775e-07
3.07426e-06
-4.47937e-07
-4.38211e-07
1.43323e-06
-5.31637e-07
1.49147e-06
-5.29187e-07
1.33177e-06
-5.97182e-07
1.40413e-06
-6.08304e-07
1.20457e-06
-6.25186e-07
1.28263e-06
-6.57169e-07
1.06164e-06
-6.22796e-07
1.13574e-06
-6.69202e-07
9.15218e-07
-5.87005e-07
9.77764e-07
-6.40925e-07
7.7239e-07
-5.20266e-07
8.22076e-07
-5.85203e-07
6.81591e-07
-4.90483e-07
4.78211e-07
-3.23831e-07
5.89778e-07
-4.50503e-07
4.99386e-07
-3.99069e-07
3.88992e-07
-1.84694e-07
3.98394e-07
-2.59441e-07
3.16888e-07
-3.45203e-08
3.20425e-07
-1.14968e-07
8.3782e-09
9.26423e-07
4.54543e-08
9.51351e-07
1.27287e-07
9.73e-07
2.46375e-07
9.88908e-07
3.94339e-07
1.00637e-06
5.53935e-07
1.0251e-06
7.31797e-07
1.04333e-06
9.22373e-07
1.0622e-06
1.14e-06
1.08846e-06
1.39138e-06
1.11876e-06
1.70113e-06
1.16668e-06
2.09043e-06
1.23047e-06
2.53123e-06
1.29946e-06
2.97609e-06
1.36032e-06
3.36711e-06
1.38936e-06
3.6369e-06
1.36458e-06
3.74417e-06
1.2793e-06
3.70224e-06
1.14802e-06
3.58992e-06
1.003e-06
3.47788e-06
8.64633e-07
3.39114e-06
7.37106e-07
3.33012e-06
6.18302e-07
3.28563e-06
5.03226e-07
3.2526e-06
3.91239e-07
3.22676e-06
2.80595e-07
3.20776e-06
1.68912e-07
3.1963e-06
5.63262e-08
3.199e-06
-7.1052e-08
3.1981e-06
-2.14799e-07
3.20498e-06
-3.619e-07
3.2145e-06
-5.49226e-07
3.24156e-06
-4.09669e-07
-3.98117e-07
1.55589e-06
-5.12174e-07
1.61379e-06
-4.95847e-07
1.48328e-06
-6.10492e-07
1.56755e-06
-6.13023e-07
1.37369e-06
-6.87887e-07
1.47934e-06
-7.13355e-07
1.22729e-06
-7.1639e-07
1.34206e-06
-7.71272e-07
1.05873e-06
-7.03484e-07
1.16653e-06
-7.76414e-07
8.85882e-07
-6.50624e-07
9.73437e-07
-7.28062e-07
7.2507e-07
-5.63633e-07
7.87436e-07
-6.47326e-07
6.27297e-07
-5.27879e-07
4.12552e-07
-3.37903e-07
5.29199e-07
-4.8019e-07
4.344e-07
-4.20792e-07
3.24855e-07
-1.89052e-07
3.31281e-07
-2.65781e-07
2.55815e-07
-3.62176e-08
2.57836e-07
-1.16923e-07
4.44121e-09
9.00716e-07
3.9462e-08
9.32406e-07
1.19928e-07
9.58697e-07
2.42168e-07
9.77211e-07
3.88249e-07
9.9494e-07
5.4655e-07
1.01376e-06
7.23961e-07
1.03292e-06
9.14307e-07
1.05142e-06
1.1257e-06
1.07654e-06
1.37432e-06
1.10555e-06
1.6707e-06
1.1492e-06
2.04692e-06
1.21018e-06
2.48322e-06
1.27832e-06
2.93316e-06
1.34238e-06
3.34642e-06
1.38095e-06
3.65122e-06
1.37501e-06
3.80293e-06
1.30579e-06
3.79445e-06
1.18706e-06
3.6921e-06
1.04571e-06
3.57446e-06
9.0644e-07
3.4777e-06
7.77807e-07
3.40872e-06
6.58487e-07
3.35958e-06
5.44232e-07
3.32236e-06
4.33208e-07
3.29395e-06
3.24159e-07
3.27306e-06
2.15203e-07
3.26015e-06
1.04949e-07
3.26312e-06
-7.80005e-09
3.2665e-06
-1.39465e-07
3.27942e-06
-2.89381e-07
3.3067e-06
-4.54036e-07
3.36819e-06
-3.57116e-07
-3.18359e-07
1.67638e-06
-4.71918e-07
1.73592e-06
-4.57223e-07
1.65743e-06
-6.01426e-07
1.74823e-06
-5.85829e-07
1.59891e-06
-7.29143e-07
1.73158e-06
-7.44407e-07
1.48369e-06
-8.28372e-07
1.65005e-06
-8.78025e-07
1.31024e-06
-8.5895e-07
1.49183e-06
-9.50957e-07
1.09885e-06
-8.2798e-07
1.27305e-06
-9.48809e-07
8.79994e-07
-7.42591e-07
1.02189e-06
-8.6865e-07
6.83489e-07
-6.19538e-07
7.78043e-07
-7.41118e-07
5.77826e-07
-5.7619e-07
3.44303e-07
-3.50806e-07
4.73302e-07
-5.18773e-07
3.72564e-07
-4.48759e-07
2.59591e-07
-1.90722e-07
2.63942e-07
-2.70024e-07
1.95878e-07
-3.77466e-08
1.95604e-07
-1.16569e-07
-2.63903e-09
8.66872e-07
3.05674e-08
9.09599e-07
1.08925e-07
9.43393e-07
2.34119e-07
9.66749e-07
3.80581e-07
9.84893e-07
5.38254e-07
1.00328e-06
7.15282e-07
1.02245e-06
9.05623e-07
1.04167e-06
1.11269e-06
1.06449e-06
1.35779e-06
1.09308e-06
1.64377e-06
1.13251e-06
2.00542e-06
1.1907e-06
2.43546e-06
1.25791e-06
2.88766e-06
1.32391e-06
3.31702e-06
1.37175e-06
3.65483e-06
1.37732e-06
3.84984e-06
1.32807e-06
3.8787e-06
1.22149e-06
3.79313e-06
1.08609e-06
3.67298e-06
9.47039e-07
3.56706e-06
8.17201e-07
3.48917e-06
6.9737e-07
3.43375e-06
5.84263e-07
3.39227e-06
4.74479e-07
3.36103e-06
3.6614e-07
3.33811e-06
2.59068e-07
3.32346e-06
1.51799e-07
3.32196e-06
4.6063e-08
3.32734e-06
-6.85824e-08
3.34333e-06
-2.03331e-07
3.38017e-06
-3.62878e-07
3.48459e-06
-5.69855e-07
1.78461e-06
-4.05259e-07
1.85071e-06
-3.83967e-07
1.84281e-06
-5.65469e-07
1.93256e-06
-5.45721e-07
1.87143e-06
-7.39634e-07
2.01146e-06
-7.23922e-07
1.83239e-06
-9.09294e-07
2.02282e-06
-9.32225e-07
1.70277e-06
-1.03669e-06
1.92713e-06
-1.09926e-06
1.48839e-06
-1.07155e-06
1.72718e-06
-1.18631e-06
1.21935e-06
-1.0229e-06
1.45469e-06
-1.18065e-06
9.31825e-07
-8.94628e-07
1.14136e-06
-1.07496e-06
6.67721e-07
-7.08538e-07
8.2438e-07
-8.95632e-07
5.53962e-07
-6.55878e-07
2.78992e-07
-3.65612e-07
4.39661e-07
-5.84902e-07
3.27943e-07
-4.96841e-07
1.94622e-07
-1.89637e-07
1.98632e-07
-2.73849e-07
1.38473e-07
-3.85066e-08
1.35472e-07
-1.13472e-07
-1.32627e-08
8.1905e-07
1.67846e-08
8.8065e-07
9.29816e-08
9.25543e-07
2.21409e-07
9.56096e-07
3.70051e-07
9.77301e-07
5.28313e-07
9.94856e-07
7.05782e-07
1.01283e-06
8.94687e-07
1.03344e-06
1.10046e-06
1.05395e-06
1.34059e-06
1.08171e-06
1.61928e-06
1.11761e-06
1.96592e-06
1.17201e-06
2.38832e-06
1.23783e-06
2.84086e-06
1.30465e-06
3.2811e-06
1.35981e-06
3.64887e-06
1.37769e-06
3.88365e-06
1.34348e-06
3.95414e-06
1.25263e-06
3.89059e-06
1.124e-06
3.77235e-06
9.86678e-07
3.65837e-06
8.55534e-07
3.57094e-06
7.35342e-07
3.5083e-06
6.22823e-07
3.46217e-06
5.14302e-07
3.4277e-06
4.07756e-07
3.40284e-06
3.0156e-07
3.38629e-06
1.96172e-07
3.38017e-06
9.35024e-08
3.38547e-06
-1.21489e-08
3.39787e-06
-1.231e-07
3.43731e-06
-2.60383e-07
3.565e-06
-4.42471e-07
-2.07407e-06
4.09809e-06
-3.79983e-07
-3.58345e-07
2.01878e-06
-4.90111e-07
-4.37584e-07
2.14847e-06
-7.00299e-07
2.27472e-06
-6.69584e-07
2.20818e-06
-9.2212e-07
2.38257e-06
-8.95288e-07
2.14932e-06
-1.12808e-06
2.36205e-06
-1.14142e-06
1.97046e-06
-1.27618e-06
2.20365e-06
-1.32856e-06
1.69878e-06
-1.31167e-06
1.93688e-06
-1.4203e-06
1.37627e-06
-1.25379e-06
1.60829e-06
-1.40841e-06
1.03399e-06
-1.10043e-06
1.25367e-06
-1.29029e-06
7.00794e-07
-8.52968e-07
8.95381e-07
-1.08599e-06
5.70877e-07
-7.84568e-07
2.24943e-07
-3.91244e-07
4.38352e-07
-6.9281e-07
3.07108e-07
-5.7674e-07
1.3237e-07
-1.86391e-07
1.41873e-07
-2.82907e-07
8.61818e-08
-3.78551e-08
7.99171e-08
-1.07088e-07
-2.68344e-08
7.44794e-07
-3.22304e-09
8.39056e-07
7.11149e-08
9.02516e-07
2.0239e-07
9.44549e-07
3.55996e-07
9.70176e-07
5.18098e-07
9.8753e-07
6.96034e-07
1.00461e-06
8.82205e-07
1.0252e-06
1.0888e-06
1.04515e-06
1.32314e-06
1.07143e-06
1.59629e-06
1.10473e-06
1.92914e-06
1.15442e-06
2.34186e-06
1.21848e-06
2.79349e-06
1.28517e-06
3.24111e-06
1.34463e-06
3.63432e-06
1.37432e-06
3.90624e-06
1.35506e-06
4.01877e-06
1.27884e-06
3.98341e-06
1.15978e-06
3.8715e-06
1.02478e-06
3.75183e-06
8.93412e-07
3.65427e-06
7.72069e-07
3.5837e-06
6.59893e-07
3.5319e-06
5.53e-07
3.49411e-06
4.47793e-07
3.4674e-06
3.43202e-07
3.44898e-06
2.38894e-07
3.4391e-06
1.3716e-07