/*--------------------------------*- C++ -*----------------------------------*\
  =========                 |
  \\      /  F ield         | OpenFOAM: The Open Source CFD Toolbox
   \\    /   O peration     | Website:  https://openfoam.org
    \\  /    A nd           | Version:  dev
     \\/     M anipulation  |
\*---------------------------------------------------------------------------*/
FoamFile
{
    version     2.0;
    format      ascii;
    class       volScalarField;
    location    "2500";
    object      qr;
}
// * * * * * * * * * * * * * * * * * * * * * * * * * * * * * * * * * * * * * //

dimensions      [1 0 -3 0 0 0 0];

internalField   uniform 0;

boundaryField
{
    lowerOutlet
    {
        type            calculated;
        value           nonuniform List<scalar> 
146
(
1037.75
1041.18
1045.01
1049.2
1053.75
1058.69
1064.02
1069.75
1075.89
1082.47
1089.49
1096.99
1104.98
1113.49
1122.57
1132.23
1142.54
1153.53
1165.26
1177.79
1191.2
1205.58
1221.02
1237.65
1255.64
1275.13
1296.31
1319.41
1344.7
1372.54
1403.34
1437.61
1476.01
1508.93
1556.79
1611.66
1675.14
1749.49
1837.78
1944.09
2073.87
2235.51
2439.5
2697.04
2948.52
3652.97
4279.43
4813.91
3411.69
3824.08
3020.8
2548.01
2248.52
2039.82
1867.37
1751.74
1659.98
1585.47
1523.68
1471.44
1426.64
1387.69
1353.39
1322.88
1288.68
1264.61
1242.68
1222.6
1204.11
1187.01
1171.14
1156.37
1142.57
1129.67
1117.59
1106.23
1095.53
1085.44
1075.91
1066.9
1058.38
1050.32
1042.68
1035.45
1028.61
1022.13
1016.01
1010.22
1004.75
999.594
994.74
990.181
985.908
981.917
978.201
974.758
971.608
1888.4
2005.61
2150.03
2331.67
2559.97
2886.77
3517.16
4105.11
4684.52
5177.87
-6823.94
3263.84
2645.88
2312.65
2085.85
1937.39
1806.01
1703.39
1620.87
1553.22
1496.5
1791.67
3091.79
3795.31
4419.06
4941.44
3627.49
2886.8
2461.08
2189.86
1997.31
1448.22
2819.14
3314.46
3923.41
4553.46
5065.39
3440.63
2757.07
2383.12
2135.76
1532.07
1583.26
1642.2
1710.78
1406.52
1370.02
1337.71
1308.85
)
;
    }
    top
    {
        type            calculated;
        value           nonuniform List<scalar> 
100
(
947.023
949.757
952.546
955.31
958.05
954.298
954.941
956.99
959.247
961.451
963.554
965.534
967.165
968.146
969.627
970.932
972.078
973.185
974.364
975.616
976.912
978.205
979.374
979.854
977.312
969.254
958.858
949.145
941.07
934.306
928.107
923.959
923.066
927.175
939.537
958.388
978.952
993.016
998.926
1001.03
1002.07
1002.78
1003.3
1003.63
1003.79
1003.8
1003.67
1003.44
1003.17
1002.77
1002.22
1001.52
1000.8
999.963
999.068
998.075
996.999
995.858
994.703
993.483
992.205
990.866
989.585
988.091
986.583
984.971
983.242
981.465
979.636
977.581
975.501
973.322
971.032
968.693
966.4
964.22
962.291
960.456
960.512
967.449
964.719
961.968
959.196
956.404
953.593
950.77
947.941
945.109
942.276
939.444
936.614
933.787
928.522
924.643
920.875
917.403
914.409
912.016
910.318
909.623
)
;
    }
    sides
    {
        type            calculated;
        value           nonuniform List<scalar> 
100
(
1037.77
1040.52
1042.94
1045.01
1046.73
1048.12
1049.17
1049.9
1050.32
1050.44
1050.26
1049.81
1049.09
1048.12
1046.91
1045.47
1043.83
1041.99
1039.97
1037.78
1035.44
1032.96
1030.36
1027.64
1024.83
1021.93
1018.95
1015.9
1012.8
1009.66
1006.48
1003.27
1000.04
996.792
993.541
990.29
987.043
983.807
980.586
977.383
974.204
971.051
967.927
964.834
961.775
958.751
955.763
952.813
949.901
947.065
971.624
974.272
976.669
978.808
980.691
982.32
983.699
984.834
985.731
986.396
986.834
987.055
987.065
986.873
986.487
985.916
985.169
984.256
983.183
981.961
980.599
979.107
977.492
975.764
973.931
972
969.98
967.878
965.701
963.456
961.149
958.787
956.374
953.916
951.419
948.886
946.322
943.731
941.117
938.483
935.831
933.165
930.487
927.799
925.103
922.401
919.693
916.981
914.265
911.582
)
;
    }
    front
    {
        type            empty;
    }
    back
    {
        type            empty;
    }
    roller
    {
        type            calculated;
        value           nonuniform List<scalar> 
144
(
5101.56
4166.31
3528.38
2811.16
1537.77
1279.55
1197.63
1166.43
1138.86
5627.28
5979.31
5559.38
4942.8
4423.36
2507.26
1987.55
1575.7
1882.74
1418.73
1337.02
1247
1282.91
1186.65
1178.54
1146.33
1149.54
4523.22
5249.69
3834.98
3692.74
2373.27
1911.49
2362.51
2276.3
1512.42
1320.8
1307.08
1263.98
1170.75
1141.31
5944.23
5745.68
4674.27
3556.69
3358.89
2648.5
2099.4
2587.16
2457.44
2194.77
1616.17
1942.68
1448.46
1350.81
1255.24
1251.5
1189.84
5757.4
5960.38
5334.04
5000.91
2118.19
2043.01
1464.48
1439.83
1377.88
1327.64
1398.25
1372.41
1273.36
1215.85
1159.21
1153.28
4125.5
3927.02
4318.43
5437.01
3295.68
3075.75
2867.95
1766.16
1822.02
1693.12
1391.95
1652.98
1543.87
1339.31
1512.48
1289.03
1266.6
1205.12
1225.91
1238.88
1173.35
1161.82
1136.6
5866.31
5881.88
2978.81
2692.24
1710.36
1661.16
1990.37
1422.69
1364.39
1316.4
1225.91
1216.15
1207.01
1157.79
1152.94
1149.43
1138.2
1135.98
1131.89
1131.42
1133.57
1132.39
4725.32
3159.63
2225.93
1844.88
1490.58
1777.66
1734.8
1406.84
1614.34
1577.78
1351.5
1483.49
1301.95
1235.75
1295.99
1181.06
1195.44
1165.58
1143.33
1144.79
1140.82
1132.82
1134.19
1131.72
1131.38
1135.16
)
;
    }
    burner
    {
        type            calculated;
        value           nonuniform List<scalar> 
14
(
-123933
-120712
-121238
-125281
-121284
-120507
-127458
-122878
-120345
-122648
-126790
-122006
-120250
-125122
)
;
    }
}


// ************************************************************************* //
