/*--------------------------------*- C++ -*----------------------------------*\
  =========                 |
  \\      /  F ield         | OpenFOAM: The Open Source CFD Toolbox
   \\    /   O peration     | Website:  https://openfoam.org
    \\  /    A nd           | Version:  dev
     \\/     M anipulation  |
\*---------------------------------------------------------------------------*/
FoamFile
{
    version     2.0;
    format      ascii;
    class       volScalarField;
    location    "2500";
    object      rAU;
}
// * * * * * * * * * * * * * * * * * * * * * * * * * * * * * * * * * * * * * //

dimensions      [-1 3 1 0 0 0 0];

internalField   nonuniform List<scalar> 
9844
(
0.00821817
0.00828489
0.00824058
0.00827108
0.00839785
0.00817745
0.00824491
0.00839176
0.00840219
0.00812473
0.00821971
0.0083908
0.00838672
0.00841393
0.00807482
0.00820206
0.00839444
0.00837898
0.00839647
0.00842312
0.00802876
0.0081882
0.00840313
0.0083794
0.00838134
0.0084108
0.00842777
0.00798693
0.00817397
0.00841358
0.00838507
0.00837272
0.00839453
0.00842113
0.00842991
0.00794832
0.00815745
0.0084224
0.00839598
0.00836902
0.00837993
0.00841021
0.00842665
0.00843124
0.00791284
0.00814226
0.00842663
0.00840879
0.00837152
0.00836949
0.00839578
0.00842055
0.00842963
0.00843223
0.00788005
0.00812882
0.00842886
0.00841817
0.00837941
0.00836334
0.00838075
0.00841133
0.0084263
0.00843152
0.00843273
0.00784999
0.00811641
0.00843082
0.00842577
0.00839238
0.00836196
0.00836857
0.0083986
0.00842094
0.00842934
0.00843292
0.00843302
0.00782213
0.008104
0.00843242
0.00843007
0.00840558
0.0083661
0.00836103
0.00838375
0.00841318
0.0084264
0.00843162
0.00843386
0.0084332
0.00779648
0.00809158
0.00843351
0.00843271
0.00841554
0.00837562
0.00835662
0.00837058
0.00840203
0.00842219
0.0084298
0.00843325
0.00843456
0.00843326
0.00777307
0.00807951
0.00843399
0.00843448
0.00842287
0.00838891
0.00835669
0.00836042
0.00838838
0.00841566
0.00842713
0.00843214
0.00843448
0.00843505
0.00843326
0.00775156
0.00806763
0.00843429
0.00843545
0.00842833
0.00840329
0.0083613
0.00835464
0.00837424
0.00840633
0.00842359
0.00843013
0.00843375
0.00843547
0.00843547
0.00843342
0.00773207
0.00805548
0.00843438
0.00843603
0.00843117
0.00841343
0.00837124
0.00835073
0.00836261
0.00839405
0.00841867
0.00842821
0.00843239
0.00843506
0.00843605
0.00843575
0.00843334
0.00771448
0.00804327
0.00843332
0.00843663
0.0084338
0.00842172
0.00838499
0.0083514
0.00835343
0.00837989
0.00841099
0.00842578
0.00843088
0.00843406
0.00843613
0.00843657
0.00843608
0.00843336
0.00769886
0.00803172
0.00843096
0.00843699
0.00843463
0.00842674
0.00839946
0.00835642
0.00834842
0.00836565
0.00839968
0.00842194
0.00842971
0.00843288
0.00843538
0.008437
0.00843709
0.00843634
0.00843333
0.00768526
0.00802213
0.00842891
0.00843791
0.0084363
0.0084307
0.00841008
0.00836653
0.00834525
0.00835518
0.00838591
0.00841532
0.0084282
0.00843234
0.00843452
0.00843631
0.00843764
0.00843751
0.00843665
0.00843326
0.00767367
0.00801469
0.00842766
0.00843855
0.00843744
0.00843241
0.0084187
0.00838036
0.00834639
0.00834727
0.00837175
0.00840522
0.00842466
0.00843195
0.00843425
0.00843568
0.00843717
0.00843815
0.00843788
0.00843684
0.00843318
0.00766431
0.00800941
0.00842788
0.00843871
0.00843821
0.00843421
0.00842517
0.00839456
0.00835135
0.00834317
0.00835878
0.00839275
0.00841889
0.00843018
0.00843423
0.00843583
0.00843656
0.00843784
0.00843859
0.00843825
0.00843697
0.00843302
0.0076248
0.00800401
0.00842912
0.00843916
0.00843835
0.00843625
0.00842946
0.00840674
0.00836087
0.00834022
0.00834943
0.0083793
0.00841043
0.00842716
0.00843342
0.00843602
0.00843697
0.00843741
0.00843829
0.00843902
0.00843853
0.00843698
0.00839495
0.00751701
0.00799747
0.00842937
0.0084398
0.00843926
0.00843774
0.00843201
0.00841555
0.00837432
0.00834117
0.00834219
0.00836578
0.00839992
0.00842223
0.00843171
0.00843565
0.00843744
0.00843782
0.00843803
0.00843878
0.00843937
0.0084387
0.00843716
0.00826031
0.00765026
0.00799089
0.00842698
0.00844017
0.00843964
0.00843853
0.00843448
0.00842211
0.00838907
0.00834556
0.00833836
0.00835347
0.00838761
0.00841557
0.0084291
0.00843447
0.00843742
0.00843863
0.00843859
0.00843845
0.00843911
0.00843968
0.00843881
0.00842292
0.00843272
0.00765191
0.00798505
0.00842322
0.00844035
0.00844026
0.00843941
0.00843601
0.00842681
0.00840207
0.00835452
0.00833555
0.00834472
0.00837442
0.00840659
0.00842561
0.00843303
0.00843645
0.00843868
0.00843957
0.00843926
0.00843887
0.0084395
0.00843986
0.00843902
0.00843726
0.00843282
0.00765704
0.00798234
0.00842018
0.00844042
0.00844071
0.00843983
0.0084372
0.00843036
0.00841091
0.00836647
0.00833613
0.00833809
0.00836129
0.00839599
0.00842018
0.00843117
0.00843534
0.00843794
0.00843952
0.00844035
0.00843971
0.00843929
0.00843966
0.0084401
0.00843918
0.00843743
0.0084328
0.00766571
0.00798421
0.00841878
0.00844072
0.00844105
0.00843982
0.00843807
0.0084332
0.00841783
0.0083796
0.0083393
0.00833478
0.00835024
0.00838377
0.00841287
0.00842862
0.00843457
0.00843703
0.00843906
0.00844056
0.00844103
0.00844015
0.00843955
0.00843986
0.00844029
0.00843941
0.00843737
0.00843264
0.00767854
0.00798706
0.00841963
0.00844055
0.00844097
0.0084405
0.00843885
0.00843524
0.00842355
0.00839207
0.00834515
0.00833192
0.00834213
0.00837204
0.00840372
0.00842442
0.00843332
0.00843662
0.00843843
0.00843967
0.00844122
0.00844139
0.00844047
0.0084396
0.00844002
0.00844059
0.00843932
0.00843716
0.00843241
0.00769604
0.00798746
0.00842117
0.00844077
0.00844136
0.00844047
0.00843913
0.00843677
0.00842773
0.00840312
0.00835506
0.00833
0.00833571
0.00836066
0.00839428
0.0084188
0.00843134
0.00843613
0.00843825
0.00843943
0.00844071
0.00844188
0.00844197
0.00844063
0.00843977
0.00844031
0.00844051
0.00843906
0.0084368
0.00843211
0.00771886
0.00798718
0.00842045
0.00844064
0.00844121
0.00844089
0.00844013
0.00843729
0.00843083
0.00841097
0.00836623
0.0083315
0.0083295
0.00834939
0.00838365
0.00841242
0.00842829
0.00843518
0.00843804
0.00843947
0.00844014
0.0084414
0.00844235
0.00844221
0.00844067
0.00843993
0.00844027
0.00844025
0.00843868
0.00843618
0.00843166
0.00774811
0.0079876
0.00841792
0.00844089
0.00844128
0.00844132
0.00844039
0.00843783
0.00843351
0.00841709
0.00837819
0.00833523
0.00832673
0.00833931
0.00837138
0.00840427
0.00842495
0.00843377
0.00843754
0.00843941
0.00844025
0.00844064
0.00844161
0.00844283
0.00844251
0.00844088
0.00843994
0.00844009
0.00843986
0.00843808
0.00843543
0.00843214
0.00778865
0.00798906
0.00841571
0.00844087
0.00844133
0.00844128
0.00844042
0.00843884
0.00843517
0.0084221
0.00838914
0.00834162
0.00832501
0.00833248
0.00835993
0.00839347
0.00841983
0.00843295
0.00843691
0.00843908
0.00844023
0.00844075
0.00844137
0.00844196
0.00844291
0.00844277
0.00844103
0.00843975
0.0084396
0.00843916
0.00843712
0.00843627
0.00844038
0.00784176
0.00798973
0.00841394
0.00844074
0.00844148
0.0084413
0.00844092
0.00843968
0.0084357
0.00842583
0.00839886
0.00835008
0.00832415
0.00808785
0.00834917
0.00838313
0.00841228
0.00843024
0.00843744
0.00843858
0.00844023
0.0084409
0.00844107
0.00844149
0.00844191
0.00844323
0.00844276
0.00844072
0.00843924
0.00843886
0.00843898
0.00843936
0.00844835
0.0084424
0.00721385
0.00827786
0.00799235
0.00841004
0.00844054
0.00844163
0.00844149
0.00844107
0.00843984
0.00843638
0.00842787
0.00840625
0.00835886
0.00832525
0.00798485
0.00834003
0.00837262
0.00840394
0.00842509
0.00843656
0.00844011
0.00844045
0.00844092
0.00844112
0.0084415
0.00844161
0.00844232
0.00844317
0.00844247
0.00844021
0.00843848
0.00843943
0.00844505
0.00843332
0.0084899
0.00828509
0.00828329
0.00727064
0.00828306
0.00799895
0.00840703
0.00843982
0.00844163
0.00844131
0.00844087
0.00844045
0.00843776
0.00842982
0.00841186
0.00836791
0.00832753
0.0082095
0.00833227
0.00836245
0.00839508
0.00841989
0.00843363
0.00844019
0.00844178
0.00844198
0.00844129
0.00844127
0.00844168
0.00844152
0.00844241
0.00844284
0.00844191
0.00843977
0.00844023
0.00845006
0.00843655
0.00837097
0.00825371
0.00828266
0.00839397
0.0082874
0.0082957
0.00829927
0.00734022
0.00830222
0.00800536
0.00840795
0.00843789
0.00844134
0.00844122
0.0084412
0.00844057
0.00843816
0.00843163
0.00841578
0.00837715
0.00833138
0.00831163
0.00832627
0.00835305
0.00838582
0.00841367
0.0084304
0.0084386
0.00844226
0.00844349
0.00844308
0.00844139
0.00844138
0.00844149
0.00844142
0.008442
0.00844215
0.0084419
0.0084437
0.0084545
0.00843783
0.00826209
0.00826575
0.00828338
0.00830457
0.00830374
0.00831147
0.00831403
0.00831761
0.00741264
0.00831872
0.00800932
0.00840992
0.00843696
0.0084416
0.00844138
0.00844136
0.00844046
0.00843853
0.00843308
0.00841897
0.00838565
0.00833675
0.00831587
0.0080599
0.0083437
0.00837684
0.00840634
0.00842665
0.00843664
0.00844128
0.00844334
0.00844435
0.00844352
0.00844128
0.00844112
0.00844092
0.00844073
0.00844122
0.00844239
0.00844839
0.00845888
0.00843896
0.00826712
0.00826795
0.00829463
0.00830246
0.00830943
0.00832242
0.00831906
0.00832809
0.00833013
0.00833305
0.0074892
0.00833231
0.00801093
0.0084087
0.00843667
0.00844139
0.00844116
0.00844088
0.00844058
0.00843926
0.00843437
0.00842166
0.00839301
0.00834328
0.00831489
0.00796864
0.00833522
0.00836764
0.0083987
0.00842191
0.00843478
0.00844056
0.00844273
0.00844408
0.00844498
0.00844397
0.00844136
0.00844098
0.00844013
0.00843976
0.00844133
0.00845044
0.0084628
0.00844022
0.00827053
0.00827297
0.00830725
0.00831125
0.00831715
0.00832297
0.00832486
0.00833749
0.00833388
0.00834227
0.00834404
0.00834652
0.00757163
0.00834351
0.00801395
0.00840428
0.00843608
0.00844144
0.00844161
0.00844138
0.00844133
0.0084398
0.008435
0.00842398
0.00839929
0.00835041
0.00831548
0.00821275
0.00832757
0.00835876
0.00839074
0.00841641
0.0084322
0.00843968
0.00844246
0.00844388
0.00844469
0.00844525
0.00844405
0.00844176
0.00844038
0.00843913
0.00843955
0.00844956
0.00846414
0.00844135
0.00827384
0.00827132
0.00831556
0.00831882
0.00832574
0.00832798
0.00833315
0.00833843
0.00833917
0.00835026
0.00834716
0.00835431
0.00835511
0.00835815
0.00765867
0.00835279
0.00802049
0.00840201
0.00843553
0.0084417
0.00844145
0.00844129
0.00844126
0.0084398
0.00843533
0.00842519
0.00840397
0.00835772
0.00831691
0.00830198
0.00803696
0.00835016
0.0083828
0.00841012
0.00842898
0.00843847
0.00844263
0.00844405
0.00844444
0.00844473
0.008445
0.00844417
0.00844204
0.00843904
0.00843834
0.00844619
0.00846227
0.00843921
0.00827006
0.00825647
0.00831726
0.0083052
0.00832818
0.00832224
0.00833932
0.00833581
0.00834614
0.00834958
0.00835117
0.00836135
0.00835821
0.00836441
0.00836347
0.00836737
0.00774999
0.00836082
0.00802648
0.00840348
0.00843554
0.00844151
0.00844159
0.00844163
0.00844128
0.00843939
0.00843578
0.00842633
0.00840781
0.0083653
0.00831973
0.00830595
0.00791439
0.00834131
0.00837485
0.00840379
0.00842479
0.00843679
0.00844221
0.00844436
0.00844504
0.00844468
0.00844431
0.00844426
0.00844403
0.00844107
0.00843739
0.00844193
0.00845653
0.00842992
0.00822972
0.00819685
0.00827754
0.00823215
0.00829586
0.00824797
0.00831861
0.00827517
0.00834197
0.00830929
0.00835411
0.00834607
0.00835875
0.00837055
0.00836499
0.00837099
0.00837012
0.00837433
0.00784351
0.00836744
0.00802714
0.00840296
0.00843672
0.00844126
0.0084418
0.00844174
0.00844137
0.00843989
0.00843638
0.00842703
0.00841064
0.0083731
0.0083242
0.00830329
0.00817164
0.00833253
0.00836667
0.00839698
0.0084204
0.00843458
0.00844143
0.00844449
0.00844535
0.00844528
0.0084447
0.00844377
0.00844311
0.00844304
0.00843949
0.00843774
0.00844991
0.00842028
0.00815513
0.00811227
0.00816827
0.0081242
0.00817604
0.00812282
0.00820656
0.00813852
0.00824978
0.00816882
0.008298
0.00822122
0.00834479
0.0082904
0.00834763
0.00837695
0.00835324
0.00836224
0.00837558
0.00837896
0.00793809
0.00837223
0.00801926
0.00839297
0.00843696
0.00844143
0.00844187
0.00844109
0.00844144
0.00844015
0.00843642
0.00842783
0.00841304
0.00838049
0.00833027
0.00830188
0.00829145
0.00832398
0.00835831
0.00838999
0.00841516
0.00843175
0.00844064
0.00844445
0.00844595
0.00844619
0.00844551
0.00844435
0.00844281
0.00844182
0.00844149
0.0084384
0.00844129
0.00841551
0.00809234
0.00807966
0.00808414
0.00803837
0.00806203
0.00799976
0.00806454
0.00798268
0.00808934
0.00799237
0.0081384
0.00803694
0.00819703
0.00810585
0.00828577
0.00819271
0.00828784
0.00837175
0.00829653
0.00831289
0.00837932
0.00837703
0.00803065
0.00837468
0.00802997
0.00837011
0.00843457
0.00844127
0.00844145
0.00844126
0.00844147
0.00844037
0.00843656
0.00842851
0.00841524
0.00838717
0.00833728
0.00830229
0.00829948
0.00814321
0.00834964
0.00838291
0.00840967
0.00842865
0.00843928
0.00844411
0.00844628
0.00844672
0.00844618
0.0084453
0.00844361
0.00844167
0.00844011
0.00844
0.00843799
0.00843027
0.00807449
0.00790906
0.00799955
0.00796537
0.00793185
0.00786014
0.00788544
0.00778637
0.00787823
0.00775007
0.00790656
0.00775468
0.00798001
0.00781554
0.00808168
0.0079258
0.00818713
0.00806643
0.00819068
0.00832964
0.00820413
0.00822665
0.00837949
0.00834703
0.00811703
0.00837356
0.00803637
0.00836646
0.00842995
0.00844134
0.00844149
0.00844093
0.00844115
0.00844062
0.00843685
0.00842917
0.00841698
0.00839286
0.00834505
0.00830395
0.00829595
0.00807418
0.00834088
0.0083754
0.00840385
0.00842478
0.00843747
0.00844383
0.00844639
0.00844743
0.008447
0.0084461
0.00844472
0.00844244
0.00843983
0.00843855
0.00843858
0.00842818
0.00822205
0.00787856
0.00768832
0.00779404
0.00773881
0.00768657
0.00759022
0.00761731
0.00749981
0.00760282
0.00746223
0.00763198
0.00746794
0.00772481
0.00752951
0.00788477
0.00765453
0.00805373
0.00785712
0.00805678
0.00824967
0.00807787
0.00811438
0.00836337
0.0082915
0.00816799
0.00836351
0.00807007
0.00834856
0.00842852
0.0084413
0.00844146
0.00844073
0.00844101
0.00844047
0.00843718
0.00842977
0.00841827
0.00839742
0.00835311
0.00830726
0.00829287
0.0082376
0.00833171
0.00836767
0.00839768
0.00842037
0.008435
0.00844284
0.00844651
0.00844766
0.0084478
0.00844676
0.00844574
0.00844358
0.00844058
0.00843831
0.00843781
0.00842968
0.00834561
0.0076054
0.00758304
0.00768277
0.00762378
0.00750892
0.00744796
0.00739631
0.00730854
0.00733869
0.00724453
0.00733387
0.00722576
0.00736056
0.0072356
0.00744463
0.00728609
0.00761396
0.00739198
0.00783945
0.007589
0.00784825
0.00816101
0.00788633
0.00794574
0.0083275
0.00821949
0.00817512
0.00833244
0.00816605
0.00835084
0.0084223
0.00844126
0.00844168
0.00844089
0.00844101
0.00844037
0.00843721
0.00843031
0.00841923
0.0084009
0.00836101
0.00831251
0.00829051
0.00829664
0.00832209
0.00835954
0.00839118
0.00841562
0.00843244
0.00844156
0.00844617
0.00844799
0.00844849
0.00844778
0.00844644
0.00844466
0.00844169
0.00843833
0.00843778
0.00843057
0.00835292
0.00757365
0.00755543
0.00729946
0.0072825
0.00738845
0.00733422
0.0072437
0.00720217
0.00716859
0.00710967
0.00714136
0.00708837
0.00715202
0.00709657
0.00717278
0.00711095
0.00723342
0.00714237
0.00737256
0.00721422
0.00757789
0.00735762
0.00759898
0.00801841
0.00765145
0.00772473
0.00826485
0.00810835
0.00812386
0.00828472
0.00824336
0.00839792
0.00841481
0.00844017
0.00844145
0.00844084
0.00844054
0.00844006
0.00843699
0.00843058
0.0084201
0.00840368
0.00836858
0.00831911
0.00829028
0.00829159
0.00801605
0.00835055
0.00838431
0.00841051
0.008429
0.00844016
0.00844545
0.00844795
0.00844887
0.00844869
0.00844747
0.0084457
0.00844292
0.00843901
0.0084382
0.00843249
0.00838093
0.00715086
0.00699099
0.0072666
0.00724733
0.00710154
0.00709858
0.00716017
0.00712208
0.00707369
0.00705706
0.00705083
0.00702662
0.00706359
0.00705953
0.00709347
0.00710429
0.00710541
0.00712482
0.00713206
0.00712962
0.00721715
0.00714688
0.00735917
0.00721363
0.00739028
0.00782336
0.00744532
0.00751408
0.00819315
0.00795278
0.00799536
0.00823727
0.00823601
0.00839376
0.00840515
0.00843404
0.0084403
0.00844074
0.00844027
0.00843994
0.00843639
0.00843044
0.00842111
0.0084059
0.00837556
0.00832709
0.00829203
0.00828855
0.00788417
0.00834203
0.00837759
0.00840526
0.00842556
0.0084384
0.00844518
0.00844827
0.00844952
0.00844939
0.00844862
0.00844685
0.0084442
0.00844027
0.00843839
0.0083745
0.00838314
0.00805734
0.00714495
0.0069875
0.00708708
0.00707053
0.00700551
0.00700806
0.00703499
0.00701267
0.00702244
0.007026
0.00706482
0.00707625
0.00712852
0.0071673
0.0071783
0.00724247
0.00717897
0.00726694
0.00716146
0.00724679
0.00716813
0.00720389
0.00722486
0.00717165
0.00725995
0.00761867
0.00730256
0.00735628
0.00808492
0.00776434
0.00807929
0.00819693
0.00832194
0.00837973
0.00842187
0.00843651
0.00844003
0.00844019
0.00843966
0.0084362
0.00843052
0.00842193
0.00840804
0.00838201
0.00833602
0.0082957
0.0082871
0.00812632
0.00833401
0.00837108
0.00840059
0.00842241
0.00843684
0.0084449
0.00844903
0.00845081
0.00845102
0.00844964
0.00844821
0.00844562
0.00844197
0.00843936
0.00837317
0.0080377
0.00825277
0.00716886
0.00717921
0.00706074
0.00706022
0.00699999
0.00697828
0.00701367
0.00701491
0.00701934
0.00701032
0.00710082
0.0071157
0.00720194
0.00723385
0.00730262
0.00736032
0.00736635
0.00745292
0.00736032
0.00748349
0.00730849
0.00745401
0.00723246
0.00736804
0.00718685
0.00723804
0.007214
0.00744624
0.00723466
0.00726313
0.00793551
0.00758039
0.00810362
0.00811793
0.00830843
0.00839486
0.00842707
0.00843628
0.00843974
0.00843947
0.00843626
0.00843062
0.00842233
0.00840956
0.00838721
0.00834485
0.00830103
0.00828567
0.00825438
0.0083253
0.00836432
0.00839562
0.00841905
0.0084352
0.00844451
0.00844942
0.00845173
0.00845273
0.00845167
0.00844964
0.00844721
0.0084438
0.00844132
0.00843661
0.00784648
0.0082948
0.00694416
0.00679226
0.0069711
0.0069873
0.00696238
0.00696547
0.00700237
0.00698073
0.0071155
0.00697162
0.00711622
0.00711568
0.00727156
0.00728726
0.0074009
0.0074277
0.00750889
0.00753978
0.00758052
0.00762658
0.00759286
0.00768027
0.0075373
0.00769207
0.00739629
0.00760288
0.00725124
0.00719397
0.00707306
0.00720142
0.00695126
0.00695413
0.00776283
0.00718925
0.0078545
0.00800846
0.00827678
0.00840664
0.00842663
0.00843359
0.00843897
0.00843624
0.00843055
0.00842253
0.00841022
0.00839101
0.00835264
0.00830694
0.00828496
0.00828962
0.00796962
0.00835578
0.00838953
0.00841447
0.00843228
0.00844294
0.00844841
0.00845129
0.00845259
0.00845317
0.00845169
0.00844932
0.00844576
0.0084438
0.00844459
0.00795957
0.00829982
0.00774899
0.00682893
0.0064706
0.0069583
0.00695854
0.00696387
0.00695859
0.00699576
0.00707197
0.00728942
0.00713136
0.0072879
0.0072906
0.00745544
0.00746061
0.00754556
0.00753969
0.00762527
0.0075926
0.00770038
0.00765565
0.00775932
0.00773787
0.0077716
0.00756338
0.00741725
0.00760957
0.007104
0.00536177
0.0053462
0.00503731
0.00497721
0.0051235
0.00488309
0.00500827
0.00494894
0.00500171
0.00492101
0.00484313
0.00489982
0.00743301
0.00489111
0.00499579
0.00532262
0.00718901
0.00787056
0.00827236
0.00841466
0.00842172
0.00843391
0.00843558
0.00843004
0.00842242
0.00841052
0.00839339
0.0083596
0.00831343
0.00828524
0.00828536
0.00783747
0.00834604
0.008382
0.008409
0.00842825
0.0084407
0.00844688
0.00845
0.00845163
0.00845256
0.00845322
0.00845157
0.00844847
0.00844651
0.00844725
0.00813965
0.0078547
0.0075458
0.00707107
0.00689615
0.00695922
0.00695438
0.00701112
0.00698826
0.00705077
0.00703006
0.00710904
0.00721938
0.00746597
0.00745413
0.00745552
0.0074585
0.00753752
0.00752437
0.00754303
0.00749449
0.00739063
0.00723959
0.0076403
0.00752034
0.00748799
0.00735061
0.00751506
0.00575778
0.00552693
0.00558445
0.00575628
0.0058609
0.00586715
0.00546011
0.00515526
0.00539215
0.00554538
0.00501651
0.00468974
0.00492531
0.00498623
0.0048756
0.00471931
0.00482004
0.00504417
0.00608385
0.00547393
0.00469605
0.00473474
0.00687971
0.00587592
0.00658997
0.00710583
0.00841989
0.00841125
0.00842222
0.00843516
0.00842954
0.00842183
0.00841062
0.00839513
0.00836598
0.00832083
0.00828703
0.00828269
0.00816279
0.00833619
0.00837431
0.0084032
0.00842405
0.00843805
0.00844604
0.00844962
0.00845153
0.00845231
0.00845316
0.00845325
0.008451
0.00844925
0.00844566
0.00838413
0.00765405
0.00719789
0.0079278
0.00691928
0.00676515
0.00696473
0.00694155
0.00711039
0.00706837
0.00718359
0.00714743
0.00738349
0.00739364
0.0075235
0.00752593
0.00751016
0.00751326
0.00746102
0.00742751
0.00734194
0.00737308
0.00741553
0.00736834
0.00722689
0.00714881
0.00539946
0.00528161
0.00519619
0.00514146
0.00577985
0.00564092
0.00565859
0.00543489
0.00575799
0.00590324
0.00584178
0.00592498
0.00556317
0.00524309
0.00553062
0.00577723
0.00521628
0.00469766
0.00515488
0.00508547
0.00500888
0.00478896
0.00494396
0.0048885
0.00525489
0.00468852
0.0047141
0.00687198
0.00423708
0.00646218
0.00568867
0.00621529
0.00840775
0.00840533
0.00842898
0.00842956
0.00842155
0.0084105
0.00839629
0.00837149
0.00832894
0.00829104
0.00828144
0.00829013
0.00796015
0.00836624
0.00839738
0.00841976
0.00843546
0.0084449
0.00844982
0.00845214
0.00845318
0.00845334
0.00845351
0.00845263
0.00845194
0.00844265
0.00841497
0.00808833
0.00747609
0.00818051
0.00696432
0.00679391
0.00693614
0.00689185
0.0070214
0.0069773
0.00724829
0.00717902
0.00735277
0.00730606
0.00752489
0.0075208
0.0074179
0.00743743
0.00740593
0.00740808
0.00735504
0.00733169
0.0073622
0.00736029
0.00710146
0.00708205
0.00509456
0.00507194
0.00504849
0.00503672
0.00531207
0.00520993
0.00516181
0.0051317
0.00570334
0.00555068
0.00547993
0.00536561
0.00592948
0.00598001
0.00577447
0.00591051
0.00579592
0.00548063
0.0057648
0.00596354
0.00544246
0.00474265
0.00536509
0.00527932
0.00518306
0.00488759
0.00510546
0.004915
0.00517133
0.00471526
0.00474463
0.00667095
0.00472223
0.00651749
0.00554419
0.00618872
0.00837923
0.00840151
0.00843022
0.00842166
0.00841045
0.00839694
0.0083759
0.0083369
0.00829669
0.00828151
0.00828825
0.00776205
0.00835823
0.00839124
0.00841565
0.0084324
0.00844342
0.00844925
0.00845217
0.00845353
0.0084539
0.00845354
0.00845328
0.00845092
0.00844115
0.00840678
0.00831741
0.00799744
0.00816216
0.00787624
0.00683649
0.00668145
0.00698486
0.00691052
0.00711197
0.00705057
0.00739894
0.00731281
0.00749484
0.00746602
0.00747528
0.00752314
0.00729849
0.0073037
0.00731452
0.00730752
0.00735483
0.00733936
0.00742868
0.00744393
0.00502198
0.00502825
0.00498965
0.00513952
0.0051218
0.00512217
0.00512858
0.00513012
0.00527122
0.00520695
0.00518867
0.00518854
0.00563433
0.0054227
0.00550392
0.00533811
0.00602495
0.00598135
0.00571373
0.00585483
0.00599416
0.0057246
0.00597232
0.00608405
0.00568432
0.00482115
0.00559964
0.00550157
0.00539548
0.00501363
0.00529534
0.00486645
0.00499936
0.00478074
0.00477265
0.0067
0.00274579
0.00657023
0.00540362
0.00596285
0.00834975
0.00839992
0.00842244
0.0084107
0.00839715
0.00837911
0.00834419
0.00830322
0.00828248
0.0082857
0.00804471
0.0083497
0.00838484
0.00841079
0.0084295
0.00844123
0.00844821
0.00845135
0.00845289
0.00845353
0.00845376
0.00845406
0.00844704
0.00843777
0.00840096
0.00831268
0.00820887
0.00815419
0.00812307
0.00683547
0.00671895
0.00686596
0.00678964
0.00705212
0.00695543
0.00723225
0.00714741
0.00752395
0.00744522
0.00754992
0.00756419
0.007341
0.00741006
0.00725053
0.00723056
0.00731871
0.007287
0.00743786
0.00742084
0.0071311
0.00720633
0.00513249
0.00514802
0.00514934
0.00541977
0.00519847
0.00521367
0.00522564
0.00522811
0.00527798
0.00524596
0.00525603
0.00527649
0.00559532
0.00540436
0.00549453
0.00535451
0.00604927
0.00594094
0.00568489
0.00580388
0.00613076
0.00595118
0.00613043
0.00613819
0.00591682
0.00493271
0.00583617
0.00573543
0.00563399
0.00517378
0.00550533
0.00478776
0.00485322
0.00487665
0.0048285
0.00670017
0.00246956
0.00610528
0.00505168
0.00579074
0.00832234
0.00839338
0.00841127
0.00839748
0.00838107
0.00835053
0.00831022
0.00828478
0.00828424
0.00824202
0.00795702
0.00837789
0.00840573
0.00842585
0.00843924
0.0084467
0.00845054
0.00845195
0.0084525
0.00845331
0.0084554
0.00838164
0.00843061
0.00839396
0.00830828
0.0082072
0.00815141
0.0081012
0.00784648
0.00678811
0.00669336
0.00692527
0.00684629
0.00713096
0.0070221
0.00735675
0.00724831
0.00757877
0.0075424
0.0074933
0.00755962
0.00724603
0.00729503
0.00725671
0.00720858
0.00738536
0.00732354
0.00720733
0.00751403
0.00509883
0.00511032
0.00515923
0.00516827
0.00522779
0.00523895
0.00523619
0.00522522
0.00529894
0.00531913
0.00533076
0.00532923
0.00532636
0.00532272
0.00535373
0.00538636
0.0055947
0.00542752
0.00552483
0.00541111
0.00602935
0.00589794
0.00568964
0.00577887
0.00620013
0.00614206
0.00623693
0.00613969
0.00611482
0.00508646
0.00605216
0.00596766
0.00587316
0.00537724
0.00573972
0.00480333
0.00475874
0.00500633
0.00494543
0.00669832
0.00369167
0.0060433
0.004671
0.00587481
0.00829571
0.00838952
0.00839778
0.00838235
0.00835554
0.00831747
0.00828857
0.00828445
0.00829765
0.00768524
0.00837098
0.00840052
0.00842224
0.00843708
0.00844572
0.00844997
0.00845152
0.00845176
0.00845246
0.00845646
0.00811009
0.00833841
0.0083813
0.00829661
0.00820285
0.00815061
0.00808485
0.00806196
0.00687141
0.00680681
0.00689612
0.00685455
0.00700802
0.00694239
0.00721354
0.0071007
0.00745925
0.00734109
0.00756631
0.0074296
0.00737794
0.00748174
0.00719697
0.00722125
0.00728115
0.0072082
0.00744979
0.0073585
0.00515866
0.00544124
0.00726626
0.00530748
0.00531305
0.00528873
0.00530356
0.00532368
0.00532812
0.0053189
0.00530292
0.00541386
0.00543367
0.0054413
0.00543353
0.00541053
0.00542868
0.00547325
0.00551133
0.00562994
0.00549045
0.00559372
0.0055031
0.00600177
0.00588031
0.00573074
0.00579071
0.0062213
0.00627923
0.00629605
0.0061269
0.00627212
0.00526677
0.00623674
0.00617767
0.00610267
0.00560256
0.00597658
0.00490512
0.0043118
0.00516729
0.00509412
0.00648488
0.00388886
0.00627518
0.00493501
0.00601176
0.00827153
0.00838336
0.00838297
0.00835937
0.00832417
0.00829364
0.00828599
0.00829507
0.00791194
0.00836446
0.00839564
0.00841867
0.00843519
0.00844523
0.00845002
0.00845163
0.00845164
0.00845217
0.00845678
0.00783401
0.00816914
0.00835688
0.00827555
0.00818785
0.00814586
0.00807301
0.00802887
0.00789291
0.00700997
0.00695777
0.00705159
0.00703314
0.00711099
0.00707129
0.00729263
0.0071874
0.00731113
0.00735328
0.00750974
0.007189
0.00728899
0.00739779
0.00717008
0.00718323
0.00735594
0.00727143
0.00719073
0.00739941
0.00526652
0.00556691
0.00516762
0.00510764
0.00537907
0.00537515
0.00533284
0.00535321
0.00542132
0.00541757
0.00540152
0.00537935
0.00553925
0.00555608
0.00555775
0.0055428
0.00552447
0.00555773
0.00561089
0.00565072
0.00570145
0.00559007
0.00569871
0.00562597
0.00599482
0.00589454
0.00580882
0.00583913
0.00622183
0.00636678
0.00632791
0.0061285
0.00638745
0.00547034
0.00638458
0.00636511
0.00630323
0.00583522
0.00619892
0.0046584
0.00495777
0.00535678
0.00525735
0.00652544
0.00489928
0.00660092
0.0050637
0.00588337
0.00824336
0.0083682
0.00836182
0.00832999
0.00829871
0.00828824
0.00829365
0.00818718
0.00796022
0.00839036
0.00841485
0.00843271
0.00844451
0.00845012
0.00845172
0.00845147
0.00845187
0.00845639
0.00780191
0.00808864
0.00832031
0.00824614
0.00816168
0.00813126
0.00806265
0.0080034
0.00806119
0.0072278
0.00717505
0.00728713
0.0072841
0.0072603
0.00728395
0.00722999
0.00723013
0.00732222
0.00728184
0.00684131
0.00707198
0.00744581
0.00752833
0.00724008
0.00733519
0.00719459
0.00718173
0.00730945
0.0074746
0.00513435
0.00562153
0.00748838
0.005306
0.00528547
0.00524591
0.00520735
0.00522362
0.00528049
0.00537619
0.00533899
0.00545472
0.00536047
0.00527555
0.00520745
0.00567665
0.00568944
0.00565038
0.00545734
0.00566322
0.00570629
0.00576477
0.00580559
0.00580794
0.00572425
0.005838
0.00577667
0.00602658
0.00595067
0.0059248
0.00592425
0.00623006
0.006418
0.00635918
0.00615456
0.00647202
0.0056925
0.00650856
0.0065219
0.00647584
0.00606416
0.00639302
0.00515707
0.00484584
0.00555288
0.00541887
0.00598428
0.00482468
0.00617074
0.00513959
0.00542542
0.00820378
0.00834694
0.00833431
0.00830368
0.0082902
0.00829304
0.00831486
0.00759274
0.00838405
0.00840978
0.00842923
0.00844233
0.00844941
0.00845124
0.00845067
0.0084508
0.00845467
0.00786651
0.00813303
0.00827633
0.00820402
0.00812891
0.00810965
0.00805056
0.00798412
0.00803086
0.00804026
0.00754856
0.00746134
0.0074758
0.00750793
0.00744861
0.00745645
0.00736036
0.0074082
0.00730979
0.00738012
0.00732092
0.0071589
0.00739499
0.00749509
0.0072133
0.00729033
0.00737715
0.00729542
0.00471383
0.00493601
0.00755296
0.00522091
0.00577716
0.00561858
0.00568566
0.00534098
0.005308
0.00527573
0.00536656
0.00492102
0.0050298
0.00518946
0.00507778
0.00528285
0.00517068
0.00506875
0.004917
0.00583022
0.00574524
0.00553116
0.0053164
0.00582474
0.00587672
0.00593901
0.00597869
0.00595394
0.00589285
0.00601358
0.00595506
0.00609302
0.00604402
0.00608536
0.00604728
0.00626904
0.00645922
0.00640814
0.00621778
0.00654354
0.00590885
0.00661484
0.00664507
0.00662173
0.00626805
0.00655792
0.00501544
0.00490538
0.00574536
0.0055605
0.00517052
0.00474107
0.00595729
0.00504089
0.00493216
0.00815848
0.00832021
0.00830769
0.0082928
0.00829311
0.00831035
0.00777255
0.00797005
0.00840411
0.00842474
0.00843946
0.00844789
0.00845058
0.00844989
0.00844954
0.0084496
0.00791222
0.00823318
0.00823171
0.00813985
0.00808975
0.00808343
0.00803943
0.00796823
0.00800245
0.008111
0.00744479
0.00748773
0.0075506
0.00747502
0.00749647
0.00751493
0.00753059
0.00749591
0.00749436
0.00754487
0.00749121
0.00747671
0.00755156
0.00753079
0.00737274
0.00746634
0.00724783
0.00728455
0.00726297
0.00747025
0.00571797
0.00612551
0.00553921
0.00540109
0.00514884
0.00526651
0.0058055
0.00586142
0.00532752
0.00533703
0.00510751
0.00470471
0.00450561
0.00478802
0.00493418
0.00483068
0.00512149
0.00499194
0.00487155
0.0045131
0.00589162
0.00565201
0.00541466
0.00517901
0.00601158
0.00607302
0.00613594
0.00609396
0.00614764
0.00609239
0.0062317
0.00616202
0.00619621
0.00618232
0.00629406
0.0062194
0.0063503
0.00651488
0.006487
0.00632532
0.00661524
0.00611366
0.00670621
0.00674727
0.00675375
0.00645503
0.00672558
0.00505256
0.00510989
0.00592103
0.00566953
0.00499171
0.00546306
0.00692801
0.00492516
0.00485546
0.00810845
0.00829121
0.00829525
0.00829447
0.00830783
0.00814587
0.0076884
0.00829054
0.0084203
0.00843644
0.00844654
0.00845023
0.00844987
0.00844904
0.00844693
0.00795454
0.00829004
0.00817785
0.00807546
0.00802966