/*--------------------------------*- C++ -*----------------------------------*\
  =========                 |
  \\      /  F ield         | OpenFOAM: The Open Source CFD Toolbox
   \\    /   O peration     | Website:  https://openfoam.org
    \\  /    A nd           | Version:  dev
     \\/     M anipulation  |
\*---------------------------------------------------------------------------*/
FoamFile
{
    version     2.0;
    format      ascii;
    class       volScalarField;
    location    "2500";
    object      rDeltaT;
}
// * * * * * * * * * * * * * * * * * * * * * * * * * * * * * * * * * * * * * //

dimensions      [0 0 -1 0 0 0 0];

internalField   nonuniform List<scalar> 
9844
(
100
100
100
100
100
100
100
100
100
100
100
100
100
100
100
100
100
100
100
100
100
100
100
100
100
100
100
100
100
100
100
100
100
100
100
100
100
100
100
100
100
100
100
100
100
100
100
100
100
100
100
100
100
100
100
100
100
100
100
100
100
100
100
100
100
100
100
100
100
100
100
100
100
100
100
100
100
100
100
100
100
100
100
100
100
100
100
100
100
100
100
100
100
100
100
100
100
100
100
100
100
100
100
100
100
100
100
100
100
100
100
100
100
100
100
100
100
100
100
100
100
100
100
100
100
100
100
100
100
100
100
100
100
100
100
100
100
100
100
100
100
100
100
100
100
100
100
100
100
100
100
100
100
100
100
100
100
100
100
100
100
100
100
100
100
100
100
100
100
100
100
100
100
100
100
100
100
100
100
100
100
100
100
100
100
100
100
100
100
100
100
100
100
100
100
100
100
100
100
100
100
100
100
100
100
100
100
100
100
100
100
100
100
100
100
100
100
100
100
100
100
100
100
100
100
100
100
100
100
100
100
100
100
100
100
100
100
100
100
100
100
100
100
100
100
100
100
100
100
100
100
100
100
100
100
100
100
100
100
100
100
100
100
100
100
100
100
100
100
100
100
100
100
100
100
100
100
100
100
100
100
100
100
100
100
100
100
100
100
100
100
100
100
100
100
100
100
100
100
100
100
100
100
100
100
100
100
100
100
100
100
100
100
100
100
100
100
100
100
100
100
100
100
100
100
100
100
100
100
100
100
100
100
100
100
100
100
100
100
100
100
100
100
100
100
100
100
100
100
100
100
100
100
100
100
100
100
100
100
100
100
100
100
100
100
100
100
100
100
100
100
100
100
100
100
100
100
100
100
100
100
100
100
100
100
100
100
100
100
100
100
100
100
100
100
100
100
100
100
100
100
100
100
100
100
100
100
100
100
100
100
100
100
100
100
100
100
100
100
100
100
100
100
100
100
100
100
100
100
100
100
100
100
100
100
100
100
100
100
100
100
100
100
100
100
100
100
100
100
100
100
100
100
100
100
100
100
100
100
100
100
100
100
100
100
100
100
100
100
100
100
100
100
100
100
100
100
100
100
100
100
100
100
100
100
100
100
100
100
100
100
100
100
100
100
100
100
100
100
100
100
100
100
100
100
100
100
100
100
100
100
100
100
100
100
100
100
100
100
100
100
100
100
100
100
100
100
100
100
100
100
100
100
100
100
100
100
100
100
100
100
100
100
100
100
100
100
100
100
100
100
100
100
100
100
100
100
100
100
100
100
100
100
100
100
100
100
100
100
100
100
100
100
100
100
100
100
100
100
100
100
100
100
100
100
100
100
100
100
100
100
100
100
100
100
100
100
100
100
100
100
100
100
100
100
100
100
100
100
100
100
100
100
100
100
100
100
100
100
100
100
100
100
100
100
100
100
100
100
100
100
100
100
100
100
100
100
100
100
100
100
100
100
100
100
100
100
100
100
100
100
100
100
100
100
100
100
100
100
100
100
100
100
100
100
100
100
100
100
100
100
100
100
100
100
100
100
100
100
100
100
100
100
100
100
100
100
100
100
100
100
100
100
100
100
100
100
100
100
100
100
100
100
100
100
100
100
100
100
100
100
100
100
100
100
100
100
100
100
100
100
100
100
100
100
100
100
100
100
100
100
100
100
100
100
100
100
100
100
100
100
100
100
100
100
100
100
100
100
100
100
100
100
100
100
100
100
100
100
100
100
100
100
100
100
100
100
100
100
100
100
100
100
100
100
100
100
100
100
100
100
100
100
100
100
100
100
100
100
100
100
100
100
100
100
100
100
100
100
100
100
100
100
100
100
100
100
100
100
100
100
100
100
100
100
100
100
100
100
100
100
100
100
100
100
100
100
100
100
100
100
100
100
100
100
100
100
100
100
100
100
100
100
100
100
100
100
100
100
100
100
100
100
100
100
100
100
100
100
100
100
100
100
100
100
100
100
100
100
100
100
100
100
100
100
100
100
100
100
100
100
100
100
100
100
100
100
100
100
100
100
100
100
100
100
100
100
100
100
100
100
100
100
100
100
100
100
100
100
100
100
100
100
100
100
100
100
100
100
100
100
100
100
100
100
100
100
100
100
100
100
100
100
100
100
100
100
100
100
100
100
100
100
100
100
100
100
100
100
100
100
100
100
100
100
100
100
100
100
100
100
100
100
100
100
100
100
100
100
100
100
100
100
100
100
100
100
100
100
100
100
100
100
100
100
100
100
100
100
100
100
100
100
100
100
100
100
100
100
100
100
100
100
100
100
100
100
100
100
100
100
100
100
100
100
100
100
100
100
100
100
100
100
100
100
100
100
100
100
100
100
100
100
100
100
100
100
100
100
100
100
100
100
100
100
100
100
100
100
100
100
100
100
100
100
100
100
100
100
100
100
100
100
100
100
100
100
100
100
100
100
100
100
100
100
100
100
100
100
100
100
100
100
100
100
100
100
100
100
100
100
100
100
100
100
100
100
100
100
100
100
100
100
100
100
100
100
100
100
100
100
100
100
100
100
100
100
100
100
100
100
100
100
100
100
100
100
100
100
100
100
100
100
100
100
100
100
100
100
100
100
100
100
100
100
100
100
100
100
100
100
100
100
100
100
100
100
100
100
100
100
100
100
100
100
100
100
100
100
100
100
100
100
100
100
100
100
100
100
100
100
100
100
100
100
100
100
100
100
100
100
100
100
100
100
100
100
100
100
100
100
100
100
100
100
100
100
100
100
100
100
100
100
100
100
100
100
100
100
100
100
100
100
100
100
100
100
100
100
100
100
100
100
100
100
100
100
100
100
100
100
100
100
100
100
100
100
100
100
100
100
100
100
100
100
100
100
100
100
100
100
100
100
100
100
100
100
100
100
100
100
100
100
100
100
100
100
100
100
100
100
100
100
100
100
100
100
100
100
100
100
100
100
100
100
100
100
100
100
100
100
100
100
100
100
100
100
100
100
100
100
100
100
100
100
100
100
100
100
100
100
100
100
100
100
100
100
100
100
100
100
100
100
100
100
100
100
100
100
100
100
100
100
100
100
100
100
100
100
100
100
100
100
100
100
100
100
100
100
100
100
100
100
100
100
100
100
100
100
100
100
100
100
100
100
100
100
100
100
100
100
100
100
100
100
100
100
100
100
100
100
100
100
100
100
100
100
100
100
100
100
100
100
100
100
100
100
100
100
100
100
100
100
100
100
100
100
100
100
100
100
100
100
100
100
100
100
100
100
100
100
100
100
100
100
100
100
100
100
100
100
100
100
100
100
100
100
100
100
100
100
100
100
100
100
100
100
100
100
100
100
100
100
100
100
100
100
100
100
100
100
100
100
100
100
100
100
100
100
100
100
100
100
100
100
100
100
100
100
100
100
100
100
100
100
100
100
100
100
100
100
100
100
100
100
100
100
100
100
100
100
100
100
100
100
100
100
100
100
100
100
100
100
100
100
100
100
100
100
100
100
100
100
100
100
100
100
100
100
100
100
100
100
100
100
100
100
100
100
100
100
100
100
100
100
100
100
100
100
100
100
100
100
100
100
100
100
100
100
100
100
100
100
100
100
100
100
100
100
100
100
100
100
100
100
100
100
100
100
100
100
100
100
100
100
100
100
100
100
100
100
100
100
100
100
100
100
100
100
100
100
100
100
100
100
100
100
100
100
100
100
100
100
100
100
100
100
100
100
100
100
100
100
100
100
100
100
100
100
100
100
100
100
100
100
100
100
100
100
100
100
100
100
100
100
100
100
100
100
100
100
100
100
100
100
100
100
100
100
100
100
100
100
100
100
100
100
100
100
100
100
100
100
100
100
100
100
100
100
100
100
100
100
100
100
100
100
100
100
100
100
100
100
100
100
100
100
100
100
100
100
100
100
100
100
100
100
100
100
100
100
100
100
100
100
100
100
100
100
100
100
100
100
100
100
100
100
100
100
100
100
100
100
100
100
100
100
100
100
100
100
100
100
100
100
100
100
100
100
100
100
100
100
100
100
100
100
100
100
100
100
100
100
100
100
100
100
100
100
100
100
100
100
100
100
100
100
100
100
100
100
100
100
100
100
100
100
100
100
100
100
100
100
100
100
100
100
100
100
100
100
100
100
100
100
100
100
100
100
100
100
100
100
100
100
100
100
100
100
100
100
100
100
100
100
100
100
100
100
100
100
100
100
100
100
100
100
100
100
100
100
100
100
100
100
100
100
100
100
100
100
100
100
100
100
100
100
100
100
100
100
100
100
100
100
100
100
100
100
100
100
100
100
100
100
100
100
100
100
100
100
100
100
100
100
100
100
100
100
100
100
100
100
100
100
100
100
100
100
100
100
100
100
100
100
100
100
100
100
100
100
100
100
100
100
100
100
100
100
100
100
100
100
100
100
100
100
100
100
100
100
100
100
100
100
100
100
100
100
100
100
100
100
100
100
100
100
100
100
100
100
100
100
100
100
100
100
100
100
100
100
100
100
100
100
100
100
100
100
100
100
100
100
100
100
100
100
100
100
100
100
176.523
100
100
100
100
100
100
100
100
100
100
100
100
100
100
100
100
100
100
100
100
100
100
100
100
100
100
100
100
100
100
100
100
100
100
100
100
100
100
100
100
100
100
100
100
100
100
100
100
100
100
100
100
100
100
100
100
100
100
100
100
100
100
100
100
100
100
100
100
100
100
100
100
100
100
100
100
100
100
100
100
100
100
100
100
100
100
100
100
100
100
196.493
100
100
100
100
100
100
100
100
100
100
100
100
100
100
100
100
100
100
100
100
100
100
100
100
100
100
100
100
100
100
100
100
100
100
100
100
100
100
100
100
100
100
100
100
100
100
100
100
100
100
100
100
100
100
100
100
100
100
100
100
100
100
100
100
100
100
100
100
100
100
100
100
100
100
100
100
100
100
100
100
100
100
100
100
100
100
100
100
100
100
100
100
127.82
100
100
100
100
100
100
100
100
100
100
100
100
100
100
100
100
100
100
100
100
100
100
100
100
100
100
100
100
100
100
100
100
100
100
100
100
100
100
100
100
100
100
100
100
100
100
100
100
100
100
100
100
100
100
100
100
100
100
100
100
100
100
100
100
100
100
100
100
100
100
100
100
100
100
100
100
100
100
100
100
100
100
100
100
100
100
100
100
100
100
100
100
100
100
100
100
100
100
100
100
100
100
100
100
100
100
100
100
100
100
100
100
100
100
100
100
100
100
100
100
100
100
100
100
100
100
100
100
100
100
100
100
100
100
100
100
100
100
100
100
100
100
100
100
100
100
100
100
100
100
100
100
100
100
100
100
100
100
100
100
100
100
100
100
100
100
100
100
100
100
100
100
100
100
100
100
100
100
100
100
100
100
100
100
100
100
100
100
100
100
100
100
100
100
100
100
100
100
100
100
100
100
100
100
100
100
100
100
100
100
100
100
100
100
100
100
100
100
100
100
100
100
100
100
100
100
100
100
100
100
100
100
100
100
100
100
100
100
100
100
100
100
100
100
100
100
100
100
107.309
104.983
100
102.044
102.094
104.678
106.745
108.076
100
100
100.994
106.073
100
100
100
100
100
100
100
100
100
100
100
100
100
100
100
100
100
100
100
100
100
100
100
100
100
100
100
100
100
100
100
100
100
100
100
100
100
100
100
100
100
100
100
100
100
100
100
100
100
100
100
100
100
100
100
100
100
100
100
100
100
100
100
100
100
100
100
100
100
100
100
100
100
100
100
100
100
100
100
100
100
100
100
100
100
100
100
100
117.876
115.51
107.446
112.388
110.848
114.053
116.713
118.531
100
102.556
108.475
114.393
100
100
100
100
100
100
100
100
100
100
100
100
100
100
100
100
100
100
100
100
100
100
100
100
100
100
100
100
100
100
100
100
100
100
100
100
100
100
100
100
100
100
100
100
100
100
100
100
100
100
100
100
100
100
100
100
100
100
100
100
100
100
100
100
100
100
100
100
100
100
100
100
100
100
100
100
100
100
100
100
101.449
100
100
100
100
100
101.762
100
101.003
100
128.933
126.624
117.681
123.139
120.021
123.937
127.228
129.489
102.797
109.506
116.269
123.08
100
100
100
101.929
100
100
100
100
100
100
100
100
100
100
100
100
100
100
100
100
100
100
100
100
100
100
100
100
100
100
100
100
100
100
100
100
100
100
100
100
100
100
100
100
100
100
100
100
100
100
100
100
100
100
100
100
100
100
100
100
100
100
100
100
100
100
100
100
100
100
100
100
100
100
100
100
100
100
100
108.181
105.645
111.567
106.67
100.121
100
108.851
107.819
110.873
104.227
109.244
108.345
141.051
139.022
128.861
135.065
129.684
134.35
138.326
141.073
109.204
116.738
124.346
132.139
100
100
100.164
107.867
100
100
100
100
100
100
100
100
100
100
100
100
100
100
100
100
100
100
100
100
100
100
100
100
100
100
100
100
100
100
100
100
100
100
100
100
100
100
100
100
100
100
100
100
100
100
100
100
100
100
100
100
100
100
100
100
100
100
100
100
100
100
100
100
100
100
100
100
100
100
100
100
102.271
100
100
104.152
117.955
115.419
121.986
117.473
108.823
108.302
118.648
117.223
120.448
112.719
117.464
116.94
154.276
152.504
140.555
147.943
139.768
145.305
149.926
153.197
115.881
124.209
132.696
141.474
100
100
105.796
114.264
100.718
100
104.428
100
100
100
112.175
106.444
100
100
100
100
100
100
100
100
100
100
100
100
100
100
100
100
100
100
100
100
100
100
100
100
100
100
100
100
100
100
100
100
100
100
100
100
100
100
100
100
100
100
100
100
100
100
100
100
100
100
100
100
100
100
100
100
100
100
100
100
100
100
100
100
100
114.056
109.855
105.299
112.75
128.03
125.667
131.322
127.661
116.939
116.302
128.398
127.348
130.502
121.639
126.604
126.131
168.986
167.276
153.235
161.981
150.126
156.864
162.417
166.568
123.018
132.087
141.442
151.087
100
103.487
112.417
121.669
116.849
108.017
121.747
112.043
105.688
112.423
127.697
119.58
101.741
100
105.829
110.065
100
100
101.652
100.116
100
100
100
100
100
100
100
100
100
100
100
100
100
100
100
100
100
100
100
100
100
100
100
100
100
100
100
100
100
100
100
100
100
100
100
100
100
100
100
100
100
100
100
100
100
100
100
100
100
100
100
100
100
100
100
108.734
102.676
100
124.369
119.391
115.638
122.497
137.847
134.883
141.338
138.589
125.299
125.126
138.05
137.416
141.908
131.737
136.533
135.116
184.3
183.221
167.72
177.73
160.718
169.075
175.917
180.882
131.056
140.734
150.837
161.417
113.977
115.483
120.923
130.973
133.687
127.128
140.126
132.569
121.229
133.926
160.787
147.004
118.15
111.129
126.401
132.507
115.195
100
115.485
116.695
114.538
100
107.493
100
100
100
100
100
100
100
100
100
100
100
100
100
100
100
100
100
100
100
100
100
100
100
100
100
100
100
100
100
100
100
100
100
100
100
100
100
100
100
100
100
100
100
100
100
100
100
100
100
100
100
100
117.189
109.605
104.298
111.193
134.737
129.061
124.585
131.441
147.074
143.862
151.309
148.439
133.494
134.648
147.762
147.182
155.196
143.088
147.352
144.417
200.829
200.857
184.568
195.668
172.129
182.331
190.876
196.648
140.801
150.769
161.433
173.032
135.475
136.248
136.804
143.42
169.163
148.319
176.554
157.621
150.259
170.798
198.173
187.592
146.118
130.973
151.184
167.37
134.911
100
136.904
135.648
128.592
100
121.321
100
100
100
100
100
100
100
100
100
100
100
100
100
100
100
100
100
100
100
100
100
100
100
100
100
100
100
100
100
100
100
100
100
100
100
100
100
100
100
100
100
100
100
100
100
100
100
100
100
100
100
110.81
109.216
101.786
100
126.267
118.863
118.347
143.514
137.656
133.398
140.242
155.693
152.83
159.854
156.284
142.629
144.941
157.208
156.507
170.348
155.791
159.217
154.055
219.191
220.404
204.505
215.95
185.066
196.961
207.435
214.459
153.351
162.926
173.837
186.549
162.446
161.797
161.189
162.294
196.324
188.191
204.197
197.675
187.105
203.296
219.072
211.723
176.692
157.937
182.677
198.941
162.103
100
162.008
157.261
150
113.945
141.849
100
100
100
100
100
100
100
100
100
100
100
100
100
100
100
100
100
100
100
100
100
100
100
100
100
100
100
100
100
100
100
100
100
100
100
100
100
100
100
100
100
100
100
100
100
100
100
100
100
100
100
117.115
113.911
106.503
100
100.332
133.267
125.894
124.757
151.509
146.165
140.067
146.56
163.015
161.199
166.111
161.893
152.683
154.931
165.187
165.236
188.573
171.174
172.413
164.768
239.481
241.686
227.407
237.824
200.366
213.674
225.476
234.738
169.687
178.254
188.666
202.12
197.626
197.165
193.419
191.868
247.383
220.307
253.912
228.082
206.612
216.955
152.489
268.246
202.788
189.851
202.274
209.238
191.004
103.212
191.197
185.855
175.83
128.619
159.567
100
100
100
100
100
126.022
113.904
100
100
100
100
100
100
100
100
100
100
100
100
100
100
100
100
100
100
100
100
100
100
100
100
100
100
100
100
100
100
100
100
100
100
100
100
100
100
100
100
100
100
100
100
120.781
115.719
107.87
100
102.226
138.665
131.876
127.721
157.83
152.467
145.275
151.301
169.885
168.69
170.246
165.912
163.212
164.112
171.823
173.121
210.4
189.926
188.327
176.902
261.499
264.423
253.462
261.687
218.706
235.397
246.955
257.777
193.855
199.784
208.784
220.505
247.121
253.413
243.693
245.367
295.22
277.744
302.34
151.632
273.975
150.441
179.46
321.193
215.677
198.3
272.644
145.895
202.567
114.856
202.871
190.297
187.641
145.624
177.76
100
100
102.586
100
100
184.912
173.688
100
100
100
100
100
100
100
100
100
100
100
100
100
100
100
100
100
100
100
100
100
100
100
100
100
100
100
100
100
100
100
100
100
100
100
100
100
100
100
100
100
100
100
100
122.662
114.845
108.126
100
101.731
140.799
134.674
129.249
162.227
156.789
147.289
153.582
176.665
174.203
173.193
168.372
173.799
172.98
178.444
180.034
236.712
213.384
212.202
192.626
284.937
287.7
282.202
287.271
236.11
254.157
268.592
280.377
243.978
248.532
255.494
265.414
289.656
289.958
282.124
279.945
346.843
325.984
354.658
180.239
327.836
182.189
209.435
380.554
152.154
138.746
333.439
176.753
142.387
133.683
142.107
138.285
203.856
264.291
170.477
186.578
100
100
114.634
100
122.513
388.593
140.031
100
100
100
100
100
100
100
100
100
100
100
100
100
100
100
100
100
100
100
100
100
100
100
100
100
100
100
100
100
100
100
100
100
100
100
100
100
100
100
100
100
100
100
100
100
100
100
121.652
115.597
108.81
101.357
141.697
136
129.043
164.198
158.82
148.091
154.602
182.234
177.804
176.652
170.751
185.004
182.052
185.043
186.389
267.968
243.283
246.527
215.195
303.101
304.736
311.397
312.171
276.882
300.915
310.697
308.811
277.236
279.518
287.069
295.903
334.361
331.307
324.062
318.095
397.196
375.298
406.6
207.952
386.363
215.279
239.281
438.013
187.693
171.913
397.193
211.031
175.936
149.003
176.646
171.637
145.655
323.711
177.481
135.943
100
100
130.842
107.927
102.147
217.64
100
100
100
100
100
100
100
100
100
100
100
100
100
100
100
100
100
100
100
100
100
100
100
100
100
100
100
100
100
100
100
100
100
100
100
100
100
100
100
100
100
100
100
100
100
100
100
100
121.895
116.05
108.738
100.01
142.45
136.501
128.864
165.532
160.116
148.994
155.486
187.621
181.554
180.907
173.858
198.542
191.552
191.965
194.287
301.604
278.676
290.639
250.095
340.515
342.736
330.008
340.729
308.955
181.855
326.407
333.305
314.737
313.288
321.658
329.909
380.485
375.482
366.99
359.323
426.207
235.323
444.79
247.201
224.029
208.018
457.814
243.297
213.045
166.14
215.146
208.922
180.145
391.698
189.902
248.522
169.398
100
100
143.038
119.804
104.153
100
100
100
100
100
100
100
100
100
100
100
100
100
100
100
100
100
100
100
100
100
100
100
100
100
100
100
100
100
100
100
100
100
100
100
100
100
100
100
100
100
100
100
100
100
100
100
100
100
100
100
100
122.726
115.397
107.543
100
143.433
136.636
128.978
167.038
161.415
150.24
156.5
192.837
186.17
185.323
177.378
218.828
203.248
198.31
205.217
331.267
319.064
335.037
294.016
364.23
192.253
350.586
350.305
343.182
200.425
354.391
365.779
355.687
350.989
359.667
367.297
257.335
242.318
248.264
174.755
251.236
243.118
218.878
455.843
137.961
308.085
207.154
101.216
100
157.854
131.901
100
100
100
100
100
100
100
100
100
100
100
100
100
100
100
100
100
100
100
100
100
100
100
100
100
100
100
100
100
100
100
100
100
100
100
100
100
100
100
100
100
100
100
100
100
100
100
100
100
100
100
100
100
123.245
115.363
107.616
100
143.141
135.999
130.615
169.222
163.185
150.563
157.498
198.508
191.548
188.519
180.608
250.62
222.58
206.992
223.455
361.981
347.128
352.904
332.155
390.527
209.85
374.838
206.691
381.791
378.845
219.896
386.262
402.205
188.383
244.329
255.596
171.178
377.213
242.552
109.619
100
162.654
137.891
100
100
100
100
100
100
100
100
100
100
100
100
100
100
100
100
100
100
100
100
100
100
100
100
100
100
100
100
100
100
100
100
100
100
100
100
100
100
100
100
100
100
100
100
100
100
100
100
100
100
100
100
100
100
123.138
115.335
106.65
100
144.365
137.829
131.191
172.013
165.075
151.296
159.649
207.331
196.773
191.868
184.299
293.911
255.283
223.715
255.822
356.679
204.069
364.311
414.652
229.077
407.255
219.541
421.749
239.433
435.565
142.061
307.172
209.855
442.172
116.865
102.946
167.375
234.416
145.303
100
100
112.925
100
100
100
100
100
100
100
100
100
100
100
100
100
100
100
100
100
100
100
100
100
100
100
100
100
100
100
100
100
100
100
100
100
100
100
100
100
100
100
100
100
100
100
100
100
100
100
100
100
100
100
100
100
123.75
115.418
107.108
100.095
146.303
139.243
132.139
176.227
168.462
153.033
161.911
225
204.335
198.976
188.914
325.391
300.312
257.085
300.724
387.618
206.204
216.365
244.579
430.954
238.187
450.421
173.164
376.349
246.031
123.967
104.415
184.438
228.493
286.33
158.424
100
100
132.928
100
100
100
100
100
100
100
100
100
100
100
100
100
100
100
100
100
100
100
100
100
100
100
100
100
100
100
100
100
100
100
100
100
100
100
100
100
100
100
100
100
100
100
100
100
100
100
100
100
100
100
100
100
100
124.166
117.5
108.841
100.041
148.727
140.318
133.61
179.722
170.998
157.036
166.573
253.822
220.625
214.706
196.211
338.713
315.102
294.818
315.926
432.943
220.123
238.034
252.455
208.921
438.594
131.199
102.918
206.377
246.436
282.718
345.71
163.798
108.367
100
148.619
100
104.35
100
100
100
100
100
100
100
100
100
100
100
100
100
100
100
100
100
100
100
100
100
100
100
100
100
100
100
100
100
100
100
100
100
100
100
100
100
100
100
100
100
100
100
100
100
100
100
100
100
100
100
100
100
125.87
119.674
109.785
100.067
152.787
142.862
134.956
183.533
174.795
161.929
171.645
284.713
246.393
236.296
208.282
186.414
374.036
303.228
180.026
464.913
245.38
255.343
240.965
129.485
106.287
143.187
305.798
347.449
399.507
160.769
230.027
124.438
100
161.552
108.065
111.453
100
100
100
100
100
100
100
100
100
100
100
100
100
100
100
100
100
100
100
100
100
100
100
100
100
100
100
100
100
100
100
100
100
100
100
100
100
100
100
100
100
100
100
100
100
100
100
100
100
100
100
100
100
100
129.151
120.787
110.25
100
156.006
144.573
138.612
190.366
180.077
166.437
176.747
287.229
274.685
260.382
227.141
203.827
428.896
178.043
203.249
267.033
126.953
114.909
173.17
369.888
406.512
158.777
221.356
279.517
144.873
100
170.119
114.108
121.107
100
100
100
100
100
100
100
100
100
100
100
100
100
100
100
100
100
100
100
100
100
100
100
100
100
100
100
100
100
100
100
100
100
100
100
100
100
100
100
100
100
100
100
100
100
100
100
100
100
100
100
100
100
100
100
131.436
122.127
110.705
102.082
159.078
147.823
142.325
202.627
186.634
170.067
181.562
168.021
284.149
278.69
250.249
230.441
474.118
201.659
234.093
130.475
121.653
207.782
426.817
160.281
219.964
269.826
336.033
168.175
100
169.097
120.005
133.431
100
100
100
100
100
100
100
100
100
100
100
100
100
100
100
100
100
100
100
100
100
100
100
100
100
100
100
100
100
100
100
100
100
100
100
100
100
100
100
100
100
100
100
100
103.906
100
100
100
100
100
100
100
100
100
100
100
133.677
123.788
112.727
165.068
153.008
145.286
218.828
194.315
175.315
187.031
320.654
193.226
301.324
279.567
267.888
252.234
230.971
259.9
136.511
126.987
237.585
164.668
219.357
267.395
327.251
385.355
180.814
100
164.605
126.444
145.828
100
100
100
100
100
100
100
100
100
100
100
100
100
100
100
100
100
100
100
100
100
100
100
100
100
100
100
100
100
100
100
100
100
100
100
100
100
100
100
100
100
100
100
100
115.32
103.871
100.323
100
100
100
100
100
100
100
100
100
100
100
135.572
126.921
171.118
157.221
147.97
236.671
204.154
182.116
195.521
370.512
182.917
222.568
168.941
269.248
255.785
141.551
131.378
169.608
216.077
265.566
322.501
378.554
184.687
100
156.711
134.387
151.433
100
100
100
100
100
100
100
100
100
100
100
100
100
100
100
100
100
100
100
100
100
100
100
100
100
100
100
100
100
100
100
100
100
100
100
100
100
100
100
100
100
100
100
100
100
116.169
106.915
105.87
103.813
100
100
100
100
100
100
100
100
100
100
100
139.092
129.03
176.42
161.247
151.702
250.566
217.557
187.606
204.903
422.889
210.559
248.403
314.491
194.772
276.371
146.036
136.822
175.188
217.863
261.366
319.055
370.29
171.677
138.374
155.661
137.019
152.689
100
100
100
100
100
100
100
100
100
100
100
100
100
100
100
100
100
100
100
100
100
100
100
100
100
100
100
100
100
100
100
100
100
100
100
100
100
100
100
100
100
100
100
100
117.335
112.313
111.821
107.218
100
100
100
100
100
100
100
100
100
100
100
110.038
142.63
131.035
180.436
165.174
156.751
259.408
233.065
191.978
213.569
469.491
238.775
359.456
173.182
222.411
151.205
140.692
182.281
220.939
262.37
314.454
364.416
154
325.011
181.308
136.222
137.742
100
100
100
100
100
100
100
100
100
100
100
100
100
100
100
100
100
100
100
100
100
100
100
100
100
100
100
100
100
100
100
100
100
100
100
100
100
100
100
100
100
100
100
100
100
120.729
119.034
116.265
100
100
100
100
100
100
100
100
100
100
100
112.116
111.584
120.364
145.14
133.329
186.154
171.029
159.958
256.443
242.206
198.287
223.545
263.09
406.214
198.432
288.406
247.68
155.229
141.348
187.446
229.996
266.329
314.784
359.387
158.601
744.779
254.907
130.817
124.531
100
100
100
100
100
100
100
100
100
100
100
100
100
100
100
100
100
100
100
100
100
100
100
100
100
100
100
100
100
100
100
100
100
100
100
100
100
100
100
100
100
100
100
100
100
125.3
124.546
100
100
100
100
100
100
100
100
100
100
100
109.475
105.622
124.057
125.232
129.992
147.846
134.848
191.732
175.345
163.013
269.928
248.634
206.293
234.637
451.905
223.098
330.81
317.535
157.541
139.174
189.642
237.159
274.872
320.038
359.395
121.009
168.518
100
122.242
100
100
100
100
100
100
100
100
100
100
100
100
100
100
100
100
100
100
100
100
100
100
100
100
100
100
100
100
100
100
100
100
100
100
100
100
100
100
100
100
100
100
100
100
100
100
131.955
100
100
100
100
100
100
100
100
100
100
100
100
124.851
122.747
135.226
138.127
138.904
149.351
139.538
196.965
179.316
165.762
276.888
253.664
213.732
244.343
246.324
376.378
355.602
172.081
154.878
134.344
189.581
237.738
282.983
327.955
364.975
100
106.126
100
107.905
100
100
100
100
100
100
100
100
100
100
100
100
100
100
100
100
100
100
100
100
100
100
100
100
100
100
100
100
100
100
100
100
100
100
100
100
100
100
100
100
100
100
100
100
100
100
100
100
100
100
100
100
100
100
100
100
100
100
118.446
112.037
139.691
139.787
145.489
150.094
147.017
152.154
203.321
183.619
169.628
258.507
224.004
254.956
419.551
397.721
195.431
291.698
149.337
125.354
225.241
181.516
283.893
145.38
336.601
372.262
100
100
100
100
100
100
100
100
100
100
100
100
100
100
100
100
100
100
100
100
100
100
100
100
100
100
100
100
100
100
100
100
100
100
100
100
100
100
100
100
100
100
100
100
100
100
100
100
100
100
100
100
100
100
100
100
100
100
100
100
100
100
104.071
100
137.793
133.494
153.684
156.069
154.643
160.884
156.84
208.143
188.095
171.536
277.526
231.673
262.079
442.696
218.187
328.903
326.762
141.735
120.205
218.572
171.188
338.063
175.051
268.088
380.886
100
100
100
100
100
100
100
100
100
100
100
100
100
100
100
100
100
100
100
100
100
100
100
100
100
100
100
100
100
100
100
100
100
100
100
100
100
100
100
100
100
100
100
100
100
100
100
100
100
100
100
100
100
100
100
100
100
100
100
100
100
100
100
100
126.928
118.236
156.669
155.168
166.5
171.108
162.451
170.352
209.415
189.54
172.898
289.221
232.54
256.844
241.394
369.743
360.861
176.967
137.192
120.255
203.594
166.698
384.376
208.688
320.51
250.257
100
100
100
100
100
100
100
100
100
100
100
100
100
100
100
100
100
100
100
100
100
100
100
100
100
100
100
100
100
100
100
100
100
100
100
100
100
100
100
100
100
100
100
100
100
100
100
100
100
100
100
100
100
100
100
100
100
100
100
100
100
100
100
106.345
100
151.372
144.868
174.279
175.687
177.873
184.465
178.787
208.34
189.037
228.42
254.401
289.93
410.703
396.125
198.7
135.616
118.375
197.823
161.557
236.767
378.133
300.074
245.601
100
100
100
100
100
100
100
100
100
100
100
100
100
100
100
100
100
100
100
100
100
100
100
100
100
100
100
100
100
100
100
100
100
100
100
100
100
100
100
100
100
100
100
100
100
100
100
100
100
100
100
100
100
100
100
100
100
100
100
100
100
100
100
100
100
133.68
120.453
174.992
171.722
189.945
194.117
187.97
196.132
189.926
206.435
226.488
250.718
294.698
321.043
435.814
219.748
133.157
112.622
200.816
154.276
427.571
357.405
292.956
149.376
100
100
100
100
100
100
100
100
100
100
100
100
100
100
100
100
100
100
100
100
100
100
100
100
100
100
100
100
100
100
100
100
100
100
100
100
100
100
100
100
100
100
100
100
100
100
100
100
100
100
100
100
100
100
100
100
100
100
100
100
100
100
100
100
107.232
100
164.016
151.85
196.606
197.002
203.41
209.965
197.641
206.836
208.199
223.304
246.503
286.357
322.691
354.555
240.902
130.741
103.578
223.968
194.761
148.616
407.549
348.076
177.681
267.385
100
100
100
100
100
100
100
100
100
100
100
100
100
100
100
100
100
100
100
100
100
100
100
100
100
100
100
100
100
100
100
100
100
100
100
100
100
100
100
100
100
100
100
100
100
100
100
100
100
100
100
100
100
100
100
100
100
100
100
100
100
100
100
100
100
137.246
122.129
194.046
185.321
215.369
219.262
215.219
223.55
217.84
229.973
247.414
288.351
315.148
352.456
388.821
125.6
100
221.65
181.917
141.122
397.221
210.334
320.632
157.37
100
100
100
100
100
100
100
100
100
100
100
100
100
100
100
100
100
100
100
100
100
100
100
100
100
100
100
100
100
100
100
100
100
100
100
100
100
100
100
100
100
100
100
100
100
100
100
100
100
100
100
100
100
100
100
100
100
100
100
100
100
100
100
100
100
107.114
100
172.263
156.896
220.936
217.44
231.435
238.512
226.444
235.786
238.865
255.153
284.706
314.449
345.128
383.595
118.728
100
217.634
166.541
134.29
239.575
382.265
186.587
241.404
280.575
100
100
100
100
100
100
100
100
100
100
100
100
100
100
100
100
100
100
100
100
100
100
100
100
100
100
100
100
100
100
100
100
100
100
100
100
100
100
100
100
100
100
100
100
100
100
100
100
100
100
100
100
100
100
100
100
100
100
100
100
100
100
100
100
100
100
100
106.513
138.251
120.649
208.039
195.287
244.065
245.889
245.955
256.172
247.698
262.177
289.887
311.373
341.513
374.975
110.585
100
204.084
154.721
129.712
438.409
219.242
333.236
229.815
149.789
100
100
100
100
100
100
100
100
100
100
100
100
100
100
100
100
100
100
100
100
100
100
100