/*--------------------------------*- C++ -*----------------------------------*\
  =========                 |
  \\      /  F ield         | OpenFOAM: The Open Source CFD Toolbox
   \\    /   O peration     | Website:  https://openfoam.org
    \\  /    A nd           | Version:  dev
     \\/     M anipulation  |
\*---------------------------------------------------------------------------*/
FoamFile
{
    version     2.0;
    format      ascii;
    class       volScalarField;
    location    "2500";
    object      rho;
}
// * * * * * * * * * * * * * * * * * * * * * * * * * * * * * * * * * * * * * //

dimensions      [1 -3 0 0 0 0 0];

internalField   nonuniform List<scalar> 
9844
(
1.17174
1.17157
1.17165
1.17154
1.17129
1.17169
1.17156
1.17112
1.17126
1.17177
1.17166
1.17106
1.17096
1.17135
1.17182
1.17166
1.17101
1.17077
1.17094
1.17145
1.17183
1.17166
1.17106
1.17068
1.1707
1.17104
1.17151
1.17187
1.17169
1.17114
1.17067
1.17048
1.17075
1.17118
1.17158
1.17187
1.17174
1.17122
1.17069
1.17037
1.17047
1.17083
1.17127
1.17163
1.1719
1.17171
1.17123
1.17072
1.17031
1.17025
1.17054
1.17098
1.17134
1.17165
1.1719
1.17172
1.17128
1.17083
1.17033
1.17012
1.17027
1.17065
1.17107
1.1714
1.17167
1.17192
1.17174
1.17132
1.17086
1.17035
1.17007
1.17007
1.17035
1.17082
1.17118
1.17145
1.1717
1.17192
1.17178
1.17136
1.17091
1.17051
1.17003
1.16994
1.1701
1.17052
1.17091
1.17123
1.17148
1.17171
1.17192
1.17179
1.1714
1.17097
1.17059
1.17001
1.16984
1.16991
1.17021
1.17064
1.17098
1.17128
1.17151
1.17173
1.17193
1.1718
1.17142
1.171
1.17069
1.17008
1.16979
1.16977
1.17
1.17035
1.17074
1.17104
1.17131
1.17154
1.17175
1.17195
1.1718
1.17147
1.17105
1.17065
1.17011
1.16976
1.16966
1.16978
1.17012
1.1705
1.17084
1.17111
1.17134
1.17155
1.17174
1.17194
1.17178
1.1715
1.17109
1.17076
1.17022
1.16978
1.16958
1.16961
1.16986
1.17025
1.17059
1.1709
1.17115
1.17138
1.17157
1.17177
1.17194
1.17178
1.17147
1.17112
1.17073
1.17024
1.16983
1.16955
1.16948
1.16965
1.17
1.17036
1.1707
1.17095
1.17118
1.1714
1.17158
1.17177
1.17194
1.17181
1.17147
1.17118
1.17087
1.17034
1.16987
1.16955
1.1694
1.16949
1.16978
1.17014
1.17047
1.17077
1.17099
1.1712
1.1714
1.17159
1.17176
1.17195
1.17179
1.17146
1.17115
1.17083
1.17036
1.16999
1.16956
1.16935
1.16935
1.16956
1.16988
1.17025
1.17055
1.17081
1.17104
1.17122
1.17141
1.17159
1.17176
1.17195
1.1718
1.17148
1.17116
1.17084
1.17054
1.17
1.16958
1.16932
1.16925
1.16937
1.16967
1.17004
1.17033
1.17062
1.17085
1.17106
1.17124
1.17143
1.17159
1.17176
1.17195
1.1718
1.17149
1.17121
1.17085
1.17061
1.17
1.16965
1.16931
1.16917
1.16921
1.16946
1.1698
1.17013
1.17043
1.17066
1.1709
1.17107
1.17126
1.17143
1.1716
1.17177
1.17194
1.17181
1.17152
1.17121
1.17092
1.17055
1.17004
1.16967
1.16934
1.16913
1.1691
1.16926
1.16957
1.16992
1.17023
1.17049
1.17071
1.17091
1.1711
1.17127
1.17144
1.17162
1.17178
1.17194
1.17179
1.17152
1.17118
1.17088
1.1705
1.17015
1.16972
1.16934
1.16909
1.16902
1.16911
1.16936
1.1697
1.17002
1.1703
1.17055
1.17075
1.17094
1.17111
1.17128
1.17145
1.1716
1.17177
1.17194
1.17181
1.17149
1.17117
1.1709
1.17052
1.17015
1.16979
1.16934
1.16909
1.16895
1.16899
1.16916
1.1695
1.16983
1.17011
1.17035
1.17058
1.17078
1.17096
1.17113
1.17129
1.17146
1.1716
1.17176
1.17194
1.1718
1.17147
1.17118
1.17088
1.1705
1.17019
1.1698
1.16938
1.16909
1.16891
1.16887
1.16901
1.16929
1.16962
1.16992
1.17018
1.17041
1.17061
1.17079
1.17098
1.17112
1.1713
1.17144
1.17159
1.17176
1.17194
1.1718
1.17147
1.17119
1.17087
1.17052
1.17021
1.16982
1.16944
1.16909
1.1689
1.1688
1.16888
1.16909
1.16943
1.16975
1.17002
1.17024
1.17048
1.17064
1.17082
1.17097
1.17114
1.17129
1.17143
1.17159
1.17175
1.17193
1.1718
1.17147
1.17117
1.17085
1.17059
1.17023
1.16981
1.16946
1.16911
1.16887
1.16873
1.16876
1.16892
1.16925
1.16955
1.16982
1.17009
1.17029
1.17049
1.17066
1.17083
1.17098
1.17114
1.17128
1.17143
1.17158
1.17175
1.17193
1.17178
1.17148
1.1712
1.17088
1.17054
1.17022
1.16981
1.16947
1.16918
1.16888
1.16869
1.16867
1.16878
1.16905
1.16936
1.16965
1.16991
1.17014
1.17037
1.17053
1.1707
1.17084
1.171
1.17114
1.17127
1.17142
1.17157
1.17174
1.17192
1.17179
1.17151
1.17117
1.17084
1.17057
1.17026
1.16982
1.16947
1.16918
1.16883
1.16864
1.16858
1.16866
1.16888
1.16916
1.16946
1.16973
1.16996
1.17018
1.17036
1.17054
1.17069
1.17085
1.171
1.17113
1.17127
1.17141
1.17156
1.17172
1.17191
1.17177
1.17148
1.17119
1.17086
1.17054
1.17017
1.16991
1.16947
1.1692
1.16884
1.16862
1.16852
1.16855
1.16872
1.169
1.16928
1.16955
1.16979
1.17
1.17022
1.17038
1.17055
1.17071
1.17087
1.171
1.17112
1.17126
1.1714
1.17154
1.1717
1.1719
1.17178
1.17147
1.17116
1.17086
1.17049
1.17016
1.16995
1.16942
1.16917
1.16885
1.16859
1.16846
1.16846
1.1686
1.16883
1.16914
1.16938
1.16963
1.16985
1.17005
1.17026
1.17043
1.17055
1.17071
1.17087
1.17099
1.17111
1.17124
1.17137
1.17152
1.17168
1.17189
1.17177
1.17147
1.17115
1.17085
1.17051
1.17018
1.1699
1.16944
1.16914
1.16889
1.16857
1.16842
1.16839
1.16846
1.1687
1.16896
1.16922
1.16947
1.1697
1.16991
1.17009
1.17024
1.17044
1.17058
1.17071
1.17085
1.17097
1.1711
1.17122
1.17135
1.17149
1.17166
1.17187
1.17176
1.17147
1.17116
1.17082
1.17051
1.17013
1.16985
1.16955
1.16913
1.16886
1.16853
1.16837
1.16831
1.16836
1.16854
1.16877
1.16907
1.1693
1.16958
1.16974
1.16993
1.17013
1.17028
1.17049
1.17057
1.17071
1.17084
1.17096
1.17108
1.1712
1.17132
1.17147
1.17164
1.17198
1.17183
1.17178
1.17145
1.17118
1.17079
1.17048
1.17013
1.16989
1.16961
1.16922
1.16884
1.16854
1.16834
1.16825
1.16826
1.16839
1.16862
1.16893
1.16916
1.16937
1.1696
1.16978
1.16997
1.17013
1.1703
1.17045
1.1706
1.17071
1.17083
1.17095
1.17106
1.17117
1.1713
1.17147
1.1717
1.17158
1.17197
1.17182
1.17175
1.17143
1.17112
1.17078
1.17051
1.17017
1.16984
1.16954
1.16924
1.16879
1.16857
1.16831
1.16819
1.16818
1.16827
1.16848
1.16872
1.169
1.16923
1.16947
1.16964
1.16982
1.17
1.17014
1.17033
1.17046
1.1706
1.1707
1.17082
1.17092
1.17103
1.17114
1.17132
1.17124
1.17147
1.17136
1.17137
1.17168
1.17156
1.17196
1.1718
1.17174
1.17146
1.17113
1.17081
1.17052
1.17014
1.16986
1.16958
1.16923
1.16881
1.16856
1.16829
1.16815
1.1681
1.16817
1.16834
1.16854
1.16883
1.16907
1.1693
1.1695
1.16968
1.16986
1.17002
1.17016
1.17034
1.17046
1.17059
1.17069
1.1708
1.17089
1.171
1.17117
1.17109
1.17126
1.17145
1.17128
1.17135
1.17166
1.17153
1.17196
1.17178
1.17175
1.17143
1.17109
1.17077
1.17049
1.17013
1.1699
1.1696
1.16922
1.16884
1.16856
1.1683
1.1681
1.16804
1.16808
1.16822
1.16842
1.16866
1.16895
1.16914
1.16938
1.16956
1.16972
1.16991
1.17004
1.17021
1.17038
1.17046
1.17058
1.17067
1.17077
1.17087
1.17102
1.17095
1.17117
1.17108
1.17119
1.17142
1.17125
1.17131
1.17163
1.1715
1.17194
1.17176
1.17175
1.17145
1.17112
1.17079
1.17052
1.1702
1.1699
1.16954
1.16918
1.16886
1.16855
1.1683
1.16806
1.16797
1.16798
1.1681
1.16829
1.16851
1.16878
1.16899
1.16923
1.16941
1.16958
1.16972
1.16994
1.17003
1.17024
1.17039
1.17045
1.17057
1.17065
1.17075
1.17089
1.17082
1.171
1.17093
1.1711
1.17102
1.17116
1.17138
1.17121
1.17128
1.1716
1.17147
1.17193
1.17173
1.17177
1.17145
1.17115
1.17078
1.17046
1.17014
1.16981
1.16951
1.1692
1.16885
1.16852
1.16827
1.16802
1.16789
1.16791
1.16799
1.16816
1.16838
1.16862
1.16886
1.16909
1.16926
1.16942
1.16959
1.16974
1.16996
1.17004
1.17023
1.17038
1.17044
1.17055
1.17063
1.17075
1.17069
1.17085
1.17078
1.17095
1.17087
1.17107
1.17099
1.17112
1.17135
1.17117
1.17123
1.17157
1.17143
1.17191
1.1717
1.17174
1.17142
1.17109
1.17075
1.17049
1.17016
1.16983
1.16954
1.16922
1.1689
1.16853
1.16827
1.16801
1.16784
1.16783
1.16789
1.16803
1.16826
1.16846
1.16872
1.16891
1.16911
1.16932
1.16947
1.16963
1.16976
1.16996
1.17007
1.17022
1.17037
1.17042
1.17052
1.17062
1.17054
1.17071
1.17063
1.1708
1.17071
1.17091
1.17082
1.17103
1.17094
1.17108
1.1713
1.17113
1.17119
1.17153
1.17139
1.17189
1.17167
1.17172
1.17141
1.17108
1.17077
1.17048
1.17013
1.16985
1.16963
1.16923
1.1689
1.16852
1.16828
1.16801
1.1678
1.16775
1.1678
1.16791
1.1681
1.16835
1.16858
1.16879
1.16897
1.16916
1.16936
1.16954
1.16967
1.16978
1.16999
1.1701
1.17021
1.17035
1.17037
1.17045
1.17032
1.17052
1.17036
1.1706
1.17042
1.17072
1.17055
1.17084
1.1707
1.17098
1.17086
1.17102
1.17126
1.17107
1.17113
1.17149
1.17134
1.17187
1.17163
1.17174
1.17141
1.17108
1.17081
1.17046
1.17013
1.16985
1.16959
1.16921
1.16892
1.16856
1.16826
1.16801
1.16777
1.16769
1.16771
1.16781
1.16797
1.16818
1.16843
1.16867
1.16884
1.16905
1.16923
1.16938
1.16957
1.16971
1.16979
1.17
1.17011
1.17019
1.17026
1.17018
1.16997
1.17011
1.16976
1.17012
1.1696
1.17023
1.16964
1.17043
1.16989
1.17067
1.17027
1.17089
1.17064
1.17092
1.1712
1.17097
1.17103
1.17144
1.17129
1.17184
1.17158
1.17174
1.17143
1.17114
1.17079
1.17045
1.17023
1.16986
1.16958
1.16927
1.16893
1.1686
1.16827
1.168
1.16773
1.16764
1.16764
1.16771
1.16786
1.16806
1.16831
1.16852
1.16872
1.16889
1.16908
1.16924
1.16942
1.16959
1.16972
1.1698
1.16998
1.1701
1.17004
1.16977
1.16952
1.16933
1.16879
1.16887
1.16792
1.16865
1.16721
1.16883
1.16705
1.16939
1.16764
1.17006
1.16874
1.17063
1.16986
1.17064
1.17112
1.17069
1.17079
1.17139
1.17122
1.17181
1.17154
1.17174
1.17144
1.17114
1.17082
1.17052
1.17021
1.16987
1.16958
1.16931
1.16896
1.16863
1.16828
1.16799
1.16773
1.16759
1.16757
1.16763
1.16775
1.16792
1.16814
1.16838
1.1686
1.16876
1.16895
1.16914
1.16927
1.16944
1.16961
1.16973
1.16979
1.16996
1.16986
1.16921
1.16933
1.16825
1.16759
1.16681
1.16562
1.16544
1.16348
1.16465
1.16186
1.16481
1.16132
1.1661
1.16212
1.16803
1.16439
1.16971
1.16738
1.16966
1.17093
1.16975
1.16999
1.17133
1.17109
1.17178
1.17149
1.17173
1.17142
1.17113
1.17083
1.17052
1.17027
1.16992
1.16957
1.16932
1.16899
1.16865
1.16831
1.16799
1.16773
1.16756
1.16751
1.16755
1.16765
1.1678
1.16801
1.16824
1.16846
1.16865
1.16882
1.16902
1.16916
1.1693
1.16947
1.16962
1.16973
1.16975
1.16954
1.16732
1.16712
1.16605
1.16445
1.16329
1.16151
1.15967
1.15905
1.15638
1.15763
1.15412
1.15764
1.1533
1.15932
1.15409
1.16275
1.15675
1.16692
1.16147
1.16676
1.17035
1.167
1.16766
1.17125
1.17074
1.17174
1.17143
1.1717
1.1714
1.17113
1.17085
1.17054
1.1703
1.16994
1.1696
1.16932
1.16902
1.16868
1.16834
1.168
1.16773
1.16753
1.16745
1.16746
1.16756
1.1677
1.1679
1.16812
1.16836
1.16852
1.16873
1.1689
1.16908
1.16918
1.16932
1.16949
1.1696
1.16968
1.16948
1.16693
1.16088
1.16031
1.16232
1.16146
1.15804
1.15661
1.15403
1.15203
1.15101
1.14833
1.14936
1.14595
1.14929
1.1451
1.15096
1.14585
1.15467
1.14842
1.1607
1.15327
1.16056
1.16864
1.16117
1.16259
1.17106
1.1697
1.17171
1.17134
1.17166
1.17134
1.17109
1.17082
1.17051
1.17028
1.16994
1.16961
1.16933
1.16904
1.16872
1.16838
1.16802
1.16773
1.16752
1.1674
1.16739
1.16746
1.16759
1.16777
1.16797
1.16822
1.16842
1.16859
1.16877
1.16895
1.1691
1.1692
1.16935
1.16953
1.16961
1.1694
1.16701
1.16003
1.15981
1.15402
1.15359
1.15548
1.15461
1.15039
1.14906
1.14611
1.14431
1.14308
1.14068
1.1415
1.13843
1.14145
1.13768
1.14303
1.13844
1.14657
1.14086
1.15258
1.14546
1.15261
1.16467
1.15354
1.15552
1.17058
1.16712
1.17169
1.17117
1.1716
1.17124
1.17102
1.17078
1.1705
1.17027
1.16999
1.16964
1.16936
1.16908
1.16875
1.1684
1.16803
1.16774
1.1675
1.16736
1.16733
1.16737
1.1675
1.16764
1.16785
1.16805
1.16831
1.16848
1.16864
1.16881
1.16899
1.1691
1.16921
1.1694
1.16951
1.16932
1.16697
1.15987
1.16059
1.15339
1.1534
1.14697
1.14675
1.14806
1.14738
1.1429
1.1418
1.13873
1.13717
1.13584
1.13364
1.13439
1.13147
1.13444
1.13083
1.13601
1.13172
1.13938
1.13418
1.145
1.13854
1.14529
1.15851
1.14645
1.14864
1.16934
1.16244
1.17166
1.17076
1.17162
1.17115
1.17088
1.17069
1.17047
1.17023
1.17
1.16964
1.16943
1.16916
1.16878
1.16845
1.16807
1.16775
1.1675
1.16733
1.16727
1.16729
1.16739
1.16754
1.16772
1.16793
1.16816
1.16836
1.16852
1.16868
1.16884
1.16901
1.16911
1.16925
1.16942
1.16926
1.16702
1.15705
1.15347
1.15293
1.14677
1.14692
1.1404
1.14044
1.14104
1.14059
1.13597
1.13508
1.13182
1.13036
1.12888
1.12664
1.12745
1.12435
1.12768
1.12375
1.12949
1.12495
1.13296
1.12781
1.13831
1.13233
1.13879
1.15194
1.14012
1.14238
1.16667
1.15663
1.17156
1.16981
1.17137
1.17084
1.17055
1.17038
1.17018
1.16997
1.16967
1.16946
1.16919
1.16884
1.16847
1.1681
1.16777
1.16749
1.1673
1.16721
1.16722
1.1673
1.16744
1.16762
1.16783
1.16805
1.16825
1.1684
1.16855
1.16872
1.16887
1.169
1.16911
1.16927
1.16922
1.16714
1.1579
1.148
1.14851
1.14722
1.14752
1.14062
1.14098
1.13435
1.13455
1.13451
1.1343
1.12923
1.12846
1.12476
1.12323
1.12147
1.11921
1.11992
1.11683
1.12038
1.11604
1.12268
1.11745
1.12675
1.12108
1.13229
1.1263
1.13293
1.14583
1.13436
1.13669
1.16254
1.15081
1.17147
1.16817
1.17127
1.17057
1.17025
1.17008
1.16993
1.16968
1.16946
1.16921
1.16889
1.16852
1.16813
1.16779
1.16749
1.16729
1.16717
1.16715
1.16722
1.16734
1.16751
1.16769
1.16791
1.16812
1.1683
1.16844
1.16858
1.16875
1.1689
1.16899
1.16913
1.16914
1.16738
1.15892
1.14901
1.15027
1.1427
1.1433
1.14149
1.14206
1.135
1.13562
1.12823
1.12867
1.12804
1.12806
1.12213
1.12148
1.11779
1.11717
1.11545
1.11516
1.11385
1.11368
1.11301
1.11198
1.11511
1.11075
1.12013
1.11377
1.12643
1.11983
1.12729
1.14023
1.1289
1.13137
1.15761
1.14523
1.17142
1.16606
1.17116
1.17025
1.16992
1.16988
1.16968
1.16945
1.16924
1.16893
1.16857
1.16813
1.16782
1.16751
1.16729
1.16713
1.16709
1.16713
1.16724
1.16741
1.16759
1.16778
1.16799
1.16817
1.16834
1.16846
1.16861
1.16878
1.16891
1.16899
1.16904
1.16765
1.15996
1.14785
1.1441
1.14399
1.13803
1.13884
1.13637
1.13718
1.12943
1.13037
1.12175
1.12247
1.12129
1.12142
1.11695
1.11696
1.11534
1.11567
1.11414
1.11512
1.11257
1.11415
1.11047
1.11207
1.10911
1.10904
1.1129
1.10775
1.12019
1.1125
1.11638
1.12479
1.12093
1.13878
1.13401
1.12679
1.1227
1.12174
1.12392
1.12969
1.12532
1.15228
1.13611
1.13855
1.14406
1.17133
1.16322
1.17086
1.16984
1.16975
1.16968
1.16948
1.16926
1.16897
1.16863
1.16817
1.16783
1.16753
1.16728
1.1671
1.16704
1.16706
1.16716
1.1673
1.16748
1.16767
1.16786
1.16804
1.16821
1.16836
1.16848
1.16864
1.1688
1.16888
1.16891
1.16786
1.16092
1.14892
1.14095
1.14217
1.13969
1.14033
1.13376
1.13487
1.13145
1.1326
1.12351
1.12479
1.11724
1.1175
1.11703
1.11712
1.11611
1.11651
1.11656
1.11816
1.1172
1.11998
1.11585
1.12009
1.11225
1.11771
1.10798
1.11013
1.1131
1.10941
1.10671
1.10696
1.10619
1.11269
1.11724
1.11298
1.10917
1.11781
1.13146
1.11981
1.11871
1.12111
1.12703
1.12262
1.1413
1.15119
1.14434
1.13356
1.13589
1.17006
1.14799
1.15345
1.16185
1.16992
1.16952
1.1696
1.16945
1.16925
1.169
1.16868
1.16821
1.16782
1.16756
1.16728
1.1671
1.16699
1.16699
1.16706
1.16719
1.16738
1.16755
1.16773
1.16791
1.16809
1.16824
1.16838
1.1685
1.16866
1.16882
1.16881
1.16798
1.16181
1.14994
1.14108
1.13784
1.13825
1.13595
1.13689
1.12944
1.13101
1.12625
1.12783
1.11808
1.11922
1.11658
1.1163
1.11672
1.1167
1.11947
1.12042
1.12182
1.12297
1.12205
1.12267
1.12147
1.12232
1.11592
1.11893
1.12041
1.12159
1.10905
1.11244
1.11291
1.11598
1.10645
1.10548
1.10832
1.10613
1.10929
1.11374
1.10969
1.10627
1.11451
1.12889
1.11553
1.11674
1.11816
1.12434
1.11977
1.13838
1.14097
1.13096
1.13315
1.15797
1.16996
1.16459
1.14383
1.14737
1.16928
1.16939
1.16938
1.16923
1.169
1.16872
1.16826
1.16783
1.16757
1.16728
1.16709
1.16694
1.16693
1.16699
1.1671
1.16726
1.16744
1.16761
1.16779
1.16796
1.16812
1.16827
1.1684
1.16852
1.16868
1.16874
1.16799
1.16263
1.151
1.14218
1.13706
1.1383
1.13504
1.13607
1.13249
1.13381
1.12477
1.12689
1.12079
1.12269
1.11605
1.11604
1.11994
1.11884
1.12072
1.12049
1.124
1.12509
1.12302
1.12355
1.12186
1.12058
1.12174
1.12142
1.12042
1.11891
1.11869
1.12042
1.12117
1.12122
1.11152
1.11479
1.11552
1.11821
1.105
1.10537
1.11055
1.10742
1.10629
1.11031
1.10655
1.10458
1.11114
1.12626
1.11224
1.11355
1.11508
1.12158
1.11681
1.13532
1.13739
1.12831
1.13034
1.15129
1.16621
1.15626
1.13928
1.14097
1.16909
1.16923
1.16918
1.16899
1.16875
1.16831
1.16785
1.16759
1.1673
1.16709
1.1669
1.16687
1.16692
1.16701
1.16715
1.16733
1.1675
1.16767
1.16783
1.168
1.16815
1.16829
1.1684
1.16852
1.16863
1.16794
1.16319
1.1522
1.14326
1.13917
1.1355
1.13693
1.13248
1.13404
1.12891
1.13077
1.11996
1.12247
1.11646
1.11783
1.11738
1.11592
1.12583
1.12429
1.12611
1.12637
1.12456
1.12603
1.1196
1.11993
1.11736
1.11571
1.11453
1.11355
1.12033
1.11878
1.1168
1.11469
1.11983
1.12048
1.12022
1.11903
1.11381
1.11745
1.11647
1.11902
1.10467
1.10643
1.11262
1.10942
1.1043
1.10705
1.1042
1.10401
1.10786
1.12355
1.10895
1.11031
1.11192
1.11873
1.11376
1.13225
1.13382
1.12559
1.12755
1.14156
1.14952
1.13923
1.13476
1.13507
1.16899
1.16907
1.16896
1.16876
1.16836
1.16787
1.1676
1.16731
1.16709
1.16687
1.16681
1.16684
1.16692
1.16705
1.16721
1.16739
1.16755
1.16771
1.16787
1.16803
1.16817
1.16829
1.1684
1.16846
1.16784
1.16338
1.15331
1.1443
1.14113
1.13863
1.1405
1.13435
1.13652
1.12993
1.13217
1.12506
1.12757
1.11592
1.11815
1.11509
1.11511
1.12183
1.11896
1.12954
1.12864
1.12792
1.12936
1.1219
1.12499
1.1113
1.11311
1.11268
1.11096
1.10977
1.10937
1.11705
1.1147
1.1122
1.10984
1.11958
1.11917
1.11764
1.11541
1.11527
1.11803
1.1169
1.1185
1.10536
1.10813
1.11388
1.11125
1.10343
1.10435
1.10304
1.10428
1.1049
1.12075
1.10583
1.10715
1.10875
1.11577
1.11065
1.12931
1.1305
1.12283
1.12479
1.1336
1.13857
1.13133
1.13077
1.13042
1.16888
1.16889
1.16874
1.16839
1.16789
1.16762
1.16733
1.16708
1.16684
1.16677
1.16677
1.16684
1.16695
1.16711
1.16728
1.16745
1.1676
1.16776
1.16791
1.16805
1.16817
1.16828
1.16828
1.16759
1.16333
1.15398
1.1452
1.1424
1.1443
1.1399
1.14302
1.13362
1.13683
1.12731
1.13043
1.12108
1.12419
1.11428
1.11498
1.11628
1.11457
1.12615
1.12255
1.13128
1.13021
1.12839
1.13072
1.11762
1.12365
1.10552
1.10688
1.11207
1.10883
1.10783
1.1063
1.10536
1.10512
1.11273
1.10994
1.10733
1.1051
1.11799
1.1163
1.11385
1.11094
1.11555
1.11731
1.11595
1.11676
1.10676
1.10974
1.11405
1.11234
1.10332
1.10279
1.10257
1.10533
1.10283
1.11789
1.10325
1.10423
1.1057
1.11275
1.10759
1.12645
1.1274
1.12001
1.12199
1.12888
1.15123
1.1337
1.1274
1.12705
1.16875
1.1687
1.1684
1.16791
1.16763
1.16734
1.16708
1.16684
1.16672
1.16671
1.16676
1.16685
1.167
1.16717
1.16734
1.1675
1.16764
1.16779
1.16793
1.16806
1.16815
1.16807
1.16711
1.16309
1.15413
1.14577
1.14307
1.14598
1.14899
1.15057
1.14233
1.14616
1.13336
1.13795
1.12472
1.1289
1.11733
1.12084
1.1137
1.1136
1.11872
1.11551
1.12766
1.12405
1.13173
1.13009
1.12884
1.13149
1.11505
1.11922
1.125
1.10328
1.10529
1.11187
1.1082
1.10341
1.10231
1.10195
1.1022
1.10793
1.10514
1.10275
1.10091
1.11496
1.11239
1.10932
1.10617
1.11449
1.11546
1.11406
1.11366
1.10813
1.11069
1.11291
1.11243
1.10392
1.10204
1.1027
1.10646
1.10175
1.11497
1.10171
1.10206
1.10303
1.10974
1.1047
1.12358
1.12448
1.11717
1.11918
1.12723
1.16457
1.1428
1.12467
1.12486
1.1686
1.16839
1.16793
1.16765
1.16736
1.16708
1.16683
1.16669
1.16665
1.16669
1.16676
1.1669
1.16706
1.16723
1.1674
1.16754
1.16768
1.16782
1.16794
1.168
1.16775
1.16632
1.16239
1.15406
1.14597
1.14333
1.14632
1.15393
1.15374
1.156
1.14571
1.15046
1.13367
1.13989
1.12239
1.12772
1.11467
1.11783
1.11368
1.11275
1.12016
1.11642
1.12704
1.12337
1.1312
1.12827
1.13053
1.13203
1.11574
1.11977
1.12626
1.13025
1.10184
1.10457
1.1126
1.10829
1.09969
1.09918
1.09926
1.10011
1.10323
1.10074
1.09882
1.0975
1.111
1.10786
1.1046
1.10157
1.11256
1.11234
1.11096
1.10972
1.10895
1.1107
1.11095
1.11121
1.1048
1.10177
1.10326
1.10715
1.1012
1.11206
1.10088
1.10084
1.10123
1.10687
1.10228
1.12079
1.12188
1.11436
1.11646
1.12913
1.16665
1.147
1.12259
1.12419
1.16836
1.16794
1.16767
1.16737
1.16708
1.16683
1.16666
1.1666
1.16662
1.16669
1.1668
1.16696
1.16713
1.16729
1.16744
1.16758
1.16771
1.16783
1.16784
1.16727
1.16518
1.16106
1.15375
1.14596
1.14337
1.14622
1.15363
1.16115
1.1609
1.15877
1.16067
1.14953
1.15515
1.13451
1.14234
1.12055
1.12704
1.11324
1.11555
1.11328
1.11199
1.11965
1.11611
1.12453
1.12084
1.12945
1.12517
1.13188
1.13272
1.13253
1.1175
1.12225
1.12938
1.13228
1.10101
1.1044
1.11414
1.10883
1.09685
1.09679
1.09734
1.09871
1.09901
1.09704
1.09568
1.09492
1.10652
1.10321
1.10013
1.09752
1.10951
1.10843
1.10712
1.10528
1.10888
1.10945
1.10796
1.10927
1.1054
1.10191
1.10372
1.10707
1.10096
1.10924
1.10044
1.10017
1.1002
1.10421
1.10074
1.11823
1.1197
1.11166
1.11392
1.13206
1.16425
1.14621
1.12126
1.12513
1.16793
1.16768
1.16738
1.16708
1.16683
1.16663
1.16656
1.16655
1.16661
1.16671
1.16685
1.16702
1.16719
1.16735
1.16748
1.16761
1.16772
1.16764
1.16659
1.16374
1.15938
1.15293
1.14584
1.14337
1.14593
1.1529
1.16231
1.16531
1.16556
1.1624
1.16449
1.15241
1.15851
1.13548
1.14439
1.11931
1.12679
1.11226
1.11424
1.11229
1.11112
1.11748
1.11457
1.12104
1.11756
1.12942
1.12691
1.1237
1.13347
1.13361
1.13164
1.13367
1.11979
1.12507
1.13222
1.13456
1.10065
1.10457
1.11566
1.10952
1.09472
1.09495
1.09593
1.09779
1.09552
1.09414
1.09329
1.09294
1.10196
1.09886
1.09624
1.09423
1.10574
1.10407
1.10285
1.10081
1.10765
1.10752
1.10429
1.10643
1.10534
1.10222
1.10373
1.10595
1.10099
1.10665
1.10018
1.0998
1.09967
1.10208
1.0999
1.11601
1.11804
1.10916
1.11167
1.13432
1.15718
1.14501
1.12086
1.12686
1.16768
1.1674
1.1671
1.16683
1.16661
1.16652
1.1665
1.16654
1.16662
1.16675
1.16691
1.16708
1.16725
1.16739
1.16752
1.16762
1.16742
1.16571
1.16213
1.15749
1.15137
1.14549
1.14338
1.14589
1.15251
1.16182
1.16752
1.16732
1.1671
1.1676
1.16356
1.16591
1.1534
1.15957
1.1358
1.14518
1.1187
1.1266
1.11145
1.11353
1.1109
1.11031
1.11466
1.1124
1.1195
1.11619
1.12969
1.12724
1.12593
1.12339
1.13521
1.135
1.13221
1.13454
1.12215
1.12795
1.13499
1.13672
1.10078
1.10513
1.11755
1.11086
1.09302
1.0937
1.09514
1.09747
1.09284
1.09197
1.09152
1.09149
1.09772
1.09512
1.09313
1.09178
1.10159
1.0997
1.09861
1.0967
1.10584
1.10475
1.10031
1.10285
1.10435
1.1023
1.10291
1.10426
1.10107
1.10431
1.10006
1.0996
1.09944
1.10066
1.09946
1.1142
1.11696
1.10696
1.10979
1.13594
1.16233
1.14956
1.12115
1.12826
1.16739
1.16709
1.16681
1.16659
1.16648
1.16644
1.16647
1.16654
1.16666
1.16681
1.16698
1.16714
1.1673
1.16744
1.16753
1.16719
1.16479
1.16052
1.15555
1.14954
1.14488
1.14346
1.14603
1.15256
1.16169
1.16756
1.1685
1.1686
1.1675
1.16822
1.16314
1.16603
1.1518
1.15837
1.13484
1.14375
1.11839
1.12599
1.11085
1.11325
1.11021
1.11
1.11327
1.11115
1.12141
1.11943
1.11774
1.13111
1.12845
1.1289
1.12632
1.13695
1.13642
1.13382
1.1363
1.12451
1.13067
1.1376
1.13901
1.10125
1.10626
1.11969
1.11249
1.09201
1.09313
1.09496
1.09761
1.09094
1.09048
1.09046
1.09077
1.09415
1.09222
1.09091
1.09015
1.09753
1.09574
1.09485
1.0933
1.10324
1.10144
1.0966
1.09913
1.10284
1.10172
1.1017
1.10191
1.1008
1.1024
1.10009
1.09962
1.09935
1.09989
1.09928
1.11279
1.11637
1.10516
1.10823
1.1388
1.16957
1.15852
1.12167
1.12987
1.16708
1.1668
1.16658
1.16645
1.16639
1.16641
1.16647
1.16657
1.16671
1.16687
1.16704
1.1672
1.16735
1.16743
1.16701
1.164
1.15904
1.15368
1.14802
1.14457
1.14371
1.14657
1.15306
1.16202
1.16745
1.16889
1.16871
1.16886
1.1673
1.16832
1.16074
1.16496
1.14786
1.1548
1.13246
1.14034
1.11803
1.12472
1.1108
1.11333
1.11128
1.11101
1.11475
1.11231
1.12391
1.12155
1.12323
1.12444
1.13429
1.13158
1.13386
1.1313
1.13916
1.13828
1.13693
1.1393
1.12708
1.13341
1.14052
1.1418
1.10222
1.10761
1.12203
1.11433
1.09169
1.09305
1.0951
1.09804
1.08979
1.08978
1.09
1.09072
1.09147
1.09028
1.08963
1.08939
1.09421
1.09257
1.09222
1.09091
1.10025
1.09816
1.09388
1.09601
1.10089
1.10091
1.10036
1.09941
1.10043
1.10113
1.10006
1.09968
1.09938
1.09955
1.0993
1.11172
1.1161
1.10362
1.10695
1.14372
1.17108
1.16445
1.12237
1.13236
1.16679
1.16656
1.16641
1.16634
1.16635
1.1664
1.16649
1.16661
1.16677
1.16693
1.1671
1.16725
1.16734
1.16689
1.16346
1.15783
1.15206
1.14699
1.14456
1.14428
1.14785
1.15446
1.16291
1.16753
1.16884
1.16911
1.16898
1.16914
1.1688
1.16679
1.16822
1.15863
1.16378
1.14419
1.15171
1.12993
1.13688
1.11801
1.12348
1.11167
1.11402
1.11632
1.11536
1.12293
1.11882
1.12884
1.12651
1.12774
1.13035
1.13902
1.13645
1.14047
1.13799
1.14194
1.14114
1.14141
1.14347
1.1299
1.13645
1.14386
1.1452
1.10319
1.10905
1.12457
1.11632
1.09175
1.09333
1.09561
1.09887
1.0894
1.08957
1.09011
1.09098
1.08987
1.08936
1.08922
1.08925
1.09211
1.0907
1.09082
1.08975
1.09766
1.09579
1.09269
1.09408
1.09923
1.10034
1.09967
1.09783
1.10033
1.10043
1.10029
1.09997
1.09958
1.09948
1.09945
1.11094
1.11607
1.10242
1.10596
1.14959
1.17182
1.16934
1.1234
1.13576
1.16654
1.16638
1.1663
1.16629
1.16634
1.16641
1.16653
1.16667
1.16683
1.16699
1.16713
1.16723
1.16679
1.16316
1.15697
1.15087
1.14636
1.14467
1.14538
1.14974
1.15653
1.16392
1.16773
1.16878
1.16909
1.16908
1.1692
1.16923
1.16884
1.16671
1.16821
1.15825
1.16359
1.14328
1.15106
1.12952
1.13595
1.11982
1.12415
1.1152
1.11672
1.12859
1.1257
1.13524
1.13436
1.13439
1.13547
1.13293
1.13716
1.13939
1.14514
1.14286
1.14843
1.14627
1.14541
1.1449
1.14712
1.14867
1.13291
1.13979
1.1476
1.14917
1.10406
1.11018
1.12694
1.11791
1.09215
1.09387
1.09625
1.09947
1.0894
1.08993
1.09072
1.09167
1.08935
1.08929
1.08938
1.08967
1.09165
1.09002
1.09092
1.08969
1.09644
1.09512
1.09316
1.09395
1.09869
1.10025
1.09968
1.09761
1.10049
1.10008
1.10065
1.10048
1.10014
1.09957
1.09988
1.11042
1.11619
1.1017
1.10515
1.15652
1.17197
1.17117
1.12497
1.13976
1.16635
1.16625
1.16622
1.16626
1.16635
1.16645
1.16658
1.16672
1.16686
1.16699
1.1671
1.16668
1.16311
1.15645
1.15006
1.14615
1.14499
1.14679
1.15184
1.15872
1.16491
1.16791
1.16873
1.16901
1.16927
1.16913
1.16927
1.16928
1.1689
1.16696
1.16832
1.15938
1.16417
1.14565
1.15283
1.1334
1.13896
1.12582
1.1291
1.1244
1.1241
1.1503
1.14395
1.14339
1.14034
1.15032
1.1512
1.144
1.14168
1.14617
1.14873
1.15221
1.15042
1.15683
1.15511
1.14955
1.14948
1.1536
1.15441
1.13592
1.14328
1.15158
1.15357
1.1047
1.11079
1.12834
1.11875
1.09291
1.09461
1.09702
1.10031
1.09
1.09079
1.09173
1.09281
1.08966
1.08988
1.09016
1.0905
1.09289
1.09054
1.09288
1.09052
1.09655
1.09594
1.09693
1.09583
1.09888
1.10049
1.10025
1.0985
1.10105
1.10007
1.10154
1.10157
1.10096
1.09984
1.10054
1.10991
1.11651
1.10137
1.10431
1.16262
1.17203
1.17178
1.12681
1.14416
1.1662
1.16616
1.16619
1.16626
1.16635
1.16645
1.16657
1.16669
1.16683
1.16693
1.16653
1.1631
1.15627
1.14961
1.14616
1.14551
1.14824
1.15384
1.16068
1.16574
1.16802
1.16867
1.16893
1.16915
1.16938
1.16934
1.16933
1.16922
1.16936
1.16906
1.16771
1.16864
1.16246
1.16581
1.15206
1.15763
1.14252
1.14677
1.13784
1.13947
1.14008
1.13831
1.15606
1.16417
1.16319
1.16335
1.15514
1.15313
1.159
1.15321
1.15107
1.15717
1.15912
1.1594
1.15831
1.1643
1.16343
1.1543
1.1545
1.16002
1.16003
1.13842
1.14684
1.15549
1.15801
1.10544
1.11133
1.12888
1.11924
1.09399
1.09551
1.09782
1.10099
1.09124
1.09205
1.09274
1.09375
1.09093
1.09131
1.09202
1.09269
1.09777
1.09337
1.09799
1.09481
1.09847
1.09933
1.09902
1.09947
1.10016
1.10146
1.10212
1.10103
1.10266
1.10031
1.10337
1.10334
1.10272
1.10065
1.10288
1.10962
1.11706
1.1014
1.1038
1.16824
1.17205
1.17191
1.12932
1.15048
1.1661
1.16611
1.16617
1.16624
1.16631
1.16638
1.16645
1.16655
1.16664
1.16626
1.16307
1.15626
1.14953
1.14622
1.14604
1.14948
1.15543
1.16208
1.16631
1.16808
1.16861
1.16885
1.16904
1.1693
1.16941
1.16942
1.16938
1.16934
1.16942
1.16925
1.16858
1.16903
1.16608
1.16769
1.16044
1.16357
1.15499
1.15735
1.15447
1.15386
1.15948
1.15619
1.16524
1.16721
1.16606
1.16778
1.16819
1.16338
1.16143
1.16616
1.16227
1.16081
1.16477
1.16565
1.16503
1.1648
1.16703
1.1669
1.15922
1.15984
1.16497
1.16475
1.13957
1.1495
1.15822
1.1615
1.10556
1.11119
1.12866
1.119
1.09505
1.09658
1.0986
1.10135
1.09328
1.09391
1.09473
1.09558
1.09699
1.09719
1.09749
1.09777
1.1168
1.09893
1.11623
1.09901
1.10236
1.10115
1.11688
1.11765
1.10332
1.10505
1.1075
1.105
1.10629
1.10091
1.10696
1.10705
1.10639
1.10186
1.10332
1.10896
1.11771
1.10145
1.10333
1.17014
1.17207
1.172
1.1314
1.15751
1.166
1.16606
1.16609
1.16606
1.166
1.16595
1.16597
1.16605
1.16571
1.16293
1.15629
1.14956
1.14634
1.14645
1.15036
1.15642
1.16279
1.1666
1.16808
1.16853
1.16876
1.16895
1.16918
1.16937
1.16946
1.16946
1.16941
1.16943
1.16949
1.16941
1.1692
1.16934
1.16842
1.16892
1.16665
1.16764
1.16504
1.16569
1.1657
1.16517
1.16757
1.16661
1.16768
1.16817
1.16825
1.1685
1.16845
1.16719
1.16681
1.16781
1.16666
1.16625
1.16741
1.16753
1.16693
1.16702
1.16745
1.16756
1.16332
1.16424
1.16665
1.16629
1.13967
1.15041
1.15891
1.16257
1.10524
1.11002
1.12655
1.11723
1.09649
1.09755
1.09939
1.10162
1.09772
1.0978
1.09782
1.0982
1.11669
1.1163
1.1154
1.11567
1.13216
1.11599
1.132
1.11505
1.11886
1.11662
1.13261
1.13281
1.10719
1.10928
1.12125
1.1198
1.11042
1.1012
1.11077
1.11
1.10588
1.1023
1.10501
1.10862
1.1183
1.10173
1.10309
1.171
1.17172
1.17189
1.13528
1.15963
1.16577
1.16579
1.16544
1.16515
1.16474
1.1647
1.16489
1.16473
1.16248
1.15628
1.14966
1.14647
1.14673
1.15081
1.15675
1.16292
1.16667
1.16805
1.16845
1.16868
1.16885
1.16906
1.16928
1.16942
1.16944
1.1695
1.16949
1.16951
1.16954
1.16952
1.16949
1.16952
1.16932
1.16943
1.16894
1.16915
1.16877
1.16878
1.16905
1.1689
1.16872
1.1689
1.16803
1.16755
1.16821
1.16852
1.16782
1.16778
1.16783
1.16773
1.16758
1.16756
1.16764
1.1675
1.16713
1.16734
1.1664
1.1668
1.16462
1.16566
1.16671
1.16635
1.13767
1.14974
1.1572
1.16213
1.10508
1.10864
1.12219
1.11378
1.09869
1.09949
1.10099
1.10182
1.1151
1.11518
1.11457
1.11471
1.13132
1.13111
1.13026
1.1305
1.14871
1.13193
1.14848
1.1309
1.13344
1.13288
1.14894
1.14903
1.11945
1.1221
1.13492
1.13409
1.12283
1.10226
1.12333
1.12334
1.10901
1.12398
1.10414
1.10728
1.10781
1.11902
1.10182
1.1029
1.17152
0.887021
1.17038
1.13701
1.16434
1.16474
1.16449
1.1633
1.16303
1.163
1.16339
1.16343
1.16158
1.15617
1.14969
1.14657
1.14686
1.15084
1.15667
1.16275
1.1666
1.16798
1.16839
1.1686
1.16875
1.16894
1.16917
1.16932
1.16946
1.16947
1.16949
1.16954
1.16952
1.16957
1.16958
1.1696
1.16964
1.16962
1.16965
1.16965
1.16965
1.16965
1.16974
1.16969
1.16951
1.16972
1.16675
1.16735
1.16811
1.16867
1.1666
1.16443
1.16641
1.16497
1.16672
1.16727
1.16541
1.16702
1.16733
1.16604
1.16532
1.16565
1.16607
1.1625
1.1634
1.16455
1.16564
1.16516
1.16476
1.13234
1.14547
1.14962
1.1586
1.10482
1.108
1.11579
1.11065
1.11436
1.11424
1.10359
1.10341
1.1297
1.12976
1.12876
1.12881
1.14799
1.14779
1.14729
1.14739
1.16325
1.14839