/*--------------------------------*- C++ -*----------------------------------*\
  =========                 |
  \\      /  F ield         | OpenFOAM: The Open Source CFD Toolbox
   \\    /   O peration     | Website:  https://openfoam.org
    \\  /    A nd           | Version:  dev
     \\/     M anipulation  |
\*---------------------------------------------------------------------------*/
FoamFile
{
    version     2.0;
    format      ascii;
    class       volScalarField;
    location    "2500";
    object      T;
}
// * * * * * * * * * * * * * * * * * * * * * * * * * * * * * * * * * * * * * //

dimensions      [0 0 0 1 0 0 0];

internalField   nonuniform List<scalar> 
9844
(
300.094
300.135
300.117
300.143
300.207
300.107
300.136
300.251
300.215
300.084
300.11
300.265
300.291
300.192
300.071
300.111
300.277
300.339
300.295
300.167
300.069
300.109
300.263
300.363
300.358
300.27
300.151
300.059
300.101
300.242
300.365
300.413
300.345
300.235
300.133
300.058
300.089
300.222
300.357
300.44
300.415
300.323
300.211
300.121
300.053
300.094
300.218
300.349
300.454
300.471
300.398
300.285
300.193
300.116
300.052
300.09
300.204
300.321
300.45
300.503
300.465
300.368
300.262
300.178
300.109
300.047
300.086
300.194
300.313
300.444
300.517
300.516
300.446
300.327
300.235
300.167
300.103
300.045
300.074
300.184
300.298
300.403
300.525
300.55
300.51
300.402
300.302
300.221
300.158
300.099
300.046
300.071
300.172
300.282
300.38
300.529
300.574
300.557
300.48
300.373
300.285
300.21
300.151
300.096
300.044
300.067
300.165
300.275
300.353
300.512
300.588
300.592
300.534
300.444
300.345
300.268
300.201
300.144
300.091
300.04
300.067
300.153
300.262
300.364
300.504
300.593
300.621
300.589
300.504
300.407
300.321
300.252
300.194
300.141
300.092
300.043
300.072
300.143
300.249
300.336
300.476
300.588
300.64
300.632
300.568
300.471
300.384
300.305
300.241
300.183
300.136
300.085
300.042
300.071
300.152
300.242
300.342
300.469
300.574
300.648
300.665
300.622
300.534
300.442
300.356
300.292
300.233
300.179
300.133
300.086
300.042
300.064
300.151
300.226
300.307
300.443
300.563
300.648
300.685
300.663
300.589
300.498
300.413
300.338
300.282
300.228
300.177
300.129
300.086
300.039
300.068
300.152
300.231
300.314
300.437
300.533
300.642
300.698
300.699
300.645
300.564
300.469
300.393
300.328
300.27
300.223
300.174
300.129
300.086
300.039
300.064
300.146
300.229
300.312
300.388
300.53
300.638
300.705
300.725
300.693
300.618
300.522
300.45
300.374
300.316
300.265
300.218
300.17
300.129
300.086
300.04
300.062
300.144
300.216
300.31
300.37
300.529
300.619
300.706
300.743
300.733
300.671
300.583
300.499
300.424
300.364
300.304
300.26
300.213
300.169
300.128
300.084
300.041
300.061
300.135
300.214
300.291
300.386
300.516
300.613
300.699
300.753
300.76
300.722
300.643
300.554
300.475
300.407
300.353
300.3
300.253
300.211
300.168
300.123
300.082
300.041
300.065
300.133
300.222
300.3
300.397
300.487
300.6
300.699
300.762
300.781
300.759
300.696
300.608
300.526
300.455
300.393
300.342
300.295
300.251
300.208
300.166
300.127
300.084
300.042
300.06
300.141
300.223
300.293
300.391
300.488
300.581
300.696
300.762
300.798
300.789
300.747
300.661
300.574
300.504
300.442
300.384
300.335
300.288
300.247
300.206
300.163
300.128
300.086
300.041
300.059
300.144
300.221
300.297
300.395
300.477
300.577
300.687
300.762
300.807
300.82
300.784
300.713
300.628
300.552
300.486
300.428
300.376
300.331
300.285
300.247
300.204
300.167
300.129
300.087
300.042
300.059
300.144
300.216
300.301
300.389
300.471
300.573
300.671
300.761
300.81
300.837
300.816
300.762
300.676
300.594
300.527
300.471
300.41
300.369
300.324
300.285
300.242
300.205
300.169
300.129
300.089
300.044
300.059
300.143
300.222
300.305
300.373
300.465
300.574
300.665
300.756
300.818
300.855
300.847
300.806
300.723
300.646
300.576
300.507
300.457
300.407
300.365
300.322
300.284
300.242
300.207
300.171
300.132
300.09
300.045
300.064
300.142
300.213
300.296
300.385
300.467
300.572
300.66
300.737
300.815
300.862
300.87
300.842
300.772
300.694
300.619
300.554
300.496
300.436
300.398
300.355
300.32
300.279
300.243
300.21
300.173
300.135
300.093
300.047
300.06
300.133
300.219
300.306
300.375
300.457
300.569
300.659
300.735
300.827
300.875
300.891
300.871
300.815
300.745
300.669
300.6
300.54
300.485
300.439
300.395
300.356
300.316
300.279
300.246
300.211
300.174
300.139
300.097
300.049
300.065
300.139
300.213
300.299
300.383
300.479
300.545
300.66
300.73
300.823
300.881
300.906
300.899
300.856
300.785
300.714
300.644
300.583
300.53
300.475
300.436
300.391
300.35
300.311
300.279
300.247
300.213
300.179
300.142
300.102
300.053
300.061
300.141
300.223
300.3
300.394
300.48
300.535
300.671
300.737
300.82
300.888
300.921
300.923
300.888
300.83
300.749
300.687
300.625
300.568
300.518
300.464
300.422
300.392
300.352
300.311
300.281
300.252
300.218
300.185
300.149
300.107
300.055
300.064
300.141
300.223
300.301
300.39
300.475
300.547
300.667
300.744
300.809
300.891
300.932
300.94
300.922
300.862
300.794
300.729
300.666
300.607
300.554
300.507
300.469
300.419
300.383
300.352
300.317
300.286
300.254
300.222
300.191
300.154
300.113
300.06
300.065
300.14
300.219
300.308
300.389
300.486
300.559
300.636
300.745
300.817
300.902
300.944
300.96
300.948
300.902
300.844
300.765
300.707
300.636
300.596
300.548
300.497
300.459
300.407
300.386
300.35
300.317
300.288
300.258
300.228
300.197
300.16
300.118
300.032
300.071
300.059
300.145
300.215
300.315
300.395
300.485
300.549
300.621
300.721
300.819
300.899
300.951
300.975
300.972
300.94
300.882
300.801
300.744
300.689
300.632
300.585
300.537
300.497
300.455
300.416
300.379
300.351
300.321
300.292
300.265
300.236
300.204
300.16
300.103
300.134
300.035
300.072
300.066
300.149
300.228
300.317
300.388
300.474
300.56
300.638
300.716
300.831
300.891
300.958
300.988
300.992
300.969
300.917
300.856
300.784
300.726
300.665
300.622
300.576
300.529
300.496
300.448
300.414
300.38
300.354
300.325
300.298
300.272
300.244
300.199
300.218
300.16
300.189
300.186
300.107
300.138
300.036
300.077
300.067
300.14
300.225
300.308
300.385
300.482
300.555
300.627
300.718
300.826
300.891
300.961
301
301.011
300.996
300.951
300.9
300.827
300.766
300.707
300.658
300.612
300.565
300.526
300.489
300.443
300.414
300.381
300.356
300.33
300.305
300.279
300.237
300.256
300.214
300.166
300.209
300.192
300.113
300.145
300.038
300.082
300.065
300.147
300.235
300.319
300.39
300.484
300.544
300.621
300.72
300.817
300.892
300.958
301.011
301.026
301.018
300.983
300.932
300.869
300.796
300.747
300.687
300.64
300.601
300.554
300.519
300.476
300.435
300.414
300.384
300.361
300.336
300.312
300.274
300.292
300.237
300.259
300.231
300.174
300.216
300.201
300.12
300.153
300.041
300.088
300.064
300.141
300.228
300.311
300.382
300.466
300.544
300.635
300.729
300.812
300.893
300.958
301.022
301.044
301.041
301.012
300.964
300.907
300.84
300.785
300.725
300.678
300.636
300.602
300.544
300.522
300.47
300.432
300.416
300.386
300.366
300.343
300.308
300.325
300.279
300.298
300.253
300.273
300.239
300.183
300.226
300.21
300.127
300.162
300.045
300.095
300.058
300.141
300.218
300.313
300.397
300.48
300.565
300.644
300.725
300.815
300.9
300.964
301.031
301.064
301.06
301.04
300.996
300.942
300.879
300.819
300.76
300.717
300.676
300.633
300.596
300.54
300.519
300.471
300.433
300.42
300.392
300.372
300.341
300.357
300.316
300.334
300.292
300.311
300.261
300.282
300.249
300.192
300.236
300.221
300.136
300.172
300.049
300.103
300.067
300.149
300.233
300.322
300.388
300.473
300.559
300.635
300.716
300.8
300.896
300.965
301.031
301.077
301.081
301.064
301.03
300.972
300.919
300.855
300.806
300.755
300.703
300.664
300.623
300.59
300.539
300.513
300.475
300.437
300.424
300.4
300.374
300.394
300.352
300.373
300.33
300.351
300.302
300.324
300.272
300.294
300.26
300.203
300.248
300.233
300.146
300.182
300.054
300.112
300.069
300.15
300.235
300.315
300.39
300.48
300.554
300.611
300.715
300.8
300.898
300.961
301.031
301.086
301.099
301.088
301.061
301.01
300.948
300.89
300.837
300.79
300.742
300.692
300.646
300.613
300.586
300.532
300.505
300.477
300.441
300.436
300.416
300.45
300.401
300.441
300.38
300.424
300.351
300.394
300.319
300.355
300.285
300.314
300.275
300.216
300.263
300.248
300.156
300.195
300.06
300.122
300.064
300.149
300.234
300.306
300.396
300.481
300.552
300.62
300.719
300.794
300.888
300.964
301.031
301.094
301.114
301.109
301.085
301.043
300.991
300.926
300.866
300.823
300.77
300.724
300.686
300.638
300.604
300.582
300.529
300.501
300.483
300.465
300.485
300.538
300.502
300.59
300.501
300.631
300.473
300.621
300.422
300.559
300.362
300.464
300.308
300.37
300.3
300.23
300.288
300.272
300.168
300.208
300.067
300.133
300.064
300.143
300.218
300.31
300.396
300.453
300.549
300.621
300.703
300.791
300.877
300.963
301.033
301.102
301.128
301.128
301.109
301.072
301.021
300.959
300.903
300.854
300.81
300.763
300.722
300.677
300.632
300.599
300.581
300.533
300.503
300.52
300.589
300.651
300.7
300.835
300.816
301.057
300.873
301.238
300.826
301.277
300.687
301.128
300.517
300.851
300.375
300.567
300.372
300.251
300.359
300.334
300.181
300.226
300.075
300.145
300.063
300.141
300.217
300.3
300.379
300.457
300.547
300.622
300.693
300.782
300.869
300.958
301.035
301.103
301.138
301.145
301.131
301.101
301.056
301.001
300.941
300.882
300.843
300.793
300.746
300.713
300.67
300.629
300.598
300.583
300.54
300.564
300.728
300.7
300.971
301.141
301.338
301.641
301.686
302.186
301.888
302.598
301.848
302.737
301.52
302.533
301.031
301.955
300.607
301.195
300.62
300.299
300.597
300.535
300.197
300.259
300.084
300.158
300.066
300.144
300.219
300.297
300.378
300.443
300.534
300.624
300.689
300.773
300.861
300.952
301.033
301.101
301.146
301.16
301.15
301.124
301.086
301.034
300.974
300.92
300.87
300.827
300.776
300.74
300.707
300.664
300.624
300.597
300.592
300.646
301.208
301.258
301.531
301.938
302.231
302.687
303.159
303.319
304.005
303.683
304.59
303.681
304.805
303.251
304.599
302.373
303.913
301.313
302.701
301.352
300.445
301.293
301.125
300.218
300.347
300.092
300.173
300.071
300.15
300.219
300.292
300.373
300.434
300.527
300.615
300.688
300.765
300.854
300.943
301.03
301.102
301.153
301.174
301.172
301.147
301.113
301.06
301.004
300.945
300.902
300.85
300.807
300.761
300.737
300.701
300.659
300.63
300.609
300.661
301.307
302.847
302.993
302.48
302.699
303.577
303.945
304.613
305.131
305.397
306.096
305.827
306.72
305.847
306.944
305.412
306.748
304.45
306.075
302.898
304.812
302.933
300.878
302.778
302.414
300.265
300.609
300.1
300.196
300.081
300.163
300.228
300.298
300.379
300.439
300.526
300.612
300.684
300.759
300.844
300.931
301.024
301.1
301.155
301.186
301.189
301.173
301.139
301.093
301.042
300.979
300.929
300.885
300.839
300.794
300.755
300.732
300.694
300.648
300.628
300.681
301.284
303.066
303.121
304.614
304.725
304.238
304.461
305.557
305.906
306.678
307.15
307.474
308.108
307.892
308.706
307.906
308.905
307.489
308.705
306.559
308.062
304.992
306.852
304.983
301.884
304.742
304.231
300.388
301.261
300.105
300.238
300.096
300.189
300.247
300.308
300.381
300.44
300.512
300.603
300.676
300.749
300.835
300.925
301.02
301.098
301.159
301.197
301.206
301.194
301.162
301.127
301.074
301.022
300.957
300.913
300.872
300.83
300.783
300.755
300.727
300.68
300.653
300.701
301.295
303.107
302.922
304.777
304.775
306.452
306.509
306.166
306.344
307.522
307.812
308.627
309.039
309.395
309.982
309.783
310.565
309.77
310.737
309.351
310.499
308.455
309.84
306.972
308.68
306.897
303.459
306.59
306.019
300.701
302.454
300.114
300.342
300.09
300.211
300.281
300.33
300.387
300.449
300.51
300.603
300.657
300.728
300.827
300.913
301.009
301.094
301.16
301.204
301.22
301.215
301.19
301.151
301.106
301.053
300.994
300.943
300.903
300.862
300.822
300.779
300.754
300.718
300.676
300.715
301.283
303.83
304.756
304.895
306.502
306.465
308.181
308.17
308.014
308.133
309.36
309.596
310.47
310.862
311.259
311.865
311.646
312.484
311.585
312.649
311.098
312.324
310.167
311.55
308.74
310.335
308.614
305.159
308.261
307.662
301.376
303.943
300.138
300.58
300.153
300.291
300.365
300.409
300.462
300.517
300.595
300.649
300.72
300.811
300.905
301.002
301.088
301.16
301.211
301.234
301.231
301.211
301.176
301.132
301.078
301.021
300.971
300.932
300.894
300.853
300.813
300.781
300.753
300.713
300.727
301.252
303.612
306.181
306.046
306.385
306.307
308.123
308.026
309.791
309.737
309.747
309.805
311.165
311.373
312.374
312.787
313.266
313.883
313.692
314.536
313.566
314.754
312.94
314.367
311.836
313.376
310.347
311.96
310.174
306.753
309.792
309.169
302.427
305.451
300.161
300.995
300.18
300.359
300.442
300.487
300.526
300.59
300.649
300.712
300.796
300.893
300.993
301.083
301.159
301.213
301.243
301.249
301.232
301.201
301.159
301.112
301.056
301.004
300.958
300.924
300.886
300.844
300.806
300.784
300.748
300.745
301.19
303.348
305.916
305.588
307.572
307.414
307.892
307.742
309.617
309.45
311.434
311.313
311.485
311.479
313.086
313.264
314.271
314.444
314.915
314.994
315.356
315.403
315.589
315.873
315.009
316.214
313.634
315.379
311.923
313.718
311.69
308.23
311.258
310.592
303.692
306.91
300.172
301.53
300.208
300.443
300.527
300.538
300.589
300.649
300.704
300.784
300.878
300.992
301.074
301.155
301.212
301.253
301.264
301.254
301.227
301.184
301.138
301.09
301.038
300.99
300.948
300.917
300.88
300.837
300.803
300.784
300.772
301.122
303.081
306.218
307.204
307.233
308.809
308.594
309.251
309.035
311.109
310.855
313.189
312.993
313.316
313.28
314.502
314.499
314.946
314.854
315.276
315.006
315.708
315.272
316.291
315.846
316.669
316.688
315.62
317.049
313.618
315.73
314.662
312.368
313.417
308.613
309.885
311.827
312.936
313.196
312.604
311.043
312.224
305.069
309.323
308.674
307.218
300.196
302.252
300.284
300.547
300.572
300.589
300.641
300.698
300.775
300.863
300.982
301.071
301.149
301.214
301.261
301.276
301.272
301.247
301.212
301.167
301.116
301.07
301.023
300.98
300.941
300.912
300.872
300.832
300.811
300.803
301.069
302.834
305.938
308.036
307.713
308.368
308.198
309.948
309.649
310.566
310.259
312.709
312.364
314.422
314.351
314.48
314.456
314.733
314.624
314.609
314.169
314.432
313.671
314.802
313.641
315.797
314.291
316.984
316.384
315.559
316.587
317.338
317.266
317.481
315.679
314.426
315.599
316.654
314.27
310.568
313.724
314.024
313.368
311.762
312.957
307.946
305.352
307.143
310.006
309.382
300.515
306.187
304.764
302.602
300.526
300.63
300.611
300.649
300.7
300.766
300.849
300.971
301.072
301.141
301.212
301.261
301.289
301.289
301.271
301.24
301.191
301.147
301.102
301.055
301.012
300.971
300.936
300.907
300.866
300.827
300.829
301.04
302.607
305.672
308
308.858
308.75
309.361
309.112
311.106
310.685
311.968
311.541
314.192
313.88
314.604
314.681
314.564
314.571
313.811
313.552
313.169
312.856
313.108
312.94
313.264
313.034
314.782
313.958
313.553
313.233
316.682
315.742
315.613
314.766
317.409
317.68
316.886
317.497
316.62
315.388
316.509
317.46
315.176
311.26
314.897
314.563
314.174
312.488
313.733
308.721
308.033
310.702
310.115
303.597
300.541
301.903
307.278
306.349
300.692
300.663
300.666
300.705
300.766
300.837
300.957
301.069
301.136
301.211
301.262
301.3
301.304
301.291
301.261
301.22
301.175
301.132
301.088
301.044
301.003
300.965
300.933
300.901
300.861
300.847
301.035
302.397
305.396
307.709
309.067
308.736
309.604
309.331
310.288
309.933
312.367
311.794
313.45
312.933
314.749
314.751
313.682
313.983
313.469
313.533
312.577
312.282
312.845
312.7
313.16
313.51
313.192
313.28
313.554
313.968
314.022
313.55
313.346
313.335
315.998
315.093
314.893
314.155
317.814
317.71
316.265
317.137
317.454
316.338
317.382
317.932
316.106
311.969
315.803
315.441
315.018
313.238
314.543
309.534
308.984
311.416
310.868
305.326
301.49
304.038
308.48
308.033
300.739
300.704
300.717
300.768
300.83
300.943
301.064
301.131
301.207
301.262
301.31
301.319
301.308
301.286
301.248
301.204
301.16
301.118
301.075
301.034
300.996
300.961
300.931
300.903
300.874
301.048
302.254
305.082
307.423
308.505
309.481
309.1
310.288
309.871
311.247
310.746
313.676
312.992
314.637
314.262
314.383
314.785
312.08
312.498
312.005
311.936
312.426
312.027
313.78
313.69
314.395
314.848
315.176
315.445
313.579
314.004
314.548
315.13
313.711
313.537
313.606
313.934
315.363
314.363
314.634
313.933
317.905
317.413
315.692
316.581
318.012
317.242
318.038
318.09
317.016
312.703
316.715
316.337
315.89
314.018
315.383
310.356
309.935
312.151
311.619
307.879
305.787
308.495
309.684
309.602
300.766
300.745
300.775
300.828
300.93
301.058
301.126
301.203
301.261
301.318
301.333
301.328
301.307
301.274
301.232
301.188
301.146
301.105
301.065
301.027
300.991
300.96
300.931
300.917
301.074
302.205
304.793
307.148
307.986
308.649
308.152
309.787
309.209
310.973
310.37
312.288
311.61
314.787
314.172
315.016
315.009
313.167
313.95
311.079
311.321
311.517
311.129
313.152
312.313
316.069
315.57
315.686
316.162
316.495
316.605
314.477
315.126
315.817
316.473
313.781
313.894
314.314
314.929
314.963
314.205
314.515
314.077
317.713
316.939
315.346
316.07
318.253
317.996
318.363
318.013
317.844
313.464
317.584
317.213
316.768
314.828
316.24
311.147
310.825
312.9
312.366
309.997
308.669
310.606
310.753
310.848
300.794
300.793
300.83
300.922
301.052
301.122
301.198
301.261
301.324
301.345
301.345
301.328
301.3
301.26
301.216
301.173
301.134
301.095
301.057
301.021
300.989
300.962
300.963
301.137
302.217
304.62
306.912
307.65
307.148
308.308
307.484
309.982
309.126
311.679
310.837
313.372
312.525
315.239
315.045
314.686
315.16
311.995
312.972
310.613
310.899
311.391
310.763
314.325
312.676
317.683
317.301
315.857
316.757
317.033
317.462
317.728
317.796
315.671
316.444
317.173
317.797
314.217
314.683
315.36
316.167
314.886
314.404
314.776
314.555
317.32
316.489
315.298
315.77
318.285
318.433
318.495
317.719
318.421
314.248
318.303
318.03
317.616
315.66
317.089
311.918
311.663
313.666
313.128
311.265
305.338
309.967
311.662
311.756
300.827
300.842
300.918
301.046
301.117
301.193
301.262
301.325
301.355
301.36
301.347
301.324
301.286
301.243
301.2
301.16
301.123
301.085
301.05
301.018
300.995
301.016
301.258
302.278
304.58
306.762
307.473
306.707
305.92
305.508
307.666
306.658
310.051
308.827
312.379
311.25
314.398
313.436
315.402
315.427
314.018
314.902
311.588
312.565
310.492
310.933
311.268
310.556
315.031
313.884
312.309
318.311
317.746
315.911
316.932
318.275
318.583
318.684
318.615
317.003
317.787
318.457
318.976
315.052
315.762
316.616
317.497
315.179
314.911
315.298
315.411
316.936
316.227
315.615
315.746
318.115
318.643
318.455
317.402
318.725
315.048
318.734
318.635
318.363
316.493
317.896
312.696
312.45
314.443
313.894
311.71
301.905
307.547
312.401
312.351
300.865
300.919
301.04
301.112
301.188
301.261
301.326
301.364
301.374
301.365
301.346
301.312
301.27
301.227
301.186
301.149
301.113
301.078
301.047
301.032
301.096
301.458
302.458
304.598
306.709
307.404
306.619
304.635
304.685
304.099
306.776
305.534
309.965
308.311
313.013
311.566
315.131
314.261
315.408
315.663
313.625
314.651
311.755
312.75
310.636
311.425
310.815
310.412
314.842
313.734
311.967
310.89
318.716
317.948
315.708
316.905
319.323
319.468
319.444
319.205
318.323
319.024
319.568
319.942
316.149
317.022
317.936
318.787
315.712
315.775
316.157
316.503
316.711
316.225
316.157
316.084
317.866
318.718
318.298
317.21
318.877
315.851
318.966
318.977
318.867
317.29
318.571
313.454
313.158
315.215
314.639
311.195
301.377
306.442
312.965
312.531
300.927
301.037
301.107
301.184
301.261
301.326
301.371
301.386
301.383
301.365
301.336
301.297
301.253
301.211
301.173
301.139
301.105
301.076
301.073
301.216
301.746
302.797
304.679
306.711
307.395
306.644
304.713
302.777
302.842
303.385
302.9
305.776
304.319
309.74
307.662
313.515
311.749
315.528
314.889
315.52
315.876
313.768
314.738
312.438
313.443
311.106
312.263
310.452
310.226
310.278
314.356
313.057
311.122
310.344
318.95
317.993
315.279
316.754
320.127
320.146
319.988
319.599
319.512
320.071
320.457
320.676
317.397
318.324
319.194
319.933
316.56
316.86
317.226
317.742
316.731
316.573
316.989
316.624
317.699
318.676
318.168
317.234
318.944
316.63
319.09
319.165
319.154
318.03
319.001
314.154
313.752
315.96
315.336
310.403
301.986
306.648
313.328
312.275
301.039
301.103
301.182
301.26
301.326
301.376
301.397
301.398
301.384
301.359
301.323
301.28
301.237
301.198
301.163
301.13
301.102
301.124
301.389
302.112
303.227
304.89
306.742
307.394
306.72
304.903
302.48
301.715
301.653
302.457
301.924
305.026
303.453
309.482
307.121
313.856
311.818
315.8
315.252
315.795
316.121
314.364
315.165
313.39
314.344
311.113
311.792
312.664
310.024
309.987
310.517
309.971
313.726
312.286
310.359
309.732
319.048
317.944
314.858
316.559
320.733
320.667
320.387
319.859
320.503
320.897
321.14
321.24
318.676
319.553
320.297
320.87
317.61
318.081
318.423
318.998
317.072
317.109
318.015
317.416
317.714
318.587
318.164
317.545
318.933
317.348
319.159
319.265
319.3
318.626
319.236
314.762
314.206
316.651
315.955
309.798
303.798
306.965
313.435
311.803
301.104
301.175
301.254
301.324
301.381
301.407
301.413
301.401
301.382
301.348
301.307
301.264
301.223
301.186
301.153
301.127
301.18
301.611
302.522
303.711
305.295
306.833
307.389
306.73
305.003
302.605
301.155
301.206
301.261
301.136
302.16
301.565
304.769
303.181
309.395
306.912
314.023
311.868
316.028
315.451
316.184
316.346
315.142
315.768
313.811
314.723
311.04
311.703
312.057
312.747
309.559
309.615
310.363
309.739
313.081
311.507
309.618
309.157
319.01
317.786
314.337
316.185
321.216
321.021
320.611
319.947
321.265
321.515
321.645
321.651
319.873
320.613
321.181
321.569
318.777
319.31
319.619
320.161
317.577
317.884
319.136
318.421
317.992
318.563
318.393
318.018
318.91
318.002
319.19
319.317
319.361
319.021
319.355
315.258
314.501
317.262
316.475
309.365
302.478
305.773
313.355
311.423
301.177
301.256
301.329
301.386
301.415
301.426
301.419
301.401
301.371
301.333
301.291
301.249
301.21
301.174
301.151
301.237
301.845
302.936
304.212
305.772
306.993
307.368
306.693
304.991
302.638
301.145
300.907
300.882
301.159
300.979
302.267
301.533
305.185
303.488
309.651
307.287
314.109
312.035
316.195
315.527
316.378
316.434
315.529
316.117
313.289
313.831
314.294
310.659
311.376
311.253
311.952
309.095
309.236
309.932
309.27
312.437
310.772
308.921
308.547
318.874
317.467
313.749
315.732
321.504
321.183
320.66
319.906
321.808
321.941
321.943
321.856
320.889
321.439
321.813
322.031
319.924
320.434
320.687
321.129
318.305
318.815
320.186
319.468
318.414
318.726
318.732
318.678
318.979
318.533
319.177
319.304
319.381
319.235
319.401
315.647
314.661
317.762
316.906
308.602
300.639
303.454
313.209
310.989
301.257
301.331
301.389
301.423
301.438
301.435
301.419
301.394
301.358
301.318
301.275
301.234
301.196
301.175
301.282
302.047
303.314
304.696
306.168
307.076
307.303
306.552
304.86
302.553
301.171
300.808
300.854
300.814
301.211
300.953
302.878
301.802
306.211
304.407
310.29
308.187
314.208
312.38
316.211
315.506
316.08
316.154
315.118
315.794
312.607
313.251
312.792
312.462
309.805
310.531
309.919
310.608
308.507
308.742
309.102
308.471
311.739
310.037
308.145
307.808
318.599
317.086
313.106
315.22
321.591
321.202
320.616
319.78
322.135
322.136
322.073
321.867
321.651
321.993
322.178
322.245
320.866
321.334
321.435
321.811
319.15
319.74
320.956
320.351
318.963
318.949
319.104
319.381
319.077
318.886
319.177
319.286
319.369
319.326
319.393
315.939
314.733
318.187
317.258
307.302
300.258
301.937
313.017
310.318
301.333
301.392
301.432
301.45
301.45
301.436
301.415
301.383
301.343
301.301
301.259
301.222
301.199
301.313
302.184
303.623
305.116
306.437
307.078
307.152
306.215
304.497
302.327
301.152
300.82
300.75
300.785
300.744
300.829
301.338
300.976
303.421
302.104
307.172
305.207
310.97
309.107
314.214
312.717
315.969
315.315
314.683
314.949
312.872
313.997
311.269
311.899
311.565
310.86
308.546
309.228
308.159
308.817
307.772
307.984
307.912
307.368
310.977
309.224
307.265
306.912
318.323
316.68
312.413
314.67
321.572
321.119
320.467
319.54
322.243
322.194
322.038
321.788
322.106
322.252
322.291
322.283
321.461
321.867
321.829
322.14
319.878
320.406
321.281
320.888
319.422
319.1
319.283
319.815
319.095
319.077
319.107
319.198
319.306
319.34
319.344
316.152
314.738
318.52
317.533
305.764
300.071
300.697
312.736
309.409
301.397
301.439
301.462
301.465
301.451
301.434
301.404
301.367
301.326
301.286
301.251
301.227
301.338
302.26
303.845
305.424
306.603
307.048
306.862
305.723
303.961
302.069
301.1
300.835
300.755
300.757
300.727
300.721
300.819
301.358
300.979
303.517
302.151
307.413
305.375
311.08
309.356
313.719
312.536
314.992
314.572
311.335
312.117
309.549
309.784
309.775
309.488
310.17
309.038
308.446
306.929
307.529
306.065
306.632
306.857
306.992
306.408
306.003
310.168
308.338
306.284
305.873
318.072
316.365
311.771
314.228
321.451
320.959
320.281
319.367
322.238
322.083
321.852
321.58
322.251
322.266
322.238
322.152
321.578
322.054
321.783
322.145
320.204
320.576
321.131
320.906
319.556
319.117
319.272
319.858
319.046
319.171
318.997
319.044
319.139
319.312
319.213
316.294
314.704
318.717
317.754
303.967
300.033
300.235
312.308
308.345
301.447
301.473
301.48
301.472
301.449
301.424
301.392
301.356
301.32
301.285
301.259
301.365
302.273
303.978
305.636
306.657
306.963
306.492
305.174
303.397
301.815
301.055
300.847
300.777
300.709
300.747
300.71
300.708
300.804
301.294
300.951
303.227
302.002
306.79
304.917
310.039
308.556
312.083
311.196
312.469
312.551
305.576
307.239
307.386
308.192
305.57
305.342
307.227
307.839
306.655
305.986
305.082
305.547
303.886
304.33
305.775
305.792
304.72
304.513
309.361
307.415
305.245
304.73
317.889
316.192
311.39
313.996
321.226
320.741
320.054
319.126
322.054
321.824
321.553
321.243
322.153
322.085
322.002
321.902
321.205
321.891
321.201
321.893
320.156
320.326
320.014
320.35
319.491
319.042
319.098
319.594
318.879
319.168
318.735
318.725
318.897
319.226
319.018
316.433
314.613
318.804
317.982
302.402
300.02
300.082
311.808
307.181
301.484
301.495
301.49
301.473
301.449
301.423
301.393
301.361
301.328
301.302
301.403
302.274
304.026
305.753
306.654
306.825
306.112
304.654
302.896
301.604
301.025
300.861
300.796
300.739
300.681
300.691
300.693
300.722
300.688
300.764
301.104
300.869
302.439
301.586
305.117
303.677
307.613
306.498
308.855
308.422
308.259
308.729
304.083
302.005
302.255
302.214
304.322
304.841
303.328
304.822
305.378
303.797
303.297
303.225
303.506
301.974
302.196
304.541
304.488
303.068
303.066
308.695
306.48
304.232
303.584
317.676
316.037
311.242
313.861
320.906
320.473
319.82
318.924
321.685
321.451
321.252
320.966
321.772
321.656
321.449
321.254
319.766
321.049
319.699
320.625
319.591
319.331
319.409
319.281
319.112
318.753
318.549
318.847
318.405
319.097
318.201
318.209
318.383
318.987
318.332
316.509
314.46
318.789
318.119
300.974
300.013
300.048
311.129
305.528
301.512
301.509
301.494
301.477
301.459
301.442
301.422
301.397
301.375
301.47
302.281
304.027
305.772
306.639
306.687
305.787
304.244
302.536
301.46
301.012
300.877
300.817
300.767
300.702
300.674
300.672
300.681
300.693
300.67
300.716
300.885
300.77
301.518
301.11
302.957
302.156
304.359
303.748
304.494
304.65
303.203
304.05
301.733
301.233
301.524
301.089
300.984
302.207
302.704
301.501
302.491
302.863
301.855
301.629
301.788
301.845
301.279
301.312
303.272
303.115
301.805
301.859
308.39
305.785
303.528
302.689
317.635
316.07
311.299
313.921
320.594
320.158
319.59
318.816
321.084
320.904
320.672
320.427
319.987
319.93
319.844
319.765
314.298
319.419
314.458
319.398
318.455
318.804
314.279
314.063
318.191
317.704
316.989
317.7
317.351
318.918
317.161
317.131
317.317
318.628
318.2
316.686
314.279
318.764
318.243
300.496
300.008
300.027
310.567
303.71
301.537
301.521
301.514
301.521
301.538
301.549
301.544
301.524
301.61
302.317
304.018
305.764
306.608
306.578
305.557
303.988
302.354
301.385
301.01
300.895
300.839
300.791
300.731
300.684
300.661
300.661
300.673
300.669
300.654
300.676
300.728
300.692
300.925
300.799
301.374
301.123
301.783
301.619
301.617
301.749
301.141
301.385
301.114
300.99
300.971
300.907
300.919
301.239
301.336
301.08
301.373
301.476
301.183
301.154
301.307
301.282
301.174
301.145
302.224
301.99
301.377
301.467
308.361
305.548
303.352
302.414
317.718
316.387
311.866
314.401
320.171
319.872
319.357
318.729
319.788
319.767
319.771
319.664
314.33
314.444
314.701
314.626
310.026
314.527
310.069
314.793
313.728
314.357
309.904
309.849
317.078
316.487
313.07
313.468
316.163
318.824
316.063
316.282
317.462
318.493
317.708
316.775
314.113
318.681
318.303
300.279
300.095
300.052
309.526
303.164
301.596
301.59
301.679
301.753
301.856
301.867
301.818
301.859
302.431
304.021
305.737
306.573
306.506
305.441
303.903
302.321
301.367
301.019
300.915
300.858
300.815
300.762
300.707
300.671
300.665
300.651
300.653
300.65
300.642
300.647
300.654
300.647
300.698
300.67
300.794
300.742
300.838
300.836
300.767
300.805
300.85
300.805
301.026
301.146
300.98
300.901
301.079
301.09
301.077
301.102
301.14
301.145
301.125
301.16
301.255
301.203
301.44
301.337
301.893
301.629
301.361
301.452
308.888
305.72
303.79
302.528
317.752
316.767
313.043
315.34
319.529
319.303
318.889
318.667
314.796
314.774
314.955
314.918
310.259
310.321
310.557
310.493
305.555
310.09
305.617
310.376
309.68
309.832
305.493
305.47
313.571
312.837
309.284
309.503
312.636
318.507
312.5
312.498
316.559
312.322
317.955
317.052
316.997
313.912
318.646
318.35
300.147
394.377
300.433
309.065
301.961
301.855
301.919
302.223
302.292
302.297
302.2
302.188
302.661
304.048
305.728
306.546
306.47
305.433
303.924
302.363
301.384
301.035
300.932
300.877
300.839
300.792
300.733
300.695
300.661
300.659
300.652
300.642
300.645
300.633
300.631
300.627
300.618
300.622
300.615
300.615
300.614
300.615
300.592
300.605
300.65
300.597
301.347
301.196
301.004
300.862
301.387
301.937
301.436
301.801
301.358
301.219
301.69
301.281
301.203
301.528
301.712
301.63
301.522
302.432
302.201
301.909
301.633
301.753
301.856
310.306
306.831
305.75
303.43
317.809
316.933
314.784
316.2
315.03
315.068
318.133
318.208
310.719
310.704