/*--------------------------------*- C++ -*----------------------------------*\
  =========                 |
  \\      /  F ield         | OpenFOAM: The Open Source CFD Toolbox
   \\    /   O peration     | Website:  https://openfoam.org
    \\  /    A nd           | Version:  dev
     \\/     M anipulation  |
\*---------------------------------------------------------------------------*/
FoamFile
{
    version     2.0;
    format      ascii;
    class       volVectorField;
    location    "2500";
    object      U;
}
// * * * * * * * * * * * * * * * * * * * * * * * * * * * * * * * * * * * * * //

dimensions      [0 1 -1 0 0 0 0];

internalField   nonuniform List<vector> 
9844
(
(0.00449148 0.00697337 0)
(0.0107852 0.00632792 1.51796e-27)
(0.00449588 0.0184419 -4.16559e-27)
(0.0150487 0.00533689 0)
(0.0119171 0.01872 3.04103e-27)
(0.00390809 0.0267994 -4.94675e-27)
(0.0185275 0.00436735 4.61081e-28)
(0.0169055 0.0180964 3.07941e-27)
(0.0115681 0.0277835 0)
(0.00328569 0.0336704 -3.00143e-28)
(0.0213888 0.00362766 -2.07054e-28)
(0.0203532 0.016347 2.68261e-27)
(0.0176839 0.0284801 4.35458e-27)
(0.0102912 0.0346801 -8.33794e-28)
(0.00289117 0.0398395 0)
(0.0238001 0.00303649 -8.48852e-28)
(0.0228629 0.0139731 1.09342e-27)
(0.022262 0.0281225 4.5846e-28)
(0.0169031 0.0362185 -1.2783e-27)
(0.00892109 0.0405984 0)
(0.00259427 0.0454719 -2.96528e-27)
(0.0259753 0.00259296 0)
(0.0249605 0.0117001 -1.44287e-27)
(0.0254714 0.0266153 -6.51887e-32)
(0.022509 0.0373421 -2.40071e-27)
(0.0151753 0.0421194 0)
(0.00792974 0.0460591 -2.50431e-27)
(0.00235382 0.0505525 -3.18256e-27)
(0.0280706 0.00225832 -2.11665e-28)
(0.0268942 0.00981803 2.30425e-29)
(0.0276436 0.0243174 1.75742e-27)
(0.0269032 0.0374564 4.39284e-32)
(0.0212392 0.0439875 -6.90325e-28)
(0.0134487 0.0472896 -5.58226e-28)
(0.00717355 0.0510261 -5.79561e-27)
(0.00215425 0.0552699 -2.97586e-27)
(0.0300946 0.00202605 -2.05835e-28)
(0.0287345 0.00843228 1.35397e-28)
(0.0291861 0.0216169 -1.81151e-27)
(0.0300448 0.0363755 1.05509e-27)
(0.0265744 0.0455215 0)
(0.0191606 0.0491377 -7.45599e-28)
(0.0121 0.0520275 1.1276e-28)
(0.00653261 0.055674 -4.75085e-27)
(0.00197418 0.0595942 -2.93429e-27)
(0.0319493 0.00186438 -5.34625e-31)
(0.0305549 0.00755173 8.21262e-28)
(0.0305194 0.0188765 -2.11183e-27)
(0.0321323 0.0343094 -1.24077e-28)
(0.030886 0.0461707 -2.51701e-37)
(0.0248128 0.0513083 0)
(0.017175 0.0535778 -1.15956e-27)
(0.0109888 0.0565227 0)
(0.00596969 0.0599604 -6.82609e-28)
(0.00180558 0.0636056 0)
(0.0336679 0.00173138 8.04503e-28)
(0.0323253 0.00694531 6.43336e-28)
(0.0318499 0.0164679 -4.6129e-28)
(0.03351 0.0315875 2.25348e-28)
(0.0340863 0.0456816 -1.08666e-27)
(0.0299812 0.0532491 -8.6148e-29)
(0.0224399 0.0556973 -1.49515e-27)
(0.0155391 0.0578255 0)
(0.0100233 0.0607073 1.37299e-27)
(0.00545512 0.0639398 0)
(0.00165283 0.0672804 1.76868e-27)
(0.0353012 0.00160411 7.89346e-28)
(0.0340172 0.00642669 0)
(0.0332454 0.0146655 9.62277e-29)
(0.0344625 0.0285082 9.24801e-28)
(0.0362814 0.0440857 -1.13781e-27)
(0.0342846 0.0544561 0)
(0.0277621 0.0581699 9.18244e-29)
(0.0202361 0.0595993 -1.95299e-28)
(0.0141667 0.0618341 -9.30604e-28)
(0.00915959 0.0646201 2.58368e-28)
(0.00498719 0.0675832 8.31764e-28)
(0.00151176 0.0706943 -2.07495e-32)
(0.0368944 0.00148868 0)
(0.0356201 0.00593105 0)
(0.034748 0.0134633 2.01545e-29)
(0.0353469 0.0254184 1.00328e-27)
(0.0376904 0.0416952 -1.32376e-28)
(0.0376043 0.0546152 -1.2201e-27)
(0.0327715 0.0605564 3.55846e-28)
(0.025132 0.0618872 -9.58586e-29)
(0.0183981 0.0633598 -2.57852e-27)
(0.0129431 0.0656476 2.43472e-27)
(0.00836978 0.06822 -3.80373e-28)
(0.00455043 0.0709806 0)
(0.00137111 0.0738464 -1.25729e-27)
(0.0384344 0.00139967 0)
(0.0371541 0.00548897 1.20578e-27)
(0.0363078 0.0125463 0)
(0.0363587 0.0227003 3.72025e-29)
(0.0385594 0.0388089 -2.46093e-28)
(0.039966 0.0536834 -7.70967e-28)
(0.0371117 0.0623474 -6.82691e-28)
(0.0301389 0.06458 -9.62738e-28)
(0.022758 0.0653489 -1.653e-27)
(0.0167897 0.0670161 -1.49437e-27)
(0.0118205 0.0691788 2.3568e-27)
(0.00762916 0.0715787 -7.90731e-28)
(0.00413404 0.0741218 0)
(0.00123729 0.0767164 0)
(0.0399028 0.00133369 0)
(0.0386298 0.00515789 1.1795e-27)
(0.037783 0.0117138 1.52825e-29)
(0.0374972 0.0206131 0)
(0.0391485 0.0356753 0)
(0.0414971 0.0518055 0)
(0.0405622 0.0631979 1.08958e-27)
(0.0350119 0.0673301 -1.09864e-27)
(0.027319 0.0678272 -3.83353e-28)
(0.0207152 0.0687614 -1.72877e-27)
(0.015328 0.0704478 2.06442e-27)
(0.0107714 0.0724841 -7.94007e-28)
(0.00692269 0.0746922 -5.31926e-28)
(0.00373192 0.0769773 0)
(0.00110718 0.0793418 0)
(0.0413183 0.00128011 0)
(0.0400628 0.00491266 -4.65619e-30)
(0.0391466 0.0109309 0)
(0.0387689 0.0191356 2.62337e-29)
(0.0397566 0.0325863 -4.86598e-29)
(0.0424217 0.0492684 0)
(0.0431116 0.0629778 1.32692e-27)
(0.0393682 0.0696833 0)
(0.0320371 0.0707416 0)
(0.0247951 0.0709193 -1.5886e-27)
(0.0188987 0.0720465 8.62558e-28)
(0.013963 0.073677 3.76218e-28)
(0.00977021 0.0755631 2.22162e-27)
(0.00624715 0.0775315 8.82641e-28)
(0.00333207 0.0796026 -6.49554e-28)
(0.000976664 0.0817305 1.14602e-27)
(0.0426049 0.0012317 -1.58523e-30)
(0.0414408 0.00471802 0)
(0.0404775 0.0102425 -2.381e-29)
(0.0400771 0.0179584 0)
(0.0405592 0.0298204 0)
(0.042981 0.0463235 -6.37211e-29)
(0.0448572 0.0617564 0)
(0.0429557 0.0712729 0)
(0.0366931 0.0738328 0)
(0.0290418 0.0735524 -3.07038e-27)
(0.0225632 0.0740153 -3.84812e-28)
(0.0172152 0.0751615 0)
(0.0126777 0.0766981 -7.33027e-28)
(0.00881563 0.0783756 2.9317e-27)
(0.00558607 0.0801511 -1.27286e-27)
(0.00294019 0.0819814 1.02157e-27)
(0.000847976 0.0838661 6.71093e-28)
(0.0437291 0.00117125 7.11795e-28)
(0.0427298 0.00456215 2.83407e-36)
(0.0417983 0.00964487 0)
(0.0413394 0.0168932 -4.28677e-29)
(0.041484 0.0275962 0)
(0.0433943 0.0432005 2.6541e-27)
(0.0459565 0.0597261 2.84602e-27)
(0.0457109 0.0718792 0)
(0.0410063 0.0767156 -6.95539e-28)
(0.033438 0.0766228 -1.58578e-28)
(0.0263598 0.0763805 -1.19191e-27)
(0.0205351 0.0769759 3.79888e-28)
(0.0156327 0.0780964 -7.523e-28)
(0.0114445 0.0794807 -7.08899e-28)
(0.00788739 0.0809917 -1.85738e-27)
(0.00492533 0.0825212 5.9305e-28)
(0.00255594 0.0841168 -2.59346e-28)
(0.000714485 0.0857545 3.8888e-28)
(0.0447334 0.00110233 6.78116e-28)
(0.0438914 0.00437171 0)
(0.0430815 0.00907292 2.14591e-29)
(0.0425225 0.0159876 0)
(0.0425152 0.0259121 -6.76047e-29)
(0.0438505 0.0401602 2.53822e-27)
(0.0466072 0.0571671 2.81622e-27)
(0.0477033 0.0714624 0)
(0.0447199 0.07898 0)
(0.0378622 0.0799669 -7.2762e-28)
(0.0303108 0.0791671 8.70741e-28)
(0.0239648 0.0791275 -1.52956e-27)
(0.0186524 0.0798117 1.49191e-27)
(0.0141227 0.0808426 7.22414e-28)
(0.0102406 0.0820718 1.83792e-31)
(0.00695917 0.0833728 -2.48635e-27)
(0.00426625 0.0846538 1.95894e-27)
(0.00215619 0.0860176 -1.24765e-27)
(0.000576344 0.0873739 1.61814e-28)
(0.0456151 0.00103703 -3.25756e-28)
(0.0448925 0.00414315 -1.09043e-27)
(0.0442277 0.00855313 0)
(0.0436759 0.015325 0)
(0.0435501 0.0245194 0)
(0.0444254 0.0374118 -4.76025e-29)
(0.0469773 0.0543283 -3.10093e-27)
(0.0490283 0.0701555 7.30547e-29)
(0.0477099 0.080393 0)
(0.0420793 0.0832603 2.64269e-27)
(0.0343989 0.0823843 3.73651e-28)
(0.0275094 0.081651 0)
(0.0217591 0.0818341 -1.88348e-27)
(0.0168594 0.0824923 7.27156e-28)
(0.0126519 0.0833894 -1.07409e-27)
(0.00905939 0.0844572 -1.60189e-27)
(0.00602787 0.0855191 1.72237e-27)
(0.00359403 0.0865723 -1.54122e-27)
(0.00173665 0.0876446 -4.94382e-29)
(0.000433152 0.0887366 -1.18089e-27)
(0.0463668 0.000967294 -3.11415e-28)
(0.045773 0.00391278 -4.21268e-28)
(0.0452279 0.00809981 0)
(0.0448119 0.0147271 0)
(0.0445422 0.0232624 0)
(0.0451126 0.0351401 0)
(0.0472146 0.0513799 -2.93278e-27)
(0.049812 0.06817 -1.40919e-28)
(0.0499466 0.0808609 3.25816e-27)
(0.0458737 0.0861796 5.75335e-27)
(0.0385497 0.0859056 3.58211e-28)
(0.0311644 0.0845626 -7.47714e-28)
(0.0249586 0.0841871 -5.00964e-29)
(0.019677 0.084418 -1.48014e-27)
(0.015127 0.0849918 -5.30185e-28)
(0.0112173 0.0857583 -1.76025e-27)
(0.00786872 0.0866246 -6.10909e-28)
(0.00508846 0.0874534 3.05785e-27)
(0.00289637 0.0882203 1.70001e-27)
(0.00130163 0.0890179 -1.60947e-27)
(0.000278153 0.0898184 -2.14821e-29)
(0.0470045 0.000893386 1.47443e-28)
(0.0465474 0.00364747 -8.22147e-28)
(0.0461275 0.00767428 9.41318e-28)
(0.0458224 0.0140104 3.18302e-28)
(0.0455618 0.0222585 0)
(0.0458469 0.0333411 0)
(0.047486 0.0485028 3.18164e-27)
(0.0502429 0.0657496 0)
(0.051506 0.0803977 3.15994e-27)
(0.0490547 0.0884045 3.23709e-27)
(0.0426205 0.0895299 0)
(0.0349489 0.08788 3.66467e-28)
(0.028242 0.0868651 1.92044e-27)
(0.0225785 0.0866329 3.72841e-28)
(0.0176851 0.0868589 -2.87266e-27)
(0.0134381 0.0873305 6.96687e-28)
(0.00978609 0.0879411 -3.20853e-28)
(0.00666718 0.0885641 1.03969e-27)
(0.00412362 0.0891483 3.91994e-27)
(0.00217335 0.0896087 1.87817e-27)
(0.000844803 0.0901153 -1.76989e-27)
(0.000136566 0.0906299 1.49345e-27)
(0.0475258 0.000827603 -2.71254e-33)
(0.047182 0.00335694 9.72041e-28)
(0.0469105 0.00728515 3.04861e-28)
(0.0466347 0.0133128 -6.472e-28)
(0.0465404 0.0215589 4.16898e-28)
(0.0465572 0.0318884 0)
(0.0478571 0.0458322 2.96055e-27)
(0.0504522 0.0630801 2.60569e-28)
(0.0525188 0.0791436 3.60927e-27)
(0.0515481 0.0897779 0)
(0.046419 0.0929481 -2.8064e-27)
(0.0388229 0.0915531 2.55311e-27)
(0.0316202 0.0898917 2.13413e-27)
(0.0255521 0.0891337 0)
(0.0203211 0.0889937 7.90832e-28)
(0.0157443 0.0891686 0)
(0.0117685 0.0895103 0)
(0.00833476 0.0898931 0)
(0.00544079 0.0903131 0)
(0.00311252 0.0905856 3.26445e-27)
(0.00141346 0.0907336 -1.39918e-31)
(0.000363899 0.0909501 2.00764e-27)
(-7.1946e-05 0.0911429 4.91088e-31)
(0.0478836 0.000770243 -1.28003e-28)
(0.0476783 0.00310984 -1.10096e-27)
(0.0475202 0.00695073 3.93643e-27)
(0.0473243 0.0127397 1.75065e-27)
(0.0473437 0.0208995 3.49328e-27)
(0.047325 0.0306552 -5.36016e-27)
(0.0482717 0.0434911 0)
(0.0505772 0.0603278 3.23452e-27)
(0.0530937 0.0772862 3.14054e-27)
(0.0533835 0.0902389 5.63435e-28)
(0.049747 0.0958946 -3.18447e-27)
(0.0426969 0.0954376 3.1535e-27)
(0.0351108 0.0932854 0)
(0.028595 0.0919352 1.62384e-27)
(0.0230197 0.091385 -6.23762e-28)
(0.0181266 0.0912663 0)
(0.0138311 0.0913301 0)
(0.0100857 0.0914911 0)
(0.00685839 0.0916772 -5.79967e-28)
(0.00416511 0.0918078 1.27619e-31)
(0.0020499 0.0917684 2.39769e-27)
(0.000600125 0.0915809 0)
(-0.000106704 0.0914555 -6.29376e-29)
(-0.000237695 0.091224 0)
(0.0480826 0.000716369 -1.21704e-27)
(0.0480281 0.00291582 0)
(0.0479584 0.00665501 -6.22339e-28)
(0.047886 0.0122481 2.42692e-27)
(0.047945 0.0201498 4.34492e-27)
(0.0481383 0.0296245 -5.1505e-27)
(0.0486913 0.0415031 -1.73513e-28)
(0.0507066 0.0576337 5.12132e-27)
(0.0533673 0.0750583 0)
(0.0546383 0.0898667 2.97119e-27)
(0.0524752 0.0981263 6.31989e-36)
(0.046406 0.0993023 -1.60608e-28)
(0.0387021 0.0970477 -2.25391e-27)
(0.0317147 0.0950456 2.56248e-27)
(0.0257795 0.094035 -3.76228e-28)
(0.0205787 0.093597 -2.96789e-27)
(0.0159737 0.0934033 0)
(0.0119172 0.0933437 1.38096e-27)
(0.0083692 0.0933003 0)
(0.00533343 0.0932259 -3.19842e-27)
(0.00282726 0.0930673 8.82257e-28)
(0.000920955 0.0926803 1.21014e-27)
(-0.000236179 0.092135 -2.67931e-28)
(-0.000692318 0.0916565 -2.52238e-27)
(-0.000462197 0.0909776 0)
(0.0481624 0.000670852 0)
(0.0482217 0.00274101 -9.67934e-28)
(0.0482521 0.00639941 0)
(0.0482677 0.0118491 1.93874e-28)
(0.0483917 0.0194293 8.72699e-28)
(0.0487695 0.0287508 -5.07e-27)
(0.0491551 0.0399463 -5.89885e-27)
(0.0508278 0.0550597 0)
(0.0534718 0.0726472 3.9116e-27)
(0.0554181 0.088772 4.60218e-27)
(0.0545787 0.0995653 -2.69525e-28)
(0.0497845 0.102864 -3.01031e-28)
(0.0423264 0.101082 -2.68971e-27)
(0.0349415 0.0985016 0)
(0.0286016 0.0969466 1.87339e-28)
(0.0230995 0.0961497 0)
(0.0181923 0.0957014 -1.48985e-27)
(0.013842 0.0954233 7.73034e-28)
(0.00997857 0.0951881 1.35741e-27)
(0.00660207 0.0949094 -1.46486e-27)
(0.00373384 0.0945742 0)
(0.00140102 0.0940662 -1.47986e-27)
(-0.000275417 0.0933341 6.25002e-28)
(-0.001191 0.0924103 -3.08606e-27)
(-0.00135823 0.0914378 3.36731e-28)
(-0.000698296 0.0903184 1.58068e-28)
(0.0481353 0.000635391 7.65452e-28)
(0.0482784 0.00258972 8.50179e-28)
(0.0484289 0.00618046 7.8217e-28)
(0.0485261 0.011498 8.51422e-28)
(0.048682 0.0188125 -3.03102e-27)
(0.0491675 0.027943 1.05169e-31)
(0.0496012 0.038768 -5.8629e-27)
(0.0509011 0.0527056 0)
(0.0534549 0.070163 -7.04831e-27)
(0.0558207 0.0871708 3.84663e-27)
(0.0560967 0.100156 1.0074e-27)
(0.0526887 0.105892 -5.5378e-28)
(0.0458871 0.105242 -6.3882e-28)
(0.0382534 0.102289 3.35237e-27)
(0.0315041 0.100141 0)
(0.0256825 0.0989209 -1.92352e-28)
(0.0205072 0.0982051 0)
(0.0158538 0.0976917 2.3268e-27)
(0.0116964 0.0973027 0)
(0.00799368 0.0968645 9.31752e-28)
(0.00476065 0.096346 0)
(0.00203228 0.0956733 -3.20779e-27)
(-0.000131438 0.0948488 1.02968e-27)
(-0.00159374 0.0937215 -5.04408e-28)
(-0.00225396 0.0922921 1.25163e-28)
(-0.00209163 0.0908182 2.04348e-28)
(-0.000964798 0.0891854 9.95311e-28)
(0.0480177 0.00060758 9.24975e-28)
(0.0482413 0.00246386 8.43061e-28)
(0.0484755 0.0059652 -6.01711e-28)
(0.048656 0.0111522 -1.62837e-27)
(0.0488982 0.0183159 -2.97385e-27)
(0.0493891 0.0271489 6.28562e-27)
(0.0499438 0.0378348 -5.80568e-27)
(0.050942 0.0507107 0)
(0.0533116 0.0676544 -7.07408e-27)
(0.0559284 0.0852316 0)
(0.0570978 0.100035 1.87526e-27)
(0.055039 0.108242 0)
(0.0492238 0.109279 -7.20939e-27)
(0.0416209 0.106389 2.19235e-27)
(0.0344827 0.103628 3.63038e-28)
(0.0283203 0.101936 0)
(0.0228877 0.10089 0)
(0.0179574 0.100161 0)
(0.0135263 0.0995983 1.67949e-27)
(0.00951224 0.0990421 4.15066e-28)
(0.00593515 0.0983836 1.31503e-27)
(0.00281627 0.0975651 -2.8647e-27)
(0.000205036 0.0965839 -4.28754e-28)
(-0.00179692 0.0953759 1.39371e-27)
(-0.00305037 0.0937513 1.54008e-28)
(-0.00344879 0.09179 -8.16328e-28)
(-0.00291281 0.0897345 -7.0038e-28)
(-0.0012659 0.0875166 1.3127e-27)
(0.0478231 0.000584283 -7.9705e-28)
(0.0481152 0.00235266 5.10714e-28)
(0.0484094 0.0057556 3.22743e-28)
(0.0486732 0.0108712 -2.50467e-27)
(0.0490166 0.0179153 -3.93674e-27)
(0.0494035 0.0264786 3.71254e-27)
(0.050153 0.0370139 -1.26286e-26)
(0.0509696 0.0490889 0)
(0.0530732 0.0651773 0)
(0.0558456 0.0831243 7.50986e-27)
(0.0576576 0.0992263 -7.72856e-27)
(0.056819 0.109836 0)
(0.0522193 0.113015 7.03595e-27)
(0.0449518 0.110677 -1.23394e-27)
(0.0375309 0.107444 0)
(0.031017 0.105188 3.72508e-28)
(0.0253002 0.103785 3.87177e-28)
(0.0201557 0.102818 -3.95943e-28)
(0.0154427 0.102056 2.55179e-27)
(0.0111643 0.101392 -6.90139e-28)
(0.00726356 0.100646 7.33837e-28)
(0.00377678 0.0997313 -4.62624e-28)
(0.00074008 0.098603 -1.08435e-27)
(-0.00176569 0.0972616 5.09098e-32)
(-0.00362683 0.0955919 -1.07263e-27)
(-0.00468071 0.0934213 -2.81569e-28)
(-0.00479677 0.090851 2.74153e-28)
(-0.00384597 0.0881311 -1.28197e-27)
(-0.00161156 0.0852526 -2.05275e-28)
(0.0475503 0.000562724 -8.6134e-29)
(0.0479161 0.00225403 -1.88555e-27)
(0.0482506 0.00558529 9.34036e-28)
(0.0485966 0.0106566 3.48781e-27)
(0.0489668 0.0175641 -3.94489e-27)
(0.0493148 0.0260877 1.31947e-27)
(0.0501146 0.0361976 -2.8112e-27)
(0.0509677 0.0478038 -6.4534e-27)
(0.0527946 0.0628307 7.01903e-27)
(0.0555894 0.0809008 1.51181e-26)
(0.0578399 0.0979317 -1.57358e-26)
(0.0580581 0.110712 -8.64267e-27)
(0.0547468 0.116179 1.47687e-26)
(0.0481709 0.115068 1.7712e-26)
(0.0406087 0.11154 1.56015e-27)
(0.0337579 0.108719 2.48425e-27)
(0.0277749 0.106881 3.84187e-28)
(0.0223832 0.105658 4.93024e-36)
(0.01745 0.104684 -4.05928e-28)
(0.0129235 0.103901 8.22837e-28)
(0.00873367 0.103086 -1.60406e-27)
(0.00491366 0.102117 4.79755e-28)
(0.00148642 0.100912 -5.10744e-28)
(-0.00149808 0.0994516 0)
(-0.00392227 0.0976839 -3.33698e-28)
(-0.00566839 0.0954738 -6.73715e-28)
(-0.00651455 0.0926926 0)
(-0.00633114 0.0894063 -2.08193e-27)
(-0.00490184 0.0859376 -2.23774e-27)
(-0.00201021 0.0822924 0)
(0.0471941 0.000547843 -8.0684e-29)
(0.0476313 0.00217835 1.32952e-27)
(0.04801 0.00546788 -9.63868e-28)
(0.0484018 0.0104866 3.46583e-27)
(0.0487703 0.0173136 -9.10898e-28)
(0.0492045 0.0259 -3.36593e-27)
(0.0498301 0.0353571 -2.768e-32)
(0.0508929 0.0467647 1.26182e-27)
(0.0524767 0.0607381 -2.11613e-31)
(0.0551888 0.078636 -1.56937e-31)
(0.0577377 0.0963258 -8.34795e-27)
(0.0588071 0.11083 1.52354e-31)
(0.0567592 0.118754 -8.39591e-28)
(0.0511365 0.119269 7.03469e-27)
(0.0436902 0.11593 7.93575e-27)
(0.0365514 0.112507 2.67127e-27)
(0.0302642 0.110201 0)
(0.024673 0.108658 2.11003e-27)
(0.0195227 0.1075 -4.21932e-28)
(0.0147602 0.106557 0)
(0.010338 0.105671 -1.8717e-27)
(0.0062116 0.104669 -6.95463e-28)
(0.00243023 0.103453 -1.3058e-27)
(-0.000974285 0.10195 0)
(-0.00393052 0.100082 0)
(-0.00632084 0.097812 1.35099e-31)
(-0.00795945 0.0950064 -3.60546e-28)
(-0.0085952 0.0915001 0)
(-0.00808858 0.0874088 -6.07745e-27)
(-0.00611185 0.0830664 4.21997e-27)
(-0.00247001 0.0785331 -2.42739e-27)
(0.0467769 0.000540572 9.93519e-28)
(0.0472578 0.00213925 6.87687e-28)
(0.0476939 0.00538332 1.95576e-27)
(0.0481036 0.0103772 0)
(0.0485027 0.0171724 2.00639e-27)
(0.0490034 0.0256821 -2.2909e-27)
(0.0494899 0.0346462 -3.66627e-27)
(0.0506548 0.0458322 9.49227e-27)
(0.0521121 0.0589902 -5.64848e-27)
(0.0546621 0.0763525 -7.58155e-27)
(0.0574633 0.0944898 -7.36376e-28)
(0.0591021 0.110337 -3.40507e-28)
(0.0582504 0.12053 -7.95361e-27)
(0.053752 0.12317 8.11715e-31)
(0.0466982 0.120425 0)
(0.0393651 0.116598 -5.22815e-27)
(0.0328133 0.113732 0)
(0.0269811 0.111836 4.45636e-27)
(0.021659 0.11045 0)
(0.016685 0.109358 -4.41372e-28)
(0.0120554 0.108379 -1.89953e-27)
(0.00767021 0.107352 1.05529e-27)
(0.00356636 0.106163 1.77408e-27)
(-0.000214444 0.104677 0)
(-0.00364355 0.102807 0)
(-0.00662907 0.100501 -3.61891e-28)
(-0.00901427 0.0976545 -3.93782e-28)
(-0.0105563 0.0941383 0)
(-0.0109912 0.0898213 8.40974e-28)
(-0.0101141 0.0847771 -3.76128e-27)
(-0.00751939 0.0794211 5.1952e-27)
(-0.00298628 0.0738925 6.43942e-28)
(0.0463231 0.000535368 7.52163e-29)
(0.046834 0.00212495 3.31361e-28)
(0.0472994 0.00531534 -5.16899e-28)
(0.0477356 0.0103311 1.68852e-27)
(0.0481612 0.0170741 3.65335e-27)
(0.0486877 0.0254012 4.51664e-31)
(0.0492131 0.034226 -1.03788e-27)
(0.0502236 0.0449071 1.97361e-27)
(0.0517135 0.0575337 3.44699e-27)
(0.0540468 0.0741061 -6.14083e-27)
(0.0569846 0.0925062 0)
(0.0590986 0.10937 -9.24516e-27)
(0.0592176 0.121661 -7.88217e-27)
(0.0559322 0.126511 1.56725e-26)
(0.0495653 0.124936 0)
(0.0421707 0.12091 0)
(0.0353808 0.117527 -5.50699e-27)
(0.0293261 0.115177 4.71692e-27)
(0.0238257 0.113538 8.30291e-28)
(0.0186964 0.112278 0)
(0.0138577 0.111199 -4.69394e-28)
(0.00928157 0.110158 -9.81127e-32)
(0.00490397 0.108984 -1.97061e-27)
(0.000776334 0.10755 1.91574e-27)
(-0.00307597 0.105801 -2.17517e-28)
(-0.00659366 0.103542 -3.78595e-28)
(-0.009661 0.100681 0)
(-0.0120693 0.0971649 -2.37948e-28)
(-0.0135306 0.0928346 4.83244e-28)
(-0.0137595 0.0875593 6.02023e-27)
(-0.0124622 0.0814272 -1.37224e-27)
(-0.00907059 0.0748904 2.73346e-27)
(-0.00355766 0.0682855 7.8399e-28)
(0.0458104 0.000528583 1.04826e-27)
(0.0463803 0.00211564 0)
(0.0468482 0.0052743 -9.79987e-28)
(0.0472997 0.0103665 -1.23267e-32)
(0.0477208 0.0170344 2.57508e-27)
(0.0482775 0.0251713 -1.02621e-27)
(0.0489305 0.0339752 -3.61707e-27)
(0.0497297 0.0440214 -1.04847e-27)
(0.0512573 0.0562336 4.57069e-27)
(0.0533912 0.0719945 -7.43105e-27)
(0.0563418 0.0904327 0)
(0.0588585 0.108079 -8.36459e-27)
(0.0597859 0.122021 -8.4182e-27)
(0.0576617 0.129267 8.35832e-27)
(0.0521519 0.129238 2.60784e-28)
(0.0449636 0.125434 -7.02787e-27)
(0.0379487 0.121516 0)
(0.0316826 0.118742 2.48568e-27)
(0.0260184 0.116747 -3.24984e-27)
(0.0207463 0.115317 -4.98304e-27)
(0.0157552 0.114127 3.88623e-27)
(0.0110053 0.113045 7.7289e-35)
(0.00642064 0.111893 5.32874e-28)
(0.00200639 0.110528 -1.08445e-27)
(-0.00221693 0.108957 0)
(-0.00621227 0.106834 -6.18137e-28)
(-0.00989116 0.104083 -2.9643e-27)
(-0.0130871 0.100614 1.7171e-27)
(-0.0155594 0.0962999 -5.602e-28)
(-0.0169725 0.0910086 5.59064e-28)
(-0.0168733 0.0845987 3.76757e-27)
(-0.0150772 0.0772551 -9.73882e-27)
(-0.0109344 0.0693625 -2.88551e-27)
(-0.002046 0.0632188 1.28292e-27)
(-0.00607466 0.0632101 7.81748e-28)
(0.045245 0.000525591 0)
(0.0458686 0.00211061 1.96706e-27)
(0.0463533 0.00529909 4.86215e-28)
(0.0468037 0.0104669 -1.38712e-27)
(0.0472414 0.0170362 4.48664e-27)
(0.0477979 0.0249682 -1.0112e-27)
(0.048544 0.0336895 -1.00741e-27)
(0.0493199 0.0432661 0)
(0.0507234 0.0549768 0)
(0.0527581 0.07008 1.18216e-27)
(0.0555963 0.088295 0)
(0.0584022 0.106487 2.1989e-34)
(0.0598416 0.121842 4.42684e-32)
(0.0589108 0.131379 -8.28753e-27)
(0.0544381 0.133223 0)
(0.0476331 0.13002 5.80698e-29)
(0.0405173 0.125727 -1.1538e-27)
(0.0340542 0.122468 0)
(0.0282161 0.120119 -1.07435e-26)
(0.0228365 0.11845 7.3928e-28)
(0.0177246 0.117144 3.92885e-27)
(0.0128284 0.115985 1.91499e-27)
(0.00809157 0.114865 0)
(0.00344715 0.113604 -5.95066e-28)
(-0.00108357 0.112177 -1.21238e-27)
(-0.00547789 0.110265 7.96578e-28)
(-0.00968855 0.107764 0)
(-0.0135924 0.104474 -3.38139e-27)
(-0.0170025 0.100252 1.89161e-27)
(-0.0195843 0.0950022 9.16362e-28)
(-0.0208724 0.0885129 -1.02952e-26)
(-0.0203687 0.080692 0)
(-0.0177831 0.0718526 9.53787e-28)
(-0.0102846 0.0637277 -3.65746e-27)
(-0.0144277 0.0649666 4.15253e-27)
(-0.00228795 0.0594182 -3.27785e-27)
(-0.00654091 0.0595298 0)
(0.0446585 0.00053131 -9.15079e-28)
(0.0452911 0.00211133 0)
(0.0458306 0.00537073 -4.81556e-28)
(0.0462586 0.0105787 -6.79807e-28)
(0.0467311 0.0170252 1.69879e-27)
(0.0472858 0.0247765 9.5838e-28)
(0.0480631 0.0333675 9.61522e-28)
(0.0489327 0.0426526 -1.82707e-27)
(0.0501445 0.0538001 -4.26823e-27)
(0.0521394 0.0683617 -1.11845e-27)
(0.0548138 0.086141 0)
(0.0577604 0.104693 8.36938e-27)
(0.0597389 0.121292 8.84782e-27)
(0.0596599 0.132688 -8.48677e-27)
(0.056342 0.136785 0)
(0.050152 0.134556 -1.26685e-34)
(0.0430389 0.130139 6.39133e-27)
(0.0364103 0.126367 -6.19279e-28)
(0.0304211 0.123625 -6.82321e-27)
(0.0249259 0.1217 6.29304e-27)
(0.0197341 0.120237 -7.33035e-27)
(0.0147389 0.118988 6.23887e-27)
(0.00986502 0.117892 1.90868e-27)
(0.00507937 0.116723 0)
(0.000317812 0.115422 -2.69065e-27)
(-0.00440393 0.11375 -3.49073e-27)
(-0.00905341 0.111575 2.20065e-27)
(-0.0135763 0.108623 -7.96202e-28)
(-0.0178159 0.104673 1.71279e-27)
(-0.0214893 0.0995693 2.50393e-27)
(-0.0242071 0.0931253 0)
(-0.0253891 0.0851182 2.07653e-27)
(-0.0218537 0.0750952 -1.15031e-27)
(-0.0252183 0.0778419 1.7221e-27)
(-0.0180897 0.0662066 2.1895e-28)
(-0.0236297 0.0738948 -1.8623e-27)
(-0.0220813 0.067975 0)
(-0.0111378 0.0601662 -3.92945e-27)
(-0.0153506 0.0613655 3.64858e-27)
(-0.00231749 0.0554639 -6.51219e-27)
(-0.00704063 0.0556035 -7.7027e-27)
(0.0440355 0.00053727 8.6724e-28)
(0.0446946 0.00212357 -9.07793e-28)
(0.0452649 0.00544647 -1.40183e-27)
(0.0456984 0.0107033 -9.05928e-28)
(0.0461629 0.0170357 9.00947e-28)
(0.0467574 0.0246445 2.0658e-27)
(0.0475216 0.0330565 3.55922e-35)
(0.0484619 0.0421194 9.60212e-28)
(0.0495783 0.0528235 -2.18996e-27)
(0.0514473 0.0667877 -1.02641e-27)
(0.0540193 0.0840408 2.88628e-27)
(0.0569966 0.102761 -4.48156e-28)
(0.0593862 0.120263 0)
(0.0600864 0.133512 1.5191e-28)
(0.0578125 0.139705 2.03235e-28)
(0.0524345 0.138954 -7.59694e-27)
(0.0455198 0.134687 -9.0822e-32)
(0.038726 0.130439 -5.65129e-27)
(0.0326161 0.127275 -1.02309e-26)
(0.0270046 0.125043 3.04079e-27)
(0.0217445 0.123406 0)
(0.016681 0.122073 -2.34456e-26)
(0.0117347 0.120942 6.36979e-27)
(0.00683558 0.119844 0)
(0.00196153 0.118653 0)
(-0.00298954 0.11723 -2.85603e-27)
(-0.00799325 0.115397 -7.82592e-28)
(-0.0130296 0.112891 -5.15265e-28)
(-0.017969 0.109419 9.74683e-28)
(-0.0226433 0.104681 1.17249e-30)
(-0.0267168 0.0984698 8.28919e-28)
(-0.0296387 0.0905091 0)
(-0.0278439 0.0800748 7.39743e-28)
(-0.030961 0.0833743 5.64055e-27)
(-0.0270844 0.0758451 1.36844e-27)
(-0.0196767 0.0627935 -2.50968e-27)
(-0.0259345 0.0699472 -1.96169e-27)
(-0.0237982 0.0644811 0)
(-0.0118615 0.0562739 -4.05142e-27)
(-0.0165469 0.0575139 -1.37524e-27)
(-0.00245492 0.0512392 -3.28742e-27)
(-0.00754036 0.0513796 -7.8469e-27)
(0.0434038 0.000535749 0)
(0.0440793 0.00213809 -7.63767e-35)
(0.0446534 0.00551879 0)
(0.0451614 0.0108168 -1.52832e-27)
(0.0456031 0.0170515 0)
(0.0462072 0.0245149 4.02432e-27)
(0.0469577 0.0327518 2.33913e-27)
(0.0479013 0.0416418 1.77567e-27)
(0.049009 0.052063 -3.13499e-27)
(0.0506881 0.065331 -9.57267e-28)
(0.0531897 0.0820465 3.87413e-27)
(0.0561561 0.100748 4.55079e-27)
(0.058866 0.118945 -3.11528e-28)
(0.0600325 0.133557 0)
(0.0589127 0.142084 8.37239e-27)
(0.0544138 0.143011 2.31573e-28)
(0.047887 0.139301 -1.42421e-26)
(0.0410442 0.134681 -1.25156e-26)
(0.0347759 0.131047 -5.10816e-27)
(0.0290784 0.12848 -4.72478e-27)
(0.0237548 0.126619 1.64084e-27)
(0.0186443 0.125194 9.22912e-30)
(0.013658 0.124021 -8.96714e-27)
(0.00870745 0.122938 -1.6213e-27)
(0.00375686 0.121851 0)
(-0.00128329 0.120669 0)
(-0.00652184 0.119145 7.30907e-28)
(-0.0119417 0.117144 9.41005e-28)
(-0.0174729 0.114281 1.23746e-27)
(-0.0229757 0.110159 -5.2818e-34)
(-0.0283264 0.104481 -1.83013e-26)
(-0.0329315 0.0968711 0)
(-0.0330347 0.0859013 0)
(-0.0357352 0.089858 -1.32946e-27)
(-0.0305258 0.0782916 7.8852e-27)
(-0.0335458 0.0810193 2.77078e-27)
(-0.0296918 0.0723165 -3.03968e-27)
(-0.0211454 0.058981 -3.90335e-27)
(-0.0279544 0.0665256 6.33143e-28)
(-0.0257157 0.0606952 -2.7759e-27)
(-0.0126965 0.0520839 8.32671e-27)
(-0.017717 0.0533543 4.39706e-27)
(-0.00261131 0.0467668 0)
(-0.00803006 0.0468776 0)
(0.0427525 0.000527633 0)
(0.0434594 0.00213931 -1.09714e-27)
(0.0440535 0.00556058 -8.28115e-28)
(0.0446099 0.0108468 -2.11769e-27)
(0.0450996 0.017037 -8.24744e-28)
(0.0456698 0.0243627 1.97827e-27)
(0.0464083 0.0324869 -1.76574e-27)
(0.0472927 0.0412477 -8.70676e-28)
(0.0483893 0.0514441 -3.95586e-27)
(0.0499076 0.0640321 0)
(0.052302 0.0801578 -8.72476e-28)
(0.0552557 0.0987083 8.1992e-27)
(0.0581553 0.117354 6.51551e-31)
(0.0598695 0.133299 0)
(0.0595229 0.143702 8.72616e-27)
(0.0561118 0.146705 0)
(0.0500731 0.143828 -7.4777e-27)
(0.0433195 0.139092 -6.54367e-27)
(0.0369272 0.13495 0)
(0.0311218 0.132002 -4.97055e-27)
(0.0257414 0.129884 -4.24301e-27)
(0.0206016 0.12834 1.28136e-26)
(0.0155959 0.127107 -4.18825e-27)
(0.0106404 0.12603 6.46742e-27)
(0.00567763 0.124996 5.94421e-27)
(0.000607878 0.124015 0)
(-0.00471851 0.122803 -6.23173e-28)
(-0.010356 0.121251 8.38239e-28)
(-0.0162829 0.119075 6.76904e-27)
(-0.0225078 0.11578 0)
(-0.0288834 0.110935 -1.8656e-26)
(-0.0351668 0.10404 1.80524e-26)
(-0.0372312 0.0927669 -2.21272e-27)
(-0.0394621 0.0974511 0)
(-0.0364889 0.0842635 0)
(-0.0389812 0.0876828 5.87605e-28)
(-0.0332909 0.0750751 2.606e-30)
(-0.0367802 0.0781992 -4.7539e-28)
(-0.0321316 0.06899 -3.39206e-27)
(-0.0226888 0.0548256 0)
(-0.0302865 0.0627898 -6.38254e-28)
(-0.02765 0.0565473 -2.91278e-27)
(-0.0135129 0.0476059 8.44123e-27)
(-0.018871 0.0488821 5.70083e-27)
(-0.00278475 0.0420565 1.00433e-28)
(-0.0085132 0.0421209 -1.97353e-27)
(0.0420469 0.00052091 0)
(0.0428065 0.00213327 -5.67668e-28)
(0.0434232 0.0055855 -7.67741e-28)
(0.0440355 0.0108112 -2.05533e-27)
(0.0446162 0.0170321 -2.37129e-27)
(0.0451579 0.0242398 -7.83047e-28)
(0.0458478 0.032275 2.30182e-27)
(0.0467094 0.0408983 -2.64621e-31)
(0.0477451 0.0508608 -1.5749e-27)
(0.0491566 0.0628777 -3.41669e-27)
(0.0513752 0.0783649 -3.98518e-28)
(0.0543053 0.0966809 4.05769e-27)
(0.057307 0.115573 2.10936e-28)
(0.0595407 0.132705 -9.77521e-29)
(0.0598772 0.144765 0)
(0.0573852 0.149844 0)
(0.0520969 0.148234 0)
(0.0454919 0.143574 0)
(0.0390437 0.139019 0)
(0.0331369 0.135635 -5.17646e-27)
(0.0276877 0.133228 -8.22639e-27)
(0.0225251 0.131525 4.5745e-27)
(0.017524 0.130183 -1.92054e-27)
(0.0125895 0.129086 -4.67993e-27)
(0.0076516 0.128088 0)
(0.00262083 0.127231 1.38411e-26)
(-0.00266136 0.126319 -1.00163e-27)
(-0.00837415 0.125178 -5.04483e-28)
(-0.0144879 0.123628 9.83132e-28)
(-0.0211195 0.121282 2.72809e-27)
(-0.0284489 0.117556 0)
(-0.036022 0.111759 1.4743e-26)
(-0.040305 0.100738 -2.54676e-27)
(-0.0418757 0.106035 -2.46981e-28)
(-0.0413855 0.0917266 -1.68213e-27)
(-0.0433061 0.0958293 0)
(-0.0399662 0.0816706 5.36893e-28)
(-0.0429584 0.0855758 1.04254e-27)
(-0.0362084 0.0719109 -7.88212e-27)
(-0.0401042 0.0752411 -3.64372e-27)
(-0.0348621 0.065344 -7.6142e-27)
(-0.0242126 0.0503261 -4.01531e-27)
(-0.0326335 0.0586659 -1.91468e-27)
(-0.02957 0.0520225 4.0467e-27)
(-0.0142858 0.0428517 4.87549e-30)
(-0.019963 0.0440971 4.16467e-27)
(-0.00296722 0.0371387 -1.25331e-66)
(-0.0089715 0.037142 -4.397e-27)
(0.0412699 0.000515934 0)
(0.0420872 0.00212971 -2.42443e-28)
(0.042763 0.00563143 -4.48326e-28)
(0.0434111 0.0107513 -1.25639e-27)
(0.0440854 0.0170319 -2.2479e-27)
(0.0446624 0.0241415 -2.42707e-27)
(0.0453252 0.0320577 4.53755e-27)
(0.0461688 0.0404959 2.57631e-27)
(0.0471537 0.050265 7.33527e-28)
(0.0484739 0.0618291 -4.0761e-27)
(0.050491 0.0766723 0)
(0.0533287 0.0946599 -3.12233e-28)
(0.056381 0.113678 0)
(0.0589667 0.131654 9.04174e-27)
(0.0598327 0.145331 6.51447e-30)
(0.0583469 0.152404 1.97214e-29)
(0.0538462 0.152369 0)
(0.0475763 0.148095 0)
(0.0410974 0.143229 -6.40652e-27)
(0.035109 0.139397 0)
(0.0296014 0.136656 -9.39099e-27)
(0.0244182 0.134742 -3.97064e-27)
(0.0194225 0.133252 3.29327e-27)
(0.0145366 0.132099 -5.54608e-27)
(0.00963259 0.131115 0)
(0.00468229 0.130336 1.80547e-26)
(-0.000484424 0.129653 0)
(-0.00606895 0.128856 1.02896e-27)
(-0.012238 0.127906 -2.90893e-27)
(-0.0189954 0.126421 3.25347e-27)
(-0.0266811 0.123935 0)
(-0.0355262 0.11975 -1.97898e-27)
(-0.0419453 0.109646 1.39861e-27)
(-0.0427182 0.115464 1.43191e-27)
(-0.0450308 0.100635 -2.85024e-27)
(-0.0462475 0.105406 -1.05173e-27)
(-0.0455853 0.0898545 -6.15764e-28)
(-0.0479837 0.0946948 -2.94198e-27)
(-0.043766 0.0789904 0)
(-0.0471355 0.0832118 0)
(-0.0393437 0.0683995 -1.24254e-26)
(-0.043692 0.0719472 -4.11742e-27)
(-0.0376377 0.0612819 -1.55935e-27)
(-0.0256775 0.0454781 -4.91739e-27)
(-0.0350039 0.054134 0)
(-0.0314495 0.0471083 4.29552e-27)
(-0.0149812 0.0378483 -1.23571e-26)
(-0.020947 0.0390116 -1.25688e-26)
(-0.00315546 0.0320538 0)
(-0.00939768 0.0319928 -3.54268e-27)
(0.0404002 0.000493546 5.24219e-29)