/*--------------------------------*- C++ -*----------------------------------*\
  =========                 |
  \\      /  F ield         | OpenFOAM: The Open Source CFD Toolbox
   \\    /   O peration     | Website:  https://openfoam.org
    \\  /    A nd           | Version:  dev
     \\/     M anipulation  |
\*---------------------------------------------------------------------------*/
FoamFile
{
    version     2.0;
    format      ascii;
    class       volScalarField;
    location    "2500";
    object      a;
}
// * * * * * * * * * * * * * * * * * * * * * * * * * * * * * * * * * * * * * //

dimensions      [0 -1 0 0 0 0 0];

internalField   nonuniform List<scalar> 
9967
(
0.100011
0.100011
0.100011
0.100011
0.100011
0.100011
0.100011
0.100011
0.100011
0.100011
0.10001
0.100011
0.100011
0.100011
0.100011
0.10001
0.10001
0.100011
0.100011
0.100011
0.100011
0.10001
0.10001
0.10001
0.100011
0.100011
0.100011
0.100011
0.10001
0.10001
0.10001
0.10001
0.100011
0.100011
0.100011
0.100011
0.100009
0.10001
0.10001
0.10001
0.10001
0.100011
0.100011
0.100011
0.100011
0.100009
0.100009
0.10001
0.10001
0.10001
0.10001
0.100011
0.100011
0.100011
0.100011
0.100009
0.100009
0.100009
0.10001
0.10001
0.10001
0.10001
0.100011
0.100011
0.100011
0.100011
0.100009
0.100009
0.100009
0.100009
0.10001
0.10001
0.10001
0.10001
0.100011
0.100011
0.100011
0.100011
0.100009
0.100009
0.100009
0.100009
0.100009
0.10001
0.10001
0.10001
0.10001
0.100011
0.100011
0.100011
0.100011
0.100008
0.100009
0.100009
0.100009
0.100009
0.100009
0.10001
0.10001
0.10001
0.10001
0.100011
0.100011
0.100011
0.100011
0.100008
0.100008
0.100009
0.100009
0.100009
0.100009
0.100009
0.10001
0.10001
0.10001
0.10001
0.100011
0.100011
0.100011
0.100011
0.100008
0.100008
0.100008
0.100009
0.100009
0.100009
0.100009
0.100009
0.10001
0.10001
0.10001
0.10001
0.100011
0.100011
0.100011
0.100011
0.100008
0.100008
0.100008
0.100008
0.100009
0.100009
0.100009
0.100009
0.100009
0.10001
0.10001
0.10001
0.10001
0.100011
0.100011
0.100011
0.100011
0.100007
0.100008
0.100008
0.100008
0.100008
0.100009
0.100009
0.100009
0.100009
0.100009
0.10001
0.10001
0.10001
0.10001
0.100011
0.100011
0.100011
0.100011
0.100007
0.100007
0.100008
0.100008
0.100008
0.100008
0.100009
0.100009
0.100009
0.100009
0.100009
0.10001
0.10001
0.10001
0.10001
0.100011
0.100011
0.100011
0.100011
0.100007
0.100007
0.100007
0.100008
0.100008
0.100008
0.100008
0.100009
0.100009
0.100009
0.100009
0.100009
0.10001
0.10001
0.10001
0.10001
0.100011
0.100011
0.100011
0.100011
0.100007
0.100007
0.100007
0.100007
0.100008
0.100008
0.100008
0.100008
0.100009
0.100009
0.100009
0.100009
0.100009
0.10001
0.10001
0.10001
0.10001
0.100011
0.100011
0.100011
0.100011
0.100006
0.100007
0.100007
0.100007
0.100007
0.100008
0.100008
0.100008
0.100008
0.100009
0.100009
0.100009
0.100009
0.100009
0.10001
0.10001
0.10001
0.10001
0.100011
0.100011
0.100011
0.100011
0.100006
0.100006
0.100007
0.100007
0.100007
0.100007
0.100008
0.100008
0.100008
0.100008
0.100009
0.100009
0.100009
0.100009
0.100009
0.10001
0.10001
0.10001
0.10001
0.100011
0.100011
0.100011
0.100011
0.100006
0.100006
0.100006
0.100007
0.100007
0.100007
0.100007
0.100008
0.100008
0.100008
0.100008
0.100009
0.100009
0.100009
0.100009
0.100009
0.10001
0.10001
0.10001
0.10001
0.100011
0.100011
0.100011
0.100011
0.100006
0.100006
0.100006
0.100006
0.100007
0.100007
0.100007
0.100007
0.100008
0.100008
0.100008
0.100008
0.100009
0.100009
0.100009
0.100009
0.100009
0.10001
0.10001
0.10001
0.10001
0.100011
0.100011
0.100011
0.100011
0.100006
0.100006
0.100006
0.100006
0.100006
0.100007
0.100007
0.100007
0.100007
0.100008
0.100008
0.100008
0.100008
0.100009
0.100009
0.100009
0.100009
0.100009
0.10001
0.10001
0.10001
0.10001
0.100011
0.100011
0.100011
0.100011
0.100005
0.100006
0.100006
0.100006
0.100006
0.100006
0.100007
0.100007
0.100007
0.100007
0.100008
0.100008
0.100008
0.100008
0.100009
0.100009
0.100009
0.100009
0.100009
0.10001
0.10001
0.10001
0.10001
0.100011
0.100011
0.100011
0.100011
0.100005
0.100005
0.100006
0.100006
0.100006
0.100006
0.100006
0.100007
0.100007
0.100007
0.100007
0.100008
0.100008
0.100008
0.100008
0.100008
0.100009
0.100009
0.100009
0.100009
0.10001
0.10001
0.10001
0.10001
0.100011
0.100011
0.100011
0.100011
0.100005
0.100005
0.100005
0.100006
0.100006
0.100006
0.100006
0.100006
0.100007
0.100007
0.100007
0.100007
0.100008
0.100008
0.100008
0.100008
0.100008
0.100009
0.100009
0.100009
0.100009
0.10001
0.10001
0.10001
0.10001
0.100011
0.100011
0.100011
0.100011
0.100005
0.100005
0.100005
0.100005
0.100006
0.100006
0.100006
0.100006
0.100006
0.100007
0.100007
0.100007
0.100007
0.100008
0.100008
0.100008
0.100008
0.100008
0.100009
0.100009
0.100009
0.100009
0.10001
0.10001
0.10001
0.10001
0.100011
0.100011
0.100011
0.100011
0.100004
0.100005
0.100005
0.100005
0.100005
0.100006
0.100006
0.100006
0.100006
0.100006
0.100007
0.100007
0.100007
0.100007
0.100008
0.100008
0.100008
0.100008
0.100008
0.100009
0.100009
0.100009
0.100009
0.10001
0.10001
0.10001
0.10001
0.100011
0.100011
0.100011
0.100011
0.100004
0.100004
0.100005
0.100005
0.100005
0.100005
0.100006
0.100006
0.100006
0.100006
0.100006
0.100007
0.100007
0.100007
0.100007
0.100008
0.100008
0.100008
0.100008
0.100008
0.100009
0.100009
0.100009
0.100009
0.10001
0.10001
0.10001
0.10001
0.100011
0.100011
0.100011
0.100011
0.100004
0.100004
0.100004
0.100005
0.100005
0.100005
0.100005
0.100006
0.100006
0.100006
0.100006
0.100006
0.100007
0.100007
0.100007
0.100007
0.100008
0.100008
0.100008
0.100008
0.100008
0.100009
0.100009
0.100009
0.100009
0.10001
0.10001
0.10001
0.10001
0.100011
0.100011
0.100011
0.100011
0.100004
0.100004
0.100004
0.100004
0.100005
0.100005
0.100005
0.100005
0.100006
0.100006
0.100006
0.100006
0.100006
0.100007
0.100007
0.100007
0.100007
0.100008
0.100008
0.100008
0.100008
0.100008
0.100009
0.100009
0.100009
0.100009
0.10001
0.10001
0.10001
0.10001
0.100011
0.100011
0.100011
0.100011
0.100004
0.100004
0.100004
0.100004
0.100004
0.100005
0.100005
0.100005
0.100005
0.100006
0.100006
0.100006
0.100006
0.100006
0.100007
0.100007
0.100007
0.100007
0.100008
0.100008
0.100008
0.100008
0.100008
0.100009
0.100009
0.100009
0.100009
0.10001
0.10001
0.10001
0.10001
0.100011
0.100011
0.100011
0.100011
0.100011
0.100011
0.100011
0.100003
0.100004
0.100004
0.100004
0.100004
0.100004
0.100005
0.100005
0.100005
0.100005
0.100006
0.100006
0.100006
0.100006
0.100006
0.100007
0.100007
0.100007
0.100007
0.100008
0.100008
0.100008
0.100008
0.100008
0.100009
0.100009
0.100009
0.100009
0.10001
0.10001
0.10001
0.10001
0.100011
0.10001
0.100011
0.100011
0.100011
0.100011
0.100011
0.100011
0.100011
0.100003
0.100003
0.100004
0.100004
0.100004
0.100004
0.100004
0.100005
0.100005
0.100005
0.100005
0.100006
0.100006
0.100006
0.100006
0.100006
0.100007
0.100007
0.100007
0.100007
0.100008
0.100008
0.100008
0.100008
0.100008
0.100009
0.100009
0.100009
0.100009
0.10001
0.10001
0.10001
0.10001
0.10001
0.10001
0.100011
0.100011
0.100011
0.100011
0.100011
0.100011
0.100011
0.100003
0.100003
0.100003
0.100004
0.100004
0.100004
0.100004
0.100004
0.100005
0.100005
0.100005
0.100005
0.100006
0.100006
0.100006
0.100006
0.100006
0.100007
0.100007
0.100007
0.100007
0.100008
0.100008
0.100008
0.100008
0.100009
0.100009
0.100009
0.100009
0.10001
0.10001
0.10001
0.10001
0.10001
0.10001
0.10001
0.10001
0.100011
0.100011
0.100011
0.100011
0.100011
0.100011
0.100011
0.100003
0.100003
0.100003
0.100003
0.100004
0.100004
0.100004
0.100004
0.100004
0.100005
0.100005
0.100005
0.100005
0.100006
0.100006
0.100006
0.100006
0.100006
0.100007
0.100007
0.100007
0.100007
0.100008
0.100008
0.100008
0.100008
0.100009
0.10001
0.100011
0.100011
0.100011
0.100011
0.10001
0.10001
0.10001
0.10001
0.10001
0.10001
0.10001
0.100011
0.100011
0.100011
0.100011
0.100011
0.100011
0.100011
0.100002
0.100003
0.100003
0.100003
0.100003
0.100004
0.100004
0.100004
0.100004
0.100004
0.100005
0.100005
0.100005
0.100005
0.100006
0.100006
0.100006
0.100006
0.100006
0.100007
0.100007
0.100007
0.100007
0.100008
0.100008
0.100008
0.100009
0.100013
0.100021
0.100031
0.100034
0.100027
0.100012
0.10002
0.100011
0.100013
0.10001
0.100011
0.10001
0.10001
0.100011
0.100011
0.100011
0.100011
0.100011
0.100011
0.100011
0.100011
0.100002
0.100002
0.100003
0.100003
0.100003
0.100003
0.100004
0.100004
0.100004
0.100004
0.100004
0.100005
0.100005
0.100005
0.100005
0.100006
0.100006
0.100006
0.100006
0.100006
0.100007
0.100007
0.100007
0.100007
0.100008
0.100008
0.100011
0.100026
0.100076
0.100158
0.100236
0.10021
0.100048
0.100151
0.100022
0.100054
0.100013
0.100023
0.100011
0.100013
0.100011
0.100011
0.100011
0.100011
0.100011
0.100011
0.100011
0.100011
0.100011
0.100011
0.100002
0.100002
0.100002
0.100003
0.100003
0.100003
0.100003
0.100004
0.100004
0.100004
0.100004
0.100004
0.100005
0.100005
0.100005
0.100005
0.100006
0.100006
0.100006
0.100006
0.100006
0.100007
0.100007
0.100007
0.100007
0.100009
0.100017
0.100065
0.10025
0.100799
0.101523
0.10197
0.100481
0.101617
0.100173
0.100582
0.100059
0.100193
0.100023
0.100062
0.100013
0.100023
0.100011
0.100013
0.100011
0.100011
0.100011
0.100011
0.100011
0.100011
0.100011
0.100011
0.100002
0.100002
0.100002
0.100002
0.100003
0.100003
0.100003
0.100003
0.100004
0.100004
0.100004
0.100004
0.100004
0.100005
0.100005
0.100005
0.100005
0.100006
0.100006
0.100006
0.100006
0.100006
0.100007
0.100007
0.100007
0.100008
0.100022
0.100157
0.100741
0.102531
0.107078
0.111948
0.105026
0.115019
0.101962
0.10636
0.10067
0.102299
0.100209
0.100745
0.100063
0.10022
0.100023
0.100063
0.100013
0.100022
0.100013
0.100011
0.100012
0.100012
0.100011
0.100011
0.100011
0.100011
0.100001
0.100002
0.100002
0.100002
0.100002
0.100003
0.100003
0.100003
0.100003
0.100004
0.100004
0.100004
0.100004
0.100004
0.100005
0.100005
0.100005
0.100005
0.100006
0.100006
0.100006
0.100006
0.100006
0.100007
0.100007
0.100008
0.100022
0.100227
0.101712
0.106785
0.118297
0.14076
0.132975
0.159775
0.117949
0.141899
0.107575
0.121409
0.102599
0.108588
0.100813
0.102874
0.100228
0.100872
0.100062
0.100232
0.100021
0.100058
0.100019
0.100011
0.100017
0.100015
0.100011
0.100011
0.100011
0.100011
0.100001
0.100001
0.100002
0.100002
0.100002
0.100002
0.100003
0.100003
0.100003
0.100003
0.100004
0.100004
0.100004
0.100004
0.100004
0.100005
0.100005
0.100005
0.100005
0.100006
0.100006
0.100006
0.100006
0.100006
0.100007
0.100008
0.100025
0.100242
0.102409
0.112729
0.138082
0.175209
0.183501
0.211243
0.169551
0.198147
0.148003
0.177926
0.124255
0.153079
0.109466
0.126558
0.10314
0.110291
0.100923
0.103403
0.100229
0.100961
0.100054
0.100219
0.100047
0.100013
0.100039
0.100031
0.100012
0.100011
0.100012
0.100011
0.100001
0.100001
0.100001
0.100002
0.100002
0.100002
0.100002
0.100003
0.100003
0.100003
0.100003
0.100004
0.100004
0.100004
0.100004
0.100004
0.100005
0.100005
0.100005
0.100005
0.100006
0.100006
0.100006
0.100006
0.100006
0.100007
0.10002
0.100222
0.102553
0.116584
0.155927
0.21391
0.233829
0.251722
0.226255
0.253509
0.208526
0.238978
0.184905
0.217558
0.157384
0.191415
0.128639
0.161401
0.111155
0.130816
0.103652
0.112078
0.100969
0.103859
0.100203
0.100949
0.10018
0.100023
0.100148
0.100111
0.100017
0.100011
0.100013
0.100012
0.100001
0.100001
0.100001
0.100001
0.100002
0.100002
0.100002
0.100002
0.100003
0.100003
0.100003
0.100003
0.100004
0.100004
0.100004
0.100004
0.100004
0.100005
0.100005
0.100005
0.100005
0.100006
0.100006
0.100006
0.100006
0.100007
0.100013
0.100157
0.102372
0.117178
0.166927
0.238937
0.309744
0.275606
0.304987
0.268437
0.29532
0.249921
0.28153
0.226262
0.260762
0.197911
0.23551
0.165827
0.205032
0.13328
0.171054
0.113
0.136002
0.103956
0.113789
0.100899
0.103967
0.100812
0.100072
0.100679
0.100511
0.100041
0.100011
0.100022
0.100014
0.100001
0.100001
0.100001
0.100001
0.100001
0.100002
0.100002
0.100002
0.100002
0.100003
0.100003
0.100003
0.100003
0.100004
0.100004
0.100004
0.100004
0.100004
0.100005
0.100005
0.100005
0.100005
0.100006
0.100006
0.100006
0.100006
0.100009
0.100082
0.101789
0.116369
0.168193
0.255826
0.318606
0.349107
0.353554
0.318647
0.337008
0.310788
0.33598
0.293914
0.325072
0.272439
0.307543
0.245754
0.285704
0.213395
0.257429
0.177156
0.223129
0.138736
0.183893
0.114298
0.141088
0.103834
0.114517
0.10353
0.100323
0.103008
0.102293
0.100165
0.100012
0.100068
0.100026
0.1
0.100001
0.100001
0.100001
0.100001
0.100001
0.100002
0.100002
0.100002
0.100002
0.100003
0.100003
0.100003
0.100003
0.100004
0.100004
0.100004
0.100004
0.100004
0.100005
0.100005
0.100005
0.100005
0.100006
0.100006
0.100006
0.100007
0.10004
0.10095
0.113098
0.165978
0.25517
0.310654
0.351172
0.34058
0.372706
0.369457
0.355707
0.368693
0.351995
0.372947
0.339675
0.367895
0.323041
0.356512
0.300605
0.340576
0.270723
0.317114
0.233916
0.285307
0.190659
0.245098
0.142771
0.196464
0.114248
0.143709
0.113342
0.101483
0.111529
0.108932
0.100783
0.100014
0.1003
0.100076
0.1
0.1
0.100001
0.100001
0.100001
0.100001
0.100001
0.100002
0.100002
0.100002
0.100002
0.100003
0.100003
0.100003
0.100003
0.100004
0.100004
0.100004
0.100004
0.100004
0.100005
0.100005
0.100005
0.100005
0.100006
0.100006
0.100006
0.100018
0.100462
0.10797
0.156937
0.249638
0.293706
0.316846
0.357825
0.338375
0.388099
0.376279
0.386352
0.390446
0.389849
0.403771
0.384984
0.407396
0.37545
0.404172
0.359451
0.395766
0.33469
0.379062
0.30027
0.352409
0.255484
0.314343
0.200697
0.264216
0.14345
0.202688
0.141254
0.106039
0.136276
0.129066
0.103383
0.100021
0.101269
0.100277
0.1
0.1
0.100001
0.100001
0.100001
0.100001
0.100001
0.100002
0.100002
0.100002
0.100002
0.100003
0.100003
0.100003
0.100003
0.100004
0.100004
0.100004
0.100004
0.100004
0.100005
0.100005
0.100005
0.100005
0.100006
0.100006
0.100009
0.100171
0.103968
0.140353
0.237854
0.280648
0.293236
0.310421
0.290986
0.354997
0.330006
0.397438
0.376022
0.408362
0.406714
0.421731
0.426888
0.426117
0.440444
0.4246
0.445926
0.416074
0.445064
0.398062
0.435391
0.368653
0.415095
0.326549
0.382409
0.270563
0.335868
0.20241
0.274126
0.19802
0.12084
0.18838
0.174771
0.112588
0.100041
0.104682
0.100769
0.1
0.1
0.100001
0.100001
0.100001
0.100001
0.100001
0.100002
0.100002
0.100002
0.100002
0.100003
0.100003
0.100003
0.100003
0.100004
0.100004
0.100004
0.100004
0.100004
0.100005
0.100005
0.100005
0.100005
0.100006
0.100006
0.100053
0.101599
0.124024
0.214779
0.271427
0.277791
0.280986
0.27338
0.304655
0.289627
0.350271
0.32514
0.402458
0.377387
0.426177
0.42007
0.446232
0.446209
0.459956
0.466679
0.465871
0.480078
0.464253
0.485933
0.452323
0.481595
0.429086
0.46645
0.392921
0.439693
0.341633
0.399321
0.274527
0.343929
0.270104
0.158368
0.260445
0.24497
0.138463
0.100078
0.113424
0.101668
0.1
0.1
0.100001
0.100001
0.100001
0.100001
0.100001
0.100002
0.100002
0.100002
0.100002
0.100003
0.100003
0.100003
0.100003
0.100004
0.100004
0.100004
0.100004
0.100004
0.100005
0.100005
0.100005
0.100005
0.100006
0.100018
0.100571
0.111807
0.183976
0.263036
0.269358
0.266307
0.280987
0.276663
0.308769
0.299612
0.350579
0.326179
0.41027
0.385944
0.442595
0.430836
0.467236
0.4655
0.488008
0.490164
0.50006
0.505703
0.504766
0.515205
0.497002
0.520881
0.477875
0.509974
0.446645
0.486549
0.401772
0.449412
0.341954
0.400629
0.335973
0.221853
0.288565
0.327279
0.319123
0.270702
0.312768
0.199122
0.149956
0.100167
0.176655
0.115419
0.152279
0.127341
0.110807
0.101719
0.1
0.1
0.100001
0.100001
0.100001
0.100001
0.100001
0.100002
0.100002
0.100002
0.100002
0.100003
0.100003
0.100003
0.100003
0.100004
0.100004
0.100004
0.100004
0.100004
0.100005
0.100005
0.100005
0.100005
0.100009
0.100249
0.104767
0.152618
0.248447
0.266353
0.252382
0.293882
0.282676
0.296976
0.296452
0.331151
0.329078
0.361726
0.342181
0.428532
0.409294
0.459109
0.445655
0.489118
0.485963
0.505264
0.50296
0.515804
0.513132
0.526473
0.52317
0.535227
0.536754
0.5216
0.548404
0.492046
0.51054
0.530416
0.425178
0.449472
0.494263
0.470412
0.367222
0.396225
0.447277
0.420029
0.446208
0.391616
0.388254
0.357235
0.242973
0.290128
0.301202
0.352739
0.345977
0.337422
0.227087
0.100635
0.103419
0.203127
0.173185
0.142382
0.118449
0.1
0.1
0.100001
0.100001
0.100001
0.100001
0.100001
0.100002
0.100002
0.100002
0.100002
0.100003
0.100003
0.100003
0.100003
0.100003
0.100004
0.100004
0.100004
0.100004
0.100005
0.100005
0.100005
0.100007
0.100074
0.101622
0.127764
0.222963
0.263828
0.24606
0.265441
0.247324
0.331431
0.314872
0.33144
0.334033
0.372873
0.373825
0.391126
0.377981
0.46065
0.44934
0.479055
0.470525
0.498658
0.493509
0.506214
0.496618
0.51351
0.494061
0.527062
0.501547
0.548127
0.526694
0.545066
0.559428
0.560841
0.556734
0.514804
0.537921
0.533226
0.550868
0.4705
0.516661
0.493469
0.41765
0.469234
0.44206
0.46662
0.41373
0.40858
0.381805
0.273432
0.314326
0.327091
0.375701
0.368276
0.359406
0.253682
0.100384
0.102395
0.110561
0.106267
0.227889
0.196418
0.161412
0.129997
0.1
0.1
0.100001
0.100001
0.100001
0.100001
0.100001
0.100002
0.100002
0.100002
0.100002
0.100003
0.100003
0.100003
0.100003
0.100004
0.100004
0.100004
0.100004
0.100005
0.100006
0.100006
0.100007
0.100026
0.100593
0.112486
0.188726
0.258601
0.248072
0.227171
0.282424
0.24935
0.37948
0.354189
0.380238
0.383687
0.427196
0.428711
0.438252
0.429967
0.482684
0.481037
0.488647
0.485224
0.486504
0.478202
0.468681
0.445282
0.461058
0.413682
0.477389
0.4119
0.544802
0.519305
0.488189
0.446071
0.563745
0.566241
0.560879
0.544191
0.53892
0.558979
0.555554
0.568589
0.492889
0.540541
0.516913
0.438406
0.491242
0.462987
0.488356
0.433695
0.427932
0.402533
0.298032
0.348703
0.335583
0.395684
0.387743
0.378393
0.277295
0.100502
0.103125
0.115408
0.143404
0.250893
0.218635
0.181189
0.1
0.1
0.100001
0.100001
0.100001
0.100001
0.100001
0.100002
0.100002
0.100002
0.100002
0.100003
0.100003
0.100003
0.100003
0.100004
0.100004
0.100005
0.100007
0.100009
0.10001
0.10001
0.100019
0.100302
0.104977
0.154686
0.245639
0.254704
0.22627
0.221619
0.206119
0.303834
0.254134
0.429181
0.394318
0.434262
0.436097
0.480199
0.482082
0.480028
0.479793
0.47791
0.482564
0.474303
0.47507
0.426559
0.416104
0.372283
0.344538
0.352781
0.312829
0.411323
0.370783
0.346617
0.317958
0.51587
0.478882
0.438036
0.398198
0.570721
0.564512
0.545227
0.514329
0.561853
0.573024
0.577077
0.575263
0.516262
0.564037
0.541149
0.458668
0.514478
0.484404
0.51131
0.453255
0.446777
0.42133
0.319061
0.367302
0.353891
0.4138
0.405196
0.395215
0.29808
0.100543
0.120669
0.103967
0.156619
0.199567
0.271602
0.238792
0.1
0.1
0.100001
0.100001
0.100001
0.100001
0.100001
0.100002
0.100002
0.100002
0.100002
0.100003
0.100003
0.100003
0.100004
0.100005
0.100009
0.100017
0.100024
0.100026
0.100024
0.100025
0.100135
0.101825
0.129248
0.219368
0.255627
0.236828
0.197976
0.209155
0.188652
0.32518
0.255475
0.471853
0.427824
0.483889
0.482941
0.505803
0.513139
0.489124
0.497058
0.432853
0.450164
0.416674
0.421538
0.328727
0.328906
0.29659
0.288799
0.306437
0.293073
0.285801
0.362353
0.333762
0.311584
0.297694
0.475619
0.433824
0.393328
0.357602
0.568468
0.547713
0.515406
0.475949
0.580684
0.579895
0.584528
0.572994
0.540644
0.583617
0.56516
0.479501
0.538816
0.506981
0.53543
0.473327
0.466029
0.439391
0.337238
0.383667
0.36988
0.431029
0.421517
0.410743
0.316253
0.100556
0.168133
0.125418
0.104608
0.215532
0.256482
0.289769
0.1
0.1
0.100001
0.100001
0.100001
0.100001
0.100001
0.100002
0.100002
0.100002
0.100002
0.100003
0.100003
0.100004
0.10001
0.100031
0.100067
0.100092
0.100095
0.100079
0.100059
0.100113
0.10086
0.113678
0.184822
0.252094
0.250894
0.216536
0.170649
0.180147
0.192879
0.171525
0.337187
0.249879
0.499232
0.443436
0.516165
0.514255
0.507995
0.523847
0.469904
0.489611
0.38296
0.411943
0.338003
0.35719
0.286142
0.289948
0.282473
0.279813
0.290414
0.286883
0.293329
0.291153
0.328872
0.308792
0.297373
0.291886
0.433948
0.393463
0.357907
0.329723
0.551779
0.519045
0.479818
0.438561
0.589129
0.578157
0.583853
0.557341
0.565034
0.593174
0.585746
0.501484
0.563395
0.530822
0.560198
0.494509
0.486347
0.457697
0.353048
0.398488
0.384177
0.448242
0.437549
0.425696
0.332082
0.100423
0.228695
0.177255
0.128884
0.104703
0.271536
0.305486
0.1
0.1
0.100001
0.100001
0.100001
0.100001
0.100001
0.100002
0.100002
0.100002
0.100002
0.100003
0.100007
0.10003
0.100109
0.100221
0.100284
0.100296
0.100251
0.10018
0.100155
0.100594
0.105983
0.152083
0.239876
0.25711
0.237806
0.193955
0.153241
0.163474
0.172952
0.152262
0.33935
0.236966
0.510307
0.444171
0.531039
0.529076
0.500684
0.524696
0.441367
0.471224
0.371233
0.405514
0.306397
0.336032
0.278064
0.278532
0.294348
0.294266
0.288321
0.292497
0.289245
0.289346
0.313083
0.308733
0.311149
0.300883
0.295857
0.295584
0.398812
0.363541
0.336126
0.318067
0.525301
0.487166
0.447361
0.408807
0.590128
0.564358
0.572519
0.533762
0.587066
0.596059
0.596908
0.524688
0.586606
0.555505
0.584426
0.516927
0.50782
0.47693
0.367007
0.412446
0.397328
0.466209
0.454092
0.440805
0.345842
0.100279
0.284098
0.23899
0.18365
0.130086
0.104058
0.318952
0.1
0.1
0.100001
0.100001
0.100001
0.100001
0.100001
0.100002
0.100002
0.100002
0.100004
0.100016
0.100089
0.100341
0.100689
0.100964
0.101004
0.100821
0.10058
0.100385
0.100592
0.102986
0.129805
0.215116
0.256849
0.252437
0.219624
0.164297
0.179959
0.136707
0.149966
0.150845
0.133266
0.327313
0.216032
0.507865
0.427379
0.535711
0.532818
0.501633
0.527255
0.437709
0.469142
0.377741
0.418409
0.295634
0.333167
0.284266
0.276205
0.314922
0.314862
0.303146
0.311428
0.298579
0.303647
0.338335
0.333309
0.307374
0.303701
0.305361
0.311281
0.374541
0.347749
0.329228
0.318029
0.497668
0.459912
0.423445
0.390979
0.581818
0.544067
0.555697
0.51054
0.600004
0.590905
0.60154
0.548872
0.601993
0.580308
0.602781
0.540439
0.530367
0.497295
0.379561
0.426152
0.409805
0.4852
0.471559
0.456533
0.357918
0.100123
0.330416
0.294308
0.246462
0.186916
0.128541
0.102662
0.1
0.1
0.100001
0.100001
0.100001
0.100001
0.100001
0.100002
0.100002
0.100006
0.100039
0.100246
0.100996
0.102371
0.103514
0.103671
0.102947
0.102021
0.101225
0.100891
0.10235
0.117955
0.186762
0.252319
0.26042
0.239135
0.191139
0.147174
0.160184
0.121339
0.133748
0.130504
0.116564
0.30227
0.190345
0.492608
0.394083
0.535973
0.529178
0.51114
0.530475
0.452888
0.483285
0.385548
0.430958
0.288973
0.33377
0.311984
0.292892
0.278108
0.27217
0.340232
0.340055
0.326687
0.336006
0.318909
0.326474
0.369889
0.363891
0.31557
0.318013
0.325638
0.335268
0.364287
0.344302
0.33234
0.33029
0.475794
0.442324
0.411885
0.385427
0.568287
0.525152
0.540711
0.494066
0.606371
0.580794
0.599938
0.573702
0.609994
0.601909
0.612917
0.564936
0.554193
0.518648
0.391117
0.440141
0.422198
0.505051
0.489848
0.473034
0.368675
0.100042
0.340184
0.302306
0.251418
0.186411
0.124047
0.101261
0.1
0.1
0.100001
0.100001
0.100001
0.100001
0.100002
0.100002
0.100011
0.100087
0.100622
0.102845
0.107574
0.111767
0.112994
0.110579
0.106846
0.103793
0.101918
0.102485
0.113403
0.16418
0.23924
0.262742
0.251986
0.211408
0.145794
0.126893
0.13985
0.108428
0.116026
0.116601
0.10653
0.267388
0.16431
0.457378
0.348608
0.532365
0.515464
0.516808
0.525514
0.467579
0.496883
0.381456
0.431937
0.27299
0.320359
0.333427
0.30913
0.28353
0.271253
0.371864
0.371345
0.352753
0.365494
0.345424
0.355341
0.407407
0.400962
0.333117
0.341799
0.353348
0.366383
0.364202
0.351887
0.349378
0.351954
0.46426
0.43588
0.409883
0.389164
0.556591
0.513583
0.532919
0.487382
0.608165
0.571968
0.593038
0.59781
0.61442
0.614521
0.619201
0.590348
0.579212
0.541053
0.402074
0.454703
0.434898
0.5258
0.508762
0.490147
0.378384
0.100019
0.348517
0.308498
0.253958
0.182647
0.11699
0.100472
0.1
0.1
0.100001
0.100001
0.100001
0.100001
0.100002
0.100017
0.100188
0.101444
0.10715
0.119137
0.130162
0.133459
0.128666
0.119908
0.110938
0.104735
0.103583
0.112971
0.153667
0.225115
0.261935
0.258695
0.225906
0.163116
0.107361
0.116395
0.11254
0.108961
0.102774
0.104904
0.108982
0.102656
0.228585
0.14223
0.403159
0.295926
0.517273
0.481155
0.501032
0.501206
0.468097
0.491394
0.350258
0.400038
0.258652
0.263583
0.315834
0.283211
0.359753
0.328378
0.293476
0.266542
0.409226
0.408172
0.384042
0.400253
0.379105
0.391141
0.4489
0.442771
0.360945
0.373473
0.388492
0.404106
0.376165
0.372563
0.374498
0.383166
0.461616
0.438133
0.419299
0.406189
0.551534
0.510509
0.533136
0.489006
0.604616
0.569295
0.586655
0.61437
0.614815
0.622375
0.622743
0.611748
0.604072
0.564635
0.413067
0.47017
0.448454
0.547773
0.528688
0.508453
0.387719
0.100016
0.356012
0.313946
0.255597
0.174857
0.110031
0.100236
0.1
0.1
0.100001
0.100001
0.100001
0.100002
0.100027
0.100337
0.102876
0.113671
0.133935
0.150166
0.154533
0.148841
0.137226
0.123951
0.111936
0.10689
0.114361
0.153138
0.219227
0.258843
0.261192
0.235051
0.175361
0.113253
0.104104
0.101485
0.103094
0.102183
0.100903
0.101235
0.105047
0.101333
0.190411
0.125593
0.338072
0.240113
0.476413
0.421914
0.454421
0.444765
0.433545
0.449618
0.296039
0.296306
0.325103
0.344208
0.357758
0.249633
0.250336
0.267101
0.389114
0.351341
0.308025
0.26707
0.450165
0.448201
0.418031
0.437666
0.41893
0.432266
0.492173
0.4871
0.396109
0.412132
0.429752
0.447134
0.401314
0.402004
0.409572
0.421942
0.46979
0.453787
0.44212
0.436431
0.555216
0.516852
0.543551
0.502576
0.600873
0.574491
0.585823
0.624636
0.613378
0.628471
0.625103
0.625672
0.623038
0.589905
0.424586
0.486586
0.462626
0.570999
0.550704
0.528135
0.397183
0.100275
0.363663
0.319814
0.256625
0.16306
0.106293
0.100497
0.1
0.1
0.100001
0.100001
0.100002
0.100032
0.100461
0.104188
0.120078
0.147816
0.168424
0.174442
0.16873
0.155522
0.139572
0.124429
0.11459
0.120144
0.156757
0.219651
0.257568
0.261308
0.238885
0.182993
0.119103
0.101115
0.101703
0.100771
0.10023
0.100483
0.100439
0.10044
0.100334
0.10322
0.100928
0.156403
0.114464
0.266787
0.185782
0.406332
0.345657
0.37882
0.361978
0.362478
0.376767
0.268714
0.265879
0.289238
0.309984
0.328456
0.242005
0.236726
0.245318
0.418627
0.374661
0.323121
0.271769
0.492585
0.489053
0.452213
0.475348
0.463123
0.476794
0.535066
0.531627
0.438172
0.456518
0.475592
0.493617
0.436473
0.440355
0.452643
0.467644
0.490706
0.482062
0.477433
0.47716
0.566226
0.534277
0.563491
0.527276
0.60051
0.58699
0.591612
0.633049
0.614975
0.634302
0.627193
0.635914
0.636195
0.614419
0.436258
0.503336
0.476423
0.597262
0.574517
0.548523
0.406794
0.110606
0.371815
0.325487
0.25651
0.154633
0.106564
0.105103
0.1
0.1
0.100001
0.100002
0.10003
0.100484
0.104996
0.124635
0.159086
0.184611
0.19273
0.187799
0.174831
0.158296
0.142732
0.132118
0.135009
0.168797
0.223707
0.25785
0.260731
0.238714
0.185334
0.122003
0.101664
0.100132
0.10023
0.100135
0.100044
0.100066
0.100116
0.100347
0.100169
0.10243
0.100789
0.130563
0.108635
0.198905
0.143011
0.318966
0.262455
0.280887
0.264117
0.287286
0.290289
0.281952
0.242208
0.231023
0.249782
0.266324
0.279367
0.234752
0.222877
0.225055
0.446263
0.396461
0.337514
0.27775
0.534679
0.527734
0.484409
0.511023
0.509529
0.522504
0.575679
0.574195
0.485702
0.504897
0.523959
0.541343
0.479892
0.489202
0.502631
0.519108
0.523042
0.521936
0.52262
0.526793
0.586721
0.562219
0.588557
0.562104
0.608317
0.609272
0.606403
0.640726
0.620725
0.637929
0.631633
0.644847
0.64586
0.631694
0.448265
0.520261
0.492004
0.621211
0.599451
0.57117
0.416879
0.10899
0.379519
0.331115
0.257643
0.15735
0.114744
0.123728
0.1
0.1
0.100001
0.10002
0.10044
0.105005
0.12684
0.16691
0.198062
0.208882
0.20537
0.194252
0.179903
0.167097
0.160327
0.16723
0.1965
0.234767
0.257721
0.258541
0.235545
0.183353
0.122273
0.101953
0.100068
0.100021
0.100032
0.100046
0.100022
0.100018
0.10007
0.100331
0.100143
0.101777
0.10068
0.115342
0.105115
0.144004
0.117814
0.226969
0.184782
0.172218
0.166354
0.248871
0.259246
0.196352
0.192623
0.213335
0.196845
0.211395
0.225597
0.238001
0.226043
0.20676
0.204512
0.470682
0.415206
0.349259
0.281687
0.573847
0.563762
0.513224
0.543472
0.556028
0.567351
0.613628
0.613608
0.537238
0.555601
0.573034
0.588438
0.533762
0.545276
0.559091
0.574943
0.564338
0.569054
0.575542
0.583977
0.613646
0.592261
0.618307
0.597675
0.620224
0.625703
0.62345
0.645859
0.629104
0.642847
0.639367
0.650393
0.653844
0.644494
0.46079
0.541292
0.50783
0.636825
0.624133
0.597842
0.425967
0.102505
0.387495
0.33683
0.264286
0.180175
0.145204
0.141877
0.1
0.100001
0.100009
0.100312
0.104555
0.126866
0.170847
0.207984
0.221724
0.220073
0.211782
0.201764
0.194287
0.193144
0.201838
0.221319
0.242809
0.256291
0.252934
0.22678
0.175133
0.120004
0.101876
0.100086
0.100009
0.100009
0.100009
0.10001
0.100035
0.100019
0.100013
0.100063
0.100298
0.100135
0.101199
0.100543
0.107079
0.10287
0.112672
0.105648
0.147975
0.12731
0.122586
0.165415
0.119443
0.112502
0.194633
0.196236
0.162185
0.185638
0.164546
0.173184
0.182426
0.190069
0.220996
0.19057
0.184083
0.492078
0.431098
0.35855
0.283709
0.610019
0.595857
0.538852
0.572546
0.600867
0.609736
0.64805
0.648985
0.591214
0.606841
0.620904
0.632918
0.593715
0.605565
0.618219
0.631809
0.604994
0.614058
0.623521
0.633055
0.629414
0.624146
0.639119
0.630646
0.629876
0.640763
0.63414
0.651398
0.639513
0.651849
0.652113
0.658354
0.662371
0.652736
0.471698
0.561639
0.522872
0.651122
0.640476
0.623454
0.436073
0.103846
0.394636
0.343659
0.279535
0.218715
0.187308
0.151994
0.1
0.100005
0.10016
0.103407
0.124839
0.171175
0.213813
0.230869
0.230824
0.224961
0.218195
0.21483
0.215947
0.222311
0.232701
0.243327
0.251623
0.241032
0.21107
0.160023
0.115192
0.101548
0.100083
0.100008
0.100007
0.100006
0.100006
0.100009
0.100032
0.100017
0.100012
0.100056
0.100232
0.100106
0.100666
0.100376
0.102569
0.101252
0.102788
0.101449
0.111233
0.105588
0.123768
0.110227
0.111173
0.102729
0.102416
0.155618
0.159109
0.123446
0.161348
0.13931
0.141824
0.146565
0.151487
0.214187
0.175311
0.163289
0.510891
0.444675
0.365564
0.283526
0.641062
0.624946
0.56159
0.598546
0.642174
0.647848
0.676166
0.678094
0.644594
0.655864
0.66498
0.671992
0.642447
0.652042
0.661474
0.670418
0.638418
0.646639
0.655036
0.662583
0.654248
0.64762
0.667474
0.658294
0.64325
0.664902
0.652675
0.660895
0.657068
0.663098
0.666177
0.66796
0.676419
0.66181
0.486187
0.58641
0.545264
0.659578
0.658403
0.640031
0.444555
0.91042
0.40209
0.351362
0.297678
0.253363
0.223329