/*--------------------------------*- C++ -*----------------------------------*\
  =========                 |
  \\      /  F ield         | OpenFOAM: The Open Source CFD Toolbox
   \\    /   O peration     | Website:  https://openfoam.org
    \\  /    A nd           | Version:  dev
     \\/     M anipulation  |
\*---------------------------------------------------------------------------*/
FoamFile
{
    version     2.0;
    format      ascii;
    class       volScalarField;
    location    "2500";
    object      alphat;
}
// * * * * * * * * * * * * * * * * * * * * * * * * * * * * * * * * * * * * * //

dimensions      [1 -1 -1 0 0 0 0];

internalField   nonuniform List<scalar> 
9967
(
0.000149904
0.000154202
0.000146273
0.000140973
0.000186557
0.000130381
0.000131061
0.000197156
0.000176575
0.000124369
0.000126058
0.000189863
0.000204376
0.000150912
0.000121961
0.000122557
0.000169773
0.000219891
0.000189434
0.00013701
0.000120723
0.000120587
0.000152085
0.000218541
0.000216105
0.000161024
0.000131054
0.000119773
0.000119882
0.000140099
0.000207191
0.00023227
0.000195
0.000144619
0.000127523
0.000119138
0.000119611
0.00013182
0.000182565
0.000238829
0.000223434
0.000166174
0.000136993
0.000124986
0.00011868
0.000119447
0.000127058
0.000160928
0.000233452
0.000239288
0.000196091
0.000149356
0.00013233
0.000123042
0.000118432
0.000119286
0.000124254
0.000146811
0.000216566
0.000251593
0.000226195
0.000168517
0.000140865
0.00012892
0.000121578
0.000118234
0.000118918
0.000122647
0.00013693
0.000188175
0.000251529
0.000246851
0.000194407
0.000152091
0.000135531
0.000126306
0.000120584
0.000118082
0.000118505
0.000122015
0.000130897
0.000165625
0.000243495
0.000258508
0.00022567
0.000168367
0.000143103
0.000131684
0.000124193
0.000119912
0.000117949
0.000118148
0.000121609
0.000127509
0.000150828
0.000222183
0.000266581
0.000249215
0.000192155
0.000152993
0.000137495
0.000128661
0.000122525
0.000119445
0.000117738
0.000117876
0.000121123
0.000125621
0.000140607
0.000191629
0.00026405
0.000264641
0.00022056
0.000167272
0.00014439
0.000133378
0.000126166
0.000121285
0.000119092
0.000117505
0.000117673
0.000120461
0.000124364
0.00013442
0.00016929
0.000253014
0.000275176
0.000249229
0.000188145
0.000152692
0.000138707
0.000130156
0.000124209
0.000120426
0.000118696
0.000117361
0.000117596
0.000119879
0.00012351
0.000130615
0.000154695
0.000227852
0.00028068
0.000268298
0.000214076
0.000165396
0.00014436
0.000134369
0.000127535
0.000122617
0.000119849
0.000118206
0.000117284
0.000117685
0.000119318
0.000122813
0.000128145
0.000144358
0.000196648
0.000276635
0.000280463
0.000242737
0.000183419
0.000152115
0.000138815
0.000130953
0.000125452
0.000121305
0.000119335
0.000117763
0.000117242
0.000117777
0.00011863
0.000122103
0.000126398
0.000137804
0.00017382
0.000264105
0.000290176
0.000267569
0.00020662
0.000162676
0.000144086
0.000134646
0.000128317
0.000123753
0.000120413
0.000118794
0.000117427
0.000117213
0.00011779
0.000118077
0.000121264
0.000124988
0.000133418
0.000160055
0.000237493
0.000294463
0.0002844
0.000233821
0.000178279
0.000150476
0.000138673
0.000131391
0.00012622
0.000122229
0.000119753
0.000118222
0.000117204
0.000117179
0.00011771
0.000117789
0.000120465
0.000123909
0.000130389
0.000149234
0.000206857
0.000289971
0.00029502
0.000260713
0.000198929
0.000160008
0.000143128
0.000134663
0.000128743
0.000124439
0.000121026
0.000119165
0.00011769
0.000117076
0.000117145
0.000117603
0.000117766
0.000119627
0.000123023
0.000128225
0.000142002
0.00018103
0.000277613
0.000303914
0.000283144
0.000222591
0.000172985
0.000149054
0.000138165
0.000131447
0.000126607
0.000122937
0.00012015
0.000118591
0.000117285
0.000116987
0.000117125
0.000117499
0.000117781
0.000118719
0.000122223
0.000126539
0.000137098
0.00016789
0.000253086
0.000308382
0.000298191
0.000249424
0.000190466
0.000156854
0.000142273
0.000134349
0.000128845
0.000124861
0.000121657
0.000119457
0.000118017
0.000117017
0.000116914
0.000117114
0.000117412
0.000117764
0.000117903
0.000121456
0.00012514
0.000133613
0.000157029
0.000222961
0.00030454
0.000308656
0.000274064
0.000211572
0.000168039
0.000147212
0.000137569
0.000131262
0.000126804
0.000123396
0.000120613
0.000118862
0.000117526
0.000116853
0.000116874
0.00011711
0.000117346
0.000117697
0.000117216
0.000120742
0.000123903
0.000131071
0.000148989
0.000196
0.000294507
0.000315914
0.000296112
0.000234967
0.000182187
0.000154152
0.000141087
0.000133957
0.000128826
0.00012517
0.000122156
0.000119812
0.000118357
0.00011716
0.000116741
0.000116871
0.000117114
0.000117301
0.000117583
0.000116738
0.000120053
0.000122844
0.000129112
0.00014344
0.000178785
0.000275333
0.000321832
0.000309575
0.000259455
0.000200299
0.000163028
0.000145586
0.000136795
0.00013107
0.000126971
0.000123774
0.000121149
0.000119209
0.000117903
0.000116958
0.000116701
0.000116896
0.000117129
0.000117276
0.000117445
0.000116372
0.000119293
0.000122016
0.000127491
0.0001396
0.000168858
0.000249381
0.000319768
0.000320487
0.000283122
0.000220143
0.000174857
0.000151301
0.000139988
0.000133571
0.000128817
0.000125438
0.000122583
0.000120337
0.000118723
0.0001175
0.000116851
0.000116727
0.000116947
0.000117152
0.000117274
0.000117284
0.000116066
0.000118619
0.000121326
0.00012616
0.000136804
0.000161005
0.000222536
0.000313953
0.00032571
0.000304751
0.000242562
0.000188991
0.000158671
0.000143939
0.000136088
0.000130943
0.000127081
0.000124113
0.000121609
0.000119668
0.000118303
0.000117212
0.000116827
0.00011681
0.000117026
0.000117183
0.000117287
0.00011711
0.000115803
0.000118068
0.000120718
0.000125116
0.000134863
0.000155149
0.000200714
0.000300682
0.000332485
0.000318151
0.000263847
0.000206025
0.000167869
0.000148764
0.000139046
0.000133188
0.000128894
0.000125679
0.000122985
0.000120819
0.00011914
0.000117965
0.000117076
0.000116893
0.000116953
0.00011714
0.00011723
0.000117305
0.000116943
0.000115567
0.000117668
0.000120219
0.000124318
0.000133552
0.000151272
0.000186224
0.000281601
0.000334344
0.000328501
0.000287501
0.000224598
0.000179039
0.000154816
0.000142468
0.000135705
0.000130815
0.000127328
0.000124503
0.000122067
0.000120202
0.000118754
0.000117695
0.000117061
0.000117053
0.000117144
0.000117283
0.000117298
0.000117335
0.000116768
0.000115377
0.000117421
0.000119844
0.000123733
0.000132681
0.000150287
0.00017831
0.000260204
0.000331886
0.000335472
0.000306855
0.00024474
0.000192585
0.000161879
0.000146634
0.000138246
0.000133087
0.000129051
0.00012612
0.00012354
0.000121373
0.000119694
0.000118472
0.000117569
0.000117134
0.00011735
0.000117454
0.000117479
0.000117382
0.00011737
0.000116592
0.000115245
0.000117319
0.000119596
0.000123369
0.000132191
0.000150733
0.000174295
0.000239446
0.000325028
0.00033971
0.00032365
0.000265132
0.000207937
0.000170528
0.000151438
0.000141215
0.000135364
0.000131025
0.000127811
0.000125209
0.000122799
0.000120865
0.000119347
0.00011834
0.000117591
0.000117273
0.00011766
0.00011789
0.000117861
0.000117618
0.000117408
0.00011641
0.000115179
0.000117345
0.00011946
0.000123264
0.000132106
0.00015078
0.000172218
0.00022172
0.000312011
0.000343518
0.000333305
0.000284101
0.000224908
0.000180842
0.000156904
0.00014473
0.000137717
0.000133171
0.000129623
0.000126965
0.0001245
0.000122261
0.000120562
0.000119206
0.000118369
0.000117751
0.000117549
0.000117909
0.000118161
0.000118155
0.000117871
0.000117433
0.000116217
0.000115203
0.000117485
0.000119443
0.000123408
0.000132472
0.000151089
0.000172462
0.0002091
0.000296371
0.00034311
0.000340136
0.000304012
0.000241894
0.000192844
0.000163445
0.000148515
0.000140384
0.000135403
0.000131572
0.000128787
0.000126416
0.000124021
0.000121942
0.000120349
0.000119232
0.000118632
0.000118216
0.000118103
0.000118274
0.000118426
0.00011867
0.000103232
0.000117439
0.000116028
0.000115315
0.00011774
0.000119557
0.000123822
0.000133498
0.000152307
0.000173661
0.000199861
0.000279234
0.00034061
0.00034395
0.000319443
0.000259971
0.000206121
0.000171029
0.0001529
0.000143168
0.000137596
0.000133691
0.000130661
0.000128404
0.000126175
0.000123921
0.000121944
0.000120288
0.000119323
0.000119001
0.000119002
0.000119165
0.000119358
0.000119324
0.000111606
0.000105085
8.19427e-05
9.58577e-05
8.00766e-05
0.000117423
0.000115837
0.000115544
0.000118064
0.000119834
0.000124619
0.000135384
0.00015421
0.000174158
0.000195965
0.000262511
0.000334173
0.000345468
0.000332182
0.000277138
0.000220709
0.000179922
0.000157697
0.000146312
0.000139823
0.000135881
0.000132694
0.000130423
0.000128471
0.000126366
0.000124215
0.00012228
0.000120586
0.000119704
0.000119577
0.000119864
0.000120274
0.000119838
0.000117545
0.000102433
0.000111891
9.56436e-05
9.28529e-05
7.04874e-05
7.422e-05
7.02381e-05
0.000117383
0.000115681
0.0001159
0.000118435
0.000120313
0.000125804
0.00013812
0.000156581
0.000174626
0.000194383
0.000245904
0.000322912
0.000346458
0.000338784
0.000292374
0.000235573
0.00019017
0.000163172
0.00014967
0.000142179
0.000137909
0.000134843
0.000132584
0.000130856
0.000129091
0.000127028
0.000125075
0.000123158
0.000121395
0.000120596
0.00012051
0.000120804
0.000116132
0.000114462
0.000104857
8.80022e-05
8.92468e-05
8.2201e-05
7.46322e-05
6.22255e-05
6.73087e-05
6.02996e-05
0.000117314
0.000115581
0.000116396
0.000118852
0.000121049
0.000127537
0.00014139
0.000159022
0.000175169
0.000192824
0.000232482
0.000309062
0.000346513
0.000342583
0.000307614
0.000250139
0.000201257
0.000169612
0.00015315
0.000144708
0.000139827
0.000136936
0.00013483
0.000133373
0.00013205
0.000130414
0.000128389
0.000126682
0.000124865
0.000123305
0.000122296
0.000121919
0.000112569
0.000109291
9.87595e-05
9.75683e-05
8.77191e-05
7.2717e-05
7.77559e-05
6.94639e-05
6.51133e-05
5.46554e-05
5.88636e-05
5.2703e-05
0.000117217
0.000115538
0.000116951
0.000119253
0.000122076
0.000129935
0.000145086
0.000161345
0.000175536
0.00019109
0.000221407
0.000293683
0.000343463
0.000344994
0.000320108
0.000264161
0.000213133
0.000176705
0.000157121
0.000147207
0.000141709
0.000138865
0.000137033
0.000135916
0.000135154
0.000134167
0.000132651
0.000130828
0.000129435
0.000127455
0.000126175
0.000125063
0.000108296
0.000105089
9.14354e-05
9.14427e-05
8.47915e-05
8.14356e-05
7.48034e-05
6.28452e-05
6.63128e-05
6.02939e-05
5.70622e-05
4.82717e-05
5.18486e-05
4.67239e-05
0.000117095
0.000115544
0.000117543
0.000119691
0.000123422
0.000133223
0.000148813
0.000163326
0.000175554
0.000188905
0.000213632
0.000278498
0.000336287
0.000344817
0.000329117
0.000277409
0.000225097
0.00018487
0.000161338
0.000149687
0.000143506
0.000140399
0.00013905
0.000138365
0.000138261
0.000138079
0.000137377
0.000135788
0.000132777
0.000130623
0.000128741
0.000127594
0.000104937
0.000102644
8.54449e-05
8.65558e-05
7.72947e-05
7.43278e-05
7.19459e-05
6.88023e-05
6.35817e-05
5.48462e-05
5.76009e-05
5.26974e-05
5.04154e-05
4.29871e-05
4.61102e-05
4.19188e-05
0.000116973
0.000115626
0.00011816
0.00012025
0.000125145
0.000136939
0.000151966
0.000164821
0.000175055
0.000186437
0.000208762
0.000263227
0.000326808
0.000343582
0.000335129
0.000289147
0.000236697
0.00019372
0.000166052
0.000152148
0.000145255
0.00014175
0.000140636
0.000140585
0.000141242
0.000141976
0.000141914
0.000140069
0.000137692
0.000133627
0.000128674
0.000125067
0.000104867
0.000109573
8.17236e-05
8.48224e-05
7.10512e-05
6.94143e-05
6.51182e-05
6.18286e-05
6.09136e-05
5.81364e-05
5.49329e-05
4.83965e-05
5.03331e-05
4.64692e-05
4.47774e-05
3.86298e-05
4.14421e-05
3.79939e-05
0.000116838
0.000115774
0.000118733
0.000120986
0.000127235
0.000140718
0.000154517
0.000165761
0.000174172
0.000183804
0.000203641
0.000248585
0.000315751
0.000341264
0.00033772
0.00030036
0.000248235
0.00020271
0.000171491
0.000154746
0.000146808
0.000142836
0.000141796
0.00014226
0.000143858
0.000145781
0.000146096
0.000144557
0.000142466
0.000136903
0.000129482
0.000115677
0.000118121
0.000106082
8.58726e-05
0.000104353
6.86351e-05
7.22059e-05
5.91529e-05
5.8355e-05
5.49139e-05
5.20053e-05
5.24037e-05
4.97675e-05
4.78413e-05
4.32152e-05
4.4326e-05
4.14213e-05
4.03558e-05
3.50973e-05
3.77142e-05
3.4826e-05
0.000116701
0.000116001
0.000119259
0.000121876
0.000129727
0.0001442
0.00015642
0.000166053
0.000173076
0.00018124
0.000198558
0.000236556
0.000303532
0.000337872
0.000337669
0.000310653
0.000258974
0.000212233
0.000177376
0.000157769
0.000148194
0.000143712
0.000142613
0.000143329
0.000145821
0.000148813
0.00014174
0.000150979
0.000151064
0.000153301
0.000158556
0.000159324
0.000107552
0.000132231
0.000101792
0.000103915
8.72283e-05
0.000100426
6.09162e-05
7.58825e-05
5.04894e-05
5.25051e-05
4.7075e-05
4.49994e-05
4.55233e-05
4.33737e-05
4.20275e-05
3.90608e-05
3.94419e-05
3.73789e-05
3.68339e-05
3.23802e-05
3.48351e-05
3.25807e-05
0.000116605
0.000116301
0.00011976
0.000122931
0.00013256
0.000146951
0.000157715
0.000165455
0.000171629
0.000178734
0.000193811
0.000225301
0.000290956
0.000333503
0.000337113
0.00031806
0.000269251
0.000221578
0.000184188
0.000160886
0.000149646
0.000144638
0.000143325
0.000144133
0.000146954
0.000146219
0.000134885
0.000149021
0.000175388
0.000195338
0.000222459
0.000285937
0.000221675
0.00034813
0.000140073
0.000253634
0.00010596
0.000154601
0.000100025
0.000108811
6.71736e-05
0.000100139
4.61971e-05
5.99628e-05
4.13935e-05
4.18055e-05
4.0184e-05
3.88198e-05
3.76011e-05
3.55306e-05
3.56195e-05
3.40584e-05
3.39145e-05
3.0012e-05
3.25518e-05
3.10528e-05
0.000116574
0.000116595
0.000120161
0.000124119
0.000135214
0.000148947
0.000158347
0.000164271
0.000170052
0.000176445
0.000189299
0.000217063
0.000279006
0.00032819
0.000335346
0.00032374
0.000278758
0.000231165
0.000191274
0.000164465
0.000151186
0.000145405
0.00014365
0.00014467
0.0001478
0.000144913
0.000131562
0.000145516
0.000194978
0.000262361
0.000353012
0.0004679
0.00044658
0.000559768
0.000379507
0.000486053
0.000283125
0.000401834
0.000169041
0.000303642
0.000112071
0.000180607
0.000100317
0.000115194
5.45421e-05
0.000100386
3.88408e-05
5.06136e-05
3.65592e-05
3.6741e-05
3.48361e-05
3.27146e-05
3.31345e-05
3.17086e-05
3.15263e-05
2.81625e-05
3.06602e-05
2.95734e-05
0.000116629
0.000116796
0.000120528
0.000125393
0.000137594
0.000150567
0.000158343
0.00016294
0.000168621
0.000174269
0.000185075
0.000210121
0.000265865
0.000321793
0.000333792
0.000326752
0.000287035
0.000240314
0.000198912
0.000168963
0.000152844
0.000145851
0.000143556
0.000144486
0.000148208
0.000145919
0.000131055
0.000141264
0.000203298
0.000299138
0.000475558
0.000607585
0.000598653
0.000653241
0.000560992
0.000607554
0.000497024
0.00056344
0.0004178
0.000504066
0.00031686
0.000427228
0.000189202
0.000324523
0.000118012
0.00019543
0.000100344
0.00012025
4.78379e-05
9.71611e-05
3.54017e-05
4.51257e-05
3.43557e-05
3.07067e-05
3.27883e-05
3.1104e-05
2.9965e-05
2.72825e-05
2.89534e-05
2.8451e-05
0.000116855
0.000116873
0.000120911
0.000126797
0.000139735
0.000151699
0.000157863
0.000161795
0.000167294
0.000172099
0.000181219
0.00020358
0.000253125
0.000314429
0.000333284
0.000328274
0.000295462
0.000249283
0.000206989
0.000174483
0.000154815
0.000146383
0.000143418
0.00014408
0.000147387
0.000148895
0.000133025
0.000139344
0.000204088
0.000309107
0.00054491
0.000671894
0.000669696
0.000636325
0.000658127
0.000601242
0.000623621
0.000563192
0.000593943
0.000508023
0.000562228
0.00043239
0.000508939
0.000329183
0.000434429
0.000199676
0.000331587
0.000121712
0.000201946
9.34358e-05
0.000122021
4.33928e-05
8.88104e-05
4.15628e-05
2.98633e-05
3.91894e-05
3.58291e-05
2.91397e-05
2.74849e-05
2.75065e-05
2.84876e-05
0.000117584
0.000116991
0.000121254
0.000128284
0.000141189
0.000152243
0.000157191
0.00016103
0.000165964
0.000170041
0.000177824
0.00019782
0.000241818
0.000306407
0.000332574
0.000329339
0.000303358
0.000257864
0.000215314
0.000180895
0.000157559
0.000147256
0.000143251
0.000143637
0.000146525
0.000153357
0.000135421
0.000134936
0.000200144
0.000307445
0.000561996
0.000710286
0.000692001
0.000641468
0.000649597
0.000634777
0.000638499
0.000609205
0.000614931
0.000589941
0.000600081
0.00055872
0.000584406
0.000508313
0.000554359
0.000434371
0.000505645
0.000332093
0.000432026
0.000202417
0.000330858
0.000120481
0.000199968
8.45121e-05
0.000117355
7.94968e-05
3.25704e-05
7.306e-05
6.20758e-05
2.90723e-05
2.83748e-05
2.7669e-05
2.90345e-05
0.000119934
0.000117914
0.000121683
0.000129257
0.000141602
0.00015215
0.000156444
0.000160463
0.000164585
0.000168224
0.000175024
0.000193044
0.00023217
0.00029806
0.000331631
0.000330647
0.000310073
0.000266055
0.00022401
0.000187511
0.000161535
0.000148489
0.000143172
0.000143189
0.000145575
0.000151657
0.000139792
0.000131754
0.000188313
0.000294406
0.000553362
0.000741671
0.000713121
0.000660006
0.000678374
0.000625113
0.000634821
0.000616854
0.000620873
0.000603383
0.000600952
0.00059158
0.000591684
0.000577959
0.000585642
0.000549874
0.000573449
0.000501398
0.000545564
0.000428113
0.000496641
0.000328131
0.00042344
0.00019302
0.000321611
0.000112824
0.000182635
0.000108184
4.95252e-05
0.00010257
9.40227e-05
3.62975e-05
2.9034e-05
3.0079e-05
2.92272e-05
0.000136474
0.000121732
0.000122691
0.000129553
0.00014088
0.000151016
0.000155606
0.000159774
0.000163216
0.00016656
0.000172789
0.000189275
0.000224314
0.000289983
0.000331186
0.00033206
0.000315707
0.000274292
0.000232485
0.00019522
0.000166927
0.000149841
0.000143342
0.000142743
0.000144652
0.00015029
0.000146611
0.000132689
0.000176538
0.000263063
0.00051972
0.00076721
0.000751581
0.000691501
0.000648917
0.000662086
0.00060831
0.000621965
0.000599363
0.000600344
0.000585427
0.000581091
0.000583051
0.00057659
0.0005817
0.00058045
0.000570433
0.000582375
0.000542223
0.000572633
0.000492674
0.00054384
0.000419151
0.000490683
0.000311442
0.000411456
0.000171197
0.000299889
0.000159425
8.53282e-05
0.00014431
0.000126463
7.64448e-05
3.03123e-05
4.3787e-05
3.03306e-05
0.000129764
0.000125629
0.000129153
0.000138737
0.000148451
0.000154325
0.000158926
0.000162006
0.000165074
0.000171015
0.000186382
0.000218175
0.00028268
0.000330328
0.000333709
0.000321551
0.000282459
0.00024094
0.000203637
0.000173292
0.000152351
0.000144006
0.000142553
0.000144019
0.000149304
0.000154405
0.000137116
0.000152594
0.000230504
0.00044484
0.000776209
0.000809986
0.000736171
0.000658574
0.000672868
0.000635688
0.00064762
0.000597275
0.000610104
0.000581221
0.000586975
0.000570693
0.00056782
0.000574394
0.000566296
0.000583192
0.000576539
0.000587172
0.000591051
0.000577657
0.000600452
0.000548208
0.000593285
0.000493478
0.000556864
0.000404176
0.000491901
0.000286393
0.000397681
0.000267141
0.000109809
0.000239855
0.000205534
9.18555e-05
3.47897e-05
6.92513e-05
3.86322e-05
0.000136675
0.000130938
0.000137267
0.000145479
0.000152484
0.000157668
0.000160986
0.00016382
0.000169668
0.000184254
0.00021365
0.00027614
0.000328841
0.00033704
0.000326525
0.000289807
0.000249967
0.0002123
0.000180558
0.000157688
0.000144968
0.000143006
0.000143897
0.000148356
0.000156713
0.000145945
0.000142107
0.000201824
0.000363058
0.000763005
0.000863434
0.000801364
0.000686576
0.000714883
0.000621647
0.000618588
0.00061954
0.000623176
0.000583757
0.000590997
0.00056915
0.000574362
0.000559285
0.000554995
0.000565902
0.000553583
0.000581116
0.000563157
0.000597846
0.000574972
0.000608482
0.000587688
0.000606067
0.00060401
0.000572202
0.000616627
0.000493852
0.000577651
0.000388394
0.000496008
0.00037418
0.00017156
0.000353325
0.000323314
0.000133785
8.43279e-05
8.03495e-05
5.30882e-05
0.000143486
0.000138765
0.000144368
0.000150693
0.000155669
0.000159846
0.000162814
0.000168728
0.00018284
0.000210689
0.000270238
0.00032689
0.000341778
0.000331764
0.000299195
0.000258147
0.000221617
0.000189067
0.000164437
0.00014726
0.000143846
0.000144333
0.000147978
0.000156026
0.000155129
0.000145394
0.000182638
0.000291208
0.000693948
0.000882361
0.000895286
0.000728828
0.000619692
0.000617308
0.000578699
0.00056716
0.00059436
0.000589809
0.000559707
0.000564103
0.000553703
0.00055517
0.000543075
0.000533896
0.000545168
0.000527905
0.000548964
0.000524664
0.000551614
0.000518167
0.000568232
0.000524402
0.000597549
0.000549534
0.000619106
0.000591883
0.000582276
0.000621212
0.000493385
0.00058874
0.000484952
0.000279658
0.000407478
0.000475748
0.000462746
0.000374872
0.00044976
0.000238351
0.000154523
5.19356e-05
0.000199169
8.22666e-05
0.000149231
0.000105708
6.93271e-05
5.68287e-05
0.000150695
0.000146294
0.000150715
0.000154418
0.000158137
0.000161759
0.000168127
0.000182022
0.000208853
0.000264751
0.000325168
0.000346692
0.000337364
0.000308419
0.000266906
0.000230842
0.000198805
0.000171789
0.000153068
0.000145822
0.000145144
0.000148436
0.000156019
0.000163071
0.000151909
0.000173408
0.000234288
0.000542705
0.000875266
0.000965975
0.000856106
0.000575768
0.000620263
0.00056127
0.000562327
0.000535642
0.000518135
0.000563495
0.000552312
0.000528426
0.00053024
0.00052816
0.000526874
0.000512748
0.000501934
0.000504327
0.00048784
0.000489746
0.000472685
0.00048404
0.00045779
0.000497083
0.00045189
0.000536056
0.000466163
0.000587063
0.000558997
0.000517797
0.000614678
0.000625559
0.000586448
0.000615493
0.000544551
0.000588606
0.000625265
0.000615827
0.000627279
0.00058482
0.000582404
0.000532535
0.000321758
0.000407608
0.000429933
0.000525396
0.000514078
0.000499257
0.000291137
6.25112e-05
5.67347e-05
0.000247547
0.000192744
0.000133805
8.71125e-05
0.000160224
0.00015324
0.0001547
0.000157277
0.000160791
0.000167742
0.000181643
0.000207729
0.000259836
0.000323326
0.000352654
0.000344139
0.000317212
0.000276065
0.000239944
0.000209537
0.000180919
0.000161261
0.000151595
0.000147328
0.000149396
0.000156733
0.00016469
0.000157814
0.000160957
0.000195858
0.000397662
0.000846177
0.00098279
0.000980625
0.000664734
0.000750465
0.00051792
0.000547691
0.000507529
0.000505811
0.000503974
0.000487959
0.000528262
0.000519
0.000491754
0.000492636
0.000495444
0.000491977
0.000478253
0.00047482
0.000467296
0.000476996
0.000455306
0.000479557
0.000433815
0.000456384
0.000414912
0.000412102
0.000477578
0.000430805
0.00040501
0.000385061
0.000550775
0.000496687
0.000507878
0.00046006
0.000615705
0.000545703
0.000588755
0.000616483
0.000615543
0.000627791
0.000616531
0.000614664
0.000610977
0.000575824
0.000378265
0.000457369
0.000480572
0.000567584
0.000556515
0.000542222
0.000343011
6.75201e-05
5.27089e-05
7.36453e-05
6.24919e-05
0.000297306
0.000240179
0.000174092
0.000113686
0.000168674
0.000158051
0.000157681
0.000160755
0.000167778
0.00018197
0.000207243
0.000255394
0.000320583
0.000358732
0.000352254
0.000327616
0.000285651
0.000249478
0.000220786
0.000191903
0.000172072
0.000161139
0.000154038
0.000152681
0.000158694
0.000166123
0.00016319
0.000162221
0.000179224
0.000294845
0.000770956
0.000986251
0.00106619
0.000842146
0.000594569
0.000642844
0.000489633
0.000511125
0.000478798
0.000476596
0.000476353
0.000467967
0.000492324
0.000487056
0.000473491
0.000469795
0.000472744
0.000473222
0.000491059
0.000503908
0.000506943
0.000533092
0.000494612
0.000523287
0.000449957
0.000488091
0.000385337
0.000398716
0.000417011
0.000444085
0.000416217
0.000384904
0.000371352
0.000372177
0.000491723
0.000434767
0.000446123
0.000400311
0.000588126
0.000484859
0.000542589
0.000627485
0.00058789
0.000617087
0.000588592
0.000626238
0.000623996
0.000605578
0.000428331
0.000524132
0.000501367
0.000598189
0.00058843
0.000575726
0.000391827
6.06898e-05
5.29589e-05
8.58453e-05
0.000144957
0.00034521
0.000287172
0.0002176
0.000174482
0.000160717
0.000161445
0.000168097
0.000182373
0.000207229
0.000251603
0.000316455
0.000362641
0.000360604
0.000339324
0.000295826
0.000259982
0.000231866
0.000204976
0.000187122
0.000173084
0.000165015
0.00016057
0.000164736
0.000169079
0.000168931
0.000169814
0.000176321
0.000228163
0.000578409
0.000918409
0.00110056
0.00104447
0.0006485
0.00075253
0.00054462
0.000590592
0.000494695
0.000516135
0.000466534
0.000470335
0.00044581
0.000445874
0.000464664
0.000457169
0.000511112
0.000497394
0.000513364
0.000516807
0.000549496
0.000561647
0.000544762
0.000563341
0.000520552
0.000537631
0.000461203
0.000483131
0.000495279
0.00050857
0.000388316
0.000409306
0.000431131
0.000454158
0.000369651
0.00035703
0.000359656
0.000376503
0.000424637
0.000385876
0.000373206
0.000355588
0.000540293
0.00041624
0.000479776
0.000617597
0.000539748
0.00059034
0.000541489
0.000618152
0.000618303
0.000620607
0.000472644
0.000559213
0.000537866
0.000615441
0.00060818
0.000598101
0.000436027
5.45785e-05
0.000101578
5.53793e-05
0.000177787
0.000259675
0.000389434
0.000331013
0.00017539
0.000164473
0.000169166
0.000183124
0.000207286
0.00024832
0.000312105
0.000364581
0.000370881
0.000350896
0.000307413
0.000270223
0.00024343
0.000221024
0.000204181
0.000189437
0.000179427
0.000176842
0.000175497
0.000176083
0.000170265
0.000173888
0.000178387
0.000193736
0.000405301
0.000839566
0.00109996
0.00117904
0.000890123
0.000592714
0.000652533
0.000542209
0.000562349
0.000512896
0.000544705
0.000449838
0.000465729
0.000440911
0.000438955
0.000481722
0.000462278
0.000569892
0.000556625
0.000568081
0.000572158
0.000579294
0.00059288
0.000544117
0.000544642
0.000512229
0.000518692
0.000515078
0.00047209
0.00048251
0.000491257
0.000497414
0.000397195
0.000419905
0.000442041
0.000458301
0.000343648
0.000347579
0.000363521
0.000383954
0.000362285
0.000342375
0.00033041
0.000330766
0.000476841
0.000353327
0.000410183
0.000593065
0.00047666
0.000545094
0.000479636
0.000596286
0.000599729
0.000617842
0.000510319
0.000584222
0.000565414
0.000616381
0.000613335
0.000607981
0.000474536
4.93904e-05
0.000209337
0.000117913
5.8081e-05
0.000298093
0.000370577
0.000428654
0.000177373
0.000172107
0.000184478
0.000207727
0.000246045
0.000307287
0.00036574
0.000382205
0.00036366
0.000321239
0.000281221
0.000255249
0.000239215
0.000222259
0.000209951
0.000200482
0.000196059
0.000190713
0.000180972
0.000167479
0.000171315
0.000181056
0.000182451
0.000311005
0.000757408
0.0010211
0.00121298
0.00115494
0.000676846
0.000851388
0.000550718
0.000603144
0.000563832
0.000554166
0.000535112
0.000578024
0.000444788
0.000468689
0.000466169
0.000453921
0.00053396
0.000501291
0.000613065
0.000598815
0.000604145
0.000613759
0.000542261
0.000549625
0.00051181
0.000506514
0.000501048
0.000503977
0.000481648
0.000483625
0.000469669
0.00047722
0.000480382
0.000482041
0.000406413
0.000427554
0.000443224
0.000455542
0.000335512
0.000350305
0.000369937
0.000391152
0.000319652
0.000318241
0.000306119
0.000323371
0.000406833
0.000310223
0.000346589
0.000550484
0.000406826
0.000485144
0.000410334
0.000557653
0.000565859
0.000602682
0.000540342
0.000598559
0.00058374
0.000604777
0.000605099
0.000603961
0.000506703
4.26039e-05
0.000331744
0.000237585
0.000132919
5.89201e-05
0.000405183
0.000462411
0.000182062
0.000187056
0.000208191
0.00024448
0.000302979
0.000366111
0.000393553
0.000377391
0.000337669
0.000293111
0.000268082
0.000255068
0.000240801
0.00023001
0.000221176
0.000210529
0.000206104
0.000201539
0.000196094
0.000188132
0.000184969
0.000183891
0.000248676
0.00058479
0.000906315
0.00121619
0.00131403
0.00104838
0.000593842
0.000745453
0.00050124
0.000524427
0.000588666
0.000548664
0.000562937
0.000600197
0.000458533
0.00048542
0.000497722
0.000479093
0.000574535
0.000538912
0.000613261
0.000605769
0.000576503
0.000602205
0.000497856
0.000485563
0.000479332
0.000476183
0.000469776
0.000473072
0.000483485
0.000483944
0.000471217
0.000471803
0.000461897
0.000464773
0.000466442
0.000467945
0.000411073
0.000427913
0.000439704
0.000446573
0.000337153
0.000355344
0.000374746
0.000393909
0.000294232
0.000311547
0.000298943
0.000324253
0.000342372
0.000283104
0.000302366
0.000493665
0.000341292
0.000417096
0.000343566
0.00050511
0.000518682
0.000574495
0.000561986
0.00060019
0.000591896
0.0005827
0.00058868
0.000592171
0.000531948
1.88478e-05
0.000434709
0.000360142
0.000261247
0.000143777
5.65844e-05
0.000490555
0.000193511
0.000209602
0.000244088
0.00029921
0.000365418
0.000402982
0.000391954
0.000355538
0.000307787
0.000279943
0.00027089
0.000254324
0.000241114
0.000224945
0.000215659
0.000211591
0.000208658
0.000205556
0.000200008
0.000195429
0.000188027
0.000214192
0.000414049
0.000775568
0.00113653
0.00137817
0.00129857
0.000787097
0.000958646
0.000483962
0.000631297
0.0004307
0.000421989
0.000599783
0.00051731
0.00058742
0.000610298
0.000482951
0.000513673
0.000505148
0.000491146
0.000583919
0.000547526
0.000567916
0.000570808
0.00050445
0.000543893
0.000455813
0.000452107
0.00047015
0.000467727
0.000459333
0.00046425
0.000469407
0.000471291
0.000464759
0.000464421
0.000450268
0.000452529
0.00045411
0.000456183
0.000410956
0.000422693
0.000431616
0.000436342
0.000340616
0.000358351
0.000376267
0.000392517
0.000285447
0.000311715
0.000298189
0.000326038
0.000296773
0.000271685
0.000273594
0.000428016
0.000293587
0.000349664
0.000292967
0.000442944
0.000461218
0.000533849
0.000575709
0.000592044
0.000588666
0.000549255
0.000563077
0.000573564
0.000550243
6.79195e-06
0.000512866
0.000459018
0.000382965
0.000278735
0.000146233
4.86582e-05
0.000213238
0.000244718
0.000295907
0.000363631
0.000409621
0.000407068
0.000375521
0.000323277
0.000293558
0.000282436
0.000264225
0.000242193
0.000218196
0.000221221
0.000216587
0.000209623
0.000203992
0.000206844
0.000207586
0.000198218
0.000207475
0.000325117
0.000664649
0.00101865
0.00138138
0.00146481
0.00110864
0.000622031
0.000778288
0.000343767
0.00047194
0.000336059
0.000294407
0.000584416
0.000450387
0.00059384
0.000600319
0.000499223
0.000535968
0.000502046
0.000497741
0.000554797
0.000526247
0.000529879
0.000536714
0.000470429
0.000507491
0.000444857
0.00043323
0.000423374
0.000422596
0.000464686
0.000463243
0.000453688
0.00045983
0.000458626
0.000461833
0.000459819
0.000458184
0.000438671
0.000440915
0.000443014
0.000445746
0.000404937
0.000414971
0.000421311
0.000425019
0.000341495
0.000357652
0.00037318
0.00038593
0.000283271
0.000311641
0.000296173
0.000325089
0.000266019
0.00026703
0.000258618
0.000360805
0.000260388
0.000295584
0.000257155
0.000377093
0.000398161
0.000482211
0.000580211
0.000579432
0.000580248
0.000504673