/*--------------------------------*- C++ -*----------------------------------*\
  =========                 |
  \\      /  F ield         | OpenFOAM: The Open Source CFD Toolbox
   \\    /   O peration     | Website:  https://openfoam.org
    \\  /    A nd           | Version:  dev
     \\/     M anipulation  |
\*---------------------------------------------------------------------------*/
FoamFile
{
    version     2.0;
    format      ascii;
    class       volScalarField;
    location    "2500";
    object      CO2;
}
// * * * * * * * * * * * * * * * * * * * * * * * * * * * * * * * * * * * * * //

dimensions      [0 0 0 0 0 0 0];

internalField   nonuniform List<scalar> 
9967
(
6.28871e-34
1.73968e-33
1.18812e-33
3.16124e-33
3.74589e-33
1.05959e-33
4.61916e-33
9.52963e-33
5.72034e-33
1.02277e-33
4.08394e-33
1.82636e-32
1.37809e-32
5.22532e-33
4.09223e-34
5.0733e-33
3.48599e-32
2.7043e-32
1.35564e-32
3.2296e-33
1.76855e-34
5.58077e-33
5.18482e-32
5.27037e-32
2.45122e-32
1.14475e-32
1.89835e-33
4.96962e-35
4.61172e-33
6.43753e-32
9.28936e-32
5.13746e-32
2.43843e-32
7.20629e-33
4.93449e-34
2.17704e-35
1.44516e-32
4.77574e-32
1.43022e-31
1.21396e-31
4.43321e-32
1.92222e-32
2.42487e-33
1.73215e-34
4.12021e-36
2.50234e-32
6.19212e-32
1.97537e-31
2.04218e-31
1.07834e-31
3.85485e-32
8.33429e-33
1.26005e-33
7.60618e-35
9.06549e-37
3.79834e-32
9.11261e-32
1.97931e-31
3.16613e-31
2.36577e-31
1.03403e-31
2.92584e-32
4.65714e-33
4.00826e-34
2.11357e-35
6.18397e-37
9.08806e-32
2.47906e-31
3.24941e-31
5.31982e-31
4.07736e-31
2.09663e-31
8.17297e-32
1.37325e-32
1.63783e-33
1.21281e-34
1.36983e-35
3.81095e-36
1.08876e-31
3.98025e-31
5.2841e-31
8.97515e-31
6.83265e-31
4.05022e-31
1.56217e-31
5.20796e-32
5.01654e-33
5.91816e-34
8.71538e-35
3.33221e-35
1.4485e-35
1.23396e-31
4.63981e-31
8.39111e-31
1.65561e-30
1.2774e-30
6.97594e-31
3.80983e-31
1.24658e-31
2.04203e-32
2.73909e-33
6.45657e-34
2.31479e-34
2.35706e-34
2.59428e-34
5.54902e-31
1.78632e-30
1.75832e-30
2.89405e-30
2.42849e-30
1.49155e-30
7.07933e-31
3.00618e-31
8.3605e-32
1.17767e-32
2.65026e-33
1.80521e-33
1.80461e-33
2.00645e-33
1.54501e-33
4.16815e-31
3.61224e-30
5.49565e-30
5.71924e-30
5.18847e-30
2.70967e-30
1.42137e-30
6.16672e-31
1.64299e-31
3.96642e-32
9.49012e-33
7.30638e-33
9.97229e-33
9.33418e-33
9.69742e-33
8.2113e-33
1.67709e-30
6.51279e-30
1.21225e-29
1.05554e-29
1.1422e-29
6.70313e-30
3.00225e-30
1.21558e-30
4.91697e-31
1.25612e-31
2.63154e-32
4.24607e-32
3.83868e-32
6.93409e-32
9.30432e-32
8.27656e-32
1.82984e-32
3.12386e-30
1.38347e-29
2.94964e-29
3.08015e-29
2.33345e-29
1.47687e-29
6.88298e-30
2.76444e-30
9.64396e-31
2.53589e-31
1.17036e-31
9.77467e-32
2.85211e-31
3.62269e-31
3.40917e-31
4.36738e-31
3.57577e-31
9.67226e-32
1.12121e-30
2.3171e-29
5.42541e-29
5.44476e-29
5.35641e-29
3.36212e-29
1.56883e-29
6.06451e-30
1.92801e-30
7.06852e-31
2.15208e-31
3.59191e-31
7.00935e-31
2.45083e-30
3.09818e-30
2.4633e-30
1.20748e-30
1.7771e-30
2.67893e-31
3.33712e-30
2.20248e-29
9.38358e-29
1.29802e-28
1.43486e-28
7.92589e-29
3.5586e-29
1.48819e-29
4.6055e-30
1.34372e-30
4.67717e-31
7.46757e-31
2.40792e-30
7.38262e-30
1.15793e-29
1.5873e-29
7.51296e-30
9.00454e-30
6.91705e-30
1.1793e-30
3.98478e-30
3.06783e-29
1.31965e-28
2.36856e-28
2.1364e-28
1.96803e-28
8.58027e-29
3.37234e-29
1.15143e-29
3.6811e-30
1.28106e-30
1.60341e-30
5.15867e-30
1.77199e-29
3.62236e-29
5.55901e-29
7.08391e-29
5.28076e-29
4.49507e-29
3.47299e-29
7.02732e-30
6.36061e-30
9.6162e-29
2.92165e-28
4.34227e-28
4.10642e-28
4.31981e-28
1.87546e-28
7.93855e-29
2.7453e-29
8.02187e-30
3.66627e-30
4.25957e-30
9.52084e-30
4.23647e-29
9.24382e-29
1.89078e-28
3.33696e-28
1.90248e-28
1.51907e-28
1.84003e-28
1.21986e-28
1.42164e-28
2.60589e-29
1.21846e-28
5.18711e-28
8.79708e-28
8.77769e-28
8.42937e-28
5.25756e-28
1.6705e-28
7.29389e-29
2.15586e-29
7.32913e-30
9.52957e-30
2.45445e-29
8.14851e-29
1.9545e-28
5.85577e-28
8.69498e-28
1.47857e-27
1.14699e-27
8.63201e-28
1.21187e-27
1.10562e-27
1.55468e-27
1.14665e-28
3.99366e-28
1.21678e-27
1.8519e-27
1.47682e-27
1.67545e-27
1.10831e-27
4.1506e-28
1.59379e-28
4.5152e-29
2.00502e-29
1.77924e-29
5.23204e-29
1.63069e-28
4.9419e-28
1.02892e-27
2.90523e-27
5.27101e-27
5.13868e-27
6.66557e-27
5.06388e-27
1.15515e-26
2.1807e-26
2.22674e-26
3.43258e-28
5.74735e-28
2.28307e-27
3.18231e-27
3.05327e-27
3.24546e-27
2.34202e-27
1.09259e-27
4.10851e-28
1.30171e-28
3.65945e-29
3.75097e-29
1.16031e-28
3.88997e-28
1.03052e-27
2.67205e-27
7.29216e-27
1.70796e-26
2.43023e-26
2.03364e-26
6.40747e-26
7.5178e-26
1.7039e-25
3.55986e-25
2.51939e-25
6.95914e-28
1.95181e-27
3.0943e-27
6.10568e-27
8.36337e-27
7.46486e-27
5.07429e-27
2.78121e-27
1.04978e-27
3.275e-28
1.09136e-28
9.59105e-29
2.10036e-28
8.34089e-28
2.88248e-27
6.24312e-27
2.06622e-26
3.33262e-26
8.69862e-26
1.1781e-25
3.75229e-25
1.15319e-24
2.05955e-24
3.73291e-24
5.9151e-24
2.44942e-24
1.84306e-27
4.20056e-27
6.72205e-27
9.90945e-27
1.58797e-26
1.46532e-26
9.91765e-27
5.89485e-27
2.6921e-27
9.67172e-28
3.38569e-28
2.45662e-28
6.15164e-28
1.63107e-27
6.57061e-27
1.80125e-26
5.26234e-26
9.82042e-26
3.16556e-25
9.50751e-25
3.25211e-24
1.40112e-23
3.14624e-23
4.39584e-23
7.65779e-23
9.79615e-23
4.36878e-23
2.64219e-27
1.5162e-26
2.30488e-26
2.64436e-26
3.07393e-26
3.22697e-26
2.35363e-26
1.34276e-26
6.331e-27
2.49003e-27
9.13205e-28
5.93614e-28
1.34479e-27
4.75668e-27
1.53463e-26
3.91199e-26
1.09416e-25
4.82803e-25
2.00097e-24
7.3524e-24
3.55233e-23
1.42962e-22
4.69074e-22
8.60365e-22
1.07185e-21
1.54835e-21
1.5098e-21
6.30968e-22
1.23337e-26
6.03386e-26
6.76788e-26
8.32082e-26
9.01116e-26
8.07233e-26
5.62623e-26
3.15365e-26
1.53586e-26
6.41437e-27
2.47086e-27
1.24135e-27
2.11151e-27
7.21374e-27
3.16269e-26
9.94953e-26
3.52192e-25
1.73783e-24
1.1844e-23
7.91248e-23
3.83598e-22
1.72399e-21
6.83923e-21
1.24797e-20
1.94344e-20
2.75669e-20
2.73779e-20
2.08313e-20
8.62707e-21
1.76408e-25
1.58253e-25
2.94804e-25
2.60648e-25
2.31821e-25
1.51263e-25
1.45898e-25
7.57104e-26
3.72096e-26
1.69535e-26
6.72867e-27
3.71464e-27
5.37547e-27
1.38851e-26
5.1464e-26
1.99518e-25
6.98069e-25
6.1294e-24
6.6923e-23
6.05347e-22
4.38227e-21
1.82509e-20
6.72887e-20
2.22317e-19
3.37454e-19
5.43328e-19
5.7564e-19
3.64621e-19
1.95809e-19
7.96743e-20
7.76513e-25
1.28928e-24
9.83229e-25
1.04077e-24
6.41426e-25
4.38705e-25
3.82035e-25
2.41759e-25
8.87822e-26
4.6772e-26
1.72058e-26
8.94199e-27
1.09245e-26
2.97954e-26
8.73666e-26
3.08324e-25
1.58107e-24
1.74965e-23
3.02525e-22
4.13764e-21
3.817e-20
2.15288e-19
7.77406e-19
2.70035e-18
4.95158e-18
6.93378e-18
7.75417e-18
7.30255e-18
5.73347e-18
2.17336e-18
4.0269e-19
3.03568e-24
4.7757e-24
5.12691e-24
3.5334e-24
2.75615e-24
1.89073e-24
1.41985e-24
7.34485e-25
2.90414e-25
1.44468e-25
6.53314e-26
2.19806e-26
2.56438e-26
5.07842e-26
1.94335e-25
5.69759e-25
2.82633e-24
3.68422e-23
1.07136e-21
2.03255e-20
2.54571e-19
1.99114e-18
8.53007e-18
2.68208e-17
6.6069e-17
1.05326e-16
1.2053e-16
1.29288e-16
9.66169e-17
5.13719e-17
1.48357e-17
2.46861e-18
6.8377e-24
1.93439e-23
2.93876e-23
1.66423e-23
1.02839e-23
6.41105e-24
4.57017e-24
2.23946e-24
9.02562e-25
4.64909e-25
2.11921e-25
7.72771e-26
6.02843e-26
9.65414e-26
3.49317e-25
1.32805e-24
4.53536e-24
6.6337e-23
2.40121e-21
8.07772e-20
1.30222e-18
1.40008e-17
8.84743e-17
2.60073e-16
6.60324e-16
1.22229e-15
1.83825e-15
1.9094e-15
1.54337e-15
8.75199e-16
3.88721e-16
6.37637e-17
6.03086e-18
6.37277e-23
1.12745e-22
1.14684e-22
8.18798e-23
3.88499e-23
2.17793e-23
1.35377e-23
8.41136e-24
5.22643e-24
1.32161e-24
7.26179e-25
2.58721e-25
1.18615e-25
2.71306e-25
6.36545e-25
2.63539e-24
9.41454e-24
8.81733e-23
3.93486e-21
1.6722e-19
5.72729e-18
7.48864e-17
6.681e-16
3.19796e-15
8.5283e-15
1.86447e-14
2.99498e-14
3.57162e-14
3.10485e-14
1.94761e-14
7.8538e-15
1.63477e-15
7.31823e-17
6.92413e-17
2.43732e-22
2.76874e-22
5.31636e-22
3.06492e-22
1.79072e-22
9.61533e-23
3.59729e-23
3.04385e-23
1.91986e-23
5.78624e-24
2.35617e-24
8.65803e-25
3.48928e-25
6.27466e-25
1.24797e-24
4.50628e-24
1.6991e-23
1.10071e-22
5.10351e-21
3.13259e-19
1.24892e-17
3.60868e-16
4.28801e-15
3.15284e-14
9.35462e-14
2.43317e-13
4.53397e-13
6.02881e-13
5.95254e-13
4.26532e-13
2.1009e-13
5.6062e-14
0
5.89201e-16
4.28794e-15
1.06329e-16
2.74052e-15
1.75369e-15
4.1099e-22
1.85224e-21
1.25966e-21
1.51998e-21
6.21589e-22
3.04343e-22
1.70038e-22
8.41789e-23
6.36608e-23
3.14716e-23
8.40253e-24
4.50266e-24
1.3766e-24
1.07454e-24
3.06223e-24
8.04813e-24
3.20458e-23
1.69555e-22
5.27681e-21
4.03977e-19
2.28508e-17
8.64344e-16
2.00867e-14
2.37871e-13
9.63142e-13
2.54363e-12
5.83009e-12
9.09825e-12
1.00487e-11
8.21537e-12
4.67959e-12
1.62177e-12
8.80185e-14
4.67091e-13
3.20339e-14
3.30749e-13
2.56301e-13
2.13077e-14
2.83218e-16
1.16726e-14
5.22919e-15
1.16505e-21
8.75271e-21
6.44481e-21
6.78057e-21
2.94633e-21
1.06781e-21
8.90768e-22
3.43825e-22
2.40535e-22
1.36973e-22
3.72381e-23
1.49678e-23
6.13587e-24
3.8043e-24
5.44987e-24
1.78514e-23
5.71945e-23
2.59426e-22
4.60302e-21
3.99303e-19
3.28647e-17
1.59677e-15
5.7212e-14
1.14434e-12
9.53367e-12
2.28369e-11
5.87741e-11
1.14994e-10
1.4948e-10
1.37364e-10
9.12097e-11
3.83252e-11
2.58737e-12
1.52056e-11
1.97955e-12
1.71204e-13
1.68952e-12
1.26466e-12
1.02921e-13
1.07705e-15
5.45854e-14
2.23083e-14
1.02223e-20
2.09752e-20
2.81192e-20
2.38051e-20
1.26669e-20
4.08924e-21
2.40217e-21
1.52561e-21
1.26416e-21
4.4295e-22
1.48312e-22
5.94078e-23
2.83667e-23
1.15773e-23
1.42534e-23
2.96242e-23
9.02268e-23
4.22201e-22
3.96437e-21
2.95797e-19
3.20775e-17
2.551e-15
1.06226e-13
3.3336e-12
3.48879e-11
2.15367e-10
4.7232e-10
1.12838e-09
1.84451e-09
1.99521e-09
1.50802e-09
7.66421e-10
6.73817e-11
3.37269e-10
1.16839e-11
6.48407e-11
1.07592e-11
8.39965e-13
8.56855e-12
6.18431e-12
4.85955e-13
4.07497e-15
2.40315e-13
9.03833e-14
8.60924e-20
1.30853e-19
1.73859e-19
1.0182e-19
4.58543e-20
1.84245e-20
7.80038e-21
7.94401e-21
3.66611e-21
1.93351e-21
5.38555e-22
1.93272e-22
1.01408e-22
3.91196e-23
3.2284e-23
6.06668e-23
1.99728e-22
7.11755e-22
4.37006e-21
1.63548e-19
2.32253e-17
2.45218e-15
1.86461e-13
6.3588e-12
1.21434e-10
7.16889e-10
3.14866e-09
8.42733e-09
1.7644e-08
2.38424e-08
2.12576e-08
1.25692e-08
1.47078e-09
6.63051e-09
3.387e-10
1.60599e-09
6.23088e-11
3.30302e-10
5.30038e-11
3.96032e-12
4.11701e-11
2.89738e-11
2.1754e-12
1.50299e-14
1.0009e-12
3.46941e-13
1.08021e-18
1.12924e-18
8.31359e-19
3.91495e-19
1.58062e-19
7.26578e-20
3.06426e-20
2.50385e-20
1.65353e-20
6.52742e-21
2.32193e-21
5.01042e-22
3.25068e-22
1.39648e-22
8.58238e-23
1.22453e-22
3.76283e-22
1.42326e-21
7.29432e-21
1.03431e-19
1.10417e-17
1.67875e-15
1.80981e-13
1.25053e-11
2.52828e-10
2.22076e-09
1.20533e-08
5.03375e-08
1.25938e-07
2.22538e-07
2.46598e-07
1.72855e-07
2.59722e-08
1.04969e-07
7.06853e-09
2.94313e-08
1.61704e-09
7.30544e-09
2.97259e-10
1.51713e-09
2.4796e-10
1.77354e-11
1.89514e-10
1.29524e-10
9.23425e-12
5.29891e-14
3.94017e-12
1.25217e-12
5.29185e-18
4.31866e-18
3.88006e-18
1.70936e-18
6.02778e-19
2.06244e-19
1.03291e-19
9.04062e-20
5.93156e-20
2.90007e-20
1.28764e-20
2.04767e-21
8.54759e-22
4.59998e-22
2.45964e-22
2.59095e-22
6.50497e-22
2.78859e-21
1.50237e-20
1.01648e-19
5.53729e-18
7.99059e-16
1.19471e-13
1.2127e-11
5.50899e-10
7.18291e-09
3.82027e-08
1.93461e-07
7.10693e-07
1.5372e-06
2.28378e-06
1.99024e-06
3.77401e-07
1.3901e-06
1.15731e-07
4.37656e-07
3.09603e-08
1.24521e-07
7.17022e-09
3.12814e-08
1.34872e-09
6.64685e-09
1.11262e-09
7.59867e-11
8.37154e-10
5.57092e-10
3.74376e-11
1.7922e-13
1.48167e-11
4.38199e-12
2.10379e-17
2.79447e-17
2.16892e-17
7.14283e-18
2.84891e-18
7.20569e-19
3.64733e-19
2.38816e-19
2.31657e-19
1.16638e-19
5.24442e-20
1.2145e-20
3.18003e-21
1.33626e-21
7.27415e-22
5.93205e-22
1.14643e-21
4.7499e-21
2.61569e-20
1.90201e-19
2.78667e-18
3.34531e-16
5.44892e-14
7.91252e-12
4.92605e-10
1.26728e-08
1.03298e-07
6.26303e-07
2.59543e-06
8.18015e-06
1.53999e-05
1.94568e-05
4.5984e-06
1.56225e-05
1.59369e-06
5.57968e-06
4.79567e-07
1.78997e-06
1.28757e-07
5.08763e-07
3.04171e-08
1.29377e-07
5.87661e-09
2.81296e-08
4.81351e-09
3.15878e-10
3.59117e-09
2.34636e-09
1.47496e-10
6.29471e-13
5.53839e-11
1.60368e-11
1.33904e-16
1.91567e-16
1.09286e-16
3.64566e-17
1.19022e-17
3.49468e-18
1.21402e-18
9.49064e-19
6.14402e-19
4.00617e-19
1.85836e-19
6.75301e-20
1.5495e-20
4.63903e-21
2.24506e-21
1.23148e-21
3.32482e-21
1.28094e-20
6.30635e-20
3.56183e-19
2.71271e-18
1.33178e-16
2.01675e-14
3.63324e-12
4.07046e-10
1.3399e-08
1.72081e-07
1.70293e-06
7.96577e-06
2.6793e-05
7.26401e-05
0.000121175
4.8798e-05
0.000147399
1.89241e-05
6.14524e-05
6.44265e-06
2.2255e-05
1.95201e-06
7.22415e-06
5.2604e-07
2.08484e-06
1.25905e-07
5.32524e-07
2.485e-08
1.17e-07
2.04118e-08
1.30169e-09
1.52825e-08
9.97476e-09
5.91466e-10
2.4796e-12
2.207e-10
6.53298e-11
3.78482e-16
7.03087e-16
4.90726e-16
2.02102e-16
5.93204e-17
1.30315e-17
3.91094e-18
2.05695e-18
1.89634e-18
1.04103e-18
5.96207e-19
2.48983e-19
7.56036e-20
2.03418e-20
7.39898e-21
3.19304e-21
6.86793e-21
2.9727e-20
1.57329e-19
8.28807e-19
4.13149e-18
6.32536e-17
6.28915e-15
1.29145e-12
2.18219e-10
1.17536e-08
1.82932e-07
2.58723e-06
1.90999e-05
7.32582e-05
0.000193925
0.000423994
0.000332853
0.000617712
0.000175468
0.000421153
7.33638e-05
0.000208811
2.53453e-05
8.36543e-05
7.96311e-06
2.83146e-05
2.18638e-06
8.66036e-06
5.23397e-07
2.25529e-06
1.04262e-07
4.93321e-07
8.71112e-08
5.57048e-09
6.65489e-08
4.47173e-08
2.56579e-09
1.07832e-11
9.77547e-10
2.91362e-10
8.33412e-16
1.9829e-15
1.70636e-15
8.19399e-16
3.18566e-16
6.0716e-17
1.43241e-17
5.61076e-18
4.29894e-18
2.80613e-18
1.93746e-18
7.70303e-19
2.75256e-19
6.78818e-20
2.5689e-20
1.31214e-20
1.73049e-20
6.92532e-20
3.51821e-19
1.99353e-18
7.83537e-18
6.36364e-17
1.99452e-15
3.79303e-13
7.65925e-11
8.63006e-09
2.12576e-07
2.83351e-06
2.7647e-05
0.000140469
0.00041084
0.000802637
0.000875886
0.00118455
0.000715854
0.00102838
0.000483429
0.00080229
0.000237816
0.000536379
9.30689e-05
0.000262551
3.13439e-05
0.000102483
9.30507e-06
3.44859e-05
2.25847e-06
9.84327e-06
4.48676e-07
2.18166e-06
3.86306e-07
2.58288e-08
3.05791e-07
2.15634e-07
1.22883e-08
5.05774e-11
4.6894e-09
1.38432e-09
4.01776e-15
8.48795e-15
7.68229e-15
3.75407e-15
1.58235e-15
3.59165e-16
6.50131e-17
1.67058e-17
1.01681e-17
6.53553e-18
4.63857e-18
2.72399e-18
8.22421e-19
3.00799e-19
8.22161e-20
3.31064e-20
4.89539e-20
1.58221e-19
7.65756e-19
4.27543e-18
2.30218e-17
9.76425e-17
9.73964e-16
1.00569e-13
2.07874e-11
3.19394e-09
1.58069e-07
2.64245e-06
2.98085e-05
0.000186841
0.000612229
0.00124158
0.00144245
0.0016522
0.00134328
0.00165737
0.00113758
0.0014804
0.000876507
0.00123569
0.000583272
0.000948621
0.000286437
0.000629357
0.000112773
0.000312644
3.7612e-05
0.000124082
1.00818e-05
4.03785e-05
2.03925e-06
1.00131e-05
1.81386e-06
1.29384e-07
1.48598e-06
1.09266e-06
6.27125e-08
2.55299e-10
2.36164e-08
6.90872e-09
2.0659e-14
4.47926e-14
3.5249e-14
1.69982e-14
6.28785e-15
1.63296e-15
2.97728e-16
6.44533e-17
2.93979e-17
2.17842e-17
1.37488e-17
7.71676e-18
2.65768e-18
8.38843e-19
3.03412e-19
1.24996e-19
1.15985e-19
5.72306e-19
2.68199e-18
1.00908e-17
5.11188e-17
2.3362e-16
1.00589e-15
2.90246e-14
5.09126e-12
9.59299e-10
8.22502e-08
1.92442e-06
2.80559e-05
0.000196012
0.000744375
0.0015347
0.00234639
0.00191867
0.00227647
0.00182169
0.00214311
0.00160165
0.00196982
0.00133394
0.00172676
0.00102363
0.00144234
0.000682009
0.00110865
0.000342887
0.000745108
0.0001357
0.000376627
4.2011e-05
0.000146102
9.59777e-06
4.26792e-05
8.74547e-06
6.72499e-07
7.34722e-06
5.52827e-06
3.28498e-07
1.34104e-09
1.22304e-07
3.526e-08
1.08661e-13
2.28947e-13
1.80026e-13
8.14096e-14
2.44406e-14
1.02819e-14
1.30472e-15
2.33803e-16
7.95078e-17
4.70125e-17
2.53378e-17
1.9399e-17
7.39642e-18
2.67406e-18
9.44573e-19
3.34676e-19
5.3841e-19
1.5543e-18
7.76027e-18
2.24235e-17
1.21197e-16
5.05982e-16
2.00191e-15
1.8284e-14
1.21945e-12
2.22428e-10
3.01046e-08
9.81645e-07
2.20653e-05
0.000188513
0.00076615
0.00174544
0.00248162
0.00282919
0.00290614
0.00243134
0.00266776
0.00232199
0.00263638
0.00211558
0.00249314
0.00186651
0.00228243
0.0015661
0.00202997
0.00121022
0.00171021
0.000819033
0.00132926
0.000411062
0.000900903
0.000153484
0.000441574
4.17066e-05
0.000157431
3.87533e-05
3.46431e-06
3.32231e-05
2.54121e-05
1.72254e-06
6.59778e-09
6.45245e-07
1.70783e-07
5.09454e-13
1.09217e-12
8.61781e-13
3.87818e-13
1.19725e-13
4.44446e-14
8.14551e-15
1.058e-15
2.42273e-16
1.05436e-16
7.13667e-17
3.61859e-17
2.38306e-17
8.16775e-18
2.50828e-18
1.09586e-18
1.70032e-18
5.17302e-18
2.49772e-17
1.02758e-16
3.80136e-16
1.60681e-15
6.10521e-15
2.89492e-14
4.35696e-13
4.88097e-11
7.56594e-09
4.41071e-07
1.20552e-05
0.000155339
0.000746857
0.00174093
0.00239132
0.00289108
0.00276763
0.00314388
0.00312407
0.00289327
0.00307314
0.00283164
0.0031069
0.00267559
0.00303311
0.00247794
0.00289277
0.00221769
0.00270424
0.00187617
0.00242899
0.00146174
0.00205953
0.000983594
0.0015996
0.000464224
0.00105551
0.00015591
0.00047741
0.000147088
1.64882e-05
0.000127768
9.9532e-05
8.72676e-06
2.87435e-08
3.31037e-06
7.50994e-07
1.58572e-12
4.59825e-12
3.79426e-12
1.76734e-12
5.70621e-13
1.53681e-13
4.18724e-14
6.07517e-15
7.76586e-16
2.62595e-16
1.4314e-16
1.11114e-16
5.03545e-17
2.57676e-17
9.49715e-18
2.89216e-18
5.569e-18
2.28992e-17
8.29144e-17
2.43837e-16
1.39776e-15
4.24785e-15
1.94982e-14
8.6072e-14
4.69458e-13
1.23363e-11
1.63006e-09
1.69933e-07
5.68712e-06
9.71781e-05
0.000656761
0.00168039
0.00218322
0.00248314
0.003
0.00276353
0.00335718
0.00324234
0.00329642
0.00337152
0.00332357
0.00352162
0.00325771
0.00355656
0.00314316
0.00351662
0.00295203
0.00341669
0.00265619
0.00321286
0.00224882
0.00288714
0.00172862
0.00242784
0.0011093
0.00183745
0.000477508
0.00113732
0.000455524
6.77736e-05
0.000402282
0.00032417
3.83289e-05
1.18582e-07
1.44738e-05
3.10246e-06
1.41003e-11
1.46724e-11
7.42566e-12
2.51297e-12
6.50289e-13
2.34146e-13
3.20384e-14
4.49737e-15
7.26498e-16
3.49853e-16
2.3098e-16
1.46577e-16
5.95837e-17
2.46115e-17
1.14836e-17
1.97282e-17
6.05193e-17
2.90659e-16
1.10276e-15
4.19894e-15
1.81547e-14
7.82242e-14
3.17417e-13
1.18979e-12
7.75042e-12
3.6045e-10
4.26732e-08
2.3317e-06
4.98822e-05
0.000473788
0.00155497
0.00201973
0.00217938
0.0024307
0.00218178
0.00299132
0.00268243
0.00351243
0.00327186
0.00360517
0.00359799
0.00376068
0.00385124
0.00381218
0.00401627
0.0037983
0.00408929
0.00369401
0.00408345
0.00346788
0.00396095
0.00310053
0.00369824
0.00258404
0.00328238
0.00191661
0.00270298
0.00113819
0.00196251
0.00109129
0.000233969
0.000985794
0.000836139
0.00014258
3.65455e-07
5.38478e-05
9.01687e-06
4.39934e-11
2.84104e-11
1.05382e-11
2.99795e-12
8.68039e-13
1.70092e-13
2.25129e-14
3.04505e-15
8.29374e-16
5.11065e-16
3.16143e-16
1.58739e-16
6.3113e-17
2.3113e-17
5.31946e-17
2.56693e-16
1.04651e-15
4.03738e-15
1.88036e-14
8.45974e-14
3.49311e-13
1.31783e-12
4.43389e-12
1.41656e-11
1.29002e-10
9.21661e-09
6.57353e-07
2.07549e-05
0.000289018
0.00131183
0.00190502
0.00198559
0.00204779
0.00195126
0.00236768
0.00216733
0.00295565
0.00263562
0.00361493
0.00330908
0.00385314
0.00379787
0.00411406
0.00412185
0.00428754
0.00439198
0.00437681
0.00457504
0.00435549
0.00465812
0.0041965
0.00460698
0.00388945
0.00439426
0.00342177
0.00403634
0.00277634
0.00350658
0.00196888
0.00280576
0.0019175
0.000653587
0.00180532
0.00162809
0.000433648
9.20602e-07
0.000155923
2.08741e-05
9.42696e-11
4.22371e-11
1.27467e-11
5.86099e-12
9.45839e-13
1.0592e-13
1.30665e-14
2.50187e-15
1.01586e-15
7.09268e-16
2.92049e-16
1.43885e-16
6.05171e-17
1.315e-16
6.16372e-16
3.24441e-15
1.71507e-14
8.89923e-14
4.23267e-13
1.73566e-12
6.15537e-12
1.901e-11
5.09462e-11
1.52549e-10
2.3754e-09
1.79611e-07
7.18907e-06
0.000146021
0.000974404
0.00181059
0.00187008
0.00187236
0.00204933
0.00199654
0.00241544
0.00228127
0.00297051
0.00265311
0.0037293
0.00342722
0.00409055
0.00397311
0.00441323
0.00439788
0.00468085
0.00470421
0.00482319
0.00487539
0.00489973
0.00499694
0.00482601
0.00509466
0.0045551
0.00500923
0.00413381
0.00468103
0.00353968
0.00417508
0.00278023
0.00352506
0.00270489
0.00136494
0.00213275
0.00259652
0.00249705
0.00192134
0.00241801
0.00110804
0.000566291
2.13457e-06
0.000865396
0.000181619
0.000596246
0.000320609
0.000131248
2.14767e-05
1.58626e-10
5.45562e-11
1.56172e-11
6.45136e-12
7.37824e-13
5.53067e-14
8.36397e-15
2.52561e-15
1.19115e-15
8.63666e-16
3.40283e-16
1.98123e-16
3.9174e-16
2.21022e-15
1.33056e-14
7.24714e-14
4.0682e-13
2.03809e-12
8.77866e-12
3.11239e-11
9.12722e-11
2.22087e-10
4.60869e-10
1.61192e-09
4.7212e-08
3.14283e-06
6.07402e-05
0.000621488
0.00166057
0.00182946
0.00170136
0.00221609
0.00211329
0.00223674
0.00223374
0.00267376
0.00262307
0.00311318
0.00284434
0.00396237
0.00371638
0.00433019
0.00417263
0.00468463
0.00464001
0.00485394
0.00481961
0.00498196
0.00492495
0.00511668
0.00504776
0.00527106
0.005237
0.00515955
0.00544582
0.00476245
0.00501301
0.00528079
0.00385085
0.00418031
0.00479795
0.00446763
0.00309555
0.00346877
0.00415211
0.00378402
0.00413907
0.00340908
0.00336387
0.00296736
0.00159999
0.00214516
0.00227869
0.00290964
0.00282367
0.00271641
0.00142037
8.63929e-06
4.29475e-05
0.00115351
0.000826961
0.000490089
0.000221747
2.27857e-10
6.20885e-11
2.96797e-11
5.27383e-12
3.44692e-13
3.00123e-14
6.7774e-15
2.98363e-15
1.93408e-15
8.48972e-16
4.56354e-16
1.03629e-15
6.93994e-15
4.8825e-14
2.85067e-13
1.75163e-12
9.41545e-12
4.24638e-11
1.56102e-10
4.54071e-10
1.05724e-09
1.94821e-09
3.16054e-09
1.79803e-08
9.77151e-07
2.11584e-05
0.000335278
0.00139219
0.00180156
0.00159714
0.00191097
0.00167458
0.00267844
0.00253748
0.00264157
0.00268798
0.00316815
0.00316326
0.00346914
0.0032707
0.00434077
0.00419593
0.00456265
0.00446144
0.00475542
0.00468349
0.00480481
0.00463947
0.00485993
0.00452338
0.0050477
0.00459843
0.00535998
0.00494992
0.0054643
0.00559487
0.00556662
0.00544663
0.00507807
0.00538802
0.00531878
0.00554139
0.00447158
0.00510782
0.0047894
0.00375252
0.00445628
0.00408326
0.00442192
0.00370004
0.00363103
0.00327919
0.00194875
0.00243203
0.00258802
0.00319938
0.00310316
0.00298927
0.00172106
5.38551e-06
3.12678e-05
0.000131082
7.84506e-05
0.00143006
0.00108249
0.000700862
0.000354406
2.78903e-10
7.83883e-11
2.6219e-11
2.20654e-12
1.61843e-13
2.32026e-14
7.4061e-15
4.65236e-15
3.866e-15
1.13501e-15
2.73912e-15
2.06896e-14
1.64159e-13
1.05694e-12
7.05239e-12
4.12713e-11
1.99013e-10
7.60766e-10
2.25779e-09
5.09981e-09
8.73798e-09
1.16872e-08
1.94885e-08
2.76811e-07
7.23093e-06
0.000153923
0.00101983
0.00174934
0.00160723
0.00140255
0.00215592
0.00173924
0.0032785
0.00305687
0.00322721
0.0032976
0.00384036
0.00384436
0.00403962
0.00390632
0.00454426
0.00452288
0.00461939
0.00457555
0.00448248
0.00436501
0.00414406
0.00382411
0.00399813
0.00333567
0.00417696
0.00331583
0.00519457
0.00475982
0.00430389
0.00373397
0.00565025
0.00563185
0.0054771
0.00515493
0.00540476
0.00565505
0.00560582
0.00571427
0.0047841
0.00543141
0.00511467
0.00403418
0.00476369
0.0043732
0.00472575
0.00397049
0.00389238
0.00355026
0.00223667
0.00285358
0.00269005
0.00345913
0.00335414
0.00323164
0.00199339
7.04168e-06
4.10103e-05
0.00018876
0.000504818
0.00169066
0.00132916
0.000918327
3.06714e-10
7.25665e-11
1.10317e-11
9.08981e-13
1.00776e-13
2.40197e-14
1.04745e-14
7.99058e-15
3.20071e-15
6.98047e-15
5.64017e-14
4.87627e-13
3.7371e-12
2.64652e-11
1.68168e-10
8.88439e-10
3.57968e-09
1.10289e-08
2.46899e-08
3.97679e-08
4.7354e-08
4.92728e-08
1.50576e-07
3.64902e-06
6.23405e-05
0.00063776
0.00162169
0.00167899
0.00136051
0.00138929
0.00115975
0.0024581
0.00182457
0.00391398
0.00359153
0.00390866
0.00396008
0.00450616
0.00452704
0.00451182
0.00450477
0.00439202
0.00447904
0.00432162
0.00434037
0.00356783
0.00345607
0.00285798
0.00256519
0.00264193
0.00230635
0.00331557
0.00285403
0.00261024
0.00232761
0.00469903
0.00417257
0.00364316
0.00316991
0.0056876
0.00551167
0.00515625
0.0046727
0.00569892
0.00577468
0.0058328
0.00574763
0.00510898
0.00573502
0.00544441
0.0043147
0.00508736
0.00467254
0.00504604
0.00424084
0.00415211
0.00380291
0.0024882
0.0030882
0.00291772
0.00370108
0.0035853
0.00345211
0.00223758
7.87177e-06
0.000250333
5.18007e-05
0.000651002
0.00112069
0.0019288
0.00155572
2.95122e-10
4.87658e-11
4.81776e-12
4.79535e-13
8.95336e-14
2.98689e-14
2.03742e-14
9.6577e-15
1.46741e-14
1.38115e-13
1.33657e-12
1.21823e-11
9.02043e-11
6.35248e-10
3.59828e-09
1.63721e-08
5.18074e-08
1.18161e-07
1.79176e-07
1.91772e-07
1.75792e-07
1.92392e-07
1.58942e-06
2.29811e-05
0.000346063
0.00134371
0.00170077
0.00145664
0.00103528
0.00125713
0.000963796
0.00275648
0.00186714
0.00447779
0.00403773
0.00456602
0.00457046
0.0048172
0.00493116
0.00458057
0.00469403
0.00373682
0.0039889
0.00347903
0.00356405
0.0024341
0.00245354
0.00216499
0.00208718
0.00224703
0.00214882
0.00210914
0.00277742
0.00248667
0.00229872
0.002194
0.00413119
0.00359758
0.00312219
0.00273541
0.00555909
0.00518401
0.00468657
0.00414069
0.00588843
0.00581203
0.00588008
0.00562036
0.00544227
0.00593875
0.00575697
0.00460564
0.0054221
0.00498777
0.00537958
0.0045207
0.00441991
0.00405083
0.00271038
0.00329997
0.00312136
0.00393624
0.0038064
0.00366039
0.00245513
8.17183e-06
0.000777934
0.000305037
5.9756e-05
0.00129771
0.0017571
0.00214108
2.5196e-10
2.61186e-11
2.4289e-12
3.62391e-13
9.9737e-14
5.77479e-14
3.0032e-14
2.82423e-14
3.23206e-13
3.27773e-12
3.3474e-11
2.75013e-10
2.15637e-09
1.38587e-08
6.58882e-08
2.49733e-07
5.78621e-07
7.99557e-07
8.20749e-07
6.55675e-07
4.88039e-07
1.15582e-06
9.88248e-06
0.000164249
0.000967964
0.00166908
0.00162589
0.00121441
0.000733251
0.000821466
0.00107714
0.000770448
0.00291884
0.00181832
0.00484647
0.00423971
0.00499887
0.004993
0.00482155
0.00506361
0.00427297
0.00455763
0.00317905
0.00355569
0.00257765
0.00283619
0.00205152
0.00208334
0.00208267
0.00203904
0.00215004
0.00212372
0.00230563
0.00227069
0.00245953
0.00230101
0.00222397
0.00218686
0.00360833
0.00313725
0.00275688
0.00249793
0.00524022
0.00474063
0.00420039
0.00367748
0.00594796
0.00569658
0.00578619
0.00532271
0.00576425
0.00601764
0.00598147
0.00491248
0.00575227
0.00531857
0.00571538
0.00481596
0.00470258
0.00430476
0.00290784
0.00349623
0.00330754
0.00417436
0.00402723
0.0038648
0.00264823
5.87671e-06
0.00144516
0.000878414
0.00034461
6.04306e-05
0.00193074
0.00232775
1.71102e-10
1.39875e-11
1.61574e-12
3.5901e-13
1.41912e-13
8.18032e-14
5.4243e-14
5.43811e-13
7.876e-12
8.14913e-11
7.56138e-10
6.49057e-09
4.60939e-08
2.66169e-07
9.94251e-07
2.03639e-06
2.56515e-06
2.65294e-06
2.23407e-06
1.57626e-06
1.45459e-06
6.56269e-06
7.17559e-05
0.000599735
0.00155101
0.00171188
0.00146555
0.000964482
0.000541342
0.000632471
0.0008497
0.000553554
0.00294388
0.00166651
0.00500312
0.00424439
0.00520328
0.00520018
0.0047307
0.00508176
0.00393734
0.00432791
0.00308563
0.00352165
0.00227337
0.00264593
0.00199386
0.00198255
0.0023174
0.00231026
0.00218398
0.00226772
0.00219088
0.00223041
0.00259456
0.00254398
0.00235159
0.00227846
0.00227175
0.00231242
0.00321145
0.00283994
0.00259022
0.00243952
0.00483507
0.0043092
0.00380094
0.0033476
0.00589294
0.00543039
0.0055582
0.00496337
0.00601342
0.00599408
0.00608358
0.00523528
0.00602832
0.0056551
0.00602196
0.00512853
0.00500176
0.00457171
0.00308582
0.00368463
0.00348204
0.00442316
0.00425563
0.00407229
0.00281927
3.82612e-06
0.00207764
0.0015617
0.000949072
0.000358423
5.20075e-05
0.00249036
1.01618e-10
8.83649e-12
1.43134e-12
4.04916e-13
1.98225e-13
1.18117e-13
7.84713e-13
1.31469e-11
1.97358e-10
1.85359e-09
1.7798e-08
1.35166e-07
8.51755e-07
3.24565e-06
6.35377e-06
8.68817e-06
8.96688e-06
7.30127e-06
5.12488e-06
3.42956e-06
6.12327e-06
3.42818e-05
0.000341762
0.0012847
0.00171528
0.00164491
0.00125811
0.000644454
0.000817162
0.000361564
0.000490397
0.000594546
0.000345319
0.00277834
0.00140855
0.00497473
0.00400367
0.00527665
0.00526168
0.00477872
0.00514477
0.00393599
0.00434465
0.00321574
0.00373607
0.00218005
0.00264975
0.00209171
0.00195965
0.00260888
0.00259684
0.00238641
0.00252442
0.0023891
0.00247031
0.00293804
0.00288503
0.00237967
0.00239454
0.00246971
0.00257641
0.00298685
0.00273301
0.00257441
0.00252821
0.00446351
0.00397674
0.00354524
0.00319304
0.0057055
0.00512034
0.00529856
0.00465208
0.00613656
0.00585517
0.0060979
0.00556956
0.00618016
0.00598258
0.00620894
0.00545623
0.00531674
0.00485442
0.00324894
0.00387155
0.00365029
0.00468551
0.00449597
0.0042882
0.00297214
1.63626e-06
0.00263104
0.00219867
0.00164722
0.000985788
0.000341117
3.44804e-05
6.53259e-11
7.22732e-12
1.49163e-12
5.91909e-13
3.57432e-13
9.68148e-13
1.93738e-11
3.23142e-10
4.53625e-09
4.30933e-08
3.73995e-07
2.4379e-06
9.54672e-06
2.18997e-05
3.17971e-05
3.2753e-05
2.60547e-05
1.78401e-05
1.08394e-05
8.52459e-06
2.48372e-05
0.000201181
0.000969492
0.00167261
0.00174583
0.00148686
0.0009446
0.000465662
0.000606024
0.000200899
0.000324201
0.00035946
0.000167419
0.00243965
0.00108738
0.00477132
0.00354024
0.00529741
0.00522334
0.00494682
0.00522129
0.00418164
0.00457691
0.00333587
0.00392067
0.00211817
0.00268204
0.0024494
0.00216226
0.0019679
0.00190301
0.00295043
0.00293157
0.00268096
0.00284266
0.00269008
0.00279576
0.00336123
0.0033026
0.0025518
0.00264662
0.00277833
0.00292062
0.00292505
0.00275466
0.00271128
0.00273928
0.00420183
0.00379785
0.00345188
0.00317457
0.00549159
0.00487017
0.00510313
0.00446384
0.0061857
0.00568661
0.00600793
0.00590772
0.00625836
0.0062175
0.0063107
0.0057944
0.00564563
0.00515221
0.00340164
0.00406269
0.00381812
0.00496158
0.00474838
0.00451416
0.00311051
4.41668e-07
0.00275276
0.00229473
0.00170457
0.000982059
0.000288209
1.62448e-05
5.19452e-11
7.10686e-12
1.84503e-12
1.44562e-12
1.16128e-12
2.30684e-11
4.91636e-10
7.46449e-09
1.02162e-07
8.91343e-07
6.29398e-06
2.77535e-05
7.15164e-05
0.000108245
0.00011709
9.43074e-05
6.09959e-05
3.39611e-05
1.76786e-05
2.53827e-05
0.000143868
0.000708045
0.00153722
0.00178062
0.00164314
0.00117514
0.000459675
0.000256825
0.000393474
7.73702e-05
0.000147388
0.000194885
6.64924e-05
0.00197926
0.000760481
0.00428931
0.00291529
0.00525848
0.00503942
0.00504792
0.00516084
0.00439799
0.00478457
0.00330841
0.00393972
0.00194507
0.00255119
0.00268974
0.00233451