/*--------------------------------*- C++ -*----------------------------------*\
  =========                 |
  \\      /  F ield         | OpenFOAM: The Open Source CFD Toolbox
   \\    /   O peration     | Website:  https://openfoam.org
    \\  /    A nd           | Version:  dev
     \\/     M anipulation  |
\*---------------------------------------------------------------------------*/
FoamFile
{
    version     2.0;
    format      ascii;
    class       volScalarField;
    location    "2500";
    object      G;
}
// * * * * * * * * * * * * * * * * * * * * * * * * * * * * * * * * * * * * * //

dimensions      [1 0 -3 0 0 0 0];

internalField   nonuniform List<scalar> 
9967
(
4220.06
4226.33
4228.01
4231.76
4234.31
4236.92
4236.32
4239.76
4243.23
4246.73
4240.02
4244.33
4248.68
4253.06
4257.47
4242.88
4248.04
4253.25
4258.51
4263.81
4269.15
4244.91
4250.89
4256.94
4263.05
4269.24
4275.49
4281.8
4246.15
4252.91
4259.76
4266.71
4273.76
4280.91
4288.15
4295.45
4246.61
4254.13
4261.74
4269.48
4277.37
4285.39
4293.55
4301.8
4310.14
4246.33
4254.57
4262.92
4271.41
4280.08
4288.93
4297.97
4307.17
4316.48
4325.9
4245.33
4254.26
4263.3
4272.51
4281.92
4291.56
4301.43
4311.52
4321.81
4332.24
4342.79
4243.65
4253.22
4262.93
4272.81
4282.92
4293.3
4303.95
4314.88
4326.09
4337.52
4349.12
4360.86
4241.33
4251.5
4261.83
4272.34
4283.11
4294.17
4305.55
4317.27
4329.33
4341.7
4354.34
4367.18
4380.18
4238.38
4249.13
4260.03
4271.14
4282.52
4294.22
4306.28
4318.72
4331.56
4344.79
4358.4
4372.33
4386.48
4400.82
4234.87
4246.15
4257.58
4269.24
4281.18
4293.47
4306.14
4319.25
4332.81
4346.84
4361.33
4376.25
4391.54
4407.1
4422.87
4230.81
4242.58
4254.51
4266.67
4279.13
4291.95
4305.2
4318.91
4333.12
4347.87
4363.17
4378.99
4395.31
4412.05
4429.11
4446.41
4226.25
4238.48
4250.86
4263.48
4276.41
4289.72
4303.47
4317.72
4332.53
4347.92
4363.94
4380.57
4397.82
4415.64
4433.94
4452.62
4471.56
4221.23
4233.86
4246.67
4259.71
4273.06
4286.8
4301.01
4315.74
4331.07
4347.03
4363.68
4381.04
4399.11
4417.88
4437.31
4457.3
4477.71
4498.43
4215.77
4228.78
4241.97
4255.38
4269.12
4283.25
4297.86
4313.02
4328.79
4345.25
4362.45
4380.44
4399.23
4418.84
4439.25
4460.42
4482.24
4504.53
4527.18
4209.92
4223.26
4236.79
4250.56
4264.63
4279.11
4294.06
4309.58
4325.75
4342.63
4360.29
4378.81
4398.23
4418.57
4439.83
4462.02
4485.07
4508.86
4533.21
4557.96
4203.72
4217.34
4231.18
4245.25
4259.63
4274.41
4289.67
4305.5
4321.99
4339.22
4357.27
4376.23
4396.15
4417.1
4439.1
4462.16
4486.26
4511.35
4537.3
4563.9
4590.95
4197.21
4211.08
4225.19
4239.52
4254.16
4269.2
4284.72
4300.81
4317.57
4335.08
4353.44
4372.75
4393.08
4414.51
4437.11
4460.9
4485.89
4512.08
4539.41
4567.72
4596.78
4626.37
4190.42
4204.51
4218.84
4233.4
4248.26
4263.52
4279.25
4295.56
4312.53
4330.27
4348.87
4368.44
4389.08
4410.88
4433.93
4458.31
4484.04
4511.14
4539.61
4569.39
4600.29
4632.07
4664.45
4183.38
4197.65
4212.18
4226.93
4241.98
4257.42
4273.32
4289.8
4306.93
4324.84
4343.61
4363.37
4384.22
4406.29
4429.66
4454.46
4480.77
4508.61
4538.01
4568.97
4601.44
4635.21
4669.99
4705.49
4176.12
4190.55
4205.24
4220.14
4235.35
4250.93
4266.97
4283.57
4300.82
4318.84
4337.73
4357.6
4378.59
4400.81
4424.4
4449.48
4476.16
4504.55
4534.69
4566.61
4600.31
4635.75
4672.7
4710.83
4749.88
4168.68
4183.24
4198.05
4213.09
4228.41
4244.1
4260.24
4276.92
4294.25
4312.33
4331.28
4351.21
4372.25
4394.54
4418.23
4443.45
4470.35
4499.08
4529.75
4562.4
4597.08
4633.81
4672.54
4713.03
4754.98
4797.99
4161.09
4175.74
4190.66
4205.79
4221.2
4236.97
4253.18
4269.91
4287.27
4305.37
4324.32
4344.24
4365.27
4387.55
4411.24
4436.49
4463.47
4492.35
4523.29
4556.44
4591.85
4629.57
4669.65
4712.04
4756.56
4802.8
4850.21
4153.36
4168.09
4183.08
4198.28
4213.75
4229.57
4245.82
4262.57
4279.93
4298
4316.91
4336.77
4357.73
4379.92
4403.52
4428.69
4455.61
4484.48
4515.5
4548.86
4584.72
4623.16
4664.25
4708.06
4754.61
4803.66
4854.68
4907.06
4145.53
4160.31
4175.35
4190.6
4206.11
4221.95
4238.2
4254.94
4272.27
4290.29
4309.11
4328.86
4349.68
4371.73
4395.16
4420.15
4446.9
4475.62
4506.53
4539.87
4575.86
4614.7
4656.49
4701.32
4749.33
4800.57
4854.67
4911.09
4969.16
4137.61
4152.42
4167.5
4182.77
4198.29
4214.13
4230.36
4247.07
4264.34
4282.27
4300.97
4320.58
4341.21
4363.04
4386.23
4410.96
4437.44
4465.88
4496.53
4529.65
4565.51
4604.39
4646.51
4692
4741.02
4793.78
4850.24
4910.05
4972.66
5037.24
4129.64
4144.46
4159.54
4174.81
4190.33
4206.15
4222.34
4238.99
4256.18
4273.99
4292.55
4311.97
4332.39
4353.95
4376.83
4401.22
4427.34
4455.39
4485.64
4518.36
4553.87
4592.48
4634.53
4680.27
4729.9
4783.65
4841.68
4904.02
4970.36
5040.07
5112.23
4121.63
4136.44
4151.51
4166.77
4182.25
4198.03
4214.17
4230.74
4247.82
4265.5
4283.89
4303.1
4323.26
4344.52
4367.05
4391.03
4416.69
4444.27
4473.99
4506.17
4541.13
4579.23
4620.85
4666.38
4716.15
4770.43
4829.43
4893.38
4962.42
5036.25
5114.21
5195.27
4113.6
4128.38
4143.42
4158.64
4174.09
4189.81
4205.87
4222.34
4239.3
4256.83
4275.03
4294.01
4313.89
4334.82
4356.96
4380.49
4405.62
4432.61
4461.72
4493.23
4527.48
4564.86
4605.77
4650.68
4700.06
4754.34
4813.78
4878.64
4949.32
5026.02
5108.51
5196.11
5287.87
4105.57
4120.3
4135.3
4150.47
4165.86
4181.5
4197.47
4213.83
4230.65
4248.01
4266.01
4284.74
4304.33
4324.91
4346.63
4369.67
4394.23
4420.56
4448.95
4479.68
4513.08
4549.55
4589.54
4633.53
4682.06
4735.74
4795.02
4860.17
4931.62
5009.97
5095.44
5188.09
5286.94
5392.23
4097.55
4112.23
4127.17
4142.27
4157.58
4173.14
4189.01
4205.24
4221.91
4239.09
4256.86
4275.34
4294.61
4314.82
4336.11
4358.64
4382.61
4408.25
4435.82
4465.66
4498.11
4533.53
4572.38
4615.19
4662.54
4715.1
4773.54
4838.31
4909.85
4988.76
5075.85
5171.26
5276.51
5365.34
5360.83
5477.62
5419.11
5479.29
4089.57
4104.17
4119.04
4134.06
4149.28
4164.74
4180.49
4196.58
4213.09
4230.08
4247.63
4265.83
4284.79
4304.62
4325.46
4347.47
4370.82
4395.74
4422.48
4451.34
4482.7
4516.95
4554.51
4595.93
4641.82
4692.88
4749.89
4813.53
4884.4
4963.09
5050.43
5147.46
5240.25
5227.89
5353.92
5284.36
5344
5414.22
5539.49
5476.94
5540.96
4081.62
4096.14
4110.92
4125.86
4140.97
4156.32
4171.94
4187.89
4204.23
4221.02
4238.33
4256.26
4274.9
4294.35
4314.74
4336.21
4358.94
4383.13
4409.01
4436.87
4467.05
4500
4536.14
4575.98
4620.17
4669.44
4724.6
4786.46
4855.84
4933.48
5020.17
5117
5213.88
5197.67
5271.13
5406.07
5331.49
5394.92
5470.94
5605.66
5538.17
5606.85
4073.74
4088.16
4102.84
4117.67
4132.68
4147.9
4163.38
4179.18
4195.34
4211.92
4229
4246.65
4264.96
4284.03
4303.97
4324.91
4347.02
4370.48
4395.5
4422.35
4451.35
4482.89
4517.46
4555.58
4597.88
4645.09
4698.06
4757.68
4824.87
4900.58
4985.71
5081.35
5180.33
5161.19
5255.52
5237.82
5316.6
5461.4
5380.95
5448.72
5531.12
5676.56
5603.4
5677.4
4065.93
4080.23
4094.81
4109.53
4124.41
4139.5
4154.84
4170.47
4186.44
4202.82
4219.66
4237.03
4255.01
4273.7
4293.2
4313.62
4335.12
4357.85
4382.02
4407.87
4435.68
4465.83
4498.75
4534.99
4575.19
4620.13
4670.64
4727.65
4792.15
4865.19
4947.82
5041.23
5141.15
5119.45
5218.58
5197.82
5299.29
5279.79
5364.35
5520.13
5433.04
5505.68
5595.24
5752.73
5673.12
5753.11
4058.19
4072.38
4086.84
4101.44
4116.19
4131.14
4146.32
4161.78
4177.56
4193.72
4210.32
4227.41
4245.07
4263.39
4282.45
4302.37
4323.26
4345.29
4368.63
4393.49
4420.15
4448.92
4480.2
4514.5
4552.45
4594.87
4642.67
4696.75
4758.16
4828.04
4907.45
4997.57
5097.14
5073.27
5175.79
5152.47
5258.52
5235.78
5345.2
5323.63
5414.49
5582.65
5487.99
5566.11
5663.7
5834.82
5747.8
5834.62
4050.55
4064.61
4078.95
4093.41
4108.02
4122.82
4137.84
4153.12
4168.71
4184.65
4201
4217.82
4235.17
4253.12
4271.76
4291.18
4311.5
4332.85
4355.38
4379.3
4404.82
4432.25
4461.94
4494.33
4530.01
4569.73
4614.51
4665.38
4723.32
4789.6
4865.38
4951.61
5049.15
5023.84
5128.1
5102.63
5211.71
5186.41
5300.11
5275.15
5393.22
5369.33
5467.23
5649.26
5546.08
5630.33
5736.85
5923.55
5828.03
5922.63
4043
4056.94
4071.14
4085.46
4099.92
4114.56
4129.42
4144.52
4159.9
4175.63
4191.73
4208.27
4225.31
4242.9
4261.13
4280.08
4299.85
4320.54
4342.31
4365.32
4389.77
4415.91
4444.05
4474.6
4508.06
4545.11
4586.65
4633.92
4688.08
4750.29
4822.03
4904.24
4998.75
4972.76
5076.47
5049.65
5160
5132.58
5248.86
5221.34
5343.37
5315.96
5443.54
5417.04
5522.77
5720.35
5607.57
5698.75
5815.25
6019.75
5914.49
6018.06
4035.57
4049.36
4063.42
4077.59
4091.9
4106.38
4121.06
4135.97
4151.16
4166.65
4182.51
4198.78
4215.51
4232.76
4250.59
4269.09
4288.33
4308.41
4329.45
4351.6
4375.03
4399.96
4426.64
4455.42
4486.75
4521.2
4559.56
4602.96
4652.89
4710.72
4777.84
4855.68
4947.31
4920.93
5022.6
4995.27
5104.44
5075.8
5192.74
5163.17
5287.21
5257.26
5388.38
5358.24
5496.32
5466.9
5581.32
5796.37
5672.79
5771.66
5899.46
6124.45
6008.04
6121.91
4028.24
4041.89
4055.8
4069.82
4083.98
4098.29
4112.78
4127.5
4142.48
4157.75
4173.36
4189.36
4205.79
4222.7
4240.15
4258.21
4276.95
4296.45
4316.82
4338.17
4360.64
4384.43
4409.75
4436.88
4466.19
4498.18
4533.49
4573.11
4618.46
4671.45
4733.67
4806.21
4894.95
4867.5
4967.97
4940.25
5046.94
5017.94
5132.95
5102.35
5226.26
5194.38
5326.77
5294.14
5435.21
5402.02
5551.76
5519.06
5643.14
5877.7
5742.02
5849.42
5990.25
6238.76
6109.65
6235.18
4021.04
4034.54
4048.3
4062.16
4076.15
4090.29
4104.6
4119.12
4133.89
4148.93
4164.29
4180.02
4196.15
4212.74
4229.82
4247.47
4265.73
4284.69
4304.42
4325.02
4346.62
4369.35
4393.41
4419.01
4446.47
4476.16
4508.63
4544.67
4585.5
4633.2
4689.95
4756.3
4840.54
4812.65
4912.1
4883.32
4988.74
4959.09
5071.55
5040.49
5161.93
5129.16
5260.53
5226.15
5367.54
5331.98
5483.98
5447.34
5610.05
5573.73
5708.46
5965.07
5815.64
5932.76
6088.52
6364.01
6220.31
6359.17
4013.96
4027.31
4040.91
4054.62
4068.44
4082.39
4096.52
4110.84
4125.39
4140.2
4155.32
4170.77
4186.61
4202.88
4219.61
4236.86
4254.68
4273.12
4292.26
4312.17
4332.96
4354.73
4377.63
4401.85
4427.61
4455.22
4485.09
4517.83
4554.44
4596.76
4647.43
4707.33
4785.71
4758.78
4854.28
4825.08
4928.96
4898.3
5009.09
4977.28
5096.05
5062.55
5191.26
5155.91
5295.56
5258.43
5409.53
5370.81
5534.85
5494.32
5671.34
5630.96
5777.53
6059.24
5894.22
6022.21
6195.19
6501.99
6341.28
6495.61
4007.02
4020.2
4033.65
4047.19
4060.84
4074.61
4088.55
4102.66
4116.99
4131.57
4146.44
4161.63
4177.18
4193.13
4209.52
4226.39
4243.78
4261.75
4280.34
4299.62
4319.66
4340.56
4362.42
4385.38
4409.63
4435.37
4462.91
4492.69
4525.48
4562.82
4607.25
4660.47
4722.28
4796.31
4767.67
4867.35
4836.44
4945
4912.26
5028.7
4994.51
5120.04
5083.79
5220.65
5182.21
5331.32
5290.99
5452.88
5410.73
5587.88
5543.17
5735.77
5690.82
5850.78
6160.91
5978.1
6118.19
6311.48
6654.93
6474.14
6646.61
4000.2
4013.23
4026.52
4039.89
4053.36
4066.96
4080.69
4094.6
4108.71
4123.06
4137.67
4152.59
4167.85
4183.49
4199.55
4216.05
4233.05
4250.57
4268.65
4287.35
4306.72
4326.82
4347.74
4369.59
4392.48
4416.58
4442.09
4469.28
4498.67
4531.56
4570.34
4616.99
4671.07
4745.86
4717.34
4805.83
4775.56
4879.31
4846.57
4959.93
4924.97
5047.27
5010.53
5143.25
5103.96
5249.77
5207.85
5367.7
5323.55
5497.81
5451.76
5643.33
5594.35
5803.7
5753.84
5928.59
6271.14
6067.77
6221.63
6438.73
6825.58
6620.7
6814.82
3993.5
4006.39
4019.52
4032.72
4046.02
4059.43
4072.97
4086.67
4100.56
4114.66
4129.02
4143.67
4158.64
4173.97
4189.7
4205.85
4222.46
4239.56
4257.18
4275.34
4294.09
4313.49
4333.58
4354.43
4376.13
4398.79
4422.54
4447.54
4474.05
4502.93
4536.75
4577.53
4624.69
4690.18
4664.92
4751.36
4721.75
4814.2
4782.33
4889.98
4855.41
4973.55
4936.35
5064.56
5025.15
5165.46
5122.88
5278.45
5232.65
5404.48
5355.97
5544.65
5493.95
5701.88
5648.39
5875.8
5820.98
6011.89
6391.14
6164.39
6333.9
6578.6
7017.17
6783.35
7003.48
3987.03
3999.67
4012.65
4025.69
4038.81
4052.04
4065.38
4078.87
4092.53
4106.4
4120.5
4134.88
4149.56
4164.58
4179.99
4195.79
4212.04
4228.74
4245.91
4263.59
4281.78
4300.54
4319.89
4339.85
4360.51
4381.92
4404.16
4427.32
4451.48
4477.02
4506.17
4542.07
4583.55
4630.13
4693.78
4667.77
4755.94
4725.37
4821.35
4788.06
4899.36
4863.05
4985.73
4946.35
5080.41
5038.24
5186.52
5140.41
5306.51
5256.4
5441.75
5388.21
5593.64
5537.52
5764.43
5705.78
5953.51
5893.85
6102.55
6522.69
6270.19
6457.73
6733.13
7233.29
6965.2
7216.41
3993.2
4005.92
4018.8
4031.75
4044.79
4057.93
4071.21
4084.65
4098.27
4112.12
4126.22
4140.62
4155.34
4170.42
4185.88
4201.77
4218.09
4234.86
4252.08
4269.78
4287.96
4306.64
4325.84
4345.58
4365.91
4386.86
4408.47
4430.72
4453.7
4478.75
4509.94
4546.89
4587.74
4645.04
4621.97
4696.68
4670.01
4759.88
4728.58
4827.5
4792.98
4907.53
4869.74
4996.41
4955.03
5094.72
5049.77
5206.22
5156.38
5333.78
5278.87
5479.56
5420.17
5645.08
5582.47
5832.14
5767.2
6039.19
5974.35
6203.7
6668.6
6389.14
6598.01
6905.36
7478.06
7170.57
7457.72
3999.44
4012.05
4024.83
4037.69
4050.64
4063.7
4076.92
4090.3
4103.89
4117.72
4131.82
4146.23
4160.99
4176.12
4191.65
4207.6
4223.99
4240.8
4258.05
4275.72
4293.82
4312.35
4331.31
4350.7
4370.56
4390.86
4411.57
4432.61
4454.54
4481.07
4514.08
4549.73
4600.15
4579.61
4647.09
4623.47
4699.38
4672.3
4763.54
4731.7
4832.96
4797.41
4914.65
4875.65
5005.62
4962.46
5107.39
5059.71
5224.3
5170.57
5360.08
5299.87
5517.72
5451.61
5699.23
5628.69
5905.92
5833.18
6135.57
6063.9
6318.95
6834.56
6525.79
6761.57
7101.48
7756.4
7403.44
7731.27
4005.56
4018.06
4030.73
4043.49
4056.35
4069.34
4082.48
4095.82
4109.37
4123.17
4137.28
4151.71
4166.5
4181.69
4197.28
4213.29
4229.73
4246.56
4263.79
4281.38
4299.33
4317.62
4336.22
4355.15
4374.37
4393.82
4413.37
4433.11
4455.57
4484.66
4516.31
4549.74
4601.05
4579.65
4648.95
4624.71
4702.06
4674.58
4767.15
4734.86
4837.88
4801.57
4920.8
4880.82
5013.37
4968.63
5118.25
5067.86
5240.54
5182.69
5385.12
5319.02
5556.01
5482.15
5756.25
5675.93
5986.23
5903.89
6243.8
6163.5
6450.73
7029.41
6665.05
6624.52
6749.54
6924.88
6883.26
7254.45
7293.74
8074.56
7414.78
7620.92
7584.61
7761.05
7949.91
7976.9
4011.57
4023.94
4036.51
4049.16
4061.93
4074.84
4087.91
4101.19
4114.7
4128.49
4142.59
4157.05
4171.88
4187.12
4202.78
4218.84
4235.31
4252.13
4269.28
4286.73
4304.44
4322.38
4340.51
4358.83
4377.27
4395.65
4413.88
4433.26
4458.35
4487
4515.41
4557.54
4537.78
4601.48
4579.09
4650.48
4625.44
4704.76
4676.76
4770.75
4737.99
4842.33
4805.55
4925.89
4885.13
5019.43
4973.27
5127.07
5074.09
5254.64
5192.78
5408.39
5336.05
5594.14
5511.35
5816.25
5734.72
5689.87
6074.44
6029.72
5936.16
5984.04
6356.58
6313.15
6121.07
6268.36
6220.23
6421.34
6538.66
6583.65
7218.9
7178.49
7026.39
6708.18
6841.62
6984.76
7378.89
8431.91
8139.13
7549.4
7728.64
7917.08
8114.23
4017.45
4029.69
4042.15
4054.7
4067.37
4080.19
4093.19
4106.41
4119.89
4133.66
4147.77
4162.25
4177.13
4192.43
4208.15
4224.26
4240.72
4257.5
4274.52
4291.74
4309.11
4326.59
4344.13
4361.71
4379.18
4396.34
4413.63
4434.95
4461.1
4486.49
4519.73
4504.24
4555.46
4534.63
4601.28
4577.89
4651.37
4625.36
4707.31
4678.55
4774.08
4740.82
4846.2
4809.19
4929.64
4888.32
5023.64
4976.12
5133.86
5078.26
5266.73
5200.89
5429.75
5351.17
5645.11
5599.37
5554.62
5509.78
5887.44
5837.01
5760.35
5712.72
6073.66
5972.98
6024.29
6375.51
6170.35
6326.99
6275.34
6491.05
6615.82
6663.73
7341.32
7300.8
7137.71
6797.11
6939.85
7093.02
7513.05
8737.43
8732.43
8505.96
8318.35
7694.24
7884.33
8083.45
8291.88
4023.21
4035.3
4047.65
4060.09
4072.67
4085.39
4098.32
4111.48
4124.92
4138.68
4152.8
4167.32
4182.26
4197.62
4213.39
4229.53
4245.98
4262.65
4279.47
4296.37
4313.31
4330.22
4347.06
4363.75
4380.1
4396.09
4414.24
4437.79
4461.9
4482.31
4516.14
4500.58
4552.22
4530.39
4600.16
4575.71
4651.39
4624.26
4709.39
4679.66
4776.63
4742.86
4849.15
4812
4931.74
4890.06
5025.92
4977.14
5138.99
5081.14
5277.27
5208.51
5466.37
5423.2
5382.43
5342.29
5664.72
5616.5
5569.03
5522.35
5920.39
5866.73
5786.32
5735.35
6119.05
6010.55
6065.76
6441
6221.39
6388.4
6332.65
6564.25
6696.94
6748.94
7474.02
7256.83
7431.13
6891.54
7044.14
7208.3
7657.08
8954.81
8950.12
8713.38
8482.49
7849.59
8051.41
8262.64
4028.81
4040.78
4053
4065.33
4077.8
4090.43
4103.27
4116.38
4129.78
4143.53
4157.68
4172.24
4187.25
4202.69
4218.52
4234.67
4251.07
4267.58
4284.12
4300.61
4317
4333.23
4349.24
4364.91
4380.09
4395.95
4416.55
4439.73
4460.12
4482.9
4472.21
4511.39
4495.8
4547.91
4525.19
4597.95
4572.43
4650.46
4622.07
4710.65
4679.9
4777.86
4743.57
4850.75
4813.51
4932.07
4890.12
5027.11
4977
5144.77
5084.9
5304.87
5268.14
5233.67
5199.45
5476.88
5432.81
5390.73
5350.35
5684.23
5633.31
5583.45
5534.95
5954.08
5812.38
5896.64
5757.93
6165.89
6049.01
6108.4
6509.66
6274.33
6452.6
6392.49
6640.95
6782.43
6839.08
7615.88
7383.5
7569.62
6991.37
7154.96
7330.66
7810.87
9184.55
8933.09
9180.61
8688.76
8454.77
8015.77
8230.5
4034.27
4046.1
4058.2
4070.4
4082.75
4095.28
4108.05
4121.09
4134.47
4148.23
4162.41
4177.04
4192.13
4207.65
4223.55
4239.71
4256
4272.27
4288.43
4304.4
4320.13
4335.59
4350.67
4365.24
4379.67
4397.32
4419.1
4439.96
4456.42
4478.55
4468.71
4505.83
4490.54
4542.63
4519.23
4594.61
4568.07
4648.4
4618.82
4710.62
4678.96
4777.52
4742.74
4850.74
4813.4
4930.92
4888.41
5028.65
4976.09
5167.17
5135.61
5089.02
5312
5275.16
5239.76
5205.12
5488.03
5443.03
5400.14
5359.24
5703.72
5650.18
5598.23
5548.15
5988.41
5838.52
5926.93
5780.64
6214.25
6088.4
6152.22
6581.62
6329.45
6519.69
6454.8
6721.68
6872.57
6934.23
7766.81
7517.6
7716.43
7097.03
7272.45
7459.81
7974.64
9424.89
8908.94
9165.52
9422.15
8660.3
8421.87
8193.05
4039.58
4051.26
4063.21
4075.29
4087.51
4099.94
4112.63
4125.62
4138.98
4152.76
4166.99
4181.72
4196.92
4212.55
4228.5
4244.62
4260.74
4276.68
4292.34
4307.68
4322.67
4337.26
4351.35
4364.95
4380.15
4399.88
4420.58
4438.6
4457.04
4449.04
4474
4465.11
4499.76
4485.03
4536.57
4512.8
4590.24
4562.75
4644.96
4614.32
4709.07
4676.54
4775.06
4739.7
4848.84
4811.35
4927.71
4883.84
5028.61
4972.29
5171.53
5138.5
5074.66
5107.75
5320.22
5282.8
5246.5
5210.85
5500.05
5454.18
5410.55
5368.96
5723.49
5667.57
5613.77
5562.28
6023.47
5865.02
5957.8
5803.81
6264.24
6128.83
6197.29
6657.2
6386.53
6589.66
6519.24
6806.54
6967.22
7034.49
7926.91
7659.42
7871.81
7208.73
7396.21
7596.11
8148.73
9674.04
8878.68
9141.96
9409.39
9672.7
8625.24
8381.67
4044.72
4056.24
4068.05
4079.98
4092.08
4104.4
4117.01
4129.96
4143.31
4157.12
4171.44
4186.29
4201.63
4217.38
4233.39
4249.43
4265.28
4280.76
4295.8
4310.41
4324.58
4338.28
4351.4
4364.94
4382.18
4401.95
4420.71
4436.07
4454.2
4446.74
4469.56
4461.57
4493.55
4479.56
4529.9
4506.14
4584.79
4556.56
4639.7
4608.28
4705.37
4672.08
4769.39
4733.5
4843.83
4806.1
4920.51
4874.76
5041.87
5010.93
4952.2
4980.55
5175.98
5141.69
5074.23
5109
5329.16
5290.78
5253.32
5216.44
5513.07
5466.27
5421.78
5379.24
5743.95
5685.85
5630.31
5577.41
6059.39
5892.17
5989.55
5827.86
6315.81
6170.47
6243.72
6736.34
6445.4
6662.63
6586.08
6895.33
7066.53
7139.98
8096.56
7809.39
8036.17
7326.37
7526.5
7740.14
8333.29
9930.12
8840.23
9109.46
9386.43
9662.78
9930.2
8581.57
4049.68
4061.04
4072.68
4084.46
4096.43
4108.65
4121.17
4134.08
4147.45
4161.33
4175.77
4190.78
4206.3
4222.21
4238.26
4254.13
4269.56
4284.43
4298.74
4312.54
4325.87
4338.69
4351.3
4366.18
4384.44
4402.98
4419.57
4437.35
4429.77
4451.49
4444.55
4465.47
4458.28
4487.46
4474.46
4522.69
4499.42
4578.11
4549.43
4631.99
4600.26
4698.6
4664.79
4759.61
4723.47
4834.13
4796.39
4907.63
4859.94
5040.22
5007.5
4946.34
4976.01
5180.19
5144.41
5072.8
5109.22
5338.33
5298.74
5259.93
5221.57
5527.01
5479.12
5433.47
5389.68
5765.44
5705.22
5647.9
5593.46
6096.46
5920.4
6022.65
5853.12
6369.09
6213.48
6291.67
6819.03
6506.5
6738.79
6655.58
6988.27
7170.64
7250.94
8276.21
7967.87
8210.1
7450.25
7664.01
7892.08
8528.38
10191.6
8792.25
9066.79
9351.69
9640.63
9923.36
10192.8
4054.46
4065.64
4077.11
4088.73
4100.55
4112.65
4125.11
4137.99
4151.39
4165.38
4179.99
4195.23
4211.01
4227.1
4243.09
4258.63
4273.48
4287.6
4301.08
4314.06
4326.59
4338.76
4351.91
4368.19
4385.89
4402.79
4417.33
4435.31
4427.99
4448.92
4442.28
4461.92
4455.31
4481.79
4469.98
4514.99
4492.91
4569.9
4541.27
4621.55
4590.06
4688.28
4654.29
4744.81
4708.95
4818.58
4781.2
4907.44
4880.23
4855.42
4832.89
5037.29
5002.93
4937.93
4969.79
5183.73
5146.31
5070.13
5108.27
5347.4
5306.3
5265.89
5225.82
5541.62
5492.32
5445.24
5399.88
5788.13
5725.67
5666.37
5610.12
6134.99
5950.11
6057.34
5879.8
6424.43
6258.11
6341.34
6905.32
6569.89
6818.08
6727.7
7085.25
7279.86
7367.83
8465.68
8135.29
8393.5
7580.91
7808.88
8052.24
8733.84
10455.8
9013.64
9304.84
9603.68
9902.05
10189
10457.7
4059.03
4070.02
4081.3
4092.74
4104.42
4116.4
4128.79
4141.68
4155.15
4169.29
4184.16
4199.74
4215.84
4232
4247.74
4262.73
4276.84
4290.13
4302.78
4315
4326.9
4339.05
4353.36
4369.74
4386.27
4401.46
4414.45
4433.28
4426.22
4446.51
4440.04
4458.99
4452.73
4476.83
4466.32
4507.12
4487
4560.1
4532.1
4608.46
4577.87
4674.06
4640.53
4724.89
4689.96
4796.63
4760.33
4897.27
4868.86
4843.57
4821.33
5033.01
4997.01
4928.73
4962.19
5186.27
5147.12
5065.95
5105.86
5355.91
5313.06
5270.81
5228.9
5556.59
5505.58
5456.65
5409.37
5812.01
5747.03
5685.48
5627.15
6175.26
5981.46
6093.75
5907.9
6481.79
6304.72
6392.91
6995.04
6635.36
6900.58
6802.91
7186.55
7394.56
7490.98
8665
8311.74
8586.13
7718.13
7961.19
8220.95
8949.44
10720.8
9246.06
9552.7
9863.07
10169
10456.6
10722.7
4063.38
4074.15
4085.23
4096.48
4108
4119.88
4132.22
4145.13
4158.73
4173.12
4188.4
4204.39
4220.62
4236.56
4251.81
4266.13
4279.46
4291.95
4303.87
4315.48
4327.1
4339.89
4354.66
4370.35
4385.58
4399.29
4415.47
4424.34
4408.35
4431.21
4444.32
4437.88
4456.7
4450.54
4472.81
4463.52
4499.71
4482.04
4548.98
4522.48
4593.34
4564.39
4656.11
4623.88
4700.27
4667.37
4786.07
4766.87
4732.19
4749.64
4885.56
4856.03
4829.86
4806.78
5027.2
4989.58
4918.17
4953.07
5187.51
5146.53
5060.13
5101.75
5363.43
5318.57
5274.32
5230.42
5571.54
5518.36
5467.22
5417.7
5836.93
5769.17
5705.03
5644.11
6217.53
6014.27
6131.86
5937.11
6541.21
6353.5
6446.74
7088.57
6703.58
6986.49
6881.33
7292.5
7514.49
7619.92
8874.37
8497.17
8788.63
7861.92
8121.51
8398.45
9175.55
10987.7
9488.62
9808.45
10128.3
10439.3
10722.4
10988.9
4067.49
4078.02
4088.87
4099.93
4111.28
4123.06
4135.37
4148.35
4162.17
4177
4192.73
4208.88
4224.94
4240.45
4255.09
4268.72
4281.33
4293.11
4304.43
4315.62
4327.39
4340.66
4355.23
4370.05
4384.06
4396.63
4422.42
4413.68
4406.68
4429.24
4442.37
4435.89
4454.89
4448.67
4469.8
4461.48
4493.38
4478.26
4537.4
4513.37
4577.4
4550.84
4635.61
4605.65
4718.91
4688.48
4672.25
4656.84
4641.66
4770.8
4752.39
4735.41
4872.52
4841.97
4814.95
4791.39
5019.77
4980.59
4906.23
4942.51
5187.09
5144.22
5052.5
5095.73
5369.5
5322.44
5276.03
5230.02
5585.91
5530.15
5476.44
5424.37
5862.7
5791.84
5724.62
5660.53
6261.65
6048.25
6171.23
5967.01
6603.38
6404.16
6503.18
7185.91
6774.77
7075.81
6963.08
7403.15
7640.19
7754.7
9094.07
8692.24
9001.88
8013.21
8290.5
8585.41
9412.3
11259.2
9740.35
10071.5
10398.6
10708.5
10986.6
11259.9
4071.33
4081.6
4092.2
4103.04
4114.24
4125.92
4138.24
4151.39
4165.63
4180.94
4196.91
4212.97
4228.63
4243.56
4257.56
4270.55
4282.5
4293.67
4304.43
4315.41
4327.5
4340.92
4355.05
4369.03
4382.11
4398.14
4391.22
4420.58
4412
4405.1
4427.38
4440.62
4434.06
4453.42
4447.05
4467.71
4460
4488.52
4475.73
4526.6
4505.58
4562.2
4538.68
4614.55
4587.57
4704.36
4674.28
4659.14
4644.49
4630.24
4754.8
4736.88
4720.33
4858.33
4826.87
4799.12
4775.25
5010.64
4970
4893.06
4930.56
5184.65
5139.91
5042.96
5087.6
5373.67
5324.2
5275.51
5227.32
5599.21
5540.45
5483.82
5428.87
5888.86
5814.49
5743.62
5675.8
6306.79
6082.87
6210.99
5997.15
6668.16
6456.06
6561.65
7287.63
6849
7169.1
7048.27
7519.43
7772.4
7896.59
9324.67
8898.11
9225.87
8172.86
8468.41
8782.64
9659.72
11549.7
10001.3
10341.5
10672.2
10974.8
11254.4
11543.5
4074.86
4084.85
4095.19
4105.8
4116.84
4128.45
4140.86
4154.39
4169.17
4184.86
4200.78
4216.45
4231.55
4245.87
4259.26
4271.62
4282.91
4293.39
4303.7
4314.84
4327.27
4340.66
4354.37
4367.69
4380.05
4396.79
4389.93
4418.84
4410.42
4403.62
4425.62
4438.99
4432.33
4452.17
4445.58
4466.39
4458.92
4485.27
4474.24
4517.61
4499.68
4549.29
4529.04
4606.62
4593.98
4571.45
4689.49
4660.44
4646.32
4632.65
4619.39
4738.27
4720.86
4704.87
4843.1
4810.88
4782.52
4758.43
4999.68
4957.71
4878.68
4917.15
5179.86
5133.32
5031.38
5077.2
5375.44
5323.39
5272.36
5222.02
5610.93
5548.73
5488.76
5430.68
5914.91
5836.45
5761.31
5689.3
6352.18
6117.39
6250.23
6026.76
6735.08
6508.78
6621.62
7394.39
6925.84
7266.42
7136.32
7641.74
7911.22
8046.16
9567.08
9114.69
9461.77
8341.16
8655.73
8990.51
9917.98
11869.1
10270.8
10618.6
10948
11244.3
11535.1
11856.8
4078.07
4087.74
4097.79
4108.17
4119.05
4130.68
4143.42
4157.56
4172.85
4188.54
4204.07
4219.16
4233.63
4247.31
4260.03
4271.62
4282.04
4291.99
4302.47
4314.09
4326.8
4340.16
4353.56
4366.29
4378.1
4395.47
4388.75
4417.19
4408.91
4402.2
4423.94
4437.41
4430.67
4450.99
4444.16
4465.53
4458.01
4483.39
4473.34
4511.04
4495.79
4539.86
4522.42
4597.07
4585.07
4567.23
4557.08
4674.82
4647.35
4634.29
4621.6
4609.2
4721.63
4704.81
4689.49
4827.07
4794.28
4765.5
4741.34
4986.91
4943.84
4863.29
4902.44
5172.55
5124.27
5017.68
5064.4
5374.29
5319.5
5266.12
5213.82
5620.39
5554.31
5490.67
5429.2
5939.92
5856.77
5776.81
5700.1
6397.43
6150.78
6288.28
6054.66
6803.52
6560.64
6681.91
7506.17
7004.5
7367.45
7226.76
7769.6
8056.95
8203.63
9821.23
9342.69
9710.08
8517.81
8853.39
9209.32
10186.3
12200.3
10550.2
10904.1
11231.5
11532.8
11849.7
12210.1
4080.91
4090.23
4099.96
4110.1
4120.89
4132.78
4146.2
4161
4176.39
4191.69
4206.61
4221
4234.73
4247.59
4259.38
4270
4279.97
4290.18
4301.25
4313.41
4326.41
4339.8
4352.74
4364.82
4379.77
4387.51
4373.37
4394.15
4415.62
4407.42
4400.79
4422.33
4435.84
4429.06
4449.76
4442.72
4464.77
4457.04
4482.12
4472.4
4506.82
4493.42
4538.99
4551.58
4530.89
4517.55
4588.61
4577.63
4561.34
4660.78
4635.32
4623.31
4611.54
4599.94
4705.3
4689.15
4674.6
4810.53
4777.36
4748.47
4724.52
4972.34
4928.56
4847.16
4886.68
5162.55
5112.67
5001.87
5049.23
5369.71
5312.13
5256.38
5202.29
5626.7
5556.37
5488.79
5423.78
5962.54
5874.02
5788.74
5706.96
6441.09
6182.02
6323.97
6079.62
6872.46
6610.44
6741.34
7622.38
7084.4
7471.81
7319.85
7902.82
8209.81
8368.9
10086.6
9583.26
9970.67
8703.48
9061.66
9440.71
10466.4
12519.1
10842.6
11202.8
11537.9
11864.2
12222.5
12603.3
4083.34
4092.26
4101.65
4111.57
4122.53
4135.15
4149.38
4164.44
4179.49
4194.15
4208.29
4221.82
4234.61
4246.48
4257.4
4267.64
4277.87
4288.69
4300.49
4313.21
4326.51
4339.52
4351.78
4363.19
4386.27
4378.65
4372.3
4392.8
4414.06
4405.9
4399.35
4420.73
4434.24
4427.44
4448.34
4441.18
4463.75
4455.81
4480.46
4470.88
4503.58
4491.24
4547.47
4535.52
4527.54
4517.44
4510.74
4581.4
4571.21
4556.44
4647.69
4624.64
4613.58
4602.66
4591.9
4689.55
4674.25
4660.58
4793.66
4760.43
4731.69
4708.16
4956.06
4911.93
4830.37
4869.92
5149.58
5098.44
4984.05
5031.7
5361.18
5300.88
5242.89
5187.14
5628.8
5554.05
5482.43
5413.85
5981.48
5886.94
5795.85
5708.84
6476.07
6210.05
6349.09
6100.36
6941.2
6657.79
6796.45
7742.54
7161.07
7579.22
7417.06
8042.05
8369.89
8541.82
10365.6
9836.79
10246.1
8899.28
9281.83
9685.09
10762.1
12946.6
11152
11525
11885.1
12255.9
12664.6
13153.9
4085.29
4093.76
4102.81
4112.73
4124.43
4138.04
4152.75
4167.58
4182.01
4195.85
4209.08
4221.67
4233.54
4244.65
4255.19
4265.57
4276.41
4288.05
4300.61
4313.75
4326.67
4339
4350.62
4361.56
4385.02
4377.54
4371.31
4391.44
4412.47
4404.32
4397.88
4419.09
4432.55
4425.77
4446.67
4439.49
4462.2
4454.19
4477.9
4468.58
4499.71
4488.22
4543.67
4532.14
4524.62
4514.66
4508.06
4575.21
4565.69
4552.12
4635.96
4615.22
4605.02
4594.92
4584.96
4674.77
4660.47
4647.82
4776.59
4743.69
4715.46
4692.59
4938.16
4894.12
4813.06
4852.33
5133.35
5081.45
4964.07
5011.67
5348.24
5285.48
5225.51
5168.3
5625.99
5547.01
5471.49
5399.48
5990.8
5888.9
5794.51
5704.56
6530.35
6231.82
6346.86
6122.31
7007.97
6672.69
6868.7
7864.02
7255.06
7685.86
7527.58
8187.88
8537.27
8723.42
10661
10105.8
10537.8
9106.25
9515.3
9943.94
11077.4
15172.9
11484.6
11883.1
12284.7
12718.5
13238.3
14149
4086.7
4094.67
4103.51
4114.05
4126.97
4141.32
4156.01
4170.3
4183.91
4196.88
4209.22
4220.98
4232.16
4242.89
4253.52
4264.52
4276.19
4288.62
4301.51
4314.24
4326.52
4338.23
4349.34
4359.84
4370.3
4383.8
4376.43
4390.09
4410.82
4402.72
4396.39
4417.37
4430.69
4423.98
4444.7
4437.58
4460.06
4452.15
4474.46
4465.57
4495
4484.21
4539.91
4528.68
4521.53
4511.62
4505.33
4569.72
4560.82
4547.93
4625.56
4606.73
4597.35
4588.03
4578.81
4661.1
4647.89
4636.32
4759.54
4727.32
4699.86
4677.89
4918.56
4875.17
4795.41
4834.07
5113.75
5061.55
4941.77
4988.96
5331.06
5266.04
5204.36
5146
5618.77
5536.93
5458.44
5383.76
6023.28
5876.6
5784.55
5696.26
6508.69
6233.82
6342.02
6131.12
7032.04
6668.07
6848.61
8000.79
7235.23
7732.14
7511.89
8346.65
8717.66
8915.57
10977.7
10391
10850.8
9331.52
9761.68
10218.7
11415.4
18119.5
11849.7
12286
12746.1
13280.3
14018.3
15535.5
4087.45
4094.95
4104.17
4116.08
4130.09
4144.72
4159
4172.53
4185.32
4197.46
4209.07
4220.25
4231.16
4242.07
4253.26
4264.96
4277.22
4289.77
4302.22
4314.36
4326.06
4337.27
4347.92
4361.41
4369.31
4368.28
4355.64
4382.58
4375.33
4388.75
4409.1
4401.13
4394.93
4415.54
4428.63
4422.03
4442.38
4435.4
4457.36
4449.67
4470.21
4461.88
4502.21
4493.31
4488.22
4479.23
4536.1
4525.07
4518.21
4508.29
4564.53
4556.15
4543.72
4616.19
4598.82
4590.2
4581.59
4573.02
4648.39
4636.33
4625.89
4742.51
4711.43
4684.97
4664.01
4897.04
4854.73
4777.26
4814.81
5090.95
5038.7
4917.02
4963.42
5313.23
5246.4
5183
5122.3
5610.98
5528.87
5449.63
5374.25
6004.99
5871.99
5779.98
5691.71
6503.45
6229.12
6337.67
6127
7027.32
6663.73
6843.13
7984.55
7229.73
7727.34
7505.79
8335.62
8710.79
9124.1
11316.6
10696
11186.7
9571.63
10020.5
10522.2
11783
21425.7
12253.3
12739.8
13281.1
13955
14920.4
17253.3
4087.43
4094.85
4105.44
4118.9
4133.55
4148.04
4161.66
4174.42
4186.51
4198.1
4209.36
4220.42
4231.47
4242.73
4254.35
4266.33
4278.5
4290.62
4302.55
4314.16
4325.38
4336.14
4346.39
4367.25
4360.47
4374.21
4354.7
4381.37
4387.43
4407.37
4399.55
4393.49
4413.64
4426.41
4419.98
4439.75
4432.99
4454.11
4446.77
4465.3
4457.65
4498.92
4490.14
4485.14
4473.52
4532.16
4521.24
4514.64
4504.76
4559.43
4551.51
4539.43
4607.49
4591.33
4583.39
4575.39
4567.4
4636.61
4625.7
4616.31
4725.42
4695.94
4670.76
4650.96
4873.43
4832.57
4758.43