/*--------------------------------*- C++ -*----------------------------------*\
  =========                 |
  \\      /  F ield         | OpenFOAM: The Open Source CFD Toolbox
   \\    /   O peration     | Website:  https://openfoam.org
    \\  /    A nd           | Version:  dev
     \\/     M anipulation  |
\*---------------------------------------------------------------------------*/
FoamFile
{
    version     2.0;
    format      ascii;
    class       volScalarField;
    location    "2500";
    object      H2O;
}
// * * * * * * * * * * * * * * * * * * * * * * * * * * * * * * * * * * * * * //

dimensions      [0 0 0 0 0 0 0];

internalField   nonuniform List<scalar> 
9967
(
5.99363e-34
1.65804e-33
1.13237e-33
3.01291e-33
3.57012e-33
1.00987e-33
4.40242e-33
9.08247e-33
5.45192e-33
9.74783e-34
3.89231e-33
1.74066e-32
1.31342e-32
4.98013e-33
3.90021e-34
4.83524e-33
3.32241e-32
2.5774e-32
1.29203e-32
3.07806e-33
1.68556e-34
5.3189e-33
4.94153e-32
5.02307e-32
2.3362e-32
1.09104e-32
1.80927e-33
4.73643e-35
4.39533e-33
6.13546e-32
8.85347e-32
4.89639e-32
2.32401e-32
6.86815e-33
4.70295e-34
2.07489e-35
1.37735e-32
4.55164e-32
1.36311e-31
1.15699e-31
4.22519e-32
1.83203e-32
2.31108e-33
1.65087e-34
3.92688e-36
2.38492e-32
5.90156e-32
1.88268e-31
1.94636e-31
1.02774e-31
3.67397e-32
7.94322e-33
1.20092e-33
7.24927e-35
8.64011e-37
3.62011e-32
8.68501e-32
1.88643e-31
3.01756e-31
2.25476e-31
9.85506e-32
2.78855e-32
4.43861e-33
3.82018e-34
2.0144e-35
5.8938e-37
8.66162e-32
2.36273e-31
3.09694e-31
5.07019e-31
3.88604e-31
1.99825e-31
7.78947e-32
1.30881e-32
1.56098e-33
1.1559e-34
1.30555e-35
3.63213e-36
1.03767e-31
3.79348e-31
5.03615e-31
8.55401e-31
6.51204e-31
3.86017e-31
1.48886e-31
4.96359e-32
4.78115e-33
5.64046e-34
8.30643e-35
3.17585e-35
1.38053e-35
1.17606e-31
4.4221e-31
7.99737e-31
1.57792e-30
1.21746e-30
6.64861e-31
3.63106e-31
1.18809e-31
1.94622e-32
2.61056e-33
6.15361e-34
2.20618e-34
2.24646e-34
2.47255e-34
5.28864e-31
1.7025e-30
1.67582e-30
2.75825e-30
2.31453e-30
1.42156e-30
6.74715e-31
2.86512e-31
7.9682e-32
1.12241e-32
2.5259e-33
1.7205e-33
1.71993e-33
1.9123e-33
1.47252e-33
3.97256e-31
3.44275e-30
5.23777e-30
5.45087e-30
4.94501e-30
2.58252e-30
1.35467e-30
5.87736e-31
1.56589e-31
3.78031e-32
9.04481e-33
6.96355e-33
9.50436e-33
8.8962e-33
9.24239e-33
7.826e-33
1.59839e-30
6.20718e-30
1.15537e-29
1.00601e-29
1.08861e-29
6.3886e-30
2.86137e-30
1.15855e-30
4.68625e-31
1.19718e-31
2.50806e-32
4.04683e-32
3.65856e-32
6.60873e-32
8.86773e-32
7.8882e-32
1.74398e-32
2.97728e-30
1.31855e-29
2.81123e-29
2.93562e-29
2.22396e-29
1.40757e-29
6.56001e-30
2.63472e-30
9.19143e-31
2.41689e-31
1.11544e-31
9.31601e-32
2.71828e-31
3.4527e-31
3.2492e-31
4.16245e-31
3.40798e-31
9.21841e-32
1.0686e-30
2.20838e-29
5.17083e-29
5.18927e-29
5.10507e-29
3.20436e-29
1.49522e-29
5.77994e-30
1.83754e-30
6.73684e-31
2.0511e-31
3.42337e-31
6.68045e-31
2.33583e-30
2.9528e-30
2.34772e-30
1.15083e-30
1.69371e-30
2.55322e-31
3.18053e-30
2.09914e-29
8.94328e-29
1.23711e-28
1.36753e-28
7.55398e-29
3.39162e-29
1.41836e-29
4.38939e-30
1.28067e-30
4.4577e-31
7.11717e-31
2.29493e-30
7.03621e-30
1.10359e-29
1.51282e-29
7.16043e-30
8.58202e-30
6.59248e-30
1.12396e-30
3.7978e-30
2.92388e-29
1.25773e-28
2.25742e-28
2.03616e-28
1.87568e-28
8.17766e-29
3.2141e-29
1.0974e-29
3.50838e-30
1.22095e-30
1.52817e-30
4.91661e-30
1.68884e-29
3.45239e-29
5.29816e-29
6.75152e-29
5.03297e-29
4.28415e-29
3.31003e-29
6.69757e-30
6.06215e-30
9.16497e-29
2.78456e-28
4.13852e-28
3.91374e-28
4.11711e-28
1.78746e-28
7.56604e-29
2.61648e-29
7.64546e-30
3.49424e-30
4.0597e-30
9.07409e-30
4.03768e-29
8.81007e-29
1.80206e-28
3.18038e-28
1.81321e-28
1.44779e-28
1.75369e-28
1.16262e-28
1.35494e-28
2.48361e-29
1.16129e-28
4.94371e-28
8.38429e-28
8.36581e-28
8.03384e-28
5.01086e-28
1.59211e-28
6.95164e-29
2.0547e-29
6.98522e-30
9.08242e-30
2.33928e-29
7.76616e-29
1.86278e-28
5.581e-28
8.28699e-28
1.40919e-27
1.09317e-27
8.22697e-28
1.155e-27
1.05374e-27
1.48173e-27
1.09285e-28
3.80626e-28
1.15969e-27
1.765e-27
1.40753e-27
1.59683e-27
1.0563e-27
3.95584e-28
1.51901e-28
4.30333e-29
1.91094e-29
1.69576e-29
4.98654e-29
1.55417e-28
4.71001e-28
9.80638e-28
2.76891e-27
5.02368e-27
4.89755e-27
6.3528e-27
4.82627e-27
1.10095e-26
2.07837e-26
2.12226e-26
3.27151e-28
5.47767e-28
2.17594e-27
3.03299e-27
2.91e-27
3.09317e-27
2.23213e-27
1.04132e-27
3.91573e-28
1.24063e-28
3.48774e-29
3.57496e-29
1.10586e-28
3.70744e-28
9.82169e-28
2.54667e-27
6.94999e-27
1.62782e-26
2.31619e-26
1.93821e-26
6.10681e-26
7.16504e-26
1.62395e-25
3.39282e-25
2.40117e-25
6.63259e-28
1.86023e-27
2.94911e-27
5.81918e-27
7.97094e-27
7.11458e-27
4.83618e-27
2.6507e-27
1.00052e-27
3.12133e-28
1.04015e-28
9.14101e-29
2.00181e-28
7.94951e-28
2.74723e-27
5.95017e-27
1.96926e-26
3.17624e-26
8.29045e-26
1.12282e-25
3.57622e-25
1.09907e-24
1.96291e-24
3.55775e-24
5.63755e-24
2.33449e-24
1.75657e-27
4.00345e-27
6.40663e-27
9.44446e-27
1.51345e-26
1.39656e-26
9.45228e-27
5.61825e-27
2.56578e-27
9.21789e-28
3.22683e-28
2.34135e-28
5.86299e-28
1.55453e-27
6.26229e-27
1.71673e-26
5.01541e-26
9.35962e-26
3.01702e-25
9.06139e-25
3.09951e-24
1.33537e-23
2.99861e-23
4.18957e-23
7.29847e-23
9.33648e-23
4.16379e-23
2.51821e-27
1.44505e-26
2.19673e-26
2.52028e-26
2.92969e-26
3.07555e-26
2.24319e-26
1.27975e-26
6.03393e-27
2.37319e-27
8.70355e-28
5.6576e-28
1.28169e-27
4.53348e-27
1.46262e-26
3.72843e-26
1.04281e-25
4.60149e-25
1.90708e-24
7.0074e-24
3.38564e-23
1.36254e-22
4.47064e-22
8.19994e-22
1.02155e-21
1.47569e-21
1.43896e-21
6.01361e-22
1.17549e-26
5.75074e-26
6.45031e-26
7.93038e-26
8.58832e-26
7.69355e-26
5.36223e-26
3.00567e-26
1.46379e-26
6.11339e-27
2.35492e-27
1.1831e-27
2.01243e-27
6.87525e-27
3.01429e-26
9.48266e-26
3.35666e-25
1.65628e-24
1.12882e-23
7.54121e-23
3.65599e-22
1.6431e-21
6.51831e-21
1.18942e-20
1.85225e-20
2.62734e-20
2.60933e-20
1.98539e-20
8.22226e-21
1.6813e-25
1.50827e-25
2.8097e-25
2.48417e-25
2.20943e-25
1.44166e-25
1.39052e-25
7.21578e-26
3.54636e-26
1.61579e-26
6.41294e-27
3.54034e-27
5.12324e-27
1.32336e-26
4.90492e-26
1.90156e-25
6.65314e-25
5.84179e-24
6.37828e-23
5.76942e-22
4.17664e-21
1.73945e-20
6.41313e-20
2.11885e-19
3.21619e-19
5.17834e-19
5.4863e-19
3.47512e-19
1.86621e-19
7.59358e-20
7.40077e-25
1.22878e-24
9.37093e-25
9.91933e-25
6.11328e-25
4.18119e-25
3.64109e-25
2.30415e-25
8.46162e-26
4.45773e-26
1.63984e-26
8.52241e-27
1.04119e-26
2.83973e-26
8.32671e-26
2.93856e-25
1.50688e-24
1.66755e-23
2.8833e-22
3.94349e-21
3.6379e-20
2.05186e-19
7.40928e-19
2.57364e-18
4.71924e-18
6.60843e-18
7.39032e-18
6.95989e-18
5.46444e-18
2.07138e-18
3.83794e-19
2.89323e-24
4.55161e-24
4.88634e-24
3.3676e-24
2.62682e-24
1.80201e-24
1.35323e-24
7.0002e-25
2.76787e-25
1.37689e-25
6.22659e-26
2.09492e-26
2.44406e-26
4.84012e-26
1.85217e-25
5.43024e-25
2.69371e-24
3.51134e-23
1.02109e-21
1.93718e-20
2.42626e-19
1.89771e-18
8.12981e-18
2.55622e-17
6.29688e-17
1.00384e-16
1.14874e-16
1.23221e-16
9.20833e-17
4.89614e-17
1.41396e-17
2.35277e-18
6.51686e-24
1.84362e-23
2.80086e-23
1.58614e-23
9.80138e-24
6.11022e-24
4.35573e-24
2.13437e-24
8.60211e-25
4.43094e-25
2.01977e-25
7.3651e-26
5.74556e-26
9.20114e-26
3.32926e-25
1.26574e-24
4.32254e-24
6.32243e-23
2.28853e-21
7.69869e-20
1.24112e-18
1.33438e-17
8.43228e-17
2.47869e-16
6.29339e-16
1.16494e-15
1.752e-15
1.81981e-15
1.47095e-15
8.34132e-16
3.70481e-16
6.07717e-17
5.74787e-18
6.07374e-23
1.07454e-22
1.09303e-22
7.80378e-23
3.7027e-23
2.07573e-23
1.29024e-23
8.01667e-24
4.98119e-24
1.25959e-24
6.92104e-25
2.46581e-25
1.13049e-25
2.58575e-25
6.06676e-25
2.51173e-24
8.97278e-24
8.40359e-23
3.75022e-21
1.59374e-19
5.45855e-18
7.13725e-17
6.36751e-16
3.0479e-15
8.12813e-15
1.77699e-14
2.85445e-14
3.40403e-14
2.95916e-14
1.85622e-14
7.48528e-15
1.55806e-15
6.97484e-17
6.59923e-17
2.32296e-22
2.63882e-22
5.0669e-22
2.92111e-22
1.7067e-22
9.16415e-23
3.42849e-23
2.90102e-23
1.82978e-23
5.51473e-24
2.24561e-24
8.25177e-25
3.32555e-25
5.98023e-25
1.18941e-24
4.29483e-24
1.61938e-23
1.04906e-22
4.86404e-21
2.9856e-19
1.19032e-17
3.43935e-16
4.0868e-15
3.0049e-14
8.91567e-14
2.319e-13
4.32122e-13
5.74592e-13
5.67323e-13
4.06518e-13
2.00232e-13
5.34314e-14
0
5.61554e-16
4.08673e-15
1.0134e-16
2.61192e-15
1.6714e-15
3.91705e-22
1.76533e-21
1.20055e-21
1.44865e-21
5.92422e-22
2.90062e-22
1.62059e-22
8.0229e-23
6.06736e-23
2.99949e-23
8.00826e-24
4.29138e-24
1.312e-24
1.02412e-24
2.91854e-24
7.67048e-24
3.05421e-23
1.61599e-22
5.02921e-21
3.85021e-19
2.17785e-17
8.23786e-16
1.91442e-14
2.26709e-13
9.17948e-13
2.42428e-12
5.55653e-12
8.67134e-12
9.57721e-12
7.82988e-12
4.46001e-12
1.54567e-12
8.38884e-14
4.45173e-13
3.05308e-14
3.1523e-13
2.44274e-13
2.03079e-14
2.69929e-16
1.11249e-14
4.98382e-15
1.11038e-21
8.342e-21
6.1424e-21
6.4624e-21
2.80808e-21
1.01771e-21
8.4897e-22
3.27692e-22
2.29249e-22
1.30546e-22
3.54908e-23
1.42654e-23
5.84796e-24
3.62579e-24
5.19414e-24
1.70137e-23
5.45108e-23
2.47253e-22
4.38704e-21
3.80566e-19
3.13226e-17
1.52185e-15
5.45275e-14
1.09065e-12
9.08632e-12
2.17653e-11
5.60162e-11
1.09598e-10
1.42466e-10
1.30918e-10
8.69299e-11
3.65269e-11
2.46597e-12
1.44921e-11
1.88666e-12
1.6317e-13
1.61024e-12
1.20532e-12
9.80914e-14
1.02651e-15
5.2024e-14
2.12615e-14
9.74263e-21
1.9991e-20
2.67998e-20
2.26881e-20
1.20725e-20
3.89736e-21
2.28945e-21
1.45403e-21
1.20484e-21
4.22165e-22
1.41353e-22
5.66202e-23
2.70357e-23
1.10341e-23
1.35846e-23
2.82342e-23
8.59931e-23
4.0239e-22
3.77835e-21
2.81918e-19
3.05723e-17
2.4313e-15
1.01242e-13
3.17718e-12
3.32508e-11
2.05261e-10
4.50157e-10
1.07543e-09
1.75796e-09
1.90159e-09
1.43726e-09
7.30459e-10
6.42199e-11
3.21444e-10
1.11356e-11
6.17982e-11
1.02543e-11
8.00551e-13
8.16649e-12
5.89412e-12
4.63153e-13
3.88376e-15
2.29039e-13
8.61423e-14
8.20527e-20
1.24713e-19
1.65701e-19
9.70421e-20
4.37027e-20
1.756e-20
7.43436e-21
7.57125e-21
3.49408e-21
1.84278e-21
5.13285e-22
1.84203e-22
9.66497e-23
3.7284e-23
3.07691e-23
5.78201e-23
1.90356e-22
6.78357e-22
4.165e-21
1.55874e-19
2.21355e-17
2.33711e-15
1.77712e-13
6.06043e-12
1.15736e-10
6.83251e-10
3.00091e-09
8.0319e-09
1.68161e-08
2.27237e-08
2.02602e-08
1.19794e-08
1.40176e-09
6.31939e-09
3.22807e-10
1.53063e-09
5.93851e-11
3.14803e-10
5.05167e-11
3.77449e-12
3.92383e-11
2.76143e-11
2.07332e-12
1.43247e-14
9.53938e-13
3.30662e-13
1.02953e-18
1.07625e-18
7.92349e-19
3.73125e-19
1.50646e-19
6.92484e-20
2.92048e-20
2.38637e-20
1.57594e-20
6.22113e-21
2.21298e-21
4.77531e-22
3.09815e-22
1.33095e-22
8.17967e-23
1.16707e-22
3.58627e-22
1.35648e-21
6.95205e-21
9.85778e-20
1.05236e-17
1.59998e-15
1.72489e-13
1.19185e-11
2.40965e-10
2.11656e-09
1.14877e-08
4.79755e-08
1.20029e-07
2.12096e-07
2.35027e-07
1.64744e-07
2.47535e-08
1.00044e-07
6.73685e-09
2.80503e-08
1.54117e-09
6.96265e-09
2.8331e-10
1.44594e-09
2.36325e-10
1.69032e-11
1.80622e-10
1.23446e-10
8.80095e-12
5.05027e-14
3.75529e-12
1.19341e-12
5.04354e-18
4.11601e-18
3.69799e-18
1.62915e-18
5.74494e-19
1.96567e-19
9.84446e-20
8.6164e-20
5.65323e-20
2.76399e-20
1.22722e-20
1.95159e-21
8.14651e-22
4.38413e-22
2.34422e-22
2.46938e-22
6.19973e-22
2.65774e-21
1.43188e-20
9.68785e-20
5.27746e-18
7.61564e-16
1.13865e-13
1.15579e-11
5.25049e-10
6.84586e-09
3.64101e-08
1.84383e-07
6.77345e-07
1.46507e-06
2.17662e-06
1.89685e-06
3.59693e-07
1.32488e-06
1.103e-07
4.1712e-07
2.95075e-08
1.18678e-07
6.83377e-09
2.98135e-08
1.28543e-09
6.33496e-09
1.06041e-09
7.24212e-11
7.97872e-10
5.30951e-10
3.56809e-11
1.7081e-13
1.41215e-11
4.17637e-12
2.00507e-17
2.66334e-17
2.06715e-17
6.80767e-18
2.71523e-18
6.86758e-19
3.47618e-19
2.2761e-19
2.20787e-19
1.11165e-19
4.99833e-20
1.15752e-20
3.03082e-21
1.27356e-21
6.93282e-22
5.6537e-22
1.09264e-21
4.52702e-21
2.49295e-20
1.81276e-19
2.65592e-18
3.18834e-16
5.19324e-14
7.54124e-12
4.69491e-10
1.20782e-08
9.84507e-08
5.96915e-07
2.47364e-06
7.79632e-06
1.46773e-05
1.85438e-05
4.38263e-06
1.48894e-05
1.51891e-06
5.31786e-06
4.57064e-07
1.70598e-06
1.22716e-07
4.84891e-07
2.89898e-08
1.23307e-07
5.60086e-09
2.68097e-08
4.58765e-09
3.01056e-10
3.42266e-09
2.23626e-09
1.40575e-10
5.99935e-13
5.27851e-11
1.52843e-11
1.27621e-16
1.82578e-16
1.04158e-16
3.47459e-17
1.13438e-17
3.3307e-18
1.15705e-18
9.04531e-19
5.85572e-19
3.81819e-19
1.77116e-19
6.43614e-20
1.47679e-20
4.42135e-21
2.13971e-21
1.17369e-21
3.16881e-21
1.22084e-20
6.01044e-20
3.3947e-19
2.58542e-18
1.26929e-16
1.92211e-14
3.46276e-12
3.87946e-10
1.27703e-08
1.64006e-07
1.62302e-06
7.59199e-06
2.55358e-05
6.92316e-05
0.000115489
4.65082e-05
0.000140483
1.80361e-05
5.85689e-05
6.14035e-06
2.12107e-05
1.86041e-06
6.88517e-06
5.01357e-07
1.98701e-06
1.19997e-07
5.07536e-07
2.3684e-08
1.1151e-07
1.9454e-08
1.24061e-09
1.45654e-08
9.50672e-09
5.63713e-10
2.36325e-12
2.10344e-10
6.22643e-11
3.60722e-16
6.70096e-16
4.677e-16
1.92619e-16
5.65369e-17
1.242e-17
3.72743e-18
1.96043e-18
1.80736e-18
9.92184e-19
5.68231e-19
2.373e-19
7.20561e-20
1.93873e-20
7.0518e-21
3.04321e-21
6.54566e-21
2.83321e-20
1.49947e-19
7.89917e-19
3.93763e-18
6.02855e-17
5.99405e-15
1.23085e-12
2.07979e-10
1.12021e-08
1.74348e-07
2.46582e-06
1.82037e-05
6.98207e-05
0.000184826
0.000404099
0.000317235
0.000588727
0.000167234
0.000401391
6.99213e-05
0.000199013
2.4156e-05
7.9729e-05
7.58945e-06
2.6986e-05
2.08379e-06
8.25399e-06
4.98838e-07
2.14946e-06
9.93698e-08
4.70173e-07
8.30237e-08
5.3091e-09
6.34262e-08
4.26191e-08
2.44539e-09
1.02773e-11
9.31677e-10
2.7769e-10
7.94306e-16
1.88986e-15
1.62629e-15
7.8095e-16
3.03618e-16
5.7867e-17
1.3652e-17
5.34748e-18
4.09722e-18
2.67446e-18
1.84655e-18
7.34158e-19
2.6234e-19
6.46966e-20
2.44836e-20
1.25057e-20
1.64929e-20
6.60036e-20
3.35313e-19
1.89998e-18
7.46771e-18
6.06504e-17
1.90093e-15
3.61505e-13
7.29985e-11
8.22511e-09
2.02601e-07
2.70056e-06
2.63497e-05
0.000133878
0.000391562
0.000764975
0.000834786
0.00112897
0.000682264
0.000980129
0.000460745
0.000764644
0.000226657
0.00051121
8.87018e-05
0.000250231
2.98731e-05
9.76746e-05
8.86845e-06
3.28677e-05
2.15249e-06
9.3814e-06
4.27622e-07
2.07929e-06
3.68179e-07
2.46169e-08
2.91442e-07
2.05515e-07
1.17117e-08
4.82042e-11
4.46936e-09
1.31936e-09
3.82923e-15
8.08967e-15
7.32181e-15
3.57792e-15
1.5081e-15
3.42312e-16
6.19625e-17
1.59219e-17
9.691e-18
6.22886e-18
4.42092e-18
2.59617e-18
7.8383e-19
2.86685e-19
7.83583e-20
3.1553e-20
4.66568e-20
1.50797e-19
7.29824e-19
4.07482e-18
2.19415e-17
9.30609e-17
9.28262e-16
9.58504e-14
1.9812e-11
3.04407e-09
1.50652e-07
2.51846e-06
2.84098e-05
0.000178074
0.000583502
0.00118332
0.00137476
0.00157467
0.00128025
0.0015796
0.0010842
0.00141094
0.000835379
0.0011777
0.000555903
0.000904109
0.000272996
0.000599826
0.000107481
0.000297974
3.58471e-05
0.000118259
9.6087e-06
3.84839e-05
1.94356e-06
9.54325e-06
1.72875e-06
1.23313e-07
1.41626e-06
1.04139e-06
5.97698e-08
2.4332e-10
2.25083e-08
6.58455e-09
1.96896e-14
4.26908e-14
3.3595e-14
1.62006e-14
5.9928e-15
1.55634e-15
2.83757e-16
6.1429e-17
2.80185e-17
2.0762e-17
1.31036e-17
7.35467e-18
2.53297e-18
7.99482e-19
2.89175e-19
1.19131e-19
1.10543e-19
5.45452e-19
2.55614e-18
9.61731e-18
4.87202e-17
2.22657e-16
9.58687e-16
2.76627e-14
4.85236e-12
9.14285e-10
7.83907e-08
1.83412e-06
2.67394e-05
0.000186815
0.000709447
0.00146269
0.00223629
0.00182864
0.00216965
0.00173621
0.00204255
0.00152649
0.00187739
0.00127134
0.00164573
0.000975599
0.00137467
0.000650007
0.00105662
0.000326798
0.000710145
0.000129332
0.000358954
4.00398e-05
0.000139246
9.14741e-06
4.06766e-05
8.33511e-06
6.40944e-07
7.00246e-06
5.26887e-06
3.13084e-07
1.27811e-09
1.16565e-07
3.36055e-08
1.03563e-13
2.18204e-13
1.71579e-13
7.75896e-14
2.32938e-14
9.79941e-15
1.2435e-15
2.22833e-16
7.57771e-17
4.48065e-17
2.41488e-17
1.84888e-17
7.04935e-18
2.54858e-18
9.0025e-19
3.18972e-19
5.13146e-19
1.48136e-18
7.39614e-18
2.13713e-17
1.1551e-16
4.8224e-16
1.90797e-15
1.7426e-14
1.16223e-12
2.11991e-10
2.8692e-08
9.35583e-07
2.10299e-05
0.000179667
0.0007302
0.00166354
0.00236517
0.00269644
0.00276977
0.00231725
0.00254258
0.00221303
0.00251267
0.00201631
0.00237615
0.00177892
0.00217533
0.00149261
0.00193472
0.00115343
0.00162996
0.000780601
0.00126689
0.000391773
0.00085863
0.000146282
0.000420854
3.97496e-05
0.000150044
3.69349e-05
3.30175e-06
3.16642e-05
2.42197e-05
1.64171e-06
6.2882e-09
6.14968e-07
1.6277e-07
4.85548e-13
1.04092e-12
8.21344e-13
3.6962e-13
1.14108e-13
4.23591e-14
7.76329e-15
1.00835e-15
2.30904e-16
1.00489e-16
6.8018e-17
3.4488e-17
2.27124e-17
7.78449e-18
2.39058e-18
1.04444e-18
1.62053e-18
4.93029e-18
2.38052e-17
9.79365e-17
3.62299e-16
1.53141e-15
5.81874e-15
2.75908e-14
4.15252e-13
4.65194e-11
7.21092e-09
4.20375e-07
1.14895e-05
0.00014805
0.000711812
0.00165924
0.00227911
0.00275542
0.00263777
0.00299636
0.00297748
0.00275751
0.00292894
0.00269877
0.00296112
0.00255004
0.00289079
0.00236166
0.00275703
0.00211363
0.00257735
0.00178814
0.00231501
0.00139315
0.00196289
0.000937441
0.00152454
0.000442441
0.00100598
0.000148594
0.000455008
0.000140187
1.57146e-05
0.000121773
9.48617e-05
8.31727e-06
2.73948e-08
3.15504e-06
7.15755e-07
1.51132e-12
4.38249e-12
3.61622e-12
1.68441e-12
5.43846e-13
1.4647e-13
3.99076e-14
5.79011e-15
7.40146e-16
2.50273e-16
1.36424e-16
1.059e-16
4.79917e-17
2.45585e-17
9.05151e-18
2.75645e-18
5.30769e-18
2.18247e-17
7.90238e-17
2.32396e-16
1.33217e-15
4.04853e-15
1.85832e-14
8.20332e-14
4.4743e-13
1.17575e-11
1.55358e-09
1.61959e-07
5.42026e-06
9.26182e-05
0.000625944
0.00160154
0.00208077
0.00236662
0.00285923
0.00263386
0.00319965
0.0030902
0.00314174
0.00321332
0.00316762
0.00335637
0.00310485
0.00338967
0.00299568
0.0033516
0.00281351
0.00325637
0.00253155
0.0030621
0.0021433
0.00275166
0.0016475
0.00231392
0.00105725
0.00175123
0.000455102
0.00108395
0.000434149
6.45935e-05
0.000383406
0.000308959
3.65304e-05
1.13018e-07
1.37947e-05
2.95689e-06
1.34387e-11
1.39839e-11
7.07722e-12
2.39506e-12
6.19775e-13
2.23159e-13
3.05351e-14
4.28634e-15
6.92409e-16
3.33437e-16
2.20142e-16
1.39699e-16
5.67878e-17
2.34567e-17
1.09448e-17
1.88025e-17
5.76795e-17
2.77021e-16
1.05102e-15
4.00191e-15
1.73029e-14
7.45537e-14
3.02523e-13
1.13396e-12
7.38675e-12
3.43537e-10
4.06708e-08
2.22229e-06
4.75416e-05
0.000451557
0.00148201
0.00192496
0.00207711
0.00231664
0.00207941
0.00285096
0.00255656
0.00334761
0.00311833
0.00343601
0.00342916
0.00358421
0.00367053
0.0036333
0.00382782
0.00362008
0.00389741
0.00352068
0.00389184
0.00330516
0.00377509
0.00295504
0.00352471
0.00246279
0.00312837
0.00182668
0.00257615
0.00108478
0.00187042
0.00104009
0.00022299
0.000939538
0.000796904
0.000135889
3.48307e-07
5.1321e-05
8.59377e-06
4.19291e-11
2.70773e-11
1.00437e-11
2.85728e-12
8.27308e-13
1.62111e-13
2.14565e-14
2.90216e-15
7.90457e-16
4.87084e-16
3.01308e-16
1.51291e-16
6.01515e-17
2.20285e-17
5.06985e-17
2.44649e-16
9.97405e-16
3.84793e-15
1.79212e-14
8.06279e-14
3.3292e-13
1.25599e-12
4.22584e-12
1.35009e-11
1.22949e-10
8.78414e-09
6.26508e-07
1.9781e-05
0.000275456
0.00125028
0.00181563
0.00189242
0.0019517
0.0018597
0.00225658
0.00206563
0.00281697
0.00251195
0.00344531
0.0031538
0.00367234
0.00361966
0.00392101
0.00392844
0.00408636
0.00418589
0.00417144
0.00436036
0.00415112
0.00443955
0.00399959
0.00439081
0.00370695
0.00418807
0.00326121
0.00384694
0.00264607
0.00334204
0.0018765
0.00267411
0.00182752
0.000622918
0.00172061
0.00155169
0.0004133
8.77404e-07
0.000148607
1.98947e-05
8.98462e-11
4.02552e-11
1.21486e-11
5.58597e-12
9.01457e-13
1.0095e-13
1.24534e-14
2.38448e-15
9.68194e-16
6.75987e-16
2.78345e-16
1.37134e-16
5.76774e-17
1.25329e-16
5.8745e-16
3.09217e-15
1.63459e-14
8.48166e-14
4.03406e-13
1.65422e-12
5.86654e-12
1.8118e-11
4.85556e-11
1.45391e-10
2.26394e-09
1.71183e-07
6.85173e-06
0.000139169
0.000928682
0.00172563
0.00178233
0.0017845
0.00195317
0.00190285
0.0023021
0.00217423
0.00283112
0.00252862
0.00355431
0.0032664
0.00389861
0.00378668
0.00420615
0.00419152
0.00446121
0.00448347
0.00459687
0.00464663
0.00466982
0.00476247
0.00459956
0.00485561
0.00434137
0.00477418
0.00393984
0.00446138
0.00337359
0.00397917
0.00264977
0.00335965
0.00257796
0.00130089
0.00203267
0.00247468
0.00237988
0.00183118
0.00230455
0.00105605
0.000539719
2.03441e-06
0.000824789
0.000173097
0.000568269
0.000305565
0.000125089
2.04689e-05
1.51183e-10
5.19963e-11
1.48844e-11
6.14864e-12
7.03203e-13
5.27116e-14
7.97151e-15
2.4071e-15
1.13526e-15
8.2314e-16
3.24316e-16
1.88826e-16
3.73358e-16
2.10651e-15
1.26813e-14
6.90708e-14
3.87731e-13
1.94245e-12
8.36674e-12
2.96635e-11
8.69894e-11
2.11666e-10
4.39244e-10
1.53628e-09
4.49967e-08
2.99535e-06
5.78901e-05
0.000592326
0.00158265
0.00174361
0.00162152
0.0021121
0.00201413
0.00213179
0.00212893
0.0025483
0.00249999
0.0029671
0.00271087
0.00377645
0.003542
0.004127
0.00397684
0.00446481
0.00442229
0.00462617
0.00459346
0.00474819
0.00469385
0.00487659
0.00481091
0.00502372
0.00499126
0.00491745
0.00519029
0.00453898
0.00477779
0.005033
0.00367016
0.00398416
0.00457281
0.00425799
0.0029503
0.003306
0.00395728
0.00360646
0.00394486
0.00324911
0.00320603
0.00282812
0.00152492
0.0020445
0.00217177
0.00277311
0.00269117
0.00258895
0.00135372
8.23391e-06
4.09323e-05
0.00109938
0.000788157
0.000467092
0.000211342
2.17166e-10
5.91752e-11
2.82871e-11
5.02636e-12
3.28518e-13
2.8604e-14
6.45938e-15
2.84363e-15
1.84333e-15
8.09136e-16
4.34941e-16
9.87662e-16
6.6143e-15
4.6534e-14
2.71691e-13
1.66944e-12
8.97364e-12
4.04713e-11
1.48777e-10
4.32764e-10
1.00763e-09
1.8568e-09
3.01224e-09
1.71366e-08
9.313e-07
2.01656e-05
0.000319546
0.00132686
0.00171702
0.0015222
0.0018213
0.001596
0.00255276
0.00241842
0.00251762
0.00256185
0.00301949
0.00301483
0.00330636
0.00311722
0.00413709
0.00399905
0.00434856
0.00425209
0.00453228
0.00446372
0.00457935
0.00442177
0.00463188
0.00431113
0.00481084
0.00438266
0.00510848
0.00471766
0.0052079
0.00533234
0.00530541
0.00519106
0.00483979
0.0051352
0.00506921
0.00528137
0.00426176
0.00486814
0.00456467
0.00357644
0.00424718
0.00389166
0.00421443
0.00352642
0.00346065
0.00312532
0.00185731
0.00231791
0.00246658
0.00304926
0.00295755
0.002849
0.0016403
5.13281e-06
2.98006e-05
0.000124932
7.47695e-05
0.00136296
0.00103169
0.000667975
0.000337776
2.65816e-10
7.47101e-11
2.49887e-11
2.103e-12
1.54249e-13
2.21139e-14
7.05858e-15
4.43406e-15
3.6846e-15
1.08175e-15
2.61059e-15
1.97188e-14
1.56456e-13
1.00735e-12
6.72147e-12
3.93347e-11
1.89675e-10
7.25069e-10
2.15184e-09
4.86051e-09
8.32797e-09
1.11388e-08
1.8574e-08
2.63822e-07
6.89164e-06
0.0001467
0.000971977
0.00166725
0.00153182
0.00133674
0.00205476
0.00165763
0.00312467
0.00291344
0.00307578
0.00314286
0.00366016
0.00366397
0.00385007
0.00372303
0.00433103
0.00431065
0.00440264
0.00436085
0.00427215
0.00416019
0.00394961
0.00364467
0.00381053
0.00317915
0.00398096
0.00316024
0.00495082
0.00453648
0.00410194
0.00355876
0.00538513
0.00536759
0.00522009
0.00491304
0.00515115
0.0053897
0.00534277
0.00544614
0.00455961
0.00517656
0.00487468
0.00384488
0.00454017
0.00416799
0.004504
0.00378419
0.00370973
0.00338367
0.00213172
0.00271968
0.00256383
0.00329682
0.00319675
0.00308
0.00189985
6.71126e-06
3.90859e-05
0.000179902
0.000481131
0.00161133
0.00126679
0.000875236
2.92323e-10
6.91614e-11
1.05141e-11
8.66328e-13
9.6047e-14
2.28926e-14
9.98303e-15
7.61564e-15
3.05052e-15
6.65292e-15
5.37551e-14
4.64746e-13
3.56175e-12
2.52233e-11
1.60277e-10
8.46751e-10
3.41171e-09
1.05114e-08
2.35314e-08
3.79019e-08
4.5132e-08
4.69608e-08
1.43511e-07
3.4778e-06
5.94153e-05
0.000607834
0.00154559
0.0016002
0.00129667
0.0013241
0.00110533
0.00234276
0.00173895
0.00373033
0.00342301
0.00372526
0.00377426
0.00429472
0.00431462
0.00430011
0.00429339
0.00418593
0.00426887
0.00411884
0.0041367
0.00340041
0.0032939
0.00272388
0.00244482
0.00251796
0.00219813
0.00315999
0.00272011
0.00248776
0.00221839
0.00447854
0.00397678
0.00347221
0.00302117
0.00542072
0.00525305
0.0049143
0.00445344
0.00543151
0.00550371
0.0055591
0.00547793
0.00486925
0.00546591
0.00518894
0.00411224
0.00484864
0.00445329
0.00480927
0.00404185
0.00395728
0.00362446
0.00237145
0.0029433
0.00278081
0.00352741
0.00341707
0.00329013
0.00213259
7.50241e-06
0.000238586
4.937e-05
0.000620455
0.0010681
0.00183829
0.00148272
2.81274e-10
4.64775e-11
4.5917e-12
4.57034e-13
8.53324e-14
2.84674e-14
1.94182e-14
9.20453e-15
1.39855e-14
1.31634e-13
1.27386e-12
1.16107e-11
8.59716e-11
6.0544e-10
3.42944e-09
1.56038e-08
4.93765e-08
1.12616e-07
1.70769e-07
1.82773e-07
1.67543e-07
1.83364e-07
1.51484e-06
2.19028e-05
0.000329825
0.00128066
0.00162096
0.00138829
0.000986705
0.00119814
0.000918571
0.00262713
0.00177953
0.00426768
0.00384826
0.00435176
0.004356
0.00459116
0.00469978
0.00436564
0.00447377
0.00356147
0.00380173
0.00331578
0.00339681
0.00231988
0.00233841
0.0020634
0.00198924
0.00214159
0.00204799
0.00201018
0.0026471
0.00236999
0.00219086
0.00209105
0.00393735
0.00342877
0.00297569
0.00260706
0.00529824
0.00494076
0.00446667
0.0039464
0.00561213
0.00553931
0.00560417
0.00535663
0.0051869
0.00566009
0.00548683
0.00438953
0.00516768
0.00475373
0.00512715
0.00430857
0.00421251
0.00386076
0.0025832
0.00314512
0.0029749
0.00375154
0.00362779
0.00348864
0.00233992
7.78838e-06
0.000741431
0.000290723
5.69521e-05
0.00123682
0.00167465
0.00204061
2.40137e-10
2.48931e-11
2.31493e-12
3.45387e-13
9.5057e-14
5.50382e-14
2.86229e-14
2.69171e-14
3.0804e-13
3.12393e-12
3.19033e-11
2.62109e-10
2.05519e-09
1.32084e-08
6.27965e-08
2.38015e-07
5.5147e-07
7.62039e-07
7.82237e-07
6.24909e-07
4.65139e-07
1.10158e-06
9.41876e-06
0.000156542
0.000922544
0.00159076
0.0015496
0.00115743
0.000698845
0.00078292
0.00102659
0.000734297
0.00278188
0.001733
0.00461905
0.00404077
0.00476431
0.00475871
0.00459531
0.00482601
0.00407247
0.00434378
0.00302988
0.00338884
0.0024567
0.00270311
0.00195526
0.00198558
0.00198495
0.00194336
0.00204916
0.00202407
0.00219745
0.00216414
0.00234412
0.00219304
0.00211961
0.00208424
0.00343902
0.00299004
0.00262751
0.00238072
0.00499433
0.00451819
0.00400329
0.00350492
0.00566886
0.00542927
0.00551468
0.00507295
0.00549378
0.00573527
0.00570081
0.00468197
0.00548236
0.005069
0.0054472
0.00458998
0.00448192
0.00410276
0.0027714
0.00333217
0.00315234
0.00397848
0.00383826
0.00368346
0.00252396
5.60096e-06
0.00137735
0.000837196
0.000328439
5.7595e-05
0.00184014
0.00221852
1.63074e-10
1.33312e-11
1.53993e-12
3.42164e-13
1.35253e-13
7.79648e-14
5.16977e-14
5.18294e-13
7.50644e-12
7.76675e-11
7.20658e-10
6.18601e-09
4.3931e-08
2.53679e-07
9.47598e-07
1.94084e-06
2.44479e-06
2.52846e-06
2.12924e-06
1.50229e-06
1.38633e-06
6.25475e-06
6.83889e-05
0.000571594
0.00147823
0.00163155
0.00139678
0.000919226
0.00051594
0.000602793
0.000809829
0.000527579
0.00280574
0.00158831
0.00476836
0.00404523
0.00495912
0.00495617
0.00450872
0.00484331
0.00375258
0.00412484
0.00294084
0.0033564
0.0021667
0.00252177
0.00190031
0.00188952
0.00220866
0.00220186
0.0020815
0.00216131
0.00208808
0.00212575
0.00247282
0.00242461
0.00224124
0.00217155
0.00216515
0.00220392
0.00306076
0.00270668
0.00246868
0.00232505
0.0046082
0.004107
0.00362258
0.00319052
0.00561642
0.00517558
0.00529739
0.00473047
0.00573125
0.00571282
0.00579812
0.00498962
0.00574545
0.00538975
0.0057394
0.00488788
0.00476706
0.00435719
0.00294103
0.00351174
0.00331866
0.00421561
0.00405595
0.00388121
0.00268698
3.64658e-06
0.00198015
0.00148842
0.000904539
0.000341605
4.95672e-05
0.0023735
9.68494e-11
8.42185e-12
1.36417e-12
3.85916e-13
1.88924e-13
1.12574e-13
7.47892e-13
1.253e-11
1.88097e-10
1.76661e-09
1.69628e-08
1.28824e-07
8.11788e-07
3.09336e-06
6.05563e-06
8.28049e-06
8.54613e-06
6.95867e-06
4.88441e-06
3.26864e-06
5.83594e-06
3.26732e-05
0.000325725
0.00122442
0.00163479
0.00156772
0.00119908
0.000614214
0.000778818
0.000344598
0.000467386
0.000566648
0.000329116
0.00264797
0.00134245
0.0047413
0.0038158
0.00502906
0.00501478
0.00455449
0.00490337
0.0037513
0.00414079
0.00306485
0.00356076
0.00207776
0.00252541
0.00199356
0.0018677
0.00248646
0.00247499
0.00227443
0.00240597
0.002277
0.00235439
0.00280017
0.00274966
0.00226801
0.00228218
0.00235383
0.00245551
0.00284669
0.00260477
0.00245361
0.00240958
0.00425406
0.00379014
0.00337889
0.00304321
0.00543778
0.00488007
0.00504994
0.00443379
0.00584862
0.00558042
0.00581177
0.00530822
0.00589017
0.00570186
0.00591759
0.00520021
0.00506726
0.00462663
0.00309649
0.00368989
0.00347901
0.00446565
0.00428501
0.00408699
0.00283268
1.55948e-06
0.00250758
0.0020955
0.00156992
0.000939532
0.000325111
3.28625e-05
6.22606e-11
6.8882e-12
1.42163e-12
5.64135e-13
3.4066e-13
9.22719e-13
1.84647e-11
3.0798e-10
4.3234e-09
4.10712e-08
3.56446e-07
2.3235e-06
9.09876e-06
2.08721e-05
3.03051e-05
3.12161e-05
2.48321e-05
1.7003e-05
1.03308e-05
8.12459e-06
2.36717e-05
0.000191741
0.000924001
0.00159412
0.00166391
0.00141709
0.000900277
0.000443811
0.000577587
0.000191473
0.000308989
0.000342593
0.000159564
0.00232517
0.00103635
0.00454743
0.00337412
0.00504884
0.00497824
0.0047147
0.00497629
0.00398542
0.00436215
0.00317934
0.0037367
0.00201878
0.00255619
0.00233447
0.0020608
0.00187556
0.00181372
0.00281199
0.00279402
0.00255516
0.00270928
0.00256385
0.00266458
0.00320351
0.00314763
0.00243206
0.00252244
0.00264796
0.00278357
0.0027878
0.0026254
0.00258405
0.00261075
0.00400466
0.00361964
0.00328991
0.00302561
0.00523391
0.00464165
0.00486368
0.00425438
0.00589544
0.00541978
0.00572602
0.00563051
0.0059647
0.00592576
0.00601458
0.0055225
0.00538072
0.00491045
0.00324202
0.00387205
0.00363896
0.00472876
0.00452558
0.00430234
0.00296455
4.20944e-07
0.0026236
0.00218706
0.00162458
0.000935978
0.000274686
1.54826e-05
4.95078e-11
6.77338e-12
1.75846e-12
1.37778e-12
1.10679e-12
2.19859e-11
4.68566e-10
7.11424e-09
9.73686e-08
8.49518e-07
5.99865e-06
2.64512e-05
6.81607e-05
0.000103166
0.000111595
8.98822e-05
5.81338e-05
3.23675e-05
1.68491e-05
2.41916e-05
0.000137117
0.000674821
0.00146509
0.00169707
0.00156604
0.00112
0.000438105
0.000244774
0.000375011
7.37397e-05
0.000140472
0.00018574
6.33723e-05
0.00188638
0.000724797
0.00408804
0.0027785
0.00501174
0.00480295
0.00481106
0.00491868
0.00419163
0.00456006
0.00315317
0.00375486
0.0018538
0.00243148
0.00256353
0.00222497
0.00190579
0.00178151
0.00321458