/*--------------------------------*- C++ -*----------------------------------*\
  =========                 |
  \\      /  F ield         | OpenFOAM: The Open Source CFD Toolbox
   \\    /   O peration     | Website:  https://openfoam.org
    \\  /    A nd           | Version:  dev
     \\/     M anipulation  |
\*---------------------------------------------------------------------------*/
FoamFile
{
    version     2.0;
    format      ascii;
    class       volScalarField;
    location    "2500";
    object      k;
}
// * * * * * * * * * * * * * * * * * * * * * * * * * * * * * * * * * * * * * //

dimensions      [0 2 -2 0 0 0 0];

internalField   nonuniform List<scalar> 
9967
(
0.000159508
0.000167028
0.000151972
0.000142714
0.000218509
0.000123102
0.000121063
0.000233337
0.000197834
0.000109704
0.000111243
0.000218576
0.000242371
0.000151859
0.000105614
0.000105694
0.000181123
0.000265947
0.000213983
0.000126222
0.000103847
0.000102916
0.00014707
0.000261875
0.000257197
0.000163594
0.000116272
0.000102592
0.000101504
0.000127347
0.000239878
0.000281888
0.000217904
0.000135007
0.000111164
0.000101796
0.000100805
0.000115267
0.000196042
0.000290182
0.00026399
0.000167352
0.000122812
0.000107667
0.000101218
0.000100383
0.000108614
0.00015771
0.000279739
0.000289025
0.000214728
0.000139372
0.000116122
0.0001052
0.00010077
0.000100114
0.00010488
0.000134428
0.000249913
0.000306989
0.000263104
0.000167324
0.000126459
0.000111275
0.000103447
0.000100419
9.99243e-05
0.000102786
0.00011991
0.000202024
0.000306441
0.000296419
0.000207488
0.000141033
0.000118873
0.000107826
0.000102106
0.000100188
9.96993e-05
0.000101645
0.00011163
0.000162335
0.000292
0.00031446
0.00025716
0.000164081
0.000127844
0.000113545
0.000105252
0.000101061
0.000100014
9.94738e-05
0.000100965
0.000107055
0.000137997
0.000256123
0.000327065
0.000295508
0.000199707
0.000140254
0.000120074
0.000109501
0.000103171
0.000100343
9.9777e-05
9.92431e-05
0.000100369
0.00010458
0.000122932
0.000205558
0.000323239
0.000321173
0.000244463
0.000159664
0.000127944
0.000114496
0.000106378
0.000101496
9.98151e-05
9.95315e-05
9.90544e-05
9.98003e-05
0.000102972
0.000114293
0.000166006
0.000304802
0.000337404
0.000290867
0.0001901
0.000138061
0.000120194
0.000110197
0.000103951
0.000100318
9.92867e-05
9.9371e-05
9.89747e-05
9.93181e-05
0.000101682
0.000109241
0.000141601
0.000264252
0.000347359
0.000322478
0.000229905
0.000154635
0.000126516
0.000114458
0.00010687
0.000101936
9.94666e-05
9.87197e-05
9.92757e-05
9.90355e-05
9.88454e-05
0.000100617
0.000106007
0.000126242
0.00021274
0.000341802
0.000343997
0.000275513
0.000179879
0.000135558
0.00011906
0.000110078
0.000104299
0.000100306
9.87255e-05
9.82241e-05
9.92177e-05
9.91023e-05
9.82488e-05
9.96353e-05
0.000103733
0.000116961
0.000172619
0.000321762
0.000359598
0.000316949
0.000214645
0.000148819
0.000124737
0.000113628
0.000106765
0.000102169
9.91005e-05
9.80183e-05
9.7845e-05
9.91756e-05
9.91092e-05
9.77585e-05
9.87088e-05
0.000101936
0.000111082
0.000147871
0.000279666
0.00036869
0.00034586
0.000256623
0.000169905
0.000131976
0.000117644
0.0001095
0.000104112
0.000100296
9.81709e-05
9.73352e-05
9.75809e-05
9.91342e-05
9.90407e-05
9.74638e-05
9.79413e-05
0.000100424
0.000107195
0.000131423
0.000229058
0.000362858
0.000366078
0.000300231
0.000199368
0.000143397
0.000122263
0.000112512
0.000106195
0.000101894
9.88084e-05
9.73678e-05
9.67256e-05
9.74176e-05
9.90966e-05
9.89498e-05
9.73674e-05
9.72281e-05
9.91279e-05
0.000104458
0.000121078
0.000185498
0.000343655
0.000381062
0.000339183
0.000235405
0.000160171
0.000128656
0.000115827
0.000108496
0.00010351
0.000100064
9.76773e-05
9.66262e-05
9.62575e-05
9.73066e-05
9.90748e-05
9.8858e-05
9.72979e-05
9.64675e-05
9.79674e-05
0.00010231
0.000114456
0.000159144
0.000304741
0.00039086
0.000366535
0.000276883
0.000184232
0.000137684
0.000119862
0.000111014
0.000105258
0.000101357
9.85256e-05
9.67603e-05
9.59352e-05
9.59339e-05
9.72268e-05
9.90636e-05
9.87774e-05
9.72146e-05
9.5759e-05
9.68949e-05
0.000100494
0.000109921
0.000141554
0.000256428
0.000386914
0.00038702
0.000318154
0.000214727
0.000151421
0.000125049
0.00011389
0.000107207
0.000102727
9.95875e-05
9.72559e-05
9.59802e-05
9.5358e-05
9.57263e-05
9.71902e-05
9.90607e-05
9.87094e-05
9.70967e-05
9.5123e-05
9.59292e-05
9.88889e-05
0.000106634
0.000129686
0.000211045
0.000371943
0.000400942
0.000356703
0.00025041
0.000170106
0.000132684
0.00011722
0.000109414
0.000104236
0.000100738
9.81073e-05
9.62452e-05
9.53267e-05
9.49243e-05
9.55931e-05
9.7197e-05
9.9069e-05
9.86551e-05
9.69545e-05
9.46416e-05
9.50674e-05
9.74559e-05
0.000104106
0.000121775
0.000179955
0.000341486
0.0004126
0.000383362
0.000288917
0.000195107
0.000143231
0.000121726
0.000111852
0.000105956
0.000101963
9.90663e-05
9.68913e-05
9.54656e-05
9.47649e-05
9.4667e-05
9.55568e-05
9.7238e-05
9.90896e-05
9.86189e-05
9.68066e-05
9.4248e-05
9.4197e-05
9.62043e-05
0.000102012
0.000116393
0.000159898
0.000298806
0.000412115
0.000404788
0.000328513
0.000224122
0.00015802
0.000127816
0.00011475
0.000107914
0.000103284
0.000100115
9.76598e-05
9.5913e-05
9.48365e-05
9.42959e-05
9.45331e-05
9.56023e-05
9.73117e-05
9.91217e-05
9.86026e-05
9.66542e-05
9.38989e-05
9.34047e-05
9.51158e-05
0.000100232
0.00011258
0.000146242
0.00025528
0.000403614
0.000417219
0.000366224
0.000257827
0.000176787
0.000136178
0.000118538
0.000109992
0.000104871
0.000101219
9.85607e-05
9.65259e-05
9.51101e-05
9.43082e-05
9.3964e-05
9.45116e-05
9.57214e-05
9.74217e-05
9.91665e-05
9.86022e-05
9.65102e-05
9.35685e-05
9.27042e-05
9.41741e-05
9.87694e-05
0.00010987
0.000136898
0.000218157
0.00038281
0.000429127
0.000393983
0.000291907
0.000200183
0.00014724
0.000123537
0.000112564
0.000106567
0.000102512
9.95744e-05
9.72822e-05
9.56054e-05
9.44741e-05
9.38933e-05
9.38057e-05
9.46061e-05
9.59187e-05
9.75701e-05
9.92327e-05
9.86143e-05
9.63871e-05
9.32395e-05
9.21186e-05
9.33731e-05
9.75992e-05
0.000107987
0.000130737
0.000191859
0.00035082
0.000433939
0.000415237
0.000329599
0.000226914
0.0001613
0.000130161
0.00011575
0.00010856
0.000103913
0.000100718
9.82354e-05
9.62523e-05
9.48966e-05
9.39985e-05
9.3583e-05
9.38052e-05
9.48221e-05
9.61888e-05
9.77615e-05
9.93264e-05
9.86421e-05
9.62697e-05
9.2921e-05
9.16431e-05
9.27244e-05
9.66951e-05
0.000106694
0.000128074
0.00017528
0.000313905
0.000430524
0.000429905
0.000364248
0.000256595
0.000178912
0.000138335
0.00011995
0.000110719
0.000105594
0.000101962
9.93654e-05
9.71847e-05
9.54877e-05
9.43308e-05
9.36543e-05
9.34543e-05
9.3928e-05
9.52044e-05
9.65959e-05
9.80396e-05
9.94515e-05
9.86854e-05
9.61451e-05
9.26181e-05
9.12667e-05
9.22459e-05
9.60563e-05
0.000105857
0.000127675
0.000165238
0.000278145
0.000419485
0.000438751
0.000395481
0.000287906
0.000199569
0.000148633
0.000125086
0.000113414
0.000107358
0.000103408
0.000100624
9.8395e-05
9.63994e-05
9.4935e-05
9.39464e-05
9.34966e-05
9.35018e-05
9.41653e-05
9.56439e-05
9.71492e-05
9.85347e-05
9.97486e-05
9.8741e-05
9.60051e-05
9.23327e-05
9.09875e-05
9.19118e-05
9.57153e-05
0.000105482
0.000127706
0.000159143
0.000247537
0.000397177
0.000444362
0.000416677
0.00031875
0.000222958
0.000161314
0.0001311
0.000116829
0.000109331
0.000105015
0.00010199
9.97707e-05
9.76988e-05
9.58632e-05
9.46136e-05
9.37769e-05
9.35282e-05
9.37179e-05
9.4578e-05
9.60825e-05
9.75814e-05
9.90049e-05
0.000100227
9.87999e-05
9.58335e-05
9.20713e-05
9.08126e-05
9.17266e-05
9.56665e-05
0.000105636
0.000128058
0.000156649
0.000224212
0.000368789
0.000443471
0.000430832
0.000351245
0.000247534
0.000176315
0.000138475
0.000120701
0.000111673
0.000106748
0.000103462
0.000101238
9.92805e-05
9.7299e-05
9.56753e-05
9.45022e-05
9.38197e-05
9.37475e-05
9.42036e-05
9.52395e-05
9.66519e-05
9.81387e-05
9.9695e-05
0.00010089
9.88492e-05
9.56196e-05
9.18308e-05
9.07515e-05
9.17178e-05
9.59312e-05
0.00010652
0.000129202
0.000156315
0.000206065
0.000337903
0.000438213
0.000438613
0.000378997
0.000274025
0.000193377
0.000147142
0.000125292
0.000114294
0.000108536
0.000105082
0.000102738
0.000101021
9.91738e-05
9.73487e-05
9.5818e-05
9.4637e-05
9.41025e-05
9.4263e-05
9.50637e-05
9.62931e-05
9.77784e-05
9.91639e-05
0.000100596
0.000100322
0.000100956
0.000100899
0.000101469
9.88841e-05
9.53535e-05
9.16291e-05
9.07962e-05
9.19028e-05
9.66012e-05
0.000108393
0.00013089
0.000156193
0.000195108
0.000307305
0.000425238
0.00044074
0.000402405
0.000300034
0.000212575
0.000157399
0.000130345
0.00011735
0.00011043
0.000106792
0.000104349
0.000102802
0.00010138
9.9625e-05
9.78686e-05
9.63627e-05
9.5163e-05
9.47586e-05
9.52427e-05
9.63272e-05
9.76946e-05
9.88852e-05
9.89669e-05
0.000100111
9.92719e-05
0.000100118
0.000100754
0.000101126
0.000101539
0.000101732
9.88918e-05
9.50563e-05
9.15077e-05
9.09393e-05
9.2321e-05
9.77145e-05
0.000111258
0.000133114
0.000156024
0.000187586
0.000277382
0.000403965
0.000440729
0.000416237
0.000324146
0.000232675
0.000169457
0.000136057
0.000120615
0.00011256
0.000108429
0.000106066
0.000104695
0.000103744
0.000102483
0.000100743
9.90777e-05
9.7541e-05
9.6276e-05
9.61078e-05
9.68074e-05
9.79e-05
9.89756e-05
9.89922e-05
9.94236e-05
0.00010074
0.000100195
0.000100825
0.000101447
0.00010123
0.000101786
0.000102038
9.88566e-05
9.4734e-05
9.14875e-05
9.11984e-05
9.29852e-05
9.94153e-05
0.000114731
0.000135434
0.000155721
0.000181836
0.000252087
0.000377777
0.000437546
0.000424691
0.000347446
0.000252812
0.000182806
0.000142804
0.000123935
0.000114827
0.000109981
0.000107744
0.000106634
0.00010623
0.000105705
0.000104562
0.000102817
0.000101362
9.973e-05
9.86916e-05
9.84784e-05
9.89254e-05
9.90931e-05
9.94879e-05
9.95557e-05
9.96655e-05
0.000100217
0.000101464
0.000100938
0.000101622
0.000101787
0.000101366
0.000102156
0.000102367
9.87647e-05
9.43938e-05
9.15309e-05
9.15384e-05
9.3962e-05
0.000101883
0.000118672
0.000137515
0.000155059
0.000177058
0.000230644
0.000348928
0.000428202
0.000427677
0.00036877
0.000272247
0.000197346
0.000150347
0.000127584
0.000116971
0.000111511
0.000109269
0.000108472
0.000108695
0.000109135
0.000108991
0.000108015
0.00010639
0.000105289
0.00010338
0.000102633
0.000102238
0.000100269
0.000102054
9.99352e-05
0.000100524
0.000100252
0.00010037
0.000100976
0.000101907
0.00010172
0.000102129
0.000102241
0.00010153
0.000102578
0.000102701
9.86203e-05
9.40448e-05
9.16436e-05
9.19661e-05
9.53161e-05
0.000105364
0.000122608
0.000139067
0.000153808
0.000172181
0.000214121
0.000320192
0.000412633
0.000425748
0.000384522
0.000291195
0.000212201
0.000159085
0.000131406
0.000118961
0.000112911
0.000110383
0.000110094
0.000110964
0.000112539
0.000113785
0.00011417
0.00011364
0.000111164
0.000109669
0.000108356
0.000107257
0.000104055
0.000107218
0.000101892
0.000103819
0.000100712
0.000101571
0.000101024
0.000101157
0.000101742
0.000102511
0.000102206
0.000102718
0.000102823
0.000101716
0.000103045
0.000103029
9.84487e-05
9.37239e-05
9.18569e-05
9.25601e-05
9.70777e-05
0.000109296
0.000125758
0.000139919
0.000151849
0.000167138
0.000201543
0.000291954
0.000393471
0.000420009
0.000395926
0.000308344
0.000226945
0.00016866
0.000135662
0.000120757
0.000114092
0.000111239
0.000111257
0.000112901
0.000115687
0.000118674
0.000120795
0.000121459
0.000123491
0.000123867
0.000124459
0.000121136
0.000110571
0.000117665
0.000106478
0.000109952
0.00010337
0.000105603
0.000101552
0.000102645
0.000101782
0.000101926
0.00010222
0.000103246
0.000102758
0.000103443
0.00010358
0.000101908
0.000103651
0.00010341
9.82317e-05
9.34577e-05
9.2126e-05
9.33635e-05
9.92182e-05
0.000113264
0.000128078
0.000139975
0.000149342
0.000161953
0.000190723
0.0002656
0.000371566
0.000411256
0.000399654
0.000324633
0.00024157
0.000178737
0.000140617
0.000122395
0.000114812
0.000111723
0.000111907
0.000114229
0.000118287
0.00012336
0.000127765
0.000132372
0.000143003
0.000168624
0.000198852
0.000209534
0.000134444
0.000186185
0.000117531
0.000137731
0.000109117
0.00011718
0.000104508
0.000107953
0.000102391
0.000103615
0.000102271
0.000102482
0.000102762
0.000104123
0.000103472
0.000104357
0.000104514
0.000102108
0.000104412
0.000103881
9.799e-05
9.32651e-05
9.2455e-05
9.43288e-05
0.000101763
0.000116864
0.000129558
0.000139185
0.000146452
0.000156765
0.000180808
0.000242547
0.000348216
0.00040117
0.000398435
0.000339415
0.000255364
0.000189556
0.000146076
0.000124281
0.00011514
0.000111798
0.000112084
0.000114788
0.000120045
0.000127003
0.000133845
0.000149706
0.000188281
0.000289631
0.000502741
0.000738814
0.000344685
0.000833085
0.000200792
0.00040845
0.00014055
0.00021666
0.000116415
0.000142702
0.000106652
0.00011524
0.000103214
0.000105605
0.000102856
0.000103304
0.00010355
0.000105188
0.000104487
0.00010551
0.000105549
0.000102339
0.000105208
0.000104328
9.77764e-05
9.31423e-05
9.28468e-05
9.53933e-05
0.00010469
0.000119576
0.00013024
0.000137538
0.000143218
0.000151684
0.00017167
0.000221595
0.000324456
0.000389825
0.000394813
0.000350874
0.000268466
0.000200327
0.000152595
0.000126371
0.000115291
0.000111651
0.000111936
0.000114803
0.000120805
0.000129153
0.000138421
0.000166921
0.000286912
0.000598701
0.00121641
0.00233977
0.00183892
0.00342078
0.00100475
0.00233945
0.000473723
0.00119165
0.000231717
0.000531988
0.000144248
0.0002457
0.000113865
0.000145022
0.0001052
0.000113046
0.000103865
0.000105392
0.000104792
0.000106358
0.000105942
0.000106981
0.000106661
0.000102625
0.000106171
0.000104832
9.76258e-05
9.30497e-05
9.31953e-05
9.65773e-05
0.000107444
0.000121343
0.000130239
0.000135423
0.000139782
0.000146747
0.000163303
0.000205095
0.0003019
0.000377349
0.0003886
0.000359425
0.000280597
0.000211349
0.000159722
0.000129121
0.000115445
0.000111064
0.000111219
0.000114363
0.000120785
0.00013009
0.000141063
0.000177366
0.000379244
0.00112926
0.0027009
0.00464122
0.00460394
0.00599288
0.0038783
0.00516923
0.00271214
0.00419152
0.00136775
0.00299057
0.000583925
0.00151264
0.000258403
0.00063026
0.000145761
0.000269838
0.000112789
0.000146655
0.000106133
0.000113028
0.000107246
0.00010764
0.000108393
0.000109199
0.00010792
0.000102905
0.000107429
0.000105835
9.75735e-05
9.29105e-05
9.35327e-05
9.78732e-05
0.000109861
0.000122641
0.000129633
0.000133144
0.000136375
0.000142026
0.000155783
0.000191437
0.000279134
0.000364037
0.000382379
0.000363853
0.000291492
0.000221873
0.000167728
0.000132728
0.000115775
0.000109999
0.000109913
0.000113098
0.000119962
0.000130168
0.000141897
0.00017975
0.000419159
0.00152829
0.00421219
0.0063251
0.00644119
0.00708781
0.00608085
0.00661403
0.00536517
0.00615342
0.00444714
0.00553845
0.0031952
0.004646
0.00163222
0.00334666
0.00067212
0.0017326
0.000279845
0.000708763
0.00014703
0.00028728
0.000113654
0.000146666
0.000114365
0.000109571
0.000114691
0.000114492
0.000109263
0.000103192
0.000108647
0.000106621
9.7728e-05
9.26406e-05
9.38099e-05
9.92346e-05
0.000111925
0.000123381
0.000128634
0.0001309
0.000133167
0.000137645
0.000149137
0.000179901
0.000257938
0.000349899
0.000377249
0.000365135
0.000302221
0.000232145
0.00017639
0.000137345
0.000116544
0.000108956
0.000108289
0.000111391
0.000117909
0.000129558
0.000141544
0.000177541
0.000419853
0.00165087
0.0050989
0.00704219
0.00712684
0.00691686
0.00705122
0.00658132
0.00677715
0.00624225
0.00659354
0.00570266
0.00636722
0.00480414
0.00585567
0.00347081
0.00493913
0.00181706
0.00357505
0.000738542
0.00188435
0.000288587
0.000757045
0.00014549
0.000284378
0.000143255
0.000113523
0.00013933
0.000133707
0.000112042
0.000103529
0.000109803
0.000106626
9.84691e-05
9.22956e-05
9.38169e-05
0.000100522
0.00011317
0.000123461
0.000127439
0.000128845
0.000130224
0.000133781
0.000143433
0.000170285
0.000239326
0.000335567
0.000372796
0.000365258
0.000312667
0.000242053
0.000185358
0.00014314
0.000118261
0.000108316
0.000106442
0.000109371
0.000115663
0.00012728
0.000140096
0.000169629
0.000390878
0.00162762
0.00532867
0.0074388
0.00716391
0.00669252
0.00674673
0.00680578
0.00673549
0.00671011
0.00668034
0.00669794
0.00677067
0.00651472
0.00685193
0.00601206
0.00670672
0.00506463
0.00618003
0.00366608
0.00518282
0.00193595
0.00374798
0.000754786
0.00195839
0.000274381
0.000732047
0.000259961
0.00012644
0.000238635
0.000209668
0.000119347
0.000103622
0.000112628
0.000107396
0.000101284
9.2514e-05
9.34262e-05
0.000101004
0.000113081
0.000122775
0.00012606
0.000126979
0.00012758
0.000130542
0.000138778
0.000162487
0.000223707
0.000321491
0.000368929
0.00036516
0.000322253
0.000251637
0.000194696
0.000149989
0.000121244
0.000108209
0.000104675
0.000107201
0.000113028
0.000123612
0.000138083
0.000160553
0.000313884
0.00146571
0.00523016
0.00773663
0.00734573
0.00683205
0.00700826
0.00659547
0.00670856
0.00660669
0.00657105
0.00672704
0.00662151
0.00693757
0.00690639
0.00709251
0.00725863
0.00695377
0.00746235
0.00637336
0.00728604
0.00530866
0.00661671
0.0038258
0.00545812
0.00192565
0.00386285
0.000693563
0.00185179
0.000644239
0.00017727
0.000568743
0.000466017
0.000147473
0.000103706
0.000124048
0.000110644
0.000125064
9.54893e-05
9.30814e-05
0.000100099
0.000111265
0.000120843
0.000124437
0.000125127
0.000125222
0.000127807
0.000135074
0.000156328
0.000211041
0.000308353
0.000366358
0.000365492
0.000330547
0.000261531
0.000203928
0.000158066
0.00012559
0.000108581
0.000103301
0.000105024
0.000110232
0.000120471
0.000135904
0.000153222
0.000243621
0.00109103
0.00482348
0.00799438
0.00771505
0.00726651
0.0068904
0.00712719
0.00671048
0.00693675
0.00656871
0.0065878
0.00681393
0.00677168
0.00728462
0.007263
0.00776454
0.00793098
0.00797865
0.00850975
0.00772726
0.00871078
0.00693703
0.00834939
0.00564412
0.00734609
0.00384819
0.00579664
0.00175718
0.00381277
0.00163528
0.000356877
0.00143787
0.00117065
0.000255039
0.000103972
0.000167582
0.000120818
0.000104898
9.50339e-05
9.78209e-05
0.000107512
0.000117092
0.000122098
0.000123267
0.000123249
0.000125536
0.000132171
0.000151525
0.000200941
0.000296701
0.000364079
0.000366628
0.000338985
0.000271744
0.000213238
0.000167053
0.000131506
0.000110268
0.000102688
0.000103236
0.000107823
0.000117829
0.00013265
0.000148134
0.000198495
0.000721405
0.00390213
0.00811002
0.00832556
0.00771898
0.00738625
0.00749888
0.00714861
0.00729465
0.0070966
0.00728654
0.00679414
0.00691163
0.00725063
0.00726667
0.00801571
0.0080482
0.00886263
0.00906168
0.00948118
0.0100579
0.00961672
0.0107335
0.00910372
0.0107979
0.00788656
0.00998663
0.00595478
0.00835461
0.00373586
0.0061238
0.00354443
0.000884433
0.00320027
0.00272019
0.000597673
0.000104808
0.000308853
0.000142069
0.000107975
9.85958e-05
0.00010401
0.000112333
0.000118641
0.000121098
0.000121675
0.00012373
0.00012998
0.000147881
0.000193049
0.000286457
0.000361923
0.000370224
0.000346626
0.000281425
0.000223389
0.000176477
0.000139315
0.000114382
0.000102875
0.000102391
0.000106103
0.000114838
0.000128804
0.000144768
0.000174974
0.000447803
0.00273252
0.00794928
0.00892493
0.00846277
0.00760597
0.00791374
0.00722547
0.0070608
0.00737594
0.00735648
0.00753733
0.00758379
0.00732596
0.00742409
0.0080422
0.00802124
0.00913642
0.00910763
0.0103311
0.010377
0.0113454
0.0114954
0.0119494
0.0123153
0.0119582
0.0128709
0.0110071
0.013037
0.00887407
0.0117827
0.00619763
0.00934259
0.00613767
0.0021759
0.00588503
0.00536911
0.00150907
0.000106142
0.000646102
0.000184772
0.000112436
0.000104765
0.000109472
0.000115219
0.000118229
0.000120165
0.000122399
0.000128437
0.000145299
0.000187177
0.000277345
0.000359607
0.000375998
0.000354527
0.000293642
0.000232982
0.000186673
0.000148601
0.00012044
0.000104532
0.000102461
0.000105119
0.000112458
0.000126138
0.000142236
0.000164083
0.000288891
0.00166052
0.00713765
0.00913299
0.00952902
0.00821022
0.00700563
0.00696549
0.00703738
0.00677238
0.0075454
0.00734374
0.00799318
0.00795979
0.00800488
0.00799566
0.00902285
0.00889261
0.0103265
0.0101923
0.0114747
0.0113926
0.0122524
0.0121609
0.0129679
0.0127864
0.0136233
0.0134703
0.0138462
0.0142429
0.012444
0.0145044
0.00961304
0.0130337
0.00965651
0.00453871
0.00743982
0.00955057
0.00925505
0.00675148
0.0089693
0.00375196
0.00196165
0.000112094
0.00298971
0.000731703
0.00212876
0.00123323
0.000589869
0.000188313
0.000117953
0.000111095
0.000114299
0.00011639
0.000118273
0.000121237
0.000127449
0.000143579
0.000182855
0.00026889
0.000357582
0.000383269
0.000363294
0.000306897
0.00024338
0.000197034
0.000159489
0.000128528
0.000109387
0.000103864
0.00010508
0.000111741
0.000124822
0.000140556
0.000158821
0.000215381
0.000896581
0.00535129
0.00903512
0.0102845
0.00962135
0.00685289
0.00736669
0.00665456
0.00667369
0.00714132
0.00683084
0.00781606
0.00750693
0.00860962
0.00851478
0.00877027
0.00868173
0.0100008
0.00981299
0.0112639
0.0111193
0.0120721
0.0120914
0.0125932
0.0126044
0.0131358
0.0128521
0.0139098
0.0131873
0.0147294
0.0144223
0.0139447
0.014091
0.0149733
0.015051
0.0151952
0.0115199
0.0132687
0.0151523
0.0144777
0.0154163
0.0132745
0.0133274
0.0113958
0.00560161
0.00792498
0.00846268
0.0112847
0.0110089
0.0106107
0.00497535
0.000143268
0.000278048
0.00409483
0.00302383
0.00189277
0.000959823
0.000127142
0.000117093
0.000116678
0.000117422
0.000120266
0.00012685
0.000142539
0.000179542
0.000261103
0.00035548
0.000392819
0.000373916
0.000320737
0.000254707
0.000207507
0.000171712
0.000139051
0.000117911
0.000108682
0.000106747
0.000112348
0.000124764
0.000139943
0.000156219
0.000186952
0.000478641
0.0033788
0.00882435
0.0103482
0.0109126
0.00780811
0.0085672
0.00688286
0.00720132
0.00668753
0.00669975
0.00771383
0.00741941
0.00834404
0.00806204
0.00936351
0.0092129
0.00964509
0.0094973
0.0110051
0.0108802
0.0121752
0.0123147
0.0128393
0.013412
0.0129639
0.0135407
0.0127266
0.0130101
0.013424
0.0128027
0.0125524
0.0124667
0.0146519
0.0139139
0.0139506
0.0132833
0.0154338
0.014727
0.0152761
0.0146579
0.0156212
0.0155287
0.0157791
0.0147288
0.0146946
0.0131502
0.00715887
0.00945153
0.0100967
0.0129553
0.0126495
0.0122256
0.00633076
0.000131171
0.000263876
0.0006849
0.000434494
0.0053143
0.00410885
0.00277387
0.0015309
0.00013647
0.000120637
0.000118024
0.000120225
0.000126816
0.000142324
0.000177237
0.000253683
0.000352404
0.000403514
0.000387102
0.000337113
0.000267263
0.000218623
0.000184879
0.000152726
0.000130848
0.000118421
0.000112681
0.000115136
0.000126334
0.000140303
0.000155416
0.000176476
0.000297058
0.00183852
0.00802386
0.0100679
0.0116982
0.00929859
0.00748859
0.00758345
0.00754799
0.00775064
0.00729617
0.00732646
0.00837044
0.0081334
0.00901038
0.00872705
0.0102915
0.00993648
0.0107337
0.0105411
0.0124745
0.0124582
0.0138733
0.0141061
0.01434
0.0147037
0.0138272
0.0144115
0.0126625
0.0130638
0.0134106
0.013896
0.0126882
0.0123441
0.0123651
0.0125763
0.013926
0.0130531
0.013166
0.0125237
0.0154343
0.0138966
0.0148046
0.0156463
0.0155575
0.015915
0.0156786
0.0157062
0.0157102
0.0145934
0.00866776
0.0116722
0.0109815
0.014401
0.0141043
0.0136862
0.00772988
0.00014532
0.000337383
0.000998262
0.00223609
0.00659546
0.00526468
0.00376387
0.000141868
0.000122036
0.000121102
0.000127148
0.000142585
0.000175731
0.000247058
0.000347588
0.000412548
0.000401801
0.000356442
0.000281549
0.000231328
0.000198977
0.000170031
0.000149019
0.000133089
0.000124402
0.000122608
0.000131927
0.00014283
0.000155944
0.000173373
0.000228898
0.000944489
0.00585544
0.00914691
0.0117442
0.0113534
0.0073867
0.00800291
0.00772992
0.00745536
0.00875067
0.00899271
0.00812331
0.00826305
0.00861313
0.0084257
0.00952761
0.00909525
0.0115818
0.0109584
0.0123299
0.0120578
0.0140544
0.0138621
0.0147024
0.0145522
0.0147723
0.0147203
0.014018
0.0142512
0.0142878
0.0143576
0.0129596
0.0133469
0.013618
0.0138508
0.0121976
0.0122202
0.0124411
0.0128201
0.0129424
0.0123443
0.0121799
0.012045
0.0148612
0.0128303
0.0138696
0.0160259
0.0149278
0.0158044
0.0150203
0.0161156
0.0161705
0.015655
0.010139
0.013126
0.0124127
0.0155116
0.0152701
0.0149014
0.00911399
0.00015868
0.00138658
0.000437849
0.00301453
0.00478985
0.00788255
0.00643531
0.000141808
0.000125036
0.000128422
0.000143275
0.000174901
0.000240872
0.000341995
0.000419071
0.000419585
0.000376821
0.000298829
0.000244324
0.000214508
0.000190644
0.000171054
0.000154057
0.000143286
0.000140466
0.000143845
0.000150469
0.000159735
0.000173825
0.000206619
0.000515353
0.0036089
0.00824872
0.0112779
0.0127822
0.00920017
0.00694349
0.00683725
0.00880952
0.00780741
0.00994188
0.0104595
0.00850191
0.00888565
0.0088834
0.00864836
0.0103075
0.0096
0.0128326
0.0122525
0.0135524
0.0132311
0.0142328
0.0137939
0.0142948
0.0136187
0.0143385
0.0143662
0.0141793
0.0139774
0.0140149
0.0140749
0.0141545
0.0131486
0.0134079
0.013602
0.0137181
0.0120834
0.0123182
0.012658
0.0129524
0.0120193
0.0118907
0.0117358
0.0119447
0.013858
0.0118678
0.0127351
0.0159365
0.0138767
0.0151386
0.0139409
0.0160651
0.0161849
0.0161833
0.0115255
0.0143804
0.0136834
0.0161367
0.0160087
0.015767
0.0104355
0.00017084
0.00380631
0.0018116
0.000546449
0.0058091
0.00758579
0.00912732
0.000142119
0.000132226
0.000144788
0.000174998
0.000236132
0.000334857
0.000423986
0.000439498
0.000399583
0.00032005
0.000258928
0.00023068
0.000214401
0.000196584
0.000183118
0.000173216
0.000170112
0.00016733
0.00016862
0.000172275
0.000179948
0.000203847
0.000338464
0.00199885
0.00738847
0.0101474
0.0130294
0.0122791
0.00667611
0.00851737
0.00658823
0.00618854
0.0101975
0.00844016
0.0109683
0.0117457
0.00878034
0.00937784
0.00952233
0.00913137
0.0114744
0.0105191
0.0128851
0.0124939
0.0134158
0.0131508
0.0127163
0.0118232
0.013735
0.0128759
0.0142338
0.0142659
0.0144114
0.0145211
0.0138077
0.0139281
0.0140553
0.014217
0.0131764
0.013351
0.013478
0.0136238
0.0121941
0.0125167
0.0127736
0.012961
0.0115746
0.0118004
0.0116466
0.0120802
0.0126667
0.0114037
0.0117276
0.0152881
0.0126402
0.0140494
0.0126678
0.0154743
0.0156863
0.0162771
0.0127894
0.0153588
0.0147463
0.0163269
0.0163043
0.0161975
0.0116686
0.000160424
0.00678842
0.00457088
0.00223375
0.000628283
0.0086876
0.0103053
0.000146169
0.00014821
0.000175546
0.000232451
0.000328138
0.000427206
0.000461073
0.000424646
0.000346941
0.000275247
0.000247914
0.00023751
0.000224881
0.000216903
0.000214484
0.000213982
0.000213806
0.000210337
0.000205625
0.000202725
0.000211963
0.000284645
0.00107958
0.00556449
0.00878051
0.0126368
0.0143762
0.0110075
0.00562768
0.00725341
0.00596579
0.00516501
0.0112544
0.00869048
0.0119166
0.0125275
0.0092802
0.010023
0.0101089
0.00968001
0.0119226
0.0111137
0.0114145
0.0113924
0.0113812
0.0113464
0.0116555
0.0101787
0.0142603
0.0138564
0.0126244
0.0134168
0.014393
0.0144936
0.0151301
0.0151382
0.0137886
0.0139987
0.0142696
0.0145642
0.0131146
0.0132662
0.0134468
0.0136783
0.0124066
0.0126431
0.012799
0.0129344
0.0114745
0.0119774
0.0118506
0.0123338
0.0116051
0.0112734
0.0112244
0.0142196
0.0115157
0.0127545
0.0114734
0.0144621
0.0147711
0.0159112
0.0138913
0.0159554
0.0155223
0.0161243
0.0162656
0.0163017
0.0127863
0.000150297
0.00972682
0.00770529
0.00527839
0.00258554
0.000651165
0.0114071
0.000158267
0.000177559
0.00023025
0.000321996
0.00042847
0.000480831
0.00045238
0.000377877
0.000296737
0.000264105
0.000261078
0.000248512
0.000247822
0.000265528
0.000291384
0.000306782
0.000303412
0.000285104
0.000266077
0.00025095
0.000285592
0.000679115
0.00355632
0.00729489
0.0113841
0.015159
0.014412
0.00789292
0.010094
0.00431875
0.00592072
0.0048667
0.00384185
0.0116591
0.00820287
0.0125344
0.0127382
0.00986051
0.0107465
0.00992501
0.0097705
0.0111618
0.0106469
0.00954963
0.00975764
0.00929164
0.00927974
0.0114588
0.00954353
0.014974
0.0146413
0.0132918
0.0140807
0.0148377
0.0150535
0.016017
0.0159955
0.0139952
0.0143759
0.0147765
0.0151699
0.0130869
0.0132926
0.0135991
0.0139982
0.012565
0.0127023
0.0128169
0.0129586
0.0116745
0.0122826
0.0121888
0.012548
0.0110497
0.0114483
0.011053
0.0129297
0.0108813
0.0114998
0.010734
0.0132071
0.0135875
0.0151364
0.0148019
0.0161946
0.0159441
0.0155256
0.0158641
0.0161012
0.0137761
0.000128987
0.01242
0.0106995
0.00854262
0.0058943
0.00277767
0.000554935
0.000183262
0.000230921
0.000315545
0.000427409
0.000496853
0.000481493
0.000414051
0.000321177
0.000283047
0.00027841
0.000270014
0.000290259
0.00036097
0.000486677
0.000567587
0.000569125
0.000499285
0.000423775
0.000358239
0.0003292
0.000581422
0.00227409
0.00600113
0.0098688
0.0150767
0.0168225
0.0122017
0.00593793
0.00795153
0.0027323
0.00412943
0.00337002
0.00231235
0.0112021
0.00679226
0.0124604
0.0121502
0.0101333
0.0111296
0.00934138
0.00955336
0.00975545
0.00954036
0.00839655
0.00862982
0.00832406
0.00814445
0.0129501
0.0113369
0.010067
0.00865581
0.0158969
0.0155569
0.0140771
0.014963
0.0155262
0.0158236
0.0171398
0.0170557
0.0144699
0.0149693
0.0154543
0.0159152
0.0131853
0.0135275
0.0139864
0.014535
0.012692
0.0128022
0.0129379
0.0131545
0.0120252
0.0125598
0.012503
0.0127555
0.0108176
0.0117736
0.0111571
0.0116363
0.0105813
0.0106314
0.0103648
0.0119095
0.0123093
0.0140515
0.0154612
0.0161885
0.0161165
0.0145545
0.0150836
0.0155725
0.0146174
0.000110604
0.0133418
0.0115963
0.00930139
0.00636138
0.00267619
0.000365649
0.000231772
0.000314914
0.000421575
0.000509419
0.000512126
0.000452966
0.000352816
0.000300466
0.000295192
0.000289201
0.000364993
0.00061332
0.00109799
0.00143748
0.00146546
0.00122417
0.00090399
0.000640391
0.000477269
0.000611486
0.0018014
0.00503004
0.00851466
0.0144811
0.0182261
0.0153879
0.00623673
0.00338991
0.00521922
0.00129321
0.0020422
0.00200882
0.00118425
0.00950303
0.0048718
0.011774
0.0106821
0.0101781
0.0111616
0.00886609
0.00938776
0.00870701
0.00871589
0.00770439
0.0080517
0.00772245
0.00744714
0.013782
0.0121617
0.0103535
0.00869883
0.0170827
0.0167567
0.0151266
0.016123
0.0163557
0.0167542
0.0184241
0.0182366
0.015114
0.015681
0.0162385
0.0167947
0.0134984
0.0139778
0.0145684
0.0152188
0.0128887
0.0130331
0.0132436
0.0135633
0.0123501
0.0128243
0.0127939
0.0130374
0.0108359
0.0120792
0.0114385
0.0106261
0.0104785
0.0101771
0.0101605
0.0107408
0.0109605
0.0127691
0.0158532
0.0159528
0.0161192
0.0133699
0.0140225
0.0147523
0.0152765
0.000103358
0.014166
0.0124137
0.00997381
0.00659945
0.00229042
0.000212572
0.000311429
0.000420905
0.000516039
0.000544126
0.000491776
0.000392792
0.000323017
0.000309856
0.000319893
0.00051729