/*--------------------------------*- C++ -*----------------------------------*\
  =========                 |
  \\      /  F ield         | OpenFOAM: The Open Source CFD Toolbox
   \\    /   O peration     | Website:  https://openfoam.org
    \\  /    A nd           | Version:  dev
     \\/     M anipulation  |
\*---------------------------------------------------------------------------*/
FoamFile
{
    version     2.0;
    format      ascii;
    class       volScalarField;
    location    "2500";
    object      N2;
}
// * * * * * * * * * * * * * * * * * * * * * * * * * * * * * * * * * * * * * //

dimensions      [0 0 0 0 0 0 0];

internalField   nonuniform List<scalar> 
9967
(
0.76699
0.76699
0.76699
0.76699
0.76699
0.76699
0.76699
0.76699
0.76699
0.76699
0.76699
0.76699
0.76699
0.76699
0.76699
0.76699
0.76699
0.76699
0.76699
0.76699
0.76699
0.76699
0.76699
0.76699
0.76699
0.76699
0.76699
0.76699
0.76699
0.76699
0.76699
0.76699
0.76699
0.76699
0.76699
0.76699
0.76699
0.76699
0.76699
0.76699
0.76699
0.76699
0.76699
0.76699
0.76699
0.76699
0.76699
0.76699
0.76699
0.76699
0.76699
0.76699
0.76699
0.76699
0.76699
0.76699
0.76699
0.76699
0.76699
0.76699
0.76699
0.76699
0.76699
0.76699
0.76699
0.76699
0.76699
0.76699
0.76699
0.76699
0.76699
0.76699
0.76699
0.76699
0.76699
0.76699
0.76699
0.76699
0.76699
0.76699
0.76699
0.76699
0.76699
0.76699
0.76699
0.76699
0.76699
0.76699
0.76699
0.76699
0.76699
0.76699
0.76699
0.76699
0.76699
0.76699
0.76699
0.76699
0.76699
0.76699
0.76699
0.76699
0.76699
0.76699
0.76699
0.76699
0.76699
0.76699
0.76699
0.76699
0.76699
0.76699
0.76699
0.76699
0.76699
0.76699
0.76699
0.76699
0.76699
0.76699
0.76699
0.76699
0.76699
0.76699
0.76699
0.76699
0.76699
0.76699
0.76699
0.76699
0.76699
0.76699
0.76699
0.76699
0.76699
0.76699
0.76699
0.76699
0.76699
0.76699
0.76699
0.76699
0.76699
0.76699
0.76699
0.76699
0.76699
0.76699
0.76699
0.76699
0.76699
0.76699
0.76699
0.76699
0.76699
0.76699
0.76699
0.76699
0.76699
0.76699
0.76699
0.76699
0.76699
0.76699
0.76699
0.76699
0.76699
0.76699
0.76699
0.76699
0.76699
0.76699
0.76699
0.76699
0.76699
0.76699
0.76699
0.76699
0.76699
0.76699
0.76699
0.76699
0.76699
0.76699
0.76699
0.76699
0.76699
0.76699
0.76699
0.76699
0.76699
0.76699
0.76699
0.76699
0.76699
0.76699
0.76699
0.76699
0.76699
0.76699
0.76699
0.76699
0.76699
0.76699
0.76699
0.76699
0.76699
0.76699
0.76699
0.76699
0.76699
0.76699
0.76699
0.76699
0.76699
0.76699
0.76699
0.76699
0.76699
0.76699
0.76699
0.76699
0.76699
0.76699
0.76699
0.76699
0.76699
0.76699
0.76699
0.76699
0.76699
0.76699
0.76699
0.76699
0.76699
0.76699
0.76699
0.76699
0.76699
0.76699
0.76699
0.76699
0.76699
0.76699
0.76699
0.76699
0.76699
0.76699
0.76699
0.76699
0.76699
0.76699
0.76699
0.76699
0.76699
0.76699
0.76699
0.76699
0.76699
0.76699
0.76699
0.76699
0.76699
0.76699
0.76699
0.76699
0.76699
0.76699
0.76699
0.76699
0.76699
0.76699
0.76699
0.76699
0.76699
0.76699
0.76699
0.76699
0.76699
0.76699
0.76699
0.76699
0.76699
0.76699
0.76699
0.76699
0.76699
0.76699
0.76699
0.76699
0.76699
0.76699
0.76699
0.76699
0.76699
0.76699
0.76699
0.76699
0.76699
0.76699
0.76699
0.76699
0.76699
0.76699
0.76699
0.76699
0.76699
0.76699
0.76699
0.76699
0.76699
0.76699
0.76699
0.76699
0.76699
0.76699
0.76699
0.76699
0.76699
0.76699
0.76699
0.76699
0.76699
0.76699
0.76699
0.76699
0.76699
0.76699
0.76699
0.76699
0.76699
0.76699
0.76699
0.76699
0.76699
0.76699
0.76699
0.76699
0.76699
0.76699
0.76699
0.76699
0.76699
0.76699
0.76699
0.76699
0.76699
0.76699
0.76699
0.76699
0.76699
0.76699
0.76699
0.76699
0.76699
0.76699
0.76699
0.76699
0.76699
0.76699
0.76699
0.76699
0.76699
0.76699
0.76699
0.76699
0.76699
0.76699
0.76699
0.76699
0.76699
0.76699
0.76699
0.76699
0.76699
0.76699
0.76699
0.76699
0.76699
0.76699
0.76699
0.76699
0.76699
0.76699
0.76699
0.76699
0.76699
0.76699
0.76699
0.76699
0.76699
0.76699
0.76699
0.76699
0.76699
0.76699
0.76699
0.76699
0.76699
0.76699
0.76699
0.76699
0.76699
0.76699
0.76699
0.76699
0.76699
0.76699
0.76699
0.76699
0.76699
0.76699
0.76699
0.76699
0.76699
0.76699
0.76699
0.76699
0.76699
0.76699
0.76699
0.76699
0.76699
0.76699
0.76699
0.76699
0.76699
0.76699
0.76699
0.76699
0.76699
0.76699
0.76699
0.76699
0.76699
0.76699
0.76699
0.76699
0.76699
0.76699
0.76699
0.76699
0.76699
0.76699
0.76699
0.76699
0.76699
0.76699
0.76699
0.76699
0.76699
0.76699
0.76699
0.76699
0.76699
0.76699
0.76699
0.76699
0.76699
0.76699
0.76699
0.76699
0.76699
0.76699
0.76699
0.76699
0.76699
0.76699
0.76699
0.76699
0.76699
0.76699
0.76699
0.76699
0.76699
0.76699
0.76699
0.76699
0.76699
0.76699
0.76699
0.76699
0.76699
0.76699
0.76699
0.76699
0.76699
0.76699
0.76699
0.76699
0.76699
0.76699
0.76699
0.76699
0.76699
0.76699
0.76699
0.76699
0.76699
0.76699
0.76699
0.76699
0.76699
0.76699
0.76699
0.76699
0.76699
0.76699
0.76699
0.76699
0.76699
0.76699
0.76699
0.76699
0.76699
0.76699
0.76699
0.76699
0.76699
0.76699
0.76699
0.76699
0.76699
0.76699
0.76699
0.76699
0.76699
0.76699
0.76699
0.76699
0.76699
0.76699
0.76699
0.76699
0.76699
0.76699
0.76699
0.76699
0.76699
0.76699
0.76699
0.76699
0.76699
0.76699
0.76699
0.76699
0.76699
0.76699
0.76699
0.76699
0.76699
0.76699
0.76699
0.76699
0.76699
0.76699
0.76699
0.76699
0.76699
0.76699
0.76699
0.76699
0.76699
0.76699
0.76699
0.76699
0.76699
0.76699
0.76699
0.76699
0.76699
0.76699
0.76699
0.76699
0.76699
0.76699
0.76699
0.76699
0.76699
0.76699
0.76699
0.76699
0.76699
0.76699
0.76699
0.76699
0.76699
0.76699
0.76699
0.76699
0.76699
0.76699
0.76699
0.76699
0.76699
0.76699
0.76699
0.76699
0.76699
0.76699
0.76699
0.76699
0.76699
0.76699
0.76699
0.76699
0.76699
0.76699
0.76699
0.76699
0.76699
0.76699
0.76699
0.76699
0.76699
0.76699
0.76699
0.76699
0.76699
0.76699
0.76699
0.76699
0.76699
0.76699
0.76699
0.76699
0.76699
0.76699
0.76699
0.76699
0.76699
0.76699
0.76699
0.76699
0.76699
0.76699
0.76699
0.76699
0.76699
0.76699
0.76699
0.76699
0.76699
0.76699
0.76699
0.76699
0.76699
0.76699
0.76699
0.76699
0.76699
0.76699
0.76699
0.76699
0.76699
0.76699
0.76699
0.76699
0.76699
0.76699
0.76699
0.76699
0.76699
0.76699
0.76699
0.76699
0.76699
0.76699
0.76699
0.76699
0.76699
0.76699
0.76699
0.76699
0.76699
0.76699
0.76699
0.76699
0.76699
0.76699
0.76699
0.76699
0.76699
0.76699
0.76699
0.76699
0.76699
0.76699
0.76699
0.76699
0.76699
0.76699
0.76699
0.76699
0.76699
0.76699
0.76699
0.76699
0.76699
0.76699
0.76699
0.76699
0.76699
0.76699
0.76699
0.76699
0.76699
0.76699
0.76699
0.76699
0.76699
0.76699
0.76699
0.76699
0.76699
0.76699
0.76699
0.76699
0.76699
0.76699
0.76699
0.76699
0.76699
0.76699
0.76699
0.76699
0.76699
0.76699
0.76699
0.76699
0.76699
0.76699
0.76699
0.76699
0.76699
0.76699
0.76699
0.76699
0.76699
0.76699
0.76699
0.76699
0.76699
0.76699
0.76699
0.76699
0.76699
0.76699
0.76699
0.76699
0.76699
0.76699
0.76699
0.76699
0.76699
0.76699
0.76699
0.76699
0.76699
0.76699
0.76699
0.76699
0.76699
0.76699
0.76699
0.76699
0.76699
0.76699
0.76699
0.76699
0.76699
0.76699
0.76699
0.76699
0.76699
0.76699
0.76699
0.76699
0.76699
0.76699
0.76699
0.76699
0.76699
0.76699
0.76699
0.76699
0.76699
0.76699
0.76699
0.76699
0.76699
0.76699
0.76699
0.76699
0.76699
0.76699
0.76699
0.76699
0.76699
0.76699
0.76699
0.76699
0.76699
0.76699
0.76699
0.76699
0.76699
0.76699
0.76699
0.76699
0.76699
0.76699
0.76699
0.76699
0.76699
0.76699
0.76699
0.76699
0.76699
0.76699
0.76699
0.76699
0.76699
0.76699
0.76699
0.76699
0.76699
0.76699
0.76699
0.76699
0.76699
0.76699
0.76699
0.76699
0.76699
0.76699
0.76699
0.76699
0.76699
0.76699
0.76699
0.76699
0.76699
0.76699
0.76699
0.76699
0.76699
0.76699
0.76699
0.76699
0.76699
0.76699
0.76699
0.76699
0.76699
0.76699
0.76699
0.76699
0.76699
0.76699
0.76699
0.76699
0.76699
0.76699
0.76699
0.76699
0.76699
0.76699
0.76699
0.76699
0.76699
0.76699
0.76699
0.76699
0.76699
0.76699
0.76699
0.76699
0.76699
0.76699
0.76699
0.76699
0.76699
0.766989
0.766989
0.766989
0.76699
0.766989
0.76699
0.76699
0.76699
0.76699
0.76699
0.76699
0.76699
0.76699
0.76699
0.76699
0.76699
0.76699
0.76699
0.76699
0.76699
0.76699
0.76699
0.76699
0.76699
0.76699
0.76699
0.76699
0.76699
0.76699
0.76699
0.76699
0.76699
0.76699
0.76699
0.76699
0.76699
0.76699
0.76699
0.76699
0.76699
0.76699
0.76699
0.76699
0.76699
0.76699
0.76699
0.76699
0.76699
0.76699
0.766989
0.766987
0.766984
0.766982
0.766988
0.766984
0.766989
0.766988
0.76699
0.766989
0.76699
0.76699
0.76699
0.76699
0.76699
0.76699
0.76699
0.76699
0.76699
0.76699
0.76699
0.76699
0.76699
0.76699
0.76699
0.76699
0.76699
0.76699
0.76699
0.76699
0.76699
0.76699
0.76699
0.76699
0.76699
0.76699
0.76699
0.76699
0.76699
0.76699
0.76699
0.76699
0.76699
0.76699
0.76699
0.76699
0.76699
0.76699
0.76699
0.76699
0.76699
0.766989
0.766987
0.766979
0.76696
0.766941
0.76697
0.76693
0.766982
0.766965
0.766987
0.766981
0.766989
0.766987
0.76699
0.766989
0.76699
0.76699
0.76699
0.76699
0.76699
0.76699
0.76699
0.76699
0.76699
0.76699
0.76699
0.76699
0.76699
0.76699
0.76699
0.76699
0.76699
0.76699
0.76699
0.76699
0.76699
0.76699
0.76699
0.76699
0.76699
0.76699
0.76699
0.76699
0.76699
0.76699
0.76699
0.76699
0.76699
0.76699
0.76699
0.76699
0.76699
0.76699
0.76699
0.766989
0.766982
0.76696
0.766911
0.766817
0.766855
0.766739
0.766919
0.766819
0.76696
0.766905
0.76698
0.766956
0.766987
0.766978
0.766989
0.766986
0.76699
0.766989
0.76699
0.76699
0.76699
0.76699
0.76699
0.76699
0.76699
0.76699
0.76699
0.76699
0.76699
0.76699
0.76699
0.76699
0.76699
0.76699
0.76699
0.76699
0.76699
0.76699
0.76699
0.76699
0.76699
0.76699
0.76699
0.76699
0.76699
0.76699
0.76699
0.76699
0.76699
0.76699
0.76699
0.76699
0.76699
0.76699
0.76699
0.766989
0.766979
0.766933
0.766823
0.766663
0.766634
0.766508
0.766699
0.766572
0.766793
0.766664
0.766893
0.766772
0.766952
0.766883
0.766977
0.766948
0.766986
0.766976
0.766989
0.766986
0.76699
0.766989
0.76699
0.76699
0.76699
0.76699
0.76699
0.76699
0.76699
0.76699
0.76699
0.76699
0.76699
0.76699
0.76699
0.76699
0.76699
0.76699
0.76699
0.76699
0.76699
0.76699
0.76699
0.76699
0.76699
0.76699
0.76699
0.76699
0.76699
0.76699
0.76699
0.76699
0.76699
0.76699
0.76699
0.76699
0.76699
0.766989
0.766978
0.766914
0.766741
0.766485
0.766403
0.766318
0.766443
0.766316
0.766527
0.766388
0.766633
0.766487
0.766753
0.766604
0.766873
0.766734
0.766944
0.766863
0.766975
0.76694
0.766986
0.766974
0.766989
0.766986
0.766989
0.76699
0.766989
0.76699
0.76699
0.76699
0.76699
0.76699
0.76699
0.76699
0.76699
0.76699
0.76699
0.76699
0.76699
0.76699
0.76699
0.76699
0.76699
0.76699
0.76699
0.76699
0.76699
0.76699
0.76699
0.76699
0.76699
0.76699
0.76699
0.76699
0.76699
0.76699
0.76699
0.76699
0.76699
0.766989
0.766979
0.76691
0.766687
0.766366
0.766035
0.766209
0.766064
0.766249
0.766118
0.766338
0.766189
0.766447
0.766287
0.766574
0.766403
0.766713
0.766539
0.76685
0.766687
0.766935
0.766837
0.766973
0.766931
0.766986
0.766973
0.766986
0.76699
0.766987
0.766988
0.76699
0.76699
0.76699
0.76699
0.76699
0.76699
0.76699
0.76699
0.76699
0.76699
0.76699
0.76699
0.76699
0.76699
0.76699
0.76699
0.76699
0.76699
0.76699
0.76699
0.76699
0.76699
0.76699
0.76699
0.76699
0.76699
0.76699
0.76699
0.76699
0.76699
0.76699
0.76699
0.766981
0.766913
0.766678
0.76628
0.76598
0.765839
0.765808
0.766001
0.765905
0.766045
0.765917
0.766129
0.765976
0.766231
0.766061
0.766353
0.766164
0.766498
0.766294
0.766657
0.766449
0.766823
0.766623
0.766928
0.76681
0.766973
0.766926
0.766974
0.766989
0.766976
0.76698
0.766989
0.76699
0.76699
0.76699
0.76699
0.76699
0.76699
0.76699
0.76699
0.76699
0.76699
0.76699
0.76699
0.76699
0.76699
0.76699
0.76699
0.76699
0.76699
0.76699
0.76699
0.76699
0.76699
0.76699
0.76699
0.76699
0.76699
0.76699
0.76699
0.76699
0.76699
0.76699
0.766985
0.766927
0.766686
0.766282
0.766017
0.765814
0.765864
0.765711
0.765719
0.765813
0.76574
0.765838
0.765726
0.765901
0.765756
0.765982
0.765813
0.766088
0.76589
0.766227
0.766002
0.766395
0.766152
0.76659
0.766339
0.766801
0.766561
0.766927
0.766796
0.76693
0.766983
0.766938
0.76695
0.766986
0.76699
0.766989
0.76699
0.76699
0.76699
0.76699
0.76699
0.76699
0.76699
0.76699
0.76699
0.76699
0.76699
0.76699
0.76699
0.76699
0.76699
0.76699
0.76699
0.76699
0.76699
0.76699
0.76699
0.76699
0.76699
0.76699
0.76699
0.76699
0.76699
0.76699
0.76699
0.766988
0.76695
0.766723
0.766306
0.766102
0.76598
0.765769
0.765866
0.765624
0.765671
0.765649
0.765618
0.765638
0.765557
0.765665
0.765543
0.765711
0.765559
0.765789
0.7656
0.765909
0.765683
0.766075
0.765815
0.766287
0.766002
0.766539
0.766242
0.766796
0.766527
0.766805
0.766962
0.766826
0.766858
0.766974
0.76699
0.766984
0.766989
0.76699
0.76699
0.76699
0.76699
0.76699
0.76699
0.76699
0.76699
0.76699
0.76699
0.76699
0.76699
0.76699
0.76699
0.76699
0.76699
0.76699
0.76699
0.76699
0.76699
0.76699
0.76699
0.76699
0.76699
0.76699
0.76699
0.76699
0.766989
0.76697
0.766797
0.766357
0.766168
0.766103
0.766001
0.766102
0.765773
0.765899
0.765561
0.765659
0.765523
0.765526
0.76546
0.765423
0.765439
0.765356
0.765445
0.765326
0.765487
0.765329
0.765579
0.765378
0.765729
0.765485
0.765939
0.765655
0.76621
0.76589
0.766527
0.766192
0.766546
0.766895
0.766589
0.76665
0.766932
0.76699
0.766968
0.766986
0.76699
0.76699
0.76699
0.76699
0.76699
0.76699
0.76699
0.76699
0.76699
0.76699
0.76699
0.76699
0.76699
0.76699
0.76699
0.76699
0.76699
0.76699
0.76699
0.76699
0.76699
0.76699
0.76699
0.76699
0.76699
0.76699
0.76699
0.766982
0.766872
0.766456
0.766215
0.766182
0.766157
0.766196
0.766027
0.766108
0.765788
0.765918
0.765519
0.765644
0.765422
0.765445
0.765316
0.765313
0.765246
0.765203
0.765209
0.765129
0.765218
0.765095
0.765283
0.765116
0.765408
0.765202
0.765598
0.765348
0.76586
0.765563
0.766189
0.765848
0.76621
0.766724
0.766256
0.766328
0.766814
0.76699
0.766927
0.766981
0.76699
0.76699
0.76699
0.76699
0.76699
0.76699
0.76699
0.76699
0.76699
0.76699
0.76699
0.76699
0.76699
0.76699
0.76699
0.76699
0.76699
0.76699
0.76699
0.76699
0.76699
0.76699
0.76699
0.76699
0.76699
0.76699
0.766987
0.766931
0.766594
0.766253
0.766229
0.766228
0.766156
0.766178
0.766007
0.766062
0.765781
0.765911
0.765473
0.765596
0.765326
0.765374
0.765194
0.765201
0.765086
0.765076
0.765028
0.765006
0.764997
0.764957
0.765027
0.764917
0.765137
0.764952
0.765308
0.765086
0.76555
0.765291
0.765859
0.765556
0.76589
0.766435
0.766122
0.765934
0.765974
0.766208
0.766006
0.766539
0.76676
0.766989
0.766638
0.766916
0.766747
0.76686
0.766937
0.766981
0.76699
0.76699
0.76699
0.76699
0.76699
0.76699
0.76699
0.76699
0.76699
0.76699
0.76699
0.76699
0.76699
0.76699
0.76699
0.76699
0.76699
0.76699
0.76699
0.76699
0.76699
0.76699
0.76699
0.76699
0.76699
0.766989
0.766965
0.766737
0.766314
0.766246
0.766298
0.766088
0.76613
0.76608
0.766081
0.765902
0.765923
0.765723
0.765833
0.765378
0.765478
0.765228
0.765292
0.765084
0.765102
0.765015
0.765029
0.764963
0.764986
0.764908
0.764936
0.764845
0.764859
0.764891
0.764774
0.765052
0.76495
0.764842
0.765423
0.765289
0.765038
0.765172
0.765731
0.765579
0.765301
0.76545
0.765306
0.765603
0.765621
0.765783
0.766339
0.766117
0.766063
0.765806
0.765841
0.765885
0.766412
0.766986
0.766973
0.766521
0.766654
0.766791
0.7669
0.76699
0.76699
0.76699
0.76699
0.76699
0.76699
0.76699
0.76699
0.76699
0.76699
0.76699
0.76699
0.76699
0.76699
0.76699
0.76699
0.76699
0.76699
0.76699
0.76699
0.76699
0.76699
0.76699
0.76699
0.76699
0.766981
0.766854
0.766424
0.766257
0.76634
0.766213
0.766309
0.7659
0.765958
0.765915
0.765896
0.765701
0.765703
0.765579
0.765659
0.765224
0.765283
0.765134
0.765175
0.765055
0.765085
0.765035
0.765102
0.765013
0.76515
0.764936
0.765119
0.764809
0.764976
0.764767
0.764714
0.764725
0.764774
0.764924
0.764798
0.764826
0.764736
0.765171
0.764912
0.765041
0.765463
0.765177
0.765329
0.765191
0.765485
0.765513
0.765656
0.766197
0.766001
0.765937
0.765688
0.765727
0.765774
0.76629
0.766988
0.766977
0.766937
0.766958
0.766408
0.76655
0.766705
0.766846
0.76699
0.76699
0.76699
0.76699
0.76699
0.76699
0.76699
0.76699
0.76699
0.76699
0.76699
0.76699
0.76699
0.76699
0.76699
0.76699
0.76699
0.76699
0.76699
0.76699
0.76699
0.76699
0.76699
0.76699
0.766987
0.766927
0.766575
0.766278
0.766336
0.766419
0.766113
0.766282
0.765656
0.765746
0.765677
0.765648
0.765428
0.765426
0.765346
0.765401
0.765141
0.76515
0.765111
0.765128
0.765166
0.765214
0.765304
0.765434
0.765363
0.765633
0.765291
0.765641
0.764877
0.765053
0.765239
0.765471
0.764691
0.764699
0.764762
0.764893
0.764791
0.764689
0.764709
0.764665
0.765044
0.76478
0.764909
0.765349
0.765052
0.765211
0.765067
0.765375
0.765406
0.765546
0.76608
0.765829
0.765896
0.765583
0.765625
0.765675
0.766179
0.766987
0.766973
0.766913
0.766785
0.766302
0.766449
0.766616
0.76699
0.76699
0.76699
0.76699
0.76699
0.76699
0.76699
0.76699
0.76699
0.76699
0.76699
0.76699
0.76699
0.76699
0.76699
0.76699
0.76699
0.76699
0.76699
0.76699
0.76699
0.76699
0.76699
0.766989
0.766965
0.766731
0.76633
0.766307
0.766436
0.766425
0.766518
0.76599
0.766248
0.765398
0.765529
0.7654
0.765379
0.765157
0.765148
0.765154
0.765157
0.765203
0.765168
0.765232
0.765224
0.765538
0.765584
0.765827
0.765946
0.765915
0.766052
0.765641
0.765829
0.765928
0.766043
0.765078
0.765292
0.765508
0.7657
0.764676
0.764748
0.764892
0.765089
0.764671
0.764641
0.764617
0.764652
0.764911
0.764657
0.764775
0.765235
0.76492
0.765089
0.764937
0.765265
0.765301
0.765443
0.765978
0.765734
0.765803
0.765484
0.765531
0.765586
0.76608
0.766987
0.766888
0.766969
0.766725
0.766534
0.766205
0.766357
0.76699
0.76699
0.76699
0.76699
0.76699
0.76699
0.76699
0.76699
0.76699
0.76699
0.76699
0.76699
0.76699
0.76699
0.76699
0.76699
0.76699
0.76699
0.76699
0.76699
0.76699
0.76699
0.766989
0.766981
0.766849
0.766443
0.766298
0.766397
0.766569
0.766479
0.766598
0.765869
0.76623
0.765168
0.765347
0.765132
0.765131
0.76503
0.764984
0.765126
0.76508
0.76547
0.765367
0.765575
0.76554
0.766
0.765992
0.766109
0.766141
0.766076
0.766116
0.766132
0.76586
0.765978
0.766055
0.766097
0.765309
0.765526
0.76572
0.765877
0.764728
0.764881
0.765083
0.765305
0.764594
0.764625
0.764598
0.764703
0.764776
0.764574
0.764648
0.765116
0.764784
0.764961
0.764801
0.765151
0.765192
0.765342
0.765887
0.765647
0.76572
0.765389
0.765441
0.765501
0.765991
0.766987
0.766673
0.766866
0.766966
0.766462
0.766275
0.766119
0.76699
0.76699
0.76699
0.76699
0.76699
0.76699
0.76699
0.76699
0.76699
0.76699
0.76699
0.76699
0.76699
0.76699
0.76699
0.76699
0.76699
0.76699
0.76699
0.76699
0.76699
0.76699
0.766986
0.766923
0.766596
0.766311
0.766329
0.766496
0.766692
0.766656
0.766552
0.766677
0.765802
0.76625
0.765018
0.765265
0.764956
0.764959
0.765028
0.76493
0.765252
0.765136
0.765697
0.765543
0.765941
0.765836
0.766155
0.766142
0.766143
0.76616
0.766115
0.766126
0.766052
0.766066
0.765989
0.766054
0.766085
0.7661
0.765522
0.765714
0.765868
0.765974
0.764858
0.765061
0.765281
0.765494
0.76457
0.764672
0.764636
0.764824
0.764645
0.764542
0.764556
0.764991
0.76465
0.764826
0.764665
0.765031
0.765077
0.765239
0.765807
0.765568
0.765644
0.765292
0.765352
0.765418
0.765913
0.766988
0.766402
0.766633
0.76685
0.766965
0.766204
0.766043
0.76699
0.76699
0.76699
0.76699
0.76699
0.76699
0.76699
0.76699
0.76699
0.76699
0.76699
0.76699
0.76699
0.76699
0.76699
0.766989
0.766989
0.766989
0.766989
0.766989
0.766989
0.766987
0.766961
0.766746
0.766359
0.766294
0.766394
0.766598
0.76677
0.766733
0.766644
0.766765
0.765792
0.766312
0.764954
0.765263
0.764873
0.764874
0.765065
0.764923
0.765388
0.765229
0.765735
0.765557
0.766065
0.765914
0.766179
0.766183
0.766047
0.76605
0.766101
0.766067
0.766099
0.766083
0.765934
0.765955
0.766033
0.766063
0.766066
0.766049
0.765683
0.765835
0.765936
0.765997
0.765023
0.765237
0.765444
0.765628
0.764592
0.764781
0.764729
0.764971
0.764543
0.764551
0.764515
0.76486
0.764537
0.764689
0.76454
0.764903
0.764955
0.76513
0.765735
0.765491
0.765573
0.76519
0.765259
0.765333
0.765843
0.766988
0.766145
0.766355
0.766604
0.766844
0.766969
0.765977
0.76699
0.76699
0.76699
0.76699
0.76699
0.76699
0.76699
0.76699
0.76699
0.76699
0.76699
0.76699
0.76699
0.766989
0.766987
0.766986
0.766986
0.766987
0.766988
0.766989
0.766988
0.766976
0.766851
0.766467
0.766292
0.766321
0.766478
0.766728
0.766658
0.766843
0.76679
0.766748
0.76685
0.76586
0.766417
0.764966
0.765361
0.764843
0.764849
0.765046
0.764897
0.765389
0.765222
0.765682
0.76547
0.766103
0.765912
0.766139
0.766193
0.765929
0.765933
0.766019
0.765963
0.766018
0.765985
0.765795
0.765816
0.766022
0.766016
0.765985
0.765942
0.765775
0.765878
0.765943
0.765961
0.765174
0.765372
0.765548
0.765691
0.764669
0.764907
0.764834
0.765097
0.764493
0.764608
0.764509
0.764724
0.764476
0.764556
0.764464
0.76477
0.764827
0.765015
0.765668
0.765415
0.765505
0.765084
0.765161
0.765245
0.765781
0.766989
0.76592
0.766095
0.76632
0.766589
0.766851
0.766976
0.76699
0.76699
0.76699
0.76699
0.76699
0.76699
0.76699
0.76699
0.76699
0.76699
0.76699
0.766989
0.766986
0.766981
0.766977
0.766977
0.766979
0.766983
0.766986
0.766987
0.76698
0.766908
0.766596
0.76631
0.76628
0.766385
0.766606
0.766801
0.766743
0.766908
0.766858
0.766844
0.766922
0.765997
0.766548
0.765049
0.76555
0.764835
0.764865
0.764977
0.764866
0.765289
0.765128
0.765633
0.765395
0.766128
0.765899
0.765993
0.76611
0.766189
0.766216
0.76579
0.765797
0.765899
0.765833
0.765896
0.765853
0.765622
0.765646
0.765952
0.765913
0.76586
0.765802
0.7658
0.765869
0.765887
0.765876
0.765281
0.765445
0.765586
0.765698
0.764756
0.765009
0.764914
0.765174
0.764473
0.764676
0.764546
0.764586
0.764444
0.76446
0.764423
0.764633
0.764693
0.764894
0.765606
0.765337
0.765437
0.764971
0.765058
0.765153
0.765725
0.76699
0.76587
0.766056
0.766297
0.76659
0.766873
0.766983
0.76699
0.76699
0.76699
0.76699
0.76699
0.76699
0.76699
0.76699
0.76699
0.76699
0.766987
0.766979
0.766961
0.766946
0.766942
0.766952
0.766965
0.766976
0.766983
0.76698
0.766931
0.766702
0.766365
0.766266
0.766321
0.766512
0.766803
0.766886
0.76683
0.766959
0.76693
0.766911
0.766963
0.766185
0.766681
0.765245
0.765804
0.764851
0.76494
0.764936
0.76489
0.765201
0.765043
0.765644
0.765387
0.766199
0.765952
0.765896
0.76604
0.766176
0.76623
0.765618
0.765633
0.765772
0.765683
0.765744
0.76569
0.765421
0.765444
0.765832
0.76577
0.7657
0.765626
0.765771
0.765791
0.765781
0.765735
0.765326
0.765464
0.765576
0.765649
0.764816
0.76506
0.764945
0.765198
0.764486
0.764722
0.764598
0.764469
0.764435
0.764407
0.764398
0.764499
0.764553
0.764766
0.765546
0.765256
0.765367
0.764854
0.764951
0.765058
0.765673
0.76699
0.765827
0.766026
0.766285
0.766607
0.766907
0.766988
0.76699
0.76699
0.76699
0.76699
0.76699
0.76699
0.76699
0.76699
0.766989
0.766984
0.766961
0.766913
0.76687
0.766858
0.766879
0.766915
0.76695
0.766972
0.766976
0.766935
0.766756
0.766433
0.766268
0.766287
0.766443
0.766726
0.766961
0.766927
0.76694
0.766956
0.76698
0.766972
0.766948
0.766979
0.766388
0.766793
0.765549
0.766085
0.764937
0.765137
0.76503
0.765033
0.765198
0.765078
0.765804
0.765565
0.766284
0.766237
0.765969
0.76613
0.765777
0.765963
0.76615
0.76626
0.765418
0.765441
0.765621
0.765507
0.765556
0.765493
0.765199
0.765218
0.765669
0.76559
0.765503
0.765416
0.765673
0.765667
0.765623
0.765555
0.765325
0.765427
0.765499
0.765528
0.764833
0.765064
0.764929
0.76517
0.764522
0.764724
0.764631
0.764399
0.764451
0.764372
0.764393
0.764404
0.764428
0.764634
0.765487
0.765171
0.765292
0.764729
0.764839
0.764955
0.765623
0.76699
0.765789
0.766
0.766278
0.766643
0.766942
0.766989
0.76699
0.76699
0.76699
0.76699
0.76699
0.76699
0.76699
0.766988
0.766978
0.766932
0.766849
0.766783
0.766766
0.766792
0.766842
0.766897
0.766946
0.766964
0.76693
0.766762
0.766466
0.766282
0.766273
0.766398
0.766669
0.766936
0.766974
0.766984
0.766978
0.766982
0.766986
0.766985
0.766968
0.766984
0.766582
0.766876
0.7659
0.766369
0.765176
0.765473
0.765301
0.765363
0.7654
0.765323
0.766064
0.766074
0.765946
0.765861
0.765803
0.76633
0.766307
0.766208
0.765648
0.765874
0.766108
0.766285
0.765201
0.765235
0.765459
0.765321
0.765337
0.765268
0.764967
0.76498
0.76547
0.765374
0.765274
0.765179
0.765526
0.765488
0.765421
0.765336
0.765257
0.76532
0.76535
0.765352
0.764796
0.765009
0.764853
0.765075
0.764545
0.764684
0.764625
0.764353
0.764467
0.764346
0.764392
0.764341
0.764344
0.764495
0.765424
0.765079
0.765214
0.764597
0.764716
0.764845
0.765573
0.766989
0.76575
0.765972
0.766275
0.766699
0.766963
0.766988
0.76699
0.76699
0.76699
0.76699
0.76699
0.76699
0.766988
0.766971
0.766903
0.766786
0.766701
0.766678
0.766705
0.766764
0.766832
0.766896
0.766935
0.76691
0.76675
0.766466
0.76629
0.766272
0.766378
0.766633
0.76691
0.766986
0.766983
0.766987
0.766989
0.766988
0.766988
0.766988
0.766989
0.766976
0.766986
0.766747
0.766929
0.766263
0.76663
0.765573
0.765883
0.765719
0.765816
0.765786
0.765725
0.7662
0.766227
0.766126
0.766035
0.765951
0.766381
0.766384
0.766318
0.76552
0.765785
0.766063
0.766297
0.764975
0.765026
0.765299
0.765134
0.765094
0.765026
0.764735
0.764741
0.765235
0.765128
0.765021
0.764923
0.765322
0.765267
0.76518
0.765082
0.765122
0.765142
0.765142
0.765124
0.764711
0.764895
0.764719
0.764916
0.764537
0.764591
0.764579
0.764316
0.764452
0.764325
0.764382
0.764291
0.764284
0.764377
0.765361
0.764987
0.765138
0.764458
0.76458
0.764733
0.765522
0.766954
0.765708
0.765945
0.766279
0.766751
0.766965
0.766972
0.76699
0.76699
0.76699
0.76699
0.76699
0.766988
0.766967
0.766881
0.766734
0.766628
0.766596
0.766621
0.76668
0.766753
0.766821
0.766868
0.766853
0.766704
0.766451
0.766289
0.766275
0.766377
0.766619
0.766897
0.766983
0.766989
0.766989
0.766989
0.76699
0.76699
0.76699
0.766989
0.766989
0.76698
0.766987
0.766865
0.766955
0.766585
0.766821
0.766033
0.7663
0.766221
0.766307
0.76617
0.766159
0.766212
0.766335
0.7664
0.766322
0.766254
0.766201
0.766437
0.766459
0.766426
0.765402
0.765706
0.766027
0.766305
0.764753
0.764827
0.765148
0.764957
0.76484
0.764775
0.764511
0.764509
0.764972
0.764861
0.764755
0.764661
0.765071
0.764996
0.764903
0.764798
0.764921
0.764913
0.764882
0.764836
0.764587
0.76472
0.764565
0.764708
0.764484
0.764465
0.764482
0.764279
0.764407
0.764315
0.764357
0.76425
0.764237
0.764298
0.765295
0.764891
0.765053
0.764344
0.764451
0.764602
0.765468
0.766965
0.765668
0.765919
0.76628
0.766751
0.766941
0.766916
0.76699
0.76699
0.76699
0.76699
0.766988
0.766966
0.766869
0.766696
0.766565
0.766522
0.766541
0.766593
0.76666
0.766718
0.766751
0.766723
0.766589
0.766404
0.76629
0.766284
0.766389
0.766626
0.766894
0.766982
0.76699
0.76699
0.76699
0.76699
0.76699
0.76699
0.76699
0.766989
0.766989
0.766983
0.766987
0.76693
0.76697
0.766825
0.766924
0.766476
0.766658
0.766723
0.766744
0.766356
0.766312
0.766614
0.766635
0.766481
0.766566
0.766506
0.76645
0.7664
0.766501
0.766543
0.766538
0.765299
0.765641
0.766002
0.76632
0.764549
0.764642
0.765013
0.764796
0.764584
0.76453
0.764303
0.764293
0.764688
0.764582
0.764484
0.764402
0.764771
0.764686
0.764592
0.764492
0.764679
0.764635
0.764579
0.764512
0.764424
0.764534
0.764392
0.764493
0.764402
0.764372
0.764387
0.764258
0.764363
0.764296
0.764318
0.764228
0.764199
0.764241
0.765226
0.764778
0.764964
0.764275
0.764333
0.764466
0.765418
0.766984
0.765627
0.765893
0.76626
0.766681
0.766846
0.766862
0.76699
0.76699
0.76699
0.766988
0.766968
0.766867
0.766675
0.766517
0.766461
0.766472
0.766513
0.766561
0.766598
0.766605
0.766565
0.76647
0.766362
0.766295
0.766308
0.766426
0.766658
0.766902
0.766982
0.76699
0.76699
0.76699
0.76699
0.76699
0.76699
0.76699
0.76699
0.76699
0.766989
0.766989
0.766985
0.766988
0.766964
0.766979
0.766945
0.76697
0.766815
0.766893
0.766912
0.766747
0.766924
0.766947
0.766615
0.766612
0.766758
0.766621
0.766722
0.766686
0.766652
0.766627
0.766562
0.766631
0.766642
0.765209
0.765587
0.765985
0.766332
0.764359
0.764475
0.764892
0.76465
0.764338
0.764301
0.764117
0.764099
0.764394
0.764301
0.764222
0.764158
0.764439
0.764356
0.764273
0.764188
0.764438
0.764373
0.764306
0.76424
0.764337
0.76435
0.764281
0.764303
0.764356
0.764298
0.764334
0.764236
0.764317
0.764264
0.764267
0.764191
0.764168
0.764204
0.765166
0.76466
0.764882
0.764212
0.76426
0.764338
0.765364
0.766979
0.76559
0.765861
0.766197
0.766513
0.766674
0.766825
0.76699
0.76699
0.766989
0.766973
0.766874
0.766671
0.766487
0.766417
0.766421
0.766449
0.766482
0.766498
0.766493
0.766462
0.76641
0.766357
0.766315
0.766359
0.766494
0.766722
0.766922
0.766983
0.76699
0.76699
0.76699
0.76699
0.76699
0.76699
0.76699
0.76699
0.76699
0.76699
0.766989
0.76699
0.766988
0.766989
0.766981
0.766985
0.766981
0.766985
0.766952
0.766972
0.766909
0.766957
0.766953
0.766981
0.766982
0.766782
0.76677
0.76691
0.766742
0.766841
0.766829
0.766813
0.766796
0.766617
0.766713
0.766741
0.765128
0.765542
0.765977
0.766357
0.764193
0.764324
0.764783
0.764519
0.764114
0.764098
0.763985
0.763954
0.764113
0.764051
0.764003
0.763968
0.764177
0.764115
0.764056
0.764003
0.764249
0.764191
0.764133
0.764083
0.764228
0.764229
0.764165
0.764167
0.764304
0.764205
0.76426
0.764206
0.76425
0.764208
0.764203
0.764156
0.764113
0.764156
0.765088
0.76453
0.764761
0.764168
0.764174
0.764261
0.765317
0.761773
0.765551
0.765825
0.766115
0.766355
0.766531
0.766549
0.76699
0.76699
0.76698
0.766894
0.766679
0.766476
0.766389
0.766386
0.766411
0.766437
0.766452
0.766451
0.766435
0.766405
0.76637
0.766361
0.766442
0.766593
0.766799
0.766945
0.766985
0.76699
0.76699
0.76699
0.76699
0.76699
0.76699
0.76699
0.76699
0.76699
0.76699
0.76699
0.76699
0.76699
0.766989
0.766989
0.766987
0.766988
0.766988
0.766989
0.766985
0.766987
0.766961
0.766982
0.766981
0.766987
0.766986
0.766916
0.766912
0.766963
0.76684
0.766918
0.766922
0.766922
0.766918
0.766657
0.766779
0.766827
0.76505
0.765496
0.765969
0.766382
0.764058
0.764195
0.76468
0.7644
0.763952
0.763948
0.763918
0.763886
0.763959
0.763923
0.763898
0.763881
0.764034
0.76399
0.763947
0.763911
0.764094
0.764055
0.763975
0.76393
0.764185
0.764148
0.763871
0.764107
0.764205
0.763924
0.764206
0.764145
0.764183
0.764148
0.764153
0.764108
0.764067
0.764089
0.765022
0.764386
0.764653
0.764113
0.764144
0.764174
0.765257
0.740181
0.765517
0.765779
0.766024
0.766208
0.766222
0.765316
0.76699
0.766985
0.766924
0.766704
0.766479
0.766373
0.766363
0.766385
0.766419
0.766445
0.766451
0.766443
0.766428
0.76642
0.766462
0.766564
0.766716
0.766873
0.766964
0.766987
0.76699
0.76699
0.76699