/*--------------------------------*- C++ -*----------------------------------*\
  =========                 |
  \\      /  F ield         | OpenFOAM: The Open Source CFD Toolbox
   \\    /   O peration     | Website:  https://openfoam.org
    \\  /    A nd           | Version:  dev
     \\/     M anipulation  |
\*---------------------------------------------------------------------------*/
FoamFile
{
    version     2.0;
    format      ascii;
    class       volScalarField;
    location    "2500";
    object      nut;
}
// * * * * * * * * * * * * * * * * * * * * * * * * * * * * * * * * * * * * * //

dimensions      [0 2 -1 0 0 0 0];

internalField   nonuniform List<scalar> 
9967
(
0.000127937
0.000131624
0.000124848
0.000120335
0.000159281
0.000111278
0.000111871
0.00016836
0.000150768
0.000106143
0.000107594
0.000162144
0.000174552
0.000128846
0.000104082
0.000104603
0.000144991
0.000187833
0.000161787
0.000116965
0.000103023
0.000102919
0.000129879
0.000186697
0.000184605
0.000137513
0.000111873
0.000102209
0.000102314
0.000119634
0.000177005
0.000198453
0.000166574
0.000123489
0.00010885
0.000101667
0.000102084
0.00011255
0.000155962
0.00020408
0.000190903
0.000141937
0.000116963
0.000106681
0.000101274
0.000101943
0.000108477
0.000137471
0.000199491
0.000204488
0.000167531
0.000127554
0.000112977
0.00010502
0.00010106
0.000101802
0.000106077
0.000125388
0.000185056
0.00021503
0.000193299
0.00014396
0.000120293
0.000110059
0.000103767
0.00010089
0.000101489
0.000104707
0.000116941
0.000160793
0.000214988
0.000210985
0.000166123
0.00012991
0.000115727
0.000107823
0.000102917
0.000100761
0.000101135
0.000104164
0.000111781
0.000141512
0.000208116
0.000220975
0.000192874
0.000143854
0.000122219
0.000112435
0.000106016
0.000102341
0.000100646
0.000100828
0.00010381
0.000108882
0.000128858
0.000189896
0.000227893
0.000213039
0.000164216
0.000130698
0.000117424
0.000109852
0.00010459
0.000101941
0.000100466
0.000100596
0.000103397
0.000107265
0.000120116
0.000163772
0.000225733
0.000226252
0.000188532
0.000142937
0.000123338
0.000113901
0.000107718
0.00010353
0.00010164
0.000100268
0.000100421
0.000102829
0.000106191
0.000114817
0.000144669
0.000216285
0.000235277
0.000213076
0.000160804
0.000130459
0.000118473
0.000111143
0.000106044
0.000102794
0.0001013
0.000100144
0.000100356
0.000102331
0.000105459
0.000111553
0.000132187
0.000194768
0.000239998
0.000229408
0.000183012
0.000141349
0.000123322
0.000114763
0.0001089
0.000104682
0.000102301
0.000100882
0.000100077
0.000100432
0.000101851
0.000104863
0.000109445
0.000123336
0.000168081
0.000236536
0.000239833
0.000207549
0.000156778
0.000129981
0.000118577
0.000111839
0.000107117
0.00010356
0.000101862
0.000100503
0.000100042
0.000100508
0.000101263
0.000104255
0.000107946
0.00011773
0.000148567
0.000225821
0.00024815
0.000228811
0.000176654
0.000139029
0.000123108
0.00011501
0.000109584
0.000105667
0.000102797
0.000101398
0.000100216
0.000100017
0.00010052
0.000100789
0.000103536
0.000106742
0.000113981
0.000136775
0.000203055
0.000251823
0.000243232
0.000199941
0.000152396
0.000128589
0.000118475
0.000112226
0.000107789
0.000104363
0.000102232
0.000100909
0.000100026
9.99878e-05
0.000100451
0.000100541
0.000102851
0.000105819
0.000111377
0.000127529
0.000176854
0.000247982
0.000252331
0.000222973
0.000170088
0.000136765
0.000122302
0.00011504
0.000109961
0.000106265
0.000103335
0.000101729
0.000100455
9.99162e-05
9.99588e-05
0.000100359
0.000100523
0.000102135
0.00010506
0.000109526
0.000121348
0.000154758
0.00023741
0.000259945
0.000242185
0.000190358
0.000147888
0.000127387
0.000118052
0.000112287
0.000108132
0.000104981
0.000102584
0.000101238
0.000100109
9.98403e-05
9.99427e-05
0.00010027
0.000100533
0.000101357
0.000104375
0.000108088
0.000117147
0.000143516
0.000216428
0.000263772
0.000255078
0.000213335
0.000162866
0.000134082
0.000121581
0.000114783
0.00011006
0.000106637
0.000103887
0.000101992
0.000100748
9.98812e-05
9.97769e-05
9.99331e-05
0.000100197
0.000100519
0.000100662
0.00010372
0.000106886
0.000114164
0.000134226
0.000190652
0.000260482
0.000264044
0.000234441
0.000180945
0.000143669
0.000125826
0.000117555
0.000112139
0.000108314
0.000105385
0.000102993
0.000101484
0.000100328
9.97413e-05
9.97446e-05
9.99296e-05
0.000100141
0.000100459
0.000100073
0.000103106
0.000105826
0.000111986
0.000127342
0.000167587
0.000251896
0.000270264
0.000253323
0.000200984
0.000155796
0.000131782
0.00012058
0.000114462
0.000110056
0.000106915
0.000104326
0.000102307
0.000101053
0.000100016
9.96453e-05
9.97419e-05
9.99335e-05
0.000100102
0.000100363
9.96628e-05
0.000102516
0.000104928
0.000110313
0.000122595
0.000152859
0.000235487
0.00027533
0.000264863
0.00022196
0.000171311
0.000139396
0.000124447
0.000116905
0.000111991
0.000108465
0.000105721
0.000103463
0.000101792
0.000100665
9.98439e-05
9.96117e-05
9.97634e-05
9.99458e-05
0.000100081
0.000100245
9.93493e-05
0.000101865
0.000104219
0.000108924
0.000119298
0.000144353
0.000213284
0.000273562
0.000274216
0.000242235
0.000188317
0.000149533
0.000129354
0.000119653
0.000114142
0.00011006
0.000107156
0.000104702
0.000102768
0.000101377
0.00010032
9.97527e-05
9.9634e-05
9.98077e-05
9.9966e-05
0.000100078
0.000100108
9.90894e-05
0.00010129
0.000103627
0.000107785
0.000116913
0.00013764
0.000190329
0.000268586
0.000278695
0.000260766
0.000207527
0.000161654
0.000135679
0.000123048
0.000116307
0.000111893
0.000108574
0.000106022
0.000103868
0.000102196
0.000101019
0.000100074
9.97324e-05
9.97055e-05
9.98756e-05
9.99931e-05
0.000100088
9.9961e-05
9.88641e-05
0.000100821
0.000103111
0.000106896
0.000115255
0.000132635
0.000171662
0.000257235
0.000284499
0.000272251
0.000225763
0.000176246
0.00014357
0.000127196
0.000118859
0.000113827
0.000110138
0.000107375
0.000105057
0.000103193
0.000101746
0.00010073
9.99588e-05
9.97899e-05
9.98284e-05
9.99738e-05
0.000100034
0.000100106
9.98163e-05
9.86649e-05
0.00010048
0.000102684
0.000106208
0.000114136
0.000129321
0.000159256
0.000240909
0.000286095
0.000281125
0.00024603
0.000192168
0.000153145
0.000132392
0.000121801
0.000115995
0.000111795
0.000108797
0.000106368
0.000104272
0.000102665
0.000101417
0.0001005
9.9947e-05
9.99286e-05
9.99929e-05
0.000100096
0.000100093
0.000100132
9.96685e-05
9.85027e-05
0.000100271
0.000102364
0.000105709
0.00011339
0.000128478
0.000152478
0.000222593
0.000283997
0.000287103
0.000262615
0.000209432
0.000164758
0.000138449
0.000125384
0.000118181
0.00011375
0.000110284
0.000107763
0.000105544
0.000103679
0.000102232
0.000101176
0.000100394
0.000100011
0.000100183
0.000100259
0.000100265
0.000100165
0.000100162
9.95175e-05
9.83891e-05
0.000100183
0.000102155
0.000105405
0.000112975
0.000128861
0.000149043
0.000204836
0.000278132
0.00029074
0.000277009
0.000226906
0.000177923
0.000145871
0.000129508
0.000120736
0.00011571
0.000111984
0.000109221
0.000106983
0.00010491
0.000103245
0.000101937
0.000101064
0.000100413
0.000100132
0.00010045
0.000100633
0.000100593
0.000100367
0.000100193
9.9362e-05
9.83353e-05
0.000100205
0.000102041
0.000105317
0.000112904
0.000128898
0.000147275
0.000189672
0.000266994
0.000294008
0.000285291
0.000243162
0.000192468
0.000154723
0.000134202
0.000123764
0.00011774
0.000113832
0.000110783
0.000108496
0.000106375
0.000104449
0.000102986
0.000101816
0.00010109
0.000100552
0.000100368
0.000100664
0.000100866
0.000100845
0.000100584
0.000100217
9.91999e-05
9.83554e-05
0.000100329
0.000102027
0.000105444
0.000113219
0.000129165
0.000147492
0.000178868
0.00025361
0.000293667
0.000291154
0.000260231
0.000207032
0.000165015
0.000139824
0.000127015
0.000120033
0.000115754
0.000112463
0.000110065
0.000108025
0.000105964
0.000104177
0.000102804
0.00010184
0.000101316
0.000100951
0.000100843
0.000100978
0.000101094
0.000101285
8.80922e-05
0.000100222
9.9036e-05
9.84555e-05
0.000100545
0.000102128
0.0001058
0.000114098
0.000130211
0.000148519
0.000170971
0.000238947
0.000291534
0.000294432
0.000273461
0.000222529
0.000176401
0.000146333
0.000130785
0.000122436
0.000117647
0.000114288
0.000111681
0.000109736
0.000107818
0.000105879
0.000104179
0.000102754
0.000101919
0.000101634
0.000101624
0.000101753
0.000101905
0.000101859
9.52487e-05
8.96931e-05
6.99178e-05
8.18086e-05
6.83343e-05
0.000100208
9.88766e-05
9.86469e-05
0.000100828
0.000102363
0.000106482
0.000115717
0.00013184
0.000148942
0.000167646
0.000224629
0.000286039
0.000295745
0.000284384
0.000237248
0.000188906
0.000153964
0.000134912
0.000125141
0.000119566
0.000116175
0.000113432
0.000111473
0.00010979
0.00010798
0.000106131
0.000104467
0.000103009
0.000102246
0.000102128
0.000102363
0.000102702
0.000102313
0.000100362
8.74385e-05
9.55231e-05
8.16502e-05
7.92528e-05
6.01436e-05
6.33433e-05
5.99385e-05
0.000100174
9.87467e-05
9.8952e-05
0.000101149
0.00010278
0.000107502
0.000118064
0.000133876
0.000149353
0.000166301
0.000210425
0.000276407
0.000296606
0.000290057
0.000250311
0.000201659
0.000162755
0.000139616
0.000128032
0.000121595
0.000117924
0.000115283
0.000113334
0.000111842
0.000110319
0.000108546
0.000106867
0.000105218
0.000103703
0.000103011
0.000102928
0.000103168
9.91629e-05
9.77437e-05
8.9526e-05
7.51204e-05
7.61957e-05
7.01751e-05
6.37023e-05
5.30943e-05
5.74455e-05
5.14578e-05
0.000100116
9.86607e-05
9.93771e-05
0.000101505
0.000103412
0.000108983
0.000120867
0.000135968
0.000149828
0.000164974
0.000198952
0.000264557
0.000296673
0.000293327
0.000263383
0.000214151
0.000172267
0.000145148
0.000131027
0.000123777
0.000119576
0.000117088
0.00011527
0.000114005
0.000112861
0.000111447
0.00010971
0.000108241
0.000106679
0.000105337
0.000104466
0.000104134
9.61339e-05
9.33405e-05
8.43275e-05
8.3317e-05
7.48975e-05
6.2074e-05
6.63864e-05
5.93028e-05
5.55783e-05
4.66353e-05
5.02385e-05
4.49755e-05
0.000100033
9.8624e-05
9.98614e-05
0.000101857
0.000104294
0.000111045
0.00012403
0.00013797
0.000150151
0.000163498
0.00018948
0.000251402
0.000294073
0.00029541
0.000274103
0.000226179
0.000182459
0.000151239
0.000134444
0.000125931
0.000121201
0.00011875
0.000117168
0.000116197
0.000115526
0.00011467
0.000113359
0.000111795
0.000110595
0.000108894
0.000107792
0.000106833
9.24963e-05
8.97631e-05
7.80858e-05
7.80976e-05
7.24035e-05
6.95431e-05
6.3871e-05
5.3648e-05
5.66178e-05
5.14753e-05
4.87069e-05
4.11886e-05
4.42521e-05
3.98736e-05
9.99329e-05
9.86361e-05
0.000100371
0.000102232
0.000105451
0.000113864
0.000127221
0.000139673
0.000150173
0.000161632
0.00018284
0.000238417
0.000287939
0.000295275
0.00028184
0.000237544
0.000192724
0.000158249
0.000138073
0.00012807
0.000122758
0.000120076
0.000118901
0.000118304
0.000118199
0.000118023
0.000117414
0.00011604
0.000113462
0.000111613
0.000109998
0.000109009
8.96392e-05
8.76869e-05
7.29803e-05
7.39343e-05
6.60118e-05
6.34825e-05
6.14361e-05
5.87563e-05
5.42907e-05
4.68205e-05
4.91807e-05
4.49908e-05
4.30341e-05
3.66797e-05
3.93551e-05
3.57734e-05
9.98302e-05
9.87029e-05
0.0001009
0.000102717
0.00010693
0.000117045
0.000129926
0.000140963
0.000149759
0.000159534
0.000178689
0.000225355
0.000279837
0.000294233
0.000287009
0.000247618
0.000202677
0.000165846
0.000142127
0.000130193
0.000124266
0.000121248
0.000120272
0.000120209
0.000120761
0.000121371
0.000121301
0.000119716
0.000117671
0.000114195
0.000109956
0.000106867
8.95924e-05
9.36211e-05
6.98118e-05
7.24645e-05
6.06883e-05
5.92946e-05
5.56143e-05
5.28088e-05
5.20167e-05
4.96491e-05
4.69069e-05
4.13155e-05
4.29764e-05
3.96744e-05
3.82223e-05
3.2962e-05
3.53715e-05
3.24245e-05
9.97141e-05
9.88313e-05
0.000101394
0.000103343
0.000108723
0.000120278
0.000132118
0.00014178
0.000149015
0.000157295
0.000174313
0.000212833
0.000270383
0.000292264
0.000289249
0.000257243
0.000212577
0.000173562
0.0001468
0.000132437
0.000125615
0.000122191
0.00012128
0.000121656
0.000123003
0.000124638
0.000124891
0.000123562
0.000121771
0.000117016
0.000110685
9.88873e-05
0.000100937
9.06746e-05
7.33685e-05
8.91715e-05
5.86336e-05
6.16902e-05
5.05272e-05
4.98497e-05
4.69007e-05
4.44201e-05
4.4751e-05
4.25032e-05
4.08525e-05
3.68931e-05
3.78483e-05
3.53655e-05
3.44488e-05
2.99481e-05
3.21904e-05
2.97215e-05
9.96002e-05
9.90338e-05
0.000101846
0.000104104
0.00011086
0.000123263
0.000133759
0.000142039
0.000148088
0.000155112
0.000169973
0.000202548
0.000259935
0.000289379
0.000289224
0.00026608
0.000221799
0.000181739
0.000151859
0.000135042
0.000126817
0.000122954
0.000121994
0.000122586
0.000124696
0.000127239
0.000121183
0.000129071
0.000129145
0.000131094
0.000135694
0.000136475
9.19944e-05
0.000113322
8.7011e-05
8.89027e-05
7.4537e-05
8.5847e-05
5.20431e-05
6.4841e-05
4.31289e-05
4.48558e-05
4.02071e-05
3.84377e-05
3.88764e-05
3.7044e-05
3.5889e-05
3.33473e-05
3.36789e-05
3.1915e-05
3.14432e-05
2.76299e-05
2.97337e-05
2.78059e-05
9.95186e-05
9.92909e-05
0.000102277
0.000105015
0.000113289
0.000125627
0.000134874
0.000141536
0.000146859
0.000152976
0.000165917
0.00019292
0.000249183
0.000285657
0.000288766
0.000272447
0.000230621
0.000189763
0.000157713
0.000137729
0.000128077
0.000123764
0.000122619
0.000123288
0.00012568
0.000125029
0.000115329
0.000127413
0.00014999
0.000167203
0.000190838
0.000246344
0.000190646
0.000301004
0.000120102
0.000218487
9.0671e-05
0.00013264
8.55063e-05
9.31271e-05
5.73983e-05
8.56065e-05
3.94653e-05
5.12358e-05
3.53561e-05
3.57122e-05
3.43179e-05
3.31561e-05
3.21102e-05
3.03344e-05
3.0416e-05
2.90808e-05
2.89519e-05
2.56096e-05
2.77856e-05
2.65026e-05
9.94905e-05
9.95385e-05
0.000102613
0.000106027
0.00011556
0.000127342
0.000135416
0.000140526
0.000145518
0.000151025
0.000162067
0.000185882
0.000238962
0.000281124
0.000287272
0.000277337
0.000238787
0.000197995
0.000163799
0.000140812
0.000129412
0.000124435
0.00012291
0.000123761
0.000126418
0.000123928
0.000112497
0.000124426
0.000166789
0.000224885
0.000304092
0.000405979
0.000387982
0.000489086
0.000328721
0.000423444
0.000244168
0.000348604
0.000145104
0.000262112
9.59315e-05
0.0001551
8.57612e-05
9.86195e-05
4.66028e-05
8.58224e-05
3.31782e-05
4.32449e-05
3.12235e-05
3.13828e-05
2.97502e-05
2.79312e-05
2.82952e-05
2.70755e-05
2.69141e-05
2.40317e-05
2.61718e-05
2.52408e-05
9.95382e-05
9.97111e-05
0.000102926
0.000107127
0.000117602
0.000128734
0.000135424
0.0001394
0.000144305
0.000149173
0.000158459
0.000179947
0.000227724
0.000275666
0.00028596
0.000279936
0.000245899
0.000205851
0.00017036
0.000144681
0.000130851
0.000124832
0.000122844
0.000123618
0.000126781
0.000124803
0.000112071
0.000120794
0.000173922
0.000256659
0.00041123
0.000531458
0.000525527
0.000575644
0.00049155
0.000535384
0.000433849
0.000494894
0.000362936
0.000440759
0.000273751
0.0003716
0.000162548
0.000280599
0.000101048
0.000167975
8.5788e-05
0.000102983
4.08716e-05
8.30679e-05
3.02371e-05
3.85523e-05
2.93419e-05
2.62179e-05
2.80013e-05
2.65609e-05
2.55823e-05
2.32813e-05
2.47159e-05
2.42837e-05
9.97325e-05
9.97795e-05
0.000103255
0.000108327
0.000119422
0.000129708
0.000135022
0.000138425
0.000143176
0.000147325
0.000155168
0.000174355
0.000216824
0.00026937
0.000285546
0.000281263
0.000253138
0.000213556
0.000177299
0.000149427
0.000132554
0.000125306
0.000122739
0.000123286
0.000126093
0.000127363
0.00011377
0.000119161
0.000174598
0.00026527
0.000472401
0.000590903
0.000597506
0.000563376
0.000586419
0.000531345
0.000554285
0.000495723
0.000526233
0.000444981
0.000495941
0.000376585
0.000446621
0.000284892
0.000378921
0.000171715
0.00028729
0.000104254
0.000173768
7.98817e-05
0.000104534
3.70696e-05
7.59243e-05
3.55036e-05
2.54992e-05
3.34733e-05
3.05999e-05
2.48789e-05
2.34545e-05
2.34818e-05
2.43158e-05
0.000100358
9.98845e-05
0.000103554
0.000109603
0.000120677
0.000130184
0.000134449
0.000137777
0.000142042
0.000145568
0.000152267
0.000169429
0.00020715
0.000262515
0.000284959
0.000282195
0.000259928
0.000220926
0.000184449
0.000154935
0.00013492
0.000126069
0.000122614
0.000122921
0.000125372
0.000131195
0.000115832
0.000115403
0.000171215
0.000263812
0.000487435
0.000627131
0.000618993
0.000577106
0.000585238
0.000567085
0.000572794
0.000543118
0.000551247
0.000523978
0.000536511
0.000494021
0.000520514
0.00044702
0.00049152
0.000379538
0.000445769
0.0002881
0.000378265
0.000174276
0.000287437
0.000103223
0.000172255
7.22445e-05
0.000100548
6.79495e-05
2.78136e-05
6.24373e-05
5.30387e-05
2.48233e-05
2.42145e-05
2.36219e-05
2.47837e-05
0.000102369
0.000100681
0.000103931
0.000110443
0.000121037
0.000130107
0.000133816
0.000137302
0.000140864
0.000144018
0.000149877
0.000165345
0.000198897
0.000255379
0.000284168
0.000283335
0.000265702
0.000227966
0.000191918
0.000160624
0.000138344
0.000127144
0.000122564
0.000122552
0.000124574
0.000129756
0.000119584
0.000112692
0.000161082
0.000252479
0.000479788
0.000654836
0.000636918
0.000594487
0.000609784
0.000565378
0.000573982
0.000555451
0.000560832
0.00054263
0.000543007
0.000530496
0.000533836
0.000516442
0.000527026
0.000489079
0.000514319
0.000443271
0.000486952
0.000375693
0.000440425
0.000285475
0.000372468
0.00016633
0.000280146
9.66573e-05
0.000157409
9.26622e-05
4.23049e-05
8.78162e-05
8.04506e-05
3.09984e-05
2.47778e-05
2.56821e-05
2.49497e-05
0.00011649
0.000103959
0.000104808
0.000110708
0.000120428
0.000129138
0.000133108
0.000136712
0.000139696
0.000142598
0.000147966
0.000162122
0.000192174
0.000248471
0.000283806
0.000284565
0.00027055
0.000235047
0.000199197
0.000167243
0.000142979
0.000128317
0.000122726
0.000122188
0.000123796
0.000128603
0.000125433
0.000113504
0.000151006
0.000225373
0.000449882
0.000676685
0.000668882
0.00061857
0.000585541
0.000595039
0.000552067
0.000563399
0.000543341
0.000544952
0.000530794
0.000528631
0.000527925
0.000524671
0.000525584
0.000527702
0.000513675
0.000528474
0.000485784
0.000517818
0.000438294
0.000489074
0.000369502
0.000437821
0.00027153
0.000363381
0.000147543
0.000261571
0.000137334
7.29622e-05
0.000124184
0.000108663
6.53241e-05
2.58696e-05
3.7396e-05
2.58941e-05
0.000110845
0.000107345
0.000110383
0.000118607
0.000126951
0.000132023
0.000135988
0.000138665
0.000141328
0.000146449
0.000159645
0.000186919
0.000242224
0.000283087
0.000286
0.000275578
0.000242062
0.000206463
0.000174473
0.000148448
0.000130484
0.000123311
0.000122042
0.000123272
0.000127773
0.000132118
0.000117304
0.000130529
0.000197323
0.000383779
0.000683107
0.00071883
0.000655109
0.000588448
0.000598641
0.000573417
0.000581129
0.000543341
0.000552815
0.000529511
0.000534707
0.00052106
0.000519223
0.000524707
0.000518994
0.000532487
0.000528832
0.000535123
0.000541959
0.000524472
0.000549448
0.000494703
0.000540593
0.000441449
0.000503974
0.000357417
0.000440893
0.000249786
0.000351929
0.000232783
9.41886e-05
0.000208597
0.000178255
7.86487e-05
2.96918e-05
5.91902e-05
3.29863e-05
0.000116818
0.000111933
0.000117364
0.000124421
0.000130448
0.000134914
0.000137793
0.000140254
0.000145295
0.000157825
0.00018305
0.000236632
0.000281828
0.000288869
0.000279861
0.000248382
0.000214216
0.000181913
0.00015469
0.000135072
0.000124152
0.000122447
0.000123185
0.000126976
0.000134108
0.000124873
0.000121568
0.000172696
0.000312171
0.000668537
0.000764752
0.000710726
0.000609432
0.00063351
0.000554755
0.000550121
0.000558404
0.000558653
0.000531786
0.000535691
0.000520466
0.000524774
0.000513364
0.000509491
0.000520639
0.000510068
0.000535205
0.000520131
0.000550335
0.000531554
0.000558735
0.000542861
0.00055385
0.0005562
0.000518994
0.000564732
0.000443161
0.000524627
0.000343725
0.000445292
0.000330828
0.00014829
0.000311759
0.000284377
0.000115167
7.1973e-05
6.88085e-05
4.53399e-05
0.00012269
0.000118664
0.000123478
0.000128916
0.000133213
0.000136818
0.000139394
0.000144495
0.000156615
0.000180514
0.00023158
0.000280167
0.00029295
0.000284368
0.000256444
0.000221245
0.000189914
0.000161997
0.00014087
0.000126131
0.000123182
0.000123574
0.00012667
0.000133533
0.000132748
0.000124395
0.000156255
0.000249748
0.000604293
0.000780228
0.000792485
0.000644924
0.000549974
0.000547312
0.000516692
0.000505192
0.000535717
0.000528779
0.000510603
0.000512081
0.000508055
0.00050845
0.000500517
0.000491927
0.00050419
0.000488308
0.000508595
0.000486341
0.000511507
0.000481018
0.000526402
0.000487416
0.00055147
0.000510269
0.0005678
0.000547147
0.000529088
0.000570049
0.000442728
0.000534817
0.000434591
0.000244825
0.000361584
0.000425546
0.000413206
0.000331417
0.000401064
0.0002077
0.000133338
4.43276e-05
0.000172794
7.04809e-05
0.000128835
9.0795e-05
5.93346e-05
4.85323e-05
0.00012889
0.000125138
0.000128942
0.000132147
0.000135351
0.000138491
0.00014398
0.000155912
0.000178941
0.000226885
0.000278701
0.000297179
0.000289189
0.00026437
0.00022877
0.000197839
0.000170358
0.000147184
0.000131121
0.000124891
0.000124285
0.000127079
0.000133545
0.000139557
0.000129985
0.000148358
0.000200633
0.000469544
0.000771863
0.000854517
0.000755405
0.000512229
0.000550882
0.00049953
0.000500421
0.000480112
0.000463993
0.000508869
0.000496512
0.000483546
0.000483288
0.000486127
0.00048374
0.000474133
0.000463808
0.000467284
0.000451764
0.000454463
0.000438225
0.000449876
0.000424999
0.00046296
0.000420528
0.000498668
0.000435053
0.000543239
0.000518974
0.000482347
0.000561236
0.000574027
0.000542856
0.000567143
0.000491204
0.000534189
0.000573487
0.000561682
0.00057522
0.000530229
0.000527655
0.000479332
0.000282849
0.000361758
0.000382458
0.000472446
0.000461598
0.000447476
0.000255111
5.33618e-05
4.84709e-05
0.000215879
0.000167096
0.000115286
7.46809e-05
0.000137069
0.000131109
0.000132388
0.000134615
0.00013766
0.000143648
0.000155588
0.000177977
0.000222673
0.000277131
0.000302301
0.000295013
0.000271926
0.000236639
0.000205658
0.000179573
0.000155024
0.000138156
0.000129851
0.000126172
0.000127919
0.000134175
0.000140959
0.000135054
0.000137719
0.000167619
0.000342258
0.000742568
0.000868988
0.000863844
0.000588407
0.000661681
0.000464221
0.000489785
0.000454622
0.000453429
0.000455215
0.000440712
0.000479543
0.000469591
0.000452304
0.000452108
0.000457253
0.000453346
0.000442465
0.000438808
0.000432431
0.000440283
0.000421455
0.000441647
0.000402514
0.000420562
0.000386568
0.000381531
0.000445824
0.000402688
0.000378343
0.000359008
0.000511712
0.000463244
0.00047329
0.000429839
0.000567347
0.000507169
0.000544899
0.000561997
0.000567056
0.000575197
0.000567671
0.000559874
0.000555909
0.000520972
0.000334563
0.000407939
0.000429786
0.000512845
0.000502044
0.000488223
0.000302165
5.76264e-05
4.50156e-05
6.30225e-05
5.3426e-05
0.000260551
0.000209177
0.000150573
9.77013e-05
0.000144323
0.000135259
0.00013496
0.000137625
0.000143676
0.000155867
0.000177555
0.000218866
0.000274788
0.000307523
0.000301986
0.000280861
0.000244875
0.000213848
0.000189231
0.000164452
0.000147434
0.000138043
0.000131935
0.000130749
0.000135872
0.000142205
0.000139668
0.000138818
0.00015336
0.00025294
0.000671967
0.000871219
0.000939468
0.000739117
0.000528369
0.000567296
0.000443131
0.000460952
0.000432906
0.000431441
0.000434763
0.000427165
0.000450722
0.00044497
0.000436707
0.000433176
0.000436484
0.000436651
0.000452215
0.000463265
0.000464244
0.000485919
0.000451741
0.000473297
0.000411841
0.000441147
0.00035788
0.000367923
0.000382273
0.00040374
0.000389279
0.000359785
0.000346243
0.000345332
0.000458683
0.000406717
0.000417118
0.000374656
0.000544255
0.000452409
0.000504294
0.000574484
0.000543865
0.00056777
0.000544211
0.000572784
0.00057005
0.000550288
0.000380746
0.00047086
0.000449158
0.000542782
0.000533022
0.000520473
0.000346819
5.17981e-05
4.52369e-05
7.35417e-05
0.000124917
0.000303928
0.000251206
0.000188943
0.000149324
0.000137561
0.000138213
0.000143946
0.000156209
0.000177538
0.000215617
0.000271251
0.000310886
0.00030916
0.000290918
0.000253614
0.000222869
0.000198746
0.000175673
0.000160346
0.000148293
0.000141355
0.000137523
0.000141064
0.000144756
0.000144599
0.000145331
0.000150878
0.000195425
0.000500633
0.000809392
0.000971042
0.000916197
0.000568852
0.000657574
0.000486362
0.000521865
0.000452264
0.00046949
0.000426361
0.00043026
0.000411021
0.000411294
0.000428393
0.000421454
0.000470292
0.000458317
0.000471757
0.000475109
0.000499033
0.000509355
0.000489298
0.000503854
0.000465884
0.000478859
0.00041678
0.000433673
0.000443015
0.000453036
0.000357931
0.000374438
0.000391416
0.000409518
0.000345716
0.000332963
0.00033364
0.000346845
0.00039743
0.000361377
0.000349732
0.000332766
0.000502101
0.000389725
0.000447719
0.000567747
0.000501434
0.000545411
0.000502761
0.000567636
0.000567027
0.000566171
0.000421961
0.000504348
0.000483712
0.000560568
0.000552946
0.000542629
0.000387583
4.65821e-05
8.71181e-05
4.73134e-05
0.000153616
0.000226296
0.000344299
0.000290722
0.000150122
0.0001408
0.000144857
0.000156849
0.000177585
0.000212799
0.000267522
0.00031256
0.000317984
0.000300857
0.000263567
0.000231666
0.000208677
0.000189445
0.000174983
0.000162321
0.00015372
0.000151479
0.000150299
0.000150772
0.000145762
0.000148833
0.000152664
0.00016584
0.000348947
0.000736156
0.000970886
0.00103614
0.000776203
0.000518649
0.000568168
0.00048656
0.000497203
0.000473068
0.000499014
0.000415329
0.000430105
0.000408447
0.000407442
0.000444592
0.000427398
0.000519387
0.000509329
0.000515485
0.000519964
0.000517206
0.000529646
0.000483689
0.000483653
0.000455784
0.000460896
0.00045749
0.000423274
0.000430797
0.000437423
0.000442255
0.000363094
0.000380943
0.0003983
0.000410652
0.000320617
0.000322489
0.00033489
0.000350995
0.000339704
0.00032062
0.000309646
0.000308786
0.000444952
0.000331489
0.000384144
0.000547406
0.000444656
0.000505701
0.000447179
0.000549712
0.000552088
0.000565747
0.000457326
0.000528733
0.000510208
0.000563434
0.000559538
0.000553397
0.000423398
4.21543e-05
0.000181292
0.000101227
4.96281e-05
0.000260596
0.000326626
0.000380376
0.000151841
0.000147369
0.000158003
0.00017796
0.000210841
0.000263392
0.00031356
0.000327708
0.000311818
0.000275441
0.000241113
0.000218826
0.000205056
0.000190494
0.000179918
0.000171776
0.00016796
0.000163353
0.000154982
0.000143399
0.000146653
0.000154967
0.00015616
0.000266895
0.000659578
0.000900745
0.00106927
0.00101052
0.000586951
0.000739563
0.000480342
0.000523324
0.000507294
0.00048951
0.000496421
0.000531251
0.000413424
0.000435686
0.000432
0.000422265
0.000490733
0.000462681
0.000554342
0.000544704
0.000540878
0.000551874
0.000481351
0.000488225
0.000454475
0.00044951
0.000445235
0.000447696
0.000429289
0.000430758
0.000419165
0.000424944
0.000427314
0.0004286
0.000368738
0.000385323
0.000397273
0.000406799
0.000311466
0.000322903
0.00033843
0.000355226
0.000299784
0.000297338
0.000286302
0.000300471
0.000381033
0.000291175
0.000325327
0.000510174
0.000380964
0.000451949
0.000384071
0.000516133
0.000522908
0.000553884
0.000485844
0.000543408
0.000528342
0.000554751
0.000553838
0.000551443
0.00045359
3.6359e-05
0.000290772
0.000206125
0.00011419
5.03443e-05
0.000358215
0.000411658
0.000155886
0.000160205
0.000178351
0.000209492
0.000259699
0.00031388
0.000337452
0.000323607
0.000289547
0.000251327
0.000229847
0.000218663
0.000206405
0.000197127
0.000189529
0.000180383
0.000176567
0.000172627
0.000167931
0.000161079
0.000158335
0.000157398
0.000213071
0.000505854
0.000797751
0.00107373
0.00115502
0.000913129
0.000513167
0.000645305
0.000435412
0.000453238
0.000529844
0.000483363
0.000523571
0.000551711
0.000427602
0.000452742
0.000460838
0.00044599
0.000525703
0.000495995
0.000553978
0.000551042
0.000513805
0.000540089
0.000441543
0.000430603
0.000427328
0.000424496
0.000417958
0.000421455
0.000429964
0.00043071
0.000422017
0.000422152
0.000411623
0.000413784
0.00041529
0.000416964
0.00037087
0.00038403
0.000393211
0.000398507
0.000311133
0.000325541
0.000340911
0.000356088
0.000275551
0.000289846
0.00027854
0.000299702
0.000321488
0.00026545
0.000284027
0.000459383
0.000320528
0.000390103
0.000322638
0.00046937
0.00048117
0.000529921
0.000506795
0.00054648
0.000537206
0.000536364
0.00054057
0.000542318
0.000477562
1.60841e-05
0.000385298
0.000316311
0.000226938
0.000123546
4.83392e-05
0.000437929
0.000165725
0.000179553
0.00020915
0.000256462
0.000313286
0.000345548
0.000336111
0.000304887
0.000263928
0.000240033
0.000232245
0.000218014
0.000206663
0.000192785
0.000184812
0.000181308
0.000178769
0.000176076
0.000171285
0.000167322
0.000160955
0.000183422
0.000356499
0.000679354
0.00100344
0.00121532
0.00113714
0.000681533
0.00083273
0.000416834
0.00054506
0.00037243
0.000363319
0.000538379
0.000453711
0.000546232
0.000558925
0.000451034
0.000479697
0.000468326
0.000457866
0.00053459
0.000504357
0.000514303
0.000521269
0.000448926
0.000487924
0.00040492
0.000400731
0.000421186
0.000418959
0.000410068
0.000415387
0.000418851
0.00042114
0.000418596
0.000417886
0.000401503
0.000403682
0.000405656
0.000408272
0.000369619
0.000378818
0.000385965
0.00038999
0.000312682
0.000326789
0.000341105
0.000354104
0.000266447
0.000288674
0.000276749
0.000300036
0.000278937
0.000254059
0.000256873
0.000399883
0.000276087
0.000328207
0.000275591
0.000413236
0.000429523
0.000494262
0.000520545
0.000540574
0.000535658
0.00050736
0.000518766
0.000526875
0.00049524
5.79559e-06
0.000458936
0.000407691
0.000336857
0.000242282
0.000125612
4.15521e-05
0.000182659
0.000209682
0.000253617
0.000311752
0.000351246
0.000349086
0.00032204
0.000277228
0.000251724
0.000242161
0.000226519
0.000207609
0.000187037
0.000189647
0.000185683
0.000179691
0.000174817
0.000177203
0.000177779
0.000169706
0.000177656
0.000279237
0.000578866
0.000898644
0.00122033
0.00128804
0.000965283
0.000536827
0.000673438
0.000295201
0.000406216
0.000289363
0.000252641
0.000521661
0.000392819
0.000550579
0.000545766
0.000466549
0.000500367
0.00046688
0.000464801
0.000510149
0.000486747
0.000480834
0.000491666
0.000418133
0.000455494
0.000397587
0.000385313
0.00037529
0.000374182
0.000418646
0.000417254
0.000407047
0.000413631
0.000411269
0.000414905
0.000417009
0.000415082
0.000392281
0.00039496
0.000397743
0.00040117
0.000363945
0.000372101
0.000377614
0.000381168
0.000312375
0.000325383
0.000337919
0.000348146
0.000263526
0.000287591
0.000274111
0.000298409
0.000250028
0.000248996
0.000242303
0.000338359
0.000244949
0.000278068
0.000242032
0.000353157
0.000372222
0.000448125