/*--------------------------------*- C++ -*----------------------------------*\
  =========                 |
  \\      /  F ield         | OpenFOAM: The Open Source CFD Toolbox
   \\    /   O peration     | Website:  https://openfoam.org
    \\  /    A nd           | Version:  dev
     \\/     M anipulation  |
\*---------------------------------------------------------------------------*/
FoamFile
{
    version     2.0;
    format      ascii;
    class       volScalarField;
    location    "2500";
    object      O2;
}
// * * * * * * * * * * * * * * * * * * * * * * * * * * * * * * * * * * * * * //

dimensions      [0 0 0 0 0 0 0];

internalField   nonuniform List<scalar> 
9967
(
0.23301
0.23301
0.23301
0.23301
0.23301
0.23301
0.23301
0.23301
0.23301
0.23301
0.23301
0.23301
0.23301
0.23301
0.23301
0.23301
0.23301
0.23301
0.23301
0.23301
0.23301
0.23301
0.23301
0.23301
0.23301
0.23301
0.23301
0.23301
0.23301
0.23301
0.23301
0.23301
0.23301
0.23301
0.23301
0.23301
0.23301
0.23301
0.23301
0.23301
0.23301
0.23301
0.23301
0.23301
0.23301
0.23301
0.23301
0.23301
0.23301
0.23301
0.23301
0.23301
0.23301
0.23301
0.23301
0.23301
0.23301
0.23301
0.23301
0.23301
0.23301
0.23301
0.23301
0.23301
0.23301
0.23301
0.23301
0.23301
0.23301
0.23301
0.23301
0.23301
0.23301
0.23301
0.23301
0.23301
0.23301
0.23301
0.23301
0.23301
0.23301
0.23301
0.23301
0.23301
0.23301
0.23301
0.23301
0.23301
0.23301
0.23301
0.23301
0.23301
0.23301
0.23301
0.23301
0.23301
0.23301
0.23301
0.23301
0.23301
0.23301
0.23301
0.23301
0.23301
0.23301
0.23301
0.23301
0.23301
0.23301
0.23301
0.23301
0.23301
0.23301
0.23301
0.23301
0.23301
0.23301
0.23301
0.23301
0.23301
0.23301
0.23301
0.23301
0.23301
0.23301
0.23301
0.23301
0.23301
0.23301
0.23301
0.23301
0.23301
0.23301
0.23301
0.23301
0.23301
0.23301
0.23301
0.23301
0.23301
0.23301
0.23301
0.23301
0.23301
0.23301
0.23301
0.23301
0.23301
0.23301
0.23301
0.23301
0.23301
0.23301
0.23301
0.23301
0.23301
0.23301
0.23301
0.23301
0.23301
0.23301
0.23301
0.23301
0.23301
0.23301
0.23301
0.23301
0.23301
0.23301
0.23301
0.23301
0.23301
0.23301
0.23301
0.23301
0.23301
0.23301
0.23301
0.23301
0.23301
0.23301
0.23301
0.23301
0.23301
0.23301
0.23301
0.23301
0.23301
0.23301
0.23301
0.23301
0.23301
0.23301
0.23301
0.23301
0.23301
0.23301
0.23301
0.23301
0.23301
0.23301
0.23301
0.23301
0.23301
0.23301
0.23301
0.23301
0.23301
0.23301
0.23301
0.23301
0.23301
0.23301
0.23301
0.23301
0.23301
0.23301
0.23301
0.23301
0.23301
0.23301
0.23301
0.23301
0.23301
0.23301
0.23301
0.23301
0.23301
0.23301
0.23301
0.23301
0.23301
0.23301
0.23301
0.23301
0.23301
0.23301
0.23301
0.23301
0.23301
0.23301
0.23301
0.23301
0.23301
0.23301
0.23301
0.23301
0.23301
0.23301
0.23301
0.23301
0.23301
0.23301
0.23301
0.23301
0.23301
0.23301
0.23301
0.23301
0.23301
0.23301
0.23301
0.23301
0.23301
0.23301
0.23301
0.23301
0.23301
0.23301
0.23301
0.23301
0.23301
0.23301
0.23301
0.23301
0.23301
0.23301
0.23301
0.23301
0.23301
0.23301
0.23301
0.23301
0.23301
0.23301
0.23301
0.23301
0.23301
0.23301
0.23301
0.23301
0.23301
0.23301
0.23301
0.23301
0.23301
0.23301
0.23301
0.23301
0.23301
0.23301
0.23301
0.23301
0.23301
0.23301
0.23301
0.23301
0.23301
0.23301
0.23301
0.23301
0.23301
0.23301
0.23301
0.23301
0.23301
0.23301
0.23301
0.23301
0.23301
0.23301
0.23301
0.23301
0.23301
0.23301
0.23301
0.23301
0.23301
0.23301
0.23301
0.23301
0.23301
0.23301
0.23301
0.23301
0.23301
0.23301
0.23301
0.23301
0.23301
0.23301
0.23301
0.23301
0.23301
0.23301
0.23301
0.23301
0.23301
0.23301
0.23301
0.23301
0.23301
0.23301
0.23301
0.23301
0.23301
0.23301
0.23301
0.23301
0.23301
0.23301
0.23301
0.23301
0.23301
0.23301
0.23301
0.23301
0.23301
0.23301
0.23301
0.23301
0.23301
0.23301
0.23301
0.23301
0.23301
0.23301
0.23301
0.23301
0.23301
0.23301
0.23301
0.23301
0.23301
0.23301
0.23301
0.23301
0.23301
0.23301
0.23301
0.23301
0.23301
0.23301
0.23301
0.23301
0.23301
0.23301
0.23301
0.23301
0.23301
0.23301
0.23301
0.23301
0.23301
0.23301
0.23301
0.23301
0.23301
0.23301
0.23301
0.23301
0.23301
0.23301
0.23301
0.23301
0.23301
0.23301
0.23301
0.23301
0.23301
0.23301
0.23301
0.23301
0.23301
0.23301
0.23301
0.23301
0.23301
0.23301
0.23301
0.23301
0.23301
0.23301
0.23301
0.23301
0.23301
0.23301
0.23301
0.23301
0.23301
0.23301
0.23301
0.23301
0.23301
0.23301
0.23301
0.23301
0.23301
0.23301
0.23301
0.23301
0.23301
0.23301
0.23301
0.23301
0.23301
0.23301
0.23301
0.23301
0.23301
0.23301
0.23301
0.23301
0.23301
0.23301
0.23301
0.23301
0.23301
0.23301
0.23301
0.23301
0.23301
0.23301
0.23301
0.23301
0.23301
0.23301
0.23301
0.23301
0.23301
0.23301
0.23301
0.23301
0.23301
0.23301
0.23301
0.23301
0.23301
0.23301
0.23301
0.23301
0.23301
0.23301
0.23301
0.23301
0.23301
0.23301
0.23301
0.23301
0.23301
0.23301
0.23301
0.23301
0.23301
0.23301
0.23301
0.23301
0.23301
0.23301
0.23301
0.23301
0.23301
0.23301
0.23301
0.23301
0.23301
0.23301
0.23301
0.23301
0.23301
0.23301
0.23301
0.23301
0.23301
0.23301
0.23301
0.23301
0.23301
0.23301
0.23301
0.23301
0.23301
0.23301
0.23301
0.23301
0.23301
0.23301
0.23301
0.23301
0.23301
0.23301
0.23301
0.23301
0.23301
0.23301
0.23301
0.23301
0.23301
0.23301
0.23301
0.23301
0.23301
0.23301
0.23301
0.23301
0.23301
0.23301
0.23301
0.23301
0.23301
0.23301
0.23301
0.23301
0.23301
0.23301
0.23301
0.23301
0.23301
0.23301
0.23301
0.23301
0.23301
0.23301
0.23301
0.23301
0.23301
0.23301
0.23301
0.23301
0.23301
0.23301
0.23301
0.23301
0.23301
0.23301
0.23301
0.23301
0.23301
0.23301
0.23301
0.23301
0.23301
0.23301
0.23301
0.23301
0.23301
0.23301
0.23301
0.23301
0.23301
0.23301
0.23301
0.23301
0.23301
0.23301
0.23301
0.23301
0.23301
0.23301
0.23301
0.23301
0.23301
0.23301
0.23301
0.23301
0.23301
0.23301
0.23301
0.23301
0.23301
0.23301
0.23301
0.23301
0.23301
0.23301
0.23301
0.23301
0.23301
0.23301
0.23301
0.23301
0.23301
0.23301
0.23301
0.23301
0.23301
0.23301
0.23301
0.23301
0.23301
0.23301
0.23301
0.23301
0.23301
0.23301
0.23301
0.23301
0.23301
0.23301
0.23301
0.23301
0.23301
0.23301
0.23301
0.23301
0.23301
0.23301
0.23301
0.23301
0.23301
0.23301
0.23301
0.23301
0.23301
0.23301
0.23301
0.23301
0.23301
0.23301
0.23301
0.23301
0.23301
0.23301
0.23301
0.23301
0.23301
0.23301
0.23301
0.23301
0.23301
0.23301
0.23301
0.23301
0.23301
0.23301
0.23301
0.23301
0.23301
0.23301
0.23301
0.23301
0.23301
0.23301
0.23301
0.23301
0.23301
0.23301
0.23301
0.23301
0.23301
0.23301
0.23301
0.23301
0.23301
0.23301
0.23301
0.23301
0.23301
0.23301
0.23301
0.23301
0.23301
0.23301
0.23301
0.23301
0.23301
0.23301
0.23301
0.23301
0.23301
0.23301
0.23301
0.23301
0.23301
0.23301
0.23301
0.23301
0.23301
0.23301
0.23301
0.23301
0.23301
0.23301
0.23301
0.23301
0.23301
0.23301
0.23301
0.23301
0.23301
0.23301
0.23301
0.23301
0.23301
0.23301
0.23301
0.23301
0.23301
0.23301
0.23301
0.23301
0.23301
0.23301
0.23301
0.23301
0.23301
0.23301
0.23301
0.23301
0.23301
0.23301
0.23301
0.23301
0.23301
0.23301
0.23301
0.23301
0.23301
0.23301
0.23301
0.23301
0.23301
0.23301
0.23301
0.23301
0.23301
0.23301
0.23301
0.23301
0.23301
0.23301
0.23301
0.23301
0.23301
0.23301
0.23301
0.23301
0.23301
0.23301
0.23301
0.23301
0.23301
0.23301
0.23301
0.23301
0.23301
0.23301
0.23301
0.23301
0.23301
0.23301
0.23301
0.23301
0.23301
0.23301
0.23301
0.23301
0.23301
0.23301
0.23301
0.23301
0.23301
0.23301
0.23301
0.23301
0.23301
0.23301
0.23301
0.23301
0.23301
0.23301
0.23301
0.23301
0.23301
0.23301
0.23301
0.23301
0.23301
0.23301
0.23301
0.23301
0.23301
0.23301
0.23301
0.23301
0.23301
0.23301
0.23301
0.23301
0.23301
0.23301
0.23301
0.23301
0.23301
0.23301
0.23301
0.23301
0.23301
0.23301
0.23301
0.23301
0.23301
0.23301
0.23301
0.23301
0.23301
0.23301
0.23301
0.23301
0.23301
0.23301
0.23301
0.23301
0.23301
0.23301
0.23301
0.23301
0.23301
0.23301
0.23301
0.23301
0.23301
0.23301
0.23301
0.23301
0.23301
0.23301
0.23301
0.23301
0.23301
0.23301
0.23301
0.233009
0.233008
0.233006
0.233007
0.233009
0.233008
0.23301
0.233009
0.23301
0.23301
0.23301
0.23301
0.23301
0.23301
0.23301
0.23301
0.23301
0.23301
0.23301
0.23301
0.23301
0.23301
0.23301
0.23301
0.23301
0.23301
0.23301
0.23301
0.23301
0.23301
0.23301
0.23301
0.23301
0.23301
0.23301
0.23301
0.23301
0.23301
0.23301
0.23301
0.23301
0.23301
0.23301
0.23301
0.23301
0.23301
0.23301
0.23301
0.23301
0.233009
0.233006
0.232997
0.232986
0.23298
0.233003
0.232986
0.233008
0.233001
0.233009
0.233007
0.23301
0.233009
0.23301
0.23301
0.23301
0.23301
0.23301
0.23301
0.23301
0.23301
0.23301
0.23301
0.23301
0.23301
0.23301
0.23301
0.23301
0.23301
0.23301
0.23301
0.23301
0.23301
0.23301
0.23301
0.23301
0.23301
0.23301
0.23301
0.23301
0.23301
0.23301
0.23301
0.23301
0.23301
0.23301
0.23301
0.23301
0.23301
0.23301
0.23301
0.23301
0.233007
0.232998
0.232969
0.232898
0.232823
0.232935
0.232782
0.232981
0.232915
0.233
0.232976
0.233007
0.232999
0.233009
0.233007
0.23301
0.233009
0.23301
0.23301
0.23301
0.23301
0.23301
0.23301
0.23301
0.23301
0.23301
0.23301
0.23301
0.23301
0.23301
0.23301
0.23301
0.23301
0.23301
0.23301
0.23301
0.23301
0.23301
0.23301
0.23301
0.23301
0.23301
0.23301
0.23301
0.23301
0.23301
0.23301
0.23301
0.23301
0.23301
0.23301
0.23301
0.23301
0.23301
0.233006
0.23298
0.232897
0.23271
0.232354
0.232495
0.232055
0.232739
0.232359
0.232897
0.232687
0.232971
0.232881
0.232998
0.232966
0.233007
0.232997
0.233009
0.233007
0.23301
0.233009
0.23301
0.23301
0.23301
0.23301
0.23301
0.23301
0.23301
0.23301
0.23301
0.23301
0.23301
0.23301
0.23301
0.23301
0.23301
0.23301
0.23301
0.23301
0.23301
0.23301
0.23301
0.23301
0.23301
0.23301
0.23301
0.23301
0.23301
0.23301
0.23301
0.23301
0.23301
0.23301
0.23301
0.23301
0.23301
0.233006
0.232967
0.232793
0.232375
0.231769
0.231656
0.231178
0.231903
0.23142
0.232263
0.231769
0.232642
0.232181
0.232866
0.232604
0.232962
0.232852
0.232996
0.232957
0.233007
0.232995
0.233009
0.233007
0.233009
0.23301
0.23301
0.23301
0.23301
0.23301
0.23301
0.23301
0.23301
0.23301
0.23301
0.23301
0.23301
0.23301
0.23301
0.23301
0.23301
0.23301
0.23301
0.23301
0.23301
0.23301
0.23301
0.23301
0.23301
0.23301
0.23301
0.23301
0.23301
0.23301
0.23301
0.23301
0.23301
0.23301
0.23301
0.233006
0.232964
0.232721
0.232063
0.23109
0.23078
0.230455
0.230933
0.230447
0.231251
0.230721
0.231655
0.231099
0.232108
0.231543
0.232567
0.232037
0.232836
0.232527
0.232952
0.232818
0.232994
0.232948
0.233007
0.232995
0.233007
0.23301
0.233008
0.233008
0.23301
0.23301
0.23301
0.23301
0.23301
0.23301
0.23301
0.23301
0.23301
0.23301
0.23301
0.23301
0.23301
0.23301
0.23301
0.23301
0.23301
0.23301
0.23301
0.23301
0.23301
0.23301
0.23301
0.23301
0.23301
0.23301
0.23301
0.23301
0.23301
0.23301
0.23301
0.233007
0.232967
0.232707
0.231859
0.230637
0.229382
0.230043
0.22949
0.230193
0.229696
0.230533
0.229964
0.230947
0.23034
0.231427
0.23078
0.231955
0.231296
0.23248
0.231858
0.2328
0.232428
0.232945
0.232784
0.232995
0.232944
0.232996
0.233009
0.232999
0.233001
0.233009
0.23301
0.23301
0.23301
0.23301
0.23301
0.23301
0.23301
0.23301
0.23301
0.23301
0.23301
0.23301
0.23301
0.23301
0.23301
0.23301
0.23301
0.23301
0.23301
0.23301
0.23301
0.23301
0.23301
0.23301
0.23301
0.23301
0.23301
0.23301
0.23301
0.23301
0.233008
0.232976
0.232719
0.231825
0.230311
0.229173
0.228635
0.228516
0.229251
0.228885
0.22942
0.228934
0.229739
0.229155
0.230124
0.229481
0.230588
0.229871
0.231139
0.230366
0.231744
0.230955
0.232374
0.231617
0.232773
0.232327
0.232946
0.232767
0.23295
0.233005
0.232959
0.232971
0.233007
0.23301
0.233009
0.23301
0.23301
0.23301
0.23301
0.23301
0.23301
0.23301
0.23301
0.23301
0.23301
0.23301
0.23301
0.23301
0.23301
0.23301
0.23301
0.23301
0.23301
0.23301
0.23301
0.23301
0.23301
0.23301
0.23301
0.23301
0.23301
0.23301
0.23301
0.233009
0.232991
0.23277
0.231855
0.230318
0.229312
0.22854
0.228731
0.228149
0.228179
0.228536
0.228258
0.228632
0.228206
0.228873
0.22832
0.229179
0.228537
0.229581
0.228829
0.230109
0.229254
0.23075
0.229825
0.231489
0.230537
0.232292
0.231378
0.232769
0.232272
0.232783
0.232985
0.232812
0.232856
0.232997
0.23301
0.233005
0.233009
0.23301
0.23301
0.23301
0.23301
0.23301
0.23301
0.23301
0.23301
0.23301
0.23301
0.23301
0.23301
0.23301
0.23301
0.23301
0.23301
0.23301
0.23301
0.23301
0.23301
0.23301
0.23301
0.23301
0.23301
0.23301
0.23301
0.23301
0.23301
0.233001
0.23286
0.231995
0.230412
0.229634
0.22917
0.228371
0.228737
0.227819
0.227997
0.227913
0.227797
0.227871
0.227565
0.227973
0.227511
0.22815
0.227573
0.228445
0.227727
0.228903
0.228042
0.229533
0.228546
0.230337
0.229256
0.231295
0.230169
0.232272
0.231251
0.232306
0.232905
0.232388
0.232509
0.232951
0.23301
0.232988
0.233005
0.23301
0.23301
0.23301
0.23301
0.23301
0.23301
0.23301
0.23301
0.23301
0.23301
0.23301
0.23301
0.23301
0.23301
0.23301
0.23301
0.23301
0.23301
0.23301
0.23301
0.23301
0.23301
0.23301
0.23301
0.23301
0.23301
0.23301
0.233006
0.232933
0.232277
0.230606
0.229887
0.22964
0.229252
0.229636
0.228385
0.228862
0.227579
0.227951
0.227436
0.227447
0.227195
0.227055
0.227115
0.2268
0.227137
0.226687
0.227298
0.226696
0.227648
0.226885
0.228216
0.227292
0.229014
0.227935
0.230046
0.228831
0.23125
0.229976
0.231323
0.232648
0.231486
0.231717
0.23279
0.233009
0.232927
0.232996
0.23301
0.23301
0.23301
0.23301
0.23301
0.23301
0.23301
0.23301
0.23301
0.23301
0.23301
0.23301
0.23301
0.23301
0.23301
0.23301
0.23301
0.23301
0.23301
0.23301
0.23301
0.23301
0.23301
0.23301
0.23301
0.23301
0.233009
0.232978
0.232563
0.230982
0.230064
0.22994
0.229844
0.229993
0.229349
0.229659
0.22844
0.228935
0.22742
0.227893
0.227052
0.227138
0.226649
0.226637
0.22638
0.226219
0.226242
0.225936
0.226275
0.225807
0.226521
0.225887
0.226996
0.226215
0.227719
0.226769
0.228717
0.227588
0.229966
0.228672
0.230045
0.231999
0.230219
0.230493
0.232339
0.233009
0.232769
0.232978
0.23301
0.23301
0.23301
0.23301
0.23301
0.23301
0.23301
0.23301
0.23301
0.23301
0.23301
0.23301
0.23301
0.23301
0.23301
0.23301
0.23301
0.23301
0.23301
0.23301
0.23301
0.23301
0.23301
0.23301
0.23301
0.23301
0.232999
0.232784
0.231503
0.23021
0.230118
0.230115
0.229841
0.229923
0.229275
0.229483
0.228417
0.228908
0.227244
0.227711
0.226685
0.226867
0.226186
0.22621
0.225772
0.225736
0.225552
0.225472
0.225434
0.225284
0.225548
0.225132
0.225967
0.225265
0.226618
0.225772
0.227537
0.226554
0.228711
0.227559
0.228828
0.230899
0.229712
0.228995
0.229149
0.230039
0.229271
0.231297
0.232134
0.233007
0.231672
0.232729
0.232088
0.232514
0.232807
0.232977
0.23301
0.23301
0.23301
0.23301
0.23301
0.23301
0.23301
0.23301
0.23301
0.23301
0.23301
0.23301
0.23301
0.23301
0.23301
0.23301
0.23301
0.23301
0.23301
0.23301
0.23301
0.23301
0.23301
0.23301
0.23301
0.233005
0.232916
0.232049
0.230442
0.230181
0.230379
0.229583
0.229742
0.229551
0.229556
0.228876
0.228954
0.228196
0.228612
0.226883
0.227264
0.226315
0.226558
0.225766
0.225835
0.225505
0.225558
0.225307
0.225395
0.225098
0.225205
0.22486
0.224912
0.225032
0.22459
0.225646
0.225259
0.224845
0.227056
0.226546
0.225591
0.226102
0.228224
0.227646
0.22659
0.227159
0.22661
0.227739
0.227809
0.228422
0.230536
0.229693
0.229487
0.228511
0.228644
0.22881
0.230814
0.232997
0.232944
0.231226
0.231731
0.232252
0.232667
0.23301
0.23301
0.23301
0.23301
0.23301
0.23301
0.23301
0.23301
0.23301
0.23301
0.23301
0.23301
0.23301
0.23301
0.23301
0.23301
0.23301
0.23301
0.23301
0.23301
0.23301
0.23301
0.23301
0.23301
0.233008
0.232977
0.232492
0.230857
0.230224
0.23054
0.230055
0.230421
0.228869
0.229086
0.228926
0.228854
0.228111
0.228119
0.227646
0.227953
0.226298
0.226522
0.225955
0.226112
0.225657
0.225768
0.225581
0.225836
0.225495
0.226016
0.225205
0.2259
0.224722
0.225356
0.224561
0.224359
0.224403
0.224588
0.225158
0.224679
0.224786
0.224442
0.226096
0.225112
0.225604
0.227208
0.22612
0.226696
0.226173
0.227289
0.227396
0.22794
0.229997
0.22925
0.229008
0.228063
0.228212
0.228388
0.230349
0.233002
0.232962
0.232807
0.232889
0.230799
0.231336
0.231926
0.232462
0.23301
0.23301
0.23301
0.23301
0.23301
0.23301
0.23301
0.23301
0.23301
0.23301
0.23301
0.23301
0.23301
0.23301
0.23301
0.23301
0.23301
0.23301
0.23301
0.23301
0.23301
0.23301
0.23301
0.23301
0.232999
0.232772
0.231433
0.230305
0.230525
0.230841
0.229676
0.230321
0.227941
0.228283
0.22802
0.227911
0.227072
0.227066
0.226764
0.22697
0.225984
0.226017
0.225867
0.225935
0.226079
0.226261
0.226602
0.227097
0.226828
0.227852
0.226551
0.227883
0.224978
0.22565
0.226355
0.227236
0.224273
0.224302
0.224541
0.225039
0.224653
0.224266
0.224342
0.224174
0.225613
0.224612
0.225102
0.226772
0.225644
0.226248
0.225703
0.226871
0.226991
0.22752
0.229552
0.228598
0.228851
0.227661
0.227824
0.228013
0.229928
0.232999
0.232947
0.232718
0.232229
0.230396
0.230955
0.23159
0.23301
0.23301
0.23301
0.23301
0.23301
0.23301
0.23301
0.23301
0.23301
0.23301
0.23301
0.23301
0.23301
0.23301
0.23301
0.23301
0.23301
0.23301
0.23301
0.23301
0.23301
0.23301
0.23301
0.233004
0.232914
0.232024
0.230503
0.230414
0.230906
0.230862
0.231217
0.229209
0.230189
0.226958
0.227457
0.226966
0.226887
0.226042
0.22601
0.226034
0.226045
0.226219
0.226084
0.226328
0.226299
0.227493
0.227666
0.228591
0.229044
0.228925
0.229444
0.227883
0.228597
0.228974
0.229411
0.225744
0.226558
0.227377
0.228109
0.224216
0.224488
0.225037
0.225785
0.224198
0.224081
0.223991
0.224123
0.22511
0.224142
0.224592
0.226338
0.225144
0.225785
0.225208
0.226453
0.22659
0.22713
0.229163
0.228235
0.228499
0.227287
0.227466
0.227672
0.22955
0.232998
0.232623
0.23293
0.232003
0.231277
0.230028
0.230604
0.23301
0.23301
0.23301
0.23301
0.23301
0.23301
0.23301
0.23301
0.23301
0.23301
0.23301
0.23301
0.23301
0.23301
0.23301
0.23301
0.23301
0.23301
0.23301
0.23301
0.23301
0.23301
0.233008
0.232974
0.232475
0.230932
0.23038
0.230758
0.231409
0.231066
0.23152
0.228748
0.230123
0.226086
0.226767
0.22595
0.225943
0.225561
0.225385
0.225927
0.225752
0.227232
0.226842
0.227631
0.227499
0.229246
0.229216
0.229662
0.229783
0.229536
0.229687
0.229749
0.228715
0.229165
0.229456
0.229618
0.226622
0.227447
0.228182
0.22878
0.224414
0.224994
0.225763
0.226608
0.223905
0.224023
0.223918
0.22432
0.224595
0.223827
0.224108
0.225889
0.224626
0.225298
0.224692
0.22602
0.226176
0.226746
0.228819
0.227907
0.228184
0.226924
0.227124
0.22735
0.229214
0.232997
0.231807
0.232538
0.232918
0.231003
0.230293
0.229699
0.23301
0.23301
0.23301
0.23301
0.23301
0.23301
0.23301
0.23301
0.23301
0.23301
0.23301
0.23301
0.23301
0.23301
0.23301
0.23301
0.233009
0.233009
0.233009
0.233009
0.233009
0.233008
0.232995
0.232756
0.231513
0.230429
0.230496
0.231132
0.231876
0.23174
0.231344
0.231819
0.228497
0.230198
0.225516
0.226454
0.225281
0.22529
0.225555
0.22518
0.226403
0.225963
0.228094
0.227512
0.229024
0.228625
0.229838
0.229789
0.22979
0.229857
0.229686
0.229726
0.229445
0.229499
0.229207
0.229452
0.229571
0.229629
0.227431
0.228159
0.228747
0.229148
0.224907
0.22568
0.226515
0.227324
0.223813
0.224202
0.224063
0.22478
0.224097
0.223705
0.223761
0.225414
0.224116
0.224786
0.224173
0.225563
0.225739
0.226354
0.228514
0.227604
0.227896
0.226555
0.226783
0.227034
0.228915
0.233001
0.230775
0.231652
0.232477
0.232917
0.230025
0.229411
0.23301
0.23301
0.23301
0.23301
0.23301
0.23301
0.23301
0.23301
0.23301
0.23301
0.23301
0.23301
0.23301
0.23301
0.233008
0.233007
0.233006
0.233006
0.233007
0.233008
0.233008
0.233
0.232899
0.232083
0.230612
0.230363
0.230744
0.231519
0.232173
0.232032
0.231696
0.232154
0.228458
0.230433
0.225274
0.226447
0.224965
0.224969
0.225695
0.225152
0.226922
0.226318
0.228239
0.227565
0.229495
0.228919
0.229927
0.229945
0.229427
0.229438
0.229633
0.229504
0.229622
0.229561
0.228998
0.229076
0.229374
0.229487
0.229497
0.229434
0.228044
0.228619
0.229005
0.229238
0.225534
0.226347
0.227133
0.227834
0.223898
0.224613
0.224416
0.225335
0.223712
0.223742
0.223603
0.224915
0.223689
0.224266
0.223699
0.22508
0.225276
0.225941
0.228239
0.227313
0.227626
0.226171
0.22643
0.226713
0.228651
0.233004
0.229797
0.230595
0.231543
0.232456
0.23293
0.229159
0.23301
0.23301
0.23301
0.23301
0.23301
0.23301
0.23301
0.23301
0.23301
0.23301
0.23301
0.23301
0.233009
0.233005
0.233
0.232997
0.232996
0.232999
0.233002
0.233005
0.233001
0.232957
0.232482
0.231024
0.230358
0.230467
0.231065
0.232014
0.231746
0.232451
0.232252
0.232091
0.232476
0.228714
0.230832
0.225318
0.226819
0.224851
0.224874
0.225621
0.225055
0.226924
0.226292
0.228038
0.227233
0.229639
0.228913
0.229776
0.22998
0.228976
0.228995
0.22932
0.229107
0.229316
0.22919
0.228467
0.228549
0.22933
0.229307
0.229191
0.229026
0.228392
0.228784
0.229029
0.229101
0.226108
0.226861
0.227528
0.228073
0.224188
0.225093
0.224817
0.225817
0.223521
0.223957
0.223581
0.224398
0.223454
0.22376
0.22341
0.224573
0.224789
0.225504
0.227986
0.227024
0.227366
0.225765
0.226058
0.226379
0.228414
0.233007
0.228942
0.22961
0.230463
0.231486
0.232483
0.232957
0.23301
0.23301
0.23301
0.23301
0.23301
0.23301
0.23301
0.23301
0.23301
0.23301
0.233009
0.233006
0.232995
0.232976
0.232961
0.232959
0.23297
0.232982
0.232993
0.232997
0.232972
0.232699
0.231511
0.230424
0.230311
0.230711
0.231549
0.23229
0.232073
0.232699
0.232509
0.232454
0.232751
0.229238
0.231329
0.225632
0.227536
0.224819
0.224934
0.225361
0.224937
0.226544
0.225933
0.227852
0.226948
0.229735
0.228863
0.229223
0.229667
0.229967
0.230068
0.228448
0.228477
0.228865
0.228615
0.228851
0.228687
0.227813
0.227903
0.229064
0.228918
0.228714
0.228494
0.228487
0.228751
0.228818
0.228774
0.226513
0.227138
0.227673
0.228101
0.224519
0.22548
0.225119
0.226108
0.223445
0.224217
0.22372
0.223875
0.223333
0.223396
0.223252
0.224051
0.224281
0.225044
0.22775
0.226728
0.227106
0.225338
0.225668
0.22603
0.2282
0.233009
0.228754
0.229462
0.230374
0.231492
0.232564
0.232985
0.23301
0.23301
0.23301
0.23301
0.23301
0.23301
0.23301
0.23301
0.23301
0.233009
0.233
0.232967
0.232899
0.232843
0.232829
0.232864
0.232916
0.232957
0.232983
0.232971
0.232788
0.231915
0.230633
0.230257
0.230469
0.231193
0.232299
0.232613
0.232402
0.23289
0.232782
0.232709
0.232907
0.22995
0.231834
0.226378
0.228502
0.224879
0.225218
0.225205
0.22503
0.22621
0.225612
0.227894
0.226918
0.230002
0.229065
0.228851
0.2294
0.229918
0.23012
0.227795
0.227852
0.22838
0.228041
0.228275
0.228069
0.227047
0.227135
0.228607
0.228375
0.228107
0.227826
0.228379
0.228454
0.228414
0.228241
0.226686
0.227209
0.227635
0.227914
0.224749
0.225674
0.225238
0.226199
0.223495
0.22439
0.223918
0.22343
0.223301
0.223192
0.223159
0.223542
0.223749
0.224559
0.227524
0.226421
0.22684
0.224891
0.225262
0.225666
0.228004
0.23301
0.228591
0.229346
0.230329
0.231555
0.232695
0.233001
0.23301
0.23301
0.23301
0.23301
0.23301
0.23301
0.23301
0.23301
0.233007
0.232987
0.232899
0.232719
0.232555
0.232509
0.232588
0.232724
0.232857
0.232943
0.232957
0.232801
0.232121
0.230894
0.230267
0.230338
0.230932
0.232006
0.232902
0.23277
0.232819
0.232881
0.23297
0.232941
0.232851
0.232968
0.230723
0.23226
0.227534
0.229571
0.225207
0.225966
0.22556
0.225572
0.2262
0.225744
0.228502
0.227593
0.230325
0.230147
0.229129
0.229741
0.2284
0.229108
0.229816
0.230234
0.227037
0.227124
0.227806
0.227375
0.22756
0.227319
0.226204
0.226277
0.22799
0.22769
0.227358
0.227029
0.228007
0.227981
0.227814
0.227555
0.22668
0.227071
0.227343
0.227453
0.224812
0.225691
0.225177
0.226093
0.223629
0.224398
0.224046
0.223163
0.223362
0.22306
0.223141
0.22318
0.223275
0.224055
0.227297
0.226095
0.226557
0.224419
0.224834
0.225277
0.227816
0.23301
0.228445
0.229248
0.230305
0.231692
0.232826
0.233006
0.23301
0.23301
0.23301
0.23301
0.23301
0.23301
0.23301
0.233004
0.232963
0.23279
0.232473
0.232222
0.23216
0.232258
0.232447
0.232656
0.232841
0.232911
0.232784
0.232145
0.23102
0.230319
0.230287
0.230761
0.231792
0.232805
0.232951
0.232988
0.232963
0.232979
0.232997
0.232992
0.232925
0.232989
0.231458
0.232575
0.228869
0.23065
0.226117
0.227245
0.226591
0.226827
0.226967
0.226673
0.229492
0.229529
0.229042
0.228719
0.228499
0.230503
0.230415
0.230039
0.227908
0.228767
0.229656
0.230332
0.22621
0.226342
0.227193
0.226668
0.226726
0.226466
0.225322
0.22537
0.227233
0.226869
0.226489
0.226127
0.227445
0.227303
0.227049
0.226725
0.226424
0.226664
0.226779
0.226785
0.224672
0.225483
0.22489
0.225731
0.223716
0.224246
0.224024
0.222987
0.223421
0.222961
0.223137
0.222943
0.222952
0.223529
0.22706
0.225749
0.226261
0.223914
0.224368
0.224856
0.227626
0.233007
0.228298
0.229142
0.230294
0.231904
0.232907
0.233003
0.23301
0.23301
0.23301
0.23301
0.23301
0.233009
0.233002
0.232939
0.232678
0.232235
0.231912
0.231825
0.231928
0.232149
0.232409
0.232651
0.2328
0.232704
0.232096
0.23102
0.23035
0.230282
0.230683
0.231652
0.232707
0.232993
0.232984
0.232999
0.233007
0.233003
0.233004
0.233003
0.233005
0.232958
0.232995
0.232087
0.232777
0.230246
0.231641
0.227625
0.228805
0.228179
0.22855
0.228434
0.228201
0.230009
0.230111
0.229727
0.22938
0.229061
0.230696
0.230706
0.230457
0.227423
0.228431
0.229486
0.230375
0.225352
0.225548
0.226582
0.225958
0.225806
0.225544
0.224441
0.224462
0.226342
0.225935
0.225528
0.225156
0.22667
0.226462
0.226131
0.225759
0.22591
0.225988
0.225985
0.225919
0.224347
0.225046
0.224379
0.225126
0.223689
0.223892
0.223848
0.222847
0.223363
0.222883
0.223098
0.222753
0.222724
0.223078
0.226818
0.225396
0.22597
0.223385
0.223851
0.224431
0.227431
0.232873
0.228139
0.229039
0.230307
0.232101
0.232913
0.232943
0.23301
0.23301
0.23301
0.23301
0.233009
0.233001
0.232922
0.232595
0.232038
0.231633
0.231512
0.231606
0.231831
0.232109
0.232368
0.232544
0.23249
0.231921
0.230962
0.230347
0.230292
0.23068
0.231601
0.232655
0.232984
0.233008
0.233006
0.233008
0.233009
0.233009
0.233008
0.233005
0.233007
0.232972
0.232998
0.232536
0.232877
0.23147
0.232367
0.229371
0.230387
0.230088
0.230413
0.229894
0.229853
0.230053
0.23052
0.230768
0.230472
0.230214
0.23001
0.230909
0.230994
0.230867
0.226974
0.228131
0.229349
0.230406
0.224508
0.22479
0.226009
0.225284
0.224838
0.224593
0.223587
0.223583
0.225342
0.22492
0.224515
0.224157
0.225718
0.225432
0.225077
0.224678
0.225146
0.225118
0.225
0.224822
0.223877
0.224384
0.223793
0.224336
0.223485
0.223413
0.223478
0.222707
0.223195
0.222845
0.223004
0.222597
0.222546
0.222778
0.226569
0.225032
0.225647
0.222952
0.223359
0.223935
0.227224
0.232915
0.227987
0.22894
0.23031
0.232103
0.232824
0.232731
0.23301
0.23301
0.23301
0.23301
0.233002
0.23292
0.23255
0.231894
0.231395
0.231231
0.231303
0.231503
0.231754
0.231977
0.2321
0.231994
0.231484
0.230782
0.230348
0.230326
0.230727
0.231626
0.232645
0.232978
0.233009
0.23301
0.23301
0.233009
0.23301
0.23301
0.233009
0.233005
0.233008
0.232983
0.233
0.232783
0.232934
0.232383
0.232759
0.231056
0.231748
0.231996
0.232073
0.230601
0.230431
0.231579
0.231661
0.231076
0.231399
0.231171
0.230957
0.230769
0.23115
0.231313
0.231293
0.226583
0.227884
0.229255
0.230466
0.223733
0.224085
0.225496
0.224671
0.223868
0.223662
0.222797
0.222761
0.224262
0.223858
0.223487
0.223173
0.224576
0.224253
0.223897
0.223515
0.224227
0.224059
0.223845
0.223593
0.223257
0.223678
0.223135
0.223518
0.223173
0.22306
0.223115
0.222627
0.223026
0.22277
0.222854
0.222512
0.222402
0.222562
0.226306
0.224604
0.225309
0.22269
0.222912
0.223417
0.227036
0.232986
0.227831
0.228841
0.230235
0.231834
0.232462
0.232522
0.23301
0.23301
0.23301
0.233004
0.232927
0.232544
0.231815
0.231213
0.231001
0.231043
0.231197
0.23138
0.23152
0.231548
0.231397
0.231035
0.230624
0.23037
0.230417
0.230867
0.231748
0.232677
0.232979
0.233009
0.23301
0.23301
0.23301
0.23301
0.23301
0.23301
0.23301
0.233009
0.233005
0.233008
0.232992
0.233002
0.23291
0.232969
0.23284
0.232934
0.232346
0.232642
0.232715
0.232086
0.232757
0.232848
0.231584
0.231573
0.23213
0.231606
0.23199
0.231854
0.231727
0.23163
0.231385
0.231644
0.231686
0.22624
0.22768
0.229189
0.230509
0.223009
0.223452
0.225037
0.224117
0.222933
0.222791
0.222092
0.222022
0.223142
0.222792
0.222491
0.222249
0.223314
0.223001
0.222683
0.222362
0.223312
0.223065
0.222811
0.222559
0.222927
0.222975
0.222713
0.222798
0.223001
0.222779
0.222918
0.222545
0.222851
0.222648
0.22266
0.222372
0.222286
0.222422
0.226077
0.224155
0.224997
0.222453
0.222635
0.222929
0.22683
0.232967
0.227689
0.22872
0.229998
0.231196
0.231809
0.232383
0.23301
0.23301
0.233007
0.232944
0.23257
0.231799
0.231099
0.230833
0.230848
0.230956
0.231078
0.231141
0.231121
0.231005
0.230804
0.230604
0.230443
0.230612
0.231124
0.231991
0.232751
0.232984
0.233009
0.23301
0.23301
0.23301
0.23301
0.23301
0.23301
0.23301
0.23301
0.233009
0.233007
0.233009
0.233001
0.233005
0.232975
0.232993
0.232974
0.232991
0.232864
0.23294
0.2327
0.232885
0.232869
0.232977
0.23298
0.23222
0.232172
0.232704
0.232068
0.232444
0.232399
0.232336
0.232272
0.231593
0.231958
0.232064
0.225935
0.227508
0.229159
0.230606
0.222379
0.222879
0.224623
0.223619
0.222079
0.222017
0.221591
0.22147
0.222077
0.22184
0.221656
0.221525
0.222319
0.222082
0.22186
0.221658
0.222591
0.222373
0.222154
0.22196
0.222511
0.222518
0.222273
0.222282
0.222803
0.222425
0.222633
0.222431
0.222597
0.222439
0.222419
0.22224
0.222076
0.22224
0.225781
0.223662
0.224537
0.222285
0.22231
0.222637
0.226653
0.213181
0.227539
0.228581
0.229685
0.230598
0.231267
0.231334
0.23301
0.233008
0.232972
0.232644
0.231828
0.231057
0.230725
0.230715
0.230809
0.230907
0.230965
0.230962
0.2309
0.230788
0.230654
0.230621
0.230926
0.231501
0.232284
0.232838
0.232991
0.233009
0.23301
0.23301
0.23301
0.23301
0.23301
0.23301
0.23301
0.23301
0.23301
0.23301
0.233009
0.233009
0.233006
0.233008
0.233
0.233004
0.233004
0.233006
0.232991
0.232998
0.232899
0.232978
0.232977
0.232998
0.232996
0.232728
0.232714
0.232907
0.232441
0.232737
0.232751
0.232751
0.232738
0.231743
0.23221
0.232392
0.225636
0.227332
0.229129
0.230698
0.221867
0.222386
0.224231
0.223167
0.221464
0.221449
0.221335
0.221212
0.22149
0.221355
0.221259
0.221195
0.221775
0.221607
0.221446
0.221308
0.222004
0.221857
0.221552
0.22138
0.22235
0.222207
0.221155
0.222054
0.222425
0.221357
0.22243
0.222197
0.222342
0.222207
0.222227
0.222057
0.221903
0.221985
0.225532
0.223112
0.224128
0.222074
0.222194
0.222308
0.226425
0.131123
0.22741
0.228407
0.229339
0.230036
0.230091
0.226647
0.233009
0.23299
0.232759
0.231924
0.231067
0.230666
0.230627
0.230712
0.230841
0.230938
0.230962
0.230932
0.230874
0.230844
0.231005
0.231392
0.231968
0.232564