/*--------------------------------*- C++ -*----------------------------------*\
  =========                 |
  \\      /  F ield         | OpenFOAM: The Open Source CFD Toolbox
   \\    /   O peration     | Website:  https://openfoam.org
    \\  /    A nd           | Version:  dev
     \\/     M anipulation  |
\*---------------------------------------------------------------------------*/
FoamFile
{
    version     2.0;
    format      ascii;
    class       volScalarField;
    location    "2500";
    object      omega;
}
// * * * * * * * * * * * * * * * * * * * * * * * * * * * * * * * * * * * * * //

dimensions      [0 0 -1 0 0 0 0];

internalField   nonuniform List<scalar> 
9967
(
1.24677
1.26897
1.21726
1.18597
1.37184
1.10626
1.08216
1.38594
1.31218
1.03354
1.03392
1.34803
1.38853
1.17861
1.01472
1.01043
1.24921
1.41587
1.32262
1.07914
1.008
0.999973
1.13236
1.40267
1.39323
1.18966
1.03932
1.00375
0.992081
1.06446
1.35521
1.42042
1.30816
1.09327
1.02126
1.00127
0.98747
1.02414
1.25698
1.4219
1.38285
1.17906
1.05001
1.00924
0.999447
0.984702
1.00126
1.14722
1.40226
1.41341
1.28172
1.09266
1.02784
1.00172
0.997123
0.983421
0.988714
1.07209
1.35048
1.42766
1.36112
1.16229
1.05126
1.01105
0.996908
0.995333
0.984582
0.981653
1.02539
1.25642
1.42538
1.40493
1.249
1.08562
1.02719
1.00003
0.992118
0.994314
0.985804
0.975821
0.998657
1.14715
1.40306
1.42306
1.33331
1.14061
1.04602
1.00987
0.99279
0.987493
0.993717
0.986573
0.972592
0.983224
1.07092
1.34875
1.43517
1.38711
1.21612
1.07312
1.02257
0.996806
0.98644
0.984322
0.993141
0.986548
0.970715
0.974965
1.02344
1.25515
1.43196
1.41953
1.29666
1.11703
1.03735
1.00523
0.987554
0.980351
0.982047
0.992657
0.986393
0.970542
0.969685
0.995438
1.14749
1.40926
1.43407
1.36509
1.18218
1.05827
1.01453
0.991485
0.980263
0.975915
0.980128
0.99228
0.986239
0.970557
0.964185
0.979272
1.07122
1.35675
1.44734
1.4057
1.25623
1.09399
1.0259
0.997347
0.981358
0.973766
0.972289
0.978565
0.991989
0.986097
0.970489
0.959502
0.96859
1.02355
1.2657
1.44503
1.43432
1.32746
1.14735
1.04291
1.00407
0.98425
0.973693
0.96858
0.969213
0.977322
0.991764
0.986009
0.970237
0.955691
0.960978
0.993468
1.16189
1.42486
1.44911
1.3852
1.21506
1.07042
1.01323
0.98798
0.97428
0.966898
0.964045
0.966669
0.976337
0.991592
0.985965
0.969932
0.95338
0.954978
0.974569
1.08112
1.37729
1.46409
1.42194
1.28349
1.11489
1.02634
0.992986
0.975708
0.965886
0.961027
0.960274
0.96458
0.975556
0.991463
0.985962
0.969391
0.952261
0.949009
0.962454
1.03053
1.29518
1.46324
1.45078
1.34649
1.17214
1.04849
0.999681
0.978028
0.965752
0.958867
0.956195
0.957127
0.962873
0.974993
0.991374
0.98596
0.968613
0.951957
0.943533
0.953736
0.997776
1.19863
1.44751
1.46593
1.40052
1.23665
1.08305
1.00996
0.981156
0.966235
0.957257
0.953164
0.952173
0.954447
0.961525
0.974623
0.991317
0.985916
0.967819
0.95176
0.938608
0.946552
0.977026
1.1089
1.40805
1.48181
1.43695
1.29788
1.13119
1.02686
0.985856
0.967164
0.956371
0.950489
0.948396
0.948704
0.95223
0.96048
0.974442
0.991299
0.985834
0.967124
0.951295
0.934197
0.940197
0.962828
1.05459
1.34501
1.48538
1.46574
1.35707
1.1867
1.05396
0.993821
0.968824
0.956022
0.948422
0.944986
0.944298
0.945764
0.95046
0.959746
0.974391
0.991305
0.985707
0.966526
0.950532
0.930395
0.934445
0.952206
1.01841
1.25931
1.47657
1.48352
1.40809
1.24592
1.09185
1.00685
0.972134
0.955895
0.947118
0.942227
0.940395
0.940751
0.943337
0.949092
0.959334
0.974485
0.991349
0.985546
0.966036
0.949619
0.927341
0.928792
0.943735
0.993306
1.17726
1.45012
1.49856
1.4474
1.30166
1.1389
1.02751
0.978135
0.956781
0.946118
0.940051
0.937055
0.936487
0.937852
0.941394
0.94815
0.959293
0.974687
0.991434
0.985389
0.965696
0.948653
0.924726
0.923097
0.936545
0.975653
1.10769
1.40097
1.50648
1.47616
1.35617
1.19013
1.05675
0.988112
0.959028
0.945434
0.938434
0.934293
0.932741
0.933294
0.935482
0.939947
0.947675
0.959535
0.974993
0.991554
0.985256
0.965496
0.947619
0.922155
0.91787
0.929928
0.962938
1.0625
1.34126
1.50274
1.49704
1.40442
1.24238
1.09361
1.00367
0.963348
0.945705
0.937244
0.932261
0.929622
0.929313
0.930662
0.93357
0.938943
0.947652
0.960041
0.97543
0.991733
0.985156
0.965478
0.946436
0.919493
0.913328
0.923974
0.953277
1.03214
1.27085
1.48817
1.50836
1.44713
1.29298
1.13582
1.02556
0.971232
0.947039
0.936219
0.930759
0.927353
0.925992
0.926472
0.92853
0.932124
0.938444
0.948053
0.960836
0.975957
0.991995
0.985096
0.965645
0.945011
0.916788
0.909328
0.918944
0.946123
1.01095
1.20472
1.45623
1.51677
1.47705
1.33967
1.18081
1.05325
0.983148
0.950324
0.935902
0.9295
0.925739
0.923545
0.92309
0.924329
0.926853
0.931174
0.93855
0.948899
0.961957
0.976677
0.992345
0.985122
0.965899
0.943335
0.913953
0.905831
0.914731
0.940951
0.996856
1.14954
1.41022
1.51595
1.49739
1.38701
1.22519
1.08591
0.999179
0.956668
0.936867
0.9283
0.924539
0.922076
0.920797
0.920996
0.922711
0.925654
0.930877
0.93918
0.950302
0.963465
0.977806
0.992879
0.985258
0.966112
0.941345
0.911004
0.903003
0.911309
0.936992
0.990793
1.10866
1.35789
1.50822
1.50909
1.42768
1.26884
1.12166
1.01894
0.965856
0.939355
0.927815
0.92342
0.921284
0.919722
0.918879
0.919516
0.921615
0.92512
0.931168
0.940416
0.952158
0.965383
0.979542
0.993836
0.985509
0.966215
0.938957
0.908015
0.90073
0.908829
0.934261
0.990756
1.08059
1.30508
1.48759
1.5114
1.46053
1.31086
1.15842
1.0426
0.976886
0.943964
0.928576
0.922542
0.920625
0.919577
0.918435
0.917801
0.918706
0.92104
0.9252
0.932036
0.94231
0.954489
0.967436
0.981751
0.996449
0.98586
0.966064
0.936109
0.905147
0.899043
0.907276
0.933025
0.991428
1.06208
1.2535
1.45416
1.51012
1.47974
1.34974
1.19563
1.06848
0.990354
0.950284
0.930355
0.922191
0.919963
0.919803
0.91905
0.918225
0.918395
0.919243
0.92125
0.925299
0.933161
0.944432
0.957161
0.97077
0.984299
0.999072
0.986299
0.965504
0.932714
0.902599
0.898071
0.906719
0.933588
0.992247
1.05249
1.20526
1.41413
1.50313
1.48969
1.38593
1.23141
1.09624
1.00553
0.958
0.933501
0.922557
0.919451
0.919916
0.920582
0.919829
0.919436
0.919746
0.921007
0.923309
0.927477
0.935444
0.946341
0.959504
0.973545
0.989926
0.984616
1.00291
0.992298
1.00192
0.986786
0.964369
0.928859
0.90051
0.897816
0.90721
0.936708
0.992795
1.04868
1.16381
1.36806
1.48664
1.49027
1.41501
1.26464
1.12529
1.02231
0.966147
0.937742
0.923597
0.919232
0.919922
0.922211
0.9234
0.922623
0.922152
0.922419
0.923831
0.926771
0.932578
0.941031
0.95124
0.9665
0.962754
0.980226
0.968118
0.976428
0.987232
1.00519
0.997836
1.005
0.987203
0.962627
0.924768
0.89906
0.898238
0.908952
0.942358
0.994308
1.04466
1.12799
1.31819
1.46149
1.48591
1.43502
1.29497
1.15381
1.04118
0.97451
0.942069
0.925692
0.919478
0.920045
0.923767
0.927592
0.928968
0.928115
0.927116
0.927037
0.928384
0.932986
0.940536
0.948934
0.959111
0.956377
0.964866
0.983834
0.973007
0.981037
0.992701
1.00744
1.00078
1.00907
0.987418
0.9602
0.920609
0.89846
0.899175
0.912209
0.949234
0.996067
1.03933
1.10221
1.26707
1.42796
1.47484
1.44784
1.31916
1.18053
1.06118
0.983857
0.945872
0.927689
0.919751
0.920199
0.925075
0.931796
0.936595
0.938222
0.937174
0.936451
0.934863
0.936913
0.942682
0.949982
0.955149
0.955236
0.962397
0.960575
0.969173
0.989577
0.977819
0.987157
0.996703
1.01045
1.00593
1.01432
0.987322
0.957108
0.916579
0.898694
0.900934
0.917491
0.956798
0.996706
1.03269
1.08293
1.21725
1.38793
1.45611
1.44774
1.34537
1.20368
1.08159
0.994106
0.948973
0.928847
0.920051
0.920159
0.92578
0.935437
0.944682
0.950474
0.95286
0.951653
0.95203
0.949355
0.952136
0.956988
0.956212
0.960137
0.960616
0.961092
0.966595
0.965988
0.974592
0.994768
0.984338
0.992922
1.00274
1.01422
1.01238
1.02077
0.986865
0.953452
0.913045
0.899581
0.903887
0.925344
0.963739
0.995665
1.0242
1.06526
1.17109
1.34299
1.43306
1.44187
1.36433
1.22585
1.10107
1.00528
0.951715
0.928873
0.919786
0.919283
0.925929
0.937954
0.952113
0.964092
0.97237
0.979315
0.979745
0.982578
0.98507
0.983932
0.968527
0.983551
0.963916
0.970892
0.966514
0.968583
0.972804
0.972995
0.981724
1.002
0.990411
1.00089
1.01076
1.01878
1.0204
1.02862
0.986162
0.949556
0.910374
0.901119
0.907864
0.933794
0.96792
0.99259
1.01396
1.04766
1.1279
1.29553
1.40607
1.42747
1.37949
1.24524
1.11974
1.01697
0.954515
0.92752
0.918132
0.91745
0.925042
0.93921
0.957986
0.977777
0.995827
1.01455
1.04946
1.08469
1.13189
1.13352
1.01418
1.09717
0.986463
1.0208
0.97458
0.989147
0.974412
0.979041
0.981056
0.9819
0.988765
1.01109
0.998679
1.01116
1.02106
1.0243
1.03067
1.0381
0.985133
0.945628
0.908592
0.903437
0.912575
0.941686
0.969418
0.987272
1.0022
1.02962
1.09414
1.24793
1.37422
1.40714
1.38169
1.26197
1.13639
1.02982
0.957883
0.924176
0.913998
0.914327
0.922716
0.93895
0.96166
0.98974
1.02301
1.0713
1.17436
1.44103
1.79655
2.11892
1.33195
2.05333
1.11518
1.40879
1.02583
1.13231
0.991911
1.02847
0.985306
0.9962
0.989349
0.991871
0.998699
1.02299
1.0105
1.02449
1.03415
1.03084
1.0428
1.04861
0.983834
0.941749
0.907793
0.906102
0.917946
0.948083
0.968592
0.979908
0.988955
1.01066
1.06375
1.19748
1.33963
1.38631
1.3776
1.27561
1.15133
1.04301
0.96192
0.920309
0.907922
0.909271
0.918763
0.936389
0.962704
0.998139
1.04877
1.15988
1.4579
2.20934
3.70495
5.41356
3.7468
7.35152
2.30766
4.59435
1.47486
2.52379
1.14467
1.53172
1.0313
1.15361
1.00096
1.03423
1.00059
1.00806
1.01231
1.0389
1.02698
1.04302
1.05154
1.03801
1.05835
1.05911
0.982494
0.938075
0.907796
0.908379
0.924099
0.951832
0.965639
0.971749
0.975204
0.991554
1.03467
1.14864
1.30208
1.36466
1.36724
1.28786
1.1641
1.05567
0.967549
0.917534
0.900175
0.902135
0.91288
0.931179
0.961211
1.00177
1.06671
1.2439
1.91287
3.58067
6.37403
9.49797
9.64574
11.3646
8.3658
10.7075
5.22464
8.98408
2.70994
5.71249
1.58022
2.87011
1.16035
1.62176
1.0389
1.16712
1.01876
1.04617
1.03312
1.06003
1.05061
1.06991
1.07433
1.04683
1.07908
1.07149
0.981257
0.934812
0.908217
0.910871
0.929769
0.95289
0.961773
0.963681
0.960584
0.971676
1.00763
1.10336
1.26338
1.34229
1.35272
1.29599
1.1751
1.06745
0.975107
0.916972
0.892069
0.892545
0.904879
0.924068
0.955445
1.0013
1.0741
1.28857
2.2738
5.02147
8.88186
11.4322
11.8664
12.2532
11.7982
12.2076
11.1077
12.0237
9.42602
11.4095
6.0869
9.75267
3.01306
6.39082
1.65881
3.14415
1.17308
1.69033
1.05793
1.17943
1.07386
1.08815
1.09387
1.11485
1.10348
1.05629
1.10792
1.09517
0.980262
0.931797
0.908739
0.913619
0.934174
0.952672
0.95724
0.955126
0.945047
0.952093
0.983109
1.06385
1.22576
1.32057
1.33718
1.29977
1.18542
1.07783
0.984552
0.917381
0.884781
0.881175
0.894736
0.914895
0.946212
0.995877
1.07365
1.29559
2.41004
5.95456
10.2429
11.9014
12.2566
12.3128
12.3708
12.3538
12.3665
12.4338
12.2533
12.5657
11.6719
12.5027
10.0415
11.9269
6.65147
10.3146
3.26206
6.88232
1.70925
3.36054
1.18806
1.71501
1.19942
1.132
1.21121
1.21927
1.14029
1.06453
1.14209
1.11663
0.979901
0.928453
0.908524
0.916068
0.93722
0.951222
0.952691
0.945634
0.93009
0.934293
0.961132
1.03181
1.18962
1.29895
1.32115
1.2982
1.1939
1.08705
0.994873
0.919146
0.879223
0.869518
0.882271
0.903521
0.935097
0.984667
1.06478
1.28099
2.40468
6.22335
10.7936
11.9177
11.9276
12.2775
12.0242
12.3862
12.2268
12.5922
12.5297
12.8155
12.8387
12.7571
13.1111
12.1829
13.0347
10.5819
12.4441
7.08409
10.844
3.41281
7.24208
1.71092
3.42358
1.69482
1.21841
1.6536
1.58981
1.20965
1.07097
1.18346
1.12314
0.981181
0.924023
0.905969
0.917144
0.937794
0.948359
0.947858
0.93517
0.916796
0.919027
0.941987
1.00505
1.15532
1.27828
1.30825
1.29435
1.2029
1.09563
1.00493
0.923868
0.876521
0.859182
0.868108
0.88977
0.922562
0.970161
1.04492
1.2302
2.28296
6.16962
10.9321
11.8616
11.5735
11.5967
11.5282
12.0013
11.759
12.3548
12.1186
12.7829
12.6198
13.1871
13.1638
13.4492
13.6448
13.3442
13.8638
12.725
13.7016
11.1085
13.0393
7.31216
11.3691
3.38826
7.28057
3.29608
1.49614
3.10549
2.82068
1.3887
1.07008
1.25685
1.15086
0.989403
0.918883
0.898928
0.91453
0.934271
0.943648
0.942038
0.92482
0.905701
0.906428
0.925942
0.982715
1.12474
1.25888
1.29828
1.28879
1.21284
1.10384
1.01448
0.933792
0.876394
0.851077
0.854044
0.874739
0.90731
0.952652
1.02705
1.17091
1.9486
5.8053
10.901
11.8146
11.5332
11.4923
11.493
11.6656
11.6877
11.8943
11.7166
12.3971
12.1941
13.0775
12.9373
13.7334
13.7728
14.2181
14.5092
14.378
14.9625
14.1303
15.0235
13.4015
14.6539
11.5773
13.7887
7.17548
11.7641
6.95256
2.44481
6.47651
5.79258
2.00588
1.07576
1.57581
1.25489
1.0736
0.918531
0.88811
0.904172
0.92391
0.935769
0.934855
0.915259
0.89639
0.896279
0.912872
0.964265
1.09818
1.241
1.29087
1.28439
1.22176
1.11268
1.02375
0.945126
0.878374
0.846195
0.841724
0.859532
0.890432
0.936768
1.0074
1.11867
1.61333
4.84101
10.7217
11.814
11.5342
11.7473
11.7676
11.9777
12.1552
12.3123
12.0895
12.0888
12.8373
12.8098
13.7986
13.843
14.7732
15.0293
15.5325
16.1025
15.9068
16.8221
15.8274
17.0718
15.275
16.7787
14.1722
15.952
11.9096
14.5764
11.9073
4.89126
11.5785
10.7732
3.80962
1.09188
2.65124
1.63449
0.946345
0.885312
0.886198
0.906457
0.922347
0.924823
0.906456
0.888827
0.888258
0.902507
0.949133
1.07501
1.2249
1.2861
1.28192
1.23009
1.12262
1.03281
0.957467
0.885873
0.845073
0.832753
0.845906
0.874675
0.922171
0.983593
1.07896
1.37686
3.65595
10.1676
11.8723
11.5821
11.7827
12.5521
12.5265
12.4667
12.5526
13.061
13.1808
12.831
12.926
13.9152
13.9953
15.2766
15.5073
16.6438
17.1353
17.7177
18.5585
18.336
19.5351
18.4024
19.9741
17.8652
19.8158
16.6606
18.9493
14.9563
17.4007
15.2263
9.39002
15.3419
15.2601
7.59926
1.13522
5.21798
2.52261
0.924299
0.88085
0.886214
0.902849
0.909486
0.897593
0.883027
0.882184
0.894593
0.936997
1.05463
1.21056
1.2842
1.28163
1.23857
1.13303
1.04282
0.970117
0.900609
0.846822
0.828626
0.836209
0.861333
0.904414
0.960448
1.04909
1.23747
2.59301
8.7533
11.8906
11.6704
11.9072
12.4804
12.4919
13.0246
12.835
13.209
13.1682
14.1736
14.157
14.0758
14.1472
15.6657
15.7436
17.5485
17.8557
19.303
19.9507
20.6155
21.6261
21.3866
22.686
21.591
23.1407
21.2085
23.0853
20.0245
22.4591
18.0308
20.9808
18.5525
14.6732
18.8769
18.8803
13.1033
1.25059
9.38985
4.07527
0.916422
0.882875
0.886574
0.893755
0.887513
0.878283
0.878078
0.888867
0.927748
1.03691
1.19762
1.28355
1.28349
1.24672
1.14505
1.05305
0.982931
0.917304
0.854974
0.828763
0.831788
0.850652
0.887804
0.944617
1.02521
1.16048
1.84884
6.64879
11.8116
11.7055
12.0242
12.7305
12.7381
12.7267
13.6201
13.4056
14.0847
13.8881
15.6544
15.544
15.7559
15.7256
18.0271
18.0771
20.4813
20.8726
22.5615
23.425
23.9535
25.2816
24.635
26.2331
24.7037
26.3984
24.3857
26.0312
23.5198
25.4441
21.7132
24.3704
22.2198
18.5386
20.5756
22.4431
22.3981
20.3716
22.3638
18.0643
14.7118
1.48307
17.3021
10.3816
16.5231
13.5826
9.9414
3.88016
0.915151
0.88778
0.886439
0.880765
0.873823
0.875416
0.885184
0.920894
1.02187
1.18514
1.28303
1.28969
1.25625
1.16086
1.06386
0.99593
0.936198
0.873241
0.834243
0.831641
0.845478
0.879299
0.934679
1.00574
1.11597
1.45176
4.46876
11.3968
11.7056
12.0354
12.7367
13.3786
13.3725
13.3216
13.3361
14.8743
14.7219
15.3597
15.1193
17.8052
17.6184
18.0411
17.9471
21.0928
21.1575
24.1051
24.6131
26.5634
27.5918
27.9926
29.6575
28.3736
30.5618
27.8939
30.312
27.114
27.7899
28.9102
25.107
26.0847
27.7256
26.7925
23.4525
24.8389
26.4213
25.7756
26.8007
25.0355
25.2578
23.7742
19.8042
21.9068
22.127
23.8857
23.8494
23.7122
19.5027
2.68484
5.73638
18.9681
18.0963
16.418
12.8523
0.927571
0.893097
0.881329
0.87228
0.87365
0.883061
0.916134
1.0088
1.17258
1.28271
1.29943
1.26746
1.1795
1.07635
1.00899
0.956226
0.896964
0.853464
0.83697
0.846045
0.878277
0.929857
0.992795
1.08678
1.27666
2.85552
9.87206
11.8836
11.9083
12.6326
13.2699
12.9476
14.8267
14.703
14.7101
14.7757
16.9455
16.835
17.4
17.1682
20.7018
20.3777
21.0936
20.9494
24.8722
24.7949
28.1553
27.97
30.4643
30.3682
32.2073
32.1968
32.922
34.0997
30.1105
31.7931
33.1773
34.7254
28.6332
30.0357
29.4759
30.9029
27.2035
29.0377
28.0348
26.0819
27.5479
26.9973
27.7962
26.3074
26.4335
25.2416
21.3977
23.169
23.4925
25.2616
25.196
25.041
20.9514
2.27622
5.86188
10.8675
8.13263
20.3964
19.643
18.4221
15.6692
0.945588
0.891897
0.87451
0.873569
0.882648
0.91311
0.998208
1.15908
1.28246
1.31214
1.28185
1.20028
1.09143
1.02233
0.977001
0.928696
0.887502
0.857859
0.854066
0.880591
0.929804
0.986628
1.06856
1.19848
1.937
7.2686
11.9409
11.5562
12.4519
12.5807
14.173
13.3677
17.0333
16.8144
16.8539
16.9814
19.2529
19.0404
19.991
19.6127
23.5662
22.9387
24.5912
24.1407
27.5854
26.8922
29.8837
29.0298
31.7437
31.0666
33.5741
32.6683
35.3819
35.507
35.0811
34.4182
32.5942
34.3095
35.7123
36.4181
30.3609
32.0939
31.5642
33.4272
28.3586
30.7168
29.3572
27.2353
28.6055
28.0308
28.8098
27.4207
27.5593
26.5195
22.7652
24.789
24.4492
26.5319
26.461
26.2957
22.288
2.80551
7.45813
13.5741
17.9006
21.7007
20.9576
19.9207
0.950068
0.887145
0.876197
0.8833
0.912782
0.989826
1.14582
1.28143
1.32701
1.29965
1.22523
1.11015
1.03795
1.00116
0.967883
0.929358
0.897473
0.880064
0.891545
0.935226
0.986694
1.06171
1.16444
1.5171
4.833
11.6961
11.301
12.0944
12.3919
12.9853
12.1704
15.8934
14.286
19.3486
19.1542
19.0527
19.2048
20.9554
20.4858
22.2404
21.5806
24.6269
23.9101
26.1361
25.379
28.1633
27.215
30.048
28.8817
31.7081
30.7404
33.634
32.8617
32.2513
31.6919
36.2071
35.6451
34.7917
33.8223
35.2823
36.7012
37.2891
36.9621
32.5653
34.1592
34.8264
36.1966
29.598
32.9214
30.9783
28.2272
29.7702
28.9771
29.8756
28.3907
28.518
27.6506
24.0283
26.0257
25.6613
27.6712
27.6159
27.4616
23.515
3.40646
15.9161
9.25424
19.6238
21.1663
22.8945
22.1356
0.944615
0.888039
0.886544
0.913457
0.984887
1.13192
1.27838
1.34077
1.31951
1.25249
1.13379
1.05464
1.02794
1.00633
0.977546
0.949087
0.932127
0.927302
0.957056
0.997985
1.06565
1.15834
1.35342
3.10753
10.3422
11.2051
11.6161
12.3363
11.8528
13.3877
12.0338
18.1057
15.7027
21.0157
20.9603
20.4703
20.6593
21.7492
21.226
23.1842
22.4615
24.7071
24.0562
26.2906
25.4462
27.5187
26.0437
29.5538
28.158
31.4589
31.1702
30.9937
33.022
32.5324
32.1768
32.0053
36.2126
35.1966
34.1501
33.4057
37.6879
38.1974
37.7976
36.9019
35.3818
37.0865
37.9007
38.6826
31.1449
35.8015
33.1519
29.1128
31.2077
29.9359
31.1751
29.2246
29.3158
28.6051
25.2019
27.1979
26.8193
28.64
28.6107
28.4914
24.647
4.05272
20.9955
17.8964
11.0109
22.2916
23.2247
23.9955
0.935971
0.897243
0.916359
0.983355
1.11995
1.27133
1.35217
1.34113
1.28146
1.16196
1.07389
1.05417
1.04557
1.03197
1.01778
1.00838
1.01281
1.02434
1.0497
1.0984
1.1737
1.31543
2.16741
7.48927
11.2018
11.2655
12.1853
12.1513
11.3742
11.5168
13.7157
11.8254
20.1017
17.242
22.0947
22.1095
21.2381
21.5243
22.0424
21.6247
23.3821
22.735
23.2439
22.9371
24.8037
23.8295
26.4179
24.2167
30.2218
28.6443
31.9692
31.8652
33.5705
33.7106
32.9409
32.7764
32.8923
33.1707
35.7338
34.6489
33.9263
33.4902
39.1507
38.7629
37.7438
36.4867
38.61
39.6868
40.6794
40.2042
33.243
39.1642
36.0485
29.9664
33.1795
31.0862
32.983
29.9813
29.9982
29.3872
26.324
28.2638
27.9106
29.431
29.4388
29.373
25.7249
4.41223
23.3462
22.1753
19.5617
12.4797
24.2525
25.0336
0.937666
0.925127
0.984274
1.1096
1.26353
1.36105
1.36633
1.31223
1.19822
1.09518
1.07861
1.08619
1.08951
1.10032
1.13167
1.18626
1.2109
1.21845
1.22446
1.25854
1.3387
1.80844
5.06679
11.0002
11.0066
11.7691
12.4467
12.0547
10.9666
11.2403
13.7015
11.3958
21.241
17.9792
22.7603
22.7067
21.7029
22.1385
21.9358
21.7046
22.6793
22.407
20.6047
20.6743
22.1508
21.0083
26.3972
23.6383
33.3708
32.6419
30.2048
31.8346
33.475
33.6504
35.8518
35.8596
33.4981
33.831
34.3605
34.9292
35.3618
34.5446
34.1974
34.324
39.8757
38.8372
37.5437
36.3235
41.642
41.3234
42.5456
41.1535
36.098
42.4692
39.5189
30.9536
35.9273
32.6952
35.5612
30.8117
30.6982
30.0255
27.4101
29.1966
28.8944
30.0622
30.0898
30.0592
26.7741
4.48267
25.2449
24.3599
23.2592
20.9278
13.4708
26.0477
0.954996
0.988898
1.10088
1.25553
1.36766
1.3915
1.34592
1.2394
1.12431
1.10028
1.12415
1.13989
1.19916
1.37733
1.57665
1.69205
1.69723
1.61921
1.55342
1.4998
1.77436
3.70247
9.97567
10.738
11.3451
12.4733
12.6738
11.5811
12.1215
10.3608
10.8625
13.0674
10.5743
21.6559
18.0795
22.9471
22.7906
21.862
22.4027
21.1925
21.3392
20.8792
21.1099
18.5681
18.719
20.6975
19.0188
28.299
23.8153
35.552
34.9468
32.4136
33.8978
35.4248
35.7446
38.2635
38.2772
34.8569
35.6118
36.4263
37.1563
35.4064
35.0897
35.2341
35.8938
40.1845
38.87
37.5748
36.5956
43.8154
42.5482
44.0427
41.8217
39.6137
45.0616
43.029
32.3337
39.4127
35.0383
38.9489
31.9602
31.634
30.6242
28.4354
29.9581
29.7655
30.6007
30.5804
30.5598
27.817
3.72831
27.0626
26.2441
25.3598
24.3283
22.113
13.3062
1.0033
1.10129
1.24418
1.37099
1.41454
1.3793
1.28571
1.15853
1.12443
1.14969
1.19202
1.3981
1.92994
2.56623
3.05675
3.16724
2.85605
2.39146
2.01508
1.93983
3.27274
8.14396
10.3671
10.9819
12.3545
13.0605
12.6406
11.0612
11.8074
9.25575
10.1656
11.6463
9.15272
21.474
17.2911
22.6315
22.2627
21.7196
22.243
20.0081
20.5537
19.1228
19.6002
17.4625
17.5522
19.9077
17.8805
32.5718
29.4226
26.8245
23.1326
37.9723
37.284
34.5834
36.1747
37.752
38.1379
41.1017
41.0899
36.8865
37.9008
38.855
39.672
36.2289
36.3544
37.039
38.1328
40.6308
39.3451
38.2869
37.7844
45.6319
43.6723
45.613
42.7449
43.2654
47.2842
46.0461
34.3903
43.1979
38.233
42.824
33.7229
33.0699
31.3563
29.4005
30.5144
30.4477
31.1105
30.9722
30.8932
28.8425
2.52629
28.1144
27.2705
26.3951
25.4432
23.24
11.8194
1.10111
1.24257
1.36973
1.43423
1.41154
1.33329
1.20128
1.14497
1.17427
1.25799
1.811
3.10782
4.76198
5.74964
5.79658
5.30726
4.45911
3.44587
2.61556
3.33375
7.14363
9.88439
10.6749
12.0699
13.2335
13.1887
11.2562
9.82633
10.85
7.32338
8.59428
9.49305
6.96298
20.45
15.47
21.776
21.0866
21.1844
21.6361
19.0873
19.8083
17.9528
18.4818
16.7892
16.9137
19.5687
17.1649
34.3076
31.3574
27.8214
24.1096
40.8125
40.0378
36.8084
38.7261
40.3599
40.8854
44.2783
44.2602
39.3885
40.5498
41.6322
42.5931
37.8139
38.4507
39.5679
40.9511
41.6114
40.5765
39.9245
39.8821
47.6119
45.1147
47.5936
44.3057
46.586
49.7009
48.6208
37.3181
46.8306
42.093
46.7368
36.3094
34.8981
32.3125
30.2736
30.8966
30.9959
31.7299
31.2929
31.132
29.877
1.72217
29.2124
28.3566
27.5319
26.7433
24.3498
8.76633
1.23447
1.37088
1.44614
1.44613
1.37889
1.2519
1.17204
1.19419
1.36324
2.45505
4.75479
6.99588
7.93394
7.92969
7.45114
6.65162
5.60732
4.4527
3.95273
6.96137
9.44955
10.3189
11.8036
13.261
13.5624
12.035
6.83816
8.84006
7.86211
7.16407
4.86587
5.70758
7.41801
5.08748
18.6266
13.0117
20.5418
19.3775
20.3674
20.6887
18.5274
19.1502
17.3412
17.8917
16.2258
16.5289
21.3332
18.0596
16.419
16.934
36.5167
33.0132
29.1156
25.0859
43.9547
43.0707
39.4021
41.5835
43.3951
44.0091
47.7892
47.7854
42.3495
43.6657
44.9029
45.9704
40.238
41.4014
42.8143
44.3648
43.4367
42.7837
42.6462
42.8963
50.1972
47.2788
50.4004
46.8034
49.597
52.6175
51.3442
41.0346
50.2422
46.091
50.1902
39.1242
37.2303
33.6636
31.0429
31.2371
31.4705
32.4646
31.7134
31.4705
30.8809
1.43119
30.3535
29.5645
28.8992
28.3251
24.588
6.68603
1.36353
1.45973
1.47162
1.42766
1.30535
1.2069
1.21438
1.49494
3.1995
6.30699
8.66711
9.39612
9.35928
8.97764
8.3556
7.52445
6.5545
5.83582
7.18813
9.3127
10.0671
11.5923
13.2399
13.7908
12.6473
7.73391
5.18518
4.03432
4.81022
4.32415
3.89182
3.93214
6.02033
4.32452
16.148
10.525
18.9687
17.2254
19.4688
19.5397
18.0655
18.3559
17.0604
17.5706
16.2838
15.7978
15.8546
16.1186
16.3733
21.3721
18.0844
16.717
38.7819
34.7965
30.3109
25.6415
47.3656
46.3163
42.0803
44.5819
46.8534
47.5232
51.6629
51.6955
45.9072
47.3862
48.7228
49.868
43.8408
45.246
46.8719
48.5718
46.3608
46.268
46.4787
47.3172
53.6282
50.4755
54.4416
50.5516
52.7337
56.6639
54.7642
44.2227
53.2333
48.7681
52.4381
42.1129
39.5427
35.1593
31.6746
31.5529
31.8554
33.4863
32.5742
31.9667
31.7552
4.64328
31.5669
31.0002
30.4547
30.2667
24.2215
8.64499
1.45585
1.50425
1.46061
1.37214
1.24197
1.23491
1.60045
3.75836
7.48912
9.7789
10.335
10.2746
9.95993
9.5002
8.92969
8.2705
7.7536
8.15252
9.35116
10.0458
11.5433
13.2143
13.917
13.0771
8.38122
3.74047
3.98075
3.62251
3.2905
3.4274
3.45261
3.6041
3.45025
5.20899
4.04124
13.4336
8.36831
16.9989
14.6629
18.4287
18.1037
17.3607
17.3975
16.7096
17.1706
15.9013
15.4637
15.6003
15.9182
16.2501
21.6302
17.9644
16.4327
41.1617
36.5973
31.5435
26.3741
51.0862
49.8555
44.9597
47.826
50.7922
51.4603
55.8919
56.0032
50.2611
51.8193
53.2027
54.355
48.6328
50.2461
52.0342
53.8486
50.6882
51.2186
52.1072
53.3565
58.4963
55.1751
60.2566
55.9888
55.9393
61.8464
58.8087
47.1116
55.9933
51.5941
56.2367
44.9356
42.6643
37.1498
32.2277
31.9125
32.2817
35.5515
33.8005
32.9108
32.6512
22.9342
32.7914
32.4435
32.3335
33.3069
24.3259
17.0036
1.50433
1.51121
1.41774
1.30445
1.24615
1.63011
4.0852
8.25325
10.4714
10.9153
10.8465
10.5665
10.2127
9.84983
9.46345
9.10905
9.174
9.53907
10.129
11.5908
13.2272
13.9733
13.3242
8.94666
4.00443
3.15304
3.20468
3.25872
3.17246
3.14515
3.28747
3.56066
3.37038
4.8667
3.97615
10.7665
6.83908
14.6305
11.9555
17.0774
16.2496
16.4387
16.0993
16.0737
16.2384
16.3556
15.5359
15.0111
15.1565
15.5015
15.8286
21.7796
17.7792
16.0726
43.7455
38.4821
32.7176
26.9495
55.1306
53.6885
48.092
51.3375
55.26
55.842
60.5395
60.8665
55.5889
57.1486
58.4949
59.5591
54.9705
56.7615
58.7035
60.5396
57.0191
58.3391
59.8943
61.6565
64.9903
62.0389
68.1974
63.9526
60.0219
69.8371
64.6255
50.4901
61.8092
56.5033
63.8493
49.2365
48.0509
40.8541
32.9381
32.7363
33.0811
38.0875
36.2188
35.19
33.4791
27.951
33.8111
34.0469
34.7045
35.9098
26.9031
32.1223
1.52063
1.48861
1.34332
1.26918
1.59786
4.14893
8.67566
10.9077
11.284
11.1935
10.9429
10.615
10.3018
10.0516
9.81669
9.70438
9.79165
10.4178
11.7707
13.2901
13.9772
13.3939
9.12933
4.15508
2.92103
3.0339
2.99215
3.21918
3.16486
3.09127
3.28831
3.65756
3.42247
4.77017
4.06477
8.62228
6.08196
12.1772
9.7256
15.2923
14.0732
14.8871
14.3388
15.7611
16.0208
15.2237
15.1127
15.0969
14.4708
14.6122
15.0068
15.4236
21.8461
17.5816
15.6836
46.6651
40.6006
33.9993
27.4937
59.5544
57.9027
51.5754
55.1911
60.3676
60.7835
65.7557
66.3806
62.2344
63.67
64.8448
65.6854
63.5685
65.575
67.5349
69.289
66.085
68.4403
70.8859
73.3078
75.3188
71.4642
81.0907
74.898
68.6034
85.1638
76.3416
56.5956
73.2432
65.6152
77.6454
56.9022
55.5639
45.3637
33.6109
34.4426
34.1508
43.3096
41.8927
39.1951
34.2818
46.108
35.1266
35.5556
36.3845
35.7853
30.997
56.3835
1.51654
1.42149
1.28903
1.4992
3.98544
8.78579
11.1651
11.5214
11.4068
11.1037
10.6805
10.3343
10.1494
10.0177
9.9171
10.1218
10.8953
12.2157
13.3594
13.9371
13.3153
8.94724
4.13368
2.81419
2.78359
2.91896
2.6833
2.98943
3.25583
3.172
3.07378
3.39005
3.85576
3.58254
4.82198
4.25348
7.36889
5.75871
10.0181
8.17522
13.1361
11.7739
13.0365
14.8061
12.6365
12.0895
15.0399
15.1828
14.733
14.58
13.8042
13.8768
14.263
14.7094
21.8893
17.3939
15.2194
50.1123
43.1487
35.558
28.1217
64.4675
62.6389
55.5422
59.5222
66.2545
66.4411
71.6313
72.5417
70.759
71.8579
72.6555
73.0152
75.5959
77.7698
79.7145
81.2404
78.6915
82.8244
86.6968
90.1301
95.5059
86.6059
108.722
92.2242
84.186
119.806
98.4279
68.2655
93.4096
83.2361
104.082
69.0349
71.9164
55.4843
34.6393
37.115
36.5769
53.9751
49.6725
45.6112
35.6575
25.3891
36.1346
36.729
36.2232
34.8292
34.6585
79.7175
1.48164
1.33062
1.38015
3.53947
8.63122
11.2943
11.6753
11.5328
11.0921
10.5861
10.2217
10.1105
10.0597
10.1549
10.5695
11.3904
12.587
13.3608
13.7945
12.9417
8.30779
3.9426
2.6994
2.50823
2.85283
2.66342
2.57037
2.94866
3.29496
3.16883
3.04952
3.45478
3.94161
3.66442
4.83574
4.31435
6.63936
5.57213
8.43441
7.21315
11.1337
9.64281
13.2664
12.3018
12.1961
10.5269
9.91191
14.3128
14.5685
13.305
13.9533
13.1068
13.0777
13.3859
13.855
21.991
17.2884
14.8125
54.2606
46.3697
37.5721
28.9984
69.9041
67.9919
60.0672
64.4484
73.1222
73.0648
78.4372
79.5737
82.2375
82.6146
82.6135
82.2046
93.0802
95.4562
97.4254
98.5362
98.6292
106.65
112.876
118.345
153.256
121.473
190.17
137.837
117.914
192.107
156.163
87.4937
142.745
114.661
152.588
95.1831
97.7805
71.3546
37.059
43.9605
42.6069
68.0301
63.0451
65.7239
36.9032
203.714
37.5427
36.88
35.4072
33.3122
38.928
138.577
1.40294
1.32654
2.77387
8.16338
11.3028
11.7822
11.5802
11.0109
10.3263
10.0078
9.98726
10.1092
10.47
11.1044
11.9273
12.7041
13.3075
13.4815
11.9456
7.21808
3.59682
2.56844
2.37463
2.3315
2.7743
2.59672
2.50919
2.87486
3.30433
3.12873
2.99287
3.47461
3.96934
3.69292
4.82354
4.32633
6.1839
5.43388
7.26255
6.56302
9.36617
8.1964
12.3927
11.2908
10.9412
10.0364
9.67246
13.0541
13.2492
12.433
13.5087
12.8315
12.6062
12.5708
12.7301
22.296
17.4293
14.5731
59.2809
50.6003
40.2958
30.385
75.9454
73.9481
65.2175
70.1518
81.6928
80.7726
86.5898
87.9112
99.1279
99.0646
96.9109
94.5271
121.906
124.741
126.336
127.789
162.034
195.408
192.637
200.972
213.835
192.038
459.807
215.869
184.021
483.787
182.686
138.521
197.3
183.949
190.317
144.014
148.605
97.216
39.7993
57.279
48.5835
93.3128
102.892
82.0762
39.7124
364.946
38.4309
36.9501
34.4168
32.7828
48.087
178.26
1.32594
2.20691
6.89932
11.2311
11.8378
11.6111
10.8584
10.0362
9.80199
9.87186
10.159
10.7546
11.4082
12.0313
12.6515
13.0726
12.8315
10.1811
5.88422
3.1938
2.423
2.24499
2.1819
2.17899
2.39995
2.6858
2.51331
2.80252
3.29013
3.06842
2.92717
3.47404
3.9697
3.69555
4.75944
4.30679
5.80813
5.24553
6.73202
6.10121
8.44012
7.52846
11.6747
11.1009
10.584
9.89816
9.21767
12.3893
12.4327
12.0114
13.4696
13.2177
12.6334
12.4489
12.3988
22.9003
17.8531
14.8748
65.1921
56.2414
44.0706
32.5303
83.0157
80.4813
71.1447
76.8969
92.5736
90.782
96.6823
99.065
128.823
127.637
122.987
114.617
201.736
200.312
198.706
192.776
213.796
429.38
439.222
427.511
494.627
476.758
880.616
477.631
497.127
900.977
498.306
193.391
505.876
505.346
503.397
206.405
219.208
151.274
46.7871
68.4189
65.4609
160.323
117.177
101.37
42.1858
277.508
40.3149
37.0877
33.696
33.9069
56.3342
135.761
1.60664
5.90424
10.8742
11.853
11.6393
10.7395
9.76487
9.51264
9.71889
10.1006
10.6944
11.3098
11.8921
12.3508
12.4214
11.264
7.9117
4.59781
2.81642
2.27324
2.11805
2.03914
2.01557
2.13743
2.34108
2.2591
2.02711
2.62164
2.4425
2.73328
3.23242
3.0073
2.86221
3.42552
3.91594
3.65112
4.61408
4.21779
5.54403
5.0172
6.48881
5.92248
9.20395
8.61932
7.88531
7.26738
11.6532
11.3462
10.5954
10.0934
12.3596
12.2225
12.1838
14.2678
15.0932
13.752
13.0284
12.6097
24.0508
18.85
16.0927
71.9521
63.8236
49.7029
35.8683
92.3646