/*--------------------------------*- C++ -*----------------------------------*\
  =========                 |
  \\      /  F ield         | OpenFOAM: The Open Source CFD Toolbox
   \\    /   O peration     | Website:  https://openfoam.org
    \\  /    A nd           | Version:  dev
     \\/     M anipulation  |
\*---------------------------------------------------------------------------*/
FoamFile
{
    version     2.0;
    format      ascii;
    class       volScalarField;
    location    "2500";
    object      p_rgh;
}
// * * * * * * * * * * * * * * * * * * * * * * * * * * * * * * * * * * * * * //

dimensions      [1 -1 -2 0 0 0 0];

internalField   nonuniform List<scalar> 
9967
(
0.00476233
0.00620273
0.00551344
0.00630651
0.00884538
0.00470213
0.00586764
0.010585
0.00937846
0.00409244
0.00501951
0.0111224
0.012118
0.00834205
0.00315963
0.0045853
0.0111518
0.0135785
0.0117129
0.0069999
0.0025763
0.00419936
0.0104932
0.0142925
0.013819
0.0107302
0.0059934
0.00204228
0.00376785
0.00946687
0.0142125
0.0156235
0.0134117
0.00922526
0.00485787
0.00165399
0.00375602
0.00799466
0.0136509
0.0164631
0.0154132
0.0122583
0.00761765
0.00418463
0.00113492
0.00345905
0.0071476
0.0128546
0.0164352
0.0171075
0.014636
0.0105363
0.0069368
0.00379673
0.000733041
0.00297685
0.00633925
0.0107555
0.0157989
0.0180427
0.0169702
0.013505
0.00941839
0.00603817
0.00325546
0.000362563
0.00294567
0.00630294
0.00987363
0.0153355
0.0182947
0.0183116
0.0161307
0.0118445
0.00821677
0.0053123
0.00276507
0.000123273
0.00265875
0.00581688
0.00895438
0.0141402
0.0177177
0.0191552
0.0177686
0.0146575
0.0104375
0.00737172
0.00478637
0.00220465
-0.000334833
0.0022513
0.00501708
0.00821871
0.0130378
0.0171475
0.0195301
0.0193672
0.0167517
0.0128213
0.00965863
0.00690977
0.00420161
0.0018322
-0.000490835
0.00217371
0.00500836
0.00765252
0.0120247
0.0162092
0.0192713
0.0201593
0.0186349
0.0155567
0.011742
0.00883057
0.00627875
0.00388013
0.00154987
-0.000725215
0.00181593
0.00455188
0.00725903
0.0106421
0.0151343
0.0183701
0.0204991
0.0200029
0.0172362
0.0138734
0.0105997
0.00806794
0.0057343
0.00328581
0.00114196
-0.000967508
0.00169547
0.00419132
0.00680612
0.00928352
0.0141298
0.0176453
0.0206525
0.0208525
0.0193757
0.0162767
0.012263
0.00993176
0.0073093
0.00521629
0.00309288
0.000955791
-0.00126553
0.00150108
0.00388377
0.00652242
0.00912914
0.0125716
0.0164709
0.0201254
0.021369
0.0206029
0.0176825
0.014729
0.0113968
0.00920744
0.00671809
0.00468401
0.0027219
0.000710249
-0.00147471
0.00118551
0.00356814
0.00602909
0.00827063
0.011742
0.0159629
0.0196466
0.0213695
0.0214238
0.019739
0.0161867
0.0135442
0.0105961
0.00860431
0.00641985
0.00434657
0.00231278
0.00050111
-0.00163433
0.00105042
0.00323013
0.00560945
0.00799968
0.0112317
0.0140186
0.0187356
0.0211643
0.0220625
0.0208686
0.0179883
0.0150069
0.012666
0.0101346
0.00799546
0.00594464
0.00395479
0.00209877
0.000259582
-0.00176902
0.000806934
0.00285907
0.00512781
0.00761054
0.00978173
0.0136417
0.0179332
0.0207103
0.0221842
0.021974
0.0198471
0.0169499
0.0142448
0.011641
0.00950163
0.0073901
0.00559919
0.00368353
0.00186922
8.43912e-05
-0.00191535
0.000592235
0.00266233
0.0048025
0.00711818
0.0092062
0.013171
0.0166984
0.020134
0.0219797
0.022551
0.0213228
0.0186767
0.015671
0.013288
0.0109913
0.00882004
0.00702899
0.00505839
0.0033072
0.00161797
-0.000130935
-0.0018997
0.000407699
0.00230197
0.00432233
0.00664674
0.00896016
0.0120668
0.0157631
0.0193469
0.0216177
0.0228723
0.0221834
0.020195
0.0174716
0.0146523
0.0123622
0.0103636
0.00823992
0.00664199
0.0047899
0.00308656
0.00152217
-0.00032828
-0.00196857
0.000319345
0.00209637
0.00408937
0.00624502
0.00817912
0.0113342
0.0149491
0.0182767
0.0210009
0.0227923
0.0229174
0.0214247
0.0189059
0.0163259
0.0139892
0.0115863
0.00982899
0.00796656
0.00619992
0.0045218
0.00280158
0.00130314
-0.00031754
-0.00196411
0.000167927
0.00170156
0.00370744
0.00563421
0.00756919
0.0105205
0.0137392
0.0172528
0.0203174
0.0226142
0.0231435
0.0223247
0.0203427
0.017798
0.0153042
0.0132721
0.0111246
0.00929603
0.00759083
0.00568539
0.00421448
0.0025585
0.00107365
-0.000393385
-0.0019793
1.31914e-05
0.00155396
0.00326054
0.00515027
0.0074804
0.0100653
0.0130137
0.0162703
0.0194667
0.0221119
0.0233033
0.0230151
0.0213863
0.0192823
0.0168494
0.0145979
0.0126137
0.0103884
0.0088622
0.00698738
0.00535409
0.00389733
0.00239708
0.000982762
-0.000426439
-0.0019783
-0.000130038
0.0013056
0.00286588
0.00464418
0.00695759
0.00935635
0.0116146
0.0148061
0.0186559
0.021466
0.0232002
0.0234813
0.0224709
0.020315
0.0181525
0.0159731
0.0138457
0.01187
0.0101008
0.0083969
0.00661072
0.00508426
0.00358156
0.00215331
0.000846251
-0.000415886
-0.00185847
-0.000325423
0.00111715
0.00266589
0.00433624
0.00637755
0.00870875
0.0112897
0.014228
0.0181575
0.0207712
0.0228776
0.0236942
0.0233165
0.0217566
0.0195093
0.0171608
0.0148841
0.0133328
0.0113852
0.00957714
0.00780261
0.00616396
0.00470549
0.00327919
0.0019599
0.000831064
-0.000370575
-0.00171912
-0.000471996
0.000959043
0.00233431
0.0040619
0.00609726
0.00840856
0.0107737
0.0136703
0.0173817
0.0201571
0.0223707
0.0236144
0.0236717
0.0223973
0.0207216
0.0186607
0.0165736
0.0145719
0.0126836
0.0109011
0.00907036
0.00732747
0.00578994
0.00432208
0.00300545
0.00188823
0.000858875
-0.000215713
-0.00146869
-0.000468318
0.000669784
0.00215761
0.00370651
0.00560163
0.00750933
0.0102681
0.0130298
0.0161009
0.0193804
0.0218018
0.0234208
0.0239528
0.0233423
0.0216088
0.0198395
0.0177297
0.0158433
0.0139598
0.0121575
0.010306
0.00850591
0.00684662
0.00539199
0.00400964
0.00285266
0.00188376
0.000955648
-3.86961e-05
-0.00119133
-0.000539366
0.00055645
0.00187212
0.00344881
0.0051477
0.00699339
0.00954145
0.0123175
0.0149486
0.0183091
0.0211523
0.0229852
0.0239481
0.0239125
0.0225093
0.0206311
0.0190274
0.0168612
0.0151232
0.0134318
0.0115527
0.00975318
0.00795432
0.00636579
0.00490596
0.00364399
0.00264096
0.0019115
0.00117508
0.000312262
-0.000857047
-0.000599911
0.000357026
0.00155197
0.00301891
0.00482256
0.00679166
0.00908077
0.0117046
0.0141502
0.0175261
0.0204337
0.0224348
0.023768
0.0240763
0.0234274
0.0216627
0.0199339
0.018037
0.0162288
0.0146153
0.0128282
0.0110037
0.0091116
0.00734407
0.00581455
0.00445256
0.00334658
0.00261916
0.00203053
0.00150346
0.000781479
-0.000339314
-0.000704631
0.000181862
0.00143328
0.00264946
0.00452706
0.00634841
0.00852588
0.0108019
0.0136711
0.0166733
0.0195997
0.021806
0.0234328
0.0240677
0.0237994
0.0227595
0.0209579
0.0195004
0.017658
0.0157792
0.0140967
0.012261
0.0102899
0.00835787
0.00664889
0.00512724
0.00392557
0.00308541
0.00257911
0.00229631
0.00202568
0.00143199
0.000257731
-0.000669418
0.000163865
0.00116387
0.00251403
0.00403149
0.00595253
0.00793839
0.0101664
0.0131558
0.0155263
0.0186807
0.0210945
0.0229393
0.0240157
0.0241276
0.0234176
0.0221198
0.0203061
0.0185336
0.0170155
0.0154286
0.0134292
0.011538
0.00948654
0.00759241
0.0058906
0.00447801
0.0034724
0.00292568
0.00275369
0.00277911
0.00269215
0.00221075
0.000950075
-0.000683136
-5.9576e-05
0.00109858
0.00207628
0.00372612
0.00550135
0.00736742
0.00963732
0.0123893
0.0148439
0.017742
0.020265
0.022314
0.0237016
0.0242229
0.0238498
0.0228586
0.0212712
0.0199865
0.0183982
0.0166334
0.0148828
0.0127686
0.0107518
0.0086276
0.0067136
0.00503877
0.00378173
0.00308062
0.00291413
0.00315109
0.00349392
0.00330503
0.00200123
0.00308744
0.00022809
0.00248507
0.0019006
-0.000709962
-5.20017e-05
0.000749301
0.00202415
0.00322646
0.004969
0.00700356
0.00891248
0.0114204
0.014146
0.0165801
0.0195478
0.021602
0.0231685
0.0240805
0.023964
0.023422
0.0223222
0.0208985
0.0194566
0.017983
0.0162527
0.0141454
0.0119487
0.00984981
0.00763485
0.00566773
0.00407165
0.0030891
0.00279724
0.0031226
0.0037961
0.00410861
0.00433786
0.00399087
0.00405194
0.00473309
0.00364589
0.000616424
0.00320528
0.00234295
-0.000707601
-1.60954e-05
0.000584139
0.00188191
0.00313254
0.00475548
0.00666142
0.00846201
0.0109082
0.0134483
0.0157419
0.0186346
0.0208149
0.0226028
0.0237
0.0242284
0.0237828
0.0230294
0.0218401
0.0204453
0.0192484
0.0176194
0.015683
0.0134664
0.0110406
0.00879637
0.00644298
0.00441691
0.00302482
0.00244872
0.00270466
0.00357582
0.00444964
0.0044124
0.00453521
0.00465956
0.00525784
0.00549177
0.0044661
0.00105912
0.00390146
0.00293643
-0.000681077
-0.000133074
0.0004795
0.00158329
0.0028407
0.00420622
0.00630905
0.00788612
0.0103374
0.0126799
0.0150304
0.0176547
0.0200784
0.0218975
0.0232945
0.0240555
0.0239804
0.0235188
0.0225719
0.0215379
0.020231
0.0190298
0.0173611
0.0150407
0.0126752
0.00983552
0.00748351
0.0049323
0.00299057
0.0019474
0.00192992
0.00283212
0.0042751
0.00394926
0.00481646
0.00488796
0.00563116
0.0055541
0.00613308
0.0064565
0.00528516
0.00154347
0.00463904
0.00358982
-0.000668892
-0.000191083
0.000655113
0.00162328
0.00264889
0.00414747
0.00577861
0.00759423
0.00974688
0.0119238
0.014117
0.0167346
0.0191507
0.0210965
0.022685
0.0237115
0.0241202
0.0238471
0.0232167
0.0223764
0.021232
0.0202187
0.0189103
0.0170311
0.0143654
0.011757
0.00846821
0.00578357
0.00313871
0.00140355
0.000866455
0.00157862
0.00348865
0.00284114
0.004763
0.00445362
0.00583714
0.0058609
0.00658123
0.00648746
0.00716731
0.0074933
0.00616146
0.00205845
0.00544837
0.00429373
-0.000551871
-7.72749e-05
0.000629853
0.00140339
0.00249466
0.00396509
0.00529111
0.00715285
0.00909691
0.0110487
0.0134024
0.0158877
0.018132
0.0202301
0.0219847
0.0232072
0.0239124
0.024002
0.0236577
0.0229914
0.0224144
0.021281
0.0200071
0.0187121
0.0165754
0.0134799
0.0105293
0.00672155
0.00369677
0.0010452
-0.000332696
-0.000129449
0.00207152
0.0010976
0.0039612
0.00327675
0.00569555
0.00534009
0.0068364
0.00689289
0.0076784
0.00749681
0.00829727
0.00862521
0.00711849
0.00259985
0.00632349
0.00504215
-0.000515294
-0.000193365
0.000537729
0.00136063
0.00234809
0.00361613
0.0049901
0.00675
0.00858105
0.0104627
0.0127965
0.0149737
0.0171786
0.0192621
0.0211595
0.0225735
0.0235184
0.0239265
0.0238964
0.02346
0.0228434
0.0224424
0.021316
0.0199223
0.0184931
0.0158667
0.0124319
0.00884416
0.00454659
0.00132256
-0.00116177
-0.00193988
5.27777e-05
-0.00109092
0.00241265
0.00138224
0.0047919
0.00404721
0.00673983
0.00638426
0.00798633
0.00808779
0.00889364
0.00860005
0.00954173
0.00986882
0.00815661
0.00316403
0.00726141
0.00583384
-0.00051289
-0.00020356
0.000499935
0.0010651
0.00222359
0.00325923
0.00471103
0.0063843
0.00809484
0.00989254
0.0119363
0.0141272
0.0162109
0.0182889
0.02027
0.021812
0.0229084
0.02359
0.023826
0.023885
0.0236225
0.0231789
0.0225715
0.0214657
0.0198971
0.0181799
0.0150375
0.0110597
0.00687725
0.00280355
0.000274537
-0.00124678
-0.00192026
-0.00159699
0.000303462
-0.000491476
0.00313164
0.00215346
0.00582756
0.00509301
0.00797082
0.00765078
0.0092788
0.00945308
0.0102448
0.00979758
0.0109163
0.0112245
0.00927314
0.00374603
0.00825986
0.00666315
-0.000440573
-7.54224e-05
0.000425536
0.000893528
0.00207678
0.00304248
0.00451098
0.00597162
0.00757117
0.00931508
0.0111931
0.0132894
0.0152826
0.0173432
0.0192908
0.02094
0.0223046
0.0232055
0.0236962
0.0239205
0.0239241
0.0236583
0.0235267
0.0229197
0.0216763
0.0201123
0.0178938
0.014324
0.0102516
0.00761258
0.00942994
0.0138555
0.00256562
0.0175664
0.000171501
0.00568282
0.0015248
0.00260756
0.00430554
0.0039336
0.00715734
0.00662919
0.00941333
0.00920613
0.0107343
0.0110203
0.011748
0.0110867
0.0124237
0.0126872
0.0104666
0.00433714
0.0093141
0.00751957
-0.000428075
-0.000109747
0.000361139
0.00091675
0.00194303
0.0029216
0.004149
0.0055328
0.00705195
0.0086636
0.0103945
0.012413
0.0144016
0.0163982
0.0182802
0.020019
0.02146
0.0225918
0.0233455
0.0238146
0.0240316
0.0241558
0.0242525
0.0239619
0.0232862
0.0218885
0.0201845
0.0177001
0.0155228
0.0173851
0.0297357
0.061513
0.0466941
0.0912093
0.0231448
0.0620949
0.00958622
0.0306548
0.00554606
0.013897
0.00660969
0.00886238
0.00899171
0.00939373
0.0111379
0.0112753
0.0123764
0.0128511
0.0134136
0.0124678
0.0140646
0.01426
0.0117308
0.00493696
0.0104139
0.00839705
-0.000444018
-0.000214584
0.00014722
0.000666508
0.00169073
0.00268589
0.00369807
0.00500519
0.0065397
0.00804145
0.0097609
0.0116747
0.0134666
0.0154058
0.017262
0.0190836
0.0205724
0.0218295
0.0227979
0.0234726
0.023943
0.0242423
0.0246197
0.02475
0.0245585
0.0238182
0.0225082
0.020761
0.020692
0.0313824
0.0647551
0.119132
0.130387
0.176223
0.107753
0.154747
0.0743733
0.123674
0.0383433
0.0862281
0.0186111
0.0460525
0.0124136
0.0236994
0.0121511
0.0160436
0.0133678
0.0147444
0.0142523
0.0151564
0.0152771
0.0139363
0.0158691
0.0159574
0.0130592
0.00554658
0.0115489
0.00929712
-0.000425075
-0.000251415
1.04665e-05
0.000671478
0.00154748
0.00244844
0.00346199
0.00469626
0.00611163
0.00748456
0.00907192
0.0108824
0.0126308
0.0145093
0.016232
0.0180267
0.0195954
0.0209297
0.0220429
0.0229526
0.0236991
0.0241178
0.0247612
0.0252531
0.0254654
0.0253426
0.0244175
0.0232513
0.0244857
0.042386
0.0972638
0.18352
0.213008
0.241815
0.200725
0.245176
0.173717
0.223133
0.138836
0.192221
0.0980333
0.154817
0.0541772
0.11049
0.0291271
0.0630736
0.0195851
0.0347446
0.0170273
0.0228406
0.01656
0.0188817
0.0175225
0.0154974
0.0179876
0.0178884
0.0144467
0.0061585
0.0127132
0.0102148
-0.000391161
-0.000276204
-6.03976e-05
0.000481057
0.00111674
0.00218335
0.003163
0.00425708
0.00561441
0.00696877
0.00842566
0.0101073
0.0117764
0.0135041
0.0152538
0.0170085
0.0185459
0.0199943
0.0212568
0.0222686
0.0231123
0.0239321
0.0245615
0.0254793
0.0260561
0.0264316
0.0263062
0.0256351
0.0273621
0.0475275
0.119181
0.225284
0.336641
0.280628
0.329625
0.270699
0.313998
0.244466
0.295042
0.212027
0.267713
0.172296
0.234665
0.124659
0.192286
0.0728472
0.141009
0.0402804
0.083233
0.0255516
0.0453191
0.0202343
0.0276353
0.0210248
0.0172136
0.0211682
0.0206348
0.015907
0.00675419
0.0139174
0.0111271
-0.000333327
-0.000286442
-0.00010347
0.000372769
0.00101867
0.00197519
0.00276445
0.00386244
0.00508741
0.00634885
0.00775965
0.00933651
0.0109482
0.012596
0.0142927
0.0159316
0.017551
0.0189412
0.0202605
0.0213824
0.022408
0.0233747
0.02432
0.0253329
0.0263812
0.0271206
0.0275851
0.0276546
0.0293876
0.0498289
0.124641
0.254319
0.352371
0.400126
0.408285
0.351546
0.381202
0.341573
0.381509
0.320343
0.369193
0.294571
0.350185
0.260884
0.326415
0.215695
0.291352
0.159433
0.242481
0.0935944
0.179284
0.0494077
0.102978
0.0289048
0.0523443
0.0292533
0.0194324
0.0284792
0.0265873
0.0176172
0.00731729
0.0152104
0.0120048
-0.000249083
-0.000270473
-0.000134477
0.000257358
0.000828477
0.00164691
0.00243078
0.00351091
0.00455384
0.00579205
0.00716219
0.00860439
0.0101679
0.0117171
0.0133113
0.0148956
0.0164564
0.0178788
0.0192192
0.0204968
0.0216199
0.0227533
0.0238555
0.0249589
0.0263188
0.0274383
0.028356
0.0290121
0.0305032
0.0482411
0.124178
0.252569
0.336649
0.403932
0.385654
0.439188
0.433443
0.412688
0.433157
0.410927
0.443055
0.399864
0.442406
0.385774
0.437058
0.3633
0.427449
0.326114
0.404972
0.271804
0.364228
0.199202
0.302139
0.110495
0.217034
0.0536902
0.115752
0.0530001
0.0237756
0.0495361
0.0435125
0.0204961
0.00785056
0.0168892
0.0129005
-0.000160382
-0.000222032
-0.000147427
0.00014372
0.00063461
0.00130844
0.00213132
0.00303631
0.00406951
0.0052567
0.00650103
0.00788834
0.00936665
0.0108475
0.0123927
0.0138915
0.0153843
0.0168306
0.0181076
0.0193483
0.0206054
0.0217813
0.0231066
0.0244658
0.0258324
0.0274003
0.028684
0.0297875
0.0312125
0.0429337
0.114177
0.242738
0.306665
0.345046
0.415148
0.38236
0.462661
0.444655
0.463328
0.468616
0.474505
0.494002
0.478708
0.509588
0.480635
0.521473
0.473793
0.529232
0.449975
0.523308
0.403665
0.496146
0.330994
0.441581
0.231198
0.356231
0.117957
0.240313
0.115242
0.0359425
0.105675
0.090216
0.0279677
0.00832379
0.0202152
0.0140684
-0.000149399
-0.000131668
4.85739e-05
0.000438216
0.00101785
0.00183055
0.00258524
0.00360542
0.00469459
0.00585925
0.00715782
0.0085785
0.0100191
0.0115053
0.0129445
0.0143411
0.0156858
0.0170106
0.0182283
0.0194377
0.0207562
0.0221651
0.0236888
0.0252424
0.0269307
0.0286462
0.0300678
0.0315738
0.0384204
0.0918315
0.224788
0.282965
0.303243
0.334841
0.301599
0.409963
0.368377
0.476998
0.443087
0.498759
0.492317
0.527205
0.530476
0.549404
0.564002
0.569086
0.593852
0.579908
0.618922
0.572829
0.630269
0.539953
0.61918
0.475824
0.578995
0.376034
0.503798
0.243801
0.389623
0.237724
0.0711687
0.219631
0.191761
0.0505866
0.00839931
0.0292533
0.0155391
-8.76289e-05
-1.11292e-05
0.00026138
0.000768277
0.00142437
0.00216605
0.00310475
0.00412442
0.00521916
0.00647556
0.00788439
0.00925981
0.0106595
0.0119968
0.0133522
0.0146528
0.0158654
0.0170404
0.0182333
0.0195647
0.0210376
0.0226627
0.0244111
0.0261805
0.0281659
0.0299808
0.0316528
0.0355723
0.0692565
0.192967
0.265202
0.27621
0.283516
0.270655
0.322368
0.295656
0.400334
0.357756
0.482378
0.4405
0.523265
0.510097
0.565085
0.555692
0.604509
0.602576
0.641277
0.648841
0.668285
0.689374
0.676861
0.715709
0.659936
0.71837
0.611264
0.694
0.523969
0.634834
0.39569
0.536222
0.39069
0.15586
0.37355
0.34305
0.11049
0.00661643
0.0508999
0.0174566
-3.37516e-05
0.000119799
0.000493992
0.00103749
0.001798
0.00260011
0.00357256
0.00466666
0.00582162
0.00714334
0.00848488
0.00983599
0.0111516
0.0123902
0.0136045
0.0147562
0.0158705
0.016986
0.0182597
0.0197261
0.0214226
0.023306
0.0252757
0.0272753
0.029533
0.0314101
0.034017
0.0519575
0.150615
0.248944
0.257713
0.257471
0.279718
0.271539
0.321826
0.303613
0.395393
0.353525
0.486035
0.444705
0.543031
0.521465
0.591396
0.577279
0.643275
0.628159
0.69022
0.676496
0.733557
0.725661
0.759037
0.773376
0.754509
0.797892
0.720208
0.784911
0.649622
0.737791
0.53856
0.65641
0.53153
0.29442
0.434326
0.516229
0.500649
0.398243
0.488308
0.244593
0.136598
0.00675481
0.196178
0.0550412
0.141574
0.0836015
0.0422342
0.015977
1.19295e-05
0.000260115
0.000710235
0.00137572
0.00208084
0.00301878
0.00406642
0.00515042
0.00642567
0.0077659
0.00906459
0.0103564
0.0115517
0.0126781
0.0137144
0.014727
0.0157079
0.0168616
0.0182682
0.0199697
0.021935
0.0240859
0.0263001
0.0285781
0.0308491
0.0329827
0.041598
0.107368
0.226016
0.246318
0.234151
0.293316
0.281688
0.297015
0.295786
0.344989
0.337964
0.402898
0.367524
0.499772
0.465685
0.558648
0.5313
0.610008
0.590436
0.654063
0.630722
0.703836
0.675963
0.756444
0.728566
0.810821
0.788265
0.831807
0.848143
0.808616
0.830211
0.856293
0.700566
0.746008
0.821776
0.782262
0.594097
0.653276
0.747385
0.700106
0.750317
0.647575
0.643679
0.579008
0.33942
0.441152
0.464466
0.571754
0.559151
0.542285
0.305068
0.00836425
0.0204093
0.253027
0.187712
0.118448
0.0610603
5.49114e-05
0.000392458
0.000948053
0.00159232
0.00245819
0.00345265
0.0045124
0.00572685
0.00703122
0.00832435
0.0095846
0.0107463
0.011829
0.012799
0.0136691
0.0144981
0.0154432
0.0166976
0.0183162
0.0203091
0.0226146
0.0250522
0.0274178
0.0299943
0.0321387
0.036434
0.0731644
0.190721
0.235903
0.215074
0.256843
0.227497
0.344554
0.328374
0.340001
0.345581
0.394733
0.39468
0.432921
0.407422
0.525896
0.504545
0.56893
0.547161
0.605049
0.579901
0.639573
0.597266
0.6837
0.619608
0.745598
0.668138
0.818785
0.747457
0.870234
0.87576
0.864037
0.839572
0.8519
0.88286
0.867964
0.886047
0.788425
0.861843
0.826523
0.699567
0.791677
0.746727
0.792012
0.695399
0.6882
0.632797
0.405319
0.494165
0.521064
0.622306
0.608472
0.591008
0.362714
0.0061545
0.0154596
0.0395398
0.0281945
0.306856
0.238444
0.161214
0.0887305
9.55278e-05
0.000538881
0.00112081
0.00189622
0.00283567
0.0038742
0.00501559
0.00631646
0.00763118
0.00886646
0.0100261
0.0110662
0.0119803
0.0127564
0.0134027
0.0140936
0.0150841
0.0165153
0.0184569
0.0208471
0.0234545
0.0261342
0.028702
0.0312791
0.0339757
0.0516329
0.145932
0.223679
0.207562
0.189642
0.283856
0.233616
0.411493
0.386859
0.403295
0.412841
0.462246
0.465294
0.484113
0.468369
0.530809
0.52367
0.558464
0.542309
0.558007
0.525644
0.549949
0.488369
0.571827
0.467331
0.630877
0.503357
0.798189
0.733447
0.667245
0.586438
0.8897
0.878275
0.849211
0.799011
0.891641
0.913093
0.900569
0.903982
0.831551
0.901345
0.868835
0.743871
0.834406
0.789989
0.834704
0.738485
0.730384
0.678563
0.459204
0.56904
0.541337
0.666712
0.651952
0.633572
0.41439
0.00672588
0.0180016
0.0523217
0.119899
0.357132
0.28697
0.205019
0.0001441
0.000651799
0.00133858
0.00221471
0.00321002
0.00430716
0.00560949
0.00690565
0.0081829
0.00936618
0.0104081
0.0112737
0.0119577
0.0124504
0.0128766
0.0134958
0.01462
0.0163945
0.0187531
0.0215385
0.0245228
0.0273229
0.0300536
0.032441
0.0405069
0.101729
0.204909
0.207694
0.175174
0.190974
0.159247
0.318737
0.244311
0.482367
0.447838
0.476196
0.485453
0.525036
0.533194
0.520854
0.521272
0.493968
0.499591
0.505998
0.496246
0.436054
0.404355
0.385326
0.32643
0.398928
0.336075
0.524668
0.457651
0.417724
0.373357
0.732992
0.658304
0.583099
0.514763
0.891646
0.859712
0.805701
0.736476
0.925036
0.917779
0.931317
0.905248
0.874102
0.935975
0.909335
0.78622
0.87716
0.832547
0.877464
0.779827
0.770671
0.719946
0.505819
0.610813
0.582457
0.706928
0.690995
0.671427
0.460326
0.0070935
0.0657751
0.0208661
0.150225
0.245556
0.402709
0.331232
0.000188052
0.000780972
0.00158036
0.00252939
0.00361031
0.00487207
0.00618046
0.00752529
0.00872594
0.00982679
0.0107126
0.0113139
0.0116786
0.0118228
0.0120288
0.0126957
0.0141333
0.0163327
0.0192574
0.0225004
0.0256792
0.0285019
0.0312566
0.035493
0.0692847
0.170633
0.204834
0.176509
0.135711
0.176677
0.136417
0.354639
0.251301
0.545081
0.499619
0.544755
0.551032
0.546837
0.568917
0.510641
0.526527
0.402263
0.428063
0.391389
0.389489
0.288962
0.272654
0.295912
0.262537
0.353884
0.33279
0.312024
0.456345
0.411055
0.378713
0.357045
0.660267
0.584846
0.516427
0.459032
0.871603
0.815109
0.744391
0.668007
0.944504
0.919332
0.933914
0.884968
0.915348
0.957107
0.945274
0.828089
0.918999
0.875119
0.919602
0.820648
0.810336
0.759013
0.546574
0.6478
0.618669
0.744624
0.727114
0.706142
0.500906
0.00785711
0.176553
0.0778531
0.0234617
0.280956
0.370379
0.443062
0.000236061
0.000935173
0.00182479
0.00287444
0.00408975
0.00544054
0.00682042
0.00810741
0.00928163
0.0102493
0.0108615
0.0111177
0.0110156
0.0107603
0.01086
0.0117202
0.0136786
0.0165933
0.0200176
0.0236011
0.0268775
0.0298065
0.0330272
0.0497871
0.128909
0.19802
0.18901
0.145204
0.105213
0.108628
0.15834
0.116251
0.376701
0.249172
0.586362
0.525119
0.587173
0.595453
0.535697
0.5749
0.461021
0.497397
0.326519
0.367856
0.272034
0.292393
0.235114
0.218532
0.285125
0.254049
0.342771
0.329865
0.334719
0.34101
0.415837
0.387842
0.370249
0.357466
0.593121
0.52558
0.469325
0.428661
0.827766
0.75691
0.681587
0.608352
0.948243
0.900126
0.916977
0.843474
0.952738
0.9632
0.968932
0.870057
0.957763
0.917384
0.959461
0.861598
0.850154
0.797255
0.582355
0.681219
0.651105
0.781187
0.761757
0.738974
0.5366
0.00926636
0.310453
0.197559
0.0870013
0.025002
0.404037
0.478332
0.00029081
0.001093
0.00209207
0.00326651
0.00464987
0.0060657
0.00746707
0.0087398
0.00983505
0.0105439
0.0108025
0.0105123
0.0098133
0.00917064
0.00931339
0.010854
0.0135295
0.017036
0.0210519
0.0249045
0.0281096
0.0311741
0.0395295
0.0915097
0.182862
0.195034
0.166334
0.116111
0.083789
0.0868131
0.134743
0.0930639
0.383774
0.235627
0.604181
0.528518
0.604479
0.616153
0.517504
0.570569
0.413093
0.462679
0.308916
0.358012
0.226747
0.262329
0.222543
0.198438
0.323716
0.309764
0.266151
0.291192
0.349576
0.345894
0.37404
0.379028
0.402621
0.386043
0.378057
0.375928
0.541857
0.48709
0.447935
0.421567
0.77422
0.701018
0.630055
0.565613
0.936824
0.862248
0.883473
0.795558
0.979397
0.955468
0.977934
0.91184
0.987652
0.957812
0.993101
0.902639
0.890095
0.83553
0.614109
0.712281
0.680707
0.817607
0.795979
0.770909
0.567882
0.00950916
0.43246
0.333887
0.212683
0.0910717
0.024314
0.508867
0.000349089
0.0012673
0.00240809
0.00375945
0.00523344
0.00674276
0.00815712
0.00942458
0.0103174
0.0106804
0.0103456
0.00929628
0.00790707
0.00713633
0.00790928
0.0101781
0.0136225
0.0177803
0.0222776
0.0262516
0.0295801
0.034608
0.0651304
0.153833
0.193823
0.182497
0.141645
0.084786
0.099519
0.0645583
0.0724562
0.107143
0.0704431
0.368721
0.208928
0.601584
0.504204
0.608442
0.621345
0.518975
0.574174
0.407578
0.45999
0.322613
0.382721
0.208102
0.258062
0.230792
0.188829
0.363149
0.348066
0.291279
0.324672
0.378086
0.37967
0.420032
0.425087
0.407305
0.402841
0.406276
0.413006
0.512563
0.473218
0.446254
0.434244
0.725929
0.658095
0.596839
0.545226
0.907643
0.820371
0.847596
0.754898
0.990469
0.931795
0.975106
0.952507
1.00215
0.99422
1.01135
0.943137
0.929769
0.874009
0.642637
0.741945
0.708346
0.854111
0.830285
0.802637
0.595464
0.00926458
0.535082
0.45586
0.351311
0.221136
0.0888252
0.0215368
0.000412375
0.00148126
0.00277951
0.00430263
0.00589482
0.00748042
0.00894985
0.0101045
0.0106979
0.0104658
0.00924516
0.00733473
0.0056655
0.00534819
0.00735777
0.0105934
0.0145053
0.0191822
0.0239323
0.0278643
0.0324753
0.0497972
0.120744
0.187458
0.191993
0.163248
0.109082
0.0659959
0.0768793
0.0473519
0.0551802
0.0803963
0.0504843
0.332377
0.172865
0.579713
0.453856
0.608287
0.615833
0.538269
0.583754
0.435993
0.486644
0.336565
0.406082
0.193467
0.258641
0.283827
0.229741
0.191388
0.172908
0.408458
0.39221
0.329932
0.366395
0.419658
0.424063
0.475641
0.480399
0.431224
0.437873
0.44859
0.459755
0.50421
0.476112
0.464631
0.462445
0.692087
0.634716
0.584245
0.542415
0.876832
0.787377
0.821254
0.730406
0.992171
0.905823
0.956835
0.990688
1.00707
1.01749
1.01803
0.982163
0.968613
0.912341
0.668664
0.771003
0.734867
0.89053
0.864513
0.834257
0.619969
0.00874067
0.557528
0.474445
0.36331
0.221631
0.0791489
0.0182656
0.000488298
0.00173503
0.0032308
0.00491464
0.00663041
0.00834205
0.00980353
0.010741
0.0108022
0.00967062
0.00751229
0.00536577
0.00496282
0.00669304
0.00994424
0.0134556
0.0173738
0.0217777
0.0260663
0.0309732
0.0433676
0.0946644
0.172115
0.194989
0.179193
0.131438
0.0612347
0.0443721
0.056298
0.0338874
0.0364345
0.0603913
0.0388236
0.279643
0.133664
0.528382
0.383615
0.604517
0.596646
0.555193
0.582109
0.464242
0.514795
0.335098
0.412973
0.165779
0.240374
0.314004
0.251081
0.192167
0.164098
0.463526
0.444741
0.370258
0.41437
0.469755
0.477374
0.538991
0.544443
0.471281
0.484925
0.500896
0.516884
0.513497
0.501292
0.498716
0.508193
0.677256
0.628099
0.586763
0.557913
0.855772
0.770709
0.810533
0.722227
0.981183
0.888565
0.934444
1.02023
1.00267
1.02817
1.01913
1.01708
1.00626
0.950297
0.692812
0.79977
0.760858
0.926565
0.898223
0.865446
0.641886
0.00693065
0.57667
0.488934
0.36977
0.214602
0.0625235
0.0156432
0.000586568
0.00203434
0.00373904
0.00559903
0.00750261
0.00932871
0.0106905
0.0112129
0.0104525
0.00843466
0.00690761
0.00851292
0.0120886
0.015412
0.0179373
0.0198895
0.021812
0.0246711
0.0293937
0.0414195
0.0813411
0.154202
0.193342
0.188187
0.149195
0.0804232
0.0230047
0.0314185
0.0283885
0.0263489
0.0283894
0.0259058
0.0477085
0.0336797
0.219757
0.0984819
0.446951
0.303408
0.585705
0.547181
0.538527
0.551881
0.471555
0.513283
0.288517
0.36602
0.136731
0.149086
0.235331
0.183042
0.350758
0.274249
0.198356
0.151094
0.525828
0.504384
0.417301
0.468935
0.53032
0.5404
0.606069
0.613329
0.523656
0.542578
0.563381
0.582638
0.544158
0.540129
0.548916
0.564868
0.676971
0.638908
0.610592
0.595012
0.848841
0.768468
0.813796
0.729887
0.962013
0.884601
0.919045
1.03548
0.988231
1.03254
1.01108
1.03883
1.03666
0.98726
0.716092
0.828757
0.787142
0.962335
0.931614
0.896818
0.662248
0.00206657
0.593298
0.500835
0.373387
0.19751
0.0446978
0.0116605
0.000705379
0.00239176
0.00431809
0.00643586
0.00854624
0.0104293
0.0115365
0.0113977
0.010056
0.0100945
0.0142594
0.0191723
0.0222576
0.0241449
0.0248583
0.0252196
0.025315
0.0285302
0.04007
0.0773467
0.143071
0.18813
0.191485
0.161584
0.0961593
0.0313395
0.020577
0.0189618
0.0205125
0.0208161
0.0264035
0.023009
0.0397388
0.030973
0.160529
0.0707303
0.349706
0.219578
0.527618
0.459593
0.473454
0.469709
0.421663
0.454243
0.203578
0.203344
0.247318
0.278053
0.299905
0.11854
0.123534
0.15577
0.389937
0.30096
0.209804
0.139809
0.591293
0.56627
0.466109
0.525108
0.598449
0.609479
0.672735
0.682547
0.585549
0.609087
0.632879
0.653842
0.588946
0.595046
0.610185
0.630543
0.696772
0.670926
0.654756
0.646657
0.856955
0.783222
0.833347
0.756744
0.947825
0.892886
0.915613
1.04216
0.972594
1.03099
0.998679
1.04999
1.05416
1.02275
0.739268
0.85783
0.813154
0.997591
0.965333
0.928447
0.681933
-0.00437966
0.609372
0.513202
0.374752
0.169626
0.0307377
0.0049195
0.000862168
0.00279788
0.00503006
0.00745693
0.00976849
0.0115975
0.0122595
0.0119174
0.0136714
0.0200816
0.0262993
0.0294984
0.0301897
0.0300949
0.0295903
0.0290017
0.0303057
0.0408441
0.0765585
0.138631
0.182537
0.191018
0.167939
0.10808
0.0409256
0.0210232
0.0228131
0.01898
0.0192622
0.0196529
0.020262
0.0254644
0.0225107
0.0346853
0.0290478
0.10792
0.05139
0.244981
0.139383
0.424217
0.347331
0.362415
0.347422
0.314601
0.346114
0.159168
0.153681
0.190915
0.224951
0.256517
0.098977
0.0958436
0.118092
0.427051
0.326207
0.221525
0.132879
0.655877
0.626307
0.512746
0.579075
0.670259
0.680537
0.734819
0.747129
0.655288
0.681038
0.705698
0.726283
0.649683
0.659718
0.680175
0.703019
0.735638
0.722027
0.714126
0.711025
0.877741
0.814257
0.866182
0.800292
0.941877
0.912201
0.923636
1.04391
0.96447
1.02609
0.984892
1.05606
1.06194
1.04907
0.761775
0.885437
0.837235
1.03079
0.999317
0.957738
0.700997
0.0179677
0.626057
0.524476
0.372337
0.141207
0.0230272
0.00619047
0.00104812
0.00328462
0.00592207
0.00868973
0.0111515
0.012773
0.0135272
0.0167732
0.0250746
0.0329424
0.0367811
0.0372867
0.0363134
0.0355513
0.0357281
0.0376922
0.0474721
0.0813745
0.137381
0.17826
0.1886
0.169042
0.114636
0.0486058
0.0261531
0.0213936
0.0227775
0.0195981
0.0201556
0.0204933
0.0206845
0.024664
0.0223915
0.0310754
0.0272348
0.0684391
0.0401428
0.147125
0.077668
0.296421
0.226842
0.2172
0.204921
0.19627
0.206724
0.204054
0.114099
0.096061
0.127619
0.156028
0.179777
0.0766781
0.0679883
0.0803646
0.459016
0.346892
0.22892
0.126084
0.715235
0.679955
0.553662
0.626975
0.741219
0.749293
0.789286
0.803877
0.728942
0.754266
0.777194
0.795175
0.719793
0.734941
0.755289
0.778591
0.789776
0.782485
0.783497
0.788352
0.903081
0.856104
0.898983
0.850858
0.946569
0.925885