/*--------------------------------*- C++ -*----------------------------------*\
  =========                 |
  \\      /  F ield         | OpenFOAM: The Open Source CFD Toolbox
   \\    /   O peration     | Website:  https://openfoam.org
    \\  /    A nd           | Version:  dev
     \\/     M anipulation  |
\*---------------------------------------------------------------------------*/
FoamFile
{
    version     2.0;
    format      ascii;
    class       surfaceScalarField;
    location    "2500";
    object      phi;
}
// * * * * * * * * * * * * * * * * * * * * * * * * * * * * * * * * * * * * * //

dimensions      [1 0 -1 0 0 0 0];

internalField   nonuniform List<scalar> 
19771
(
1.57014e-07
1.06564e-07
1.36433e-07
2.67023e-07
4.38944e-07
9.68601e-08
1.11853e-07
3.67327e-07
4.33488e-07
2.72502e-07
6.36259e-07
8.13183e-08
9.18026e-08
4.4013e-07
4.0168e-07
3.99165e-07
6.56518e-07
2.52353e-07
7.93233e-07
6.88221e-08
7.62542e-08
4.96471e-07
3.51755e-07
4.90182e-07
6.57453e-07
3.98284e-07
8.23444e-07
2.22178e-07
9.29756e-07
6.07332e-08
6.38472e-08
5.45222e-07
2.95623e-07
5.52654e-07
6.32352e-07
5.15317e-07
8.50521e-07
3.71247e-07
9.57132e-07
1.94715e-07
1.05624e-06
5.47379e-08
5.49829e-08
5.91481e-07
2.4474e-07
5.96165e-07
5.82933e-07
6.02113e-07
8.59628e-07
5.06245e-07
9.95585e-07
3.32913e-07
1.07722e-06
1.7375e-07
1.17331e-06
5.02745e-08
4.97004e-08
6.3889e-07
2.05421e-07
6.30743e-07
5.18788e-07
6.60367e-07
8.42678e-07
6.19106e-07
1.02996e-06
4.71916e-07
1.1123e-06
2.97848e-07
1.18767e-06
1.5937e-07
1.28296e-06
4.62272e-08
4.63264e-08
6.88876e-07
1.80754e-07
6.63624e-07
4.50502e-07
6.9921e-07
7.99183e-07
7.03913e-07
1.04821e-06
6.00893e-07
1.15611e-06
4.28183e-07
1.21509e-06
2.70545e-07
1.29648e-06
1.45859e-07
1.38487e-06
4.23754e-08
4.31636e-08
7.39642e-07
1.67717e-07
7.02015e-07
3.85483e-07
7.28708e-07
7.35433e-07
7.63025e-07
1.04187e-06
7.10285e-07
1.19884e-06
5.58203e-07
1.25689e-06
3.86478e-07
1.31989e-06
2.47199e-07
1.39691e-06
1.33866e-07
1.47931e-06
3.90096e-08
4.07677e-08
7.88454e-07
1.60048e-07
7.47386e-07
3.34212e-07
7.53325e-07
6.61158e-07
8.03007e-07
1.00816e-06
7.96802e-07
1.22791e-06
6.81235e-07
1.30871e-06
5.06382e-07
1.35384e-06
3.52594e-07
1.4172e-06
2.2696e-07
1.49037e-06
1.22841e-07
1.56725e-06
3.56017e-08
3.92747e-08
8.35225e-07
1.53486e-07
7.95039e-07
3.0134e-07
7.80259e-07
5.84634e-07
8.29919e-07
9.50468e-07
8.60794e-07
1.23382e-06
7.90959e-07
1.36026e-06
6.29704e-07
1.40073e-06
4.59519e-07
1.44639e-06
3.23477e-07
1.50918e-06
2.08222e-07
1.57795e-06
1.12186e-07
1.6486e-06
3.25373e-08
3.78806e-08
8.83163e-07
1.44819e-07
8.43953e-07
2.80862e-07
8.15581e-07
5.16193e-07
8.48861e-07
8.7723e-07
9.03195e-07
1.21252e-06
8.82152e-07
1.40114e-06
7.50101e-07
1.45768e-06
5.72803e-07
1.48596e-06
4.19938e-07
1.53604e-06
2.9662e-07
1.59601e-06
1.9022e-07
1.65846e-06
1.02367e-07
1.72332e-06
2.9543e-08
3.6649e-08
9.31256e-07
1.3678e-07
8.91252e-07
2.68208e-07
8.56685e-07
4.64946e-07
8.66919e-07
7.9759e-07
9.28551e-07
1.16596e-06
9.49846e-07
1.42145e-06
8.6191e-07
1.51743e-06
6.90393e-07
1.5385e-06
5.20312e-07
1.57216e-06
3.83821e-07
1.62138e-06
2.71275e-07
1.6757e-06
1.73001e-07
1.73327e-06
9.243e-08
1.79287e-06
2.6515e-08
3.53302e-08
9.78224e-07
1.30583e-07
9.3751e-07
2.59146e-07
9.00418e-07
4.29603e-07
8.92114e-07
7.18778e-07
9.45792e-07
1.09902e-06
9.95542e-07
1.41582e-06
9.55529e-07
1.57033e-06
8.0904e-07
1.60124e-06
6.27705e-07
1.61817e-06
4.74422e-07
1.65416e-06
3.51097e-07
1.70014e-06
2.46902e-07
1.74994e-06
1.56402e-07
1.80196e-06
8.33639e-08
1.85594e-06
2.35551e-08
3.37015e-08
1.02427e-06
1.25281e-07
9.83498e-07
2.48786e-07
9.47957e-07
4.04642e-07
9.25312e-07
6.49578e-07
9.6139e-07
1.02037e-06
1.02449e-06
1.38472e-06
1.02669e-06
1.60631e-06
9.19596e-07
1.66976e-06
7.40571e-07
1.67492e-06
5.70929e-07
1.69531e-06
4.33368e-07
1.73207e-06
3.19185e-07
1.77294e-06
2.23951e-07
1.8175e-06
1.40908e-07
1.86517e-06
7.41569e-08
1.91335e-06
2.06879e-08
3.25391e-08
1.06966e-06
1.20716e-07
1.02884e-06
2.37473e-07
9.94985e-07
3.87174e-07
9.65491e-07
5.94077e-07
9.81013e-07
9.37682e-07
1.04417e-06
1.33179e-06
1.07746e-06
1.61935e-06
1.01369e-06
1.73562e-06
8.53795e-07
1.74228e-06
6.73319e-07
1.74707e-06
5.19191e-07
1.77132e-06
3.94204e-07
1.80318e-06
2.89006e-07
1.84035e-06
2.01164e-07
1.88078e-06
1.2535e-07
1.92241e-06
6.51366e-08
1.96452e-06
1.79138e-08
3.1018e-08
1.11325e-06
1.16563e-07
1.07387e-06
2.27174e-07
1.03924e-06
3.71178e-07
1.01103e-06
5.55218e-07
1.00432e-06
8.588e-07
1.05991e-06
1.26356e-06
1.11242e-06
1.60689e-06
1.08995e-06
1.78837e-06
9.60994e-07
1.81858e-06
7.77562e-07
1.80909e-06
6.11318e-07
1.81852e-06
4.72012e-07
1.84125e-06
3.56195e-07
1.87015e-06
2.59254e-07
1.90287e-06
1.79126e-07
1.93797e-06
1.09837e-07
1.97345e-06
5.62308e-08
2.01061e-06
1.50139e-08
2.97134e-08
1.15449e-06
1.12633e-07
1.11723e-06
2.17244e-07
1.08385e-06
3.5581e-07
1.05468e-06
5.30309e-07
1.03599e-06
7.87142e-07
1.0761e-06
1.18658e-06
1.13697e-06
1.5709e-06
1.14846e-06
1.82149e-06
1.05681e-06
1.89629e-06
8.83351e-07
1.88139e-06
7.05237e-07
1.8754e-06
5.54512e-07
1.88712e-06
4.26174e-07
1.90728e-06
3.19129e-07
1.93221e-06
2.29976e-07
1.95982e-06
1.57339e-07
1.98848e-06
9.48748e-08
2.01922e-06
4.76707e-08
2.0506e-06
1.23727e-08
2.84535e-08
1.19424e-06
1.08008e-07
1.15918e-06
2.08756e-07
1.12577e-06
3.41376e-07
1.09827e-06
5.07031e-07
1.078e-06
7.29428e-07
1.09384e-06
1.10752e-06
1.15519e-06
1.51746e-06
1.19044e-06
1.8311e-06
1.13889e-06
1.96572e-06
9.87429e-07
1.96454e-06
8.00299e-07
1.94297e-06
6.376e-07
1.94145e-06
5.00243e-07
1.95127e-06
3.82241e-07
1.96825e-06
2.83156e-07
1.98819e-06
2.01664e-07
2.01015e-06
1.35696e-07
2.03421e-06
7.98955e-08
2.05921e-06
3.91085e-08
2.08537e-06
9.63825e-09
2.68877e-08
1.23202e-06
1.0308e-07
1.19924e-06
2.00916e-07
1.16707e-06
3.2636e-07
1.14083e-06
4.86982e-07
1.11844e-06
6.91076e-07
1.11638e-06
1.03097e-06
1.17034e-06
1.4527e-06
1.21997e-06
1.81703e-06
1.20456e-06
2.02024e-06
1.08442e-06
2.05285e-06
8.99187e-07
2.02157e-06
7.21868e-07
2.00433e-06
5.74758e-07
2.00323e-06
4.48363e-07
2.01138e-06
3.39174e-07
2.02332e-06
2.48111e-07
2.03881e-06
1.73078e-07
2.05555e-06
1.14466e-07
2.07405e-06
6.51049e-08
2.09363e-06
3.08671e-08
2.11464e-06
6.71321e-09
2.52647e-08
1.26706e-06
9.8039e-08
1.2371e-06
1.92567e-07
1.20764e-06
3.13863e-07
1.17961e-06
4.6949e-07
1.15831e-06
6.60783e-07
1.14874e-06
9.61207e-07
1.18608e-06
1.38148e-06
1.24157e-06
1.78279e-06
1.25427e-06
2.05418e-06
1.1706e-06
2.13813e-06
9.99112e-07
2.11064e-06
8.10124e-07
2.07738e-06
6.48933e-07
2.0636e-06
5.14415e-07
2.06172e-06
3.98082e-07
2.06583e-06
2.96748e-07
2.07368e-06
2.13315e-07
2.08328e-06
1.45412e-07
2.09518e-06
9.33944e-08
2.10849e-06
5.03164e-08
2.12291e-06
2.26198e-08
2.138e-06
3.77696e-09
2.36554e-08
1.29926e-06
9.23552e-08
1.27275e-06
1.83782e-07
1.24587e-06
3.02816e-07
1.21873e-06
4.48446e-07
1.2007e-06
6.36595e-07
1.18243e-06
9.03833e-07
1.20614e-06
1.30733e-06
1.26029e-06
1.73358e-06
1.29085e-06
2.06606e-06
1.2424e-06
2.21338e-06
1.09532e-06
2.20719e-06
9.026e-07
2.1609e-06
7.26587e-07
2.13241e-06
5.80146e-07
2.12009e-06
4.56142e-07
2.11497e-06
3.48969e-07
2.11464e-06
2.5591e-07
2.11794e-06
1.78722e-07
2.12323e-06
1.17379e-07
2.12977e-06
7.21463e-08
2.13734e-06
3.59504e-08
2.1474e-06
1.3241e-08
2.15696e-06
1.0958e-09
2.19305e-08
1.32822e-06
8.70445e-08
1.30462e-06
1.75299e-07
1.28127e-06
2.89948e-07
1.25881e-06
4.26876e-07
1.2403e-06
6.16348e-07
1.22074e-06
8.56983e-07
1.22941e-06
1.23572e-06
1.27782e-06
1.67574e-06
1.31814e-06
2.05737e-06
1.29954e-06
2.2725e-06
1.18336e-06
2.3055e-06
9.97038e-07
2.25507e-06
8.08509e-07
2.21101e-06
6.48072e-07
2.18674e-06
5.13487e-07
2.17152e-06
3.99602e-07
2.16292e-06
3.00561e-07
2.15913e-06
2.14801e-07
2.15753e-06
1.44567e-07
2.15667e-06
9.05737e-08
2.15821e-06
5.1359e-08
2.16117e-06
2.22429e-08
2.16524e-06
4.98629e-09
2.17078e-06
-1.16198e-09
1.99504e-08
1.35364e-06
8.13345e-08
1.33399e-06
1.65125e-07
1.31482e-06
2.75571e-07
1.29572e-06
4.08371e-07
1.27736e-06
5.95911e-07
1.26065e-06
8.21249e-07
1.25666e-06
1.17102e-06
1.29417e-06
1.6132e-06
1.34038e-06
2.03109e-06
1.34442e-06
2.31218e-06
1.25988e-06
2.39918e-06
1.08974e-06
2.35864e-06
8.93485e-07
2.30013e-06
7.19426e-07
2.26122e-06
5.73549e-07
2.23628e-06
4.48822e-07
2.21918e-06
3.43433e-07
2.20635e-06
2.5341e-07
2.19782e-06
1.74566e-07
2.18997e-06
1.11368e-07
2.18519e-06
6.36749e-08
2.18134e-06
3.12593e-08
2.17947e-06
8.05665e-09
2.17917e-06
-3.37052e-09
2.18467e-06
-4.26879e-09
1.7866e-08
1.37448e-06
7.47667e-08
1.36013e-06
1.54734e-07
1.3444e-06
2.61623e-07
1.32869e-06
3.91007e-07
1.31305e-06
5.73489e-07
1.29975e-06
7.92103e-07
1.2899e-06
1.11316e-06
1.31452e-06
1.55062e-06
1.35669e-06
1.99306e-06
1.37838e-06
2.33233e-06
1.32429e-06
2.48209e-06
1.17699e-06
2.46774e-06
9.80617e-07
2.39942e-06
7.9417e-07
2.3449e-06
6.35867e-07
2.30853e-06
5.01223e-07
2.28203e-06
3.86103e-07
2.26075e-06
2.8908e-07
2.24509e-06
2.06213e-07
2.2303e-06
1.343e-07
2.21811e-06
7.85228e-08
2.20836e-06
3.67167e-08
2.19953e-06
1.12878e-08
2.19377e-06
-6.48182e-09
2.19482e-06
-1.34929e-08
2.18689e-06
-7.4797e-09
1.55709e-08
1.39103e-06
6.78108e-08
1.38141e-06
1.44626e-07
1.3704e-06
2.46012e-07
1.35996e-06
3.72243e-07
1.34757e-06
5.4839e-07
1.33815e-06
7.66811e-07
1.32502e-06
1.06648e-06
1.33652e-06
1.49236e-06
1.37273e-06
1.94801e-06
1.40181e-06
2.3347e-06
1.376e-06
2.54959e-06
1.25679e-06
2.57666e-06
1.06806e-06
2.50855e-06
8.71609e-07
2.43859e-06
7.00538e-07
2.38927e-06
5.55271e-07
2.35232e-06
4.31012e-07
2.32347e-06
3.23437e-07
2.29933e-06
2.3491e-07
2.27707e-06
1.59475e-07
2.25715e-06
9.53438e-08
2.24102e-06
4.59744e-08
2.22593e-06
1.04061e-08
2.21382e-06
-8.67226e-09
2.20955e-06
-2.11327e-08
2.1973e-06
-2.38626e-08
2.18337e-06
-1.09984e-08
1.35971e-08
1.40223e-06
6.10203e-08
1.39784e-06
1.33465e-07
1.39264e-06
2.30374e-07
1.38592e-06
3.55441e-07
1.37669e-06
5.24708e-07
1.37126e-06
7.46007e-07
1.3589e-06
1.0319e-06
1.35941e-06
1.43923e-06
1.3896e-06
1.90043e-06
1.42025e-06
2.32224e-06
1.41421e-06
2.60025e-06
1.32532e-06
2.67979e-06
1.15367e-06
2.62459e-06
9.51907e-07
2.54227e-06
7.67903e-07
2.47846e-06
6.1126e-07
2.43062e-06
4.77011e-07
2.39358e-06
3.60962e-07
2.36085e-06
2.6198e-07
2.33107e-06
1.81039e-07
2.30323e-06
1.13509e-07
2.2794e-06
5.70547e-08
2.2585e-06
1.35003e-08
2.24004e-06
-1.57187e-08
2.2296e-06
-2.86492e-08
2.21397e-06
-3.77342e-08
2.19485e-06
-3.5291e-08
2.17352e-06
-1.52412e-08
1.18181e-08
1.40868e-06
5.37955e-08
1.40946e-06
1.21958e-07
1.40937e-06
2.1658e-07
1.40643e-06
3.38685e-07
1.40271e-06
5.0171e-07
1.39973e-06
7.2521e-07
1.39174e-06
1.00579e-06
1.38487e-06
1.39114e-06
1.40751e-06
1.85343e-06
1.43652e-06
2.29885e-06
1.4436e-06
2.63266e-06
1.38177e-06
2.77308e-06
1.23201e-06
2.74557e-06
1.03269e-06
2.65594e-06
8.38255e-07
2.57726e-06
6.69214e-07
2.5178e-06
5.24079e-07
2.47108e-06
3.99542e-07
2.42961e-06
2.92249e-07
2.39222e-06
2.00879e-07
2.35659e-06
1.27746e-07
2.32429e-06
6.87202e-08
2.29653e-06
1.91172e-08
2.27167e-06
-1.80528e-08
2.25496e-06
-4.09871e-08
2.23612e-06
-5.07202e-08
2.21338e-06
-5.62089e-08
2.18663e-06
-4.83576e-08
2.15617e-06
-2.02386e-08
9.93759e-09
1.41013e-06
4.70617e-08
1.41542e-06
1.10958e-07
1.42046e-06
2.02285e-07
1.42348e-06
3.19144e-07
1.42593e-06
4.80131e-07
1.42423e-06
7.04427e-07
1.42043e-06
9.86537e-07
1.41107e-06
1.35071e-06
1.42528e-06
1.80884e-06
1.45204e-06
2.26952e-06
1.46579e-06
2.64939e-06
1.42685e-06
2.85181e-06
1.30307e-06
2.86511e-06
1.11252e-06
2.77836e-06
9.1033e-07
2.6854e-06
7.30136e-07
2.61335e-06
5.73547e-07
2.5553e-06
4.3989e-07
2.50558e-06
3.23617e-07
2.46037e-06
2.24103e-07
2.41706e-06
1.40474e-07
2.37659e-06
7.55296e-08
2.34037e-06
2.49561e-08
2.30865e-06
-1.7758e-08
2.28549e-06
-4.84934e-08
2.26312e-06
-6.78831e-08
2.23732e-06
-7.45691e-08
2.20821e-06
-7.77385e-08
2.1719e-06
-6.40515e-08
2.12979e-06
-2.62514e-08
8.17571e-09
1.40588e-06
4.03847e-08
1.41681e-06
9.96579e-08
1.42675e-06
1.87022e-07
1.43569e-06
3.00753e-07
1.44201e-06
4.6247e-07
1.4435e-06
6.8681e-07
1.44186e-06
9.72108e-07
1.43473e-06
1.32017e-06
1.44154e-06
1.76848e-06
1.46562e-06
2.23841e-06
1.48306e-06
2.65209e-06
1.46304e-06
2.91419e-06
1.36446e-06
2.97807e-06
1.19008e-06
2.90633e-06
9.84462e-07
2.80325e-06
7.9244e-07
2.71726e-06
6.26364e-07
2.64762e-06
4.81334e-07
2.58989e-06
3.55632e-07
2.53673e-06
2.47348e-07
2.48504e-06
1.56195e-07
2.43626e-06
8.08675e-08
2.39082e-06
2.51889e-08
2.35117e-06
-1.74636e-08
2.3206e-06
-5.27493e-08
2.29426e-06
-7.95237e-08
2.26573e-06
-9.61727e-08
2.23593e-06
-1.02202e-07
2.19786e-06
-1.03623e-07
2.14934e-06
-8.35766e-08
2.09259e-06
-3.35121e-08
6.35227e-09
1.39676e-06
3.34641e-08
1.41283e-06
8.90429e-08
1.42745e-06
1.72494e-07
1.44128e-06
2.84013e-07
1.45237e-06
4.46744e-07
1.4576e-06
6.72775e-07
1.45742e-06
9.59614e-07
1.45414e-06
1.2998e-06
1.45492e-06
1.73387e-06
1.47604e-06
2.20784e-06
1.49601e-06
2.64549e-06
1.48962e-06
2.96082e-06
1.4164e-06
3.08052e-06
1.26203e-06
3.0357e-06
1.06074e-06
2.92852e-06
8.59198e-07
2.83053e-06
6.79032e-07
2.74943e-06
5.24427e-07
2.68249e-06
3.88623e-07
2.62099e-06
2.71439e-07
2.56136e-06
1.71075e-07
2.50375e-06
8.87594e-08
2.4488e-06
2.29708e-08
2.39948e-06
-2.30233e-08
2.3596e-06
-5.63589e-08
2.32924e-06
-8.76297e-08
2.29799e-06
-1.11675e-07
2.26748e-06
-1.27596e-07
2.23092e-06
-1.35162e-07
2.1816e-06
-1.35791e-07
2.11691e-06
-1.07852e-07
2.04288e-06
-4.18504e-08
4.67188e-09
1.38182e-06
2.74671e-08
1.40274e-06
7.94586e-08
1.42237e-06
1.58114e-07
1.44161e-06
2.66749e-07
1.45841e-06
4.33008e-07
1.46601e-06
6.61415e-07
1.46881e-06
9.49606e-07
1.46723e-06
1.28818e-06
1.46556e-06
1.70549e-06
1.48319e-06
2.17867e-06
1.50505e-06
2.63282e-06
1.5086e-06
2.99244e-06
1.45792e-06
3.16992e-06
1.32697e-06
3.16285e-06
1.13494e-06
3.06054e-06
9.28789e-07
2.95191e-06
7.37849e-07
2.8598e-06
5.68703e-07
2.78284e-06
4.24209e-07
2.71362e-06
2.9601e-07
2.64625e-06
1.86595e-07
2.57923e-06
9.56576e-08
2.51452e-06
2.31179e-08
2.45444e-06
-3.18946e-08
2.40361e-06
-6.69287e-08
2.3678e-06
-9.48077e-08
2.33263e-06
-1.22164e-07
2.30152e-06
-1.45595e-07
2.2674e-06
-1.63968e-07
2.22252e-06
-1.75998e-07
2.15604e-06
-1.74856e-07
2.07224e-06
-1.37162e-07
1.97872e-06
-5.324e-08
2.96002e-09
1.36199e-06
2.19534e-08
1.38735e-06
6.98753e-08
1.41235e-06
1.44081e-07
1.43634e-06
2.52485e-07
1.45598e-06
4.23248e-07
1.46805e-06
6.54226e-07
1.47307e-06
9.45484e-07
1.47262e-06
1.28233e-06
1.47288e-06
1.68454e-06
1.48631e-06
2.15211e-06
1.50961e-06
2.61703e-06
1.52074e-06
3.01092e-06
1.49006e-06
3.24447e-06
1.38335e-06
3.28387e-06
1.20588e-06
3.19576e-06
9.99679e-07
3.07974e-06
8.01031e-07
2.977e-06
6.20752e-07
2.89162e-06
4.59823e-07
2.81468e-06
3.2302e-07
2.73989e-06
2.02389e-07
2.66481e-06
1.01041e-07
2.58964e-06
2.05842e-08
2.51726e-06
-3.96187e-08
2.45376e-06
-8.19507e-08
2.40959e-06
-1.08607e-07
2.36865e-06
-1.30711e-07
2.33619e-06
-1.56712e-07
2.30544e-06
-1.83509e-07
2.26616e-06
-2.07487e-07
2.20603e-06
-2.25883e-07
2.12249e-06
-2.25028e-07
2.00804e-06
-7.19515e-08
-9.44757e-08
9.46016e-07
-2.0038e-08
9.35643e-07
-4.52379e-08
6.02628e-10
1.33777e-06
1.74546e-08
1.36647e-06
6.01418e-08
1.39701e-06
1.32447e-07
1.42399e-06
2.42296e-07
1.44642e-06
4.15802e-07
1.46303e-06
6.52063e-07
1.4701e-06
9.45984e-07
1.47237e-06
1.28083e-06
1.47403e-06
1.67188e-06
1.48539e-06
2.12934e-06
1.50907e-06
2.60067e-06
1.52587e-06
3.01918e-06
1.51241e-06
3.30386e-06
1.43061e-06
3.3947e-06
1.27248e-06
3.33112e-06
1.07051e-06
3.21277e-06
8.66639e-07
3.10127e-06
6.76782e-07
3.0073e-06
5.05091e-07
2.92425e-06
3.50387e-07
2.84293e-06
2.20037e-07
2.76013e-06
1.07146e-07
2.67493e-06
1.58029e-08
2.59029e-06
-5.23853e-08
2.5129e-06
-9.86558e-08
2.45501e-06
-1.27268e-07
2.40567e-06
-1.45513e-07
2.36961e-06
-1.64006e-07
2.34227e-06
-1.93418e-07
2.31202e-06
-2.29234e-07
2.26311e-06
-2.64446e-07
2.18305e-06
-1.37113e-07
-1.49228e-07
1.03423e-06
-1.30579e-07
1.02676e-06
-1.47321e-07
9.54452e-07
-8.03793e-08
9.71692e-07
-1.11699e-07
8.86853e-07
-1.73356e-08
9.42653e-07
-8.73785e-08
8.98867e-07
-5.72272e-08
-1.34904e-09
1.30737e-06
1.46265e-08
1.34071e-06
5.27262e-08
1.37387e-06
1.25189e-07
1.40422e-06
2.36354e-07
1.42986e-06
4.14029e-07
1.44801e-06
6.58004e-07
1.45696e-06
9.51547e-07
1.46423e-06
1.285e-06
1.46809e-06
1.66652e-06
1.47919e-06
2.11129e-06
1.50325e-06
2.58394e-06
1.52556e-06
3.01999e-06
1.52495e-06
3.34858e-06
1.46763e-06
3.49254e-06
1.33273e-06
3.4628e-06
1.14067e-06
3.34934e-06
9.33926e-07
3.23128e-06
7.36511e-07
3.12892e-06
5.55257e-07
3.04061e-06
3.88777e-07
2.95548e-06
2.37823e-07
2.86577e-06
1.14266e-07
2.77211e-06
9.95076e-09
2.67557e-06
-6.93844e-08
2.58191e-06
-1.21305e-07
2.50596e-06
-1.49493e-07
2.44428e-06
-1.65762e-07
2.4009e-06
-1.76677e-07
2.37474e-06
-1.96346e-07
2.35587e-06
-2.3713e-07
2.32347e-06
-2.89462e-07
2.25844e-06
-1.64186e-07
-1.75522e-07
1.05341e-06
-1.5626e-07
1.07735e-06
-1.73144e-07
9.84956e-07
-1.43823e-07
1.04627e-06
-1.75748e-07
1.00868e-06
-1.71024e-07
9.52387e-07
-1.21416e-07
8.55897e-07
-1.79224e-08
9.08517e-07
-9.70147e-08
8.63571e-07
-6.4891e-08
-2.57412e-09
1.27199e-06
1.17843e-08
1.31019e-06
4.85698e-08
1.34488e-06
1.20017e-07
1.37895e-06
2.34624e-07
1.4058e-06
4.19294e-07
1.42413e-06
6.69945e-07
1.43586e-06
9.63665e-07
1.44472e-06
1.2971e-06
1.45195e-06
1.66848e-06
1.4658e-06
2.09889e-06
1.49136e-06
2.56734e-06
1.51968e-06
3.01679e-06
1.52865e-06
3.37984e-06
1.49359e-06
3.57598e-06
1.38419e-06
3.58778e-06
1.20777e-06
3.4873e-06
1.00269e-06
3.36515e-06
7.99999e-07
3.25582e-06
6.09564e-07
3.16262e-06
4.33202e-07
3.07461e-06
2.69632e-07
2.98164e-06
1.21952e-07
2.88256e-06
3.78746e-09
2.77522e-06
-8.97171e-08
2.66446e-06
-1.51877e-07
2.56647e-06
-1.81711e-07
2.48685e-06
-1.91943e-07
2.42883e-06
-1.9356e-07
2.40034e-06
-2.02135e-07
2.39193e-06
-2.32276e-07
2.38121e-06
-2.94735e-07
2.34089e-06
-1.83106e-07
-1.88669e-07
1.10015e-06
-1.8695e-07
1.12525e-06
-2.00588e-07
1.06903e-06
-1.95877e-07
9.67622e-07
-1.59036e-07
1.0308e-06
-1.97832e-07
9.88938e-07
-1.92314e-07
9.22802e-07
-1.35681e-07
8.2e-07
-1.93607e-08
8.75693e-07
-1.09119e-07
8.2728e-07
-7.21556e-08
-3.00561e-09
1.23301e-06
9.68052e-09
1.27407e-06
4.77301e-08
1.31097e-06
1.18896e-07
1.34588e-06
2.39053e-07
1.37444e-06
4.32397e-07
1.39246e-06
6.87228e-07
1.40673e-06
9.83164e-07
1.41611e-06
1.31499e-06
1.42659e-06
1.67593e-06
1.44424e-06
2.0914e-06
1.47297e-06
2.55256e-06
1.50585e-06
3.01044e-06
1.52588e-06
3.39946e-06
1.50895e-06
3.64369e-06
1.42578e-06
3.70183e-06
1.27008e-06
3.62309e-06
1.07192e-06
3.50101e-06
8.66792e-07
3.3868e-06
6.69015e-07
3.28894e-06
4.83013e-07
3.19925e-06
3.08618e-07
3.10636e-06
1.45082e-07
3.00369e-06
8.02787e-10
2.89274e-06
-1.13753e-07
2.76443e-06
-1.89622e-07
2.64151e-06
-2.26839e-07
2.53772e-06
-2.32464e-07
2.45684e-06
-2.19832e-07
2.41458e-06
-2.07662e-07
2.41298e-06
-2.23038e-07
2.42677e-06
-2.777e-07
2.41931e-06
-1.85738e-07
-1.87276e-07
1.1507e-06
-2.08516e-07
1.17585e-06
-2.13785e-07
1.09485e-06
-2.12736e-07
1.12219e-06
-2.27892e-07
1.05697e-06
-2.22017e-07
9.41128e-07
-1.77336e-07
1.01381e-06
-2.22671e-07
9.64059e-07
-2.15213e-07
8.91672e-07
-1.51636e-07
7.79651e-07
-2.09695e-08
8.40036e-07
-1.21853e-07
7.86722e-07
-7.92071e-08
-2.22384e-09
1.1901e-06
1.0733e-08
1.23195e-06
4.92454e-08
1.27249e-06
1.21878e-07
1.30787e-06
2.488e-07
1.3357e-06
4.53525e-07
1.35302e-06
7.11707e-07
1.36776e-06
1.00956e-06
1.38011e-06
1.33652e-06
1.39435e-06
1.68717e-06
1.41511e-06
2.08856e-06
1.44698e-06
2.54065e-06
1.48475e-06
2.99921e-06
1.51706e-06
3.40935e-06
1.51588e-06
3.69545e-06
1.45711e-06
3.80222e-06
1.32533e-06
3.7533e-06
1.13978e-06
3.63705e-06
9.35813e-07
3.52e-06
7.33501e-07
3.41903e-06
5.39098e-07
3.32873e-06
3.53374e-07
3.23765e-06
1.77339e-07
3.13506e-06
1.38729e-08
3.01958e-06
-1.26073e-07
2.88504e-06
-2.34403e-07
2.73702e-06
-2.85071e-07
2.60505e-06
-2.94036e-07
2.48948e-06
-2.64965e-07
2.42043e-06
-2.25543e-07
2.41022e-06
-2.04772e-07
2.44735e-06
-2.43481e-07
2.48367e-06
-1.72532e-07
-1.69396e-07
1.20339e-06
-2.13242e-07
1.2269e-06
-2.10757e-07
1.15155e-06
-2.37841e-07
1.18148e-06
-2.43681e-07
1.08627e-06
-2.41993e-07
1.1167e-06
-2.58291e-07
1.04217e-06
-2.50346e-07
9.11355e-07
-1.9699e-07
9.91479e-07
-2.50056e-07
9.3628e-07
-2.40104e-07
8.57681e-07
-1.69253e-07
7.35148e-07
-2.22769e-08
7.99187e-07
-1.34292e-07
7.42165e-07
-8.61992e-08
-6.41744e-10
1.14463e-06
1.3131e-08
1.18753e-06
5.24369e-08
1.22869e-06
1.28528e-07
1.26577e-06
2.66514e-07
1.29004e-06
4.82231e-07
1.30698e-06
7.4296e-07
1.32152e-06
1.04027e-06
1.33691e-06
1.36213e-06
1.35426e-06
1.70316e-06
1.37804e-06
2.08976e-06
1.41368e-06
2.52995e-06
1.45733e-06
2.98488e-06
1.49895e-06
3.41096e-06
1.51533e-06
3.73223e-06
1.47899e-06
3.88713e-06
1.37214e-06
3.87457e-06
1.204e-06
3.77069e-06
1.00607e-06
3.653e-06
8.02748e-07
3.54995e-06
6.02556e-07
3.46026e-06
4.0754e-07
3.37277e-06
2.18265e-07
3.27507e-06
3.74037e-08
3.15935e-06
-1.25725e-07
3.02124e-06
-2.62295e-07
2.8593e-06
-3.56545e-07
2.69583e-06
-3.75811e-07
2.53969e-06
-3.44094e-07
2.42553e-06
-2.69913e-07
2.38691e-06
-2.02086e-07
2.43137e-06
-1.88661e-07
2.52143e-06
-1.44247e-07
-1.36866e-07
1.25415e-06
-1.99745e-07
1.27202e-06
-1.87242e-07
1.21282e-06
-2.44541e-07
1.24342e-06
-2.41333e-07
1.15046e-06
-2.71563e-07
1.18586e-06
-2.79038e-07
1.07423e-06
-2.74008e-07
1.10966e-06
-2.93684e-07
1.02295e-06
-2.81778e-07
8.78123e-07
-2.17399e-07
9.65989e-07
-2.79727e-07
9.04615e-07
-2.66558e-07
8.1714e-07
-1.87173e-07
6.86799e-07
-2.33556e-08
7.54525e-07
-1.46621e-07
6.93347e-07
-9.27171e-08
8.42779e-10
1.0985e-06
1.54653e-08
1.14226e-06
5.88053e-08
1.18123e-06
1.38703e-07
1.21839e-06
2.93272e-07
1.23883e-06
5.16188e-07
1.25587e-06
7.79943e-07
1.26972e-06
1.07541e-06
1.28618e-06
1.3916e-06
1.30712e-06
1.72296e-06
1.3342e-06
2.09334e-06
1.37425e-06
2.5201e-06
1.42328e-06
2.96985e-06
1.47217e-06
3.40424e-06
1.50558e-06
3.75572e-06
1.49172e-06
3.95509e-06
1.41094e-06
3.98301e-06
1.26363e-06
3.89838e-06
1.07625e-06
3.7835e-06
8.75477e-07
3.68e-06
6.72655e-07
3.59201e-06
4.70639e-07
3.50964e-06
2.70549e-07
3.41979e-06
7.33672e-08
3.31111e-06
-1.14253e-07
3.17498e-06
-2.79312e-07
3.00575e-06
-4.08857e-07
2.81504e-06
-4.75645e-07
2.61985e-06
-4.55903e-07
2.45209e-06
-3.70469e-07
2.36823e-06
-2.51075e-07
2.39694e-06
-1.67572e-07
2.53881e-06
-1.04893e-07
-1.01107e-07
1.29505e-06
-1.67251e-07
1.30527e-06
-1.47081e-07
1.27405e-06
-2.30346e-07
1.30134e-06
-2.14505e-07
1.22307e-06
-2.81714e-07
1.26051e-06
-2.78747e-07
1.14831e-06
-3.10178e-07
1.18962e-06
-3.20304e-07
1.0588e-06
-3.09817e-07
1.09929e-06
-3.34135e-07
1.00074e-06
-3.16492e-07
8.40146e-07
-2.40367e-07
9.36817e-07
-3.11888e-07
8.68384e-07
-2.94753e-07
7.73014e-07
-2.05625e-07
6.33486e-07
-2.52012e-08
7.05555e-07
-1.5879e-07
6.4019e-07
-9.93852e-08
2.77671e-09
1.05e-06
2.01508e-08
1.09374e-06
6.76407e-08
1.13334e-06
1.53415e-07
1.16651e-06
3.26149e-07
1.18535e-06
5.55153e-07
1.19962e-06
8.22291e-07
1.21325e-06
1.11417e-06
1.23073e-06
1.4233e-06
1.25417e-06
1.74469e-06
1.28508e-06
2.0986e-06
1.32873e-06
2.51115e-06
1.38301e-06
2.95379e-06
1.43917e-06
3.39106e-06
1.48518e-06
3.76698e-06
1.49414e-06
4.00663e-06
1.44009e-06
4.07714e-06
1.3167e-06
4.01778e-06
1.1441e-06
3.90994e-06
9.49806e-07
3.80723e-06
7.48076e-07
3.72169e-06
5.4304e-07
3.64518e-06
3.35065e-07
3.56608e-06
1.24172e-07
3.46935e-06
-8.50685e-08
3.34354e-06
-2.82724e-07
3.17751e-06
-4.51004e-07
2.97053e-06
-5.64345e-07
2.73961e-06
-5.95259e-07
2.52376e-06
-5.27413e-07
2.39049e-06
-3.92552e-07
2.42811e-06
-2.82351e-07
2.61565e-06
-9.72784e-08
-1.47807e-07
1.32827e-06
-1.2793e-07
1.35456e-06
-1.27616e-07
1.32812e-06
-1.94034e-07
1.35765e-06
-1.76668e-07
1.29831e-06
-2.68126e-07
1.33563e-06
-2.51828e-07
1.23354e-06
-3.25602e-07
1.27907e-06
-3.24253e-07
1.14338e-06
-3.54224e-07
1.19134e-06
-3.68234e-07
1.04051e-06
-3.49543e-07
1.0859e-06
-3.7948e-07
9.74553e-07
-3.54182e-07
7.97505e-07
-2.64814e-07
9.02738e-07
-3.46195e-07
8.2668e-07
-3.23879e-07
7.23816e-07
-2.23841e-07
5.76545e-07
-2.7781e-08
6.52136e-07
-1.70691e-07
5.8311e-07
-1.05905e-07
5.04635e-09
1.0006e-06
2.64001e-08
1.04367e-06
7.90762e-08
1.08228e-06
1.7624e-07
1.1103e-06
3.63285e-07
1.12911e-06
6.00426e-07
1.13985e-06
8.67436e-07
1.15425e-06
1.15424e-06
1.17298e-06
1.45553e-06
1.19828e-06
1.76635e-06
1.23235e-06
2.10522e-06
1.27823e-06
2.50213e-06
1.33749e-06
2.93601e-06
1.40058e-06
3.37267e-06
1.4574e-06
3.76573e-06
1.48624e-06
4.04213e-06
1.45855e-06
4.15541e-06
1.36177e-06
4.12584e-06
1.20861e-06
4.02878e-06
1.02513e-06
3.92886e-06
8.28104e-07
3.8462e-06
6.23512e-07
3.7767e-06
4.1128e-07
3.70989e-06
1.91158e-07
3.62912e-06
-3.56771e-08
3.52052e-06
-2.62161e-07
3.36927e-06
-4.74244e-07
3.16308e-06
-6.43463e-07
2.91469e-06
-7.39279e-07
2.65571e-06
-7.26821e-07
2.50514e-06
-6.41427e-07
2.62044e-06
-5.85485e-07
2.97728e-06
-2.29341e-07
-4.17312e-07
1.42387e-06
-1.67309e-07
1.56416e-06
-2.90078e-07
1.40895e-06
-1.79514e-07
1.51191e-06
-2.31574e-07
1.37953e-06
-2.37995e-07
1.45118e-06
-2.48651e-07
1.32678e-06
-3.15837e-07
1.38371e-06
-3.08827e-07
1.24286e-06
-3.77088e-07
1.29861e-06
-3.79998e-07
1.13561e-06
-4.03891e-07
1.19049e-06
-4.23077e-07
1.01826e-06
-3.932e-07
1.06794e-06
-4.29119e-07
9.43608e-07
-3.95003e-07
7.48258e-07
-2.89206e-07
8.63306e-07
-3.82768e-07
7.79336e-07
-3.54901e-07
6.70005e-07
-2.41659e-07
5.14272e-07
-3.02386e-08
5.94296e-07
-1.81824e-07
5.21371e-07
-1.12951e-07
6.37877e-09
9.53204e-07
3.14038e-08
9.95556e-07
9.04983e-08
1.03217e-06
2.03581e-07
1.05487e-06
4.02699e-07
1.07083e-06
6.47815e-07
1.08152e-06
9.12268e-07
1.0948e-06
1.19425e-06
1.11405e-06
1.48769e-06
1.14061e-06
1.78788e-06
1.17658e-06
2.1127e-06
1.22458e-06
2.49283e-06
1.28736e-06
2.91667e-06
1.35663e-06
3.35049e-06
1.4226e-06
3.75448e-06
1.46851e-06
4.06177e-06
1.46647e-06
4.21596e-06
1.39794e-06
4.22016e-06
1.26737e-06
4.13902e-06
1.09825e-06
4.04327e-06
9.10579e-07
3.96433e-06
7.09886e-07
3.90231e-06
4.98013e-07
3.84764e-06
2.73437e-07
3.78506e-06
3.51514e-08
3.69857e-06
-2.13808e-07
3.57193e-06
-4.64889e-07
3.38608e-06
-6.96977e-07
3.14482e-06
-8.73226e-07
2.87384e-06
-9.56123e-07
2.74654e-06
-9.65674e-07
3.02626e-06
-1.04448e-06
3.74185e-06
-5.91491e-07
-7.62543e-07
1.80943e-06
-4.77411e-07
2.08194e-06
-6.93054e-07
1.71485e-06
-3.72823e-07
1.99846e-06
-5.77916e-07
1.59342e-06
-3.22925e-07
1.84208e-06
-4.83481e-07
1.47481e-06
-3.29429e-07
1.6508e-06
-4.25878e-07
1.36653e-06
-3.83816e-07
1.47406e-06
-4.16657e-07
1.2516e-06
-4.38188e-07
1.32709e-06
-4.55522e-07
1.12351e-06
-4.59418e-07
1.18704e-06
-4.86575e-07
9.90488e-07
-4.4003e-07
1.04376e-06
-4.82341e-07
9.06712e-07
-4.38354e-07
6.93939e-07
-3.13081e-07
8.18401e-07
-4.21772e-07
7.26795e-07
-3.87693e-07
6.10923e-07
-2.58225e-07
4.48515e-07
-3.28504e-08
5.31061e-07
-1.9145e-07
4.54881e-07
-1.19255e-07
6.55114e-09
9.06074e-07
3.56314e-08
9.48935e-07
1.02519e-07
9.83492e-07
2.36528e-07
9.99083e-07
4.44151e-07
1.01325e-06
6.94291e-07
1.02422e-06
9.58264e-07
1.03526e-06
1.23418e-06
1.05474e-06
1.51936e-06
1.08223e-06
1.8092e-06
1.11914e-06
2.12e-06
1.16913e-06
2.48306e-06
1.23419e-06
2.8958e-06
1.30797e-06
3.3248e-06
1.38218e-06
3.73457e-06
1.44239e-06
4.06654e-06
1.4636e-06
4.25913e-06
1.42317e-06
4.2993e-06
1.3187e-06
4.23769e-06
1.1686e-06
4.14908e-06
9.92346e-07
4.07404e-06
8.00605e-07
4.01884e-06
5.93301e-07
3.97632e-06
3.69253e-07
3.93287e-06
1.25545e-07
3.87168e-06
-1.38039e-07
3.77571e-06
-4.17719e-07
3.62427e-06
-7.02954e-07
3.40968e-06
-9.61261e-07
3.16561e-06
-1.1625e-06
3.11927e-06
-1.32196e-06
3.64931e-06
-1.57945e-06
4.70813e-06
-9.43193e-07
-1.06572e-06
2.36849e-06
-8.81356e-07
2.64882e-06
-1.04602e-06
2.30367e-06
-7.87501e-07
2.59668e-06
-9.91303e-07
2.16007e-06
-6.95673e-07
2.48289e-06
-9.06634e-07
1.93691e-06
-6.12509e-07
2.28338e-06
-8.35158e-07
1.67768e-06
-5.34225e-07
1.99257e-06
-7.44156e-07
1.44692e-06
-5.03881e-07
1.67095e-06
-6.41678e-07
1.26705e-06
-5.18207e-07
1.39403e-06
-5.82643e-07
1.10702e-06
-5.22639e-07
1.18798e-06
-5.67489e-07
9.55711e-07
-4.88974e-07
1.014e-06
-5.40575e-07
8.62819e-07
-4.82709e-07
6.34801e-07
-3.36892e-07
7.66604e-07
-4.61511e-07
6.68059e-07
-4.20873e-07
5.47062e-07
-2.74154e-07
3.8009e-07
-3.59933e-08
4.63494e-07
-1.99988e-07
3.86399e-07
-1.25489e-07
5.21788e-09
8.55581e-07
3.97445e-08
9.01931e-07
1.17252e-07
9.34177e-07
2.72591e-07
9.47354e-07
4.84107e-07
9.5904e-07
7.39793e-07
9.67586e-07
1.00437e-06
9.77943e-07
1.27306e-06
9.9634e-07
1.54958e-06
1.02429e-06
1.82944e-06
1.06184e-06
2.12684e-06
1.1121e-06
2.47336e-06
1.17862e-06
2.87374e-06
1.25607e-06
3.29607e-06
1.33657e-06
3.70789e-06
1.40874e-06
4.05879e-06
1.45002e-06
4.28543e-06
1.43721e-06
4.36183e-06
1.36058e-06
4.32319e-06
1.23302e-06
4.24433e-06
1.07325e-06
4.17299e-06
8.9338e-07
4.12404e-06
6.95337e-07
4.0942e-06
4.75562e-07
4.06948e-06
2.32523e-07
4.03386e-06
-3.67246e-08
3.971e-06
-3.33435e-07
3.86353e-06
-6.57099e-07
3.69154e-06
-9.84291e-07
3.49442e-06
-1.28685e-06
3.54952e-06
-1.58063e-06
4.35621e-06
-2.01116e-06
5.74518e-06
-2.6066e-06
2.8878e-06
-1.18482e-06
3.17525e-06
-1.35495e-06
2.87918e-06
-1.1692e-06
3.12834e-06
-1.30009e-06
2.79282e-06
-1.10397e-06
3.0837e-06
-1.28909e-06
2.62791e-06
-1.04657e-06
2.95464e-06
-1.24053e-06
2.36336e-06
-9.88407e-07
2.73052e-06
-1.20862e-06
2.00697e-06
-8.732e-07
2.3952e-06
-1.13692e-06
1.63021e-06
-7.40763e-07
1.97996e-06
-9.93665e-07
1.31767e-06
-6.47909e-07
1.55909e-06
-8.24394e-07
1.09206e-06
-6.00611e-07
1.22068e-06
-6.9598e-07
9.1449e-07
-5.40573e-07
9.83751e-07
-6.09715e-07
8.11412e-07
-5.27432e-07
5.71853e-07
-3.61603e-07
7.06572e-07
-4.99931e-07
6.0316e-07
-4.52082e-07
4.80154e-07
-2.9073e-07
3.08439e-07
-3.84272e-08
3.9428e-07
-2.07781e-07
3.1392e-07
-1.30882e-07
1.22027e-09
7.96105e-07
4.26198e-08
8.52676e-07
1.33289e-07
8.85811e-07
3.07849e-07
8.98762e-07
5.26176e-07
9.05113e-07
7.8495e-07
9.13759e-07
1.04729e-06
9.24532e-07
1.30992e-06
9.41002e-07
1.57735e-06
9.68418e-07
1.84813e-06
1.00561e-06
2.13321e-06
1.05522e-06
2.46341e-06
1.1219e-06
2.8511e-06
1.20113e-06
3.26568e-06
1.28638e-06
3.67667e-06
1.36766e-06
4.04094e-06
1.4264e-06
4.29661e-06
1.43869e-06
4.4067e-06
1.39221e-06
4.39485e-06
1.28885e-06
4.32733e-06
1.14989e-06
4.26036e-06
9.85673e-07
4.21774e-06
7.99463e-07
4.19943e-06
5.90021e-07