/*--------------------------------*- C++ -*----------------------------------*\
  =========                 |
  \\      /  F ield         | OpenFOAM: The Open Source CFD Toolbox
   \\    /   O peration     | Website:  https://openfoam.org
    \\  /    A nd           | Version:  dev
     \\/     M anipulation  |
\*---------------------------------------------------------------------------*/
FoamFile
{
    version     2.0;
    format      ascii;
    class       volScalarField;
    location    "2500";
    object      qr;
}
// * * * * * * * * * * * * * * * * * * * * * * * * * * * * * * * * * * * * * //

dimensions      [1 0 -3 0 0 0 0];

internalField   uniform 0;

boundaryField
{
    lowerOutlet
    {
        type            calculated;
        value           nonuniform List<scalar> 
140
(
1189.65
1193.62
1198.07
1202.97
1208.33
1214.16
1220.48
1227.3
1234.63
1242.51
1250.94
1259.97
1269.61
1279.92
1290.93
1302.68
1315.24
1328.67
1343.02
1358.39
1374.87
1392.55
1411.57
1432.06
1454.22
1478.24
1504.32
1532.7
1563.7
1597.7
1635.14
1676.6
1722.85
1774.96
1818.97
1882.95
1956.43
2041.8
2142.19
2261.9
2407.27
2588.29
2818.6
3115.41
3448.29
3917.35
4440.56
5014.25
-9275.18
3308.45
2835.42
2535.54
2293.41
2131.14
2001.8
1897.08
1811.03
1739.09
1677.87
1625.23
1579.51
1539.41
1494.97
1463.63
1435.48
1409.95
1386.62
1365.18
1345.4
1327.06
1310.01
1294.1
1279.25
1265.34
1252.29
1240
1228.43
1217.5
1207.18
1197.43
1188.21
1179.48
1171.23
1163.41
1156.02
1149.04
1142.44
1136.21
1130.34
1124.82
1119.63
1114.78
1110.25
1106.03
1102.13
1098.56
2199.32
2330.85
2492.55
2696.29
2957.69
3293.63
3791.94
4308.12
4845.48
3933.67
3489.59
2930.73
2600.74
2366.87
2208
2062.86
1946.8
1852.03
1773.54
1707.3
2089.87
3556.92
4045.35
4573.93
5179.82
3962.66
3161.73
2749.49
2475.19
1650.59
3671.81
4176.04
4709.62
5339.11
3709.64
3038.06
2671.64
2419.08
1849.89
1918.37
1997.46
1601.59
1558.83
1521.13
)
;
    }
    top
    {
        type            calculated;
        value           nonuniform List<scalar> 
100
(
1073.34
1072.36
1073.27
1074.82
1076.82
1078.98
1081.23
1083.26
1085.45
1087.6
1089.43
1091.09
1092.67
1094.12
1095.43
1096.45
1097.29
1098.3
1099.44
1100.49
1101.47
1102.33
1103.03
1103.44
1102.15
1093.73
1069.68
1035.13
1009.26
999.771
1008.04
1032.57
1059.17
1071.88
1074.3
1069.54
1062.49
1055.44
1049.31
1045.01
1043.59
1045.56
1052.31
1064.33
1081.51
1102.52
1121.34
1128.5
1129.6
1129.4
1128.91
1128.3
1127.61
1126.83
1125.99
1125.07
1124.09
1122.99
1121.82
1120.59
1119.26
1117.84
1116.36
1114.76
1113.1
1111.35
1109.33
1107.3
1105.14
1102.87
1100.51
1098.07
1095.63
1093.19
1090.98
1089.05
1088.64
1097.39
1094.43
1091.44
1088.42
1085.38
1082.31
1079.21
1076.09
1072.96
1069.81
1066.66
1063.5
1060.34
1054.34
1050.03
1045.62
1041.29
1037.22
1033.82
1031.03
1028.94
1027.47
1029.02
)
;
    }
    sides
    {
        type            calculated;
        value           nonuniform List<scalar> 
100
(
1189.67
1192.79
1195.5
1197.77
1199.61
1201.04
1202.05
1202.67
1202.9
1202.76
1202.26
1201.43
1200.26
1198.79
1197.04
1195.02
1192.74
1190.23
1187.51
1184.6
1181.51
1178.26
1174.88
1171.37
1167.75
1164.04
1160.25
1156.39
1152.49
1148.54
1144.56
1140.57
1136.56
1132.55
1128.55
1124.57
1120.6
1116.67
1112.77
1108.91
1105.1
1101.33
1097.62
1093.96
1090.37
1086.84
1083.37
1079.96
1076.62
1073.39
1098.58
1101.57
1104.27
1106.68
1108.79
1110.61
1112.14
1113.39
1114.38
1115.09
1115.55
1115.75
1115.72
1115.45
1114.97
1114.27
1113.37
1112.28
1111.02
1109.58
1107.98
1106.24
1104.36
1102.35
1100.23
1097.99
1095.66
1093.24
1090.73
1088.14
1085.49
1082.78
1080.01
1077.2
1074.34
1071.44
1068.51
1065.56
1062.58
1059.57
1056.56
1053.53
1050.48
1047.43
1044.38
1041.31
1038.25
1035.18
1032.1
1029.07
)
;
    }
    front
    {
        type            empty;
    }
    back
    {
        type            empty;
    }
    roller
    {
        type            calculated;
        value           nonuniform List<scalar> 
144
(
6693.26
7084.1
6408.86
2328.09
1645.83
1422.26
1479.7
1342.72
1296.68
1274.22
4439.78
6485.25
7079.64
6664.44
3892.5
2828.39
2410.43
1815.21
2140.39
1771.77
1622.18
1500.23
1391.05
1383.76
1266.43
1264.89
1262.27
1261.88
1261.7
1261.93
5669.46
5889.64
6870.66
7012.68
4996.07
3805.61
3977.6
3336.31
3239.3
3064.28
2589.8
1972.59
1730.94
1413.23
1334.13
1304.16
1295.07
1265.19
5445.57
7004.33
6869.58
5313.61
5620.83
2862.61
2939.42
2216.97
2497.7
2191.2
1529.12
1430.51
1410.5
1366.16
1355.31
1324.96
1314.09
1321.6
1278.02
1263.72
1262.86
1261.67
1261.62
4658.51
3606.21
2076.61
1550.04
1478.47
1587.92
3631.77
3426.69
4225.68
2501.98
2057.74
2690.71
1677.45
1922.89
1570.7
1880.33
1762.21
1494.32
1726.86
1435.3
1389.7
1354.65
1303.78
1311.72
1271.02
6020.53
3047.4
2347.87
1914.16
2247.5
1614.68
1530.38
1464.02
1562.74
1452.94
1373.8
1376.61
1336.46
1328.84
1289.64
1279.94
1275.18
1272.28
1262.41
1266.88
4900.45
5155.63
6184.19
4582.59
4225.65
2688.27
2131.34
1862.05
1702.72
2012.88
1966.95
1592.21
1839.37
1799.83
1511.7
1693.45
1661.74
1450.93
1401.49
1364.27
1345.87
1288.93
1283.86
1285.16
1269.01
1263.9
1263.18
1268.42
)
;
    }
    burner
    {
        type            calculated;
        value           nonuniform List<scalar> 
16
(
-126444
-120501
-117657
-118328
-121693
-118096
-117693
-124160
-124853
-119519
-117420
-119441
-123150
-118719
-117416
-121243
)
;
    }
}


// ************************************************************************* //
