/*--------------------------------*- C++ -*----------------------------------*\
  =========                 |
  \\      /  F ield         | OpenFOAM: The Open Source CFD Toolbox
   \\    /   O peration     | Website:  https://openfoam.org
    \\  /    A nd           | Version:  dev
     \\/     M anipulation  |
\*---------------------------------------------------------------------------*/
FoamFile
{
    version     2.0;
    format      ascii;
    class       volScalarField;
    location    "2500";
    object      rAU;
}
// * * * * * * * * * * * * * * * * * * * * * * * * * * * * * * * * * * * * * //

dimensions      [-1 3 1 0 0 0 0];

internalField   nonuniform List<scalar> 
9967
(
0.00821838
0.00828613
0.00824131
0.00827515
0.00839673
0.00817957
0.00824973
0.00839051
0.00840109
0.00812718
0.0082276
0.00838972
0.00838394
0.00841339
0.00807833
0.00821121
0.00839463
0.00837568
0.00839341
0.00842291
0.00803301
0.00819794
0.00840378
0.00837682
0.00837655
0.00840868
0.00842743
0.00799116
0.00818452
0.00841512
0.00838415
0.00836717
0.00838994
0.00841981
0.0084294
0.00795245
0.00816893
0.00842499
0.00839703
0.00836433
0.00837325
0.00840664
0.00842514
0.0084308
0.00791647
0.00815012
0.0084312
0.00840999
0.00836839
0.00836235
0.00838932
0.00841795
0.00842842
0.00843193
0.00788311
0.0081303
0.00843261
0.00841924
0.00837905
0.00835625
0.00837252
0.00840653
0.00842417
0.00843041
0.00843259
0.00785228
0.00811395
0.00843223
0.00842624
0.00839448
0.00835699
0.00835902
0.00839093
0.00841759
0.00842756
0.00843191
0.008433
0.00782373
0.00809874
0.00843317
0.00843038
0.00840825
0.00836344
0.00835152
0.00837309
0.00840769
0.00842369
0.00842996
0.00843317
0.00843313
0.00779748
0.00808157
0.00843506
0.00843278
0.00841887
0.00837632
0.00834812
0.00835901
0.00839308
0.00841794
0.00842757
0.008432
0.00843407
0.00843323
0.0077733
0.00806524
0.00843567
0.00843415
0.00842597
0.00839253
0.0083503
0.00834868
0.00837655
0.00840954
0.00842397
0.00843016
0.00843348
0.00843488
0.00843331
0.00775129
0.00804909
0.00843588
0.00843509
0.00842987
0.00840681
0.00835808
0.00834238
0.00836049
0.00839676
0.00841921
0.00842751
0.00843214
0.00843467
0.00843523
0.00843326
0.00773122
0.0080332
0.00843615
0.00843565
0.00843198
0.00841755
0.00837245
0.00833999
0.00834793
0.00838161
0.00841218
0.00842445
0.00843029
0.00843365
0.0084356
0.00843572
0.0084334
0.00771315
0.00801714
0.00843649
0.00843628
0.00843418
0.00842435
0.00838931
0.00834303
0.00833898
0.00836483
0.00840125
0.00842106
0.00842807
0.00843234
0.00843492
0.00843629
0.00843599
0.00843346
0.00769692
0.00800088
0.00843676
0.00843671
0.00843506
0.00842896
0.00840448
0.0083523
0.00833312
0.0083494
0.00838736
0.00841499
0.0084263
0.00843061
0.00843396
0.00843615
0.00843691
0.0084362
0.00843348
0.00768261
0.00798531
0.00843682
0.00843725
0.00843632
0.00843239
0.00841411
0.00836738
0.00833147
0.00833785
0.00837033
0.00840573
0.00842331
0.00842974
0.00843275
0.00843519
0.00843706
0.00843735
0.00843656
0.00843341
0.00767015
0.0079705
0.00843668
0.00843765
0.00843715
0.00843379
0.00842263
0.00838471
0.00833527
0.00832998
0.00835398
0.00839298
0.00841838
0.00842843
0.00843195
0.00843428
0.00843619
0.00843786
0.00843778
0.00843687
0.00843333
0.00765958
0.00795662
0.00843665
0.0084382
0.0084377
0.00843533
0.00842817
0.00840011
0.00834428
0.00832487
0.00834
0.00837783
0.00841026
0.00842568
0.00843153
0.00843388
0.00843543
0.00843718
0.00843833
0.00843811
0.00843708
0.00843317
0.00765095
0.00794383
0.00843636
0.00843855
0.00843822
0.00843676
0.00843132
0.00841109
0.00835895
0.00832315
0.00832968
0.00836134
0.0083992
0.00842122
0.00843014
0.00843373
0.00843539
0.00843637
0.00843797
0.0084389
0.00843853
0.00843733
0.008433
0.0076283
0.00793233
0.00843626
0.00843914
0.0084388
0.00843739
0.00843374
0.0084193
0.00837583
0.0083265
0.00832215
0.00834614
0.00838584
0.00841418
0.00842761
0.00843327
0.0084355
0.00843664
0.00843739
0.00843856
0.00843937
0.00843883
0.00843741
0.00841488
0.00748563
0.00792215
0.0084359
0.00843946
0.00843906
0.00843808
0.00843531
0.00842454
0.00839159
0.00833446
0.00831789
0.00833269
0.00837101
0.00840536
0.00842354
0.00843152
0.00843551
0.00843708
0.00843755
0.00843818
0.00843898
0.00843976
0.0084391
0.00843304
0.00824665
0.007636
0.00791348
0.00843593
0.00843961
0.00843944
0.00843929
0.00843688
0.00842845
0.0084033
0.00834645
0.00831606
0.00832326
0.00835564
0.00839409
0.00841837
0.00842918
0.0084343
0.00843727
0.00843809
0.00843841
0.00843862
0.00843942
0.0084401
0.00843497
0.0084225
0.00843303
0.00763547
0.00790543
0.00843579
0.00843973
0.00843976
0.00843981
0.00843785
0.00843043
0.00841086
0.00836097
0.00831789
0.00831677
0.00834127
0.00838144
0.00841097
0.00842608
0.00843266
0.0084362
0.00843854
0.00843925
0.00843912
0.00843914
0.00843984
0.00844039
0.00843061
0.00843776
0.00843306
0.0076369
0.00789673
0.00843461
0.00844011
0.00844029
0.00844019
0.00843864
0.00843292
0.0084174
0.00837665
0.00832241
0.00831282
0.00832941
0.00836786
0.00840253
0.00842203
0.00843077
0.00843471
0.00843788
0.00843971
0.00844006
0.00843959
0.00843953
0.00844014
0.00844067
0.00843978
0.0084378
0.00843303
0.00764046
0.00788935
0.008431
0.00844025
0.00844079
0.00844088
0.00843969
0.00843459
0.00842214
0.0083902
0.00833125
0.00830913
0.00832013
0.00835465
0.00839219
0.00841667
0.00842852
0.00843394
0.00843676
0.00843907
0.00844068
0.0084408
0.0084401
0.00843991
0.00844042
0.00844106
0.00843988
0.00843779
0.00843305
0.00764641
0.00788405
0.00842662
0.00844058
0.00844111
0.00844121
0.00843975
0.00843557
0.00842501
0.00839976
0.00834295
0.00830862
0.00831245
0.00834089
0.00838149
0.00841059
0.00842541
0.00843237
0.00843589
0.0084381
0.00844007
0.00844141
0.00844138
0.00844052
0.00844025
0.00844089
0.00844126
0.00843991
0.00843774
0.00843303
0.00765533
0.00788169
0.00842337
0.00844069
0.00844145
0.00844148
0.0084402
0.00843593
0.00842614
0.00840589
0.00835536
0.00831133
0.00830727
0.00832809
0.00836856
0.00840299
0.00842224
0.0084306
0.0084347
0.00843725
0.00843916
0.00844077
0.00844207
0.00844188
0.00844092
0.00844063
0.00844109
0.00844127
0.00843983
0.00843769
0.00843307
0.00766764
0.00787606
0.00842033
0.0084407
0.0084414
0.00844188
0.00844097
0.00843651
0.00842649
0.00840985
0.00836793
0.00831671
0.00830455
0.00831787
0.00835512
0.0083931
0.00841773
0.00842929
0.00843359
0.00843635
0.00843845
0.00843985
0.0084414
0.00844258
0.00844229
0.00844136
0.0084409
0.00844118
0.00844134
0.00843962
0.00843759
0.0084331
0.00768327
0.00786033
0.00841083
0.00844099
0.00844142
0.00844225
0.00844119
0.00843671
0.00842618
0.00841247
0.00837884
0.00832505
0.00830325
0.00831093
0.00834263
0.008382
0.00841124
0.00842696
0.00843373
0.00843577
0.00843762
0.00843925
0.00844035
0.00844179
0.00844295
0.00844269
0.00844157
0.00844093
0.00844119
0.0084412
0.00843921
0.00843759
0.00843313
0.00770307
0.00783513
0.00838466
0.00844089
0.00844171
0.00844212
0.00844131
0.0084365
0.00842605
0.00841376
0.00838705
0.00833487
0.00830436
0.00830625
0.00833113
0.00837113
0.00840361
0.00842302
0.00843242
0.00843596
0.00843692
0.00843859
0.00843958
0.00844056
0.00844203
0.00844333
0.00844304
0.00844168
0.0084409
0.00844115
0.00844087
0.00843866
0.00843755
0.00842121
0.00777456
0.00781143
0.00834007
0.00843643
0.00844135
0.00844225
0.00843604
0.0083781
0.0083423
0.00830156
0.00839363
0.00834536
0.00830724
0.00830357
0.00832156
0.00835977
0.00839538
0.00841834
0.00842974
0.008436
0.00843789
0.0084378
0.00843895
0.00843961
0.00844058
0.00844217
0.00844361
0.00844312
0.00844167
0.00844082
0.00844109
0.00844027
0.00842153
0.00847751
0.00832408
0.00820548
0.00697174
0.00833433
0.00824988
0.0078234
0.00830244
0.0084255
0.00844168
0.00844183
0.00843537
0.00836821
0.00830693
0.00823346
0.00836571
0.00835573
0.00831249
0.00804956
0.00831414
0.00834908
0.0083862
0.00841309
0.00842729
0.008434
0.00843786
0.00843883
0.00843835
0.00843872
0.00843922
0.00844038
0.00844224
0.00844342
0.00844296
0.0084415
0.00844068
0.00844087
0.00842192
0.0083173
0.0081704
0.00820961
0.00831766
0.00822048
0.00822318
0.0070215
0.00826014
0.00825998
0.00783755
0.00829923
0.00842142
0.00844174
0.00844204
0.00844012
0.00842469
0.00838871
0.00834416
0.00835322
0.00836607
0.00831982
0.00781187
0.00830962
0.00833929
0.00837722
0.00840697
0.00842444
0.00843241
0.00843633
0.00843906
0.00843926
0.00843833
0.00843816
0.00843854
0.00844011
0.00844169
0.0084325
0.00844243
0.00844099
0.00844026
0.00842218
0.00817523
0.00817722
0.00818431
0.00823373
0.00822049
0.0082465
0.00826811
0.00708589
0.00828658
0.00828709
0.00785341
0.00829478
0.00841348
0.00844139
0.00844162
0.00843873
0.00843253
0.0084226
0.008414
0.00838736
0.00837528
0.00832885
0.00794056
0.0083069
0.00833066
0.00836813
0.00840028
0.00842097
0.0084309
0.00843544
0.00843764
0.00843947
0.00843929
0.00843803
0.00843713
0.00843755
0.00843915
0.008436
0.00841145
0.00844133
0.00843996
0.00842135
0.00817861
0.00818084
0.0082001
0.0082088
0.00822916
0.00827524
0.00825829
0.00828257
0.00829591
0.00715317
0.00830978
0.00830993
0.00787088
0.00829461
0.00840467
0.00844031
0.0084412
0.00843797
0.00843051
0.00842202
0.00841437
0.00840468
0.00838277
0.00833884
0.0081896
0.00830552
0.00832343
0.00835931
0.00839332
0.00841699
0.00842929
0.00843462
0.00843687
0.00843816
0.00843917
0.00843873
0.00843713
0.00843572
0.00843603
0.00843759
0.00843273
0.00821443
0.00844007
0.00842205
0.00818487
0.00818771
0.00821649
0.00822017
0.00824051
0.00825211
0.00826593
0.00830443
0.00829062
0.00831022
0.00831777
0.00722317
0.00833005
0.00832848
0.00789005
0.00829787
0.00839986
0.00843548
0.00844059
0.00843656
0.00842854
0.00842129
0.00841485
0.00840646
0.00838909
0.00834911
0.00831294
0.00822081
0.00831816
0.00835114
0.00838602
0.0084124
0.00842739
0.00843397
0.0084369
0.00843746
0.0084375
0.00843777
0.00843714
0.00843525
0.00843384
0.00843414
0.00840944
0.00814256
0.00832492
0.00842426
0.00819206
0.00819464
0.00822825
0.00823081
0.00826221
0.00826733
0.00827493
0.00828799
0.00829795
0.00832704
0.00831656
0.00833324
0.00833572
0.00729579
0.00834709
0.00834374
0.0079098
0.00830045
0.00839874
0.00842965
0.00843707
0.00843458
0.00842718
0.00842101
0.00841589
0.00840894
0.00839429
0.0083591
0.00831972
0.00821522
0.00831473
0.00834391
0.00837884
0.00840731
0.00842511
0.00843325
0.00843641
0.00843768
0.00843695
0.00843588
0.0084352
0.00843449
0.00843311
0.00843199
0.00839687
0.00827665
0.00810485
0.0082307
0.00819294
0.00818133
0.00823611
0.00823368
0.0082752
0.00827762
0.00829876
0.00830514
0.0083057
0.0083183
0.00832343
0.00834455
0.00833841
0.00835203
0.00835132
0.00737247
0.00836121
0.00835627
0.0079304
0.00830742
0.00839671
0.00842742
0.00843156
0.00843253
0.00842622
0.00842113
0.00841713
0.00841157
0.00839864
0.00836865
0.00832745
0.00830256
0.00831316
0.00833736
0.00837176
0.00840193
0.0084222
0.00843268
0.00843669
0.0084378
0.00843718
0.00843541
0.0084331
0.00843274
0.0084328
0.00843089
0.00837986
0.0083567
0.00804185
0.00801475
0.00819669
0.00802728
0.00822
0.00819498
0.00827878
0.00826398
0.00831041
0.00831038
0.00832889
0.00833418
0.00833065
0.00834258
0.00834439
0.00835836
0.00835696
0.00836666
0.00836435
0.00745336
0.00837272
0.00836639
0.00795192
0.00831973
0.00839805
0.00842766
0.00842906
0.00843101
0.00842584
0.00842154
0.00841846
0.00841409
0.0084031
0.00837726
0.00833588
0.00831308
0.00831312
0.00833177
0.00836527
0.00839641
0.00841914
0.00843154
0.0084367
0.00843806
0.00843759
0.0084357
0.00843303
0.00843191
0.00843514
0.00842889
0.00842334
0.00836168
0.00808876
0.00803007
0.0076982
0.00776146
0.00813864
0.00802195
0.00823519
0.00818697
0.00829704
0.00826005
0.00833558
0.00832259
0.00835212
0.00835429
0.00835079
0.00836124
0.00836175
0.00836945
0.00837226
0.00837778
0.00837528
0.00753841
0.00838212
0.00837378
0.00797288
0.00832786
0.00840377
0.00843273
0.0084298
0.00843017
0.00842541
0.00842232
0.00841994
0.00841638
0.00840699
0.00838493
0.00834443
0.00831707
0.00831381
0.00832768
0.00835893
0.00839082
0.00841556
0.00843041
0.0084367
0.00843858
0.00843819
0.00843607
0.00843341
0.00843336
0.00843801
0.00842937
0.0084098
0.00838692
0.00815399
0.00817521
0.00788665
0.00768676
0.00794651
0.0078276
0.00808204
0.00796869
0.00821148
0.00810873
0.00827863
0.00822498
0.00834319
0.00829476
0.00836829
0.00835879
0.00836658
0.00837378
0.00837546
0.00837949
0.0083838
0.00838674
0.00838465
0.00763138
0.00838935
0.00837974
0.00799382
0.00833325
0.00840457
0.00842988
0.00843503
0.00842936
0.0084251
0.00842311
0.00842148
0.00841858
0.00841085
0.00839171
0.00835283
0.00832152
0.00831521
0.00830314
0.00835332
0.00838511
0.00841153
0.00842875
0.00843674
0.0084391
0.00843892
0.00843673
0.00843378
0.00843482
0.00844073
0.00843139
0.00839934
0.00836491
0.00827219
0.00824217
0.00749564
0.00734355
0.00761529
0.0074294
0.00780514
0.0075776
0.00796632
0.00777662
0.00812694
0.007966
0.00822684
0.00813159
0.00830817
0.00822973
0.00837066
0.0083203
0.0083773
0.00837358
0.00838427
0.00838793
0.00839099
0.00839207
0.00839233
0.0077332
0.00839478
0.00838557
0.00801668
0.00833765
0.00840524
0.00842739
0.00843433
0.00842883
0.00842576
0.00842458
0.0084232
0.00842076
0.00841433
0.00839749
0.00836148
0.00832648
0.00831671
0.00830137
0.00834824
0.00837943
0.00840696
0.00842651
0.00843659
0.0084397
0.00843987
0.00843783
0.00843426
0.00843491
0.00844162
0.00843345
0.00839498
0.00834606
0.00830335
0.0082632
0.0072418
0.00703105
0.00731797
0.00723725
0.00740983
0.00731558
0.00755567
0.00740432
0.00776093
0.00755166
0.00796652
0.00775221
0.0081333
0.00796635
0.00823382
0.00813416
0.00833047
0.00824295
0.00837712
0.0083344
0.00838335
0.00839397
0.00838908
0.0083904
0.00839754
0.00784041
0.00839935
0.00839037
0.00804422
0.00834155
0.00840685
0.0084259
0.00843241
0.00842852
0.00842645
0.00842559
0.00842459
0.00842288
0.00841756
0.00840268
0.00836983
0.00833177
0.00831806
0.00832219
0.00834345
0.00837399
0.00840216
0.00842345
0.00843576
0.00844043
0.00844068
0.00843901
0.00843516
0.00843389
0.00844182
0.00843547
0.00839505
0.00833985
0.00824513
0.00813866
0.00796647
0.00719888
0.0070125
0.00727391
0.00725151
0.00732157
0.00730257
0.00741132
0.00733568
0.00755695
0.00743075
0.0077493
0.00756481
0.0079652
0.00775034
0.00813661
0.00796601
0.00825193
0.00814629
0.00834111
0.00825761
0.00835037
0.00839511
0.008358
0.00836602
0.00839965
0.00794643
0.00840251
0.00839246
0.00808186
0.00834634
0.00840927
0.00842703
0.00843248
0.00842892
0.00842696
0.00842666
0.00842588
0.00842462
0.00842039
0.00840731
0.00837763
0.00833774
0.00831967
0.00832166
0.00833941
0.00836876
0.00839719
0.00841987
0.00843435
0.00844046
0.00844167
0.00843996
0.00843662
0.0084328
0.00844083
0.00843837
0.00839857
0.00834095
0.00818309
0.0080462
0.00794322
0.0072087
0.00688726
0.0072484
0.0072631
0.00730644
0.00731391
0.00731724
0.00734426
0.00736218
0.0073442
0.00745352
0.00739708
0.00757622
0.00747569
0.00775632
0.00759042
0.00797562
0.00776872
0.00815382
0.00799309
0.00826841
0.00816357
0.00828234
0.00837932
0.00829413
0.00831151
0.00839332
0.00804805
0.00840005
0.00839271
0.00814053
0.00835358
0.00841403
0.0084301
0.00843282
0.00842928
0.00842795
0.00842794
0.00842719
0.00842647
0.00842306
0.00841143
0.00838472
0.00834396
0.00832156
0.00832163
0.00833614
0.00836421
0.00839254
0.00841665
0.00843316
0.00844075
0.0084428
0.00844128
0.00843822
0.00843369
0.00843858
0.00844077
0.00840673
0.00834758
0.00816005
0.0079933
0.00791548
0.00671275
0.0063625
0.00687972
0.00662163
0.00732785
0.00734194
0.00737075
0.00738895
0.00736606
0.00741065
0.00738179
0.00739875
0.0074297
0.00742145
0.00749869
0.00745935
0.00761082
0.00752093
0.00779162
0.00762478
0.00800759
0.00782011
0.00818183
0.00802956
0.00820121
0.00833578
0.00821644
0.00823946
0.00835987
0.008147
0.00838034
0.00838975
0.00817316
0.00836736
0.00841781
0.00843589
0.00843415
0.00843014
0.00842921
0.00842862
0.00842846
0.00842808
0.008425
0.00841469
0.00839046
0.00834968
0.00832327
0.00832134
0.00833333
0.0083598
0.00838777
0.00841264
0.00843128
0.00844143
0.00844425
0.00844338
0.00844033
0.00843554
0.00843654
0.00844243
0.00841807
0.00836263
0.00823468
0.0079709
0.00811281
0.00775134
0.00722437
0.00697097
0.00731327
0.00733692
0.00740753
0.00733941
0.00736795
0.00739227
0.00740825
0.00740277
0.00743632
0.00746664
0.00745121
0.00746743
0.00748231
0.00747307
0.00754685
0.00749701
0.00766071
0.00755506
0.00778558
0.00769091
0.00803354
0.00782897
0.00803674
0.00826925
0.00805469
0.00811815
0.0082959
0.00821014
0.00834998
0.00837784
0.00841623
0.00842076
0.00844014
0.00843617
0.00843208
0.00843072
0.00842929
0.00842946
0.00842914
0.00842623
0.00841675
0.00839463
0.00835446
0.00832437
0.00832035
0.00833021
0.00835493
0.00820346
0.00836122
0.0084276
0.00844081
0.00844557
0.00844525
0.00844265
0.00843767
0.00843449
0.00844199
0.00843085
0.00838169
0.00829367
0.00805224
0.00808209
0.00761488
0.00718691
0.00714299
0.00728459
0.00723272
0.007421
0.00736881
0.00747324
0.00745911
0.0072762
0.00703756
0.00747823
0.00747237
0.00749449
0.00752855
0.00748103
0.00751292
0.00748048
0.00749048
0.00750757
0.00747752
0.00757896
0.00750281
0.00765306
0.00759623
0.00780589
0.00768802
0.00789353
0.0081921
0.00792361
0.00799766
0.00823785
0.0082238
0.00829849
0.00835802
0.00843486
0.00844006
0.00843785
0.00843454
0.00843206
0.00843049
0.0084303
0.00843001
0.00842718
0.00841837
0.00839813
0.00835905
0.00832577
0.0083185
0.00832705
0.00835046
0.00811097
0.00791498
0.00837647
0.00832469
0.00844531
0.0084457
0.0084436
0.00843897
0.00843325
0.0084379
0.00843742
0.00840032
0.00832036
0.00812916
0.00807525
0.00728458
0.00707685
0.00666421
0.00726401
0.00724792
0.00732317
0.00728759
0.00746201
0.00741651
0.00752533
0.00750645
0.00741215
0.00671361
0.00757344
0.00762072
0.00755333
0.00759934
0.00752426
0.00759106
0.00749579
0.00756323
0.00747799
0.00751122
0.00749992
0.00746571
0.00759606
0.00750155
0.00768144
0.00759932
0.00778565
0.0080854
0.00764441
0.00763864
0.00806044
0.0083474
0.00816034
0.00825289
0.00842261
0.00843821
0.00843576
0.00843324
0.00843275
0.00843168
0.0084313
0.00842873
0.00842014
0.00840118
0.0083638
0.00832823
0.00831734
0.00832441
0.00834587
0.00822737
0.00757675
0.00829872
0.00833335
0.00829533
0.0084455
0.00844357
0.00843941
0.00843265
0.00843219
0.00843626
0.00841357
0.00835016
0.0081855
0.00810192
0.0078083
0.00752644
0.00721764
0.00671059
0.00736724
0.00737862
0.00738369
0.00736706
0.00752421
0.00748895
0.00752502
0.00756482
0.00764142
0.00715167
0.00765515
0.00770309
0.00765573
0.00770859
0.00765132
0.00773804
0.007608
0.00772979
0.00753058
0.00765713
0.00747036
0.00724011
0.00723185
0.00720179
0.00738285
0.00717266
0.00734719
0.00773568
0.00580304
0.00536496
0.00549132
0.0059529
0.00549004
0.00653343
0.00709315
0.00828472
0.00681018
0.0075807
0.00707656
0.00739384
0.00764008
0.00781187
0.00839894
0.00842374
0.00843407
0.00843397
0.00843305
0.00843254
0.00842985
0.00842139
0.00840356
0.00836824
0.00833045
0.0083159
0.00832194
0.0083413
0.00825753
0.00778629
0.00793847
0.00843108
0.00830616
0.00840897
0.00844451
0.00844037
0.00843386
0.00842881
0.00843257
0.00842137
0.00837877
0.00825799
0.00812774
0.00814704
0.00761626
0.00703427
0.0066838
0.0073831
0.0072683
0.00749186
0.00752287
0.00746878
0.00747062
0.0075368
0.00757143
0.00717171
0.00729037
0.00772879
0.00774725
0.00776282
0.00779805
0.00779314
0.00782441
0.007819
0.00787609
0.00780366
0.00790698
0.00739027
0.00755516
0.00723246
0.00525133
0.00512661
0.0050241
0.00477005
0.00492644
0.00482739
0.0052536
0.00490771
0.00493277
0.00485086
0.00483119
0.00506214
0.00500268
0.00514339
0.00605456
0.00569564
0.00565234
0.00508479
0.00512137
0.00519327
0.00616498
0.00815281
0.00773368
0.00641784
0.00674778
0.00712843
0.00746301
0.00836134
0.00839458
0.00843383
0.00843335
0.0084329
0.00842988
0.00842154
0.00840443
0.00837106
0.00833138
0.00831234
0.00831728
0.00833553
0.00825686
0.00811419
0.00780533
0.00840679
0.00843769
0.0084079
0.00844509
0.00844195
0.00843562
0.0084297
0.00843076
0.00842605
0.00840056
0.00830148
0.00817854
0.00811507
0.00795701
0.00686727
0.00608753
0.00749111
0.00695692
0.0075426
0.00753949
0.00761874
0.00765027
0.00757966
0.00759039
0.00737897
0.00751374
0.00730837
0.00712828
0.00780564
0.00781162
0.00783885
0.00781461
0.00786885
0.00740965
0.00793513
0.00787152
0.00765498
0.00763998
0.00531427
0.00548892
0.00562819
0.00571467
0.0050649
0.00525025
0.00539515
0.00536973
0.00473732
0.00501419
0.00484478
0.00474342
0.00473932
0.00471377
0.00475589
0.00476991
0.00477604
0.00489585
0.00571673
0.00535707
0.00526374
0.00492384
0.0049593
0.00502657
0.00589163
0.00755275
0.0076301
0.00747762
0.00753232
0.00613523
0.00646363
0.00686776
0.00720189
0.00830862
0.00836878
0.00843253
0.00843216
0.00842909
0.0084207
0.00840405
0.00837292
0.0083321
0.00830786
0.00831073
0.00832791
0.00825676
0.00816888
0.00815644
0.00839033
0.00842971
0.00843715
0.00844106
0.00844078
0.0084357
0.00843021
0.00842988
0.00842774
0.00841277
0.00834294
0.00819837
0.00812758
0.00805036
0.00758132
0.00710041
0.00673714
0.00762648
0.00753853
0.00767525
0.00767342
0.00773793
0.00776027
0.00760858
0.00767983
0.00751624
0.00761989
0.00780885
0.00751531
0.00776962
0.00774074
0.00734483
0.00764274
0.00774296
0.00725061
0.00751053
0.00734215
0.00574955
0.00568829
0.00559324
0.00546493
0.00560067
0.00578773
0.00588476
0.00591194
0.00523342
0.00550062
0.00544271
0.00567442
0.0048336
0.00526029
0.00501686
0.00470624
0.00484211
0.00473741
0.0048552
0.00472851
0.00472746
0.00478961
0.00548293
0.00508698
0.00517382
0.00480655
0.00484627
0.00490094
0.00565077
0.00753468
0.00764015
0.00747698
0.00704662
0.00588048
0.00619202
0.00659324
0.00825948
0.00835061
0.00841174
0.00842569
0.00841971
0.0084035
0.00837466
0.00833364
0.00830455
0.00830409
0.00831971
0.00834744
0.00817732
0.00826051
0.00837925
0.0084194
0.008428
0.00843252
0.00843425
0.00843155
0.00842843
0.00842771
0.00842629
0.00841852
0.00837489
0.00824448
0.008081
0.0080385
0.00797071
0.00591241
0.00601756
0.00724607
0.0066084
0.00769289
0.00759977
0.00777964
0.00775863
0.00785216
0.00787962
0.00771833
0.00780412
0.00772327
0.00776424
0.00771882
0.0077069
0.00757052
0.00753274
0.00698623
0.00723765
0.00718439
0.00745755
0.00534415
0.00523759
0.00515607
0.00509084
0.00584753
0.00573119
0.00559782
0.00546103
0.0058732
0.00597615
0.00597305
0.0059045
0.00554272
0.00575764
0.00582707
0.00594948
0.00501211
0.00558107
0.00527499
0.00473361
0.00502659
0.00482832
0.00502779
0.00474902
0.00473902
0.00473498
0.00529026
0.00495111
0.00502971
0.0047441
0.00478396
0.00481263
0.00544569
0.00766037
0.00736284
0.00763828
0.00683433
0.00633675
0.0056597
0.00595186
0.00822072
0.00833203
0.0083629
0.00837777
0.00840332
0.00837639
0.00833598
0.00830295
0.0082974
0.00831173
0.00833949
0.0082855
0.00826617
0.0083734
0.00840795
0.00841638
0.0084218
0.00842333
0.00842427
0.00842455
0.00842706
0.00842366
0.00841969
0.00839506
0.0082923
0.0076683
0.00795345
0.00796441
0.00759792
0.00659059
0.00614984
0.00744769
0.0073083
0.00771021
0.00759453
0.0078767
0.00782059
0.00785615
0.00790663
0.00781104
0.00783914
0.0075392
0.00760323
0.0075132
0.00750828
0.00738297
0.0073637
0.00742318
0.00739646
0.00502535
0.00526487
0.00712251
0.00534302
0.00525197
0.00520434
0.00515954
0.00578676
0.00565047
0.00551894
0.00540491
0.00605779
0.00605246
0.00596472
0.00584812
0.00587943
0.00603686
0.00611063
0.00613073
0.00527773
0.00592663
0.00560477
0.00482569
0.00529698
0.00499148
0.00527522
0.00482766
0.00480424
0.00473468
0.0051352
0.00485671
0.00492616
0.00474045
0.00476347
0.00477003
0.00527803
0.00782141
0.00664263
0.00724071
0.007674
0.00611523
0.00574427
0.00547479
0.00820179
0.00828372
0.00832674
0.00834281
0.00837772
0.00833873
0.00830196
0.00829061
0.0083032
0.0083306
0.00829391
0.00827935
0.00836725
0.00839609
0.00840348
0.00840924
0.00841207
0.0084138
0.00841728
0.00842294
0.00842205
0.00841704
0.0084116
0.00832314
0.00768627
0.00799236
0.00792607
0.00794086
0.00631794
0.00653016
0.00725056
0.00661795
0.00744152
0.00734735
0.00769344
0.00755041
0.00792602
0.00784859
0.00782769
0.00789114
0.00768181
0.00775236
0.00739848
0.00746945
0.00734555
0.00735469
0.00738994
0.00737354
0.00708093
0.00707149
0.00512086
0.00542152
0.00511158
0.00511584
0.00531604
0.00525742
0.00523559
0.00521417
0.00571644
0.00558651
0.0054769
0.00539284
0.00612909
0.00604284
0.00591366
0.0057894
0.00617204
0.0062178
0.00629701
0.0061994
0.0056173
0.00622373
0.00595786
0.00499072
0.00563243
0.00524064
0.00559893
0.00496413
0.00492503
0.0047846
0.00501623
0.00480812
0.00485798
0.0047877
0.00478014
0.00477989
0.00514502
0.00713714
0.00593749
0.00647267
0.00712932
0.00767202
0.00556882
0.00532337
0.00817577
0.00828889
0.00833602
0.00830998
0.00805238
0.00830162
0.008284
0.00829391
0.00832014
0.00830814
0.00829196
0.00835975
0.00838534
0.008393
0.0083991
0.00840418
0.00840596
0.00840815
0.00841145
0.00841454
0.00841402
0.00841213
0.00835232
0.00823362
0.00770223
0.00787225
0.00788185
0.00770393
0.00662012
0.00672627
0.00734989
0.00683003
0.00741182
0.00737263
0.00765375
0.00750732
0.00791644
0.00782816
0.00781167
0.00787959
0.00756141
0.0076822
0.00738043
0.00744338
0.0073506
0.00734787
0.00748879
0.00748994
0.00509539
0.00507741
0.00503734
0.00476635
0.0051929
0.00519434
0.00528162
0.00528235
0.00533095
0.00529706
0.0052929
0.0052818
0.00566642
0.00555721
0.00547387
0.00541614
0.00612245
0.00599988
0.00586591
0.00575263
0.00636902
0.00628628
0.00637515
0.00619507
0.00598007
0.00643555
0.00626575
0.00522483
0.00599709
0.00556406
0.00596282
0.00516905
0.00510794
0.0048894
0.00493573
0.00479611
0.0048324
0.00487243
0.00484537
0.00483137
0.00504185
0.00735161
0.00542892
0.0057981
0.00632828
0.00704811
0.00767834
0.00520021
0.00815123
0.00831787
0.00831027
0.00784117
0.00830194
0.0082783
0.00828406
0.00830859
0.0083278
0.00831188
0.00835587
0.00837774
0.00838764
0.0083961
0.00838844
0.00840286
0.00837495
0.0084053
0.00840616
0.00840728
0.00840925
0.00836061
0.00827739
0.00734957
0.00782057
0.0078577
0.00786094
0.00673733
0.00658427
0.00698072
0.0067184
0.00749111
0.00745552
0.00739622
0.00743159
0.00761017
0.00747735
0.0077873
0.00769357
0.00778761
0.00784932
0.00753834
0.00766178
0.00747566
0.00752864
0.00747931
0.00746057
0.00721402
0.0072031
0.00527681
0.0052708
0.00564198
0.0052863
0.00526999
0.00527711
0.00509142
0.00515132
0.0053749
0.00535467
0.00535826
0.00535045
0.0056463
0.00556137
0.00550108
0.00545899
0.00609063
0.00596439
0.00584009
0.00574419
0.00646273
0.00628771
0.00638717
0.00617413
0.00630124
0.0065495
0.00648893
0.00552432
0.00632851
0.00593351
0.00630701
0.00544198
0.00535243
0.00504889
0.00488382
0.00482973
0.00484055
0.00500531
0.00495706
0.0049218
0.00496964
0.00692677
0.00510286
0.00532813
0.00568493
0.00621977
0.00701504
0.00781755
0.00811772
0.00829582
0.00805442
0.00818299
0.00827387
0.00827411
0.00829585
0.008329
0.00833753
0.00835438
0.00837279
0.00838551
0.00825927
0.00821544
0.00794602
0.0079949
0.00794356
0.00836419
0.00840103
0.00840305
0.00836546
0.00827619
0.0071047
0.00767545
0.00780436
0.00779336
0.0078187
0.00697722
0.0067927
0.00743601
0.00713652
0.00767855
0.00770662
0.00742487
0.00754379
0.00731764
0.00747886
0.00745797
0.00711414
0.00780234
0.00783585
0.00761319
0.00771386
0.00757426
0.00762382
0.00756859
0.00755314
0.00521576
0.00522948
0.00526639
0.00565618
0.00506755
0.00506868
0.00528539
0.00514934
0.00528607
0.00521424
0.0048736
0.00494621
0.00543259
0.00541907
0.00538339
0.00523499
0.00565959
0.00559372
0.00554757
0.00551844
0.0060712
0.00595381
0.00584457
0.00576674
0.00649194
0.00627847
0.00638926
0.00617299
0.00655119
0.00660246
0.00662746
0.00587066
0.00658757
0.00629561
0.00659574
0.00577326
0.00566556
0.00527398
0.0048608
0.00489814
0.00487849
0.00518371
0.00509816
0.00503237
0.0049235
0.00609753
0.00503951
0.00525604
0.00559257
0.00617728
0.00712968
0.00797423
0.00806855
0.00820109
0.00809519
0.00827074
0.00826412
0.00828245
0.00831624
0.00834158
0.00835261
0.00836861
0.00837967
0.00827357
0.00807744
0.00769355
0.00750921
0.0075026
0.00812667
0.00836562
0.00839328
0.00838637
0.00770744
0.00758471
0.00745112
0.00776546
0.00775754
0.00784132
0.00789631
0.00736903
0.00718179
0.00788062
0.00767542
0.00785729
0.0079332
0.00750787
0.00768458
0.0074093
0.00751552
0.00764044
0.00738169
0.00781476
0.00779468
0.00769315
0.00776647
0.00763494
0.00767155
0.00738984
0.00730467
0.00518042
0.00535221
0.0054366
0.00588647
0.00484671
0.0048519
0.00505909
0.00493743
0.00509581
0.00501881
0.00468131
0.00476539
0.00549736
0.00536537
0.00522401
0.00506959
0.00569946
0.00564847
0.00561586
0.00559264
0.00607787
0.00597123
0.00587718
0.0058168
0.00651564
0.0062924
0.00642137
0.00620418
0.00672097
0.00664664
0.00670532
0.00623377
0.00678202
0.00660676
0.00682964
0.0061435
0.00602922
0.00555187
0.00488217
0.00499242
0.00496762
0.00540886
0.00527907
0.00516696
0.00491402
0.00517524
0.00501537
0.00521132
0.0055805
0.0063143
0.00737841
0.00807553
0.00801431
0.00812876
0.00826925
0.00825477
0.00826901
0.0083013
0.00833143
0.00834706
0.00836119
0.00836187
0.00826938
0.00808492
0.00792538
0.00773729
0.00763743
0.00791538
0.00819659
0.00831139
0.00836775
0.00746875
0.00822085
0.00774565
0.00778078
0.00774389
0.00777515
0.00788996
0.00713362
0.00728997
0.00719962
0.00775587
0.00803775
0.00797266
0.00798547
0.00804595
0.00762905
0.00783029
0.00757443
0.00760018
0.00773993
0.00765675
0.00777668
0.00775974
0.00771719
0.00776043
0.00758053
0.00743425
0.00544066
0.00535972
0.00574293
0.00527871
0.00492991
0.00509622
0.00536145
0.00552989
0.0046403
0.00465081
0.0048228
0.00473513
0.00492576
0.0048454
0.00449913
0.00459857
0.00544144
0.00523355
0.00508806
0.00492893
0.00576531
0.00572762
0.00570345
0.00556348
0.00611432
0.00602119
0.00594873
0.005903
0.00657567
0.00634233
0.00650475
0.00627231
0.00683335
0.00672656
0.00677885
0.00657013
0.00692743
0.00686525
0.0070252
0.00651065
0.00640613
0.0058739
0.00495711
0.00511596
0.00508768
0.00569018
0.00550809
0.0053431
0.00495956
0.00440091
0.00504476
0.00526521
0.00575282
0.00660358
0.00768338
0.00809162
0.00794188
0.00821692
0.00824796
0.00825542
0.00828545
0.00831901
0.00833996
0.00834967
0.00833262
0.00824179
0.00806611
0.00794358
0.00793882