/*--------------------------------*- C++ -*----------------------------------*\
  =========                 |
  \\      /  F ield         | OpenFOAM: The Open Source CFD Toolbox
   \\    /   O peration     | Website:  https://openfoam.org
    \\  /    A nd           | Version:  dev
     \\/     M anipulation  |
\*---------------------------------------------------------------------------*/
FoamFile
{
    version     2.0;
    format      ascii;
    class       volScalarField;
    location    "2500";
    object      rDeltaT;
}
// * * * * * * * * * * * * * * * * * * * * * * * * * * * * * * * * * * * * * //

dimensions      [0 0 -1 0 0 0 0];

internalField   nonuniform List<scalar> 
9967
(
100
100
100
100
100
100
100
100
100
100
100
100
100
100
100
100
100
100
100
100
100
100
100
100
100
100
100
100
100
100
100
100
100
100
100
100
100
100
100
100
100
100
100
100
100
100
100
100
100
100
100
100
100
100
100
100
100
100
100
100
100
100
100
100
100
100
100
100
100
100
100
100
100
100
100
100
100
100
100
100
100
100
100
100
100
100
100
100
100
100
100
100
100
100
100
100
100
100
100
100
100
100
100
100
100
100
100
100
100
100
100
100
100
100
100
100
100
100
100
100
100
100
100
100
100
100
100
100
100
100
100
100
100
100
100
100
100
100
100
100
100
100
100
100
100
100
100
100
100
100
100
100
100
100
100
100
100
100
100
100
100
100
100
100
100
100
100
100
100
100
100
100
100
100
100
100
100
100
100
100
100
100
100
100
100
100
100
100
100
100
100
100
100
100
100
100
100
100
100
100
100
100
100
100
100
100
100
100
100
100
100
100
100
100
100
100
100
100
100
100
100
100
100
100
100
100
100
100
100
100
100
100
100
100
100
100
100
100
100
100
100
100
100
100
100
100
100
100
100
100
100
100
100
100
100
100
100
100
100
100
100
100
100
100
100
100
100
100
100
100
100
100
100
100
100
100
100
100
100
100
100
100
100
100
100
100
100
100
100
100
100
100
100
100
100
100
100
100
100
100
100
100
100
100
100
100
100
100
100
100
100
100
100
100
100
100
100
100
100
100
100
100
100
100
100
100
100
100
100
100
100
100
100
100
100
100
100
100
100
100
100
100
100
100
100
100
100
100
100
100
100
100
100
100
100
100
100
100
100
100
100
100
100
100
100
100
100
100
100
100
100
100
100
100
100
100
100
100
100
100
100
100
100
100
100
100
100
100
100
100
100
100
100
100
100
100
100
100
100
100
100
100
100
100
100
100
100
100
100
100
100
100
100
100
100
100
100
100
100
100
100
100
100
100
100
100
100
100
100
100
100
100
100
100
100
100
100
100
100
100
100
100
100
100
100
100
100
100
100
100
100
100
100
100
100
100
100
100
100
100
100
100
100
100
100
100
100
100
100
100
100
100
100
100
100
100
100
100
100
100
100
100
100
100
100
100
100
100
100
100
100
100
100
100
100
100
100
100
100
100
100
100
100
100
100
100
100
100
100
100
100
100
100
100
100
100
100
100
100
100
100
100
100
100
100
100
100
100
100
100
100
100
100
100
100
100
100
100
100
100
100
100
100
100
100
100
100
100
100
100
100
100
100
100
100
100
100
100
100
100
100
100
100
100
100
100
100
100
100
100
100
100
100
100
100
100
100
100
100
100
100
100
100
100
100
100
100
100
100
100
100
100
100
100
100
100
100
100
100
100
100
100
100
100
100
100
100
100
100
100
100
100
100
100
100
100
100
100
100
100
100
100
100
100
100
100
100
100
100
100
100
100
100
100
100
100
100
100
100
100
100
100
100
100
100
100
100
100
100
100
100
100
100
100
100
100
100
100
100
100
100
100
100
100
100
100
100
100
100
100
100
100
100
100
100
100
100
100
100
100
100
100
100
100
100
100
100
100
100
100
100
100
100
100
100
100
100
100
100
100
100
100
100
100
100
100
100
100
100
100
100
100
100
100
100
100
100
100
100
100
100
100
100
100
100
100
100
100
100
100
100
100
100
100
100
100
100
100
100
100
100
100
100
100
100
100
100
100
100
100
100
100
100
100
100
100
100
100
100
100
100
100
100
100
100
100
100
100
100
100
100
100
100
100
100
100
100
100
100
100
100
100
100
100
100
100
100
100
100
100
100
100
100
100
100
100
100
100
100
100
100
100
100
100
100
100
100
100
100
100
100
100
100
100
100
100
100
100
100
100
100
100
100
100
100
100
100
100
100
100
100
100
100
100
100
100
100
100
100
100
100
100
100
100
100
100
100
100
100
100
100
100
100
100
100
100
100
100
100
100
100
100
100
100
100
100
100
100
100
100
100
100
100
100
100
100
100
100
100
100
100
100
100
100
100
100
100
100
100
100
100
100
100
100
100
100
100
100
100
100
100
100
100
100
100
100
100
100
100
100
100
100
100
100
100
100
100
100
100
100
100
100
100
100
100
100
100
100
100
100
100
100
100
100
100
100
100
100
100
100
100
100
100
100
100
100
100
100
100
100
100
100
100
100
100
100
100
100
100
100
100
100
100
100
100
100
100
100
100
100
100
100
100
100
100
100
100
100
100
100
100
100
100
100
100
100
100
100
100
100
100
100
100
100
100
100
100
100
100
100
100
100
100
100
100
100
100
100
100
100
100
100
100
100
100
100
100
100
100
100
100
100
100
100
100
100
100
100
100
100
100
100
100
100
100
100
100
100
100
100
100
100
100
100
100
100
100
100
100
100
100
100
100
100
100
100
100
100
100
100
100
100
100
100
100
100
100
100
100
100
100
100
100
100
100
100
100
100
100
100
100
100
100
100
100
100
100
100
100
100
100
100
100
100
100
100
100
100
100
100
100
100
100
100
100
100
100
100
100
100
100
100
100
100
100
100
100
100
100
100
100
100
100
100
100
100
100
100
100
100
100
100
100
100
100
100
100
100
100
100
100
100
100
100
100
100
100
100
100
100
100
100
100
100
100
100
100
100
100
100
100
100
100
100
100
100
100
100
100
100
100
100
100
100
100
100
100
100
100
100
100
100
100
100
100
100
100
100
100
100
100
100
100
100
100
100
100
100
100
100
100
100
100
100
100
100
100
100
100
100
100
100
100
100
100
100
100
100
100
100
100
100
100
100
100
100
100
100
100
100
100
100
100
100
100
100
100
100
100
100
100
100
100
100
100
100
100
100
100
100
100
100
100
100
100
100
100
100
100
100
100
100
100
100
100
100
100
100
100
100
100
100
100
100
100
100
100
100
100
100
100
100
100
100
100
100
100
100
100
100
100
100
100
100
100
100
100
100
100
100
100
100
100
100
100
100
100
100
100
100
100
100
100
100
100
100
100
100
100
100
100
100
100
100
100
100
100
100
100
100
100
100
100
100
100
100
100
100
100
100
100
100
100
100
100
100
100
100
100
100
100
100
100
100
100
100
100
100
100
100
100
100
100
100
100
100
100
100
100
100
100
100
100
100
100
100
100
100
100
100
100
100
100
100
100
100
100
100
100
100
100
100
100
100
100
100
100
100
100
100
100
100
100
100
100
100
100
100
100
100
100
100
100
100
100
100
100
100
100
100
100
100
100
100
100
100
100
100
100
100
100
100
100
100
100
100
100
100
100
100
100
100
100
100
100
100
100
100
100
100
100
100
100
100
100
100
100
100
100
100
100
100
100
100
100
100
100
100
100
100
100
100
100
100
100
100
100
100
100
100
100
100
100
100
100
100
100
100
100
100
100
100
100
100
100
100
100
100
100
100
100
100
100
100
100
100
100
100
100
100
100
100
100
100
100
100
100
100
100
100
100
100
100
100
100
100
100
100
100
100
100
100
100
100
100
100
100
100
100
100
100
100
100
100
100
100
100
100
100
100
100
100
100
100
100
100
100
100
100
100
100
100
100
100
100
100
100
100
100
100
100
100
100
100
100
100
100
100
100
100
100
100
100
100
100
100
100
100
100
100
100
100
100
100
100
100
100
100
100
100
100
100
100
100
100
100
100
100
100
100
100
100
100
100
100
100
100
100
100
100
100
100
100
100
100
100
100
100
100
100
100
100
100
100
100
100
100
100
100
100
100
100
100
100
100
100
100
100
100
100
100
100
100
100
100
100
100
100
100
100
100
100
100
100
100
100
100
100
100
100
100
100
100
100
100
100
100
100
100
100
100
100
100
100
100
100
100
100
100
100
100
100
100
100
100
100
100
100
100
100
100
100
100
100
100
100
100
100
100
100
100
100
100
100
100
100
100
100
100
100
100
100
100
100
100
100
100
100
100
100
100
100
100
100
100
100
100
100
100
100
100
100
100
100
100
100
100
100
100
100
100
100
100
100
100
100
100
100
100
100
100
100
100
100
100
100
100
100
100
100
100
100
100
100
100
100
100
100
100
100
100
100
100
100
100
100
100
100
100
100
100
100
100
100
100
100
100
100
100
100
100
100
100
100
100
100
100
100
100
100
100
100
100
100
100
100
100
100
100
100
100
100
100
100
100
100
100
100
100
100
100
100
100
100
100
100
100
100
100
100
100
100
100
100
100
100
100
100
100
100
100
100
100
100
100
100
100
100
100
100
100
100
100
100
100
100
100
100
100
100
100
100
100
100
100
100
100
100
100
100
100
100
100
100
100
100
100
100
100
100
100
100
100
100
100
100
100
100
100
100
100
100
100
100
100
100
100
100
100
100
100
100
100
100
100
100
100
100
100
100
100
100
100
100
100
100
100
100
100
100
100
100
100
100
100
100
100
100
100
100
100
100
100
100
100
100
100
100
100
100
100
100
100
100
100
100
100
100
100
100
100
100
100
100
100
100
100
100
100
100
100
100
100
100
100
100
100
100
100
100
100
100
100
100
100
100
100
100
100
100
100
100
100
100
100
100
100
100
100
100
100
100
100
100
100
100
100
100
100
100
100
100
100
100
100
100
100
100
100
100
100
100
100
100
100
100
100
100
100
100
100
100
100
100
100
100
100
100
100
100
100
100
100
100
100
100
100
100
100
100
100
100
100
100
100
100
100
100
100
100
100
100
100
100
100
100
100
100
100
100
100
100
100
100
100
100
100
100
100
100
100
100
100
100
100
100
100
100
100
100
100
100
100
100
100
100
100
100
100
100
100
100
100
100
100
100
100
100
100
100
100
100
100
100
100
100
100
100
100
100
100
100
100
100
100
100
100
100
100
100
100
100
100
100
100
100
100
100
100
100
100
100
100
100
100
100
100
100
100
100
100
100
100
100
100
100
100
100
100
100
100
100
100
100
100
100
100
100
100
100
100
100
100
100
100
100
100
100
100
100
100
100
100
100
100
100
100
100
100
100
100
100
100
100
100
100
100
100
100
100
100
100
100
100
100
100
100
100
100
100
100
100
100
100
100
100
100
100
100
100
100
100
100
100
100
100
100
100
100
100
100
100
100
100
100
100
100
100
100
100
100
100
100
100
100
100
100
100
100
100
100
100
100
100
100
100
100
100
100
100
100
100
100
100
100
100
100
100
100
100
100
100
100
100
100
100
100
100
100
100
100
100
100
100
100
100
100
100
100
100
100
100
100
100
100
100
100
100
100
100
100
100
100
100
100
100
100
100
100
100
100
100
100
100
100
100
100
100
100
100
100
100
100
100
100
100
100
100
100
100
100
100
100
100
100
100
107.865
106.163
100
100
100
100
100
100
100
100
100
100
100
100
100
100
100
100
100
100
100
100
100
100
100
100
100
100
100
100
100
100
100
100
100
100
100
100
100
100
100
100
100
100
100
100
100
100
100
100
100
100
100
100
100
100
100
100
100
100
100
100
100
100
100
100
100
100
100
100
100
100
100
100
100
100
100
100
100
100
100
100
100
100
100
100
100
100
100
100
100
100
100
108.505
108.328
102.642
106.242
101.732
104.232
117.251
115.21
100
100
101.32
105.758
100
100
100
100
100
100
100
100
100
100
100
100
100
100
100
100
100
100
100
100
100
100
100
100
100
100
100
100
100
100
100
100
100
100
100
100
100
100
100
100
100
100
100
100
100
100
100
100
100
100
100
100
100
100
100
100
100
100
100
100
100
100
100
100
100
100
100
100
100
100
100
100
100
100
100
100
100
100
100
100
100
100
100
106.52
101.383
100
100
117.935
117.565
110.866
114.914
110.128
112.982
126.566
124.204
100
103.799
108.617
113.581
100
100
100
100
100
100
100
100
100
100
100
100
100
100
100
100
100
100
100
100
100
100
100
100
100
100
100
100
100
100
100
100
100
100
100
100
100
100
100
100
100
100
100
100
100
100
100
100
100
100
100
100
100
100
100
100
100
100
100
100
100
100
100
100
100
100
100
100
100
100
100
100
100
100
100
100
100
100
100
100
100
100
100
100
100
100
115.22
109.479
102.478
100
127.655
127.041
119.845
123.778
118.469
121.655
136.471
133.512
104.023
110.503
115.815
121.315
100
100
100
103.6
100
100
100
100
100
100
100
100
100
100
100
100
100
100
100
100
100
100
100
100
100
100
100
100
100
100
100
100
100
100
100
100
100
100
100
100
100
100
100
100
100
100
100
100
100
100
100
100
100
100
100
100
100
100
100
100
100
100
100
100
100
100
100
100
100
100
100
100
100
100
100
100
100
100
100
100
100
100
100
100
100
100
100
100
124.479
117.462
109.077
100.915
138.209
137.439
130.142
133.934
126.721
130.321
146.969
143.492
110.141
117.178
123.017
129.056
100
100
103.213
109.404
100
100
100
100
100
100
100
100
100
100
100
100
100
100
100
100
100
100
100
100
100
100
100
100
100
100
100
100
100
100
100
100
100
100
100
100
100
100
100
100
100
100
100
100
100
100
100
100
100
100
100
100
100
100
100
100
100
100
100
100
100
100
100
100
100
100
100
100
100
100
100
100
100
100
100
100
100
100
100.08
100
100
100
102.1
100
100
134.23
125.706
115.557
106.543
149.164
148.215
140.896
144.774
134.979
139.422
158.01
153.999
116.4
123.981
130.379
136.862
100
103.526
109.24
115.735
100
100
100
100.438
100
100
100
100
100
103.02
100
100
100
100
100
100
100
100
100
100
100
100
100
100
100
100
100
100
100
100
100
100
100
100
100
100
100
100
100
100
100
100
100
100
100
100
100
100
100
100
100
100
100
100
100
100
100
100
100
100
100
100
100
100
100
100
100
100
100
100
100
100
100
100
100
100
100
100
102.495
107.039
106.401
104.525
100.763
106.868
104.505
103.579
144.81
134.303
121.926
112.079
160.491
159.534
152.269
156.528
143.258
149.081
169.855
165.221
123.115
131.168
138.245
145.321
105.177
110.479
116.399
123.128
100
100.729
103.701
108.417
109.545
102.922
115.375
108.085
101.845
116.372
108.676
100
106.021
100.945
111.26
100
100
100
100
100
100
100
100
100
100
100
100
100
100
100
100
100
100
100
100
100
100
100
100
100
100
100
100
100
100
100
100
100
100
100
100
100
100
100
100
100
100
100
100
100
100
100
100
100
100
100
100
100
100
100
100
100
100
100
100
101.576
100
100
100
108.285
113.227
113.388
111.255
106.995
111.895
109.281
108.731
157.313
144.271
129.821
118.644
172.764
172.697
165.848
170.569
152.418
159.675
182.885
177.1
130.715
139.065
147.107
154.948
113.881
119.503
125.541
132.469
113.679
116.69
117.995
120.414
125.548
121.552
132.996
128.287
116.738
142.37
129.317
103.024
124.154
116.779
134.46
105.424
105.543
100
100
100
100
100
100
100
100
100
100
100
100
100
100
100
100
100
100
100
100
100
100
100
100
100
100
100
100
100
100
100
100
100
100
100
100
100
100
100
100
100
100
100
100
100
100
100
100
100
100
100
100
100
100
100
100
100
100
100
100
100
108.931
103.866
103.872
113.077
119.865
120.033
117.554
113.518
116.734
113.809
113.057
170.876
155.216
139.04
125.446
186.306
187.416
180.846
185.92
162.511
170.538
197.808
190.885
140.234
148.854
157.828
166.576
125.805
131.846
137.997
145.052
135.084
138.71
139.838
139.878
156.073
140.888
164.659
150.367
140.766
175.388
159.481
119.96
154.529
139.441
164.569
124.017
127.822
107.186
100
100
100
107.299
103.397
100
100
134.929
100
100
100
100
100
100
100
100
100
100
100
100
100
100
100
100
100
100
100
100
100
100
100
100
100
100
100
100
100
100
100
100
100
100
100
100
100
100
100
100
100
100
100
100
100
100
100
100
103.389
101.581
100
100
100
114.82
109.62
109.688
118.362
125.885
125.346
122.681
119.137
121.719
118.455
117.306
186.23
168.918
150.589
132.915
201.363
203.454
197.528
202.499
174.397
182.896
213.66
206.088
153.103
162.025
171.565
180.989
142.316
148.787
154.843
161.953
160.753
166.09
166.211
166.079
185.744
172.614
186.177
185.294
172.568
196.578
187.872
147.61
185.914
173.033
193.001
155.069
158.292
128.926
100
100
100
124.092
119.397
115.677
100
402.731
100
100
100
100
100
145.623
100
100
100
100
100
100
100
100
100
100
100
100
100
100
100
100
100
100
100
100
100
100
100
100
100
100
100
100
100
100
100
100
100
100
100
100
100
100
100
100
100
100
107.358
104.269
100
100
100
120.231
115.288
113.4
124.216
131.06
130.087
127.667
124.485
128.234
123.972
122.494
203.705
185.549
164.187
142.308
217.986
221.546
216.441
221.67
189.045
197.3
230.319
222.729
170.627
180.274
190.002
198.994
165.528
170.649
176.373
183.53
196.047
198.967
200.519
198.587
205.297
196.36
234.264
214.107
192.259
247.503
202.016
185.205
196.592
196.591
211.582
190.192
193.901
156.06
100
108.791
100.696
150.81
145.114
133.661
100
199.19
100
100
100
100
100
100
100
100
100
100
100
100
100
100
100
100
100
100
100
100
100
100
100
100
100
100
100
100
100
100
100
100
100
100
100
100
100
100
100
100
100
100
100
100
100
100
100
100
110.629
106.53
100.565
100
100
124.183
119.192
116.766
130.145
136.166
134.691
131.98
128.448
136.026
130.242
128.853
224.665
206.258
180.708
154.314
235.908
240.821
236.857
242.192
207.293
214.346
248.751
241.531
193.064
204.639
216.306
223.417
196.804
198.1
201.592
208.42
224.296
243.737
252.243
244.773
144.655
245.199
280.461
269.198
253.172
302.554
138.752
198.596
132.476
252.444
143.68
206.156
210.959
192.042
100
123.762
115.661
183.729
167.357
155.525
100
100
100
100
100
100
100
100
100
100
100
100
100
100
100
100
100
100
100
100
100
100
100
100
100
100
100
100
100
100
100
100
100
100
100
100
100
100
100
100
100
100
100
100
100
100
100
100
100
100
100
100
100
100
112.839
108.221
101.68
100
127.726
122.467
119.215
136.268
141.851
139.441
135.866
132.126
145.461
138.336
136.415
248.503
230.215
200.947
169.458
255.803
261.397
258.59
263.761
230.286
234.743
269.373
263.036
217.233
228.556
241.785
251.814
245.883
245.509
247.661
254.248
148.972
283.041
288.164
281.395
170.802
290.757
335.17
315.056
308.521
367.537
171.436
134.119
164.993
315.676
179.308
137.578
140.508
201.975
105.16
146.368
130.215
198.669
190.784
185.997
100
100
100
100
100
100
100
100
100
100
100
100
100
100
100
100
100
100
100
100
100
100
100
100
100
100
100
100
100
100
100
100
100
100
100
100
100
100
100
100
100
100
100
100
100
100
100
100
100
100
100
100
100
114.978
109.345
102.734
100
130.466
124.79
121.776
142.726
148.37
144.496
139.91
135.747
157.698
148.562
144.22
276.094
257.527
225.542
188.226
278.122
284.232
284.371
287.49
256.564
258.88
291.246
281.974
263.803
273.672
298.308
294.009
280.353
279.363
279.797
286.968
173.593
329.513
330.073
322.721
202.588
344.261
392.352
366.171
373.329
433.102
208.114
167.504
202.945
387.048
218.831
171.159
142.622
173.629
118.521
164.78
149.362
221.667
263.975
203.943
195.041
105.095
100
100
100
100
100
100
100
100
100
100
100
100
100
100
100
100
100
100
100
100
100
100
100
100
100
100
100
100
100
100
100
100
100
100
100
100
100
100
100
100
100
100
100
100
100
100
100
100
100
100
100
100
100
100
116.958
110.463
103.889
100
133.725
127.613
124.658
150.069
155.948
150.771
144.973
139.861
173.423
159.455
151.875
305.564
287.634
254.617
211.35
301.157
307.714
312.684
311.493
289.878
280.941
322.325
321.362
295.823
306.963
179.329
325.865
319.189
316.746
314.833
322.841
202.444
378.466
374.571
366.067
236.386
401.569
421.525
440.236
244.753
205.867
240.771
455.319
256.003
211.149
173.787
213.814
129.075
185.945
163.924
152.365
323.436
141.671
212.807
257.429
114.383
100
101.99
100
100
100
100
109.457
100
100
100
100
100
100
100
100
100
100
100
100
100
100
100
100
100
100
100
100
100
100
100
100
100
100
100
100
100
100
100
100
100
100
100
100
100
100
100
100
100
100
100
100
100
100
118.056
112.293
105.051
100
137.737
131.086
126.605
158.248
164.056
157.943
151.051
144.534
194.782
172.381
161.244
337.172
319.084
287.632
241.431
318.882
328.985
342.939
339.437
330.621
341.216
360.482
193.383
330.249
341.233
200.158
353.252
360.033
356.475
352.382
361.094
232.867
241.966
248.295
210.758
251.499
141.492
196.888
180.072
184.876
394.098
173.25
148.043
317.716
122.239
100
105.848
100
100
100
100
127.503
100
100
100
100
100
100
100
100
100
100
100
100
100
100
100
100
100
100
100
100
100
100
100
100
100
100
100
100
100
100
100
100
100
100
100
100
100
100
100
100
100
100
100
100
100
100
100
100
100
119.443
112.624
104.211
100
141.726
134.258
127.738
167.355
171.694
165.32
157.68
149.156
223.282
188.041
172.941
367.156
352.046
325.371
280.104
375.33
357.586
370.71
363.415
364.473
365.632
391.649
211.994
368.164
378.23
219.41
385.916
244.123
154.011
213.164
261.047
185.142
222.582
457.987
210.651
179.312
385.891
129.092
100
109.18
100
100
100
102.971
139.978
100
100
100
100
100
100
100
100
100
100
100
100
100
100
100
100
100
100
100
100
100
100
100
100
100
100
100
100
100
100
100
100
100
100
100
100
100
100
100
100
100
100
100
100
100
100
100
100
121.091
112.002
103.484
100
144.716
135.959
129.994
177.201
178.477
171.92
164.087
153.745
261.088
209.632
187.006
391.942
383.797
363.044
323.653
396.719
209.122
385.727
404.695
397.383
385.789
419.518
227.873
239.249
160.084
153.954
320.593
190.565
251.967
257.296
244.277
215.902
446.308
134.889
100
112.007
100
100
100
123.747
148.098
100
100
100
100
100
100
100
100
100
100
100
100
100
100
100
100
100
100
100
100
100
100
100
100
100
100
100
100
100
100
100
100
100
100
100
100
100
100
100
100
100
100
100
100
100
100
100
100
100
100
121.574
111.737
102.308
100
147.339
137.988
131.525
186.772
185.268
178.081
170.28
158.648
309.184
241.852
203.649
418.054
403.74
393.735
366.761
411.826
225.79
219.304
431.605
432.776
411.196
444.404
242.668
167.522
182.8
386.396
208.25
246.285
301.898
248.432
141.942
100
115.319
100
100
101.054
142.694
153.554
100
100
100
100
100
100
100
100
100
100
100
100
100
100
100
100
100
100
100
100
100
100
100
100
100
100
100
100
100
100
100
100
100
100
100
100
100
100
100
100
100
100
100
100
100
100
100
100
100
100
100
122.096
111.537
101.487
100
151.065
140.671
132.364
197.3
193.6
182.638
174.167
163.016
358.442
287.583
226.779
229.329
414.58
400.944
401.182
426.196
239.953
234.947
453.488
180.404
215.676
442.824
230.546
264.743
297.568
357.182
149.937
100
116.733
100
100
115.141
158.981
155.226
100
100
100
100
100
100
100
100
100
100
100
100
100
100
100
100
100
100
100
100
100
100
100
100
100
100
100
100
100
100
100
100
100
100
100
100
100
100
100
100
100
100
100
100
100
100
100
100
100
100
100
100
100
100
123.17
112.552
102.211
100
156.647
143.856
134.776
214.163
206.192
187.586
178.25
168.671
392.232
336.838
262.563
246.487
228.321
443.603
411.52
249.883
249.302
464.796
185.467
243.373
153.867
320.292
358.112
403.731
149.624
100
116.807
103.594
106.522
129.599
172.097
154.681
100
100
100
100
100
100
100
100
100
100
100
100
100
100
100
100
100
100
100
100
100
100
100
100
100
100
100
100
100
100
100
100
100
100
100
100
100
100
100
100
100
100
100
100
100
100
100
100
100
100
100
100
100
100
100
124.485
115.657
103.733
100
161.783
148.387
137.374
243.678
229.218
198.002
184.255
173.91
395.89
369.453
309.878
263.91
239.687
226.024
475.441
256.421
182.623
247.283
181.48
379.378
410.148
147.257
100
120.032
110.994
115.605
142.36
180.371
154.342
100
100
100
100
100
100
100
100
100
100
100
100
100
100
100
100
100
100
100
100
100
100
100
100
100
100
100
100
100
100
100
100
100
100
100
100
100
100
100
100
100
100
100
100
100
100
100
100
100
100
100
100
100
100
128.5
117.909
104.458
100
167.073
153.17
141.696
284.987
265.369
218.396
193.551
179.975
225.236
368.392
345.607
272.132
253.332
237.248
489.547
179.588
238.314
293.445
212.815
429.442
145.955
100
126.393
117.321
123.929
153.099
185.649
150.895
100
100
100
100
100
100
100
100
100
100
100
100
100
100
100
100
100
100
100
100
100
100
100
100
100
100
100
100
100
100
100
100
100
100
100
100
100
100
100
100
100
100
100
100
100
100
100
100
100
100
100
100
100
100
100
132.595
120.456
105.847
100
171.804
157.711
147.818
318.985
300.31
249.189
207.1
187.336
209.485
236.096
350.793
260.247
255.739
178.722
235.389
282.887
344.617
238.805
149.704
100
131.259
123.116
130.891
160.179
181.969
147.112
100
100
100
100
100
100
100
100
100
100
100
100
100
100
100
100
100
100
100
100
100
100
100
100
100
100
100
100
100
100
100
100
100
100
100
100
100
100
100
100
100
100
100
100
100
100
100
100
100
100
100
100
100
100
100
100
136.233
122.641
107.421
100
178.888
165.132
153.228
338.398
321.597
280.487
228.734
197.581
221.721
363.152
253.431
371.331
268.832
179.173
233.447
279.067
335.156
387.896
154.152
141.905
135.197
128.02
135.327
162.104
168.993
166.546
100
100
100
100
100
100
100
100
100
100
100
100
100
100
100
100
100
100
100
100
100
100
100
100
100
100
100
100
100
100
100
100
100
100
100
100
100
100
100
100
100
100
100
100
100
100
100
100
100
100
100
100
100
100
100
100
100
139.568
126.363
110.569
100
188.845
172.942
158.514
335.725
320.528
299.826
254.049
214.521
240.505
396.203
212.512
264.969
183.205
228.439
276.168
329.095
380.907
157.974
328.584
138.617
130.861
136.869
153.537
176.997
206.403
100
100
100
100
100
100
100
100
100
100
100
100
100
100
100
100
100
100
100
100
100
100
100
100
100
100
100
100
100
100
100
100
100
100
100
100
100
100
100
100
100
100
100
100
100
100
100
100
100
100
100
100
100
100
100
100
100.056
143.916
129.963
112.879
199.358
180.732
163.885
188.961
325.253
344.531
307.773
276.625
233.527
255.233
440.736
229.609
188.106
229.496
270.485
324.762
371.996
161.505
791.546
140.674
131.61
132.555
146.531
183.287
292.741
100
100
100
100
100
100
100
100
100
100
100
100
100
100
100
100
100
100
100
100
100
100
100
100
100
100
100
100
100
100
100
100
100
100
100
100
100
100
100
100
100
100
100
100
100
100
100
100
100
100
100
100
102.037
103.75
100
100
100
100
100
115.13
149.38
132.567
209.937
187.969
171.319
208.408
188.14
379.91
304.642
288.928
250.215
476.812
250.698
193.791
233.649
270.959
318.876
365.819
163.269
166.693
141.124
129.248
122.909
138.234
145.55
100
100
100
100
100
100
100
100
100
100
100
100
100
100
100
100
100
100
100
100
100
100
100
100
100
100
100
100
100
100
100
100
100
100
100
100
100
100
100
100
100
100
100
100
100
100
100
100
100
100
100
100
100
100
100
117.451
118.494
104.989
100
100
100
100
153.172
135.218
222.533
197.092
177.563
230.599
208.912
322.952
418.655
321.492
297.435
266.104
267.322
198.49
238.734
276.152
318.892
360.133
164.055
100
137.967
123.5
113.92
110.027
100
100
100
100
100
100
100
100
100
100
100
100
100
100
100
100
100
100
100
100
100
100
100
100
100
100
100
100
100
100
100
100
100
100
100
100
100
100
100
100
100
100
100
100
100
100
100
100
100
100
100
100
100
100
100
100
100
136.555
119.756
106.379
100
100
100
156.678
236.656
206.305
183.257
250.206
229.949
356.483
354.065
455.491
330.444
303.355
281.401
198.757
248.429
281.203
324.347
360.107
158.999
100
132.707
115.75
101.393
100
100
100
100
100
100
100
100
100
100
100
100
100
100
100
100
100
100
100
100
100
100
100
100
100
100
100
100
100
100
100
100
100
100
100
100
100
100
100
100
100
100
100
100
100
100
100
100
100
100
100
100
100
100
100
100
100
100
100
100
100
159.654
138.709
120.938
107.439
100
100
249.499
215.245
188.947
248.315
392.025
384.056
191.523
308.621
293.295
197.166
245.065
290.583
330.152
365.642
150.628
100
125.718
108.729
100
100
100
100
100
100
100
100
100
100
100
100
100
100
100
100
100
100
100
100
100
100
100
100
100
100
100
100
100
100
100
100
100
100
100
100
100
100
100
100
100
100
100
100
100
100
100
100
100
100
100
100
100
100
100
100
100
100
100
100
100
100
100
163.155
140.041
120.862
106.501
100
263.861
225.025
194.333
424.052
414.656
210.392
327.674
329.998
305.033
231.488
186.766
288.85
151.152
339.041
372.386
141.807
100
120.601
103.273
100
100
100
100
100
100
100
100
100
100
100
100
100
100
100
100
100
100
100
100
100
100
100
100
100
100
100
100
100
100
100
100
100
100
100
100
100
100
100
100
100
100
100
100
100
100
100
100
100
100
100
100
100
100
100
100
100
100
100
100
100
100
100
100
100
164.352
138.938
119.117
104.73
274.393
232.182
195.932
446.931
227.627
356.593
361.69
345.775
312.126
221.406
173.804
340.012
178.147
274.87
381.111
135.621
100
117.558
105.023
100
100
100
100
100
100
100
100
100
100
100
100
100
100
100
100
100
100
100
100
100
100
100
100
100
100
100
100
100
100
100
100
100
100
100
100
100
100
100
100
100
100
100
100
100
100
100
100
100
100
100
100
100
100.593
101.752
101.513
103.679
100
101.276
103.123
100
100
100
100
102.558
100
162.817
136.449
116.598
274.921
234.299
194.435
244.349
387.243
387.833
196.538
303.311
204.127
167.289
384.671
209.176
324.187
257.756
130.914
100
117.256
116.316
100
100
100
100
100
100
100
100
100
100
100
100
100
100
100
100
100
100
100
100
100
100
100
100
100
100
100
100
100
100
100
100
100
100
100
100
100
100
100
100
100
100
100
100
100
100
100
100
100
100
100.47
100.428
100
101.461
100.48
105.12
106.235
105.796
108.149
100
105.557
107.791
101.477
100
100
100
113.693
100
160.07
133.197
269.2
232.489
191.357
416.125
414.239
213.524
318.649
298.09
195.984
158.153
236.317
377.803
304.686
244.096
128.389
100
122.754
116.286
100
100
100
100
100
100
100
100
100
100
100
100
100
100
100
100
100
100
100
100
100
100
100
100
100
100
100
100
100
100
100
100
100
100
100
100
100
100
100
100
100
100
100
100
100
100
100
110.186
102.143
100
100
100
104.593
105.02
100
105.875
105.213
110.001
110.89
110.53
113.16
100
110.794
113.656
106.467
103.462
100
106.153
129.337
100
156.253
264.144
228.436
186.971
441.98
229.598
343.719
318.343
290.718
196.935
148.471
426.819
357.901
292.933
148.941
130.967
100
136.056
103.898
100
100
100
100
100
100
100
100
100
100
100
100
100
100
100
100
100
100
100
100
100
100
100
100
100
100
100
100
100
100
100
100
100
100
100
100
100
100
100
100
100
100
100
100
100
100
100
124.844
108.04
103.422
100
100
101.36
109.725
110.171
100
110.436
110.245
115.42
115.994
116.597
119.52
100
116.675
120.502
112.324
111.315
105.652
119.769
151.46
100
257.745
223.503
181.503
244.486
370.679
341.439
308.027
282.561
218.597
187.36
144.699
407.259
346.539
177.355
266.01
138.827
100
134.524
100
100
100
100
100
100
100
100
100
100
100
100
100
100
100
100
100
100
100
100
100
100
100
100
100
100
100
100
100
100
100
100
100
100
100
100
100
100
100
100
100
100
100
100
100
100
100
100
100
145.959
116.251
107.593
100
100
100.584
100
103.588
115.1
115.672
100
115.703
115.916
122.043
122.384
123.674
126.672
100
124.357
128.933
120.256
123.597
118.823
139.61
252.5
217.727
175.322
395.163
366.839
332.302
302.814
276.748
213.813
174.267
144.826
396.552
209.058
319.716
153.149
150.288
100
120.701
100
100
100
100
100
100
100
100
100
100
100
100
100
100
100
100
100
100
100
100
100
100
100
100
100
100
100
100
100
100
100
100
100
100
100
100
100
100
100
100
100
100
100
100
100
100
100
100
100
128.413
112.552
100
100
100
100
105.663
101.973
108.52
121.176
122.278
100
122.468
122.771
129.208
129.679
132.129
135.055
135.022
139.262
131.86
143.34
140.142
170.842
249.438
212.196
389.921
358.329
325.915
296.522
275.734
208.447
161.743
152.381
239.012
380.454
183.796
232.08
271.276
148.204
100
100
100
100
100
100
100
100
100
100
100
100
100
100
100
100
100
100
100
100
100
100
100
100
100
100