/*--------------------------------*- C++ -*----------------------------------*\
  =========                 |
  \\      /  F ield         | OpenFOAM: The Open Source CFD Toolbox
   \\    /   O peration     | Website:  https://openfoam.org
    \\  /    A nd           | Version:  dev
     \\/     M anipulation  |
\*---------------------------------------------------------------------------*/
FoamFile
{
    version     2.0;
    format      ascii;
    class       volScalarField;
    location    "2500";
    object      rho;
}
// * * * * * * * * * * * * * * * * * * * * * * * * * * * * * * * * * * * * * //

dimensions      [1 -3 0 0 0 0 0];

internalField   nonuniform List<scalar> 
9967
(
1.1717
1.17153
1.17161
1.17151
1.17124
1.17167
1.17154
1.17104
1.17117
1.17171
1.17161
1.17096
1.17086
1.17126
1.17178
1.17164
1.17093
1.17067
1.17088
1.17138
1.17181
1.17167
1.17097
1.17056
1.17063
1.17097
1.17146
1.17184
1.17171
1.17106
1.17054
1.1704
1.17066
1.1711
1.17155
1.17185
1.17169
1.17121
1.17057
1.17027
1.17041
1.17076
1.17125
1.17159
1.17188
1.17171
1.17129
1.17063
1.17024
1.17018
1.17047
1.17093
1.1713
1.17161
1.17189
1.17175
1.17136
1.17085
1.17028
1.17004
1.17018
1.17058
1.17102
1.17137
1.17164
1.1719
1.17173
1.17134
1.17093
1.17029
1.16997
1.16999
1.17026
1.17074
1.17113
1.17142
1.17166
1.1719
1.17175
1.17138
1.17101
1.1704
1.16999
1.16985
1.17004
1.1704
1.17087
1.1712
1.17145
1.17169
1.17192
1.17178
1.17146
1.17108
1.1705
1.17002
1.16976
1.16981
1.17014
1.17059
1.17094
1.17122
1.17149
1.17171
1.17191
1.17177
1.17143
1.17112
1.17059
1.1701
1.16975
1.16967
1.16988
1.17025
1.17069
1.171
1.17126
1.17149
1.17171
1.17191
1.1718
1.17146
1.17114
1.17074
1.17019
1.16981
1.16958
1.16968
1.17003
1.17043
1.1708
1.17106
1.1713
1.17153
1.17173
1.17192
1.17179
1.17148
1.17117
1.17088
1.17028
1.16986
1.16951
1.16953
1.16974
1.17012
1.17059
1.17085
1.17112
1.17133
1.17153
1.17173
1.17193
1.17179
1.17149
1.17117
1.17086
1.17044
1.16996
1.16953
1.16941
1.16954
1.16992
1.17028
1.17067
1.1709
1.17116
1.17136
1.17154
1.17173
1.17193
1.17181
1.17151
1.1712
1.17094
1.17051
1.16998
1.16953
1.16936
1.16939
1.16963
1.17009
1.1704
1.17074
1.17095
1.17117
1.17137
1.17156
1.17173
1.17193
1.17181
1.17153
1.17122
1.17094
1.17053
1.1702
1.1696
1.16932
1.16925
1.16945
1.16984
1.17021
1.17048
1.17077
1.17099
1.17119
1.17139
1.17156
1.17174
1.17193
1.17182
1.17155
1.17126
1.17095
1.1707
1.1702
1.16965
1.16932
1.16918
1.16926
1.16957
1.16995
1.17028
1.17058
1.17081
1.17103
1.1712
1.17139
1.17157
1.17174
1.17194
1.17183
1.17154
1.17126
1.17097
1.17073
1.17021
1.16976
1.16934
1.16914
1.16912
1.16933
1.1697
1.17009
1.17037
1.17063
1.17086
1.17104
1.17124
1.17141
1.17157
1.17175
1.17193
1.17183
1.17156
1.1713
1.17099
1.17071
1.17031
1.16983
1.16938
1.16913
1.16902
1.16917
1.16947
1.16984
1.17019
1.17046
1.17068
1.1709
1.17106
1.17124
1.17141
1.17156
1.17175
1.17193
1.17181
1.17156
1.17128
1.171
1.17077
1.17036
1.16988
1.16946
1.16914
1.16896
1.16901
1.16926
1.16962
1.16996
1.17025
1.17053
1.17071
1.1709
1.17108
1.17124
1.17141
1.17156
1.17174
1.17192
1.17181
1.17159
1.1713
1.17105
1.17081
1.17042
1.17
1.16954
1.16916
1.16891
1.16891
1.16909
1.1694
1.16975
1.17007
1.17031
1.17056
1.17074
1.17091
1.1711
1.17124
1.17141
1.17157
1.17174
1.17192
1.17181
1.17157
1.17133
1.17107
1.17075
1.17041
1.17003
1.16961
1.16921
1.1689
1.16881
1.16893
1.16921
1.16953
1.16986
1.17014
1.17037
1.17061
1.17076
1.17095
1.1711
1.17125
1.1714
1.17156
1.17173
1.17193
1.17181
1.17158
1.17135
1.1711
1.17077
1.17045
1.17018
1.16976
1.16924
1.1689
1.16874
1.16879
1.16901
1.16935
1.16967
1.16995
1.17021
1.17043
1.17061
1.17078
1.17095
1.1711
1.17125
1.17141
1.17156
1.17172
1.17192
1.17183
1.17157
1.17132
1.17108
1.1708
1.17048
1.17014
1.16976
1.16922
1.16891
1.16869
1.16868
1.16882
1.16911
1.16946
1.16978
1.17007
1.17025
1.17045
1.17063
1.1708
1.17096
1.1711
1.17125
1.1714
1.17155
1.17172
1.17191
1.17183
1.17156
1.17133
1.17106
1.17076
1.17044
1.17013
1.16975
1.16924
1.1689
1.16867
1.1686
1.16869
1.16896
1.16925
1.16956
1.16984
1.17009
1.1703
1.17047
1.17065
1.17081
1.17095
1.1711
1.17124
1.17139
1.17154
1.17171
1.1719
1.17181
1.17158
1.17131
1.17106
1.17077
1.17051
1.17011
1.16974
1.16934
1.16891
1.16865
1.16852
1.16856
1.16876
1.16908
1.16937
1.16968
1.16992
1.17014
1.17032
1.1705
1.17066
1.17081
1.17095
1.17109
1.17123
1.17137
1.17153
1.1717
1.1719
1.1718
1.17156
1.17131
1.17103
1.17077
1.17051
1.17013
1.16975
1.16942
1.16897
1.16863
1.16847
1.16846
1.16859
1.16889
1.16923
1.16948
1.16978
1.16999
1.17017
1.17035
1.17051
1.17067
1.17081
1.17095
1.17108
1.17122
1.17135
1.17151
1.17169
1.17189
1.1718
1.17157
1.17132
1.17105
1.17074
1.17043
1.1701
1.16973
1.16942
1.16896
1.16861
1.16843
1.16837
1.16847
1.16869
1.16904
1.16934
1.16962
1.16985
1.17003
1.1702
1.17036
1.17052
1.17067
1.1708
1.17093
1.17107
1.17119
1.17133
1.17149
1.17167
1.17188
1.17182
1.17158
1.17128
1.17105
1.1707
1.1704
1.17007
1.16976
1.16936
1.16897
1.16861
1.1684
1.1683
1.16836
1.16855
1.16881
1.16916
1.1694
1.16966
1.16989
1.17006
1.17022
1.17038
1.17054
1.17067
1.1708
1.17093
1.17105
1.17118
1.17131
1.17147
1.17165
1.17187
1.17179
1.17154
1.17129
1.171
1.17071
1.17037
1.17006
1.16974
1.1693
1.16902
1.16861
1.16836
1.16823
1.16824
1.16839
1.16864
1.16894
1.16927
1.16955
1.16974
1.16991
1.1701
1.17025
1.1704
1.17053
1.17066
1.17078
1.17091
1.17103
1.17115
1.17129
1.17145
1.17164
1.17187
1.17179
1.17157
1.17124
1.17102
1.17067
1.17034
1.17004
1.16969
1.16928
1.16897
1.1686
1.16834
1.16818
1.16815
1.16826
1.16848
1.16877
1.1691
1.16933
1.16956
1.16978
1.16994
1.17012
1.17026
1.1704
1.17052
1.17065
1.17077
1.17088
1.171
1.17112
1.17127
1.17147
1.17173
1.17161
1.17199
1.17173
1.17184
1.17179
1.17154
1.17129
1.17095
1.17069
1.17033
1.16996
1.16968
1.1693
1.16892
1.16864
1.16828
1.16813
1.16808
1.16814
1.16835
1.1686
1.16889
1.16918
1.16942
1.16962
1.1698
1.16999
1.17015
1.17027
1.1704
1.17051
1.17063
1.17074
1.17085
1.17097
1.1711
1.17129
1.17121
1.17149
1.17135
1.17138
1.1716
1.17199
1.17171
1.17184
1.17179
1.17149
1.17128
1.1709
1.17059
1.17024
1.16988
1.1696
1.16921
1.16886
1.1686
1.16825
1.16807
1.16799
1.16804
1.16817
1.16844
1.16872
1.16901
1.16928
1.16947
1.16966
1.16985
1.17001
1.17017
1.17027
1.17039
1.1705
1.17061
1.17071
1.17082
1.17094
1.17113
1.17105
1.17124
1.17148
1.17128
1.17137
1.17158
1.17198
1.1717
1.17183
1.17178
1.1715
1.17125
1.1709
1.17056
1.17025
1.16979
1.16955
1.16914
1.16881
1.16853
1.16822
1.168
1.16792
1.16793
1.16805
1.16829
1.16855
1.16885
1.1691
1.16935
1.16951
1.16969
1.16988
1.17003
1.17019
1.17026
1.17038
1.17048
1.17057
1.17067
1.17079
1.17096
1.17089
1.17114
1.17105
1.17119
1.17146
1.17126
1.17134
1.17156
1.17198
1.17168
1.17182
1.17178
1.1715
1.17113
1.17079
1.17049
1.17011
1.16976
1.16943
1.16906
1.16876
1.1685
1.16818
1.16795
1.16785
1.16784
1.16793
1.16812
1.16839
1.16867
1.16895
1.16921
1.16939
1.16954
1.16971
1.16991
1.17002
1.17019
1.17025
1.17035
1.17044
1.17053
1.17064
1.17081
1.17073
1.17096
1.17088
1.1711
1.17101
1.17116
1.17143
1.17124
1.17132
1.17154
1.17197
1.17166
1.1718
1.17174
1.17142
1.17108
1.17077
1.17042
1.17001
1.16972
1.16934
1.16901
1.16873
1.16841
1.16811
1.16791
1.16778
1.16775
1.16782
1.16798
1.16822
1.1685
1.16879
1.16901
1.16926
1.16946
1.16957
1.16973
1.16993
1.17002
1.17018
1.17023
1.17032
1.17039
1.17049
1.17066
1.17058
1.17079
1.17071
1.17092
1.17084
1.17107
1.17098
1.17113
1.17141
1.17121
1.17129
1.17152
1.17196
1.17165
1.17179
1.17172
1.17145
1.17106
1.1707
1.17035
1.16997
1.16963
1.16925
1.16892
1.16864
1.1683
1.16805
1.16785
1.16772
1.16766
1.16771
1.16785
1.16807
1.16834
1.16863
1.16891
1.16909
1.16932
1.16951
1.1696
1.16977
1.16993
1.17001
1.17014
1.17017
1.17022
1.17031
1.17049
1.17039
1.17063
1.17054
1.17076
1.17067
1.17089
1.1708
1.17104
1.17095
1.17111
1.17139
1.17118
1.17127
1.1715
1.17195
1.17162
1.17177
1.17173
1.17143
1.17101
1.17073
1.17026
1.16994
1.16954
1.16915
1.16882
1.16854
1.16825
1.16798
1.16779
1.16766
1.16758
1.16761
1.16774
1.16794
1.1682
1.16845
1.16871
1.16896
1.16916
1.16937
1.16955
1.16963
1.16979
1.16991
1.16995
1.16995
1.16982
1.16979
1.17024
1.16992
1.17043
1.17026
1.17058
1.17046
1.17071
1.17062
1.17085
1.17076
1.17101
1.17091
1.17108
1.17136
1.17115
1.17124
1.17147
1.17194
1.1716
1.17174
1.17169
1.17133
1.17098
1.17071
1.17019
1.16986
1.16941
1.16906
1.16874
1.16844
1.16817
1.1679
1.16772
1.16758
1.1675
1.16752
1.16761
1.16779
1.16803
1.1683
1.16856
1.16883
1.16902
1.16921
1.16942
1.16955
1.16964
1.16974
1.16973
1.16939
1.16848
1.16742
1.16911
1.16687
1.16988
1.16886
1.17027
1.16983
1.17049
1.17029
1.17066
1.17053
1.17081
1.17071
1.17097
1.17087
1.17104
1.17133
1.17112
1.1712
1.17144
1.17192
1.17157
1.17172
1.17169
1.17132
1.17094
1.1706
1.1701
1.16974
1.16935
1.16899
1.16867
1.16838
1.16812
1.16784
1.16764
1.16749
1.16742
1.16742
1.16751
1.16766
1.16787
1.16813
1.16841
1.16866
1.16887
1.16908
1.16928
1.16948
1.16957
1.16959
1.16933
1.16827
1.16569
1.16072
1.16276
1.15656
1.16628
1.16087
1.16862
1.16557
1.16979
1.16842
1.17031
1.16976
1.17057
1.17033
1.17076
1.17062
1.17093
1.17082
1.171
1.1713
1.17108
1.17116
1.17141
1.17191
1.17153
1.17169
1.17171
1.17136
1.171
1.17063
1.17008
1.16967
1.16934
1.16897
1.1686
1.16832
1.16803
1.16775
1.16758
1.16742
1.16735
1.16732
1.16739
1.16753
1.16773
1.16798
1.16825
1.16852
1.16874
1.16895
1.16914
1.16933
1.16948
1.1695
1.16901
1.16664
1.16088
1.15252
1.15103
1.14452
1.1545
1.14786
1.15955
1.15269
1.16496
1.15844
1.16824
1.16446
1.16973
1.16807
1.17036
1.1697
1.17067
1.1704
1.17088
1.17073
1.17095
1.17126
1.17103
1.17111
1.17137
1.17189
1.17149
1.17165
1.1717
1.17134
1.17102
1.17051
1.17
1.1696
1.16924
1.16887
1.1685
1.16824
1.16796
1.16768
1.16749
1.16733
1.16727
1.16724
1.16729
1.16742
1.1676
1.16783
1.16808
1.16838
1.1686
1.16881
1.16901
1.16919
1.1694
1.16946
1.1689
1.16551
1.15643
1.14324
1.13915
1.1348
1.14127
1.1348
1.14562
1.13851
1.15117
1.14363
1.15748
1.1497
1.16397
1.15654
1.16788
1.16344
1.16967
1.16767
1.17044
1.16966
1.1708
1.1705
1.17087
1.17121
1.17095
1.17105
1.17132
1.17186
1.17145
1.17161
1.17168
1.17131
1.17099
1.17051
1.1701
1.16954
1.16917
1.16882
1.16845
1.16815
1.16789
1.16762
1.16742
1.16727
1.16718
1.16714
1.1672
1.1673
1.16746
1.16768
1.16794
1.1682
1.16848
1.16867
1.16888
1.16906
1.16925
1.16938
1.1689
1.16525
1.15349
1.13706
1.12082
1.12948
1.12228
1.13155
1.12509
1.1361
1.12867
1.14167
1.13366
1.14819
1.13953
1.15547
1.14649
1.16283
1.15419
1.16746
1.16216
1.16968
1.16729
1.17058
1.16972
1.17066
1.17114
1.17077
1.17089
1.17126
1.17184
1.17139
1.17157
1.17165
1.17127
1.17092
1.17043
1.16998
1.16944
1.16915
1.16877
1.16842
1.16813
1.16784
1.16757
1.16735
1.1672
1.16709
1.16706
1.16708
1.16719
1.16734
1.16755
1.16779
1.16805
1.16831
1.16854
1.16872
1.16893
1.16911
1.16927
1.16896
1.16539
1.15297
1.1326
1.11795
1.11153
1.10997
1.11937
1.11471
1.12168
1.11553
1.12589
1.11849
1.13096
1.12275
1.13711
1.12785
1.14447
1.13432
1.1527
1.14212
1.16147
1.15106
1.16718
1.16088
1.16981
1.16716
1.16994
1.17102
1.17013
1.17039
1.17117
1.17181
1.17132
1.17151
1.17159
1.17117
1.17081
1.17034
1.16991
1.16942
1.1691
1.16869
1.1684
1.16808
1.16778
1.16752
1.16729
1.16713
1.16702
1.16698
1.167
1.16708
1.16722
1.16739
1.16763
1.16788
1.16814
1.1684
1.16858
1.16878
1.16898
1.16915
1.16905
1.16606
1.15335
1.13261
1.11964
1.11021
1.11248
1.10566
1.10599
1.11055
1.10706
1.11196
1.10671
1.11514
1.10836
1.11912
1.11122
1.1243
1.11497
1.13113
1.12036
1.13953
1.12764
1.14942
1.13685
1.16047
1.14801
1.16726
1.16025
1.16751
1.17067
1.16801
1.1687
1.17095
1.17177
1.1712
1.17145
1.17156
1.17097
1.17062
1.17022
1.16982
1.16941
1.16902
1.16869
1.16837
1.16804
1.16776
1.16749
1.16724
1.16707
1.16695
1.1669
1.16691
1.16697
1.16711
1.16728
1.16749
1.16774
1.16799
1.16823
1.16846
1.16864
1.16884
1.16903
1.16908
1.16723
1.15523
1.13378
1.12364
1.1179
1.10824
1.11268
1.10188
1.10395
1.10311
1.10165
1.10293
1.09924
1.10442
1.09896
1.10677
1.09996
1.11049
1.10199
1.11618
1.10586
1.12407
1.11198
1.13437
1.12074
1.14699
1.1323
1.16032
1.14649
1.16086
1.16949
1.16207
1.16381
1.17024
1.17173
1.1709
1.17133
1.17068
1.17033
1.17005
1.16973
1.16936
1.16892
1.16868
1.16833
1.16802
1.16775
1.16748
1.16722
1.16702
1.16688
1.16682
1.16682
1.16689
1.16699
1.16715
1.16736
1.16759
1.16783
1.16807
1.16831
1.16851
1.16869
1.1689
1.16905
1.16815
1.1591
1.13629
1.12681
1.12374
1.11917
1.12399
1.1086
1.11442
1.09926
1.10363
1.09765
1.09775
1.09525
1.0936
1.0947
1.09114
1.09522
1.09021
1.09726
1.09058
1.10141
1.09283
1.10816
1.09747
1.11786
1.10495
1.13082
1.11569
1.14655
1.13
1.1476
1.16584
1.14985
1.15303
1.16792
1.17169
1.16998
1.17116
1.16998
1.16979
1.16959
1.16925
1.16893
1.16865
1.16832
1.16802
1.16775
1.16746
1.16717
1.16696
1.16681
1.16675
1.16674
1.16678
1.16689
1.16704
1.16723
1.16744
1.16767
1.16791
1.16814
1.16838
1.16855
1.16875
1.16894
1.16867
1.16301
1.14131
1.12904
1.12753
1.12658
1.12845
1.12058
1.12446
1.10948
1.1155
1.09773
1.10324
1.09354
1.09449
1.08945
1.08931
1.08694
1.08531
1.08578
1.08272
1.08633
1.08168
1.08903
1.08258
1.09428
1.08596
1.10252
1.09189
1.11438
1.10107
1.12996
1.11389
1.13104
1.15692
1.13333
1.13692
1.16166
1.17166
1.16773
1.17089
1.1695
1.16939
1.16918
1.16893
1.16857
1.16832
1.16801
1.16771
1.16745
1.16716
1.16693
1.16677
1.16668
1.16667
1.1667
1.16679
1.16693
1.1671
1.1673
1.16752
1.16775
1.16798
1.16822
1.16844
1.1686
1.16881
1.16885
1.16601
1.14836
1.1309
1.12972
1.1301
1.12677
1.12789
1.12001
1.12266
1.10947
1.11542
1.09617
1.10159
1.08985
1.09189
1.08503
1.08532
1.08127
1.08109
1.07937
1.0788
1.07841
1.07723
1.07946
1.07588
1.08356
1.07695
1.09036
1.08176
1.10053
1.08975
1.11442
1.10082
1.11588
1.14227
1.12693
1.11797
1.11989
1.13112
1.12142
1.14757
1.15888
1.17163
1.15264
1.16722
1.15831
1.16425
1.16841
1.17095
1.16918
1.16906
1.16886
1.16853
1.16834
1.16802
1.16771
1.16746
1.16716
1.1669
1.16672
1.16661
1.16659
1.16662
1.1667
1.16682
1.16698
1.16717
1.16738
1.1676
1.16783
1.16806
1.16829
1.16849
1.16867
1.16884
1.16774
1.15581
1.13397
1.13043
1.13331
1.12405
1.12595
1.1236
1.12371
1.11566
1.11669
1.10735
1.11238
1.09281
1.09715
1.08646
1.08917
1.08144
1.0822
1.07927
1.07986
1.07764
1.07864
1.07594
1.07716
1.07371
1.07458
1.07498
1.07151
1.08067
1.07712
1.07349
1.09522
1.08977
1.0803
1.08525
1.10861
1.10187
1.09029
1.0964
1.0905
1.10296
1.10376
1.11099
1.13756
1.12674
1.12413
1.11208
1.11369
1.11572
1.14122
1.17146
1.17049
1.14669
1.15349
1.16063
1.16646
1.16893
1.1688
1.16853
1.16835
1.16803
1.16772
1.16746
1.16717
1.16689
1.16669
1.16656
1.16652
1.16654
1.16661
1.16672
1.16686
1.16704
1.16724
1.16745
1.16767
1.1679
1.16812
1.16836
1.16852
1.16874
1.16847
1.16188
1.13953
1.13096
1.13519
1.12972
1.13418
1.11568
1.11823
1.11638
1.11552
1.10711
1.10721
1.10159
1.10522
1.08722
1.08964
1.08352
1.08521
1.08088
1.08207
1.08063
1.08339
1.08032
1.08584
1.07776
1.08518
1.07332
1.08013
1.07122
1.06982
1.07048
1.07257
1.07634
1.07219
1.07308
1.07031
1.08523
1.07598
1.08048
1.09695
1.08551
1.09144
1.08607
1.09786
1.09906
1.10529
1.13062
1.12117
1.11817
1.10674
1.1085
1.1106
1.13518
1.17169
1.1709
1.16856
1.16969
1.14107
1.14821
1.1562
1.16361
1.16873
1.1685
1.16835
1.16806
1.16775
1.16747
1.1672
1.1669
1.16665
1.16652
1.16646
1.16647
1.16652
1.16661
1.16676
1.16692
1.16711
1.16731
1.16752
1.16774
1.16796
1.16819
1.16842
1.16858
1.16865
1.16567
1.14731
1.13204
1.13489
1.1394
1.12529
1.13317
1.10494
1.10885
1.10601
1.10466
1.09566
1.09552
1.0923
1.09458
1.08423
1.08453
1.08307
1.08375
1.0859
1.08773
1.09198
1.09708
1.0949
1.10562
1.09255
1.10641
1.07672
1.08369
1.09087
1.09993
1.0692
1.06981
1.07252
1.07774
1.07203
1.06897
1.06954
1.06848
1.08061
1.07173
1.07594
1.09226
1.08095
1.08686
1.08155
1.09332
1.09464
1.10047
1.12498
1.11314
1.11624
1.10208
1.10395
1.10616
1.12978
1.17166
1.1707
1.1673
1.16042
1.13583
1.14317
1.15167
1.16848
1.16834
1.16809
1.16777
1.16749
1.16724
1.1669
1.16665
1.16648
1.1664
1.16639
1.16644
1.16652
1.16664
1.1668
1.16698
1.16718
1.16738
1.16759
1.16781
1.16803
1.16827
1.16846
1.16863
1.16752
1.15535
1.13469
1.13338
1.14
1.14001
1.1444
1.11978
1.1317
1.09382
1.09935
1.09422
1.09314
1.08464
1.08408
1.08467
1.08474
1.0868
1.08526
1.0882
1.08776
1.10112
1.10266
1.11336
1.11807
1.11734
1.12273
1.10659
1.11405
1.11797
1.12258
1.08489
1.09312
1.10147
1.10901
1.06923
1.07228
1.07798
1.08551
1.06846
1.06779
1.06712
1.06858
1.07606
1.06804
1.0716
1.0878
1.07641
1.08238
1.07703
1.08899
1.09043
1.09615
1.12011
1.10879
1.11196
1.09789
1.09989
1.10223
1.12499
1.17166
1.16599
1.17048
1.15734
1.1475
1.13109
1.13859
1.16831
1.16814
1.16781
1.16752
1.16725
1.16692
1.16665
1.16643
1.16635
1.16632
1.16635
1.16644
1.16654
1.16669
1.16686
1.16705
1.16724
1.16744
1.16765
1.16787
1.1681
1.16834
1.16849
1.16821
1.1615
1.14047
1.13295
1.13791
1.14677
1.1428
1.14849
1.11437
1.13102
1.08419
1.09156
1.08309
1.08283
1.07948
1.07735
1.08351
1.08161
1.09724
1.09286
1.10203
1.10038
1.12005
1.11939
1.12493
1.1261
1.12384
1.1254
1.12588
1.11533
1.12004
1.12307
1.12472
1.09392
1.10228
1.10982
1.11603
1.07184
1.0778
1.08549
1.0939
1.06647
1.06785
1.06706
1.07118
1.07167
1.06588
1.06778
1.08341
1.07197
1.0779
1.07258
1.08472
1.08629
1.09208
1.11588
1.10495
1.1082
1.09397
1.09615
1.09863
1.12078
1.17166
1.1547
1.16483
1.17032
1.14389
1.13456
1.12692
1.16815
1.16786
1.16756
1.16727
1.16697
1.16665
1.16641
1.1663
1.16626
1.16627
1.16634
1.16645
1.16658
1.16675
1.16692
1.16711
1.1673
1.16749
1.1677
1.16792
1.16817
1.16835
1.16836
1.16527
1.14832
1.13362
1.1344
1.14291
1.15315
1.1512
1.14651
1.15252
1.11145
1.13208
1.07794
1.08804
1.07586
1.07575
1.0791
1.07497
1.08809
1.08345
1.10593
1.09934
1.11697
1.11214
1.12654
1.12576
1.12616
1.12681
1.12536
1.12571
1.12197
1.12273
1.12049
1.12302
1.12419
1.12469
1.10218
1.1096
1.11567
1.11982
1.0772
1.08486
1.0931
1.10114
1.06628
1.0703
1.06922
1.07622
1.06771
1.06542
1.06535
1.07901
1.06788
1.07345
1.06838
1.08044
1.08214
1.0881
1.11217
1.10149
1.10485
1.09018
1.09256
1.09524
1.1171
1.17176
1.14091
1.15263
1.16401
1.17034
1.13112
1.12329
1.16792
1.16761
1.16731
1.16701
1.16666
1.1664
1.16625
1.1662
1.1662
1.16626
1.16635
1.16649
1.16664
1.16681
1.16697
1.16712
1.16729
1.16748
1.1677
1.16795
1.16821
1.16832
1.16711
1.15604
1.13609
1.13268
1.13767
1.14812
1.15721
1.15519
1.15119
1.15707
1.11102
1.1351
1.07519
1.08788
1.07234
1.07218
1.08004
1.07422
1.09289
1.08653
1.10701
1.09931
1.12203
1.11501
1.12754
1.12764
1.1217
1.12176
1.12398
1.12247
1.12448
1.1236
1.11658
1.11761
1.12213
1.12323
1.12317
1.12227
1.1084
1.11427
1.11824
1.12062
1.08363
1.09155
1.09925
1.10621
1.06779
1.07487
1.07325
1.08192
1.06496
1.06651
1.06457
1.07463
1.06478
1.06919
1.06487
1.07614
1.07796
1.08411
1.1089
1.09828
1.1018
1.08639
1.089
1.09192
1.11388
1.17183
1.12824
1.13857
1.15118
1.16376
1.17057
1.12017
1.16766
1.16736
1.16704
1.16669
1.1664
1.16621
1.16615
1.16613
1.16618
1.16627
1.1664
1.16655
1.1667
1.16682
1.16691
1.16702
1.1672
1.16742
1.16769
1.16798
1.16819
1.16775
1.16143
1.14163
1.13264
1.134
1.14196
1.15489
1.15121
1.16104
1.15822
1.15646
1.16148
1.11405
1.14018
1.0754
1.09191
1.07077
1.07083
1.07862
1.07268
1.09227
1.08559
1.10424
1.09504
1.12368
1.11471
1.12569
1.12821
1.11625
1.1164
1.12014
1.11763
1.1207
1.11908
1.11028
1.11136
1.12145
1.121
1.11945
1.11735
1.11184
1.11582
1.11828
1.11885
1.08934
1.09658
1.10309
1.10848
1.07131
1.07982
1.07747
1.08666
1.06394
1.06938
1.0651
1.07035
1.06339
1.06538
1.06305
1.07189
1.07379
1.08009
1.10597
1.09522
1.09896
1.08257
1.08542
1.08862
1.11106
1.17192
1.11751
1.1259
1.13688
1.15046
1.16416
1.17102
1.16741
1.16709
1.16675
1.16641
1.16619
1.1661
1.16607
1.1661
1.16619
1.16631
1.16646
1.16659
1.16659
1.16649
1.16643
1.16657
1.16689
1.16727
1.16766
1.16801
1.16785
1.1643
1.14819
1.13354
1.13197
1.13724
1.14851
1.15872
1.15569
1.16452
1.1618
1.16137
1.16532
1.1203
1.14655
1.07857
1.09996
1.07003
1.07115
1.07532
1.07087
1.08752
1.08115
1.102
1.09162
1.12507
1.11416
1.11889
1.12436
1.12813
1.12939
1.10997
1.11022
1.11458
1.11169
1.11515
1.1131
1.10266
1.10384
1.11825
1.11635
1.11382
1.11112
1.11263
1.11521
1.11572
1.11504
1.09322
1.09917
1.10435
1.10853
1.07493
1.08363
1.08048
1.08941
1.06395
1.07243
1.06734
1.06634
1.06303
1.06299
1.06248
1.06778
1.06969
1.07606
1.10331
1.0922
1.09622
1.07875
1.08182
1.0853
1.10857
1.17198
1.11525
1.12406
1.13576
1.15057
1.16535
1.17149
1.16715
1.16681
1.16645
1.16618
1.16607
1.16602
1.16604
1.16612
1.16623
1.16637
1.16643
1.16615
1.16539
1.16476
1.16472
1.16536
1.16625
1.16703
1.16765
1.16776
1.1654
1.15363
1.13634
1.13131
1.13406
1.14369
1.15881
1.16324
1.16026
1.16725
1.16566
1.16486
1.16754
1.12896
1.15314
1.08656
1.11115
1.07029
1.07386
1.07313
1.07144
1.08355
1.07727
1.10248
1.09117
1.12855
1.11671
1.11433
1.12106
1.12753
1.13008
1.10235
1.10285
1.10872
1.10486
1.10843
1.10591
1.09394
1.0951
1.11291
1.11007
1.10683
1.10347
1.11116
1.11173
1.1111
1.10893
1.09476
1.09967
1.1037
1.10624
1.07731
1.08544
1.0816
1.09015
1.06535
1.07437
1.06996
1.06325
1.06367
1.06197
1.06248
1.06408
1.06568
1.07205
1.10083
1.08919
1.09352
1.07492
1.07825
1.08199
1.10635
1.17202
1.11334
1.12266
1.13521
1.15145
1.16723
1.17178
1.16687
1.1665
1.16618
1.16604
1.16599
1.16598
1.16605
1.16616
1.16627
1.16619
1.16519
1.16292
1.16086
1.16038
1.16157
1.16357
1.16557
1.16698
1.16746
1.16553
1.15637
1.13983
1.13146
1.13236
1.14019
1.15473
1.16732
1.16545
1.16611
1.16707
1.16844
1.16796
1.16687
1.16845
1.13861
1.15881
1.0995
1.12396
1.0734
1.0817
1.07661
1.0769
1.08326
1.07844
1.10977
1.09895
1.13272
1.1304
1.1175
1.1252
1.10887
1.11745
1.12628
1.13157
1.09371
1.09448
1.1019
1.09709
1.10028
1.09738
1.08465
1.08564
1.1059
1.10235
1.09844
1.0946
1.10694
1.10646
1.10437
1.1013
1.09449
1.09799
1.10036
1.1012
1.07799
1.08548
1.081
1.08893
1.06761
1.07469
1.07169
1.0617
1.06536
1.06158
1.06341
1.06179
1.0624
1.06809
1.09843
1.08613
1.09076
1.07109
1.07467
1.07864
1.10428
1.17204
1.11167
1.1215
1.13494
1.15335
1.16915
1.1719
1.16656
1.1662
1.16601
1.16594
1.16595
1.16598
1.16609
1.16618
1.16581
1.1637
1.15962
1.15641
1.15572
1.15715
1.15981
1.1628
1.16553
1.16675
1.16525
1.15666
1.14152
1.13219
1.13172
1.13794
1.15178
1.16587
1.16807
1.16863
1.16822
1.16853
1.16889
1.16878
1.16794
1.16881
1.14807
1.1631
1.11515
1.13742
1.08304
1.09588
1.08778
1.09067
1.09182
1.08859
1.12206
1.1225
1.1164
1.11245
1.10979
1.13507
1.13389
1.12903
1.103
1.11329
1.1243
1.13287
1.08455
1.08572
1.09476
1.08902
1.09105
1.08795
1.07531
1.07602
1.09756
1.09337
1.08903
1.0849
1.10089
1.09909
1.0961
1.09241
1.09172
1.09366
1.09444
1.09426
1.07683
1.08344
1.07841
1.08534
1.06918
1.0735
1.07193
1.06101
1.06706
1.06174
1.06473
1.06057
1.06049
1.06425
1.09602
1.08304
1.08801
1.06728
1.07103
1.07524
1.10224
1.17203
1.11003
1.12025
1.13485
1.15629
1.17036
1.17184
1.16623
1.166
1.1659
1.16589
1.16594
1.16602
1.16607
1.16543
1.16216
1.15645
1.15233
1.1513
1.15279
1.15586
1.15948
1.16293
1.16519
1.16412
1.15598
1.14153
1.13263
1.13169
1.13691
1.14986
1.16444
1.16868
1.1685
1.16884
1.16898
1.16887
1.16896
1.16905
1.16904
1.16848
1.16897
1.15641
1.16593
1.1321
1.15033
1.1
1.11413
1.10613
1.11076
1.10903
1.10632
1.12862
1.12993
1.12501
1.12065
1.11669
1.13762
1.13772
1.13443
1.09731
1.10924
1.1222
1.13349
1.07541
1.07711
1.08782
1.08115
1.08121
1.07814
1.06641
1.06684
1.08809
1.08355
1.07902
1.07488
1.09276
1.09035
1.08659
1.0825
1.08657
1.08691
1.08656
1.08565
1.07408
1.07936
1.07411
1.07965
1.06968
1.07091
1.07075
1.06077
1.06779
1.06218
1.06609
1.05985
1.05955
1.06135
1.09365
1.08007
1.08542
1.06364
1.06732
1.07203
1.10024
1.17003
1.10828
1.11907
1.13508
1.15905
1.17046
1.17091
1.16599
1.16588
1.16582
1.16587
1.16598
1.166
1.16515
1.16101
1.15382
1.14866
1.14722
1.14859
1.15168
1.15551
1.15914
1.16172
1.16117
1.1536
1.14076
1.13261
1.13182
1.13689
1.14916
1.16366
1.16845
1.16897
1.16889
1.16905
1.16909
1.16904
1.16911
1.16914
1.16915
1.16876
1.16909
1.16258
1.16741
1.14797
1.16022
1.12089
1.13376
1.12975
1.134
1.12716
1.12664
1.12924
1.13525
1.13851
1.13462
1.13126
1.12864
1.14047
1.14155
1.13983
1.09219
1.10567
1.12054
1.13394
1.06681
1.06921
1.08151
1.07395
1.0713
1.06847
1.0583
1.05848
1.07794
1.07336
1.06897
1.06509
1.08329
1.08009
1.07623
1.07197
1.07946
1.07888
1.07729
1.07521
1.07064
1.07387
1.06961
1.07296
1.06887
1.06875
1.06897
1.06061
1.06765
1.06336
1.0667
1.05977
1.05934
1.05991
1.09135
1.07718
1.08277
1.06121
1.06413
1.06863
1.09819
1.17072
1.10665
1.11795
1.13519
1.1591
1.16916
1.16792
1.16585
1.16577
1.16579
1.16589
1.16596
1.16507
1.16037
1.15191
1.14556
1.14359
1.14467
1.14741
1.15085
1.15395
1.15574
1.15447
1.14771
1.13839
1.13263
1.13228
1.13751
1.14947
1.16348
1.1683
1.16894
1.16906
1.16901
1.16914
1.16915
1.16911
1.16918
1.16924
1.16922
1.16898
1.16919
1.16611
1.16828
1.16047
1.16581
1.14242
1.15171
1.15514
1.15626
1.13634
1.13413
1.14941
1.15054
1.14261
1.14697
1.14389
1.14103
1.13853
1.14372
1.14585
1.14555
1.08786
1.1028
1.11942
1.13479
1.05928
1.06224
1.07609
1.06771
1.06189
1.05951
1.0513
1.05121
1.06756
1.06329
1.05938
1.05602
1.07255
1.06906
1.06535
1.06139
1.07148
1.0695
1.06714
1.06443
1.06784
1.06826
1.06654
1.06645
1.06824
1.06845
1.06857
1.06105
1.06768
1.06503
1.0675
1.06009
1.05975
1.05945
1.08906
1.07406
1.08023
1.06019
1.06191
1.0654
1.09639
1.17172
1.10507
1.11686
1.13429
1.15546
1.16405
1.16503
1.16574
1.16572
1.1658
1.16588
1.16509
1.16025
1.15083
1.14319
1.14063
1.14132
1.14346
1.14597
1.14793
1.14839
1.14647
1.14173
1.13629
1.13291
1.13346
1.13934
1.15109
1.16386
1.16824
1.16886
1.16909
1.16906
1.16903
1.16912
1.1692
1.16924
1.16917
1.16926
1.16931
1.16929
1.16917
1.16928
1.168
1.16884
1.16707
1.16843
1.16003
1.16421
1.16537
1.15643
1.16598
1.16731
1.14948
1.14931
1.15705
1.1498
1.1551
1.1532
1.15145
1.1501
1.14693
1.15039
1.15092
1.08423
1.10051
1.11865
1.1354
1.05278
1.05636
1.07148
1.06239
1.0534
1.05172
1.04564
1.04528
1.05755
1.05391
1.05077
1.04816
1.06157
1.05833
1.05514
1.05187
1.06425
1.06169
1.05908
1.05649
1.06778
1.06487
1.06661
1.06294
1.06862
1.06988
1.06936
1.06316
1.06862
1.06806
1.0695
1.06126
1.06093
1.05962
1.08713
1.07125
1.0779
1.06006
1.06094
1.06327
1.09463
1.1714
1.10366
1.11556
1.13135
1.14693
1.1553
1.16326
1.16567
1.16572
1.16582
1.16522
1.16054
1.1506
1.14169
1.13847
1.1388
1.14035
1.14205
1.14295
1.14275
1.14127
1.13864
1.136
1.13386
1.136
1.14272
1.15434
1.16484
1.16823
1.16878
1.16899
1.16915
1.16914
1.16908
1.16921
1.16929
1.1693
1.16926
1.16933
1.16939
1.16937
1.16936
1.16939
1.16903
1.16927
1.16913
1.16937
1.16756
1.16863
1.16517
1.16792
1.16767
1.16933
1.16936
1.15832
1.15764
1.16523
1.15622
1.16154
1.16088
1.15997
1.15906
1.14982
1.15475
1.15618
1.08118
1.09867
1.11834
1.13672
1.0476
1.05154
1.06762
1.058
1.0463
1.04547
1.04209
1.04141
1.04897
1.0464
1.04432
1.04264
1.05401
1.05158
1.04927
1.04712
1.06071
1.05833
1.05592
1.05367
1.07049
1.06522
1.07127
1.06374
1.0708
1.0751
1.07353
1.06612
1.07295
1.0693
1.07302
1.06449
1.06375
1.06066
1.08502
1.06811
1.07514
1.06035
1.06075
1.06218
1.09307
0.909366
1.10233
1.11408
1.12751
1.13914
1.14772
1.14821
1.16563
1.16575
1.16546
1.16142
1.15094
1.1411
1.13704
1.13709
1.13842
1.13979
1.14061
1.14061
1.13984
1.13839
1.13662
1.13614
1.1401
1.1477
1.15829
1.16599
1.16825
1.16868
1.16889
1.16907
1.16921
1.16921
1.16915
1.16926
1.16935
1.16937
1.16932
1.1694
1.16949
1.16945
1.16953
1.16952
1.16948
1.16952
1.16967
1.16968
1.16953
1.16962
1.16814
1.16937
1.16935
1.16972
1.16966
1.1656
1.16538
1.16828
1.16151
1.16581
1.16598
1.16597
1.16575
1.15193
1.15831
1.16083
1.07837
1.09686
1.11802
1.13795
1.04397
1.04787
1.06425
1.05442
1.04181
1.04148
1.04073
1.04004
1.04522
1.04352
1.04204
1.04079
1.05156
1.04962
1.04776
1.04611
1.06231
1.06215
1.05983
1.05753
1.07512
1.07039
1.09209
1.06964
1.07638
1.09455
1.07636
1.07058
1.07569
1.07332
1.07441
1.06683
1.0649
1.06233
1.08305
1.06555
1.07233
1.06096
1.06108
1.06173
1.09146
0.484379
1.10117
1.11227
1.12332
1.13196
1.13285
1.08174
1.16564
1.16558
1.16281
1.15213
1.14119
1.13623
1.13591
1.13714
1.13892
1.14023
1.14059
1.14022
1.13947
1.13906
1.14112
1.14622
1.15394
1.16207
1.16695
1.16828
1.16856
1.16878
1.16897
1.16914
1.16918
1.16926
1.16924
1.16931
1.16942
1.16941
1.16936
1.16947
1.16955
1.16951
1.16962
1.16959
1.16967
1.16965
1.16985
1.16982
1.16989
1.16989
1.16939
1.16976
1.16975
1.16988
1.16987
1.1684
1.16835
1.1694
1.16515
1.16746
1.16801
1.16827
1.16837
1.15353
1.16036
1.16366
1.07553
1.09481
1.11738
1.13881
1.04245
1.04574
1.06126
1.05171
1.04026
1.04009
1.04043
1.03979
1.04468
1.04328
1.04192
1.04086
1.05512
1.05263
1.05072
1.04884
1.06855
1.08586
1.08392
1.08096
1.0934
1.09048
1.11146
1.08809
1.09583
1.11369
1.09339
1.06998
1.09581
1.09462
1.09358
1.0673
1.06648
1.06331
1.0808
1.06422
1.06979
1.0623
1.0612
1.06208
1.09006
0.412851
1.09991
1.11001
1.11918
1.12387
1.12067
0.91666
1.16561
1.16387
1.15489
1.14187
1.13596
1.13519
1.13669
1.13915
1.14097
1.14206
1.14266
1.1433
1.14521
1.14883
1.15387
1.15984
1.16497
1.16757
1.16828
1.16846
1.16862
1.16884
1.16903
1.16922
1.16922
1.16925
1.16915
1.16929
1.16927
1.16934
1.16946
1.16945
1.1694
1.16951
1.1696
1.16955
1.16968
1.16964
1.16977
1.16972
1.16996
1.16992
1.16993
1.17
1.17
1.17
1.16975
1.16987
1.16988
1.16994
1.16934
1.16939
1.16972
1.1664
1.16779
1.16855
1.169
1.16922
1.15478
1.16136
1.16469
1.07236
1.09207
1.11599
1.14002
1.042
1.04473
1.05859
1.04998
1.04002
1.03991
1.0408
1.04041
1.0477
1.04649
1.04535
1.04396
1.08015
1.07883
1.07793
1.077
1.08584
1.10673
1.10576
1.10447
1.11327
1.11074
1.13516
1.10914
1.11494
1.1366
1.11368
1.09371
1.11523
1.11489
1.11467
1.09264
1.09178
1.06446
1.07873
1.06445
1.06831
1.06218
1.06255
1.06386
1.08841
0.357943
1.09843
1.10777
1.11447
1.11734
1.09126
0.605316
1.16493
1.15737
1.14408
1.13607
1.13473
1.13672
1.1402
1.14342
1.1463
1.14907
1.15169
1.15415
1.15711
1.16052
1.16403
1.16667
1.16786
1.16824
1.16838
1.16849
1.16868
1.1689
1.16907
1.16928
1.16924
1.16931
1.16918
1.16933
1.16938
1.1695
1.16949
1.16944
1.16955
1.16965
1.1696
1.16975
1.1697
1.16985
1.16979
1.17004
1.17001
1.17001
1.17006
1.17004
1.1701
1.16982
1.16989
1.16993
1.16998
1.16956
1.16966
1.16978
1.16667
1.16777
1.16859
1.16912
1.16938
1.15548
1.1619
1.16502
1.06879