/*--------------------------------*- C++ -*----------------------------------*\
  =========                 |
  \\      /  F ield         | OpenFOAM: The Open Source CFD Toolbox
   \\    /   O peration     | Website:  https://openfoam.org
    \\  /    A nd           | Version:  dev
     \\/     M anipulation  |
\*---------------------------------------------------------------------------*/
FoamFile
{
    version     2.0;
    format      ascii;
    class       volScalarField;
    location    "2500";
    object      T;
}
// * * * * * * * * * * * * * * * * * * * * * * * * * * * * * * * * * * * * * //

dimensions      [0 0 0 1 0 0 0];

internalField   nonuniform List<scalar> 
9967
(
300.103
300.145
300.127
300.151
300.219
300.111
300.143
300.271
300.238
300.101
300.123
300.292
300.317
300.215
300.083
300.114
300.299
300.364
300.311
300.185
300.074
300.106
300.286
300.391
300.375
300.289
300.165
300.067
300.097
300.262
300.397
300.433
300.369
300.254
300.141
300.064
300.1
300.224
300.388
300.466
300.432
300.342
300.216
300.13
300.057
300.095
300.203
300.372
300.474
300.489
300.415
300.3
300.204
300.126
300.054
300.084
300.184
300.315
300.463
300.525
300.489
300.388
300.275
300.187
300.119
300.051
300.087
300.189
300.294
300.458
300.543
300.537
300.47
300.346
300.247
300.173
300.113
300.052
300.082
300.179
300.272
300.43
300.535
300.572
300.526
300.432
300.312
300.23
300.166
300.104
300.046
300.073
300.158
300.255
300.404
300.527
300.595
300.583
300.5
300.384
300.296
300.224
300.157
300.101
300.048
300.076
300.164
300.243
300.38
300.508
300.598
300.618
300.565
300.47
300.359
300.279
300.213
300.154
300.1
300.048
300.068
300.155
300.238
300.342
300.483
300.58
300.64
300.617
300.527
300.425
300.331
300.264
300.205
300.145
300.095
300.047
300.069
300.149
300.23
300.304
300.46
300.568
300.658
300.655
300.602
300.503
300.383
300.318
300.249
300.197
300.146
300.096
300.044
300.068
300.145
300.229
300.309
300.417
300.54
300.653
300.684
300.651
300.553
300.461
300.363
300.304
300.238
300.189
300.142
300.095
300.043
300.062
300.141
300.219
300.287
300.399
300.535
300.651
300.697
300.689
300.627
300.511
300.431
300.346
300.293
300.237
300.186
300.137
300.094
300.043
300.063
300.136
300.213
300.288
300.392
300.478
300.633
300.705
300.723
300.674
300.575
300.48
300.41
300.338
300.282
300.23
300.181
300.137
300.093
300.043
300.059
300.129
300.204
300.285
300.35
300.478
300.62
300.704
300.742
300.723
300.644
300.546
300.462
300.385
300.326
300.271
300.227
300.18
300.136
300.092
300.042
300.057
300.13
300.202
300.277
300.34
300.475
300.59
300.7
300.75
300.756
300.704
300.609
300.511
300.438
300.372
300.313
300.268
300.219
300.176
300.135
300.091
300.045
300.055
300.124
300.193
300.271
300.345
300.448
300.571
300.688
300.754
300.783
300.745
300.668
300.574
300.484
300.415
300.36
300.303
300.264
300.218
300.177
300.137
300.089
300.045
300.058
300.124
300.195
300.268
300.327
300.435
300.557
300.666
300.75
300.797
300.786
300.721
300.628
300.541
300.468
300.398
300.351
300.303
300.259
300.218
300.175
300.136
300.093
300.046
300.058
300.116
300.191
300.256
300.317
300.419
300.528
300.645
300.744
300.81
300.81
300.765
300.686
300.595
300.513
300.452
300.391
300.343
300.301
300.253
300.217
300.175
300.135
300.093
300.046
300.057
300.12
300.183
300.25
300.331
300.419
300.518
300.627
300.732
300.812
300.835
300.805
300.733
300.652
300.568
300.496
300.438
300.376
300.339
300.292
300.252
300.216
300.177
300.137
300.094
300.045
300.057
300.118
300.178
300.242
300.326
300.408
300.479
300.588
300.722
300.809
300.852
300.84
300.785
300.696
300.616
300.543
300.478
300.422
300.377
300.335
300.291
300.254
300.216
300.176
300.137
300.096
300.047
300.052
300.118
300.182
300.245
300.319
300.401
300.489
300.588
300.727
300.807
300.863
300.869
300.832
300.759
300.67
300.586
300.512
300.469
300.416
300.371
300.328
300.289
300.253
300.216
300.177
300.14
300.097
300.048
300.05
300.121
300.179
300.249
300.327
300.411
300.491
300.59
300.721
300.808
300.869
300.889
300.864
300.796
300.722
300.642
300.571
300.509
300.456
300.411
300.367
300.326
300.29
300.253
300.217
300.181
300.143
300.1
300.051
300.055
300.114
300.185
300.25
300.324
300.392
300.495
300.59
300.694
300.805
300.874
300.907
300.897
300.848
300.764
300.69
300.612
300.551
300.496
300.449
300.405
300.363
300.326
300.292
300.256
300.221
300.186
300.146
300.102
300.052
300.056
300.118
300.184
300.256
300.324
300.392
300.489
300.588
300.674
300.79
300.878
300.919
300.923
300.89
300.812
300.727
300.662
300.585
300.533
300.488
300.442
300.402
300.362
300.327
300.292
300.258
300.224
300.19
300.151
300.106
300.054
300.056
300.116
300.181
300.251
300.332
300.411
300.497
300.593
300.671
300.79
300.882
300.928
300.944
300.92
300.865
300.776
300.699
300.627
300.568
300.523
300.479
300.439
300.399
300.362
300.329
300.295
300.262
300.23
300.195
300.155
300.11
300.057
300.052
300.114
300.189
300.25
300.341
300.417
300.502
300.583
300.687
300.789
300.883
300.937
300.963
300.948
300.901
300.832
300.745
300.682
300.616
300.558
300.516
300.475
300.433
300.395
300.362
300.329
300.297
300.266
300.234
300.2
300.161
300.115
300.059
300.057
300.122
300.186
300.263
300.338
300.426
300.506
300.589
300.703
300.775
300.881
300.945
300.979
300.978
300.94
300.876
300.801
300.716
300.646
300.596
300.554
300.505
300.468
300.429
300.396
300.364
300.333
300.302
300.272
300.241
300.206
300.165
300.118
300.06
300.057
300.113
300.198
300.255
300.347
300.433
300.511
300.601
300.707
300.786
300.881
300.951
300.992
301.001
300.974
300.917
300.844
300.76
300.7
300.641
300.587
300.545
300.499
300.464
300.429
300.398
300.368
300.337
300.308
300.279
300.248
300.212
300.161
300.094
300.126
300.03
300.094
300.068
300.055
300.122
300.186
300.275
300.342
300.434
300.53
300.603
300.701
300.799
300.872
300.965
301.005
301.019
301.004
300.949
300.886
300.812
300.738
300.676
300.626
300.58
300.532
300.492
300.462
300.43
300.401
300.372
300.344
300.316
300.288
300.255
300.206
300.227
300.155
300.191
300.183
300.127
300.03
300.1
300.068
300.055
300.133
300.188
300.287
300.365
300.456
300.55
300.622
300.722
300.813
300.881
300.972
301.018
301.04
301.028
300.994
300.926
300.857
300.782
300.712
300.665
300.615
300.569
300.527
300.488
300.463
300.433
300.405
300.378
300.352
300.325
300.295
300.248
300.268
300.218
300.158
300.208
300.186
300.133
300.031
300.104
300.07
300.057
300.129
300.193
300.285
300.373
300.454
300.571
300.634
300.741
300.825
300.899
300.978
301.038
301.058
301.056
301.026
300.965
300.898
300.822
300.757
300.695
300.653
300.61
300.559
300.523
300.483
300.465
300.436
300.41
300.386
300.361
300.333
300.288
300.308
300.244
300.267
300.232
300.164
300.213
300.193
300.138
300.033
300.107
300.073
300.056
300.13
300.224
300.313
300.389
300.488
300.578
300.665
300.759
300.839
300.907
300.989
301.049
301.075
301.079
301.056
301.009
300.94
300.867
300.797
300.731
300.685
300.646
300.604
300.554
300.524
300.483
300.467
300.441
300.419
300.396
300.37
300.327
300.346
300.289
300.31
300.255
300.277
300.238
300.17
300.22
300.199
300.142
300.035
300.112
300.077
300.067
300.148
300.237
300.316
300.407
300.513
300.587
300.686
300.773
300.844
300.928
301.006
301.058
301.092
301.102
301.084
301.043
300.981
300.91
300.836
300.781
300.717
300.667
300.637
300.598
300.548
300.526
300.486
300.472
300.451
300.432
300.407
300.366
300.386
300.331
300.352
300.299
300.32
300.262
300.285
300.246
300.175
300.227
300.206
300.148
300.037
300.116
300.081
300.07
300.14
300.242
300.335
300.426
300.523
300.61
300.71
300.796
300.868
300.957
301.02
301.072
301.107
301.123
301.111
301.076
301.02
300.952
300.876
300.806
300.761
300.702
300.654
300.63
300.589
300.548
300.527
300.494
300.489
300.474
300.453
300.407
300.433
300.373
300.396
300.341
300.363
300.307
300.329
300.27
300.294
300.253
300.181
300.234
300.213
300.154
300.04
300.122
300.086
300.067
300.144
300.254
300.327
300.446
300.531
300.634
300.736
300.82
300.894
300.969
301.038
301.087
301.123
301.145
301.136
301.103
301.053
300.988
300.924
300.856
300.794
300.742
300.689
300.643
300.623
300.584
300.552
300.542
300.542
300.577
300.584
300.471
300.552
300.424
300.467
300.386
300.416
300.352
300.376
300.317
300.34
300.278
300.302
300.261
300.188
300.242
300.221
300.16
300.043
300.129
300.092
300.077
300.17
300.261
300.33
300.465
300.551
300.665
300.756
300.84
300.917
300.987
301.057
301.105
301.143
301.163
301.159
301.137
301.091
301.029
300.962
300.894
300.825
300.778
300.729
300.677
300.642
300.622
300.596
300.599
300.683
300.915
301.181
300.756
301.322
300.563
300.82
300.464
300.575
300.407
300.46
300.366
300.398
300.327
300.354
300.287
300.313
300.27
300.196
300.251
300.229
300.168
300.046
300.136
300.098
300.077
300.172
300.27
300.358
300.486
300.581
300.68
300.773
300.858
300.933
301
301.072
301.125
301.164
301.182
301.184
301.163
301.125
301.069
301.004
300.933
300.868
300.815
300.761
300.712
300.662
300.637
300.633
300.699
300.967
301.619
302.885
302.366
303.954
301.472
302.85
300.88
301.651
300.584
300.931
300.455
300.593
300.388
300.449
300.34
300.376
300.297
300.326
300.279
300.205
300.261
300.239
300.177
300.05
300.145
300.106
300.072
300.162
300.254
300.348
300.491
300.598
300.683
300.778
300.875
300.949
301.023
301.096
301.141
301.181
301.202
301.21
301.191
301.156
301.105
301.042
300.973
300.903
300.848
300.795
300.746
300.698
300.661
300.656
300.78
301.378
302.846
304.997
305.384
307.088
304.487
306.213
303.187
304.954
301.806
303.471
300.976
301.935
300.601
301.02
300.442
300.609
300.363
300.433
300.309
300.347
300.292
300.215
300.273
300.252
300.188
300.055
300.155
300.115
300.073
300.165
300.248
300.379
300.511
300.616
300.708
300.804
300.898
300.968
301.039
301.113
301.162
301.205
301.221
301.23
301.217
301.184
301.138
301.08
301.016
300.94
300.883
300.83
300.779
300.733
300.681
300.664
300.806
301.666
303.987
307.423
308.506
309.663
307.944
309.663
306.799
308.676
305.35
307.321
303.72
305.732
302.059
303.962
301.068
302.193
300.615
301.12
300.421
300.619
300.331
300.405
300.312
300.228
300.292
300.269
300.2
300.061
300.167
300.125
300.077
300.171
300.255
300.379
300.485
300.629
300.726
300.815
300.912
300.989
301.057
301.128
301.18
301.219
301.243
301.254
301.24
301.215
301.175
301.117
301.051
300.985
300.914
300.867
300.813
300.766
300.719
300.685
300.806
301.73
304.746
309.059
313.446
311.09
313.045
310.535
312.28
309.316
311.31
307.838
309.968
306.126
308.404
304.237
306.571
302.348
304.567
301.173
302.521
300.614
301.218
300.387
300.603
300.366
300.244
300.339
300.309
300.215
300.068
300.181
300.137
300.084
300.183
300.272
300.398
300.515
300.653
300.73
300.829
300.92
300.995
301.069
301.14
301.196
301.237
301.265
301.273
301.269
301.241
301.204
301.15
301.088
301.022
300.956
300.899
300.852
300.8
300.753
300.714
300.791
301.694
304.881
310.253
314.234
316.01
316.443
313.843
315.126
313.209
314.9
312.063
314.084
310.692
312.916
309.046
311.532
307.1
309.791
304.952
307.718
302.695
305.377
301.244
302.846
300.581
301.25
300.548
300.275
300.499
300.436
300.238
300.076
300.199
300.151
300.099
300.207
300.301
300.42
300.533
300.658
300.742
300.848
300.924
301.006
301.084
301.151
301.213
301.255
301.282
301.294
301.291
301.269
301.234
301.19
301.13
301.066
300.999
300.934
300.887
300.836
300.787
300.743
300.768
301.523
304.782
310.251
313.768
316.377
315.744
317.651
317.556
316.282
317.257
315.887
317.353
315.004
316.89
313.91
316.092
312.492
315.052
310.646
313.567
308.405
311.587
305.805
309.116
302.953
306.172
301.226
303.008
301.16
300.363
301.036
300.86
300.294
300.084
300.229
300.168
300.107
300.258
300.347
300.45
300.554
300.66
300.762
300.847
300.932
301.016
301.088
301.16
301.224
301.269
301.302
301.314
301.313
301.297
301.263
301.218
301.166
301.101
301.039
300.977
300.917
300.873
300.822
300.774
300.76
301.227
304.294
309.936
312.676
314.246
316.928
315.69
318.715
318.129
318.368
318.781
318.417
319.462
317.995
319.541
317.335
319.255
316.293
318.678
314.717
317.589
312.555
315.879
309.778
313.464
306.44
310.332
302.991
306.57
302.853
300.663
302.544
302.099
300.473
300.095
300.307
300.196
300.331
300.422
300.495
300.578
300.672
300.786
300.849
300.941
301.02
301.091
301.162
301.23
301.281
301.319
301.335
301.334
301.318
301.292
301.251
301.198
301.141
301.079
301.018
300.957
300.905
300.86
300.807
300.769
300.995
303.298
309.264
311.813
312.648
313.896
312.578
316.825
315.206
319.455
318.218
319.913
319.885
320.596
321.071
320.754
321.775
320.602
322.041
320.019
321.934
318.842
321.287
316.944
319.959
314.254
317.844
310.728
314.85
306.554
310.949
306.28
301.584
305.692
304.866
301.058
300.105
300.538
300.241
300.511
300.56
300.614
300.7
300.784
300.856
300.943
301.02
301.09
301.165
301.242
301.296
301.334
301.35
301.355
301.345
301.317
301.279
301.232
301.178
301.119
301.058
300.998
300.938
300.894
300.844
300.795
300.864
302.298
307.932
311.211
311.619
311.874
311.369
313.508
312.45
316.576
314.906
319.889
318.326
321.088
320.813
322.262
322.301
322.987
323.458
323.321
324.211
323.161
324.513
322.379
324.253
320.87
323.269
318.527
321.555
315.212
318.938
310.962
315.348
310.669
303.862
310.055
309.096
302.648
300.113
301.106
300.307
300.634
300.662
300.718
300.783
300.877
300.942
301.021
301.099
301.167
301.243
301.303
301.346
301.369
301.372
301.364
301.342
301.308
301.264
301.213
301.157
301.098
301.039
300.98
300.922
300.882
300.829
300.819
301.536
306.077
310.708
311.027
310.923
311.823
311.518
313.663
312.937
316.579
314.927
320.331
318.789
322.146
321.559
323.54
323.456
324.632
324.684
325.187
325.354
325.47
325.814
325.161
326.212
323.966
325.898
321.996
324.489
319.091
322.171
315.202
319.007
314.798
307.678
311.779
314.223
313.695
310.648
313.278
306.286
303.358
300.121
304.968
301.235
303.505
301.988
300.933
300.294
300.717
300.747
300.8
300.885
300.935
301.019
301.099
301.163
301.242
301.311
301.356
301.386
301.393
301.386
301.365
301.335
301.294
301.246
301.193
301.136
301.078
301.02
300.961
300.91
300.865
300.82
301.098
304.143
309.885
310.835
310.062
312.558
312.042
312.681
312.65
314.855
314.571
317.168
315.764
321.287
320.045
323.121
322.338
324.58
324.357
325.213
325.041
325.693
325.397
326.19
325.83
326.851
326.59
326.479
327.502
324.807
325.848
326.916
320.6
322.164
324.915
323.472
316.819
318.711
322.016
320.265
321.953
318.404
318.178
316.153
308.926
311.83
312.539
315.852
315.404
314.844
307.956
300.164
300.408
306.517
304.746
302.91
301.426
300.781
300.814
300.885
300.932
301.014
301.095
301.162
301.239
301.311
301.364
301.398
301.409
301.405
301.389
301.361
301.323
301.278
301.228
301.174
301.117
301.06
301.003
300.943
300.901
300.847
300.914
302.588
308.402
310.692
309.559
311.023
309.826
314.849
314.146
314.657
314.891
317.229
317.202
318.783
317.761
322.895
322.193
323.97
323.478
324.74
324.392
324.812
324.004
324.898
323.286
325.647
323.476
326.958
324.946
327.587
328
327.801
327.177
326.077
327.301
327.038
327.858
323.477
326.183
324.861
320.107
323.398
321.685
323.234
319.848
319.507
317.749
310.781
313.346
314.169
317.342
316.849
316.262
309.561
300.106
300.304
300.896
300.61
307.996
306.119
304.048
302.149
300.833
300.891
300.932
301.007
301.088
301.16
301.23
301.31
301.373
301.408
301.425
301.423
301.411
301.387
301.351
301.309
301.261
301.209
301.155
301.1
301.043
300.984
300.927
300.885
300.869
301.621
306.351
310.402
309.639
308.438
312.218
310.094
317.839
316.744
317.537
317.916
320.465
320.505
321.428
320.773
323.761
323.672
324.098
323.9
323.273
322.741
321.514
320.055
320.673
317.641
321.342
317.416
325.945
323.9
321.822
319.239
328.184
327.998
327.188
325.642
327.348
328.256
328.087
328.399
324.825
327.438
326.195
321.449
324.724
323.005
324.549
321.144
320.768
319.107
312.308
315.557
314.701
318.652
318.125
317.504
311.01
300.112
300.355
301.213
302.963
309.387
307.441
305.219
300.897
300.934
300.997
301.08
301.153
301.22
301.309
301.373
301.418
301.44
301.442
301.43
301.41
301.379
301.338
301.292
301.243
301.192
301.139
301.083
301.026
300.964
300.917
300.874
301.154
304.261
309.69
310.042
308.278
308.272
307.115
313.719
310.489
320.994
319.416
320.877
321.188
323.641
323.807
323.633
323.611
323.014
323.461
322.608
322.733
318.91
318.477
315.489
314.194
314.389
312.918
317.367
315.296
314.216
312.959
323.55
321.175
318.805
316.692
328.169
327.257
325.571
323.369
328.408
328.602
328.802
328.362
326.158
328.533
327.475
322.732
326.055
324.308
325.872
322.389
321.975
320.336
313.636
316.769
315.886
319.841
319.273
318.611
312.304
300.112
301.546
300.411
303.752
306.305
310.655
308.652
300.939
300.986
301.07
301.145
301.216
301.302
301.372
301.429
301.451
301.46
301.452
301.431
301.405
301.367
301.323
301.275
301.227
301.176
301.122
301.066
301.007
300.946
300.909
300.979
302.684
308.151
310.158
308.832
306.497
307.535
306.046
315.208
310.668
323.778
321.643
324.098
324.175
325.151
325.782
323.969
324.526
320.017
321.27
318.657
319.124
313.653
313.834
312.323
312.006
312.617
312.196
312.066
314.942
313.651
312.826
312.378
320.946
318.575
316.465
314.748
327.388
325.62
323.372
320.951
328.995
328.578
328.816
327.581
327.455
329.173
328.608
324.006
327.364
325.618
327.184
323.624
323.169
321.5
314.8
317.845
316.932
320.958
320.337
319.629
313.452
300.113
304.434
301.838
300.449
307.252
309.726
311.781
300.981
301.056
301.135
301.21
301.289
301.371
301.434
301.464
301.476
301.472
301.455
301.428
301.394
301.352
301.308
301.26
301.212
301.164
301.11
301.053
300.991
300.943
300.942
301.722
306.086
309.976
309.769
307.509
304.833
305.339
306.561
304.995
316.018
310.384
325.611
322.659
326.222
326.256
325.266
326.486
322.644
323.991
317.567
319.426
314.499
315.835
311.888
312.1
311.992
311.815
312.207
312.111
313.131
312.923
313.529
312.841
312.523
312.389
318.604
316.527
314.85
313.712
325.795
323.554
321.18
318.897
329.049
327.842
328.162
326.084
328.629
329.306
329.33
325.29
328.578
326.928
328.43
324.871
324.376
322.645
315.826
318.819
317.871
322.047
321.363
320.596
314.464
300.088
308.039
304.97
302.047
300.445
310.648
312.767
301.041
301.122
301.198
301.277
301.37
301.435
301.476
301.49
301.491
301.477
301.452
301.418
301.378
301.335
301.294
301.257
301.215
301.166
301.11
301.047
300.98
300.952
301.258
304.082
309.316
310.229
308.897
306.143
303.786
304.305
305.341
303.822
316.138
309.577
326.426
322.706
327.27
327.319
324.994
326.71
321.267
323.101
317.268
319.438
313.117
315.043
311.619
311.593
313.206
313.189
312.585
312.994
312.446
312.687
314.608
314.324
313.081
312.785
312.801
313.049
316.861
315.235
314.145
313.495
323.91
321.624
319.43
317.471
328.588
326.48
326.956
324.408
329.449
328.972
329.561
326.579
329.502
328.188
329.477
326.131
325.597
323.8
316.737
319.728
318.73
323.14
322.386
321.544
315.352
300.07
311.424
308.657
305.344
302.112
300.387
313.62
301.108
301.186
301.268
301.361
301.435
301.485
301.503
301.508
301.497
301.473
301.441
301.402
301.363
301.334
301.311
301.281
301.238
301.179
301.112
301.037
300.983
301.094
302.7
307.845
310.24
309.875
307.76
304.383
305.337
302.803
303.527
303.978
302.69
315.295
308.227
326.364
321.543
327.742
327.724
325.414
327.171
321.447
323.377
318.048
320.661
312.666
315.128
312.12
311.438
314.699
314.658
313.633
314.32
313.476
313.92
316.354
316.054
313.268
313.392
313.819
314.395
315.908
314.809
314.136
313.979
322.258
320.187
318.349
316.84
327.532
325.021
325.707
323.029
329.748
328.105
329.396
327.843
329.916
329.324
330.017
327.386
326.823
324.972
317.557
320.602
319.536
324.248
323.421
322.496
316.134
300.048
314.35
312.059
309.107
305.533
302.008
300.275
301.173
301.255
301.345
301.432
301.489
301.515
301.523
301.514
301.493
301.462
301.424
301.392
301.39
301.416
301.43
301.395
301.314
301.218
301.119
301.029
301.07
301.968
306.119
309.997
310.417
309.01
306.04
303.398
304.176
301.917
302.61
302.718
301.714
313.577
306.55
325.429
319.246
327.963
327.63
326.393
327.717
322.823
324.678
318.682
321.641
312.287
315.281
313.974
312.481
311.459
311.119
316.44
316.372
315.161
315.962
315.002
315.568
318.491
318.157
314.144
314.668
315.368
316.119
315.689
314.979
314.84
315.028
321.144
319.453
317.996
316.828
326.456
323.909
324.823
322.238
329.738
327.194
328.715
329.036
330.017
330.034
330.181
328.607
328.038
326.153
318.306
321.465
320.315
325.365
324.467
323.455
316.828
300.031
314.972
312.556
309.404
305.505
301.707
300.156
301.24
301.328
301.422
301.492
301.522
301.535
301.531
301.511
301.482
301.446
301.431
301.502
301.695
301.854
301.864
301.702
301.476
301.277
301.12
301.093
301.688
304.705
309.246
310.595
309.858
307.303
303.374
302.241
303.003
301.225
301.626
301.829
301.151
311.223
304.834
323.095
316.105
327.889
326.825
327.047
327.55
323.982
325.822
318.546
321.772
311.345
314.574
315.231
313.38
311.619
310.932
318.578
318.437
316.791
317.873
316.867
317.574
320.97
320.637
315.617
316.408
317.313
318.26
316.099
315.943
316.118
316.725
320.706
319.312
318.181
317.47
325.75
323.383
324.497
322.025
329.309
326.614
327.923
329.957
329.817
330.336
330.174
329.708
329.23
327.338
319.004
322.33
321.086
326.488
325.511
324.414
317.45
300.021
315.501
312.939
309.55
305.275
301.23
300.082
301.312
301.409
301.49
301.527
301.543
301.544
301.528
301.5
301.471
301.492
301.745
302.321
302.848
302.97
302.665
302.156
301.648
301.289
301.167
301.657
303.996
308.319
310.554
310.312
308.225
304.424
301.206
301.679
301.512
301.269
300.923
301.044
301.32
300.921
308.642
303.374
319.379
312.579
326.964
324.513
326.019
325.93
324.066
325.48
316.498
319.545
310.222
310.846
314.358
312.251
316.749
314.37
311.958
310.532
321.039
320.819
318.708
320.074
319.161
319.987
323.654
323.366
317.573
318.573
319.679
320.778
317.275
317.412
318
318.866
320.785
319.791
319.124
318.889
325.551
323.37
324.671
322.378
328.624
326.517
327.405
330.417
329.298
330.446
329.882
330.392
330.209
328.51
319.684
323.212
321.876
327.618
326.56
325.392
318.032
300.016
315.963
313.255
309.624
304.782
300.744
300.052
301.393
301.487
301.534
301.554
301.553
301.544
301.518
301.496
301.588
302.124
303.163
303.987
304.165
303.797
303.115
302.352
301.658
301.348
301.728
303.922
307.87
310.357
310.484
308.824
305.187
301.573
301.017
300.874
300.977
300.901
300.81
300.838
301.049
300.83
306.153
302.277
314.999
308.96
324.125
320.414
322.75
321.913
321.586
322.516
313.106
312.987
314.659
315.753
316.492
309.594
309.909
311.216
318.398
315.52
312.496
310.181
323.684
323.347
320.74
322.392
321.799
322.693
326.398
326.188
319.927
321.125
322.377
323.576
318.978
319.488
320.339
321.398
321.579
321.027
320.806
320.858
325.891
323.966
325.431
323.417
328.148
326.867
327.329
330.618
328.778
330.389
329.475
330.752
330.779
329.654
320.369
324.108
322.668
328.75
327.634
326.39
318.603
300.018
316.42
313.596
309.646
304.023
300.44
300.066
301.478
301.537
301.564
301.568
301.554
301.535
301.522
301.683
302.513
303.975
305.042
305.307
304.921
304.129
303.199
302.317
301.742
302.014
304.095
307.868
310.237
310.493
309.095
305.685
301.934
300.861
300.907
300.822
300.786
300.813
300.79
300.768
300.771
300.914
300.789
303.991
301.557
310.383
305.565
319.241
315.281
317.515
316.219
316.704
317.464
311.325
310.971
312.302
313.491
314.579
308.915
308.887
309.763
320.011
316.647
313.068
310.017
326.369
325.87
322.74
324.683
324.656
325.557
329.053
328.922
322.642
323.964
325.292
326.518
321.291
321.984
323.073
324.266
323.062
322.969
323.071
323.336
326.699
325.154
326.694
325.075
327.991
327.63
327.677
330.681
328.547
330.247
329.05
330.963
331.053
330.521
321.046
324.972
323.414
329.831
328.734
327.333
319.169
300.523
316.907
313.92
309.585
303.313
300.415
300.301
301.539
301.569
301.585
301.571
301.545
301.538
301.753
302.807
304.654
305.994
306.369
306.013
305.208
304.216
303.284
302.625
302.765
304.71
308.071
310.243
310.456
309.101
305.868
302.132
300.919
300.787
300.807
300.767
300.757
300.77
300.753
300.746
300.743
300.841
300.759
302.411
301.183
306.181
303.013
313.423
309.94
311.018
309.878
311.72
311.859
311.157
309.545
308.677
309.714
310.614
311.32
308.158
307.873
308.326
321.477
317.645
313.521
309.895
328.935
328.219
324.578
326.806
327.581
328.43
331.508
331.452
325.604
326.961
328.27
329.44
324.026
324.964
326.101
327.368
325.131
325.305
325.774
326.39
327.712
326.766
328.022
327.04
328.227
328.257
328.192
330.72
328.576
329.875
328.856
330.976
331.106
330.947
321.703
325.814
324.182
330.555
329.678
328.336
319.748
300.347
317.361
314.226
309.556
303.299
300.741
301.054
301.574
301.598
301.592
301.567
301.55
301.775
302.971
305.148
306.805
307.322
307.038
306.32
305.423
304.62
304.156
304.485
306.241
308.698
310.238
310.332
308.936
305.786
302.179
300.956
300.793
300.764
300.778
300.744
300.741
300.752
300.735
300.719
300.725
300.786
300.732
301.513
300.963
302.949
301.59
307.639
305.208
304.32
304.031
309.254
309.844
305.808
305.514
307.591
306.447
307.255
308.009
308.67
307.3
306.74
306.818
322.727
318.453
313.827
309.668
331.211
330.317
326.173
328.67
330.409
331.134
333.652
333.677
328.684
329.973
331.162
332.191
327.183
328.225
329.339
330.537
327.481
328.074
328.785
329.602
328.523
328.426
328.916
328.97
328.393
328.32
328.288
330.577
328.557
329.354
328.599
330.869
330.965
331.071
322.358
326.727
324.918
330.852
330.332
329.291
320.258
300.096
317.805
314.527
309.795
304.236
302.035
301.785
301.604
301.61
301.589
301.569
301.768
303
305.429
307.426
308.102
307.919
307.354
306.694
306.183
306.062
306.564
307.812
309.256
310.161
310.014
308.448
305.365
302.081
300.971
300.814
300.756
300.763
300.77
300.749
300.728
300.72
300.736
300.713
300.702
300.706
300.737
300.709
301.034
300.82
301.269
300.924
303.062
301.994
301.702
303.988
301.546
301.208
305.791
305.833
303.829
305.707
304.331
304.822
305.277
305.627
306.455
305.554
305.415
323.782
319.101
314.04
309.505
333.2
332.103
327.54
330.271
332.997
333.517
335.403
335.512
331.71
332.826
333.796
334.607
330.468
331.454
332.43
333.437
329.635
330.41
331.203
331.997
328.516
329.417
328.858
330.001
328.264
327.858
328.029
329.915
328.254
328.41
327.968
330.493
330.588
331.007
322.913
327.551
325.593
330.875
330.612
329.911
320.76
300.176
318.201
314.882
310.581
306.451
304.276
302.234
301.623
301.61
301.585
301.735
302.926
305.489
307.822
308.674
308.585
308.175
307.726
307.488
307.542
307.933
308.63
309.334
309.907
309.334
307.554
304.52
301.831
300.973
300.834
300.782
300.741
300.743
300.757
300.727
300.707
300.703
300.714
300.697
300.681
300.686
300.689
300.681
300.773
300.712
300.748
300.687
301.144
300.874
301.752
301.054
301.118
300.698
300.691
303.502
303.675
301.736
304.043
302.678
302.845
303.078
303.312
305.701
304.423
304.055
324.673
319.624
314.123
309.151
334.796
333.582
328.694
331.604
335.191
335.449
336.505
336.714
334.336
335.14
335.793
336.321
332.757
333.508
334.225
334.895
330.677
331.406
332.143
332.836
327.652
329.274
327.395
329.712
327.58
326.241
326.734
328.989
326.907
328.011
326.872
329.478
329.695
330.669
323.519
328.475
326.394
330.77
330.648
330.227
321.204
384.854
318.572
315.292
311.617
308.502
306.247
306.119
301.631
301.602
301.675
302.701
305.4
307.977
309.051
309.04
308.685
308.323
308.105
308.106
308.311
308.696
309.167
309.295
308.244
306.245
303.504
301.54
300.967
300.859
300.807
300.759
300.727
300.726
300.74
300.713
300.69
300.685
300.699
300.677
300.656
300.665
300.647
300.65
300.66
300.65
300.612
300.609
300.646
300.623
300.999
300.688
300.693
300.599
300.613
301.644
301.699
300.964
302.685
301.591
301.546
301.549
301.604
305.151
303.506
302.86
325.494
320.135
314.211
308.825
335.921
334.709
329.702
332.693
336.586
336.689
336.923
337.136
335.489
336.025
336.495
336.892
333.491
334.094
334.671
335.189
330.133
330.174
330.871
331.578
326.228
327.657
321.067
327.877
325.853
320.362
325.859
327.601
326.055
326.766
326.437
328.742
329.325
330.131
324.089
329.221
327.22
330.563
330.535
330.34
321.66
708.721
318.897
315.791
312.755
310.417
310.178
324.568
301.63
301.643
302.346
305.089
307.952
309.267
309.351
309.024
308.553
308.206
308.111
308.21
308.409
308.518
307.974
306.634
304.624
302.535
301.297
300.961
300.889
300.835
300.785
300.742
300.734
300.714
300.719
300.701
300.673
300.675
300.688
300.661
300.641
300.65
300.622
300.631
300.611
300.617
300.565
300.572
300.556
300.557
300.682
300.589
300.592
300.559
300.56
300.934
300.946
300.679
301.757
301.172
301.031
300.965
300.94
304.737
302.98
302.136
326.328
320.719
314.386
308.595
336.387
335.364
330.602
333.519
337.063
337.118
337.01
337.208
335.64
336.081
336.514
336.857
332.318
333.095
333.692
334.285
328.201
322.872
323.442
324.316
320.693
321.536
315.429
322.232
320.003
314.814
320.71
327.775
320.013
320.367
320.67
328.587
328.831
329.812
324.732
329.604
327.948
330.124
330.486
330.23
322.058
825.08
319.25
316.417
313.885
312.604
313.478
381.793
301.637
302.078
304.376
307.772
309.338
309.545
309.144
308.49
308.009
307.722
307.565
307.397
306.895
305.949
304.642
303.105
301.796
301.14
300.961
300.914
300.873
300.817
300.77
300.722
300.723
300.715
300.739
300.705
300.71
300.691
300.663
300.665
300.678
300.651
300.628
300.639
300.607
300.617
300.585
300.597
300.537
300.548
300.546
300.528
300.528
300.527
300.592
300.561
300.558
300.543
300.696
300.683
300.599
301.439
301.087
300.896
300.781
300.726
304.412
302.723
301.874
327.264
321.503
314.769
308.275
336.52
335.671
331.404
334.045
337.13
337.168
336.88
336.996
334.643
335.026
335.385
335.833
324.555
324.945
325.213
325.489
322.892
316.744
317.018
317.382
314.926
315.625
308.817
316.072
314.479
308.443
314.825
320.632
314.405
314.512
314.568
320.945
321.197
329.447
325.334
329.515
328.381
330.159
330.055
329.665
322.526
943.391
319.668
317.042
315.18
314.391
321.767
571.81
301.808
303.737
307.19
309.31
309.667
309.136
308.211
307.363
306.607
305.883
305.204
304.566
303.804
302.93
302.036
301.366
301.065
300.97
300.936
300.906
300.858
300.802
300.76
300.707
300.716
300.701
300.732
300.695
300.681
300.652
300.654
300.667
300.639
300.614
300.627
300.59
300.602
300.564
300.579
300.515
300.524
300.524
300.511
300.517
300.501
300.573
300.555
300.545
300.532
300.641
300.615
300.584
301.373
301.092
300.885
300.75
300.684
304.233
302.585
301.79
328.324