/*--------------------------------*- C++ -*----------------------------------*\
  =========                 |
  \\      /  F ield         | OpenFOAM: The Open Source CFD Toolbox
   \\    /   O peration     | Website:  https://openfoam.org
    \\  /    A nd           | Version:  dev
     \\/     M anipulation  |
\*---------------------------------------------------------------------------*/
FoamFile
{
    version     2.0;
    format      ascii;
    class       volVectorField;
    location    "2500";
    object      U;
}
// * * * * * * * * * * * * * * * * * * * * * * * * * * * * * * * * * * * * * //

dimensions      [0 1 -1 0 0 0 0];

internalField   nonuniform List<vector> 
9967
(
(0.00442159 0.00700373 0)
(0.0105239 0.00631893 0)
(0.00444786 0.0183577 -2.3527e-28)
(0.0146213 0.00523777 0)
(0.0117399 0.0186396 -1.45203e-27)
(0.00385541 0.0265545 4.66158e-27)
(0.0179145 0.00431432 4.3988e-28)
(0.0165121 0.0180388 2.29899e-27)
(0.011406 0.0275408 0)
(0.00321508 0.0333986 5.18623e-27)
(0.0205046 0.00356581 -4.50533e-29)
(0.0197001 0.0162 1.30646e-27)
(0.0173413 0.0282594 3.44059e-27)
(0.0101323 0.0343692 -6.4379e-28)
(0.00282866 0.0394292 2.73165e-27)
(0.0227399 0.00295512 2.2464e-29)
(0.0219968 0.013753 1.75591e-27)
(0.0217359 0.0278043 1.44126e-27)
(0.0166585 0.03582 -1.05914e-27)
(0.00878221 0.0401657 2.64519e-27)
(0.00254948 0.0449394 2.802e-27)
(0.0248622 0.00249688 0)
(0.0239405 0.0113897 1.36562e-27)
(0.0247634 0.0261645 1.70206e-27)
(0.0221512 0.0367912 9.15817e-28)
(0.0150326 0.0416525 0)
(0.00780561 0.045491 5.32904e-27)
(0.00233195 0.0500189 0)
(0.0270354 0.00219899 2.01824e-28)
(0.0257533 0.00944225 1.19476e-29)
(0.0267432 0.0236665 -4.61477e-29)
(0.0264134 0.0367104 1.94383e-28)
(0.0210769 0.0434186 1.06164e-27)
(0.0133317 0.0467243 -5.97515e-28)
(0.00709917 0.0504111 2.85849e-27)
(0.0021504 0.0547336 0)
(0.0292481 0.00204372 -9.21745e-32)
(0.0275769 0.00814496 0)
(0.0281364 0.0207265 -1.60057e-27)
(0.0294077 0.0353796 7.83463e-29)
(0.0263379 0.0447248 2.32436e-28)
(0.0191383 0.0485179 -2.95317e-28)
(0.0120443 0.0513366 -3.58139e-28)
(0.00651694 0.0550834 0)
(0.00197943 0.059112 -1.42712e-27)
(0.0314233 0.00192022 -1.56467e-28)
(0.0295679 0.00744281 0)
(0.029397 0.0177679 -1.17969e-27)
(0.0313386 0.0330413 5.69296e-29)
(0.0305647 0.0450544 1.9942e-28)
(0.0248589 0.0505283 1.9648e-28)
(0.0172229 0.0528393 -1.33464e-27)
(0.011003 0.0559166 -4.73871e-28)
(0.00598076 0.0594191 0)
(0.00182146 0.063177 -4.39012e-28)
(0.0335371 0.00182139 8.40896e-28)
(0.0316824 0.00705358 4.42105e-29)
(0.0307795 0.015226 -3.549e-32)
(0.032563 0.0299995 0)
(0.0336628 0.0441955 -8.21742e-29)
(0.0300152 0.0522016 0)
(0.0226413 0.0549025 -5.89828e-28)
(0.015628 0.0571843 9.75683e-28)
(0.0100793 0.0601637 -1.39493e-27)
(0.00548981 0.063443 5.01895e-28)
(0.00167238 0.0669455 1.06398e-27)
(0.0355711 0.00173932 8.61892e-28)
(0.0337424 0.0067348 0)
(0.0324354 0.0134754 -3.63533e-28)
(0.033469 0.0266597 0)
(0.0357328 0.0421746 4.77622e-28)
(0.0342834 0.0530355 9.987e-29)
(0.0281042 0.0572359 0)
(0.0204679 0.05893 -1.52536e-28)
(0.0142971 0.0612697 3.01041e-28)
(0.00924492 0.0641399 -7.37282e-28)
(0.00502437 0.067196 6.28785e-28)
(0.00152835 0.0704418 -1.3145e-27)
(0.0376209 0.00167167 8.80963e-28)
(0.0357312 0.00641708 0)
(0.0343287 0.0124303 0)
(0.0344261 0.0234566 0)
(0.0370205 0.039312 4.88112e-28)
(0.0375658 0.0527302 4.75862e-28)
(0.0331907 0.0593523 5.90604e-36)
(0.0255828 0.0611945 -1.0694e-27)
(0.0186517 0.0627558 3.83313e-28)
(0.0131048 0.0651736 -1.00855e-27)
(0.00845769 0.0678732 8.74765e-29)
(0.00458267 0.070659 0)
(0.00139375 0.0736465 -1.2581e-27)
(0.0396797 0.00162747 9.72137e-28)
(0.0377356 0.00606767 0)
(0.0363151 0.0117951 0)
(0.0356543 0.0208355 0)
(0.0377764 0.0359636 -3.60345e-29)
(0.039849 0.0512417 3.22859e-29)
(0.0375645 0.0607713 4.50942e-28)
(0.0307987 0.0637856 -2.49997e-28)
(0.023213 0.0647319 6.58819e-28)
(0.0170651 0.066536 4.45019e-28)
(0.0119862 0.0688632 -2.7085e-27)
(0.00770247 0.0713015 9.83685e-29)
(0.00416621 0.0738482 0)
(0.00125892 0.0766256 0)
(0.0416797 0.00157499 0)
(0.0397622 0.00573369 7.28645e-29)
(0.0382797 0.011346 0)
(0.0371969 0.0190088 0)
(0.0384063 0.032489 0)
(0.0412727 0.0487548 -6.11079e-28)
(0.0410308 0.0611516 5.36614e-28)
(0.035831 0.0663378 4.03872e-28)
(0.0280226 0.0672236 2.69277e-28)
(0.021144 0.0682944 4.55815e-28)
(0.0156046 0.0701297 -8.35785e-29)
(0.0109201 0.072267 -3.96259e-31)
(0.00697814 0.0744798 1.69096e-28)
(0.00375707 0.0768113 0)
(0.00112583 0.0793324 5.54805e-28)
(0.0436312 0.00151729 0)
(0.0417644 0.00548198 7.82322e-29)
(0.0402404 0.0109038 0)
(0.0389581 0.0178393 4.72079e-29)
(0.0392555 0.0292277 1.74417e-29)
(0.0421178 0.0455881 -2.48294e-29)
(0.0435657 0.0603657 0)
(0.0403156 0.0683643 4.62459e-28)
(0.0329854 0.0701267 -8.87017e-28)
(0.0254497 0.0705099 2.82043e-28)
(0.0193087 0.071717 7.24114e-28)
(0.0142257 0.0734929 2.66577e-28)
(0.00989565 0.0754185 1.34473e-27)
(0.00628802 0.0774083 8.15378e-28)
(0.00335944 0.079502 3.12795e-28)
(0.000995753 0.0817903 2.59892e-32)
(0.0455278 0.00145477 0)
(0.0437174 0.00529142 1.64348e-28)
(0.0421639 0.0104395 7.07478e-29)
(0.040897 0.0170267 0)
(0.040426 0.0265056 2.93387e-29)
(0.0426848 0.042061 2.12921e-27)
(0.045247 0.058502 -4.47186e-29)
(0.0439805 0.0694963 0)
(0.0379174 0.0731298 -4.10373e-28)
(0.0299636 0.0732053 5.16588e-28)
(0.0231587 0.0737137 2.91344e-28)
(0.0176031 0.0750178 6.04841e-28)
(0.0128985 0.0765889 0)
(0.00891294 0.078316 2.36442e-28)
(0.00561634 0.0801024 0)
(0.0029689 0.0819493 6.57708e-28)
(0.000866884 0.0839878 3.9965e-28)
(0.0473561 0.00138677 0)
(0.0456169 0.0051258 0)
(0.0440523 0.00997831 4.52539e-28)
(0.0428714 0.0163123 0)
(0.0418831 0.0245071 -1.9878e-27)
(0.0433004 0.0385003 4.28308e-27)
(0.0463014 0.0558327 1.30431e-29)
(0.0467747 0.0695305 1.14769e-28)
(0.0424653 0.0758063 1.76362e-27)
(0.0346613 0.0763436 -5.73951e-29)
(0.027197 0.076166 7.52163e-28)
(0.021062 0.0768875 -4.50216e-28)
(0.0159653 0.0780487 0)
(0.0116199 0.0794583 6.68448e-28)
(0.00795272 0.0810177 0)
(0.00494692 0.0825417 7.63793e-28)
(0.00258226 0.0841329 7.49455e-28)
(0.000738028 0.0859564 6.48021e-28)
(0.0491294 0.00132455 -4.66799e-28)
(0.0474483 0.00494738 0)
(0.0459298 0.00953975 -3.06823e-27)
(0.0447054 0.0156275 2.74834e-28)
(0.0436583 0.0232036 -1.99275e-27)
(0.0441141 0.0351781 2.19539e-27)
(0.0469959 0.0526696 -2.6647e-30)
(0.0487605 0.0684579 1.98956e-29)
(0.0463293 0.0777378 4.23482e-27)
(0.03943 0.0797565 3.84445e-28)
(0.0314049 0.0790837 2.00513e-28)
(0.0246787 0.0791371 9.63579e-29)
(0.019088 0.0798491 -3.0993e-28)
(0.0143733 0.0808878 -9.45226e-29)
(0.0103641 0.0821428 -4.21907e-29)
(0.00700289 0.0834595 1.91456e-28)
(0.00429102 0.0847098 1.46769e-27)
(0.00220106 0.0860933 5.75347e-28)
(0.000610678 0.0876786 3.60871e-28)
(0.0508313 0.00127036 -6.12317e-27)
(0.0491957 0.00474868 0)
(0.0477597 0.0091654 -3.10985e-27)
(0.0464916 0.0149824 0)
(0.0455343 0.0222404 0)
(0.0452169 0.0323909 -7.29818e-29)
(0.0475423 0.0492666 1.16805e-29)
(0.0500931 0.0664652 2.48676e-27)
(0.0493989 0.0786822 2.3132e-27)
(0.0439583 0.0830315 -1.54088e-28)
(0.0358159 0.0824749 8.55149e-28)
(0.0284289 0.0818234 1.29254e-31)
(0.0223191 0.08202 0)
(0.017178 0.0826418 -4.13516e-28)
(0.0128161 0.0835301 3.77114e-29)
(0.00912785 0.0845665 -6.8119e-28)
(0.00606743 0.0856245 0)
(0.00364703 0.0866572 1.18283e-27)
(0.00183023 0.0877983 -8.57923e-29)
(0.000490377 0.0891664 3.90726e-29)
(0.0524322 0.00121158 2.29781e-28)
(0.0508827 0.00453963 -6.93685e-27)
(0.0495474 0.00882415 2.6368e-27)
(0.0482581 0.0143324 3.64357e-27)
(0.0473116 0.0213828 0)
(0.0466438 0.0303365 -3.78897e-28)
(0.0480962 0.0458537 -7.23574e-29)
(0.0509895 0.0638585 2.5874e-27)
(0.0516912 0.0785741 1.47136e-29)
(0.0479759 0.0857818 0)
(0.0403415 0.0862175 -1.80149e-27)
(0.0323327 0.0849791 6.66968e-28)
(0.0256742 0.0845646 -8.70846e-29)
(0.0200607 0.0847263 -2.35344e-28)
(0.0153168 0.0852373 6.65611e-28)
(0.0113001 0.0859144 0)
(0.00791503 0.0867297 0)
(0.00514409 0.087575 -2.52726e-27)
(0.0030068 0.0883503 -2.40176e-28)
(0.00146271 0.0892792 -3.27003e-28)
(0.000362409 0.0904058 -4.36294e-28)
(0.0539274 0.0011464 0)
(0.0525011 0.00432012 -1.3141e-27)
(0.0512679 0.00845606 0)
(0.0499805 0.0137296 3.74773e-27)
(0.0490639 0.0205855 0)
(0.0482311 0.0289377 0)
(0.0488448 0.0426675 -2.52506e-28)
(0.0516157 0.060894 -1.46871e-29)
(0.0533361 0.0774927 0)
(0.0513041 0.0877299 0)
(0.044752 0.0900442 -1.98988e-35)
(0.036424 0.088607 1.11718e-27)
(0.02913 0.0874986 -1.98253e-28)
(0.0230626 0.0871512 1.80293e-28)
(0.0178839 0.087269 1.29642e-27)
(0.0135063 0.0875846 6.39731e-28)
(0.00980456 0.0880682 -3.59532e-28)
(0.00671332 0.0886704 1.45754e-27)
(0.00423025 0.089283 -2.44339e-27)
(0.00236626 0.0898118 -5.92339e-28)
(0.00111879 0.0905564 -7.24049e-28)
(0.00021968 0.0914021 -1.03126e-27)
(0.055301 0.00107855 0)
(0.0540194 0.00408623 0)
(0.0528861 0.00806718 1.64204e-27)
(0.0516948 0.0132336 0)
(0.0507401 0.0197354 -2.33543e-27)
(0.0499082 0.0278657 0)
(0.04992 0.0399241 6.85456e-28)
(0.0521364 0.0577553 0)
(0.0544791 0.0756455 1.42925e-29)
(0.0539173 0.0887209 2.63303e-27)
(0.0488253 0.0935808 2.13535e-27)
(0.040636 0.0926472 1.51538e-27)
(0.0327195 0.0908675 1.00162e-27)
(0.0261337 0.0899518 -5.02508e-28)
(0.0205419 0.0896206 0)
(0.0157651 0.0895719 -7.02395e-29)
(0.0117268 0.089718 -7.33616e-28)
(0.00832458 0.0899818 -3.3328e-28)
(0.0055245 0.0903797 1.5921e-27)
(0.00331988 0.0907548 0)
(0.00173171 0.0910305 1.05643e-27)
(0.000751801 0.091621 -2.89808e-27)
(9.94919e-05 0.0922265 0)
(0.056535 0.00100904 0)
(0.0554053 0.00385228 5.02024e-27)
(0.0543919 0.00768946 1.66547e-27)
(0.0533623 0.0127357 -2.47122e-27)
(0.0523654 0.0188034 -2.17599e-27)
(0.0516794 0.0269293 0)
(0.0512309 0.0376913 0)
(0.0527485 0.0545968 4.25682e-28)
(0.0553004 0.0732819 0)
(0.0558809 0.0887726 2.84139e-27)
(0.0523742 0.096529 3.50082e-29)
(0.0448559 0.0969081 -1.00848e-28)
(0.0364735 0.0947048 1.16495e-27)
(0.0292824 0.0931297 1.4328e-27)
(0.0232605 0.0923259 -1.13925e-27)
(0.0180976 0.0918636 1.65334e-31)
(0.0136951 0.0916637 -1.47122e-27)
(0.00997429 0.0916021 -7.83749e-28)
(0.00686055 0.0916791 -1.1959e-28)
(0.00435488 0.0918467 0)
(0.00241107 0.0919778 0)
(0.0011274 0.0920539 1.00985e-27)
(0.000345281 0.0924305 -2.14784e-27)
(-4.38924e-05 0.0927569 6.37685e-29)
(0.0576079 0.000931741 0)
(0.0566519 0.00361153 0)
(0.055778 0.00730278 3.01401e-27)
(0.0549002 0.0121561 0)
(0.0539884 0.0179178 -2.35826e-27)
(0.0533645 0.0260311 -2.89018e-27)
(0.0527383 0.0359426 -5.65912e-27)
(0.0535739 0.0516187 7.11652e-29)
(0.0559643 0.0706701 -6.08086e-27)
(0.0573242 0.0879719 0)
(0.0552872 0.0986816 1.97657e-29)
(0.0488813 0.101119 4.83761e-29)
(0.0403651 0.0989842 1.5304e-27)
(0.0325656 0.0967341 1.12804e-27)
(0.0260353 0.0953649 0)
(0.0204825 0.0944917 -1.28761e-27)
(0.0157167 0.0939095 8.87881e-30)
(0.0116593 0.0935301 1.58423e-27)
(0.00824136 0.0932808 -9.52395e-29)
(0.00542747 0.0931059 -4.20428e-28)
(0.00319704 0.0930731 0)
(0.00152783 0.0929664 1.67078e-27)
(0.000535289 0.0928476 -2.19914e-27)
(-2.51303e-05 0.092974 4.83993e-28)
(-0.000180244 0.0930793 1.78768e-28)
(0.0584974 0.00084339 1.89766e-27)
(0.0577423 0.00334755 0)
(0.0570351 0.00687795 -3.8082e-27)
(0.0563081 0.011533 4.25845e-27)
(0.0555387 0.0171289 4.70603e-27)
(0.0549533 0.0251016 -5.34083e-27)
(0.0543585 0.0345949 -9.68682e-27)
(0.0546179 0.0489525 6.17762e-27)
(0.056573 0.0679561 -1.55601e-28)
(0.0583816 0.0865522 -6.43167e-28)
(0.0575751 0.0999672 0)
(0.0525328 0.104975 4.54426e-30)
(0.0443076 0.103603 1.88285e-27)
(0.03598 0.100783 1.40456e-28)
(0.0288995 0.0987797 9.39158e-28)
(0.022919 0.09744 0)
(0.0177785 0.0964835 -1.35136e-27)
(0.0133837 0.0957468 1.00166e-28)
(0.00964413 0.095193 1.76422e-27)
(0.00652609 0.0946688 -1.76251e-28)
(0.00402112 0.094316 -4.49222e-28)
(0.00204883 0.0940716 -7.8032e-28)
(0.000674799 0.09373 6.39809e-27)
(-7.70268e-05 0.0934172 1.72622e-27)
(-0.000448822 0.0932902 5.161e-28)
(-0.000323764 0.09317 2.26253e-28)
(0.0591964 0.000748476 0)
(0.058649 0.00307184 6.14573e-28)
(0.0581453 0.00643691 1.91603e-27)
(0.0575981 0.0108828 2.05028e-27)
(0.0569841 0.016359 4.55541e-27)
(0.0564961 0.0240742 0)
(0.0559889 0.0334565 -3.05226e-31)
(0.0558439 0.0466888 6.47409e-27)
(0.0572423 0.0653238 6.73843e-27)
(0.059175 0.0847124 -2.17681e-28)
(0.0593083 0.100435 -1.54736e-27)
(0.0556765 0.108256 2.81609e-27)
(0.048166 0.108363 0)
(0.0395232 0.105294 0)
(0.0318683 0.102585 9.31646e-28)
(0.025415 0.100741 -1.20043e-28)
(0.0198887 0.0993624 6.2425e-28)
(0.0151268 0.0982698 -8.66913e-29)
(0.0110762 0.0973965 1.11812e-28)
(0.0076484 0.0965678 -2.00017e-27)
(0.00484743 0.0958481 0)
(0.00261803 0.0953033 -6.81658e-28)
(0.000916937 0.0948515 2.81039e-27)
(-0.000185641 0.0943457 -6.14719e-31)
(-0.00072777 0.0937504 9.53302e-28)
(-0.000885298 0.093378 2.65708e-28)
(-0.000477863 0.0930082 2.66174e-28)
(0.0596871 0.000659126 1.57978e-28)
(0.0593676 0.00277598 1.45271e-27)
(0.0590767 0.00597512 -7.98514e-28)
(0.0587166 0.0102137 5.65189e-27)
(0.0582856 0.0156004 1.44121e-27)
(0.0579251 0.0230047 2.84539e-27)
(0.0575656 0.0324552 6.27387e-27)
(0.0571483 0.0449211 0)
(0.0580023 0.0628821 6.33753e-28)
(0.0598154 0.082674 0)
(0.0605989 0.100188 0)
(0.0582598 0.110822 7.59873e-27)
(0.0517982 0.113001 -5.08172e-27)
(0.0431427 0.110188 0)
(0.0349594 0.106838 0)
(0.0279858 0.104388 -1.91938e-28)
(0.0220393 0.102578 -2.05729e-28)
(0.0169113 0.101113 1.27413e-27)
(0.0125097 0.0998946 -1.69816e-27)
(0.00878938 0.0987559 -2.6261e-29)
(0.00568212 0.0977089 -2.1906e-27)
(0.00319557 0.0968156 0)
(0.00123486 0.0960626 -1.01727e-27)
(-0.0002094 0.0954591 1.85664e-28)
(-0.00105493 0.0947189 -5.85981e-27)
(-0.0014155 0.0938781 8.53551e-28)
(-0.00135241 0.093241 5.35281e-28)
(-0.000656105 0.0925586 2.98961e-28)
(0.0599734 0.000576787 1.39626e-28)
(0.0598628 0.00246288 -5.64398e-28)
(0.0597985 0.0054835 2.11148e-27)
(0.0596349 0.00957964 1.50851e-27)
(0.0594079 0.0148671 -8.08847e-28)
(0.0591661 0.0219868 6.67584e-27)
(0.0589808 0.0315375 0)
(0.058477 0.043628 0)
(0.0588442 0.0606759 0)
(0.060399 0.080609 1.21501e-27)
(0.0615542 0.0993688 7.87787e-27)
(0.0603005 0.112602 6.30497e-27)
(0.055071 0.117287 -6.84185e-27)
(0.0467812 0.115336 0)
(0.038169 0.11152 2.73396e-27)
(0.0306553 0.108442 0)
(0.0242532 0.106122 -4.90748e-29)
(0.0187233 0.104296 0)
(0.0139651 0.102694 1.65539e-27)
(0.00991417 0.101242 -4.35242e-27)
(0.00652459 0.0998679 1.7143e-29)
(0.00375738 0.0986393 -2.39333e-27)
(0.00156963 0.0975439 -1.73762e-27)
(-0.000128007 0.0966491 -1.44922e-27)
(-0.00132422 0.0958521 -3.98971e-27)
(-0.00196185 0.0949107 3.99476e-27)
(-0.00217316 0.0937987 1.32976e-27)
(-0.00187555 0.092841 -1.48033e-28)
(-0.000867122 0.0917893 0)
(0.0600358 0.000498649 0)
(0.0601381 0.00217388 0)
(0.0602851 0.00499449 9.42723e-28)
(0.0603485 0.00897829 -9.07855e-28)
(0.0603392 0.0140947 5.43842e-27)
(0.0602472 0.0210442 0)
(0.0601822 0.030632 1.79935e-27)
(0.0597864 0.0426737 0)
(0.0597652 0.0587539 7.98452e-27)
(0.0609978 0.0786126 6.53388e-28)
(0.0622705 0.0981794 1.69214e-26)
(0.0618507 0.113636 6.0502e-28)
(0.0579046 0.121003 -1.44337e-27)
(0.0502966 0.120552 0)
(0.0414879 0.116623 -3.21974e-27)
(0.0334518 0.112888 2.19254e-28)
(0.0265376 0.110043 2.45368e-29)
(0.0205989 0.10779 0)
(0.0154506 0.105826 3.69257e-28)
(0.0110493 0.10403 4.70268e-28)
(0.00734318 0.102321 -4.66759e-27)
(0.0043004 0.100744 -1.67836e-28)
(0.00187946 0.0993408 -4.66425e-28)
(-1.84556e-05 0.0980903 0)
(-0.00147377 0.0970381 -2.32752e-27)
(-0.00245075 0.0960972 2.66898e-31)
(-0.00294363 0.094921 7.17559e-27)
(-0.00302189 0.0934867 1.37286e-27)
(-0.00250026 0.0921439 -1.76884e-27)
(-0.00111793 0.0906204 0)
(0.0598596 0.000418803 0)
(0.0602156 0.00189054 0)
(0.0605384 0.00451509 7.73806e-28)
(0.0608415 0.00834995 8.18834e-28)
(0.0610457 0.0132948 3.68837e-27)
(0.061164 0.0201884 1.36318e-27)
(0.0611604 0.02979 0)
(0.060943 0.041963 0)
(0.0607095 0.0572131 8.29196e-27)
(0.0615839 0.0767493 0)
(0.0628603 0.0968195 1.02748e-26)
(0.0630123 0.114011 0)
(0.0602215 0.124043 3.55252e-28)
(0.0536072 0.125599 -3.86137e-28)
(0.0448393 0.122038 -1.29482e-26)
(0.0363693 0.117758 5.92794e-28)
(0.0289464 0.114329 8.0721e-28)
(0.0225425 0.111621 -3.61794e-28)
(0.0169995 0.109273 0)
(0.01221 0.107144 4.45512e-28)
(0.00815628 0.10508 0)
(0.00481118 0.103153 -2.40119e-27)
(0.00213857 0.101402 -1.34703e-28)
(5.81545e-05 0.0998316 2.54924e-28)
(-0.00157362 0.0984465 2.0329e-27)
(-0.00280543 0.0973012 -4.78152e-27)
(-0.00362464 0.0961884 6.08654e-27)
(-0.00404014 0.094771 2.83486e-27)
(-0.00402701 0.0929232 1.20944e-27)
(-0.00326203 0.091075 1.80227e-28)
(-0.00142682 0.088964 0)
(0.0594683 0.00033889 0)
(0.0600454 0.00159566 0)
(0.0605929 0.00405175 7.41067e-28)
(0.0610912 0.00770801 -1.43393e-27)
(0.0615418 0.0125307 2.60662e-27)
(0.0618326 0.0194467 -1.04266e-27)
(0.0619326 0.0291021 1.34107e-27)
(0.061829 0.0413827 0)
(0.0615488 0.0561109 -1.69294e-27)
(0.0621005 0.0751001 0)
(0.0633435 0.0954489 -8.57394e-28)
(0.0638683 0.113876 1.0467e-27)
(0.0620859 0.126368 0)
(0.0565491 0.130265 -1.30478e-28)
(0.0481956 0.127614 -4.80559e-27)
(0.039374 0.123004 0)
(0.0314718 0.119026 3.80788e-28)
(0.0245934 0.115775 0)
(0.018611 0.113071 -9.47898e-28)
(0.0134227 0.110591 0)
(0.00897269 0.10819 5.4462e-28)
(0.00528734 0.105884 -6.61038e-28)
(0.0023287 0.103735 0)
(6.0386e-05 0.101814 4.59979e-31)
(-0.00169678 0.100122 2.84856e-27)
(-0.00307931 0.098678 2.87576e-27)
(-0.00415052 0.097445 -3.24591e-27)
(-0.00490738 0.0962047 4.81907e-27)
(-0.00530625 0.0944256 0)
(-0.00526793 0.0920729 -8.81979e-27)
(-0.00421403 0.0895504 -8.17481e-28)
(-0.00180203 0.0867113 -2.57561e-27)
(0.0588427 0.000262776 0)
(0.0596491 0.0013152 0)
(0.0604077 0.00362751 6.98272e-28)
(0.061118 0.0070825 -1.9849e-27)
(0.061799 0.0117879 2.27062e-27)
(0.0622675 0.0188203 0)
(0.0624859 0.0285506 1.10107e-30)
(0.0624377 0.0408919 1.35388e-27)
(0.062238 0.0554274 0)
(0.0625149 0.07372 -6.3875e-27)
(0.0636784 0.0941386 9.76367e-27)
(0.0644509 0.113405 -1.11894e-27)
(0.0634789 0.128012 0)
(0.0591191 0.134417 -6.46082e-28)
(0.0514019 0.133177 5.95294e-27)
(0.0424872 0.128555 0)
(0.0341223 0.124074 9.14035e-28)
(0.0267587 0.120321 -5.84354e-28)
(0.0203237 0.117213 -9.01826e-28)
(0.0146748 0.114404 -5.63572e-28)
(0.0098226 0.11166 4.74134e-28)
(0.00573889 0.108971 6.72804e-28)
(0.00245823 0.106384 -2.53787e-27)
(-4.95794e-05 0.104036 -8.05846e-27)
(-0.00190384 0.102005 -2.64914e-28)
(-0.00335789 0.10028 7.87768e-27)
(-0.00455136 0.0988304 -8.93192e-28)
(-0.0055608 0.0975674 -5.70921e-28)
(-0.00635207 0.0960862 6.45056e-27)
(-0.00685644 0.0938644 1.39173e-26)
(-0.00677684 0.0908695 -1.07661e-27)
(-0.00536364 0.0874525 -8.78673e-27)
(-0.00228547 0.0837292 5.88692e-27)
(0.0579958 0.00019367 9.75195e-28)
(0.0590112 0.00107041 0)
(0.0599919 0.00321033 -3.0952e-36)
(0.0609084 0.00647401 -9.55944e-28)
(0.0617668 0.0111062 -6.21135e-29)
(0.062468 0.0183099 3.16452e-27)
(0.0627669 0.0281383 0)
(0.0628093 0.0405738 -1.99082e-27)
(0.0627062 0.0550355 1.41783e-27)
(0.0628153 0.072646 -3.34383e-27)
(0.0638352 0.0929251 1.02639e-26)
(0.0648186 0.112739 0)
(0.0644971 0.12906 -1.40435e-27)
(0.0612383 0.137941 9.55995e-27)
(0.0543971 0.13855 6.58556e-27)
(0.0456228 0.13433 0)
(0.0369182 0.129424 -4.26104e-28)
(0.0290771 0.125211 -3.83989e-28)
(0.0221522 0.121726 1.46666e-28)
(0.016049 0.118569 -1.30166e-27)
(0.010705 0.115508 0)
(0.00619586 0.112441 5.99524e-28)
(0.00252587 0.109412 -1.42749e-27)
(-0.000274796 0.106562 0)
(-0.00227299 0.104083 -9.47497e-27)
(-0.0037377 0.102043 1.11486e-28)
(-0.00491987 0.100377 0)
(-0.00602198 0.0989826 -5.98416e-28)
(-0.00708693 0.0976475 9.23443e-27)
(-0.00809382 0.095844 3.66296e-26)
(-0.00872332 0.0930055 8.29449e-27)
(-0.00868133 0.0892084 2.29918e-26)
(-0.00680698 0.0846298 0)
(-0.00276763 0.0796201 5.81931e-28)
(0.0569427 9.77893e-05 -2.67585e-29)
(0.0581543 0.000860288 1.52554e-27)
(0.0593351 0.00278055 -6.16012e-28)
(0.0604411 0.00593244 -7.5838e-28)
(0.061479 0.0105725 0)
(0.0623332 0.0179267 6.13848e-27)
(0.0627532 0.0279353 0)
(0.0629017 0.04049 -3.34384e-35)
(0.0628444 0.054898 2.38044e-27)
(0.0629784 0.0719099 6.6695e-27)
(0.0638247 0.0918351 7.13216e-27)
(0.064986 0.112022 1.17901e-27)
(0.0651501 0.129631 0)
(0.0629374 0.140806 8.07126e-27)
(0.0571126 0.143554 -2.09185e-31)
(0.0487084 0.140174 0)
(0.0398263 0.135051 7.72007e-29)
(0.0315573 0.130414 -4.6358e-28)
(0.0241544 0.126546 9.64436e-28)
(0.0175569 0.123104 5.30159e-28)
(0.0117202 0.119727 -9.24601e-28)
(0.00668651 0.116331 -9.68403e-28)
(0.00256099 0.112867 1.53694e-27)
(-0.000619975 0.109483 0)
(-0.00285246 0.106445 -5.87541e-27)
(-0.00431999 0.10394 5.89586e-27)
(-0.0053873 0.101994 0)
(-0.00638117 0.100467 9.72837e-27)
(-0.00752884 0.0992127 -6.36552e-27)
(-0.00887603 0.0977379 1.42755e-26)
(-0.0102806 0.0954567 -9.41559e-27)
(-0.0110742 0.0918116 4.73585e-27)
(-0.0108033 0.0865879 1.24341e-26)
(-0.00679673 0.0809363 -5.9036e-28)
(-0.00930867 0.0821341 0)
(-0.00168396 0.0758966 0)
(-0.00756639 0.0797919 0)
(-0.00475685 0.0758164 3.21374e-27)
(0.0556616 -4.79104e-06 0)
(0.0571096 0.000702037 2.84982e-28)
(0.0584064 0.00242219 -5.61969e-28)
(0.0597181 0.00551964 1.14064e-27)
(0.0608923 0.010214 3.66505e-28)
(0.0618397 0.0177156 4.60054e-27)
(0.0624063 0.0280005 3.71221e-27)
(0.0626904 0.0405849 4.22827e-27)
(0.0627433 0.0549542 0)
(0.0629118 0.07151 6.63321e-27)
(0.0636497 0.0909304 1.19455e-26)
(0.064916 0.11129 0)
(0.0654043 0.12974 -9.44705e-27)
(0.0641431 0.143024 0)
(0.0594788 0.148059 0)
(0.0516993 0.145947 6.36662e-27)
(0.0427913 0.140869 0)
(0.0342101 0.135891 8.48863e-29)
(0.0263422 0.131647 0)
(0.0192546 0.127949 5.56313e-32)
(0.0128829 0.124356 2.95615e-27)
(0.0073063 0.120633 0)
(0.00261207 0.116787 3.9369e-27)
(-0.0010635 0.112877 -9.9309e-28)
(-0.00363329 0.109192 0)
(-0.00521598 0.106049 -5.6933e-27)
(-0.00610026 0.103627 6.98574e-27)
(-0.00680125 0.101926 -6.26074e-27)
(-0.00775316 0.100724 1.00566e-26)
(-0.00920536 0.0996401 2.41978e-30)
(-0.011144 0.0978847 -3.63137e-27)
(-0.0131044 0.0948991 -3.58239e-26)
(-0.0126372 0.0890358 4.8e-27)
(-0.0141192 0.0910574 0)
(-0.0117574 0.0834892 -2.93482e-27)
(-0.0141894 0.0885211 6.33964e-27)
(-0.0138758 0.0851534 -2.70949e-27)
(-0.0103816 0.0806121 1.19617e-26)
(-0.00180079 0.0730186 1.82578e-27)
(-0.00825622 0.0768281 -1.13292e-26)
(-0.00537238 0.0730641 2.59099e-27)
(0.0541854 -7.94173e-05 -1.96608e-27)
(0.0558205 0.000569182 0)
(0.0572686 0.00219219 -2.19781e-27)
(0.0586974 0.00522766 -6.41383e-28)
(0.0599978 0.0100458 2.32651e-27)
(0.0609994 0.0177861 1.49594e-27)
(0.0616398 0.0283794 3.69162e-27)
(0.0619868 0.0409769 2.02169e-28)
(0.062234 0.0552743 0)
(0.062522 0.0714315 0)
(0.0632492 0.0902587 4.86561e-27)
(0.06455 0.110541 1.1189e-27)
(0.0654012 0.129649 -9.79134e-27)
(0.0649176 0.144587 -1.14757e-26)
(0.0614087 0.151966 0)
(0.054502 0.151494 8.95239e-27)
(0.0457874 0.146791 6.41991e-27)
(0.0369941 0.14157 1.11124e-28)
(0.0287555 0.136992 0)
(0.0211748 0.133071 0)
(0.0142717 0.129336 7.77646e-28)
(0.00807174 0.125387 4.55755e-27)
(0.00276221 0.121203 6.04269e-27)
(-0.00152952 0.116821 -1.00422e-26)
(-0.00462164 0.112453 2.59613e-27)
(-0.00643246 0.1085 0)
(-0.0072424 0.105377 1.11178e-27)
(-0.00749318 0.103222 -3.93681e-27)
(-0.00797199 0.102053 -7.60926e-27)
(-0.00916702 0.101389 -1.1001e-27)
(-0.0113814 0.100444 2.94421e-27)
(-0.0141874 0.0981438 -1.89774e-26)
(-0.0151807 0.0930437 -5.73379e-29)
(-0.0163469 0.095171 -4.81134e-27)
(-0.0159029 0.0903218 7.59066e-28)
(-0.0131524 0.0819011 -1.34459e-26)
(-0.0161157 0.0870924 8.71513e-27)
(-0.0156428 0.083551 -4.05353e-27)
(-0.011504 0.0780751 1.34861e-26)
(-0.00188652 0.0698887 1.92246e-27)
(-0.00911806 0.0740109 -1.18639e-26)
(-0.00597358 0.0699394 2.83802e-27)
(0.0525563 -0.000118764 -1.1375e-29)
(0.054302 0.000471555 -4.24789e-27)
(0.0559093 0.00207889 0)
(0.057389 0.00508825 -1.74356e-27)
(0.0588243 0.0100962 -2.60701e-27)
(0.059827 0.0181781 -1.08457e-27)
(0.0605155 0.0290033 -6.42954e-28)
(0.060917 0.0416607 4.22621e-27)
(0.0612642 0.0559343 4.61457e-28)
(0.0617147 0.0716445 0)
(0.062559 0.0898293 5.80981e-27)
(0.0639178 0.109849 5.01438e-27)
(0.0652548 0.129456 -1.45183e-27)
(0.0652634 0.145697 1.91741e-27)
(0.0628634 0.155199 -1.1478e-26)
(0.05701 0.156661 -1.0155e-26)
(0.0487471 0.152698 8.27751e-27)
(0.0398922 0.14738 5.88943e-27)
(0.0313673 0.142542 1.26369e-28)
(0.0233711 0.138413 -8.4551e-28)
(0.0159447 0.13458 0)
(0.00910552 0.13056 3.52763e-27)
(0.00307298 0.126164 -2.90561e-27)
(-0.00195835 0.121377 -1.02494e-26)
(-0.00573229 0.116357 -1.37956e-26)
(-0.00802515 0.111498 0)
(-0.00886417 0.107379 -3.54403e-28)
(-0.0087522 0.104439 2.86737e-27)
(-0.00834475 0.10295 -9.99199e-27)
(-0.00892413 0.102762 -2.23867e-27)
(-0.0109036 0.102703 0)
(-0.0143338 0.101698 1.57101e-27)
(-0.0167357 0.09724 -4.13125e-27)
(-0.0174266 0.0995118 2.65057e-27)
(-0.0173361 0.092443 1.21879e-26)
(-0.0184333 0.0947444 4.44047e-27)
(-0.0180476 0.0891893 1.50022e-27)
(-0.0146151 0.0795643 -6.96639e-27)
(-0.0180831 0.085545 3.46019e-27)
(-0.0175499 0.0813748 0)
(-0.0127388 0.075342 3.57456e-28)
(-0.00205684 0.0664159 0)
(-0.0100905 0.0709217 6.90239e-27)
(-0.00658359 0.0664326 3.04055e-27)
(0.0507789 -0.00011177 -1.80885e-29)
(0.0526012 0.000450694 1.8156e-28)
(0.054324 0.00206438 -4.29036e-27)
(0.0558947 0.0051256 -1.50534e-27)
(0.0573125 0.010391 -3.83801e-27)
(0.0583416 0.0189126 0)
(0.0590118 0.0299031 -8.47346e-28)
(0.0595211 0.0426324 3.78646e-27)
(0.0599723 0.0567846 4.8456e-27)
(0.0605509 0.0720702 0)
(0.0615426 0.0896171 5.8742e-27)
(0.0630508 0.109262 6.23887e-27)
(0.0647349 0.12905 1.48292e-27)
(0.0652147 0.146322 8.91657e-27)
(0.0638158 0.157764 2.24331e-27)
(0.0591374 0.161292 -1.12791e-26)
(0.0515829 0.158452 0)
(0.0428578 0.153243 7.51266e-27)
(0.034154 0.148228 5.0436e-27)
(0.0258348 0.14393 -2.3164e-27)
(0.0179383 0.140038 0)
(0.0105134 0.136063 0)
(0.00368784 0.131617 -5.89573e-27)
(-0.00221022 0.126592 -1.18311e-26)
(-0.00687502 0.121024 6.07519e-27)
(-0.00990093 0.115236 -1.7368e-26)
(-0.0111133 0.1099 -5.36871e-27)
(-0.0106543 0.105738 -1.92605e-28)
(-0.0094318 0.103418 6.9098e-27)
(-0.00853412 0.103185 -6.40585e-27)
(-0.00977991 0.104373 -7.67285e-27)
(-0.0132808 0.104783 -3.2403e-26)
(-0.017044 0.101689 8.19063e-28)
(-0.017201 0.103987 0)
(-0.0191807 0.0971893 5.24339e-27)
(-0.0196319 0.0997501 0)
(-0.0196679 0.0915321 2.96086e-26)
(-0.0209601 0.0941185 2.392e-26)
(-0.0203005 0.0878336 -2.85095e-27)
(-0.0162468 0.0769567 0)
(-0.0203223 0.0835371 -4.63093e-28)
(-0.0196024 0.0789205 0)
(-0.014083 0.0722984 3.73075e-27)
(-0.00224627 0.062587 0)
(-0.0111075 0.0674761 2.38386e-30)
(-0.00720081 0.0625514 0)
(0.0488754 -5.2658e-05 -1.24378e-27)
(0.0507546 0.000506644 1.60889e-28)
(0.0525119 0.00215273 0)
(0.0542083 0.0053245 -2.822e-27)
(0.0555609 0.0109921 2.35089e-32)
(0.0565441 0.0199771 -1.53245e-27)
(0.0571752 0.031104 0)
(0.0577572 0.0438701 -5.82159e-28)
(0.0583524 0.0578112 4.74346e-27)
(0.0590663 0.0726598 -3.21312e-28)
(0.0602178 0.0895786 -5.25499e-27)
(0.0618934 0.108778 0)
(0.0637681 0.128439 6.58135e-27)
(0.0649702 0.146488 3.72419e-27)
(0.0644101 0.159624 8.55839e-27)
(0.0608504 0.165281 2.50389e-27)
(0.0542001 0.163889 1.2252e-26)
(0.0458286 0.15906 0)
(0.0370958 0.153962 6.66617e-27)
(0.0285517 0.149547 -3.83153e-27)
(0.0202778 0.145654 0)
(0.0123268 0.141802 1.081e-27)
(0.00475701 0.137459 -5.54641e-27)
(-0.00209532 0.132404 -8.93803e-27)
(-0.0078406 0.126509 2.30598e-26)
(-0.011948 0.119914 -6.44007e-27)
(-0.0138665 0.113271 -1.46979e-27)
(-0.0135706 0.107464 -4.07578e-27)
(-0.0113308 0.103607 1.19534e-28)
(-0.00886089 0.102713 -2.08992e-27)
(-0.00810565 0.104371 -1.21596e-26)
(-0.0110068 0.107206 -5.46203e-26)
(-0.0159335 0.106103 3.85345e-29)
(-0.015371 0.108125 0)
(-0.019639 0.102385 -1.76153e-27)
(-0.0193805 0.105064 -4.01336e-27)
(-0.0218922 0.0969276 2.84699e-27)
(-0.0224398 0.0999005 3.22041e-27)
(-0.0221994 0.0904322 5.18183e-27)
(-0.0237583 0.0933446 4.57489e-27)
(-0.0228626 0.0860636 -1.31273e-27)
(-0.0180165 0.0740202 1.62449e-27)
(-0.0227652 0.0812614 5.165e-27)
(-0.0218235 0.0761462 -2.58933e-28)
(-0.0155029 0.0688942 -1.75131e-26)
(-0.00244495 0.0583913 0)
(-0.0121405 0.0636635 -6.51649e-27)
(-0.00782249 0.0582982 0)
(0.0469016 1.75383e-05 -1.27285e-27)
(0.0488097 0.000624953 -1.16682e-27)
(0.0505748 0.00237389 1.17172e-27)
(0.0522535 0.00568354 0)
(0.0536058 0.0119448 9.63047e-28)
(0.054474 0.0213202 0)
(0.0550761 0.0325854 0)
(0.0556678 0.0453053 -3.26105e-27)
(0.0564152 0.0590021 4.4178e-27)
(0.0572756 0.0734294 4.96119e-27)
(0.0585988 0.0896838 -1.21985e-26)
(0.0604321 0.108343 -5.4134e-27)
(0.062568 0.127809 5.31347e-27)
(0.0644044 0.146393 1.79857e-27)
(0.0646095 0.160923 2.22444e-27)
(0.0621705 0.168556 -2.52688e-27)
(0.0565416 0.168858 1.21269e-26)
(0.0487335 0.164713 1.19375e-26)
(0.0401489 0.159649 -1.90294e-28)
(0.0315062 0.155161 -5.74879e-27)
(0.0229764 0.151334 2.81569e-27)
(0.0145874 0.147648 -1.00971e-27)
(0.00638785 0.143588 -5.37671e-27)
(-0.0014293 0.138719 8.08054e-27)
(-0.00838952 0.132781 0)
(-0.0138509 0.125658 0)
(-0.0170077 0.1178 8.05113e-27)
(-0.0174253 0.110203 1.48969e-26)
(-0.014988 0.104184 0)
(-0.0105474 0.101416 -1.09564e-26)
(-0.00737485 0.103107 -1.36681e-26)
(-0.00806694 0.107772 -2.40331e-26)
(-0.0132286 0.109883 2.04007e-27)
(-0.0119327 0.111159 -7.2143e-28)
(-0.0184605 0.107705 -4.32449e-27)
(-0.0172259 0.110222 0)
(-0.0225786 0.103023 0)
(-0.0223019 0.106262 -2.74585e-27)
(-0.0249532 0.0965519 1.46674e-26)
(-0.0257004 0.0999755 0)
(-0.0250868 0.0889687 1.12122e-26)
(-0.0269657 0.0922723 -1.9208e-26)
(-0.0256892 0.0840281 0)
(-0.0198917 0.0707084 0)
(-0.0254161 0.0786704 4.75074e-27)
(-0.0241794 0.0729827 3.30832e-28)
(-0.0169747 0.0651166 -8.23595e-27)
(-0.00265077 0.0538321 0)
(-0.0131789 0.0594685 0)
(-0.00843497 0.0536657 0)
(0.0448546 9.19235e-05 0)
(0.0468118 0.000783575 -2.36555e-27)
(0.0486009 0.00269865 -8.13355e-28)
(0.0501325 0.0062485 1.16769e-27)
(0.0514602 0.0132129 1.07468e-28)
(0.0521573 0.0229129 8.42638e-28)
(0.0527616 0.0342984 2.14095e-27)
(0.0533642 0.0468959 -5.26453e-27)