/*--------------------------------*- C++ -*----------------------------------*\
  =========                 |
  \\      /  F ield         | OpenFOAM: The Open Source CFD Toolbox
   \\    /   O peration     | Website:  https://openfoam.org
    \\  /    A nd           | Version:  dev
     \\/     M anipulation  |
\*---------------------------------------------------------------------------*/
FoamFile
{
    version     2.0;
    format      ascii;
    class       volScalarField;
    location    "2500";
    object      a;
}
// * * * * * * * * * * * * * * * * * * * * * * * * * * * * * * * * * * * * * //

dimensions      [0 -1 0 0 0 0 0];

internalField   nonuniform List<scalar> 
9842
(
0.100011
0.100011
0.100011
0.100011
0.100011
0.100011
0.100011
0.100011
0.100011
0.100011
0.10001
0.100011
0.100011
0.100011
0.100011
0.10001
0.10001
0.100011
0.100011
0.100011
0.100011
0.10001
0.10001
0.10001
0.100011
0.100011
0.100011
0.100011
0.10001
0.10001
0.10001
0.10001
0.100011
0.100011
0.100011
0.100011
0.100009
0.10001
0.10001
0.10001
0.10001
0.100011
0.100011
0.100011
0.100011
0.100009
0.100009
0.10001
0.10001
0.10001
0.10001
0.100011
0.100011
0.100011
0.100011
0.100009
0.100009
0.100009
0.10001
0.10001
0.10001
0.10001
0.100011
0.100011
0.100011
0.100011
0.100009
0.100009
0.100009
0.100009
0.10001
0.10001
0.10001
0.10001
0.100011
0.100011
0.100011
0.100011
0.100009
0.100009
0.100009
0.100009
0.100009
0.10001
0.10001
0.10001
0.10001
0.100011
0.100011
0.100011
0.100011
0.100008
0.100009
0.100009
0.100009
0.100009
0.100009
0.10001
0.10001
0.10001
0.10001
0.100011
0.100011
0.100011
0.100011
0.100008
0.100008
0.100009
0.100009
0.100009
0.100009
0.100009
0.10001
0.10001
0.10001
0.10001
0.100011
0.100011
0.100011
0.100011
0.100008
0.100008
0.100008
0.100009
0.100009
0.100009
0.100009
0.100009
0.10001
0.10001
0.10001
0.10001
0.100011
0.100011
0.100011
0.100011
0.100008
0.100008
0.100008
0.100008
0.100009
0.100009
0.100009
0.100009
0.100009
0.10001
0.10001
0.10001
0.10001
0.100011
0.100011
0.100011
0.100011
0.100007
0.100008
0.100008
0.100008
0.100008
0.100008
0.100009
0.100009
0.100009
0.100009
0.10001
0.10001
0.10001
0.10001
0.100011
0.100011
0.100011
0.100011
0.100007
0.100007
0.100008
0.100008
0.100008
0.100008
0.100008
0.100009
0.100009
0.100009
0.100009
0.10001
0.10001
0.10001
0.10001
0.100011
0.100011
0.100011
0.100011
0.100007
0.100007
0.100007
0.100008
0.100008
0.100008
0.100008
0.100008
0.100009
0.100009
0.100009
0.100009
0.10001
0.10001
0.10001
0.10001
0.100011
0.100011
0.100011
0.100011
0.100007
0.100007
0.100007
0.100007
0.100008
0.100008
0.100008
0.100008
0.100008
0.100009
0.100009
0.100009
0.100009
0.10001
0.10001
0.10001
0.10001
0.100011
0.100011
0.100011
0.100011
0.100006
0.100007
0.100007
0.100007
0.100007
0.100008
0.100008
0.100008
0.100008
0.100008
0.100009
0.100009
0.100009
0.100009
0.10001
0.10001
0.10001
0.10001
0.100011
0.100011
0.100011
0.100011
0.100006
0.100006
0.100007
0.100007
0.100007
0.100007
0.100008
0.100008
0.100008
0.100008
0.100008
0.100009
0.100009
0.100009
0.100009
0.10001
0.10001
0.10001
0.10001
0.100011
0.100011
0.100011
0.100011
0.100006
0.100006
0.100006
0.100007
0.100007
0.100007
0.100007
0.100008
0.100008
0.100008
0.100008
0.100008
0.100009
0.100009
0.100009
0.100009
0.10001
0.10001
0.10001
0.10001
0.100011
0.100011
0.100011
0.100011
0.100006
0.100006
0.100006
0.100006
0.100007
0.100007
0.100007
0.100007
0.100008
0.100008
0.100008
0.100008
0.100008
0.100009
0.100009
0.100009
0.100009
0.10001
0.10001
0.10001
0.10001
0.100011
0.100011
0.100011
0.100011
0.100006
0.100006
0.100006
0.100006
0.100006
0.100007
0.100007
0.100007
0.100007
0.100008
0.100008
0.100008
0.100008
0.100008
0.100009
0.100009
0.100009
0.100009
0.10001
0.10001
0.10001
0.10001
0.100011
0.100011
0.100011
0.100011
0.100005
0.100006
0.100006
0.100006
0.100006
0.100006
0.100007
0.100007
0.100007
0.100007
0.100008
0.100008
0.100008
0.100008
0.100008
0.100009
0.100009
0.100009
0.100009
0.10001
0.10001
0.10001
0.10001
0.100011
0.100011
0.100011
0.100011
0.100005
0.100005
0.100006
0.100006
0.100006
0.100006
0.100006
0.100007
0.100007
0.100007
0.100007
0.100008
0.100008
0.100008
0.100008
0.100008
0.100009
0.100009
0.100009
0.100009
0.10001
0.10001
0.10001
0.10001
0.100011
0.100011
0.100011
0.100011
0.100005
0.100005
0.100005
0.100006
0.100006
0.100006
0.100006
0.100006
0.100007
0.100007
0.100007
0.100007
0.100008
0.100008
0.100008
0.100008
0.100008
0.100009
0.100009
0.100009
0.100009
0.10001
0.10001
0.10001
0.10001
0.100011
0.100011
0.100011
0.100011
0.100005
0.100005
0.100005
0.100005
0.100006
0.100006
0.100006
0.100006
0.100006
0.100007
0.100007
0.100007
0.100007
0.100008
0.100008
0.100008
0.100008
0.100008
0.100009
0.100009
0.100009
0.100009
0.10001
0.10001
0.10001
0.10001
0.100011
0.100011
0.100011
0.100011
0.100004
0.100005
0.100005
0.100005
0.100005
0.100006
0.100006
0.100006
0.100006
0.100006
0.100007
0.100007
0.100007
0.100007
0.100008
0.100008
0.100008
0.100008
0.100008
0.100009
0.100009
0.100009
0.100009
0.10001
0.10001
0.10001
0.10001
0.100011
0.100011
0.100011
0.100011
0.100004
0.100004
0.100005
0.100005
0.100005
0.100005
0.100006
0.100006
0.100006
0.100006
0.100006
0.100007
0.100007
0.100007
0.100007
0.100008
0.100008
0.100008
0.100008
0.100008
0.100009
0.100009
0.100009
0.100009
0.10001
0.10001
0.10001
0.10001
0.100011
0.100011
0.100011
0.100011
0.100004
0.100004
0.100004
0.100005
0.100005
0.100005
0.100005
0.100006
0.100006
0.100006
0.100006
0.100006
0.100007
0.100007
0.100007
0.100007
0.100008
0.100008
0.100008
0.100008
0.100008
0.100009
0.100009
0.100009
0.100009
0.10001
0.10001
0.10001
0.10001
0.100011
0.100011
0.100011
0.100011
0.100004
0.100004
0.100004
0.100004
0.100005
0.100005
0.100005
0.100005
0.100006
0.100006
0.100006
0.100006
0.100006
0.100007
0.100007
0.100007
0.100007
0.100008
0.100008
0.100008
0.100008
0.100008
0.100009
0.100009
0.100009
0.100009
0.10001
0.10001
0.10001
0.10001
0.100011
0.100011
0.100011
0.100011
0.100011
0.100004
0.100004
0.100004
0.100004
0.100004
0.100005
0.100005
0.100005
0.100005
0.100006
0.100006
0.100006
0.100006
0.100006
0.100007
0.100007
0.100007
0.100007
0.100008
0.100008
0.100008
0.100008
0.100008
0.100009
0.100009
0.100009
0.100009
0.10001
0.10001
0.10001
0.10001
0.100011
0.100011
0.100011
0.100011
0.100011
0.100011
0.100003
0.100004
0.100004
0.100004
0.100004
0.100004
0.100005
0.100005
0.100005
0.100005
0.100006
0.100006
0.100006
0.100006
0.100006
0.100007
0.100007
0.100007
0.100007
0.100008
0.100008
0.100008
0.100008
0.100008
0.100009
0.100009
0.100009
0.100009
0.10001
0.10001
0.10001
0.10001
0.100011
0.10001
0.100011
0.100011
0.100011
0.100011
0.100011
0.100011
0.100011
0.100003
0.100003
0.100004
0.100004
0.100004
0.100004
0.100004
0.100005
0.100005
0.100005
0.100005
0.100006
0.100006
0.100006
0.100006
0.100006
0.100007
0.100007
0.100007
0.100007
0.100008
0.100008
0.100008
0.100008
0.100008
0.100009
0.100009
0.100009
0.100009
0.10001
0.10001
0.10001
0.10001
0.10001
0.10001
0.100011
0.100011
0.100011
0.100011
0.100011
0.100011
0.100011
0.100003
0.100003
0.100003
0.100004
0.100004
0.100004
0.100004
0.100004
0.100005
0.100005
0.100005
0.100005
0.100006
0.100006
0.100006
0.100006
0.100006
0.100007
0.100007
0.100007
0.100007
0.100008
0.100008
0.100008
0.100008
0.100008
0.100009
0.100009
0.100009
0.100009
0.10001
0.10001
0.10001
0.10001
0.10001
0.10001
0.10001
0.100011
0.100011
0.100011
0.100011
0.100011
0.100011
0.100011
0.100003
0.100003
0.100003
0.100003
0.100004
0.100004
0.100004
0.100004
0.100004
0.100005
0.100005
0.100005
0.100005
0.100006
0.100006
0.100006
0.100006
0.100006
0.100007
0.100007
0.100007
0.100007
0.100008
0.100008
0.100008
0.100008
0.100009
0.100009
0.100009
0.100009
0.100009
0.10001
0.10001
0.10001
0.10001
0.10001
0.10001
0.10001
0.10001
0.100011
0.100011
0.100011
0.100011
0.100011
0.100011
0.100011
0.100002
0.100003
0.100003
0.100003
0.100003
0.100004
0.100004
0.100004
0.100004
0.100004
0.100005
0.100005
0.100005
0.100005
0.100006
0.100006
0.100006
0.100006
0.100006
0.100007
0.100007
0.100007
0.100007
0.100008
0.100008
0.100008
0.100008
0.100009
0.100009
0.100009
0.100009
0.100009
0.10001
0.10001
0.10001
0.10001
0.10001
0.10001
0.10001
0.10001
0.10001
0.100011
0.100011
0.100011
0.100011
0.100011
0.100011
0.100011
0.100002
0.100002
0.100003
0.100003
0.100003
0.100003
0.100004
0.100004
0.100004
0.100004
0.100004
0.100005
0.100005
0.100005
0.100005
0.100006
0.100006
0.100006
0.100006
0.100006
0.100007
0.100007
0.100008
0.100008
0.100008
0.100009
0.100009
0.100009
0.100009
0.100009
0.10001
0.10001
0.10001
0.10001
0.10001
0.10001
0.10001
0.10001
0.10001
0.10001
0.10001
0.10001
0.10001
0.100011
0.100011
0.100011
0.100011
0.100011
0.100011
0.100011
0.100002
0.100002
0.100002
0.100003
0.100003
0.100003
0.100003
0.100004
0.100004
0.100004
0.100004
0.100004
0.100005
0.100005
0.100005
0.100005
0.100006
0.100006
0.100006
0.100006
0.100007
0.100008
0.100009
0.100011
0.100012
0.100011
0.100012
0.100012
0.100012
0.100012
0.100012
0.100012
0.10001
0.100011
0.10001
0.100011
0.10001
0.100011
0.10001
0.100011
0.10001
0.100011
0.10001
0.100011
0.100011
0.100011
0.100011
0.100011
0.100011
0.100011
0.100011
0.100011
0.100002
0.100002
0.100002
0.100002
0.100003
0.100003
0.100003
0.100003
0.100004
0.100004
0.100004
0.100004
0.100004
0.100005
0.100005
0.100005
0.100005
0.100006
0.100006
0.100007
0.100008
0.100011
0.100018
0.100025
0.100026
0.100024
0.100024
0.100024
0.100024
0.100025
0.100027
0.100028
0.100014
0.100022
0.100013
0.100018
0.100013
0.100019
0.100014
0.100021
0.100013
0.100022
0.100012
0.100018
0.100011
0.100014
0.100011
0.100011
0.100012
0.100012
0.100011
0.100011
0.100011
0.100011
0.100001
0.100002
0.100002
0.100002
0.100002
0.100003
0.100003
0.100003
0.100003
0.100004
0.100004
0.100004
0.100004
0.100004
0.100005
0.100005
0.100005
0.100005
0.100006
0.100008
0.100013
0.100026
0.100054
0.100073
0.100075
0.100075
0.100075
0.100073
0.100074
0.100093
0.100128
0.10014
0.100043
0.100103
0.100031
0.100065
0.100032
0.100069
0.100041
0.100094
0.100048
0.100126
0.100043
0.100125
0.100028
0.100088
0.100016
0.100043
0.100018
0.100011
0.100019
0.100018
0.100011
0.100011
0.100011
0.100011
0.100001
0.100001
0.100002
0.100002
0.100002
0.100002
0.100003
0.100003
0.100003
0.100003
0.100004
0.100004
0.100004
0.100004
0.100004
0.100005
0.100005
0.100005
0.100006
0.100011
0.100028
0.100081
0.100166
0.100215
0.100253
0.100269
0.100264
0.100252
0.100269
0.100385
0.100658
0.100938
0.100438
0.100083
0.100152
0.10038
0.100159
0.100373
0.100218
0.100516
0.100336
0.10086
0.100384
0.101093
0.100315
0.101027
0.100171
0.100691
0.100062
0.100294
0.100078
0.100016
0.100085
0.100074
0.100011
0.100013
0.100011
0.100011
0.100001
0.100001
0.100001
0.100002
0.100002
0.100002
0.100002
0.100003
0.100003
0.100003
0.100003
0.100004
0.100004
0.100004
0.100004
0.100004
0.100005
0.100005
0.100008
0.100021
0.100076
0.100229
0.10045
0.10066
0.10084
0.100916
0.100904
0.100878
0.10104
0.101664
0.103002
0.104696
0.106185
0.101047
0.103902
0.100864
0.102014
0.101199
0.102685
0.102061
0.104566
0.102855
0.10681
0.102989
0.107749
0.102387
0.106937
0.101302
0.104694
0.100444
0.102127
0.100564
0.100051
0.100607
0.10052
0.100012
0.10003
0.100011
0.100011
0.100001
0.100001
0.100001
0.100001
0.100002
0.100002
0.100002
0.100002
0.100003
0.100003
0.100003
0.100003
0.100004
0.100004
0.100004
0.100004
0.100005
0.100006
0.100011
0.100043
0.100187
0.100583
0.101212
0.101993
0.102624
0.102903
0.102881
0.102906
0.104057
0.107319
0.111682
0.11657
0.123617
0.119353
0.130318
0.104449
0.110449
0.105563
0.111671
0.109547
0.118156
0.114906
0.127881
0.117843
0.135671
0.11733
0.138316
0.113835
0.133735
0.107942
0.123634
0.10303
0.111848
0.103711
0.100339
0.103928
0.103408
0.100017
0.100158
0.100011
0.100013
0.100001
0.100001
0.100001
0.100001
0.100001
0.100002
0.100002
0.100002
0.100002
0.100003
0.100003
0.100003
0.100003
0.100004
0.100004
0.100004
0.100004
0.100006
0.100018
0.100086
0.100415
0.101353
0.103157
0.105535
0.107479
0.108426
0.108379
0.108819
0.113592
0.125259
0.137784
0.145783
0.153197
0.145671
0.162686
0.144594
0.159515
0.120144
0.131662
0.129094
0.14244
0.143502
0.160457
0.157777
0.180988
0.166896
0.198141
0.167864
0.206973
0.156939
0.2037
0.135492
0.183906
0.115648
0.147866
0.118334
0.10232
0.119
0.116794
0.100054
0.101109
0.100012
0.100021
0.1
0.100001
0.100001
0.100001
0.100001
0.100001
0.100002
0.100002
0.100002
0.100002
0.100003
0.100003
0.100003
0.100003
0.100004
0.100004
0.100004
0.100006
0.100027
0.100167
0.100812
0.102926
0.107489
0.113502
0.11872
0.120885
0.120758
0.122725
0.134584
0.15994
0.184041
0.194476
0.194012
0.183479
0.197263
0.175129
0.194186
0.18576
0.201247
0.156548
0.171014
0.17751
0.194866
0.203749
0.225474
0.22886
0.257376
0.246243
0.283389
0.252479
0.29849
0.242685
0.2992
0.211407
0.280103
0.158531
0.236237
0.165291
0.112166
0.166184
0.159768
0.100339
0.106532
0.100013
0.100097
0.1
0.1
0.100001
0.100001
0.100001
0.100001
0.100001
0.100002
0.100002
0.100002
0.100002
0.100003
0.100003
0.100003
0.100003
0.100004
0.100004
0.100007
0.100038
0.100275
0.101442
0.105577
0.114645
0.126065
0.133993
0.13592
0.135674
0.14006
0.15956
0.195471
0.233946
0.25724
0.259079
0.253308
0.210564
0.240343
0.217228
0.23511
0.242302
0.257415
0.211469
0.227145
0.2458
0.265009
0.283373
0.306727
0.31688
0.346068
0.34005
0.376673
0.350286
0.394562
0.343158
0.397299
0.313197
0.381031
0.254718
0.339872
0.264407
0.146542
0.263425
0.250082
0.102448
0.129903
0.100033
0.101019
0.1
0.1
0.100001
0.100001
0.100001
0.100001
0.100001
0.100002
0.100002
0.100002
0.100002
0.100003
0.100003
0.100003
0.100003
0.100004
0.100007
0.100047
0.100377
0.10224
0.109184
0.123961
0.140779
0.150424
0.151964
0.151191
0.158186
0.183562
0.230526
0.279769
0.31214
0.3282
0.323825
0.2969
0.323749
0.253296
0.275428
0.272636
0.288611
0.312466
0.326158
0.282377
0.298002
0.327927
0.346713
0.37154
0.393388
0.407722
0.433065
0.431625
0.462372
0.442274
0.478406
0.436018
0.480746
0.410431
0.466997
0.357403
0.431983
0.366056
0.225632
0.364724
0.352436
0.115311
0.193148
0.100624
0.110174
0.1
0.1
0.100001
0.100001
0.100001
0.100001
0.100001
0.100002
0.100002
0.100002
0.100002
0.100003
0.100003
0.100003
0.100003
0.100006
0.100049
0.100433
0.102916
0.112767
0.133649
0.155956
0.167294
0.168273
0.16734
0.175775
0.206827
0.258614
0.3011
0.331729
0.357307
0.377335
0.349644
0.377915
0.343639
0.365565
0.305587
0.323932
0.339192
0.352108
0.389189
0.399868
0.362948
0.376956
0.412481
0.428204
0.4543
0.471149
0.485725
0.50219
0.504009
0.519633
0.511507
0.528143
0.508039
0.53145
0.487155
0.525552
0.444887
0.500729
0.449842
0.328983
0.446911
0.437079
0.387787
0.163383
0.295804
0.114136
0.164744
0.1
0.1
0.100001
0.100001
0.100001
0.100001
0.100001
0.100002
0.100002
0.100002
0.100002
0.100003
0.100003
0.100003
0.100005
0.100043
0.100431
0.103259
0.115507
0.142409
0.170591
0.184097
0.184715
0.18335
0.193032
0.225381
0.268355
0.297864
0.324649
0.35073
0.380242
0.415501
0.387327
0.413718
0.394061
0.409703
0.365546
0.379368
0.409216
0.417814
0.459449
0.465214
0.441186
0.451565
0.484439
0.493432
0.513025
0.519238
0.52859
0.533179
0.5361
0.539097
0.540736
0.542867
0.543283
0.547627
0.536157
0.549516
0.508193
0.5423
0.525663
0.479902
0.509096
0.426239
0.363776
0.418551
0.472358
0.506721
0.506167
0.468509
0.215515
0.279252
0.404835
0.397585
0.343546
0.209074
0.28115
0.248105
0.297892
0.1
0.1
0.100001
0.100001
0.100001
0.100001
0.100001
0.100002
0.100002
0.100002
0.100002
0.100003
0.100003
0.100004
0.100028
0.100369
0.103198
0.116778
0.149016
0.183876
0.200508
0.201255
0.199534
0.209496
0.239884
0.267187
0.2871
0.301925
0.317631
0.349162
0.397407
0.444785
0.437813
0.426037
0.439746
0.442336
0.450945
0.426061
0.434148
0.469358
0.472399
0.502221
0.50179
0.498852
0.501726
0.52268
0.522516
0.534629
0.533601
0.53975
0.538422
0.541361
0.538049
0.544265
0.535281
0.550738
0.549638
0.545995
0.537723
0.550182
0.554307
0.548362
0.548252
0.553678
0.543095
0.528327
0.546729
0.5533
0.529951
0.461328
0.452114
0.501753
0.528036
0.530053
0.496883
0.341868
0.443354
0.437064
0.393096
0.153138
0.20717
0.325408
0.352819
0.367122
0.1
0.1
0.100001
0.100001
0.100001
0.100001
0.100001
0.100002
0.100002
0.100002
0.100002
0.100003
0.100003
0.100016
0.100252
0.102746
0.116634
0.15235
0.194761
0.216192
0.217626
0.215615
0.225459
0.248748
0.264756
0.272441
0.265068
0.244043
0.253436
0.30951
0.394891
0.462476
0.453134
0.459338
0.463635
0.479529
0.481931
0.474909
0.477218
0.500919
0.500034
0.514732
0.51141
0.520936
0.518253
0.531702
0.527674
0.535653
0.530076
0.53161
0.522891
0.521102
0.506132
0.527827
0.51565
0.505289
0.493419
0.542291
0.531089
0.517586
0.556066
0.554365
0.53754
0.532653
0.546604
0.554995
0.547063
0.556403
0.557438
0.547655
0.490237
0.482789
0.52486
0.547182
0.545657
0.52049
0.396996
0.475862
0.470892
0.435022
0.105015
0.138278
0.29689
0.406087
0.376896
0.1
0.1
0.100001
0.100001
0.100001
0.100001
0.100001
0.100002
0.100002
0.100002
0.100002
0.100003
0.100009
0.10016
0.101864
0.114831
0.152411
0.201793
0.2305
0.23371
0.230823
0.239633
0.254212
0.261905
0.259509
0.231482
0.1859
0.181074
0.219023
0.281996
0.416608
0.355076
0.476204
0.458515
0.482928
0.481915
0.499212
0.498692
0.49962
0.49944
0.508666
0.507183
0.509074
0.50493
0.521502
0.51508
0.520697
0.509239
0.511113
0.496265
0.490726
0.474666
0.483777
0.472685
0.463637
0.453085
0.503413
0.489363
0.475963
0.463029
0.523156
0.506687
0.489516
0.554259
0.544081
0.515085
0.50734
0.527635
0.558475
0.557194
0.559436
0.554163
0.557877
0.514935
0.50877
0.543283
0.558148
0.557899
0.539907
0.437579
0.502907
0.49806
0.468605
0.100633
0.234995
0.116066
0.42769
0.353154
0.1
0.1
0.100001
0.100001
0.100001
0.100001
0.100001
0.100002
0.100002
0.100002
0.100002
0.100005
0.100082
0.101059
0.110839
0.149305
0.203673
0.242068
0.248381
0.24581
0.250954
0.256914
0.259225
0.247686
0.20635
0.152413
0.139872
0.163298
0.2117
0.272271
0.408799
0.347965
0.483567
0.457381
0.497631
0.494014
0.507073
0.50658
0.506912
0.50708
0.503177
0.503448
0.483835
0.483307
0.498238
0.489395
0.480216
0.464704
0.45525
0.437254
0.444546
0.435237
0.428253
0.421211
0.451204
0.439633
0.429369
0.419671
0.472606
0.456555
0.441799
0.428611
0.495582
0.475297
0.455403
0.541713
0.523034
0.484857
0.475047
0.500228
0.554154
0.560305
0.554529
0.540006
0.561316
0.53543
0.530191
0.556917
0.562305
0.563447
0.554986
0.463034
0.524674
0.518713
0.492674
0.10042
0.196399
0.11196
0.430813
0.3325
0.1
0.1
0.100001
0.100001
0.100001
0.100001
0.100001
0.100002
0.100002
0.100002
0.100003
0.100035
0.100624
0.106898
0.140361
0.201932
0.248617
0.260785
0.258881
0.259055
0.259685
0.256438
0.235679
0.187479
0.135874
0.119438
0.129808
0.174294
0.25206
0.302526
0.286697
0.400908
0.344312
0.485386
0.452258
0.50491
0.499529
0.508835
0.508844
0.504743
0.507185
0.485004
0.489526
0.447314
0.450652
0.453452
0.447432
0.423848
0.415232
0.408751
0.407631
0.411937
0.406117
0.404019
0.404116
0.416958
0.406931
0.399059
0.394521
0.437113
0.421118
0.407702
0.396873
0.461546
0.439154
0.419275
0.519249
0.4942
0.449159
0.438893
0.466682
0.539245
0.555732
0.539584
0.516606
0.557679
0.551969
0.547589
0.564316
0.560593
0.563914
0.564593
0.477224
0.541816
0.534357
0.509251
0.100269
0.18211
0.109499
0.430849
0.323147
0.1
0.1
0.100001
0.100001
0.100001
0.100001
0.100001
0.100002
0.100002
0.100002
0.100014
0.100298
0.10378
0.128818
0.194011
0.249423
0.269845
0.268719
0.265381
0.262098
0.252263
0.222948
0.169996
0.126134
0.110241
0.112305
0.138759
0.236691
0.317677
0.322089
0.324505
0.396008
0.347693
0.483151
0.445837
0.507191
0.500599
0.506989
0.507989
0.496148
0.502655
0.459214
0.471316
0.404408
0.413299
0.407806
0.402884
0.40654
0.405124
0.413757
0.42209
0.435967
0.429219
0.393776
0.39542
0.399747
0.405861
0.389087
0.385453
0.385684
0.388884
0.402869
0.390162
0.38151
0.3778
0.424956
0.404279
0.388258
0.489539
0.460113
0.413443
0.404878
0.430941
0.515421
0.541401
0.515999
0.486551
0.545116
0.563832
0.561372
0.567234
0.550748
0.557947
0.570092
0.487584
0.555816
0.547521
0.522352
0.100233
0.175481
0.109309
0.433899
0.324737
0.1
0.1
0.100001
0.100001
0.100001
0.100001
0.100001
0.100002
0.100002
0.100006
0.100123
0.101762
0.117925
0.176633
0.246395
0.274577
0.276317
0.271231
0.263453
0.245584
0.20799
0.153595
0.118655
0.105893
0.104448
0.114602
0.168982
0.278602
0.361535
0.350618
0.351725
0.355696
0.396932
0.362525
0.478514
0.441102
0.506417
0.499095
0.502787
0.505281
0.484067
0.495251
0.428675
0.447493
0.372945
0.373807
0.396553
0.385279
0.439113
0.440439
0.451421
0.447633
0.461957
0.484253
0.474561
0.395078
0.405255
0.417839
0.432453
0.378252
0.382412
0.390737
0.403515
0.377326
0.371799
0.371515
0.375689
0.392678
0.377767
0.368992
0.455546
0.425379
0.384304
0.37897
0.399002
0.485571
0.518917
0.487023
0.453253
0.524977
0.571586
0.571408
0.565901
0.534278
0.546508
0.572836
0.498608
0.568125
0.56026
0.535505
0.101807
0.178457
0.120283
0.444227
0.340345
0.1
0.1
0.100001
0.100001
0.100001
0.100001
0.100001
0.100002
0.100003
0.100045
0.100795
0.109593
0.155053
0.235423
0.274833
0.281991
0.276291
0.263204
0.236946
0.190744
0.138976
0.113529
0.10369
0.101553
0.104316
0.12134
0.175369
0.265923
0.377594
0.347737
0.385488
0.384785
0.407936
0.388987
0.474322
0.440991
0.503866
0.49595
0.493884
0.49866
0.466485
0.482698
0.389625
0.412931
0.364602
0.342637
0.429335
0.397149
0.487964
0.486626
0.541833
0.529842
0.500798
0.518645
0.543475
0.533118
0.419645
0.438777
0.459452
0.480475
0.384675
0.398646
0.416948
0.43871
0.367048
0.369147
0.377436
0.391342
0.370541
0.364778
0.364981
0.422159
0.395543
0.366472
0.365018
0.375615
0.453479
0.491684
0.456814
0.421573
0.500737
0.577439
0.579401
0.560542
0.514336
0.532626
0.57347
0.512023
0.578335
0.571675
0.548206
0.140289
0.21358
0.182464
0.465067
0.384842
0.1
0.1
0.100001
0.100001
0.100001
0.100001
0.100001
0.100002
0.100016
0.1004
0.104391
0.134133
0.211125
0.271708
0.284726
0.280492
0.262779
0.22933
0.175673
0.130561
0.110243
0.102928
0.100959
0.101087
0.105303
0.121902
0.152454
0.247394
0.170005
0.372668
0.315219
0.410638
0.398511
0.428169
0.417377
0.472468
0.448208
0.497925
0.491021
0.475095
0.483718
0.437603
0.459211
0.342785
0.363579
0.389694
0.332013
0.513088
0.487424
0.460901
0.547914
0.547534
0.586899
0.573924
0.558249
0.575461
0.595819
0.588172
0.462838
0.488336
0.513537
0.537156
0.410176
0.43306
0.45923
0.487088
0.371128
0.383081
0.400788
0.423624
0.363437
0.36555
0.37526
0.394432
0.374417
0.363119
0.363254
0.364697
0.423931
0.464277
0.430235
0.396179
0.476995
0.582216
0.586441
0.55398
0.495632
0.520866
0.573165
0.527404
0.586904
0.581705
0.559847
0.339232
0.322193
0.383767
0.494554
0.462122
0.1
0.1
0.100001
0.100001
0.100001
0.100001
0.100002
0.100006
0.100135
0.101734
0.118078
0.180436
0.260494
0.28464
0.283877
0.263081
0.221837
0.164214
0.126935
0.110456
0.103416
0.101057
0.100558
0.101084
0.104642
0.110435
0.111587
0.179867
0.129389
0.324297
0.252249
0.408361
0.376669
0.437981
0.425598
0.467767
0.451812
0.485067
0.480847
0.438723
0.452101
0.391652
0.418011
0.304024
0.302002
0.46213
0.413451
0.357121
0.555551
0.531066
0.495797
0.533174
0.597548
0.594977
0.608248
0.592135
0.607479
0.621083
0.632438
0.629626
0.51504
0.542152
0.567248
0.589286
0.450461
0.479705
0.509716
0.538902
0.390592
0.412048
0.438458
0.468342
0.367692
0.378995
0.398316
0.375533
0.365408
0.368489
0.368033
0.363646
0.401625
0.441497
0.411862
0.380189
0.458684
0.586764
0.593078
0.548697
0.483599
0.514363
0.574265
0.543439
0.594544
0.590619
0.57032
0.418367
0.462136
0.516599
0.526409
0.523129
0.1
0.1
0.100001
0.100001
0.100001
0.100001
0.100003
0.100044
0.100708
0.108226
0.150062
0.232618
0.281322
0.285778
0.264579
0.218868
0.159208
0.12832
0.113719
0.105997
0.102191
0.100638
0.100432
0.100795
0.101523
0.101632
0.102933
0.100621
0.129623
0.109132
0.243685
0.174802
0.362784
0.311642
0.419989
0.397488
0.449499
0.436288
0.457672
0.456685
0.378553
0.395358
0.326562
0.354634
0.286047
0.254005
0.485024
0.443262
0.422151
0.369374
0.574565
0.555097
0.515188
0.539392
0.630385
0.621882
0.611604
0.593747
0.643875
0.652688
0.654213
0.65598
0.566126
0.590519
0.612126
0.630264
0.499783
0.530986
0.560389
0.587062
0.424164
0.454228
0.486759
0.519874
0.381574
0.40477
0.435285
0.368566
0.365834
0.380699
0.378816
0.367507
0.389846
0.427746
0.404777
0.37585
0.450712
0.591941
0.599638
0.548223
0.480383
0.51594
0.578199
0.557858
0.601844
0.599021
0.579677
0.282561
0.541161
0.536716
0.551484
0.557433
0.1
0.1
0.100001
0.100001
0.100001
0.100002
0.100015
0.100349
0.103197
0.126575
0.195914
0.269138
0.285471
0.26848
0.220066
0.160094
0.132027
0.120651
0.112753
0.105947
0.101879
0.100456
0.100237
0.100249
0.100216
0.100074
0.100444
0.100099
0.106787
0.101783
0.156709
0.121826
0.274223
0.21321
0.359609
0.323647
0.399579
0.384447
0.404074
0.405238
0.291891
0.309363
0.246991
0.269188
0.325016
0.276845
0.235515
0.493918
0.4626
0.436851
0.394919
0.576177
0.55874
0.517829
0.535687
0.645136
0.629907
0.606449
0.582977
0.672929
0.675869
0.665091
0.674253
0.611814
0.63324
0.650919
0.664408
0.551891
0.581347
0.608183
0.632497
0.470007
0.505896
0.540695
0.573221
0.405615
0.439924
0.48054
0.370739
0.370461
0.402402
0.399568
0.378639
0.389203
0.425616
0.407307
0.380601
0.452769
0.597956
0.606587
0.553724
0.486437
0.527008
0.585124
0.570897
0.609928
0.607774
0.5892
0.409628
0.569619
0.565192
0.569149
0.576154
0.1
0.1
0.100001
0.100001
0.100001
0.100005
0.100109
0.101134
0.112073
0.159707
0.237927
0.281122
0.272853
0.224404
0.163156
0.137075
0.127479
0.121987
0.115296
0.106128
0.101421
0.100197
0.100071
0.100049
0.100016
0.100008
0.100069
0.100022
0.100945
0.100216
0.111345
0.103506
0.166161
0.130653
0.253594
0.211495
0.307175
0.285807
0.317523
0.317623
0.187124
0.197499
0.19982
0.187048
0.346086
0.293869
0.234573
0.281323
0.493195
0.468726
0.443029
0.411822
0.56426
0.549761
0.509571
0.520009
0.649415
0.629435
0.591684
0.561884
0.69456
0.692749
0.668342
0.683396
0.653543
0.67075
0.683597
0.691937
0.60264
0.629553
0.653183
0.673268
0.522889
0.562339
0.59609
0.624804
0.438605
0.483337
0.532308
0.378936
0.385035
0.434671
0.434464
0.402036
0.396141
0.432227
0.420641
0.392842
0.466259
0.605075
0.615928
0.56346
0.51179
0.550664
0.594427
0.58245
0.618409
0.616617
0.598768
0.230624
0.585762
0.523326
0.58229
0.589237
0.1
0.1
0.100001
0.100001
0.100002
0.100033
0.100576
0.104796
0.131668
0.198047
0.265381
0.273045
0.23481
0.16937
0.141337
0.13358
0.130917
0.126585
0.116081
0.105138
0.100668
0.100078
0.100015
0.100007
0.100006
0.100006
0.100007
0.100006
0.100013
0.10009
0.100033
0.101223
0.100337
0.11064
0.103903
0.14449
0.124116
0.186695
0.16715
0.202197
0.199356
0.138529
0.129251
0.194769
0.157045
0.372284
0.32695
0.260934
0.308136
0.483187
0.467194
0.442049
0.418594
0.540675
0.528457
0.492105
0.496546
0.648523
0.622092
0.574222
0.538764
0.708354
0.699791
0.667583
0.686236
0.68944
0.701621
0.709001
0.710507
0.651482
0.674359
0.692994
0.70771
0.578634
0.618136
0.649422
0.673994
0.482154
0.536383
0.590668
0.395101
0.409238
0.480438
0.478187
0.436163
0.416744
0.457557
0.457169
0.419131
0.509067
0.61626
0.626581
0.584833
0.550572
0.580659
0.611679
0.59273
0.626969
0.625914
0.608511
0.203699
0.590364
0.4798
0.593119
0.599634
0.1
0.1
0.100001
0.100001
0.10001
0.100231
0.101746
0.114386
0.160081
0.229128
0.267603
0.248116
0.181936
0.145329
0.137912
0.138254
0.137216
0.128177
0.115108
0.103063
0.100338
0.100029
0.100007
0.100005
0.100006
0.100006
0.100006
0.100006
0.100007
0.100015
0.100009
0.100097
0.100037
0.100899
0.100305
0.105233
0.102341
0.115259
0.109806
0.124882
0.120566
0.14113
0.119614
0.264978
0.22421
0.187753
0.389126
0.3519
0.303007
0.339107
0.466516
0.457941
0.43332
0.417978
0.511881
0.501079
0.469402
0.470133
0.642248
0.610201
0.553173
0.512967
0.713616
0.702167
0.66244
0.685774
0.71783
0.722857
0.723379
0.721222
0.695909
0.712852
0.724334
0.73119
0.636416
0.671675
0.697251
0.715308
0.537358
0.597511
0.651372
0.435364
0.46797
0.534022
0.5794
0.517291
0.468218
0.51367
0.520625
0.491408
0.551979
0.62931
0.637339
0.605922
0.576612
0.600923
0.628324
0.602533
0.637022
0.632925
0.618176
0.224768
0.583476
0.462341
0.603188
0.604934
0.1
0.1
0.100001
0.100004
0.100066
0.100715
0.10574
0.131338
0.188458
0.247598
0.250988
0.203353
0.152562
0.140667
0.142959
0.145604
0.139937
0.128233
0.111054
0.101637
0.100127
0.100013
0.100006
0.100005
0.100006
0.100006
0.100006
0.100006
0.100006
0.100008
0.100007
0.100023
0.100012
0.100112
0.100048
0.100655
0.100287
0.102779
0.101385
0.109797
0.105153
0.19497
0.144521
0.293719
0.256254
0.223208
0.25849
0.396327
0.37022
0.325574
0.352149
0.444582
0.442148
0.41619
0.408183
0.483555
0.472596
0.443559
0.442594
0.632252
0.594661
0.52968
0.484667
0.717185
0.702495
0.655075
0.682383
0.733703
0.733625
0.731533
0.726222
0.728771
0.737108
0.741444
0.742464
0.689735
0.715058
0.73108
0.740692
0.599416
0.66428
0.711655
0.531003
0.576239
0.645379
0.658758
0.618728
0.543364
0.562273
0.574244
0.57967
0.579098
0.64046
0.647304
0.620392
0.598673
0.615749
0.634921
0.612756
0.642274
0.64319
0.629601
0.188515
0.574349
0.433038
0.613108
0.608483
0.1
0.1
0.100001
0.100019
0.100353
0.102114
0.114059
0.152326
0.209789
0.244065
0.220986
0.169187
0.144432
0.1451
0.150735
0.14975
0.140724
0.125005
0.106758
0.100612
0.100047
0.100007
0.100005
0.100005
0.100006
0.100006
0.100006
0.100006
0.100006
0.100008
0.100007
0.100017
0.100011
0.100077
0.100035
0.100481
0.100212
0.102951
0.101172
0.118549
0.107524
0.242094
0.226158
0.19745
0.165282
0.310066
0.284986
0.26746
0.394389
0.375206
0.332919
0.353204
0.417683
0.418218
0.387807
0.386373
0.454169
0.444448
0.41473
0.412981
0.620238
0.576862
0.504866
0.453581
0.719002
0.701582
0.647378
0.678203
0.742423
0.741374
0.737861
0.730448
0.747053
0.750916
0.752961
0.753647
0.731145
0.746242
0.754141
0.760303
0.695698
0.727987
0.742125
0.601581
0.615499
0.67798
0.655756
0.637595
0.585823
0.582737
0.590172
0.597556
0.599199
0.648334
0.654561
0.633323
0.614471
0.633787
0.651639
0.623084
0.657548
0.651938
0.639576
0.171643
0.5652
0.427639
0.622451
0.610344
0.1
0.100001
0.100005
0.100105
0.100822
0.105574
0.12659
0.171506
0.220142
0.22489
0.189815
0.15328
0.146958
0.152723
0.156247