/*--------------------------------*- C++ -*----------------------------------*\
  =========                 |
  \\      /  F ield         | OpenFOAM: The Open Source CFD Toolbox
   \\    /   O peration     | Website:  https://openfoam.org
    \\  /    A nd           | Version:  dev
     \\/     M anipulation  |
\*---------------------------------------------------------------------------*/
FoamFile
{
    version     2.0;
    format      ascii;
    class       volScalarField;
    location    "2500";
    object      alphat;
}
// * * * * * * * * * * * * * * * * * * * * * * * * * * * * * * * * * * * * * //

dimensions      [1 -1 -1 0 0 0 0];

internalField   nonuniform List<scalar> 
9842
(
0.000149258
0.000153516
0.000143828
0.000142763
0.000177804
0.000128967
0.000130802
0.000189188
0.0001667
0.000123335
0.000126771
0.000185467
0.000190019
0.000143848
0.000121299
0.000123145
0.000171763
0.00020618
0.000175483
0.000131695
0.000120343
0.000121446
0.000153908
0.000207853
0.000200163
0.000150599
0.000126106
0.000119746
0.000120849
0.000142855
0.000203005
0.000214689
0.000178338
0.000135984
0.000123585
0.000119179
0.000120472
0.000134055
0.000187461
0.000224149
0.00020451
0.000154237
0.000129037
0.000122484
0.000118718
0.00011967
0.000128493
0.000165309
0.000222983
0.000221173
0.000178554
0.00013899
0.000125634
0.000121524
0.000118389
0.000118816
0.000125052
0.000150955
0.000214944
0.000232087
0.000204957
0.000156225
0.00013112
0.000124065
0.000120693
0.000118158
0.000118192
0.000123543
0.0001404
0.000195469
0.000237631
0.000224926
0.000176909
0.000141579
0.000127067
0.000122989
0.000119994
0.000117984
0.000117733
0.000122732
0.000133642
0.000172456
0.000234642
0.000236683
0.000202292
0.000155722
0.000132969
0.00012509
0.000122046
0.000119448
0.000117868
0.000117393
0.000122183
0.000129369
0.00015727
0.000224674
0.000245968
0.000224833
0.00017471
0.000142431
0.000128036
0.000123883
0.000120976
0.000119143
0.000117807
0.000117237
0.000121692
0.000126661
0.000145601
0.000203123
0.000249395
0.000240875
0.000196972
0.000154756
0.000134198
0.000125593
0.000122799
0.000120068
0.000118944
0.000117756
0.000117197
0.000121011
0.000124955
0.000137806
0.000178916
0.000245351
0.000249747
0.000221504
0.000171213
0.000142659
0.000128776
0.00012426
0.000121572
0.000119525
0.000118773
0.00011771
0.000117209
0.000120362
0.000123983
0.000132618
0.000162754
0.000233869
0.000258407
0.000240422
0.000191923
0.000153429
0.000134881
0.000125879
0.000123149
0.000120462
0.000119218
0.000118596
0.000117666
0.000117244
0.000119851
0.000123321
0.000129325
0.000150529
0.00021104
0.000260159
0.00025448
0.000214745
0.000167659
0.000142662
0.000129351
0.000124383
0.000121944
0.000119706
0.000119022
0.000118438
0.000117627
0.000117263
0.000119473
0.000122842
0.000127267
0.000142009
0.000186386
0.000255269
0.000261341
0.000237626
0.000186311
0.000151502
0.000135511
0.000126104
0.000123251
0.000120743
0.000119259
0.00011887
0.0001183
0.000117598
0.000117262
0.0001192
0.000122457
0.000125933
0.000136463
0.000168493
0.000242427
0.000269486
0.000253883
0.000207192
0.000164308
0.00014177
0.000130169
0.000124371
0.000122108
0.000119813
0.000119003
0.000118727
0.000118177
0.000117579
0.000117259
0.000118989
0.000122039
0.000125027
0.000132873
0.00015657
0.000220271
0.000270171
0.000266314
0.000229569
0.000179972
0.000150112
0.000135398
0.0001264
0.000123182
0.000120889
0.000119197
0.000118847
0.000118586
0.000118078
0.000117561
0.000117261
0.000118839
0.000121622
0.000124381
0.000130424
0.000147654
0.000195203
0.000265249
0.000272085
0.000250728
0.000199498
0.000160265
0.000141322
0.000130591
0.000124305
0.000122089
0.000119851
0.000118842
0.000118725
0.000118442
0.000118006
0.000117541
0.000117258
0.00011871
0.000121236
0.000123861
0.000128679
0.000141516
0.000175716
0.000252663
0.000280065
0.000265563
0.000220011
0.000174537
0.000147878
0.000135409
0.000126781
0.000122994
0.000120924
0.000119108
0.000118644
0.000118611
0.000118296
0.000117948
0.000117517
0.000117256
0.000118613
0.00012091
0.000123459
0.000127401
0.000137188
0.000163796
0.0002314
0.000280847
0.000277012
0.000241406
0.000191054
0.000157296
0.000140136
0.000130783
0.000124246
0.000121929
0.000119869
0.000118639
0.000118536
0.000118477
0.000118165
0.000117894
0.000117479
0.000117265
0.000118566
0.000120652
0.000123153
0.000126406
0.000134201
0.000153969
0.000206085
0.000276306
0.000282483
0.000261612
0.000210575
0.000168604
0.000146433
0.0001348
0.000127036
0.000122767
0.000120884
0.00011905
0.000118384
0.000118458
0.000118322
0.000118056
0.000117836
0.000117436
0.000117289
0.000118534
0.000120415
0.000122826
0.000125638
0.000132101
0.000147084
0.000184418
0.00026439
0.000290257
0.000275891
0.000230769
0.000183712
0.000153716
0.000139306
0.000130644
0.000124241
0.00012171
0.000119889
0.00011849
0.000118273
0.000118369
0.000118162
0.000117956
0.000117758
0.000117388
0.000117317
0.000118467
0.000120187
0.000122445
0.000125044
0.000130605
0.000142287
0.000171683
0.000243689
0.0002916
0.000287235
0.000250851
0.000200793
0.000164024
0.000144356
0.000134209
0.000127195
0.000122578
0.00012079
0.000119068
0.000118163
0.000118229
0.00011826
0.000118002
0.00011785
0.000117664
0.000117331
0.000117347
0.000118377
0.000119961
0.000122062
0.000124555
0.000129292
0.000138832
0.000161582
0.000219093
0.000287631
0.000292833
0.000270934
0.000219742
0.000176358
0.000151193
0.00013813
0.000130302
0.000124389
0.000121496
0.00011992
0.000118465
0.000118033
0.000118208
0.000118127
0.000117848
0.000117729
0.000117551
0.000117272
0.000117373
0.00011828
0.000119756
0.000121716
0.000124134
0.000128149
0.000136347
0.000154028
0.000196561
0.00027721
0.00029941
0.000285519
0.000239823
0.000191735
0.000159323
0.000142891
0.000133595
0.0001271
0.000122483
0.000120672
0.000119179
0.000118098
0.000118019
0.00011819
0.000117981
0.000117698
0.00011759
0.000117419
0.000117214
0.00011739
0.0001182
0.00011963
0.000121436
0.000123776
0.00012724
0.000134496
0.000148821
0.000181148
0.000257731
0.000302554
0.000296175
0.000258837
0.000209195
0.000170259
0.000148455
0.000137148
0.000130049
0.000124549
0.000121346
0.000119963
0.000118638
0.000117982
0.000118077
0.000118163
0.000117829
0.000117541
0.00011743
0.000117266
0.000117147
0.000117395
0.000118147
0.000119544
0.000121129
0.000123423
0.000126515
0.000132877
0.000145065
0.000171727
0.000236054
0.000299037
0.000303032
0.00027823
0.000227404
0.000183417
0.000155779
0.000141351
0.00013297
0.00012712
0.000122596
0.000120581
0.000119402
0.000118362
0.000117986
0.000118202
0.000118131
0.000117684
0.000117377
0.000117269
0.00011714
0.000117098
0.000117393
0.000118109
0.000119456
0.000120827
0.000123025
0.00012584
0.000131529
0.000142574
0.000164038
0.000213508
0.00029132
0.000307276
0.000294333
0.000247223
0.000198668
0.000164778
0.00014644
0.000136349
0.000129809
0.000124789
0.000121347
0.000120063
0.000119065
0.000118332
0.000118153
0.000118333
0.000118108
0.000117581
0.000117235
0.00011714
0.0001171
0.000117112
0.00011739
0.000118066
0.000119332
0.00012057
0.000122602
0.000125219
0.000130351
0.000140467
0.000158453
0.000195851
0.000275785
0.000313416
0.000303823
0.000264857
0.000216333
0.000176019
0.000152655
0.000140252
0.00013265
0.000127231
0.000122959
0.000120641
0.000119771
0.000119072
0.000118479
0.000118429
0.000118421
0.000118032
0.000117422
0.000117071
0.000117134
0.000117282
0.0001172
0.000117383
0.000118011
0.000119173
0.000120346
0.000122225
0.000124735
0.000129356
0.000138491
0.000154602
0.000184879
0.000257179
0.000311565
0.000312499
0.000283473
0.000233717
0.000189898
0.000160438
0.00014486
0.000135908
0.000129849
0.000125196
0.000121675
0.000120298
0.000119812
0.000119266
0.000118941
0.000118825
0.000118552
0.000118047
0.000117376
0.000116915
0.000117179
0.000117628
0.000117298
0.000117562
0.000117369
0.000117933
0.000118996
0.000120141
0.000121901
0.000124339
0.000128537
0.000136704
0.000151929
0.000177636
0.000237173
0.00030667
0.000315855
0.000300114
0.000252535
0.000204917
0.000170306
0.000150543
0.000139615
0.00013271
0.000127665
0.000123702
0.000120998
0.000120329
0.000120053
0.000119864
0.000119787
0.000119674
0.000119229
0.000118676
0.000118022
0.000117413
0.000117867
0.000118007
0.000118508
0.000117418
0.000117883
0.000117349
0.00011783
0.000118798
0.000119961
0.000121589
0.000124017
0.000127877
0.000135314
0.000149698
0.000171741
0.000218146
0.000297625
0.000321485
0.000311696
0.000270513
0.00022225
0.000181918
0.000157456
0.000144193
0.000135927
0.000130421
0.000126083
0.00012257
0.000120923
0.000120556
0.000120654
0.000120864
0.000120889
0.000120582
0.000120104
0.000119569
0.000119029
0.000117932
0.000118557
0.000118988
0.000118622
0.0001195
0.000118524
0.000119212
0.000117501
0.000118331
0.000117321
0.00011772
0.000118588
0.000119804
0.000121273
0.000123698
0.00012733
0.000134248
0.000147698
0.000167965
0.000204131
0.000282496
0.000326859
0.000319974
0.000287352
0.000239695
0.000196233
0.000166156
0.000149481
0.000139932
0.000133406
0.000128729
0.00012498
0.00012226
0.00012109
0.000121125
0.000121604
0.000122035
0.000122228
0.000115361
0.000108413
0.000104138
0.000114962
0.000101151
0.000117426
0.000115463
0.000103197
0.000102777
0.000117144
0.000106312
0.00010386
9.95189e-05
0.000117271
0.000117603
0.000118364
0.000119646
0.000120923
0.000123359
0.000126802
0.000133366
0.000145934
0.000165376
0.00019542
0.000265969
0.000324353
0.000327629
0.000303995
0.000257194
0.000211791
0.00017697
0.000156354
0.000144581
0.000136971
0.000131714
0.00012795
0.000124815
0.000122317
0.000121664
0.000122158
0.000122938
0.000118132
0.000101984
9.21655e-05
8.80229e-05
9.04812e-05
8.20683e-05
9.92866e-05
8.97771e-05
9.39142e-05
9.58753e-05
9.1438e-05
8.61213e-05
9.48543e-05
8.76607e-05
8.42967e-05
8.15453e-05
0.000117205
0.000117438
0.000118128
0.000119474
0.000120536
0.000123012
0.000126272
0.000132581
0.000144456
0.000163378
0.000190007
0.000249168
0.000319309
0.00033209
0.000318525
0.000275344
0.00022861
0.000189767
0.000164776
0.000150455
0.000141413
0.000135512
0.000131353
0.0001279
0.000124908
0.00012287
0.000122884
0.000123715
0.000111309
9.43723e-05
8.23902e-05
7.59204e-05
7.58807e-05
7.02782e-05
7.83414e-05
7.3437e-05
8.42591e-05
7.69728e-05
8.17912e-05
8.00365e-05
7.78346e-05
7.33562e-05
7.82968e-05
7.34395e-05
7.02785e-05
6.85877e-05
0.000117132
0.000117229
0.000117897
0.000119309
0.000120151
0.000122669
0.000125815
0.000131875
0.00014326
0.000161654
0.000186486
0.000233742
0.000312552
0.000338832
0.000329447
0.000291833
0.000246716
0.000204663
0.000175161
0.000157698
0.000147398
0.000140636
0.00013544
0.00013152
0.000128301
0.000125496
0.000124342
0.00012496
0.000107451
8.72923e-05
7.47973e-05
6.60661e-05
6.66401e-05
6.19506e-05
6.57136e-05
6.31498e-05
6.94198e-05
6.44857e-05
7.37767e-05
6.70798e-05
7.06676e-05
6.7858e-05
6.70884e-05
6.28952e-05
6.62106e-05
6.26313e-05
5.98912e-05
5.88559e-05
0.000117052
0.000117042
0.000117687
0.000119137
0.000119739
0.000122296
0.000125395
0.000131251
0.000142294
0.000160162
0.000184145
0.000222173
0.000301227
0.000345558
0.000338819
0.000308119
0.000264168
0.000221545
0.000187874
0.00016691
0.000155274
0.000147154
0.000141038
0.000136155
0.000132184
0.00012948
0.000127478
0.000127439
0.000105717
8.17798e-05
7.04289e-05
6.10975e-05
5.78327e-05
5.48605e-05
5.74366e-05
5.57049e-05
5.90647e-05
5.60899e-05
6.14021e-05
5.69691e-05
6.4325e-05
5.90514e-05
6.15841e-05
5.83657e-05
5.82153e-05
5.45865e-05
5.70343e-05
5.42465e-05
5.18946e-05
5.14581e-05
0.000116978
0.000116888
0.000117515
0.000118938
0.00011931
0.000121888
0.000124985
0.00013072
0.000141454
0.000158849
0.000182444
0.000215053
0.000287835
0.000346751
0.000347427
0.000324755
0.000282151
0.000239288
0.00020278
0.000178885
0.000165462
0.000155662
0.000148328
0.000142977
0.000139411
0.000136136
0.000133635
0.000131316
0.000106869
7.99409e-05
6.32901e-05
5.56639e-05
5.28288e-05
5.05918e-05
5.14744e-05
5.06763e-05
5.20179e-05
5.02918e-05
5.30775e-05
5.03836e-05
5.43619e-05
5.05437e-05
5.65154e-05
5.23286e-05
5.3835e-05
5.0872e-05
5.09096e-05
4.80056e-05
5.00157e-05
4.76002e-05
4.61625e-05
4.59315e-05
0.000116916
0.000116784
0.000117387
0.000118738
0.000118915
0.00012146
0.000124594
0.000130257
0.000140673
0.000157648
0.000180958
0.00021081
0.000274307
0.000343155
0.0003554
0.000339916
0.000300548
0.000258188
0.000219844
0.0001936
0.000178412
0.000166953
0.000158677
0.000152747
0.000149033
0.000144495
0.000140097
0.000136309
0.000111182
7.8264e-05
5.9871e-05
5.15457e-05
4.89912e-05
4.81325e-05
4.72072e-05
4.60755e-05
4.73657e-05
4.53783e-05
4.78389e-05
4.53574e-05
4.79464e-05
4.5573e-05
4.83163e-05
4.5489e-05
4.9958e-05
4.62264e-05
4.74128e-05
4.49452e-05
4.48718e-05
4.25014e-05
4.45535e-05
4.23184e-05
4.22355e-05
4.18545e-05
0.000116925
0.000116816
0.000117369
0.000118606
0.000118621
0.000121078
0.000124255
0.000129796
0.000139996
0.000156554
0.000179569
0.000208283
0.000261808
0.000339186
0.000365221
0.00035358
0.000317733
0.000277979
0.00023891
0.000212101
0.000194575
0.000182478
0.00017317
0.00016674
0.000158844
0.00015292
0.000147429
0.000142733
0.000134803
9.57572e-05
7.30819e-05
5.92156e-05
4.56663e-05
4.92945e-05
4.49691e-05
4.61464e-05
4.34903e-05
4.47422e-05
4.30106e-05
4.42895e-05
4.33038e-05
4.3532e-05
4.32962e-05
4.27363e-05
4.35718e-05
4.16442e-05
4.41956e-05
4.17524e-05
4.21238e-05
3.99929e-05
4.00539e-05
3.78803e-05
4.03054e-05
3.8025e-05
4.00541e-05
3.93193e-05
0.000117125
0.000117181
0.000117577
0.000118633
0.000118516
0.000120844
0.000123991
0.000129289
0.000139292
0.00015555
0.000178363
0.000206501
0.0002513
0.000334603
0.000375396
0.000366305
0.000335097
0.000297196
0.000260167
0.000234394
0.000214978
0.000202416
0.00019245
0.000181055
0.000172184
0.000163791
0.000156725
0.000149548
0.000140998
0.000131741
0.000125884
0.000123584
6.04359e-05
5.81618e-05
5.13945e-05
6.42808e-05
5.07709e-05
6.59163e-05
5.14726e-05
7.25588e-05
5.15201e-05
8.02603e-05
4.86366e-05
7.40209e-05
4.42941e-05
6.16305e-05
4.1065e-05
4.91735e-05
4.00431e-05
4.09781e-05
3.83779e-05
3.56531e-05
3.66872e-05
3.46042e-05
3.69902e-05
3.40274e-05
3.99927e-05
3.82434e-05
0.00011825
0.000118435
0.000118322
0.000118927
0.000118627
0.00012082
0.000123873
0.000128871
0.000138559
0.000154666
0.000177308
0.000204988
0.000243791
0.000325953
0.000381801
0.000378532
0.000353662
0.000317081
0.000283522
0.000258115
0.00023904
0.00022559
0.00021216
0.000198448
0.000186747
0.000176005
0.000166668
0.0001559
0.000143769
0.000138326
0.000139726
0.000136384
0.000126348
0.000107147
0.000115653
9.84556e-05
9.49546e-05
9.18782e-05
9.37767e-05
9.55427e-05
0.000102714
0.000101742
0.000113931
0.000104834
0.000116621
8.50266e-05
0.000114216
5.68274e-05
0.000107875
4.10939e-05
6.57754e-05
4.0816e-05
3.26398e-05
3.94717e-05
3.59825e-05
3.38615e-05
3.13712e-05
4.3953e-05
3.79334e-05
0.000119493
0.000121512
0.00012047
0.000119801
0.000119029
0.000121013
0.00012392
0.000128652
0.000138146
0.000153801
0.000176308
0.000203592
0.000238882
0.00031321
0.000383349
0.000391658
0.000371984
0.000337459
0.000307362
0.000282787
0.000264997
0.000249242
0.00023122
0.000217433
0.000204894
0.000193696
0.000184922
0.000178901
0.000182261
0.000192847
0.000199007
0.000213849
0.000245445
0.00021984
0.000291393
0.000107334
0.000153836
0.000110563
0.000157255
0.000132138
0.000190214
0.000152578
0.000221754
0.00015241
0.000228223
0.000141894
0.00021338
0.000128925
0.000180924
0.000114578
0.000143715
7.29741e-05
0.000120175
7.6124e-05
3.18251e-05
7.34424e-05
6.30542e-05
3.13408e-05
2.90324e-05
6.21014e-05
3.83636e-05
0.000123379
0.000129947
0.000127214
0.000122345
0.000120298
0.000121497
0.000124069
0.000128613
0.000138214
0.000153039
0.000175199
0.000202107
0.000235561
0.000299863
0.000381885
0.000406167
0.000389943
0.000357057
0.000330208
0.00030755
0.00029036
0.000271173
0.000261058
0.000251135
0.000244509
0.000238899
0.000236462
0.000251557
0.000300528
0.000389112
0.000449185
0.000451078
0.000454516
0.000381251
0.000475203
0.000385593
0.000461845
0.000222646
0.000305529
0.000262428
0.000344254
0.000301696
0.00038118
0.000316946
0.000401765
0.000307987
0.00040038
0.000281039
0.000379602
0.000228642
0.000340678
0.000159248
0.000274793
0.000123294
0.000174509
0.000123098
4.89029e-05
0.00012051
0.00011419
2.94885e-05
3.29134e-05
7.18843e-05
3.43553e-05
0.000132791
0.000148065
0.000143888
0.000130919
0.000123779
0.000122517
0.000124576
0.000128605
0.000138412
0.00015269
0.000174003
0.000200364
0.000232978
0.000287848
0.000378576
0.000419922
0.000407748
0.000376795
0.000351224
0.000331026
0.000313684
0.000299831
0.000310072
0.000334632
0.000369235
0.000398511
0.000423382
0.000471702
0.000600605
0.00071112
0.000695055
0.000660554
0.000618539
0.000538898
0.00061127
0.000530015
0.000590778
0.000557638
0.000611491
0.000422726
0.000493962
0.000458518
0.00053022
0.000479149
0.000546536
0.00047927
0.000540911
0.000461793
0.000523037
0.000432032
0.000497708
0.000385451
0.000465335
0.000309812
0.000415124
0.000187453
0.000331903
0.000191019
0.000102767
0.000183539
0.000170466
2.48868e-05
8.50112e-05
2.11616e-05
1.97403e-05
0.000133956
0.000164327
0.0001699
0.0001531
0.000132665
0.0001255
0.000125506
0.00012895
0.000138506
0.000152743
0.000172909
0.000198543
0.00023052
0.0002772
0.000372983
0.000429577
0.00042444
0.000397506
0.000371202
0.000352948
0.000337278
0.000340072
0.000389443
0.000483264
0.000572998
0.000637926
0.000674709
0.000747603
0.000845065
0.000849366
0.000831382
0.000747568
0.000675816
0.000664482
0.000629538
0.000671368
0.000653126
0.000682621
0.000678115
0.000703521
0.000591123
0.00064106
0.000599149
0.000641354
0.000585028
0.000617974
0.000564997
0.000593939
0.000541904
0.000568657
0.000516491
0.000547378
0.000484454
0.000525045
0.0004335
0.00049523
0.000344742
0.000445076
0.000347426
0.000150726
0.000337983
0.000314702
4.72378e-05
0.000124183
9.27603e-06
3.19378e-05
0.000145773
0.000182379
0.000182593
0.000155034
0.000134339
0.000128357
0.00012964
0.000138429
0.00015279
0.000172093
0.000196885
0.000227904
0.00026884
0.000359185
0.000433467
0.000441141
0.000418134
0.000390442
0.000372461
0.000363009
0.000395882
0.000500401
0.000649325
0.000775317
0.000847615
0.000897967
0.000951456
0.00096376
0.000954083
0.000852599
0.00075565
0.000692971
0.000670553
0.000705729
0.000688609
0.000698678
0.000709554
0.00071778
0.000727445
0.000708577
0.000716404
0.000673512
0.000695052
0.000642343
0.000659959
0.000613074
0.000624749
0.000584612
0.000593704
0.000563092
0.000571183
0.000545208
0.000555633
0.000527404
0.000540953
0.000502383
0.000526916
0.000450921
0.000505534
0.000451117
0.000279232
0.00044696
0.000438535
0.000100716
0.000242639
1.72406e-05
0.00012563
0.000146923
0.000190679
0.00018614
0.000154738
0.000134922
0.000131387
0.000138489
0.000152688
0.000171503
0.000195474
0.000225178
0.000262484
0.000341866
0.000431993
0.00045772
0.000438406
0.00040849
0.000389603
0.000387531
0.000453001
0.00061335
0.000809054
0.000957754
0.00103395
0.00106413
0.00105251
0.00104741
0.000959512
0.000857903
0.000781376
0.000719026
0.000681603
0.000674267
0.000670838
0.000700668
0.000682499
0.000729663
0.000718615
0.000721342
0.000719006
0.000684843
0.000687775
0.000673321
0.000680056
0.000632583
0.000638304
0.000598553
0.000602991
0.000576209
0.000581814
0.00055905
0.000565984
0.000545598
0.000552591
0.00053461
0.000537363
0.000527048
0.000528475
0.000507503
0.000525562
0.000508661
0.000426036
0.000509705
0.000507598
0.000478537
0.000231893
0.000413589
0.00017212
0.000343733
0.00014613
0.00019463
0.000186004
0.000150918
0.000136279
0.000138827
0.000152573
0.000171134
0.000194192
0.00022233
0.00025754
0.000325882
0.000428037
0.000471707
0.000458301
0.00042614
0.000405663
0.000407555
0.000499407
0.000706818
0.000952026
0.00110941
0.00116266
0.00114294
0.00112835
0.00105438
0.000959652
0.000848636
0.000807604
0.000790683
0.000782679
0.000733939
0.00067848
0.000688797
0.000677699
0.000668539
0.000709228
0.000694364
0.000684888
0.000679337
0.000647322
0.000648932
0.00064271
0.000645055
0.000608544
0.000615038
0.000587416
0.000598962
0.000576115
0.000591225
0.000563352
0.000582756
0.000545754
0.000565666
0.000527136
0.000538087
0.000519315
0.000513999
0.000523182
0.000509077
0.000518304
0.000519905
0.000518528
0.000504238
0.000473842
0.000507283
0.000521238
0.000519869
0.000517323
0.000521921
0.00034942
0.000351584
0.000504878
0.000508188
0.000433402
0.000481849
0.000365839
0.000355823
0.000349437
0.000147752
0.000199943
0.000180443
0.000145453
0.000140351
0.000152425
0.00017071
0.000192845
0.000219471
0.000253043
0.000310232
0.000419481
0.000479802
0.000475567
0.00044473
0.00041924
0.000419894
0.000530067
0.000773808
0.00106706
0.00121151
0.00122504
0.0012086
0.00113562
0.00105049
0.000937225
0.00085316
0.000812931
0.000811633
0.000854508
0.00088489
0.00072452
0.000833816
0.000672406
0.000683832
0.000649061
0.000654776
0.000670894
0.000657822
0.000647863
0.000646994
0.000642685
0.000647298
0.000625095
0.000635173
0.000614314
0.000633131
0.000611438
0.000636808
0.000608622
0.000640943
0.000595563
0.000641623
0.000570804
0.000620306
0.000523246
0.000535522
0.000554539
0.000582532
0.000503845
0.000501372
0.000535004
0.000526891
0.000508711
0.000504561
0.000512597
0.000499427
0.000496639
0.000509973
0.000524445
0.000525738
0.000522991
0.000512501
0.000510479
0.000526579
0.000414779
0.000527266
0.000528437
0.000511855
0.000437039
0.000422862
0.000387102
0.000344405
0.000358819
0.0001598
0.000202993
0.000163992
0.000146064
0.000150968
0.000170329
0.000191304
0.000216358
0.000248804
0.00029644
0.000399943
0.000480361
0.000490716
0.000463382
0.000431877
0.000427902
0.000541942
0.000817333
0.0011522
0.00126803
0.00127629
0.00121844
0.00112999
0.0010161
0.000922935
0.000859878
0.000825126
0.000808996
0.000835143
0.000888522
0.000911442
0.000758964
0.000857496
0.000662843
0.0006901
0.000637591
0.000650038
0.000643726
0.000636441
0.000653405
0.000659016
0.000689237
0.000702927
0.000654902
0.000675371
0.000665512
0.00069834
0.000677793
0.000715882
0.000685747
0.000723019
0.000673877
0.000679885
0.000609344
0.000619664
0.000637512
0.00058227
0.000556436
0.000584074
0.00060457
0.000494398
0.000501497
0.000552131
0.000545374
0.000519205
0.000490046
0.000497018
0.000484542
0.000486542
0.000495215
0.000529992
0.000532343
0.000515777
0.000494973
0.000496587
0.000520173
0.000508776
0.000533167
0.000531942
0.000527328
8.0332e-05
0.000242232
0.000430642
0.000463147
0.000398856
0.000185569
0.000196244
0.000154588
0.000152178
0.000169199
0.000189702
0.000213033
0.000244199
0.00028553
0.000379013
0.000476829
0.000504382
0.000481933
0.000443751
0.000433834
0.000540903
0.000828634
0.00119513
0.00130306
0.00129427
0.00121037
0.00109413
0.000987878
0.000926242
0.000879834
0.00083825
0.000761057
0.000660313
0.000684967
0.000825929
0.00088984
0.000897857
0.000779645
0.000857028
0.000666323
0.000702773
0.000651917
0.000664406
0.000658929
0.000654358
0.000716523
0.000721441
0.000778399
0.000794649
0.000728539
0.000755873
0.000750568
0.000778725
0.000747303
0.000768816
0.000675503
0.000683037
0.00060539
0.00056222
0.000593689
0.000567461
0.000586597
0.000571577
0.000548467
0.000544776
0.000566571
0.000554708
0.000533434
0.000493132
0.000510824
0.00053427
0.000498801
0.00051958
0.000478443
0.000479821
0.000470669
0.000483619
0.000476495
0.000524412
0.00052711
0.000500199
0.000474956
0.000475742
0.000505058
0.000521801
0.000527195
0.000525922
0.000528516
1.17018e-05
0.000369709
0.000114181
0.000511566
0.000424824
0.000211844
0.000173915
0.000155711
0.000167688
0.000187884
0.000209317
0.000239742
0.000276351
0.000358587
0.000470027
0.000513825
0.00049967
0.000456065
0.00043198
0.000521025
0.000816946
0.00120767
0.00131768
0.00129534
0.00117967
0.00104337
0.000975623
0.000939821
0.000904479
0.000859313
0.000670859
0.000434823
0.000411954
0.00050968
0.000682075
0.000856212
0.000830977
0.000783102
0.00083571
0.000683776
0.000717411
0.000687473
0.000683272
0.000715712
0.00070239
0.000796712
0.000787569
0.00083368
0.000839496
0.000802829
0.000820726
0.00078977
0.000805447
0.000719825
0.000753565
0.000602087
0.000593057
0.000619164
0.000602915
0.000534235
0.000539789
0.0005403
0.000555862
0.000515178
0.000504369
0.000496687
0.000495637
0.000509856
0.000489734
0.000473767
0.000500554
0.000490347
0.000471895
0.000442576
0.000465211
0.000473338
0.000463777
0.000462982
0.000488752
0.000458132
0.000509976
0.000513312
0.000478777
0.000454409
0.000453135
0.00048359
0.00052403
0.000514904
0.000518268
0.00052759
1.16302e-05
0.000274907
9.09739e-05
0.000515234
0.000363594
0.000208143
0.000164928
0.000165527
0.000186301
0.000205902
0.000234937
0.000269185
0.000338322
0.000451656
0.000515693
0.000513302
0.000471017
0.00043264
0.000489733
0.00076274
0.00120155
0.00132106
0.00128947
0.00112865
0.00100667
0.000969476
0.000951183
0.000948719
0.000875538
0.000588699
0.000328521
0.000265315
0.000325123
0.000432813
0.000649066
0.000528635
0.000806929
0.00076627
0.000769878
0.000796577
0.000698661
0.000724062
0.000714497
0.000696325
0.000768287
0.000741719
0.000836319
0.000822134
0.000843179
0.000849939
0.000817954
0.000831136
0.000745067
0.000729521
0.000647062
0.000624679
0.000568473
0.000589574
0.000609492
0.000625052
0.000497941
0.000509441
0.000522846
0.000543669
0.000464674
0.000462191
0.000465089
0.000474047
0.000452377
0.000441929
0.000435746
0.000466631
0.000440283
0.000425456
0.000405847
0.000419605
0.000475745
0.000453087
0.000462374
0.000451304
0.000444078
0.000489344
0.000494795
0.000454558
0.000436708
0.000431884
0.00045843
0.000530937
0.000500697
0.000511238
0.00052923
4.03443e-06
0.000245232
8.50582e-05
0.000444689
0.000325277
0.000195043
0.000168962
0.000183872
0.000203058
0.000230497
0.000263024
0.00032038
0.000428857
0.000513062
0.000523224
0.000489625
0.00043813
0.00046187
0.000680378
0.00116588
0.00132013
0.00126811
0.00108125
0.000978671
0.000958022
0.000955939
0.000970519
0.000870278
0.000518614
0.000281032
0.000200057
0.000228913
0.000315972
0.00043794
0.000589707
0.000511007
0.000746984
0.000684999
0.00073698
0.000752815
0.000697381
0.000714911
0.000724957
0.00069778
0.000796521
0.000761785
0.000847424
0.000833258
0.000774369
0.000796229
0.000730289
0.000747443
0.000607054
0.000593124
0.000554625
0.000545971
0.00052794
0.000536428
0.000562279
0.000579501
0.000570061
0.000562476
0.000489641
0.000509746
0.000533713
0.000546621
0.000436739
0.000446297
0.000462014
0.000483505
0.00041712
0.000415532
0.000421598
0.000422564
0.000401204
0.000400927
0.000390479
0.000392158
0.000438619
0.000449122
0.000432319
0.000412396
0.000436176
0.000464317
0.000473014
0.000430329
0.000424228
0.000414258
0.000431772
0.000506535
0.000484861
0.000469269
0.00049981
2.55791e-06
0.000218803
7.09945e-05
0.000367429
0.000289719
0.000188334
0.000183695
0.000200059
0.000226393
0.000258107
0.00030524
0.000406185
0.000506711
0.000530976
0.000506483
0.000447948
0.000439602
0.000601507
0.001061
0.00130697
0.00125402
0.00104026
0.000952406
0.000944437
0.000959455
0.000971744
0.00083239
0.000445204
0.000265935
0.000178996
0.000181396
0.000249709
0.00039502
0.000497451
0.00047812
0.000555856
0.000512235
0.000675123
0.000620217
0.000700826
0.000699398
0.000687318
0.000692182
0.000730478
0.000698197
0.000806682
0.000769906
0.000811763
0.000814244
0.000628232
0.000685377
0.000588932
0.000598441
0.000519296
0.000512546
0.000486873
0.000496623
0.00048837
0.000478165
0.00048342
0.000535372
0.000524755
0.000515273
0.000505703
0.000509025
0.000523133
0.000508733
0.000495899
0.000436482
0.000459073
0.000485869
0.000506807
0.000402971
0.000414425
0.000434144
0.00039127
0.000383592
0.000398219
0.000396726
0.000385876
0.000406407
0.000432343
0.000405352
0.000386189
0.00043297
0.000437649
0.000448222
0.000407644
0.000417658
0.00040194
0.000406347
0.000389246
0.000437056
0.000404903
0.000402221
1.5987e-05
0.000186638
0.000117246
0.000320366
0.000247515
0.000191645
0.000199509
0.000222639
0.000254224
0.000293732
0.000383742
0.000490264
0.000533225
0.00051966
0.000459119
0.000424276
0.00052997
0.000899797
0.00127208
0.00125396
0.00101042
0.000923462
0.000923542
0.000956906
0.000963336
0.000757078
0.000412912
0.000265613
0.000186411
0.000165836
0.000203432
0.000298187
0.000440786
0.000538795
0.000533886
0.000560255
0.000548676
0.000627678
0.000592395
0.000666991
0.000653288
0.000679211
0.00067234
0.000740735
0.000709215
0.000801406
0.000774846
0.0007369
0.000770093
0.000532803
0.000564376
0.000490538
0.000509906
0.000473274
0.000469807
0.000446456
0.000445174
0.000459209
0.000457598
0.000454084
0.000455767
0.000484257
0.000473936
0.000466815
0.000462186
0.000490395
0.000473602
0.000460222
0.000448639
0.000460396
0.000487947
0.000479611
0.000459729
0.000412734
0.000435043
0.000460172
0.000381356
0.000385297
0.000415074
0.000419149
0.000399358
0.000385925
0.000409822
0.000390505
0.000381635
0.000412718
0.000410769
0.000411497
0.000388537
0.000408426
0.000390594
0.000382345
0.00033748
0.000394333
0.000374518
0.000359699
8.49532e-05
0.000210594
0.000240163
0.000291105
0.000244865
0.000201543
0.000221116
0.000250699
0.000285664
0.000362888
0.000469773
0.000531893
0.000528886
0.000476384
0.000419546
0.000473288
0.000743144
0.0012034
0.00125406
0.00100814
0.000893768
0.000898544
0.000933098
0.000925299
0.000690772
0.000438741
0.000285249
0.000199773
0.000175398
0.000175437
0.000227597
0.000312
0.000472434
0.000363722
0.000587521
0.000555308
0.000605632
0.000602205
0.000627406
0.000611674
0.000662777
0.000648639
0.000687352
0.000674338
0.000764583
0.00074215
0.000784709
0.000781945
0.000633885
0.000696459
0.00046062
0.00048581
0.000444301
0.000446355
0.000442308
0.000451593
0.000448601
0.000437116
0.000436074
0.000436213
0.000437941
0.000439038
0.000438355
0.000441276
0.000437248
0.00043548
0.00043537
0.000442454
0.000428631
0.000419078
0.000413395
0.000475206
0.000453589
0.000431935
0.000414386
0.000436637
0.0004559
0.00045348
0.000388174
0.000403869
0.000437632
0.00043648
0.000423595
0.000385591
0.000396714
0.000392414
0.000393059
0.000396788
0.000384364
0.000381586
0.00037088
0.000390975
0.000376012
0.000359531
0.000320166
0.000373448
0.000362102
0.000347058
0.000346386