/*--------------------------------*- C++ -*----------------------------------*\
  =========                 |
  \\      /  F ield         | OpenFOAM: The Open Source CFD Toolbox
   \\    /   O peration     | Website:  https://openfoam.org
    \\  /    A nd           | Version:  dev
     \\/     M anipulation  |
\*---------------------------------------------------------------------------*/
FoamFile
{
    version     2.0;
    format      ascii;
    class       volScalarField;
    location    "2500";
    object      CO2;
}
// * * * * * * * * * * * * * * * * * * * * * * * * * * * * * * * * * * * * * //

dimensions      [0 0 0 0 0 0 0];

internalField   nonuniform List<scalar> 
9842
(
1.73545e-30
5.37107e-30
3.25194e-30
1.07998e-29
1.10253e-29
2.27954e-30
1.65464e-29
2.47711e-29
1.19958e-29
8.21229e-31
2.64182e-29
4.55637e-29
2.53451e-29
9.75753e-30
7.03449e-31
3.43744e-29
8.06554e-29
6.69409e-29
2.10435e-29
4.52182e-30
3.3658e-31
4.32507e-29
1.15477e-28
1.3236e-28
5.69804e-29
2.11646e-29
2.51027e-30
7.20656e-32
1.08223e-28
2.53505e-28
2.59985e-28
1.64162e-28
5.89835e-29
1.30463e-29
1.34499e-30
4.38371e-32
1.95012e-28
4.95099e-28
4.59226e-28
3.28131e-28
1.50527e-28
4.26727e-29
5.17695e-30
5.23883e-31
9.4191e-33
2.59903e-28
8.43508e-28
1.07798e-27
6.83618e-28
3.28765e-28
1.08737e-28
2.85808e-29
2.77168e-30
2.23043e-31
7.42422e-33
6.85368e-28
2.816e-27
2.80308e-27
1.51261e-27
7.04299e-28
2.52189e-28
7.12268e-29
1.1826e-29
1.13555e-30
7.3439e-32
9.29356e-34
1.65701e-27
5.18554e-27
6.88177e-27
3.76539e-27
1.619e-27
6.81025e-28
2.09013e-28
5.25806e-29
6.01471e-30
2.85036e-31
2.08664e-32
6.06674e-34
7.16709e-27
1.54266e-26
2.10274e-26
1.15041e-26
4.97018e-27
1.62691e-27
4.84541e-28
1.62785e-28
2.61683e-29
2.30535e-30
8.9415e-32
6.81144e-33
2.00032e-34
4.79023e-26
5.78732e-26
5.94808e-26
3.34056e-26
1.32895e-26
4.78349e-27
1.48082e-27
4.07529e-28
8.57589e-29
8.50585e-30
8.37017e-31
3.04354e-32
1.94633e-33
7.02316e-35
1.17431e-25
2.46498e-25
1.87646e-25
1.24776e-25
4.10495e-26
1.76535e-26
3.65767e-27
1.13299e-27
2.66392e-28
3.61016e-29
4.7865e-30
2.94305e-31
1.23795e-32
1.36106e-33
7.40095e-34
3.16379e-25
6.26257e-25
5.68862e-25
5.45263e-25
1.64197e-25
6.38239e-26
1.80162e-26
3.15564e-27
7.67665e-28
1.06731e-28
1.69559e-29
1.07967e-30
1.0316e-31
1.23342e-32
1.13698e-32
1.06809e-32
6.95999e-25
1.45555e-24
2.01783e-24
1.41853e-24
7.49679e-25
2.34317e-25
6.44419e-26
1.08851e-26
2.24729e-27
4.56894e-28
5.97571e-29
6.48225e-30
4.82999e-31
1.0983e-31
1.36933e-31
1.90307e-31
1.26052e-31
1.45582e-24
3.17359e-24
5.25367e-24
4.82326e-24
2.04891e-24
7.96894e-25
2.35611e-25
4.79503e-26
6.20766e-27
1.57815e-27
1.63343e-28
2.61911e-29
1.95969e-30
6.69443e-31
1.5912e-30
2.67183e-30
3.27559e-30
2.57695e-30
3.08473e-24
6.75183e-24
9.71779e-24
1.22119e-23
8.50632e-24
2.38262e-24
7.95366e-25
2.15583e-25
2.75529e-26
4.55862e-27
7.13771e-28
8.85506e-29
1.28036e-29
7.94689e-30
1.19644e-29
3.04173e-29
4.4046e-29
4.88789e-29
4.48333e-29
5.56644e-24
1.4638e-23
2.28678e-23
2.87541e-23
2.22627e-23
8.70135e-24
2.46207e-24
7.26707e-25
1.59648e-25
2.22588e-26
2.8707e-27
2.95445e-28
5.11804e-29
5.69602e-29
1.48666e-28
2.23935e-28
5.40055e-28
6.9135e-28
7.54858e-28
4.2346e-28
8.20953e-24
2.84483e-23
4.6277e-23
5.76862e-23
4.07618e-23
3.10649e-23
9.06005e-24
2.28033e-24
5.51487e-25
1.02923e-25
1.53311e-26
1.5834e-27
3.98344e-28
4.49345e-28
1.42919e-27
3.20043e-27
4.23397e-27
9.42895e-27
9.91201e-27
1.28774e-26
7.65643e-27
6.9903e-24
4.11014e-23
7.95573e-23
1.18031e-22
1.19194e-22
7.48502e-23
3.16381e-23
6.9476e-24
1.71862e-24
2.89551e-25
6.54118e-26
9.80792e-27
2.61737e-27
3.82889e-27
7.4442e-27
2.52631e-26
4.51426e-26
7.91661e-26
1.37603e-25
1.22083e-25
1.57503e-25
1.59244e-25
1.44054e-23
6.77494e-23
9.78594e-23
2.20044e-22
2.14944e-22
1.77972e-22
8.14436e-23
2.62924e-23
5.84353e-24
1.41748e-24
2.02609e-25
3.52064e-26
1.83272e-26
3.22175e-26
8.51739e-26
1.55102e-25
6.02252e-25
7.8933e-25
1.66794e-24
1.57074e-24
2.24741e-24
1.39835e-24
2.24375e-24
1.81232e-23
7.51065e-23
1.81349e-22
3.01575e-22
3.72486e-22
3.99541e-22
2.33789e-22
7.98909e-23
2.00829e-23
4.61996e-24
9.80841e-25
1.95297e-25
1.34324e-25
2.67146e-25
4.21594e-25
1.47802e-24
2.85645e-24
1.06252e-23
1.32791e-23
1.82183e-23
3.07583e-23
2.43198e-23
2.36355e-23
2.64203e-23
1.97005e-23
1.30054e-22
3.89931e-22
5.97257e-22
8.29741e-22
7.26441e-22
4.70068e-22
1.79694e-22
6.66349e-23
1.41273e-23
3.34351e-24
8.08227e-25
8.38315e-25
2.35005e-24
4.67799e-24
8.05231e-24
2.31625e-23
5.59716e-23
1.46716e-22
1.8579e-22
2.54997e-22
3.81433e-22
4.63779e-22
3.90823e-22
2.24689e-22
1.40727e-23
1.26268e-22
5.64024e-22
9.19972e-22
1.44365e-21
1.52901e-21
1.30597e-21
4.46856e-22
1.53944e-22
4.17052e-23
1.0201e-23
3.11148e-24
3.69588e-24
1.45243e-23
4.76876e-23
1.00923e-22
1.48741e-22
3.13188e-22
6.51538e-22
1.71219e-21
1.78661e-21
4.15917e-21
5.06374e-21
5.59884e-21
4.18877e-21
9.1914e-22
2.00599e-23
1.53817e-22
6.8391e-22
1.64552e-21
2.43346e-21
2.81749e-21
2.69165e-21
1.48468e-21
3.33632e-22
1.31192e-22
3.37658e-23
1.27852e-23
1.66325e-23
6.26455e-23
2.93923e-22
6.64585e-22
1.77386e-21
2.68991e-21
5.45984e-21
9.03913e-21
2.4002e-20
2.33497e-20
3.90897e-20
5.37473e-20
4.49348e-20
3.02631e-20
1.67561e-20
2.52357e-23
2.04836e-22
7.44017e-22
1.78558e-21
3.8489e-21
3.92875e-21
4.01793e-21
2.91976e-21
1.07292e-21
2.87355e-22
8.97491e-23
7.61652e-23
1.13967e-22
2.81315e-22
1.20307e-21
4.76296e-21
9.88829e-21
2.9892e-20
4.41875e-20
9.57021e-20
1.27433e-19
1.94752e-19
2.06638e-19
4.40564e-19
3.8999e-19
2.16249e-19
2.10024e-19
9.13744e-20
3.93638e-23
2.51603e-22
7.42976e-22
2.33725e-21
5.20829e-21
7.93688e-21
8.48084e-21
6.66286e-21
3.31675e-21
7.52113e-22
2.79242e-22
3.38371e-22
7.28931e-22
1.84896e-21
5.99671e-21
1.76811e-20
6.65456e-20
1.12558e-19
3.90821e-19
5.98385e-19
1.26781e-18
1.51556e-18
1.21312e-18
3.05176e-18
2.39866e-18
3.51506e-18
2.08288e-18
1.0625e-18
4.10134e-19
2.99969e-23
2.39731e-22
8.77555e-22
2.11848e-21
5.47963e-21
9.60695e-21
1.37761e-20
1.28834e-20
6.80176e-21
2.86863e-21
1.19041e-21
1.73999e-21
4.39765e-21
9.44287e-21
3.83809e-20
1.40692e-19
3.16626e-19
9.7953e-19
1.67724e-18
5.30792e-18
5.37873e-18
8.01537e-18
1.20094e-17
1.41698e-17
2.54483e-17
2.32112e-17
1.67111e-17
9.49038e-18
3.0663e-18
1.77993e-18
2.72882e-23
1.72139e-22
8.70388e-22
2.27739e-21
5.73551e-21
1.49887e-20
2.43614e-20
2.05789e-20
1.35475e-20
6.50657e-21
3.61933e-21
7.9579e-21
2.25236e-20
6.10197e-20
1.63061e-19
5.50103e-19
1.78743e-18
4.20862e-18
1.1341e-17
2.22787e-17
4.95412e-17
6.18715e-17
9.9881e-17
9.34064e-17
9.57428e-17
1.30154e-16
7.77275e-17
6.83946e-17
4.846e-17
1.4345e-17
5.07298e-18
2.82986e-23
1.57335e-22
5.18857e-22
2.71952e-21
8.57011e-21
2.0346e-20
3.01624e-20
3.72734e-20
2.68056e-20
1.3764e-20
1.32665e-20
2.7388e-20
9.81534e-20
3.2413e-19
9.27812e-19
2.69238e-18
8.00817e-18
2.27963e-17
7.85136e-17
1.29291e-16
2.36025e-16
4.69398e-16
7.49351e-16
8.21983e-16
6.74987e-16
5.04089e-16
5.9836e-16
3.69097e-16
2.31237e-16
1.62981e-16
4.23652e-17
5.06738e-18
8.15661e-23
2.39145e-22
5.16775e-22
2.05468e-21
9.21471e-21
2.39632e-20
4.2128e-20
5.26013e-20
4.31756e-20
3.16042e-20
3.69595e-20
1.12804e-19
4.2125e-19
1.69965e-18
4.39461e-18
1.32065e-17
3.33651e-17
1.37384e-16
3.36146e-16
5.9719e-16
1.00262e-15
1.64037e-15
2.71334e-15
3.28457e-15
3.74601e-15
3.48155e-15
3.23665e-15
2.51498e-15
1.6185e-15
1.24442e-15
5.28296e-16
1.8122e-16
7.64351e-18
2.76733e-22
5.63399e-22
8.71168e-22
2.19376e-21
8.31399e-21
2.56959e-20
5.20839e-20
7.57008e-20
7.38979e-20
5.43864e-20
1.11319e-19
4.00868e-19
1.54559e-18
6.24112e-18
2.31169e-17
7.19098e-17
2.0144e-16
4.52673e-16
1.41029e-15
2.88601e-15
5.5218e-15
1.00477e-14
1.71314e-14
2.02976e-14
2.3967e-14
2.66394e-14
2.55902e-14
2.15778e-14
1.49562e-14
8.61624e-15
4.10177e-15
1.76081e-15
1.47167e-16
2.17421e-18
4.16431e-17
7.99791e-22
1.57813e-21
1.68987e-21
2.46655e-21
7.55098e-21
2.68497e-20
6.58502e-20
9.54211e-20
1.09794e-19
1.0118e-19
2.51004e-19
1.53032e-18
6.1793e-18
2.24891e-17
8.06302e-17
3.14265e-16
9.99052e-16
2.15604e-15
6.34167e-15
1.5803e-14
3.37165e-14
6.5452e-14
1.16959e-13
1.25958e-13
1.63941e-13
1.9321e-13
1.98217e-13
1.72811e-13
1.2953e-13
8.04006e-14
3.91114e-14
1.40278e-14
5.90475e-18
3.1454e-16
1.59396e-15
1.39444e-17
1.43293e-16
2.50571e-21
5.23413e-21
5.2608e-21
4.18362e-21
1.07285e-20
2.54914e-20
6.32969e-20
1.28245e-19
1.52339e-19
1.60662e-19
6.2204e-19
3.93017e-18
2.29153e-17
9.06492e-17
3.38022e-16
9.96729e-16
3.5115e-15
1.14304e-14
3.48429e-14
9.24115e-14
2.07449e-13
4.05711e-13
7.73537e-13
8.16163e-13
1.0682e-12
1.28405e-12
1.37967e-12
1.28771e-12
1.01988e-12
6.82294e-13
3.64919e-13
1.39224e-13
1.15746e-14
4.17984e-14
6.41514e-15
3.05552e-14
3.35176e-14
8.50477e-16
4.94692e-15
3.45918e-17
4.93028e-16
8.96798e-21
1.53435e-20
1.99739e-20
1.08533e-20
1.62647e-20
2.77305e-20
5.92045e-20
1.45431e-19
1.9433e-19
2.45222e-19
1.25595e-18
1.23007e-17
6.93415e-17
3.1737e-16
1.14938e-15
4.28267e-15
1.46882e-14
5.64877e-14
1.89556e-13
5.32368e-13
1.24571e-12
2.49363e-12
4.42655e-12
5.41447e-12
6.63481e-12
7.99456e-12
8.73994e-12
8.5386e-12
7.23825e-12
5.13545e-12
3.01954e-12
1.36413e-12
1.4824e-13
5.48157e-13
1.4227e-13
2.76031e-14
1.56958e-13
1.49285e-13
2.83265e-15
1.97973e-14
1.74833e-16
1.25808e-15
3.02276e-20
4.61945e-20
6.7003e-20
4.23536e-20
3.40901e-20
3.26083e-20
6.39788e-20
1.30559e-19
2.60542e-19
3.62114e-19
2.13953e-18
3.04817e-17
1.89473e-16
8.95991e-16
4.19919e-15
1.5695e-14
6.66184e-14
2.70783e-13
9.7247e-13
2.91311e-12
7.1719e-12
1.47438e-11
2.67702e-11
4.18347e-11
3.96001e-11
4.71582e-11
5.15947e-11
5.12607e-11
4.55581e-11
3.48232e-11
2.24145e-11
1.17979e-11
1.85698e-12
6.24354e-12
5.84031e-13
2.26541e-12
7.11922e-13
1.22515e-13
7.64516e-13
7.11848e-13
1.09523e-14
8.31613e-14
1.85647e-16
4.31621e-15
1.01069e-19
2.3011e-19
2.72664e-19
1.91846e-19
1.03537e-19
8.02703e-20
9.22325e-20
1.59563e-19
3.26432e-19
4.84868e-19
3.33611e-18
5.89293e-17
5.29129e-16
2.81362e-15
1.43862e-14
6.4388e-14
2.8862e-13
1.23528e-12
4.68582e-12
1.49524e-11
3.90235e-11
8.35172e-11
1.51206e-10
2.62671e-10
2.27095e-10
2.65483e-10
2.87263e-10
2.85591e-10
2.59127e-10
2.11278e-10
1.52483e-10
9.1853e-11
1.9026e-11
5.61721e-11
8.23152e-12
2.83035e-11
3.05528e-12
1.24675e-11
3.71781e-12
5.67338e-13
3.91639e-12
3.62322e-12
4.53103e-14
3.75506e-13
6.4379e-16
1.75314e-14
6.30199e-19
1.4096e-18
1.05764e-18
6.72034e-19
4.6868e-19
2.89663e-19
1.48447e-19
1.91723e-19
3.49869e-19
5.53185e-19
4.87348e-18
1.01619e-16
1.21556e-15
8.8354e-15
4.76192e-14
2.558e-13
1.13684e-12
5.28589e-12
2.14221e-11
7.26593e-11
2.00171e-10
4.48483e-10
8.27949e-10
1.29607e-09
1.31528e-09
1.44123e-09
1.51902e-09
1.49641e-09
1.36977e-09
1.16807e-09
9.38101e-10
6.62821e-10
1.52286e-10
4.14579e-10
9.12881e-11
2.76913e-10
4.76125e-11
1.70391e-10
1.69811e-11
7.36639e-11
2.08675e-11
2.82488e-12
2.21336e-11
2.04984e-11
1.99882e-13
1.8173e-12
2.52395e-15
7.5554e-14
2.48919e-18
4.01688e-18
5.12698e-18
2.57121e-18
1.94529e-18
1.09694e-18
4.19368e-19
2.8824e-19
3.72018e-19
6.70801e-19
5.5227e-18
1.49472e-16
2.40954e-15
2.39226e-14
1.42008e-13
8.64981e-13
4.06696e-12
2.04596e-11
9.03159e-11
3.30007e-10
9.81841e-10
2.28787e-09
4.38678e-09
6.73931e-09
8.61725e-09
7.48751e-09
7.71033e-09
7.43913e-09
6.83661e-09
6.08154e-09
5.33291e-09
4.42415e-09
1.10382e-09
2.86715e-09
7.797e-10
2.07791e-09
5.71014e-10
1.77404e-09
3.01766e-10
1.15424e-09
1.05499e-10
5.00109e-10
1.33841e-10
1.56055e-11
1.45217e-10
1.34583e-10
9.36845e-13
9.60797e-12
1.066e-14
3.41351e-13
1.43594e-17
2.36798e-17
1.97752e-17
1.37274e-17
8.24283e-18
3.38049e-18
1.83028e-18
6.36361e-19
5.26615e-19
8.10601e-19
5.58568e-18
1.85039e-16
3.98263e-15
4.75426e-14
3.86598e-13
2.52998e-12
1.35534e-11
7.2311e-11
3.44388e-10
1.37927e-09
4.36935e-09
1.12983e-08
2.19591e-08
3.5259e-08
4.34346e-08
3.54622e-08
3.68663e-08
3.52673e-08
3.27579e-08
3.09296e-08
2.96868e-08
2.82266e-08
7.43356e-09
1.82837e-08
5.26505e-09
1.32238e-08
5.10271e-09
1.3771e-08
4.11433e-09
1.34403e-08
2.2457e-09
9.28558e-09
7.68353e-10
4.00962e-09
1.01367e-09
9.8933e-11
1.1248e-09
1.0323e-09
4.71564e-12
5.73763e-11
4.7851e-14
1.63989e-12
1.66182e-16
1.78132e-16
1.06709e-16
5.85453e-17
2.50436e-17
1.40491e-17
6.89089e-18
2.67315e-18
1.06419e-18
9.45278e-19
5.06379e-18
1.92867e-16
5.57269e-15
9.55083e-14
9.32593e-13
6.95565e-12
4.46413e-11
2.36225e-10
1.20142e-09
5.19401e-09
1.80626e-08
4.89499e-08
1.07507e-07
1.71148e-07
1.81539e-07
1.56196e-07
1.61394e-07
1.5525e-07
1.50441e-07
1.60477e-07
1.74423e-07
1.79062e-07
4.61489e-08
1.14203e-07
3.25838e-08
8.07921e-08
3.49795e-08
8.64753e-08
4.05928e-08
1.15214e-07
3.51824e-08
1.20763e-07
1.94496e-08
8.48134e-08
6.49884e-09
3.61291e-08
8.76199e-09
7.24689e-10
9.81637e-09
8.80012e-09
2.6242e-11
3.94381e-10
2.33311e-13
8.61343e-12
9.45578e-16
1.0736e-15
6.47822e-16
3.09431e-16
1.27318e-16
6.19689e-17
2.79913e-17
1.03631e-17
2.84148e-18
1.44865e-18
4.1582e-18
1.74192e-16
6.37209e-15
1.39293e-13
1.99472e-12
1.71537e-11
1.2335e-10
6.98649e-10
3.88666e-09
1.77252e-08
6.72364e-08
1.94232e-07
4.63507e-07
6.44354e-07
6.64197e-07
6.55225e-07
6.5254e-07
6.24978e-07
6.34147e-07
7.97081e-07
1.11016e-06
1.20484e-06
3.01626e-07
8.33883e-07
1.99779e-07
5.06434e-07
2.16166e-07
5.50216e-07
3.11403e-07
8.20321e-07
3.85186e-07
1.15771e-06
3.3284e-07
1.16737e-06
1.81141e-07
8.00645e-07
5.93234e-08
3.34998e-07
7.97438e-08
5.90055e-09
8.91224e-08
7.76488e-08
1.6473e-10
3.02027e-09
1.2933e-12
5.0858e-11
7.26524e-15
9.89813e-15
5.10854e-15
1.84415e-15
7.52831e-16
2.3916e-16
1.11286e-16
4.2939e-17
1.06994e-17
3.31335e-18
3.61518e-18
1.30936e-16
6.27178e-15
1.77683e-13
2.93934e-12
3.49268e-11
3.0204e-10
1.86472e-09
1.12784e-08
5.6836e-08
2.20206e-07
7.39356e-07
1.57032e-06
2.03299e-06
2.37894e-06
2.51984e-06
2.46504e-06
2.35337e-06
2.51446e-06
3.58647e-06
6.04327e-06
8.45917e-06
3.84351e-06
6.063e-07
1.27881e-06
3.29281e-06
1.37474e-06
3.32661e-06
2.01522e-06
4.83242e-06
3.25235e-06
8.4394e-06
3.78759e-06
1.09345e-05
3.1137e-06
1.03947e-05
1.65343e-06
7.01089e-06
5.38026e-07
2.93897e-06
7.08828e-07
5.0422e-08
7.82282e-07
6.70393e-07
1.14915e-09
2.44236e-08
8.20811e-12
3.31769e-10
5.24137e-14
8.53696e-14
4.59323e-14
1.66502e-14
5.06547e-15
1.31028e-15
5.26412e-16
1.60586e-16
4.96231e-17
1.12282e-17
4.58867e-18
8.6715e-17
5.13912e-15
1.87932e-13
3.99065e-12
5.71241e-11
6.18006e-10
4.52788e-09
2.91149e-08
1.59074e-07
7.10488e-07
2.23662e-06
4.38512e-06
6.35465e-06
8.04057e-06
8.75833e-06
8.6535e-06
8.45131e-06
1.00409e-05
1.58442e-05
2.79847e-05
4.30179e-05
5.57259e-05
9.203e-06
3.4496e-05
7.78428e-06
1.81843e-05
1.12886e-05
2.5393e-05
2.0296e-05
4.49867e-05
2.86841e-05
6.85423e-05
3.04243e-05
7.90187e-05
2.44623e-05
7.13254e-05
1.33515e-05
4.84245e-05
4.51141e-06
2.19683e-05
5.78115e-06
4.29632e-07
6.26582e-06
5.36617e-06
8.48848e-09
1.98665e-07
5.82083e-11
2.26555e-09
3.28383e-13
6.43023e-13
4.04665e-13
1.4977e-13
4.19815e-14
9.5933e-15
2.68107e-15
7.4383e-16
1.9269e-16
4.78248e-17
1.07114e-17
4.86285e-17
3.54761e-15
1.70621e-13
4.5431e-12
8.12128e-11
1.02242e-09
9.41489e-09
6.76985e-08
3.90367e-07
1.86143e-06
5.81759e-06
1.18956e-05
1.93284e-05
2.53107e-05
2.79711e-05
2.78643e-05
2.84243e-05
3.99553e-05
7.11108e-05
0.00011136
0.000155375
0.000217619
0.000180363
0.000284848
4.01872e-05
9.43041e-05
5.2346e-05
0.000110191
9.37882e-05
0.0001794
0.000150203
0.000283101
0.000182254
0.000367166
0.000178792
0.000397785
0.000143333
0.000351762
8.23212e-05
0.000246369
3.14409e-05
0.00012332
3.86534e-05
3.47814e-06
4.10438e-05
3.57091e-05
6.3263e-08
1.57615e-06
4.42703e-10
1.55479e-08
1.50545e-12
3.6819e-12
2.95082e-12
1.29979e-12
3.88024e-13
9.6837e-14
2.12466e-14
4.25739e-15
6.93462e-16
1.85917e-16
4.15666e-17
3.05193e-17
1.90865e-15
1.24631e-13
4.37299e-12
9.55782e-11
1.50482e-09
1.69586e-08
1.41547e-07
8.48101e-07
4.24009e-06
1.36315e-05
3.12451e-05
5.41667e-05
7.27433e-05
8.16948e-05
8.17e-05
8.76637e-05
0.000136977
0.000250665
0.000369459
0.000443664
0.000519194
0.000440737
0.00061424
0.000436229
0.000589863
0.000192028
0.000305689
0.0002897
0.000426462
0.000445813
0.000624899
0.000601108
0.000851179
0.00070204
0.00104256
0.000715603
0.00114378
0.000600185
0.00111026
0.000372201
0.000893827
0.000163425
0.000504812
0.000192004
2.4403e-05
0.00019942
0.000176632
4.66644e-07
1.17259e-05
3.0143e-09
1.06734e-07
4.23889e-12
1.3976e-11
1.57587e-11
9.21031e-12
3.35882e-12
9.40486e-13
1.47226e-13
2.74372e-14
3.84126e-15
7.61801e-16
1.53417e-16
3.98924e-17
9.35135e-16
7.17972e-14
3.49273e-12
9.4338e-11
1.83011e-09
2.56671e-08
2.41088e-07
1.71908e-06
8.43493e-06
2.98426e-05
7.51906e-05
0.000134143
0.000185544
0.000207245
0.000207163
0.000231375
0.000359252
0.00062401
0.00086668
0.000958567
0.000942374
0.000834917
0.000981623
0.000752196
0.000953724
0.000879863
0.00104491
0.000572748
0.000724338
0.000806972
0.000994269
0.00110038
0.00134175
0.00138505
0.00170965
0.00158585
0.00201597
0.00166049
0.00219759
0.00155018
0.00220806
0.00119934
0.00198422
0.000620126
0.00148055
0.000694056
0.000128394
0.000704789
0.000636544
3.54779e-06
6.95147e-05
1.74884e-08
9.23248e-07
5.41562e-12
3.02284e-11
5.05896e-11
4.60772e-11
2.38853e-11
7.82276e-12
1.22842e-12
1.72992e-13
2.75173e-14
3.39392e-15
5.49013e-16
1.03533e-16
4.33309e-16
3.59347e-14
2.13941e-12
7.90405e-11
1.86177e-09
3.21238e-08
3.71893e-07
2.90261e-06
1.51438e-05
5.77004e-05
0.000149672
0.00026483
0.00034473
0.000364052
0.000363915
0.000416386
0.000632585
0.00102075
0.00142933
0.00166623
0.00165262
0.00158673
0.00112843
0.00145578
0.00121629
0.0014107
0.00151451
0.00168262
0.0011751
0.00134716
0.00157066
0.00178976
0.00201151
0.00228751
0.00241428
0.00276993
0.0026995
0.00315585
0.00282843
0.00338522
0.00274034
0.00342078
0.00237748
0.00321423
0.00169304
0.00270196
0.00180684
0.000495526
0.00179754
0.00164584
2.60084e-05
0.00031817
2.28472e-07
1.06297e-05
2.71201e-11
9.40801e-11
1.3477e-10
1.15114e-10
4.99815e-11
8.65908e-12
1.22927e-12
1.54618e-13
2.19654e-14
3.04654e-15
3.09713e-16
2.28667e-16
1.6609e-14
1.12551e-12
5.08274e-11
1.59631e-09
3.31996e-08
4.93754e-07
4.11498e-06
2.40594e-05
9.67046e-05
0.000249035
0.000420864
0.000518398
0.000533447
0.000528574
0.000612945
0.000898575
0.001423
0.00197664
0.00233899
0.00249892
0.00239666
0.00210417
0.00241517
0.00161079
0.00185972
0.0018532
0.0020339
0.00234083
0.00250221
0.00199012
0.00217169
0.00254211
0.00277122
0.00308728
0.00336477
0.00355261
0.00388752
0.00387164
0.00428294
0.00401538
0.0044997
0.00392965
0.00453212
0.00358904
0.00434511
0.00291856
0.00386866
0.00302768
0.00136976
0.00301304
0.00286398
0.000162336
0.00100588
6.38679e-06
0.000106942
7.07112e-11
2.2481e-10
3.10019e-10
2.20682e-10
5.04713e-11
7.64748e-12
9.1109e-13
1.00977e-13
1.15634e-14
1.29242e-15
2.41591e-16
6.6266e-15
5.5926e-13
2.71756e-11
1.00072e-09
2.91e-08
5.30645e-07
4.84417e-06
3.19849e-05
0.000136717
0.000354689
0.000584413
0.000699146
0.000707785
0.000701702
0.000804608
0.00116174
0.00175313
0.00225255
0.00262101
0.00291989
0.00312919
0.00272532
0.00307881
0.00267424
0.00293898
0.00222873
0.00244265
0.00265717
0.00281159
0.00329929
0.00343417
0.00297165
0.00314595
0.00361066
0.00381801
0.00417212
0.00440073
0.00459934
0.00482137
0.00484138
0.00504991
0.00494035
0.00515731
0.00489833
0.00519964
0.0046163
0.00512391
0.0040396
0.00479316
0.00410735
0.00258073
0.00407107
0.00394421
0.00330919
0.000678485
0.00218463
0.000147457
0.000691784
1.3953e-10
4.72945e-10
6.03026e-10
2.27454e-10
4.32376e-11
5.26748e-12
5.76171e-13
5.98783e-14
7.36391e-15
5.54342e-16
2.35164e-15
2.32389e-13
1.44427e-11
5.34632e-10
1.88547e-08
4.7475e-07
4.90152e-06
3.64648e-05
0.00016864
0.00045241
0.000744822
0.000881664
0.000885507
0.000875464
0.000992914
0.00137031
0.00186805
0.0022191
0.00254541
0.00286429
0.00323511
0.00364779
0.0032044
0.0035686
0.00332275
0.00351807
0.00297368
0.00314211
0.00355299
0.00366267
0.00423513
0.0043129
0.00399055
0.00412917
0.00458311
0.00470539
0.00496931
0.00505406
0.00516947
0.0052308
0.00525889
0.00529743
0.0053121
0.00533686
0.00534908
0.00539317
0.00526455
0.00542184
0.00489525
0.00535178
0.00512971
0.00451099
0.00490676
0.00380362
0.00301069
0.00370685
0.00441245
0.00487625
0.00486618
0.00436247
0.00125563
0.00199022
0.00353108
0.00344231
0.00276413
0.00117046
0.00201127
0.0016247
0.00220834
2.57599e-10
8.70379e-10
7.58739e-10
1.93397e-10
2.7033e-11
2.79531e-12
2.64815e-13
2.2247e-14
2.2767e-15
1.09645e-15
8.43948e-14
6.19084e-12
3.02384e-10
1.02876e-08
3.14552e-07
4.32559e-06
3.63536e-05
0.000185239
0.000529126
0.000893579
0.00106253
0.00106636
0.00105249
0.0011764
0.00153192
0.00184943
0.00209105
0.00228075
0.00250603
0.00290935
0.00348617
0.00404225
0.00398535
0.00373087
0.00393403
0.00397555
0.00408725
0.00376741
0.00387057
0.00436954
0.00441051
0.00482968
0.00482367
0.00478125
0.00482131
0.00510204
0.00510204
0.00525046
0.00523989
0.005306
0.00528626
0.00531038
0.00525518
0.00533379
0.00518753
0.00543027
0.00540336
0.00533371
0.0052027
0.00544116
0.00547508
0.00537048
0.00535285
0.00545216
0.00535858
0.00516719
0.00540813
0.00547673
0.005189
0.00426925
0.00414904
0.0048106
0.00516544
0.00519129
0.00474711
0.00274468
0.00403623
0.00395566
0.00338652
0.00055541
0.00114113
0.00251985
0.00287758
0.00304168
4.77585e-10
1.22223e-09
6.52728e-10
1.16719e-10
1.28896e-11
1.17346e-12
9.34511e-14
9.88716e-15
1.19313e-15
2.57455e-14
2.32991e-12
1.29561e-10
4.90369e-09
1.73029e-07
3.01706e-06
3.20455e-05
0.000185557
0.000571908
0.00101971
0.00123838
0.00124737
0.00123002
0.00135337
0.00162643
0.00181286
0.00190561
0.00182854
0.00162873
0.00181013
0.00252471
0.00358579
0.00429751
0.00423209
0.00420619
0.00429224
0.00450086
0.00453488
0.0044424
0.00447184
0.0048134
0.0048002
0.00500254
0.00495812
0.00508205
0.00504854
0.00521494
0.00516241
0.00524624
0.0051643
0.00515639
0.00502871
0.00498082
0.00476883
0.0050605
0.00489008
0.00474819
0.00458619
0.00526606
0.00509857
0.00490806
0.00549811
0.00545105
0.00518594
0.00510753
0.00531698
0.00549631
0.00541077
0.00551274
0.00551064
0.00542009
0.00465997
0.00456254
0.0051248
0.00541609
0.00539786
0.00506877
0.00343464
0.004472
0.0044062
0.00392846
5.09126e-05
0.000394478
0.002168
0.00354163
0.00314907
1.0081e-09
1.49167e-09
4.12707e-10
5.41611e-11
5.14202e-12
4.09323e-13
2.82036e-14
2.78371e-15
1.04291e-14
7.83822e-13
4.87755e-11
2.09148e-09
7.92424e-08
1.89928e-06
2.28035e-05
0.000169659
0.000577313
0.00110755
0.00140213
0.00142807
0.00139966
0.00151106
0.00168311
0.00177391
0.00174062
0.00141415
0.000933067
0.00093775
0.0014075
0.00219013
0.00388111
0.00313729
0.00450853
0.00433292
0.00455956
0.00455624
0.00478669
0.00478108
0.00479331
0.00478985
0.00492128
0.00489821
0.00491009
0.00485413
0.00507972
0.00499143
0.00503202
0.00487608
0.00486079
0.00466196
0.00455753
0.00434777
0.00445595
0.00430815
0.00419048
0.00405814
0.0047138
0.00452413
0.00434611
0.00417616
0.00497855
0.00475028
0.0045181
0.00543918
0.00527076
0.0048587
0.00474521
0.00502915
0.00551966
0.00552208
0.00552861
0.0054276
0.00553181
0.00499732
0.00491755
0.00537034
0.00553765
0.0055394
0.0053295
0.00395632
0.0048406
0.00477479
0.00437296
6.10243e-06
0.001448
0.000160725
0.00381023
0.00284305
1.9192e-09
1.21886e-09
1.98605e-10
2.12169e-11
1.76041e-12
1.21991e-13
1.15774e-14
4.89723e-15
2.55895e-13
1.73285e-11
8.20609e-10
3.2423e-08
1.02352e-06
1.32507e-05
0.00012789
0.000551051
0.00113835
0.00154058
0.00159689
0.00156832
0.00163728
0.00170998
0.00173729
0.00159426
0.00111392
0.000548794
0.000454212
0.000744962
0.00130784
0.00204341
0.003791
0.00303956
0.00463241
0.00436143
0.00477147
0.00473778
0.00489826
0.00489388
0.00489367
0.00489577
0.00482999
0.0048344
0.00453873
0.00453299
0.00472837
0.00461127
0.00444367
0.00424679
0.0041025
0.00391128
0.00395808
0.00385325
0.00378461
0.0037265
0.00402573
0.00388409
0.00376559
0.00366314
0.00429412
0.0040874
0.00390318
0.00374539
0.00459154
0.004321
0.0040649
0.00522891
0.00495776
0.00443999
0.00430371
0.00464159
0.0054189
0.00553777
0.00541813
0.00519666
0.00555118
0.00527619
0.00521112
0.00553488
0.00556768
0.0055885
0.0055189
0.00428878
0.00513988
0.0050585
0.00469691
3.91103e-06
0.0010048
0.000116971
0.00384196
0.00257485
2.18759e-09
6.40402e-10
8.00811e-11
7.22667e-12
5.29841e-13
4.45676e-14
4.94537e-15
1.08801e-13
5.65966e-12
3.01344e-10
1.22619e-08
4.39623e-07
7.49206e-06
8.35004e-05
0.0004635
0.00112577
0.00162859
0.00174345
0.00171902
0.00172801
0.00173909
0.0017005
0.00145097
0.000900278
0.000363356
0.000215186
0.000354079
0.000871616
0.00172054
0.0023919
0.00213468
0.00368989
0.0029729
0.00467661
0.00431523
0.00487877
0.00482549
0.00491992
0.00492693
0.00485276
0.00488982
0.00455776
0.00462306
0.00403003
0.0040734
0.00410473
0.00402872
0.00378226
0.00368877
0.00366405
0.0036806
0.00359754
0.00357455
0.00358598
0.0036112
0.00361348
0.00351405
0.00345911
0.00345501
0.00383833
0.00364911
0.00349967
0.00339447
0.00413519
0.00385515
0.00361866
0.00489821
0.00455343
0.00397173
0.0038389
0.00418907
0.00517792
0.0054297
0.0051743
0.00485452
0.0054547
0.00549124
0.00544574
0.00560827
0.00549746
0.00555249
0.00562456
0.00447458
0.00537666
0.00527476
0.00492255
2.39754e-06
0.000838246
9.04023e-05
0.00383389
0.00244289
1.85165e-09
2.83137e-10
2.79615e-11
2.18803e-12
1.40512e-13
1.16323e-14
3.51428e-14
2.25777e-12
1.04419e-10
4.43339e-09
1.58356e-07
3.90862e-06
4.71656e-05
0.000338463
0.00105476
0.00164947
0.00185581
0.00183504
0.00179911
0.00176396
0.00164809
0.00130536
0.000712161
0.000260568
0.00010809
0.000147488
0.000476746
0.00157087
0.00244822
0.00256887
0.00254235
0.00360819
0.00297527
0.00466383
0.00423157
0.00491336
0.00484818
0.004889
0.00491528
0.00471904
0.00481665
0.00418856
0.00435699
0.0034843
0.00358037
0.00358434
0.00349437
0.00367616
0.00364474
0.00388716
0.00402085
0.00422045
0.00412897
0.00347863
0.00354012
0.00363206
0.00375345
0.0033453
0.00334846
0.0033926
0.00348129
0.003435
0.00330888
0.00324863
0.00325043
0.00367727
0.00344095
0.00327471
0.00448494
0.00409969
0.00353657
0.00343376
0.00373745
0.00483017
0.00519105
0.0048283
0.0044391
0.00523588
0.00562994
0.00561599
0.00561537
0.00531223
0.00541767
0.0056734
0.00461139
0.00556466
0.00545935
0.00510315
1.67299e-06
0.00075337
8.08191e-05
0.00386326
0.00244091
1.09196e-09
1.07282e-10
8.68579e-12
5.96125e-13
4.57012e-14
1.23762e-14
7.506e-13
3.4024e-11
1.52436e-09
5.61208e-08
1.60359e-06
2.27201e-05
0.000216136
0.000878482
0.00162503
0.00192241
0.00192644
0.00186636
0.00177726
0.0015691
0.00113589
0.00054012
0.000185158
5.97476e-05
5.37704e-05
0.0001845
0.000841608
0.00207063
0.0029816
0.00286222
0.00289094
0.00290319
0.0035873
0.00309815
0.00461084
0.00415168
0.00490424
0.00483111
0.00482471
0.0048767
0.00453904
0.00470454
0.00377515
0.00402655
0.00313381
0.00310373
0.00350555
0.00332545
0.00425645
0.00425992
0.00438866
0.00444708
0.00464971
0.00493544
0.00481988
0.00361735
0.00379534
0.00400083
0.00422364
0.0033017
0.0034083
0.00357642
0.00379374
0.00318152
0.00316872
0.00320245
0.00331759
0.00330842
0.00316232
0.00311278
0.00403705
0.00366682
0.00321418
0.0031548
0.00336429
0.00441885
0.00485635
0.00442845
0.00400294
0.00492624
0.00571288
0.00573262
0.00554537
0.00504379
0.00521092
0.00567541
0.00475923
0.0057155
0.00563581
0.00528703
8.27366e-06
0.000758384
0.000154855
0.00398508
0.00259004
5.02436e-10
3.59724e-11
2.4537e-12
1.46955e-13
1.42082e-14
1.89486e-13
1.09119e-11
5.01453e-10
1.90114e-08
5.93306e-07
9.87109e-06
0.000119115
0.000644797
0.00152515
0.00193513
0.00199932
0.00192618
0.00177331
0.00146854
0.00094704
0.000393354
0.000133904
3.66561e-05
1.79856e-05
5.54317e-05
0.000267906
0.000919972
0.00198249
0.00320336
0.00288831
0.00329176
0.00327684
0.00367129
0.00337671
0.0045454
0.00412389
0.00486948
0.0047887
0.00469603
0.00478196
0.00429044
0.00452466
0.00327746
0.00357264
0.00305668
0.00274356
0.00402915
0.00353469
0.00497044
0.00492934
0.00563325
0.00543172
0.00522889
0.00546424
0.00575439
0.00564376
0.0040525
0.00434483
0.00464953
0.00494932
0.00349371
0.00373026
0.00402219
0.00435497
0.00312607
0.00321686
0.00338227
0.00361872
0.00309719
0.00307821
0.0031339
0.00362474
0.00332359
0.00306997
0.00305962
0.0031219
0.00399872
0.00447661
0.00403109
0.0036125
0.00457964
0.0057709
0.0058236
0.00541983
0.00474429
0.00498171
0.00563462
0.00494161
0.00583807
0.00578643
0.00546853
0.000184546
0.00105521
0.000615915
0.00424499
0.00307233
1.97473e-10
1.09615e-11
6.33636e-13
4.16829e-14
5.1388e-14
3.18715e-12
1.58077e-10
6.24644e-09
2.03027e-07
5.07154e-06
5.62616e-05
0.000410164
0.00127673
0.0019101
0.00204183
0.0019773
0.00176725
0.00138077
0.00078395
0.000308107
0.000100906
2.8517e-05
9.90214e-06
1.40089e-05
6.86077e-05
0.000273793
0.000641492
0.00176126
0.000865889
0.00318244
0.00254258
0.00361901
0.0034753
0.00388312
0.00371278
0.00449451
0.00417036
0.00478462
0.0047134
0.0044323
0.0045682
0.0039014
0.00420147
0.00271777
0.00295686
0.00338102
0.00261213
0.00516908
0.00477903
0.00436702
0.00578311
0.00574663
0.00615619
0.00593345
0.00602497
0.00623512
0.00642841
0.00637296
0.00471161
0.00507775
0.00543017
0.00575046
0.00391916
0.00427184
0.00466094
0.00506347
0.00326898
0.00348154
0.00376965
0.00412444
0.0030726
0.00316205
0.00333887
0.00330593
0.00311097
0.00307626
0.00307744
0.00305575
0.0036334
0.00411209
0.00369919
0.00331933
0.00425631
0.00580838
0.00590522
0.00528351
0.00447665
0.00479385
0.00558666
0.00515451
0.0059405
0.00591152
0.00563441
0.00216637
0.00207431
0.00264497
0.00463773
0.00408347
6.85223e-11
3.06114e-12
1.47066e-13
2.38715e-14
8.9133e-13
4.76628e-11
1.9797e-09
6.72321e-08
1.89768e-06
2.28876e-05
0.000223485
0.000941564
0.00180671
0.00204642
0.00202154
0.00177012
0.00129364
0.000660079
0.000270488
0.000102436
3.2729e-05
1.03198e-05
6.0398e-06
1.44367e-05
6.01284e-05
0.000132609
0.000148743
0.000975163
0.000370396
0.00263097
0.00180762
0.00360621
0.00323535
0.00398588
0.00381702
0.00440219
0.00418153
0.00460216
0.00455921
0.00393999
0.00413158
0.00330959
0.00365656
0.00225065
0.00222375
0.00425523
0.0036
0.00286918
0.00566257
0.00531385
0.00472181
0.00524125
0.00641415
0.00632309
0.00631453
0.00607118
0.00667445
0.00681944
0.00685996
0.0068782
0.00545838
0.00583287
0.00617007
0.0064546
0.00452643