/*--------------------------------*- C++ -*----------------------------------*\
  =========                 |
  \\      /  F ield         | OpenFOAM: The Open Source CFD Toolbox
   \\    /   O peration     | Website:  https://openfoam.org
    \\  /    A nd           | Version:  dev
     \\/     M anipulation  |
\*---------------------------------------------------------------------------*/
FoamFile
{
    version     2.0;
    format      ascii;
    class       volScalarField;
    location    "2500";
    object      G;
}
// * * * * * * * * * * * * * * * * * * * * * * * * * * * * * * * * * * * * * //

dimensions      [1 0 -3 0 0 0 0];

internalField   nonuniform List<scalar> 
9842
(
4005.34
4011.09
4012.58
4016.09
4018.34
4020.59
4020.34
4023.35
4026.36
4029.38
4023.86
4027.61
4031.38
4035.17
4038.97
4026.66
4031.13
4035.64
4040.19
4044.77
4049.37
4028.74
4033.92
4039.15
4044.44
4049.78
4055.18
4060.6
4030.13
4036
4041.92
4047.93
4054.02
4060.19
4066.42
4072.68
4030.84
4037.37
4043.97
4050.67
4057.48
4064.39
4071.41
4078.51
4085.65
4030.9
4038.06
4045.31
4052.68
4060.17
4067.81
4075.59
4083.49
4091.48
4099.52
4030.32
4038.1
4045.97
4053.96
4062.12
4070.44
4078.94
4087.61
4096.43
4105.36
4114.35
4029.14
4037.49
4045.95
4054.56
4063.33
4072.31
4081.5
4090.9
4100.5
4110.28
4120.19
4130.17
4027.37
4036.28
4045.3
4054.47
4063.84
4073.43
4083.27
4093.36
4103.7
4114.28
4125.07
4136.01
4147.04
4025.05
4034.48
4044.02
4053.74
4063.66
4073.83
4084.27
4095.01
4106.05
4117.38
4128.99
4140.84
4152.86
4165
4022.21
4032.13
4042.16
4052.38
4062.82
4073.53
4084.54
4095.88
4107.56
4119.59
4131.97
4144.66
4157.64
4170.81
4184.12
4018.88
4029.25
4039.74
4050.43
4061.35
4072.56
4084.09
4095.98
4108.26
4120.94
4134.02
4147.5
4161.35
4175.52
4189.92
4204.48
4015.08
4025.87
4036.8
4047.92
4059.28
4070.95
4082.96
4095.35
4108.17
4121.44
4135.17
4149.37
4164.02
4179.1
4194.54
4210.25
4226.15
4010.85
4022.03
4033.35
4044.87
4056.64
4068.72
4081.17
4094.03
4107.34
4121.14
4135.45
4150.3
4165.68
4181.58
4197.96
4214.77
4231.89
4249.22
4006.22
4017.76
4029.44
4041.32
4053.46
4065.93
4078.77
4092.04
4105.78
4120.06
4134.89
4150.32
4166.35
4182.99
4200.22
4218.01
4236.28
4254.93
4273.82
4001.22
4013.08
4025.09
4037.3
4049.78
4062.59
4075.78
4089.42
4103.55
4118.24
4133.53
4149.46
4166.07
4183.37
4201.36
4220.02
4239.32
4259.18
4279.47
4300.05
3995.88
4008.04
4020.34
4032.85
4045.63
4058.74
4072.24
4086.2
4100.68
4115.73
4131.42
4147.79
4164.88
4182.75
4201.4
4220.83
4241.04
4261.97
4283.55
4305.64
4328.06
3990.23
4002.65
4015.22
4027.99
4041.03
4054.41
4068.19
4082.43
4097.2
4112.57
4128.59
4145.33
4162.84
4181.18
4200.39
4220.48
4241.47
4263.35
4286.06
4309.52
4333.57
4358.02
3984.31
3996.96
4009.75
4022.76
4036.03
4049.65
4063.66
4078.14
4093.16
4108.79
4125.09
4142.14
4159.99
4178.72
4198.38
4219.03
4240.69
4263.36
4287.04
4311.7
4337.22
4363.43
4390.1
3978.13
3990.98
4003.98
4017.19
4030.66
4044.47
4058.69
4073.37
4088.6
4104.44
4120.97
4138.26
4156.39
4175.43
4195.46
4216.54
4238.73
4262.07
4286.56
4312.22
4339
4366.79
4395.39
4424.54
3971.74
3984.76
3997.93
4011.31
4024.95
4038.93
4053.31
4068.16
4083.55
4099.56
4116.27
4133.75
4152.09
4171.37
4191.67
4213.08
4235.67
4259.53
4284.69
4311.18
4338.99
4368.11
4398.41
4429.67
4461.67
3965.15
3978.32
3991.64
4005.16
4018.94
4033.05
4047.56
4062.54
4078.06
4094.2
4111.03
4128.65
4147.14
4166.59
4187.09
4208.73
4231.61
4255.84
4281.5
4308.64
4337.29
4367.48
4399.19
4432.28
4466.6
4501.8
3958.4
3971.69
3985.12
3998.75
4012.65
4026.87
4041.48
4056.55
4072.16
4088.39
4105.31
4123.02
4141.6
4161.15
4181.77
4203.56
4226.63
4251.1
4277.08
4304.69
4333.98
4365.02
4397.83
4432.42
4468.71
4506.49
4545.26
3951.5
3964.89
3978.41
3992.14
4006.11
4020.41
4035.09
4050.23
4065.89
4082.17
4099.14
4116.89
4135.51
4155.11
4175.78
4197.64
4220.8
4245.4
4271.57
4299.44
4329.17
4360.82
4394.48
4430.21
4468.07
4507.99
4549.63
4592.48
3944.49
3957.95
3971.54
3985.33
3999.36
4013.71
4028.43
4043.61
4059.3
4075.59
4092.57
4110.32
4128.94
4148.52
4169.18
4191.04
4214.21
4238.84
4265.07
4293.06
4322.98
4355.01
4389.25
4425.81
4464.84
4506.42
4550.39
4596.44
4643.98
3937.39
3950.89
3964.53
3978.36
3992.43
4006.8
4021.54
4036.72
4052.41
4068.69
4085.64
4103.35
4121.92
4141.45
4162.04
4183.83
4206.93
4231.5
4257.68
4285.65
4315.6
4347.75
4382.29
4419.38
4459.2
4501.96
4547.69
4596.29
4647.44
4700.43
3930.21
3943.74
3957.41
3971.25
3985.33
3999.71
4014.44
4029.6
4045.26
4061.5
4078.39
4096.03
4114.52
4133.94
4154.42
4176.07
4199.04
4223.46
4249.5
4277.34
4307.18
4339.24
4373.79
4411.09
4451.36
4494.85
4541.77
4592.22
4646.16
4703.28
4762.66
3922.98
3936.52
3950.19
3964.03
3978.1
3992.46
4007.16
4022.28
4037.88
4054.05
4070.86
4088.4
4106.76
4126.05
4146.37
4167.84
4190.61
4214.81
4240.62
4268.22
4297.82
4329.66
4364
4401.18
4441.52
4485.35
4532.93
4584.54
4640.41
4700.57
4764.71
4831.62
3915.7
3929.24
3942.91
3956.73
3970.77
3985.08
3999.73
4014.78
4030.3
4046.38
4063.08
4080.49
4098.7
4117.81
4137.94
4159.19
4181.71
4205.63
4231.13
4258.41
4287.66
4319.14
4353.11
4389.92
4429.96
4473.7
4521.47
4573.62
4630.59
4692.73
4760.24
4832.71
4908.59
3908.42
3921.93
3935.57
3949.36
3963.35
3977.6
3992.18
4007.14
4022.56
4038.51
4055.08
4072.33
4090.37
4109.28
4129.18
4150.18
4172.4
4196
4221.14
4248
4276.81
4307.81
4341.28
4377.55
4417.02
4460.23
4507.69
4559.83
4617.16
4680.29
4749.73
4826.09
4908.48
4972.02
4973.92
3901.15
3914.6
3928.2
3941.95
3955.88
3970.05
3984.54
3999.4
4014.69
4030.5
4046.9
4063.97
4081.8
4100.49
4120.13
4140.85
4162.75
4185.98
4210.7
4237.1
4265.39
4295.81
4328.65
4364.24
4402.96
4445.35
4492.01
4543.56
4600.6
4663.82
4734.09
4812.06
4899.53
4973.25
4969.81
5018.07
5019.75
3893.9
3907.29
3920.83
3934.51
3948.36
3962.45
3976.83
3991.56
4006.72
4022.37
4038.59
4055.45
4073.05
4091.48
4110.84
4131.24
4152.79
4175.63
4199.9
4225.78
4253.49
4283.27
4315.38
4350.17
4388
4429.38
4474.91
4525.3
4581.37
4643.92
4713.91
4792.56
4869.05
4858.58
4964.04
4905.56
4955.32
5018.48
5014.33
5067.13
5068.57
3886.69
3900
3913.46
3927.06
3940.83
3954.82
3969.08
3983.68
3998.67
4014.14
4030.16
4046.8
4064.15
4082.31
4101.36
4121.41
4142.58
4164.99
4188.78
4214.13
4241.22
4270.28
4301.6
4335.49
4372.31
4412.54
4456.76
4505.64
4560.09
4621.17
4689.97
4767.81
4846.96
4833.45
4894.2
5007.4
4944.42
4997.6
5066.7
5061.65
5119.57
5120.78
3879.52
3892.74
3906.12
3919.63
3933.3
3947.18
3961.31
3975.76
3990.58
4005.86
4021.65
4038.05
4055.13
4072.99
4091.72
4111.41
4132.18
4154.13
4177.41
4202.18
4228.62
4256.95
4287.43
4320.35
4356.07
4395.04
4437.8
4485
4537.46
4596.34
4663.01
4738.96
4819.14
4803.26
4880.99
4866.09
4931.54
5053.54
4985.29
5042.4
5118.24
5112.13
5175.78
5176.73
3872.42
3885.54
3898.82
3912.23
3925.79
3939.54
3953.54
3967.83
3982.47
3997.54
4013.1
4029.24
4046.03
4063.57
4081.96
4101.27
4121.63
4143.12
4165.88
4190.04
4215.8
4243.34
4272.93
4304.86
4339.44
4377.08
4418.29
4463.68
4513.98
4570.25
4633.95
4706.88
4786.81
4768.96
4849.98
4832.63
4916.67
4900.06
4970.75
5102.68
5028.47
5089.96
5173.42
5166.07
5236.18
5236.79
3865.4
3878.41
3891.58
3904.87
3918.31
3931.93
3945.78
3959.9
3974.36
3989.21
4004.53
4020.4
4036.89
4054.1
4072.11
4091.03
4110.95
4131.97
4154.21
4177.78
4202.84
4229.58
4258.24
4289.11
4322.5
4358.8
4398.43
4441.95
4490
4543.53
4603.83
4672.75
4750.79
4731.53
4814.3
4794.95
4882.12
4862.97
4954.06
4935.54
5012.04
5155.04
5074.13
5140.46
5232.59
5223.85
5301.29
5301.49
3858.45
3871.34
3884.4
3897.57
3910.88
3924.36
3938.06
3952
3966.26
3980.89
3995.96
4011.55
4027.73
4044.59
4062.23
4080.73
4100.21
4120.74
4142.44
4165.41
4189.79
4215.74
4243.47
4273.25
4305.4
4340.3
4378.36
4420.01
4465.82
4516.57
4573.38
4637.88
4712.4
4692.6
4774.87
4754.12
4842.74
4821.54
4915.57
4894.36
4993.36
4972.68
5055.58
5210.99
5122.46
5194.23
5296.31
5285.98
5371.72
5371.43
3851.59
3864.36
3877.3
3890.34
3903.52
3916.85
3930.38
3944.15
3958.21
3972.61
3987.42
4002.71
4018.57
4035.07
4052.32
4070.4
4089.42
4109.46
4130.61
4152.99
4176.69
4201.86
4228.7
4257.41
4288.31
4321.75
4358.19
4398
4441.62
4489.67
4543.06
4603.14
4673.27
4653.63
4733.14
4711.94
4799.54
4776.97
4872.05
4848.77
4950.4
4926.87
5034.65
5011.52
5101.48
5270.95
5173.72
5251.62
5365.12
5352.92
5448.15
5447.25
3844.82
3857.47
3870.28
3883.2
3896.23
3909.41
3922.77
3936.36
3950.21
3964.37
3978.92
3993.92
4009.44
4025.58
4042.42
4060.07
4078.61
4098.15
4118.77
4140.55
4163.59
4188
4213.95
4241.62
4271.3
4303.32
4338.08
4376.04
4417.54
4463.02
4513.18
4569.04
4634.63
4615.47
4690.9
4670.01
4754.14
4731.24
4824.69
4800.09
4902.24
4876.63
4986.64
4960.51
5077.96
5052.06
5149.96
5335.36
5228.22
5313.03
5439.55
5425.23
5531.44
5529.78
3838.16
3850.68
3863.36
3876.14
3889.03
3902.05
3915.25
3928.64
3942.28
3956.21
3970.49
3985.19
4000.38
4016.14
4032.57
4049.76
4067.82
4086.84
4106.91
4128.12
4150.53
4174.22
4199.3
4225.95
4254.42
4285.04
4318.19
4354.3
4393.74
4436.8
4483.94
4535.9
4597.05
4578.57
4649.5
4629.27
4708.51
4686.09
4775.27
4750.47
4850.25
4823.43
4933.28
4905.06
5024.3
4995.29
5123.48
5094.44
5201.29
5404.76
5286.33
5378.89
5520.39
5503.55
5622.62
5619.99
3831.6
3843.99
3856.54
3869.17
3881.92
3894.79
3907.81
3921.01
3934.44
3948.14
3962.15
3976.55
3991.39
4006.77
4022.78
4039.51
4057.06
4075.55
4095.07
4115.69
4137.49
4160.51
4184.82
4210.51
4237.79
4266.99
4298.52
4332.83
4370.32
4411.16
4455.57
4503.99
4560.87
4543.39
4609.53
4590.15
4664.11
4642.58
4725.94
4701.86
4796.46
4769.62
4876.17
4846.98
4965.18
4934.12
5063.47
5031.28
5171.38
5138.8
5255.73
5479.64
5348.31
5449.58
5608.48
5588.55
5723.01
5719.12
3825.15
3837.4
3849.82
3862.31
3874.91
3887.62
3900.47
3913.49
3926.71
3940.17
3953.92
3968.01
3982.52
3997.52
4013.09
4029.34
4046.38
4064.31
4083.25
4103.28
4124.48
4146.87
4170.47
4195.31
4221.51
4249.33
4279.18
4311.62
4347.17
4386.06
4428.16
4473.53
4522.54
4571.41
4553.27
4621.58
4601.09
4678.34
4655.42
4743.19
4717.39
4817.77
4788.89
4902.6
4871.04
4998.09
4964.17
5104.31
5068.77
5221.89
5185.43
5313.49
5560.56
5414.44
5525.67
5704.93
5681.21
5834.07
5828.58
3818.81
3830.92
3843.2
3855.56
3868.01
3880.56
3893.24
3906.07
3919.08
3932.31
3945.8
3959.6
3973.77
3988.39
4003.53
4019.3
4035.81
4053.17
4071.5
4090.92
4111.49
4133.27
4156.24
4180.35
4205.61
4232.16
4260.37
4290.83
4324.31
4361.28
4401.45
4444.27
4489.93
4544
4525.68
4581.33
4562.36
4633.17
4611.53
4692.36
4668.05
4760.64
4733.14
4839.72
4808.85
4930.16
4896.41
5032.61
4996.16
5147.34
5108.72
5275.37
5235.13
5374.98
5648.44
5485.43
5608.07
5811.06
5782.67
5957.44
5950.06
3812.58
3824.56
3836.7
3848.92
3861.22
3873.61
3886.12
3898.77
3911.58
3924.58
3937.81
3951.33
3965.17
3979.41
3994.13
4009.42
4025.38
4042.15
4059.85
4078.62
4098.55
4119.72
4142.11
4165.6
4190.05
4215.48
4242.15
4270.65
4301.88
4336.64
4374.8
4415.5
4458.12
4508.59
4490.95
4551.35
4532.46
4590.68
4570.69
4644.45
4621.52
4706.44
4680.59
4778.65
4749.38
4862.9
4830.05
4959.81
4923.92
5070.05
5031.34
5193.96
5152.89
5332.79
5289.59
5441.54
5744.27
5562.89
5698.45
5928.41
5894.26
6095.45
6085.7
3806.47
3818.31
3830.32
3842.39
3854.54
3866.78
3879.12
3891.59
3904.2
3916.98
3929.97
3943.2
3956.73
3970.6
3984.9
3999.71
4015.14
4031.3
4048.35
4066.42
4085.67
4106.21
4128.06
4151
4174.76
4199.18
4224.45
4251.06
4279.93
4311.93
4347.51
4386.16
4426.44
4474.36
4457
4514.22
4496.12
4557.98
4538.21
4599.45
4578.34
4655.57
4631.3
4721.06
4693.67
4798.09
4767.1
4888.61
4853.99
4993.22
4955.72
5112.38
5072.41
5246.45
5204.21
5396.39
5351.94
5516.16
5849.76
5650.35
5800.83
6058.79
6017.81
6251.12
6237.94
3800.54
3812.17
3824.05
3835.98
3847.99
3860.07
3872.25
3884.54
3896.95
3909.52
3922.27
3935.23
3948.45
3961.98
3975.88
3990.22
4005.11
4020.67
4037.04
4054.38
4072.89
4092.77
4114.07
4136.51
4159.67
4183.23
4207.23
4232.07
4258.49
4287.37
4319.62
4355.42
4393.85
4432.76
4478.42
4460.45
4518.97
4500.07
4564.08
4543.22
4607.94
4585.6
4667.1
4641.31
4737.05
4707.83
4820.13
4787.1
4918.55
4881.74
5032.79
4993.24
5162.92
5121.46
5308.72
5266.06
5470.6
5427.13
5604.23
5969.32
5754.33
5922.94
6204.34
6157.72
6428.91
6409.96
3806.23
3817.89
3829.69
3841.55
3853.49
3865.5
3877.62
3889.84
3902.2
3914.72
3927.43
3940.36
3953.55
3967.07
3980.96
3995.34
4010.29
4025.97
4042.56
4060.28
4079.43
4100.14
4122.12
4144.8
4167.67
4190.58
4213.83
4237.96
4263.72
4291.93
4323.6
4359.01
4396.74
4444.03
4424.28
4481.37
4462.64
4522.91
4502.98
4569.83
4547.68
4616.49
4592.72
4679.37
4651.76
4754.86
4723.32
4845.38
4809.62
4953.46
4913.57
5079.48
5036.78
5223.1
5178.83
5383.9
5339.38
5560.95
5517.5
5711.94
6111.98
5882.38
6073.65
6369.01
6324.73
6637.18
6609.05
3811.93
3823.52
3835.24
3847.03
3858.89
3870.83
3882.87
3895.03
3907.33
3919.79
3932.45
3945.33
3958.48
3971.95
3985.83
4000.2
4015.21
4031.02
4047.9
4066.24
4086.31
4107.86
4130.16
4152.49
4174.55
4196.49
4218.68
4241.52
4265.74
4292.63
4323.38
4358.2
4405.65
4385.63
4443.9
4423.99
4483.24
4463.56
4526.14
4505.03
4575.28
4551.64
4625.21
4599.77
4692.49
4662.65
4774.5
4739.97
4873.77
4834.36
4993.14
4948.89
5132.93
5085.45
5292.69
5243.53
5472.13
5423.25
5669.25
5622.4
5840.87
6291.11
6037.7
6203.58
6222.31
6565.08
6538.25
6902.25
6864.97
3817.54
3829.05
3840.69
3852.4
3864.18
3876.04
3888.01
3900.1
3912.33
3924.72
3937.31
3950.12
3963.2
3976.61
3990.44
4004.79
4019.84
4035.84
4053.28
4072.62
4093.73
4115.74
4137.68
4159.13
4180.1
4200.8
4221.36
4242.32
4264.62
4289.96
4319.91
4354.02
4404.17
4383.7
4443.05
4422.59
4484.18
4463.53
4528.71
4506.3
4580.34
4555.05
4634.05
4606.64
4706.24
4673.72
4795.48
4757.24
4904.51
4860.46
5036.47
4986.57
5191.78
5137.81
5370.02
5313.92
5572.1
5516.11
5796.02
5697.99
5726.61
5966.93
5941.93
6323.99
6466.84
6452.27
6185.34
6160.9
6047.47
6305.88
6772.99
6759.34
6592.45
6745.18
6755.43
7330.07
6935.88
7179.77
7150.83
3823.06
3834.48
3846.04
3857.66
3869.36
3881.14
3893.03
3905.03
3917.18
3929.49
3941.99
3954.72
3967.71
3981.03
3994.76
4009.05
4024.17
4040.64
4059.13
4079.75
4101.52
4123.23
4144.27
4164.6
4184.29
4203.4
4222.1
4240.73
4260.86
4285.04
4314.53
4360.65
4340.34
4402.11
4381.38
4441.5
4420.47
4484.3
4462.73
4530.61
4506.85
4584.75
4557.72
4642.67
4613.03
4720.03
4684.42
4817.01
4774.39
4936.48
4886.87
5082.04
5025.32
5254.46
5192.34
5449.18
5417.51
5386.24
5353.13
5670.41
5638.96
5491.83
5572.53
5607.48
5789.26
5917.49
5887.55
5759.9
6021.94
6436.69
6579.04
6284.49
6258.69
6135.22
6416.86
6927.27
6734.52
6909.73
6920.92
7781.78
7771.26
7441.48
7136.68
7405.68
3828.48
3839.82
3851.28
3862.81
3874.42
3886.11
3897.91
3909.83
3921.89
3934.1
3946.49
3959.1
3971.95
3985.13
3998.72
4012.95
4028.4
4045.93
4065.93
4087.49
4109.07
4129.9
4149.86
4168.96
4187.3
4204.7
4221.13
4237.63
4256.83
4280.7
4309.36
4357.78
4337.41
4399.52
4378.58
4439.41
4417.88
4483.75
4461.32
4531.74
4506.72
4588.24
4559.45
4650.61
4618.57
4733.22
4694.12
4838.11
4790.56
4968.56
4912.57
5128.35
5063.76
5320.01
5285.73
5251.05
5215.73
5459.21
5425.13
5389.67
5728.79
5695.22
5537.64
5622.55
5659.88
5857.09
5993.82
5962.18
5824.34
6106.65
6560.9
6718.65
6392.35
6229.24
6362.97
6537.42
7124.63
6893.75
7093.23
7111.27
8021.76
8020.52
7738.33
7375.7
7684.86
3833.81
3845.05
3856.42
3867.85
3879.36
3890.97
3902.67
3914.49
3926.43
3938.52
3950.77
3963.21
3975.89
3988.85
4002.27
4016.65
4033.12
4052.33
4073.61
4095.17
4115.96
4135.77
4154.6
4172.57
4189.4
4204.89
4219.64
4235.55
4254.68
4278.21
4315.35
4299.36
4354.76
4334.51
4396.62
4375.54
4436.95
4415.03
4482.64
4459.44
4532
4505.85
4590.4
4559.91
4657.32
4622.79
4745
4702.18
4857.84
4804.98
4999.61
4936.7
5180.17
5144.58
5108.89
5073.65
5353.61
5316.8
5279.37
5241.5
5501.75
5464.54
5426.13
5789.69
5752.81
5584.15
5673.06
5713.81
5927.9
6075
6039.87
5891.19
6196.4
6696.36
6872.02
6508.36
6328.96
6473.87
6667.53
7349.24
7069.42
7294.45
7323.2
8226.26
7996.17
8227.81
7634.12
7945.86
3839.04
3850.17
3861.44
3872.78
3884.19
3895.69
3907.28
3918.98
3930.79
3942.73
3954.8
3967.03
3979.46
3992.17
4005.52
4020.76
4039.05
4059.89
4081.45
4102.35
4122.18
4141
4158.85
4175.48
4190.74
4204.92
4218.98
4234.6
4254.04
4277.45
4313.66
4297.84
4351.76
4331.93
4393.54
4372.42
4434.11
4411.89
4480.93
4457.07
4531.17
4504.09
4590.87
4558.8
4662.3
4625.27
4754.83
4708.12
4875.49
4817.11
5038.54
5004.15
4969.99
4936.9
5203.49
5165.49
5127.66
5090.26
5387.09
5347.44
5307.2
5266.65
5544.66
5504.02
5462.35
5852.51
5811.59
5630.87
5723.82
5768.56
6001.46
6160.3
6120.61
5960.28
6290.79
6843.35
7039.17
6632.48
6434.17
6591.39
6807.41
7590.3
7260.46
7509.58
7550.35
8427.97
8215.4
8428.65
7888.83
8179.99
3844.16
3855.18
3866.34
3877.57
3888.88
3900.26
3911.73
3923.29
3934.94
3946.69
3958.54
3970.51
3982.62
3995.1
4008.99
4026.14
4046.36
4067.89
4088.98
4109.01
4127.97
4145.85
4162.49
4177.76
4191.9
4205.25
4218.69
4234.24
4254.32
4283.28
4271.42
4311.94
4296.65
4348.79
4329.47
4390.27
4369.19
4430.75
4408.33
4478.47
4454.07
4528.94
4501.11
4589.1
4555.64
4665.08
4625.51
4762.3
4711.5
4890.74
4826.72
5053.3
5016.9
4981.13
4946.28
5226.09
5185.68
5145.65
5106.2
5420.16
5377.5
5334.36
5291.09
5587.54
5543.27
5498.15
5916.83
5871.29
5677.51
5774.66
5823.83
6077.38
6249.14
6203.85
6031.02
6389.69
7001.79
7219.68
6764.57
6544.65
6715.19
6956.75
7835.65
7464.48
7734.93
7785.82
8631.39
8422.08
8631.72
8131.09
8400.25
3849.15
3860.07
3871.12
3882.23
3893.42
3904.67
3916
3927.4
3938.87
3950.4
3961.97
3973.6
3985.36
3998.02
4013.65
4033.1
4054.46
4075.78
4096.13
4115.35
4133.39
4150.14
4165.49
4179.78
4193.03
4205.58
4218.37
4233.84
4253.65
4282.73
4270.64
4310.3
4295.68
4345.76
4327.06
4386.7
4365.8
4426.63
4404.17
4474.94
4450.17
4524.94
4496.54
4584.46
4549.86
4665.03
4622.79
4766.88
4711.45
4917.57
4882.36
4814.69
4847.78
5067.29
5028.89
4991.2
4954.19
5247.97
5205.18
5162.9
5121.32
5452.69
5406.94
5360.89
5314.88
5630.2
5582.18
5533.52
5982.25
5931.67
5724.03
5825.58
5879.42
6154.98
6341.28
6289.4
6102.91
6492.66
7171.47
7412.63
6904.28
6659.92
6845.15
7115.4
8079.57
7679.39
7969.45
8026.61
8836.74
8628.78
8836.42
8365.82
8619.73
3854.02
3864.82
3875.76
3886.75
3897.81
3908.92
3920.09
3931.31
3942.56
3953.81
3965.05
3976.27
3987.91
4001.85
4020.12
4041.15
4062.67
4083.43
4103.02
4121.32
4138.24
4153.73
4168.2
4181.59
4194.02
4205.77
4217.83
4232.92
4257.98
4247.23
4281.77
4269.66
4308.63
4294.54
4342.57
4324.61
4382.67
4362.07
4421.52
4399.19
4470
4445.07
4518.55
4489.86
4576.2
4540.83
4661.29
4616.22
4782.65
4752.19
4706.83
4923.23
4886.22
4815.45
4850.2
5080.37
5039.97
5000.35
4961.43
5269.17
5223.92
5179.32
5135.54
5484.74
5435.87
5386.84
5338.01
5672.67
5620.86
5568.62
6048.47
5992.55
5770.57
5876.75
5935.31
6234.15
6436.36
6376.91
6175.88
6599.32
7352.3
7616.6
7051.84
6779.97
6981.37
7283.63
8323.95
7905.41
8215.01
8274.36
9046.73
8838.74
9048.28
8603.38
8848.72
3858.76
3869.44
3880.26
3891.12
3902.04
3913
3923.99
3935
3945.98
3956.91
3967.74
3978.64
3990.99
4007.51
4028
4049.61
4070.8
4090.85
4109.51
4126.63
4142.37
4157
4170.58
4183.2
4194.91
4205.96
4217.9
4232.16
4256.57
4245.96
4280.17
4268.07
4306.66
4292.92
4339.06
4321.95
4377.97
4357.86
4415.13
4393.14
4463.27
4438.46
4509.29
4480.7
4564.39
4528.46
4653.46
4605.81
4782.21
4750.82
4715.45
4685.64
4927.19
4888.39
4814.53
4850.79
5092.4
5049.87
5008.18
4967.25
5289.61
5241.78
5194.67
5148.45
5516.43
5464.31
5412.19
5360.36
5715.15
5659.49
5603.54
6115.47
6053.95
5817.43
5928.46
5991.61
6314.6
6534.26
6466.27
6249.79
6709.62
7543.88
7832.08
7207.55
6904.81
7124.33
7461.73
8576.31
8144.65
8475.64
8534.38
9291.06
9065.4
9302.9
8857.31
9107.82
3863.37
3873.93
3884.61
3895.34
3906.1
3916.9
3927.69
3938.45
3949.13
3959.67
3970.09
3981.18
3995.61
4015
4036.56
4058.15
4078.73
4097.8
4115.16
4131.23
4146.08
4159.87
4172.72
4184.69
4195.87
4206.91
4219.17
4236.43
4230.02
4254.97
4245.02
4277.93
4266.05
4304.08
4290.56
4335.08
4318.81
4372.42
4353
4407.25
4385.86
4454.46
4430.08
4497.05
4469
4549.9
4513.57
4658.09
4631.89
4592.03
4779.94
4747.09
4709.57
4679.34
4929.07
4888.43
4811.57
4849.25
5102.94
5058.08
5014.17
4971.12
5309.04
5258.35
5208.47
5159.55
5547.81
5492.23
5436.7
5381.54
5757.92
5698.21
5638.33
6183.28
6116.05
5864.91
5980.8
6048.56
6396.27
6635.05
6557.94
6324.66
6823.67
7747.25
8061.53
7371.91
7035.34
7275.08
7651.5
8848.29
8400.04
8756.97
8815
9681.14
9356.22
9704.76
9147.21
9439.87
3867.84
3878.27
3888.81
3899.4
3910
3920.61
3931.18
3941.66
3951.99
3962.12
3972.38
3984.81
4002.29
4023.5
4045.4
4066.53
4086.04
4103.69
4120.09
4135.29
4149.37
4162.45
4174.68
4186.2
4197.31
4208.88
4221.97
4237.33
4231.16
4253.73
4244.81
4275.34
4264
4300.73
4287.57
4330.45
4314.95
4365.9
4347.42
4397.84
4377.38
4443.48
4419.85
4482.5
4455.25
4548.58
4528.26
4497.3
4651.37
4625.3
4569.17
4592.72
4775.75
4741.83
4701.98
4671.56
4928.55
4886.07
4806.4
4845.35
5111.44
5064.09
5017.85
4972.63
5326.96
5273.1
5220.13
5168.29
5578.71
5519.3
5459.95
5401.03
5801.16
5737.02
5672.78
6251.96
6178.96
5912.92
6033.63
6106.2
6479.83
6739.23
6652.77
6401.13
6942.66
7964.86
8307.57
7546.92
7173.01
7435.66
7855.56
9154.56
8675.81
9065.7
9126.17
10396.4
9793.66
10363
9498.53
9880.95
3872.16
3882.46
3892.87
3903.3
3913.73
3924.13
3934.46
3944.63
3954.58
3964.38
3975.26
3990.3
4010.46
4032.48
4054.16
4074.17
4092.11
4108.76
4124.4
4138.95
4152.35
4164.79
4176.57
4187.93
4199.4
4211.72
4227.27
4221.97
4238.82
4232.86
4253.36
4245.53
4272.91
4262.52
4296.85
4284.37
4325.11
4310.4
4358.48
4341.1
4387.21
4368.02
4430.67
4408.1
4467.02
4440.54
4540.29
4520.33
4494.79
4477.56
4643.48
4617.28
4561.32
4584.03
4769.49
4734.72
4692.73
4662.37
4925.53
4881.3
4799.04
4839.11
5117.43
5067.52
5018.92
4971.56
5342.8
5285.44
5229.17
5174.26
5608.82
5545.03
5481.35
5418.23
5844.57
5775.62
5706.51
6321.89
6242.79
5960.98
6086.61
6164.42
6565.97
6847.74
6751.43
6479.47
7067.94
8198.99
8573.51
7735.95
7319.93
7609.37
8076.12
9509.73
8976.8
9409.17
9477.99
11104.9
10388
11079.3
9925.68
10419.1
3876.35
3886.51
3896.77
3907.04
3917.29
3927.48
3937.54
3947.38
3956.96
3966.87
3979.55
3997.63
4019.36
4041.52
4062.11
4080.37
4097.18
4113.19
4128.33
4142.3
4155.04
4166.97
4178.48
4189.96
4201.87
4214.59
4228.91
4223.35
4240.61
4234.63
4254.07
4247.01
4271.3
4262.1
4293.09
4281.65
4319.35
4305.63
4350.43
4334.26
4376.28
4358.57
4417.11
4395.81
4463.15
4448.81
4426.19
4532.04
4512.53
4486.88
4470.51
4634.42
4608.35
4552.83
4574.93
4761.2
4725.72
4681.95
4651.82
4920.03
4874.22
4789.64
4830.68
5120.62
5068.16
5017.21
4967.82
5356.03
5294.96
5235.25
5177.16
5637.59
5568.79
5500.26
5432.59
5887.53
5813.35
5738.93
6393.08
6307.31
6008.44
6138.76
6222.73
6655.13
6961.62
6854.83
6559.85
7201.65
8452.58
8863.24
7941.85
7478.8
7799.51
8315.68
9921.64
9308.35
9791.46
9875.29
11867.5
11048.3
11815.3
10421.6
11017.6
3880.4
3890.41
3900.53
3910.64
3920.7
3930.66
3940.44
3949.94
3959.35
3970.22
3985.59
4006.13
4028.5
4049.83
4068.47
4085.38
4101.61
4117.28
4131.99
4145.33
4157.47
4169.02
4180.46
4192.13
4204.31
4217.18
4230.42
4224.83
4242.31
4236.24
4255.49
4248.69
4270.99
4262.85
4290.28
4280.11
4313.93
4301.53
4342.39
4327.55
4366.38
4350.27
4403.95
4384.14
4455.61
4441.65
4410.92
4422.9
4523.48
4504.43
4479.22
4463.37
4624.2
4598.64
4543.82
4565.29
4751.11
4715.1
4669.94
4640.17
4912.09
4864.95
4778.43
4820.28
5120.74
5065.83
5012.61
4961.36
5366.2
5301.31
5238.1
5176.84
5664.42
5589.95
5516.09
5443.62
5929.26
5849.32
5768.97
6465.59
6372.4
6054.25
6189.15
6280.5
6748.23
7082.75
6964.19
6642.96
7346.19
8728.74
9180.77
8166.37
7652.88
8007.91
8576.93
10387.8
9674.6
10212.8
10317.5
12615.4
11733.1
12550.8
10971.2
11650.7
3884.3
3894.18
3904.15
3914.1
3923.97
3933.69
3943.18
3952.41
3962.17
3974.98
3993.16
4015.1
4037.16
4056.48
4073.44
4089.74
4105.75
4121.15
4135.34
4148.03
4159.64
4170.98
4182.45
4194.25
4206.54
4221.58
4225.98
4216.2
4231.72
4243.73
4237.61
4256.88
4250.13
4271.69
4264.03
4289.01
4279.96
4309.96
4298.97
4335.54
4322.12
4357.72
4343.22
4392.16
4373.89
4448.69
4435.14
4404.81
4416.35
4514.58
4496.23
4471.38
4456.07
4613.04
4588.19
4534.27
4555.06
4739.36
4703.04
4656.79
4627.5
4901.77
4853.63
4765.6
4808.14
5117.69
5060.5
5005.23
4952.29
5372.92
5304.14
5237.49
5173.17
5688.2
5607.64
5528.21
5450.76
5968.59
5882.13
5795.05
6539.47
6437.42
6097.19
6236.48
6336.59
6845.82
7213.25
7081.31
6729
7504.4
9030.87
9529.69
8411.23
7843.96
8234.59
8861.9
10900.9
10076.5
10672.8
10801.9
13253.7
12426.1
13222.9
11560
12303.2
3888.06
3897.81
3907.64
3917.42
3927.1
3936.59
3945.82
3955.05
3965.94
3981.22
4001.62
4023.86
4044.27
4061.52
4077.72
4093.84
4109.72
4124.76
4138.35
4150.36
4161.6
4172.84
4184.35
4196.23
4208.47
4227.13
4222.52
4217.01
4232.86
4244.87
4238.76
4257.89
4251.23
4272.31
4264.9
4288.6
4280.19
4307.48
4297.66
4330.12
4318.24
4349.89
4336.91
4389.59
4379.9
4364.59
4441.8
4428.58
4399.46
4410.37
4505.31
4487.76
4463.25
4448.57
4601.1
4577.13
4524.16
4544.19
4726
4689.59
4642.58
4613.85
4889.21
4840.32
4751.3
4794.31
5111.41
5052.19
4995.25
4940.85
5375.67
5303.06
5233.13
5166.03
5707.56
5620.74
5535.72
5453.32
6004.05
5910.09
5815.61
6614.65
6502.01
6135.87
6280.29
6390.62
6949.94
7355.42
7207.44
6819.46
7677.36
9361.47
9911.78
8677.57
8050.73
8479.58
9172.44
11453.8
10513.9
11169.6
11324.8
13936.5
13107.3
13903.3
12177.9
12966.9
3891.7
3901.33
3911.02
3920.64
3930.13
3939.4
3948.49
3958.23
3970.92
3988.64
4010.15
4031.49
4049.6
4065.74
4081.72
4097.82
4113.52
4128.07
4140.95
4152.33
4163.36
4174.6
4186.15
4198.04
4210.21
4228.12
4223.39
4217.93
4233.84
4245.77
4239.71
4258.57
4252.05
4272.51
4265.38
4287.93
4280.02
4305.22
4296.3
4325.29
4314.81
4342.29
4330.49
4384.02
4374.7
4354.58
4362.16
4434.88
4422.16
4393.8
4404.31
4495.64
4478.93
4454.81
4440.85
4588.32
4565.37
4513.51
4532.6
4711.35
4674.96
4627.51
4599.4
4874.6
4825.1
4735.64
4778.81
5101.97
5041.01
4982.75
4927.19
5373.95
5297.76
5224.86
5155.36
5721.21
5628.28
5537.88
5450.84
6034.22
5931.89
5829.69
6691.73
6565.35
6169.14
6313.66
6440.28
7060.7
7509.78
7340.97
6912.48
7862.35
9721.66
10326.2
8964.58
8271.59
8740.36
9507.78
12040.9
10986
11703.6
11884.2
14639.4
13789.9
14592.8
12818
13643.5
3895.21
3904.73
3914.29
3923.77
3933.09
3942.2
3951.43
3962.26
3977.04
3996.6
4017.97
4037.35
4053.84
4069.62
4085.64
4101.71
4117.06
4131.01
4143.08
4154.02
4164.98
4176.24
4187.82
4199.68
4211.75
4218.65
4228.96
4224.15
4234.65
4246.47
4240.48
4258.97
4252.62
4272.36
4265.54
4286.84
4279.45
4302.59
4294.53
4320.26
4311.09
4350.13
4339.8
4333.94
4324.21
4378.74
4370.05
4357.4
4427.79
4415.62
4388.09
4398.15
4485.54
4469.7
4446.17
4432.94
4574.84
4552.91
4502.4
4520.43
4695.65
4659.48
4611.67
4584.36
4858.07
4808.2
4718.62
4761.78
5089.36
5026.88
4967.58
4911.25
5367.58
5288.12
5212.52
5140.82
5728.52
5630
5534.64
5443.36
6057.21
5941.25
5831.78
6762.41
6620.04
6193.06
6367.99
6488.42
7168.37
7672.4
7479.41
7001.93
8056.57
10110.3
10772
9272.84
8501.67
9017.34
9868.34
12656.9
11494.2
12273.8
12477.8
15314.8
14477.3
15269.3
13481.3
14332.6
3898.61
3908.04
3917.49
3926.84
3936.03
3945.13
3954.9
3967.24
3983.95
4004.27
4024.4
4041.87
4057.64
4073.41
4089.53
4105.43
4120.31
4133.47
4144.79
4155.51
4166.48
4177.78
4189.36
4201.16
4215.45
4219.46
4220.08
4210.23
4229.7
4224.87
4235.34
4246.97
4241.1
4259.14
4252.98
4271.97
4265.47
4285.48
4278.64
4299.73
4292.51
4315.25
4307.23
4346.03
4335.95
4330.33
4318.65
4373.41
4365.1
4352.84
4420.54
4408.95
4382.34
4391.92
4475.2
4460.23
4437.49
4424.97
4560.84
4539.84
4491.1
4508.05
4678.89
4643.18
4595.37
4568.96
4839.36
4789.55
4700.5
4743.31
5073.04
5009.23
4949.27
4892.67
5356.5
5273.93
5195.7
5121.89
5727.32
5625.7
5527
5432.61
6079.88
5973.17
5817.71
6848.76
6635.04
6192.43
6347.36
6507.76
7290.45
7842.16
7633.39
7038.63
8252.18
10526.5
11252.4
9610.05
8745
9314.6
10253.7
13302.6
12039.3
12879.2
13105
15880.6
15164.2
15884.9
14167.5
15035.9
3901.93
3911.28
3920.64
3929.9
3939.03
3948.35
3959.05
3972.99
3991.07
4010.97
4029.44
4045.71
4061.29
4077.22
4093.34
4108.93
4123.17
4135.42
4146.17
4156.86
4167.88
4179.2
4190.78
4202.5
4220.76
4216.07
4225.51
4210.76
4230.37
4235.95
4247.36
4241.61
4259.16
4253.2
4271.4
4265.22
4284.02
4277.67
4296.94
4290.44
4310.66
4303.6
4341.94
4332.42
4327.26
4324.04
4317.02
4313.17
4368.12
4360.2
4348.43
4413.22
4402.21
4376.63
4385.76
4464.86
4450.77
4429.05
4417.19
4546.47
4526.44
4479.82
4495.74
4661.35
4626.27
4578.87
4553.44
4817.97
4768.69
4681.3
4723.18
5052.63
4987.93
4927.72
4871.13
5343.18
5258.26
5178.04
5102.74
5716.38
5616.87
5518.77
5424.13
6086.35
5953.56
5812.56
6825.7
6630.25
6187.4
6342.04
6503.26
7269.42
8026.41
7617.95
7034.09
8348.44
10976.5
11772.5
9971.68
8735.28
9316.23
10665.8
13980.8
12620.8
13522.8
13769
16343.5
15850.4
16479.3
14879.1
15766.3
3905.18
3914.48
3923.78
3933
3942.2
3952.01
3963.86
3979.18
3997.75
4016.5
4033.57
4049.29
4064.98
4081.04
4097.04
4112.15
4125.53
4136.87
4147.37
4158.11
4169.18
4180.53
4192.09
4203.82
4226.13
4221.38
4216.7
4230.98
4211.44
4236.49
4247.67
4242.05
4259.09
4253.35
4270.74
4264.89
4282.54
4276.64
4294.35
4288.44
4306.65
4300.35
4338.08
4329.05
4321.26
4314.56
4310.86
4363
4355.45
4344.25
4406.03
4395.55
4371.12
4379.82
4454.88
4441.62
4421.19
4409.89
4531.92
4512.98
4468.91
4483.79
4643.22
4608.98
4562.47
4538.03
4793.76
4745.36
4660.91
4701.28
5032.31
4965.49
4903.4
4846.79
5334.26
5248.93
5168.53
5093.34
5711.36
5612.02
5514.03
5419.49
6081.73
5948.06
5808.17
6821.02
6625.65
6182.83
6337.31
6498.86
7265.03
8011.16
7613.42
7029.48
8344.38
11481.9
12329.3
10336.5
9828.46
8730.21
9311.06
11122.4
14690.4
13241
14205.1
14466.7
16944.2
16581.8
17385.2
15626.1
16556.8
3908.39
3917.67
3926.95
3936.18
3945.63
3956.17
3969.14
3985.38
4003.59
4021.1
4037.28
4052.88
4068.75
4084.85
4100.55
4114.95
4127.31
4137.96
4148.46
4159.28
4170.4
4181.76
4193.34
4205.1
4212.02
4231.54
4226.72
4221.99
4217.32
4236.98
4247.95
4242.45
4259
4253.46
4270.09
4264.55
4281.11
4275.62
4291.98
4286.56
4303.1
4297.44
4334.45
4325.93
4318.54
4312.19
4308.8
4358.15
4350.94
4340.32
4399.21
4389.18
4365.94
4374.33
4445.67
4433.13
4414.05
4403.24
4517.54
4499.82
4458.82
4472.63
4624.39
4591.42
4546.27
4523.08
4769.45
4721.3
4639.04
4677.61
5022.96
4932.48
4877.33
4822.37
5329.7
5244.47
5164.19
5089.16
5707.1
5607.89
5509.99
5415.56