/*--------------------------------*- C++ -*----------------------------------*\
  =========                 |
  \\      /  F ield         | OpenFOAM: The Open Source CFD Toolbox
   \\    /   O peration     | Website:  https://openfoam.org
    \\  /    A nd           | Version:  dev
     \\/     M anipulation  |
\*---------------------------------------------------------------------------*/
FoamFile
{
    version     2.0;
    format      ascii;
    class       volScalarField;
    location    "2500";
    object      H2O;
}
// * * * * * * * * * * * * * * * * * * * * * * * * * * * * * * * * * * * * * //

dimensions      [0 0 0 0 0 0 0];

internalField   nonuniform List<scalar> 
9842
(
1.65402e-30
5.11904e-30
3.09935e-30
1.02931e-29
1.0508e-29
2.17258e-30
1.577e-29
2.36088e-29
1.14329e-29
7.82695e-31
2.51785e-29
4.34258e-29
2.41558e-29
9.29968e-30
6.70441e-31
3.27614e-29
7.68708e-29
6.37998e-29
2.00561e-29
4.30964e-30
3.20787e-31
4.12212e-29
1.10058e-28
1.26149e-28
5.43068e-29
2.01715e-29
2.39249e-30
6.86841e-32
1.03144e-28
2.4161e-28
2.47786e-28
1.56459e-28
5.62158e-29
1.24341e-29
1.28188e-30
4.17801e-32
1.85861e-28
4.71867e-28
4.37678e-28
3.12734e-28
1.43464e-28
4.06704e-29
4.93403e-30
4.99301e-31
8.97713e-33
2.47707e-28
8.03928e-28
1.0274e-27
6.5154e-28
3.13339e-28
1.03635e-28
2.72398e-29
2.64162e-30
2.12577e-31
7.07586e-33
6.53208e-28
2.68387e-27
2.67155e-27
1.44164e-27
6.71251e-28
2.40356e-28
6.78846e-29
1.12711e-29
1.08227e-30
6.9993e-32
8.85748e-34
1.57926e-27
4.94222e-27
6.55886e-27
3.58871e-27
1.54303e-27
6.4907e-28
1.99206e-28
5.01133e-29
5.73249e-30
2.71661e-31
1.98872e-32
5.78207e-34
6.83079e-27
1.47027e-26
2.00408e-26
1.09643e-26
4.73696e-27
1.55057e-27
4.61805e-28
1.55147e-28
2.49404e-29
2.19718e-30
8.52194e-32
6.49183e-33
1.90646e-34
4.56546e-26
5.51576e-26
5.66898e-26
3.18381e-26
1.26659e-26
4.55903e-27
1.41134e-27
3.88407e-28
8.17348e-29
8.10673e-30
7.97742e-31
2.90073e-32
1.855e-33
6.69362e-35
1.11921e-25
2.34932e-25
1.78841e-25
1.18921e-25
3.91233e-26
1.68252e-26
3.48604e-27
1.07982e-27
2.53893e-28
3.44076e-29
4.5619e-30
2.80495e-31
1.17987e-32
1.2972e-33
7.05367e-34
3.01534e-25
5.96871e-25
5.4217e-25
5.19677e-25
1.56492e-25
6.08291e-26
1.71708e-26
3.00756e-27
7.31644e-28
1.01723e-28
1.61603e-29
1.02901e-30
9.83192e-32
1.17555e-32
1.08363e-32
1.01797e-32
6.63341e-25
1.38725e-24
1.92315e-24
1.35197e-24
7.14502e-25
2.23322e-25
6.14181e-26
1.03744e-26
2.14184e-27
4.35455e-28
5.69531e-29
6.17808e-30
4.60336e-31
1.04676e-31
1.30507e-31
1.81377e-31
1.20137e-31
1.38751e-24
3.02467e-24
5.00716e-24
4.59693e-24
1.95277e-24
7.59501e-25
2.24555e-25
4.57003e-26
5.91638e-27
1.50409e-27
1.55679e-28
2.49621e-29
1.86774e-30
6.38031e-31
1.51653e-30
2.54646e-30
3.12189e-30
2.45603e-30
2.93999e-24
6.43501e-24
9.26181e-24
1.16388e-23
8.10718e-24
2.27082e-24
7.58045e-25
2.05467e-25
2.626e-26
4.34471e-27
6.80279e-28
8.43955e-29
1.22029e-29
7.574e-30
1.1403e-29
2.89901e-29
4.19792e-29
4.65854e-29
4.27296e-29
5.30524e-24
1.39511e-23
2.17947e-23
2.74049e-23
2.12181e-23
8.29305e-24
2.34654e-24
6.92608e-25
1.52157e-25
2.12144e-26
2.736e-27
2.81581e-28
4.87788e-29
5.42875e-29
1.4169e-28
2.13427e-28
5.14714e-28
6.5891e-28
7.19437e-28
4.0359e-28
7.82432e-24
2.71134e-23
4.41056e-23
5.49794e-23
3.88491e-23
2.96072e-23
8.63492e-24
2.17333e-24
5.2561e-25
9.80933e-26
1.46117e-26
1.5091e-27
3.79653e-28
4.2826e-28
1.36213e-27
3.05026e-27
4.0353e-27
8.98651e-27
9.4469e-27
1.22732e-26
7.29717e-27
6.6623e-24
3.91728e-23
7.58242e-23
1.12492e-22
1.13601e-22
7.1338e-23
3.01535e-23
6.62159e-24
1.63797e-24
2.75965e-25
6.23425e-26
9.3477e-27
2.49456e-27
3.64923e-27
7.0949e-27
2.40777e-26
4.30244e-26
7.54513e-26
1.31146e-25
1.16354e-25
1.50112e-25
1.51772e-25
1.37295e-23
6.45704e-23
9.32675e-23
2.09719e-22
2.04858e-22
1.69621e-22
7.7622e-23
2.50587e-23
5.56933e-24
1.35097e-24
1.93102e-25
3.35544e-26
1.74672e-26
3.07058e-26
8.11773e-26
1.47825e-25
5.73993e-25
7.52292e-25
1.58968e-24
1.49704e-24
2.14195e-24
1.33274e-24
2.13847e-24
1.72728e-23
7.15823e-23
1.72839e-22
2.87424e-22
3.55008e-22
3.80794e-22
2.22819e-22
7.61421e-23
1.91406e-23
4.40318e-24
9.34817e-25
1.86133e-25
1.28021e-25
2.5461e-25
4.01811e-25
1.40867e-24
2.72241e-24
1.01267e-23
1.2656e-23
1.73635e-23
2.93151e-23
2.31787e-23
2.25264e-23
2.51806e-23
1.87761e-23
1.23952e-22
3.71634e-22
5.69232e-22
7.90807e-22
6.92354e-22
4.48011e-22
1.71263e-22
6.35082e-23
1.34644e-23
3.18662e-24
7.70303e-25
7.98979e-25
2.23978e-24
4.45849e-24
7.67447e-24
2.20756e-23
5.33452e-23
1.39831e-22
1.77073e-22
2.43032e-22
3.63535e-22
4.42017e-22
3.72485e-22
2.14146e-22
1.34124e-23
1.20343e-22
5.37558e-22
8.76804e-22
1.37591e-21
1.45727e-21
1.24469e-21
4.25888e-22
1.46721e-22
3.97483e-23
9.72231e-24
2.96548e-24
3.52246e-24
1.38428e-23
4.545e-23
9.61876e-23
1.41762e-22
2.98492e-22
6.20966e-22
1.63184e-21
1.70278e-21
3.96401e-21
4.82613e-21
5.33613e-21
3.99222e-21
8.76011e-22
1.91187e-23
1.466e-22
6.51819e-22
1.5683e-21
2.31928e-21
2.68529e-21
2.56535e-21
1.41502e-21
3.17977e-22
1.25036e-22
3.21814e-23
1.21853e-23
1.5852e-23
5.9706e-23
2.80131e-22
6.33401e-22
1.69062e-21
2.56369e-21
5.20365e-21
8.61499e-21
2.28757e-20
2.2254e-20
3.72555e-20
5.12253e-20
4.28263e-20
2.88431e-20
1.59699e-20
2.40516e-23
1.95225e-22
7.09106e-22
1.7018e-21
3.6683e-21
3.7444e-21
3.8294e-21
2.78276e-21
1.02257e-21
2.73872e-22
8.55378e-23
7.25913e-23
1.08619e-22
2.68115e-22
1.14662e-21
4.53947e-21
9.4243e-21
2.84894e-20
4.21141e-20
9.12114e-20
1.21453e-19
1.85613e-19
1.96941e-19
4.19891e-19
3.71691e-19
2.06102e-19
2.00169e-19
8.70868e-20
3.75168e-23
2.39797e-22
7.08114e-22
2.22758e-21
4.9639e-21
7.56446e-21
8.0829e-21
6.35022e-21
3.16112e-21
7.16822e-22
2.66139e-22
3.22493e-22
6.94727e-22
1.7622e-21
5.71533e-21
1.68514e-20
6.34231e-20
1.07277e-19
3.72483e-19
5.70307e-19
1.20832e-18
1.44445e-18
1.1562e-18
2.90856e-18
2.2861e-18
3.35012e-18
1.98514e-18
1.01265e-18
3.90889e-19
2.85894e-23
2.28482e-22
8.36377e-22
2.01908e-21
5.22251e-21
9.15616e-21
1.31297e-20
1.22789e-20
6.4826e-21
2.73402e-21
1.13455e-21
1.65834e-21
4.1913e-21
8.99978e-21
3.658e-20
1.34091e-19
3.01769e-19
9.33567e-19
1.59854e-18
5.05886e-18
5.12634e-18
7.63926e-18
1.14458e-17
1.35049e-17
2.42542e-17
2.21221e-17
1.59269e-17
9.04507e-18
2.92242e-18
1.69641e-18
2.60078e-23
1.64062e-22
8.29547e-22
2.17053e-21
5.46638e-21
1.42853e-20
2.32183e-20
1.96133e-20
1.29119e-20
6.20126e-21
3.4495e-21
7.58449e-21
2.14667e-20
5.81565e-20
1.55409e-19
5.24291e-19
1.70355e-18
4.01114e-18
1.08088e-17
2.12334e-17
4.72165e-17
5.89683e-17
9.51943e-17
8.90235e-17
9.12503e-17
1.24046e-16
7.40803e-17
6.51853e-17
4.61861e-17
1.36719e-17
4.83494e-18
2.69708e-23
1.49952e-22
4.9451e-22
2.59192e-21
8.16797e-21
1.93913e-20
2.87471e-20
3.55244e-20
2.55478e-20
1.31181e-20
1.2644e-20
2.61029e-20
9.35477e-20
3.08921e-19
8.84276e-19
2.56605e-18
7.63241e-18
2.17266e-17
7.48295e-17
1.23224e-16
2.2495e-16
4.47373e-16
7.14189e-16
7.83413e-16
6.43314e-16
4.80435e-16
5.70283e-16
3.51778e-16
2.20387e-16
1.55333e-16
4.03773e-17
4.8296e-18
7.77388e-23
2.27924e-22
4.92526e-22
1.95826e-21
8.78233e-21
2.28387e-20
4.01512e-20
5.01331e-20
4.11497e-20
3.01212e-20
3.52252e-20
1.07511e-19
4.01484e-19
1.6199e-18
4.1884e-18
1.25868e-17
3.17995e-17
1.30938e-16
3.20373e-16
5.69168e-16
9.55573e-16
1.5634e-15
2.58602e-15
3.13045e-15
3.57023e-15
3.31819e-15
3.08477e-15
2.39697e-15
1.54255e-15
1.18603e-15
5.03507e-16
1.72717e-16
7.28485e-18
2.63748e-22
5.36962e-22
8.3029e-22
2.09082e-21
7.92387e-21
2.44902e-20
4.964e-20
7.21486e-20
7.04304e-20
5.18345e-20
1.06095e-19
3.82058e-19
1.47306e-18
5.94827e-18
2.20322e-17
6.85356e-17
1.91988e-16
4.31432e-16
1.34412e-15
2.75059e-15
5.2627e-15
9.57621e-15
1.63276e-14
1.93452e-14
2.28424e-14
2.53894e-14
2.43894e-14
2.05653e-14
1.42544e-14
8.21194e-15
3.90931e-15
1.67819e-15
1.40262e-16
2.07219e-18
3.96891e-17
7.62262e-22
1.50408e-21
1.61058e-21
2.35081e-21
7.19667e-21
2.55899e-20
6.27603e-20
9.09436e-20
1.04642e-19
9.6432e-20
2.39226e-19
1.45851e-18
5.88935e-18
2.14338e-17
7.68468e-17
2.99519e-16
9.52173e-16
2.05487e-15
6.0441e-15
1.50615e-14
3.21344e-14
6.23807e-14
1.11471e-13
1.20048e-13
1.56248e-13
1.84144e-13
1.88916e-13
1.64703e-13
1.23452e-13
7.6628e-14
3.72762e-14
1.33696e-14
5.62768e-18
2.99781e-16
1.51917e-15
1.32901e-17
1.36569e-16
2.38814e-21
4.98853e-21
5.01395e-21
3.98731e-21
1.02251e-20
2.42952e-20
6.03268e-20
1.22227e-19
1.45191e-19
1.53123e-19
5.92852e-19
3.74575e-18
2.184e-17
8.63956e-17
3.22161e-16
9.49959e-16
3.34673e-15
1.0894e-14
3.3208e-14
8.80752e-14
1.97715e-13
3.86674e-13
7.3724e-13
7.77866e-13
1.01808e-12
1.2238e-12
1.31493e-12
1.22728e-12
9.72024e-13
6.50278e-13
3.47796e-13
1.32691e-13
1.10315e-14
3.98371e-14
6.11412e-15
2.91215e-14
3.19448e-14
8.1057e-16
4.71479e-15
3.29686e-17
4.69893e-16
8.54718e-21
1.46235e-20
1.90367e-20
1.0344e-20
1.55015e-20
2.64293e-20
5.64264e-20
1.38607e-19
1.85212e-19
2.33715e-19
1.19702e-18
1.17235e-17
6.60878e-17
3.02478e-16
1.09545e-15
4.08171e-15
1.3999e-14
5.38371e-14
1.80662e-13
5.07387e-13
1.18726e-12
2.37662e-12
4.21884e-12
5.16041e-12
6.32348e-12
7.61943e-12
8.32984e-12
8.13795e-12
6.89861e-12
4.89448e-12
2.87786e-12
1.30012e-12
1.41284e-13
5.22436e-13
1.35594e-13
2.63079e-14
1.49593e-13
1.4228e-13
2.69973e-15
1.88684e-14
1.66629e-16
1.19905e-15
2.88092e-20
4.40269e-20
6.3859e-20
4.03662e-20
3.24905e-20
3.10782e-20
6.09767e-20
1.24432e-19
2.48317e-19
3.45122e-19
2.03914e-18
2.90514e-17
1.80582e-16
8.53949e-16
4.00215e-15
1.49586e-14
6.34925e-14
2.58077e-13
9.26839e-13
2.77642e-12
6.83537e-12
1.4052e-11
2.55141e-11
3.98717e-11
3.7742e-11
4.49454e-11
4.91737e-11
4.88554e-11
4.34204e-11
3.31892e-11
2.13628e-11
1.12443e-11
1.76985e-12
5.95057e-12
5.56626e-13
2.15911e-12
6.78516e-13
1.16766e-13
7.28643e-13
6.78446e-13
1.04383e-14
7.92591e-14
1.76936e-16
4.11368e-15
9.63264e-20
2.19313e-19
2.5987e-19
1.82844e-19
9.86787e-20
7.65038e-20
8.79046e-20
1.52076e-19
3.11115e-19
4.62117e-19
3.17957e-18
5.61642e-17
5.04301e-16
2.6816e-15
1.37111e-14
6.13667e-14
2.75077e-13
1.17732e-12
4.46594e-12
1.42508e-11
3.71924e-11
7.95983e-11
1.44111e-10
2.50345e-10
2.16439e-10
2.53026e-10
2.73783e-10
2.7219e-10
2.46968e-10
2.01364e-10
1.45328e-10
8.75429e-11
1.81333e-11
5.35364e-11
7.84527e-12
2.69754e-11
2.91192e-12
1.18825e-11
3.54336e-12
5.40716e-13
3.73262e-12
3.4532e-12
4.31842e-14
3.57886e-13
6.13581e-16
1.67088e-14
6.00628e-19
1.34345e-18
1.00801e-18
6.405e-19
4.46688e-19
2.76071e-19
1.41482e-19
1.82727e-19
3.33453e-19
5.27228e-19
4.6448e-18
9.68511e-17
1.15852e-15
8.42082e-15
4.53848e-14
2.43797e-13
1.0835e-12
5.03786e-12
2.04169e-11
6.92499e-11
1.90779e-10
4.27438e-10
7.89099e-10
1.23525e-09
1.25356e-09
1.3736e-09
1.44774e-09
1.42619e-09
1.3055e-09
1.11326e-09
8.94082e-10
6.3172e-10
1.4514e-10
3.95126e-10
8.70046e-11
2.6392e-10
4.53784e-11
1.62396e-10
1.61843e-11
7.02073e-11
1.98883e-11
2.69233e-12
2.1095e-11
1.95365e-11
1.90503e-13
1.73203e-12
2.40551e-15
7.20088e-14
2.37239e-18
3.82839e-18
4.88641e-18
2.45057e-18
1.85401e-18
1.04547e-18
3.9969e-19
2.74715e-19
3.54562e-19
6.39325e-19
5.26356e-18
1.42458e-16
2.29647e-15
2.28001e-14
1.35345e-13
8.24394e-13
3.87613e-12
1.94995e-11
8.6078e-11
3.14522e-10
9.3577e-10
2.18052e-09
4.18094e-09
6.42308e-09
8.2129e-09
7.13617e-09
7.34853e-09
7.09006e-09
6.51581e-09
5.79617e-09
5.08267e-09
4.21656e-09
1.05202e-09
2.73262e-09
7.43114e-10
1.98041e-09
5.44221e-10
1.69079e-09
2.87606e-10
1.10008e-09
1.00549e-10
4.76642e-10
1.2756e-10
1.48732e-11
1.38403e-10
1.28268e-10
8.92885e-13
9.15713e-12
1.01598e-14
3.25334e-13
1.36856e-17
2.25686e-17
1.88473e-17
1.30833e-17
7.85605e-18
3.22187e-18
1.74439e-18
6.06501e-19
5.01905e-19
7.72565e-19
5.32358e-18
1.76356e-16
3.79575e-15
4.53118e-14
3.68458e-13
2.41127e-12
1.29175e-11
6.89179e-11
3.28228e-10
1.31455e-09
4.16432e-09
1.07681e-08
2.09287e-08
3.36045e-08
4.13965e-08
3.37982e-08
3.51365e-08
3.36125e-08
3.12208e-08
2.94783e-08
2.82938e-08
2.69021e-08
7.08476e-09
1.74257e-08
5.018e-09
1.26033e-08
4.86328e-09
1.31248e-08
3.92127e-09
1.28096e-08
2.14032e-09
8.84987e-09
7.32299e-10
3.82148e-09
9.66101e-10
9.42907e-11
1.07202e-09
9.83863e-10
4.49437e-12
5.4684e-11
4.56057e-14
1.56294e-12
1.58384e-16
1.69773e-16
1.01702e-16
5.57982e-17
2.38685e-17
1.33899e-17
6.56754e-18
2.54772e-18
1.01425e-18
9.00923e-19
4.82618e-18
1.83817e-16
5.3112e-15
9.10267e-14
8.88833e-13
6.62927e-12
4.25466e-11
2.25141e-10
1.14505e-09
4.95029e-09
1.7215e-08
4.66531e-08
1.02462e-07
1.63118e-07
1.7302e-07
1.48867e-07
1.53821e-07
1.47966e-07
1.43381e-07
1.52947e-07
1.66239e-07
1.70659e-07
4.39834e-08
1.08844e-07
3.10549e-08
7.70011e-08
3.33382e-08
8.24176e-08
3.86881e-08
1.09808e-07
3.35315e-08
1.15096e-07
1.8537e-08
8.08337e-08
6.19389e-09
3.44338e-08
8.35085e-09
6.90684e-10
9.35576e-09
8.38719e-09
2.50106e-11
3.75876e-10
2.22363e-13
8.20926e-12
9.01209e-16
1.02322e-15
6.17424e-16
2.94911e-16
1.21344e-16
5.90611e-17
2.66778e-17
9.87681e-18
2.70815e-18
1.38067e-18
3.96308e-18
1.66019e-16
6.07309e-15
1.32757e-13
1.90112e-12
1.63488e-11
1.17562e-10
6.65866e-10
3.70429e-09
1.68935e-08
6.40815e-08
1.85118e-07
4.41758e-07
6.14119e-07
6.3303e-07
6.2448e-07
6.21921e-07
5.95652e-07
6.04391e-07
7.5968e-07
1.05807e-06
1.1483e-06
2.87473e-07
7.94755e-07
1.90405e-07
4.8267e-07
2.06023e-07
5.24398e-07
2.96791e-07
7.81829e-07
3.67112e-07
1.10338e-06
3.17222e-07
1.1126e-06
1.72641e-07
7.63076e-07
5.65398e-08
3.19279e-07
7.6002e-08
5.62368e-09
8.49405e-08
7.40053e-08
1.57e-10
2.87855e-09
1.23262e-12
4.84715e-11
6.92433e-15
9.43368e-15
4.86883e-15
1.75761e-15
7.17506e-16
2.27938e-16
1.06064e-16
4.09241e-17
1.01974e-17
3.15788e-18
3.44554e-18
1.24792e-16
5.97748e-15
1.69345e-13
2.80142e-12
3.32879e-11
2.87868e-10
1.77722e-09
1.07492e-08
5.41691e-08
2.09874e-07
7.04663e-07
1.49663e-06
1.9376e-06
2.26732e-06
2.4016e-06
2.34938e-06
2.24294e-06
2.39648e-06
3.41818e-06
5.7597e-06
8.06224e-06
3.66316e-06
5.77851e-07
1.2188e-06
3.1383e-06
1.31023e-06
3.17052e-06
1.92066e-06
4.60567e-06
3.09974e-06
8.04339e-06
3.60986e-06
1.04214e-05
2.9676e-06
9.90697e-06
1.57585e-06
6.68192e-06
5.1278e-07
2.80107e-06
6.75567e-07
4.8056e-08
7.45575e-07
6.38936e-07
1.09523e-09
2.32775e-08
7.82296e-12
3.16201e-10
4.99543e-14
8.13638e-14
4.3777e-14
1.58689e-14
4.82778e-15
1.2488e-15
5.01711e-16
1.53051e-16
4.72946e-17
1.07014e-17
4.37336e-18
8.26461e-17
4.89798e-15
1.79114e-13
3.80339e-12
5.44437e-11
5.89007e-10
4.31542e-09
2.77487e-08
1.51609e-07
6.7715e-07
2.13167e-06
4.17936e-06
6.05647e-06
7.66328e-06
8.34736e-06
8.24745e-06
8.05475e-06
9.56971e-06
1.51007e-05
2.66716e-05
4.09993e-05
5.31111e-05
8.77117e-06
3.28774e-05
7.41901e-06
1.7331e-05
1.07589e-05
2.42015e-05
1.93437e-05
4.28758e-05
2.73382e-05
6.53261e-05
2.89967e-05
7.53109e-05
2.33144e-05
6.79786e-05
1.2725e-05
4.61523e-05
4.29972e-06
2.09375e-05
5.50988e-06
4.09472e-07
5.97181e-06
5.11437e-06
8.09018e-09
1.89343e-07
5.5477e-11
2.15924e-09
3.12975e-13
6.1285e-13
3.85676e-13
1.42742e-13
4.00116e-14
9.14315e-15
2.55527e-15
7.08927e-16
1.83648e-16
4.55807e-17
1.02088e-17
4.63467e-17
3.38115e-15
1.62615e-13
4.32993e-12
7.74021e-11
9.74446e-10
8.97312e-09
6.45218e-08
3.7205e-07
1.77409e-06
5.54461e-06
1.13374e-05
1.84214e-05
2.4123e-05
2.66586e-05
2.65569e-05
2.70906e-05
3.80804e-05
6.77741e-05
0.000106135
0.000148084
0.000207408
0.0001719
0.000271482
3.83015e-05
8.98791e-05
4.98897e-05
0.000105021
8.93874e-05
0.000170982
0.000143155
0.000269817
0.000173702
0.000349938
0.000170402
0.00037912
0.000136607
0.000335257
7.84585e-05
0.000234809
2.99656e-05
0.000117533
3.68397e-05
3.31493e-06
3.91179e-05
3.40335e-05
6.02945e-08
1.50219e-06
4.2193e-10
1.48184e-08
1.43481e-12
3.50913e-12
2.81236e-12
1.2388e-12
3.69817e-13
9.22931e-14
2.02497e-14
4.05762e-15
6.60923e-16
1.77193e-16
3.96162e-17
2.90872e-17
1.81909e-15
1.18783e-13
4.16779e-12
9.10934e-11
1.43421e-09
1.61629e-08
1.34905e-07
8.08306e-07
4.04113e-06
1.29919e-05
2.9779e-05
5.1625e-05
6.933e-05
7.78614e-05
7.78664e-05
8.35503e-05
0.00013055
0.000238903
0.000352123
0.000422846
0.000494832
0.000420056
0.000585418
0.00041576
0.000562185
0.000183018
0.000291346
0.000276106
0.000406451
0.000424894
0.000595576
0.000572902
0.000811239
0.000669098
0.000993636
0.000682025
0.00109011
0.000572023
0.00105816
0.000354736
0.000851886
0.000155756
0.000481125
0.000182995
2.32579e-05
0.000190062
0.000168344
4.44747e-07
1.11757e-05
2.87286e-09
1.01726e-07
4.03999e-12
1.33202e-11
1.50193e-11
8.77813e-12
3.20121e-12
8.96355e-13
1.40318e-13
2.61497e-14
3.66102e-15
7.26055e-16
1.46218e-16
3.80205e-17
8.91255e-16
6.84283e-14
3.32884e-12
8.99114e-11
1.74423e-09
2.44627e-08
2.29775e-07
1.63842e-06
8.03913e-06
2.84423e-05
7.16625e-05
0.000127849
0.000176838
0.000197521
0.000197442
0.000220518
0.000342394
0.000594729
0.000826013
0.000913588
0.000898155
0.000795741
0.000935562
0.000716901
0.000908972
0.000838578
0.00099588
0.000545873
0.000690349
0.000769107
0.000947614
0.00104874
0.00127879
0.00132006
0.00162943
0.00151144
0.00192138
0.00158258
0.00209447
0.00147745
0.00210445
0.00114307
0.00189112
0.000591027
0.00141108
0.000661489
0.000122369
0.000671718
0.000606676
3.38132e-06
6.62529e-05
1.66678e-08
8.79927e-07
5.16151e-12
2.881e-11
4.82157e-11
4.39151e-11
2.27645e-11
7.45569e-12
1.17078e-12
1.64875e-13
2.62261e-14
3.23467e-15
5.23252e-16
9.8675e-17
4.12977e-16
3.42485e-14
2.03902e-12
7.53317e-11
1.77441e-09
3.06165e-08
3.54443e-07
2.76641e-06
1.44332e-05
5.49929e-05
0.000142649
0.000252403
0.000328555
0.00034697
0.000346839
0.000396848
0.000602902
0.000972855
0.00136226
0.00158805
0.00157507
0.00151228
0.00107548
0.00138747
0.00115922
0.00134451
0.00144344
0.00160367
0.00111996
0.00128395
0.00149696
0.00170578
0.00191712
0.00218018
0.00230099
0.00263996
0.00257283
0.00300777
0.00269571
0.00322638
0.00261176
0.00326026
0.00226593
0.00306341
0.0016136
0.00257517
0.00172206
0.000472275
0.0017132
0.00156862
2.4788e-05
0.00030324
2.17751e-07
1.0131e-05
2.58475e-11
8.96656e-11
1.28447e-10
1.09713e-10
4.76362e-11
8.25277e-12
1.17159e-12
1.47363e-13
2.09347e-14
2.90358e-15
2.9518e-16
2.17938e-16
1.58297e-14
1.07269e-12
4.84424e-11
1.5214e-09
3.16417e-08
4.70585e-07
3.92189e-06
2.29305e-05
9.2167e-05
0.00023735
0.000401115
0.000494073
0.000508416
0.000503771
0.000584184
0.000856411
0.00135623
0.00188389
0.00222924
0.00238166
0.0022842
0.00200543
0.00230184
0.00153521
0.00177246
0.00176624
0.00193846
0.00223099
0.0023848
0.00189673
0.00206979
0.00242283
0.00264119
0.00294242
0.00320689
0.00338591
0.0037051
0.00368997
0.00408197
0.00382697
0.00428856
0.00374526
0.00431946
0.00342063
0.00414123
0.00278161
0.00368713
0.00288561
0.00130549
0.00287166
0.00272959
0.000154719
0.000958683
6.0871e-06
0.000101924
6.73932e-11
2.14262e-10
2.95472e-10
2.10327e-10
4.81031e-11
7.28864e-12
8.68339e-13
9.62391e-14
1.10208e-14
1.23177e-15
2.30255e-16
6.31566e-15
5.33018e-13
2.59005e-11
9.53763e-10
2.77345e-08
5.05745e-07
4.61686e-06
3.0484e-05
0.000130302
0.000338046
0.000556991
0.00066634
0.000674573
0.000668776
0.000766853
0.00110723
0.00167087
0.00214685
0.00249803
0.00278288
0.00298235
0.00259744
0.00293434
0.00254875
0.00280107
0.00212415
0.00232804
0.00253249
0.00267966
0.00314447
0.00327302
0.00283221
0.00299833
0.00344124
0.00363885
0.00397635
0.00419423
0.00438353
0.00459514
0.0046142
0.00481295
0.00470854
0.00491531
0.00466849
0.00495565
0.00439969
0.00488348
0.00385005
0.00456825
0.00391462
0.00245964
0.00388004
0.00375914
0.00315391
0.000646649
0.00208212
0.000140538
0.000659324
1.32983e-10
4.50753e-10
5.74731e-10
2.16781e-10
4.12088e-11
5.02031e-12
5.49135e-13
5.70686e-14
7.01837e-15
5.2833e-16
2.2413e-15
2.21484e-13
1.3765e-11
5.09546e-10
1.797e-08
4.52473e-07
4.67153e-06
3.47537e-05
0.000160727
0.000431181
0.000709873
0.000840294
0.000843956
0.000834385
0.000946323
0.00130601
0.0017804
0.00211497
0.00242598
0.00272989
0.00308331
0.00347662
0.00305404
0.00340115
0.00316684
0.00335299
0.00283415
0.00299467
0.00338627
0.00349081
0.00403641
0.00411053
0.0038033
0.00393542
0.00436806
0.0044846
0.00473613
0.00481691
0.0049269
0.00498535
0.00501213
0.00504886
0.00506284
0.00508644
0.00509808
0.00514011
0.00501752
0.00516743
0.00466555
0.00510066
0.00488901
0.00429932
0.00467652
0.00362514
0.00286942
0.00353291
0.0042054
0.00464744
0.00463784
0.00415777
0.00119671
0.00189683
0.00336539
0.00328078
0.00263442
0.00111554
0.00191689
0.00154847
0.00210472
2.45512e-10
8.29538e-10
7.23137e-10
1.84322e-10
2.57645e-11
2.66414e-12
2.52389e-13
2.12031e-14
2.16987e-15
1.045e-15
8.04347e-14
5.90035e-12
2.88195e-10
9.80485e-09
2.99792e-07
4.12262e-06
3.46477e-05
0.000176547
0.000504298
0.000851649
0.00101268
0.00101633
0.0010031
0.0011212
0.00146004
0.00176265
0.00199294
0.00217373
0.00238844
0.00277283
0.00332259
0.00385257
0.00379835
0.00355581
0.00374943
0.00378901
0.00389546
0.00359063
0.00368895
0.00416451
0.00420356
0.00460305
0.00459733
0.0045569
0.00459508
0.00486263
0.00486264
0.00500409
0.00499401
0.00505703
0.00503821
0.0050612
0.00500859
0.00508352
0.00494411
0.00517546
0.00514981
0.00508344
0.00495858
0.00518585
0.00521817
0.00511849
0.00510167
0.00519633
0.00510714
0.00492473
0.00515437
0.00521974
0.00494551
0.00406892
0.00395435
0.00458487
0.00492306
0.0049477
0.00452436
0.00261589
0.00384684
0.00377005
0.00322762
0.000529349
0.00108759
0.00240161
0.00274255
0.00289896
4.55175e-10
1.16488e-09
6.221e-10
1.11243e-10
1.22847e-11
1.1184e-12
8.90661e-14
9.42322e-15
1.13714e-15
2.45375e-14
2.22059e-12
1.23482e-10
4.67359e-09
1.6491e-07
2.87549e-06
3.05418e-05
0.00017685
0.000545072
0.000971859
0.00118027
0.00118884
0.00117231
0.00128987
0.00155011
0.0017278
0.00181619
0.00174274
0.0015523
0.00172519
0.00240624
0.00341753
0.00409586
0.00403351
0.00400882
0.00409084
0.00428967
0.00432209
0.00423394
0.00426201
0.00458754
0.00457496
0.0047678
0.00472547
0.00484359
0.00481164
0.00497024
0.00492017
0.00500007
0.00492198
0.00491444
0.00479275
0.00474711
0.00454507
0.00482305
0.00466062
0.00452539
0.00437099
0.00501896
0.00485933
0.00467776
0.00524012
0.00519527
0.0049426
0.00486787
0.00506749
0.0052384
0.00515688
0.00525407
0.00525207
0.00516576
0.00444131
0.00434845
0.00488433
0.00516195
0.00514458
0.00483093
0.00327348
0.00426216
0.00419944
0.00374412
4.85237e-05
0.000375967
0.00206627
0.00337545
0.0030013
9.608e-10
1.42168e-09
3.93342e-10
5.16197e-11
4.90074e-12
3.90116e-13
2.68802e-14
2.65309e-15
9.93972e-15
7.47042e-13
4.64868e-11
1.99334e-09
7.55241e-08
1.81016e-06
2.17335e-05
0.000161698
0.000550224
0.00105558
0.00133634
0.00136106
0.00133399
0.00144015
0.00160413
0.00169067
0.00165895
0.0013478
0.000889285
0.000893748
0.00134146
0.00208736
0.003699
0.00299008
0.00429698
0.00412961
0.00434561
0.00434245
0.00456208
0.00455673
0.00456839
0.00456509
0.00469036
0.00466837
0.0046797
0.00462636
0.00484136
0.00475722
0.0047959
0.00464728
0.00463271
0.00444321
0.00434367
0.00414376
0.00424686
0.00410599
0.00399385
0.00386772
0.00449262
0.00431184
0.00414218
0.0039802
0.00474495
0.00452738
0.0043061
0.00518396
0.00502344
0.00463071
0.00452255
0.00479317
0.00526066
0.00526297
0.00526919
0.00517292
0.00527224
0.00476283
0.0046868
0.00511835
0.00527781
0.00527948
0.00507943
0.00377068
0.00461346
0.00455074
0.00416776
5.81608e-06
0.00138006
0.000153183
0.00363144
0.00270965
1.82915e-09
1.16166e-09
1.89286e-10
2.02213e-11
1.6778e-12
1.16267e-13
1.10341e-14
4.66744e-15
2.43887e-13
1.65154e-11
7.82104e-10
3.09016e-08
9.75492e-07
1.26289e-05
0.000121889
0.000525194
0.00108494
0.00146829
0.00152196
0.00149473
0.00156045
0.00162975
0.00165577
0.00151945
0.00106165
0.000523043
0.000432899
0.000710006
0.00124648
0.00194753
0.00361311
0.00289694
0.00441504
0.00415678
0.00454758
0.00451547
0.00466841
0.00466424
0.00466404
0.00466604
0.00460335
0.00460756
0.00432576
0.00432029
0.0045065
0.00439489
0.00423516
0.00404752
0.00391
0.00372775
0.00377235
0.00367244
0.00360703
0.00355164
0.00383683
0.00370183
0.0035889
0.00349126
0.00409263
0.0038956
0.00372004
0.00356965
0.00437609
0.00411825
0.00387416
0.00498355
0.00472512
0.00423165
0.00410177
0.00442379
0.00516463
0.00527792
0.0051639
0.00495281
0.00529071
0.00502862
0.0049666
0.00527517
0.00530642
0.00532627
0.00525994
0.00408753
0.0048987
0.00482114
0.00447652
3.72751e-06
0.000957656
0.000111483
0.00366168
0.00245403
2.08494e-09
6.10352e-10
7.63235e-11
6.88757e-12
5.04979e-13
4.24764e-14
4.71331e-15
1.03695e-13
5.39409e-12
2.87204e-10
1.16865e-08
4.18995e-07
7.14051e-06
7.95823e-05
0.000441751
0.00107295
0.00155217
0.00166165
0.00163836
0.00164693
0.00165749
0.0016207
0.00138289
0.000858034
0.000346306
0.000205089
0.000337465
0.000830717
0.00163981
0.00227967
0.00203451
0.00351675
0.0028334
0.00445717
0.00411274
0.00464985
0.00459907
0.00468906
0.00469574
0.00462505
0.00466037
0.0043439
0.00440613
0.00384093
0.00388226
0.00391212
0.00383968
0.00360478
0.00351569
0.00349212
0.0035079
0.00342873
0.00340682
0.00341771
0.00344175
0.00344392
0.00334916
0.0032968
0.00329289
0.00365822
0.00347788
0.00333545
0.00323519
0.00394116
0.00367426
0.00344887
0.00466837
0.00433976
0.00378536
0.00365876
0.00399251
0.00493495
0.00517493
0.00493151
0.00462673
0.00519875
0.00523357
0.0051902
0.00534511
0.0052395
0.00529195
0.00536064
0.00426462
0.00512437
0.00502725
0.00469157
2.28504e-06
0.000798913
8.61604e-05
0.00365399
0.00232826
1.76477e-09
2.69852e-10
2.66495e-11
2.08536e-12
1.33918e-13
1.10865e-14
3.34938e-14
2.15182e-12
9.95197e-11
4.22536e-09
1.50926e-07
3.72522e-06
4.49524e-05
0.000322581
0.00100527
0.00157207
0.00176873
0.00174893
0.00171469
0.00168119
0.00157075
0.00124411
0.000678744
0.000248341
0.000103018
0.000140568
0.000454375
0.00149716
0.00233334
0.00244833
0.00242305
0.00343888
0.00283567
0.00444499
0.00403301
0.00468281
0.00462069
0.00465959
0.00468464
0.00449761
0.00459063
0.00399202
0.00415254
0.00332081
0.00341236
0.00341615
0.00333041
0.00350366
0.00347372
0.00370477
0.00383218
0.00402241
0.00393523
0.0033154
0.00337401
0.00346164
0.00357732
0.00318833
0.00319134
0.00323341
0.00331794
0.00327382
0.00315361
0.0030962
0.00309791
0.00350472
0.00327949
0.00312105
0.0042745
0.00390732
0.00337062
0.00327264
0.00356208
0.00460352
0.00494747
0.00460174
0.0042308
0.0049902
0.00536577
0.00535247
0.00535188
0.00506296
0.00516346
0.00540718
0.00439501
0.00530354
0.00520318
0.00486369
1.59448e-06
0.00071802
7.70268e-05
0.00368198
0.00232638
1.04072e-09
1.02248e-10
8.27823e-12
5.68153e-13
4.35568e-14
1.17955e-14
7.1538e-13
3.24275e-11
1.45283e-09
5.34875e-08
1.52835e-06
2.1654e-05
0.000205994
0.000837261
0.00154878
0.0018322
0.00183605
0.00177878
0.00169387
0.00149547
0.0010826
0.000514776
0.00017647
5.6944e-05
5.12473e-05
0.000175843
0.000802118
0.00197347
0.0028417
0.00272791
0.00275529
0.00276697
0.00341897
0.00295278
0.00439449
0.00395687
0.00467412
0.00460442
0.00459832
0.00464787
0.00432606
0.00448379
0.00359801
0.00383761
0.00298676
0.00295809
0.00334106
0.00316941
0.00405672
0.00406003
0.00418273
0.00423841
0.00443153
0.00470385
0.00459372
0.00344761
0.00361725
0.0038131
0.00402546
0.00314677
0.00324838
0.00340861
0.00361573
0.00303224
0.00302004
0.00305218
0.00316192
0.00315318
0.00301393
0.00296672
0.00384762
0.00349476
0.00306336
0.00300677
0.00320642
0.00421151
0.00462848
0.00422065
0.00381511
0.00469509
0.00544482
0.00546363
0.00528517
0.00480712
0.00496641
0.0054091
0.00453592
0.00544731
0.00537136
0.00503895
7.88543e-06
0.000722798
0.000147589
0.00379809
0.00246851
4.7886e-10
3.42844e-11
2.33856e-12
1.40059e-13
1.35415e-14
1.80594e-13
1.03999e-11
4.77923e-10
1.81193e-08
5.65466e-07
9.40791e-06
0.000113526
0.000614541
0.00145359
0.00184432
0.00190551
0.00183579
0.0016901
0.00139964
0.000902602
0.000374897
0.00012762
3.4936e-05
1.71417e-05
5.28307e-05
0.000255335
0.000876804
0.00188946
0.00305305
0.00275278
0.0031373
0.00312308
0.00349902
0.00321826
0.00433212
0.00393038
0.00464099
0.004564
0.00447568
0.00455757
0.00408912
0.00431235
0.00312368
0.003405
0.00291325
0.00261482
0.00384009
0.00336883
0.00473721
0.00469804
0.00536892
0.00517685
0.00498353
0.00520784
0.00548437
0.00537893
0.00386234
0.00414096
0.00443136
0.00471708
0.00332978
0.00355523
0.00383346
0.00415062
0.00297938
0.00306591
0.00322356
0.00344892
0.00295186
0.00293377
0.00298685
0.00345466
0.00316764
0.00292592
0.00291605
0.00297541
0.00381109
0.00426655
0.00384194
0.00344299
0.00436475
0.00550011
0.00555034
0.00516552
0.00452167
0.00474796
0.00537023
0.00470973
0.00556413
0.00551491
0.00521193
0.000175887
0.00100569
0.000587015
0.0040458
0.00292817
1.88207e-10
1.04472e-11
6.03904e-13
3.9727e-14
4.89767e-14
3.0376e-12
1.50659e-10
5.95333e-09
1.935e-07
4.83357e-06
5.36216e-05
0.000390918
0.00121682
0.00182047
0.00194602
0.00188452
0.00168432
0.00131598
0.000747164
0.000293649
9.6171e-05
2.71789e-05
9.4375e-06
1.33516e-05
6.53884e-05
0.000260946
0.000611391
0.00167861
0.000825259
0.00303311
0.00242328
0.00344919
0.00331223
0.00370091
0.00353857
0.00428362
0.00397467
0.00456011
0.00449223
0.00422433
0.00435384
0.00371834
0.00400433
0.00259024
0.00281811
0.00322238
0.00248956
0.00492653
0.00455479
0.0041621
0.00551175
0.00547698
0.00586732
0.00565503
0.00574226
0.00594255
0.00612677
0.00607392
0.00449052
0.00483949
0.00517537
0.00548064
0.00373526
0.00407139
0.00444224
0.00482588
0.00311559
0.00331818
0.00359277
0.00393091
0.00292842
0.00301368
0.0031822
0.0031508
0.00296499
0.00293191
0.00293303
0.00291236
0.00346291
0.00391914
0.00352561
0.00316358
0.00405659
0.00553583
0.00562813
0.00503559
0.00426659
0.0045689
0.00532452
0.00491264
0.00566176
0.00563413
0.00537003
0.00206472
0.00197698
0.00252086
0.00442011
0.00389186
6.5307e-11
2.9175e-12
1.40165e-13
2.27514e-14
8.49506e-13
4.54263e-11
1.8868e-09
6.40774e-08
1.80864e-06
2.18136e-05
0.000212998
0.000897383
0.00172193
0.00195039
0.00192669
0.00168706
0.00123294
0.000629106
0.000257796
9.76298e-05
3.11933e-05
9.8356e-06
5.7564e-06
1.37593e-05
5.7307e-05
0.000126387
0.000141764
0.000929405
0.000353016
0.00250752
0.0017228
0.003437
0.00308353
0.00379885
0.00363791
0.00419562
0.00398532
0.00438621
0.00434528
0.00375511
0.00393771
0.00315429
0.00348498
0.00214504
0.0021194
0.00405556
0.00343108
0.00273455
0.00539687
0.00506451
0.00450025
0.00499531
0.00611318
0.00602639
0.00601824
0.0057863
0.00636127
0.00649945
0.00653807
0.00655545
0.00520225