/*--------------------------------*- C++ -*----------------------------------*\
  =========                 |
  \\      /  F ield         | OpenFOAM: The Open Source CFD Toolbox
   \\    /   O peration     | Website:  https://openfoam.org
    \\  /    A nd           | Version:  dev
     \\/     M anipulation  |
\*---------------------------------------------------------------------------*/
FoamFile
{
    version     2.0;
    format      ascii;
    class       volScalarField;
    location    "2500";
    object      k;
}
// * * * * * * * * * * * * * * * * * * * * * * * * * * * * * * * * * * * * * //

dimensions      [0 2 -2 0 0 0 0];

internalField   nonuniform List<scalar> 
9842
(
0.000155606
0.000162134
0.000144784
0.000142832
0.00019829
0.000118556
0.000120664
0.000213412
0.000176503
0.000107776
0.000111805
0.00020489
0.00021218
0.000137114
0.00010452
0.000106141
0.000179112
0.000234347
0.000184482
0.000117126
0.000103106
0.00010304
0.000147798
0.00023517
0.000221969
0.000142682
0.000109076
0.000102183
0.00010124
0.000129026
0.00022437
0.000242427
0.000183761
0.000120272
0.000105544
0.00010151
0.000100184
0.000116202
0.000196324
0.000254384
0.000223175
0.000143609
0.000110716
0.000103557
0.000101021
9.91074e-05
0.000108379
0.000160909
0.00025133
0.000247605
0.000179428
0.00012141
0.000106095
0.000102231
0.000100659
9.84007e-05
0.000103764
0.000137035
0.000236791
0.000262147
0.000218688
0.000142818
0.000111176
0.00010349
0.0001013
0.00010039
9.7985e-05
0.000101065
0.000121511
0.000205265
0.000269007
0.000248298
0.000172901
0.000122005
0.000105939
0.000101853
0.000100601
0.000100193
9.77113e-05
9.94382e-05
0.00011186
0.000168707
0.000264085
0.000265431
0.000209965
0.000139659
0.000111316
0.000102941
0.000100727
0.000100073
0.000100055
9.74974e-05
9.83831e-05
0.000105967
0.000142874
0.000247822
0.000277956
0.000243311
0.000166329
0.000121038
0.000105395
0.000101065
9.96873e-05
9.97555e-05
9.99828e-05
9.7382e-05
9.76431e-05
0.000102321
0.000125704
0.000214716
0.000282916
0.000267197
0.000198115
0.000136333
0.000110967
0.00010207
9.96864e-05
9.8859e-05
9.95514e-05
9.99317e-05
9.7339e-05
9.70056e-05
9.99527e-05
0.000114715
0.000176707
0.000277132
0.000280996
0.000233439
0.000158484
0.000119691
0.00010474
9.99779e-05
9.84392e-05
9.83847e-05
9.9388e-05
9.98862e-05
9.73375e-05
9.6493e-05
9.84074e-05
0.000107807
0.000148717
0.000259543
0.000293118
0.000262004
0.000187365
0.00013279
0.000110247
0.000101069
9.84689e-05
9.74382e-05
9.81163e-05
9.92349e-05
9.98505e-05
9.73753e-05
9.61561e-05
9.73981e-05
0.000103529
0.000130238
0.000225225
0.000296406
0.000283608
0.000219398
0.000151421
0.000118252
0.000103976
9.88412e-05
9.71577e-05
9.67947e-05
9.7956e-05
9.91109e-05
9.98233e-05
9.74166e-05
9.59489e-05
9.67499e-05
0.000100906
0.000118295
0.000186511
0.000289735
0.000295221
0.000252513
0.000176236
0.000128928
0.000109495
0.000100123
9.72283e-05
9.60343e-05
9.64279e-05
9.78541e-05
9.90083e-05
9.98054e-05
9.74479e-05
9.57731e-05
9.63096e-05
9.92871e-05
0.000110882
0.000156495
0.000270727
0.000306741
0.000277969
0.000205415
0.000144625
0.000116128
0.000103496
9.77149e-05
9.58772e-05
9.52255e-05
9.62377e-05
9.77732e-05
9.8923e-05
9.97982e-05
9.74801e-05
9.56137e-05
9.59528e-05
9.81984e-05
0.000106289
0.00013712
0.000237312
0.000309235
0.000297782
0.000236657
0.000165256
0.00012554
0.000108236
9.92965e-05
9.59972e-05
9.46693e-05
9.47117e-05
9.61548e-05
9.76979e-05
9.88639e-05
9.97928e-05
9.75098e-05
9.55139e-05
9.56494e-05
9.73601e-05
0.000103321
0.00012423
0.000198959
0.000302834
0.000308715
0.00026743
0.000191215
0.000137896
0.000114365
0.000102754
9.66362e-05
9.46058e-05
9.37257e-05
9.44465e-05
9.61196e-05
9.76192e-05
9.88323e-05
9.97817e-05
9.7531e-05
9.54623e-05
9.54245e-05
9.66871e-05
0.000101264
0.000115848
0.000166939
0.000284868
0.000320179
0.000291581
0.000219775
0.000155518
0.000121721
0.00010714
9.85819e-05
9.4793e-05
9.33702e-05
9.30991e-05
9.43369e-05
9.60998e-05
9.75378e-05
9.8811e-05
9.97625e-05
9.7549e-05
9.54561e-05
9.52516e-05
9.61816e-05
9.97666e-05
0.000110324
0.00014604
0.000253352
0.000323659
0.000310589
0.000249758
0.000177339
0.000132404
0.000112069
0.000101881
9.56245e-05
9.33761e-05
9.23752e-05
9.27408e-05
9.43277e-05
9.60596e-05
9.74663e-05
9.87897e-05
9.97285e-05
9.75775e-05
9.55079e-05
9.51106e-05
9.58186e-05
9.86272e-05
0.000106657
0.000131487
0.000214979
0.000318209
0.000322167
0.000279397
0.000203341
0.000146303
0.000118693
0.000105591
9.78072e-05
9.36662e-05
9.21871e-05
9.16678e-05
9.25912e-05
9.43571e-05
9.59921e-05
9.74133e-05
9.87549e-05
9.96855e-05
9.76193e-05
9.55741e-05
9.49752e-05
9.55317e-05
9.7775e-05
0.000104138
0.000121863
0.000180168
0.000301782
0.000333873
0.000303195
0.000231289
0.000165124
0.000126937
0.000110076
0.000100778
9.4714e-05
9.2247e-05
9.11969e-05
9.12341e-05
9.25876e-05
9.43773e-05
9.59176e-05
9.73607e-05
9.86866e-05
9.96337e-05
9.76711e-05
9.5609e-05
9.48461e-05
9.52636e-05
9.70957e-05
0.000102377
0.000115533
0.000156933
0.000271581
0.000338551
0.000323216
0.000259866
0.000187627
0.000138773
0.000115334
0.000104064
9.70047e-05
9.26598e-05
9.11255e-05
9.04622e-05
9.10332e-05
9.26574e-05
9.43757e-05
9.58332e-05
9.72884e-05
9.85891e-05
9.95686e-05
9.77329e-05
9.56172e-05
9.47131e-05
9.50234e-05
9.65096e-05
0.000100913
0.000111195
0.000141009
0.000234393
0.000334211
0.000335749
0.000289414
0.000213072
0.000154022
0.000122584
0.000107849
9.95562e-05
9.39783e-05
9.12445e-05
9.02024e-05
8.99819e-05
9.10284e-05
9.27564e-05
9.43436e-05
9.57441e-05
9.71905e-05
9.84602e-05
9.94915e-05
9.77979e-05
9.56114e-05
9.46053e-05
9.48042e-05
9.60248e-05
9.96577e-05
0.000108161
0.00013012
0.000198874
0.000320297
0.000346674
0.000314182
0.000240676
0.000173433
0.000131887
0.00011258
0.000102514
9.60599e-05
9.18135e-05
9.02026e-05
8.95042e-05
8.97595e-05
9.11524e-05
9.28617e-05
9.42907e-05
9.56497e-05
9.70629e-05
9.83037e-05
9.9406e-05
9.7856e-05
9.56164e-05
9.45714e-05
9.46164e-05
9.56293e-05
9.86587e-05
0.000105946
0.000122872
0.00017248
0.000292862
0.000353249
0.000334243
0.000268297
0.000196302
0.000144699
0.00011843
0.000105857
9.84412e-05
9.33239e-05
9.04137e-05
8.93979e-05
8.90737e-05
8.97967e-05
9.13623e-05
9.29572e-05
9.42239e-05
9.55372e-05
9.69014e-05
9.81202e-05
9.93139e-05
9.7904e-05
9.56474e-05
9.45767e-05
9.43959e-05
9.52702e-05
9.78868e-05
0.000104107
0.000117911
0.000155066
0.000259629
0.000350722
0.000348389
0.000296728
0.00022106
0.000161003
0.000126379
0.00010993
0.000101032
9.52803e-05
9.12213e-05
8.94541e-05
8.88453e-05
8.89489e-05
8.99935e-05
9.16437e-05
9.30416e-05
9.41487e-05
9.54046e-05
9.67339e-05
9.79582e-05
9.92425e-05
9.79463e-05
9.56869e-05
9.45865e-05
9.4177e-05
9.4912e-05
9.72104e-05
0.000102622
0.000114605
0.000143024
0.000225337
0.000340824
0.000357839
0.000323281
0.000248074
0.000180595
0.000136799
0.000115103
0.000104128
9.74363e-05
9.28253e-05
8.98178e-05
8.88331e-05
8.86103e-05
8.91042e-05
9.03707e-05
9.19428e-05
9.31246e-05
9.41024e-05
9.52772e-05
9.66128e-05
9.79185e-05
9.92523e-05
9.79905e-05
9.57142e-05
9.45645e-05
9.39955e-05
9.45804e-05
9.65963e-05
0.000101379
0.000112007
0.000134729
0.000196549
0.000319749
0.000367519
0.000342707
0.000273833
0.000203597
0.000150332
0.000121787
0.000107875
9.99282e-05
9.46756e-05
9.09255e-05
8.89866e-05
8.85458e-05
8.87417e-05
8.95031e-05
9.08924e-05
9.22322e-05
9.31745e-05
9.40006e-05
9.51322e-05
9.66357e-05
9.81813e-05
9.93738e-05
9.8031e-05
9.57194e-05
9.45001e-05
9.38311e-05
9.43051e-05
9.60511e-05
0.000100318
0.00010977
0.00012912
0.000176495
0.000292452
0.000368368
0.000359325
0.000301464
0.000227437
0.00016756
0.000130543
0.000112528
0.000102923
9.67853e-05
9.25742e-05
8.96246e-05
8.86082e-05
8.86662e-05
8.91498e-05
9.02317e-05
9.15716e-05
9.26236e-05
9.33891e-05
9.40977e-05
9.51396e-05
9.68787e-05
9.87818e-05
9.98561e-05
9.96304e-05
9.80566e-05
9.56878e-05
9.44052e-05
9.36637e-05
9.40823e-05
9.56009e-05
9.9427e-05
0.000107822
0.000125403
0.00016273
0.000262131
0.000363943
0.000369023
0.000327959
0.000253225
0.000187216
0.000142147
0.000118527
0.000106512
9.93368e-05
9.44704e-05
9.10835e-05
8.89822e-05
8.87096e-05
8.90853e-05
9.00126e-05
9.1341e-05
9.26441e-05
9.34837e-05
9.41678e-05
9.48616e-05
9.58287e-05
9.77923e-05
9.96405e-05
9.97268e-05
0.000100012
0.000100133
9.80723e-05
9.56193e-05
9.42735e-05
9.35021e-05
9.38632e-05
9.5244e-05
9.87023e-05
0.000106305
0.000122624
0.000152932
0.000232722
0.000352481
0.000379766
0.000349661
0.000279056
0.000209948
0.000156536
0.000126285
0.000111126
0.000102394
9.67987e-05
9.28763e-05
9.01041e-05
8.9007e-05
8.9122e-05
8.99976e-05
9.13692e-05
9.28171e-05
9.38732e-05
9.46075e-05
9.52408e-05
9.60258e-05
9.6898e-05
9.69061e-05
9.97809e-05
9.78494e-05
9.97727e-05
0.000100445
0.00010082
0.000100162
0.00010081
9.80757e-05
9.55325e-05
9.41069e-05
9.33441e-05
9.36329e-05
9.48943e-05
9.81203e-05
0.000105137
0.000120289
0.000146701
0.000209086
0.000332246
0.000389428
0.000367537
0.000304438
0.000233849
0.000174667
0.000136469
0.000116856
0.000106335
9.96087e-05
9.50485e-05
9.19278e-05
8.99603e-05
8.9388e-05
9.00623e-05
9.14633e-05
9.31449e-05
9.47743e-05
9.56981e-05
9.61893e-05
9.674e-05
9.70735e-05
9.74538e-05
9.79663e-05
0.000101091
9.97405e-05
0.000101128
0.000101472
0.000102002
0.000100336
0.000101268
9.80447e-05
9.54261e-05
9.39008e-05
9.31806e-05
9.33629e-05
9.45177e-05
9.75715e-05
0.000104185
0.000118273
0.000142825
0.000192412
0.000308355
0.000390356
0.000383351
0.000330136
0.000258501
0.000195375
0.000149725
0.000124581
0.000111235
0.000103152
9.79178e-05
9.43925e-05
9.19047e-05
9.02753e-05
9.03523e-05
9.16708e-05
9.35576e-05
9.5618e-05
9.70478e-05
9.76816e-05
9.78576e-05
9.79426e-05
9.86274e-05
9.82269e-05
9.85204e-05
9.97768e-05
0.000102349
0.000101064
0.000102452
0.000102231
0.000103018
0.000100439
0.000101647
9.79834e-05
9.52455e-05
9.3659e-05
9.30042e-05
9.30258e-05
9.41505e-05
9.70103e-05
0.000103357
0.00011659
0.000140259
0.000181094
0.000282748
0.000387252
0.000395188
0.000355169
0.000284284
0.000218388
0.000166197
0.000134628
0.000117783
0.000107959
0.000101859
9.76991e-05
9.45076e-05
9.22879e-05
9.12578e-05
9.21577e-05
9.40759e-05
9.63898e-05
9.81056e-05
9.90877e-05
9.94751e-05
9.93057e-05
0.000100289
9.91403e-05
9.96885e-05
9.98968e-05
0.000100137
0.000101106
0.000103548
0.000102462
0.000103761
0.000102951
0.000104032
0.000100543
0.000102029
9.79066e-05
9.49933e-05
9.33942e-05
9.28148e-05
9.26556e-05
9.37911e-05
9.6506e-05
0.000102589
0.000115212
0.00013821
0.000173734
0.000258338
0.000379499
0.000408752
0.000376981
0.000309474
0.000243585
0.000186159
0.000147636
0.000126459
0.000114781
0.00010738
0.000102019
9.81433e-05
9.53033e-05
9.34228e-05
9.33139e-05
9.50605e-05
9.78353e-05
0.000100232
0.00010179
0.000102891
0.000101398
0.000102869
0.000100743
0.000101857
0.000100624
0.000101286
0.000101251
0.000101566
0.000102534
0.000104736
0.000103874
0.000105089
0.000103682
0.000105074
0.000100653
0.000102429
9.78071e-05
9.47506e-05
9.3123e-05
9.26024e-05
9.22458e-05
9.33866e-05
9.60443e-05
0.000101879
0.000114083
0.000136489
0.000169262
0.00023841
0.000365165
0.000422136
0.000397332
0.000335361
0.000269196
0.000209664
0.000164316
0.000138194
0.000124209
0.000114847
0.00010829
0.000103469
9.96692e-05
9.72313e-05
9.60215e-05
9.70834e-05
9.98384e-05
0.000102954
0.000104373
0.000105877
0.000104774
0.000106917
0.000103577
0.000105292
0.00010253
0.000104054
0.000102144
0.000103149
0.000102727
0.000103132
0.000104028
0.000105948
0.000105302
0.000106445
0.000104452
0.000106137
0.00010076
0.000102848
9.77005e-05
9.45361e-05
9.28651e-05
9.23571e-05
9.17987e-05
9.29173e-05
9.55577e-05
0.000101242
0.000113071
0.00013494
0.000166486
0.000224029
0.000347393
0.000429945
0.00041663
0.000362598
0.000296105
0.000235566
0.000185059
0.000154202
0.000137111
0.000125326
0.000117055
0.000111449
0.000107639
0.000104205
0.000101881
0.000100731
0.000102254
0.000105292
0.000107207
0.000108593
0.000109497
0.000111696
0.000107626
0.00011
0.000106102
0.000108335
0.000104704
0.000106692
0.00010386
0.000105295
0.000104307
0.000104833
0.000105565
0.000107218
0.000106792
0.000107843
0.00010525
0.000107224
0.000100874
0.000103283
9.7593e-05
9.43585e-05
9.26359e-05
9.2094e-05
9.13499e-05
9.24092e-05
9.50134e-05
0.000100634
0.000112103
0.00013344
0.000164424
0.000214056
0.000327752
0.000431657
0.00043536
0.000390057
0.000324305
0.000263959
0.000210257
0.000175191
0.000154675
0.000140454
0.000130679
0.000123779
0.000119293
0.000114417
0.000109983
0.000106935
0.000106899
0.000109248
0.000111901
0.000113541
0.000113545
0.000115216
0.000112624
0.000114846
0.000110911
0.000113321
0.00010911
0.00011162
0.000107412
0.000109601
0.000106038
0.000107665
0.000105998
0.000106808
0.000107207
0.000108499
0.000108326
0.00010922
0.00010604
0.000108324
0.000100993
0.000103653
9.75467e-05
9.43185e-05
9.25197e-05
9.18884e-05
9.0993e-05
9.19375e-05
9.44141e-05
9.99522e-05
0.000111201
0.00013196
0.000162628
0.000207433
0.00030787
0.00043108
0.000456414
0.000417411
0.000352522
0.000294642
0.000240191
0.000202754
0.000178541
0.00016334
0.000152403
0.000144525
0.000136019
0.000129271
0.000123113
0.000118539
0.000116744
0.000118863
0.000123838
0.000128093
0.000118642
0.000125547
0.000117414
0.00012207
0.000116136
0.000121136
0.000114822
0.000121132
0.000113086
0.000120698
0.000110652
0.000117648
0.000108539
0.000113155
0.000108002
0.000110043
0.000109196
0.000109677
0.000110215
0.000110827
0.000106788
0.000109237
0.000101089
0.000103878
9.77257e-05
9.46771e-05
9.26973e-05
9.18696e-05
9.08558e-05
9.15969e-05
9.38348e-05
9.91474e-05
0.000110242
0.000130562
0.000161057
0.000202882
0.000289771
0.000427876
0.000478738
0.000445099
0.000382228
0.000326454
0.000275335
0.000237776
0.000211693
0.000197222
0.000187829
0.00017662
0.000167756
0.000158466
0.000150537
0.000144123
0.000142006
0.000148275
0.000165824
0.000189989
0.000154527
0.000126403
0.000131635
0.000154424
0.000131315
0.000153998
0.000134156
0.000163986
0.000139076
0.000184747
0.000136828
0.000188853
0.000127656
0.000172421
0.000117328
0.000145586
0.000111832
0.000123075
0.000113388
0.000110705
0.000114351
0.000114259
0.000107286
0.000109531
0.00010108
0.0001039
9.89095e-05
9.61357e-05
9.3583e-05
9.21937e-05
9.09676e-05
9.14495e-05
9.33957e-05
9.83733e-05
0.000109167
0.000129283
0.000159628
0.000199598
0.000274669
0.000417971
0.000497724
0.000473631
0.000415051
0.000360181
0.000314657
0.000279036
0.000256442
0.000247202
0.000242918
0.000238286
0.000232354
0.000224429
0.000218104
0.000218209
0.000235143
0.00027733
0.000354014
0.000455642
0.000586411
0.000211065
0.000417965
0.000204593
0.000315089
0.000232064
0.000377824
0.00028987
0.000513513
0.000319843
0.000621023
0.000299368
0.000610648
0.000240482
0.000501604
0.000171797
0.000343673
0.000129376
0.000203651
0.000133842
0.00011286
0.000135051
0.000131169
0.000107221
0.000110229
0.000100798
0.000103536
0.000101206
0.000100185
9.62692e-05
9.32991e-05
9.1368e-05
9.14724e-05
9.3124e-05
9.78276e-05
0.00010835
0.000127953
0.000158144
0.000197037
0.000262631
0.000401336
0.00051044
0.000504188
0.000450019
0.00039551
0.000356633
0.000326749
0.000314205
0.000320971
0.000339137
0.000365051
0.000383708
0.000395442
0.000414177
0.000470718
0.000637292
0.000895001
0.00111498
0.00135743
0.0018665
0.00186827
0.0028065
0.000540087
0.00109408
0.000663462
0.0012716
0.000963768
0.00178675
0.00124626
0.00231894
0.00126962
0.00251306
0.0011048
0.00234196
0.000815214
0.00185061
0.000470759
0.00120144
0.000234882
0.000605983
0.000254179
0.000123535
0.000254905
0.000231265
0.000106414
0.000114808
0.000100405
0.000102382
0.00010731
0.000111732
0.000104663
9.65297e-05
9.26372e-05
9.17261e-05
9.29205e-05
9.74849e-05
0.000108092
0.000126734
0.000156372
0.000194598
0.000253265
0.000381363
0.000517308
0.000537322
0.000487196
0.000430969
0.00039911
0.00037976
0.00038706
0.000431958
0.000533119
0.000648842
0.000775619
0.000880365
0.00101132
0.00132681
0.00203936
0.00313622
0.00380365
0.00390801
0.004242
0.00391897
0.00514941
0.00445887
0.0055484
0.00216581
0.00331345
0.00288703
0.00417926
0.00364803
0.00502549
0.00405371
0.00558011
0.00402
0.00572201
0.00362626
0.0054701
0.002771
0.00484256
0.00160339
0.00367431
0.000722509
0.00196211
0.000783274
0.000191303
0.000768934
0.000672649
0.000107304
0.000148659
0.000100305
0.000102979
0.000123147
0.000139962
0.000127743
0.000107286
9.64746e-05
9.26494e-05
9.30047e-05
9.71653e-05
0.000108071
0.000126063
0.000154366
0.000191829
0.000245765
0.000359286
0.000518582
0.000570659
0.000526811
0.000467635
0.00044007
0.00043539
0.000477088
0.000615086
0.000902366
0.00129844
0.00173924
0.00216058
0.00265392
0.00356724
0.00545921
0.00706881
0.00703632
0.00658454
0.00627181
0.00593508
0.00685038
0.00648382
0.00725825
0.00756173
0.00832747
0.00544604
0.00658163
0.00637809
0.00761916
0.00699387
0.00821491
0.00720644
0.00838191
0.00706874
0.00829007
0.00664874
0.00800018
0.00583556
0.00749966
0.00442078
0.00656244
0.00224992
0.00494888
0.00235699
0.000514961
0.0022597
0.00200532
0.000120132
0.000342138
0.000101891
0.00011341
0.000126081
0.000167684
0.000169373
0.000137647
0.000107773
9.58644e-05
9.3678e-05
9.70961e-05
0.000107869
0.000125837
0.000152438
0.00018885
0.00023935
0.000337729
0.000513483
0.000599044
0.000567199
0.00050706
0.000479455
0.000491685
0.000589211
0.000895841
0.00152292
0.00249312
0.00346874
0.00432464
0.00517078
0.00669657
0.00857861
0.0090976
0.00883474
0.00768753
0.00694259
0.0075949
0.00771471
0.00824133
0.00888729
0.00920264
0.0100107
0.0103433
0.00865636
0.00945441
0.00917188
0.00991006
0.00923318
0.0098404
0.00913244
0.00971424
0.00894749
0.00957064
0.00865318
0.00948742
0.00812249
0.00924944
0.0070998
0.00867389
0.00527611
0.00752156
0.00538267
0.00159543
0.00523937
0.00480615
0.000224997
0.0011558
0.000106246
0.000224206
0.000143491
0.00019247
0.000185727
0.000139094
0.00010695
9.63045e-05
9.74643e-05
0.000107367
0.000125515
0.000150889
0.000185958
0.000233515
0.0003186
0.000494312
0.000618082
0.000608582
0.000548788
0.000516871
0.000544192
0.000719571
0.0012864
0.0024458
0.00405312
0.00550391
0.00657041
0.00771475
0.00926476
0.0102243
0.010363
0.00905452
0.00775925
0.0070474
0.00713003
0.00882021
0.00824726
0.00926779
0.00916487
0.0104214
0.0103566
0.0108984
0.010885
0.0104364
0.0107608
0.0102633
0.0105515
0.0100921
0.0103277
0.0100168
0.0103408
0.0100747
0.0105635
0.0100907
0.0108349
0.00986989
0.0108505
0.00922834
0.0105136
0.0078366
0.00972983
0.00801627
0.00414553
0.00804353
0.00786757
0.000903952
0.00349943
0.000219339
0.00152822
0.000144047
0.000203073
0.000189373
0.000136749
0.000103814
9.90367e-05
0.000106903
0.000124936
0.000149599
0.000183311
0.00022813
0.000302006
0.00046669
0.000625883
0.000649756
0.00059273
0.000551396
0.000587483
0.000841874
0.0017131
0.00350301
0.00574659
0.00755394
0.00876756
0.00981962
0.0106637
0.0111605
0.0103393
0.00887019
0.00792026
0.00733457
0.0072787
0.00782753
0.00758575
0.0090809
0.00849126
0.0101298
0.00966531
0.0107737
0.0104929
0.0107366
0.0106408
0.0107294
0.0107646
0.0104922
0.0106146
0.0105739
0.0108059
0.0110001
0.0114305
0.011427
0.0121175
0.0117096
0.0126578
0.0116323
0.0127306
0.0112075
0.0124172
0.0101688
0.0118046
0.0104865
0.00749336
0.0106662
0.0106446
0.0091796
0.00358718
0.00722505
0.00285522
0.00941013
0.000141418
0.000208027
0.000187418
0.000126416
0.000103816
0.000106947
0.000124149
0.000148557
0.000180759
0.000222783
0.000288188
0.000435224
0.000625182
0.00068693
0.000638743
0.000584438
0.000618897
0.000929511
0.00208386
0.00449713
0.00739401
0.00941064
0.010461
0.010986
0.0114554
0.0111396
0.0100237
0.00854507
0.00813733
0.00820767
0.00870149
0.00886812
0.00821007
0.00838155
0.00901906
0.00863192
0.0100634
0.00955422
0.0104173
0.0101256
0.0107039
0.0106467
0.0106986
0.0107186
0.0110487
0.0112986
0.0117919
0.0122903
0.012822
0.013564
0.0136581
0.0147772
0.0139888
0.0154744
0.0136866
0.0153048
0.0130151
0.0144125
0.0122656
0.0133968
0.0127877
0.0116408
0.0125082
0.0104665
0.00887959
0.0104084
0.01176
0.0128097
0.0125885
0.0117892
0.00715553
0.00787673
0.0101577
0.010061
0.0089505
0.0214815
0.00984938
0.0211011
0.014757
0.000143395
0.000214866
0.000174948
0.00011484
0.000108297
0.000123195
0.000147274
0.000178003
0.000217508
0.000276108
0.00040297
0.000613385
0.000713834
0.000682716
0.000618924
0.000637914
0.00096455
0.00232589
0.00528129
0.00877431
0.0107641
0.0114221
0.0117114
0.0114425
0.0107841
0.00933511
0.00839132
0.0081102
0.00867874
0.0102242
0.011674
0.0095005
0.0114266
0.00860804
0.00880497
0.00900289
0.00893209
0.00977538
0.00935569
0.0105071
0.0103393
0.0118526
0.0118573
0.0115615
0.011749
0.0128181
0.0133527
0.0143531
0.0151714
0.0159454
0.0171335
0.0170979
0.0189682
0.0174333
0.0197995
0.0152325
0.0164078
0.0175778
0.019118
0.0139812
0.0148579
0.016945
0.0173451
0.0158317
0.0135419
0.013123
0.0137637
0.0142107
0.0133201
0.0117387
0.0115624
0.0128612
0.0136733
0.0135224
0.0129095
0.00980079
0.0113246
0.0110651
0.0102131
0.0231637
0.0269307
0.0263725
0.0120653
0.0170503
0.000163213
0.000217357
0.000141975
0.00011407
0.000120656
0.000145891
0.000174767
0.000211685
0.00026565
0.000372402
0.000582404
0.000725686
0.000723296
0.000655596
0.000646445
0.000952764
0.00239775
0.00579725
0.00978938
0.0115541
0.0120256
0.0117718
0.0111358
0.00995366
0.00887304
0.00823886
0.00801848
0.00832421
0.0095047
0.0114129
0.0129066
0.0106852
0.0123909
0.00905233
0.00950556
0.00956017
0.00957884
0.0100879
0.00975938
0.0118188
0.0116852
0.0143722
0.014347
0.0138432
0.0142282
0.0159595
0.0166738
0.0182441
0.0191242
0.0204413
0.0213035
0.0217498
0.0225996
0.0202894
0.0216141
0.0221984
0.0228138
0.0183588
0.0197957
0.0210801
0.0150444
0.0161359
0.0187848
0.0189789
0.0174914
0.0143753
0.0139025
0.0144892
0.0151883
0.0140859
0.0128483
0.0126391
0.0138095
0.0142572
0.0144276
0.0138816
0.0110343
0.0122846
0.0118227
0.0110019
0.00214911
0.0101898
0.022557
0.0130323
0.0168681
0.00020045
0.000198221
0.000124171
0.000120959
0.000143362
0.00017135
0.000205561
0.000255199
0.000346436
0.000542924
0.000725697
0.000759414
0.000695406
0.000651781
0.000877797
0.00232799
0.00593852
0.01033
0.0119828
0.0121974
0.0115388
0.0103648
0.00929502
0.00872358
0.0082833
0.00794758
0.00715865
0.0063863
0.00753741
0.0107644
0.0130151
0.0127945
0.0115531
0.0126836
0.00977993
0.0103355
0.0106201
0.0105285
0.0113913
0.0109927
0.0141857
0.0137929
0.0171896
0.0168489
0.0171522
0.0173074
0.0196523
0.0197196
0.0214612
0.0212814
0.0226815
0.0223946
0.0229145
0.0229549
0.0227198
0.0223484
0.0220195
0.0225858
0.0228475
0.0228559
0.0202338
0.0213886
0.0221072
0.0162717
0.0176022
0.0203672
0.0202869
0.0190277
0.0152491
0.0146143
0.0152875
0.0162971
0.0147426
0.0138184
0.0135599
0.0145911
0.0148823
0.0150435
0.0146823
0.0115671
0.0130782
0.0124715
0.0115203
0.00022307
0.0156943
0.00300142
0.0133101
0.0152928
0.000229744
0.000151269
0.000124377
0.000140082
0.000167414
0.000198753
0.000245791
0.00032322
0.00050038
0.00071572
0.00078658
0.00073684
0.000662308
0.000778017
0.00202366
0.00580344
0.0104649
0.0121257
0.0121251
0.0109019
0.00946274
0.00890193
0.00869056
0.00850197
0.00800328
0.00565742
0.00307853
0.00322013
0.0050478
0.00804958
0.0124425
0.0113734
0.0119022
0.0125025
0.0106264
0.0110122
0.011731
0.0112327
0.013188
0.0124587
0.0161959
0.0153449
0.0184801
0.0177332
0.019511
0.0190754
0.0209647
0.0203816
0.0216564
0.0206574
0.0217503
0.0211565
0.0205997
0.0200312
0.0225324
0.0219388
0.0212136
0.0204013
0.0224999
0.0225262
0.0221369
0.0214142
0.0213538
0.0219404
0.0220825
0.0175796
0.0189255
0.0211232
0.0207596
0.0200369
0.016244
0.0153185
0.0161493
0.0174519
0.0153624
0.0146227
0.0143257
0.0152022
0.0154326
0.0155385
0.0152958
0.0120554
0.0137898
0.0132161
0.0121685
0.000157349
0.0109263
0.00184289
0.0135817
0.0138934
0.000210409
0.000134859
0.000135595
0.000164253
0.000192151
0.000236002
0.000304493
0.00045689
0.000684868
0.000798129
0.000772827
0.000682556
0.000700009
0.00159952
0.00518539
0.0103691
0.012112
0.0119013
0.0100478
0.00879679
0.00860265
0.00868125
0.00893817
0.00803636
0.00452919
0.00173553
0.00145377
0.00240103
0.00407545
0.00745561
0.00539861
0.0113859
0.00999086
0.0116591
0.0117326
0.0111211
0.0112227
0.0122416
0.0114214
0.0143505
0.0132823
0.0168297
0.0157871
0.0181383
0.0173295
0.0196523
0.0189101
0.0194586
0.0180426
0.018323
0.017157
0.0196459
0.0189879
0.0184637
0.0181679
0.0205035
0.0195392
0.0186378
0.0178695
0.0217315
0.0209349
0.0198796
0.0187607
0.0215189
0.0213861
0.020634
0.0186987
0.0196846
0.0209325
0.0202509
0.0202496
0.0172323
0.0160517
0.0169886
0.0183766
0.0159729
0.0152399
0.0149561
0.0156563
0.0159263
0.0159365
0.0157201
0.0128334
0.0144853
0.0140843
0.013101
0.000142071
0.00876639
0.0017139
0.0139291
0.0131808
0.00017681
0.000139172
0.000159092
0.000186778
0.000227049
0.000288257
0.000417477
0.000640686
0.000797224
0.000801209
0.000713562
0.000658799
0.00120862
0.00412817
0.00991859
0.0120209
0.0114984
0.00928797
0.00829849
0.00829177
0.00869207
0.00911296
0.00781701
0.00365852
0.00119834
0.000775826
0.00123963
0.00271612
0.00443333
0.00641596
0.00526665
0.00995667
0.00831286
0.0108783
0.0106589
0.0110066
0.0109163
0.012166
0.0111787
0.0146218
0.0133754
0.0164413
0.015448
0.0157813
0.0154079
0.0169408
0.0162163
0.0160101
0.0148109
0.0168334
0.0167442
0.0162171
0.0165477
0.0172956
0.0169491
0.0168261
0.0168124
0.0177283
0.0168838
0.0162893
0.0160012
0.0195153
0.0182614
0.0170901
0.0161406
0.0204972
0.0194682
0.0181457
0.0192552
0.0196687
0.0195966
0.0187903
0.0195677
0.0179989
0.0167465
0.0176209
0.01879
0.0165246
0.0156447
0.0154274
0.0159717
0.0163483
0.0162356
0.0159507
0.0137413
0.0151281
0.0149086
0.0141064
0.000136204
0.0085284
0.00184186
0.0143233
0.0134114
0.000163255
0.000156794
0.000180844
0.000219118
0.000275279
0.000383214
0.000592459
0.000786704
0.00082199
0.000749736
0.000649928
0.000904607
0.00302199
0.00873327
0.0118014
0.011199
0.0086651
0.00783186
0.00802616
0.00864891
0.00902181
0.00720875
0.00281377
0.000982311
0.000529252
0.000684422
0.0017542
0.00395212
0.00546347
0.00538082
0.00601561
0.00551391
0.00838261
0.00709381
0.00985054
0.00931785
0.0105314
0.0101695
0.0118862
0.0108271
0.0143288
0.0131055
0.0150321
0.0145199
0.0123777
0.0125961
0.0136038
0.0127338
0.0157696
0.0151577
0.0142277
0.0167771
0.0168968
0.0167486
0.0169168
0.0159674
0.0161024
0.0163382
0.0165791
0.0154861
0.0151829
0.0151506
0.0153237
0.0168303
0.0157259
0.0149409
0.0145298
0.0184039
0.0170127
0.0157293
0.0190872
0.0189205
0.0175513
0.0169226
0.0181403
0.0183058
0.0172618
0.0178437
0.0185385
0.0169295
0.0158474
0.0156926
0.0161405
0.0166441
0.0164066
0.0160071
0.0145542
0.0155289
0.015466
0.0149557
0.000384084
0.00956423
0.00538032
0.0148963
0.0144637
0.000166862
0.00017752
0.00021163
0.000265118
0.000355737
0.000544046
0.00075686
0.000829533
0.000781953
0.000658156
0.000710345
0.00204893
0.0068961
0.01133
0.0111263
0.00818474
0.00737739
0.0076427
0.00843096
0.00869481
0.00613533
0.00231533
0.00090024
0.000483084
0.000459336
0.000905406
0.00240714
0.00493298
0.00644672
0.00660573
0.00640659
0.0063902
0.0075148
0.00680589
0.00895425
0.00828167
0.0100386
0.00949306
0.0118546
0.0108729
0.0138098
0.0128914
0.0129799
0.0132184
0.0106872
0.0101327
0.012819
0.0116492
0.0163436
0.0157204
0.0161264
0.015038
0.0176518
0.018026
0.018039
0.0181348
0.0156464
0.0160746
0.0166011
0.0171511
0.0144339
0.0145274
0.0148706
0.0153462
0.0147487
0.014121
0.0138912
0.0138777
0.0161781
0.0149763
0.0141018
0.0183719
0.0176106
0.0156315
0.0153213
0.0165015
0.0180387
0.0174354
0.0176018
0.0178911
0.0170793
0.0158525
0.0157201
0.0161417
0.0167632
0.0164011
0.015876
0.0152647
0.0156538
0.0156678
0.0155404
0.00543608
0.0142392
0.0181621
0.0155521
0.0165554
0.000179289
0.000207273
0.00025648
0.000335303
0.000498655
0.000714332
0.000827632
0.000806314
0.000682505
0.000618953
0.0013282
0.00487986
0.0104471
0.011103
0.00805484
0.00693645
0.0071925
0.00789386
0.00788755
0.00499811
0.00214186
0.000942038
0.000508743
0.00041399
0.00050878
0.00107958
0.00244231
0.00584321
0.00387361
0.00782198
0.0072642
0.00768241
0.00788703
0.00780124
0.00760086
0.00887409
0.00830301
0.0100788
0.00946166
0.0123065
0.0115817
0.0132108
0.012904
0.0105875
0.0114116
0.0104098
0.00907145
0.0141364
0.013081
0.011903
0.0176251
0.0169436
0.0168931
0.0157712
0.0188639
0.019287
0.0192538
0.019397
0.0159842
0.016736
0.0175101
0.0182413
0.0140935
0.0145183
0.0151259
0.0158726
0.0136216
0.0134625
0.0134933
0.0137708
0.0145238
0.0137411
0.0133405
0.0172166
0.0162359
0.0143239
0.014326
0.0152021
0.0174848
0.0172317
0.0171728
0.0169248
0.0169352
0.0156988
0.0156042
0.0159725
0.0166407
0.0162158
0.0156541
0.01566
0.0155979
0.0156616
0.0157239
0.0409038
0.0216821
0.0380029
0.015841
0.0169865
0.000205128
0.000251633
0.000320046
0.000460531
0.000667658
0.000817599
0.000819415
0.000716034
0.000593519
0.000876467
0.00314233
0.0087773
0.0109792
0.00816271
0.00645209
0.00671498
0.00722824
0.00691316
0.00422993
0.00227054
0.00112507
0.000620563
0.000439493
0.000411558
0.000546773
0.00101003
0.00133018
0.00459477
0.00249243
0.00859361
0.00683774
0.00957692
0.00935926
0.00940828
0.0095447
0.00973367
0.00942604
0.010866
0.0102448
0.0127706
0.0126475
0.0121841
0.0126538
0.00834767
0.00888389
0.0114327
0.0103465
0.00881397
0.0147102
0.0137077
0.0122018
0.0131266
0.0187419
0.0179245
0.0170962
0.015918
0.0197818
0.0201261
0.0198929
0.0201666
0.0167029
0.0175731
0.0184186
0.0191789
0.014242
0.0148762
0.015623
0.0164226
0.013217
0.0132522
0.0135344
0.0140011
0.0136166
0.0132612
0.0131473
0.0161008
0.0152276
0.0137017
0.0139624
0.0144937
0.0167326
0.0169222
0.0166282
0.0160796
0.0166791
0.0154542
0.01535
0.0157771
0.0163799
0.016061
0.0154598
0.0156151
0.0154369
0.0155161
0.0156292
0.0293151
0.0213443
0.036271
0.0155109
0.0159227
0.000247891
0.000312412
0.000428911
0.000621783
0.000791496
0.0008211
0.000749022
0.00059441
0.000639424
0.00187932
0.00638545
0.0104869
0.00863499
0.00624308
0.00615012
0.00657695
0.00614522
0.00428411
0.0027694
0.00159693
0.000882076
0.000549288
0.000427863
0.000413473
0.000509885
0.000569244
0.000890166
0.000563704
0.00262936
0.00138556
0.00721495
0.00469407
0.0105772
0.00928177
0.01151
0.0112245
0.0117858
0.01164