/*--------------------------------*- C++ -*----------------------------------*\
  =========                 |
  \\      /  F ield         | OpenFOAM: The Open Source CFD Toolbox
   \\    /   O peration     | Website:  https://openfoam.org
    \\  /    A nd           | Version:  dev
     \\/     M anipulation  |
\*---------------------------------------------------------------------------*/
FoamFile
{
    version     2.0;
    format      ascii;
    class       volScalarField;
    location    "2500";
    object      N2;
}
// * * * * * * * * * * * * * * * * * * * * * * * * * * * * * * * * * * * * * //

dimensions      [0 0 0 0 0 0 0];

internalField   nonuniform List<scalar> 
9842
(
0.76699
0.76699
0.76699
0.76699
0.76699
0.76699
0.76699
0.76699
0.76699
0.76699
0.76699
0.76699
0.76699
0.76699
0.76699
0.76699
0.76699
0.76699
0.76699
0.76699
0.76699
0.76699
0.76699
0.76699
0.76699
0.76699
0.76699
0.76699
0.76699
0.76699
0.76699
0.76699
0.76699
0.76699
0.76699
0.76699
0.76699
0.76699
0.76699
0.76699
0.76699
0.76699
0.76699
0.76699
0.76699
0.76699
0.76699
0.76699
0.76699
0.76699
0.76699
0.76699
0.76699
0.76699
0.76699
0.76699
0.76699
0.76699
0.76699
0.76699
0.76699
0.76699
0.76699
0.76699
0.76699
0.76699
0.76699
0.76699
0.76699
0.76699
0.76699
0.76699
0.76699
0.76699
0.76699
0.76699
0.76699
0.76699
0.76699
0.76699
0.76699
0.76699
0.76699
0.76699
0.76699
0.76699
0.76699
0.76699
0.76699
0.76699
0.76699
0.76699
0.76699
0.76699
0.76699
0.76699
0.76699
0.76699
0.76699
0.76699
0.76699
0.76699
0.76699
0.76699
0.76699
0.76699
0.76699
0.76699
0.76699
0.76699
0.76699
0.76699
0.76699
0.76699
0.76699
0.76699
0.76699
0.76699
0.76699
0.76699
0.76699
0.76699
0.76699
0.76699
0.76699
0.76699
0.76699
0.76699
0.76699
0.76699
0.76699
0.76699
0.76699
0.76699
0.76699
0.76699
0.76699
0.76699
0.76699
0.76699
0.76699
0.76699
0.76699
0.76699
0.76699
0.76699
0.76699
0.76699
0.76699
0.76699
0.76699
0.76699
0.76699
0.76699
0.76699
0.76699
0.76699
0.76699
0.76699
0.76699
0.76699
0.76699
0.76699
0.76699
0.76699
0.76699
0.76699
0.76699
0.76699
0.76699
0.76699
0.76699
0.76699
0.76699
0.76699
0.76699
0.76699
0.76699
0.76699
0.76699
0.76699
0.76699
0.76699
0.76699
0.76699
0.76699
0.76699
0.76699
0.76699
0.76699
0.76699
0.76699
0.76699
0.76699
0.76699
0.76699
0.76699
0.76699
0.76699
0.76699
0.76699
0.76699
0.76699
0.76699
0.76699
0.76699
0.76699
0.76699
0.76699
0.76699
0.76699
0.76699
0.76699
0.76699
0.76699
0.76699
0.76699
0.76699
0.76699
0.76699
0.76699
0.76699
0.76699
0.76699
0.76699
0.76699
0.76699
0.76699
0.76699
0.76699
0.76699
0.76699
0.76699
0.76699
0.76699
0.76699
0.76699
0.76699
0.76699
0.76699
0.76699
0.76699
0.76699
0.76699
0.76699
0.76699
0.76699
0.76699
0.76699
0.76699
0.76699
0.76699
0.76699
0.76699
0.76699
0.76699
0.76699
0.76699
0.76699
0.76699
0.76699
0.76699
0.76699
0.76699
0.76699
0.76699
0.76699
0.76699
0.76699
0.76699
0.76699
0.76699
0.76699
0.76699
0.76699
0.76699
0.76699
0.76699
0.76699
0.76699
0.76699
0.76699
0.76699
0.76699
0.76699
0.76699
0.76699
0.76699
0.76699
0.76699
0.76699
0.76699
0.76699
0.76699
0.76699
0.76699
0.76699
0.76699
0.76699
0.76699
0.76699
0.76699
0.76699
0.76699
0.76699
0.76699
0.76699
0.76699
0.76699
0.76699
0.76699
0.76699
0.76699
0.76699
0.76699
0.76699
0.76699
0.76699
0.76699
0.76699
0.76699
0.76699
0.76699
0.76699
0.76699
0.76699
0.76699
0.76699
0.76699
0.76699
0.76699
0.76699
0.76699
0.76699
0.76699
0.76699
0.76699
0.76699
0.76699
0.76699
0.76699
0.76699
0.76699
0.76699
0.76699
0.76699
0.76699
0.76699
0.76699
0.76699
0.76699
0.76699
0.76699
0.76699
0.76699
0.76699
0.76699
0.76699
0.76699
0.76699
0.76699
0.76699
0.76699
0.76699
0.76699
0.76699
0.76699
0.76699
0.76699
0.76699
0.76699
0.76699
0.76699
0.76699
0.76699
0.76699
0.76699
0.76699
0.76699
0.76699
0.76699
0.76699
0.76699
0.76699
0.76699
0.76699
0.76699
0.76699
0.76699
0.76699
0.76699
0.76699
0.76699
0.76699
0.76699
0.76699
0.76699
0.76699
0.76699
0.76699
0.76699
0.76699
0.76699
0.76699
0.76699
0.76699
0.76699
0.76699
0.76699
0.76699
0.76699
0.76699
0.76699
0.76699
0.76699
0.76699
0.76699
0.76699
0.76699
0.76699
0.76699
0.76699
0.76699
0.76699
0.76699
0.76699
0.76699
0.76699
0.76699
0.76699
0.76699
0.76699
0.76699
0.76699
0.76699
0.76699
0.76699
0.76699
0.76699
0.76699
0.76699
0.76699
0.76699
0.76699
0.76699
0.76699
0.76699
0.76699
0.76699
0.76699
0.76699
0.76699
0.76699
0.76699
0.76699
0.76699
0.76699
0.76699
0.76699
0.76699
0.76699
0.76699
0.76699
0.76699
0.76699
0.76699
0.76699
0.76699
0.76699
0.76699
0.76699
0.76699
0.76699
0.76699
0.76699
0.76699
0.76699
0.76699
0.76699
0.76699
0.76699
0.76699
0.76699
0.76699
0.76699
0.76699
0.76699
0.76699
0.76699
0.76699
0.76699
0.76699
0.76699
0.76699
0.76699
0.76699
0.76699
0.76699
0.76699
0.76699
0.76699
0.76699
0.76699
0.76699
0.76699
0.76699
0.76699
0.76699
0.76699
0.76699
0.76699
0.76699
0.76699
0.76699
0.76699
0.76699
0.76699
0.76699
0.76699
0.76699
0.76699
0.76699
0.76699
0.76699
0.76699
0.76699
0.76699
0.76699
0.76699
0.76699
0.76699
0.76699
0.76699
0.76699
0.76699
0.76699
0.76699
0.76699
0.76699
0.76699
0.76699
0.76699
0.76699
0.76699
0.76699
0.76699
0.76699
0.76699
0.76699
0.76699
0.76699
0.76699
0.76699
0.76699
0.76699
0.76699
0.76699
0.76699
0.76699
0.76699
0.76699
0.76699
0.76699
0.76699
0.76699
0.76699
0.76699
0.76699
0.76699
0.76699
0.76699
0.76699
0.76699
0.76699
0.76699
0.76699
0.76699
0.76699
0.76699
0.76699
0.76699
0.76699
0.76699
0.76699
0.76699
0.76699
0.76699
0.76699
0.76699
0.76699
0.76699
0.76699
0.76699
0.76699
0.76699
0.76699
0.76699
0.76699
0.76699
0.76699
0.76699
0.76699
0.76699
0.76699
0.76699
0.76699
0.76699
0.76699
0.76699
0.76699
0.76699
0.76699
0.76699
0.76699
0.76699
0.76699
0.76699
0.76699
0.76699
0.76699
0.76699
0.76699
0.76699
0.76699
0.76699
0.76699
0.76699
0.76699
0.76699
0.76699
0.76699
0.76699
0.76699
0.76699
0.76699
0.76699
0.76699
0.76699
0.76699
0.76699
0.76699
0.76699
0.76699
0.76699
0.76699
0.76699
0.76699
0.76699
0.76699
0.76699
0.76699
0.76699
0.76699
0.76699
0.76699
0.76699
0.76699
0.76699
0.76699
0.76699
0.76699
0.76699
0.76699
0.76699
0.76699
0.76699
0.76699
0.76699
0.76699
0.76699
0.76699
0.76699
0.76699
0.76699
0.76699
0.76699
0.76699
0.76699
0.76699
0.76699
0.76699
0.76699
0.76699
0.76699
0.76699
0.76699
0.76699
0.76699
0.76699
0.76699
0.76699
0.76699
0.76699
0.76699
0.76699
0.76699
0.76699
0.76699
0.76699
0.76699
0.76699
0.76699
0.76699
0.76699
0.76699
0.76699
0.76699
0.76699
0.76699
0.76699
0.76699
0.76699
0.76699
0.76699
0.76699
0.76699
0.76699
0.76699
0.76699
0.76699
0.76699
0.76699
0.76699
0.76699
0.76699
0.76699
0.76699
0.76699
0.76699
0.76699
0.76699
0.76699
0.76699
0.76699
0.76699
0.76699
0.76699
0.76699
0.76699
0.76699
0.76699
0.76699
0.76699
0.76699
0.76699
0.76699
0.76699
0.76699
0.76699
0.76699
0.76699
0.76699
0.76699
0.76699
0.76699
0.76699
0.76699
0.76699
0.76699
0.76699
0.76699
0.76699
0.76699
0.76699
0.76699
0.76699
0.76699
0.76699
0.76699
0.76699
0.76699
0.76699
0.76699
0.76699
0.76699
0.76699
0.76699
0.76699
0.76699
0.76699
0.76699
0.76699
0.76699
0.76699
0.76699
0.76699
0.76699
0.76699
0.76699
0.76699
0.76699
0.76699
0.76699
0.76699
0.76699
0.76699
0.76699
0.76699
0.76699
0.76699
0.76699
0.76699
0.76699
0.76699
0.76699
0.76699
0.76699
0.76699
0.76699
0.76699
0.76699
0.76699
0.76699
0.76699
0.76699
0.76699
0.76699
0.76699
0.76699
0.76699
0.76699
0.76699
0.76699
0.76699
0.76699
0.76699
0.76699
0.76699
0.76699
0.76699
0.76699
0.76699
0.76699
0.76699
0.76699
0.76699
0.76699
0.76699
0.76699
0.76699
0.76699
0.76699
0.76699
0.76699
0.76699
0.76699
0.76699
0.76699
0.76699
0.76699
0.76699
0.76699
0.76699
0.76699
0.76699
0.76699
0.76699
0.76699
0.76699
0.76699
0.76699
0.76699
0.76699
0.76699
0.76699
0.76699
0.76699
0.76699
0.76699
0.76699
0.76699
0.76699
0.76699
0.76699
0.76699
0.76699
0.76699
0.76699
0.76699
0.76699
0.76699
0.76699
0.76699
0.76699
0.76699
0.76699
0.76699
0.76699
0.76699
0.76699
0.76699
0.76699
0.76699
0.76699
0.76699
0.76699
0.76699
0.76699
0.76699
0.76699
0.76699
0.76699
0.76699
0.76699
0.76699
0.76699
0.76699
0.76699
0.76699
0.76699
0.76699
0.76699
0.76699
0.76699
0.76699
0.76699
0.76699
0.76699
0.76699
0.76699
0.76699
0.76699
0.76699
0.76699
0.76699
0.76699
0.76699
0.76699
0.76699
0.76699
0.76699
0.76699
0.76699
0.76699
0.76699
0.76699
0.76699
0.76699
0.76699
0.76699
0.76699
0.76699
0.76699
0.76699
0.76699
0.76699
0.76699
0.76699
0.76699
0.76699
0.76699
0.76699
0.76699
0.76699
0.76699
0.76699
0.76699
0.76699
0.76699
0.76699
0.76699
0.76699
0.76699
0.76699
0.76699
0.76699
0.76699
0.76699
0.76699
0.76699
0.76699
0.76699
0.76699
0.76699
0.76699
0.76699
0.76699
0.76699
0.76699
0.76699
0.76699
0.76699
0.76699
0.76699
0.76699
0.76699
0.76699
0.76699
0.76699
0.76699
0.76699
0.76699
0.76699
0.76699
0.76699
0.76699
0.76699
0.76699
0.76699
0.76699
0.76699
0.76699
0.76699
0.76699
0.76699
0.76699
0.76699
0.76699
0.76699
0.76699
0.76699
0.76699
0.76699
0.76699
0.76699
0.76699
0.76699
0.76699
0.76699
0.76699
0.76699
0.76699
0.76699
0.76699
0.76699
0.76699
0.76699
0.76699
0.76699
0.76699
0.76699
0.76699
0.76699
0.76699
0.76699
0.76699
0.76699
0.76699
0.76699
0.76699
0.76699
0.76699
0.76699
0.76699
0.76699
0.76699
0.76699
0.76699
0.76699
0.76699
0.76699
0.76699
0.76699
0.76699
0.76699
0.76699
0.76699
0.76699
0.76699
0.76699
0.76699
0.76699
0.76699
0.76699
0.76699
0.76699
0.76699
0.76699
0.76699
0.76699
0.76699
0.76699
0.76699
0.76699
0.76699
0.76699
0.76699
0.76699
0.76699
0.76699
0.76699
0.76699
0.76699
0.76699
0.76699
0.76699
0.76699
0.76699
0.766989
0.766989
0.766989
0.766989
0.766989
0.766989
0.766989
0.766989
0.766988
0.766987
0.766988
0.76699
0.766989
0.766989
0.766989
0.766989
0.766989
0.766988
0.766989
0.766987
0.766988
0.766986
0.766989
0.766986
0.766989
0.766987
0.76699
0.766989
0.76699
0.76699
0.76699
0.76699
0.76699
0.76699
0.76699
0.76699
0.76699
0.76699
0.76699
0.76699
0.76699
0.76699
0.76699
0.76699
0.76699
0.76699
0.76699
0.76699
0.76699
0.76699
0.76699
0.76699
0.76699
0.76699
0.76699
0.76699
0.76699
0.766989
0.766988
0.766987
0.766987
0.766986
0.766986
0.766987
0.766986
0.766984
0.766979
0.766972
0.766967
0.766986
0.766976
0.766987
0.766983
0.766985
0.76698
0.766982
0.766972
0.766978
0.766962
0.766978
0.766958
0.76698
0.766961
0.766985
0.76697
0.766988
0.766981
0.766988
0.76699
0.766987
0.766988
0.76699
0.76699
0.76699
0.76699
0.76699
0.76699
0.76699
0.76699
0.76699
0.76699
0.76699
0.76699
0.76699
0.76699
0.76699
0.76699
0.76699
0.76699
0.76699
0.76699
0.76699
0.76699
0.76699
0.76699
0.766989
0.766988
0.766985
0.766982
0.76698
0.766979
0.766979
0.766978
0.766974
0.766961
0.766945
0.766927
0.766901
0.766917
0.766874
0.766974
0.766952
0.766969
0.766945
0.766952
0.766917
0.766929
0.766875
0.766916
0.766841
0.766917
0.766828
0.766932
0.766847
0.766957
0.76689
0.766977
0.76694
0.766974
0.766989
0.766973
0.766975
0.76699
0.766989
0.76699
0.76699
0.76699
0.76699
0.76699
0.76699
0.76699
0.76699
0.76699
0.76699
0.76699
0.76699
0.76699
0.76699
0.76699
0.76699
0.76699
0.76699
0.76699
0.76699
0.76699
0.76699
0.766988
0.766984
0.766977
0.766968
0.76696
0.766957
0.766957
0.766954
0.766934
0.766888
0.76684
0.766809
0.766779
0.766811
0.76674
0.766813
0.76675
0.766912
0.766866
0.766872
0.766816
0.766809
0.766736
0.766745
0.766644
0.766704
0.766566
0.766699
0.766525
0.766746
0.766538
0.766839
0.766626
0.766924
0.766785
0.766912
0.76698
0.766909
0.766918
0.76699
0.766985
0.76699
0.76699
0.76699
0.76699
0.76699
0.76699
0.76699
0.76699
0.76699
0.76699
0.76699
0.76699
0.76699
0.76699
0.76699
0.76699
0.76699
0.76699
0.76699
0.76699
0.76699
0.766989
0.766987
0.766978
0.766959
0.766935
0.766915
0.766906
0.766906
0.766896
0.766844
0.766736
0.766637
0.7666
0.766607
0.76665
0.766591
0.766684
0.766602
0.766632
0.766565
0.766757
0.766695
0.766662
0.766585
0.766542
0.766444
0.766426
0.766294
0.766345
0.76617
0.766314
0.766096
0.766359
0.766092
0.766502
0.766183
0.766738
0.766388
0.766708
0.766938
0.766703
0.766731
0.766989
0.766962
0.76699
0.76699
0.76699
0.76699
0.76699
0.76699
0.76699
0.76699
0.76699
0.76699
0.76699
0.76699
0.76699
0.76699
0.76699
0.76699
0.76699
0.76699
0.76699
0.76699
0.76699
0.766989
0.766984
0.766967
0.766929
0.766882
0.76685
0.766842
0.766842
0.766821
0.766733
0.766575
0.766408
0.766312
0.766318
0.766344
0.766531
0.766398
0.766495
0.766416
0.766374
0.766305
0.766512
0.766442
0.766351
0.766262
0.766172
0.766059
0.766008
0.765863
0.765892
0.765706
0.765839
0.765613
0.765875
0.765598
0.766023
0.765682
0.766301
0.765891
0.766255
0.766788
0.766259
0.76632
0.766979
0.766861
0.76699
0.766986
0.76699
0.76699
0.76699
0.76699
0.76699
0.76699
0.76699
0.76699
0.76699
0.76699
0.76699
0.76699
0.76699
0.76699
0.76699
0.76699
0.76699
0.76699
0.766988
0.76698
0.766951
0.766889
0.766819
0.766779
0.766773
0.766775
0.766741
0.766624
0.766411
0.766186
0.766038
0.765973
0.766015
0.766134
0.766007
0.766335
0.766233
0.766236
0.766163
0.766038
0.765972
0.76618
0.766106
0.765956
0.765863
0.765734
0.765621
0.765545
0.765408
0.765415
0.765247
0.765356
0.765159
0.765391
0.765146
0.76553
0.765222
0.765803
0.765416
0.765758
0.766433
0.765764
0.765825
0.766924
0.766581
0.766987
0.766946
0.76699
0.76699
0.76699
0.76699
0.76699
0.76699
0.76699
0.76699
0.76699
0.76699
0.76699
0.76699
0.76699
0.76699
0.76699
0.76699
0.76699
0.766988
0.766977
0.766934
0.766846
0.766752
0.766706
0.766702
0.766705
0.766663
0.766517
0.766277
0.766074
0.765924
0.765802
0.765717
0.765881
0.765737
0.765902
0.765794
0.766083
0.765996
0.765909
0.765846
0.765648
0.765593
0.765781
0.76571
0.765521
0.765437
0.765293
0.7652
0.765119
0.765028
0.76502
0.764935
0.76498
0.764892
0.764997
0.764875
0.765112
0.764905
0.765346
0.76504
0.765319
0.76594
0.765334
0.765385
0.765644
0.766714
0.766101
0.76693
0.766709
0.76699
0.76699
0.76699
0.76699
0.76699
0.76699
0.76699
0.76699
0.76699
0.76699
0.76699
0.76699
0.76699
0.76699
0.76699
0.76699
0.766988
0.766975
0.766921
0.766806
0.766687
0.766631
0.76663
0.766634
0.766586
0.766432
0.76623
0.766087
0.765954
0.765825
0.765674
0.765506
0.765686
0.765538
0.765638
0.765559
0.76578
0.765712
0.765544
0.7655
0.765267
0.765235
0.765366
0.76531
0.765125
0.765076
0.764968
0.764934
0.764887
0.764862
0.76485
0.764835
0.764829
0.764819
0.764814
0.764796
0.764848
0.764784
0.764998
0.764813
0.764903
0.765155
0.764994
0.765443
0.765765
0.765482
0.765195
0.765006
0.76501
0.765215
0.766479
0.76618
0.765553
0.76559
0.765865
0.766514
0.766172
0.766329
0.766092
0.76699
0.76699
0.76699
0.76699
0.76699
0.76699
0.76699
0.76699
0.76699
0.76699
0.76699
0.76699
0.76699
0.76699
0.76699
0.766988
0.766975
0.766915
0.766775
0.766626
0.766558
0.766556
0.766562
0.766511
0.766367
0.766238
0.766139
0.766062
0.76597
0.765806
0.765572
0.765345
0.765369
0.765472
0.765389
0.765373
0.765327
0.765457
0.765415
0.765212
0.765196
0.765025
0.765028
0.765045
0.765028
0.764914
0.764914
0.764854
0.764858
0.764831
0.764839
0.764829
0.764852
0.76482
0.764879
0.764781
0.764792
0.76482
0.764873
0.764776
0.764762
0.764805
0.764812
0.764772
0.76481
0.764888
0.76479
0.764762
0.764879
0.765253
0.765302
0.765033
0.764888
0.764878
0.765059
0.765873
0.765348
0.765381
0.765612
0.766764
0.766526
0.765965
0.765819
0.765752
0.76699
0.76699
0.76699
0.76699
0.76699
0.76699
0.76699
0.76699
0.76699
0.76699
0.76699
0.76699
0.76699
0.76699
0.766989
0.766977
0.766915
0.766757
0.766575
0.766486
0.766483
0.76649
0.766439
0.766328
0.766252
0.766215
0.766246
0.766327
0.766254
0.765963
0.765531
0.765242
0.765268
0.765279
0.765244
0.765159
0.765145
0.765183
0.765171
0.765032
0.765037
0.764955
0.764973
0.764922
0.764936
0.764868
0.76489
0.764856
0.764889
0.764892
0.764944
0.764964
0.76505
0.764931
0.765
0.765058
0.765124
0.764848
0.764916
0.764993
0.764753
0.764772
0.76488
0.764912
0.764827
0.764754
0.764789
0.764747
0.764748
0.764785
0.765094
0.765134
0.764905
0.764786
0.764794
0.764928
0.765593
0.765171
0.765197
0.765392
0.766969
0.76683
0.766108
0.765549
0.765709
0.76699
0.76699
0.76699
0.76699
0.76699
0.76699
0.76699
0.76699
0.76699
0.76699
0.76699
0.76699
0.76699
0.766989
0.766981
0.766921
0.766755
0.766539
0.76642
0.766409
0.766421
0.766375
0.766305
0.766268
0.766282
0.766415
0.76661
0.766608
0.766417
0.766099
0.765411
0.765714
0.765156
0.765227
0.765135
0.765136
0.765043
0.765045
0.76504
0.765041
0.764988
0.764997
0.764992
0.765015
0.764923
0.764959
0.764943
0.765006
0.765012
0.765093
0.765136
0.765221
0.765177
0.765237
0.765285
0.765339
0.765072
0.765149
0.765222
0.765291
0.764964
0.765057
0.765152
0.764777
0.764846
0.765013
0.765059
0.764944
0.764744
0.764743
0.764741
0.764782
0.764739
0.764957
0.764989
0.764805
0.764737
0.764736
0.764822
0.76538
0.765021
0.765047
0.765211
0.766988
0.766401
0.766925
0.76544
0.765833
0.76699
0.76699
0.76699
0.76699
0.76699
0.76699
0.76699
0.76699
0.76699
0.76699
0.76699
0.76699
0.76699
0.766985
0.766938
0.766766
0.766527
0.766363
0.76634
0.766352
0.766324
0.766294
0.766283
0.766341
0.766537
0.766767
0.766805
0.766687
0.766458
0.766159
0.765448
0.765753
0.765105
0.765216
0.765049
0.765062
0.764997
0.764999
0.764999
0.764998
0.765025
0.765023
0.765143
0.765146
0.765066
0.765114
0.765182
0.765262
0.765321
0.765399
0.76538
0.765422
0.76545
0.765474
0.765352
0.76541
0.765458
0.7655
0.765243
0.765327
0.765402
0.765466
0.765122
0.765232
0.765336
0.764863
0.764973
0.765184
0.765239
0.765102
0.764785
0.764737
0.764786
0.764876
0.764732
0.764843
0.76487
0.764738
0.764725
0.764716
0.764745
0.765245
0.764899
0.764932
0.765079
0.766988
0.766581
0.766942
0.765427
0.765942
0.76699
0.76699
0.76699
0.76699
0.76699
0.76699
0.76699
0.76699
0.76699
0.76699
0.76699
0.76699
0.766987
0.766956
0.766801
0.766532
0.766327
0.766281
0.766291
0.766287
0.766282
0.766298
0.7664
0.766624
0.766842
0.766902
0.766846
0.766635
0.76629
0.766017
0.766122
0.765489
0.76578
0.765087
0.765234
0.765005
0.765027
0.764988
0.764985
0.765016
0.765001
0.765136
0.765109
0.76535
0.765333
0.76532
0.765351
0.765451
0.765489
0.765499
0.765493
0.765526
0.765536
0.765531
0.765521
0.76552
0.76556
0.765583
0.765584
0.765428
0.765505
0.765566
0.765609
0.765308
0.765422
0.765518
0.764997
0.765137
0.765374
0.765428
0.765286
0.764883
0.764781
0.764885
0.765015
0.764771
0.764756
0.764774
0.764708
0.764753
0.764731
0.764702
0.76517
0.764803
0.764844
0.764987
0.766989
0.766649
0.766953
0.76543
0.765996
0.76699
0.76699
0.76699
0.76699
0.76699
0.76699
0.76699
0.76699
0.76699
0.76699
0.76699
0.766988
0.766971
0.766852
0.766561
0.766319
0.766235
0.766243
0.766258
0.766272
0.766319
0.766459
0.7667
0.766884
0.766946
0.76693
0.766796
0.766351
0.765994
0.765945
0.765956
0.765522
0.76578
0.765093
0.765268
0.764991
0.765018
0.765001
0.76499
0.76507
0.76503
0.765286
0.765217
0.765572
0.765533
0.765532
0.765568
0.765494
0.765507
0.765409
0.765354
0.765273
0.76531
0.765575
0.76555
0.765512
0.765463
0.765629
0.765628
0.76561
0.765574
0.765592
0.765644
0.765668
0.765668
0.765494
0.76559
0.765658
0.765165
0.765322
0.765551
0.765593
0.765469
0.765025
0.764878
0.765026
0.765184
0.76486
0.764699
0.764705
0.764705
0.764829
0.764786
0.764682
0.765114
0.764726
0.764769
0.764914
0.766989
0.766683
0.766957
0.765418
0.765997
0.76699
0.76699
0.76699
0.76699
0.76699
0.76699
0.76699
0.76699
0.76699
0.76699
0.766989
0.766981
0.766902
0.766633
0.766329
0.766208
0.766206
0.766231
0.766267
0.766352
0.766528
0.76677
0.766915
0.766966
0.766968
0.766915
0.766648
0.766148
0.765777
0.765826
0.765814
0.765809
0.765531
0.76573
0.765114
0.765301
0.764995
0.765024
0.765027
0.765006
0.765143
0.765076
0.765454
0.765352
0.765715
0.765727
0.765564
0.765637
0.765258
0.765257
0.765204
0.765181
0.765098
0.764982
0.765029
0.765518
0.765446
0.765362
0.765272
0.765647
0.765603
0.765535
0.765447
0.765696
0.765701
0.765687
0.76564
0.765644
0.765703
0.765724
0.765348
0.765498
0.765682
0.765706
0.765621
0.765192
0.765014
0.765188
0.765361
0.764986
0.764666
0.764658
0.764734
0.764938
0.76487
0.764681
0.765054
0.764665
0.764697
0.764839
0.766987
0.766681
0.766927
0.765369
0.765936
0.76699
0.76699
0.76699
0.76699
0.76699
0.76699
0.76699
0.76699
0.76699
0.76699
0.766986
0.766942
0.766728
0.766369
0.766203
0.766177
0.766206
0.766269
0.766393
0.766605
0.76683
0.766936
0.766975
0.766983
0.766967
0.766881
0.766616
0.766183
0.765687
0.765815
0.765651
0.765657
0.765496
0.765616
0.765141
0.765312
0.765009
0.765042
0.765079
0.765044
0.765244
0.765149
0.765657
0.765536
0.765746
0.765874
0.765351
0.765552
0.764968
0.764985
0.764698
0.76478
0.764863
0.764767
0.764649
0.764694
0.765341
0.765222
0.765098
0.764976
0.765569
0.765472
0.765354
0.765218
0.765718
0.765681
0.765614
0.765518
0.76573
0.765738
0.765715
0.765515
0.765638
0.765741
0.765745
0.76572
0.765363
0.765169
0.76535
0.76552
0.765127
0.764642
0.764621
0.764785
0.76506
0.764963
0.764698
0.76498
0.764615
0.764636
0.764765
0.766915
0.766561
0.766739
0.765263
0.76574
0.76699
0.76699
0.76699
0.76699
0.76699
0.76699
0.76699
0.76699
0.76699
0.766988
0.766967
0.766823
0.766471
0.766213
0.766159
0.766186
0.766271
0.766428
0.766671
0.766865
0.766949
0.766978
0.766986
0.766984
0.766962
0.766879
0.766729
0.766273
0.766638
0.765695
0.765956
0.765518
0.765576
0.76541
0.765479
0.765161
0.765293
0.765043
0.765072
0.765187
0.765131
0.765403
0.765281
0.765884
0.765787
0.765614
0.765927
0.764887
0.765046
0.765213
0.764637
0.764652
0.764485
0.764576
0.764539
0.764453
0.764375
0.764397
0.765073
0.764924
0.764781
0.76465
0.765395
0.765252
0.765094
0.76493
0.76566
0.765574
0.765456
0.765312
0.76574
0.765704
0.765632
0.765645
0.765724
0.765738
0.765738
0.765747
0.765512
0.765317
0.765485
0.76564
0.765258
0.764627
0.764587
0.76484
0.765169
0.76504
0.764717
0.764893
0.764573
0.764585
0.764698
0.766109
0.766146
0.765914
0.765103
0.765329
0.76699
0.76699
0.76699
0.76699
0.76699
0.76699
0.76699
0.76699
0.766989
0.766981
0.766899
0.766607
0.766255
0.766157
0.766168
0.76627
0.766464
0.766721
0.76688
0.766948
0.766977
0.766986
0.766988
0.766984
0.766966
0.766936
0.766929
0.766593
0.766839
0.76592
0.766255
0.765523
0.765674
0.765368
0.765437
0.765199
0.765289
0.765118
0.765135
0.765387
0.765309
0.765644
0.765502
0.766074
0.766085
0.765259
0.765525
0.765823
0.764686
0.764828
0.765069
0.764858
0.76438
0.764417
0.764421
0.76452
0.764275
0.764216
0.764199
0.764192
0.764769
0.764617
0.76448
0.764364
0.765148
0.764975
0.7648
0.764634
0.765526
0.765388
0.765225
0.765045
0.765691
0.765606
0.765476
0.765722
0.765746
0.765686
0.765693
0.76574
0.765617
0.765435
0.765574
0.765708
0.765356
0.764615
0.764557
0.764885
0.765238
0.765084
0.764725
0.764801
0.764535
0.76454
0.764637
0.765475
0.765372
0.765031
0.764917
0.764962
0.76699
0.76699
0.76699
0.76699
0.76699
0.76699
0.76699
0.76699
0.766986
0.766947
0.766746
0.766368
0.766168
0.766155
0.766263
0.766478
0.766743
0.766874
0.766935
0.766967
0.766982
0.766987
0.766988
0.766986
0.766982
0.766981
0.766974
0.766987
0.766839
0.766942
0.766301
0.766622
0.765745
0.765987
0.765464
0.765577
0.765308
0.765378
0.765273
0.765274
0.765703
0.765613
0.765969
0.765828
0.76617
0.766319
0.765155
0.765386
0.765519
0.765788
0.764621
0.764732
0.764983
0.76484
0.764247
0.764325
0.764432
0.764538
0.764089
0.764064
0.764121
0.764071
0.764483
0.76435
0.764237
0.764148
0.764861
0.764681
0.764515
0.764367
0.765316
0.765134
0.764942
0.764748
0.765585
0.765434
0.765248
0.765738
0.765739
0.765589
0.76561
0.765704
0.765671
0.765504
0.765606
0.765714
0.765399
0.764598
0.764526
0.764899
0.765258
0.76508
0.764717
0.764717
0.764498
0.764497
0.764585
0.766154
0.764866
0.764846
0.764767
0.764744
0.76699
0.76699
0.76699
0.76699
0.76699
0.76699
0.76699
0.766988
0.766973
0.766857
0.766533
0.766213
0.766154
0.766245
0.766473
0.766739
0.766858
0.766906
0.76694
0.766967
0.766983
0.766988
0.766989
0.766989
0.766989
0.76699
0.766988
0.766989
0.766955
0.76698
0.766713
0.76688
0.766173
0.766451
0.765772
0.765944
0.765579
0.765652
0.765563
0.765553
0.766134
0.766046
0.766347
0.766243
0.766006
0.76623
0.766413
0.765117
0.765297
0.765449
0.765671
0.764634
0.76473
0.764977
0.764875
0.76421
0.764317
0.764516
0.764646
0.763951
0.763957
0.764099
0.764009
0.764232
0.76412
0.764032
0.763974
0.764565
0.764399
0.76425
0.764118
0.765042
0.764834
0.764633
0.764447
0.765424
0.765213
0.764972
0.765723
0.765708
0.765447
0.765478
0.765629
0.765667
0.765514
0.765593
0.765688
0.76539
0.764573
0.764493
0.764875
0.76523
0.765024
0.764681
0.764642
0.764456
0.764452
0.764532
0.765526
0.764668
0.764691
0.764661
0.764627
0.76699
0.76699
0.76699
0.76699
0.76699
0.76699
0.766989
0.766984
0.766928
0.766699
0.76634
0.766167
0.766219
0.766454
0.766725
0.766835
0.766876
0.7669
0.76693
0.766967
0.766985
0.766989
0.76699
0.76699
0.76699
0.76699
0.76699
0.76699
0.766985
0.766989
0.766933
0.766972
0.766677
0.766841
0.766286
0.766474
0.766044
0.76614
0.766003
0.765998
0.766618
0.766569
0.766567
0.76662
0.765915
0.76616
0.766428
0.766221
0.765126
0.765269
0.765416
0.765586
0.764735
0.764802
0.765029
0.76497
0.764216
0.764365
0.764638
0.764799
0.763853
0.763906
0.764107
0.763992
0.764007
0.763923
0.763866
0.763845
0.764282
0.764133
0.764005
0.763901
0.764729
0.764511
0.764323
0.764162
0.765221
0.764954
0.764671
0.765681
0.76562
0.765252
0.765277
0.765489
0.765628
0.765483
0.765523
0.765631
0.765321
0.764538
0.764447
0.764819
0.765095
0.76488
0.764632
0.764576
0.76441
0.764405
0.764479
0.766445
0.764572
0.764932
0.764584
0.764552
0.76699
0.76699
0.76699
0.76699
0.76699
0.76699
0.766987
0.766965
0.766832
0.766522
0.766225
0.766212
0.766408
0.766699
0.766816
0.766849
0.766861
0.766882
0.766927
0.766971
0.766988
0.76699
0.76699
0.76699
0.76699
0.76699
0.76699
0.76699
0.76699
0.76699
0.76699
0.766984
0.766988
0.766939
0.766971
0.766787
0.766877
0.766606
0.766689
0.766546
0.766554
0.766829
0.766867
0.766594
0.766752
0.765789
0.76601
0.766311
0.766095
0.765181
0.765278
0.765419
0.765548
0.764887
0.764933
0.765124
0.7651
0.764261
0.764446
0.764767
0.764954
0.763816
0.763892
0.764147
0.763999
0.763821
0.763771
0.763759
0.763769
0.764014
0.763893
0.763797
0.76373
0.764412
0.764198
0.764031
0.763897
0.764965
0.76465
0.764345
0.765591
0.765483
0.764993
0.765032
0.765299
0.765532
0.765357
0.765354
0.765492
0.765107
0.764478
0.764391
0.764703
0.764881
0.764718
0.764533
0.764518
0.764363
0.764361
0.764427
0.766566
0.764544
0.765168
0.764524
0.764494
0.76699
0.76699
0.76699
0.76699
0.76699
0.766989
0.766981
0.766916
0.766697
0.766379
0.76623
0.766339
0.766648
0.766799
0.766829
0.766828
0.766835
0.766875
0.766932
0.766979
0.766989
0.76699
0.76699
0.76699
0.76699
0.76699
0.76699
0.76699
0.76699
0.76699
0.76699
0.76699
0.76699
0.766986
0.766989
0.766966
0.766979
0.766923
0.766946
0.766884
0.766901
0.766819
0.766909
0.766286
0.766467
0.766623
0.765702
0.765887
0.766112
0.765944
0.765267
0.765324
0.765461
0.765548
0.765055
0.765086
0.765244
0.765242
0.764333
0.764548
0.764911
0.765113
0.763805
0.763899
0.764208
0.764032
0.763694
0.763689
0.763699
0.76374
0.763782
0.763703
0.763656
0.763636
0.764098
0.763914
0.763785
0.763696
0.764657
0.764315
0.764023
0.765384
0.765174
0.76469
0.764492
0.764863
0.765277
0.765087
0.765012
0.765124
0.764858
0.764399
0.764331
0.764578
0.764718
0.764599
0.764435
0.764465
0.764302
0.764323
0.76438
0.76646
0.764582
0.765255
0.764469
0.764461
0.76699
0.76699
0.76699
0.76699
0.76699
0.766986
0.76696
0.766834
0.766566
0.766302
0.766314
0.766553
0.76677
0.766817
0.766806
0.766797
0.766824
0.766875
0.766948
0.766984
0.76699
0.76699
0.76699
0.76699
0.76699
0.76699
0.76699
0.76699
0.76699
0.76699
0.76699
0.76699
0.76699
0.76699
0.76699
0.766987
0.766989
0.766978
0.766984
0.766949
0.766968
0.766595
0.766808
0.766154
0.766323
0.766473
0.766315
0.765663
0.765794
0.766009
0.765883
0.765383
0.765406
0.765552
0.765599
0.765213
0.76524
0.765383
0.765392
0.764423
0.764668
0.765065
0.765281
0.763807
0.763924
0.764279
0.764079
0.763635
0.763645
0.763675
0.763726
0.763634
0.763601
0.76359
0.763589
0.763827
0.763702
0.763627
0.763584
0.764304
0.763955
0.763733
0.764869
0.764577
0.764109
0.764105
0.764346
0.764856
0.764799
0.764734
0.764646
0.764717
0.76433
0.764273
0.764486
0.764627
0.764538
0.764392
0.764411
0.764262
0.764274
0.764328
0.766594
0.764634
0.76539
0.764417
0.764445
0.76699
0.76699
0.76699
0.76699
0.766988
0.766979
0.766918
0.766735
0.76647
0.766336
0.766464
0.766704
0.766802
0.766796
0.766773
0.76678
0.766821
0.76689
0.766965
0.766988
0.76699
0.76699
0.76699
0.76699
0.76699
0.76699
0.76699
0.76699
0.76699
0.76699
0.76699
0.76699
0.76699
0.76699
0.76699
0.766988
0.766989
0.766978
0.766985
0.766914
0.766959
0.766396
0.766472
0.766595
0.766731
0.766086
0.766199
0.766284
0.765672
0.76577
0.765979
0.765882
0.765532
0.765534
0.765705
0.765717
0.765371
0.765392
0.765541
0.765554
0.764521
0.764798
0.765223
0.765459
0.763822
0.763955
0.764347
0.764128
0.763593
0.763616
0.763659
0.763726
0.763554
0.763541
0.763536
0.763539
0.763637
0.763565
0.763525
0.763502
0.763864
0.763699
0.763629
0.764505
0.76442
0.764007
0.764148
0.764268
0.764625
0.76467
0.764644
0.764568
0.764603
0.764286
0.764241
0.764429
0.764535
0.764441
0.7643
0.764356
0.764205
0.764221
0.76428
0.766663
0.764683
0.765412
0.764369
0.764433
0.76699
0.76699
0.76699
0.766989
0.766986
0.766961
0.766857
0.766646
0.766428
0.766433
0.766608
0.766768
0.766789
0.766763
0.766749
0.766774
0.766829
0.766915
0.76698
0.766989
0.76699
0.76699
0.76699
0.76699
0.76699
0.76699
0.76699
0.76699
0.76699
0.76699
0.76699
0.76699
0.76699
0.76699
0.76699
0.76699
0.76699
0.766987
0.766989
0.766971
0.766983
0.766876
0.766942
0.766382
0.76651
0.766594
0.766746
0.766089
0.766181
0.766296
0.765748
0.765804
0.766014
0.765957
0.765712
0.765704
0.765908
0.765907
0.765538
0.765555
0.765729
0.765738
0.764616
0.764929
0.765376
0.765643
0.763832
0.763974
0.764389
0.764158
0.76356
0.763597
0.763659
0.763729
0.763489
0.763489
0.763496
0.763523
0.763539
0.763482
0.763442
0.76344
0.763858
0.763748
0.763395
0.764501
0.763868
0.763594
0.76371
0.763779
0.764582
0.764609
0.76459
0.764001
0.764531
0.764233
0.764175
0.764345
0.764449
0.764364
0.764278
0.764299
0.764169
0.764182
0.764232
0.766909
0.764695
0.765724
0.764325
0.764424
0.76699
0.76699
0.76699
0.766988
0.766979
0.76693
0.766793
0.76659
0.766461
0.766548
0.766698
0.766773
0.76676
0.766736
0.766738
0.766775
0.766852
0.766948
0.766986
0.76699
0.76699
0.76699
0.76699
0.76699
0.76699