/*--------------------------------*- C++ -*----------------------------------*\
  =========                 |
  \\      /  F ield         | OpenFOAM: The Open Source CFD Toolbox
   \\    /   O peration     | Website:  https://openfoam.org
    \\  /    A nd           | Version:  dev
     \\/     M anipulation  |
\*---------------------------------------------------------------------------*/
FoamFile
{
    version     2.0;
    format      ascii;
    class       volScalarField;
    location    "2500";
    object      nut;
}
// * * * * * * * * * * * * * * * * * * * * * * * * * * * * * * * * * * * * * //

dimensions      [0 2 -1 0 0 0 0];

internalField   nonuniform List<scalar> 
9842
(
0.000127385
0.000131039
0.000122761
0.000121866
0.000151809
0.00011007
0.000111653
0.000161558
0.000142335
0.000105256
0.000108212
0.000158389
0.000162288
0.000122816
0.000103518
0.000105113
0.000146692
0.000176132
0.00014987
0.000112425
0.000102699
0.000103658
0.000131435
0.000177576
0.000170998
0.000128613
0.000107648
0.000102186
0.000103149
0.000122
0.000173445
0.000183445
0.000152348
0.000116119
0.000105493
0.000101702
0.000102827
0.00011448
0.000160156
0.000191549
0.000174748
0.000131745
0.000110176
0.000104549
0.000101306
0.000102137
0.000109719
0.000141231
0.000190568
0.000189021
0.000152557
0.000118712
0.000107265
0.000103727
0.000101025
0.000101408
0.000106785
0.000128967
0.000183696
0.000198376
0.000175157
0.000133466
0.000111976
0.00010592
0.000103015
0.000100826
0.000100873
0.000105488
0.000119937
0.000167046
0.000203132
0.000192262
0.000151177
0.000120942
0.000108509
0.000104996
0.000102416
0.000100678
0.00010048
0.000104792
0.000114164
0.000147378
0.000200589
0.00020234
0.000172905
0.00013306
0.000113576
0.000106814
0.000104188
0.000101949
0.000100579
0.000100193
0.000104321
0.000110508
0.000134392
0.000192064
0.000210298
0.000192211
0.000149319
0.000121686
0.000109353
0.00010578
0.000103272
0.000101687
0.000100525
0.00010006
0.000103904
0.000108187
0.000124417
0.000173634
0.000213243
0.000205952
0.000168382
0.000132248
0.000114641
0.000107263
0.000104851
0.000102495
0.000101516
0.000100482
0.000100026
0.00010332
0.00010672
0.000117753
0.000152926
0.000209791
0.000213563
0.000189387
0.000146344
0.000121895
0.000110003
0.000106117
0.0001038
0.000102031
0.000101369
0.000100442
0.000100037
0.000102764
0.000105891
0.000113314
0.000139102
0.000199973
0.000220984
0.000205591
0.00016408
0.00013113
0.000115241
0.000107522
0.000105166
0.00010285
0.000101767
0.000101216
0.000100404
0.000100067
0.000102327
0.000105326
0.000110491
0.00012865
0.000180445
0.000222491
0.000217638
0.000183623
0.000143324
0.000121911
0.000110509
0.000106238
0.000104134
0.000102203
0.000101599
0.000101081
0.000100371
0.000100082
0.000102003
0.000104912
0.000108727
0.000121365
0.000159357
0.000218316
0.000223525
0.000203222
0.0001593
0.000129493
0.000115792
0.000107729
0.000105269
0.000103106
0.00010182
0.000101468
0.000100963
0.000100346
0.000100082
0.000101769
0.000104584
0.000107587
0.000116621
0.00014405
0.000207329
0.000230506
0.000217154
0.000177186
0.000140467
0.000121162
0.00011122
0.000106243
0.000104289
0.00010231
0.0001016
0.000101345
0.000100857
0.000100328
0.000100078
0.00010159
0.000104223
0.000106808
0.000113541
0.000133846
0.000188373
0.000231098
0.000227808
0.000196353
0.000153892
0.000128318
0.000115709
0.000107995
0.000105225
0.000103247
0.000101783
0.000101466
0.000101224
0.000100772
0.000100313
0.000100078
0.00010146
0.000103865
0.000106252
0.000111446
0.000126211
0.000166922
0.000226887
0.00023276
0.000214475
0.000170619
0.000137027
0.000120794
0.000111593
0.0001062
0.000104287
0.000102358
0.000101478
0.00010136
0.0001011
0.00010071
0.000100297
0.000100077
0.00010135
0.000103532
0.000105805
0.000109951
0.000120949
0.000150254
0.000216115
0.000239595
0.000227191
0.000188192
0.000149255
0.000126421
0.000115731
0.000108334
0.000105077
0.000103292
0.000101722
0.000101308
0.000101262
0.000100975
0.00010066
0.000100276
0.000100075
0.000101263
0.000103253
0.000105458
0.000108852
0.000117252
0.000140053
0.000197922
0.000240264
0.000237004
0.000206523
0.00016341
0.000134498
0.000119792
0.00011177
0.000106164
0.000104165
0.000102388
0.00010132
0.000101215
0.000101147
0.000100862
0.000100613
0.000100244
0.000100083
0.000101224
0.000103034
0.000105195
0.000108001
0.000114696
0.000131638
0.000176256
0.000236382
0.000241697
0.000223834
0.000180135
0.000144193
0.000125196
0.000115221
0.000108563
0.000104897
0.000103271
0.000101687
0.000101102
0.000101147
0.000101013
0.000100769
0.000100564
0.000100206
0.000100101
0.000101195
0.000102829
0.000104912
0.000107343
0.000112893
0.000125743
0.000157717
0.000226188
0.000248352
0.000236073
0.000197437
0.00015714
0.000131446
0.000119093
0.000111663
0.00010617
0.000103991
0.000102418
0.000101207
0.000101006
0.000101072
0.000100877
0.000100684
0.000100497
0.000100164
0.000100125
0.000101138
0.000102634
0.000104587
0.000106833
0.000111612
0.000121637
0.000146814
0.000208466
0.000249508
0.000245796
0.000214644
0.000171776
0.000140284
0.000123431
0.000114727
0.00010871
0.000104746
0.000103203
0.000101717
0.000100928
0.000100968
0.000100977
0.00010074
0.000100593
0.000100417
0.000100117
0.00010015
0.000101061
0.000102439
0.000104256
0.000106413
0.000110484
0.000118673
0.000138161
0.000187404
0.000246115
0.000250596
0.000231852
0.000188015
0.000150857
0.000129296
0.000118098
0.000111381
0.00010631
0.00010382
0.000102458
0.0001012
0.000100816
0.000100948
0.000100864
0.000100608
0.000100489
0.000100321
0.000100067
0.000100174
0.000100978
0.000102262
0.00010396
0.000106051
0.000109506
0.000116542
0.000131691
0.000168131
0.000237196
0.000256232
0.000244352
0.000205223
0.000164035
0.00013627
0.000122185
0.000114212
0.00010864
0.000104678
0.000103115
0.000101825
0.000100886
0.000100803
0.000100934
0.000100738
0.00010048
0.000100371
0.000100208
0.000100017
0.000100188
0.000100908
0.000102154
0.000103719
0.00010574
0.000108724
0.000114957
0.00012724
0.000154941
0.000220511
0.000258926
0.000253485
0.000221517
0.000179001
0.000145649
0.000126964
0.000117267
0.000111176
0.000106456
0.000103704
0.000102508
0.000101361
0.000100787
0.000100852
0.000100911
0.000100609
0.000100346
0.000100234
0.000100077
9.99602e-05
0.000100192
0.000100862
0.000102079
0.000103454
0.000105437
0.000108106
0.000113572
0.000124023
0.00014687
0.000201957
0.000255913
0.000259365
0.000238134
0.000194607
0.000156928
0.000133247
0.000120877
0.000113687
0.000108667
0.000104785
0.000103049
0.000102027
0.000101126
0.00010079
0.00010096
0.000100883
0.000100484
0.000100205
0.000100097
9.99697e-05
9.99185e-05
0.000100189
0.000100828
0.000102
0.000103195
0.000105096
0.000107528
0.000112413
0.000121889
0.000140281
0.00018266
0.000249303
0.000263004
0.000251934
0.000211592
0.000170002
0.000140967
0.000125247
0.000116592
0.00011098
0.000106672
0.000103716
0.000102606
0.00010174
0.000101101
0.000100933
0.000101071
0.000100863
0.000100397
0.000100085
9.9987e-05
9.99354e-05
9.99294e-05
0.000100186
0.000100791
0.000101894
0.000102974
0.000104733
0.000106995
0.000111406
0.000120085
0.000135497
0.000167545
0.000236001
0.000268262
0.000260072
0.000226706
0.000185142
0.000150605
0.000130582
0.000119947
0.000113423
0.000108773
0.000105105
0.000103111
0.000102355
0.000101745
0.000101225
0.000101168
0.000101147
0.000100799
0.000100261
9.99452e-05
9.9982e-05
0.000100092
0.000100005
0.000100181
0.000100743
0.000101758
0.000102782
0.00010441
0.000106576
0.000110552
0.000118389
0.000132198
0.00015815
0.000220071
0.000266676
0.000267508
0.000242659
0.000200044
0.000162503
0.00013726
0.000123902
0.000116224
0.000111024
0.000107031
0.000104007
0.000102817
0.00010239
0.000101911
0.000101621
0.000101507
0.000101259
0.000100812
0.000100222
9.9812e-05
0.000100021
0.000100388
0.000100081
0.000100315
0.000100168
0.000100676
0.000101605
0.000102604
0.00010413
0.000106237
0.00010985
0.000116859
0.000129905
0.000151938
0.000202944
0.000262481
0.000270387
0.000256921
0.000216173
0.00017538
0.000145724
0.000128781
0.000119408
0.000113483
0.000109153
0.000105751
0.000103428
0.000102844
0.000102596
0.000102423
0.000102344
0.000102234
0.000101838
0.00010135
0.000100776
0.000100238
0.000100607
0.000100704
0.000101139
0.000100183
0.000100589
0.000100151
0.000100588
0.000101436
0.00010245
0.000103864
0.000105959
0.000109282
0.000115667
0.000127995
0.000146886
0.000186653
0.000254735
0.00027521
0.00026685
0.000231581
0.000190236
0.000155679
0.000134713
0.000123339
0.000116247
0.000111522
0.000107799
0.000104782
0.000103364
0.000103039
0.00010311
0.000103278
0.000103287
0.000103011
0.000102587
0.000102114
0.000101636
0.000100675
0.000101217
0.000101559
0.00010126
0.000102005
0.000101144
0.000101741
0.000100255
0.000100972
0.000100127
0.000100492
0.000101256
0.000102313
0.000103593
0.000105685
0.000108811
0.000114753
0.000126281
0.000143651
0.000174655
0.00024178
0.000279812
0.000273948
0.000246014
0.000205189
0.000167951
0.000142176
0.000127878
0.000119687
0.000114087
0.000110072
0.000106854
0.000104517
0.000103507
0.000103525
0.000103923
0.00010428
0.000104432
9.85517e-05
9.26025e-05
8.89365e-05
9.81578e-05
8.63725e-05
0.000100248
9.85502e-05
8.80967e-05
8.77311e-05
9.99669e-05
9.07323e-05
8.86159e-05
8.49191e-05
0.000100084
0.00010039
0.000101063
0.000102176
0.000103293
0.000105392
0.000108357
0.000113993
0.000124772
0.000141434
0.000167194
0.00022763
0.000277665
0.000280508
0.000260279
0.000220189
0.000181287
0.000151448
0.000133775
0.000123678
0.000117149
0.000112637
0.000109405
0.000106712
0.000104567
0.000103998
0.000104409
0.000105065
0.000100947
8.71373e-05
7.87374e-05
7.5187e-05
7.72692e-05
7.00907e-05
8.47706e-05
7.66588e-05
8.01794e-05
8.18325e-05
7.80591e-05
7.35143e-05
8.09463e-05
7.48148e-05
7.19241e-05
6.95829e-05
0.000100026
0.000100249
0.000100862
0.000102032
0.000102959
0.000105097
0.000107906
0.000113322
0.000123507
0.000139722
0.000162551
0.000213243
0.000273345
0.000284333
0.000272734
0.000235748
0.000195705
0.000162419
0.000140998
0.000128718
0.000120961
0.000115897
0.000112326
0.000109362
0.000106792
0.00010504
0.000105041
0.000105742
9.51278e-05
8.06447e-05
7.03971e-05
6.48602e-05
6.48122e-05
6.0032e-05
6.69006e-05
6.27183e-05
7.19429e-05
6.57278e-05
6.98304e-05
6.83145e-05
6.64471e-05
6.26188e-05
6.68173e-05
6.26785e-05
5.99636e-05
5.85265e-05
9.99653e-05
0.000100073
0.000100664
0.000101889
0.000102628
0.000104804
0.000107512
0.000112717
0.00012248
0.000138241
0.000159529
0.000200033
0.000267557
0.000290109
0.000282099
0.000249883
0.000211226
0.000175189
0.000149902
0.000134929
0.000126094
0.000120292
0.000115833
0.000112468
0.000109704
0.000107296
0.000106299
0.000106817
9.18424e-05
7.46042e-05
6.39186e-05
5.64504e-05
5.69296e-05
5.29279e-05
5.61276e-05
5.39427e-05
5.92837e-05
5.50752e-05
6.29939e-05
5.72812e-05
6.03345e-05
5.79207e-05
5.72742e-05
5.36901e-05
5.65038e-05
5.34549e-05
5.11011e-05
5.02228e-05
9.9897e-05
9.99117e-05
0.000100485
0.00010174
0.000102278
0.000104484
0.000107154
0.000112182
0.000121649
0.000136963
0.000157523
0.000190121
0.000257854
0.000295869
0.000290133
0.000263846
0.000226189
0.00018966
0.000160801
0.000142829
0.000132847
0.00012588
0.000120632
0.000116443
0.000113035
0.000110713
0.000108991
0.000108948
9.03702e-05
6.99014e-05
6.01935e-05
5.22125e-05
4.94141e-05
4.68782e-05
4.9067e-05
4.7592e-05
5.045e-05
4.79134e-05
5.24379e-05
4.86567e-05
5.49246e-05
5.04266e-05
5.25803e-05
4.98195e-05
4.97003e-05
4.65986e-05
4.86736e-05
4.62995e-05
4.42783e-05
4.39106e-05
9.98323e-05
9.97803e-05
0.000100339
0.000101573
0.000101912
0.000104134
0.000106801
0.000111722
0.000120931
0.00013584
0.000156063
0.00018402
0.000246384
0.00029689
0.000297512
0.000278108
0.000241607
0.000204871
0.000173579
0.000153093
0.000141579
0.000133173
0.000126881
0.000122288
0.000119226
0.000116414
0.000114266
0.000112274
9.13642e-05
6.83373e-05
5.40987e-05
4.75755e-05
4.51457e-05
4.32371e-05
4.39816e-05
4.33033e-05
4.44392e-05
4.29684e-05
4.53372e-05
4.30403e-05
4.64266e-05
4.317e-05
4.82575e-05
4.46869e-05
4.59654e-05
4.34242e-05
4.34643e-05
4.09819e-05
4.26846e-05
4.06278e-05
3.93878e-05
3.91951e-05
9.97819e-05
9.96937e-05
0.00010023
0.000101403
0.000101571
0.000103764
0.000106467
0.00011133
0.000120264
0.00013481
0.000154788
0.000180381
0.000234794
0.000293808
0.000304345
0.000291105
0.000257379
0.000221074
0.000188205
0.000165704
0.000152676
0.000142848
0.000135747
0.000130658
0.000127468
0.000123575
0.000119803
0.000116554
9.50608e-05
6.6911e-05
5.1182e-05
4.40613e-05
4.18723e-05
4.11409e-05
4.03424e-05
3.93782e-05
4.04722e-05
3.87774e-05
4.08703e-05
3.8754e-05
4.09556e-05
3.89321e-05
4.12647e-05
3.8854e-05
4.26594e-05
3.94771e-05
4.04833e-05
3.83661e-05
3.83108e-05
3.62842e-05
3.80238e-05
3.61207e-05
3.60373e-05
3.57166e-05
9.97892e-05
9.97183e-05
0.000100213
0.000101291
0.000101321
0.000103442
0.000106177
0.000110937
0.000119682
0.000133872
0.000153596
0.000178212
0.000224089
0.000290404
0.000312758
0.000302818
0.000272113
0.00023804
0.000204547
0.000181557
0.000166523
0.000156146
0.000148162
0.000142644
0.000135874
0.000130793
0.000126085
0.000122059
0.00011527
8.18755e-05
6.24833e-05
5.06243e-05
3.90357e-05
4.214e-05
3.84355e-05
3.94445e-05
3.71672e-05
3.82401e-05
3.67524e-05
3.78488e-05
3.69974e-05
3.71964e-05
3.69849e-05
3.65109e-05
3.72141e-05
3.55719e-05
3.77403e-05
3.5658e-05
3.59686e-05
3.41398e-05
3.41987e-05
3.23404e-05
3.4399e-05
3.2457e-05
3.41763e-05
3.35538e-05
9.99604e-05
0.000100031
0.000100389
0.000101311
0.000101233
0.000103239
0.000105952
0.000110506
0.000119081
0.000133013
0.00015256
0.00017668
0.000215089
0.000286476
0.000321472
0.000313726
0.000287001
0.000254515
0.000222766
0.000200657
0.000184002
0.000173223
0.000164676
0.00015491
0.000147305
0.00014011
0.000134052
0.000127903
0.000120582
0.00011266
0.000107648
0.000105678
5.16705e-05
4.9725e-05
4.3934e-05
5.4955e-05
4.33965e-05
5.63477e-05
4.39919e-05
6.20214e-05
4.40277e-05
6.86009e-05
4.15579e-05
6.32621e-05
3.7841e-05
5.26642e-05
3.50757e-05
4.20103e-05
3.41961e-05
3.50002e-05
3.27719e-05
3.04364e-05
3.1326e-05
2.95451e-05
3.15705e-05
2.90458e-05
3.41242e-05
3.26362e-05
0.000100921
0.000101104
0.000101027
0.000101561
0.000101326
0.000103217
0.000105852
0.000110142
0.000118456
0.000132256
0.000151657
0.00017538
0.000208654
0.000279066
0.000326957
0.000324204
0.000302916
0.000271564
0.000242783
0.000220981
0.000204613
0.000193076
0.000181566
0.00016982
0.000159797
0.000150591
0.000142587
0.000133362
0.00012298
0.000118327
0.000119544
0.000116708
0.000108141
9.16178e-05
9.89428e-05
8.4176e-05
8.12025e-05
7.85499e-05
8.01985e-05
8.16873e-05
8.78641e-05
8.69897e-05
9.74897e-05
8.96244e-05
9.97975e-05
7.26717e-05
9.77123e-05
4.85523e-05
9.22355e-05
3.50979e-05
5.62029e-05
3.48591e-05
2.78654e-05
3.37089e-05
3.07262e-05
2.89011e-05
2.67796e-05
3.75036e-05
3.23723e-05
0.000101985
0.000103735
0.000102864
0.000102309
0.000101669
0.000103384
0.000105892
0.000109958
0.000118105
0.000131516
0.0001508
0.000174183
0.000204447
0.000268149
0.000328281
0.000335451
0.00031862
0.000289034
0.000263216
0.000242123
0.000226851
0.000213347
0.000197919
0.000186126
0.000175396
0.000165804
0.000158277
0.000153109
0.000156003
0.000165146
0.000170535
0.000183392
0.000210711
0.000188587
0.000250449
9.18315e-05
0.000131754
9.4606e-05
0.000134708
0.000113141
0.000163129
0.000130761
0.00019051
0.000130676
0.000196337
0.000121637
0.000183645
0.000110434
0.000155566
9.80224e-05
0.000123324
6.23612e-05
0.000102881
6.50575e-05
2.71728e-05
6.27641e-05
5.38769e-05
2.67505e-05
2.47848e-05
5.29892e-05
3.27399e-05
0.000105306
0.000110943
0.000108629
0.000104487
0.000102756
0.000103799
0.000106014
0.000109924
0.00011816
0.000130866
0.00014985
0.00017291
0.000201599
0.000256716
0.000327025
0.000347881
0.000334013
0.000305836
0.0002828
0.000263344
0.000248588
0.000232165
0.000223554
0.00021513
0.000209512
0.000204723
0.000202614
0.000215544
0.000257706
0.000334327
0.00038675
0.000388882
0.000392372
0.000328614
0.000410881
0.000332294
0.000399112
0.000191015
0.000262671
0.000225516
0.000296569
0.000259952
0.000329493
0.000273808
0.000348621
0.000266508
0.000348533
0.000243219
0.000330985
0.00019745
0.000296843
0.000136953
0.000238515
0.000105622
0.000150423
0.000105502
4.17726e-05
0.000103291
9.78265e-05
2.51704e-05
2.81047e-05
6.13369e-05
2.93197e-05
0.000113346
0.000126425
0.000122879
0.00011182
0.000105733
0.000104672
0.000106448
0.00010992
0.000118328
0.000130568
0.000148826
0.000171417
0.000199385
0.000246424
0.000324187
0.000359663
0.000349273
0.000322758
0.000300817
0.000283465
0.00026859
0.00025679
0.000265757
0.000287105
0.000317082
0.000342338
0.00036366
0.000405279
0.000517152
0.000615177
0.000603834
0.000574755
0.000538022
0.000467797
0.000532035
0.00045936
0.000513863
0.000484315
0.000532643
0.000365132
0.000427823
0.000397629
0.000461332
0.000417588
0.000478321
0.000419688
0.000476307
0.00040572
0.000462888
0.000380014
0.000441757
0.000338376
0.000413057
0.000270323
0.000367084
0.000161901
0.000290982
0.000165188
8.7955e-05
0.00015874
0.000147247
2.12444e-05
7.26715e-05
1.80568e-05
1.68475e-05
0.000114337
0.000140319
0.000145112
0.000130783
0.000113331
0.000107224
0.000107251
0.000110216
0.000118408
0.000130613
0.000147888
0.000169862
0.000197279
0.000237301
0.000319391
0.000367933
0.000363578
0.000340514
0.000317947
0.00030226
0.000288842
0.000291416
0.000334263
0.000415663
0.000493562
0.000549648
0.000581262
0.000644553
0.000731304
0.000740056
0.000729583
0.000658664
0.000595192
0.000584459
0.000549278
0.000589142
0.000570633
0.00059844
0.000595408
0.000619521
0.000515959
0.000561233
0.000526443
0.00056565
0.0005178
0.000549509
0.000503362
0.000532268
0.000484993
0.000512729
0.00046317
0.000495288
0.000433783
0.0004753
0.000385831
0.000446804
0.000303319
0.000398227
0.000306256
0.00012986
0.000297871
0.000276628
4.03424e-05
0.000106641
7.91499e-06
2.72621e-05
0.000124448
0.000155771
0.000155991
0.000132457
0.000114788
0.000109699
0.000110808
0.000118341
0.000130651
0.000147191
0.000168442
0.000195039
0.00023014
0.000307569
0.000371263
0.000377891
0.000358196
0.000334447
0.000318996
0.000310944
0.000339498
0.000430311
0.000560144
0.000670024
0.000732653
0.000775985
0.000823293
0.000838069
0.000837334
0.000755495
0.000673714
0.000619375
0.000598056
0.000626164
0.000614227
0.000614656
0.000626922
0.000633947
0.000644487
0.00063084
0.000639559
0.00059605
0.000617021
0.000573617
0.000591602
0.000552278
0.000565348
0.000530484
0.000541611
0.000513434
0.000524146
0.000498161
0.000511444
0.000481211
0.000498091
0.000455934
0.00048376
0.000404859
0.000460762
0.000405729
0.000244282
0.000401878
0.000393343
8.62305e-05
0.000210918
1.47124e-05
0.00010743
0.000125435
0.000162884
0.000159047
0.000132239
0.000115322
0.000112302
0.000118396
0.000130569
0.000146687
0.000167231
0.000192707
0.000224695
0.000292733
0.000369997
0.000392099
0.000375574
0.000349923
0.000333704
0.000332014
0.000388786
0.000528493
0.000700079
0.000830484
0.000896623
0.000922532
0.000913933
0.000915161
0.000847079
0.000763971
0.000700178
0.000647465
0.000615692
0.000604586
0.000605138
0.000627575
0.000614038
0.000648613
0.000641129
0.000645662
0.000645257
0.000619327
0.000623381
0.000605596
0.000613429
0.000574723
0.000581874
0.000548495
0.000554568
0.000531343
0.000538346
0.000517236
0.000525283
0.000505381
0.00051347
0.000494818
0.000499468
0.000485794
0.000490594
0.000463741
0.000485621
0.000465252
0.000380366
0.000465931
0.000463076
0.000432274
0.000200392
0.000366834
0.000147267
0.000297084
0.000124757
0.000166275
0.000158965
0.00012901
0.000116493
0.000118692
0.000130473
0.000146373
0.000166134
0.000190267
0.000220461
0.000279039
0.000366604
0.000404082
0.000392633
0.00036506
0.000347477
0.000349218
0.000428884
0.000610151
0.000826256
0.000965239
0.00101154
0.000994009
0.000983164
0.000924725
0.000848991
0.000755337
0.000722814
0.000711423
0.000708422
0.000668522
0.000613132
0.000626325
0.000613444
0.000607134
0.000638226
0.000626628
0.000622004
0.000618106
0.000594156
0.000596424
0.000587542
0.000591024
0.000561299
0.000568422
0.000544803
0.000556293
0.000535693
0.000550308
0.000524281
0.00054271
0.00050807
0.000526871
0.000490839
0.000501336
0.000482939
0.000478927
0.000484071
0.000473861
0.000481076
0.000478353
0.000479775
0.000459002
0.000425998
0.000461103
0.000478864
0.000480779
0.000478349
0.000479129
0.000305029
0.000310804
0.000457659
0.000460055
0.000388108
0.000419885
0.00032353
0.00031258
0.000310055
0.000126143
0.000170843
0.000154263
0.000124348
0.000119999
0.00013035
0.000146013
0.000164983
0.000187815
0.000216613
0.000265635
0.000359271
0.000411016
0.000407435
0.000381011
0.000359129
0.000359809
0.000455372
0.000668943
0.000928646
0.00105757
0.00106934
0.0010545
0.000992783
0.00092401
0.00082895
0.000757739
0.000724352
0.00072595
0.000769397
0.000804145
0.000663997
0.000763606
0.000612835
0.000625436
0.00059369
0.00060006
0.000611504
0.000600637
0.000596039
0.000595694
0.000595394
0.000599688
0.000578469
0.000588226
0.000571073
0.000588667
0.000569435
0.000593082
0.000567031
0.000597108
0.000554625
0.000597204
0.000531443
0.000576508
0.000487603
0.000498845
0.000516072
0.000541199
0.000469491
0.000467336
0.000498034
0.00049023
0.000473987
0.000469638
0.000475952
0.000465129
0.000462911
0.000473619
0.000480789
0.00048112
0.000483214
0.000475799
0.000474094
0.000486096
0.000371332
0.000481728
0.00048226
0.000463015
0.000376647
0.000368237
0.000345276
0.000309029
0.000322842
0.000136442
0.000173509
0.000140215
0.000124892
0.000129108
0.000145691
0.000163668
0.000185148
0.000212987
0.000253824
0.000342533
0.000411494
0.00042042
0.00039701
0.000369981
0.000366668
0.000465593
0.000707145
0.00100507
0.00111046
0.00111773
0.0010665
0.000991012
0.0008953
0.000815839
0.000761315
0.000729559
0.000712787
0.000738088
0.000794793
0.000829553
0.000698327
0.000788318
0.000608721
0.000634803
0.00058806
0.000599968
0.000593045
0.000586667
0.000605331
0.000610514
0.000640247
0.000652659
0.000608828
0.000627658
0.000619703
0.000649929
0.000631222
0.000666107
0.000637602
0.000671292
0.000624754
0.000628725
0.000565097
0.000573459
0.000588951
0.000536846
0.000517239
0.000541746
0.000559406
0.000460889
0.000467136
0.000512556
0.000505617
0.000482709
0.000456829
0.000462865
0.000451746
0.000453559
0.000461217
0.000488651
0.000490159
0.000478577
0.000460951
0.000462341
0.000482298
0.000460638
0.000490323
0.000488799
0.000481119
6.86022e-05
0.000208157
0.000381745
0.000420092
0.000359441
0.000158516
0.00016781
0.000132198
0.000130151
0.000144732
0.000162304
0.000182305
0.000209041
0.000244484
0.000324605
0.000408466
0.000432132
0.00041292
0.000380175
0.000371726
0.000464588
0.000717007
0.0010442
0.00114452
0.00113716
0.00106266
0.000962284
0.000871372
0.000818261
0.000776815
0.000735862
0.0006624
0.000574724
0.000601119
0.000734613
0.000813667
0.000811246
0.000719699
0.000789135
0.00061538
0.000649107
0.000604028
0.00061564
0.000610436
0.000606235
0.000665053
0.000669514
0.000722346
0.000736976
0.000677406
0.000702099
0.000697288
0.000722039
0.000692418
0.000710536
0.000623042
0.000628292
0.000557257
0.000516548
0.000544624
0.000519647
0.00054146
0.000526351
0.000503944
0.000499467
0.000524545
0.000512071
0.000490993
0.000459162
0.000474498
0.000493724
0.000460128
0.00048107
0.000445991
0.000447354
0.000438733
0.000450138
0.000444275
0.000485779
0.000487787
0.000465544
0.000442848
0.000443585
0.000469838
0.000476359
0.000487414
0.000485884
0.000485505
9.98502e-06
0.000323649
9.77079e-05
0.000465953
0.000380816
0.000181116
0.00014874
0.000133186
0.000143449
0.000160756
0.000179128
0.000205222
0.000236628
0.000307112
0.000402638
0.000440226
0.000428129
0.000390747
0.000370112
0.000447208
0.000706569
0.00105576
0.00116025
0.00114154
0.00103882
0.000919724
0.000861032
0.0008298
0.000796587
0.000750411
0.000579907
0.000375187
0.000357306
0.000446502
0.000605173
0.00078179
0.000749624
0.000724305
0.000769873
0.000633568
0.000664492
0.000638173
0.000634285
0.000664207
0.000651915
0.000738778
0.000730407
0.000769756
0.000775159
0.000742987
0.000758416
0.000727784
0.000740238
0.000659928
0.000689042
0.000550609
0.000541577
0.000564895
0.000549654
0.000488841
0.000492985
0.000492651
0.000506121
0.000472851
0.000461708
0.000453585
0.000451671
0.000469558
0.000449479
0.000433406
0.000464583
0.00045345
0.00043361
0.000405824
0.000428434
0.000440426
0.0004323
0.000430697
0.000453322
0.000427073
0.000474121
0.000476879
0.000446401
0.000423664
0.00042259
0.000450831
0.000480835
0.000477998
0.000480706
0.000486978
9.92359e-06
0.000238796
7.77881e-05
0.000469434
0.000324423
0.000178043
0.000141086
0.000141613
0.000159412
0.000176213
0.000201109
0.000230494
0.000289758
0.000386901
0.000441829
0.00043982
0.00040358
0.00037067
0.000420046
0.000658653
0.00105019
0.0011651
0.00113935
0.000996557
0.000888825
0.000856105
0.000839351
0.000833509
0.000761713
0.000507201
0.00028224
0.000228494
0.000282606
0.000381909
0.000579312
0.000469816
0.000735609
0.000690503
0.000712608
0.000733323
0.000648482
0.000671609
0.000663623
0.000646857
0.000712756
0.000688537
0.000772583
0.000760285
0.000772714
0.000779479
0.000750261
0.000761593
0.000680046
0.000664975
0.000589435
0.000569274
0.000517138
0.000536192
0.000554446
0.000568872
0.000452949
0.000462767
0.000474587
0.000493488
0.00042384
0.000420517
0.000422291
0.000429793
0.000414061
0.000403043
0.000396176
0.000431061
0.000404889
0.000388471
0.000369812
0.000384068
0.000441041
0.000421491
0.000428527
0.000416547
0.000413192
0.000456091
0.000460992
0.000424034
0.000406535
0.000402326
0.00042777
0.000488483
0.000466199
0.000475522
0.00049004
3.44232e-06
0.000212392
7.26939e-05
0.000405024
0.000289558
0.000166869
0.000144566
0.000157343
0.000173787
0.00019731
0.000225214
0.000274397
0.000367373
0.000439577
0.00044833
0.000419544
0.000375382
0.000395925
0.000586213
0.00101771
0.00116474
0.00112275
0.00095671
0.000865251
0.000846393
0.000842822
0.000850511
0.000754632
0.000446002
0.000240981
0.000171648
0.000197558
0.000278061
0.000391317
0.000527927
0.000457298
0.000680091
0.000617312
0.000682078
0.000692162
0.000647742
0.000663434
0.000673166
0.000648205
0.000737698
0.000706579
0.000778603
0.000767611
0.000703669
0.000724631
0.000664642
0.000679315
0.000553237
0.000540325
0.000506967
0.000500131
0.000485191
0.00049225
0.000510592
0.000526765
0.000518954
0.000513047
0.000443631
0.00046189
0.000483959
0.000496363
0.000396099
0.000404062
0.000417942
0.000437409
0.000379415
0.000376798
0.000381441
0.000388131
0.000366685
0.000363907
0.000353849
0.000356759
0.000404599
0.000416251
0.000398672
0.000378451
0.000404421
0.000433365
0.000441503
0.000401246
0.000393687
0.000384946
0.000402951
0.000466914
0.000452423
0.000437458
0.000463916
2.18245e-06
0.000189211
6.0663e-05
0.000334748
0.000257864
0.000161161
0.000157205
0.00017123
0.000193801
0.000221003
0.000261436
0.000347955
0.000434138
0.000454979
0.000434006
0.000383816
0.000376713
0.000517129
0.0009232
0.00115266
0.00111168
0.000922007
0.000843094
0.000834666
0.000844792
0.000849081
0.000719569
0.000382369
0.000227853
0.000153325
0.000155727
0.000216907
0.000350663
0.000448471
0.000430187
0.00050031
0.000461167
0.00061448
0.000560088
0.000648141
0.000642275
0.000638397
0.000642243
0.000677754
0.000648309
0.000745222
0.000713043
0.000741053
0.000746279
0.000567652
0.000618937
0.000535359
0.000542442
0.000477547
0.000471409
0.000448757
0.000457845
0.000451675
0.000444276
0.000448311
0.00048719
0.000478865
0.000471729
0.000464585
0.000460874
0.000474437
0.000462585
0.000452438
0.000394399
0.000414747
0.000439191
0.000458933
0.000364669
0.000374299
0.000391849
0.000357204
0.000348542
0.000359834
0.000358127
0.000349267
0.000372745
0.000398741
0.000371716
0.0003523
0.000399595
0.000408706
0.000418813
0.000379463
0.000385982
0.000372227
0.000378993
0.00035953
0.000408439
0.000378195
0.00037422
1.36419e-05
0.000161403
0.000100315
0.00029238
0.000220818
0.000164026
0.00017077
0.000190594
0.00021768
0.000251578
0.000328738
0.000420052
0.000456914
0.000445313
0.000393412
0.000363535
0.000454861
0.00077962
0.0011199
0.00111195
0.000896798
0.000818391
0.000816185
0.000841092
0.000838933
0.000652782
0.000354324
0.000227499
0.000159592
0.000142051
0.000174899
0.00025937
0.000390615
0.000487516
0.000480527
0.000507611
0.00049704
0.00057209
0.000537424
0.000616279
0.000599695
0.000630619
0.000623502
0.000686009
0.000657683
0.00073756
0.000715713
0.000667311
0.000700686
0.000480826
0.000506638
0.000449677
0.000463787
0.000440012
0.000436568
0.000419413
0.000417047
0.000428336
0.000428394
0.000427091
0.000427892
0.000443589
0.000436099
0.000431566
0.000429261
0.000445278
0.000431598
0.000421289
0.00041278
0.000415638
0.000441125
0.000434685
0.000418173
0.000372376
0.000392416
0.000415446
0.000346219
0.000348467
0.000374291
0.000377851
0.000360273
0.000351932
0.000375941
0.000356147
0.000346313
0.000379001
0.000383702
0.00038475
0.000360813
0.00037577
0.000360412
0.000356129
0.000312493
0.00036892
0.00035034
0.000335399
7.27219e-05
0.000183054
0.000207165
0.000266702
0.000220158
0.000172526
0.000189299
0.000214664
0.000244666
0.000310882
0.000402504
0.000455779
0.000453232
0.00040823
0.000359481
0.000405794
0.000641155
0.00105473
0.00111159
0.000895557
0.000792852
0.000794046
0.000818946
0.000803531
0.000594718
0.000376302
0.000244307
0.000171021
0.000150147
0.000150302
0.000195689
0.000269998
0.000417028
0.000316022
0.000531393
0.000496847
0.000551667
0.000547304
0.000573811
0.000557954
0.000611954
0.000595897
0.000637442
0.00062471
0.000705251
0.000686025
0.000717755
0.000718645
0.000568728
0.000627303
0.000417951
0.000435162
0.000414643
0.000414115
0.000407784
0.000425002
0.000422039
0.000413847
0.00041164
0.000411619
0.000414582
0.000416958
0.000415888
0.000408215
0.000406739
0.000407254
0.000409121
0.000404307
0.000393779
0.000387272
0.000384334
0.000429899
0.000411667
0.000393728
0.000379761
0.000393778
0.000411719
0.000410628
0.000350894
0.000364208
0.000394644
0.000393547
0.000381766
0.000349889
0.000362074
0.000356267
0.000355269
0.000362702
0.00035899
0.000356978
0.00034356
0.000358305
0.000345923
0.000334402
0.00029731