/*--------------------------------*- C++ -*----------------------------------*\
  =========                 |
  \\      /  F ield         | OpenFOAM: The Open Source CFD Toolbox
   \\    /   O peration     | Website:  https://openfoam.org
    \\  /    A nd           | Version:  dev
     \\/     M anipulation  |
\*---------------------------------------------------------------------------*/
FoamFile
{
    version     2.0;
    format      ascii;
    class       volScalarField;
    location    "2500";
    object      O2;
}
// * * * * * * * * * * * * * * * * * * * * * * * * * * * * * * * * * * * * * //

dimensions      [0 0 0 0 0 0 0];

internalField   nonuniform List<scalar> 
9842
(
0.23301
0.23301
0.23301
0.23301
0.23301
0.23301
0.23301
0.23301
0.23301
0.23301
0.23301
0.23301
0.23301
0.23301
0.23301
0.23301
0.23301
0.23301
0.23301
0.23301
0.23301
0.23301
0.23301
0.23301
0.23301
0.23301
0.23301
0.23301
0.23301
0.23301
0.23301
0.23301
0.23301
0.23301
0.23301
0.23301
0.23301
0.23301
0.23301
0.23301
0.23301
0.23301
0.23301
0.23301
0.23301
0.23301
0.23301
0.23301
0.23301
0.23301
0.23301
0.23301
0.23301
0.23301
0.23301
0.23301
0.23301
0.23301
0.23301
0.23301
0.23301
0.23301
0.23301
0.23301
0.23301
0.23301
0.23301
0.23301
0.23301
0.23301
0.23301
0.23301
0.23301
0.23301
0.23301
0.23301
0.23301
0.23301
0.23301
0.23301
0.23301
0.23301
0.23301
0.23301
0.23301
0.23301
0.23301
0.23301
0.23301
0.23301
0.23301
0.23301
0.23301
0.23301
0.23301
0.23301
0.23301
0.23301
0.23301
0.23301
0.23301
0.23301
0.23301
0.23301
0.23301
0.23301
0.23301
0.23301
0.23301
0.23301
0.23301
0.23301
0.23301
0.23301
0.23301
0.23301
0.23301
0.23301
0.23301
0.23301
0.23301
0.23301
0.23301
0.23301
0.23301
0.23301
0.23301
0.23301
0.23301
0.23301
0.23301
0.23301
0.23301
0.23301
0.23301
0.23301
0.23301
0.23301
0.23301
0.23301
0.23301
0.23301
0.23301
0.23301
0.23301
0.23301
0.23301
0.23301
0.23301
0.23301
0.23301
0.23301
0.23301
0.23301
0.23301
0.23301
0.23301
0.23301
0.23301
0.23301
0.23301
0.23301
0.23301
0.23301
0.23301
0.23301
0.23301
0.23301
0.23301
0.23301
0.23301
0.23301
0.23301
0.23301
0.23301
0.23301
0.23301
0.23301
0.23301
0.23301
0.23301
0.23301
0.23301
0.23301
0.23301
0.23301
0.23301
0.23301
0.23301
0.23301
0.23301
0.23301
0.23301
0.23301
0.23301
0.23301
0.23301
0.23301
0.23301
0.23301
0.23301
0.23301
0.23301
0.23301
0.23301
0.23301
0.23301
0.23301
0.23301
0.23301
0.23301
0.23301
0.23301
0.23301
0.23301
0.23301
0.23301
0.23301
0.23301
0.23301
0.23301
0.23301
0.23301
0.23301
0.23301
0.23301
0.23301
0.23301
0.23301
0.23301
0.23301
0.23301
0.23301
0.23301
0.23301
0.23301
0.23301
0.23301
0.23301
0.23301
0.23301
0.23301
0.23301
0.23301
0.23301
0.23301
0.23301
0.23301
0.23301
0.23301
0.23301
0.23301
0.23301
0.23301
0.23301
0.23301
0.23301
0.23301
0.23301
0.23301
0.23301
0.23301
0.23301
0.23301
0.23301
0.23301
0.23301
0.23301
0.23301
0.23301
0.23301
0.23301
0.23301
0.23301
0.23301
0.23301
0.23301
0.23301
0.23301
0.23301
0.23301
0.23301
0.23301
0.23301
0.23301
0.23301
0.23301
0.23301
0.23301
0.23301
0.23301
0.23301
0.23301
0.23301
0.23301
0.23301
0.23301
0.23301
0.23301
0.23301
0.23301
0.23301
0.23301
0.23301
0.23301
0.23301
0.23301
0.23301
0.23301
0.23301
0.23301
0.23301
0.23301
0.23301
0.23301
0.23301
0.23301
0.23301
0.23301
0.23301
0.23301
0.23301
0.23301
0.23301
0.23301
0.23301
0.23301
0.23301
0.23301
0.23301
0.23301
0.23301
0.23301
0.23301
0.23301
0.23301
0.23301
0.23301
0.23301
0.23301
0.23301
0.23301
0.23301
0.23301
0.23301
0.23301
0.23301
0.23301
0.23301
0.23301
0.23301
0.23301
0.23301
0.23301
0.23301
0.23301
0.23301
0.23301
0.23301
0.23301
0.23301
0.23301
0.23301
0.23301
0.23301
0.23301
0.23301
0.23301
0.23301
0.23301
0.23301
0.23301
0.23301
0.23301
0.23301
0.23301
0.23301
0.23301
0.23301
0.23301
0.23301
0.23301
0.23301
0.23301
0.23301
0.23301
0.23301
0.23301
0.23301
0.23301
0.23301
0.23301
0.23301
0.23301
0.23301
0.23301
0.23301
0.23301
0.23301
0.23301
0.23301
0.23301
0.23301
0.23301
0.23301
0.23301
0.23301
0.23301
0.23301
0.23301
0.23301
0.23301
0.23301
0.23301
0.23301
0.23301
0.23301
0.23301
0.23301
0.23301
0.23301
0.23301
0.23301
0.23301
0.23301
0.23301
0.23301
0.23301
0.23301
0.23301
0.23301
0.23301
0.23301
0.23301
0.23301
0.23301
0.23301
0.23301
0.23301
0.23301
0.23301
0.23301
0.23301
0.23301
0.23301
0.23301
0.23301
0.23301
0.23301
0.23301
0.23301
0.23301
0.23301
0.23301
0.23301
0.23301
0.23301
0.23301
0.23301
0.23301
0.23301
0.23301
0.23301
0.23301
0.23301
0.23301
0.23301
0.23301
0.23301
0.23301
0.23301
0.23301
0.23301
0.23301
0.23301
0.23301
0.23301
0.23301
0.23301
0.23301
0.23301
0.23301
0.23301
0.23301
0.23301
0.23301
0.23301
0.23301
0.23301
0.23301
0.23301
0.23301
0.23301
0.23301
0.23301
0.23301
0.23301
0.23301
0.23301
0.23301
0.23301
0.23301
0.23301
0.23301
0.23301
0.23301
0.23301
0.23301
0.23301
0.23301
0.23301
0.23301
0.23301
0.23301
0.23301
0.23301
0.23301
0.23301
0.23301
0.23301
0.23301
0.23301
0.23301
0.23301
0.23301
0.23301
0.23301
0.23301
0.23301
0.23301
0.23301
0.23301
0.23301
0.23301
0.23301
0.23301
0.23301
0.23301
0.23301
0.23301
0.23301
0.23301
0.23301
0.23301
0.23301
0.23301
0.23301
0.23301
0.23301
0.23301
0.23301
0.23301
0.23301
0.23301
0.23301
0.23301
0.23301
0.23301
0.23301
0.23301
0.23301
0.23301
0.23301
0.23301
0.23301
0.23301
0.23301
0.23301
0.23301
0.23301
0.23301
0.23301
0.23301
0.23301
0.23301
0.23301
0.23301
0.23301
0.23301
0.23301
0.23301
0.23301
0.23301
0.23301
0.23301
0.23301
0.23301
0.23301
0.23301
0.23301
0.23301
0.23301
0.23301
0.23301
0.23301
0.23301
0.23301
0.23301
0.23301
0.23301
0.23301
0.23301
0.23301
0.23301
0.23301
0.23301
0.23301
0.23301
0.23301
0.23301
0.23301
0.23301
0.23301
0.23301
0.23301
0.23301
0.23301
0.23301
0.23301
0.23301
0.23301
0.23301
0.23301
0.23301
0.23301
0.23301
0.23301
0.23301
0.23301
0.23301
0.23301
0.23301
0.23301
0.23301
0.23301
0.23301
0.23301
0.23301
0.23301
0.23301
0.23301
0.23301
0.23301
0.23301
0.23301
0.23301
0.23301
0.23301
0.23301
0.23301
0.23301
0.23301
0.23301
0.23301
0.23301
0.23301
0.23301
0.23301
0.23301
0.23301
0.23301
0.23301
0.23301
0.23301
0.23301
0.23301
0.23301
0.23301
0.23301
0.23301
0.23301
0.23301
0.23301
0.23301
0.23301
0.23301
0.23301
0.23301
0.23301
0.23301
0.23301
0.23301
0.23301
0.23301
0.23301
0.23301
0.23301
0.23301
0.23301
0.23301
0.23301
0.23301
0.23301
0.23301
0.23301
0.23301
0.23301
0.23301
0.23301
0.23301
0.23301
0.23301
0.23301
0.23301
0.23301
0.23301
0.23301
0.23301
0.23301
0.23301
0.23301
0.23301
0.23301
0.23301
0.23301
0.23301
0.23301
0.23301
0.23301
0.23301
0.23301
0.23301
0.23301
0.23301
0.23301
0.23301
0.23301
0.23301
0.23301
0.23301
0.23301
0.23301
0.23301
0.23301
0.23301
0.23301
0.23301
0.23301
0.23301
0.23301
0.23301
0.23301
0.23301
0.23301
0.23301
0.23301
0.23301
0.23301
0.23301
0.23301
0.23301
0.23301
0.23301
0.23301
0.23301
0.23301
0.23301
0.23301
0.23301
0.23301
0.23301
0.23301
0.23301
0.23301
0.23301
0.23301
0.23301
0.23301
0.23301
0.23301
0.23301
0.23301
0.23301
0.23301
0.23301
0.23301
0.23301
0.23301
0.23301
0.23301
0.23301
0.23301
0.23301
0.23301
0.23301
0.23301
0.23301
0.23301
0.23301
0.23301
0.23301
0.23301
0.23301
0.23301
0.23301
0.23301
0.23301
0.23301
0.23301
0.23301
0.23301
0.23301
0.23301
0.23301
0.23301
0.23301
0.23301
0.23301
0.23301
0.23301
0.23301
0.23301
0.23301
0.23301
0.23301
0.23301
0.23301
0.23301
0.23301
0.23301
0.23301
0.23301
0.23301
0.23301
0.23301
0.23301
0.23301
0.23301
0.23301
0.23301
0.23301
0.23301
0.23301
0.23301
0.23301
0.23301
0.23301
0.23301
0.23301
0.23301
0.23301
0.23301
0.23301
0.23301
0.23301
0.23301
0.23301
0.23301
0.23301
0.23301
0.23301
0.23301
0.23301
0.23301
0.23301
0.23301
0.23301
0.23301
0.23301
0.23301
0.23301
0.23301
0.23301
0.23301
0.23301
0.23301
0.23301
0.23301
0.23301
0.23301
0.23301
0.23301
0.23301
0.23301
0.23301
0.23301
0.23301
0.23301
0.23301
0.23301
0.23301
0.23301
0.23301
0.23301
0.23301
0.23301
0.23301
0.23301
0.23301
0.23301
0.23301
0.23301
0.23301
0.23301
0.23301
0.23301
0.23301
0.23301
0.23301
0.23301
0.23301
0.23301
0.23301
0.23301
0.23301
0.23301
0.23301
0.23301
0.23301
0.23301
0.23301
0.23301
0.23301
0.23301
0.23301
0.23301
0.23301
0.23301
0.23301
0.23301
0.23301
0.23301
0.23301
0.23301
0.23301
0.23301
0.23301
0.23301
0.23301
0.23301
0.23301
0.23301
0.23301
0.23301
0.23301
0.23301
0.23301
0.23301
0.23301
0.23301
0.23301
0.23301
0.23301
0.23301
0.23301
0.23301
0.23301
0.23301
0.23301
0.23301
0.23301
0.23301
0.23301
0.23301
0.23301
0.23301
0.23301
0.23301
0.23301
0.23301
0.23301
0.23301
0.23301
0.23301
0.23301
0.23301
0.23301
0.23301
0.23301
0.23301
0.23301
0.23301
0.23301
0.23301
0.23301
0.23301
0.23301
0.23301
0.23301
0.23301
0.23301
0.23301
0.23301
0.23301
0.23301
0.23301
0.23301
0.23301
0.23301
0.23301
0.23301
0.23301
0.23301
0.23301
0.23301
0.23301
0.23301
0.23301
0.23301
0.23301
0.23301
0.23301
0.23301
0.23301
0.23301
0.23301
0.23301
0.23301
0.23301
0.23301
0.23301
0.23301
0.23301
0.23301
0.23301
0.23301
0.23301
0.23301
0.23301
0.23301
0.23301
0.23301
0.23301
0.23301
0.23301
0.23301
0.23301
0.23301
0.23301
0.23301
0.23301
0.23301
0.233009
0.233009
0.233009
0.233009
0.233009
0.233009
0.233009
0.233009
0.233008
0.233008
0.23301
0.233009
0.23301
0.233009
0.23301
0.233009
0.23301
0.233009
0.233009
0.233008
0.233009
0.233008
0.23301
0.233009
0.23301
0.233009
0.23301
0.23301
0.23301
0.23301
0.23301
0.23301
0.23301
0.23301
0.23301
0.23301
0.23301
0.23301
0.23301
0.23301
0.23301
0.23301
0.23301
0.23301
0.23301
0.23301
0.23301
0.23301
0.23301
0.23301
0.23301
0.23301
0.23301
0.23301
0.23301
0.233009
0.233008
0.233007
0.233006
0.233006
0.233006
0.233006
0.233006
0.233004
0.233001
0.232997
0.233004
0.233009
0.233008
0.233005
0.233008
0.233005
0.233007
0.233003
0.233005
0.232997
0.233004
0.232993
0.233005
0.232994
0.233007
0.232999
0.233009
0.233005
0.233009
0.23301
0.233009
0.233009
0.23301
0.23301
0.23301
0.23301
0.23301
0.23301
0.23301
0.23301
0.23301
0.23301
0.23301
0.23301
0.23301
0.23301
0.23301
0.23301
0.23301
0.23301
0.23301
0.23301
0.23301
0.23301
0.23301
0.23301
0.233009
0.233007
0.233003
0.233
0.232998
0.232996
0.232997
0.232997
0.232994
0.232986
0.232967
0.232943
0.232924
0.232996
0.232957
0.232998
0.232982
0.232993
0.232971
0.232979
0.23294
0.232966
0.232904
0.232963
0.232888
0.232972
0.2329
0.232989
0.232935
0.233003
0.232976
0.233001
0.233009
0.233
0.233002
0.23301
0.23301
0.23301
0.23301
0.23301
0.23301
0.23301
0.23301
0.23301
0.23301
0.23301
0.23301
0.23301
0.23301
0.23301
0.23301
0.23301
0.23301
0.23301
0.23301
0.23301
0.23301
0.23301
0.233009
0.233007
0.233001
0.232992
0.23298
0.232971
0.232967
0.232967
0.232966
0.232948
0.2329
0.232838
0.23277
0.232674
0.232731
0.23257
0.232948
0.232864
0.232929
0.23284
0.232865
0.232733
0.232778
0.232572
0.232728
0.232442
0.232734
0.232395
0.232788
0.232466
0.232883
0.232629
0.232961
0.232819
0.23295
0.233005
0.232947
0.232955
0.23301
0.233008
0.23301
0.23301
0.23301
0.23301
0.23301
0.23301
0.23301
0.23301
0.23301
0.23301
0.23301
0.23301
0.23301
0.23301
0.23301
0.23301
0.23301
0.23301
0.23301
0.23301
0.23301
0.233009
0.233003
0.232989
0.232962
0.232926
0.232898
0.232884
0.232884
0.232874
0.232798
0.232622
0.232439
0.232324
0.232207
0.232329
0.23206
0.232335
0.232098
0.232713
0.232537
0.232562
0.232351
0.232321
0.232044
0.232081
0.231694
0.231924
0.231398
0.231904
0.231241
0.232082
0.231293
0.232434
0.231628
0.232757
0.232229
0.232713
0.232972
0.232702
0.232737
0.233009
0.232992
0.23301
0.23301
0.23301
0.23301
0.23301
0.23301
0.23301
0.23301
0.23301
0.23301
0.23301
0.23301
0.23301
0.23301
0.23301
0.23301
0.23301
0.23301
0.23301
0.23301
0.23301
0.233007
0.232997
0.232964
0.232894
0.232803
0.232723
0.23269
0.23269
0.232652
0.232455
0.232045
0.23167
0.231528
0.231553
0.231719
0.231492
0.231847
0.231535
0.23165
0.231394
0.232124
0.23189
0.231762
0.231473
0.231309
0.230935
0.230868
0.230366
0.230558
0.229893
0.230442
0.229612
0.230613
0.229596
0.231156
0.229942
0.232051
0.230721
0.231937
0.232811
0.23192
0.232026
0.233005
0.232903
0.23301
0.233009
0.23301
0.23301
0.23301
0.23301
0.23301
0.23301
0.23301
0.23301
0.23301
0.23301
0.23301
0.23301
0.23301
0.23301
0.23301
0.23301
0.23301
0.23301
0.233009
0.233006
0.232987
0.232921
0.232779
0.232601
0.232477
0.232447
0.232447
0.232366
0.232032
0.231432
0.2308
0.230434
0.230455
0.230557
0.231265
0.230759
0.231129
0.230829
0.230668
0.230408
0.231193
0.230927
0.230581
0.230243
0.2299
0.229473
0.229277
0.228727
0.228836
0.22813
0.228637
0.227776
0.228773
0.227721
0.229334
0.22804
0.230392
0.228832
0.230216
0.232244
0.230231
0.230465
0.23297
0.232518
0.23301
0.232994
0.23301
0.23301
0.23301
0.23301
0.23301
0.23301
0.23301
0.23301
0.23301
0.23301
0.23301
0.23301
0.23301
0.23301
0.23301
0.23301
0.23301
0.233009
0.233004
0.232973
0.23286
0.232625
0.232359
0.232208
0.232185
0.232193
0.232062
0.231621
0.23081
0.229954
0.229393
0.229146
0.229304
0.229756
0.229276
0.230519
0.230134
0.230145
0.229865
0.229391
0.229141
0.229933
0.229652
0.229079
0.228725
0.228236
0.227807
0.227517
0.226999
0.227024
0.226388
0.226801
0.226052
0.226934
0.226002
0.227461
0.226291
0.228497
0.227028
0.228329
0.230892
0.228351
0.228582
0.232759
0.231455
0.233
0.232845
0.23301
0.23301
0.23301
0.23301
0.23301
0.23301
0.23301
0.23301
0.23301
0.23301
0.23301
0.23301
0.23301
0.23301
0.23301
0.23301
0.233009
0.233003
0.232961
0.232799
0.232462
0.232106
0.231929
0.231916
0.231925
0.231766
0.231214
0.230299
0.229527
0.228957
0.228495
0.228172
0.228796
0.228249
0.228875
0.228466
0.229564
0.229233
0.228901
0.228663
0.227909
0.2277
0.228415
0.228146
0.227427
0.227106
0.226559
0.226205
0.225898
0.225555
0.225524
0.225202
0.225371
0.225036
0.225436
0.22497
0.225872
0.225087
0.226764
0.225599
0.226659
0.22902
0.226715
0.226911
0.227893
0.231961
0.229632
0.232782
0.23194
0.23301
0.23301
0.23301
0.23301
0.23301
0.23301
0.23301
0.23301
0.23301
0.23301
0.23301
0.23301
0.23301
0.23301
0.23301
0.233009
0.233002
0.232954
0.232749
0.23231
0.231858
0.231647
0.231641
0.231656
0.231475
0.230891
0.230122
0.229579
0.229074
0.228581
0.228008
0.22737
0.228055
0.227492
0.227872
0.22757
0.228412
0.228152
0.227516
0.227347
0.226462
0.226341
0.22684
0.226625
0.225923
0.225734
0.225326
0.225195
0.225017
0.224922
0.224879
0.224819
0.224796
0.224758
0.224739
0.224671
0.22487
0.224627
0.225441
0.224735
0.225078
0.226035
0.225423
0.227129
0.228355
0.227278
0.226187
0.22547
0.225486
0.226265
0.231069
0.229933
0.22755
0.227687
0.228736
0.2312
0.2299
0.230498
0.229595
0.23301
0.23301
0.23301
0.23301
0.23301
0.23301
0.23301
0.23301
0.23301
0.23301
0.23301
0.23301
0.23301
0.23301
0.23301
0.233003
0.232954
0.232724
0.232192
0.231628
0.231367
0.231361
0.231383
0.231191
0.230641
0.23015
0.229777
0.229483
0.229135
0.228511
0.22762
0.22676
0.226848
0.227241
0.226927
0.226863
0.22669
0.227185
0.227025
0.226254
0.22619
0.225542
0.225552
0.225617
0.225555
0.225121
0.225121
0.224892
0.224908
0.224806
0.224836
0.224799
0.224884
0.224763
0.224989
0.224614
0.224655
0.224763
0.224965
0.224597
0.224544
0.224706
0.224733
0.22458
0.224724
0.22502
0.224648
0.224542
0.224987
0.226409
0.226595
0.225572
0.225023
0.224983
0.22567
0.228766
0.226769
0.226894
0.227774
0.232151
0.231246
0.229114
0.228561
0.228307
0.23301
0.23301
0.23301
0.23301
0.23301
0.23301
0.23301
0.23301
0.23301
0.23301
0.23301
0.23301
0.23301
0.23301
0.233005
0.23296
0.232723
0.232126
0.231433
0.231095
0.231081
0.231108
0.230917
0.230495
0.230207
0.230063
0.230183
0.230492
0.230211
0.229106
0.227466
0.226365
0.226466
0.226506
0.226373
0.226051
0.225998
0.226141
0.226096
0.225567
0.225588
0.225275
0.225344
0.225152
0.225204
0.224947
0.225028
0.224898
0.225025
0.225037
0.225234
0.225309
0.225636
0.225185
0.225449
0.225668
0.225919
0.224867
0.225126
0.225421
0.224509
0.224581
0.224991
0.225113
0.224789
0.224511
0.224644
0.224486
0.224489
0.224629
0.225805
0.225955
0.225086
0.224635
0.224664
0.225173
0.227699
0.226095
0.226197
0.226936
0.232931
0.2324
0.229658
0.227534
0.228141
0.23301
0.23301
0.23301
0.23301
0.23301
0.23301
0.23301
0.23301
0.23301
0.23301
0.23301
0.23301
0.23301
0.233007
0.232975
0.232748
0.232117
0.231297
0.230842
0.230802
0.230846
0.230674
0.230408
0.230267
0.230319
0.230823
0.231567
0.23156
0.230834
0.229624
0.227009
0.228159
0.226039
0.22631
0.22596
0.225965
0.225609
0.225617
0.225598
0.225604
0.225401
0.225436
0.225418
0.225504
0.225156
0.225292
0.225229
0.22547
0.225494
0.225802
0.225963
0.226287
0.22612
0.226349
0.226531
0.226735
0.225721
0.226015
0.22629
0.226553
0.225312
0.225665
0.226024
0.2246
0.22486
0.225497
0.225673
0.225234
0.224475
0.224472
0.224462
0.224618
0.224457
0.225283
0.225406
0.224706
0.224448
0.224445
0.224769
0.226893
0.225525
0.225627
0.226248
0.233001
0.230771
0.232761
0.227119
0.228614
0.23301
0.23301
0.23301
0.23301
0.23301
0.23301
0.23301
0.23301
0.23301
0.23301
0.23301
0.23301
0.233008
0.23299
0.232812
0.232158
0.23125
0.230628
0.230541
0.230585
0.230478
0.230366
0.230324
0.230545
0.231288
0.232161
0.232308
0.231858
0.230988
0.22985
0.227148
0.22831
0.225847
0.226266
0.225632
0.225684
0.225436
0.225443
0.225443
0.22544
0.225542
0.225535
0.225992
0.226001
0.225699
0.22588
0.226139
0.226443
0.226667
0.226962
0.22689
0.227052
0.227158
0.227248
0.226785
0.227004
0.227188
0.227346
0.22637
0.22669
0.226975
0.227219
0.22591
0.226329
0.226725
0.224925
0.225344
0.226145
0.226355
0.225833
0.224631
0.224447
0.224632
0.224975
0.224427
0.224852
0.224952
0.224452
0.224401
0.224369
0.224477
0.226379
0.225063
0.225188
0.225747
0.233004
0.231456
0.232829
0.227069
0.229029
0.23301
0.23301
0.23301
0.23301
0.23301
0.23301
0.23301
0.23301
0.23301
0.23301
0.23301
0.233009
0.232998
0.232881
0.232293
0.231269
0.230492
0.230314
0.230352
0.230338
0.230321
0.230381
0.230766
0.231618
0.232448
0.232677
0.232463
0.231662
0.23035
0.229312
0.229709
0.227305
0.228413
0.225779
0.226338
0.225466
0.225549
0.225403
0.225392
0.225507
0.225449
0.225963
0.225862
0.226779
0.226712
0.226663
0.226781
0.227162
0.227306
0.227345
0.227319
0.227447
0.227483
0.227465
0.227426
0.227423
0.227576
0.227661
0.227668
0.227075
0.227368
0.227599
0.227761
0.226616
0.227049
0.227415
0.225436
0.225969
0.226869
0.227074
0.226533
0.225004
0.224614
0.225009
0.225504
0.224576
0.224519
0.22459
0.224338
0.22451
0.224425
0.224313
0.226091
0.224696
0.224854
0.225399
0.233006
0.231714
0.23287
0.227082
0.229233
0.23301
0.23301
0.23301
0.23301
0.23301
0.23301
0.23301
0.23301
0.23301
0.23301
0.23301
0.233004
0.232937
0.232487
0.231379
0.23046
0.23014
0.230173
0.230228
0.230283
0.230462
0.230992
0.231909
0.232607
0.232843
0.232782
0.232273
0.230581
0.229224
0.229038
0.229079
0.227431
0.22841
0.225799
0.226467
0.225413
0.225514
0.22545
0.22541
0.225713
0.225562
0.226534
0.226273
0.227622
0.227474
0.227468
0.227607
0.227326
0.227374
0.227
0.226793
0.226484
0.226626
0.227631
0.227536
0.227394
0.227206
0.227837
0.227833
0.227764
0.227627
0.227699
0.227894
0.227987
0.227984
0.227324
0.22769
0.227947
0.226075
0.226671
0.227542
0.227701
0.227231
0.225541
0.224983
0.225544
0.226146
0.224914
0.224305
0.224326
0.224327
0.224796
0.224633
0.224238
0.22588
0.224406
0.224569
0.225119
0.233007
0.231845
0.232885
0.227037
0.229236
0.23301
0.23301
0.23301
0.23301
0.23301
0.23301
0.23301
0.23301
0.23301
0.23301
0.233008
0.232975
0.232676
0.231652
0.230497
0.230038
0.230031
0.230124
0.230262
0.230584
0.231254
0.232175
0.232724
0.232918
0.232927
0.232725
0.231709
0.229808
0.2284
0.228584
0.22854
0.228521
0.227463
0.22822
0.225881
0.226591
0.225427
0.22554
0.22555
0.22547
0.225992
0.225736
0.227173
0.226784
0.228164
0.228211
0.22759
0.227868
0.226429
0.226423
0.226224
0.226134
0.22582
0.225379
0.225557
0.227417
0.227142
0.226824
0.226479
0.227905
0.22774
0.22748
0.227144
0.228091
0.22811
0.228058
0.22788
0.227894
0.22812
0.228197
0.226768
0.22734
0.22804
0.228132
0.227808
0.226177
0.225501
0.226163
0.226821
0.225393
0.224177
0.224146
0.224436
0.225211
0.224953
0.224235
0.225651
0.224173
0.224296
0.224835
0.232997
0.231837
0.232771
0.226848
0.229005
0.23301
0.23301
0.23301
0.23301
0.23301
0.23301
0.23301
0.23301
0.23301
0.233009
0.232995
0.232826
0.232013
0.230652
0.230018
0.229919
0.230032
0.230268
0.230739
0.231546
0.232402
0.232803
0.232953
0.232982
0.232924
0.232596
0.231588
0.229945
0.228057
0.228544
0.22792
0.227943
0.227333
0.227789
0.225982
0.226634
0.225481
0.225606
0.225749
0.225616
0.226376
0.226014
0.227942
0.227486
0.228284
0.228768
0.22678
0.227545
0.225325
0.225388
0.2243
0.224611
0.224925
0.224561
0.224112
0.224283
0.226744
0.226292
0.225821
0.225357
0.227608
0.227242
0.226791
0.226276
0.228176
0.228036
0.22778
0.227415
0.228221
0.22825
0.228164
0.227405
0.227871
0.228263
0.228279
0.228183
0.226827
0.226088
0.226777
0.227424
0.225929
0.224087
0.224005
0.22463
0.225674
0.225307
0.224298
0.225369
0.223983
0.224063
0.224554
0.232725
0.231378
0.232058
0.226446
0.228259
0.23301
0.23301
0.23301
0.23301
0.23301
0.23301
0.23301
0.23301
0.23301
0.233002
0.232923
0.232376
0.231036
0.230057
0.229853
0.229953
0.230277
0.230875
0.231798
0.232534
0.232854
0.232966
0.232995
0.232988
0.232904
0.232587
0.232018
0.230287
0.231671
0.228089
0.229079
0.227414
0.227636
0.227006
0.227269
0.22606
0.226562
0.225612
0.225722
0.226157
0.225947
0.226978
0.226514
0.228808
0.228438
0.227782
0.228971
0.225017
0.225621
0.226258
0.224068
0.224124
0.223491
0.223836
0.223694
0.223369
0.22307
0.223156
0.225725
0.225159
0.224614
0.224118
0.22695
0.226405
0.225803
0.225181
0.227955
0.227627
0.227181
0.226633
0.228259
0.228121
0.227847
0.227898
0.2282
0.228253
0.228252
0.228285
0.227392
0.226652
0.22729
0.227878
0.226429
0.224029
0.223879
0.22484
0.226088
0.225598
0.224372
0.22504
0.223825
0.223869
0.224298
0.22966
0.229803
0.22892
0.225839
0.226696
0.23301
0.23301
0.23301
0.23301
0.23301
0.23301
0.23301
0.23301
0.233007
0.232975
0.232664
0.231554
0.230216
0.229846
0.229884
0.230273
0.23101
0.231989
0.232592
0.232852
0.232959
0.232994
0.233001
0.232988
0.232917
0.232805
0.23278
0.231502
0.232437
0.228942
0.230215
0.227434
0.228007
0.226847
0.227108
0.226203
0.226544
0.225894
0.22596
0.226918
0.226622
0.227893
0.227356
0.22953
0.229572
0.22643
0.227444
0.228574
0.224254
0.224794
0.225709
0.224906
0.223092
0.223233
0.223246
0.223623
0.22269
0.222466
0.222403
0.222375
0.22457
0.223991
0.22347
0.22303
0.226011
0.225351
0.224689
0.224057
0.227444
0.22692
0.226301
0.22562
0.228073
0.227749
0.227255
0.228191
0.228283
0.228054
0.228079
0.228259
0.227794
0.227101
0.227629
0.228136
0.226801
0.223984
0.223763
0.225011
0.226351
0.225765
0.224403
0.22469
0.223679
0.2237
0.224066
0.227254
0.22686
0.225565
0.225133
0.225301
0.23301
0.23301
0.23301
0.23301
0.23301
0.23301
0.23301
0.233009
0.232996
0.232848
0.232082
0.230647
0.229885
0.229835
0.230247
0.231065
0.23207
0.232569
0.232802
0.232922
0.232979
0.233
0.233003
0.232994
0.232979
0.232976
0.23295
0.232997
0.232437
0.232827
0.230392
0.23161
0.22828
0.229199
0.22721
0.22764
0.226619
0.226883
0.226485
0.22649
0.22812
0.227775
0.229129
0.228593
0.229892
0.230459
0.226038
0.226913
0.227419
0.228443
0.224008
0.224429
0.225381
0.224838
0.222584
0.222883
0.223287
0.223692
0.221986
0.22189
0.222105
0.221914
0.223483
0.222979
0.222548
0.222209
0.224918
0.224236
0.223605
0.223041
0.226646
0.225957
0.225225
0.224491
0.227669
0.227095
0.226389
0.228252
0.228255
0.227685
0.227766
0.228123
0.227996
0.227361
0.227749
0.228162
0.226963
0.223918
0.223646
0.225062
0.226427
0.225752
0.224373
0.224371
0.223539
0.223537
0.22387
0.229832
0.224939
0.224863
0.224561
0.224474
0.23301
0.23301
0.23301
0.23301
0.23301
0.23301
0.23301
0.233003
0.232945
0.232504
0.231273
0.230058
0.229831
0.230178
0.231045
0.232054
0.232507
0.232691
0.232819
0.232924
0.232984
0.233003
0.233006
0.233005
0.233006
0.233009
0.233001
0.233008
0.232875
0.232974
0.231957
0.232591
0.229906
0.230963
0.228382
0.229034
0.227646
0.227923
0.227587
0.22755
0.229756
0.22942
0.230568
0.23017
0.229269
0.230121
0.230818
0.225892
0.226577
0.227152
0.227999
0.224058
0.22442
0.225358
0.224973
0.222444
0.22285
0.223607
0.2241
0.22146
0.221484
0.222022
0.221679
0.222528
0.222101
0.221769
0.221548
0.223793
0.223164
0.222596
0.222093
0.225608
0.224816
0.224053
0.223346
0.227058
0.226255
0.22534
0.228195
0.228138
0.227146
0.227262
0.227838
0.227983
0.227402
0.227701
0.228063
0.226928
0.223823
0.22352
0.224973
0.226321
0.225537
0.224236
0.224088
0.223381
0.223363
0.22367
0.227445
0.224184
0.224271
0.22416
0.224031
0.23301
0.23301
0.23301
0.23301
0.23301
0.23301
0.233008
0.232987
0.232774
0.231905
0.230541
0.229884
0.23008
0.230971
0.232004
0.232421
0.232577
0.232669
0.232782
0.232923
0.23299
0.233007
0.233009
0.233009
0.23301
0.23301
0.233009
0.23301
0.232991
0.233006
0.232794
0.232941
0.231822
0.232444
0.230334
0.231049
0.229414
0.229781
0.229259
0.22924
0.231598
0.231409
0.231403
0.231604
0.228924
0.229857
0.230874
0.230088
0.225928
0.22647
0.227029
0.227672
0.224438
0.224695
0.225557
0.225334
0.222468
0.223033
0.22407
0.224681
0.221089
0.221289
0.222051
0.221614
0.221674
0.221352
0.221137
0.221059
0.222718
0.222152
0.221666
0.221269
0.224419
0.22359
0.222873
0.222261
0.226287
0.225271
0.224197
0.228036
0.227802
0.226406
0.226499
0.227306
0.227833
0.227282
0.227436
0.227847
0.226667
0.223689
0.223346
0.224757
0.225809
0.22499
0.22405
0.223835
0.223206
0.223188
0.223468
0.23094
0.223819
0.225189
0.223868
0.223742
0.23301
0.23301
0.23301
0.23301
0.23301
0.233009
0.233
0.232914
0.232409
0.23123
0.230102
0.230053
0.230797
0.231904
0.232348
0.232474
0.23252
0.232598
0.23277
0.232938
0.233001
0.233009
0.23301
0.23301
0.23301
0.23301
0.23301
0.23301
0.23301
0.233008
0.233009
0.232986
0.233003
0.232815
0.232936
0.232237
0.23258
0.23155
0.231866
0.231321
0.231352
0.232397
0.232542
0.231506
0.232106
0.228447
0.229284
0.230428
0.22961
0.226133
0.226503
0.227038
0.22753
0.225019
0.225191
0.225919
0.225827
0.222638
0.223342
0.224561
0.225274
0.220946
0.221237
0.222204
0.221641
0.220966
0.220775
0.220729
0.220768
0.221701
0.221239
0.220875
0.220619
0.223214
0.222398
0.221766
0.221257
0.225316
0.224117
0.222959
0.227691
0.227281
0.225419
0.225568
0.226585
0.227467
0.226805
0.226794
0.227318
0.225855
0.223462
0.223134
0.224317
0.224994
0.224376
0.223672
0.223613
0.223027
0.223019
0.223269
0.2314
0.223713
0.226087
0.223637
0.223525
0.23301
0.23301
0.23301
0.23301
0.23301
0.233005
0.232974
0.23273
0.231898
0.230687
0.230121
0.230536
0.231709
0.232283
0.232398
0.232396
0.23242
0.232574
0.232788
0.232968
0.233005
0.23301
0.23301
0.23301
0.23301
0.23301
0.23301
0.23301
0.23301
0.23301
0.23301
0.233008
0.233009
0.232994
0.233004
0.232918
0.232968
0.232755
0.232843
0.232609
0.232673
0.232359
0.232702
0.230336
0.231023
0.231617
0.228114
0.228819
0.229675
0.229035
0.226462
0.226679
0.227199
0.22753
0.225655
0.225773
0.226373
0.226368
0.222911
0.22373
0.225109
0.225878
0.220904
0.221262
0.222437
0.22177
0.220485
0.220464
0.220504
0.220659
0.22082
0.220517
0.220338
0.220263
0.22202
0.221318
0.220828
0.220492
0.224143
0.222843
0.221735
0.226905
0.226108
0.22427
0.223515
0.224927
0.226498
0.225776
0.225493
0.22592
0.224905
0.223164
0.222906
0.223845
0.224376
0.223925
0.223298
0.223413
0.222795
0.222874
0.22309
0.230995
0.22386
0.226417
0.22343
0.223399
0.23301
0.23301
0.23301
0.23301
0.233009
0.232996
0.232896
0.232416
0.231399
0.230397
0.230439
0.231349
0.232175
0.232351
0.232312
0.232276
0.232378
0.232575
0.232852
0.232988
0.233008
0.23301
0.23301
0.23301
0.23301
0.23301
0.23301
0.23301
0.23301
0.23301
0.23301
0.23301
0.23301
0.233008
0.233009
0.232999
0.233005
0.232965
0.232987
0.232855
0.232927
0.231508
0.23232
0.229834
0.230476
0.231045
0.230445
0.227967
0.228465
0.229281
0.228805
0.226903
0.226989
0.227544
0.227722
0.226258
0.22636
0.226904
0.226937
0.223254
0.224186
0.225694
0.226515
0.220914
0.221359
0.222706
0.221948
0.220258
0.220297
0.220412
0.220604
0.220256
0.220129
0.22009
0.220083
0.22099
0.220515
0.220229
0.220065
0.222804
0.221476
0.220631
0.224949
0.223838
0.22206
0.222046
0.22296
0.224899
0.224682
0.224435
0.224101
0.224372
0.2229
0.222685
0.223495
0.224029
0.223692
0.223137
0.223208
0.222642
0.222687
0.222892
0.231505
0.224056
0.226929
0.223232
0.223339
0.23301
0.23301
0.23301
0.23301
0.233003
0.232967
0.232737
0.23204
0.231034
0.230523
0.231009
0.231923
0.232294
0.232274
0.232185
0.232211
0.232367
0.23263
0.232915
0.233002
0.233009
0.23301
0.23301
0.23301
0.23301
0.23301
0.23301
0.23301
0.23301
0.23301
0.23301
0.23301
0.23301
0.233009
0.23301
0.233002
0.233007
0.232964
0.232991
0.232723
0.232893
0.230753
0.23104
0.231507
0.232026
0.229574
0.230004
0.230327
0.228002
0.228374
0.229167
0.2288
0.227469
0.227475
0.228125
0.228172
0.226858
0.226937
0.227502
0.227553
0.223628
0.224679
0.226296
0.22719
0.220968
0.221477
0.222966
0.222133
0.220101
0.220186
0.220352
0.220607
0.219951
0.219901
0.219883
0.219895
0.220266
0.219993
0.219841
0.219755
0.221128
0.220502
0.220238
0.223564
0.223244
0.221673
0.22221
0.222665
0.224023
0.224194
0.224095
0.223805
0.22394
0.222733
0.222564
0.223277
0.22368
0.223323
0.222787
0.223
0.222427
0.222487
0.222709
0.231768
0.224244
0.227012
0.22305
0.223292
0.23301
0.23301
0.23301
0.233008
0.232994
0.232899
0.232506
0.231704
0.230875
0.230894
0.23156
0.232167
0.232245
0.232147
0.232096
0.232187
0.232397
0.232725
0.232971
0.233007
0.23301
0.23301
0.23301
0.23301
0.23301
0.23301
0.23301
0.23301
0.23301
0.23301
0.23301
0.23301
0.23301
0.23301
0.23301
0.233009
0.23301
0.233
0.233006
0.232938
0.232983
0.232575
0.232828
0.230699
0.231187
0.231504
0.232081
0.229584
0.229935
0.230374
0.228291
0.228501
0.229299
0.229083
0.228152
0.228124
0.228899
0.228894
0.22749
0.227556
0.228216
0.228252
0.223989
0.225178
0.226875
0.227891
0.221006
0.221547
0.223124
0.222247
0.219975
0.220116
0.220349
0.220618
0.219705
0.219706
0.219731
0.219835
0.219895
0.219679
0.219527
0.219518
0.221105
0.220688
0.219348
0.223551
0.221146
0.220103
0.220545
0.220805
0.223857
0.223962
0.22389
0.221649
0.223663
0.222531
0.222313
0.222958
0.223352
0.223031
0.222703
0.222784
0.222288
0.22234
0.222527
0.232701
0.22429
0.228197
0.222883
0.223257
0.23301
0.23301
0.233009
0.233002
0.232969
0.232782
0.23226
0.231489
0.230999
0.23133
0.231901
0.232187
0.232136
0.232045
0.232051
0.232193
0.232485
0.232849
0.232996
0.233009
0.23301
0.23301
0.23301
0.23301
0.23301