/*--------------------------------*- C++ -*----------------------------------*\
  =========                 |
  \\      /  F ield         | OpenFOAM: The Open Source CFD Toolbox
   \\    /   O peration     | Website:  https://openfoam.org
    \\  /    A nd           | Version:  dev
     \\/     M anipulation  |
\*---------------------------------------------------------------------------*/
FoamFile
{
    version     2.0;
    format      ascii;
    class       volScalarField;
    location    "2500";
    object      omega;
}
// * * * * * * * * * * * * * * * * * * * * * * * * * * * * * * * * * * * * * //

dimensions      [0 0 -1 0 0 0 0];

internalField   nonuniform List<scalar> 
9842
(
1.22154
1.2373
1.17941
1.17205
1.30618
1.0771
1.0807
1.32096
1.24005
1.02394
1.03321
1.29358
1.30743
1.11642
1.00968
1.00978
1.22101
1.33052
1.23095
1.04181
1.00397
0.994037
1.1245
1.32433
1.29808
1.10939
1.01326
0.999979
0.981493
1.0576
1.2936
1.32152
1.2062
1.03576
1.00048
0.998116
0.974305
1.01504
1.22583
1.32803
1.27713
1.09005
1.0049
0.990521
0.997188
0.970335
0.987782
1.13934
1.31885
1.30994
1.17614
1.02273
0.989094
0.985581
0.996376
0.970348
0.971712
1.06256
1.28904
1.32147
1.24853
1.07008
0.992852
0.977057
0.983357
0.99568
0.971375
0.958078
1.01312
1.2288
1.3243
1.29145
1.1437
1.00879
0.976316
0.970067
0.982272
0.995178
0.972445
0.948907
0.979815
1.14472
1.31654
1.31181
1.21434
1.0496
0.980104
0.963735
0.96678
0.981605
0.994795
0.973092
0.943079
0.95891
1.06311
1.29031
1.32173
1.26586
1.11392
0.994675
0.963812
0.955433
0.965286
0.981009
0.994602
0.973233
0.939748
0.945784
1.01034
1.2366
1.32673
1.29737
1.17658
1.03089
0.967948
0.951584
0.950739
0.964525
0.980649
0.994524
0.973132
0.938888
0.936588
0.9742
1.15551
1.32099
1.31575
1.23261
1.08295
0.98192
0.952161
0.942146
0.948356
0.964259
0.980458
0.994468
0.973016
0.938976
0.929327
0.951403
1.06912
1.29789
1.32642
1.2744
1.14191
1.01266
0.956659
0.939987
0.936315
0.947379
0.964125
0.980424
0.994488
0.973103
0.939694
0.924727
0.936988
1.01234
1.24817
1.33222
1.30312
1.19483
1.05649
0.96998
0.940886
0.930374
0.933006
0.947081
0.964146
0.980509
0.994547
0.973366
0.940644
0.922198
0.928072
0.974709
1.1704
1.32714
1.32075
1.24255
1.10632
0.995638
0.94562
0.929398
0.923616
0.931416
0.947043
0.964381
0.980642
0.994617
0.973684
0.941084
0.920887
0.922856
0.950787
1.08639
1.30579
1.33073
1.28006
1.15932
1.0296
0.958449
0.930554
0.919734
0.919339
0.930753
0.947219
0.964756
0.980825
0.994716
0.974037
0.941177
0.920645
0.919394
0.936126
1.02446
1.2598
1.33811
1.30717
1.20527
1.07385
0.978349
0.935409
0.919456
0.912308
0.916922
0.93053
0.94766
0.965168
0.981062
0.994812
0.974335
0.941395
0.920902
0.91631
0.927097
0.984306
1.19192
1.33474
1.32632
1.2469
1.12072
1.00634
0.946784
0.920794
0.909943
0.907166
0.915669
0.93071
0.9483
0.965574
0.981352
0.994864
0.974557
0.941908
0.921693
0.913819
0.920993
0.95782
1.11104
1.31813
1.33634
1.28341
1.16783
1.04196
0.962822
0.925765
0.909982
0.902128
0.903948
0.915232
0.931188
0.949024
0.965957
0.981634
0.994881
0.974757
0.942653
0.922511
0.912035
0.916531
0.940913
1.04275
1.28006
1.34709
1.31048
1.20935
1.08524
0.984429
0.935533
0.911523
0.900727
0.896429
0.902204
0.915326
0.931952
0.949703
0.966332
0.981875
0.994861
0.974968
0.943531
0.923102
0.910866
0.913206
0.929908
0.998848
1.2197
1.34616
1.33294
1.24823
1.12882
1.01463
0.948055
0.916422
0.900924
0.892937
0.892674
0.901466
0.915819
0.932869
0.95029
0.966703
0.982014
0.994802
0.975209
0.944459
0.92362
0.910589
0.910866
0.92245
0.969137
1.14235
1.3342
1.34436
1.28433
1.17146
1.0508
0.965692
0.924289
0.902519
0.892095
0.88707
0.890436
0.901458
0.916658
0.933767
0.950839
0.966997
0.981981
0.994701
0.975496
0.945333
0.924119
0.910852
0.908852
0.917261
0.949813
1.06892
1.30276
1.35687
1.31497
1.21068
1.09227
0.989228
0.934404
0.907054
0.892323
0.884614
0.882975
0.889355
0.901964
0.917694
0.934625
0.951293
0.967151
0.981793
0.994527
0.975861
0.946131
0.924581
0.911439
0.906937
0.913372
0.936987
1.02061
1.25074
1.35795
1.3398
1.24827
1.13327
1.02098
0.948086
0.913219
0.893832
0.884006
0.878872
0.880381
0.889146
0.902914
0.918852
0.935356
0.951652
0.967173
0.981452
0.994252
0.976284
0.946853
0.925124
0.911926
0.905458
0.910065
0.928085
0.988075
1.18285
1.35034
1.35297
1.28578
1.17275
1.05729
0.967842
0.921386
0.897574
0.884207
0.877103
0.874777
0.879004
0.889711
0.904259
0.920027
0.935999
0.951924
0.967043
0.980998
0.993892
0.976723
0.947561
0.925775
0.912242
0.904385
0.907423
0.921609
0.965676
1.1132
1.3281
1.36429
1.31859
1.21118
1.09665
0.993477
0.932789
0.902707
0.885451
0.876642
0.871841
0.872111
0.878776
0.890951
0.9059
0.92118
0.936533
0.952082
0.966755
0.980452
0.993535
0.977164
0.948302
0.926508
0.912444
0.903578
0.905473
0.916657
0.950725
1.0558
1.28556
1.37047
1.34324
1.24606
1.13593
1.02597
0.948459
0.909436
0.888684
0.876806
0.870557
0.868074
0.870799
0.879587
0.892877
0.907725
0.922274
0.93695
0.952091
0.966401
0.979879
0.993234
0.977611
0.949012
0.927318
0.912611
0.903095
0.904048
0.912899
0.940244
1.01955
1.23365
1.36711
1.36058
1.2832
1.17242
1.06231
0.970431
0.919003
0.893102
0.87796
0.870193
0.865997
0.86577
0.870946
0.881341
0.895356
0.909686
0.923277
0.937303
0.951965
0.966254
0.979818
0.993224
0.978084
0.949631
0.92807
0.91281
0.90306
0.902815
0.910001
0.93273
0.994331
1.17311
1.35486
1.37
1.31774
1.20787
1.09968
0.998187
0.932643
0.899353
0.881023
0.8704
0.865093
0.863019
0.865083
0.872196
0.884202
0.898426
0.911867
0.924361
0.93756
0.951844
0.966531
0.980906
0.993686
0.97854
0.950131
0.928672
0.912915
0.903223
0.901246
0.907426
0.927196
0.976715
1.116
1.3289
1.38133
1.34323
1.24233
1.13693
1.03112
0.951059
0.908203
0.885557
0.871754
0.864932
0.861718
0.861805
0.865964
0.87478
0.887928
0.90212
0.914718
0.92637
0.938891
0.953188
0.96858
0.983999
0.997754
0.993175
0.978917
0.950453
0.929134
0.912863
0.903509
0.899885
0.905117
0.922669
0.965342
1.07103
1.29164
1.38655
1.36479
1.2765
1.1714
1.06749
0.975453
0.920377
0.892005
0.875347
0.865487
0.8613
0.860332
0.862564
0.868312
0.878835
0.892492
0.906198
0.917962
0.929133
0.941314
0.95601
0.972024
0.989443
0.986033
0.998285
0.995468
0.979242
0.950607
0.92939
0.912661
0.903708
0.898874
0.903191
0.919062
0.958039
1.04116
1.24682
1.38371
1.37991
1.31033
1.205
1.10362
1.0055
0.937436
0.900977
0.880827
0.867975
0.861571
0.859917
0.861106
0.864938
0.872827
0.884694
0.898636
0.911297
0.922215
0.93269
0.944801
0.962487
0.957412
0.982496
0.966317
0.978114
0.993094
0.990952
0.99908
0.998395
0.979512
0.950648
0.9294
0.912341
0.903854
0.897899
0.901754
0.916202
0.952552
1.02123
1.19714
1.37417
1.39175
1.34163
1.23748
1.13967
1.03999
0.959861
0.913803
0.888439
0.873095
0.863508
0.86031
0.860722
0.863596
0.869955
0.880102
0.89322
0.907522
0.919553
0.930657
0.94137
0.953802
0.951655
0.962339
0.988485
0.975688
0.986033
0.997903
0.997665
1.00036
1.00241
0.979623
0.950554
0.929134
0.911965
0.903866
0.89682
0.90046
0.913958
0.947918
1.00984
1.15083
1.35463
1.40585
1.36663
1.26839
1.174
1.07771
0.988622
0.931266
0.899393
0.880518
0.869323
0.862781
0.861237
0.863325
0.868789
0.877994
0.890474
0.905471
0.920316
0.932551
0.943241
0.951934
0.953305
0.959814
0.959858
0.972643
0.997537
0.983303
0.99633
1.00474
1.00742
1.00178
1.00803
0.979575
0.95009
0.928585
0.911522
0.903525
0.895844
0.899028
0.912065
0.943992
1.00384
1.11408
1.32594
1.41672
1.38987
1.30225
1.20588
1.1159
1.02326
0.954822
0.915046
0.89251
0.878875
0.869779
0.864176
0.864183
0.868795
0.877346
0.889677
0.905507
0.92201
0.937393
0.949153
0.95615
0.961759
0.961286
0.964229
0.971908
0.972719
0.982891
1.00994
0.995804
1.01108
1.01443
1.02094
1.00368
1.0149
0.979405
0.949238
0.927784
0.910938
0.902828
0.894919
0.897633
0.910145
0.940659
0.99978
1.08904
1.29147
1.41839
1.40896
1.33635
1.23847
1.15319
1.06262
0.984881
0.93722
0.910279
0.892666
0.880744
0.872634
0.868729
0.870701
0.877841
0.889935
0.905896
0.925029
0.94408
0.96322
0.967729
0.975493
0.971563
0.977531
0.975586
0.980476
0.983968
0.986998
0.996919
1.02608
1.01264
1.03033
1.02694
1.03825
1.00608
1.02321
0.979079
0.948343
0.926732
0.910184
0.901916
0.893786
0.896324
0.908156
0.937802
0.996536
1.07453
1.25399
1.41617
1.42677
1.36948
1.27105
1.19014
1.10547
1.02186
0.967552
0.934983
0.912353
0.897686
0.888584
0.881755
0.878232
0.881005
0.8911
0.907203
0.928825
0.949726
0.97426
0.986884
1.00093
0.990047
0.999985
0.99079
1.0015
0.993411
1.00307
1.00007
1.00674
1.01579
1.04741
1.03487
1.0551
1.04248
1.05962
1.00899
1.03328
0.978646
0.947443
0.925515
0.909269
0.900765
0.892287
0.894729
0.90619
0.935009
0.993378
1.06679
1.21742
1.40997
1.44816
1.40038
1.3038
1.22556
1.14983
1.06614
1.00724
0.968446
0.94108
0.922556
0.91136
0.90281
0.895121
0.891614
0.897195
0.91179
0.935394
0.962575
0.99182
1.01514
1.02688
1.01754
1.03189
1.0181
1.03356
1.01742
1.03395
1.01765
1.03437
1.02195
1.03348
1.04116
1.07386
1.06305
1.08574
1.06063
1.08525
1.01226
1.04462
0.978064
0.946483
0.924238
0.908198
0.899371
0.890568
0.892421
0.903923
0.932138
0.989832
1.06225
1.18669
1.39591
1.46918
1.43048
1.33992
1.26003
1.19399
1.11717
1.05725
1.01309
0.983242
0.962669
0.947352
0.935869
0.92589
0.918033
0.917468
0.928966
0.955327
0.993174
1.03282
1.03928
1.05686
1.05105
1.06943
1.05396
1.0757
1.05379
1.0779
1.05319
1.0768
1.05189
1.07268
1.0531
1.06965
1.07506
1.10546
1.09901
1.1222
1.08058
1.11433
1.01573
1.05527
0.977528
0.945849
0.92323
0.907173
0.898068
0.888785
0.889215
0.900984
0.929131
0.985722
1.0588
1.16396
1.37387
1.48442
1.45932
1.37842
1.2955
1.23778
1.17426
1.11675
1.07217
1.04607
1.02863
1.01319
1.00106
0.988357
0.976424
0.971163
0.983915
1.02585
1.09859
1.16214
1.09682
1.17727
1.09875
1.15932
1.11104
1.18259
1.12196
1.21707
1.12407
1.23487
1.11391
1.21356
1.09856
1.16881
1.09286
1.13143
1.11949
1.14061
1.14573
1.16762
1.10139
1.1439
1.01901
1.06096
0.977644
0.946475
0.923377
0.906807
0.897494
0.887231
0.885632
0.897214
0.925768
0.981574
1.05569
1.1483
1.34722
1.49359
1.48921
1.41875
1.3318
1.28265
1.23599
1.18499
1.15049
1.13854
1.1406
1.14015
1.13883
1.13101
1.12298
1.12682
1.17767
1.31613
1.54043
1.79781
1.45665
1.46536
1.29645
1.62726
1.34282
1.70438
1.43439
1.92535
1.51468
2.1747
1.48525
2.18058
1.37642
1.96588
1.24565
1.63274
1.16956
1.34335
1.20661
1.17685
1.2368
1.25038
1.11844
1.16522
1.01897
1.06135
0.980065
0.950856
0.926316
0.907766
0.897772
0.885991
0.882323
0.893148
0.921587
0.97752
1.05256
1.13809
1.31639
1.49775
1.52229
1.4609
1.37019
1.32632
1.29604
1.26271
1.2533
1.28034
1.3379
1.40317
1.45406
1.49032
1.52962
1.63622
1.91205
2.34375
2.96137
3.90414
5.42265
2.30376
4.22431
2.43054
3.88029
2.95435
4.71111
3.54854
5.8444
3.6768
6.37015
3.34026
6.11887
2.73318
5.13348
1.97353
3.72604
1.45199
2.36808
1.54184
1.23801
1.59011
1.56612
1.12363
1.19391
1.01212
1.05225
0.992365
0.965785
0.93589
0.911931
0.898684
0.884786
0.879423
0.889683
0.917403
0.972903
1.0487
1.13121
1.28459
1.49669
1.55489
1.50301
1.4124
1.36839
1.35491
1.34951
1.38507
1.50446
1.71351
1.96131
2.18766
2.385
2.61679
3.0744
4.08512
5.41947
6.53816
7.40181
8.85809
9.9067
11.2059
5.88128
8.30397
7.01289
9.43969
8.51826
10.953
9.53084
12.1723
9.71577
12.7997
9.08281
12.7526
7.38192
11.896
4.80256
9.74219
2.75561
5.89013
3.03281
1.46741
3.12074
2.95585
1.11703
1.31588
1.00452
1.03834
1.01903
1.0071
0.963491
0.923842
0.901529
0.883688
0.876497
0.886839
0.914792
0.968422
1.04352
1.12543
1.25628
1.48554
1.58186
1.54456
1.45861
1.40915
1.41128
1.44207
1.55703
1.86056
2.38474
3.01604
3.70202
4.30027
4.99139
6.15561
7.91353
9.38069
9.8349
10.0494
10.8112
11.9257
12.5326
13.4184
13.9019
11.3384
12.6144
12.8019
14.092
14.0335
15.2522
14.8049
16.0062
15.084
16.4174
14.9095
16.5267
14.0339
16.3135
11.7076
15.4049
6.84052
13.044
7.42427
2.5682
7.44437
6.87594
1.1544
2.04978
1.00396
1.06387
1.08647
1.10708
1.03958
0.959448
0.912435
0.885143
0.873708
0.883962
0.913323
0.965495
1.03722
1.11908
1.23262
1.458
1.59964
1.58665
1.50831
1.44887
1.46291
1.53596
1.77627
2.39529
3.39545
4.52252
5.48514
6.31125
7.2978
8.80193
10.5563
11.4907
11.6527
11.4562
11.6572
12.6873
12.8758
14.1149
14.1249
15.6133
15.6342
14.9153
15.384
16.0403
16.5156
16.7482
17.1745
17.1709
17.5977
17.4227
17.9094
17.496
18.1099
17.2458
18.1565
16.3537
17.8772
13.8969
17.0075
14.2686
5.85482
14.2352
13.6188
1.57449
4.70802
1.06007
1.49137
1.10271
1.19502
1.16719
1.05249
0.950962
0.894061
0.873445
0.880961
0.910996
0.963433
1.03076
1.11178
1.21326
1.42321
1.6077
1.62813
1.56005
1.4891
1.50797
1.6267
2.03991
3.07409
4.55605
5.99794
7.02797
7.86801
8.89578
10.3895
11.7306
12.2931
12.1093
11.6714
11.6645
12.9947
14.0452
13.9887
15.5744
15.3777
16.8133
16.6956
16.7772
16.8458
17.4223
17.5198
17.8316
17.9076
18.1429
18.2507
18.4487
18.6661
18.6825
19.1553
18.7248
19.4602
18.4013
19.4132
17.3946
18.8876
17.5757
12.2858
17.5894
17.3741
3.87725
10.8382
1.38121
4.17658
1.15302
1.23559
1.19062
1.05011
0.931723
0.877898
0.879582
0.907267
0.960686
1.02513
1.10399
1.19728
1.38437
1.60716
1.66481
1.61047
1.53209
1.54545
1.70595
2.31415
3.78911
5.6838
7.23585
8.2145
8.96797
9.94188
11.2533
12.1998
12.3762
11.9849
11.5171
11.3782
11.922
14.0861
13.427
15.078
14.6188
16.439
16.0695
17.2761
17.0196
17.5093
17.4399
17.8922
17.8354
18.2736
18.2679
18.8824
19.0927
19.6221
20.1537
20.2559
21.1849
20.5105
21.7842
20.2405
21.7331
19.3564
21.1168
19.7577
16.9703
20.0149
20.0018
10.483
16.5915
4.85705
14.2253
1.14838
1.24673
1.19067
1.0341
0.900212
0.881878
0.90293
0.956858
1.01985
1.09615
1.18382
1.34407
1.59425
1.69159
1.65712
1.5782
1.57576
1.76049
2.53566
4.40628
6.6283
8.20849
9.09582
9.77843
10.6442
11.6679
12.1952
12.2058
11.6106
11.3118
11.3281
11.822
12.9469
12.5356
14.4698
13.8286
15.6177
15.0754
16.6863
16.2615
17.3359
17.0695
17.7171
17.5482
18.2561
18.2421
19.278
19.4853
20.7025
21.2326
22.0923
23.0686
23.1698
24.6514
23.5082
25.4884
23.0705
25.3105
21.9278
24.3084
22.5394
19.7004
22.8923
22.9868
21.2356
17.9008
19.6299
19.388
31.1829
1.13354
1.2511
1.17899
0.979896
0.891174
0.901044
0.951532
1.01492
1.08803
1.1709
1.30721
1.55972
1.70533
1.69998
1.62682
1.60094
1.78112
2.6617
4.8588
7.37052
8.94881
9.74954
10.3416
11.0522
11.6515
12.0464
11.8065
11.3129
11.2578
11.537
12.2829
13.2653
13.3904
13.3821
14.7023
14.2175
15.7678
15.247
16.748
16.3816
18.0153
17.8508
18.209
18.1357
19.6842
19.8771
21.6442
22.0932
23.9353
24.6481
26.051
27.2285
27.5332
29.3704
27.8841
30.5279
26.9497
30.0933
25.3385
28.2715
26.5813
24.3352
26.0711
22.8026
20.8442
22.5729
24.5581
26.6437
26.3165
24.6056
23.4585
21.5521
22.1949
21.8691
21.1199
51.1605
25.6553
48.961
35.6675
1.13677
1.25768
1.13409
0.923541
0.902481
0.945109
1.00864
1.07892
1.1581
1.27466
1.51701
1.7073
1.73675
1.67565
1.62443
1.77628
2.68073
5.10767
7.89498
9.4485
10.1781
10.6815
11.1061
11.5257
11.6709
11.2614
11.0742
11.1965
11.955
13.2886
14.5173
14.3081
14.9639
14.0463
14.0781
15.1643
14.8853
15.9858
15.5763
17.6282
17.3567
19.9072
19.7725
19.9863
19.9736
22.4457
22.683
25.2059
25.5806
28.1208
28.6941
30.8278
31.7616
32.8036
34.3439
31.2395
32.8916
34.0608
35.3252
29.7795
31.7927
34.0238
35.3815
33.4012
28.8348
27.5721
29.5912
30.6986
28.1241
24.4155
24.0321
26.616
28.7376
28.5226
26.5576
22.8539
23.5084
22.9443
22.0579
59.1568
61.9988
54.1702
27.5721
38.2618
1.19621
1.25271
1.01255
0.913347
0.93454
1.00137
1.06782
1.14332
1.24726
1.46717
1.70028
1.76354
1.72042
1.65133
1.74724
2.59844
5.14988
8.1981
9.74003
10.4047
10.7589
11.0378
11.2368
11.1177
10.876
10.8219
10.9909
11.6784
12.8775
14.3596
15.5585
15.3011
15.7181
14.8711
14.974
16.2571
15.9656
17.0103
16.6353
19.5245
19.1399
22.448
21.9824
22.7375
22.6687
25.7535
25.6548
28.9029
28.7104
32.0597
31.7351
34.8134
34.4324
35.9044
36.4687
36.4564
36.3652
35.4939
36.5405
37.1444
32.6421
34.5422
36.6492
37.536
36.236
31.4675
30.0356
32.0737
33.4869
30.5407
26.2934
25.7857
28.8554
30.9301
31.2056
28.7823
23.7029
25.0541
24.1872
22.8673
24.4118
48.9522
50.2489
28.3229
37.5487
1.26454
1.18122
0.939286
0.929379
0.990532
1.05574
1.12757
1.22081
1.41701
1.67257
1.77664
1.75736
1.68412
1.71442
2.36141
5.01087
8.28237
9.8928
10.4698
10.7262
10.8584
10.7711
10.6671
10.6611
10.6632
10.8004
10.8071
11.1119
12.539
14.6532
15.9956
15.7714
16.0527
16.0728
15.8925
15.9226
17.5821
17.1016
18.661
18.1328
21.3302
20.6014
23.7968
22.8622
25.3204
24.651
28.184
27.311
30.9946
29.9512
33.5775
32.5425
36.0125
35.6092
34.9665
34.3833
37.388
37.3133
37.0114
36.5313
37.5804
38.0721
38.1369
35.4377
37.0965
38.3819
39.014
38.3077
34.1915
32.6684
34.8445
36.2048
33.1836
28.4458
27.7988
31.3419
33.6058
33.9134
31.2498
24.2823
26.8318
25.6677
23.7286
6.37483
44.9665
30.7183
28.5652
35.8948
1.26849
1.017
0.933855
0.976525
1.04142
1.10956
1.19768
1.36594
1.62931
1.77758
1.78677
1.72107
1.69498
2.10211
4.52511
8.21355
9.91215
10.4509
10.6217
10.4945
10.2887
10.3387
10.4731
10.673
10.6652
9.75574
8.20531
9.01224
11.3052
13.3013
15.9154
15.1721
16.4325
16.2397
16.7724
16.5724
18.3821
17.7092
19.8552
19.111
21.9225
21.0087
24.0078
22.8769
26.2602
25.1517
28.8062
27.5339
31.2821
29.9799
33.5929
32.9118
32.289
31.7893
35.9057
35.0751
34.2463
33.4061
37.9044
37.431
36.6655
35.6704
38.7294
38.6789
38.2821
37.8396
38.9581
39.2205
39.5779
39.4933
36.8825
35.4348
37.4958
38.4977
35.9714
30.8417
30.0406
34.055
36.4264
36.7696
33.9281
25.0717
28.8491
27.493
24.9878
4.23721
39.1263
23.6912
28.9321
35.0831
1.18179
0.955866
0.957505
1.03037
1.09045
1.1735
1.32105
1.5768
1.77014
1.80642
1.75714
1.69125
1.88849
3.80797
7.87272
9.8736
10.3958
10.4458
10.0825
9.8971
10.0486
10.3428
10.7235
10.5504
8.92977
6.14912
6.36238
8.49603
10.6713
12.8698
11.4909
15.4782
14.469
16.3612
15.9992
17.1494
16.7102
18.4467
17.6568
20.1338
19.2907
21.7836
20.7647
23.4735
22.2322
26.1939
24.8297
28.6136
27.1328
31.0858
30.1384
32.6972
32.1892
31.8882
31.6482
34.6167
33.6142
32.8168
32.3253
37.4559
36.2711
34.9536
33.698
39.0449
38.3254
37.061
39.4961
39.8671
39.188
39.1303
39.8281
39.0717
38.0832
39.6442
39.9503
38.6575
33.4141
32.4432
36.9223
39.1757
39.6109
36.7489
26.272
31.0711
29.6187
26.7345
4.02944
36.2172
23.5769
29.7047
34.8742
1.05958
0.962685
1.01111
1.07475
1.15072
1.27993
1.52144
1.74397
1.81362
1.7871
1.7008
1.75501
3.05264
7.0421
9.74598
10.3207
10.2412
9.70824
9.59085
9.7966
10.3131
10.7147
10.3587
8.20292
4.97276
4.51986
6.27476
9.76809
11.3293
12.1531
11.5169
14.6402
13.4662
15.9488
15.3995
16.9923
16.4543
18.0728
17.2457
19.8208
18.9298
21.1164
20.1248
22.4271
21.2631
25.4886
23.8716
28.939
27.4112
33.204
33.4797
33.4242
33.6164
32.1583
32.1758
32.4232
32.7697
32.7001
32.1699
32.0888
32.2369
35.5001
33.9304
32.6544
31.9429
38.078
36.4271
34.5776
40.2007
39.9784
37.6803
37.2934
38.9835
40.3902
40.2318
40.8825
40.5284
40.86
36.1006
34.9429
39.8052
41.526
42.1764
39.5848
27.777
33.438
31.9569
28.7717
4.35797
37.2788
26.2537
30.8758
36.2888
1.013
0.997386
1.05615
1.13064
1.24558
1.46581
1.70269
1.81211
1.80665
1.72748
1.69333
2.40132
5.84378
9.45977
10.2384
10.074
9.39809
9.28943
9.61602
10.2379
10.6254
10.0181
7.35878
4.31116
3.45183
4.395
8.08734
11.2704
12.1824
12.5081
12.0238
11.9564
13.6418
12.6655
15.1981
14.5076
16.4967
15.8343
17.5376
16.7005
19.2276
18.3796
20.2848
19.4564
21.8051
20.3513
25.4107
23.4749
33.0221
32.1541
31.7047
36.6437
37.4092
37.6987
37.7345
32.7745
33.6261
34.6347
35.6859
31.8181
32.0019
32.7522
33.8691
32.9304
31.8376
31.5484
31.6598
35.7477
33.7574
32.1747
40.0917
38.9096
35.1825
34.8805
37.0568
40.9222
41.4735
41.4504
40.2853
42.2217
38.7745
37.4692
42.5352
43.1215
44.077
42.236
29.5824
35.9313
34.3715
31.0384
16.6778
41.9297
44.364
32.4585
39.9027
1.01729
1.03952
1.11037
1.21793
1.41402
1.65495
1.80183
1.81551
1.75597
1.67294
1.95399
4.50451
8.84546
10.1169
10.0062
9.12663
9.0145
9.36393
10.0238
10.3641
9.39874
6.53449
3.95712
3.02699
3.23361
5.17672
9.28072
12.6288
13.2236
13.7468
12.6211
12.8565
13.1357
12.6639
14.5295
13.8098
15.9186
15.2254
17.2806
16.5322
18.7236
18.012
19.451
18.8649
22.2266
19.9999
28.5071
25.1177
37.1435
36.009
38.4499
36.0583
41.2101
42.0782
42.2369
42.3817
35.2723
36.86
38.4672
39.9549
32.4154
33.6596
35.2978
37.1777
31.4707
31.4077
31.9569
33.1865
33.1895
31.8611
31.5212
38.9717
37.023
32.9829
33.2179
34.8948
40.6594
42.1768
41.2957
39.2449
43.1558
41.3145
39.9884
44.737
44.3516
45.5064
44.5794
31.4925
38.3145
36.4512
33.1589
46.073
53.2071
75.2013
34.2253
43.1683
1.0392
1.09495
1.1948
1.37045
1.604
1.77472
1.81586
1.77903
1.67186
1.72179
3.27308
7.61105
9.90504
9.98834
8.99422
8.74874
9.05804
9.63905
9.81611
8.40416
5.69187
3.85596
2.97475
2.75724
3.38506
5.51683
9.04566
14.0115
12.2574
14.7198
14.6206
13.9258
14.4107
13.5955
13.6227
14.5012
13.9336
15.8114
15.1457
17.4498
16.8824
18.4057
17.9561
18.6161
18.1916
24.9068
20.8461
34.093
31.5877
29.1894
41.4706
40.147
40.8196
38.3131
45.8287
46.5215
46.1769
46.6399
39.1562
41.1467
42.9956
44.5866
34.8585
36.8691
39.0576
41.2988
31.6857
32.7025
34.2707
36.2617
32.1156
31.9821
32.4881
37.2378
35.1922
32.6913
33.4809
33.87
39.8085
42.3224
40.7899
37.8167
43.7495
43.7305
42.3446
46.4911
45.3774
46.8768
46.8122
32.9794
40.3461
38.1862
34.7677
98.1663
62.8538
97.8762
34.794
42.1314
1.0841
1.18056
1.33427
1.55459
1.73677
1.81093
1.79229
1.68641
1.62889
2.364
5.89853
9.47827
9.95514
9.01095
8.4321
8.75416
9.17257
9.1428
7.48918
5.50538
4.01287
3.06885
2.70126
2.69517
3.4429
5.04228
6.31452
13.4585
9.63404
15.6717
15.0706
15.7185
15.814
15.1859
15.4429
15.2928
15.1175
16.2964
15.7444
17.8128
17.5814
18.0667
17.9689
18.1976
17.2148
28.0404
25.726
23.146
35.8269
33.4608
29.6744
31.9921
44.9724
43.128
42.449
39.3863
50.0327
50.4804
49.536
50.3984
43.4806
45.5442
47.3925
48.9205
38.5138
40.879
43.2589
45.5594
33.7969
35.6492
37.8623
40.2805
32.7002
33.5219
35.1735
35.8796
34.7276
33.5875
34.6263
34.4028
38.892
42.3113
40.5325
37.092
44.2376
46.1571
44.5259
48.5627
46.4628
48.9253
49.3786
33.5216
42.3655
39.8832
35.9279
83.34
59.1279
96.7699
34.1832
38.1169
1.16769
1.31064
1.50599
1.6981
1.79416
1.79442
1.71222
1.59911
1.83886
4.18346
8.50706
9.83881
9.13834
8.21718
8.39452
8.71427
8.42386
6.82165
5.59271
4.55818
3.46921
2.81132
2.59069
2.62308
3.16092
3.55686
5.07499
3.73341
10.4446
6.94174
15.7695
13.8383
16.8265
16.5392
16.853
16.8835
16.8724
16.8253
17.3122
17.0559
17.8121
17.8972
17.3003
17.5898
18.6069
16.2929
28.2016
26.4333
25.1299
23.1357
36.4848
33.9941
29.8469
31.7016
47.8174
45.3843
43.2728
39.5583
53.8563
54.1051
52.4673
53.8143
47.7169
49.6978
51.468
52.9057
42.7535
45.2008
47.5592
49.8036
37.3432
39.7453
42.2844
44.87
34.7963
36.8626
39.371
35.9014
35.5574
36.1782
37.6273
36.0017
38.7911
42.6084
40.9485
37.5908
45.3249
48.7963
47.2356
51.5322
48.7208
52.7593
52.764
33.3647
44.7154
41.1795
36.511
44.4513
50.0494
54.6556
32.6632
34.3263
1.28651
1.47478
1.64807
1.7717
1.79017
1.73339
1.59552
1.60488
2.84047
6.74716
9.50515
9.30055
8.21993
7.96412
8.25637
7.8554
6.5094
5.7517
5.15245
4.36102
3.28694
2.66446
2.42081
2.44512
2.63781
2.84175
3.88037
3.26048
6.76432
4.88271
13.3466
9.8322
16.7968
15.7475
17.5417
17.2914
17.7596
17.675
17.8872
17.8321
16.8199
17.252
15.6131
16.1356
21.2139
18.7019
16.12
28.1557
26.691
25.2038
23.5938
36.3989
33.8341
29.6107
31.1747
50.1642
46.9946
43.5651
39.1894
57.6867
57.7594
55.2273
57.0535
51.9702
53.9462
55.6595
56.9939
47.3908
49.7983
52.1513
54.4255
42.0118
44.7301
47.4398
50.0893
38.6091
41.5549
44.6742
37.2508
37.8441
40.4254
42.7404
39.7677
39.9444
43.9918
43.2653
39.6897
48.3688
52.6357
50.5036
56.157
53.9341
59.2812
58.0365
33.0031
46.801
42.7453
37.2695
67.13
38.8798
79.3322
31.562
33.0961
1.42737
1.62003
1.73224
1.77922
1.74516
1.60549
1.51349
2.01601
4.78752
8.68811
9.30115
8.35326
7.70195
7.74842
7.41926
6.34088
5.85728
5.55042
5.09674
4.26894
2.98267
2.44434
2.25006
2.2567
2.38628
2.58262
3.39428
3.05248
4.74736
3.91597
8.4417
6.14809
14.2103
11.4511
16.8205
15.952
17.477
17.2503
17.4745
17.5518
13.6498
14.4947
14.1424
13.4744
21.8058
19.6515
16.8029
18.9437
27.9572
26.6551
25.4414
23.9978
35.6502
33.1066
29.2119
30.4706
52.2704
48.2451
43.8896
38.582
61.627
61.4761
57.9129
60.3319
56.5534
58.4666
60.0657
61.2311
52.5783
55.0117
57.3601
59.5755
47.8151
50.7951
53.6191
56.2666
43.8062
47.537
51.4293
40.3738
42.0993
46.5102
48.9029
44.8486
43.1385
48.3295
49.1793
43.9165
55.5821
56.854
53.3534
62.9596
62.5635
67.5153
62.9459
33.2239
48.9966
43.8335
38.1775
56.2209
43.6388
89.3293
31.8385
34.872
1.55938
1.70921
1.75411
1.7454
1.63253
1.48689
1.61089
3.16066
6.97054
9.12301
8.66117
7.69731
7.31924
7.04263
6.22502
5.89307
5.76153
5.58447
5.08819
3.94431
2.67548
2.25993
2.0719
2.10438
2.2436
2.5498
2.83866
2.33853
3.1593
3.93643
3.49371
5.4775
4.55938
8.77484
6.8618
12.8162
10.9425
14.8272
14.0894
14.9481
15.0996
11.1809
10.6179
14.911
12.3413
22.4561
20.7677
18.1715
19.9551
27.9784
26.7718
26.008
24.6136
34.4125
32.0657
29.074
30.0125
54.2671
49.5338
44.3126
38.245
65.8492
65.2888
60.596
63.5575
61.6023
63.3882
64.826
65.6893
58.8319
61.2342
63.4973
65.5741
55.1248
58.4917
61.4798
64.2249
51.0213
55.92
60.8284
45.6712
48.9
54.2827
60.5377
53.7203
50.7232
57.6424
59.9743
53.0701
65.8024
60.0786
55.6965
68.4438
71.856
73.8663
66.33
34.1456
50.316
45.3966
39.3061
57.4745
49.4463
64.3123
33.6638
37.6986
1.65543
1.73843
1.73811
1.65653
1.4874
1.43214
2.119
4.93733
8.47391
8.71762
7.84719
7.18394
6.75021
6.10259
5.88816
5.84948
5.86146
5.65274
4.98454
3.51075
2.41323
2.03452
1.94245
2.00855
2.09638
2.71021
2.4262
2.27235
2.96973
3.58372
3.24644
4.44253
3.96772
5.7841
5.03574
7.76654
6.70804
9.57239
8.78245
10.329
10.0547
12.0028
9.89505
18.5248
16.8438
15.4908
23.139
21.5846
19.9226
21.3039
28.465
27.3209
27.0696
25.6234
33.3849
31.1811
29.3745
30.0889
56.2081
50.8196
44.8795
38.3444
70.4492
69.3605
63.4395
66.9734
67.4337
69.0057
70.1367
70.5514
66.8495
69.1943
71.2723
73.0754
65.259
69.2114
72.5689
75.4697
60.7363
67.8733
74.9896
57.2757
64.0624
69.384
86.6862
73.5577
63.4299
69.278
75.24
70.0045
77.0578
62.5758
57.8465
73.1664
81.0394
82.7673
70.9098
36.4975
53.0691
48.9685
41.7878
52.0115
50.2422
54.616
36.2214
41.9239
1.6998
1.72788
1.67149
1.50296
1.36915
1.58564
3.20599
6.74713
8.5427
8.15041
7.22669
6.6451
6.05117
5.8504
5.86078
5.99009
6.00597
5.65517
4.75341
2.97379
2.0878
1.89102
1.84226
1.90394
2.01404
2.62671
2.36463
2.22249
2.82876
3.36231
3.08187
4.04654
3.68771
4.89464
4.44566
5.89231
5.37087
7.07559
6.46316
8.76722
7.86117
15.8061
12.9475
19.6939
18.2421
17.0175
18.5216
24.1626
22.7191
21.0794
22.4639
29.6105
28.4478
28.668
27.0672
33.0348
31.0488
30.4069
30.8595
58.2244
52.2912
45.763
38.7393
75.7046
73.9272
66.7045
70.7986
74.6119
75.8031
76.3663
76.4102
78.1254
80.3142
82.0657
83.3729
81.1854
86.0267
90.059
93.0973
79.2709
89.9568
102.653
80.4141
97.9668
105.753
156.1
120.802
87.0742
85.9158
102.898
110.137
92.8171
67.0981
63.8246
82.836
97.9321
103.854
80.3375
38.6297
59.0785
52.3037
44.1764
50.1111
49.2549
53.8642
40.3778
44.2365
1.69874
1.67533
1.53344
1.35937
1.34519
2.08185
4.69123
7.85489
8.18331
7.4816
6.66852
6.06443
5.80581
5.84833
6.00902
6.17025
6.09943
5.59609
4.26858
2.39342
1.90772
1.75037
1.7766
1.83243
1.9524
2.16614
2.52736
2.31068
2.73068
3.21285
2.95294
3.82778
3.50198
4.5769
4.18806
5.48642
5.00621
6.72339
6.04419
9.98093
7.8752
18.0854
17.5616
16.0709
14.5397
21.0055
19.7665
19.3217
25.4492
23.8892
22.2677
23.6564
31.1864
30.0807
30.4645
28.8145
33.2036
31.5377
31.8242
32.1041
60.5473
54.1943
47.2642
39.7638
82.1332
79.8056
70.8511
75.3757
84.2572
84.6339
84.6772
83.8793
95.917
98.0593
99.4091
99.863
111.454
118.931
122.796
126.593
129.133
164.497
208.277
149.512
184.895
198.316
205.189
195.679
140.204
113.496
153.232
180.764
124.469
81.322
73.1449
102.589
147.809
148.399
108.207
42.8676
64.191
60.3548
49.4432
51.4559
49.527
55.0456
43.1693
47.1408
1.66752
1.55692
1.36807
1.25057
1.50599
3.00257
6.07348
7.94372
7.70739
6.84439
6.12157
5.80714
5.80504
5.99077
6.20334
6.3323
6.13127
5.37695
3.44165
2.01716
1.73982
1.68384
1.71592
1.78303
1.97968
2.13085
2.09457
1.85911
2.46654
2.26174
2.64668
3.09867
2.8597
3.68108
3.37228
4.41935
4.03058
5.41284
4.86513
7.22353
6.06693
11.9374
9.34869
18.6611
17.6477
16.5141
14.7915
21.83
20.5575
19.8318
27.0711
25.2314
23.2002
24.8253
32.6593
31.6913
31.8137
30.3248
33.9032
32.4744
33.1554
33.3319
63.4436
56.8685
49.821
41.8188
90.817
87.9491
76.5599
81.5296
99.1647
97.5881
96.5657
94.4706
129.832
131.61
133.021
132.399
207.797
222.783
221.876
221.542
203.075
213.069
455.337
177.217
471.415
469.823
454.163
481.045
199.701
164.374
214.833
472.765
197.923
91.5791
81.139
154.124
202.912
198.087
118.235
45.8878
77.7681
66.2858
53.5167
67.4721
49.3303
67.2201
47.43
48.3082
1.57887
1.38722
1.22993
1.24373
1.92616
4.13285
7.01055
7.67464
7.18282
6.2927
5.83673
5.76278
5.92784
6.18292
6.40746
6.47372
6.09705
4.8648
2.49242
1.78953
1.63818
1.63774
1.66624
1.74723
2.0657
1.93458
2.22557
1.85232
2.40921
2.58317
3.00773
2.78086
3.56824
3.26735
4.31547
3.91602
5.43849
4.79541
7.53375
6.19967
12.3027
9.75775
18.7592
17.6209
16.5672
16.3669
14.869
13.6784
22.4968
21.1171
19.9694
28.6974
26.6834
24.062
25.939
33.6827
32.7934
32.6386
31.2446
34.9554
33.5527
34.1154
34.3518
67.4379
60.7823
54.2021
45.7157
103.829
99.9635
84.9905
90.5946
127.008
119.083
113.997
111.875
218.924
210.711
207.82
196.456
461.688
453.453
456.331
448.832
480.881
442.808
845.531
472.741
895.631
881.952
860.798
905.049
480.879
214.113
482.198
895.3
498.541
105.652
106.112
146.831
491.782
481.218
154.716
52.2529
86.3509
80.755
62.7931
35.19
50.852
98.6417
50.0461
50.5013
1.43097
1.23167
1.13751
1.38028
2.62551
5.14683
7.26135
7.2735
6.67288
5.94189
5.75722
5.82456
6.11024
6.39754
6.61909
6.53128
5.87778
3.88088
1.97408
1.64356
1.57822
1.59165
1.63748
1.71943
2.18829
2.04571
1.91597
2.36477
1.82708
2.52858
2.93328
2.71873
3.47066
3.1809
4.22264
3.81327
5.40519
4.7382
7.55342
6.18097
12.1037
9.75432
18.6944
17.249
15.7054
13.9451
13.2704
22.9202
21.3868
19.9807
29.8665
27.9642
24.7369
26.9145
34.5245
33.6023
33.8141
32.2242
36.6568
34.7497
34.9715
35.4616
73.4954
66.7775
61.6901
52.9695
126.154
118.403
97.8493
104.439
188.902
170.846
142.88
141.513
450.688
442.523
444.357
442.752
851.637
822.485
826.689
810.636
898.163
820.157
2465.38
886.047
2522.7
2496.92