/*--------------------------------*- C++ -*----------------------------------*\
  =========                 |
  \\      /  F ield         | OpenFOAM: The Open Source CFD Toolbox
   \\    /   O peration     | Website:  https://openfoam.org
    \\  /    A nd           | Version:  dev
     \\/     M anipulation  |
\*---------------------------------------------------------------------------*/
FoamFile
{
    version     2.0;
    format      ascii;
    class       volScalarField;
    location    "2500";
    object      p_rgh;
}
// * * * * * * * * * * * * * * * * * * * * * * * * * * * * * * * * * * * * * //

dimensions      [1 -1 -2 0 0 0 0];

internalField   nonuniform List<scalar> 
9842
(
0.00465192
0.00619212
0.00538299
0.00643268
0.00881801
0.00450408
0.00607108
0.0105155
0.00904426
0.00346924
0.00579988
0.0108317
0.011562
0.00817284
0.00303592
0.0053157
0.0109284
0.0137661
0.0110045
0.00638456
0.00240842
0.00460384
0.00990756
0.0142352
0.0137852
0.0102895
0.00547414
0.00172679
0.00453648
0.00994612
0.014489
0.0155448
0.0130888
0.00875825
0.00479439
0.00138736
0.00429899
0.00927396
0.0134861
0.0161774
0.0151658
0.0115885
0.00726059
0.00391248
0.000863201
0.00372751
0.00799446
0.0131088
0.0164685
0.0165958
0.0139507
0.0103011
0.00636243
0.00335586
0.00059671
0.00354944
0.00805261
0.0126366
0.0159086
0.0174405
0.0158206
0.0124985
0.00862341
0.00546092
0.00270961
6.64188e-05
0.00319386
0.00710828
0.011274
0.015051
0.0177153
0.0173492
0.0147488
0.0111458
0.0076017
0.00453083
0.00221603
-0.000170806
0.00296839
0.00660912
0.010967
0.0145141
0.0177423
0.0181348
0.0163183
0.0133816
0.00964144
0.00661483
0.0039125
0.00164824
-0.000523954
0.00318866
0.00613747
0.0100946
0.0134657
0.0169788
0.0184678
0.0177289
0.0151653
0.0115302
0.00825679
0.00577159
0.00326857
0.00116275
-0.000962954
0.00304445
0.00602621
0.00910539
0.0127826
0.0161167
0.0185154
0.0183854
0.0167089
0.0134067
0.0100621
0.00754116
0.00509021
0.00273463
0.000733269
-0.00122681
0.00296728
0.00566407
0.00801237
0.0120848
0.0147129
0.0181429
0.0188605
0.017754
0.0150025
0.0116502
0.00895659
0.00638547
0.00431596
0.00227431
0.000273333
-0.00158659
0.00285682
0.00532391
0.00785053
0.0112477
0.0135536
0.0175578
0.0188433
0.0184128
0.0163769
0.0134988
0.0104447
0.00791479
0.00575798
0.00371201
0.00171489
-0.000172131
-0.0019727
0.00273145
0.005081
0.00760284
0.0102024
0.0129105
0.0166012
0.0185601
0.0188335
0.0173664
0.0150427
0.011688
0.00928892
0.00688855
0.00498173
0.00312399
0.00124119
-0.000560543
-0.00229147
0.00259692
0.00481041
0.00696721
0.00934969
0.0121662
0.015627
0.0181645
0.0189413
0.0181757
0.016196
0.0130865
0.0104547
0.00825191
0.00623797
0.00430093
0.00255053
0.00074415
-0.000996001
-0.00258378
0.00247825
0.00456865
0.00668805
0.00901283
0.0114643
0.0145632
0.017378
0.0187784
0.0186837
0.017238
0.0143705
0.0115371
0.0092518
0.00720805
0.00542367
0.00364707
0.00199768
0.000240524
-0.00146494
-0.00301524
0.00236869
0.00440066
0.00623092
0.00832462
0.0102716
0.0133931
0.016437
0.0183266
0.0187724
0.0178833
0.0156687
0.0128509
0.0103795
0.0082846
0.00647333
0.0047717
0.00304486
0.00144395
-0.000231084
-0.00177118
-0.00332572
0.0021174
0.00417396
0.00588404
0.00775382
0.00970598
0.0121154
0.0152999
0.0176631
0.0186523
0.0182088
0.0165886
0.0141461
0.0114094
0.00916715
0.00730643
0.0056398
0.0040763
0.0024272
0.000916911
-0.000721364
-0.00216062
-0.00357491
0.00211913
0.00402461
0.00541614
0.00729967
0.00909404
0.0108008
0.0145397
0.0168317
0.0182506
0.0184587
0.0172094
0.0150123
0.012461
0.0101671
0.0082302
0.00647827
0.00500013
0.00343525
0.0019246
0.000339682
-0.00112735
-0.00266665
-0.00389496
0.0020184
0.00361251
0.00515809
0.00680779
0.00833172
0.0104519
0.0135348
0.0159696
0.0176176
0.0183724
0.0177422
0.015968
0.0134782
0.0110458
0.00893686
0.00732313
0.00567872
0.00432136
0.00278373
0.00137177
-9.73509e-05
-0.00162452
-0.00303524
-0.00421015
0.00192383
0.00352803
0.00508017
0.00646702
0.00795811
0.00990962
0.0123974
0.0148461
0.0170428
0.0180964
0.0179666
0.0165637
0.0143914
0.011931
0.00969686
0.00791584
0.00643205
0.00499862
0.00361026
0.00225969
0.000748235
-0.000602614
-0.00201553
-0.00335624
-0.00452497
0.00174314
0.00329559
0.00479334
0.00599887
0.00756132
0.00903518
0.011472
0.013924
0.0164453
0.0175082
0.0179761
0.0169844
0.0151223
0.0127668
0.0105451
0.00858081
0.00694065
0.00550366
0.0042105
0.00291179
0.0015701
0.000324805
-0.00105792
-0.002389
-0.00366327
-0.00488545
0.00164713
0.00320731
0.00458407
0.00582845
0.00720908
0.00858706
0.0107778
0.0128812
0.0154177
0.0170597
0.0178127
0.0172372
0.015651
0.0134991
0.0112544
0.00924182
0.00755113
0.0060547
0.00474455
0.00352302
0.00234535
0.00101575
-0.000229358
-0.00146465
-0.00274493
-0.00393297
-0.00505579
0.00156606
0.00308726
0.00434179
0.00544473
0.00678467
0.00794174
0.00979195
0.0116634
0.0140698
0.0165138
0.0173969
0.0173458
0.0161141
0.0141313
0.0119159
0.00988498
0.00807065
0.00660221
0.00522872
0.00398395
0.00280899
0.00168043
0.000369656
-0.00069061
-0.0019128
-0.00313025
-0.00422603
-0.00527623
0.00155707
0.00296768
0.00408291
0.00524897
0.00648956
0.00764446
0.00911227
0.0106975
0.0135612
0.0158427
0.0169376
0.0171961
0.0164466
0.0146675
0.0124712
0.0103901
0.00856433
0.00695334
0.00566934
0.00439763
0.00328708
0.00216246
0.00103728
-6.88478e-05
-0.00120113
-0.00219908
-0.00337145
-0.00443019
-0.00543018
0.00146562
0.00276762
0.00393635
0.00495958
0.00599678
0.00715682
0.00869065
0.0104226
0.01285
0.0147617
0.016396
0.0169152
0.016538
0.0151925
0.0131984
0.0110555
0.00908838
0.00747578
0.0059559
0.00477437
0.00355375
0.00247389
0.00154129
0.000427664
-0.000490003
-0.00151185
-0.00256234
-0.00360689
-0.00465727
-0.00551135
0.00136551
0.00261579
0.00373975
0.00471656
0.00575891
0.00700068
0.00837498
0.0097961
0.0118733
0.0139805
0.0157388
0.0165635
0.0164664
0.0155038
0.0137079
0.0115944
0.00958496
0.0077857
0.00633174
0.00500419
0.0038783
0.00276038
0.00182809
0.000828613
-0.000121653
-0.00102491
-0.00195298
-0.00289162
-0.00370667
-0.00470882
-0.00549266
0.00122502
0.00246701
0.00348359
0.00456827
0.00562968
0.00680567
0.00783096
0.0093033
0.0109363
0.0132284
0.0150246
0.0161198
0.0163143
0.0156518
0.0141765
0.0121804
0.0100927
0.0082534
0.00671389
0.00529183
0.0040693
0.00305106
0.00203698
0.00111304
0.000186725
-0.000670617
-0.00144755
-0.00223956
-0.00304769
-0.00378414
-0.00464931
-0.00546561
0.00114163
0.00236411
0.00336263
0.00438556
0.00540711
0.00651532
0.00761928
0.0089852
0.0102543
0.0124996
0.0143255
0.0155892
0.0160718
0.0157
0.0144697
0.0126201
0.0106087
0.00877201
0.00700957
0.00555998
0.00421721
0.00308779
0.00205165
0.00110637
0.000297236
-0.000431315
-0.00115766
-0.00178228
-0.00245642
-0.00305586
-0.00373102
-0.00435438
-0.00517459
0.00107839
0.00225699
0.00327702
0.00427297
0.00524808
0.00618042
0.007316
0.00848786
0.00977093
0.0118303
0.0136318
0.0150396
0.015733
0.0156252
0.0147241
0.0130624
0.0111189
0.00907778
0.00736662
0.00583109
0.00445025
0.00320044
0.00210671
0.00114286
0.000318806
-0.000376012
-0.000983764
-0.001518
-0.00201038
-0.00253238
-0.00301803
-0.00350172
-0.00410513
-0.0056105
-0.00501411
0.000973023
0.00211902
0.00311853
0.00408562
0.00503528
0.00604268
0.00711486
0.00821057
0.00929742
0.0109393
0.0130261
0.0144378
0.0153344
0.0154437
0.014818
0.0134613
0.0115987
0.00954461
0.00770727
0.00610847
0.00467493
0.00333646
0.00215158
0.00110648
0.000224771
-0.000485648
-0.0010255
-0.00144843
-0.00179524
-0.00211642
-0.00240949
-0.00279188
-0.00345245
-0.00442924
-0.00390672
-0.00535667
-0.00481377
0.000874528
0.00200324
0.00302343
0.00395647
0.0049926
0.00589521
0.00683653
0.00796009
0.00901711
0.0103458
0.0124072
0.0139343
0.0149114
0.0152462
0.0147971
0.013634
0.0119275
0.00999221
0.00808829
0.00642479
0.00492097
0.00351596
0.00220466
0.00106155
6.75798e-05
-0.000718432
-0.00127064
-0.00161665
-0.00181822
-0.00195054
-0.00204061
-0.00220845
-0.00303147
-0.00270023
-0.00341148
-0.00327388
-0.00295665
-0.0042513
-0.00366844
-0.00511032
-0.00449328
0.000780636
0.00185414
0.00289208
0.00375872
0.00487029
0.00575481
0.00663547
0.00776417
0.00876569
0.0100008
0.0119377
0.013422
0.0144959
0.0149716
0.014725
0.0137763
0.0122118
0.010383
0.00848343
0.00676444
0.00520384
0.00373014
0.00233711
0.00105123
-0.000107305
-0.0010336
-0.00167697
-0.00202628
-0.00212491
-0.00206544
-0.00194208
-0.00187414
-0.00233087
-0.00210362
-0.00289852
-0.00314405
-0.00255991
-0.00264562
-0.00393976
-0.00331685
-0.00472754
-0.0041741
0.000660278
0.00168381
0.00272543
0.00360028
0.00474886
0.00556265
0.00651459
0.00747231
0.00867047
0.00981242
0.0115334
0.0130319
0.0141069
0.0146885
0.0146228
0.0138469
0.0124719
0.0107195
0.00885977
0.00710878
0.00551981
0.00399638
0.00251171
0.00107467
-0.000246111
-0.00137662
-0.00219592
-0.00264165
-0.00272369
-0.00251786
-0.00215256
-0.00181671
-0.00188453
-0.00181458
-0.0025115
-0.00220198
-0.00221778
-0.00275327
-0.00220402
-0.00224478
-0.00353605
-0.00289598
-0.00438111
-0.00372509
0.000536804
0.00155491
0.00263769
0.00358124
0.00454099
0.00553859
0.00652536
0.00745801
0.00864188
0.00964166
0.0110443
0.0126696
0.0137842
0.0144498
0.0145228
0.0139102
0.0126694
0.0110148
0.00919715
0.00744883
0.00584908
0.00431711
0.00277518
0.00120642
-0.000294441
-0.00167972
-0.00276434
-0.00341698
-0.00358401
-0.00332216
-0.00274421
-0.00209749
-0.00174146
-0.00181616
-0.00195543
-0.00179666
-0.00191024
-0.00165709
-0.00182207
-0.00230759
-0.0017852
-0.00177927
-0.00305463
-0.00239445
-0.00393189
-0.00324398
0.000476863
0.00150498
0.00245681
0.00341882
0.00439011
0.00549683
0.00636178
0.0073901
0.00847316
0.00943732
0.0107323
0.0123407
0.0135131
0.014239
0.0144288
0.0139426
0.0128474
0.0112708
0.00950067
0.00776353
0.00617804
0.00467295
0.00312815
0.00150059
-0.000187651
-0.00186456
-0.0032987
-0.00428238
-0.00466746
-0.00446129
-0.00376055
-0.00280547
-0.00189252
-0.00215685
-0.00170659
-0.00173405
-0.00145981
-0.00132749
-0.00149139
-0.00121662
-0.00138413
-0.00178804
-0.00129949
-0.00124253
-0.00254026
-0.00185072
-0.00343529
-0.00271282
0.000365489
0.00131342
0.00233386
0.00321986
0.00430461
0.00536211
0.00632745
0.00732502
0.0082995
0.00940284
0.0106586
0.0120223
0.0132723
0.0140799
0.014365
0.0140058
0.0130191
0.0115109
0.00976051
0.00804784
0.00647799
0.00503409
0.0035565
0.00192062
8.04866e-05
-0.00184607
-0.00369291
-0.00514303
-0.00591818
-0.00589811
-0.00519782
-0.00401708
-0.00248156
-0.00300353
-0.00183142
-0.00205911
-0.001268
-0.00130359
-0.00100604
-0.000860627
-0.00104062
-0.000746041
-0.000879255
-0.00121984
-0.000747159
-0.000654298
-0.00197617
-0.00125495
-0.00289538
-0.00213668
0.000249869
0.00118492
0.00217767
0.00312981
0.00418533
0.00517824
0.00618962
0.00710358
0.00830266
0.00944728
0.0105847
0.0118683
0.0131362
0.0139941
0.0143539
0.014118
0.0132259
0.0117604
0.00998917
0.00825805
0.0067269
0.00535174
0.00401836
0.00245919
0.000598861
-0.00153788
-0.00381421
-0.00585548
-0.0072379
-0.007622
-0.00704655
-0.00576225
-0.00360085
-0.00444358
-0.00237564
-0.00287829
-0.00142706
-0.00168171
-0.00079487
-0.000817393
-0.000517149
-0.000353462
-0.000520126
-0.000203196
-0.000310084
-0.000600024
-0.000143091
-1.63882e-05
-0.00136326
-0.000611046
-0.00231852
-0.0015187
0.000200234
0.00108352
0.00200601
0.00296902
0.00391445
0.00491757
0.00608327
0.00715419
0.00835317
0.00942645
0.0105677
0.0117772
0.0130238
0.0139682
0.0144134
0.0142735
0.0134426
0.0120324
0.0102252
0.00840263
0.00684592
0.00558641
0.00441644
0.00311322
0.00140676
-0.000848985
-0.0035154
-0.00622147
-0.00842442
-0.00956794
-0.00933682
-0.00799318
-0.005348
-0.00651843
-0.00350571
-0.00434695
-0.0020255
-0.0025269
-0.00093825
-0.00117529
-0.000268133
-0.000259332
5.13669e-05
0.00025099
6.94668e-05
0.000417938
0.000315311
6.53145e-05
0.000512279
0.000667584
-0.00070396
7.69302e-05
-0.00171407
-0.000865552
0.000110663
0.000877055
0.00177925
0.00275903
0.00372592
0.00483441
0.00593576
0.0070824
0.00824315
0.0093993
0.0105644
0.0117529
0.0130437
0.0140076
0.0145351
0.014505
0.0137539
0.0123507
0.0104686
0.00851127
0.00684445
0.00560564
0.00469519
0.00378619
0.00242204
0.000283994
-0.00263341
-0.00601835
-0.00918058
-0.0113841
-0.0119859
-0.0107319
-0.00773012
-0.00915792
-0.00531905
-0.00650402
-0.0032011
-0.00406483
-0.00152339
-0.00200894
-0.000323601
-0.000460321
0.000399588
0.000565673
0.000729253
0.00106804
0.000731393
0.00116125
0.00100873
0.000773791
0.00123042
0.00140545
-5.99412e-06
0.000804314
-0.00109623
-0.000189244
5.70892e-05
0.000742183
0.00153782
0.00245304
0.00350092
0.00453339
0.00575202
0.00701475
0.00816862
0.00937422
0.0105631
0.0117585
0.0131143
0.0141422
0.0147409
0.0148105
0.0141616
0.0127732
0.010777
0.00859219
0.00674048
0.00544478
0.00479042
0.00433268
0.00355463
0.00189749
-0.000932574
-0.00490351
-0.00909903
-0.0124591
-0.0140475
-0.0135384
-0.0103137
-0.0131367
-0.00774411
-0.00903066
-0.0049822
-0.00596122
-0.00252941
-0.00301139
-0.000524166
-0.000221268
0.00089696
0.00187668
0.00161919
0.00294347
0.00173842
0.00298347
0.00154036
0.00242013
0.00186677
0.0015301
0.0021161
0.00229016
0.000722338
0.00157405
-0.000487997
0.000493474
3.51424e-05
0.000616583
0.00132858
0.0021679
0.00317895
0.00422808
0.0055216
0.00665582
0.00806764
0.00929622
0.0105659
0.0117848
0.0131772
0.0143375
0.0150292
0.0152015
0.0146769
0.0133371
0.0112404
0.008767
0.00655187
0.00517294
0.00472773
0.00481402
0.00487665
0.00416316
0.00183999
-0.00215576
-0.00735873
-0.0115794
-0.0132913
-0.0125287
-0.00869987
-0.0100593
-0.00841445
-0.00673276
-0.00696181
-0.00310633
-0.00226266
0.000959803
0.00397777
0.00444672
0.010459
0.00634195
0.0143667
0.006304
0.0146087
0.00473417
0.0114287
0.00309184
0.00685054
0.0036453
0.00239532
0.00399471
0.00404418
0.00147222
0.00240999
6.95586e-05
0.00115538
4.09231e-05
0.000514181
0.00112907
0.00190519
0.00285068
0.00394258
0.00520388
0.00644398
0.00790078
0.00919073
0.0105319
0.0118101
0.0132899
0.0145371
0.0153657
0.0156787
0.0153005
0.0140502
0.0118947
0.00915274
0.0065436
0.00496043
0.0046971
0.00571013
0.0069845
0.00764134
0.00649384
0.00317052
-0.00103796
-0.00380733
-0.00365915
0.000180382
0.00972756
0.0103408
0.0224144
-0.00566469
7.44547e-05
0.000320178
0.00726232
0.0105317
0.0224579
0.0229461
0.0431032
0.0311701
0.0607257
0.0329747
0.0694752
0.0284794
0.0646061
0.0183675
0.0480491
0.00908821
0.0266628
0.010846
0.00385013
0.0116558
0.0109386
0.00224694
0.00353528
0.00052019
0.00174432
6.43119e-05
0.000438497
0.000945949
0.00164678
0.0025209
0.00358033
0.00470692
0.00609573
0.00755718
0.0090133
0.0104043
0.0118097
0.0133414
0.0147282
0.0157239
0.0162078
0.0160249
0.014922
0.0127719
0.00979439
0.00686478
0.00515515
0.0055334
0.0082226
0.0116964
0.0144352
0.0150166
0.0137048
0.0149536
0.022186
0.0307901
0.0369909
0.0478143
0.0419095
0.063297
0.0476117
0.0661912
0.0173578
0.031582
0.0375691
0.0558688
0.0670409
0.0923377
0.0968376
0.133757
0.118346
0.170615
0.125427
0.193708
0.109686
0.194586
0.0719592
0.162969
0.0348706
0.0973944
0.0409893
0.00898033
0.0431525
0.0394927
0.00310874
0.00656657
0.000772955
0.00230638
7.99712e-05
0.000376469
0.000796162
0.00140367
0.00217255
0.00316234
0.00428901
0.00572929
0.00713826
0.00871493
0.0101823
0.0117142
0.0133439
0.0148624
0.0160459
0.0167494
0.0168127
0.01594
0.0138994
0.0107902
0.00764934
0.00628772
0.00863903
0.0147233
0.0223992
0.0280881
0.0307146
0.0338348
0.0461995
0.0734415
0.0970642
0.103973
0.100899
0.0911194
0.108308
0.0853993
0.109719
0.111044
0.12971
0.0745581
0.0929686
0.116734
0.140493
0.168657
0.200545
0.22045
0.26492
0.26046
0.321601
0.28116
0.360524
0.271378
0.373267
0.218686
0.347229
0.120029
0.270495
0.135424
0.0307001
0.139381
0.128613
0.00461397
0.0193939
0.000790843
0.00298821
3.70397e-05
0.000269336
0.000644361
0.00116346
0.00179959
0.00270812
0.0038973
0.00523126
0.00666473
0.00829878
0.00983297
0.011562
0.0132745
0.0149049
0.0162951
0.0172594
0.0175951
0.0170518
0.0152396
0.0121858
0.00910146
0.00876324
0.0145682
0.0255012
0.0362956
0.0429949
0.0477914
0.056607
0.0816771
0.125014
0.169926
0.194692
0.190702
0.184073
0.129927
0.171275
0.14872
0.170637
0.198707
0.215831
0.161962
0.181088
0.228821
0.254037
0.303586
0.336419
0.374492
0.418276
0.429837
0.488364
0.462902
0.537435
0.462677
0.558735
0.416628
0.542625
0.310932
0.474902
0.33476
0.103589
0.337481
0.315127
0.0103329
0.0703807
-0.000483612
0.00498656
7.56894e-05
0.000414708
0.000881244
0.00145243
0.00228683
0.00344389
0.00465417
0.00607987
0.00773443
0.00940397
0.0112238
0.0130614
0.0148437
0.0164297
0.0176734
0.0183472
0.0181574
0.0167416
0.0139437
0.0112183
0.0126172
0.022652
0.037906
0.0501425
0.057068
0.0628834
0.0773746
0.112295
0.172722
0.236613
0.278499
0.296848
0.284279
0.251378
0.289395
0.193269
0.222592
0.232971
0.251481
0.308163
0.322099
0.275242
0.292865
0.364327
0.387078
0.454176
0.482606
0.535028
0.570511
0.59721
0.642788
0.635687
0.692128
0.641561
0.716789
0.607452
0.709841
0.516026
0.657577
0.540198
0.269501
0.544668
0.527215
0.0392962
0.205171
-0.00256979
0.0245431
0.000104294
0.000524742
0.00106053
0.00184128
0.00289516
0.00399735
0.00545558
0.00715667
0.00885197
0.0106948
0.0127361
0.0146196
0.0164186
0.0179303
0.0189803
0.019222
0.0182629
0.0159418
0.0137197
0.0170039
0.0312653
0.0503736
0.0634895
0.0698326
0.07621
0.0938539
0.137609
0.206733
0.266684
0.312735
0.350835
0.37664
0.327005
0.371082
0.322559
0.354251
0.272154
0.29592
0.335178
0.348626
0.428796
0.43702
0.404788
0.418303
0.504981
0.521096
0.59712
0.614843
0.673143
0.689421
0.72611
0.74048
0.760376
0.776642
0.776166
0.804144
0.757664
0.815471
0.691325
0.791422
0.709913
0.486696
0.713573
0.700843
0.602938
0.143423
0.424201
0.0195138
0.140774
0.000116165
0.000586207
0.00126201
0.00226811
0.00334265
0.00477144
0.00642679
0.00816078
0.010069
0.0121852
0.0142452
0.016223
0.0180011
0.0194082
0.0201593
0.0197387
0.0179315
0.0163249
0.0211937
0.0393162
0.0620955
0.076062
0.0814539
0.0875681
0.106724
0.152913
0.212586
0.258257
0.302367
0.346354
0.394372
0.443549
0.386471
0.431542
0.400682
0.423804
0.363849
0.380951
0.443626
0.450072
0.540103
0.539249
0.531905
0.537916
0.625288
0.62768
0.695401
0.692456
0.743058
0.73755
0.777419
0.769655
0.806544
0.798611
0.83314
0.827835
0.843778
0.852564
0.814783
0.860821
0.837754
0.771342
0.822707
0.683482
0.562114
0.673719
0.767294
0.829013
0.821878
0.765299
0.254292
0.391732
0.65002
0.640697
0.527806
0.150287
0.396527
0.299825
0.426948
9.20858e-05
0.000618429
0.00155622
0.00260105
0.00395712
0.0055849
0.00734483
0.0092957
0.0114375
0.0137105
0.0158251
0.0178502
0.0195983
0.0208265
0.0210865
0.0199218
0.0187819
0.0246001
0.0458638
0.072505
0.0878487
0.0923776
0.0974848
0.116765
0.160206
0.202145
0.23744
0.269323
0.305846
0.360089
0.430973
0.491043
0.487545
0.44998
0.475907
0.475782
0.48933
0.457257
0.465413
0.536774
0.533865
0.605557
0.593392
0.624164
0.616128
0.684741
0.670653
0.727221
0.711747
0.758979
0.743717
0.783953
0.765471
0.809538
0.781032
0.844661
0.836038
0.822357
0.800987
0.866711
0.864971
0.837459
0.838373
0.856736
0.866234
0.852513
0.877064
0.874918
0.860047
0.757126
0.744523
0.825477
0.868321
0.865905
0.822632
0.527632
0.732789
0.725493
0.635361
0.0324493
0.193624
0.466944
0.551363
0.576366
1.11831e-05
0.000720161
0.0017851
0.00307563
0.00465394
0.00642103
0.00839548
0.0105532
0.0129736
0.0152317
0.0174578
0.0195065
0.0211729
0.0220838
0.0217182
0.0210314
0.0270877
0.0500824
0.0809432
0.098664
0.102708
0.106248
0.124577
0.159037
0.188323
0.209643
0.215523
0.207653
0.238884
0.327161
0.448732
0.520994
0.515708
0.50502
0.517914
0.533063
0.538191
0.53164
0.531121
0.582187
0.572813
0.618919
0.602183
0.654278
0.636826
0.694013
0.673328
0.72539
0.70172
0.742184
0.715304
0.746362
0.710991
0.77907
0.754048
0.73269
0.708879
0.818507
0.793112
0.765607
0.871804
0.859736
0.812544
0.806204
0.837173
0.881676
0.882197
0.888129
0.877026
0.888533
0.816508
0.808728
0.869225
0.893724
0.897795
0.86843
0.646693
0.801641
0.797707
0.725875
-0.0191008
0.0648192
0.410448
0.665757
0.597195
1.26077e-06
0.000925394
0.00214318
0.00365332
0.00539498
0.00736908
0.00952549
0.0119781
0.0144174
0.0168174
0.0191187
0.0211699
0.022665
0.0230971
0.0228675
0.0286709
0.051872
0.0864693
0.108059
0.112324
0.113759
0.129629
0.153943
0.173617
0.183597
0.164084
0.127012
0.138124
0.199908
0.295037
0.480489
0.4011
0.543502
0.527108
0.543729
0.546082
0.561022
0.561969
0.565939
0.562022
0.588067
0.577649
0.603934
0.585818
0.649722
0.62595
0.671967
0.63919
0.682702
0.644926
0.674891
0.637852
0.688459
0.665731
0.645981
0.624441
0.738034
0.711159
0.685571
0.660462
0.78258
0.750846
0.718969
0.861385
0.834316
0.77144
0.760371
0.79937
0.881966
0.893908
0.887106
0.863031
0.900229
0.865694
0.861691
0.901243
0.906763
0.913699
0.903435
0.734047
0.857763
0.854894
0.797945
-0.0112796
0.284218
0.0289011
0.712107
0.546185
0.000102421
0.00116149
0.00258671
0.00427817
0.00621757
0.00836106
0.0107942
0.0133888
0.0159254
0.0184308
0.0208002
0.0227952
0.0239808
0.0242815
0.0286851
0.0517626
0.0880128
0.115205
0.120364
0.120607
0.131152
0.145843
0.159365
0.158937
0.125008
0.0786614
0.0787623
0.120387
0.190806
0.278338
0.469904
0.389304
0.555023
0.528915
0.563514
0.563118
0.568214
0.569454
0.571132
0.568128
0.573141
0.565158
0.55884
0.545974
0.607493
0.579878
0.603661
0.564519
0.59449
0.55579
0.606092
0.587573
0.57269
0.560145
0.637149
0.614435
0.594155
0.575663
0.68801
0.658762
0.631666
0.607227
0.735183
0.698754
0.663777
0.831668
0.792792
0.719506
0.704707
0.74968
0.865028
0.892474
0.868132
0.830007
0.899235
0.904204
0.903347
0.920674
0.907272
0.917149
0.926865
0.789147
0.901405
0.897589
0.849461
-0.00575757
0.204634
0.0240754
0.719186
0.500736
0.000222991
0.00148282
0.00307062
0.00495244
0.00706354
0.00946099
0.012116
0.0147828
0.0174463
0.0200653
0.0224653
0.0243097
0.0252657
0.028313
0.0481126
0.0867432
0.118555
0.126338
0.125407
0.129249
0.137557
0.145098
0.134677
0.0952265
0.0521571
0.0464978
0.070587
0.135381
0.23554
0.315953
0.284764
0.457236
0.380493
0.556959
0.521884
0.570948
0.569057
0.565806
0.568753
0.561267
0.562484
0.538324
0.53765
0.495877
0.489156
0.532258
0.508972
0.523378
0.495063
0.541534
0.527263
0.561611
0.553192
0.549027
0.546241
0.585469
0.5675
0.555166
0.5494
0.631828
0.60378
0.580031
0.561466
0.678807
0.640752
0.607289
0.787206
0.74019
0.660556
0.645109
0.691664
0.830006
0.873568
0.832202
0.783319
0.881568
0.931814
0.934565
0.927593
0.893289
0.907837
0.938317
0.820124
0.934224
0.928994
0.88481
-0.00790166
0.173708
0.0184368
0.719107
0.477432
0.000361657
0.00179871
0.00358902
0.0056421
0.00798243
0.0106189
0.0134101
0.0161818
0.018983
0.0216928
0.0240656
0.0257031
0.0279605
0.0424969
0.0820528
0.11735
0.129603
0.127371
0.125879
0.128569
0.12903
0.111159
0.0689986
0.0354394
0.0288859
0.041819
0.0854268
0.211907
0.31342
0.333926
0.328439
0.446578
0.379046
0.552771
0.510769
0.570819
0.568137
0.558804
0.56405
0.542859
0.550876
0.49283
0.504712
0.426178
0.427004
0.466042
0.440264
0.508905
0.487284
0.575598
0.585147
0.592348
0.59015
0.547061
0.549813
0.556261
0.565702
0.550053
0.545441
0.546408
0.55329
0.579576
0.558541
0.545742
0.541068
0.620541
0.586902
0.561185
0.7326
0.68106
0.604012
0.59142
0.632758
0.781819
0.837678
0.783546
0.727577
0.847939
0.948175
0.955583
0.92506
0.863695
0.884882
0.942137
0.842685
0.958597
0.954177
0.912224
-0.0222933
0.156412
0.00804544
0.724123
0.476119
0.00049773
0.00213672
0.00411358
0.0063778
0.00896176
0.0118134
0.0146607
0.0175831
0.0205159
0.0232756
0.0255429
0.0276207
0.0371263
0.0717818
0.113225
0.129744
0.127513
0.122218
0.119021
0.111065
0.0865812
0.0452607
0.0221673
0.018191
0.02563
0.0476131
0.126939
0.266828
0.372602
0.358256
0.36862
0.367586
0.443054
0.391457
0.545118
0.500732
0.56675
0.563621
0.549858
0.558077
0.520335
0.536426
0.441554
0.464576
0.379559
0.365635
0.453184
0.416112
0.58714
0.577531
0.577977
0.648305
0.665336
0.681236
0.677192
0.56624
0.584347
0.605341
0.627476
0.543235
0.552919
0.570785
0.594873
0.54428
0.5378
0.537508
0.548544
0.571298
0.548131
0.536965
0.673328
0.62369
0.559848
0.552282
0.582421
0.725844
0.789912
0.728425
0.66904
0.802982
0.956518
0.969066
0.910769
0.823772
0.852823
0.938622
0.865856
0.976463
0.9759
0.938401
-0.0472595
0.152989
0.000505479
0.743169
0.499829
0.000642709
0.00248912
0.0046581
0.00716479
0.009981
0.0129128
0.015897
0.0189751
0.0220021
0.0247533
0.027084
0.0329265
0.0591247
0.104958
0.126519
0.126554
0.118309
0.108403
0.0920631
0.0611772
0.0249704
0.0112011
0.0100501
0.0160219
0.0279255
0.0590557
0.138422
0.26104
0.398139
0.362285
0.41218
0.408617
0.451689
0.421614
0.537241
0.496929
0.561498
0.557904
0.535611
0.547966
0.490916
0.515794
0.379446
0.409875
0.367773
0.318888
0.516049
0.439866
0.674681
0.658671
0.729532
0.695191
0.74554
0.764949
0.778327
0.776281
0.623803
0.656132
0.688751
0.719222
0.567869
0.595133
0.629233
0.667775
0.533969
0.541724
0.559669
0.58726
0.540515
0.533444
0.53646
0.617903
0.576648
0.537316
0.535713
0.547634
0.66878
0.73691
0.673851
0.615916
0.75393
0.961658
0.978061
0.889295
0.780628
0.818593
0.927654
0.892355
0.989411
0.991992
0.961794
-0.0409121
0.198733
0.0562514
0.782421
0.577703
0.000789098
0.00284849
0.00523471
0.00797996
0.0109421
0.0139684
0.0171146
0.0203142
0.0233949
0.0261108
0.0299998
0.0471379
0.0896113
0.121071
0.124037
0.114448
0.0984441
0.0749497
0.0388685
0.0102771
0.00184306
0.00316717
0.00893555
0.0173804
0.0315964
0.06256
0.110794
0.241111
0.141564
0.397837
0.327583
0.447834
0.431061
0.474591
0.458051
0.53214
0.50198
0.55273
0.550283
0.507593
0.526144
0.445845
0.479918
0.309126
0.335073
0.408018
0.302079
0.655777
0.601398
0.540021
0.769886
0.753809
0.784232
0.748319
0.83949
0.85398
0.852719
0.858732
0.708148
0.748207
0.784865
0.815814
0.623095
0.665026
0.710522
0.756286
0.550251
0.574735
0.609243
0.652045
0.533272
0.541047
0.560614
0.573636
0.545413
0.533709
0.533116
0.534401
0.618527
0.686327
0.62772
0.574662
0.708612
0.962638
0.985304
0.866546
0.742616
0.790299
0.915486
0.920734
0.998369
1.003
0.980276
0.0958993
0.371612
0.36587
0.838742
0.736355
0.000934706
0.00321561
0.00583261
0.00877684
0.0118112
0.014991
0.0182774
0.021562
0.0246238
0.0278355
0.0378672
0.0711576
0.111715
0.119539
0.110989
0.0902093
0.0590612
0.0203508
-0.000653024
-0.0057088
-0.00371963
0.00223421
0.0101016
0.0194179
0.032995
0.0491863
0.0575391
0.155811
0.0857061
0.340683
0.249568
0.447461
0.406968
0.486354
0.469877
0.523425
0.504162
0.534618
0.535176
0.453869
0.47976
0.376582
0.418444
0.250293
0.244312
0.517475
0.433609
0.336497
0.70844
0.660289
0.576577
0.641996
0.838
0.815012
0.794095
0.755939
0.910728
0.916035
0.894467
0.910209
0.799434
0.838271
0.870836
0.895408
0.700017
0.749801
0.798161
0.84233
0.591486
0.632578
0.680991
0.733334
0.545405
0.56935
0.607942
0.545105
0.533245
0.546563
0.542928
0.53094
0.581402
0.645683
0.595972
0.548808
0.67485
0.960328
0.989782
0.846301
0.718011
0.771877
0.90646
0.947511
1.00488
1.01028
0.993751
0.303407
0.680158
0.72075
0.899128
0.865548
0.00107857
0.00358808
0.00641358
0.0094687
0.0126338
0.0159598
0.0193445
0.0226573
0.0258128
0.0316854
0.0537988
0.094768
0.113945
0.107744
0.0842049
0.0485189
0.00838487
-0.00803728
-0.0117524
-0.00997368
-0.00454529
0.00309217
0.0116592
0.0208639
0.030209
0.0370569
0.0442248
0.0383089
0.0864989
0.0557128
0.238332
0.148798
0.389284
0.324227
0.461676
0.433456
0.495647
0.481421
0.49477
0.499709
0.365514
0.396718
0.280465
0.325109
0.222199
0.172831
0.545707
0.474532
0.432893
0.348492
0.719313
0.681943
0.597872
0.640609
0.867806
0.832981
0.781557
0.741179
0.955344
0.950001
0.907128
0.934506
0.880345
0.911178
0.934824
0.950068
0.785733
0.834918
0.878272
0.914839
0.655894
0.709639
0.765319
0.819376
0.575782
0.620943
0.676541
0.534418
0.529354
0.572893
0.563458
0.53674
0.560305
0.621315
0.582541
0.541177
0.659414
0.958881
0.99319
0.83542
0.709383
0.768124
0.900988
0.968024
1.00924
1.01549
1.00224
0.306938
0.872018
0.859973
0.94317
0.938509
0.00121947
0.00394229
0.00693683
0.0100986
0.0134043
0.016835
0.0202724
0.0235532
0.0276179
0.040455
0.0735797
0.104783
0.103664
0.0813885
0.0425576
0.00181801
-0.013261
-0.0151239
-0.0136358
-0.0101649
-0.003924
0.00433559
0.0130024
0.0212319
0.0280721
0.0319218
0.0383503
0.0351511
0.0514602
0.0425005
0.121711
0.0737833
0.272295
0.195467
0.37847
0.334046
0.423219
0.407888
0.416393
0.424901
0.239538
0.272292
0.164559
0.200894
0.27878
0.20594
0.146819
0.55386
0.500482
0.454906
0.386701
0.706492
0.674715
0.594491
0.623584
0.869271
0.826427
0.747284
0.700278
0.983623
0.968584
0.903785
0.941368
0.945907
0.969086
0.983749
0.989133
0.868726
0.911014
0.946985
0.976622
0.736987
0.796647
0.851829
0.900612
0.622282
0.685329
0.755826
0.532893
0.532249
0.611769
0.598228
0.553898
0.556481
0.616034
0.583541
0.542687
0.661113
0.958138
0.995372
0.83265
0.714617
0.774283
0.898037
0.984136
1.01335
1.0198
1.00978
0.341895
0.950315
0.891004
0.97337
0.978319
0.00134696
0.00425974
0.00737075
0.0106762
0.0140907
0.0175856
0.020992
0.0244994
0.0316691
0.0540357
0.0878383
0.0987782
0.0812731
0.0401958
-0.00169414
-0.0166218
-0.0184231
-0.015445
-0.0122062
-0.00964241
-0.00302525
0.00564368
0.0139281
0.0208505
0.0258414
0.0279856
0.0350594
0.0327691
0.0396451
0.0372445
0.0549744
0.044002
0.126488
0.0807128
0.233283
0.182683
0.292625
0.270395
0.291446
0.299566
0.0906703
0.113532
0.0980729
0.0845986
0.309922
0.230532
0.148137
0.215184
0.548049
0.507664
0.465246
0.415321
0.668142
0.645519
0.574333
0.589325
0.858001
0.802449
0.701991
0.646455
0.997278
0.971126
0.891241
0.935644
0.998732
1.01243
1.01738
1.01178
0.941536
0.976315
1.00374
1.02344
0.824562
0.883767
0.931873
0.969901
0.679115
0.756929
0.836291
0.537332
0.550444
0.664464
0.647675
0.586064
0.56407
0.624454
0.602979
0.554289
0.678535
0.958784
0.998881
0.835607
0.740929
0.797479
0.902212
0.998975
1.0162
1.02467
1.01772
0.208073
0.992108
0.846095
0.99633
1.00944
0.00145169
0.00451418
0.00776556
0.0111819
0.0146648
0.018154
0.0215441
0.0261146
0.0391266
0.0668229
0.0901041
0.0802061
0.0431422
-0.00198886
-0.0192524
-0.0214529
-0.0177364
-0.0130821
-0.0115645
-0.00915976
-0.00195787
0.006735
0.0141497
0.0197339
0.0230086
0.025461
0.0301216
0.0236578
0.0321274
0.0349685
0.0337408
0.0365286
0.0357302
0.0456496