/*--------------------------------*- C++ -*----------------------------------*\
  =========                 |
  \\      /  F ield         | OpenFOAM: The Open Source CFD Toolbox
   \\    /   O peration     | Website:  https://openfoam.org
    \\  /    A nd           | Version:  dev
     \\/     M anipulation  |
\*---------------------------------------------------------------------------*/
FoamFile
{
    version     2.0;
    format      ascii;
    class       surfaceScalarField;
    location    "2500";
    object      phi;
}
// * * * * * * * * * * * * * * * * * * * * * * * * * * * * * * * * * * * * * //

dimensions      [1 0 -1 0 0 0 0];

internalField   nonuniform List<scalar> 
19513
(
1.70517e-07
1.12535e-07
1.51458e-07
2.79703e-07
4.6367e-07
1.0131e-07
1.26663e-07
3.84523e-07
4.63562e-07
2.79807e-07
6.65157e-07
8.43731e-08
1.05071e-07
4.56316e-07
4.39147e-07
4.08916e-07
6.90085e-07
2.54976e-07
8.20878e-07
7.07348e-08
8.92289e-08
5.07276e-07
3.95544e-07
4.99871e-07
6.99452e-07
3.99527e-07
8.54852e-07
2.20985e-07
9.56551e-07
6.21834e-08
7.57951e-08
5.47483e-07
3.42719e-07
5.60078e-07
6.84874e-07
5.14455e-07
8.88481e-07
3.65878e-07
9.8578e-07
1.91801e-07
1.08017e-06
5.60617e-08
6.5185e-08
5.80449e-07
2.93108e-07
5.97043e-07
6.47619e-07
5.97324e-07
9.08354e-07
4.94585e-07
1.02769e-06
3.23735e-07
1.10032e-06
1.71558e-07
1.19298e-06
5.12427e-08
5.78609e-08
6.0609e-07
2.53311e-07
6.20308e-07
5.92581e-07
6.52115e-07
9.03924e-07
6.01759e-07
1.06889e-06
4.53513e-07
1.13603e-06
2.88076e-07
1.20823e-06
1.56279e-07
1.29797e-06
4.74188e-08
5.14916e-08
6.29406e-07
2.20142e-07
6.39232e-07
5.29341e-07
6.83534e-07
8.74376e-07
6.81666e-07
1.09706e-06
5.736e-07
1.18198e-06
4.0757e-07
1.23597e-06
2.60317e-07
1.31032e-06
1.43914e-07
1.39585e-06
4.41455e-08
4.65843e-08
6.48601e-07
1.97429e-07
6.521e-07
4.70106e-07
6.98475e-07
8.23262e-07
7.34642e-07
1.10239e-06
6.76356e-07
1.22876e-06
5.26767e-07
1.27618e-06
3.67356e-07
1.33095e-06
2.3966e-07
1.40597e-06
1.33764e-07
1.48827e-06
4.14643e-08
4.32085e-08
6.64372e-07
1.8119e-07
6.64833e-07
4.17705e-07
7.04522e-07
7.56264e-07
7.65434e-07
1.08144e-06
7.55637e-07
1.26544e-06
6.39774e-07
1.32526e-06
4.77751e-07
1.36235e-06
3.35891e-07
1.42299e-06
2.22625e-07
1.49585e-06
1.26159e-07
1.57493e-06
3.91924e-08
4.06863e-08
6.79261e-07
1.67457e-07
6.78137e-07
3.76014e-07
7.06493e-07
6.83788e-07
7.77014e-07
1.03684e-06
8.10093e-07
1.28162e-06
7.39426e-07
1.37677e-06
5.88235e-07
1.40579e-06
4.34352e-07
1.44753e-06
3.11329e-07
1.5094e-06
2.09055e-07
1.58193e-06
1.19131e-07
1.65837e-06
3.73595e-08
3.9126e-08
6.92429e-07
1.5828e-07
6.88422e-07
3.43729e-07
7.10455e-07
6.13725e-07
7.76579e-07
9.7266e-07
8.41226e-07
1.27136e-06
8.2039e-07
1.4202e-06
6.96023e-07
1.45768e-06
5.36351e-07
1.48097e-06
4.00916e-07
1.52917e-06
2.91542e-07
1.5931e-06
1.97853e-07
1.66427e-06
1.13202e-07
1.73829e-06
3.56519e-08
3.76978e-08
7.0346e-07
1.52333e-07
6.98362e-07
3.15389e-07
7.16861e-07
5.53971e-07
7.70335e-07
8.96002e-07
8.53345e-07
1.23612e-06
8.76505e-07
1.44584e-06
7.94742e-07
1.51282e-06
6.40927e-07
1.52498e-06
4.92342e-07
1.55589e-06
3.74156e-07
1.6099e-06
2.74748e-07
1.674e-06
1.88085e-07
1.74277e-06
1.0869e-07
1.81485e-06
3.43809e-08
3.60902e-08
7.1155e-07
1.46279e-07
7.09511e-07
2.91264e-07
7.22538e-07
5.06709e-07
7.6417e-07
8.13366e-07
8.52957e-07
1.17942e-06
9.10041e-07
1.44771e-06
8.74669e-07
1.56228e-06
7.45312e-07
1.57758e-06
5.88306e-07
1.58972e-06
4.58453e-07
1.63192e-06
3.52102e-07
1.68701e-06
2.61712e-07
1.75089e-06
1.7995e-07
1.81914e-06
1.04364e-07
1.88974e-06
3.3273e-08
3.47026e-08
7.17126e-07
1.39079e-07
7.18689e-07
2.74212e-07
7.26599e-07
4.66945e-07
7.62384e-07
7.33074e-07
8.44496e-07
1.10708e-06
9.25378e-07
1.42454e-06
9.33285e-07
1.59717e-06
8.39741e-07
1.63459e-06
6.88311e-07
1.63351e-06
5.44631e-07
1.66014e-06
4.30265e-07
1.70489e-06
3.34218e-07
1.76265e-06
2.49927e-07
1.82596e-06
1.73095e-07
1.89316e-06
1.00916e-07
1.96234e-06
3.22848e-08
3.35516e-08
7.20818e-07
1.33524e-07
7.22723e-07
2.62504e-07
7.30537e-07
4.32669e-07
7.6097e-07
6.64672e-07
8.30857e-07
1.02536e-06
9.26297e-07
1.37789e-06
9.72063e-07
1.61129e-06
9.19228e-07
1.68902e-06
7.85226e-07
1.687e-06
6.34861e-07
1.69464e-06
5.10154e-07
1.72793e-06
4.0727e-07
1.77729e-06
3.19555e-07
1.83557e-06
2.4029e-07
1.89892e-06
1.67302e-07
1.96525e-06
9.7963e-08
2.03313e-06
3.15302e-08
3.25611e-08
7.23287e-07
1.28793e-07
7.25584e-07
2.50451e-07
7.34802e-07
4.04172e-07
7.59099e-07
6.09939e-07
8.15845e-07
9.40542e-07
9.15809e-07
1.31322e-06
9.91028e-07
1.60154e-06
9.81881e-07
1.73298e-06
8.75386e-07
1.74655e-06
7.25712e-07
1.73675e-06
5.92815e-07
1.75638e-06
4.81697e-07
1.79574e-06
3.88801e-07
1.84837e-06
3.06733e-07
1.90685e-06
2.32322e-07
1.97023e-06
1.62272e-07
2.0358e-06
9.52633e-08
2.1029e-06
3.08822e-08
3.15521e-08
7.24946e-07
1.24132e-07
7.27916e-07
2.39274e-07
7.36771e-07
3.82412e-07
7.56689e-07
5.66928e-07
8.02213e-07
8.58743e-07
8.97674e-07
1.23571e-06
9.9332e-07
1.56759e-06
1.025e-06
1.75977e-06
9.55163e-07
1.80601e-06
8.1593e-07
1.78802e-06
6.74393e-07
1.79082e-06
5.58402e-07
1.81878e-06
4.58689e-07
1.86379e-06
3.73384e-07
1.91691e-06
2.96667e-07
1.97692e-06
2.25595e-07
2.03993e-06
1.58103e-07
2.10503e-06
9.30914e-08
2.17142e-06
3.03614e-08
3.0666e-08
7.25368e-07
1.2059e-07
7.28533e-07
2.30341e-07
7.36983e-07
3.63376e-07
7.55921e-07
5.31605e-07
7.9207e-07
7.85354e-07
8.75647e-07
1.15048e-06
9.82953e-07
1.51271e-06
1.04824e-06
1.76438e-06
1.02039e-06
1.858e-06
9.03208e-07
1.84663e-06
7.57363e-07
1.83259e-06
6.32637e-07
1.8467e-06
5.30486e-07
1.8824e-06
4.40087e-07
1.93022e-06
3.60074e-07
1.98571e-06
2.87853e-07
2.04565e-06
2.19836e-07
2.10862e-06
1.54469e-07
2.17326e-06
9.12243e-08
2.23894e-06
2.97182e-08
2.96241e-08
7.25205e-07
1.17706e-07
7.28286e-07
2.21216e-07
7.37651e-07
3.44591e-07
7.55874e-07
5.02987e-07
7.84661e-07
7.2339e-07
8.54137e-07
1.06197e-06
9.64252e-07
1.44185e-06
1.05387e-06
1.74481e-06
1.06783e-06
1.8959e-06
9.82522e-07
1.90818e-06
8.41719e-07
1.88284e-06
7.07117e-07
1.88043e-06
5.98953e-07
1.90479e-06
5.081e-07
1.94585e-06
4.24456e-07
1.99617e-06
3.49607e-07
2.05292e-06
2.8054e-07
2.11357e-06
2.1484e-07
2.17662e-06
1.51019e-07
2.24075e-06
8.9365e-08
2.30599e-06
2.91011e-08
2.87876e-08
7.24345e-07
1.14351e-07
7.28601e-07
2.11933e-07
7.37658e-07
3.28956e-07
7.53474e-07
4.77629e-07
7.8134e-07
6.71107e-07
8.37018e-07
9.76065e-07
9.40162e-07
1.36067e-06
1.0455e-06
1.70293e-06
1.09581e-06
1.91424e-06
1.04952e-06
1.96623e-06
9.24511e-07
1.93994e-06
7.84669e-07
1.92041e-06
6.67181e-07
1.9317e-06
5.72104e-07
1.96411e-06
4.89861e-07
2.00872e-06
4.11941e-07
2.0617e-06
3.4081e-07
2.11947e-06
2.7459e-07
2.18085e-06
2.10586e-07
2.24376e-06
1.47978e-07
2.30787e-06
8.74528e-08
2.37175e-06
2.84164e-08
2.82578e-08
7.23087e-07
1.09842e-07
7.28876e-07
2.04273e-07
7.36332e-07
3.15536e-07
7.51168e-07
4.52855e-07
7.78378e-07
6.30291e-07
8.22251e-07
8.99651e-07
9.13592e-07
1.27333e-06
1.02756e-06
1.6432e-06
1.10525e-06
1.91028e-06
1.09981e-06
2.01456e-06
1.00127e-06
2.00133e-06
8.6314e-07
1.96802e-06
7.37108e-07
1.96389e-06
6.35037e-07
1.98584e-06
5.50408e-07
2.02372e-06
4.74874e-07
2.07182e-06
4.01835e-07
2.12673e-06
3.33528e-07
2.18607e-06
2.69328e-07
2.24797e-06
2.06292e-07
2.31089e-06
1.44904e-07
2.37365e-06
8.54946e-08
2.43671e-06
2.75595e-08
2.77664e-08
7.21615e-07
1.05678e-07
7.27293e-07
1.98298e-07
7.34924e-07
3.03197e-07
7.48759e-07
4.31555e-07
7.72635e-07
5.9769e-07
8.11076e-07
8.34206e-07
8.87813e-07
1.1829e-06
1.00411e-06
1.56993e-06
1.10085e-06
1.88406e-06
1.13153e-06
2.04647e-06
1.06783e-06
2.06251e-06
9.40091e-07
2.02251e-06
8.08677e-07
2.00153e-06
6.99522e-07
2.01084e-06
6.10082e-07
2.04097e-06
5.33168e-07
2.08329e-06
4.63408e-07
2.13502e-06
3.93558e-07
2.19195e-06
3.27637e-07
2.25308e-06
2.64155e-07
2.31491e-06
2.02208e-07
2.37693e-06
1.41556e-07
2.439e-06
8.31438e-08
2.50021e-06
2.64336e-08
2.72514e-08
7.1991e-07
1.02675e-07
7.24671e-07
1.92583e-07
7.33098e-07
2.92916e-07
7.45348e-07
4.13198e-07
7.67211e-07
5.67852e-07
8.02441e-07
7.80282e-07
8.65114e-07
1.09512e-06
9.75806e-07
1.48836e-06
1.08573e-06
1.83708e-06
1.14789e-06
2.05776e-06
1.12035e-06
2.11794e-06
1.01244e-06
2.08234e-06
8.80304e-07
2.04547e-06
7.64776e-07
2.04025e-06
6.70151e-07
2.06097e-06
5.90123e-07
2.09683e-06
5.19675e-07
2.14387e-06
4.54574e-07
2.19837e-06
3.87108e-07
2.25817e-06
3.22531e-07
2.31979e-06
2.59201e-07
2.38185e-06
1.97204e-07
2.44336e-06
1.3714e-07
2.50387e-06
7.94352e-08
2.57117e-06
2.53316e-08
2.67487e-08
7.18484e-07
1.00477e-07
7.22147e-07
1.87311e-07
7.30035e-07
2.84047e-07
7.42063e-07
3.97634e-07
7.61031e-07
5.42243e-07
7.92958e-07
7.38106e-07
8.44834e-07
1.01625e-06
9.44091e-07
1.40123e-06
1.06289e-06
1.77464e-06
1.14822e-06
2.04728e-06
1.15841e-06
2.16112e-06
1.07722e-06
2.14405e-06
9.50779e-07
2.09584e-06
8.29989e-07
2.07452e-06
7.30567e-07
2.0835e-06
6.47638e-07
2.11199e-06
5.75013e-07
2.15393e-06
5.09638e-07
2.2052e-06
4.47738e-07
2.26327e-06
3.82015e-07
2.32522e-06
3.17082e-07
2.38766e-06
2.53348e-07
2.44924e-06
1.91256e-07
2.50929e-06
1.31599e-07
2.57543e-06
7.5116e-08
2.63096e-06
2.4761e-08
2.65442e-08
7.17176e-07
9.9198e-08
7.19816e-07
1.82764e-07
7.26808e-07
2.75576e-07
7.38615e-07
3.84296e-07
7.55558e-07
5.19236e-07
7.84164e-07
7.02476e-07
8.28753e-07
9.46358e-07
9.14844e-07
1.3106e-06
1.03473e-06
1.70155e-06
1.13605e-06
2.01911e-06
1.17644e-06
2.18844e-06
1.13114e-06
2.20364e-06
1.01766e-06
2.15228e-06
8.94408e-07
2.11432e-06
7.90246e-07
2.10974e-06
7.04387e-07
2.1294e-06
6.30285e-07
2.1653e-06
5.63681e-07
2.21258e-06
5.02288e-07
2.26806e-06
4.42916e-07
2.32976e-06
3.77447e-07
2.39309e-06
3.11576e-07
2.45578e-06
2.46734e-07
2.51684e-06
1.83667e-07
2.58281e-06
1.24137e-07
2.63703e-06
6.89827e-08
2.68766e-06
2.40069e-08
2.66306e-08
7.16262e-07
9.81899e-08
7.18278e-07
1.78921e-07
7.23796e-07
2.68346e-07
7.34136e-07
3.72912e-07
7.50139e-07
4.99426e-07
7.75502e-07
6.69985e-07
8.16742e-07
8.86929e-07
8.88321e-07
1.22458e-06
1.00093e-06
1.62234e-06
1.11406e-06
1.9736e-06
1.18159e-06
2.1945e-06
1.1704e-06
2.25596e-06
1.0789e-06
2.21206e-06
9.57897e-07
2.15926e-06
8.49529e-07
2.13959e-06
7.60488e-07
2.1487e-06
6.85143e-07
2.17738e-06
6.18266e-07
2.21996e-06
5.56329e-07
2.27289e-06
4.97516e-07
2.33332e-06
4.39346e-07
2.39794e-06
3.72604e-07
2.46241e-06
3.04856e-07
2.52533e-06
2.38173e-07
2.59177e-06
1.74628e-07
2.6476e-06
1.13487e-07
2.69546e-06
6.11116e-08
2.73786e-06
2.21876e-08
2.67801e-08
7.16307e-07
9.7153e-08
7.17392e-07
1.76091e-07
7.21227e-07
2.62285e-07
7.2998e-07
3.62391e-07
7.44818e-07
4.82559e-07
7.67146e-07
6.41692e-07
8.03874e-07
8.41345e-07
8.62452e-07
1.14786e-06
9.65166e-07
1.53847e-06
1.08491e-06
1.91382e-06
1.1739e-06
2.18325e-06
1.19289e-06
2.29581e-06
1.13057e-06
2.273e-06
1.01809e-06
2.21045e-06
9.06759e-07
2.17424e-06
8.14949e-07
2.17074e-06
7.38463e-07
2.19083e-06
6.71754e-07
2.22801e-06
6.1029e-07
2.27772e-06
5.51532e-07
2.33603e-06
4.9475e-07
2.40084e-06
4.36436e-07
2.46795e-06
3.67039e-07
2.53392e-06
2.96204e-07
2.60225e-06
2.27583e-07
2.6613e-06
1.60832e-07
2.70957e-06
9.9297e-08
2.74934e-06
4.95637e-08
2.78314e-06
1.72453e-08
2.66646e-08
7.17846e-07
9.63159e-08
7.1722e-07
1.73289e-07
7.20304e-07
2.56408e-07
7.27184e-07
3.52432e-07
7.40054e-07
4.6933e-07
7.58179e-07
6.19096e-07
7.89869e-07
8.06488e-07
8.38893e-07
1.07985e-06
9.30581e-07
1.45408e-06
1.0497e-06
1.84474e-06
1.15406e-06
2.15664e-06
1.20056e-06
2.31943e-06
1.16931e-06
2.33066e-06
1.07289e-06
2.26667e-06
9.61941e-07
2.21371e-06
8.67359e-07
2.19595e-06
7.89815e-07
2.20577e-06
7.2358e-07
2.23619e-06
6.6362e-07
2.28157e-06
6.06473e-07
2.3376e-06
5.50064e-07
2.40215e-06
4.93426e-07
2.47154e-06
4.3284e-07
2.54122e-06
3.59647e-07
2.61288e-06
2.85511e-07
2.67673e-06
2.12062e-07
2.72802e-06
1.42278e-07
2.7682e-06
8.03515e-08
2.79851e-06
3.41219e-08
2.8229e-06
1.04195e-08
2.67942e-08
7.21187e-07
9.55662e-08
7.18673e-07
1.70685e-07
7.19933e-07
2.52966e-07
7.23889e-07
3.45823e-07
7.33957e-07
4.603e-07
7.49243e-07
6.00049e-07
7.77357e-07
7.77662e-07
8.18845e-07
1.02225e-06
8.9649e-07
1.37436e-06
1.01042e-06
1.77071e-06
1.12377e-06
2.1162e-06
1.19455e-06
2.326e-06
1.19405e-06
2.38012e-06
1.11994e-06
2.32549e-06
1.01415e-06
2.25822e-06
9.17518e-07
2.22442e-06
8.38942e-07
2.2226e-06
7.7305e-07
2.24503e-06
7.14791e-07
2.28528e-06
6.59981e-07
2.33854e-06
6.05597e-07
2.40197e-06
5.50256e-07
2.47241e-06
4.92535e-07
2.54572e-06
4.28319e-07
2.62182e-06
3.50666e-07
2.69268e-06
2.69495e-07
2.74908e-06
1.90924e-07
2.79308e-06
1.173e-07
2.82246e-06
5.63075e-08
2.8391e-06
1.78298e-08
2.84664e-06
1.91989e-09
2.66506e-08
7.26204e-07
9.44102e-08
7.22427e-07
1.69542e-07
7.19918e-07
2.51643e-07
7.21392e-07
3.41825e-07
7.28017e-07
4.52428e-07
7.41971e-07
5.84906e-07
7.64464e-07
7.54098e-07
8.01052e-07
9.75896e-07
8.65397e-07
1.3011e-06
9.69983e-07
1.69447e-06
1.08673e-06
2.06184e-06
1.17818e-06
2.31849e-06
1.20211e-06
2.4184e-06
1.15582e-06
2.38422e-06
1.06126e-06
2.30794e-06
9.64488e-07
2.25691e-06
8.85105e-07
2.24188e-06
8.19727e-07
2.25453e-06
7.63649e-07
2.28831e-06
7.11823e-07
2.33774e-06
6.6083e-07
2.3992e-06
6.08416e-07
2.47005e-06
5.52634e-07
2.54689e-06
4.91367e-07
2.62757e-06
4.22529e-07
2.70732e-06
3.35918e-07
2.77164e-06
2.46847e-07
2.82206e-06
1.61785e-07
2.85519e-06
8.44867e-08
2.86909e-06
2.62058e-08
2.86695e-06
-2.52931e-09
2.84978e-06
-7.66229e-09
2.68759e-08
7.31804e-07
9.40744e-08
7.26665e-07
1.70161e-07
7.21898e-07
2.50839e-07
7.20886e-07
3.39175e-07
7.24181e-07
4.46092e-07
7.34493e-07
5.74724e-07
7.52287e-07
7.35456e-07
7.83285e-07
9.40724e-07
8.36274e-07
1.2368e-06
9.29754e-07
1.61993e-06
1.0446e-06
1.99952e-06
1.1491e-06
2.29773e-06
1.19895e-06
2.44202e-06
1.17853e-06
2.43888e-06
1.10124e-06
2.3615e-06
1.00773e-06
2.29392e-06
9.27591e-07
2.26359e-06
8.63488e-07
2.26511e-06
8.09239e-07
2.29123e-06
7.60749e-07
2.33569e-06
7.13924e-07
2.39408e-06
6.66002e-07
2.46446e-06
6.14044e-07
2.54371e-06
5.55817e-07
2.62882e-06
4.90061e-07
2.7187e-06
4.11089e-07
2.79297e-06
3.14466e-07
2.85332e-06
2.15496e-07
2.89428e-06
1.22532e-07
2.91276e-06
4.07425e-08
2.90784e-06
-1.47943e-08
2.8821e-06
-3.49197e-08
2.83311e-06
-1.09704e-09
-1.11349e-08
2.70622e-08
7.38406e-07
9.41576e-08
7.31789e-07
1.71208e-07
7.25729e-07
2.50816e-07
7.22069e-07
3.39095e-07
7.21094e-07
4.42732e-07
7.27702e-07
5.671e-07
7.42188e-07
7.20372e-07
7.67536e-07
9.14807e-07
8.09372e-07
1.18346e-06
8.89867e-07
1.54981e-06
9.9997e-07
1.93562e-06
1.10857e-06
2.26293e-06
1.18399e-06
2.45284e-06
1.18818e-06
2.48526e-06
1.13219e-06
2.41686e-06
1.04601e-06
2.33522e-06
9.6651e-07
2.28794e-06
9.03326e-07
2.27742e-06
8.51264e-07
2.29425e-06
8.0634e-07
2.33233e-06
7.64178e-07
2.38664e-06
7.21427e-07
2.45536e-06
6.75141e-07
2.53582e-06
6.2196e-07
2.62455e-06
5.60083e-07
2.72465e-06
4.84077e-07
2.81071e-06
3.93263e-07
2.88385e-06
2.83837e-07
2.93752e-06
1.72129e-07
2.96539e-06
6.97554e-08
2.96538e-06
-1.69417e-08
2.94134e-06
-7.41418e-08
2.87611e-06
-3.22768e-08
-4.57148e-08
1.39751e-06
-2.04265e-09
1.40296e-06
-1.65924e-08
2.70761e-08
7.46312e-07
9.43639e-08
7.38285e-07
1.72431e-07
7.30695e-07
2.51556e-07
7.25105e-07
3.41013e-07
7.20262e-07
4.41999e-07
7.21973e-07
5.62061e-07
7.32861e-07
7.10152e-07
7.52608e-07
8.96111e-07
7.86412e-07
1.14035e-06
8.52606e-07
1.48759e-06
9.52228e-07
1.87419e-06
1.06148e-06
2.22085e-06
1.1507e-06
2.45259e-06
1.18428e-06
2.52197e-06
1.15153e-06
2.47139e-06
1.0777e-06
2.37924e-06
1.00209e-06
2.3149e-06
9.39653e-07
2.2907e-06
8.9012e-07
2.29761e-06
8.47978e-07
2.32832e-06
8.10434e-07
2.37752e-06
7.73364e-07
2.44302e-06
7.33827e-07
2.52288e-06
6.88118e-07
2.61502e-06
6.31502e-07
2.72266e-06
5.62048e-07
2.82223e-06
4.72502e-07
2.91141e-06
3.65607e-07
2.98064e-06
2.40597e-07
3.02311e-06
1.14261e-07
3.03366e-06
1.32506e-09
3.00896e-06
-3.94994e-08
-4.51957e-08
1.4633e-06
-6.27808e-08
1.47074e-06
-6.93764e-08
1.41016e-06
-3.94931e-08
1.42481e-06
-6.03871e-08
1.38316e-06
-4.06231e-09
1.38866e-06
-2.20893e-08
2.69137e-08
7.5537e-07
9.39114e-08
7.46842e-07
1.72886e-07
7.37937e-07
2.52338e-07
7.30013e-07
3.43945e-07
7.22313e-07
4.43382e-07
7.19057e-07
5.60385e-07
7.23815e-07
7.05184e-07
7.37969e-07
8.83738e-07
7.65158e-07
1.11094e-06
8.16025e-07
1.43527e-06
9.04973e-07
1.81578e-06
1.01072e-06
2.17509e-06
1.10731e-06
2.44134e-06
1.16202e-06
2.55226e-06
1.15406e-06
2.52219e-06
1.10081e-06
2.42544e-06
1.03159e-06
2.34479e-06
9.72301e-07
2.30476e-06
9.257e-07
2.30161e-06
8.86225e-07
2.32386e-06
8.52527e-07
2.36703e-06
8.21001e-07
2.42777e-06
7.88676e-07
2.50538e-06
7.51379e-07
2.59861e-06
7.04548e-07
2.71019e-06
6.4398e-07
2.82376e-06
5.60483e-07
2.93064e-06
4.53195e-07
3.02139e-06
3.2475e-07
3.08312e-06
1.8044e-07
3.1099e-06
3.78625e-08
3.09435e-06
-4.10467e-08
-4.3173e-08
1.48754e-06
-6.37748e-08
1.50929e-06
-6.69899e-08
1.4402e-06
-7.8205e-08
1.49009e-06
-8.31512e-08
1.46216e-06
-9.13652e-08
1.3984e-06
-4.92704e-08
1.41287e-06
-7.48749e-08
1.36617e-06
-6.50307e-09
1.37349e-06
-2.94209e-08
2.6402e-08
7.6556e-07
9.26638e-08
7.56778e-07
1.72831e-07
7.47004e-07
2.54111e-07
7.3629e-07
3.4677e-07
7.27335e-07
4.45934e-07
7.19911e-07
5.62039e-07
7.17573e-07
7.03168e-07
7.25958e-07
8.7746e-07
7.4442e-07
1.09503e-06
7.8121e-07
1.3932e-06
8.58118e-07
1.76397e-06
9.56878e-07
2.13012e-06
1.05576e-06
2.4218e-06
1.12691e-06
2.57219e-06
1.14213e-06
2.56779e-06
1.10853e-06
2.47648e-06
1.04985e-06
2.37849e-06
9.97996e-07
2.32021e-06
9.56961e-07
2.30547e-06
9.2194e-07
2.31855e-06
8.9163e-07
2.35522e-06
8.64431e-07
2.41029e-06
8.38558e-07
2.48363e-06
8.10491e-07
2.57487e-06
7.75172e-07
2.68722e-06
7.27538e-07
2.81331e-06
6.54415e-07
2.93839e-06
5.52685e-07
3.0529e-06
4.21589e-07
3.14301e-06
2.64728e-07
3.19145e-06
9.87372e-08
3.19494e-06
-3.26055e-08
-3.02886e-08
1.53361e-06
-6.54183e-08
1.55903e-06
-6.86397e-08
1.51381e-06
-9.07518e-08
1.43118e-06
-9.65427e-08
1.48623e-06
-1.07251e-07
1.45465e-06
-1.14868e-07
1.38354e-06
-5.93407e-08
1.39873e-06
-9.0095e-08
1.34636e-06
-9.90306e-09
1.35519e-06
-3.82567e-08
2.51901e-08
7.76448e-07
9.18106e-08
7.6649e-07
1.72767e-07
7.56897e-07
2.56632e-07
7.4461e-07
3.48198e-07
7.35e-07
4.50388e-07
7.23026e-07
5.67018e-07
7.15101e-07
7.04787e-07
7.16069e-07
8.77931e-07
7.25611e-07
1.08749e-06
7.52077e-07
1.36139e-06
8.13112e-07
1.71939e-06
9.02781e-07
2.0881e-06
9.98973e-07
2.39887e-06
1.07875e-06
2.58433e-06
1.11483e-06
2.60708e-06
1.10292e-06
2.52708e-06
1.05804e-06
2.41472e-06
1.01374e-06
2.33951e-06
9.78809e-07
2.30977e-06
9.52776e-07
2.3128e-06
9.27796e-07
2.34258e-06
9.0437e-07
2.39124e-06
8.83569e-07
2.45864e-06
8.63616e-07
2.54509e-06
8.40325e-07
2.65523e-06
8.07193e-07
2.78924e-06
7.51625e-07
2.93075e-06
6.62034e-07
3.07016e-06
5.3536e-07
3.19307e-06
3.71412e-07
3.27478e-06
1.81249e-07
3.30363e-06
-8.66519e-09
-1.4662e-09
1.59059e-06
-6.42123e-08
1.61944e-06
-5.91907e-08
1.54082e-06
-9.24605e-08
1.57029e-06
-9.81536e-08
1.5142e-06
-1.18759e-07
1.41953e-06
-1.17371e-07
1.48158e-06
-1.34213e-07
1.44601e-06
-1.41375e-07
1.36485e-06
-6.90253e-08
1.38054e-06
-1.05803e-07
1.31958e-06
-1.24412e-08
1.32782e-06
-4.65068e-08
2.39829e-08
7.85968e-07
9.10046e-08
7.7731e-07
1.71249e-07
7.68113e-07
2.57173e-07
7.56483e-07
3.49066e-07
7.43854e-07
4.56926e-07
7.28601e-07
5.74114e-07
7.16071e-07
7.11145e-07
7.0886e-07
8.82258e-07
7.11877e-07
1.08534e-06
7.27889e-07
1.34313e-06
7.70506e-07
1.68362e-06
8.48987e-07
2.05112e-06
9.39849e-07
2.37463e-06
1.02327e-06
2.58958e-06
1.07356e-06
2.64284e-06
1.07915e-06
2.57745e-06
1.05265e-06
2.45269e-06
1.0202e-06
2.35898e-06
9.94403e-07
2.31352e-06
9.75179e-07
2.30886e-06
9.56831e-07
2.33033e-06
9.40155e-07
2.37248e-06
9.23236e-07
2.43285e-06
9.09445e-07
2.51086e-06
8.97922e-07
2.61217e-06
8.83439e-07
2.74992e-06
8.46534e-07
2.9027e-06
7.79662e-07
3.06576e-06
6.66386e-07
3.22205e-06
5.06291e-07
3.34678e-06
2.9927e-07
3.41119e-06
3.28804e-08
4.06338e-08
1.65601e-06
-4.52761e-08
1.68628e-06
-3.17985e-08
1.60346e-06
-9.74362e-08
1.63822e-06
-9.40009e-08
1.54622e-06
-1.24523e-07
1.58033e-06
-1.32305e-07
1.51279e-06
-1.50002e-07
1.40249e-06
-1.39353e-07
1.47456e-06
-1.62793e-07
1.43034e-06
-1.69251e-07
1.33978e-06
-8.10081e-08
1.35721e-06
-1.23257e-07
1.28867e-06
-1.45175e-08
1.29705e-06
-5.49032e-08
2.25897e-08
7.93627e-07
8.88223e-08
7.88227e-07
1.68196e-07
7.80497e-07
2.55674e-07
7.69751e-07
3.51777e-07
7.53888e-07
4.62649e-07
7.38282e-07
5.82888e-07
7.19915e-07
7.20176e-07
7.07185e-07
8.88682e-07
7.02594e-07
1.09077e-06
7.06663e-07
1.33841e-06
7.32768e-07
1.65782e-06
7.96435e-07
2.02192e-06
8.78296e-07
2.35348e-06
9.61088e-07
2.59136e-06
1.02156e-06
2.67477e-06
1.04169e-06
2.62303e-06
1.03366e-06
2.49305e-06
1.0124e-06
2.38047e-06
9.98841e-07
2.31652e-06
9.91536e-07
2.30133e-06
9.82827e-07
2.31726e-06
9.70015e-07
2.35591e-06
9.56835e-07
2.40797e-06
9.48214e-07
2.47357e-06
9.46816e-07
2.5653e-06
9.44862e-07
2.69375e-06
9.39656e-07
2.85217e-06
8.97088e-07
3.03834e-06
8.07057e-07
3.22607e-06
6.623e-07
3.40014e-06
4.52816e-07
3.51887e-06
8.90647e-08
1.02367e-07
1.72604e-06
-6.92655e-09
1.75469e-06
1.19322e-08
1.67641e-06
-8.35115e-08
1.71452e-06
-6.9973e-08
1.61787e-06
-1.35018e-07
1.65708e-06
-1.33264e-07
1.54872e-06
-1.60498e-07
1.58689e-06
-1.70517e-07
1.50922e-06
-1.84702e-07
1.38097e-06
-1.63131e-07
1.4629e-06
-1.95384e-07
1.41089e-06
-1.99204e-07
1.311e-06
-9.49722e-08
1.32933e-06
-1.41606e-07
1.25414e-06
-1.68659e-08
1.26289e-06
-6.36629e-08
2.06403e-08
7.99119e-07
8.4926e-08
7.9762e-07
1.63729e-07
7.92794e-07
2.54925e-07
7.81354e-07
3.55668e-07
7.65968e-07
4.66776e-07
7.49938e-07
5.92856e-07
7.28444e-07
7.29346e-07
7.10948e-07
9.00497e-07
6.95536e-07
1.10392e-06
6.89592e-07
1.34456e-06
7.0061e-07
1.64365e-06
7.47116e-07
2.00184e-06
8.16614e-07
2.33884e-06
8.93029e-07
2.59459e-06
9.5794e-07
2.70571e-06
9.90681e-07
2.66534e-06
9.99461e-07
2.53511e-06
9.91713e-07
2.40053e-06
9.92477e-07
2.31816e-06
9.97329e-07
2.29088e-06
1.00212e-06
2.30069e-06
9.99514e-07
2.33659e-06
9.89444e-07
2.38552e-06
9.794e-07
2.44489e-06
9.76989e-07
2.51947e-06
9.92721e-07
2.62873e-06
1.00995e-06
2.78092e-06
1.01094e-06
2.97999e-06
9.55449e-07
3.20941e-06
8.23675e-07
3.43704e-06
6.25313e-07
3.61191e-06
1.69325e-07
1.90312e-07
1.79756e-06
4.614e-08
1.82424e-06
7.56391e-08
1.75604e-06
-4.85075e-08
1.79588e-06
-2.79617e-08
1.70006e-06
-1.26544e-07
1.7438e-06
-1.13779e-07
1.62898e-06
-1.77151e-07
1.67405e-06
-1.78385e-07
1.54949e-06
-2.00804e-07
1.59143e-06
-2.12504e-07
1.50078e-06
-2.22614e-07
1.35438e-06
-1.88206e-07
1.44661e-06
-2.31135e-07
1.38619e-06
-2.31046e-07
1.27816e-06
-1.10267e-07
1.29625e-06
-1.59718e-07
1.21425e-06
-1.88085e-08
1.2223e-06
-7.17205e-08
1.84853e-08
8.0002e-07
7.9341e-08
8.04733e-07
1.57754e-07
8.03671e-07
2.53822e-07
7.94005e-07
3.55474e-07
7.81661e-07
4.6915e-07
7.63729e-07
6.01226e-07
7.4165e-07
7.41193e-07
7.16799e-07
9.17799e-07
6.93723e-07
1.12048e-06
6.79079e-07
1.35949e-06
6.74797e-07
1.64183e-06
7.02543e-07
1.99205e-06
7.57053e-07
2.33308e-06
8.2248e-07
2.60265e-06
8.85041e-07
2.73831e-06
9.25408e-07
2.71105e-06
9.45046e-07
2.58106e-06
9.53614e-07
2.42139e-06
9.70988e-07
2.3161e-06
9.94672e-07
2.27254e-06
1.0158e-06
2.27726e-06
1.02566e-06
2.31441e-06
1.0218e-06
2.36649e-06
1.00858e-06
2.41899e-06
1.0054e-06
2.47759e-06
1.01896e-06
2.56081e-06
1.06072e-06
2.68931e-06
1.10161e-06
2.88311e-06
1.10783e-06
3.13953e-06
1.02532e-06
3.42685e-06
8.33795e-07
3.67553e-06
2.69266e-07
2.92289e-07
1.86783e-06
1.25685e-07
1.88955e-06
1.68554e-07
1.83902e-06
2.93818e-09
1.87829e-06
3.63078e-08
1.79103e-06
-9.58009e-08
1.83756e-06
-7.45532e-08
1.72249e-06
-1.75046e-07
1.77314e-06
-1.64497e-07
1.63831e-06
-2.24073e-07
1.68941e-06
-2.2954e-07
1.54406e-06
-2.44126e-07
1.59213e-06
-2.6062e-07
1.48792e-06
-2.63957e-07
1.32198e-06
-2.13954e-07
1.42505e-06
-2.70015e-07
1.35577e-06
-2.64862e-07
1.23674e-06
-1.24733e-07
1.2565e-06
-1.79494e-07
1.17032e-06
-2.04379e-08
1.17743e-06
-7.88501e-08
1.50181e-08
7.95855e-07
7.04043e-08
8.09024e-07
1.49899e-07
8.12708e-07
2.49077e-07
8.08516e-07
3.52207e-07
7.97423e-07
4.72143e-07
7.78785e-07
6.09067e-07
7.56014e-07
7.56789e-07
7.26232e-07
9.36199e-07
6.98468e-07
1.14054e-06
6.73838e-07
1.38175e-06
6.56956e-07
1.65265e-06
6.64152e-07
1.9929e-06
7.01814e-07
2.33756e-06
7.52699e-07
2.61846e-06
8.06769e-07
2.77551e-06
8.47903e-07
2.7638e-06
8.72726e-07
2.63209e-06
8.94108e-07
2.448e-06
9.27142e-07
2.31208e-06
9.7517e-07
2.24677e-06
1.02059e-06
2.2435e-06
1.04969e-06
2.28287e-06
1.05732e-06
2.33956e-06
1.0488e-06
2.39068e-06
1.03697e-06
2.4355e-06
1.04759e-06
2.48813e-06
1.09172e-06
2.58832e-06
1.16177e-06
2.75509e-06
1.22967e-06
3.00343e-06
1.24392e-06
3.32664e-06
1.12547e-06
3.68286e-06
3.89628e-07
4.3672e-07
1.92767e-06
2.31098e-07
1.93758e-06
2.82343e-07
1.92025e-06
8.36725e-08
1.95719e-06
1.31561e-07
1.88591e-06
-4.54826e-08
1.93339e-06
-1.12383e-08
1.82604e-06
-1.48769e-07
1.8798e-06
-1.28384e-07
1.74377e-06
-2.29469e-07
1.80113e-06
-2.21928e-07
1.64505e-06
-2.77043e-07
1.7021e-06
-2.86647e-07
1.53559e-06
-2.9183e-07
1.58927e-06
-3.14344e-07
1.47036e-06
-3.09305e-07
1.28321e-06
-2.40687e-07
1.3977e-06
-3.11969e-07
1.31841e-06
-3.0008e-07
1.19074e-06
-1.38054e-07
1.21154e-06
-2.00314e-07
1.12275e-06
-2.10712e-08
1.12794e-06
-8.40588e-08
9.20974e-09
7.83711e-07
5.78986e-08
8.08417e-07
1.38195e-07
8.20815e-07
2.39591e-07
8.22293e-07
3.48845e-07
8.12005e-07
4.74995e-07
7.9464e-07
6.17769e-07
7.7025e-07
7.71798e-07
7.41114e-07
9.55092e-07
7.07469e-07
1.16493e-06
6.74228e-07
1.40903e-06
6.46733e-07
1.67521e-06
6.34582e-07
2.00447e-06
6.5272e-07
2.35284e-06
6.86678e-07
2.64414e-06
7.27142e-07
2.82028e-06
7.62087e-07
2.82614e-06
7.85643e-07
2.69124e-06
8.13682e-07
2.48173e-06
8.60523e-07
2.30905e-06
9.30345e-07
2.21418e-06
1.00793e-06
2.19636e-06
1.06789e-06
2.23038e-06
1.10227e-06
2.3026e-06
1.09433e-06
2.3686e-06
1.07092e-06
2.41411e-06
1.0584e-06
2.44261e-06
1.09315e-06
2.49707e-06
1.18302e-06
2.61619e-06
1.30069e-06
2.84607e-06
1.387e-06
3.17607e-06
1.39434e-06
3.6144e-06
5.56622e-07
6.37113e-07
1.96447e-06
3.62705e-07
1.95928e-06
4.41853e-07
1.99454e-06
1.93696e-07
2.0225e-06
2.54324e-07
1.98305e-06
3.3949e-08
2.02884e-06
8.57108e-08
1.93728e-06
-1.03035e-07
1.99584e-06
-6.98814e-08
1.86265e-06
-2.10367e-07
1.92896e-06
-1.94776e-07
1.76417e-06
-2.91602e-07
1.83224e-06
-2.90074e-07
1.64799e-06
-3.35822e-07
1.71393e-06
-3.52646e-07
1.52227e-06
-3.43775e-07
1.58219e-06
-3.74317e-07
1.44623e-06
-3.57877e-07
1.23712e-06
-2.66285e-07
1.36333e-06
-3.56915e-07
1.27255e-06
-3.35528e-07
1.13819e-06
-1.48317e-07
1.15589e-06
-2.18034e-07
1.07308e-06
-1.9751e-08
1.0746e-06
-8.55963e-08
9.38719e-10
7.57619e-07
4.20993e-08
7.99568e-07
1.20801e-07
8.25902e-07
2.24941e-07
8.35566e-07
3.41306e-07
8.29942e-07
4.74718e-07
8.12351e-07
6.25318e-07
7.87194e-07
7.82556e-07
7.59541e-07
9.74689e-07
7.2162e-07
1.19057e-06
6.8195e-07
1.43948e-06
6.43911e-07
1.70643e-06
6.15701e-07
2.02643e-06
6.12768e-07
2.37809e-06
6.27609e-07
2.68071e-06
6.50238e-07
2.87566e-06
6.71869e-07
2.90138e-06
6.86928e-07
2.76333e-06
7.13649e-07
2.52828e-06
7.67279e-07
2.31199e-06
8.57778e-07
2.17619e-06
9.68546e-07
2.13087e-06
1.07357e-06
2.17012e-06
1.12821e-06
2.26967e-06
1.13521e-06
2.37015e-06
1.09272e-06
2.43775e-06
1.04717e-06
2.45535e-06
1.04558e-06
2.45579e-06
1.13437e-06
2.51176e-06
1.28738e-06
2.71508e-06
1.43144e-06
3.0621e-06
1.50039e-06
3.57169e-06
1.43597e-06
1.9724e-06
5.43337e-07
1.99936e-06
6.10095e-07
2.04616e-06
3.38955e-07
2.07775e-06
4.10104e-07
2.07273e-06
1.4971e-07
2.11341e-06
2.135e-07
2.05457e-06
-2.48718e-08
2.11328e-06
2.68491e-08
1.99969e-06
-1.73868e-07
2.07441e-06
-1.44762e-07
1.90978e-06
-2.88006e-07
1.99732e-06
-2.82454e-07
1.78972e-06
-3.67465e-07
1.88033e-06
-3.80798e-07
1.65003e-06
-4.0372e-07
1.7322e-06
-4.34882e-07
1.50361e-06
-4.01186e-07
1.57312e-06
-4.43883e-07
1.41533e-06
-4.09908e-07
1.18176e-06
-2.92176e-07
1.31884e-06
-4.03226e-07
1.21828e-06
-3.72062e-07
1.08004e-06
-1.53772e-07
1.0936e-06
-2.31614e-07
1.02365e-06
-1.65077e-08
1.0185e-06
-8.04645e-08
-9.23767e-09
7.10015e-07
2.20096e-08
7.77763e-07
9.65459e-08
8.23899e-07
2.04301e-07
8.46637e-07
3.28027e-07
8.48951e-07
4.72846e-07
8.31888e-07
6.29554e-07
8.08171e-07
7.90811e-07
7.79027e-07
9.93133e-07
7.41196e-07
1.21715e-06
6.95169e-07
1.47331e-06
6.48244e-07
1.74421e-06
6.06329e-07
2.05887e-06
5.8343e-07
2.41254e-06
5.78442e-07
2.72855e-06
5.79906e-07
2.94331e-06
5.82713e-07
2.99156e-06
5.8179e-07
2.85461e-06
5.95754e-07
2.59543e-06
6.4665e-07
2.32945e-06
7.50033e-07
2.13901e-06
8.95184e-07
2.05583e-06
1.04374e-06
2.10839e-06
1.13529e-06
2.25257e-06
1.14507e-06
2.4159e-06
1.089e-06
2.53187e-06
9.98059e-07
2.56238e-06
9.39631e-07
2.53352e-06
9.67426e-07
2.51613e-06
1.1295e-06
2.66095e-06
1.34041e-06
3.04249e-06
1.44839e-06
3.64171e-06
1.42542e-06
-2.16585e-06
4.47646e-06
5.83291e-07
5.34016e-07
2.11389e-06
5.06827e-07
5.56815e-07
2.16585e-06
2.8623e-07
2.24085e-06
3.34487e-07
2.18587e-06
7.68413e-08
2.2878e-06
1.10994e-07
2.1692e-06
-1.19947e-07
2.30547e-06
-1.09992e-07
2.10867e-06
-2.85487e-07
2.27429e-06
-3.10929e-07
1.99726e-06
-4.05126e-07
2.17275e-06
-4.58339e-07
1.84123e-06
-4.76612e-07
2.00639e-06
-5.46187e-07
1.66135e-06
-4.92008e-07
1.79496e-06
-5.68605e-07
1.4813e-06
-4.67199e-07
1.57513e-06
-5.37755e-07
1.37842e-06
-4.69509e-07
1.11818e-06
-3.16769e-07
1.2673e-06
-4.52249e-07
1.15323e-06
-4.07102e-07
1.01565e-06
-1.50935e-07
1.02481e-06
-2.40779e-07
9.73857e-07
-1.1132e-08
9.59272e-07
-6.58951e-08
-1.96149e-08
6.31177e-07
-2.80606e-09
7.34882e-07
6.47717e-08
8.0961e-07
1.76941e-07
8.51341e-07
3.09179e-07
8.65572e-07
4.67335e-07
8.54552e-07
6.29406e-07
8.32115e-07
7.9839e-07
8.00775e-07
1.00859e-06
7.637e-07
1.24482e-06
7.1363e-07
1.50837e-06
6.60221e-07
1.78637e-06
6.0626e-07
2.09979e-06
5.65558e-07
2.45518e-06
5.40973e-07
2.78643e-06
5.20706e-07
3.02287e-06
5.00481e-07
3.09752e-06
4.76858e-07
2.97011e-06
4.66398e-07
2.69012e-06
5.01199e-07
2.37179e-06
6.04516e-07
2.11852e-06
7.70753e-07
1.98939e-06
9.61713e-07
2.05575e-06
1.09604e-06
2.2727e-06
1.11416e-06
2.52815e-06
1.03123e-06
2.75726e-06
8.61772e-07
2.8723e-06
6.86408e-07
2.85003e-06
6.21689e-07
2.78687e-06
6.94916e-07
2.87754e-06
9.087e-07
3.24264e-06
1.13148e-06
3.93741e-06
1.13767e-06
4.97732e-06
4.9789e-07