/*--------------------------------*- C++ -*----------------------------------*\
  =========                 |
  \\      /  F ield         | OpenFOAM: The Open Source CFD Toolbox
   \\    /   O peration     | Website:  https://openfoam.org
    \\  /    A nd           | Version:  dev
     \\/     M anipulation  |
\*---------------------------------------------------------------------------*/
FoamFile
{
    version     2.0;
    format      ascii;
    class       volScalarField;
    location    "2500";
    object      qr;
}
// * * * * * * * * * * * * * * * * * * * * * * * * * * * * * * * * * * * * * //

dimensions      [1 0 -3 0 0 0 0];

internalField   uniform 0;

boundaryField
{
    lowerOutlet
    {
        type            calculated;
        value           nonuniform List<scalar> 
146
(
1082.44
1086.05
1090.05
1094.45
1099.23
1104.43
1110.03
1116.07
1122.54
1129.47
1136.88
1144.78
1153.2
1162.17
1171.71
1181.88
1192.7
1204.22
1216.5
1229.6
1243.58
1258.54
1274.56
1291.76
1310.29
1330.33
1352.03
1375.61
1401.33
1429.52
1460.6
1495.04
1533.48
1566.33
1613.86
1668.16
1730.87
1804.25
1891.43
1997.1
2127.72
2294.36
2530.66
2933.57
3396.19
3719.97
5385.7
6735.3
-8649.79
3442.46
2908.05
2559.55
2311.1
2105.5
1966.67
1857.01
1767.96
1694.15
1632.05
1578.96
1532.88
1492.43
1456.56
1416.38
1388.21
1362.61
1339.22
1317.76
1297.97
1279.65
1262.63
1246.78
1231.99
1218.18
1205.21
1193.02
1181.55
1170.74
1160.53
1150.9
1141.8
1133.2
1125.07
1117.39
1110.13
1103.28
1096.82
1090.73
1084.99
1079.61
1074.56
1069.85
1065.45
1061.38
1057.62
1054.16
1941.6
2058.75
2205.51
2398.42
2663.46
3294.5
3686.84
4783.27
6397.6
5886.27
3634.51
3018.34
2635.08
2366.34
2168.06
2031.77
1908.81
1810.3
1729.41
1661.82
1766.06
1845.87
3091.4
3498.84
4051.26
5705.01
7019.16
4128.99
3281.42
2808.47
2490.09
2259.83
1604.52
1555.14
3193.66
3603.79
4630.34
6045.8
7250.49
3865.49
3141.79
2717.76
2425.87
2212.26
1589.35
1640.06
1698.34
1512.03
1473.98
1440.08
)
;
    }
    top
    {
        type            calculated;
        value           nonuniform List<scalar> 
100
(
980.232
983.072
985.919
988.719
991.474
994.182
992.802
992.184
992.821
994.622
996.324
997.964
999.635
1001.3
1002.73
1003.86
1004.86
1005.91
1007.28
1008.76
1010.16
1011.6
1013.11
1014.69
1016.35
1018.09
1019.9
1021.79
1023.76
1025.7
1027.61
1029.49
1031.34
1033.14
1034.87
1036.45
1037.68
1037.73
1033.94
1020.62
1005.35
999.498
1003.56
1016.56
1036.57
1051.49
1056
1057.42
1058.19
1058.73
1059.11
1059.38
1059.57
1059.52
1059.42
1059.24
1059.01
1058.7
1058.33
1057.88
1057.34
1056.68
1055.88
1054.92
1053.8
1052.54
1051.2
1049.87
1048.58
1047.33
1045.98
1044.7
1044.02
1043.2
1042.55
1041.91
1040.39
1038.3
1035.99
1033.64
1031.12
1028.36
1025.34
1022.11
1018.58
1014.85
1010.95
1007.07
1003.33
999.851
996.653
993.736
991.094
988.748
986.676
984.963
991.264
988.3
985.344
982.449
)
;
    }
    sides
    {
        type            calculated;
        value           nonuniform List<scalar> 
100
(
1082.45
1085.31
1087.81
1089.94
1091.69
1093.09
1094.13
1094.82
1095.18
1095.21
1094.92
1094.33
1093.45
1092.29
1090.87
1089.2
1087.31
1085.2
1082.89
1080.39
1077.72
1074.9
1071.95
1068.86
1065.67
1062.38
1059.01
1055.57
1052.07
1048.52
1044.94
1041.33
1037.7
1034.07
1030.44
1026.83
1023.23
1019.66
1016.11
1012.61
1009.14
1005.72
1002.34
999.018
995.745
992.527
989.363
986.256
983.205
980.249
1054.17
1057.03
1059.59
1061.86
1063.84
1065.52
1066.93
1068.05
1068.9
1069.49
1069.81
1069.89
1069.74
1069.35
1068.74
1067.93
1066.92
1065.72
1064.35
1062.81
1061.12
1059.29
1057.33
1055.24
1053.04
1050.74
1048.34
1045.86
1043.31
1040.68
1037.99
1035.25
1032.46
1029.63
1026.77
1023.87
1020.95
1018.02
1015.07
1012.1
1009.13
1006.16
1003.18
1000.2
997.23
994.259
991.293
988.333
985.378
982.466
)
;
    }
    front
    {
        type            empty;
    }
    back
    {
        type            empty;
    }
    roller
    {
        type            calculated;
        value           nonuniform List<scalar> 
144
(
5871.32
4246.74
2666.12
3078.17
1673.52
1374.84
1287.79
1236.61
1196.35
1213.13
8981.37
6620.15
3984.52
3247.43
2846.94
2219.58
2129.82
2247.09
1711.21
1480.85
1302.9
1290.78
1248.33
1279.22
5780.57
6204.23
5245.11
2030.14
2486.47
2391.19
1648.44
1350.07
1273.85
1194.62
8504.52
7201.77
6678.12
4208.88
2882.22
2592.98
2327.91
1782.96
1750.94
2050.36
1507.22
1395.51
1371.15
1359.97
1346.93
1204.75
1224.45
1220.47
7709.37
7163.25
8454.8
2169.96
1565.87
1489.55
1429.87
1412.49
1454.74
1422.77
1193.18
1196.02
1202.67
9422.99
9969.52
9933.55
9090.72
5365
1982.83
1587.41
1932.37
1786.79
1507.01
1741.99
1622.08
1443.48
1587.12
1386.24
1251.27
1243.54
1197.96
1200.85
1210.74
1216.7
1193.23
1194.89
1200.73
8119.77
7757.82
4674.87
4642.49
2499.98
1831.59
2117.4
1545.39
1473.17
1543.88
1311.1
1322.59
1268.93
1228.35
1209.27
1233.29
1228.71
1193.46
1197.38
1204.79
9693.99
9882.74
9768.31
9483.2
4998.69
3787.31
3451.06
3148.38
3729.92
3439.74
2326.99
2708.31
1943.11
1884.65
1617.3
1882.83
1833.94
1525.68
1699.49
1659.46
1457.83
1397.33
1334.04
1331.88
1316.11
1301.04
1260.73
1259.66
1221.16
1214.81
1207.75
1238.2
1193.62
1194.03
1198.96
)
;
    }
    burner
    {
        type            calculated;
        value           nonuniform List<scalar> 
16
(
-124049
-118061
-115472
-116781
-119189
-115824
-115934
-123608
-122281
-117129
-115346
-118156
-120586
-116382
-115483
-120280
)
;
    }
}


// ************************************************************************* //
