/*--------------------------------*- C++ -*----------------------------------*\
  =========                 |
  \\      /  F ield         | OpenFOAM: The Open Source CFD Toolbox
   \\    /   O peration     | Website:  https://openfoam.org
    \\  /    A nd           | Version:  dev
     \\/     M anipulation  |
\*---------------------------------------------------------------------------*/
FoamFile
{
    version     2.0;
    format      ascii;
    class       volScalarField;
    location    "2500";
    object      rAU;
}
// * * * * * * * * * * * * * * * * * * * * * * * * * * * * * * * * * * * * * //

dimensions      [-1 3 1 0 0 0 0];

internalField   nonuniform List<scalar> 
9842
(
0.00822055
0.00828749
0.00823604
0.0082706
0.00840188
0.00817272
0.00824753
0.00839558
0.00840723
0.00812056
0.00822593
0.00839445
0.00839258
0.00841874
0.00807251
0.00821153
0.00839633
0.00838477
0.00840221
0.00842684
0.00802862
0.00819949
0.00840253
0.00838381
0.00838793
0.0084164
0.00843107
0.00798876
0.00819116
0.00840987
0.00838803
0.00837905
0.00840111
0.00842613
0.00843291
0.0079521
0.00818378
0.00841706
0.00839657
0.00837439
0.00838649
0.0084157
0.00843095
0.00843348
0.00791815
0.00817596
0.0084213
0.00840866
0.00837577
0.00837573
0.00840146
0.00842589
0.00843333
0.00843394
0.00788636
0.00816964
0.00842361
0.00841884
0.008382
0.00836945
0.00838678
0.008416
0.00843105
0.00843434
0.0084342
0.00785653
0.00816375
0.00842381
0.00842594
0.00839289
0.00836739
0.00837492
0.00840347
0.00842582
0.00843381
0.00843476
0.00843447
0.00782813
0.00815842
0.00842391
0.00843115
0.00840575
0.00837035
0.00836715
0.00838898
0.00841766
0.00843134
0.00843507
0.00843526
0.00843461
0.00780102
0.00815521
0.00842372
0.00843413
0.0084161
0.00837741
0.0083624
0.00837637
0.00840626
0.00842641
0.00843426
0.00843573
0.00843574
0.00843468
0.007775
0.00815338
0.00842453
0.00843576
0.00842461
0.00838933
0.00836124
0.00836634
0.00839319
0.00841925
0.0084317
0.00843608
0.00843633
0.00843622
0.00843469
0.00774984
0.00815234
0.00842575
0.00843644
0.00843031
0.0084024
0.00836449
0.00835985
0.00837943
0.00840971
0.00842724
0.00843502
0.00843665
0.00843685
0.00843658
0.00843463
0.00772554
0.00815163
0.00842697
0.00843747
0.00843397
0.00841343
0.00837284
0.0083553
0.00836752
0.00839757
0.00842166
0.00843241
0.00843682
0.00843736
0.00843743
0.00843669
0.00843457
0.00770185
0.00815158
0.00842791
0.00843813
0.00843597
0.00842246
0.00838555
0.00835503
0.00835821
0.00838356
0.00841366
0.00842873
0.00843569
0.00843765
0.00843792
0.00843784
0.00843679
0.00843454
0.00767875
0.00815176
0.00842903
0.00843817
0.00843716
0.00842868
0.00839971
0.00835925
0.0083529
0.00836997
0.00840218
0.00842417
0.00843346
0.00843764
0.00843839
0.00843851
0.00843806
0.00843681
0.00843446
0.00765612
0.00815101
0.00842999
0.00843847
0.00843828
0.0084327
0.00841148
0.00836809
0.0083492
0.00835958
0.00838891
0.00841654
0.00843073
0.00843665
0.00843864
0.00843893
0.00843899
0.00843817
0.00843682
0.00843434
0.00763388
0.00815025
0.00842956
0.00843855
0.00843863
0.00843475
0.00842013
0.00838091
0.00834952
0.00835145
0.00837525
0.00840672
0.00842617
0.00843508
0.00843888
0.00843939
0.00843958
0.00843932
0.0084382
0.00843685
0.00843433
0.00761198
0.00815104
0.00842871
0.00843868
0.00843886
0.00843653
0.0084261
0.00839502
0.00835353
0.00834683
0.00836261
0.00839469
0.00841991
0.00843206
0.00843806
0.00844017
0.0084399
0.00844011
0.00843948
0.00843821
0.00843686
0.00843424
0.00759056
0.00815478
0.00842964
0.00843862
0.00843911
0.00843763
0.00842978
0.00840763
0.00836219
0.00834319
0.00835309
0.00838173
0.00841116
0.00842811
0.00843596
0.00844044
0.00844102
0.00844056
0.00844051
0.00843961
0.00843818
0.00843694
0.00843405
0.00756954
0.0081599
0.00843295
0.00843876
0.00843917
0.00843813
0.00843323
0.00841672
0.00837484
0.0083433
0.00834001
0.00836881
0.00840103
0.00842273
0.00843324
0.0084388
0.00844209
0.00844164
0.00844111
0.00844072
0.00843963
0.00843825
0.00843694
0.00843395
0.00754908
0.00816053
0.00843807
0.00843908
0.0084393
0.00843881
0.00843541
0.00842346
0.00838905
0.00834713
0.00833554
0.00835671
0.0083889
0.0084159
0.00842994
0.00843662
0.0084411
0.00844311
0.00844229
0.0084415
0.0084409
0.00843958
0.00843829
0.008437
0.00843392
0.00752962
0.00816079
0.00843808
0.0084391
0.00843925
0.00843925
0.00843643
0.00842804
0.00840234
0.00835568
0.00833718
0.00834032
0.00837612
0.00840675
0.00842583
0.00843454
0.00843927
0.0084428
0.00844375
0.00844279
0.00844173
0.00844083
0.00843966
0.00843836
0.0084371
0.00843416
0.00751044
0.00816101
0.00843818
0.00843919
0.00843957
0.00843959
0.00843749
0.00843142
0.00841182
0.00836791
0.00833718
0.0083285
0.00836357
0.00839604
0.00841984
0.00843202
0.00843769
0.00844141
0.00844397
0.0084444
0.00844328
0.00844193
0.00844083
0.00843966
0.00843846
0.00843743
0.00843423
0.00749114
0.00815886
0.00843823
0.00843921
0.00843955
0.00843974
0.008438
0.00843334
0.00841871
0.0083815
0.0083407
0.00833102
0.0083516
0.0083841
0.00841227
0.00842837
0.00843602
0.00844009
0.00844312
0.00844478
0.00844498
0.0084436
0.0084419
0.00844072
0.00843973
0.00843877
0.00843762
0.00843409
0.00747323
0.00815792
0.00843829
0.00843917
0.00843974
0.00843995
0.00843875
0.00843482
0.00842372
0.00839558
0.00834823
0.00833187
0.00826901
0.00837147
0.00840274
0.00842355
0.00843372
0.00843882
0.008442
0.00844431
0.00844537
0.00844557
0.00844383
0.00844181
0.00844076
0.00843998
0.00843901
0.008438
0.00843392
0.00745757
0.00815956
0.00842959
0.00843926
0.00843976
0.00843982
0.00843907
0.0084361
0.00842774
0.00840612
0.00835953
0.00833095
0.00825298
0.00835928
0.00839196
0.00841718
0.0084309
0.00843737
0.00844107
0.00844358
0.00844511
0.00844584
0.0084459
0.00844394
0.00844169
0.008441
0.00844024
0.00843913
0.00843838
0.00843367
0.007363
0.00815901
0.00842956
0.00843925
0.00843982
0.00844004
0.00843973
0.00843722
0.00843023
0.00841328
0.00837253
0.00833383
0.00832092
0.00814907
0.00838024
0.00840907
0.00842681
0.00843548
0.00843989
0.0084428
0.00844478
0.00844562
0.00844629
0.00844624
0.00844384
0.00844172
0.00844104
0.00844027
0.00843922
0.00843882
0.00833588
0.0072387
0.00815666
0.00843815
0.00843728
0.00844
0.00844039
0.00844029
0.00843782
0.00843212
0.00841854
0.00838578
0.00833937
0.00832685
0.00795184
0.00836772
0.00839952
0.00842152
0.00843292
0.0084386
0.00844195
0.00844425
0.00844561
0.00844603
0.00844666
0.00844634
0.00844384
0.00844169
0.00844106
0.00844037
0.00843945
0.00843931
0.00818059
0.00737994
0.00815361
0.00843821
0.0084374
0.00842413
0.00844052
0.00844053
0.0084387
0.00843369
0.00842243
0.00839713
0.00834919
0.00832467
0.00806994
0.00835595
0.00838836
0.00841456
0.00842954
0.00843694
0.00844085
0.00844349
0.00844534
0.00844609
0.00844615
0.00844665
0.00844632
0.00844377
0.0084416
0.00844109
0.00844046
0.0084399
0.0084213
0.00837695
0.00741661
0.00815013
0.00843821
0.00843944
0.00842434
0.00841053
0.00844059
0.00843923
0.00843463
0.00842503
0.00840519
0.00836086
0.00832662
0.00825827
0.00813675
0.0083666
0.00840591
0.00842493
0.00843447
0.00843951
0.00844257
0.00844473
0.00844614
0.00844633
0.00844617
0.00844667
0.00844628
0.00844352
0.00844142
0.00844101
0.0084405
0.00844027
0.00843894
0.00841816
0.00638377
0.00815962
0.00814613
0.00843807
0.00843948
0.00844028
0.00839491
0.00844084
0.00843976
0.00843573
0.00842678
0.00841032
0.00837268
0.00833053
0.00832262
0.0080585
0.0083449
0.00838602
0.00841897
0.00843129
0.00843766
0.00844137
0.00844387
0.00844566
0.0084466
0.00844634
0.00844604
0.0084466
0.00844591
0.00844303
0.00844102
0.00844067
0.00844052
0.00842951
0.00850466
0.00818322
0.00817885
0.00637132
0.00812904
0.00814178
0.00843799
0.00843962
0.00844035
0.00842525
0.00840145
0.00843988
0.00843657
0.00842843
0.0084144
0.00838382
0.0083366
0.00831967
0.00825474
0.00835437
0.00836549
0.0084121
0.00842745
0.00843527
0.00843977
0.00844267
0.00844479
0.00844629
0.0084467
0.00844618
0.00844594
0.00844616
0.00844529
0.00844292
0.00844203
0.00844272
0.00843328
0.00838109
0.00818453
0.0081771
0.00835921
0.00818867
0.00815647
0.00815796
0.00638603
0.00813449
0.00813716
0.00843783
0.0084397
0.00844026
0.00844115
0.00839829
0.00840662
0.00843704
0.0084296
0.00841732
0.0083931
0.00834588
0.008318
0.00832147
0.00834329
0.00834934
0.00840367
0.00842291
0.00843285
0.00843797
0.00844124
0.0084435
0.00844529
0.00844648
0.00844657
0.00844603
0.00844547
0.00844583
0.00844674
0.00844821
0.0084498
0.00844399
0.00820304
0.00822962
0.0081718
0.00816976
0.00819481
0.00819794
0.00817038
0.00818936
0.00643015
0.00817695
0.00813243
0.00843767
0.00843972
0.00844027
0.00844132
0.00843773
0.00840039
0.00843711
0.00843054
0.00841908
0.00839934
0.00835614
0.00831999
0.00831677
0.00833322
0.00830569
0.00836766
0.0084163
0.00842947
0.00835322
0.00844
0.00844224
0.00844386
0.00844526
0.00844629
0.00844628
0.00844549
0.00844571
0.0084497
0.00845797
0.00846121
0.00845665
0.00825655
0.00827444
0.00820814
0.00823972
0.00821798
0.00821294
0.00823047
0.00824087
0.00821902
0.00823796
0.00648904
0.00822361
0.00812801
0.00843764
0.00843995
0.00844064
0.00844134
0.00844133
0.00843414
0.00843605
0.00843144
0.00842018
0.00840295
0.00836561
0.00832304
0.00831339
0.00832467
0.00826044
0.00832502
0.00840792
0.00842408
0.00843303
0.00831539
0.00844117
0.00844281
0.00844393
0.00844504
0.00844578
0.00844556
0.00844594
0.00845297
0.00846448
0.0084723
0.00847104
0.00829478
0.00830816
0.00826415
0.00828075
0.00824932
0.00827297
0.00825431
0.00825669
0.0082662
0.0082758
0.00826333
0.00827804
0.00654795
0.00826
0.00812456
0.00843789
0.00843997
0.00844069
0.00844149
0.00844169
0.00844071
0.00843647
0.00843197
0.00842098
0.0084054
0.00837423
0.00832702
0.00830907
0.00831683
0.00825286
0.00826186
0.00839901
0.00841772
0.0084283
0.00838299
0.00839796
0.00844138
0.0084431
0.00844406
0.00844441
0.00844478
0.0084458
0.00845564
0.0084689
0.00847866
0.00848556
0.00832727
0.00834074
0.0082974
0.00830903
0.0082913
0.00830443
0.00827919
0.00830026
0.00828559
0.00829131
0.0082959
0.00830453
0.00829617
0.00830849
0.0066062
0.00828804
0.00812196
0.00843772
0.0084402
0.00844069
0.00844188
0.0084419
0.00844109
0.00843847
0.00843233
0.00842194
0.00840727
0.00838113
0.00833348
0.00830544
0.00830933
0.00829109
0.00823653
0.00837023
0.00841022
0.00822353
0.00842981
0.00837437
0.00843763
0.00844051
0.0084425
0.00844325
0.00844318
0.00844466
0.00845661
0.00847268
0.00848237
0.00849674
0.00835967
0.00836942
0.00832384
0.00833494
0.00831797
0.0083276
0.00831469
0.00832548
0.00830413
0.00832249
0.00831181
0.00831866
0.00832068
0.00832814
0.00832075
0.00833168
0.006665
0.00830992
0.00811879
0.00843777
0.00844036
0.00844107
0.00844225
0.00844205
0.00844127
0.00843846
0.00843297
0.0084229
0.0084085
0.00838607
0.00834142
0.00830497
0.00830283
0.0083191
0.00826768
0.00834093
0.00840008
0.00808787
0.00842415
0.00842398
0.00842418
0.00843529
0.00843774
0.00844024
0.00844138
0.00844329
0.00845628
0.00847456
0.0084864
0.00850569
0.00838466
0.00839033
0.00834625
0.00835382
0.00834042
0.00834978
0.00833513
0.00834339
0.00833568
0.00834382
0.00832486
0.0083408
0.00833385
0.00834076
0.00834125
0.00834774
0.00833951
0.00834921
0.0067254
0.00832687
0.00811904
0.00843733
0.00844048
0.00844131
0.00844223
0.00844205
0.00844158
0.0084391
0.00843369
0.00842361
0.00840947
0.00838933
0.00834911
0.0083067
0.00829728
0.0083092
0.00828801
0.00832217
0.00838792
0.00825901
0.00841521
0.00842233
0.00842132
0.00842953
0.00843139
0.0084197
0.0084375
0.00843983
0.00845195
0.00847308
0.00848642
0.00851513
0.00840272
0.0084065
0.00836159
0.00836321
0.00835967
0.00836599
0.00835357
0.00836226
0.00835013
0.00835705
0.00835331
0.00835884
0.00834319
0.00835698
0.00835229
0.00835845
0.00835814
0.0083643
0.00835464
0.00836294
0.00678688
0.0083397
0.00811683
0.00843594
0.00844037
0.00844142
0.0084425
0.00844264
0.00844185
0.00843954
0.00843404
0.00842428
0.00841029
0.00839155
0.00835622
0.00830896
0.00829155
0.00830013
0.00827386
0.00830285
0.00837464
0.00838
0.00840334
0.00841101
0.00841754
0.00842224
0.008426
0.00842824
0.00841719
0.00843585
0.00844133
0.00846036
0.00847352
0.00850788
0.008417
0.00840693
0.00836068
0.00834976
0.00836798
0.00835474
0.00836604
0.0083544
0.00836193
0.00835356
0.00836101
0.0083569
0.00836705
0.00836499
0.00835907
0.00836884
0.00836718
0.00837263
0.00837117
0.00837816
0.00836697
0.00837434
0.00684683
0.00834837
0.00811972
0.00842689
0.00844008
0.00844114
0.00844266
0.00844256
0.00844214
0.00844015
0.00843458
0.00842496
0.00841104
0.00839306
0.00836251
0.0083122
0.00828597
0.00829121
0.00827255
0.00828619
0.00836029
0.00837724
0.00838921
0.00839733
0.00835112
0.00835434
0.0083471
0.00821066
0.00820965
0.00828666
0.00843676
0.00841932
0.0084177
0.00843983
0.00835831
0.00805863
0.00832453
0.00829056
0.00833135
0.0082924
0.00833233
0.00828776
0.00832575
0.0082755
0.00832752
0.00827875
0.00834182
0.00829625
0.00836631
0.00832295
0.00836954
0.00835974
0.00837506
0.00838368
0.00837765
0.00838562
0.00837722
0.00838464
0.00690017
0.00835303
0.00809434
0.00841859
0.00843959
0.00844084
0.00844244
0.00844248
0.00844235
0.00843996
0.0084352
0.00842556
0.00841178
0.00839423
0.00836753
0.00831762
0.00828216
0.00828246
0.00828402
0.00828086
0.00834401
0.00836133
0.00837315
0.00838241
0.00829203
0.00808035
0.00820254
0.00815379
0.00802244
0.00802141
0.00817573
0.00809572
0.00810738
0.00805872
0.00825886
0.00820492
0.00789989
0.00822404
0.00819522
0.00823425
0.00818823
0.0082308
0.00817416
0.00822003
0.00815293
0.00822093
0.00815255
0.00825261
0.0081795
0.00830716
0.00821336
0.00835326
0.00828999
0.00835224
0.00839066
0.00835422
0.00836679
0.00838614
0.00839268
0.0069377
0.00835332
0.00812824
0.00836552
0.00843806
0.00844027
0.00844211
0.00844253
0.00844234
0.00844026
0.00843567
0.00842626
0.00841255
0.00839527
0.00837138
0.00832478
0.0082809
0.0082737
0.00828761
0.00829113
0.00832616
0.00834492
0.00835639
0.00828454
0.00826447
0.00786847
0.00811065
0.0082321
0.00824148
0.00808879
0.0079368
0.0078767
0.00779399
0.00778094
0.00827072
0.00794219
0.00772196
0.00810934
0.00802496
0.0081025
0.00800376
0.00807371
0.00794066
0.00805028
0.00790557
0.00805292
0.00790913
0.00807759
0.00793955
0.00812095
0.00800125
0.00819749
0.00807784
0.00827716
0.00817345
0.00827409
0.00837934
0.00827323
0.00828172
0.00839357
0.00839203
0.00694129
0.00834765
0.00822144
0.00835884
0.00842657
0.00843843
0.00844135
0.00844229
0.00844173
0.00844028
0.00843557
0.00842692
0.00841335
0.00839639
0.00837423
0.00833226
0.00828164
0.00826491
0.00827576
0.00829449
0.00831146
0.00832869
0.00833941
0.00828241
0.008175
0.00796591
0.00811305
0.00826968
0.00829699
0.00823214
0.00810125
0.00806741
0.00798995
0.00795965
0.00818922
0.0076324
0.00746799
0.00753229
0.00738847
0.00786111
0.00769839
0.0077926
0.00764986
0.00774333
0.00758398
0.00774242
0.00757894
0.00777812
0.0076207
0.00783777
0.00767602
0.00792471
0.00776217
0.00804512
0.00787572
0.00814976
0.00800554
0.00813621
0.0083081
0.0081269
0.0081403
0.00839811
0.00835417
0.00677446
0.00809819
0.00827849
0.00837243
0.00840582
0.00843255
0.00843908
0.00844155
0.00844149
0.00844051
0.00843538
0.00842726
0.00841419
0.0083976
0.00837662
0.00833926
0.0082838
0.00825706
0.00826393
0.00828344
0.00829853
0.00831319
0.00832242
0.00828231
0.00818541
0.00811539
0.00816661
0.00822556
0.00824145
0.00822153
0.00818445
0.00815305
0.00818382
0.00818505
0.0082617
0.00734745
0.00704448
0.00726346
0.0071668
0.0072328
0.00714368
0.00749827
0.00735127
0.00744181
0.0073305
0.00743655
0.00732123
0.00748615
0.00738
0.00755065
0.00740938
0.00760136
0.00745062
0.00769217
0.00751442
0.00784973
0.0076275
0.0079876
0.00780683
0.00798173
0.00817768
0.007987
0.00800826
0.00833898
0.00820775
0.00686083
0.00820597
0.00825321
0.00841058
0.00835215
0.00841664
0.00843257
0.00843927
0.00844137
0.00844037
0.00843533
0.00842732
0.00841483
0.00839903
0.00837882
0.00834613
0.00828812
0.00825141
0.00825258
0.00827015
0.00828749
0.00829818
0.0083047
0.00828245
0.00819341
0.00815923
0.0081597
0.00814557
0.00812529
0.00809732
0.00808077
0.00811898
0.00815246
0.00827405
0.00831496
0.00798327
0.00710777
0.00685071
0.00708039
0.00704313
0.00707088
0.00703651
0.00722549
0.00713246
0.00724077
0.0071916
0.00727535
0.0071952
0.00731399
0.00722072
0.00734373
0.00726028
0.00740549
0.00745022
0.00750315
0.00749412
0.00763253
0.00756733
0.0077956
0.00767489
0.00783826
0.00802519
0.00786217
0.00788182
0.00827652
0.00808731
0.00678252
0.00830091
0.00832975
0.00837317
0.00839116
0.00841833
0.00843152
0.00844012
0.00843995
0.00843529
0.00842724
0.00841543
0.00840027
0.0083809
0.00835215
0.0082962
0.00824881
0.00824182
0.00825697
0.00827514
0.00828587
0.00828658
0.00826639
0.00820108
0.00812578
0.0080852
0.00804278
0.00801563
0.00800253
0.00801662
0.00798829
0.00804776
0.00813784
0.00840453
0.00831306
0.00718298
0.00721847
0.00703915
0.00706331
0.00702112
0.00702408
0.00705162
0.00703073
0.00714275
0.00708381
0.0071578
0.00713629
0.00711766
0.00706647
0.00732548
0.00731277
0.00739771
0.00739978
0.00746296
0.00760687
0.00753039
0.0076439
0.0075898
0.00766307
0.007675
0.00766865
0.00771871
0.00789311
0.00773901
0.00754498
0.00813492
0.00790396
0.00624197
0.00772742
0.00833048
0.00835722
0.00839995
0.00841851
0.00842821
0.00843868
0.00843545
0.00842766
0.00841597
0.00840118
0.00838303
0.00835703
0.00830586
0.00824966
0.00823195
0.0082441
0.00826324
0.00827478
0.00827167
0.00823582
0.00816288
0.00807507
0.00800208
0.00795935
0.00794171
0.0079565
0.00789589
0.0078951
0.00777787
0.00780384
0.00793558
0.00848378
0.00722635
0.00694528
0.0071659
0.00720362
0.00705726
0.00710466
0.00701225
0.00700319
0.00698303
0.00699183
0.0070841
0.00701508
0.0071238
0.00726471
0.00726214
0.00725934
0.00752127
0.00756448
0.00763181
0.00763828
0.00766537
0.00692673
0.00768577
0.00702438
0.00768473
0.00716534
0.00768886
0.0074047
0.00743363
0.00755142
0.00744738
0.0052616
0.00559981
0.00787277
0.0075724
0.00622914
0.00743717
0.00832566
0.00838
0.0084014
0.00840791
0.00843598
0.00843557
0.00842792
0.00841641
0.00840221
0.00838495
0.00836131
0.00831556
0.00825293
0.0082243
0.0082318
0.00825183
0.00826491
0.00825971
0.00821172
0.00811924
0.00801377
0.00794043
0.00790597
0.00790813
0.00787501
0.00784947
0.00769038
0.00782188
0.00795937
0.00775552
0.00807575
0.0080806
0.00722772
0.00693582
0.00638146
0.00699806
0.00703901
0.00653085
0.00700082
0.00701476
0.0071579
0.00718183
0.00721954
0.00717512
0.00733817
0.00748727
0.00755694
0.00755363
0.0076216
0.00758425
0.00678024
0.00745687
0.00676598
0.00736981
0.0068364
0.00733836
0.00736666
0.00719045
0.00744667
0.00490376
0.00517017
0.00547258
0.00518911
0.00542476
0.00561269
0.00528642
0.00520313
0.00523055
0.00542835
0.00512735
0.00615255
0.00594535
0.0053847
0.0053541
0.00558061
0.00556784
0.00586481
0.00550607
0.00607473
0.00830852
0.00838718
0.00839593
0.00838175
0.00843451
0.0084283
0.00841692
0.00840331
0.00838679
0.00836528
0.00832585
0.00825977
0.00821995
0.00822074
0.00824026
0.00825629
0.00825197
0.00819577
0.00808882
0.00796937
0.00790295
0.00788545
0.00789516
0.00780818
0.00768469
0.0079234
0.00788197
0.00741347
0.00789106
0.00834217
0.00841226
0.00717704
0.00681064
0.00728256
0.00725148
0.00620771
0.00717268
0.00635399
0.00565793
0.00721458
0.0072562
0.00742258
0.00741237
0.00745968
0.00743755
0.0075335
0.00748307
0.00754169
0.00750154
0.00757122
0.007496
0.00760552
0.00752563
0.00737888
0.00730821
0.00468813
0.00482356
0.00510995
0.00502594
0.00526656
0.00530068
0.00544899
0.00524134
0.0053013
0.00547392
0.0052323
0.00530461
0.00527485
0.00518432
0.00511391
0.00510222
0.00513587
0.00519833
0.00519956
0.0051175
0.00547398
0.00509376
0.00510139
0.00520448
0.00468862
0.00528212
0.00554198
0.00567764
0.00562099
0.00827762
0.00838876
0.008333
0.00833984
0.00842896
0.00841764
0.00840471
0.00838901
0.00836898
0.00833517
0.00827101
0.00821943
0.00821112
0.00822872
0.00824853
0.00824685
0.00818921
0.00807106
0.00794097
0.00788899
0.00788066
0.00782942
0.00777135
0.00760469
0.00784096
0.00815708
0.00698717
0.00795984
0.00824161
0.00829892
0.00804667
0.00710612
0.00675501
0.00733042
0.00725754
0.00742836
0.00739623
0.00718674
0.00721188
0.0074156
0.00742295
0.0073456
0.007325
0.00742602
0.0073793
0.00744249
0.00736304
0.0074235
0.00735493
0.0074364
0.00734732
0.00724087
0.00718759
0.00494114
0.00487953
0.00486948
0.00495392
0.00506331
0.00498985
0.00491701
0.00529219
0.00528982
0.00509818
0.00516126
0.00523299
0.00532392
0.0052584
0.00533785
0.00533966
0.00526057
0.00509967
0.00508114
0.00517267
0.00528081
0.0052676
0.00514731
0.0052451
0.00508385
0.00509772
0.00509739
0.00311453
0.00567021
0.00549528
0.00522201
0.00548274
0.00839613
0.00835462
0.00824653
0.00830981
0.00841899
0.00840634
0.00839145
0.00837238
0.0083431
0.00828345
0.0082223
0.0082033
0.00821738
0.00824144
0.00824519
0.00818954
0.00806592
0.00792876
0.00788814
0.00789116
0.00774927
0.00762985
0.00788224
0.00780696
0.00737764
0.00732999
0.00797558
0.00790755
0.0082826
0.00831256
0.00699473
0.00685207
0.0070939
0.00695368
0.00734841
0.00725012
0.00742339
0.00738909
0.00742841
0.00743375
0.00732092
0.00731998
0.00718559
0.00717072
0.00728875
0.0072274
0.0072728
0.0071872
0.00727604
0.00678804
0.00715063
0.00710697
0.00495796
0.00501805
0.00498938
0.00499758
0.0049061
0.00494625
0.00500523
0.00506265
0.00502072
0.0050307
0.00507427
0.00531542
0.00526671
0.00512987
0.00524385
0.0052167
0.00539027
0.00534402
0.0054113
0.00537057
0.00535728
0.0051267
0.00510876
0.00524278
0.00537948
0.00536322
0.00521568
0.00497595
0.00512295
0.00512361
0.00506276
0.0036303
0.0057388
0.00636232
0.00506055
0.00552128
0.00837786
0.00828509
0.00821775
0.00842049
0.00840814
0.00839414
0.00837557
0.00835013
0.00829664
0.00822851
0.00819839
0.00820662
0.00823361
0.00824641
0.00819889
0.00807238
0.00792632
0.00789677
0.0078722
0.00775165
0.00756275
0.00779222
0.00776907
0.00711419
0.00784375
0.00788258
0.00775844
0.0078344
0.00837162
0.00804381
0.00694475
0.00683984
0.00711252
0.00700541
0.00733674
0.00724492
0.00737139
0.0073639
0.0073319
0.00735502
0.00717521
0.00719006
0.00705244
0.00705725
0.00711932
0.00707173
0.00668636
0.00703956
0.00724017
0.00716981
0.00491874
0.00489097
0.00479877
0.00504859
0.00507344
0.00508819
0.00505663
0.0050249
0.00512984
0.00518999
0.00523503
0.00524483
0.00516627
0.00524595
0.00531207
0.00531478
0.00530287
0.00532216
0.00545323
0.00535745
0.00542603
0.00542486
0.0054528
0.00538832
0.00545818
0.00519102
0.00517771
0.00534142
0.00548124
0.00547156
0.00531417
0.00499068
0.00518059
0.00515494
0.00511068
0.00385314
0.00618292
0.00650018
0.00520964
0.00577633
0.00832374
0.00825906
0.00832946
0.00840996
0.00839678
0.00837889
0.0083559
0.0083097
0.00823969
0.0081974
0.0081978
0.00822408
0.00824665
0.00821429
0.00809266
0.00793196
0.00790757
0.00787789
0.00772619
0.00756888
0.00780374
0.00734839
0.00781961
0.00796583
0.00788425
0.00775436
0.00773473
0.00814091
0.00828192
0.00738488
0.00731905
0.00705314
0.00711517
0.00716168
0.00708806
0.00732506
0.00725502
0.00732506
0.00734927
0.00722772
0.00727824
0.00706831
0.00709914
0.00700114
0.00700046
0.0070362
0.00700863
0.00708752
0.00706068
0.00708203
0.00708593
0.00496825
0.0049135
0.00484809
0.00513005
0.0052388
0.00520142
0.00514966
0.00507829
0.00535035
0.00537836
0.00537867
0.00534882
0.00539817
0.00546002
0.00548735
0.00538457
0.0054575
0.00553419
0.00563084
0.00555302
0.00544034
0.00548621
0.00547803
0.00545937
0.00554166
0.00528414
0.00527246
0.0054542
0.0055686
0.005578
0.00543184
0.00511519
0.00523843
0.00521085
0.0051335
0.0038467
0.00635379
0.00724385
0.0054757
0.00601527
0.00826541
0.00822649
0.00841196
0.00839922
0.008382
0.00836065
0.00832162
0.00825333
0.00819994
0.00819154
0.00821344
0.00824419
0.00822979
0.00812519
0.00795262
0.00791468
0.00790045
0.00774598
0.00758456
0.00782407
0.00758098
0.00808257
0.00797261
0.00792334
0.0079697
0.00772363
0.00810154
0.00838671
0.0081438
0.00728086
0.00734949
0.00718295
0.00725727
0.00723845
0.00719228
0.00733609
0.00729308
0.00729979
0.00734937
0.0071576
0.00722885
0.00701116
0.00705031
0.00707597
0.00704235
0.00703393
0.00706766
0.00703578
0.00732056
0.00500237
0.00502893
0.0050761
0.00505553
0.00502965
0.00497649
0.0049336
0.00493563
0.00529602
0.00522356
0.00514438
0.00507634
0.00548281
0.00546399
0.00541308
0.0053364
0.00557107
0.00558759
0.00556227
0.00553727
0.00563154
0.00566032
0.00571556
0.00569375
0.00550315
0.00552154
0.00552505
0.00559402
0.00558807
0.00540579
0.00537415
0.00557557
0.00563242
0.00566992
0.00556374
0.0053169
0.0053283
0.005431
0.0053273
0.00322097
0.00658396
0.0072001
0.00583818
0.006241
0.00820232
0.00830414
0.00840154
0.00838488
0.00836453
0.00833191
0.00826801
0.00820578
0.00818749
0.00820371
0.00823915
0.00824349
0.00816235
0.00799333
0.00792413
0.00792824
0.00780828
0.00763458
0.0078523
0.00801525
0.0080399
0.00799617
0.00758694
0.00774578
0.0082003
0.00807665
0.00848614
0.00841916
0.00750943
0.00729005
0.00728363
0.00758616
0.00727881
0.00721655
0.00732717
0.00730579
0.00736419
0.00735088
0.00727912
0.00734691
0.00711385
0.0071941
0.0070291
0.00704648
0.00729163
0.00719594
0.00719897
0.00732861
0.00508191
0.00534797
0.00717637
0.00519632
0.00523742
0.00530071
0.00527695
0.0050571
0.00507714
0.00510772
0.00515734
0.00525344
0.00518476
0.00515564
0.00518318
0.00550424
0.00543385
0.00534251
0.00527084
0.00564448
0.00560799
0.00552719
0.00568099
0.00572714
0.00568289
0.00569687
0.00573457
0.00561128
0.00555078
0.00560318
0.00571096
0.00561799
0.00553938
0.00549603
0.00569393
0.00567296
0.00574403
0.00569552
0.00574306
0.00556434
0.00571576
0.00570742
0.0024749
0.00671535
0.0063074
0.00611082
0.0064487
0.00816216
0.00832081
0.00838748
0.00836764
0.00833992
0.00828257
0.00821613
0.00818638
0.00819577
0.00823227
0.00825302
0.00819816
0.00804892
0.00794135
0.0079482
0.00788423
0.00795084
0.00789029
0.00810844
0.00799238
0.00741446
0.0073953
0.00768708
0.00804869
0.00840383
0.00843708
0.00846646
0.00823761
0.00739411
0.00737716
0.00749919
0.0075493
0.00666056
0.00721959
0.00673308
0.00622695
0.00738712
0.00740124
0.00724343
0.00731879
0.00709009
0.00715974
0.00711973
0.00708159
0.00750952
0.00739627
0.00729957
0.00760966
0.00531141
0.00557478
0.0054831
0.00506812
0.00541876
0.00544018
0.00547715
0.00546557
0.00523972
0.00529362
0.00534152
0.00539479
0.00524813
0.00528506
0.00533651
0.0054008
0.00542558
0.005346
0.00530373
0.00534795
0.00561494
0.00553556
0.00543102
0.00574687
0.00572821
0.00561802
0.00560463
0.0056803
0.00569629
0.00561659
0.00566967
0.00574346
0.00564428
0.00567777
0.00570143
0.00580314
0.00571428
0.00581611
0.00582659
0.0060276
0.00577711
0.00587654
0.00593476
0.00298234
0.0065722
0.00555653
0.00627539
0.00645254
0.00814959
0.00834993
0.00837023
0.0083458
0.00829596
0.00822905
0.00818889
0.00819012
0.00822328
0.00825719
0.00822808
0.00810634
0.00796209
0.00796957
0.00795733
0.00801855
0.00818254
0.00811321
0.00798991
0.00739642
0.00788725
0.00801878
0.00809853
0.00834731
0.00842564
0.00842245
0.00841777
0.00759697
0.00751525
0.0074538
0.00748331
0.00744631
0.00744894
0.00741399
0.00743272
0.00739845
0.00739832
0.00737097
0.0073964
0.00717784
0.00724038
0.00708079
0.00711717
0.0072712
0.00717052
0.00749755
0.00744602
0.005475
0.00569855
0.00754075
0.00547754
0.00549604
0.00560608
0.00558347
0.0055852
0.00558736
0.00559303
0.00559504
0.0054709
0.00551295
0.00554467
0.00558004
0.005424
0.00550381
0.00556544
0.00561871
0.00536147
0.00538594
0.00546372
0.00556599
0.00552846
0.00544992
0.00541076
0.00572389
0.00565333
0.00553021
0.00552402
0.00557979
0.0057087
0.00567211
0.0056839
0.00569682
0.00569763
0.00583863
0.00586559
0.00590721
0.00576849
0.00589874
0.00597035
0.00611191
0.00589621
0.00593492
0.00598396
0.00212094
0.00626373
0.00466835
0.00618911
0.00618812
0.00814859
0.00836251
0.00835014
0.00830755
0.0082429
0.0081946
0.00818779
0.00821341
0.00825605
0.00825167
0.00815845
0.00800259
0.00798571
0.00802499
0.00809007
0.00820315
0.00812233
0.0080137
0.00796153
0.0081994
0.00827004
0.00836553
0.00833412
0.00841643
0.00841744
0.0084
0.00817572
0.00765099
0.00763127
0.00738525
0.00750414
0.00731699
0.00733096
0.00732634
0.0073237
0.00731977
0.00732383
0.00728655
0.00731174
0.007111
0.00713097
0.00711358
0.00709799
0.0073282
0.0073375
0.00554011
0.00584544
0.00743684
0.00555922
0.00572674
0.0055539
0.00559575
0.00558128
0.00559308
0.00567216
0.00563337
0.00572661
0.00571487
0.00569589
0.00570767
0.0056727
0.00569636
0.00571242
0.00573414
0.00565817
0.00572954
0.00577763
0.00581771
0.0054617
0.00558518
0.00570678
0.00580609
0.00548069
0.00547722
0.00555478
0.00563807
0.00556223
0.00551854
0.0054023
0.00551248
0.00566304
0.00570628
0.00566794
0.00562073
0.00573972
0.00598756
0.00598708
0.0060298
0.00584491
0.00601644
0.00612096
0.00593342
0.00598897
0.00589893
0.0058482
0.00236604
0.00628319
0.00586467
0.00571634
0.00544386
0.00812904
0.00835587
0.00831699
0.00825711
0.0082029
0.00818806
0.00820484
0.00825049
0.00826767
0.00820358
0.00806259
0.00798176
0.00808801
0.00808708
0.00822994
0.00814058
0.00803977
0.00803357
0.00814374
0.00824349
0.00832659
0.00837671
0.00840379
0.00841216
0.00841109
0.00840901
0.00791774
0.00780722
0.00778718
0.00789366
0.00747604
0.00764072
0.00724174
0.00733469
0.00718835
0.00720025
0.00717209
0.00718214
0.00714706
0.00715923
0.00711886
0.0070943
0.00724096
0.00716363
0.00690506
0.00709776
0.00541435
0.0057226
0.00561724
0.00564598
0.00560997
0.00560002
0.00551858
0.00556031
0.00568052
0.00568298
0.00573144
0.00567841
0.00553928
0.00551985
0.00565154
0.00555219
0.00579835
0.00570622
0.00561768
0.00558846
0.00588833
0.00595058
0.00592707
0.00578268
0.0056895
0.00584132
0.00595986
0.00605264
0.00556042
0.00565685
0.0058058
0.00557477
0.00535383
0.0054182
0.00520825
0.00521722
0.00560673
0.00570574
0.00565204
0.00545105
0.00579721
0.00613355
0.00613311
0.00617737
0.00598327
0.0061847
0.0062803
0.00552203
0.00604935
0.00580344
0.00557448
0.00296099
0.00653207
0.00602224
0.00509178
0.00618381
0.00808678
0.00832758
0.0082702
0.00821327
0.00818905
0.00819852
0.00824078
0.00827499
0.00824149
0.00812539
0.00800384
0.00807071
0.00821099
0.00818807
0.00816837
0.00806464
0.00802104
0.00806827
0.00814659
0.00825505