/*--------------------------------*- C++ -*----------------------------------*\
  =========                 |
  \\      /  F ield         | OpenFOAM: The Open Source CFD Toolbox
   \\    /   O peration     | Website:  https://openfoam.org
    \\  /    A nd           | Version:  dev
     \\/     M anipulation  |
\*---------------------------------------------------------------------------*/
FoamFile
{
    version     2.0;
    format      ascii;
    class       volScalarField;
    location    "2500";
    object      rho;
}
// * * * * * * * * * * * * * * * * * * * * * * * * * * * * * * * * * * * * * //

dimensions      [1 -3 0 0 0 0 0];

internalField   nonuniform List<scalar> 
9842
(
1.17171
1.17153
1.17161
1.17148
1.17123
1.17168
1.1715
1.17102
1.17118
1.17176
1.17151
1.17095
1.17088
1.17124
1.17177
1.17154
1.17091
1.1706
1.17091
1.1714
1.17181
1.17161
1.17099
1.1705
1.17056
1.17095
1.17146
1.17185
1.17159
1.17095
1.17042
1.17032
1.1706
1.17107
1.1715
1.17185
1.1716
1.17099
1.17049
1.17019
1.17032
1.17072
1.1712
1.17155
1.17188
1.17166
1.17111
1.17049
1.1701
1.1701
1.17041
1.17082
1.17125
1.17158
1.17187
1.17166
1.17107
1.1705
1.1701
1.16994
1.17014
1.17052
1.17096
1.17131
1.17161
1.1719
1.17169
1.17116
1.17062
1.17015
1.16984
1.16989
1.17021
1.17063
1.17103
1.17137
1.17163
1.17189
1.17171
1.17119
1.17061
1.17016
1.16976
1.16973
1.16996
1.17032
1.17075
1.17109
1.1714
1.17165
1.1719
1.17166
1.17122
1.17068
1.17023
1.16979
1.16962
1.16972
1.17004
1.17048
1.17086
1.17114
1.17143
1.17167
1.17191
1.17166
1.17121
1.17076
1.17026
1.16983
1.16954
1.16957
1.16979
1.17019
1.17059
1.17089
1.17117
1.17145
1.17168
1.17191
1.17166
1.17123
1.17087
1.1703
1.16995
1.16951
1.16943
1.16958
1.16993
1.17034
1.17067
1.17097
1.17122
1.17146
1.17169
1.17192
1.17166
1.17125
1.17085
1.17036
1.17004
1.1695
1.16935
1.16942
1.16969
1.17005
1.17043
1.17073
1.17099
1.17124
1.17148
1.1717
1.17193
1.17166
1.17125
1.17085
1.17045
1.17006
1.16955
1.1693
1.16928
1.16948
1.16979
1.17021
1.17051
1.1708
1.17103
1.17126
1.17149
1.17171
1.17193
1.17166
1.17127
1.1709
1.17052
1.1701
1.16961
1.16927
1.16918
1.1693
1.16956
1.16996
1.17029
1.17057
1.17082
1.17106
1.17128
1.1715
1.17172
1.17193
1.17167
1.17128
1.1709
1.17052
1.17014
1.16969
1.16929
1.16911
1.16914
1.16934
1.16972
1.17009
1.17037
1.17063
1.17086
1.17108
1.17129
1.17151
1.17173
1.17194
1.17167
1.17128
1.17094
1.17058
1.17026
1.16978
1.16934
1.16908
1.16903
1.16917
1.16947
1.16984
1.17016
1.17043
1.17066
1.17088
1.1711
1.17131
1.17152
1.17173
1.17194
1.1717
1.17129
1.17096
1.17062
1.17029
1.1699
1.16942
1.16908
1.16895
1.16903
1.16926
1.16959
1.16995
1.17024
1.17048
1.1707
1.1709
1.17112
1.17132
1.17154
1.17173
1.17194
1.17168
1.17129
1.171
1.17065
1.17033
1.17004
1.16945
1.16911
1.16891
1.1689
1.16908
1.16939
1.16973
1.17003
1.17028
1.17051
1.17071
1.17092
1.17112
1.17134
1.17154
1.17175
1.17194
1.17168
1.17133
1.17101
1.17069
1.1704
1.17003
1.16953
1.16915
1.16891
1.16881
1.16891
1.16916
1.16951
1.16983
1.17011
1.17032
1.17054
1.17073
1.17093
1.17113
1.17134
1.17155
1.17175
1.17194
1.17168
1.17133
1.17099
1.17071
1.17042
1.17006
1.16964
1.16924
1.1689
1.16875
1.16878
1.16898
1.16929
1.16963
1.16993
1.17016
1.17036
1.17055
1.17075
1.17094
1.17115
1.17135
1.17155
1.17175
1.17194
1.1717
1.17135
1.17102
1.17075
1.17044
1.17015
1.16972
1.1693
1.16889
1.16873
1.16867
1.16882
1.16909
1.16942
1.16972
1.16999
1.1702
1.1704
1.17058
1.17076
1.17096
1.17114
1.17135
1.17155
1.17175
1.17195
1.17171
1.17134
1.17102
1.17075
1.17045
1.17017
1.16976
1.16939
1.16896
1.1687
1.16859
1.16868
1.16892
1.16923
1.16954
1.16981
1.17003
1.17023
1.17042
1.17059
1.17076
1.17096
1.17116
1.17135
1.17155
1.17175
1.17194
1.17171
1.17134
1.17104
1.17079
1.17049
1.17024
1.16987
1.16952
1.1691
1.16869
1.16855
1.16856
1.16875
1.16904
1.16935
1.16963
1.16987
1.17007
1.17025
1.17043
1.1706
1.17077
1.17098
1.17116
1.17136
1.17156
1.17175
1.17194
1.17169
1.17134
1.17107
1.17079
1.17051
1.17025
1.16994
1.16962
1.1691
1.1687
1.16851
1.16848
1.16859
1.16886
1.16917
1.16946
1.16971
1.16992
1.1701
1.17027
1.17043
1.1706
1.17078
1.17097
1.17117
1.17135
1.17156
1.17175
1.17194
1.17169
1.17137
1.17108
1.17082
1.17057
1.1703
1.16997
1.16961
1.16914
1.16879
1.1685
1.16841
1.16847
1.16868
1.16897
1.16927
1.16954
1.16976
1.16996
1.17012
1.17029
1.17045
1.1706
1.17079
1.17096
1.17116
1.17136
1.17156
1.17176
1.17194
1.1717
1.17138
1.1711
1.17085
1.17059
1.17029
1.16998
1.16966
1.16924
1.16883
1.16851
1.16836
1.16838
1.16853
1.16879
1.1691
1.16938
1.16962
1.16981
1.16998
1.17013
1.17029
1.17044
1.17061
1.17079
1.17097
1.17117
1.17137
1.17155
1.17176
1.17194
1.17172
1.17139
1.17113
1.17086
1.17059
1.1703
1.17005
1.16971
1.16935
1.16889
1.16854
1.16833
1.16829
1.1684
1.16862
1.16891
1.16921
1.16945
1.16965
1.16984
1.17
1.17013
1.17029
1.17044
1.17061
1.17079
1.17097
1.17116
1.17136
1.17155
1.17175
1.17194
1.17172
1.1714
1.17114
1.17088
1.17062
1.17033
1.17005
1.16973
1.16943
1.16895
1.16857
1.16832
1.16823
1.16828
1.16847
1.16875
1.16903
1.16928
1.16952
1.1697
1.16986
1.17001
1.17015
1.1703
1.17045
1.17061
1.17079
1.17097
1.17116
1.17135
1.17155
1.17174
1.17194
1.17171
1.1714
1.17114
1.17088
1.17063
1.17039
1.17009
1.16979
1.16947
1.16901
1.16862
1.16833
1.16818
1.16819
1.16833
1.16858
1.16886
1.16915
1.16937
1.16956
1.16973
1.16988
1.17002
1.17015
1.17029
1.17044
1.17061
1.17078
1.17096
1.17116
1.17135
1.17154
1.17174
1.17203
1.17193
1.17172
1.17141
1.17116
1.17091
1.17066
1.1704
1.17011
1.16982
1.16953
1.16913
1.16866
1.16835
1.16816
1.16812
1.16821
1.16841
1.16869
1.16898
1.16923
1.16943
1.16959
1.16975
1.16988
1.17002
1.17015
1.17029
1.17043
1.17059
1.17077
1.17095
1.17114
1.17134
1.17156
1.17183
1.17172
1.17203
1.17193
1.17172
1.17142
1.17116
1.17092
1.17065
1.17042
1.17016
1.16985
1.16956
1.16922
1.16872
1.16837
1.16814
1.16806
1.16811
1.16829
1.16854
1.16882
1.16908
1.16929
1.16946
1.16962
1.16976
1.16988
1.17001
1.17014
1.17028
1.17042
1.17058
1.17075
1.17093
1.17113
1.17142
1.17131
1.17162
1.17146
1.17151
1.17183
1.17172
1.17203
1.17193
1.17172
1.17144
1.17117
1.17096
1.17067
1.17044
1.1702
1.16988
1.1696
1.16926
1.16877
1.1684
1.16814
1.16801
1.16803
1.16817
1.1684
1.16867
1.16893
1.16915
1.16933
1.16949
1.16963
1.16975
1.16988
1.17
1.17013
1.17026
1.17041
1.17056
1.17073
1.17092
1.1712
1.1711
1.17135
1.17162
1.17141
1.17151
1.17183
1.17172
1.17202
1.17193
1.17173
1.17146
1.17119
1.17098
1.17068
1.17048
1.17022
1.16995
1.16961
1.16928
1.16882
1.16843
1.16815
1.16798
1.16796
1.16806
1.16826
1.16852
1.16878
1.16902
1.16921
1.16937
1.16951
1.16964
1.16975
1.16987
1.16999
1.17011
1.17024
1.17039
1.17054
1.17072
1.17099
1.17089
1.17124
1.17113
1.1713
1.1716
1.17139
1.17149
1.17182
1.1717
1.17202
1.17192
1.17174
1.17146
1.17118
1.17095
1.17072
1.17047
1.17021
1.16995
1.16961
1.16931
1.16891
1.16847
1.16815
1.16796
1.16789
1.16796
1.16814
1.16838
1.16864
1.16888
1.16908
1.16925
1.16939
1.16952
1.16963
1.16975
1.16986
1.16997
1.17009
1.17022
1.17036
1.17052
1.17078
1.17068
1.17101
1.1709
1.17119
1.17109
1.17128
1.17159
1.17138
1.17147
1.1718
1.17169
1.17202
1.17191
1.17172
1.17143
1.1712
1.17097
1.17074
1.17046
1.17024
1.16996
1.16966
1.16936
1.16898
1.16852
1.16817
1.16794
1.16784
1.16788
1.16802
1.16824
1.1685
1.16874
1.16895
1.16912
1.16927
1.1694
1.16952
1.16963
1.16974
1.16984
1.16996
1.17007
1.1702
1.17034
1.17057
1.17047
1.17079
1.17068
1.17098
1.17087
1.17117
1.17106
1.17126
1.17157
1.17136
1.17145
1.17179
1.17167
1.17201
1.1719
1.17173
1.17146
1.17119
1.17099
1.17073
1.17047
1.17024
1.16998
1.16971
1.16938
1.169
1.16859
1.16821
1.16794
1.1678
1.1678
1.16791
1.16812
1.16836
1.1686
1.16882
1.169
1.16916
1.16929
1.16941
1.16951
1.16962
1.16972
1.16983
1.16993
1.17004
1.17017
1.17037
1.17028
1.17057
1.17047
1.17076
1.17065
1.17095
1.17084
1.17115
1.17104
1.17124
1.17154
1.17133
1.17142
1.17177
1.17164
1.17201
1.17188
1.17174
1.17145
1.17118
1.17096
1.17071
1.17049
1.17026
1.17004
1.16972
1.16939
1.16904
1.16864
1.16824
1.16794
1.16777
1.16773
1.16781
1.168
1.16823
1.16847
1.16869
1.16888
1.16903
1.16918
1.1693
1.1694
1.16951
1.1696
1.1697
1.1698
1.1699
1.17001
1.17018
1.1701
1.17036
1.17026
1.17054
1.17044
1.17073
1.17062
1.17092
1.17081
1.17112
1.17101
1.17121
1.17151
1.1713
1.17139
1.17175
1.17162
1.172
1.17187
1.17172
1.17142
1.17118
1.17095
1.17075
1.17054
1.17026
1.17001
1.1697
1.16941
1.16907
1.16869
1.16829
1.16796
1.16775
1.16767
1.16773
1.16788
1.16811
1.16835
1.16857
1.16875
1.16892
1.16906
1.16918
1.1693
1.1694
1.16949
1.16958
1.16967
1.16977
1.16986
1.17001
1.16994
1.17016
1.17008
1.17033
1.17022
1.1705
1.17039
1.17069
1.17058
1.17089
1.17077
1.17109
1.17097
1.17117
1.17148
1.17126
1.17135
1.17173
1.17158
1.17199
1.17185
1.17172
1.17146
1.17119
1.17095
1.17074
1.1705
1.17026
1.17
1.16973
1.16943
1.1691
1.16874
1.16832
1.16798
1.16774
1.16763
1.16765
1.16778
1.168
1.16823
1.16845
1.16864
1.16879
1.16892
1.16905
1.16917
1.16928
1.16937
1.16946
1.16955
1.16962
1.16971
1.16986
1.16978
1.16999
1.16991
1.17013
1.17003
1.17028
1.17017
1.17046
1.17033
1.17064
1.17051
1.17084
1.1707
1.17105
1.17091
1.17113
1.17144
1.17121
1.1713
1.1717
1.17155
1.17199
1.17183
1.17172
1.17144
1.17121
1.17098
1.17073
1.17053
1.17025
1.16997
1.16973
1.16944
1.16913
1.16878
1.16836
1.168
1.16774
1.1676
1.16758
1.16769
1.1679
1.16813
1.16834
1.16853
1.16866
1.16878
1.1689
1.16902
1.16913
1.16923
1.16932
1.16937
1.16941
1.16944
1.16964
1.16967
1.16981
1.1697
1.16993
1.16981
1.17005
1.1699
1.17018
1.16996
1.17034
1.17007
1.17053
1.17025
1.17075
1.17051
1.17098
1.1708
1.17106
1.1714
1.17114
1.17123
1.17167
1.17151
1.17198
1.17181
1.1717
1.17142
1.17119
1.17099
1.17075
1.17054
1.17024
1.17004
1.16971
1.16945
1.16914
1.16882
1.1684
1.16802
1.16774
1.16757
1.16753
1.16761
1.1678
1.16804
1.16826
1.1684
1.1685
1.16858
1.16866
1.16876
1.16888
1.169
1.16905
1.16901
1.16883
1.1686
1.16837
1.1695
1.16889
1.16964
1.16935
1.16968
1.16931
1.16962
1.16901
1.16959
1.16865
1.16971
1.16858
1.17001
1.1689
1.17044
1.16956
1.17084
1.17032
1.17089
1.17134
1.17096
1.17107
1.17163
1.17146
1.17197
1.17179
1.17167
1.17137
1.17116
1.17096
1.17075
1.17052
1.17024
1.17001
1.16969
1.16944
1.16915
1.16884
1.16843
1.16804
1.16775
1.16756
1.16748
1.16754
1.16772
1.16795
1.16816
1.16825
1.16825
1.1682
1.16818
1.16822
1.16835
1.16846
1.16832
1.16774
1.16696
1.16608
1.16484
1.16572
1.16348
1.16881
1.16761
1.16866
1.16738
1.1679
1.16604
1.16685
1.164
1.16632
1.1624
1.16654
1.16191
1.16744
1.16301
1.1689
1.16535
1.17018
1.1681
1.1701
1.17121
1.17013
1.17034
1.1716
1.17138
1.17196
1.17177
1.17162
1.17129
1.17109
1.17091
1.17072
1.1705
1.17031
1.17002
1.16972
1.16943
1.16916
1.16885
1.16846
1.16807
1.16776
1.16755
1.16745
1.16748
1.16764
1.16787
1.16804
1.16801
1.16776
1.16736
1.16704
1.16694
1.16706
1.16708
1.16616
1.16386
1.16144
1.15994
1.15838
1.16018
1.15655
1.1604
1.15718
1.1656
1.16316
1.16368
1.16079
1.16058
1.15687
1.15755
1.15244
1.15564
1.14876
1.1555
1.14689
1.15797
1.14767
1.16279
1.1521
1.16732
1.16013
1.16678
1.17069
1.1667
1.16727
1.17156
1.1711
1.17196
1.17175
1.17155
1.17118
1.17097
1.1708
1.17067
1.17049
1.1703
1.16998
1.16974
1.16943
1.16917
1.16887
1.16849
1.1681
1.16777
1.16754
1.16742
1.16742
1.16756
1.16779
1.16789
1.16761
1.16675
1.16554
1.16448
1.16409
1.16422
1.16389
1.16137
1.15596
1.15107
1.14928
1.14965
1.15199
1.14893
1.15381
1.14968
1.1514
1.14803
1.15773
1.15459
1.15313
1.14932
1.14742
1.14261
1.14197
1.13563
1.13821
1.12994
1.13689
1.12665
1.13912
1.12656
1.14608
1.13087
1.15782
1.14063
1.15637
1.1684
1.15622
1.15769
1.17145
1.1698
1.17195
1.17171
1.17158
1.17109
1.17082
1.17064
1.1706
1.17045
1.17021
1.16997
1.16974
1.16943
1.16919
1.16885
1.1685
1.16813
1.1678
1.16754
1.1674
1.16737
1.1675
1.1677
1.16769
1.16696
1.16508
1.16263
1.16095
1.16061
1.16077
1.15988
1.15556
1.1477
1.13953
1.13498
1.13546
1.13692
1.14612
1.13957
1.14456
1.14067
1.13891
1.13559
1.14568
1.14223
1.13811
1.13384
1.12983
1.12459
1.12245
1.11586
1.11735
1.10908
1.11512
1.10517
1.11681
1.10466
1.12355
1.10838
1.13657
1.11764
1.13443
1.16068
1.13466
1.13764
1.17092
1.1645
1.17196
1.17151
1.17135
1.17081
1.17053
1.17045
1.17033
1.17009
1.16996
1.16975
1.16945
1.16919
1.16886
1.16851
1.16816
1.16782
1.16754
1.16738
1.16733
1.16743
1.1676
1.16744
1.16608
1.16288
1.15921
1.15715
1.15691
1.1572
1.15567
1.14998
1.13943
1.12853
1.12162
1.11882
1.12122
1.12707
1.1211
1.1367
1.13181
1.13224
1.12872
1.12323
1.12015
1.12996
1.12646
1.11981
1.11554
1.11008
1.10507
1.10204
1.09618
1.09672
1.08974
1.09444
1.0864
1.09599
1.08605
1.10188
1.08921
1.11377
1.09717
1.11187
1.14307
1.11218
1.11489
1.16799
1.1504
1.17184
1.16941
1.1713
1.17065
1.17034
1.17014
1.16996
1.16994
1.16971
1.16941
1.16917
1.16888
1.1685
1.16818
1.16784
1.16756
1.16736
1.1673
1.16737
1.16751
1.16721
1.16517
1.16056
1.15566
1.15325
1.15317
1.15349
1.15162
1.14451
1.13273
1.12295
1.11597
1.11053
1.10705
1.11526
1.10857
1.11647
1.11149
1.12496
1.12086
1.11721
1.11429
1.10579
1.1033
1.11183
1.10861
1.10067
1.09698
1.09126
1.08732
1.08444
1.08074
1.08084
1.07749
1.07958
1.07619
1.08042
1.07587
1.08492
1.07722
1.09437
1.08225
1.0933
1.12007
1.09395
1.09614
1.10702
1.1572
1.12746
1.16876
1.15703
1.17131
1.17053
1.17009
1.16982
1.16984
1.16964
1.16938
1.16916
1.16889
1.16852
1.16819
1.16787
1.16757
1.16736
1.16725
1.16731
1.16745
1.16705
1.16443
1.15843
1.15222
1.14936
1.1494
1.14983
1.14768
1.14021
1.13034
1.12352
1.1173
1.11141
1.10482
1.09785
1.10658
1.09974
1.10474
1.10114
1.11125
1.1081
1.1011
1.09906
1.08948
1.08804
1.0939
1.09142
1.08417
1.08201
1.07822
1.0767
1.07546
1.07435
1.07452
1.07379
1.07417
1.07363
1.07395
1.0733
1.07532
1.07323
1.0808
1.07432
1.07738
1.08686
1.08077
1.09855
1.11231
1.10015
1.08849
1.0813
1.08148
1.08931
1.14553
1.13121
1.10317
1.10462
1.1167
1.14757
1.13077
1.13834
1.12701
1.17131
1.17033
1.16971
1.16972
1.1696
1.16936
1.16914
1.16888
1.16855
1.16818
1.16789
1.16759
1.16735
1.16722
1.16724
1.16738
1.16699
1.16403
1.15676
1.14905
1.14555
1.14561
1.14613
1.14388
1.13688
1.13062
1.12593
1.12229
1.11803
1.11062
1.10041
1.09115
1.09195
1.09721
1.09337
1.09326
1.09118
1.09712
1.09521
1.08695
1.08612
1.07943
1.07939
1.0806
1.07981
1.07572
1.07553
1.07376
1.07373
1.07335
1.07341
1.07381
1.07438
1.07406
1.07597
1.0731
1.07352
1.07454
1.07637
1.07317
1.07283
1.07423
1.07478
1.07326
1.07436
1.07699
1.07374
1.07286
1.07676
1.0908
1.09274
1.08232
1.07714
1.07675
1.08328
1.11701
1.09453
1.09575
1.10548
1.16034
1.14834
1.12114
1.11447
1.11144
1.17119
1.16993
1.16957
1.16952
1.16932
1.16911
1.16885
1.16856
1.16817
1.1679
1.1676
1.16736
1.1672
1.16718
1.1673
1.167
1.16398
1.15582
1.14639
1.1419
1.14186
1.14247
1.14024
1.13492
1.13127
1.12946
1.13099
1.13498
1.13149
1.11793
1.09871
1.08683
1.08775
1.08891
1.08711
1.08423
1.08345
1.08546
1.08484
1.07942
1.07944
1.07652
1.07702
1.07568
1.07602
1.07392
1.07449
1.07378
1.07473
1.07551
1.07705
1.07863
1.08137
1.0783
1.08057
1.08245
1.08461
1.07578
1.07813
1.08074
1.0727
1.07356
1.07721
1.07863
1.07561
1.07271
1.07379
1.0726
1.07272
1.07371
1.0846
1.08606
1.07773
1.07381
1.07407
1.07853
1.1045
1.08738
1.08826
1.09604
1.17098
1.1637
1.12809
1.10249
1.10966
1.17067
1.16944
1.16937
1.16924
1.16905
1.16881
1.16856
1.16819
1.16789
1.16761
1.16736
1.16719
1.16713
1.16723
1.16708
1.16426
1.15568
1.14454
1.13852
1.13816
1.13899
1.13702
1.1337
1.13196
1.13262
1.13914
1.14894
1.14892
1.13949
1.12431
1.09362
1.10676
1.08329
1.08604
1.08278
1.08268
1.07928
1.07921
1.07944
1.07938
1.07739
1.07756
1.0776
1.07826
1.07548
1.07659
1.07641
1.07851
1.07927
1.08202
1.0842
1.08713
1.08637
1.08842
1.09009
1.09201
1.08336
1.08592
1.08835
1.09071
1.08012
1.08326
1.08644
1.07398
1.07655
1.08212
1.08405
1.08005
1.07276
1.07257
1.07279
1.07438
1.07252
1.07953
1.08062
1.07444
1.0725
1.07249
1.07496
1.09539
1.08162
1.0824
1.08859
1.17193
1.14231
1.1686
1.09789
1.11556
1.16966
1.16925
1.16912
1.16897
1.16875
1.16853
1.16821
1.16787
1.16761
1.16737
1.16718
1.1671
1.16716
1.16716
1.16506
1.15622
1.14389
1.13569
1.13473
1.13559
1.13443
1.13309
1.13259
1.13544
1.14512
1.15684
1.15895
1.15294
1.1415
1.12708
1.09519
1.10852
1.08118
1.08552
1.07924
1.07964
1.07725
1.07723
1.07754
1.07743
1.07842
1.07826
1.08304
1.083
1.08054
1.08216
1.08517
1.08809
1.09076
1.09364
1.09349
1.09506
1.09607
1.0969
1.09286
1.09494
1.09672
1.09828
1.08952
1.0924
1.09503
1.09734
1.08582
1.08956
1.09313
1.07743
1.08137
1.08829
1.09056
1.08584
1.07473
1.07281
1.07496
1.07815
1.07272
1.07562
1.0764
1.07253
1.07257
1.07228
1.07266
1.08983
1.07721
1.07814
1.0834
1.17197
1.15122
1.16951
1.09756
1.12074
1.16906
1.16899
1.16887
1.16868
1.16849
1.16821
1.16787
1.1676
1.16737
1.16718
1.16707
1.1671
1.16718
1.16591
1.15803
1.14413
1.13387
1.13176
1.13255
1.13258
1.13243
1.13324
1.13822
1.14943
1.16068
1.16398
1.16115
1.15044
1.13329
1.12041
1.12519
1.09695
1.10973
1.08037
1.08626
1.07738
1.0781
1.07666
1.07647
1.07791
1.07724
1.0825
1.08135
1.09119
1.09039
1.09023
1.09131
1.09561
1.09707
1.09777
1.09732
1.09927
1.09956
1.09928
1.09876
1.09933
1.10086
1.10169
1.10169
1.09634
1.0991
1.10135
1.10297
1.09254
1.09648
1.09988
1.08252
1.08742
1.09521
1.09744
1.09253
1.07869
1.07496
1.07898
1.08344
1.07475
1.07291
1.07333
1.07198
1.07422
1.07347
1.07167
1.08691
1.074
1.07511
1.07997
1.17201
1.15462
1.17009
1.09793
1.12336
1.16884
1.16875
1.1686
1.16843
1.1682
1.16788
1.16758
1.16736
1.16717
1.16705
1.16704
1.16716
1.16656
1.16063
1.1456
1.1334
1.12947
1.13017
1.13108
1.13189
1.13421
1.1411
1.15325
1.16281
1.1662
1.1655
1.15871
1.13634
1.11914
1.11702
1.11745
1.09836
1.10965
1.08049
1.08763
1.07663
1.07759
1.07694
1.07648
1.07974
1.07813
1.08839
1.08552
1.10047
1.09881
1.09877
1.10029
1.09728
1.09772
1.09401
1.09166
1.08811
1.08975
1.10123
1.10011
1.09848
1.09635
1.10371
1.10361
1.10281
1.10125
1.1026
1.10453
1.10545
1.10538
1.09938
1.1028
1.10528
1.08872
1.09414
1.10173
1.10352
1.09922
1.08408
1.07897
1.0844
1.08969
1.07852
1.07142
1.07137
1.07248
1.07758
1.07615
1.07152
1.08486
1.0717
1.07272
1.07737
1.17203
1.1564
1.17031
1.09763
1.12354
1.16861
1.16851
1.16837
1.16817
1.16789
1.16755
1.16735
1.16716
1.16703
1.16699
1.16709
1.16694
1.16316
1.14926
1.13387
1.12804
1.12825
1.12966
1.13152
1.13573
1.14447
1.15679
1.16433
1.16713
1.16743
1.16483
1.15122
1.12649
1.10921
1.11142
1.11102
1.11074
1.09869
1.10736
1.08129
1.08894
1.07663
1.07776
1.07779
1.07695
1.08247
1.07975
1.09542
1.09107
1.10672
1.10734
1.10007
1.10323
1.08742
1.08727
1.08494
1.0847
1.08124
1.07628
1.07831
1.0989
1.09583
1.09231
1.0885
1.10448
1.10264
1.09976
1.09606
1.1067
1.10687
1.10628
1.10431
1.10503
1.1072
1.10794
1.09537
1.10056
1.10668
1.10778
1.10482
1.09031
1.08427
1.09049
1.09619
1.08352
1.07082
1.07022
1.07427
1.08206
1.07982
1.07217
1.08265
1.07006
1.07062
1.07482
1.17191
1.15635
1.16877
1.09572
1.1209
1.16839
1.16829
1.16813
1.16788
1.16756
1.16732
1.16715
1.16702
1.16696
1.16702
1.16708
1.16513
1.15415
1.13588
1.12772
1.12669
1.12839
1.13153
1.1377
1.14829
1.15977
1.16535
1.16753
1.16805
1.16745
1.16314
1.14966
1.12844
1.10518
1.11104
1.10371
1.10389
1.09717
1.10229
1.08229
1.08937
1.07705
1.07833
1.07978
1.07835
1.08656
1.08262
1.10428
1.09906
1.1081
1.11396
1.09087
1.09944
1.07559
1.07614
1.06448
1.06744
1.07208
1.06817
1.0632
1.06515
1.09168
1.08676
1.08168
1.0767
1.10132
1.09732
1.09242
1.08687
1.10768
1.10614
1.10335
1.09938
1.10838
1.10863
1.10766
1.10149
1.10569
1.10896
1.1093
1.10849
1.09659
1.09012
1.09647
1.10199
1.08896
1.07054
1.06952
1.07684
1.08691
1.08374
1.07361
1.07996
1.06888
1.06901
1.07245
1.16819
1.15045
1.15928
1.0915
1.11223
1.16819
1.16808
1.16787
1.16757
1.16728
1.16713
1.167
1.16692
1.16695
1.16709
1.16633
1.15907
1.14096
1.12817
1.12571
1.12728
1.1316
1.13939
1.15154
1.16151
1.16593
1.16758
1.16812
1.16818
1.16723
1.16305
1.15556
1.13286
1.15094
1.10562
1.11766
1.09782
1.10031
1.0934
1.09628
1.08305
1.08851
1.0783
1.07944
1.08413
1.08181
1.09328
1.08808
1.11457
1.11024
1.10209
1.11639
1.07153
1.07785
1.08466
1.06257
1.06294
1.05623
1.05936
1.05975
1.05634
1.05295
1.05402
1.08099
1.07501
1.06931
1.06416
1.09435
1.0885
1.08213
1.07561
1.10539
1.10183
1.09704
1.09118
1.10884
1.10731
1.10436
1.10624
1.10889
1.10893
1.10909
1.10957
1.10204
1.09567
1.10146
1.10637
1.09398
1.07068
1.06894
1.07952
1.09118
1.08698
1.07515
1.07688
1.06804
1.06781
1.07043
1.13003
1.13081
1.12062
1.08519
1.09465
1.16801
1.16783
1.16756
1.16725
1.16709
1.16697
1.16689
1.16689
1.16702
1.16688
1.16296
1.1479
1.13019
1.12555
1.1263
1.1315
1.14112
1.15405
1.16216
1.16581
1.16742
1.16803
1.16825
1.16824
1.16748
1.16615
1.16591
1.14872
1.16128
1.11603
1.13199
1.09805
1.10474
1.09152
1.09438
1.08451
1.08821
1.08121
1.0819
1.09261
1.08923
1.10386
1.09764
1.12336
1.124
1.08633
1.098
1.11144
1.06337
1.06882
1.07831
1.06967
1.05294
1.05401
1.05385
1.05718
1.05023
1.04789
1.04685
1.04681
1.0693
1.06339
1.05811
1.05368
1.08461
1.07774
1.07094
1.06455
1.10004
1.09446
1.08794
1.08086
1.10693
1.10345
1.09822
1.1091
1.10982
1.10688
1.10736
1.10943
1.10594
1.10009
1.1048
1.10892
1.09771
1.07111
1.06857
1.0819
1.09395
1.0891
1.07629
1.07373
1.06734
1.06687
1.06876
1.10275
1.09675
1.08366
1.07809
1.07991
1.16778
1.16753
1.16725
1.16704
1.16694
1.16686
1.16684
1.16693
1.16703
1.16536
1.15505
1.13579
1.12599
1.12553
1.13112
1.14173
1.155
1.16176
1.16502
1.16677
1.16769
1.16813
1.16832
1.16838
1.16837
1.16849
1.1683
1.1689
1.16131
1.16663
1.13429
1.15019
1.10809
1.11927
1.09563
1.10055
1.08906
1.09197
1.08766
1.08767
1.10657
1.10247
1.11866
1.11221
1.12784
1.13513
1.08176
1.09173
1.09751
1.10977
1.06075
1.06483
1.07455
1.06884
1.04824
1.05072
1.05434
1.0579
1.04403
1.04296
1.04447
1.04302
1.05881
1.05383
1.04961
1.04628
1.07368
1.06681
1.06057
1.05506
1.09183
1.08468
1.0772
1.06984
1.10277
1.09675
1.08944
1.10984
1.1097
1.10316
1.10428
1.10812
1.10799
1.1027
1.10608
1.10934
1.09938
1.07138
1.06822
1.08319
1.09492
1.08956
1.07698
1.07103
1.06676
1.06604
1.06749
1.13309
1.07657
1.07722
1.07266
1.0719
1.16748
1.16722
1.16697
1.16689
1.16682
1.16679
1.16685
1.16702
1.16653
1.16077
1.14409
1.12814
1.12539
1.13014
1.14143
1.15474
1.16082
1.16333
1.16517
1.16674
1.16773
1.16819
1.16841
1.16858
1.16876
1.169
1.16903
1.1691
1.16734
1.16868
1.15485
1.16344
1.12816
1.14171
1.10945
1.11732
1.10084
1.10403
1.10024
1.09976
1.12648
1.12231
1.13662
1.13166
1.11995
1.13069
1.1397
1.08
1.08772
1.09424
1.1043
1.06121
1.06464
1.07418
1.07014
1.04721
1.05056
1.05769
1.06209
1.03982
1.03992
1.0441
1.04141
1.05012
1.04605
1.04289
1.04075
1.06296
1.05687
1.05146
1.04674
1.08149
1.07356
1.06608
1.05927
1.09663
1.08842
1.07924
1.10946
1.1087
1.09786
1.09941
1.10538
1.10804
1.10313
1.10563
1.10862
1.0991
1.07147
1.06789
1.08355
1.0943
1.08888
1.07728
1.06879
1.06608
1.06523
1.06629
1.10634
1.06978
1.07215
1.06921
1.06817
1.16717
1.16693
1.16683
1.16677
1.16675
1.16678
1.16692
1.16693
1.16436
1.15262
1.13439
1.12598
1.12871
1.14042
1.15401
1.15956
1.16164
1.16284
1.1645
1.16668
1.16782
1.16826
1.16847
1.16868
1.16885
1.16907
1.16917
1.16915
1.16899
1.16916
1.16628
1.16831
1.15309
1.16148
1.13367
1.1429
1.12216
1.1267
1.12031
1.12005
1.15018
1.14772
1.14745
1.1502
1.1156
1.12729
1.14035
1.13017
1.08025
1.08637
1.09268
1.10025
1.06509
1.06742
1.0762
1.0739
1.04773
1.05263
1.06258
1.06814
1.03733
1.03881
1.04476
1.0413
1.04286
1.03991
1.03794
1.03716
1.05333
1.04807
1.04364
1.04008
1.07022
1.06228
1.05556
1.04994
1.08914
1.07909
1.06875
1.10824
1.10577
1.0908
1.09263
1.10073
1.10664
1.10193
1.10299
1.10656
1.09701
1.07127
1.06725
1.08317
1.09132
1.08619
1.07664
1.06698
1.06544
1.06442
1.06518
1.1469
1.06715
1.08276
1.06703
1.06619
1.16688
1.16677
1.16672
1.1667
1.16672
1.16682
1.16698
1.16612
1.15946
1.14351
1.12871
1.12824
1.13809
1.15265
1.15849
1.16012
1.16062
1.16173
1.16431
1.16686
1.16799
1.16832
1.16851
1.1687
1.16889
1.16917
1.16918
1.16909
1.16923
1.16928
1.16927
1.16902
1.16923
1.16666
1.16833
1.15877
1.16343
1.14959
1.15377
1.14658
1.14697
1.16094
1.16299
1.14873
1.15688
1.10961
1.11998
1.13449
1.12398
1.08241
1.08659
1.09262
1.09842
1.07113
1.0726
1.08006
1.07918
1.04981
1.05601
1.06783
1.07442
1.03679
1.03896
1.04685
1.04211
1.03742
1.03575
1.03528
1.03551
1.04488
1.04079
1.03764
1.03546
1.05956
1.05213
1.04651
1.04208
1.08013
1.06877
1.05817
1.10461
1.09992
1.08204
1.08232
1.0925
1.10295
1.09794
1.0977
1.10103
1.09216
1.07045
1.06693
1.08134
1.08785
1.08456
1.07527
1.06561
1.06469
1.06371
1.06423
1.15228
1.06719
1.09234
1.06558
1.0652
1.16672
1.16665
1.16664
1.16666
1.16673
1.16692
1.16678
1.16375
1.1525
1.13629
1.12902
1.13451
1.15003
1.15759
1.15901
1.15879
1.15912
1.16136
1.16452
1.16731
1.16807
1.16836
1.16857
1.16876
1.16895
1.16922
1.1692
1.16912
1.16927
1.16935
1.16931
1.16939
1.16938
1.16922
1.16935
1.1682
1.16888
1.16596
1.16716
1.16393
1.16482
1.16036
1.1652
1.13319
1.1422
1.15016
1.10541
1.11406
1.12467
1.11659
1.08598
1.08845
1.09433
1.09827
1.0779
1.07884
1.08506
1.08515
1.05297
1.06026
1.07379
1.08099
1.03725
1.03993
1.04984
1.04419
1.03431
1.03409
1.03436
1.03537
1.03833
1.03578
1.03425
1.03359
1.04988
1.04386
1.03976
1.03698
1.06992
1.05815
1.0487
1.09667
1.08948
1.07031
1.06921
1.07979
1.09534
1.09216
1.09098
1.09117
1.08864
1.06912
1.06612
1.07995
1.08579
1.08338
1.0741
1.06454
1.06424
1.0631
1.06344
1.14739
1.06948
1.09602
1.06457
1.06504
1.16661
1.16657
1.1666
1.16666
1.1668
1.16692
1.16587
1.15952
1.14576
1.13252
1.13314
1.14517
1.15613
1.15834
1.15759
1.15703
1.15849
1.16134
1.16545
1.16761
1.16815
1.16841
1.16863
1.16883
1.16902
1.16926
1.16923
1.16916
1.16931
1.1694
1.16936
1.16947
1.16943
1.1695
1.16949
1.16942
1.16948
1.16895
1.16927
1.16738
1.16842
1.14865
1.15988
1.12659
1.13493
1.1424
1.13443
1.1035
1.10953
1.11955
1.11359
1.09092
1.09188
1.09824
1.10038
1.08447
1.08527
1.09098
1.09158
1.05696
1.06529
1.08027
1.08809
1.03856
1.0421
1.05339
1.04697
1.03351
1.03374
1.0347
1.03638
1.03501
1.0339
1.03349
1.03348
1.04269
1.03889
1.03666
1.03537
1.05817
1.04858
1.04344
1.08475
1.07745
1.05943
1.06408
1.07106
1.08828
1.08869
1.08827
1.08445
1.08747
1.06817
1.06573
1.07919
1.08549
1.08371
1.07378
1.06371
1.06367
1.06267
1.06282
1.15348
1.07204
1.10166
1.06385
1.06532
1.16651
1.16652
1.16658
1.16669
1.1669
1.16667
1.16381
1.1544
1.14088
1.13417
1.14058
1.15273
1.15758
1.15706
1.15572
1.15608
1.15831
1.16211
1.16638
1.16785
1.16821
1.16845
1.16867
1.16888
1.1691
1.16919
1.16929
1.16925
1.16934
1.16944
1.16939
1.16952
1.16948
1.16957
1.16954
1.16954
1.16958
1.16904
1.16942
1.16561
1.16805
1.13846
1.14228
1.14862
1.15578
1.12316
1.12869
1.13284
1.10377
1.1083
1.11801
1.11343
1.09738
1.09743
1.10508
1.10567
1.0912
1.0918
1.09787
1.09874
1.06141
1.07086
1.08708
1.09583
1.04105
1.04495
1.05708
1.05016
1.03378
1.03471
1.03633
1.03822
1.03451
1.03428
1.03442
1.03484
1.04023
1.03835
1.0374
1.037
1.05338
1.04935
1.04819
1.08001
1.07753
1.06141
1.06858
1.07279
1.08653
1.08797
1.08843
1.08508
1.08748
1.06886
1.06579
1.07937
1.08615
1.08415
1.07301
1.06307
1.06362
1.06249
1.06244
1.15668
1.07445
1.10289
1.06345
1.06585
1.16643
1.16651
1.1666
1.16678
1.16687
1.16589
1.16072
1.14985
1.13876
1.139
1.14782
1.15588
1.15672
1.15521
1.15445
1.15573
1.15871
1.16349
1.16722
1.16799
1.16827
1.1685
1.16872
1.16891
1.16923
1.16922
1.16926
1.16912
1.16932
1.16928
1.16938
1.16947
1.16943
1.16957
1.16952
1.16968
1.16964
1.16962
1.16968
1.16877
1.1694
1.16354
1.16719
1.13771
1.14425
1.14858
1.1566
1.12323
1.12773
1.13341
1.10713
1.10972
1.11959
1.11685
1.10546
1.10508
1.11454
1.11448
1.09852
1.09901
1.10641
1.10709
1.06595
1.0767
1.09383
1.10416
1.04299
1.0472
1.05981
1.05265
1.03582
1.03684
1.03807
1.03984
1.03705
1.0372
1.03753
1.03821
1.04681
1.04582
1.04533
1.04501
1.05731
1.05365
1.07708
1.08254
1.08893
1.07973
1.07939
1.08382
1.0879
1.08822
1.08932
1.09567
1.08793
1.06829
1.0657
1.08058
1.08552
1.08279
1.07372
1.06261
1.06395
1.06245
1.06219
1.16827
1.07541
1.11591
1.06327
1.06629
1.16639
1.16653
1.16665
1.16686
1.16666
1.1644
1.15738
1.14694
1.14036
1.14473
1.15231
1.15597
1.15512
1.15378
1.15381
1.1558
1.15996
1.1653
1.16764
1.16808
1.16833
1.16855
1.16877
1.16896
1.16929
1.16925
1.16932
1.16917
1.16935
1.16941
1.16952
1.16947
1.16962
1.16958
1.16971
1.16967
1.16965
1.16971
1.16876
1.16941
1.16343
1.16714
1.14057
1.14792
1.15073
1.15471
1.16083
1.16293
1.1271
1.12985
1.13771
1.11463
1.11521
1.12547
1.12492
1.11585
1.11493
1.12623
1.12579
1.1066
1.1072
1.11661
1.11671
1.06892
1.08122
1.09704
1.11163
1.04521
1.04861
1.06103
1.05373
1.03885
1.03913
1.04121
1.04309
1.04502
1.04457
1.04464
1.04455
1.07652
1.07574
1.07565
1.07545
1.07678
1.07408
1.10041
1.08931
1.10619
1.1008
1.10045
1.10303
1.09793
1.08864
1.09955
1.11043
1.10148
1.06824
1.06663
1.07824
1.10195
1.10148
1.07453
1.06237
1.06405
1.06265
1.06217
1.16867
1.07616
1.11768
1.06326
1.06631
1.16638
1.16658
1.16674
1.16684
1.16611
1.16244
1.1547
1.14583
1.14432
1.14928
1.15411
1.15501
1.15374
1.15278
1.15365
1.15673
1.16191
1.16682
1.16785
1.16815
1.16838
1.1686
1.16881
1.16905
1.16936
1.16932
1.16927
1.16938
1.16921
1.16944
1.16956
1.16951
1.16967
1.16962
1.16977
1.16973
1.16973
1.16977
1.16907
1.16956
1.16535
1.16796
1.14584
1.1534
1.15991
1.16452
1.16494
1.13514
1.13586
1.14468
1.12546
1.12511
1.13564
1.13658
1.12766
1.127
1.13912
1.13871
1.11558
1.11656
1.12761
1.12741
1.06992
1.08289
1.09779
1.11508
1.0483
1.05116
1.0619
1.05522
1.04473
1.04492
1.04409
1.04676
1.07561
1.07515
1.0752
1.07452
1.10075
1.10043
1.10053
1.10034
1.10039
1.099
1.12897
1.10775
1.13101
1.12881
1.1286
1.12975
1.11286
1.09937
1.11475
1.13372
1.11717
1.07009
1.0662
1.07883
1.10134
1.11812
1.11844
1.07395
1.06237
1.06477
1.06291
1.06225
0.897392
1.07452
1.10054
1.06332
1.06602
1.1664
1.16665
1.16682
1.16671
1.16519
1.16055
1.15312
1.14657
1.14837
1.15206
1.1544
1.15391
1.15263
1.15232
1.15414
1.15847
1.16445
1.16748
1.16797
1.16822
1.16844
1.16865
1.16885
1.16913
1.16924
1.16942
1.16939
1.16935
1.1693
1.16948
1.16961
1.16954
1.16973
1.16967
1.16984
1.16979
1.16987
1.16988
1.16966
1.16982
1.16884
1.16933
1.15288
1.15961
1.16453
1.16755
1.16774
1.14601
1.14503
1.15352
1.13812
1.1373
1.14785
1.14891
1.13893
1.13927
1.14604
1.14754
1.12439
1.12688
1.1384
1.13693
1.07012
1.08326
1.0951
1.11417
1.05177
1.05519
1.06259