/*--------------------------------*- C++ -*----------------------------------*\
  =========                 |
  \\      /  F ield         | OpenFOAM: The Open Source CFD Toolbox
   \\    /   O peration     | Website:  https://openfoam.org
    \\  /    A nd           | Version:  dev
     \\/     M anipulation  |
\*---------------------------------------------------------------------------*/
FoamFile
{
    version     2.0;
    format      ascii;
    class       volScalarField;
    location    "2500";
    object      T;
}
// * * * * * * * * * * * * * * * * * * * * * * * * * * * * * * * * * * * * * //

dimensions      [0 0 0 1 0 0 0];

internalField   nonuniform List<scalar> 
9842
(
300.101
300.146
300.125
300.157
300.222
300.108
300.152
300.275
300.235
300.088
300.149
300.292
300.312
300.22
300.084
300.14
300.303
300.383
300.305
300.18
300.075
300.123
300.282
300.408
300.393
300.295
300.164
300.065
300.125
300.292
300.427
300.455
300.383
300.262
300.155
300.064
300.122
300.28
300.409
300.487
300.455
300.352
300.231
300.14
300.058
300.108
300.249
300.409
300.51
300.511
300.432
300.327
300.216
300.134
300.058
300.106
300.259
300.406
300.507
300.552
300.501
300.402
300.29
300.201
300.125
300.052
300.097
300.236
300.375
300.495
300.576
300.562
300.482
300.375
300.273
300.186
300.121
300.054
300.093
300.226
300.376
300.492
300.594
300.603
300.545
300.455
300.344
300.256
300.179
300.114
300.052
300.105
300.217
300.358
300.472
300.587
300.632
300.605
300.524
300.413
300.316
300.243
300.171
300.11
300.048
300.103
300.221
300.335
300.464
300.576
300.652
300.644
300.589
300.485
300.384
300.308
300.236
300.166
300.107
300.049
300.104
300.215
300.307
300.454
300.545
300.659
300.679
300.64
300.551
300.447
300.365
300.287
300.225
300.164
300.104
300.047
300.103
300.209
300.311
300.438
300.521
300.659
300.7
300.682
300.613
300.521
300.425
300.348
300.282
300.219
300.159
300.101
300.045
300.102
300.206
300.312
300.414
300.515
300.645
300.711
300.717
300.665
300.588
300.481
300.405
300.331
300.272
300.214
300.156
300.1
300.044
300.1
300.202
300.297
300.394
300.504
300.63
300.719
300.743
300.713
300.645
300.543
300.459
300.389
300.326
300.265
300.21
300.153
300.097
300.045
300.098
300.199
300.295
300.394
300.493
300.61
300.713
300.76
300.753
300.701
300.604
300.512
300.438
300.373
300.316
300.259
300.206
300.149
300.094
300.041
300.097
300.199
300.286
300.379
300.461
300.585
300.699
300.767
300.78
300.746
300.668
300.574
300.493
300.425
300.366
300.311
300.255
300.202
300.147
300.095
300.041
300.089
300.195
300.28
300.367
300.453
300.553
300.677
300.766
300.799
300.781
300.722
300.638
300.546
300.472
300.411
300.356
300.305
300.25
300.199
300.144
300.094
300.043
300.093
300.195
300.268
300.359
300.442
300.517
300.668
300.757
300.809
300.814
300.767
300.689
300.602
300.525
300.461
300.403
300.353
300.3
300.249
300.194
300.143
300.089
300.042
300.092
300.182
300.265
300.348
300.423
300.518
300.648
300.746
300.81
300.836
300.811
300.746
300.658
300.575
300.505
300.45
300.395
300.349
300.296
300.246
300.194
300.14
300.088
300.042
300.091
300.183
300.269
300.343
300.419
300.511
300.62
300.724
300.812
300.851
300.844
300.791
300.713
300.627
300.551
300.491
300.441
300.392
300.344
300.295
300.242
300.192
300.139
300.089
300.041
300.085
300.177
300.263
300.331
300.413
300.487
300.599
300.707
300.812
300.854
300.871
300.832
300.763
300.679
300.602
300.536
300.48
300.431
300.386
300.339
300.29
300.243
300.19
300.139
300.089
300.039
300.083
300.178
300.26
300.332
300.407
300.48
300.586
300.683
300.793
300.862
300.891
300.867
300.807
300.729
300.65
300.581
300.524
300.473
300.427
300.383
300.339
300.289
300.24
300.19
300.139
300.09
300.041
300.083
300.177
300.254
300.321
300.397
300.462
300.557
300.648
300.759
300.865
300.901
300.898
300.85
300.777
300.697
300.626
300.565
300.515
300.468
300.423
300.38
300.336
300.285
300.239
300.188
300.137
300.089
300.041
300.086
300.176
300.246
300.318
300.392
300.459
300.54
300.622
300.758
300.861
300.909
300.919
300.89
300.822
300.742
300.668
300.605
300.551
300.507
300.463
300.422
300.379
300.334
300.287
300.237
300.19
300.138
300.089
300.041
300.085
300.169
300.244
300.31
300.375
300.445
300.532
300.625
300.746
300.838
300.912
300.935
300.92
300.868
300.793
300.716
300.648
300.593
300.542
300.502
300.459
300.418
300.38
300.332
300.289
300.24
300.189
300.138
300.087
300.041
300.083
300.165
300.239
300.302
300.37
300.447
300.528
300.61
300.719
300.825
300.909
300.947
300.944
300.906
300.838
300.761
300.69
300.629
300.581
300.537
300.498
300.458
300.42
300.377
300.333
300.286
300.237
300.187
300.14
300.088
300.042
300.078
300.161
300.228
300.3
300.369
300.444
300.51
300.598
300.69
300.81
300.901
300.954
300.965
300.939
300.882
300.808
300.733
300.67
300.619
300.573
300.533
300.498
300.46
300.42
300.377
300.332
300.286
300.238
300.188
300.14
300.089
300.04
300.077
300.16
300.226
300.294
300.362
300.435
300.507
300.593
300.67
300.794
300.891
300.956
300.981
300.968
300.92
300.85
300.776
300.713
300.654
300.608
300.566
300.529
300.493
300.456
300.418
300.377
300.333
300.287
300.238
300.19
300.141
300.093
300.042
300.078
300.158
300.225
300.292
300.357
300.421
300.497
300.575
300.657
300.777
300.878
300.954
300.992
300.991
300.956
300.892
300.82
300.748
300.691
300.642
300.6
300.562
300.527
300.493
300.457
300.42
300.379
300.335
300.289
300.24
300.191
300.143
300.093
300.018
300.044
300.076
300.154
300.22
300.284
300.348
300.417
300.491
300.567
300.641
300.744
300.866
300.948
300.998
301.008
300.986
300.934
300.864
300.789
300.727
300.676
300.634
300.595
300.561
300.527
300.494
300.459
300.422
300.382
300.338
300.291
300.244
300.194
300.137
300.07
300.096
300.019
300.043
300.075
300.152
300.219
300.28
300.35
300.412
300.478
300.557
300.633
300.723
300.85
300.943
301.001
301.024
301.01
300.966
300.901
300.83
300.764
300.711
300.667
300.628
300.593
300.561
300.529
300.496
300.462
300.425
300.385
300.341
300.296
300.247
300.174
300.2
300.122
300.162
300.149
300.069
300.096
300.019
300.045
300.074
300.147
300.216
300.27
300.346
300.405
300.468
300.549
300.623
300.711
300.837
300.933
301.001
301.034
301.031
300.996
300.937
300.869
300.802
300.745
300.699
300.659
300.625
300.593
300.562
300.531
300.499
300.466
300.429
300.389
300.346
300.299
300.228
300.255
300.189
300.123
300.176
300.151
300.07
300.098
300.021
300.045
300.071
300.14
300.21
300.264
300.342
300.395
300.462
300.532
300.62
300.705
300.824
300.926
300.999
301.042
301.049
301.023
300.972
300.906
300.839
300.78
300.732
300.69
300.655
300.623
300.594
300.564
300.534
300.503
300.47
300.434
300.395
300.35
300.283
300.308
300.219
300.247
300.203
300.126
300.179
300.155
300.072
300.101
300.02
300.047
300.067
300.138
300.212
300.271
300.331
300.397
300.464
300.531
300.619
300.696
300.8
300.915
300.996
301.047
301.064
301.048
301.003
300.942
300.875
300.814
300.764
300.721
300.685
300.652
300.624
300.595
300.567
300.538
300.508
300.476
300.44
300.4
300.335
300.361
300.276
300.304
300.23
300.258
300.207
300.13
300.184
300.16
300.076
300.106
300.021
300.05
300.071
300.146
300.206
300.266
300.326
300.399
300.454
300.526
300.606
300.682
300.782
300.901
300.991
301.05
301.077
301.069
301.033
300.976
300.911
300.849
300.796
300.752
300.714
300.682
300.653
300.625
300.598
300.571
300.543
300.514
300.482
300.447
300.388
300.413
300.332
300.359
300.285
300.313
300.236
300.264
300.213
300.136
300.189
300.166
300.08
300.111
300.023
300.053
300.068
300.138
300.209
300.259
300.328
300.394
300.455
300.521
300.592
300.676
300.775
300.882
300.981
301.05
301.087
301.088
301.06
301.008
300.945
300.883
300.829
300.783
300.744
300.71
300.68
300.654
300.628
300.602
300.576
300.549
300.521
300.489
300.439
300.462
300.387
300.414
300.34
300.368
300.292
300.32
300.241
300.27
300.219
300.142
300.197
300.173
300.084
300.117
300.024
300.056
300.065
300.139
300.209
300.266
300.331
300.387
300.448
300.505
300.59
300.675
300.765
300.868
300.973
301.049
301.094
301.105
301.085
301.038
300.978
300.917
300.862
300.814
300.774
300.738
300.707
300.681
300.656
300.631
300.607
300.582
300.557
300.529
300.486
300.507
300.441
300.466
300.395
300.422
300.348
300.377
300.299
300.328
300.248
300.278
300.227
300.149
300.205
300.182
300.089
300.124
300.026
300.06
300.07
300.146
300.21
300.269
300.32
300.375
300.448
300.513
300.593
300.668
300.756
300.854
300.959
301.045
301.099
301.119
301.106
301.067
301.009
300.948
300.893
300.846
300.804
300.768
300.737
300.708
300.683
300.66
300.636
300.614
300.591
300.566
300.529
300.547
300.491
300.513
300.449
300.476
300.405
300.433
300.357
300.387
300.308
300.338
300.257
300.288
300.236
300.158
300.215
300.192
300.095
300.132
300.028
300.064
300.068
300.137
300.205
300.269
300.322
300.386
300.447
300.514
300.585
300.662
300.747
300.842
300.95
301.039
301.1
301.13
301.126
301.092
301.037
300.977
300.922
300.874
300.835
300.802
300.77
300.739
300.712
300.689
300.667
300.646
300.627
300.605
300.567
300.588
300.535
300.556
300.501
300.524
300.461
300.49
300.417
300.449
300.37
300.404
300.32
300.355
300.268
300.302
300.248
300.168
300.227
300.204
300.102
300.141
300.03
300.07
300.069
300.14
300.2
300.26
300.324
300.377
300.448
300.521
300.585
300.659
300.74
300.829
300.94
301.033
301.1
301.138
301.142
301.114
301.062
301.003
300.948
300.902
300.869
300.839
300.809
300.779
300.75
300.724
300.704
300.689
300.681
300.674
300.623
300.616
300.58
300.608
300.55
300.58
300.521
300.558
300.488
300.542
300.448
300.515
300.398
300.468
300.342
300.403
300.284
300.331
300.265
300.179
300.244
300.221
300.11
300.152
300.032
300.075
300.072
300.145
300.203
300.256
300.318
300.372
300.45
300.503
300.588
300.656
300.735
300.819
300.928
301.027
301.099
301.143
301.156
301.135
301.086
301.026
300.971
300.933
300.909
300.889
300.869
300.843
300.812
300.784
300.77
300.781
300.827
300.886
300.944
300.659
300.812
300.623
300.695
300.613
300.707
300.63
300.783
300.637
300.874
300.606
300.891
300.53
300.81
300.422
300.644
300.321
300.452
300.309
300.195
300.291
300.263
300.119
300.164
300.034
300.081
300.079
300.156
300.212
300.262
300.318
300.378
300.449
300.509
300.592
300.657
300.733
300.812
300.92
301.02
301.097
301.147
301.166
301.152
301.108
301.048
300.995
300.972
300.971
300.983
300.991
300.979
300.947
300.92
300.955
301.101
301.298
301.523
301.836
301.613
302.182
300.831
301.136
300.869
301.194
301.062
301.534
301.329
302.049
301.462
302.457
301.406
302.581
301.178
302.303
300.81
301.709
300.486
301.012
300.506
300.227
300.498
300.447
300.129
300.185
300.035
300.086
300.092
300.176
300.228
300.276
300.324
300.381
300.43
300.508
300.585
300.66
300.73
300.809
300.911
301.012
301.094
301.149
301.175
301.167
301.127
301.069
301.025
301.031
301.094
301.195
301.278
301.304
301.273
301.268
301.499
302.083
302.702
303.086
303.485
303.025
303.957
302.968
303.793
301.645
302.263
302.132
302.868
302.921
303.874
303.699
305.017
304.19
305.973
304.225
306.462
303.589
306.257
302.357
305.104
301.209
303.038
301.344
300.358
301.364
301.22
300.139
300.254
300.037
300.091
300.108
300.205
300.259
300.304
300.337
300.385
300.434
300.516
300.58
300.66
300.727
300.806
300.904
301.004
301.089
301.149
301.182
301.181
301.146
301.089
301.062
301.133
301.35
301.657
301.927
302.027
301.992
302.075
302.718
304.106
305.372
305.838
305.74
305.133
305.93
304.662
305.734
305.287
306.163
303.651
304.459
304.838
305.826
306.323
307.583
307.753
309.432
308.748
310.956
309.099
311.844
308.506
311.868
306.673
310.707
303.628
308.107
304
300.934
304.04
303.663
300.166
300.581
300.04
300.1
300.099
300.226
300.297
300.342
300.355
300.392
300.456
300.518
300.579
300.659
300.721
300.809
300.9
300.995
301.083
301.149
301.187
301.194
301.162
301.111
301.112
301.295
301.773
302.396
302.827
302.914
302.874
303.1
304.209
306.248
308.399
309.61
309.481
309.092
306.663
308.388
307.071
308.097
308.562
309.445
306.778
307.683
308.774
309.912
310.986
312.403
312.986
314.791
314.383
316.673
314.996
317.767
314.53
317.91
312.687
316.867
309.184
314.302
309.754
302.896
309.692
308.9
300.299
301.923
300.037
300.15
300.159
300.297
300.37
300.392
300.424
300.486
300.521
300.576
300.653
300.721
300.807
300.897
300.988
301.075
301.147
301.191
301.203
301.179
301.134
301.174
301.519
302.332
303.271
303.801
303.862
303.789
304.181
305.655
308.426
311.342
313.22
313.984
313.325
311.734
313.358
309.15
310.457
310.34
311.287
312.774
313.614
310.953
311.896
313.707
314.88
316.394
317.796
318.65
320.312
320.158
322.159
320.808
323.125
320.364
323.225
318.694
322.311
315.369
320.029
315.897
307.462
315.811
315.061
301.039
305.547
300.067
300.678
300.171
300.341
300.419
300.473
300.518
300.524
300.584
300.663
300.723
300.798
300.898
300.981
301.069
301.143
301.195
301.212
301.193
301.158
301.232
301.749
302.923
304.183
304.807
304.829
304.743
305.228
307.084
310.211
312.856
314.772
316.28
317.249
314.963
316.821
314.627
316.005
312.305
313.422
314.421
315.227
317.596
318.296
315.908
316.804
319.036
320.086
321.721
322.862
323.696
324.776
324.745
325.731
325.114
326.111
324.867
326.203
323.553
325.806
320.829
324.331
321.134
313.638
320.948
320.321
317.248
303.788
311.627
300.842
303.832
300.169
300.371
300.483
300.553
300.549
300.601
300.668
300.725
300.798
300.893
300.978
301.061
301.139
301.195
301.223
301.207
301.172
301.272
301.936
303.469
305.074
305.817
305.808
305.695
306.256
308.219
310.852
312.701
314.403
316.034
317.877
319.846
317.376
319.306
317.89
318.908
316.071
316.95
318.917
319.495
322.238
322.656
320.967
321.679
323.776
324.408
325.519
325.966
326.331
326.659
326.605
326.823
326.706
326.866
326.77
326.96
326.364
326.98
324.755
326.659
325.755
322.988
324.761
319.635
315.774
319.183
322.518
324.606
324.555
322.281
306.816
310.617
318.329
317.922
314.561
306.28
310.734
308.712
311.748
300.17
300.423
300.582
300.579
300.612
300.674
300.73
300.799
300.884
300.979
301.055
301.134
301.195
301.23
301.226
301.19
301.287
302.038
303.898
305.896
306.812
306.798
306.659
307.251
309.102
310.779
312.046
313.037
314.204
316.253
319.121
321.764
321.536
320.026
321.124
321.151
321.75
320.048
320.595
322.972
323.214
325.168
325.179
324.821
325.054
326.258
326.313
326.835
326.847
326.956
326.938
326.814
326.649
326.736
326.173
327.019
326.893
326.592
326.051
326.996
327.096
326.681
326.516
326.968
326.644
325.87
326.828
327.087
325.938
321.852
321.296
324.31
325.826
325.942
324.028
314.479
320.783
320.435
317.681
302.979
306.079
313.346
315.178
316.02
300.2
300.525
300.617
300.632
300.683
300.739
300.805
300.88
300.983
301.053
301.129
301.193
301.234
301.241
301.211
301.285
302.049
304.14
306.591
307.774
307.784
307.622
308.21
309.624
310.602
311.09
310.679
309.612
310.544
314.231
319.602
323.013
322.746
322.407
322.931
323.765
323.992
323.406
323.586
325.172
325.165
326.026
325.879
326.272
326.173
326.791
326.624
326.83
326.552
326.317
325.863
325.395
324.595
325.485
324.821
324.273
323.647
326.223
325.532
324.77
327.132
326.877
325.8
325.381
326.27
327.13
326.814
327.163
327.126
326.835
323.645
323.221
325.652
326.807
326.729
325.418
317.958
322.841
322.587
320.353
300.281
302.123
311.455
318.525
316.515
300.335
300.651
300.669
300.703
300.753
300.816
300.881
300.977
301.054
301.126
301.191
301.236
301.252
301.228
301.265
301.978
304.174
307.075
308.667
308.764
308.541
309.066
309.949
310.416
310.241
308.503
305.927
305.932
308.412
312.487
321.057
317.33
324.042
323.245
324.189
324.221
325.215
325.236
325.167
325.185
325.77
325.722
325.71
325.518
326.331
326.006
326.056
325.441
325.215
324.41
323.772
322.923
323.137
322.548
322.067
321.515
324.006
323.264
322.564
321.884
324.947
324.031
323.111
326.75
325.989
324.36
323.798
324.963
327.111
327.169
327.102
326.631
327.184
325.126
324.808
326.62
327.19
327.193
326.466
320.54
324.517
324.289
322.494
300.043
307.659
300.882
319.828
314.874
300.593
300.698
300.733
300.773
300.83
300.887
300.971
301.058
301.126
301.189
301.237
301.26
301.245
301.244
301.775
304.037
307.248
309.422
309.677
309.447
309.754
310.115
310.249
309.486
306.925
303.88
303.338
304.886
307.881
311.736
320.605
316.837
324.662
323.396
325.227
325.112
325.814
325.82
325.727
325.762
325.471
325.518
324.117
324.131
324.845
324.373
323.494
322.649
321.877
321.052
321.092
320.645
320.357
320.121
321.27
320.677
320.17
319.727
322.225
321.399
320.649
319.991
323.287
322.21
321.188
325.73
324.575
322.57
321.916
323.276
326.526
327.095
326.456
325.514
327.12
326.272
326.045
327.183
327.166
327.251
327.143
322.136
325.808
325.537
324.001
300.033
305.328
300.652
319.92
313.451
300.747
300.766
300.797
300.847
300.898
300.97
301.059
301.127
301.189
301.238
301.266
301.261
301.239
301.561
303.57
307.182
309.907
310.471
310.258
310.249
310.291
310.074
308.746
305.797
302.894
302.054
302.775
305.534
310.063
313.551
312.247
320.103
316.501
324.9
323.181
325.778
325.565
325.991
326.046
325.621
325.819
324.277
324.614
321.757
321.987
322.034
321.722
320.489
320.075
319.875
320.002
319.447
319.366
319.444
319.593
319.427
318.996
318.763
318.763
320.272
319.49
318.856
318.401
321.354
320.231
319.268
324.238
322.818
320.59
319.953
321.35
325.356
326.454
325.267
323.967
326.515
327.072
326.95
327.339
326.671
326.894
327.433
322.981
326.755
326.429
325.001
300.024
304.448
300.507
319.813
312.735
300.804
300.827
300.867
300.911
300.972
301.054
301.132
301.189
301.239
301.271
301.275
301.245
301.395
302.902
306.798
310.03
311.088
310.897
310.651
310.435
309.813
307.982
304.806
302.352
301.489
301.666
303.398
309.246
313.898
314.481
314.364
319.703
316.524
324.864
322.783
325.999
325.717
325.911
326.045
325.086
325.558
322.566
323.398
319.107
319.58
319.591
319.16
320.016
319.891
320.949
321.623
322.648
322.174
318.892
319.208
319.672
320.279
318.192
318.22
318.446
318.885
318.502
317.961
317.702
317.721
319.409
318.445
317.749
322.441
320.888
318.743
318.238
319.446
323.778
325.27
323.685
322.157
325.4
327.509
327.527
327.187
325.676
326.097
327.472
323.575
327.433
327.135
325.765
300.017
303.99
300.451
319.898
312.686
300.862
300.891
300.927
300.978
301.052
301.139
301.192
301.24
301.275
301.286
301.262
301.298
302.256
305.839
309.904
311.473
311.414
311.036
310.535
309.408
307.095
303.891
301.963
301.253
301.178
301.836
305.33
311.893
316.646
316.03
316.142
316.221
319.609
317.164
324.632
322.405
326.001
325.669
325.659
325.908
324.286
325.085
320.545
321.791
317.347
317.171
319.223
318.328
322.847
322.893
323.571
323.636
324.647
326.108
325.507
319.552
320.425
321.435
322.531
317.976
318.493
319.307
320.359
317.352
317.304
317.469
318.021
317.817
317.211
317.006
320.536
319.066
317.356
317.047
317.873
321.979
323.72
321.924
320.299
323.935
327.685
327.864
326.652
324.357
325.01
327.274
324.217
327.915
327.755
326.515
300.049
304.002
300.837
320.442
313.404
300.921
300.947
300.987
301.053
301.137
301.199
301.243
301.279
301.295
301.28
301.263
301.757
304.569
309.367
311.561
311.837
311.378
310.53
308.884
306.094
303.126
301.703
301.151
301.022
301.173
302.266
305.737
311.364
317.775
316.135
318.189
318.14
320.043
318.59
324.339
322.281
325.877
325.501
325.077
325.495
323.095
324.243
318.03
319.507
316.961
315.328
321.853
319.402
326.312
326.151
329.638
328.747
327.352
328.52
330.02
329.431
321.614
323.034
324.516
325.98
318.864
319.999
321.401
323.001
317.077
317.508
318.291
319.414
316.881
316.813
317.083
318.803
317.626
316.718
316.624
316.848
320.183
322.027
320.215
318.658
322.357
327.761
328.069
325.888
322.948
323.863
326.84
325.004
328.262
328.229
327.215
300.985
305.527
303.249
321.65
315.792
300.972
301
301.056
301.134
301.208
301.249
301.283
301.303
301.297
301.261
301.453
303.301
308.019
311.438
312.103
311.676
310.511
308.434
305.247
302.68
301.558
301.138
301.003
300.989
301.228
302.287
304.206
310.176
305.403
317.65
314.302
319.858
319.15
321.12
320.297
324.117
322.53
325.511
325.175
323.803
324.48
321.155
322.654
315.161
316.359
318.651
314.659
327.525
325.649
323.654
330.213
330.102
332.15
331.195
331.062
332.105
333.149
332.818
324.716
326.478
328.176
329.724
320.845
322.526
324.38
326.296
317.718
318.718
320.077
321.754
316.753
317.18
318.007
317.47
316.733
316.727
316.68
316.548
318.643
320.438
318.803
317.432
320.918
327.715
328.238
325.094
321.714
322.92
326.379
325.908
328.509
328.583
327.813
310.921
310.717
313.476
323.474
320.744
301.018
301.064
301.135
301.215
301.257
301.288
301.31
301.311
301.279
301.313
302.307
306.193
310.893
312.146
311.943
310.54
307.976
304.597
302.515
301.588
301.181
301.025
300.97
300.972
301.164
301.5
301.562
305.98
302.74
314.752
310.41
319.793
317.898
321.662
320.839
323.692
322.617
324.655
324.453
321.347
322.32
318.148
319.91
312.748
312.572
323.169
319.811
316.029
329.979
328.336
325.518
328.083
333.156
332.827
332.88
331.859
333.983
334.711
335.037
335.05
328.174
329.954
331.557
332.918
323.653
325.667
327.683
329.599
319.224
320.81
322.686
324.748
317.286
318.26
319.739
316.673
316.476
317.299
317.163
316.586
317.548
319.184
317.864
316.722
319.854
327.58
328.34
324.393
320.921
322.304
326.037
326.837
328.712
328.859
328.307
318.43
320.142
323.908
325.548
325.014
301.076
301.142
301.216
301.269
301.297
301.318
301.324
301.301
301.275
301.696
304.336
309.39
312.026
312.153
310.641
307.814
304.35
302.616
301.787
301.343
301.111
301.001
300.952
300.936
300.94
300.908
300.957
300.805
302.733
301.378
309.794
305.599
316.959
313.862
320.482
319.082
322.37
321.532
322.777
322.772
317.386
318.538
314.03
315.811
311.533
309.573
324.505
321.608
319.954
316.496
330.775
329.539
326.631
328.336
334.607
333.843
332.729
331.64
335.909
336.246
335.778
336.231
331.34
332.865
334.169
335.206
326.863
328.914
330.802
332.484
321.564
323.631
325.819
328.004
318.45
320.156
322.249
316.467
316.508
318.34
318.024
316.947
316.977
318.45
317.507
316.604
319.38
327.493
328.439
324.009
320.643
322.169
325.825
327.636
328.88
329.104
328.683
310.094
325.993
325.791
327.151
327.377
301.154
301.222
301.287
301.309
301.326
301.335
301.321
301.278
301.401
302.865
307.19
311.444
312.189
310.904
307.894
304.417
302.857
302.216
301.751
301.352
301.101
300.986
300.93
300.885
300.842
300.779
300.773
300.755
301.198
300.86
304.39
302.188
311.44
307.821
316.579
314.397
318.999
318.097
319.17
319.306
311.896
313.029
309.174
310.501
313.681
310.764
308.358
325.021
322.767
320.887
318.029
330.634
329.597
326.743
327.945
334.927
333.889
331.7
330.363
337.228
337.199
335.892
336.732
334.006
335.273
336.26
336.934
330.071
331.924
333.587
335.05
324.557
326.893
329.128
331.188
320.189
322.542
325.213
316.573
316.785
319.835
319.395
317.712
316.962
318.33
317.632
316.802
319.46
327.458
328.532
323.894
320.816
322.352
325.722
328.3
329.079
329.339
329.037
317.41
328.005
327.286
328.175
328.486
301.235
301.298
301.324
301.338
301.346
301.339
301.302
301.301
301.95
304.964
309.764
312.028
311.291
308.158
304.606
303.18
302.648
302.342
301.92
301.366
301.079
300.967
300.913
300.862
300.817
300.761
300.736
300.743
300.783
300.74
301.467
300.953
304.846
302.688
309.959
307.509
313.071
311.835
313.577
313.649
305.605
306.244
306.318
305.6
314.878
311.681
308.187
310.905
324.949
323.161
321.339
319.175
329.458
328.759
326.144
326.826
334.763
333.25
330.21
328.537
338.007
337.544
335.679
336.761
336.263
337.19
337.814
338.062
333.005
334.63
336.012
337.13
327.883
330.268
332.313
334.042
322.33
325.253
328.316
316.908
317.598
321.849
321.317
319.016
317.351
318.667
318.371
317.374
320.048
327.506
328.715
323.993
321.651
323.108
325.902
328.838
329.262
329.577
329.365
306.441
328.782
324.15
328.825
329.073
301.308
301.339
301.353
301.358
301.354
301.328
301.287
301.503
303.201
307.343
311.289
311.415
308.778
304.957
303.453
303.037
302.911
302.627
301.969
301.323
301.036
300.953
300.903
300.856
300.807
300.736
300.735
300.757
300.722
300.71
300.713
300.776
300.721
301.372
300.949
303.383
302.193
305.756
304.67
306.543
306.44
302.829
302.306
305.984
303.87
316.54
313.674
309.746
312.58
324.319
323.099
321.357
319.696
327.646
327.212
325.006
325.265
334.113
332.207
328.624
326.662
338.172
337.49
335.024
336.503
337.971
338.5
338.648
338.576
335.616
336.898
337.893
338.581
331.088
333.36
335.099
336.483
324.945
328.304
331.5
317.925
319.249
324.38
324.305
321.362
318.385
319.789
319.856
318.928
321.409
327.741
328.798
324.506
322.615
323.548
326.288
329.244
329.48
329.784
329.642
305.043
328.763
321.376
329.252
329.363
301.351
301.368
301.372
301.369
301.35
301.301
301.337
302.104
304.993
309.255
311.204
309.73
305.636
303.683
303.32
303.379
303.295
302.721
301.915
301.209
301.015
300.942
300.887
300.84
300.792
300.725
300.727
300.749
300.711
300.691
300.701
300.683
300.684
300.725
300.691
300.984
300.812
301.551
301.246
302.067
301.839
302.977
301.744
310.094
307.698
305.612
317.719
315.306
312.392
314.606
323.275
322.56
320.865
319.741
325.637
325.364
323.545
323.516
333.131
330.906
326.843
324.725
338.019
337.178
334.086
335.841
338.946
339.017
338.933
338.614
337.662
338.47
338.954
339.165
334.043
335.914
337.201
338.074
327.953
331.499
334.399
320.164
322.216
327.843
328.123
325.018
320.524
321.402
321.728
321.704
322.373
328.126
329.028
324.888
323.179
323.864
326.614
329.556
329.6
329.96
329.872
306.314
328.072
320.322
329.549
329.402
301.379
301.389
301.384
301.369
301.332
301.3
301.567
303.184
306.752
310.263
310.098
306.907
304.057
303.491
303.686
303.832
303.455
302.726
301.68
301.132
300.996
300.93
300.874
300.823
300.774
300.714
300.721
300.737
300.7
300.679
300.689
300.662
300.67
300.655
300.656
300.675
300.659
300.793
300.713
301.19
300.929
306.004
303.101
311.874
309.629
307.646
309.762
318.257
316.564
313.793
315.436
321.847
321.571
319.75
319.143
323.712
323.482
321.829
321.656
331.902
329.377
324.927
322.655
337.594
336.483
332.982
334.965
339.191
339.12
338.814
338.278
338.701
339.054
339.184
339.189
336.266
337.456
338.159
338.567
331.488
334.414
335.994
323.534
325.639
331.036
329.589
327.511
322.479
322.341
322.448
323.558
322.68
328.395
329.13
325.09
323.242
323.748
326.698
329.798
329.765
330.08
330.048
304.735
327.304
318.721
329.758
329.311
301.406
301.402
301.387
301.359
301.306
301.363
302.088
304.5
308.036
309.821
308.118
304.937
303.687
303.822
304.168
304.075
303.503
302.53
301.444
301.071
300.979
300.919
300.862
300.81
300.754
300.73
300.706
300.714
300.692
300.669
300.68
300.648
300.658
300.636
300.642
300.643
300.634
300.77
300.675
301.638
301.019
308.688
307.676
306.013
304.153
312.805
311.306
310.188
318.184
316.91
314.215
315.482
319.996
319.982
317.814
317.648
321.76
321.591
319.856
319.607
330.539
327.705
322.937
320.427
336.79
335.575
331.839
333.962
339.088
338.791
338.274
337.68
338.838
338.91
338.862
338.725
337.002
337.589
337.888
338.011
332.865
334.093
334.44
324.845
325.568
330.388
328.213
326.961
322.93
322.519
322.375
323.345
322.643
328.172
329.105
325.017
323.02
323.589
326.905
329.982
329.764
330.121
330.153
303.911
326.583
318.371
329.867
329.142
301.426
301.405
301.383
301.337
301.312
301.561
302.877
305.681
308.599
308.536
306.212
304.124
303.909
304.3
304.496
304.165
303.4
302.179
301.23
301.036
300.965
300.906
300.849
300.801
300.719
300.722
300.713
300.747
300.699
300.707
300.684
300.659
300.671
300.634
300.647
300.608
300.619
300.624
300.608
300.839
300.68
302.164
301.237
308.887
307.157
306.023
303.942
312.787
311.564
310.036
317.238
316.513
313.783
314.536
317.708
317.815
315.175
315.193
319.666
319.528
317.439
317.248
329.16
325.964
320.989
318.063
336.167
334.859
330.999
333.181
338.412
338.089
337.709
337.153
337.99
337.942
337.834
337.623
334.854
335.154
335.298
335.4
331.625
332.745
325.402
324.084
321.999
324.661
324.797
323.49
322.513
322.425
322.096
320.056
322.488
328.331
329.113
324.629
323.18
323.972
326.685
330.108
329.652
330.12
330.218
300.961
326.294
314.744
329.909
329.006
301.436
301.4
301.369
301.315
301.365
301.939
303.733
306.442
308.173
307.022
305.045
304.1
304.32
304.669
304.663
304.147
303.079
301.717
301.124
301.013
300.95
300.892
300.837
300.788
300.706
300.715
300.697
300.735
300.69
300.676
300.647
300.661
300.621
300.633
300.6
300.609
300.616
300.6
300.841
300.675
302.192
301.25
308.128
306.195
305.461
304.429
302.856
302.318
311.737
310.991
308.887
315.151
314.989
312.177
312.327
314.814
315.069
311.973
312.092
317.382
317.214
314.602
314.573
328.262
324.628
320.071
315.972
335.454
334.41
330.621
332.841
337.422
337.343
336.692
336.106
335.398
335.547
335.535
335.574
325.561
325.796
325.821
325.883
325.526
326.331
318.477
321.913
316.894
318.394
318.509
317.778
319.406
322.283
318.946
315.711
318.394
328.331
328.808
325.322
318.259
318.391
326.408
330.167
329.601
330.052
330.218
300.865
326.068
314.255
329.905
328.991
301.438
301.388
301.347
301.32
301.504
302.436
304.424
306.733
307.129
305.831
304.58
304.349
304.679
304.927
304.703
303.91
302.581
301.332
301.071
300.994
300.935
300.879
300.826
300.767
300.688
300.697
300.708
300.682
300.725
300.666
300.637
300.65
300.608
300.622
300.585
300.595
300.594
300.584
300.762
300.639
301.704
301.043
306.741
304.768
303.093
301.916
301.807
309.572
309.381
307.046
312.181
312.277
309.439
309.189
311.582
311.763
308.513
308.622
314.883
314.614
311.596
311.65
327.957
324.136
319.854
315.013
334.466
333.597
330.345
332.365
335.525
335.475
335.76
334.933
325.835
325.982
325.972
326.194
318.377
318.468
318.439
318.494
318.499
318.894
310.406
316.463
309.886
310.462
310.529
310.22
315.032
319.012
314.508
309.171
313.843
327.744
328.93
325.112
318.428
313.583
313.5
326.57
330.16
329.368
329.956
330.185
389.799
326.549
319.034
329.883
329.073
301.433
301.369
301.326
301.352
301.736
302.918
304.83
306.537
306.068
305.108
304.505
304.633
304.967
305.048
304.577
303.462
301.932
301.166
301.041
300.977
300.921
300.866
300.816
300.744
300.718
300.672
300.679
300.688
300.701
300.657
300.625
300.641
300.595
300.61
300.566
300.58
300.559
300.558
300.612
300.573
300.82
300.695
304.903
303.169
301.913
301.145
301.098
306.696
306.953
304.739
308.779
308.996
306.214
305.937
308.564
308.472
306.686
306.295
312.469
311.793
308.703
309.094
327.888
324.024
320.616
315.261
333.355
332.319
330.115
331.916
326.392
333.888
334.422
333.843
318.455
318.67
318.717