/*--------------------------------*- C++ -*----------------------------------*\
  =========                 |
  \\      /  F ield         | OpenFOAM: The Open Source CFD Toolbox
   \\    /   O peration     | Website:  https://openfoam.org
    \\  /    A nd           | Version:  dev
     \\/     M anipulation  |
\*---------------------------------------------------------------------------*/
FoamFile
{
    version     2.0;
    format      ascii;
    class       volVectorField;
    location    "2500";
    object      U;
}
// * * * * * * * * * * * * * * * * * * * * * * * * * * * * * * * * * * * * * //

dimensions      [0 1 -1 0 0 0 0];

internalField   nonuniform List<vector> 
9842
(
(0.00465038 0.00749773 0)
(0.0111472 0.0068454 -1.05756e-27)
(0.00457455 0.0194034 0)
(0.0153685 0.0058973 4.30927e-33)
(0.0121032 0.0198287 -8.04235e-29)
(0.00391118 0.0277914 -8.74203e-29)
(0.0185608 0.00485169 2.18795e-27)
(0.017101 0.0194312 0)
(0.011515 0.0289277 0)
(0.00322813 0.0345924 -1.17013e-27)
(0.0209768 0.00412534 2.0569e-27)
(0.0203863 0.0180159 1.75558e-27)
(0.0175171 0.0298633 1.84349e-27)
(0.0100802 0.035698 -3.24698e-27)
(0.00279932 0.0406099 1.91769e-28)
(0.022793 0.00349292 9.62929e-28)
(0.0225214 0.0157825 3.56864e-27)
(0.0219296 0.0298516 4.37859e-27)
(0.0164817 0.0373231 -1.14528e-28)
(0.00864118 0.0414242 0)
(0.00250677 0.0460069 -1.1527e-35)
(0.0243211 0.00298265 0)
(0.0240818 0.0135039 1.77441e-27)
(0.0249008 0.0286831 4.65153e-27)
(0.0218374 0.0386384 4.72094e-27)
(0.014643 0.0429812 2.08338e-27)
(0.00764081 0.0465958 -1.77377e-27)
(0.00228064 0.0508912 -1.93927e-28)
(0.0255484 0.00260622 0)
(0.0253175 0.0115469 0)
(0.0267114 0.0266461 2.37079e-27)
(0.0259705 0.0390554 2.71701e-27)
(0.0203706 0.0449284 2.4301e-27)
(0.0129049 0.0477556 -2.10543e-27)
(0.00693344 0.05137 0)
(0.0020989 0.0554273 -1.77695e-27)
(0.0265836 0.00232746 0)
(0.0263085 0.0100293 -2.26845e-28)
(0.0276861 0.0240536 -1.28996e-27)
(0.0288124 0.0383084 0)
(0.0253796 0.0465722 2.85467e-27)
(0.0183057 0.0495616 2.44791e-27)
(0.0116005 0.0522412 2.17413e-27)
(0.0063624 0.0558359 -2.044e-27)
(0.00194993 0.0596408 -1.96318e-27)
(0.0274638 0.00210573 0)
(0.0271718 0.00891473 0)
(0.0282793 0.0213526 -1.39456e-27)
(0.0304799 0.0365201 -1.37111e-28)
(0.0293669 0.0473694 2.91102e-27)
(0.0235929 0.0516835 5.34736e-27)
(0.0164021 0.0536953 4.95449e-27)
(0.0106064 0.0565 -2.26592e-27)
(0.00589291 0.0600018 -2.43688e-27)
(0.00182119 0.0636192 0)
(0.0282023 0.00193523 0)
(0.0279349 0.00808864 0)
(0.0286917 0.0189086 0)
(0.03126 0.0339537 1.71275e-28)
(0.0321923 0.0470631 1.51904e-27)
(0.0283701 0.0535994 2.98438e-27)
(0.0213553 0.0556702 5.23105e-27)
(0.0149138 0.0576131 -1.37844e-28)
(0.00981253 0.0605258 0)
(0.00551794 0.0639365 -2.6008e-27)
(0.0017146 0.0673494 0)
(0.0288715 0.00180958 0)
(0.0285809 0.00745239 0)
(0.0290503 0.0169095 -1.34556e-28)
(0.0314538 0.0309186 1.66239e-28)
(0.0338922 0.0456214 2.15985e-27)
(0.0322669 0.0548283 0)
(0.0262808 0.0579249 3.01206e-27)
(0.019347 0.0592197 2.63764e-27)
(0.0137503 0.0614206 -1.38349e-28)
(0.00917322 0.0643231 -5.03004e-27)
(0.00520659 0.0676461 0)
(0.00162648 0.0709361 0)
(0.0294733 0.00172583 0)
(0.0291408 0.00698115 0)
(0.0294733 0.015371 -1.38584e-28)
(0.0314164 0.027786 -1.4423e-27)
(0.034686 0.0432442 0)
(0.0351402 0.0550124 8.44632e-28)
(0.030853 0.0600842 2.25003e-27)
(0.0239101 0.0612973 0)
(0.0177461 0.0626835 2.66995e-27)
(0.0128157 0.0650277 1.11264e-32)
(0.00865592 0.0679627 -5.11062e-28)
(0.00493337 0.0712126 2.731e-27)
(0.00155079 0.0743661 0)
(0.0299483 0.00166348 0)
(0.0296561 0.0066694 -1.39008e-28)
(0.0298851 0.0140987 0)
(0.0313712 0.024928 -1.41317e-27)
(0.0348211 0.0401793 -1.52332e-27)
(0.0370046 0.054045 2.0999e-28)
(0.0347431 0.0616771 2.35856e-27)
(0.0285293 0.0636776 1.3173e-27)
(0.0218434 0.0643442 3.02326e-27)
(0.0164876 0.0660492 2.73087e-27)
(0.0120528 0.0685549 2.84464e-27)
(0.00820707 0.0714603 2.82809e-27)
(0.00471027 0.0746276 4.65664e-28)
(0.0014876 0.0776574 -2.96156e-27)
(0.0302854 0.00159726 0)
(0.0301303 0.00641709 0)
(0.0302493 0.0129962 -2.90935e-28)
(0.0313963 0.0226235 0)
(0.0345289 0.0367085 -1.46592e-27)
(0.0379437 0.052017 3.40024e-28)
(0.0377321 0.0623413 -2.43549e-27)
(0.0329532 0.066045 -6.87336e-28)
(0.0260932 0.0664329 -9.38855e-28)
(0.0202178 0.0673649 -2.73218e-27)
(0.0154563 0.06942 6.16426e-27)
(0.0114194 0.0719456 0)
(0.00782514 0.0747995 -2.48114e-27)
(0.00451957 0.0779182 -6.23671e-27)
(0.00143309 0.0808702 -3.17163e-27)
(0.0305329 0.00153162 -1.434e-28)
(0.03049 0.00613429 0)
(0.030592 0.0121275 0)
(0.0315226 0.020803 1.01878e-27)
(0.0341228 0.0331404 0)
(0.0381556 0.0491909 3.16801e-27)
(0.0397799 0.0618988 -3.56366e-27)
(0.0368453 0.0679749 -7.10864e-28)
(0.0304566 0.0688656 -2.90212e-27)
(0.0240445 0.0690304 -3.23092e-27)
(0.0189022 0.0705076 3.46286e-27)
(0.014616 0.0726543 3.11323e-27)
(0.0108865 0.0752046 1.12256e-32)
(0.00750874 0.0780508 -3.17785e-27)
(0.00435088 0.0811267 -4.25773e-27)
(0.00138566 0.0839821 0)
(0.0307005 0.00147774 0)
(0.0307046 0.00585793 -1.4812e-28)
(0.0308863 0.0115054 -1.49661e-28)
(0.0316467 0.0192553 2.22279e-27)
(0.0337778 0.0298575 0)
(0.0378529 0.0458217 3.27829e-27)
(0.0409296 0.0603732 -1.97609e-27)
(0.0399579 0.0690949 3.30449e-27)
(0.0347257 0.0713687 -5.10015e-28)
(0.0280136 0.0711278 0)
(0.0223991 0.0718573 -6.85718e-28)
(0.0178279 0.0735398 3.23333e-27)
(0.0139245 0.0758238 6.35639e-27)
(0.0104365 0.0783763 3.87046e-27)
(0.00723846 0.0812066 -2.83764e-27)
(0.00421209 0.0842387 -4.73468e-28)
(0.00134645 0.0870228 -4.36478e-27)
(0.0308126 0.0014318 2.88758e-28)
(0.030836 0.00563634 -1.21292e-27)
(0.0310703 0.0109978 0)
(0.0317436 0.017931 1.76303e-27)
(0.0334514 0.0271915 2.419e-27)
(0.0371958 0.0421853 1.40939e-27)
(0.0412567 0.0579073 0)
(0.0421872 0.0692275 3.73047e-27)
(0.0385871 0.0735927 -7.57597e-28)
(0.0321118 0.0736083 1.04301e-27)
(0.0259782 0.0735156 -1.23627e-27)
(0.0210635 0.0746396 -9.84535e-28)
(0.0169572 0.0765599 3.34938e-27)
(0.0133387 0.0789077 3.72026e-27)
(0.0100643 0.0814632 -2.33407e-27)
(0.00700878 0.0842826 5.25964e-28)
(0.00409187 0.087285 -2.78096e-27)
(0.00131171 0.0900084 -7.69727e-28)
(0.0308823 0.00138913 1.35732e-28)
(0.0309335 0.0054409 -1.01723e-27)
(0.0311696 0.010511 -3.04564e-28)
(0.0318029 0.0168635 8.21955e-28)
(0.033172 0.0251507 2.63363e-27)
(0.0363976 0.038554 2.87295e-27)
(0.0409561 0.0548119 -1.89635e-28)
(0.0435122 0.0682674 0)
(0.0417861 0.0751693 2.28644e-27)
(0.0361622 0.0762691 1.85891e-27)
(0.0296864 0.075539 -1.54965e-27)
(0.0243565 0.0759976 -4.67716e-27)
(0.0199891 0.0774441 2.10617e-27)
(0.0162303 0.0795403 0)
(0.0128548 0.0819118 3.88867e-27)
(0.00974867 0.0844872 4.23449e-27)
(0.0068081 0.087299 -5.29598e-28)
(0.003987 0.0902789 -2.95752e-36)
(0.00128121 0.0929462 0)
(0.0309053 0.00134938 0)
(0.0309921 0.00526231 6.74497e-28)
(0.0312285 0.0100797 5.45072e-28)
(0.0318394 0.0159865 -1.69406e-27)
(0.0329747 0.0235281 -3.3647e-28)
(0.0356084 0.0351708 3.24485e-27)
(0.0402053 0.0512821 -3.82495e-28)
(0.0439944 0.0663189 -1.94932e-28)
(0.0441654 0.0759144 1.72763e-27)
(0.0399207 0.0787418 6.00026e-28)
(0.0334985 0.077943 -1.04077e-27)
(0.027714 0.0776571 1.54555e-27)
(0.0230425 0.0785364 -1.4883e-27)
(0.0191071 0.0802733 7.1087e-28)
(0.0156238 0.0824426 3.65117e-27)
(0.0124517 0.084882 6.89025e-27)
(0.00947868 0.0874521 5.81709e-28)
(0.00663729 0.0902613 -5.5382e-27)
(0.00389629 0.093226 -9.64527e-28)
(0.00125411 0.0958355 4.23473e-27)
(0.0308923 0.00130972 2.5675e-28)
(0.030998 0.00512335 -1.44702e-28)
(0.0312556 0.00968982 3.53781e-28)
(0.0318509 0.0151815 -2.04819e-27)
(0.032852 0.0221833 6.674e-28)
(0.0349338 0.0322512 1.16989e-27)
(0.0391896 0.0475128 0)
(0.0437899 0.0635697 1.42435e-27)
(0.0456795 0.0755772 1.72537e-27)
(0.0431489 0.0807952 -6.14194e-28)
(0.0372926 0.0805755 3.99998e-27)
(0.0311528 0.0796491 -8.08199e-28)
(0.0261241 0.0798879 3.13011e-27)
(0.0219759 0.0811595 -1.27776e-27)
(0.0183679 0.0830543 0)
(0.0151233 0.0853362 3.82e-27)
(0.01211 0.0877935 -6.35474e-28)
(0.00924905 0.0903681 -6.91978e-27)
(0.00648848 0.0931927 -1.07117e-27)
(0.00380988 0.0961337 8.73689e-27)
(0.00122409 0.0986976 7.76222e-28)
(0.0308635 0.00126865 1.15495e-28)
(0.0309875 0.00499023 -1.02676e-27)
(0.0312432 0.00930346 -1.47383e-28)
(0.0318236 0.0144518 9.66077e-28)
(0.0327862 0.0210252 -1.66099e-28)
(0.034434 0.029853 -1.78918e-27)
(0.0381248 0.0437177 0)
(0.0431021 0.0602596 1.76542e-27)
(0.0463736 0.0742474 2.31989e-27)
(0.0456878 0.0819982 0)
(0.0408976 0.0832522 3.25464e-27)
(0.0346627 0.0819721 -1.88938e-27)
(0.0292459 0.0814912 -1.64129e-27)
(0.0248483 0.0822407 2.3182e-28)
(0.0211032 0.0837918 -1.29726e-27)
(0.0177635 0.0858251 0)
(0.0147126 0.0881851 0)
(0.0118245 0.0906662 1.29576e-32)
(0.00905371 0.0932669 4.84622e-27)
(0.00634846 0.0960894 4.34801e-27)
(0.00372586 0.0990191 0)
(0.00119001 0.101513 7.72095e-28)
(0.0308239 0.00123645 0)
(0.0309561 0.00481931 -2.71679e-28)
(0.0312239 0.00894563 9.91901e-28)
(0.0317791 0.0138227 4.50725e-28)
(0.0326727 0.0199572 -1.55646e-27)
(0.0341117 0.0279018 -2.66719e-27)
(0.0371606 0.0401557 7.64772e-28)
(0.0420854 0.0565971 8.09046e-28)
(0.0463243 0.0720253 8.27928e-28)
(0.0474108 0.0824044 4.23995e-28)
(0.0441176 0.0855893 1.97263e-27)
(0.0381765 0.0845763 3.6405e-42)
(0.0324192 0.0833812 0)
(0.0277289 0.08352 -8.35069e-28)
(0.023825 0.0846769 -1.38369e-27)
(0.020389 0.0864147 0)
(0.0172827 0.0885832 0)
(0.014373 0.09101 4.21378e-27)
(0.0115847 0.0935293 9.38718e-27)
(0.00887277 0.0961391 -1.18308e-27)
(0.00621126 0.0989728 0)
(0.0036393 0.101861 3.8217e-27)
(0.00115023 0.104281 4.03848e-27)
(0.0307626 0.00121652 -2.37054e-28)
(0.0308886 0.0046347 -1.29183e-28)
(0.0311993 0.00864545 9.29092e-28)
(0.0317052 0.013273 -1.49441e-28)
(0.0325098 0.0189762 -1.51595e-27)
(0.0338671 0.0263214 1.08168e-27)
(0.0363089 0.0370673 -1.12806e-27)
(0.0408994 0.0527401 4.05254e-28)
(0.0457581 0.0691114 1.81542e-27)
(0.0482793 0.0816802 3.64795e-27)
(0.0467351 0.0873896 1.54381e-27)
(0.0415754 0.0872682 2.84751e-27)
(0.0356365 0.0855896 -2.2166e-28)
(0.0306197 0.0850304 0)
(0.0265259 0.0857001 0)
(0.022995 0.0871343 -1.9742e-27)
(0.0198216 0.0890447 2.55471e-28)
(0.0168932 0.0913406 2.12533e-27)
(0.0140902 0.0938344 4.43152e-27)
(0.0113711 0.0963918 5.74268e-32)
(0.00868708 0.0990074 -7.04344e-27)
(0.00606745 0.101821 4.75498e-27)
(0.0035367 0.104665 2.38931e-31)
(0.00110088 0.106988 5.69547e-27)
(0.030689 0.00119681 -2.28472e-28)
(0.030803 0.00447958 -1.20873e-28)
(0.0311223 0.00838638 1.31514e-28)
(0.0316124 0.0127954 0)
(0.0323467 0.0181174 6.53345e-28)
(0.0335913 0.0249762 6.67215e-28)
(0.0356172 0.0345376 0)
(0.0396539 0.0488649 -8.04492e-28)
(0.0448267 0.0657374 2.59008e-27)
(0.0484578 0.0801084 1.04568e-27)
(0.0486068 0.0884303 2.85695e-27)
(0.0446703 0.089857 1.52125e-27)
(0.0388548 0.0880728 2.85092e-27)
(0.0335356 0.0867927 1.91355e-27)
(0.02921 0.0868833 8.92684e-28)
(0.0255746 0.0879605 -1.75426e-31)
(0.0223397 0.0896095 -1.43554e-27)
(0.0193796 0.0917021 2.40652e-27)
(0.0165773 0.0941046 1.53848e-27)
(0.0138541 0.0966888 -7.13945e-28)
(0.0111569 0.0992495 -4.83051e-27)
(0.00848644 0.101858 -2.33356e-27)
(0.00590139 0.104656 -4.9568e-27)
(0.00339779 0.107419 1.21079e-26)
(0.00103755 0.109613 1.47712e-28)
(0.0306297 0.00117337 -3.15538e-28)
(0.0307147 0.00436488 -3.42463e-28)
(0.0309983 0.00815072 -2.46426e-28)
(0.0315043 0.0123834 2.73432e-28)
(0.0321632 0.0173853 -7.44422e-28)
(0.0332885 0.0237876 -9.22343e-28)
(0.0350622 0.0325265 0)
(0.0384519 0.0452219 0)
(0.0436283 0.0620788 0)
(0.0481134 0.0777232 3.57345e-27)
(0.0498232 0.0883346 2.8452e-27)
(0.0473113 0.0920544 -1.97265e-27)
(0.0419828 0.0907473 1.9519e-27)
(0.0364641 0.0888332 1.92192e-27)
(0.0318901 0.0882513 9.29683e-28)
(0.0281153 0.0888885 2.88673e-27)
(0.0248331 0.090258 -3.83957e-27)
(0.0218419 0.0921321 -1.46989e-27)
(0.0190383 0.0943787 0)
(0.0163254 0.0969215 1.56219e-27)
(0.013631 0.0995586 -1.43658e-27)
(0.0109232 0.102123 1.28976e-27)
(0.0082522 0.104721 -6.27042e-27)
(0.00568283 0.107465 1.03006e-26)
(0.00320682 0.1101 -4.70835e-28)
(0.000954515 0.112119 2.62925e-27)
(0.0305866 0.00115716 -2.96748e-28)
(0.0306327 0.00429126 -8.50026e-28)
(0.0308739 0.00794261 -4.28273e-28)
(0.0313612 0.0120095 -1.28219e-28)
(0.0319844 0.0167695 -1.00058e-28)
(0.0329685 0.0227546 -1.97435e-28)
(0.0345667 0.0308869 0)
(0.0373821 0.0420126 0)
(0.0422399 0.0582533 1.56054e-27)
(0.0472766 0.0747437 4.4268e-27)
(0.0501379 0.0875241 8.88256e-28)
(0.0493841 0.0935804 -3.92936e-27)
(0.0449146 0.0934087 0)
(0.0393709 0.0911496 0)
(0.0345535 0.089848 -9.60248e-28)
(0.0306259 0.0899416 -1.47472e-27)
(0.0272753 0.0909693 -4.99848e-27)
(0.0242736 0.0926204 -1.8484e-27)
(0.0214735 0.0947051 0)
(0.0187818 0.0971211 3.40236e-27)
(0.0161146 0.0997906 -9.1024e-28)
(0.0133983 0.102467 -7.16981e-28)
(0.0106524 0.105014 -4.08269e-27)
(0.00796363 0.107588 -2.19673e-32)
(0.00538397 0.110216 0)
(0.00294746 0.112673 -1.55544e-27)
(0.000843111 0.114472 4.6447e-27)
(0.0305598 0.00115635 0)
(0.0305634 0.00424489 -3.96482e-28)
(0.0307578 0.00776447 -6.95553e-28)
(0.0311946 0.0116712 -2.4355e-28)
(0.0317978 0.0162453 -6.04029e-28)
(0.0326631 0.0218519 6.09972e-28)
(0.0341318 0.029445 -2.76775e-28)
(0.0364822 0.0392715 0)
(0.0407815 0.0544156 1.44994e-27)
(0.046099 0.0714281 1.70292e-27)
(0.049967 0.0859666 -2.83901e-27)
(0.050686 0.0944072 9.19864e-28)
(0.0475025 0.0958761 -4.83284e-27)
(0.0422056 0.0936766 -2.84917e-27)
(0.0371951 0.0916856 0)
(0.0330925 0.0911534 -6.77261e-27)
(0.0296675 0.091763 1.99754e-27)
(0.0266538 0.0931416 3.22351e-27)
(0.023879 0.0950575 -4.13903e-27)
(0.0212176 0.0973465 -4.20874e-27)
(0.0185946 0.0999457 9.57096e-28)
(0.0159171 0.102719 1.966e-34)
(0.0131372 0.105403 7.0865e-28)
(0.0103243 0.107943 1.83938e-27)
(0.00758832 0.110431 0)
(0.00497738 0.11289 3.43741e-28)
(0.00259341 0.11511 1.41641e-27)
(0.00069633 0.11659 -8.4639e-27)
(0.0305635 0.00116508 1.09176e-28)
(0.0305108 0.00420485 7.30624e-28)
(0.0306653 0.00762463 0)
(0.0310393 0.0113858 -6.3946e-28)
(0.0315873 0.0157782 -2.83098e-28)
(0.0323765 0.0210726 5.761e-28)
(0.0336865 0.0281442 -8.44706e-28)
(0.0357199 0.0370288 0)
(0.039414 0.0508295 0)
(0.044669 0.0678985 0)
(0.0493079 0.0836227 -5.34247e-27)
(0.051244 0.0941594 0)
(0.0495644 0.0979265 -3.84137e-27)
(0.0448903 0.096329 -3.80598e-27)
(0.0397811 0.0937676 4.722e-32)
(0.0355107 0.0925434 -1.90121e-27)
(0.0320035 0.0926623 5.85837e-27)
(0.0289743 0.0937009 4.11104e-27)
(0.0262376 0.0954038 -2.18956e-27)
(0.0236259 0.0975829 -6.67601e-27)
(0.0210602 0.100096 -1.89409e-27)
(0.0184508 0.102858 0)
(0.0157006 0.10571 -4.40366e-27)
(0.0128112 0.108411 6.53738e-27)
(0.0098988 0.110887 2.63819e-27)
(0.00707681 0.113245 3.63533e-28)
(0.00442253 0.115459 3.55587e-27)
(0.00211746 0.117337 -9.01981e-27)
(0.000475458 0.118425 0)
(0.0306183 0.00117285 -3.84686e-29)
(0.0304952 0.00417617 6.66971e-28)
(0.0306117 0.00750947 1.49281e-28)
(0.0309115 0.011145 0)
(0.0313832 0.0153506 0)
(0.0320797 0.0204337 -1.14621e-27)
(0.0332206 0.0270369 6.17419e-28)
(0.0350009 0.0352976 -1.88465e-27)
(0.0381464 0.0476865 7.82049e-28)
(0.0430644 0.0642637 -2.3227e-27)
(0.0481488 0.0807955 0)
(0.0511947 0.093391 -1.79524e-27)
(0.0509746 0.0993008 0)
(0.0472836 0.0989273 -9.93523e-28)
(0.0422825 0.0960927 0)
(0.0378583 0.0941444 8.23807e-28)
(0.0342599 0.0936826 1.90713e-27)
(0.0312272 0.0943184 0)
(0.0285244 0.0957582 0)
(0.0259935 0.0977938 -1.24087e-27)
(0.0234996 0.100226 -2.06023e-27)
(0.0209761 0.102961 0)
(0.0183118 0.105876 -2.49931e-27)
(0.0154251 0.108808 0)
(0.0123819 0.111482 -1.54929e-27)
(0.00932195 0.113871 0)
(0.00637777 0.11599 -5.98525e-33)
(0.00367922 0.117869 1.11926e-27)
(0.00147837 0.119284 6.88744e-27)
(0.000264876 0.119991 0)
(0.030735 0.00117276 -4.35894e-28)
(0.0305477 0.00415265 -4.05122e-29)
(0.0305889 0.00740541 -4.72922e-28)
(0.0308163 0.0109622 -1.32022e-27)
(0.0311811 0.0150075 -7.94516e-28)
(0.0317776 0.0199536 -1.9659e-27)
(0.0327535 0.0261499 0)
(0.0343031 0.0339643 1.64496e-27)
(0.0369233 0.0450257 0)
(0.0413798 0.0607101 -5.08568e-28)
(0.0466554 0.077682 -8.68696e-28)
(0.0507102 0.0919659 0)
(0.0517356 0.0999878 1.83273e-27)
(0.0492459 0.101278 0)
(0.044631 0.0985966 0)
(0.0401119 0.09596 0)
(0.03643 0.0948424 0)
(0.0333856 0.09501 0)
(0.0307332 0.0961338 0)
(0.0282867 0.0979706 0)
(0.0258987 0.100303 2.43725e-27)
(0.0234805 0.103019 -2.14589e-27)
(0.0209319 0.105981 3.24836e-27)
(0.0181329 0.109048 3.83235e-28)
(0.0150489 0.112017 -6.41897e-27)
(0.0117867 0.114655 -2.4627e-27)
(0.00853294 0.116832 2.66663e-27)
(0.00542905 0.118638 0)
(0.00271964 0.120054 4.39829e-27)
(0.000654297 0.120762 2.20026e-26)
(-0.000105007 0.12101 0)
(0.030919 0.00116929 -2.95057e-28)
(0.0306654 0.00411251 0)
(0.0306213 0.00734037 -1.08082e-27)
(0.0307523 0.0108616 -2.17888e-27)
(0.0309906 0.0147865 -1.36166e-27)
(0.0314748 0.0195991 -8.54273e-28)
(0.0322785 0.0254553 -1.04493e-27)
(0.0336394 0.0328942 2.80986e-27)
(0.0358035 0.0428486 2.84831e-27)
(0.0397042 0.0573971 0)
(0.044923 0.0744427 0)
(0.0496156 0.0898539 0)
(0.051658 0.099891 0)
(0.0506324 0.103221 1.96279e-27)
(0.0467274 0.101173 0)
(0.0422423 0.0979985 3.91077e-27)
(0.0384826 0.0961623 0)
(0.0354325 0.0957915 0)
(0.0328388 0.0965396 0)
(0.0304921 0.0981198 0)
(0.0282349 0.100316 3.53663e-27)
(0.0259493 0.102989 1.30252e-35)
(0.0235421 0.105994 6.49636e-28)
(0.0208899 0.109179 3.90433e-28)
(0.0178777 0.11238 -3.31172e-27)
(0.0145138 0.115385 0)
(0.0109601 0.117877 -2.19334e-27)
(0.00745233 0.119767 1.48649e-27)
(0.00417832 0.12112 -1.59823e-27)
(0.00148784 0.121876 2.33403e-26)
(-0.000142471 0.121701 2.14194e-26)
(-0.000501583 0.121042 -1.76583e-26)
(0.0311586 0.00117403 0)
(0.0308268 0.00407166 1.90936e-28)
(0.0307237 0.00733358 -1.12757e-27)
(0.0307395 0.010818 -1.79001e-27)
(0.0308569 0.0146567 -4.31818e-28)
(0.0311915 0.0193129 0)
(0.0318565 0.024925 1.8516e-27)
(0.0329996 0.0320098 2.26657e-27)
(0.0348085 0.0411258 0)
(0.0381438 0.0544363 5.21223e-31)
(0.0430373 0.0712039 0)
(0.0480558 0.087338 0)
(0.0512805 0.0993513 1.00007e-26)
(0.0513721 0.104532 0)
(0.048459 0.103665 0)
(0.044205 0.100245 1.73219e-27)
(0.0403915 0.0976682 7.884e-27)
(0.0373467 0.0966804 1.7693e-27)
(0.0348082 0.0969812 0)
(0.032584 0.0982598 0)
(0.0304812 0.100267 0)
(0.0283681 0.102835 6.25514e-32)
(0.026136 0.105859 1.2358e-27)
(0.0236703 0.109174 -1.55906e-31)
(0.0208168 0.112599 -3.91387e-27)
(0.0174892 0.115934 0)
(0.0137468 0.118899 -6.22969e-27)
(0.00981002 0.121174 1.82315e-27)
(0.00598762 0.12262 1.02143e-27)
(0.002529 0.123327 0)
(-7.51048e-05 0.123229 2.46875e-26)
(-0.00119462 0.122168 -2.12693e-26)
(-0.00082629 0.120384 1.34818e-27)
(0.0314452 0.00118139 9.60128e-28)
(0.0310442 0.00405316 -5.21729e-28)
(0.0308696 0.00736323 0)
(0.0307996 0.0108058 -1.09465e-27)
(0.0307832 0.0146052 1.22518e-27)
(0.0309612 0.0191117 1.0604e-27)
(0.0314913 0.0245341 0)
(0.0324237 0.0312758 4.04829e-27)
(0.0339249 0.0398112 -2.44285e-27)
(0.036705 0.0519085 -6.36583e-27)
(0.0411165 0.0680901 -6.44392e-27)
(0.0461912 0.0846212 0)
(0.050294 0.098198 9.67955e-27)
(0.0514623 0.105385 -9.16804e-27)
(0.0496743 0.105909 0)
(0.0459235 0.102626 -6.71927e-27)
(0.0421439 0.0993648 3.34397e-27)
(0.039105 0.0976814 3.97734e-27)
(0.036641 0.0974785 0)
(0.0345331 0.0984003 4.37948e-27)
(0.0326023 0.100163 2.06932e-27)
(0.0306981 0.102569 0)
(0.0286883 0.105558 -1.35631e-27)
(0.0264431 0.10897 0)
(0.0238158 0.112637 -4.50544e-27)
(0.0206438 0.116307 -5.10324e-28)
(0.0168738 0.119738 -7.45606e-27)
(0.0126382 0.122585 -4.58891e-27)
(0.00822127 0.124498 1.343e-27)
(0.00402494 0.125362 4.59339e-28)
(0.000364878 0.125212 0)
(-0.0022613 0.124051 0)
(-0.00276283 0.121711 4.11012e-26)
(-0.000579385 0.118838 0)
(-0.00191046 0.119505 2.22688e-27)
(0.031784 0.00118071 0)
(0.0313279 0.00405183 4.06249e-28)
(0.0310758 0.00740067 -6.48639e-28)
(0.0309331 0.0108177 -8.76038e-28)
(0.0307828 0.014638 6.56681e-28)
(0.0307889 0.0190308 1.77178e-27)
(0.0311591 0.0242616 2.56318e-27)
(0.031895 0.0307238 0)
(0.0331315 0.0388626 -3.38485e-27)
(0.0353757 0.0498471 -5.41876e-27)
(0.039226 0.0652171 -6.93386e-27)
(0.0441637 0.0818823 -1.3053e-26)
(0.0486431 0.0964606 0)
(0.0510686 0.105536 -8.46231e-27)
(0.050246 0.107733 7.92945e-27)
(0.0472984 0.105049 -6.46748e-27)
(0.0436976 0.101236 -4.4107e-27)
(0.0406906 0.098804 -6.42229e-27)
(0.0383173 0.0980448 0)
(0.0363224 0.0985445 1.72691e-27)
(0.0345734 0.10001 7.27442e-27)
(0.0328876 0.102234 -4.31195e-27)
(0.0311328 0.105105 2.51882e-27)
(0.0291702 0.108543 -1.45858e-27)
(0.0268286 0.112409 -4.79229e-27)
(0.0239282 0.116442 -9.57137e-28)
(0.0203026 0.120365 0)
(0.0159363 0.123842 -1.1675e-26)
(0.0110803 0.126451 -4.67959e-27)
(0.00604807 0.127829 -7.55126e-28)
(0.00138827 0.127918 0)
(-0.00245332 0.126705 -1.00045e-27)
(-0.00476853 0.1239 3.72059e-26)
(-0.00324123 0.120115 0)
(-0.00484596 0.120991 1.25062e-27)
(-0.000805422 0.117717 0)
(-0.00242316 0.118427 0)
(0.0321714 0.00117901 0)
(0.0316728 0.00404191 0)
(0.0313629 0.00742667 -1.48451e-27)
(0.0311355 0.0108425 -1.47078e-27)
(0.0308886 0.0147336 9.14299e-28)
(0.0307177 0.0190421 -2.55086e-28)
(0.0308689 0.0241146 0)
(0.0314014 0.0303941 -1.4536e-31)
(0.0323899 0.0382176 -1.91932e-30)
(0.0341194 0.048299 4.02437e-27)
(0.0374247 0.0626953 8.87037e-27)
(0.0420274 0.0792685 -8.3041e-27)
(0.0466986 0.0945093 -3.47574e-27)
(0.0499866 0.105295 0)
(0.0503177 0.10919 -7.79923e-27)
(0.0483194 0.107388 8.33985e-27)
(0.0449761 0.103246 1.23409e-26)
(0.0420874 0.100062 -1.07147e-26)
(0.0398095 0.0986634 0)
(0.0379494 0.0987079 -6.34561e-27)
(0.0363584 0.0998613 8.81716e-27)
(0.0348908 0.101824 -9.19956e-28)
(0.033416 0.104529 5.398e-27)
(0.0317861 0.1079 0)
(0.029822 0.111875 -1.57267e-27)
(0.0272866 0.116249 -2.40218e-27)
(0.0239506 0.120708 -2.14546e-27)
(0.0196565 0.124841 0)
(0.0144665 0.128262 -6.06167e-27)
(0.00890856 0.130502 -4.65989e-27)
(0.00318659 0.131141 -8.59358e-27)
(-0.00193373 0.130044 0)
(-0.00487316 0.125973 -6.3499e-27)
(-0.00528778 0.127805 -1.50719e-26)
(-0.00623226 0.122192 3.719e-27)
(-0.00621472 0.126255 2.12579e-27)
(-0.00749648 0.123845 -2.01274e-32)
(-0.0042216 0.119051 5.63682e-28)
(-0.00602277 0.119962 -7.57199e-28)
(-0.000955341 0.116314 -2.40735e-27)
(-0.00297247 0.117054 6.1961e-27)
(0.0325924 0.00117072 0)
(0.0320657 0.00400092 0)
(0.0317366 0.00742465 2.05967e-27)
(0.0314171 0.010884 -1.94919e-27)
(0.0310936 0.0148436 0)
(0.0307761 0.0191125 0)
(0.0306762 0.0241135 0)
(0.0309747 0.0302463 0)
(0.0316817 0.0378252 -1.48548e-27)
(0.0329672 0.0473086 2.68506e-27)
(0.0356976 0.0606518 4.68207e-27)
(0.0398292 0.0768649 5.95662e-27)
(0.0444852 0.0925006 -8.6537e-27)
(0.0482589 0.104573 6.86439e-27)
(0.0497524 0.110242 0)
(0.0486618 0.109457 -8.28479e-27)
(0.0459242 0.105346 3.04749e-27)
(0.0432301 0.10145 0)
(0.0411035 0.0993436 1.16868e-26)
(0.0394195 0.0989438 -2.74669e-26)
(0.0379689 0.09968 1.51442e-26)
(0.0367046 0.101368 6.6734e-27)
(0.0354979 0.103843 -2.53422e-27)
(0.0342313 0.107082 3.47303e-27)
(0.0326946 0.111038 0)
(0.0306407 0.115598 0)
(0.0277659 0.120564 -2.98315e-27)
(0.0238383 0.125494 -2.37992e-27)
(0.0186596 0.129842 -1.26213e-27)
(0.0124006 0.132978 -2.51013e-27)
(0.00588939 0.134608 -4.79839e-27)
(-0.000543056 0.134178 -3.66876e-28)
(-0.00501544 0.129776 -1.46149e-26)
(-0.00506172 0.132119 7.40035e-28)
(-0.0068896 0.128155 6.76279e-27)
(-0.00776756 0.121333 2.74238e-27)
(-0.00853103 0.125837 7.75374e-28)
(-0.00930726 0.12313 8.39297e-27)
(-0.0051259 0.117717 2.24815e-27)
(-0.00728075 0.118684 9.33772e-28)
(-0.00113907 0.114532 -8.07264e-27)
(-0.00353044 0.11532 2.8357e-27)
(0.0330303 0.00113323 0)
(0.0324981 0.00395391 2.10831e-27)
(0.0321559 0.00740603 -6.27464e-28)
(0.031785 0.0109628 2.09973e-27)
(0.0313803 0.0149239 1.04956e-27)
(0.0309411 0.0192621 0)
(0.0306308 0.0242456 0)
(0.0306414 0.0302389 0)
(0.0310438 0.0376811 -1.61411e-28)
(0.0319385 0.0468149 -1.72965e-27)
(0.0340215 0.059083 -3.0843e-27)
(0.0376272 0.0747728 -4.97575e-27)
(0.0420807 0.0905763 6.03896e-27)
(0.0461286 0.103605 0)
(0.0485849 0.110873 0)
(0.0483008 0.111255 1.05715e-26)
(0.046438 0.107509 0)
(0.0440466 0.102948 -9.08063e-27)
(0.0421599 0.100092 2.25231e-26)
(0.0406964 0.0991345 -1.09379e-26)
(0.0394382 0.09948 1.19334e-26)
(0.0383326 0.100876 -5.86347e-27)
(0.0373578 0.103097 3.19302e-27)
(0.0364282 0.1061 -1.46225e-26)
(0.0353671 0.109904 7.82086e-27)
(0.0338927 0.114547 0)
(0.0316538 0.119886 2.17366e-27)
(0.0281908 0.125541 -6.05832e-27)
(0.0232875 0.130937 -3.61044e-27)
(0.0168786 0.135506 0)
(0.00935651 0.138176 3.26203e-27)
(0.00181372 0.13875 6.12296e-28)
(-0.00425172 0.134519 -1.43422e-27)
(-0.00394275 0.137229 -2.27171e-27)
(-0.00713073 0.130369 7.20516e-27)
(-0.00731136 0.132883 4.89829e-27)
(-0.00930318 0.128133 -4.05146e-27)
(-0.00938247 0.120195 0)
(-0.0106591 0.125318 3.27093e-27)
(-0.0113477 0.122177 6.14283e-27)
(-0.0060949 0.116038 0)
(-0.00867704 0.117074 -3.46669e-27)
(-0.00133461 0.112343 6.45323e-31)
(-0.00413503 0.113162 -4.03014e-27)
(0.0334368 0.00107814 0)
(0.0329642 0.00391555 -6.69754e-28)
(0.0325958 0.0073777 4.24436e-27)
(0.0322369 0.0110307 6.11339e-28)
(0.0317332 0.0149776 0)
(0.031222 0.0194914 1.69074e-27)
(0.0307095 0.0244946 0)
(0.03043 0.0303928 0)
(0.030527 0.037755 2.34891e-29)
(0.0310639 0.04663 -4.44734e-28)
(0.0324945 0.0580108 -3.41375e-27)
(0.0354804 0.0730312 -5.63124e-27)
(0.0395835 0.0888591 -2.7899e-27)
(0.0436911 0.102553 6.18292e-27)
(0.0467684 0.111194 0)
(0.0472557 0.112815 9.32489e-27)
(0.0464203 0.109682 1.74121e-26)
(0.0444204 0.104542 0)
(0.0428948 0.100905 1.67946e-27)
(0.0416755 0.099282 9.38456e-27)
(0.04076 0.0992959 1.98909e-26)
(0.0398275 0.100365 -1.31421e-27)
(0.0390172 0.102329 -2.51028e-27)
(0.0383343 0.10504 -7.43422e-27)
(0.0377103 0.108593 9.26463e-27)
(0.0368463 0.113093 2.67401e-27)
(0.0353198 0.118574 -4.33622e-27)
(0.0327328 0.124929 2.56034e-27)
(0.0285152 0.131344 -2.99951e-27)
(0.0222807 0.137228 6.19842e-27)
(0.014385 0.141628 -1.22836e-26)
(0.00520548 0.143565 4.66956e-28)
(-0.00241408 0.139973 3.60528e-27)
(-0.0016637 0.142942 3.68349e-27)
(-0.00697796 0.135613 1.82574e-27)
(-0.00664036 0.138571 8.76942e-28)
(-0.00980955 0.130737 -2.63897e-27)
(-0.0100977 0.133583 -2.28282e-28)
(-0.0117848 0.127859 -2.61805e-27)
(-0.0112037 0.118716 -1.43336e-27)
(-0.0131023 0.12458 5.87213e-27)
(-0.0136072 0.120884 -1.5713e-27)
(-0.00714928 0.113922 0)
(-0.0101888 0.115047 -4.41311e-27)
(-0.00153525 0.109755 1.8401e-27)
(-0.0047606 0.110602 2.76394e-30)
(0.0337602 0.00102418 0)
(0.0333901 0.00385525 -3.59922e-28)
(0.0330907 0.00729026 2.87403e-27)
(0.0327467 0.0110083 3.31788e-27)
(0.032201 0.0150468 0)
(0.0316084 0.0197246 2.75603e-27)
(0.0309071 0.0248282 6.09265e-28)
(0.030403 0.0307095 1.21128e-28)
(0.030162 0.0380076 3.53044e-29)
(0.0303509 0.0467173 -3.37418e-28)
(0.0311764 0.0575203 0)
(0.0334547 0.0716849 -1.02423e-27)
(0.0370506 0.0874422 -1.24629e-27)
(0.0410269 0.101554 -3.23783e-27)
(0.0443868 0.111333 0)
(0.0455892 0.114251 -1.5458e-26)
(0.0457268 0.111736 -2.61646e-26)
(0.0442554 0.106205 1.87039e-26)
(0.0431942 0.101761 -2.13003e-26)
(0.0423713 0.0994165 -9.315e-27)
(0.0418849 0.0990105 1.92399e-26)
(0.0411673 0.0997989 8.64073e-27)
(0.0405514 0.101586 0)
(0.0399494 0.104012 -2.0176e-26)
(0.0395864 0.107127 1.2572e-26)
(0.0393706 0.111178 -1.4848e-26)
(0.0389467 0.116612 0)
(0.0373021 0.12321 -2.26024e-27)
(0.0340997 0.130659 2.16612e-27)
(0.0284722 0.138007 6.76955e-27)
(0.0205995 0.144267 -1.23696e-26)
(0.0107113 0.148143 9.41224e-28)
(0.000780292 0.145918 0)
(0.00209971 0.148945 0)
(-0.00558461 0.141693 -4.15844e-28)
(-0.00460361 0.14502 -2.83026e-27)
(-0.0100806 0.136679 1.10271e-27)
(-0.00980448 0.139989 0)
(-0.0126329 0.130759 5.13438e-27)
(-0.013198 0.133949 -5.10693e-27)
(-0.0145993 0.12737 -1.42488e-26)
(-0.0131784 0.116833 3.16718e-32)
(-0.0157939 0.123507 1.60211e-26)
(-0.0160619 0.11918 8.07131e-28)
(-0.008251 0.111387 -3.48438e-27)
(-0.0117903 0.112588 1.34441e-26)
(-0.00173841 0.106773 -2.02505e-27)
(-0.00539735 0.107644 -4.41409e-30)
(0.0339706 0.000954205 -3.2976e-27)
(0.033743 0.00373214 -3.33034e-27)
(0.0335862 0.00711603 8.72722e-28)
(0.0332767 0.0109425 3.87574e-27)
(0.032753 0.0151535 0)
(0.0320675 0.0199192 1.18041e-27)
(0.0312902 0.0252336 9.91782e-28)
(0.0305476 0.0311047 -4.56963e-28)
(0.0299751 0.0384097 0)
(0.0297923 0.0470952 4.18335e-29)
(0.0300457 0.0575196 -4.85606e-28)
(0.0316202 0.0708203 0)
(0.0345571 0.0863775 -5.03312e-28)
(0.0381972 0.100762 2.63446e-27)
(0.0415864 0.111422 -3.05207e-27)
(0.0434931 0.115641 -8.4978e-27)
(0.044233 0.113613 -1.57679e-26)
(0.0434611 0.107969 -1.05515e-26)
(0.0429131 0.102623 -2.05479e-26)
(0.0426714 0.0995078 1.8597e-26)
(0.0427108 0.0985997 1.05055e-26)
(0.0423908 0.0991914 0)
(0.041936 0.10079 -1.05165e-26)
(0.0414107 0.102937 1.00581e-26)
(0.0412059 0.105621 -3.37989e-26)
(0.0414684 0.10926 -1.93435e-26)
(0.0417029 0.114029 -1.15882e-26)
(0.0416229 0.120773 0)
(0.039557 0.12908 6.18584e-27)
(0.0351298 0.137941 -2.24273e-26)
(0.0276358 0.146379 -4.92945e-27)
(0.0175976 0.152748 6.32579e-26)
(0.00566277 0.151981 1.59975e-29)
(0.00774213 0.15498 -1.25542e-33)
(-0.00266093 0.148437 1.29393e-27)
(-0.000862831 0.151967 0)
(-0.00908928 0.143538 -1.02499e-27)
(-0.00807349 0.147286 -3.82608e-27)
(-0.0134772 0.137454 0)
(-0.0134138 0.141193 0)
(-0.0158195 0.130556 8.5332e-28)
(-0.0167113 0.134113 -8.38736e-27)
(-0.0176992 0.126566 3.62293e-27)
(-0.015304 0.114508 7.67629e-28)
(-0.0187232 0.12203 6.59009e-27)
(-0.0187157 0.117021 6.04773e-27)
(-0.00938044 0.108419 1.55242e-29)
(-0.0134561 0.109678 2.49842e-27)
(-0.00194027 0.103402 -2.48197e-27)
(-0.00603252 0.104283 -1.04169e-26)
(0.0340023 0.000866572 1.23063e-28)
(0.034003 0.00352379 -3.45499e-27)
(0.03402 0.00688237 -2.43447e-27)
(0.0338186 0.0108952 0)
(0.0333204 0.0152293 -3.28881e-27)
(0.0326143 0.0200802 -1.47162e-27)
(0.0318042 0.0256225 0)
(0.0308514 0.0315604 -1.09019e-27)
(0.0300117 0.0390072 -5.99182e-28)
(0.0294059 0.0477176 -6.02201e-28)
(0.0291568 0.0580072 -8.80883e-28)
(0.0299941 0.0704835 0)
(0.0322019 0.0857261 -4.06098e-28)
(0.0353186 0.100307 0)