/*--------------------------------*- C++ -*----------------------------------*\
  =========                 |
  \\      /  F ield         | OpenFOAM: The Open Source CFD Toolbox
   \\    /   O peration     | Website:  https://openfoam.org
    \\  /    A nd           | Version:  dev
     \\/     M anipulation  |
\*---------------------------------------------------------------------------*/
FoamFile
{
    version     2.0;
    format      ascii;
    class       volScalarField;
    location    "2500";
    object      a;
}
// * * * * * * * * * * * * * * * * * * * * * * * * * * * * * * * * * * * * * //

dimensions      [0 -1 0 0 0 0 0];

internalField   nonuniform List<scalar> 
9978
(
0.100011
0.100011
0.100011
0.100011
0.100011
0.100011
0.100011
0.100011
0.100011
0.100011
0.10001
0.100011
0.100011
0.100011
0.100011
0.10001
0.10001
0.100011
0.100011
0.100011
0.100011
0.10001
0.10001
0.10001
0.100011
0.100011
0.100011
0.100011
0.10001
0.10001
0.10001
0.10001
0.100011
0.100011
0.100011
0.100011
0.100009
0.10001
0.10001
0.10001
0.10001
0.100011
0.100011
0.100011
0.100011
0.100009
0.100009
0.10001
0.10001
0.10001
0.10001
0.100011
0.100011
0.100011
0.100011
0.100009
0.100009
0.100009
0.10001
0.10001
0.10001
0.10001
0.100011
0.100011
0.100011
0.100011
0.100009
0.100009
0.100009
0.100009
0.10001
0.10001
0.10001
0.10001
0.100011
0.100011
0.100011
0.100011
0.100009
0.100009
0.100009
0.100009
0.100009
0.10001
0.10001
0.10001
0.10001
0.100011
0.100011
0.100011
0.100011
0.100008
0.100009
0.100009
0.100009
0.100009
0.100009
0.10001
0.10001
0.10001
0.10001
0.100011
0.100011
0.100011
0.100011
0.100008
0.100008
0.100009
0.100009
0.100009
0.100009
0.100009
0.10001
0.10001
0.10001
0.10001
0.100011
0.100011
0.100011
0.100011
0.100008
0.100008
0.100008
0.100009
0.100009
0.100009
0.100009
0.100009
0.10001
0.10001
0.10001
0.10001
0.100011
0.100011
0.100011
0.100011
0.100008
0.100008
0.100008
0.100008
0.100009
0.100009
0.100009
0.100009
0.100009
0.10001
0.10001
0.10001
0.10001
0.100011
0.100011
0.100011
0.100011
0.100007
0.100008
0.100008
0.100008
0.100008
0.100009
0.100009
0.100009
0.100009
0.100009
0.10001
0.10001
0.10001
0.10001
0.100011
0.100011
0.100011
0.100011
0.100007
0.100007
0.100008
0.100008
0.100008
0.100008
0.100009
0.100009
0.100009
0.100009
0.100009
0.10001
0.10001
0.10001
0.10001
0.100011
0.100011
0.100011
0.100011
0.100007
0.100007
0.100007
0.100008
0.100008
0.100008
0.100008
0.100009
0.100009
0.100009
0.100009
0.100009
0.10001
0.10001
0.10001
0.10001
0.100011
0.100011
0.100011
0.100011
0.100007
0.100007
0.100007
0.100007
0.100008
0.100008
0.100008
0.100008
0.100009
0.100009
0.100009
0.100009
0.100009
0.10001
0.10001
0.10001
0.10001
0.100011
0.100011
0.100011
0.100011
0.100006
0.100007
0.100007
0.100007
0.100007
0.100008
0.100008
0.100008
0.100008
0.100009
0.100009
0.100009
0.100009
0.100009
0.10001
0.10001
0.10001
0.10001
0.100011
0.100011
0.100011
0.100011
0.100006
0.100006
0.100007
0.100007
0.100007
0.100007
0.100008
0.100008
0.100008
0.100008
0.100009
0.100009
0.100009
0.100009
0.100009
0.10001
0.10001
0.10001
0.10001
0.100011
0.100011
0.100011
0.100011
0.100006
0.100006
0.100006
0.100007
0.100007
0.100007
0.100007
0.100008
0.100008
0.100008
0.100008
0.100008
0.100009
0.100009
0.100009
0.100009
0.10001
0.10001
0.10001
0.10001
0.100011
0.100011
0.100011
0.100011
0.100006
0.100006
0.100006
0.100006
0.100007
0.100007
0.100007
0.100007
0.100008
0.100008
0.100008
0.100008
0.100008
0.100009
0.100009
0.100009
0.100009
0.10001
0.10001
0.10001
0.10001
0.100011
0.100011
0.100011
0.100011
0.100006
0.100006
0.100006
0.100006
0.100006
0.100007
0.100007
0.100007
0.100007
0.100008
0.100008
0.100008
0.100008
0.100008
0.100009
0.100009
0.100009
0.100009
0.10001
0.10001
0.10001
0.10001
0.100011
0.100011
0.100011
0.100011
0.100005
0.100006
0.100006
0.100006
0.100006
0.100006
0.100007
0.100007
0.100007
0.100007
0.100008
0.100008
0.100008
0.100008
0.100008
0.100009
0.100009
0.100009
0.100009
0.10001
0.10001
0.10001
0.10001
0.100011
0.100011
0.100011
0.100011
0.100005
0.100005
0.100006
0.100006
0.100006
0.100006
0.100006
0.100007
0.100007
0.100007
0.100007
0.100008
0.100008
0.100008
0.100008
0.100008
0.100009
0.100009
0.100009
0.100009
0.10001
0.10001
0.10001
0.10001
0.100011
0.100011
0.100011
0.100011
0.100005
0.100005
0.100005
0.100006
0.100006
0.100006
0.100006
0.100006
0.100007
0.100007
0.100007
0.100007
0.100008
0.100008
0.100008
0.100008
0.100008
0.100009
0.100009
0.100009
0.100009
0.10001
0.10001
0.10001
0.10001
0.100011
0.100011
0.100011
0.100011
0.100005
0.100005
0.100005
0.100005
0.100006
0.100006
0.100006
0.100006
0.100006
0.100007
0.100007
0.100007
0.100007
0.100008
0.100008
0.100008
0.100008
0.100008
0.100009
0.100009
0.100009
0.100009
0.10001
0.10001
0.10001
0.10001
0.100011
0.100011
0.100011
0.100011
0.100004
0.100005
0.100005
0.100005
0.100005
0.100006
0.100006
0.100006
0.100006
0.100006
0.100007
0.100007
0.100007
0.100007
0.100008
0.100008
0.100008
0.100008
0.100008
0.100009
0.100009
0.100009
0.100009
0.10001
0.10001
0.10001
0.10001
0.100011
0.100011
0.100011
0.100011
0.100004
0.100004
0.100005
0.100005
0.100005
0.100005
0.100006
0.100006
0.100006
0.100006
0.100006
0.100007
0.100007
0.100007
0.100007
0.100008
0.100008
0.100008
0.100008
0.100008
0.100009
0.100009
0.100009
0.100009
0.10001
0.10001
0.10001
0.10001
0.100011
0.100011
0.100011
0.100011
0.100004
0.100004
0.100004
0.100005
0.100005
0.100005
0.100005
0.100006
0.100006
0.100006
0.100006
0.100006
0.100007
0.100007
0.100007
0.100007
0.100008
0.100008
0.100008
0.100008
0.100008
0.100009
0.100009
0.100009
0.100009
0.10001
0.10001
0.10001
0.10001
0.100011
0.100011
0.100011
0.100011
0.100004
0.100004
0.100004
0.100004
0.100005
0.100005
0.100005
0.100005
0.100006
0.100006
0.100006
0.100006
0.100006
0.100007
0.100007
0.100007
0.100007
0.100008
0.100008
0.100008
0.100008
0.100008
0.100009
0.100009
0.100009
0.100009
0.10001
0.10001
0.10001
0.10001
0.100011
0.100011
0.100011
0.100011
0.100004
0.100004
0.100004
0.100004
0.100004
0.100005
0.100005
0.100005
0.100005
0.100006
0.100006
0.100006
0.100006
0.100006
0.100007
0.100007
0.100007
0.100007
0.100008
0.100008
0.100008
0.100008
0.100008
0.100009
0.100009
0.100009
0.100009
0.10001
0.10001
0.10001
0.10001
0.100011
0.100011
0.100011
0.100011
0.100011
0.100011
0.100011
0.100003
0.100004
0.100004
0.100004
0.100004
0.100004
0.100005
0.100005
0.100005
0.100005
0.100006
0.100006
0.100006
0.100006
0.100006
0.100007
0.100007
0.100007
0.100007
0.100008
0.100008
0.100008
0.100008
0.100008
0.100009
0.100009
0.100009
0.100009
0.10001
0.10001
0.10001
0.10001
0.100011
0.100011
0.100011
0.100011
0.100011
0.100011
0.100011
0.100003
0.100003
0.100004
0.100004
0.100004
0.100004
0.100004
0.100005
0.100005
0.100005
0.100005
0.100006
0.100006
0.100006
0.100006
0.100006
0.100007
0.100007
0.100007
0.100007
0.100008
0.100008
0.100008
0.100008
0.100008
0.100009
0.100009
0.100009
0.100009
0.10001
0.10001
0.10001
0.10001
0.10001
0.100011
0.10001
0.10001
0.100011
0.100011
0.100011
0.100011
0.100011
0.100011
0.100003
0.100003
0.100003
0.100004
0.100004
0.100004
0.100004
0.100004
0.100005
0.100005
0.100005
0.100005
0.100006
0.100006
0.100006
0.100006
0.100006
0.100007
0.100007
0.100007
0.100007
0.100008
0.100008
0.100008
0.100008
0.100008
0.100009
0.100009
0.100009
0.100009
0.10001
0.10001
0.10001
0.10001
0.10001
0.100011
0.10001
0.10001
0.100011
0.100011
0.100011
0.100011
0.100011
0.100011
0.100003
0.100003
0.100003
0.100003
0.100004
0.100004
0.100004
0.100004
0.100004
0.100005
0.100005
0.100005
0.100005
0.100006
0.100006
0.100006
0.100006
0.100006
0.100007
0.100007
0.100007
0.100007
0.100008
0.100008
0.100008
0.100008
0.100008
0.100009
0.100009
0.100009
0.100009
0.10001
0.10001
0.10001
0.10001
0.10001
0.10001
0.100011
0.10001
0.10001
0.100011
0.100011
0.100011
0.100011
0.100011
0.100011
0.100002
0.100003
0.100003
0.100003
0.100003
0.100004
0.100004
0.100004
0.100004
0.100004
0.100005
0.100005
0.100005
0.100005
0.100006
0.100006
0.100006
0.100006
0.100006
0.100007
0.100007
0.100007
0.100007
0.100008
0.100008
0.100008
0.100008
0.100008
0.100009
0.100009
0.100009
0.100009
0.10001
0.10001
0.10001
0.10001
0.10001
0.10001
0.10001
0.100011
0.10001
0.10001
0.100011
0.100011
0.100011
0.100011
0.100011
0.100011
0.100002
0.100002
0.100003
0.100003
0.100003
0.100003
0.100004
0.100004
0.100004
0.100004
0.100004
0.100005
0.100005
0.100005
0.100005
0.100006
0.100006
0.100006
0.100006
0.100006
0.100007
0.100007
0.100007
0.100007
0.100008
0.100008
0.100008
0.100008
0.100008
0.100009
0.100009
0.100009
0.10001
0.10001
0.10001
0.10001
0.10001
0.10001
0.10001
0.10001
0.10001
0.100011
0.10001
0.100011
0.100011
0.100011
0.100011
0.100011
0.100011
0.100011
0.100002
0.100002
0.100002
0.100003
0.100003
0.100003
0.100003
0.100004
0.100004
0.100004
0.100004
0.100004
0.100005
0.100005
0.100005
0.100005
0.100006
0.100006
0.100006
0.100006
0.100006
0.100007
0.100007
0.100007
0.100007
0.100008
0.100008
0.100008
0.100008
0.100009
0.100009
0.10001
0.10001
0.100011
0.10001
0.100011
0.10001
0.100011
0.10001
0.100011
0.10001
0.100011
0.10001
0.100011
0.100011
0.100011
0.100011
0.100011
0.100011
0.100011
0.100011
0.100011
0.100002
0.100002
0.100002
0.100002
0.100003
0.100003
0.100003
0.100003
0.100004
0.100004
0.100004
0.100004
0.100004
0.100005
0.100005
0.100005
0.100005
0.100006
0.100006
0.100006
0.100006
0.100006
0.100007
0.100007
0.100007
0.100007
0.100008
0.100008
0.100008
0.100008
0.10001
0.100011
0.100014
0.10002
0.100013
0.10002
0.100013
0.10002
0.100013
0.100018
0.100012
0.100016
0.100011
0.100014
0.100012
0.100011
0.100013
0.100015
0.100011
0.100011
0.100011
0.100011
0.100011
0.100011
0.100001
0.100002
0.100002
0.100002
0.100002
0.100003
0.100003
0.100003
0.100003
0.100004
0.100004
0.100004
0.100004
0.100004
0.100005
0.100005
0.100005
0.100005
0.100006
0.100006
0.100006
0.100006
0.100006
0.100007
0.100007
0.100007
0.100007
0.100008
0.100008
0.100008
0.100011
0.100024
0.10003
0.100051
0.100033
0.100062
0.100036
0.100076
0.100035
0.100081
0.100031
0.100076
0.100024
0.100061
0.100018
0.100041
0.100024
0.100016
0.100033
0.100042
0.100011
0.100016
0.100011
0.100011
0.100011
0.100011
0.100001
0.100001
0.100002
0.100002
0.100002
0.100002
0.100003
0.100003
0.100003
0.100003
0.100004
0.100004
0.100004
0.100004
0.100004
0.100005
0.100005
0.100005
0.100005
0.100006
0.100006
0.100006
0.100006
0.100006
0.100007
0.100007
0.100007
0.100007
0.100008
0.100009
0.100015
0.100035
0.100088
0.100159
0.100114
0.100232
0.100159
0.100343
0.100195
0.100459
0.1002
0.100524
0.100174
0.100504
0.100125
0.100399
0.10007
0.100251
0.10012
0.100048
0.100185
0.100246
0.100015
0.100048
0.100013
0.100011
0.100012
0.100012
0.100001
0.100001
0.100002
0.100002
0.100002
0.100002
0.100002
0.100003
0.100003
0.100003
0.100003
0.100004
0.100004
0.100004
0.100004
0.100004
0.100005
0.100005
0.100005
0.100005
0.100006
0.100006
0.100006
0.100006
0.100006
0.100007
0.100007
0.100007
0.100008
0.100013
0.100034
0.100147
0.100302
0.100008
0.100421
0.100846
0.100726
0.101611
0.101084
0.1025
0.101345
0.103362
0.101384
0.103751
0.101209
0.103525
0.100871
0.102758
0.100473
0.101742
0.100826
0.100281
0.101228
0.10158
0.10004
0.100275
0.100029
0.100011
0.100019
0.100014
0.100001
0.100001
0.100002
0.100002
0.100002
0.100002
0.100002
0.100002
0.100003
0.100003
0.100003
0.100003
0.100004
0.100004
0.100004
0.100004
0.100004
0.100005
0.100005
0.100005
0.100005
0.100006
0.100006
0.100006
0.100006
0.100006
0.100007
0.100007
0.10001
0.100025
0.100096
0.100522
0.103601
0.101572
0.103605
0.103033
0.106173
0.105508
0.110899
0.108002
0.11641
0.109383
0.120869
0.109351
0.122774
0.108107
0.121462
0.105826
0.116785
0.103175
0.110805
0.105048
0.101779
0.106984
0.10856
0.100216
0.101718
0.100136
0.100012
0.100067
0.100029
0.100001
0.100002
0.100002
0.100003
0.100002
0.100002
0.100002
0.100002
0.100002
0.100003
0.100003
0.100003
0.100003
0.100004
0.100004
0.100004
0.100004
0.100004
0.100005
0.100005
0.100005
0.100005
0.100006
0.100006
0.100006
0.100006
0.100007
0.100008
0.100018
0.100069
0.100301
0.101601
0.108861
0.124131
0.132897
0.110063
0.116551
0.118225
0.128421
0.127967
0.142063
0.13692
0.155559
0.142963
0.165938
0.144989
0.172378
0.141533
0.173494
0.130326
0.166184
0.117196
0.147277
0.124218
0.109393
0.13089
0.135869
0.101389
0.109124
0.10092
0.100014
0.100443
0.100173
0.100001
0.100003
0.100005
0.100007
0.100006
0.100004
0.100003
0.100002
0.100002
0.100002
0.100003
0.100003
0.100003
0.100003
0.100004
0.100004
0.100004
0.100004
0.100004
0.100005
0.100005
0.100005
0.100005
0.100006
0.100006
0.100006
0.100007
0.100012
0.100048
0.100231
0.101048
0.104746
0.119007
0.142392
0.153521
0.164236
0.176846
0.139803
0.152153
0.157553
0.173834
0.175086
0.194534
0.190001
0.213919
0.201222
0.22989
0.207502
0.241854
0.206445
0.247855
0.193899
0.243164
0.165922
0.222793
0.183352
0.138551
0.199191
0.20996
0.1078
0.138161
0.105714
0.100065
0.103385
0.101883
0.100001
0.100004
0.100009
0.100014
0.100017
0.100015
0.100009
0.100004
0.100002
0.100002
0.100002
0.100003
0.100003
0.100003
0.100003
0.100004
0.100004
0.100004
0.100004
0.100004
0.100005
0.100005
0.100005
0.100005
0.100006
0.100006
0.100007
0.100024
0.100155
0.10085
0.103704
0.11293
0.138822
0.167749
0.172172
0.188722
0.202457
0.219129
0.233241
0.189592
0.20476
0.21408
0.233285
0.237303
0.25977
0.258119
0.285116
0.275529
0.307399
0.287859
0.325969
0.291637
0.33799
0.281643
0.337335
0.252272
0.318906
0.277511
0.216113
0.299813
0.315045
0.134597
0.215893
0.128394
0.102512
0.121979
0.121948
0.100002
0.100011
0.10002
0.100031
0.100035
0.100033
0.100019
0.100007
0.100003
0.100002
0.100002
0.100003
0.100003
0.100003
0.100003
0.100004
0.100004
0.100004
0.100004
0.100004
0.100005
0.100005
0.100005
0.100005
0.100006
0.100008
0.100056
0.100516
0.102886
0.111645
0.132117
0.165868
0.222847
0.213259
0.235237
0.246546
0.26088
0.284625
0.300068
0.251429
0.268566
0.28205
0.303388
0.310869
0.335239
0.337819
0.366306
0.361774
0.39457
0.380299
0.419116
0.389378
0.436486
0.383038
0.439436
0.355116
0.42395
0.384004
0.325324
0.407574
0.422888
0.208752
0.328226
0.19704
0.153915
0.19639
0.240912
0.100003
0.100016
0.100038
0.100052
0.100062
0.100054
0.100036
0.10001
0.100003
0.100002
0.100002
0.100003
0.100003
0.100003
0.100003
0.100004
0.100004
0.100004
0.100004
0.100004
0.100005
0.100005
0.100005
0.100005
0.100008
0.100086
0.101162
0.107709
0.127955
0.159645
0.196702
0.252633
0.304408
0.306423
0.274195
0.287343
0.314429
0.329645
0.359259
0.375631
0.32329
0.341912
0.359193
0.381863
0.392989
0.417913
0.425078
0.453055
0.454357
0.485413
0.477104
0.513102
0.490559
0.532259
0.487208
0.53669
0.461967
0.524197
0.48953
0.433724
0.509151
0.518761
0.325234
0.439152
0.32413
0.140629
0.348482
0.322303
0.100003
0.10002
0.100052
0.100089
0.100105
0.100094
0.100054
0.100013
0.100003
0.100002
0.100002
0.100003
0.100003
0.100003
0.100003
0.100004
0.100004
0.100004
0.100004
0.100004
0.100005
0.100005
0.100005
0.100007
0.100096
0.101698
0.113337
0.147554
0.191832
0.23186
0.284015
0.373173
0.368206
0.393222
0.343182
0.357516
0.390755
0.406156
0.439782
0.455932
0.402706
0.422006
0.44198
0.464553
0.47866
0.502174
0.513119
0.537702
0.543678
0.568772
0.564734
0.588345
0.56909
0.591418
0.562643
0.584848
0.545007
0.573735
0.556435
0.527261
0.561947
0.567724
0.550344
0.445475
0.490239
0.529854
0.454756
0.191083
0.448144
0.447709
0.100003
0.100022
0.100092
0.100181
0.100197
0.100172
0.100064
0.100014
0.100003
0.100002
0.100002
0.100003
0.100003
0.100003
0.100003
0.100004
0.100004
0.100004
0.100004
0.100004
0.100005
0.100005
0.100006
0.100089
0.101874
0.117271
0.166127
0.226517
0.275339
0.323927
0.39738
0.4669
0.479643
0.443708
0.456282
0.419814
0.4327
0.470801
0.485179
0.519969
0.533983
0.484725
0.503337
0.524296
0.544844
0.559502
0.579528
0.589713
0.608137
0.606849
0.62218
0.607566
0.620716
0.599332
0.609629
0.58749
0.596358
0.575835
0.583777
0.581793
0.571139
0.574701
0.567068
0.556176
0.572115
0.573121
0.571113
0.571777
0.573155
0.49699
0.535473
0.529053
0.560534
0.534795
0.496044
0.536072
0.31838
0.498741
0.538454
0.533901
0.546811
0.509985
0.556567
0.100002
0.100034
0.100209
0.100418
0.100406
0.100264
0.100073
0.100015
0.100004
0.100002
0.100003
0.100003
0.100003
0.100003
0.100003
0.100004
0.100004
0.100004
0.100004
0.100004
0.100005
0.100005
0.100057
0.101766
0.118384
0.178228
0.259238
0.322618
0.37883
0.449015
0.491025
0.505075
0.532487
0.540371
0.516599
0.525213
0.497429
0.507695
0.547235
0.558232
0.591075
0.600728
0.561976
0.578352
0.598041
0.614154
0.624412
0.638909
0.63574
0.648076
0.632682
0.644068
0.619545
0.629894
0.601876
0.604757
0.608222
0.612329
0.58504
0.585378
0.598461
0.588352
0.586348
0.578033
0.57532
0.572644
0.577484
0.570148
0.574283
0.575248
0.576811
0.56983
0.559587
0.56497
0.567986
0.565668
0.563899
0.579635
0.566778
0.567271
0.101279
0.220209
0.47966
0.574211
0.568918
0.582266
0.564
0.100003
0.100124
0.100575
0.101088
0.100883
0.100401
0.100085
0.100017
0.100004
0.100003
0.100003
0.100003
0.100003
0.100003
0.100003
0.100004
0.100004
0.100004
0.100004
0.100004
0.100005
0.100024
0.101225
0.117644
0.182041
0.281228
0.362918
0.430278
0.482972
0.530737
0.545034
0.552581
0.574485
0.572428
0.57472
0.575321
0.566259
0.57175
0.607336
0.608264
0.636435
0.635143
0.626013
0.633992
0.64881
0.654621
0.657852
0.663798
0.654588
0.662112
0.640775
0.650938
0.616933
0.622485
0.62799
0.633937
0.60121
0.605491
0.610676
0.576482
0.576554
0.59201
0.582214
0.578237
0.568801
0.564854
0.558781
0.565924
0.555906
0.567462
0.580416
0.568829
0.553856
0.546822
0.537663
0.549288
0.583987
0.587666
0.585753
0.590294
0.59304
0.105992
0.185292
0.404079
0.596493
0.60069
0.596336
0.545081
0.10001
0.100498
0.101807
0.10272
0.10187
0.100539
0.100094
0.100022
0.100006
0.100004
0.100003
0.100003
0.100003
0.100003
0.100003
0.100004
0.100004
0.100004
0.100004
0.100004
0.10001
0.100569
0.114023
0.1804
0.290356
0.38735
0.441703
0.48072
0.518842
0.550551
0.537659
0.567959
0.562274
0.586587
0.578526
0.598917
0.593093
0.60704
0.604001
0.631508
0.625067
0.649867
0.641705
0.655683
0.654033
0.665407
0.664151
0.666841
0.666303
0.659148
0.661611
0.639172
0.643912
0.647467
0.649712
0.61622
0.622167
0.627997
0.633464
0.597272
0.603194
0.609387
0.565292
0.567206
0.588143
0.578757
0.572052
0.554367
0.54753
0.541921
0.553133
0.53573
0.546952
0.573039
0.548022
0.52927
0.523715
0.512041
0.522691
0.591985
0.598589
0.580489
0.604893
0.610146
0.114406
0.378454
0.220934
0.614954
0.615556
0.599277
0.530424
0.100044
0.101793
0.104569
0.105913
0.102815
0.100634
0.100119
0.100033
0.10001
0.100006
0.100005
0.100004
0.100004
0.100004
0.100003
0.100004
0.100004
0.100004
0.100004
0.100006
0.100204
0.108101
0.17171
0.289177
0.386985
0.435727
0.466103
0.483878
0.462909
0.529791
0.484583
0.567994
0.551053
0.577044
0.560891
0.600179
0.589693
0.617579
0.6093
0.631338
0.619102
0.638394
0.622301
0.660352
0.651875
0.662615
0.653535
0.657465
0.648814
0.650468
0.649539
0.641375
0.637802
0.640655
0.642009
0.641917
0.615685
0.621696
0.626757
0.630478
0.594898
0.601999
0.608773
0.555569
0.561235
0.586344
0.577398
0.568878
0.540477
0.528857
0.527344
0.543382
0.515753
0.519162
0.553806
0.520416
0.501532
0.502615
0.489828
0.493295
0.590316
0.601038
0.564403
0.61132
0.620109
0.126521
0.390742
0.250438
0.625036
0.622618
0.599115
0.52561
0.10018
0.10476
0.109411
0.109183
0.103477
0.100665
0.100142
0.100049
0.100021
0.100013
0.100009
0.100007
0.100005
0.100004
0.100004
0.100004
0.100004
0.100004
0.100005
0.10007
0.103672
0.151984
0.27918
0.380052
0.419475
0.427922
0.396899
0.321869
0.363056
0.29265
0.47251
0.420492
0.539579
0.510418
0.540437
0.515026
0.577354
0.560573
0.605935
0.592142
0.605041
0.587408
0.601445
0.580918
0.638545
0.620918
0.636723
0.623442
0.63506
0.630051
0.64064
0.638808
0.638079
0.635408
0.632631
0.633422
0.633201
0.632545
0.614665
0.619366
0.622621
0.624455
0.594118
0.601192
0.607045
0.549886
0.558525
0.585721
0.576896
0.567876
0.530745
0.513867
0.517479
0.538057
0.500193
0.488789
0.527898
0.490485
0.477919
0.486423
0.472916
0.468004
0.57897
0.595483
0.541787
0.611376
0.624309
0.135724
0.40137
0.267472
0.630665
0.626607
0.60022
0.526088
0.100637
0.109716
0.115237
0.111421
0.103557
0.100646
0.100193
0.100089
0.100049
0.100028
0.100018
0.100012
0.100008
0.100005
0.100004
0.100004
0.100004
0.100005
0.10003
0.101377
0.131669
0.252602
0.365213
0.398523
0.378381
0.294773
0.205374
0.158116
0.253022
0.179392
0.387008
0.322792
0.482343
0.440004
0.478882
0.443048
0.530769
0.507331
0.569548
0.551017
0.559944
0.538505
0.57313
0.550826
0.608617
0.592271
0.627395
0.620295
0.641452
0.645957
0.654685
0.650513
0.632492
0.633337
0.660482
0.650667
0.625728
0.62714
0.628902
0.631268
0.611673
0.615032
0.617729
0.620843
0.593132
0.599363
0.604431
0.547545
0.557665
0.584985
0.576689
0.567501
0.525469
0.50363
0.511877
0.53565
0.489205
0.461704
0.499813
0.462515
0.460313
0.474437
0.459892
0.449377
0.561274
0.58383
0.516884
0.606156
0.62463
0.132329
0.413839
0.277093
0.633846
0.630217
0.603396
0.532791
0.102175
0.116252
0.120541
0.11191
0.103298
0.100665
0.100336
0.100195
0.100095
0.100064
0.100042
0.100026
0.100014
0.100011
0.100005
0.100004
0.100005
0.100015
0.100619
0.115968
0.217143
0.344189
0.382396
0.338794
0.225374
0.151275
0.11804
0.111333
0.104801
0.15662
0.124024
0.275156
0.207653
0.39792
0.342004
0.395334
0.347306
0.465228
0.433645
0.516202
0.49228
0.525413
0.496715
0.576668
0.552605
0.609411
0.595543
0.674903
0.674227
0.670715
0.680323
0.69471
0.688837
0.635721
0.641838
0.703765
0.688826
0.624586
0.629696
0.637068
0.646975
0.608896
0.613648
0.619393
0.626711
0.59207
0.598664
0.605327
0.54653
0.557327
0.585492
0.578895
0.567945
0.522684
0.497377
0.50842
0.534315
0.482025
0.441729
0.473349
0.441009
0.446644
0.466096
0.450305
0.435506
0.540758
0.569044
0.493205
0.597979
0.62289
0.118831
0.432539
0.279893
0.636337
0.634318
0.608688
0.544608
0.106209
0.124148
0.12334
0.111192
0.102837
0.100766
0.10037
0.100292
0.100213
0.100157
0.100103
0.100058
0.100029
0.100012
0.100007
0.100006
0.10001
0.100284
0.107077
0.180382
0.314598
0.371864
0.320792
0.20035
0.137178
0.10948
0.101261
0.102733
0.101101
0.115351
0.106325
0.171146
0.134764
0.28847
0.225045
0.298722
0.244036
0.391037
0.348433
0.46454
0.429128
0.523093
0.487685
0.635483
0.609439
0.667348
0.655162
0.737487
0.731443
0.724978
0.714743
0.717049
0.727994
0.739616
0.736156
0.659484
0.673736
0.752644
0.737847
0.636688
0.649292
0.664756
0.682425
0.612776
0.62177
0.633105
0.647496
0.594292
0.603628
0.614215
0.546147
0.558328
0.590219
0.58547
0.571474
0.520777
0.493105
0.505759
0.533653
0.476759
0.427776
0.451585
0.426796
0.436075
0.459915
0.443503
0.425192
0.520592
0.553646
0.473303
0.589057
0.62092
0.12346
0.46041
0.311953
0.639197
0.638754
0.61534
0.560734
0.114036
0.131357
0.122835
0.109518
0.102358
0.100834
0.100505
0.100439
0.10045
0.100377
0.100271
0.100149
0.100038
0.100017
0.10001
0.10001
0.100104
0.102875
0.147913
0.277101
0.359928
0.321061
0.202079
0.141494
0.112815
0.101828
0.10048
0.10043
0.101853
0.100887
0.107364
0.103704
0.127336
0.114361
0.19166
0.151519
0.238502
0.190765
0.348003
0.293061
0.446325
0.399442
0.574928
0.530272
0.667361
0.653259
0.707591
0.696312
0.685659
0.747655
0.736334
0.724485
0.712529
0.76286
0.766711
0.757004
0.764128
0.701575
0.720584
0.786066
0.780724
0.665235
0.685624
0.707654
0.729811
0.626702
0.64221
0.661337
0.683613
0.602612
0.616478
0.633177
0.547264
0.562428
0.600745
0.596833
0.578475
0.51945
0.489612
0.503608
0.534282
0.472466
0.418902
0.436367
0.418945
0.428909
0.455135
0.438789
0.418704
0.502706
0.539743
0.457846
0.581439
0.620042
0.2906
0.499975
0.468412
0.642686
0.643603
0.622493
0.579461
0.127809
0.133001
0.120749
0.107239
0.102237
0.101076
0.101017
0.100983
0.100886
0.100652
0.100401
0.100155
0.100058
0.100026
0.100017
0.100055
0.101231
0.124456
0.232981
0.340166
0.328648
0.213755
0.158446
0.127805
0.107247
0.100582
0.100472
0.100309
0.102492
0.101104
0.109061
0.105021
0.123112
0.114838
0.156483
0.135603
0.236411
0.1981
0.353778
0.290927
0.477352
0.417453
0.636817
0.610234
0.624914
0.632059
0.701929
0.69168
0.643244
0.647098
0.738226
0.718653
0.697681
0.679035
0.785119
0.77862
0.755801
0.769037
0.750608
0.768281
0.79768
0.800581
0.708015
0.732819
0.756125
0.776257
0.653644
0.677548
0.703711
0.730518
0.618679
0.640873
0.666879
0.550702
0.569302
0.619192
0.61646
0.590401
0.519405
0.486691
0.503925
0.537685
0.46969
0.414692
0.428056
0.416434
0.425181
0.453138
0.437896
0.416256
0.488784
0.529352
0.448155
0.576898
0.621252
0.284037
0.550256
0.507061
0.646954
0.648715
0.630878
0.599976
0.138564
0.130953
0.116046
0.105634
0.102698
0.1024
0.102725
0.102515
0.101843
0.101123
0.100581
0.100212
0.100098
0.100046
0.100052
0.100721
0.110962
0.188081
0.309592
0.332741
0.240284
0.181955
0.152519
0.124616
0.102672
0.100195
0.100582
0.100297
0.104251
0.101675
0.118194
0.10939
0.14501
0.130648
0.174948
0.159333
0.31231
0.272961
0.434764
0.367606
0.564678
0.504356
0.636672
0.634499
0.588439
0.536734
0.546189
0.556609
0.571491
0.663951
0.652867
0.589193
0.709471
0.679774
0.650556
0.625788
0.789673
0.777943
0.737138
0.760362
0.791538
0.799342
0.799268
0.807047
0.756133
0.778602
0.796237
0.807314
0.695274
0.72414
0.75179
0.776435
0.646711
0.678856
0.712539
0.558508
0.582342
0.649027
0.649574
0.612378
0.523915
0.488121
0.509476
0.546749
0.471618
0.414215
0.426064
0.417819
0.425534
0.45534
0.440633
0.417667
0.480422
0.524355
0.446356
0.576556
0.62464
0.204056
0.575654
0.46738
0.652093
0.654735
0.641386
0.613924
0.137799
0.125035
0.111763
0.106405
0.105956
0.10736
0.107606
0.106055
0.103811
0.101989
0.10083
0.100346
0.10015
0.100086
0.100392
0.104547
0.15114
0.269712
0.33065
0.277141
0.207108
0.178505
0.14966
0.110383
0.100805
0.100101
0.100273
0.100095
0.100714
0.106483
0.102311
0.132471
0.115521
0.188827
0.158086
0.244802
0.218558
0.43434
0.387964
0.543894
0.488266
0.622618
0.592534
0.574271
0.601753
0.531068
0.483945
0.494832
0.508522
0.525403
0.606808
0.594693
0.529947
0.67583
0.636755
0.599025
0.568156
0.787128
0.768747
0.713005
0.744162
0.811462
0.811346
0.795604
0.80758
0.796627
0.810738
0.818021
0.820023
0.743987
0.771316
0.793761
0.810715
0.686449
0.725085
0.760255
0.573695
0.608588
0.692278
0.699118
0.651189
0.534652
0.493984
0.520561
0.566338
0.47749
0.416664
0.429366
0.424114
0.428964
0.461607
0.448458
0.422734
0.479214
0.524899
0.452434
0.580946
0.630044
0.16548
0.572009
0.425951
0.659006
0.66238
0.650483
0.620845
0.132627
0.118458
0.112849
0.112956
0.117146
0.120149
0.118285
0.112467
0.106736
0.103048
0.101235
0.100536
0.100237
0.100311
0.101886
0.12635
0.224634
0.320575
0.305314
0.236323
0.20421
0.177202
0.131639
0.103332
0.100186
0.100239
0.100077
0.100032
0.100744
0.108389
0.102623
0.151526
0.122945
0.249722
0.196012
0.346739
0.302168
0.537992
0.494557
0.606298
0.576783
0.61745
0.6177
0.506383
0.529995
0.544951
0.477872
0.439198
0.45042
0.466174
0.484674
0.54576
0.533598
0.476814
0.648047
0.600608
0.553664
0.516719
0.778444
0.755764
0.690687
0.726721
0.819218
0.815042
0.788691
0.804235
0.821444
0.825973
0.82686
0.826258
0.788402
0.808694
0.822135
0.830045
0.734816
0.77244
0.801221
0.606108
0.654461
0.745081
0.756162
0.70729
0.555089
0.50603
0.545021
0.599567
0.491827
0.425697
0.441895
0.442047
0.440305
0.480278
0.473113
0.4403
0.487296
0.533007
0.47068
0.587683
0.640133
0.145668
0.561401
0.409586
0.667419
0.670454
0.65819
0.622834
0.12646
0.120405
0.123342
0.131245
0.137287
0.137079
0.13079
0.120191
0.109886
0.104193
0.101684
0.100717
0.100387
0.101267
0.112227
0.180715
0.292603
0.312542
0.266914
0.229607
0.204637
0.161396
0.110786
0.100869
0.100028
0.100209
0.100046
0.100016
0.100652
0.108854
0.102611
0.165042
0.126086
0.312534
0.231164
0.445696
0.386598
0.589339
0.555999
0.609401
0.604962
0.579875
0.602333
0.472209
0.497013
0.488121
0.513478
0.433512
0.404602
0.415493
0.431247
0.45059
0.491604
0.479906
0.433165
0.617536
0.566255
0.516807
0.475863
0.76791
0.741009
0.665439
0.707092
0.822343
0.815156
0.780017
0.798553
0.833054
0.833957
0.83355
0.829309
0.820717
0.832647
0.838244
0.840542
0.784085
0.813695
0.833223
0.655998
0.720251
0.796973
0.822973
0.780156
0.598026
0.536374
0.601784
0.668785
0.530897
0.453406
0.469911
0.475248
0.473506
0.530337
0.533679
0.483471
0.507657
0.547697
0.504094
0.602295
0.652685
0.111653
0.557731
0.347822
0.676706
0.678337
0.663652
0.624188
0.130645
0.135873
0.147619
0.155856
0.157527
0.151998
0.1408
0.126614
0.11301
0.105159
0.102158
0.100823
0.101096
0.105473
0.146511
0.253542
0.310145
0.292814
0.255172
0.23068
0.192633
0.13176
0.102966
0.100166
0.100006
0.10001
0.100013
0.10015
0.100025
0.100492
0.10799
0.102117
0.167017
0.125525
0.339136
0.24151
0.506048
0.433667
0.584055
0.563255
0.582048
0.588736
0.529491
0.561752
0.438889
0.462156
0.448693
0.477798
0.400337
0.376898
0.386424
0.40033
0.417968
0.448468
0.436528
0.400789
0.58506
0.529177
0.478973
0.441721
0.75586
0.724965
0.638837
0.686204
0.822444
0.812446
0.770848
0.791849
0.841407
0.840615
0.836277
0.829487
0.842654
0.846909
0.848791
0.849407
0.828946
0.846218
0.852908
0.754489
0.815704
0.845966
0.853483
0.841509
0.695316
0.610718
0.715131
0.783176
0.619042
0.498063
0.507559
0.51534
0.535958
0.620283
0.616941
0.541355
0.534738
0.571763
0.533124
0.620891
0.666336
0.11188
0.560123
0.359116
0.685855
0.685677
0.667262
0.628675
0.151099
0.16392
0.174711
0.1779
0.173358
0.162207
0.146914
0.13026
0.11513
0.106014
0.102231
0.101298
0.102965
0.124848
0.211826
0.299731
0.305469
0.278982
0.254996
0.222047
0.164171
0.108966
0.100606
0.100025
0.100007
0.100006
0.100006
0.100101
0.100014
0.100292
0.10558
0.101325
0.157269
0.11979
0.332606
0.230579
0.513957
0.434648
0.532121
0.514747
0.515799
0.530423
0.45433
0.476716
0.483991
0.401632
0.423313
0.398301
0.424182
0.373851
0.348525
0.356391
0.368177
0.383257
0.417242
0.404947
0.374449
0.55255
0.491947
0.440658
0.406957
0.743791
0.709166
0.612569
0.6656
0.820416
0.807993
0.762109
0.785097
0.847743
0.843484
0.836994
0.828319
0.855514
0.858408
0.858229
0.855509
0.856947
0.860531
0.867058
0.821996
0.843014
0.861597
0.866144
0.854582
0.782269
0.716521
0.768008
0.811879
0.701365
0.546077
0.538944
0.560906
0.613997
0.684973
0.65819