/*--------------------------------*- C++ -*----------------------------------*\
  =========                 |
  \\      /  F ield         | OpenFOAM: The Open Source CFD Toolbox
   \\    /   O peration     | Website:  https://openfoam.org
    \\  /    A nd           | Version:  dev
     \\/     M anipulation  |
\*---------------------------------------------------------------------------*/
FoamFile
{
    version     2.0;
    format      ascii;
    class       volScalarField;
    location    "2500";
    object      alphat;
}
// * * * * * * * * * * * * * * * * * * * * * * * * * * * * * * * * * * * * * //

dimensions      [1 -1 -1 0 0 0 0];

internalField   nonuniform List<scalar> 
9978
(
0.000151865
0.000156026
0.000148238
0.000142277
0.000188283
0.000131552
0.000131168
0.000198731
0.000177754
0.000124426
0.000126327
0.000191604
0.000203018
0.000152116
0.000122315
0.000122527
0.000172417
0.000218053
0.000187204
0.000137504
0.00012095
0.000120531
0.000152484
0.00021789
0.000212464
0.000159815
0.000130848
0.000120072
0.000120001
0.000141225
0.000209397
0.000225702
0.000188962
0.000143781
0.000126968
0.000119436
0.000119763
0.000132586
0.000189411
0.000233281
0.000214466
0.000162445
0.000135824
0.000124464
0.000118935
0.000119384
0.000127352
0.000165309
0.000231177
0.000230017
0.00018554
0.000146964
0.000130969
0.000122748
0.000118658
0.000118846
0.000124222
0.000150981
0.000222108
0.000239268
0.000211057
0.000161667
0.000138637
0.000127799
0.000121554
0.000118409
0.000118202
0.000122421
0.000140147
0.000200257
0.000243722
0.000230412
0.000180892
0.000148087
0.000133469
0.000125391
0.000120798
0.000118211
0.000117694
0.000121633
0.000133145
0.00017564
0.000240756
0.000241558
0.000204125
0.000159365
0.000140373
0.000130103
0.000123671
0.000120173
0.000118052
0.000117326
0.000121179
0.000129008
0.00015844
0.000230322
0.000249116
0.000226433
0.000176307
0.000147523
0.000135277
0.000127507
0.000122526
0.000119683
0.000117903
0.000117073
0.000120853
0.000126544
0.000147176
0.000207977
0.000251037
0.000242348
0.00019576
0.000157452
0.000140904
0.000131692
0.000125538
0.000121572
0.000119351
0.000117792
0.000116933
0.000120581
0.000125019
0.000139573
0.000183244
0.000247132
0.000250169
0.000219292
0.000170458
0.000146979
0.000136337
0.000129033
0.000124034
0.000120901
0.000119088
0.000117681
0.000116902
0.000120323
0.000123969
0.000135021
0.00016468
0.00023483
0.00025622
0.000239042
0.000189431
0.000154734
0.000140933
0.000132768
0.000126983
0.000122753
0.00012045
0.000118821
0.000117628
0.000116916
0.000119915
0.000123146
0.000132581
0.000153913
0.00021227
0.000256441
0.000251555
0.000209822
0.000166101
0.000146352
0.000136659
0.000130012
0.000125323
0.000121822
0.000120069
0.000118483
0.000117605
0.00011695
0.000119531
0.000122681
0.000130735
0.000146768
0.000187836
0.000251088
0.000256877
0.000232679
0.000182691
0.000152296
0.000141024
0.000133286
0.000127943
0.00012382
0.000121219
0.000119639
0.000118248
0.000117583
0.000116989
0.000119234
0.000122312
0.000129128
0.000142747
0.000170201
0.000236096
0.000261697
0.000248968
0.000202369
0.000162779
0.00014527
0.00013688
0.000130784
0.000126237
0.000122556
0.000120747
0.000119163
0.000118099
0.000117556
0.000117037
0.000119003
0.000121997
0.000127729
0.000140062
0.000159126
0.000211434
0.000260534
0.000258682
0.000224566
0.000176754
0.000150973
0.000140834
0.000133631
0.00012881
0.00012472
0.000121778
0.00012027
0.000118747
0.000118008
0.000117523
0.000117094
0.000118815
0.000121703
0.000126657
0.000137963
0.000152098
0.00018763
0.000252501
0.000263829
0.000245028
0.00019647
0.00015954
0.000144572
0.000137268
0.000131287
0.000127085
0.000123339
0.00012121
0.00011974
0.000118418
0.00011795
0.000117486
0.000117165
0.000118672
0.000121421
0.000125804
0.000135969
0.00014776
0.000171747
0.000233561
0.000266814
0.000259087
0.000216528
0.000172781
0.000149916
0.000140488
0.000134146
0.000129417
0.000125535
0.000122286
0.0001207
0.0001192
0.000118186
0.000117907
0.000117448
0.000117237
0.000118555
0.000121127
0.000125055
0.000134148
0.000144932
0.000161345
0.000206958
0.000263459
0.000265844
0.000240027
0.000190192
0.000157113
0.000144551
0.000137347
0.000131819
0.000127758
0.000124141
0.000121577
0.000120165
0.000118716
0.000118034
0.000117861
0.00011742
0.000117303
0.000118455
0.000120845
0.000124461
0.000132746
0.000142608
0.000154561
0.000185353
0.000252334
0.000271516
0.000257387
0.000210672
0.000169575
0.00014871
0.000140764
0.000134478
0.000129935
0.000126223
0.000122917
0.00012099
0.000119586
0.000118311
0.000117945
0.000117786
0.000117417
0.000117358
0.000118374
0.000120615
0.000123948
0.000131589
0.000140342
0.000150375
0.000171225
0.000228543
0.000271614
0.000268326
0.00023271
0.000184672
0.000155919
0.000144157
0.000137581
0.000132252
0.000128311
0.000124835
0.000121945
0.000120441
0.000119009
0.000118011
0.000117885
0.000117699
0.00011742
0.000117394
0.000118289
0.000120422
0.00012349
0.000130491
0.000138376
0.000147559
0.000161618
0.000201295
0.000265675
0.000273829
0.000254271
0.000205515
0.000166008
0.000148232
0.000140882
0.000134724
0.000130391
0.000126834
0.00012358
0.000121223
0.000119872
0.000118484
0.000117825
0.000117803
0.000117635
0.000117422
0.000117413
0.000118199
0.00012024
0.000123079
0.000129452
0.000136934
0.000145209
0.000155386
0.000182865
0.000250113
0.000278762
0.000269323
0.000225864
0.000181153
0.000154424
0.000143929
0.000137934
0.000132588
0.000128774
0.000125468
0.000122424
0.000120618
0.000119278
0.000118062
0.000117719
0.000117692
0.0001176
0.000117412
0.000117429
0.000118101
0.00012005
0.000122667
0.000128587
0.000135802
0.000142924
0.000151365
0.00017004
0.000222037
0.000276647
0.000277323
0.000250524
0.000199367
0.000163541
0.000148093
0.000140924
0.000135121
0.000130807
0.000127311
0.000124191
0.000121479
0.000120059
0.000118707
0.000117754
0.000117639
0.000117559
0.000117583
0.000117398
0.000117432
0.000117992
0.00011986
0.000122292
0.000127811
0.00013463
0.000140987
0.000148948
0.000161678
0.000196827
0.000267305
0.000284567
0.000268575
0.000221103
0.000177752
0.000153157
0.000144248
0.000138179
0.000132949
0.000129253
0.000125935
0.000122994
0.00012077
0.000119509
0.000118213
0.000117558
0.000117534
0.000117422
0.000117548
0.000117388
0.000117396
0.000117872
0.000119662
0.000121936
0.000127031
0.000133478
0.000139426
0.000146762
0.000156306
0.000180993
0.000246621
0.000285761
0.000281402
0.000243503
0.000194189
0.000162374
0.000147687
0.000141276
0.000135536
0.000131142
0.000127788
0.000124652
0.000121907
0.000120195
0.000118968
0.000117829
0.000117462
0.000117439
0.000117304
0.000117454
0.000117365
0.000117336
0.000117795
0.000119431
0.000121576
0.000126243
0.000132497
0.000138078
0.00014447
0.000153156
0.000169903
0.000216767
0.000281121
0.00028715
0.000266946
0.000216162
0.000173888
0.000153004
0.000144325
0.000138554
0.000133378
0.000129593
0.000126418
0.000123472
0.000121028
0.000119688
0.000118459
0.000117585
0.000117456
0.000117392
0.000117219
0.000117264
0.00011728
0.000117268
0.000117753
0.000119122
0.00012123
0.000125447
0.000131578
0.000136747
0.000142448
0.000151055
0.0001628
0.00019476
0.000268319
0.000294405
0.000282547
0.00023735
0.000190957
0.000160592
0.000147869
0.000141555
0.00013598
0.00013156
0.000128176
0.000125181
0.000122404
0.000120378
0.000119218
0.000118094
0.000117533
0.000117553
0.000117473
0.000117291
0.00011715
0.000117136
0.000117195
0.000117705
0.000118731
0.000120816
0.000124651
0.000130663
0.000135515
0.00014083
0.000148757
0.000158303
0.000180371
0.000241647
0.00029242
0.000292345
0.000263448
0.00020972
0.000171741
0.00015264
0.000144673
0.000138937
0.000133904
0.000129973
0.000126888
0.000124044
0.000121431
0.000119872
0.000118831
0.000117969
0.00011764
0.000117753
0.000117601
0.00011738
0.00011716
0.000117096
0.000117128
0.000117635
0.000118307
0.000120333
0.000123845
0.000129679
0.000134453
0.000139425
0.000146316
0.000155957
0.000170792
0.000211424
0.000285388
0.000300234
0.000282673
0.000233306
0.000186866
0.000159486
0.000148022
0.00014207
0.000136571
0.000132122
0.000128539
0.000125729
0.000122988
0.000120629
0.000119506
0.000118672
0.000118075
0.00011799
0.000118165
0.000118118
0.000117959
0.000117104
0.000117386
0.000117177
0.000117185
0.000117087
0.000117071
0.00011751
0.00011786
0.00011984
0.000123022
0.000128652
0.000133505
0.000138024
0.000144264
0.000154034
0.000164679
0.00019318
0.000267771
0.000304137
0.000297315
0.000255781
0.000204977
0.000170013
0.000152545
0.000145044
0.000139664
0.000134555
0.000130504
0.00012732
0.000124684
0.000122073
0.000120153
0.000119359
0.000118803
0.000118605
0.000118947
0.000119031
0.000118748
0.000117857
0.000118193
0.000117556
0.000117147
0.000117302
0.000117123
0.000117025
0.000117321
0.000117425
0.00011935
0.000122231
0.000127611
0.000132489
0.000136494
0.000142669
0.000151711
0.000161242
0.000180362
0.000235612
0.000300179
0.000304412
0.000282088
0.000227427
0.000183034
0.000159056
0.000148592
0.000142658
0.000137499
0.000132813
0.0001291
0.000126242
0.000123734
0.000121308
0.000119946
0.000119502
0.000119399
0.000119769
0.000120242
0.000119399
0.000120134
0.000118809
0.000120057
0.000119909
0.000117912
0.000118296
0.000117705
0.000117125
0.000117441
0.00011722
0.000116988
0.000117127
0.000117175
0.000118855
0.000121501
0.000126531
0.000131459
0.000135183
0.000141202
0.000149308
0.00015948
0.000172228
0.000207644
0.000289008
0.000313997
0.000298575
0.000250229
0.000201174
0.000168313
0.000152672
0.000145985
0.000140517
0.000135597
0.000131207
0.000127824
0.000125251
0.000122897
0.000120812
0.000120073
0.000120071
0.000120568
0.000121705
0.000121173
0.00012217
0.000121095
0.00011933
0.000121343
0.000120763
0.000117984
0.000118612
0.000117756
0.000117138
0.000117564
0.00011736
0.000116972
0.000116973
0.000116998
0.000118164
0.000120807
0.000125397
0.000130403
0.000134053
0.000139577
0.000147355
0.000157642
0.000167227
0.000192183
0.000264716
0.000312846
0.000311602
0.000277377
0.000220831
0.000180734
0.000159147
0.000149168
0.000143922
0.000138548
0.000133888
0.000129754
0.000126763
0.000124454
0.00012227
0.000120855
0.000120682
0.000121451
0.000122685
0.000123141
0.000123962
0.000122268
0.000123383
0.000122579
0.000120135
0.000122173
0.000121565
0.000118124
0.000119127
0.0001178
0.000117196
0.000117627
0.000117479
0.000117
0.000116923
0.000116891
0.000117503
0.000120082
0.000124239
0.000129258
0.000133016
0.000137719
0.000145748
0.00015543
0.000164937
0.000181379
0.000229792
0.000306979
0.000319372
0.00030017
0.000245934
0.000196622
0.000167392
0.000153694
0.000147077
0.000142028
0.000136699
0.000132324
0.000128591
0.00012597
0.000123884
0.000122243
0.000121581
0.000122301
0.000124176
0.000124748
0.000125396
0.000124396
0.000125325
0.000123821
0.000123578
0.000123458
0.000120831
0.000122816
0.000121965
0.000118371
0.00011976
0.000117934
0.000117287
0.000117694
0.000117528
0.000117129
0.000117025
0.000116929
0.000116975
0.000119414
0.000123185
0.000128016
0.000131972
0.000136144
0.000144289
0.000153225
0.000163506
0.000174771
0.000206614
0.000291728
0.000327319
0.000316319
0.000269436
0.000216342
0.000178967
0.000159621
0.000150654
0.000145412
0.000140192
0.000135095
0.000131072
0.000127721
0.000125504
0.000123823
0.000122841
0.000123675
0.000125197
0.000126077
0.000126673
0.000125092
0.000124042
0.000117643
0.000113464
0.000121638
0.000113241
0.000121591
0.0001211
0.000121981
0.000121653
0.000118722
0.00012013
0.000118149
0.000117342
0.00011788
0.000117604
0.000117419
0.000117444
0.000117183
0.000116671
0.000118914
0.000122233
0.000126787
0.000130928
0.000134831
0.000142463
0.000151443
0.000161638
0.000171135
0.000193045
0.000260499
0.000323233
0.000326487
0.000299539
0.000239069
0.000193215
0.00016777
0.000155146
0.00014903
0.000143836
0.000138577
0.000133875
0.000130162
0.00012738
0.000125481
0.00012429
0.00012474
0.000126936
0.000127284
0.000127915
0.000122613
0.000124994
0.000110345
0.000108138
0.00010727
0.000101764
0.000112059
0.000103559
0.000107882
0.00012023
0.000105109
0.000103865
0.000118941
0.000118733
0.000118327
0.000117335
0.000118007
0.000117676
0.000118028
0.000118264
0.000117828
0.000116851
0.000118707
0.000121502
0.00012556
0.000129951
0.000133694
0.000140432
0.000149922
0.000159417
0.000169501
0.00018419
0.000226447
0.000314647
0.000337359
0.000318485
0.000264948
0.00021198
0.000178012
0.000160901
0.000153078
0.000147885
0.000142474
0.000137308
0.000133015
0.000129777
0.000127486
0.00012606
0.000125939
0.000127456
0.000128466
0.000128466
0.000126048
0.000128349
0.000107336
0.00010807
9.80575e-05
9.44408e-05
9.70787e-05
9.04158e-05
9.81194e-05
9.18448e-05
9.51523e-05
0.000101851
9.33229e-05
9.09599e-05
0.000118875
9.92318e-05
0.000118212
0.000117323
0.000117827
0.000117516
0.000118613
0.000119779
0.000118872
0.000117889
0.000119046
0.000121058
0.000124388
0.000129083
0.000132886
0.000138758
0.000148598
0.000157405
0.000168283
0.000178812
0.00020787
0.000293561
0.00034081
0.000335186
0.000293132
0.000233475
0.000191432
0.000168763
0.000157735
0.0001522
0.000146938
0.00014148
0.000136425
0.000132561
0.000129797
0.000128226
0.000127588
0.00012863
0.000128214
0.000127049
0.000127735
0.000126013
0.000116078
0.000122856
9.7032e-05
0.000101406
8.6624e-05
8.96986e-05
8.24938e-05
8.17692e-05
8.51268e-05
7.7663e-05
8.00102e-05
8.54277e-05
7.65903e-05
7.36521e-05
0.000102575
8.0812e-05
0.000106784
0.000117294
0.000101312
0.000102322
0.000119843
0.000122653
0.000121397
0.000120394
0.000120319
0.000121178
0.000123652
0.000128478
0.000132733
0.000137403
0.000147014
0.000155822
0.00016646
0.00017631
0.000196021
0.000257811
0.000334978
0.000344411
0.000322057
0.000259876
0.000208244
0.000178324
0.00016385
0.000157077
0.000151563
0.000146398
0.000141028
0.000136157
0.000132747
0.000130529
0.00012885
0.000128662
0.000124038
0.000118853
0.000121172
0.000111953
0.000117696
0.000106164
0.000109635
0.000102552
9.42687e-05
0.000102152
8.49356e-05
9.83391e-05
7.92187e-05
8.46057e-05
7.46182e-05
7.85195e-05
7.34995e-05
6.84398e-05
7.28595e-05
7.14708e-05
8.05106e-05
6.47795e-05
8.21162e-05
0.000117282
8.08256e-05
8.67559e-05
0.000121728
0.00012649
0.000126111
0.000124421
0.000122869
0.000122244
0.000123801
0.000128231
0.000132831
0.00013659
0.000145494
0.000154966
0.000164312
0.000175361
0.000188715
0.000226466
0.000322416
0.000357303
0.000340296
0.000287203
0.000229137
0.000191343
0.000170649
0.000163088
0.000156938
0.000151879
0.000146579
0.00014121
0.000136512
0.000133418
0.000128774
0.000116302
0.000107256
9.23278e-05
0.000101902
8.80703e-05
9.11858e-05
8.37533e-05
8.70792e-05
8.28455e-05
8.82286e-05
8.42365e-05
9.08743e-05
8.59351e-05
9.44524e-05
8.8303e-05
8.96965e-05
9.1818e-05
7.6401e-05
9.54336e-05
7.67193e-05
6.65313e-05
7.63238e-05
7.43947e-05
6.34237e-05
6.10234e-05
6.34776e-05
0.000117266
6.47669e-05
7.91943e-05
0.000123628
0.000131543
0.000133129
0.000130539
0.000127295
0.000125159
0.000125188
0.000128629
0.000133422
0.000136806
0.000143881
0.000154425
0.000162338
0.000174271
0.000184614
0.000211292
0.00029467
0.000355395
0.000356336
0.000320422
0.000254629
0.000206577
0.000180389
0.000169628
0.000163397
0.000158317
0.000153448
0.000147903
0.000142472
0.00013667
0.000125071
9.89025e-05
9.65375e-05
8.65091e-05
9.48683e-05
8.73462e-05
0.000105796
9.34078e-05
0.000125364
0.000100581
0.000145195
0.000103262
0.000158366
0.000101248
0.000158969
9.70623e-05
0.000145543
9.63462e-05
0.0001237
9.68468e-05
0.000108199
0.000101623
7.08226e-05
0.000105731
0.000107931
5.51364e-05
6.486e-05
4.81635e-05
4.71926e-05
4.21651e-05
3.69964e-05
0.000126867
0.000142034
0.000146975
0.000144193
0.000138086
0.000132367
0.000129411
0.000130993
0.000134944
0.000137698
0.000143112
0.000153576
0.000161808
0.000171948
0.000182931
0.000201385
0.000257708
0.000348168
0.000367679
0.000346323
0.000282789
0.000226873
0.000191891
0.000177923
0.000170452
0.000165994
0.000162146
0.000157497
0.000150531
0.000138248
0.000114163
9.24549e-05
0.000134793
0.000228315
0.00028638
0.000127011
0.000172558
0.000166474
0.000229294
0.000207816
0.000282897
0.000237482
0.000322288
0.000249306
0.000339896
0.000243311
0.000340598
0.000216911
0.000323885
0.000165914
0.000283939
0.000122718
0.000212297
0.000136306
0.00010846
0.000146359
0.0001519
5.71913e-05
0.00010597
4.36938e-05
1.65051e-05
2.84876e-05
1.74605e-05
0.000134063
0.000161431
0.000172897
0.000171271
0.000163103
0.000151707
0.000141512
0.000137505
0.000137862
0.000139852
0.000143268
0.000153159
0.000161825
0.000169986
0.000182219
0.000195398
0.000230604
0.000331899
0.000379265
0.000365291
0.000315969
0.00024987
0.000207235
0.00018661
0.000178641
0.000174041
0.000172423
0.000167627
0.000158171
0.000134812
0.000104406
0.000111689
0.000198737
0.000341278
0.000417028
0.000437761
0.000502905
0.00029808
0.000370183
0.000360634
0.000435956
0.000402243
0.000475598
0.00042275
0.000497439
0.000427275
0.000502764
0.000416935
0.000495337
0.000389494
0.000476553
0.000338581
0.000440987
0.000251416
0.000381495
0.000280209
0.000153446
0.000299242
0.000308386
9.95499e-05
0.000150198
9.07995e-05
7.08303e-06
5.55181e-05
3.33577e-05
0.000132192
0.000170859
0.000195113
0.000209832
0.000208458
0.000191319
0.000169762
0.000153056
0.000145055
0.000144325
0.000145167
0.000153166
0.000162224
0.000169356
0.000180582
0.000192002
0.000217455
0.00029828
0.00037339
0.000380611
0.000349911
0.000279588
0.000225732
0.000196912
0.000187759
0.000183489
0.00018153
0.000177189
0.000162663
0.000128954
0.000117033
0.000166831
0.000334646
0.000477889
0.000532508
0.000560987
0.0006213
0.000623623
0.000671695
0.00050569
0.000567843
0.00054322
0.0006027
0.000561697
0.000613582
0.000565045
0.000612127
0.000558172
0.000602885
0.000542533
0.000588118
0.000517417
0.000569439
0.000477808
0.000541765
0.00041195
0.000502013
0.000432821
0.000309023
0.000446211
0.000455534
0.000142452
0.000304985
0.000131383
6.84307e-05
0.000122217
0.000143869
0.000143301
0.000193335
0.000222679
0.000240131
0.000247188
0.000225744
0.000193285
0.000166794
0.000154897
0.000150492
0.000154349
0.000164121
0.000169548
0.000179287
0.000190887
0.000209082
0.000263404
0.000364536
0.000395023
0.000374798
0.000310482
0.000249102
0.000209959
0.00019692
0.000186635
0.00017481
0.000175712
0.000169285
0.000143138
0.000180823
0.000295264
0.00050362
0.000715522
0.000662378
0.000728236
0.000713597
0.000747465
0.000724312
0.000748411
0.000651925
0.000691536
0.000654543
0.000685416
0.000646532
0.000668324
0.00063172
0.00064839
0.000616747
0.000631683
0.000600001
0.000614143
0.000578524
0.000594659
0.00055256
0.000576973
0.000515254
0.000557285
0.000525041
0.000462338
0.000532023
0.000540939
0.000297497
0.000468724
0.000294111
0.000291615
0.000332629
0.00029061
0.000140263
0.00019526
0.000240194
0.000267816
0.000280539
0.000262841
0.000222293
0.000183566
0.000163066
0.000159278
0.000166535
0.000170688
0.000178717
0.000190375
0.000204081
0.000238227
0.000342589
0.000403083
0.000394174
0.00034995
0.000275924
0.000226098
0.000203813
0.000181297
0.000168898
0.000175787
0.000191492
0.000218991
0.000318141
0.00051029
0.000669139
0.000776099
0.000806007
0.000815729
0.000775071
0.000794981
0.000767988
0.000784746
0.000742609
0.000753555
0.000707728
0.000726729
0.000683939
0.000694619
0.000658118
0.0006626
0.000636275
0.000636263
0.00061712
0.00061376
0.000598734
0.000595759
0.00058302
0.000582176
0.000569974
0.000574495
0.000557291
0.000565352
0.00055895
0.000549216
0.000559761
0.000565172
0.000476186
0.00056094
0.000429701
0.000168087
0.000371721
0.000444944
0.000132233
0.000185623
0.000246314
0.000290759
0.000309868
0.000301235
0.000245836
0.000193693
0.000172301
0.000171031
0.000173759
0.000178753
0.000189879
0.000201824
0.000225919
0.000307956
0.000395481
0.000412136
0.000382373
0.000309033
0.0002485
0.000207894
0.000179659
0.000165095
0.000173485
0.00021753
0.000308999
0.000505086
0.000710128
0.000782102
0.000804443
0.00080738
0.000808896
0.00080394
0.000797704
0.000804667
0.000759518
0.000763859
0.000707731
0.000711807
0.000701818
0.000705266
0.000664342
0.000664837
0.000634095
0.000629734
0.000608274
0.00060288
0.000590468
0.000587595
0.000581842
0.000582705
0.000574757
0.000586123
0.000569168
0.000587787
0.000561982
0.000575267
0.000563638
0.000568275
0.000562947
0.000562639
0.000564758
0.000563693
0.000575635
0.000566947
0.000518384
0.000273722
0.000535782
0.000366388
0.00013114
0.000167118
0.000244315
0.000311764
0.000339719
0.00032397
0.000257456
0.000202035
0.000181543
0.000179553
0.000181123
0.000190738
0.000201647
0.00021962
0.000276442
0.000384015
0.00042754
0.000408514
0.000345913
0.000275229
0.000217572
0.00018096
0.000163538
0.000168347
0.000235412
0.000373959
0.000671926
0.000860683
0.000864039
0.000823255
0.000782805
0.000761763
0.000760229
0.00076623
0.000765619
0.00076585
0.000764689
0.00071725
0.000721584
0.000667794
0.000674035
0.000665742
0.000666111
0.000626571
0.000624738
0.000598901
0.00059758
0.000585926
0.00058742
0.000589487
0.00060397
0.000608374
0.000637006
0.00061953
0.000665694
0.000613456
0.000670596
0.000585497
0.000644292
0.000611783
0.000577593
0.000598087
0.000560639
0.000558932
0.000552867
0.000573838
0.000598354
0.000602593
0.00057036
0.000572978
0.000562026
0.000565966
0.000553702
0.00055776
0.000552448
0.000545265
0.00042722
0.000440788
0.000535803
0.000538532
0.00038964
0.000315375
0.00025254
0.000128069
0.000158318
0.000244778
0.00032698
0.000366228
0.000339764
0.000259643
0.000206605
0.000190864
0.000186814
0.000193671
0.000202353
0.000216189
0.000252786
0.000357595
0.000432329
0.000428775
0.000389437
0.000308087
0.000232802
0.000186734
0.000162644
0.00016241
0.00024055
0.000406405
0.000792128
0.000962731
0.000912161
0.000823043
0.000780205
0.000758609
0.000752865
0.000753355
0.000766943
0.000737539
0.000744852
0.000726057
0.000731145
0.000682955
0.000696525
0.00065048
0.000672419
0.000625902
0.000634361
0.000602644
0.000612695
0.000596095
0.000613259
0.000621888
0.000643742
0.000667712
0.000699442
0.000715995
0.00074866
0.000694107
0.00072755
0.00075572
0.00070449
0.000678825
0.000695489
0.000665155
0.000651339
0.000718762
0.000658488
0.000628127
0.000667376
0.000688509
0.000634407
0.000562452
0.000546695
0.000552858
0.000593545
0.000626419
0.000630291
0.000585186
0.000539661
0.000547406
0.000537446
0.000530384
0.000522791
0.000156617
0.000263067
0.000270971
0.000516382
0.000519799
0.00036204
0.000262123
0.000126442
0.000152016
0.000261817
0.000336893
0.000386974
0.000347712
0.000257902
0.000212753
0.000196467
0.000199157
0.000205358
0.000215733
0.000239881
0.000329461
0.000424059
0.000449957
0.000421519
0.000345459
0.000255194
0.000195215
0.000166197
0.000159623
0.000240295
0.000409762
0.000860552
0.00104745
0.000949151
0.000830248
0.000787184
0.000828057
0.000785694
0.000829496
0.000812312
0.000848884
0.000758697
0.000783171
0.000714606
0.000735577
0.000700725
0.000732999
0.000695425
0.000740244
0.00063043
0.00066089
0.000638654
0.000671139
0.000670547
0.000705948
0.000729801
0.000764277
0.000738008
0.000738058
0.000723692
0.000670858
0.000694158
0.000652497
0.000696809
0.000680002
0.000677437
0.000664185
0.00066251
0.000638293
0.00063911
0.000644423
0.000638373
0.000639035
0.000629783
0.000631099
0.000612295
0.000573583
0.000540298
0.000558766
0.000603496
0.000595633
0.000575427
0.000590049
0.000526369
0.000514697
0.000525419
0.000504174
0.0004963
3.39518e-05
0.000196314
0.000276439
0.000492997
0.000492254
0.000495175
0.000274422
0.000124654
0.000152722
0.000298916
0.000401324
0.000418594
0.000336454
0.00025529
0.000216325
0.000208094
0.000210282
0.00021658
0.000234107
0.000304334
0.000410932
0.00046434
0.000448098
0.00039292
0.000293678
0.000209287
0.000173786
0.00016156
0.000230874
0.000394885
0.00087317
0.00111701
0.000979923
0.00084314
0.000822486
0.000923645
0.000998857
0.00104191
0.000893129
0.000947143
0.000936221
0.000984379
0.000850653
0.000892179
0.000769914
0.000810495
0.000787997
0.000834992
0.000802332
0.000845655
0.000711523
0.000755544
0.000748074
0.000789378
0.000798648
0.000823409
0.000746162
0.000776317
0.000678173
0.000645528
0.000675956
0.000657841
0.00065718
0.000650931
0.000635283
0.000634038
0.000636201
0.000630631
0.000626056
0.000623419
0.000613897
0.000622284
0.000596713
0.000604229
0.000610953
0.000597643
0.000585652
0.000599664
0.00057668
0.000580981
0.000540798
0.000569142
0.000560286
0.000557287
0.000542236
0.00055129
0.000509421
0.000493647
0.000520431
0.000479189
0.000468108
5.5688e-05
0.000245473
0.000198313
0.000464172
0.000475021
0.000494225
0.00031021
0.000121345
0.000204712
0.000409435
0.000502486
0.000444083
0.000327332
0.000253615
0.000224784
0.000219759
0.000220321
0.000233299
0.00028453
0.000392158
0.000468241
0.000472324
0.000434418
0.000346509
0.000231671
0.000185989
0.00016682
0.000216008
0.000341497
0.000847229
0.00117579
0.00101775
0.000868459
0.000848173
0.000932837
0.00106233
0.00108563
0.00109321
0.00102843
0.00106331
0.00103279
0.00106187
0.000961858
0.000998416
0.000883524
0.000924652
0.000884132
0.000919018
0.000867453
0.0008927
0.000818423
0.000844361
0.000839434
0.000846911
0.000834387
0.000849248
0.000693461
0.000660082
0.000729686
0.000630012
0.000636752
0.000643441
0.00065758
0.000615648
0.000612012
0.000608206
0.000611708
0.000608334
0.00060221
0.000599208
0.000590774
0.000584703
0.000589905
0.000577817
0.000581406
0.000576914
0.000566194
0.00056415
0.000574461
0.00055067
0.000546334
0.000546263
0.000542719
0.000531868
0.000539891
0.000531329
0.000525641
0.000498778
0.000477036
0.0005207
0.000457274
0.000442874
6.40971e-05
0.000282477
0.000238993
0.000442749
0.000469582
0.000499024
0.000364195
0.000111801
0.000323429
0.000551065
0.000587314
0.000431933
0.000309955
0.000255109
0.000238949
0.000229373
0.000235585
0.000270701
0.000375461
0.000465345
0.000497614
0.000468368
0.000395128
0.000265867
0.000202215
0.000174114
0.000186735
0.000288331
0.000737149
0.0012098
0.00107565
0.000884091
0.000848973
0.000922128
0.00101636
0.0009923
0.000869011
0.00110134
0.00107329
0.00108991
0.00110439
0.00106646
0.00108006
0.00101159
0.00104108
0.000950219
0.000981399
0.000917683
0.000941688
0.000862241
0.000865975
0.000851553
0.000856574
0.000837361
0.000818193
0.000797434
0.000769373
0.000676096
0.000667217
0.000680636
0.000647053
0.000615076
0.00062538
0.000634049
0.000643718
0.000596253
0.000596527
0.000600715
0.000608524
0.000586202
0.000585435
0.000588989
0.000573132
0.000573136
0.000576283
0.000577844
0.000574356
0.000564528
0.000554104
0.000559756
0.000566694
0.000546828
0.000523431
0.000539307
0.000518941
0.000523779
0.000540401
0.000533849
0.00051818
0.000493084
0.00046521
0.000522601
0.000440546
0.000425936
7.15796e-05
0.000313802
0.000254383
0.000433511
0.000468919
0.000451267
0.000370941
0.000110459
0.000481344
0.000692719
0.000632888
0.000408556
0.000294126
0.000260003
0.000248114
0.000243593
0.000263651
0.00036221
0.000460014
0.000513005
0.000498335
0.000447906
0.000313127
0.000222377
0.000184946
0.000182152
0.000251075
0.000568193
0.00120756
0.0011595
0.000911507
0.000847517
0.000882132
0.000808459
0.000488397
0.000731415
0.000524179
0.00100034
0.000884562
0.00108063
0.00106076
0.00101785
0.00100172
0.00100438
0.00101668
0.00096545
0.000986753
0.000872254
0.000881189
0.000756036
0.000748141
0.000795483
0.000772929
0.000722587
0.000689246
0.000685786
0.000662656
0.00062189
0.000643325
0.000648616
0.000662449
0.000612851
0.000630924
0.000618061
0.000627558
0.000634101
0.000633308
0.000595448
0.000605274
0.000617005
0.000627246
0.000580002
0.000589285
0.000604385
0.000571959
0.000575681
0.000584776
0.000593246
0.000581868
0.00056729
0.000556455
0.000567036
0.000572568
0.000553741
0.000511292
0.000514808
0.000501291
0.000526202
0.000547543
0.000539728
0.000518443
0.000490198
0.000457245
0.000516368
0.000429713
0.000417168
6.94378e-05
0.00031758
0.000202106
0.000430408
0.000466094
0.000407414
0.000365858
0.000149885
0.000657754
0.000812637
0.000626764
0.000363138
0.000284853
0.000266175
0.000259477
0.000268066
0.000355407
0.000456793
0.000521972
0.000531887
0.000491588
0.00036998
0.000250473
0.000197734
0.000185349
0.000239801
0.00042708
0.00116857
0.00125155
0.000956739
0.000885164
0.000881386
0.000656411
0.000395516
0.00027252
0.0002474
0.000409867
0.000315312
0.000729807
0.000551126
0.000956385
0.000869566
0.0008625
0.000800859
0.000903113
0.000892673
0.000891513
0.000901113
0.000746186
0.000746945
0.000627291
0.000624872
0.000662947
0.000639272
0.000554487
0.000531391
0.000590456
0.000570437
0.000534846
0.00055244
0.00062635
0.000622654
0.000521167
0.000542967
0.000633021
0.000630613
0.000620548
0.000604559
0.000622373
0.000638411
0.000647127
0.000643751
0.000598638
0.000620198
0.000643992
0.00057774
0.000586052
0.000611326
0.00061709
0.000598797
0.000573183
0.0005647
0.000569626
0.000578255
0.000558448
0.000501096
0.000494688
0.000482813
0.000528518
0.000549901
0.000535553
0.000509039
0.000487859
0.000451532
0.000499118
0.000422758
0.000412268
4.03837e-05
0.000301874
0.000122121
0.000427013
0.000436257
0.000387149
0.000368226
0.000286797
0.000843818
0.000861221
0.000595073
0.0003301
0.000280425
0.00026865
0.000282483
0.000361664
0.000459062
0.000529973
0.000559745
0.000531222
0.000428684
0.000292052
0.000216146
0.000193298
0.000244004
0.00032994
0.000987158
0.00132208
0.00101128
0.00092647
0.000920291
0.000663994
0.000375491
0.000235306
0.000196891
0.000190251
0.000250391
0.000211473
0.000416378
0.000317575
0.00069343
0.00054812
0.000625496
0.000528215
0.000725428
0.000692079
0.000746453
0.000739482
0.000627169
0.000632568
0.000504223
0.000510091
0.000514953
0.000505189
0.0004596
0.000451574
0.000447628
0.000447798
0.000503238
0.000488436
0.00046614
0.000476098
0.000590617
0.000568444
0.000443791
0.000459215
0.000627984
0.00060136
0.000565406
0.000532592
0.000661207
0.000662314
0.000621876
0.000580496
0.000635016
0.000657768
0.000651075
0.000584156
0.00059436
0.000638743
0.000622963
0.000608053
0.000571271
0.000563134
0.000559427
0.0005729
0.000549655
0.000483658
0.000476712
0.000465679
0.000514625
0.000531403
0.000506518
0.000488915
0.000484055
0.000446313
0.00048984
0.000416979
0.000407542
5.61725e-05
0.000274604
9.44343e-05