/*--------------------------------*- C++ -*----------------------------------*\
  =========                 |
  \\      /  F ield         | OpenFOAM: The Open Source CFD Toolbox
   \\    /   O peration     | Website:  https://openfoam.org
    \\  /    A nd           | Version:  dev
     \\/     M anipulation  |
\*---------------------------------------------------------------------------*/
FoamFile
{
    version     2.0;
    format      ascii;
    class       volScalarField;
    location    "2500";
    object      CO2;
}
// * * * * * * * * * * * * * * * * * * * * * * * * * * * * * * * * * * * * * //

dimensions      [0 0 0 0 0 0 0];

internalField   nonuniform List<scalar> 
9978
(
3.48835e-30
1.38881e-29
7.87214e-30
2.38767e-29
3.18292e-29
9.11983e-30
4.20128e-29
6.45668e-29
3.89349e-29
2.88841e-30
6.35441e-29
1.16575e-28
9.19701e-29
3.24607e-29
3.15317e-30
9.34178e-29
1.77431e-28
1.94707e-28
8.60787e-29
2.18032e-29
1.34933e-30
1.46238e-28
2.88569e-28
3.73705e-28
2.02777e-28
7.43111e-29
7.8861e-30
5.22636e-31
1.11738e-28
6.95866e-28
7.3514e-28
4.42207e-28
1.84446e-28
5.15157e-29
4.58096e-30
1.74857e-31
2.3659e-28
1.095e-27
1.44789e-27
8.12786e-28
3.87855e-28
1.20334e-28
2.49051e-29
2.33168e-30
3.95294e-32
5.10842e-28
3.05418e-27
3.18144e-27
1.97816e-27
9.40522e-28
2.88141e-28
7.66527e-29
1.29743e-29
8.94967e-31
2.4088e-32
1.15833e-27
6.07324e-27
5.84077e-27
4.11074e-27
2.09309e-27
8.82129e-28
2.2478e-28
4.62255e-29
3.53654e-30
2.49438e-31
4.63267e-33
3.71391e-27
1.27694e-26
1.14284e-26
1.06978e-26
5.23957e-27
1.91975e-27
5.519e-28
1.50826e-28
2.03743e-29
1.31096e-30
5.32562e-32
7.53726e-34
4.72324e-27
2.12015e-26
2.47309e-26
2.34233e-26
1.31788e-26
4.63214e-27
1.76875e-27
3.209e-28
8.88669e-29
5.19842e-30
4.64834e-31
1.97761e-32
6.82248e-34
5.62719e-27
1.97807e-26
6.1417e-26
5.81605e-26
3.15163e-26
1.32965e-26
4.38547e-27
1.10169e-27
2.63244e-28
3.52252e-29
2.07355e-30
1.14429e-31
8.31751e-33
4.83675e-34
3.90825e-27
2.38652e-26
7.68497e-26
1.10071e-25
7.62886e-26
3.19837e-26
9.49022e-27
3.52398e-27
7.86741e-28
1.42732e-28
1.82945e-29
1.05804e-30
6.98402e-32
6.9876e-33
2.59545e-33
5.00033e-27
4.80537e-26
1.17917e-25
2.24982e-25
1.84658e-25
8.28478e-26
3.06039e-26
8.76249e-27
2.14253e-27
3.63624e-28
7.35714e-29
6.21204e-30
5.1621e-31
5.93855e-32
8.11539e-32
2.47424e-32
1.91818e-26
7.57211e-26
2.60908e-25
3.84669e-25
3.39802e-25
2.01779e-25
6.30269e-26
2.20526e-26
6.9301e-27
1.11245e-27
2.08359e-28
3.55633e-29
3.21476e-30
5.78588e-31
6.0073e-31
3.66258e-31
1.46839e-31
7.88556e-27
1.34537e-25
3.51294e-25
6.12339e-25
5.82113e-25
4.33964e-25
1.68489e-25
5.49858e-26
1.58369e-26
3.43817e-27
5.16176e-28
9.63734e-29
1.75026e-29
3.20648e-30
2.88206e-30
4.83692e-30
4.16138e-30
8.29138e-31
1.37269e-26
1.1591e-25
4.1691e-25
9.49062e-25
9.12779e-25
8.02656e-25
4.89536e-25
1.53937e-25
5.26811e-26
1.14019e-26
1.87742e-27
3.35647e-28
6.75098e-29
1.95407e-29
1.60694e-29
2.10472e-29
2.80092e-29
2.29675e-29
1.23796e-29
2.27612e-26
1.63245e-25
7.12734e-25
1.07515e-24
2.05367e-24
1.71637e-24
9.47641e-25
4.40636e-25
1.20742e-25
4.46867e-26
9.82687e-27
1.07831e-27
2.58488e-28
8.4454e-29
1.11166e-28
1.00504e-28
1.68305e-28
1.1274e-28
1.17925e-28
5.57391e-29
1.58589e-26
1.46753e-25
9.6215e-25
1.50842e-24
3.26778e-24
2.71238e-24
1.95178e-24
1.00269e-24
3.70583e-25
1.13799e-25
2.61538e-26
5.91661e-27
9.18345e-28
3.54897e-28
3.34705e-28
6.81863e-28
8.26099e-28
7.48496e-28
1.09488e-27
8.68167e-28
1.24281e-28
2.09586e-26
1.59824e-25
1.00297e-24
2.80701e-24
4.58866e-24
5.23281e-24
4.51888e-24
2.2298e-24
8.68264e-25
2.92775e-25
6.8853e-26
1.84869e-26
3.01627e-27
1.06745e-27
1.91428e-27
3.19302e-27
5.61037e-27
6.62694e-27
8.13162e-27
7.3982e-27
3.48989e-27
6.33814e-28
1.99008e-26
2.27633e-25
7.99333e-25
3.14854e-24
6.61269e-24
9.11249e-24
8.19622e-24
5.07107e-24
2.17427e-24
8.01537e-25
2.60176e-25
5.47527e-26
1.11507e-26
3.32843e-27
4.97932e-27
1.44395e-26
2.34763e-26
3.825e-26
5.04003e-26
4.87337e-26
1.57383e-26
1.48533e-26
6.07001e-27
5.27734e-26
2.2935e-25
1.08416e-24
4.39403e-24
9.84592e-24
1.21574e-23
1.29172e-23
9.94432e-24
5.21275e-24
1.89832e-24
6.61523e-25
1.71034e-25
4.37444e-26
1.3475e-26
1.47816e-26
3.35789e-26
8.9252e-26
1.78573e-25
2.94113e-25
2.68718e-25
1.67778e-25
1.00677e-25
6.68983e-26
3.18144e-26
2.88527e-25
5.53137e-25
1.34812e-24
3.20504e-24
1.18852e-23
1.71224e-23
2.63271e-23
1.79696e-23
1.06879e-23
4.78296e-24
1.34858e-24
5.44977e-25
1.40077e-25
5.2891e-26
5.31531e-26
1.17294e-25
3.25189e-25
5.55137e-25
1.23239e-24
1.64986e-24
1.53967e-24
8.8931e-25
3.69465e-25
5.36949e-25
1.68774e-25
1.53406e-24
2.10541e-24
1.98835e-24
5.2123e-24
1.18984e-23
2.31946e-23
3.86478e-23
3.22306e-23
2.23979e-23
1.13916e-23
3.81105e-24
1.07576e-24
3.59043e-25
1.67911e-25
1.72066e-25
2.48754e-25
8.91016e-25
2.61733e-24
4.93827e-24
6.90744e-24
8.25875e-24
6.9677e-24
4.0735e-24
3.73309e-24
4.14836e-24
4.37383e-24
3.02779e-24
1.00257e-23
8.49289e-24
1.17018e-23
1.27708e-23
3.93266e-23
4.88284e-23
5.35927e-23
4.52571e-23
2.44629e-23
1.23849e-23
2.83632e-24
1.14684e-24
4.98263e-25
4.13333e-25
6.48089e-25
2.15858e-24
7.38477e-24
1.32964e-23
2.55784e-23
3.80116e-23
4.00082e-23
3.31384e-23
4.9384e-23
4.10466e-23
5.05155e-23
1.64003e-23
1.69336e-23
5.16767e-23
4.80484e-23
3.29491e-23
3.31112e-23
5.16273e-23
8.80326e-23
9.00276e-23
9.9989e-23
5.08932e-23
3.69674e-23
1.14164e-23
4.74984e-24
1.83202e-24
1.71735e-24
2.02096e-24
4.93642e-24
1.34517e-23
3.53306e-23
6.35337e-23
1.46687e-22
1.8025e-22
2.19584e-22
2.28644e-22
2.86399e-22
1.97249e-22
3.72207e-22
1.49065e-22
7.53668e-23
3.22944e-22
3.34096e-22
2.27103e-22
1.01059e-22
1.15199e-22
1.18546e-22
2.44758e-22
2.33933e-22
1.56434e-22
1.27319e-22
6.64586e-23
2.04947e-23
5.86159e-24
6.30047e-24
8.88954e-24
1.34233e-23
2.58945e-23
9.74809e-23
1.41374e-22
4.60989e-22
7.49527e-22
9.74779e-22
1.26947e-21
2.00463e-21
1.30545e-21
1.78321e-21
2.43581e-21
8.07755e-22
2.2008e-22
7.28529e-22
1.17453e-21
8.89345e-22
4.47974e-22
4.20507e-22
4.21201e-22
5.15541e-22
9.06e-22
6.54134e-22
3.35894e-22
2.88825e-22
8.1148e-23
3.41285e-23
1.81394e-23
3.19244e-23
5.97361e-23
8.74456e-23
2.25741e-22
4.19034e-22
1.12757e-21
2.26078e-21
3.7721e-21
4.88861e-21
9.7597e-21
1.50672e-20
1.35863e-20
1.61441e-20
1.42132e-20
5.43351e-21
6.60866e-22
2.31595e-21
3.82371e-21
2.24244e-21
1.90249e-21
1.16323e-21
1.47379e-21
1.96499e-21
2.7221e-21
3.42191e-21
1.51641e-21
1.16223e-21
4.18502e-22
2.38395e-22
7.84205e-23
1.08159e-22
1.42438e-22
3.14062e-22
4.90033e-22
1.46973e-21
2.99116e-21
6.2871e-21
1.21606e-20
1.8271e-20
3.35119e-20
7.08051e-20
1.32937e-19
1.72339e-19
1.95617e-19
1.25297e-19
5.55425e-20
1.29325e-21
5.32176e-21
8.61783e-21
7.27202e-21
4.76449e-21
3.797e-21
4.76028e-21
5.25828e-21
7.1002e-21
1.16934e-20
8.5509e-21
5.98016e-21
2.33384e-21
1.2639e-21
4.6051e-22
3.58026e-22
5.11585e-22
9.06603e-22
1.40052e-21
3.0193e-21
7.6476e-21
1.814e-20
4.01349e-20
6.37657e-20
1.81633e-19
3.46705e-19
7.37763e-19
1.39233e-18
1.56343e-18
1.52666e-18
9.1593e-19
1.21683e-19
8.24605e-22
1.0966e-20
1.59535e-20
1.60672e-20
1.897e-20
1.49098e-20
1.30425e-20
2.08439e-20
2.65544e-20
3.14483e-20
3.83253e-20
2.07194e-20
1.71513e-20
6.46016e-21
3.38912e-21
9.87375e-22
9.98222e-22
2.2889e-21
4.6774e-21
9.60892e-21
2.28292e-20
5.77187e-20
1.03648e-19
2.18825e-19
6.67472e-19
2.10805e-18
4.86158e-18
1.38722e-17
1.28658e-17
1.16166e-17
1.26138e-17
5.0501e-18
1.03032e-18
3.11727e-21
1.71519e-20
3.94446e-20
4.39778e-20
4.2205e-20
3.97901e-20
5.21623e-20
7.7025e-20
9.4802e-20
1.20199e-19
1.18587e-19
7.55776e-20
6.19718e-20
3.47683e-20
1.62712e-20
7.06377e-21
4.24164e-21
5.53487e-21
7.69375e-21
2.50706e-20
4.60883e-20
1.24725e-19
3.00748e-19
6.59995e-19
1.99071e-18
1.00852e-17
3.11894e-17
8.76881e-17
1.557e-16
9.52683e-17
1.1474e-16
5.25076e-17
1.08922e-17
2.75372e-18
3.3801e-21
2.1168e-20
5.85137e-20
1.263e-19
1.06017e-19
1.54731e-19
1.40758e-19
2.2063e-19
2.22071e-19
2.97942e-19
3.19897e-19
2.59729e-19
1.85722e-19
1.41889e-19
7.63573e-20
2.72541e-20
1.28605e-20
1.18309e-20
1.84322e-20
4.28677e-20
1.48095e-19
3.16246e-19
8.05264e-19
2.26718e-18
1.09911e-17
3.95493e-17
1.49221e-16
4.55902e-16
1.08711e-15
1.23131e-15
1.11293e-15
8.05431e-16
1.39882e-16
3.63007e-17
2.51951e-16
8.00749e-18
1.35709e-16
6.95168e-17
3.18774e-20
7.08228e-20
1.16392e-19
2.70194e-19
3.12652e-19
4.13348e-19
4.62218e-19
6.18984e-19
8.26112e-19
1.0921e-18
1.12757e-18
8.14734e-19
9.46105e-19
4.94725e-19
2.41628e-19
1.26521e-19
4.66019e-20
4.10367e-20
5.00356e-20
1.42156e-19
2.50501e-19
7.2925e-19
1.61191e-18
5.41112e-18
3.36655e-17
2.10518e-16
7.49744e-16
2.87978e-15
6.00392e-15
1.19306e-14
1.40375e-14
1.04394e-14
0
1.03694e-15
6.64921e-15
8.27991e-16
1.90378e-17
6.06917e-16
4.84557e-16
2.47789e-19
3.33803e-19
2.75736e-19
4.11217e-19
8.12999e-19
9.52791e-19
1.17005e-18
1.52653e-18
2.46297e-18
2.29011e-18
2.60018e-18
3.49706e-18
2.78929e-18
1.70076e-18
8.58472e-19
4.83752e-19
2.4905e-19
1.30937e-19
1.51474e-19
2.22722e-19
5.92865e-19
1.12041e-18
4.08165e-18
1.40246e-17
8.43424e-17
6.23371e-16
3.80661e-15
1.38999e-14
4.93346e-14
9.38045e-14
1.57698e-13
1.61583e-13
3.2531e-14
1.47533e-13
4.22639e-14
1.75476e-13
2.64913e-13
6.25375e-15
4.65002e-14
5.60414e-15
9.60518e-17
3.93672e-15
2.21146e-15
4.66216e-18
3.81232e-18
1.66546e-18
9.86038e-19
1.07536e-18
1.69123e-18
2.43433e-18
3.02287e-18
5.52556e-18
7.90513e-18
7.86169e-18
6.7685e-18
8.226e-18
5.5559e-18
2.82461e-18
1.99395e-18
8.63406e-19
4.08641e-19
4.03448e-19
5.87254e-19
1.05748e-18
2.75145e-18
8.67885e-18
4.62911e-17
3.05349e-16
1.90736e-15
1.32083e-14
9.39912e-14
2.61123e-13
7.77725e-13
1.39113e-12
2.02899e-12
5.90383e-13
2.73423e-12
8.81721e-13
3.14334e-13
1.36392e-12
1.88905e-12
4.50841e-14
3.45477e-13
3.80841e-14
5.9121e-16
2.72207e-14
1.45457e-14
3.72672e-17
3.76946e-17
1.32379e-17
5.1369e-18
3.67562e-18
4.73427e-18
5.85705e-18
8.06003e-18
9.67438e-18
1.90449e-17
2.47401e-17
2.08816e-17
2.11808e-17
1.47719e-17
9.97266e-18
6.5135e-18
3.20434e-18
1.3845e-18
8.50587e-19
1.27964e-18
2.34506e-18
5.10065e-18
1.8677e-17
9.09012e-17
8.81014e-16
7.71743e-15
5.1456e-14
3.20012e-13
1.96427e-12
4.26626e-12
1.13041e-11
1.87221e-11
9.50072e-12
3.9395e-11
3.90339e-12
1.65793e-11
6.3021e-12
2.33141e-12
9.89212e-12
1.37574e-11
3.25144e-13
2.49712e-12
2.69015e-13
3.58445e-15
1.82851e-13
9.3368e-14
4.05794e-16
3.59352e-16
1.86932e-16
6.80615e-17
1.57698e-17
1.02362e-17
1.02235e-17
2.04501e-17
2.71245e-17
4.2716e-17
4.90617e-17
4.33289e-17
4.9358e-17
4.32079e-17
2.85767e-17
1.87437e-17
8.49738e-18
3.75007e-18
2.80133e-18
2.72793e-18
4.08724e-18
9.36327e-18
3.52862e-17
2.02168e-16
1.65342e-15
1.75104e-14
1.90507e-13
1.45859e-12
7.03911e-12
3.11946e-11
6.71677e-11
1.4897e-10
1.13843e-10
3.81906e-10
5.8568e-11
2.19944e-10
2.62371e-11
1.01866e-10
4.47306e-11
1.67349e-11
7.03541e-11
9.71156e-11
2.31567e-12
1.7684e-11
1.87162e-12
2.21126e-14
1.21039e-12
5.82261e-13
3.59732e-15
4.1982e-15
2.00836e-15
7.34417e-16
2.17327e-16
5.23832e-17
2.51313e-17
4.38518e-17
5.88064e-17
1.25168e-16
1.13118e-16
1.08121e-16
1.43026e-16
8.47966e-17
7.22901e-17
4.84904e-17
3.47371e-17
1.73325e-17
7.80205e-18
6.2933e-18
5.79472e-18
2.19975e-17
8.24517e-17
4.56492e-16
4.3293e-15
4.14471e-14
4.38142e-13
4.46995e-12
3.5808e-11
1.15329e-10
4.89755e-10
9.28138e-10
1.04151e-09
3.08062e-09
6.56226e-10
2.07169e-09
3.53347e-10
1.22482e-09
1.83437e-10
6.94867e-10
3.13495e-10
1.17864e-10
4.92484e-10
6.83312e-10
1.63007e-11
1.23131e-10
1.26738e-11
1.29333e-13
7.82208e-12
3.51575e-12
3.77727e-14
6.03494e-14
2.97858e-14
9.41875e-15
2.26832e-15
5.48076e-16
1.48752e-16
9.27621e-17
1.46621e-16
2.64806e-16
3.596e-16
3.48147e-16
2.86861e-16
2.35478e-16
1.98798e-16
1.02747e-16
1.07533e-16
4.99221e-17
2.2573e-17
1.11029e-17
1.56494e-17
3.30421e-17
1.4635e-16
1.26866e-15
1.17874e-14
1.19382e-13
1.14998e-12
1.04386e-11
9.13691e-11
6.31829e-10
1.86145e-09
6.44896e-09
7.83736e-09
2.02278e-08
5.36921e-09
1.61323e-08
3.74934e-09
1.19499e-08
2.45363e-09
8.27768e-09
1.28824e-09
4.92967e-09
2.23145e-09
8.34931e-10
3.5377e-09
5.00714e-09
1.12535e-10
8.60279e-10
8.42482e-11
7.39094e-13
4.92367e-11
2.07089e-11
4.0966e-13
7.57182e-13
4.50112e-13
1.48647e-13
3.66773e-14
6.87668e-15
1.19638e-15
3.55059e-16
3.09782e-16
4.70733e-16
6.42202e-16
9.65743e-16
6.99464e-16
6.6758e-16
4.73907e-16
3.39789e-16
2.8769e-16
1.41686e-16
7.27601e-17
3.41038e-17
2.62734e-17
6.18081e-17
3.66798e-16
3.47215e-15
3.54715e-14
3.71143e-13
3.50464e-12
3.03604e-11
2.3648e-10
1.46269e-09
1.08089e-08
2.49543e-08
4.58749e-08
1.02982e-07
3.98781e-08
1.0557e-07
3.37941e-08
9.79661e-08
2.62792e-08
8.18491e-08
1.76489e-08
6.045e-08
9.26002e-09
3.61677e-08
1.64844e-08
6.07602e-09
2.65798e-08
3.78853e-08
7.73533e-10
6.20515e-09
5.49796e-10
4.19224e-12
3.02397e-10
1.22387e-10
3.73466e-12
7.97535e-12
5.77199e-12
2.25e-12
5.66867e-13
1.15292e-13
1.8e-14
3.0009e-15
8.72998e-16
9.46155e-16
1.55942e-15
2.02181e-15
2.01146e-15
1.71506e-15
1.21548e-15
8.87196e-16
6.28565e-16
4.67648e-16
2.39021e-16
9.67799e-17
5.98117e-17
1.12317e-16
7.52187e-16
9.07715e-15
1.12018e-13
1.205e-12
1.13634e-11
9.62758e-11
7.41401e-10
4.12279e-09
2.27367e-08
1.47823e-07
2.1072e-07
4.14312e-07
2.28019e-07
5.13661e-07
2.54826e-07
6.32905e-07
2.3978e-07
6.70496e-07
1.96364e-07
6.1585e-07
1.33172e-07
4.65715e-07
6.9538e-08
2.79122e-07
1.2676e-07
4.52805e-08
2.07602e-07
2.90675e-07
5.36079e-09
4.60235e-08
3.58148e-09
2.51644e-11
1.88316e-09
7.46803e-10
2.81326e-11
6.88189e-11
5.99108e-11
2.98334e-11
8.46927e-12
1.74641e-12
3.13513e-13
4.3076e-14
6.37832e-15
3.03731e-15
4.07114e-15
5.89493e-15
6.43686e-15
5.66001e-15
4.65734e-15
2.63276e-15
1.63066e-15
1.61808e-15
6.49152e-16
3.51332e-16
1.30303e-16
1.94816e-16
1.53586e-15
2.40121e-14
3.54344e-13
4.07922e-12
3.87263e-11
3.21582e-10
2.39368e-09
1.39581e-08
7.40508e-08
2.61774e-07
7.81077e-07
1.48411e-06
1.01458e-06
2.15584e-06
1.42721e-06
3.17752e-06
1.73577e-06
4.22472e-06
1.76383e-06
4.77949e-06
1.50914e-06
4.55679e-06
1.04971e-06
3.56365e-06
5.44536e-07
2.19654e-06
1.00142e-06
3.41423e-07
1.59767e-06
2.16235e-06
3.78354e-08
3.43278e-07
2.41012e-08
1.59192e-10
1.21117e-08
4.53735e-09
1.70496e-10
4.74431e-10
4.92573e-10
3.09842e-10
1.1511e-10
2.62854e-11
4.8309e-12
7.44906e-13
9.8277e-14
1.69466e-14
1.30791e-14
1.8527e-14
2.18944e-14
2.16816e-14
1.69466e-14
1.03364e-14
6.20357e-15
3.88567e-15
2.70544e-15
9.68817e-16
3.49087e-16
3.27871e-16
2.57071e-15
6.21567e-14
1.04378e-12
1.39055e-11
1.39197e-10
1.12827e-09
8.1183e-09
5.20911e-08
2.61921e-07
1.37259e-06
2.8809e-06
0
3.98726e-06
8.11785e-06
6.84119e-06
1.5335e-05
1.01058e-05
2.35438e-05
1.24169e-05
3.13538e-05
1.26886e-05
3.46892e-05
1.10175e-05
3.23842e-05
7.87104e-06
2.52449e-05
4.21956e-06
1.58733e-05
7.46252e-06
2.49262e-06
1.11949e-05
1.45012e-05
2.70659e-07
2.44981e-06
1.65499e-07
9.20322e-10
7.84774e-08
2.6906e-08
8.0343e-10
2.53452e-09
3.12508e-09
2.45546e-09
1.22559e-09
3.5602e-10
7.00356e-11
1.25137e-11
1.79542e-12
1.98567e-13
5.59447e-14
6.00038e-14
7.46802e-14
7.9199e-14
6.61327e-14
4.33054e-14
2.36494e-14
1.37222e-14
1.59087e-14
5.07179e-15
1.30149e-15
5.77617e-16
3.73403e-15
1.15511e-13
2.97333e-12
4.45928e-11
5.0914e-10
4.26507e-09
2.8833e-08
1.78234e-07
8.78546e-07
5.07579e-06
3.5554e-05
1.52967e-05
3.53544e-05
2.92371e-05
6.01917e-05
5.23362e-05
0.000105944
7.52542e-05
0.000158621
8.75752e-05
0.000200088
8.72953e-05
0.000216127
7.52837e-05
0.000201657
5.35601e-05
0.000157835
2.91917e-05
0.000100971
4.68167e-05
1.64355e-05
6.52275e-05
8.04691e-05
1.90864e-06
1.59593e-05
1.16804e-06
3.83225e-09
5.22574e-07
1.67394e-07
2.7608e-09
9.93581e-09
1.46459e-08
1.43523e-08
9.46175e-09
3.94805e-09
9.41991e-10
1.71285e-10
3.04042e-11
3.37241e-12
4.0789e-13
2.20541e-13
2.53049e-13
2.78277e-13
2.53029e-13
1.80993e-13
1.01369e-13
5.13147e-14
4.56083e-14
2.72397e-14
5.66177e-15
1.65916e-15
4.35479e-15
1.51316e-13
6.21415e-12
1.3594e-10
1.74594e-09
1.62454e-08
1.12256e-07
6.26463e-07
2.91367e-06
1.56739e-05
8.83291e-05
0.000244345
0.000335321
9.94668e-05
0.000165519
0.000180048
0.000285275
0.0002761
0.000422911
0.000363895
0.000559597
0.000422511
0.000664579
0.000440775
0.000729418
0.000401868
0.000738084
0.000288101
0.000657861
0.000162818
0.000458283
0.000231561
8.89105e-05
0.000297992
0.000348788
1.29598e-05
8.68794e-05
8.56745e-06
2.38246e-08
4.06371e-06
1.51554e-06
5.84459e-09
2.59039e-08
4.68006e-08
5.81732e-08
5.08842e-08
2.9711e-08
1.05499e-08
2.25879e-09
4.56018e-10
5.83107e-11
4.96701e-12
1.06762e-12
8.77861e-13
9.5182e-13
9.18772e-13
7.17776e-13
4.34484e-13
2.18453e-13
1.16912e-13
1.51638e-13
3.17263e-14
6.39226e-15
6.04619e-15
1.60244e-13
8.3253e-12
3.16982e-10
5.58733e-09
5.84606e-08
4.24891e-07
2.26055e-06
1.02784e-05
4.67192e-05
0.000189449
0.000435487
0.000552568
0.00066713
0.000804546
0.000404886
0.000536726
0.000587641
0.000764012
0.000769464
0.00098214
0.000924401
0.00118807
0.00104169
0.00135947
0.00110627
0.00148883
0.00109031
0.00155183
0.000950397
0.00149421
0.000649804
0.0012635
0.000831418
0.000377474
0.00100164
0.0011206
7.45374e-05
0.000375254
5.4577e-05
5.17105e-07
3.22249e-05
1.81142e-05
5.00217e-09
3.97152e-08
9.06795e-08
1.34035e-07
1.69221e-07
1.4552e-07
7.81005e-08
2.46375e-08
5.24927e-09
8.83798e-10
7.42068e-11
8.32063e-12
3.4416e-12
3.24766e-12
3.19637e-12
2.68643e-12
1.78447e-12
9.41097e-13
4.37217e-13
4.10766e-13
1.75656e-13
3.29097e-14
1.26251e-14
1.48073e-13
8.53469e-12
4.41109e-10
1.43383e-08
1.95897e-07
1.53558e-06
8.51261e-06
3.66956e-05
0.000127844
0.000393236
0.000704671
0.000751192
0.000935043
0.00108661
0.00126812
0.00142874
0.000937234
0.00110617
0.00119932
0.00141638
0.00145119
0.00170876
0.0016799
0.00199355
0.00187465
0.00224932
0.00201284
0.00246571
0.00205105
0.0026051
0.00193057
0.00259179
0.00159153
0.0023674
0.00187915
0.00119194
0.00214159
0.00232743
0.000340802
0.00119389
0.000279588
2.52602e-05
0.000217797
0.000222774
1.91869e-08
1.13231e-07
1.99962e-07
3.06914e-07
3.52433e-07
3.23471e-07
1.76002e-07
5.58288e-08
1.10251e-08
1.06449e-09
9.34334e-11
1.79442e-11
1.16688e-11
1.09148e-11
9.57629e-12
6.93384e-12
3.95517e-12
1.92935e-12
9.52891e-13
8.69342e-13
1.81598e-13
4.49399e-14
1.30303e-13
7.32186e-12
4.66878e-10
2.21042e-08
5.63954e-07
5.36933e-06
2.9299e-05
0.000116351
0.000322069
0.000677453
0.00130946
0.00120661
0.00145336
0.00158158
0.00174749
0.00201526
0.00220042
0.0016249
0.001825
0.00196866
0.00222228
0.00229943
0.00259502
0.00261601
0.00296833
0.00290469
0.00331788
0.00312956
0.00362627
0.00323642
0.00384537
0.00315294
0.00387802
0.00280495
0.00367404
0.00316609
0.00245833
0.00346938
0.00367501
0.00112289
0.00250303
0.00100287
0.000568702
0.00100629
0.00152954
2.69373e-08
1.63727e-07
3.83331e-07
5.27032e-07
6.23223e-07
5.40722e-07
3.59453e-07
8.76546e-08
1.2741e-08
1.16735e-09
1.37457e-10
4.83606e-11
3.79545e-11
3.31038e-11
2.55471e-11
1.59018e-11
8.4095e-12
3.418e-12
3.3058e-12
9.96375e-13
2.17851e-13
1.78745e-13
4.35384e-12
4.01443e-10
2.59648e-08
9.57821e-07
1.29189e-05
8.17688e-05
0.000289662
0.000614816
0.00101017
0.00164545
0.00226018
0.00228016
0.00190315
0.00205721
0.00237462
0.00256107
0.00291124
0.00311979
0.00246347
0.00269338
0.00289108
0.00317717
0.00330625
0.00362923
0.00371214
0.00408347
0.00409222
0.00451447
0.00439008
0.00488725
0.00456205
0.00514548
0.00451305
0.00520173
0.00417375
0.00502194
0.00454808
0.00382706
0.00482146
0.00496375
0.0024819
0.0039112
0.00248393
0.000424931
0.0028054
0.00250676
2.75499e-08
1.99726e-07
5.31758e-07
9.05053e-07
1.07457e-06
9.51608e-07
5.42408e-07
1.13809e-07
1.34253e-08
1.36685e-09
2.59278e-10
1.41897e-10
1.1417e-10
9.03932e-11
6.07626e-11
3.44844e-11
1.46768e-11
7.575e-12
4.54064e-12
1.19497e-12
4.82069e-13
2.73261e-12
2.25519e-10
2.27542e-08
1.12408e-06
1.97193e-05
0.000146639
0.000505797
0.000966037
0.00139644
0.00200173
0.0031031
0.00304206
0.00335815
0.00272917
0.0029079
0.00331527
0.00351717
0.00393883
0.00415927
0.0034459
0.0036999
0.0039469
0.00425175
0.00443151
0.00475915
0.00490028
0.00525146
0.00532296
0.00569002
0.00561609
0.00596729
0.00567108
0.006003
0.00557053
0.00590259
0.00531492
0.00573146
0.0054775
0.00509241
0.00555539
0.00563224
0.00540051
0.00401186
0.00460099
0.00513411
0.00416552
0.000978177
0.00410577
0.00412331
2.57532e-08
2.23037e-07
9.34343e-07
1.8684e-06
2.02412e-06
1.76802e-06
6.51784e-07
1.26729e-07
1.43856e-08
1.88022e-09
6.12607e-10
4.08789e-10
3.14082e-10
2.21982e-10
1.33566e-10
6.36281e-11
2.56056e-11
2.56015e-11
6.87325e-12
2.00809e-12
2.94627e-12
9.95417e-11
1.30062e-08
1.06909e-06
2.24356e-05
0.000195163
0.000718863
0.00135904
0.0018892
0.00246039
0.00340136
0.00433363
0.00450408
0.00402074
0.00419003
0.00369914
0.00387176
0.00436554
0.00456882
0.00503392
0.00524003
0.00453023
0.00479278
0.00507236
0.00537021
0.00556898
0.00586951
0.00600261
0.00628353
0.00624758
0.00648492
0.00625164
0.00645644
0.00612674
0.00628916
0.00593802
0.00608509
0.00575773
0.00588978
0.00585168
0.00568641
0.00574042
0.00562271
0.00548928
0.0056918
0.00570832
0.00568484
0.00569895
0.005705
0.00471828
0.00523463
0.00513036
0.00555654
0.00523927
0.0047368
0.00527539
0.00245057
0.00480521
0.00534651
0.00526143
0.00548474
0.00497104
0.00563084
2.3284e-08
3.48083e-07
2.14991e-06
4.30059e-06
4.18176e-06
2.72823e-06
7.45053e-07
1.40313e-07
1.68301e-08
3.30642e-09
1.59223e-09
1.10764e-09
7.88518e-10
4.97104e-10
2.62095e-10
1.07314e-10
6.2131e-11
3.68136e-11
1.0071e-11
6.42709e-12
4.91467e-11
5.28443e-09
7.10614e-07
2.16175e-05
0.000212091
0.000868094
0.00174688
0.0024559
0.00312248
0.00403589
0.0046582
0.00483847
0.00525271
0.00536347
0.00502499
0.00514903
0.00474537
0.00489411
0.00543872
0.00560861
0.00607357
0.00622685
0.00562549
0.00587324
0.00614953
0.00639889
0.00653575
0.00676195
0.00669728
0.00689057
0.00664606
0.006827
0.00644831
0.00661602
0.00617472
0.00622799
0.0062908
0.00636309
0.00592224
0.00594254
0.00614488
0.00601819
0.00597174
0.00581399
0.00576033
0.00573657
0.00581998
0.00568597
0.00571662
0.00574125
0.00574881
0.00566212
0.00553328
0.00561189
0.00563026
0.00565534
0.00561607
0.00580787
0.00568579
0.00571062
6.41931e-06
0.00129227
0.00452687
0.00585421
0.00575611
0.00598722
0.00571899
3.16081e-08
1.25745e-06
5.86232e-06
1.11889e-05
9.10159e-06
4.1754e-06
8.71322e-07
1.62033e-07
2.34172e-08
7.16649e-09
4.1282e-09
2.80167e-09
1.82889e-09
1.0346e-09
4.69437e-10
2.04811e-10
2.20779e-10
5.75362e-11
2.26706e-11
4.52383e-11
1.8719e-09
2.93645e-07
1.60085e-05
0.00020632
0.000924943
0.0020294
0.00296845
0.00381392
0.00453946
0.00522598
0.00542696
0.00553934
0.00586698
0.0058366
0.00586983
0.0058792
0.00573412
0.00582212
0.00633672
0.00636231
0.00677067
0.00675834
0.00658897
0.00671803
0.00692145
0.00701914
0.00704649
0.00714412
0.00699214
0.00710959
0.00678783
0.00694377
0.00643831
0.00652694
0.00661249
0.00670395
0.00620159
0.00627479
0.00635823
0.00582502
0.0058422
0.0060849
0.00595756
0.00588324
0.0057029
0.00563027
0.0055671
0.00568391
0.00550644
0.005615
0.00579865
0.00562457
0.00544798
0.00537987
0.00525031
0.0053762
0.00587916
0.00594737
0.00587487
0.00600498
0.0060625
6.22514e-05
0.000915109
0.00352885
0.00613792
0.00622472
0.00617453
0.00544083
1.00151e-07
5.03477e-06
1.8413e-05
2.79123e-05
1.9366e-05
5.61484e-06
9.6575e-07
1.98641e-07
4.07595e-08
1.70026e-08
1.03408e-08
6.73046e-09
4.05086e-09
2.053e-09
8.82703e-10
6.00871e-10
3.44071e-10
9.88421e-11
8.2763e-11
7.94299e-10
8.65369e-08
7.65415e-06
0.000171228
0.000913652
0.00216289
0.0033147
0.00400836
0.00452785
0.00507378
0.00553042
0.0053557
0.00577041
0.0056912
0.00604881
0.00593071
0.00623245
0.00614558
0.00634762
0.00630715
0.00671402
0.00662309
0.0069792
0.00686949
0.00704908
0.00703109
0.00718161
0.00716951
0.00718972
0.00718958
0.00706969
0.00711168
0.00678204
0.00685126
0.00690444
0.00693762
0.00644653
0.00653847
0.00662638
0.00670742
0.00616942
0.00626233
0.00635936
0.00569416
0.00574021
0.00605163
0.00593011
0.00582466
0.00552863
0.00541436
0.00536223
0.00553356
0.00525396
0.00533165
0.00567348
0.00532962
0.00512797
0.00509031
0.00492945
0.00502669
0.00596956
0.00607362
0.00577046
0.00618392
0.00628506
0.000153636
0.00320891
0.00133575
0.00637622
0.00640976
0.00619863
0.00524151
4.42873e-07
1.80994e-05
4.65108e-05
6.07926e-05
2.92369e-05
6.5798e-06
1.21455e-06
3.00783e-07
8.17436e-08
4.10056e-08
2.53382e-08
1.58123e-08
8.81193e-09
4.14965e-09
1.87727e-09
2.19364e-09
4.99121e-10
2.52444e-10
6.11084e-10
2.82592e-08
3.03585e-06
0.000103362
0.000832325
0.00216078
0.00332153
0.0039392
0.00435052
0.0046217
0.00440431
0.00526163
0.00466643
0.00578114
0.00554832
0.00591183
0.00568233
0.00625311
0.0060967
0.0065134
0.00639004
0.00671933
0.00653855
0.00681833
0.00658525
0.0071223
0.00700962
0.00714195
0.00701811
0.00706041
0.00695183
0.006952
0.0069448
0.00686466
0.0067711
0.0068137
0.00683633
0.00684024
0.00645488
0.00654388
0.00661899
0.00667562
0.00615652
0.00626404
0.0063647
0.00558839
0.00568371
0.00604616
0.00593084
0.0058023
0.00536616
0.0051877
0.00519133
0.00542822
0.00501204
0.00496224
0.00538973
0.00495502
0.00478028
0.00483552
0.0046629
0.00465626
0.00590952
0.00607373
0.00551879
0.00624245
0.00639586
0.000285348
0.00338428
0.00167923
0.00650094
0.00648796
0.00618621
0.00518501
1.77106e-06
4.80913e-05
9.61043e-05
9.4786e-05
3.60371e-05
6.83059e-06
1.43803e-06
4.5587e-07
1.80397e-07
1.00683e-07
6.16347e-08
3.68046e-08
1.9355e-08
8.84513e-09
5.65661e-09
2.64356e-09
9.39342e-10
9.05437e-10
1.13329e-08
9.3991e-07
4.90818e-05
0.000622567
0.0020616
0.00324525
0.00374119
0.00387843
0.00354744
0.00266987
0.00313448
0.00231581
0.00450165
0.00384251
0.0053884
0.00499717
0.00538945
0.00504342
0.00591547
0.00567232
0.00634139
0.00613466
0.00633206
0.00607185
0.00628907
0.0059948
0.00680895
0.00656411
0.00680461
0.00663765
0.00681725
0.00677106
0.00683391
0.00682339
0.00693931
0.0068726
0.00671022
0.00672925
0.00674274
0.00675769
0.0064525
0.0065237
0.0065764
0.00661629
0.0061621
0.00626742
0.00635596
0.00553533
0.00566806
0.00605508
0.00594365
0.00580848
0.00526124
0.00501138
0.0050856
0.00537962
0.00482852
0.0045738
0.0050276
0.00456237
0.00449898
0.00464347
0.00446081
0.00435705
0.00571258
0.00594902
0.00518832
0.00619577
0.00641769
0.000390452
0.00352565
0.00188249
0.00655412
0.00652572
0.00619732
0.00519843
6.21112e-06
9.86818e-05
0.000156172
0.000118066
3.66375e-05
6.58128e-06
1.9238e-06
8.3042e-07
4.443e-07
2.40089e-07
1.48712e-07
8.63484e-08
4.39497e-08
2.04825e-08
1.06207e-08
3.99341e-09
2.3687e-09
7.01322e-09
3.48723e-07
1.8858e-05
0.000390407
0.00178006
0.00306778
0.00346414
0.00322535
0.0022497
0.00123213
0.000703164
0.00183508
0.00096953
0.00340946
0.00264185
0.00461113
0.00406817
0.00454708
0.00408492
0.00525017
0.00492646
0.00580857
0.00553861
0.00569271
0.00538456
0.00593511
0.00561932
0.00643778
0.006207
0.00674542
0.00664724
0.00700672
0.00709794
0.00723026
0.00716887
0.0067818
0.00681264
0.00734927
0.00719093
0.00665071
0.00668952
0.00674124
0.00680938
0.0064285
0.00648869
0.00654647
0.00661272
0.00616635
0.00626252
0.00634703
0.00552445
0.00567672
0.00606692
0.00596745
0.00582547
0.00521374
0.00490173
0.00503421
0.00536849
0.0047099
0.00425044
0.00464983
0.00421695
0.00429101
0.00451183
0.00431174
0.00413843
0.00543418
0.00574228
0.00483992
0.00607305
0.00637871
0.000354617
0.00369267
0.00200228
0.00657271
0.00656044
0.00624049
0.00530001
2.11556e-05
0.000165599
0.000211706
0.000123013
3.38753e-05
6.70102e-06
3.32905e-06
1.88114e-06
8.74949e-07
5.68614e-07
3.64826e-07
2.08166e-07
1.01504e-07
7.13938e-08
1.89278e-08
7.76713e-09
8.27655e-09
1.42659e-07
7.6491e-06
0.000203183
0.00137627
0.0028269
0.0032458
0.00268876
0.00138473
0.000572995
0.000215956
0.000143649
6.07995e-05
0.000693419
0.000301889
0.00207024
0.00129089
0.00352052
0.00284719
0.00347033
0.0028902
0.00436582
0.00395242
0.00506654
0.0047323
0.00526021
0.00485745
0.00601182
0.0056706
0.00648928
0.00628411
0.00750777
0.00744894
0.00750422
0.00764358
0.00783214
0.00775393
0.00690677
0.00703811
0.00801531
0.00780242
0.00669579
0.00680493
0.00695273
0.00713196
0.00642829
0.00651855
0.00662911
0.00677083
0.00617958
0.00628909
0.00640381
0.00553235
0.00569728
0.00610589
0.00603067
0.00586154
0.00519812
0.00484224
0.00500996
0.00537328
0.00463867
0.00401786
0.00430381
0.00396601
0.00412969
0.00442621
0.00421271
0.0039714
0.00513009
0.00550019
0.00452139
0.0059127
0.00631071
0.000205918
0.00394349
0.00203794
0.00658191
0.00660609
0.0063137
0.00547296
6.1481e-05
0.000247369
0.000241559
0.000115502
2.89353e-05
7.66585e-06
3.67036e-06
2.86888e-06
2.01947e-06
1.39721e-06
9.00091e-07
4.96883e-07
2.34585e-07
8.2227e-08
2.89641e-08
1.83082e-08
7.04816e-08
3.78115e-06
9.15574e-05
0.000956928
0.00248739
0.00311066
0.00242725
0.00105342
0.000382779
9.8901e-05
1.44172e-05
3.45392e-05
1.37733e-05
0.000190605
7.9517e-05
0.000849977
0.00042377
0.00220157
0.00147178
0.00230797
0.00167189
0.00343517
0.0029023
0.0044131
0.00393436
0.00525698
0.00476627
0.00682666
0.00646482
0.00732195
0.00711162
0.00825265
0.00809995
0.00798542
0.00782757
0.00819323
0.00832673
0.00834922
0.00838431
0.00734394
0.00757308
0.00869501
0.00852185
0.00695189
0.00717315
0.0074322
0.00771613
0.00653525
0.00669525
0.0068961
0.00714445
0.00624772
0.00640187
0.00657794
0.00555473
0.00574076
0.00620895
0.00615524
0.00594147
0.0051953
0.00480757
0.00499735
0.00539018
0.00459085
0.00385385
0.00403355
0.00380038
0.00401396
0.00436606
0.00414283
0.00384839
0.00484224
0.00525996
0.00425705
0.00574731
0.00624139
0.000254972
0.00431943
0.00242464
0.00659788
0.00665957
0.00640668
0.00570488
0.000140359
0.000323283
0.000236651
9.8049e-05
2.38173e-05
8.33226e-06
4.96667e-06
4.21205e-06
4.33042e-06
3.57128e-06
2.51591e-06
1.25191e-06
3.18177e-07
1.23685e-07
5.63318e-08
6.8069e-08
1.3362e-06
3.75983e-05
0.00058088
0.0020582
0.00297928
0.00242144
0.0010546
0.000412725
0.000122034
1.71164e-05
5.63213e-06
4.50848e-06
2.29029e-05
1.11443e-05
8.9276e-05
4.54388e-05
0.00032497
0.000172396
0.00107164
0.000608188
0.00160769
0.00104959
0.00293219
0.00225811
0.00420502
0.00358697
0.00599119
0.00536966
0.00713316
0.0069576
0.00770891
0.00755947
0.00735444
0.00827381
0.00806136
0.00783482
0.00763431
0.00876416
0.00872608
0.0084611
0.0086116
0.00800998
0.00828502
0.00903393
0.00903964
0.00743953