/*--------------------------------*- C++ -*----------------------------------*\
  =========                 |
  \\      /  F ield         | OpenFOAM: The Open Source CFD Toolbox
   \\    /   O peration     | Website:  https://openfoam.org
    \\  /    A nd           | Version:  dev
     \\/     M anipulation  |
\*---------------------------------------------------------------------------*/
FoamFile
{
    version     2.0;
    format      ascii;
    class       volScalarField;
    location    "2500";
    object      G;
}
// * * * * * * * * * * * * * * * * * * * * * * * * * * * * * * * * * * * * * //

dimensions      [1 0 -3 0 0 0 0];

internalField   nonuniform List<scalar> 
9978
(
4073.79
4079.74
4081.2
4084.94
4087.17
4089.45
4089.38
4092.4
4095.44
4098.5
4093.08
4096.86
4100.67
4104.49
4108.35
4096.03
4100.56
4105.12
4109.72
4114.36
4119.02
4098.25
4103.51
4108.81
4114.17
4119.58
4125.04
4130.54
4099.77
4105.72
4111.74
4117.83
4124
4130.25
4136.56
4142.93
4100.61
4107.23
4113.92
4120.72
4127.63
4134.65
4141.76
4148.96
4156.22
4100.79
4108.05
4115.4
4122.86
4130.47
4138.22
4146.12
4154.14
4162.25
4170.44
4100.32
4108.2
4116.17
4124.28
4132.55
4141
4149.63
4158.44
4167.4
4176.47
4185.63
4099.25
4107.71
4116.28
4124.99
4133.89
4143
4152.32
4161.88
4171.64
4181.58
4191.66
4201.84
4097.59
4106.6
4115.73
4125.02
4134.51
4144.24
4154.22
4164.47
4174.99
4185.75
4196.73
4207.86
4219.12
4095.37
4104.91
4114.57
4124.4
4134.44
4144.75
4155.34
4166.24
4177.46
4188.99
4200.81
4212.88
4225.13
4237.52
4092.62
4102.64
4112.81
4123.14
4133.71
4144.55
4155.71
4167.21
4179.08
4191.32
4203.92
4216.86
4230.08
4243.51
4257.12
4089.37
4099.84
4110.48
4121.29
4132.34
4143.68
4155.36
4167.41
4179.87
4192.76
4206.08
4219.81
4233.94
4248.39
4263.09
4277.98
4085.67
4096.55
4107.62
4118.87
4130.36
4142.16
4154.31
4166.87
4179.88
4193.35
4207.32
4221.77
4236.71
4252.11
4267.88
4283.93
4300.2
4081.53
4092.79
4104.25
4115.9
4127.81
4140.03
4152.61
4165.63
4179.12
4193.12
4207.67
4222.78
4238.45
4254.68
4271.43
4288.61
4306.12
4323.88
4077
4088.6
4100.41
4112.43
4124.71
4137.31
4150.29
4163.71
4177.63
4192.1
4207.17
4222.86
4239.19
4256.16
4273.76
4291.96
4310.67
4329.75
4349.12
4072.1
4084.01
4096.15
4108.5
4121.11
4134.05
4147.38
4161.16
4175.46
4190.34
4205.85
4222.04
4238.95
4256.58
4274.94
4294.03
4313.8
4334.15
4354.94
4376.06
4066.86
4079.05
4091.48
4104.12
4117.03
4130.27
4143.91
4158.01
4172.65
4187.88
4203.78
4220.39
4237.78
4255.98
4275.01
4294.87
4315.55
4337.02
4359.16
4381.82
4404.84
4061.32
4073.76
4086.45
4099.35
4112.52
4126.02
4139.93
4154.3
4169.23
4184.76
4200.98
4217.95
4235.74
4254.41
4274
4294.52
4316
4338.41
4361.73
4385.83
4410.52
4435.64
4055.5
4068.17
4081.08
4094.21
4107.6
4121.33
4135.47
4150.08
4165.24
4181.02
4197.51
4214.77
4232.89
4251.93
4271.96
4293.04
4315.18
4338.4
4362.7
4388.04
4414.28
4441.21
4468.65
4049.44
4062.3
4075.41
4088.74
4102.32
4116.25
4130.57
4145.37
4160.73
4176.71
4193.41
4210.9
4229.27
4248.61
4268.99
4290.49
4313.16
4337.05
4362.17
4388.52
4416.08
4444.68
4474.1
4504.12
4043.15
4056.18
4069.47
4082.96
4096.71
4110.8
4125.28
4140.23
4155.74
4171.87
4188.73
4206.4
4224.95
4244.5
4265.13
4286.94
4310.01
4334.42
4360.21
4387.39
4416
4445.99
4477.21
4509.4
4542.36
4036.68
4049.85
4063.28
4076.91
4090.8
4105.01
4119.62
4134.69
4150.31
4166.56
4183.52
4201.3
4219.99
4239.68
4260.47
4282.49
4305.83
4330.6
4356.88
4384.72
4414.17
4445.26
4477.96
4512.09
4547.44
4583.7
4030.04
4043.32
4056.88
4070.62
4084.62
4098.94
4113.63
4128.79
4144.49
4160.8
4177.83
4195.67
4214.42
4234.19
4255.08
4277.21
4300.7
4325.68
4352.28
4380.6
4410.69
4442.63
4476.46
4512.17
4549.62
4588.54
4628.45
4023.25
4036.63
4050.28
4064.12
4078.2
4092.59
4107.36
4122.57
4138.31
4154.66
4171.71
4189.57
4208.32
4228.1
4249.01
4271.17
4294.72
4319.79
4346.54
4375.13
4405.66
4438.22
4472.89
4509.77
4548.89
4590.11
4632.99
4677.06
4016.34
4029.79
4043.52
4057.43
4071.58
4086.02
4100.82
4116.06
4131.82
4148.17
4165.21
4183.03
4201.75
4221.47
4242.33
4264.45
4287.96
4313.02
4339.79
4368.45
4399.18
4432.13
4467.4
4505.11
4545.43
4588.43
4633.84
4681.24
4730.07
4009.33
4022.84
4036.62
4050.58
4064.77
4079.24
4094.06
4109.31
4125.05
4141.37
4158.36
4176.11
4194.75
4214.37
4235.12
4257.12
4280.52
4305.47
4332.14
4360.73
4391.45
4424.51
4460.1
4498.36
4539.49
4583.7
4631.02
4681.2
4733.79
4788.12
4002.25
4015.79
4029.61
4043.6
4057.8
4072.29
4087.11
4102.33
4118.03
4134.3
4151.21
4168.87
4187.38
4206.86
4227.44
4249.25
4272.46
4297.21
4323.69
4352.08
4382.62
4415.57
4451.18
4489.67
4531.27
4576.24
4624.8
4677.03
4732.67
4791.24
4851.98
3995.1
4008.66
4022.49
4036.5
4050.71
4065.18
4079.98
4095.16
4110.81
4126.99
4143.8
4161.33
4179.69
4198.99
4219.36
4240.93
4263.87
4288.34
4314.53
4342.63
4372.86
4405.5
4440.86
4479.24
4520.95
4566.3
4615.55
4669.04
4726.88
4788.8
4854.36
4922.68
3987.9
4001.47
4015.31
4029.3
4043.5
4057.95
4072.71
4087.84
4103.41
4119.49
4136.17
4153.55
4171.73
4190.81
4210.93
4232.22
4254.84
4278.95
4304.76
4332.47
4362.28
4394.49
4429.38
4467.35
4508.78
4554.09
4603.58
4657.64
4716.73
4781.01
4850.27
4924.04
5001.54
3980.68
3994.23
4008.06
4022.04
4036.21
4050.62
4065.32
4080.38
4095.86
4111.82
4128.36
4145.57
4163.53
4182.37
4202.21
4223.18
4245.44
4269.14
4294.49
4321.7
4351
4382.65
4416.95
4454.28
4495.08
4539.9
4589.17
4643.27
4702.76
4768.24
4840.01
4917.93
5001.33
5090.56
3973.45
3986.97
4000.77
4014.72
4028.85
4043.21
4057.85
4072.82
4088.19
4104.02
4120.4
4137.41
4155.15
4173.73
4193.26
4213.88
4235.73
4258.98
4283.82
4310.46
4339.14
4370.12
4403.71
4440.26
4480.2
4524.13
4572.66
4626.27
4685.54
4751.2
4824
4904.65
4992.78
5068.15
5064.55
5163.25
5114.04
5164.97
3966.21
3979.7
3993.46
4007.36
4021.44
4035.74
4050.29
4065.17
4080.42
4096.11
4112.32
4129.13
4146.62
4164.91
4184.12
4204.36
4225.78
4248.54
4272.83
4298.85
4326.83
4357.04
4389.79
4425.44
4464.38
4507.16
4554.5
4607.06
4665.51
4730.61
4803.29
4884.51
4976.1
5058.88
5050.66
5110.13
5216.07
5163.33
5217.63
3958.99
3972.43
3986.14
3999.99
4014
4028.22
4042.69
4057.46
4072.58
4088.12
4104.14
4120.73
4137.98
4155.97
4174.83
4194.67
4215.64
4237.89
4261.6
4286.96
4314.2
4343.57
4375.37
4409.99
4447.8
4489.3
4535.17
4586.16
4643.15
4706.99
4778.67
4859.41
4941.23
4927.41
5040.55
4976.04
5027.82
5103.38
5094.05
5158.56
5272.6
5215.61
5273.91
3951.79
3965.17
3978.82
3992.6
4006.54
4020.68
4035.05
4049.71
4064.69
4080.07
4095.9
4112.27
4129.25
4146.94
4165.44
4184.87
4205.37
4227.09
4250.18
4274.86
4301.32
4329.81
4360.62
4394.1
4430.65
4470.75
4515
4564.13
4619.09
4680.94
4750.8
4829.95
4912.76
4896.65
4961.3
5082.39
5013.22
5068.32
5150.67
5139.94
5210.02
5333.23
5271.3
5334.21
3944.63
3957.94
3971.52
3985.23
3999.09
4013.13
4027.4
4041.93
4056.77
4071.98
4087.62
4103.76
4120.47
4137.85
4155.98
4175
4195.02
4216.18
4238.65
4262.62
4288.28
4315.86
4345.65
4377.94
4413.13
4451.7
4494.22
4541.34
4593.97
4653.24
4720.42
4797.02
4879.92
4861.82
4944.99
4927.45
4996.72
5126.66
5052.08
5110.92
5200.88
5188.54
5264.73
5398.44
5330.84
5398.98
3937.52
3950.74
3964.25
3977.87
3991.64
4005.58
4019.74
4034.14
4048.84
4063.88
4079.32
4095.22
4111.66
4128.72
4146.5
4165.09
4184.62
4205.23
4227.06
4250.31
4275.15
4301.81
4330.55
4361.64
4395.44
4432.38
4473.06
4518.09
4568.21
4624.56
4688.45
4761.48
4843.26
4823.55
4908.92
4889.31
4978.64
4959.35
5033.74
5173.48
5092.82
5155.81
5254.21
5240.14
5323.13
5468.75
5394.67
5468.73
3930.46
3943.6
3957.01
3970.54
3984.21
3998.05
4012.09
4026.36
4040.91
4055.77
4071.01
4086.68
4102.85
4119.6
4137.01
4155.18
4174.22
4194.27
4215.47
4237.98
4262
4287.72
4315.4
4345.29
4377.71
4413.04
4451.78
4494.6
4542.17
4595.42
4655.69
4724.5
4803.66
4782.94
4868.87
4847.66
4938.97
4917.55
5013.71
4992.44
5072.47
5223.05
5135.63
5203.17
5311.12
5295.1
5385.65
5544.7
5463.29
5544.1
3923.46
3936.51
3949.82
3963.26
3976.82
3990.55
4004.46
4018.6
4032.99
4047.68
4062.72
4078.16
4094.06
4110.49
4127.54
4145.29
4163.86
4183.35
4203.91
4225.7
4248.89
4273.68
4300.29
4328.98
4360.03
4393.77
4430.62
4471.17
4516.11
4566.26
4622.72
4687.02
4762.39
4741.44
4825.97
4803.79
4895.23
4872.21
4970.05
4946.6
5050.3
5026.8
5113.08
5275.64
5180.65
5253.2
5371.91
5353.64
5452.65
5627.01
5537.28
5625.73
3916.54
3929.48
3942.7
3956.02
3969.48
3983.09
3996.87
4010.87
4025.1
4039.62
4054.45
4069.66
4085.3
4101.43
4118.12
4135.46
4153.55
4172.5
4192.43
4213.5
4235.87
4259.73
4285.29
4312.78
4342.48
4374.66
4409.7
4448.06
4490.34
4537.34
4590.05
4649.76
4720.83
4700.03
4781.51
4759.18
4848.7
4824.79
4922.24
4897.23
5002.15
4976.47
5088.53
5062.47
5155.64
5331.46
5227.98
5306.1
5436.86
5416.02
5524.7
5716.41
5617.29
5714.4
3909.7
3922.53
3935.63
3948.84
3962.18
3975.67
3989.33
4003.18
4017.25
4031.59
4046.23
4061.21
4076.59
4092.41
4108.76
4125.71
4143.33
4161.75
4181.07
4201.43
4222.99
4245.93
4270.44
4296.76
4325.12
4355.8
4389.09
4425.38
4465.15
4509.04
4558
4613.18
4679.74
4659.47
4737
4714.94
4800.78
4776.84
4871.75
4845.94
4949.87
4922.66
5035.3
5007.13
5128.38
5099.47
5200.13
5390.83
5277.8
5362.13
5506.49
5482.8
5602.4
5814
5704.13
5811.13
3902.94
3915.65
3928.64
3941.73
3954.95
3968.31
3981.83
3995.53
4009.45
4023.61
4038.05
4052.81
4067.93
4083.47
4099.48
4116.04
4133.22
4151.12
4169.84
4189.52
4210.29
4232.32
4255.81
4280.97
4308.03
4337.24
4368.85
4403.19
4440.63
4481.64
4526.94
4577.67
4639.68
4619.96
4693.25
4671.87
4753.09
4729.61
4820.08
4794.42
4895.06
4867.19
4978.08
4948.48
5069.5
5038.59
5169.83
5137.8
5246.71
5454.21
5330.33
5421.64
5581.35
5554.37
5686.45
5921.06
5798.72
5917.08
3896.28
3908.87
3921.73
3934.69
3947.78
3961.01
3974.39
3987.95
4001.7
4015.69
4029.93
4044.47
4059.34
4074.6
4090.29
4106.47
4123.22
4140.62
4158.77
4177.79
4197.8
4218.95
4241.43
4265.45
4291.24
4319.01
4349.03
4381.54
4416.83
4455.21
4497.21
4543.63
4600.87
4582.38
4650.86
4630.14
4706.54
4683.9
4769.04
4744.05
4839.4
4811.97
4918.61
4888.63
5006.89
4974.8
5104.79
5070.99
5213.04
5177.66
5295.64
5521.87
5385.89
5484.99
5661.94
5631.03
5777.68
6039.21
5902.03
6033.68
3889.73
3902.19
3914.91
3927.74
3940.69
3953.78
3967.02
3980.43
3994.02
4007.83
4021.88
4036.2
4050.83
4065.82
4081.19
4097.02
4113.36
4130.28
4147.88
4166.26
4185.54
4205.84
4227.34
4250.24
4274.78
4301.16
4329.62
4360.41
4393.73
4429.76
4468.84
4511.52
4558.7
4610
4590.54
4661.71
4639.92
4719.63
4695.75
4785
4758.55
4858.97
4829.85
4942.71
4910.78
5036.65
5002.3
5141.54
5105.09
5258.42
5219.8
5347.48
5594.25
5445.19
5553.17
5748.95
5713.49
5876.93
6170.61
6015.21
6162.77
3883.28
3895.61
3908.2
3920.88
3933.68
3946.63
3959.72
3972.98
3986.42
4000.06
4013.92
4028.03
4042.43
4057.15
4072.23
4087.71
4103.66
4120.13
4137.2
4154.97
4173.54
4193.03
4213.59
4235.4
4258.7
4283.7
4310.64
4339.77
4371.29
4405.24
4441.77
4481.24
4524.3
4578.69
4559.61
4618.77
4598.41
4672.38
4649.48
4732.73
4707.53
4801.22
4773.19
4879.17
4848.21
4968.02
4933.95
5068.39
5031.67
5180.96
5142.1
5307.1
5265.95
5403.67
5672.52
5510.19
5628.66
5843.21
5803.09
5985.25
6318.44
6139.73
6306.87
3876.95
3889.14
3901.58
3914.12
3926.78
3939.57
3952.51
3965.62
3978.9
3992.37
4006.05
4019.96
4034.14
4048.6
4063.4
4078.56
4094.14
4110.19
4126.77
4143.96
4161.86
4180.57
4200.23
4221
4243.08
4266.73
4292.16
4319.64
4349.43
4381.54
4415.9
4452.66
4492.16
4541.31
4523.52
4585.31
4565.43
4627.26
4605.9
4682.87
4658.79
4745.91
4719.33
4817.93
4788.38
4900.51
4867.84
4995.4
4959.51
5103.34
5064.87
5224.87
5184.45
5361.31
5318.8
5467.27
5759.76
5585.22
5717.15
5946.35
5903.66
6104.37
6487.75
6277.62
6469.7
3870.83
3882.79
3895.09
3907.48
3919.97
3932.61
3945.39
3958.35
3971.47
3984.78
3998.28
4011.99
4025.95
4040.17
4054.7
4069.56
4084.79
4100.44
4116.57
4133.23
4150.5
4168.49
4187.31
4207.09
4228.02
4250.32
4274.26
4300.11
4328.17
4358.57
4391.13
4425.63
4461.87
4506.42
4490.07
4546.28
4527.71
4591.55
4570.77
4635.49
4613.11
4693.35
4668.04
4759.61
4731.53
4835.86
4804.56
4924.15
4889.46
5026.65
4988.57
5144.16
5103.74
5276.83
5235.18
5425.01
5382.91
5544.13
5863.27
5678.14
5828.56
6062.66
6024.12
6238.97
6689.02
6434.92
6662.76
3876.66
3888.72
3900.95
3913.28
3925.75
3938.36
3951.16
3964.12
3977.27
3990.59
4004.12
4017.86
4031.86
4046.12
4060.7
4075.61
4090.89
4106.59
4122.75
4139.46
4156.77
4174.8
4193.66
4213.51
4234.54
4257.01
4281.22
4307.53
4336.26
4367.3
4399.8
4433.08
4467.28
4509.9
4492.71
4550.7
4531.24
4597.41
4575.55
4643.59
4620.08
4704.03
4677.28
4774.04
4744.19
4855.37
4821.92
4950.78
4913.48
5063.02
5022.01
5192.97
5149.77
5340.31
5296.73
5504.01
5462.4
5641.16
5995.36
5796.84
5971.88
6202.79
6179.98
6402.32
6978.09
6632.53
6935.86
3882.57
3894.55
3906.71
3919
3931.43
3944.05
3956.86
3969.85
3983
3996.34
4009.88
4023.65
4037.68
4051.98
4066.58
4081.52
4096.82
4112.54
4128.71
4145.41
4162.71
4180.72
4199.56
4219.4
4240.47
4263.04
4287.55
4314.52
4344.03
4374.78
4405.7
4436.72
4477.29
4460.74
4512.52
4494.61
4554.44
4533.97
4602.7
4579.61
4651.5
4626.66
4714.91
4686.45
4789.23
4757.22
4876.69
4840.5
4980.96
4940.2
5105.51
5060.42
5251.43
5203.98
5418.3
5370.9
5602.97
5560.15
5763.42
6167.56
5946.84
6152.91
6386.59
6385.52
6623.6
7375.98
6922.2
7346.1
3888.38
3900.28
3912.37
3924.61
3937.04
3949.67
3962.51
3975.51
3988.67
4002.02
4015.57
4029.35
4043.39
4057.71
4072.33
4087.27
4102.57
4118.26
4134.39
4151.04
4168.27
4186.18
4204.92
4224.66
4245.67
4268.34
4293.37
4321.12
4350.35
4379.51
4407.88
4436.12
4477.51
4460.14
4514.29
4495.5
4557.32
4535.7
4607.22
4582.72
4659.05
4632.66
4725.81
4695.32
4805.09
4770.4
4899.88
4860.21
5014.94
4969.59
5154.53
5103.67
5319.95
5265.84
5511.66
5457.03
5724.33
5675.44
5912.4
6388.02
6130.13
6313.13
6325.89
6636.84
6584.83
6585.9
6939.94
7859.1
7338.62
7850.49
3894.08
3905.89
3917.92
3930.12
3942.56
3955.24
3968.1
3981.1
3994.26
4007.6
4021.16
4034.95
4049
4063.32
4077.93
4092.85
4108.1
4123.72
4139.76
4156.29
4173.36
4191.09
4209.62
4229.16
4250.05
4273
4298.74
4326.42
4354.13
4380.47
4405.59
4440.59
4423.77
4476.31
4458.13
4514.95
4495.2
4559.1
4536.24
4610.72
4584.65
4666.02
4637.84
4736.46
4703.6
4821.38
4783.39
4924.73
4880.68
5052.23
5000.97
5209
5150.43
5396.68
5333.12
5618.08
5552.32
5867.03
5757.31
5789.43
6055.79
6030.22
6442.85
6589.36
6583.41
6298.17
6275.32
6147.13
6431.19
6879.08
6883.51
6727.97
6733.89
7055.32
7247.6
7247.84
8602.32
7720.43
7711
7466.06
7993.14
8380.06
8328.28
3899.66
3911.38
3923.33
3935.54
3948.03
3960.77
3973.64
3986.62
3999.76
4013.09
4026.64
4040.44
4054.48
4068.79
4083.36
4098.21
4113.37
4128.87
4144.76
4161.09
4177.91
4195.35
4213.55
4232.77
4253.7
4277.24
4303.19
4329.41
4354.06
4376.49
4407.71
4392.21
4436.61
4419.21
4473.75
4454.78
4514.34
4493.56
4559.56
4535.38
4612.95
4585.14
4672.12
4641.93
4746.45
4710.94
4837.69
4795.77
4950.45
4901.12
5091.4
5032.95
5266.55
5198.5
5476.9
5440.89
5404.41
5367.05
5722.99
5686.06
5520.29
5606.78
5647.35
5858.03
6001.42
5968.13
5823.13
6119.86
6573.73
6734.25
6726.84
6411.93
6384.57
6247.03
6556.84
7064.18
6891.34
6894.71
7255.14
7469.21
9066.98
9059.24
8718.57
7982.54
7709.45
8298.19
8661.17
3905.11
3916.72
3928.62
3940.87
3953.47
3966.25
3979.1
3992.04
4005.15
4018.46
4032.01
4045.8
4059.83
4074.09
4088.59
4103.34
4118.35
4133.67
4149.33
4165.36
4181.84
4198.86
4216.56
4235.58
4257.03
4281.09
4305.79
4328.69
4348.96
4367.02
4402.58
4386.71
4431.2
4413.26
4469.77
4450.02
4512.31
4490.49
4558.47
4532.99
4613.71
4584.12
4677.04
4644.66
4755.38
4716.97
4853.25
4807
4975.75
4920.34
5130.55
5063.92
5329.63
5291.37
5253.41
5215.09
5481.36
5441.42
5400.97
5784.63
5743.51
5565.01
5655.88
5700.53
5931.24
6086.45
6048.12
5891.17
6213.72
6712.01
6890.67
6877.83
6531.58
6350.38
6497.79
6688.42
7068.54
7259.08
7066.6
7469.98
7705.26
9325.97
9325.26
9029.16
7970.09
8271.26
8612.03
8977.43
3910.41
3921.89
3933.78
3946.15
3958.89
3971.67
3984.45
3997.34
4010.42
4023.72
4037.27
4051.04
4065.02
4079.2
4093.59
4108.18
4122.98
4138.06
4153.41
4169.06
4185.07
4201.48
4218.7
4238.21
4260.57
4283.89
4305.42
4324.03
4339.87
4364.98
4351.17
4396.24
4380.16
4424.72
4406.4
4464.57
4444.12
4508.87
4486.11
4555.95
4529.35
4613.11
4581.86
4680.55
4645.99
4762.93
4721.49
4867.08
4816.27
4999.3
4937.27
5177.56
5140.02
5103.69
5067.48
5360.26
5319.16
5278.11
5237.23
5522.26
5478.68
5434.81
5847.83
5802.07
5610.04
5705.46
5754.57
6006.17
6174.53
6130.45
5960.81
6310.63
6855.96
7055.99
7035.41
6655.71
6456.77
6614.48
6824.43
7257.31
7466.13
7247.62
7697.09
7954.76
9606.25
9312.34
9603.11
8244.26
8569.03
8922.27
9278.89
3915.53
3926.88
3938.84
3951.43
3964.28
3976.99
3989.68
4002.51
4015.56
4028.86
4042.39
4056.13
4070.04
4084.1
4098.32
4112.69
4127.24
4142
4156.95
4172.12
4187.49
4203.21
4220.69
4241.65
4264.07
4284.97
4302.55
4316.7
4328.99
4358.46
4345.17
4389.22
4373.24
4417.49
4398.99
4458.44
4437.34
4504.32
4480.73
4552.39
4524.8
4611.14
4578.5
4682.53
4645.82
4768.52
4724.07
4878.37
4822.97
5032.47
4997.83
4951.09
5196.87
5157.08
5118.25
5080.15
5390.76
5346.49
5302.36
5258.62
5563.33
5515.94
5468.43
5912.37
5861.73
5655.28
5755.43
5809.36
6082.79
6265.28
6215.04
6031.89
6410.13
7004.64
7228.26
7198.2
6783.5
6566.08
6734.31
6963.98
7455.36
7683.08
7435.56
7934.69
8214.92
9921.71
9603.17
9920.99
8527.38
8869.18
9229.09
9583.54
3920.44
3931.7
3943.86
3956.73
3969.59
3982.16
3994.75
4007.54
4020.59
4033.89
4047.4
4061.07
4074.87
4088.77
4102.77
4116.88
4131.11
4145.46
4159.93
4174.47
4189.08
4204.66
4224.01
4246.06
4267.09
4284.61
4298.22
4309.85
4328
4319.1
4351.96
4339.27
4381.89
4366.21
4409.97
4391.52
4451.65
4430.06
4498.93
4474.6
4548.02
4519.61
4608.02
4574.36
4682.72
4644.14
4771.67
4724.52
4886.7
4826.88
5043.03
5007.23
4941.29
4977.48
5215.51
5173.21
5131.99
5091.74
5420.88
5373.25
5325.93
5279.2
5604.4
5552.99
5501.64
5978.18
5922.38
5700.63
5805.63
5864.74
6161.13
6358.3
6301.53
6104.36
6512.03
7157.28
7405.49
7364.78
6914.29
6678.14
6856.94
7106.71
7660.96
7908.14
7629.12
8181.1
8483.3
10273.1
9921.28
10269.9
8815.6
9171.7
9540.59
9904.81
3925.14
3936.4
3948.93
3962.01
3974.74
3987.16
3999.67
4012.46
4025.53
4038.83
4052.3
4065.88
4079.51
4093.19
4106.92
4120.7
4134.54
4148.41
4162.28
4176.07
4190.2
4207.59
4229.23
4251.03
4269.51
4283.79
4295.86
4307.47
4325.11
4317.5
4346.21
4334.73
4374.72
4359.58
4402.65
4384.48
4444.54
4422.7
4493.01
4468.01
4543.14
4514.06
4603.9
4569.63
4681.1
4641
4772.02
4722.35
4907.06
4873.56
4811.73
4842.19
5052.49
5014.48
4944.45
4982.05
5233.29
5188.41
5144.77
5102.27
5450.41
5399.29
5348.68
5298.87
5645.33
5589.66
5534.26
6045.1
5983.67
5745.92
5855.86
5920.39
6241.08
6453.23
6389.72
6178.16
6616.41
7313.31
7587.08
7534.98
7048.24
6792.99
6982.69
7252.93
7872.89
8140.36
7827.87
8434.77
8758.3
10645
10263.9
10637.2
9109.05
9481.71
9865.26
10247
3929.64
3941.1
3954.06
3967.18
3979.68
3991.96
4004.45
4017.27
4030.38
4043.68
4057.08
4070.51
4083.93
4097.34
4110.74
4124.13
4137.5
4150.8
4163.97
4177.09
4192.51
4213.12
4235.84
4255.95
4271.61
4284.5
4296.07
4310.55
4304.94
4323.74
4316.81
4341.96
4331.99
4368.24
4354.03
4396.03
4378.47
4437.56
4415.77
4486.82
4461.3
4537.91
4508.32
4598.62
4564.25
4677.23
4636.11
4767.77
4716.2
4908.44
4873.83
4810.23
4841.04
5060.88
5020.84
4945.75
4985.1
5250.08
5202.54
5156.43
5111.6
5479.2
5424.46
5370.45
5317.47
5685.94
5625.8
5566.16
6112.9
6045.38
5791
5906.04
5976.17
6322.61
6550.27
6479.86
6253.11
6723.5
7473.15
7773.4
7709.71
7185.54
6910.71
7111.38
7403.28
8090.81
8379.47
8032.07
8695.27
9040.1
11010.9
10627.1
11009
9411.53
9805.27
10209.1
10612.2
3933.98
3945.89
3959.2
3972.11
3984.36
3996.57
4009.11
4022.01
4035.17
4048.45
4061.73
4074.96
4088.1
4101.17
4114.18
4127.12
4139.95
4152.6
4165.05
4178.74
4197.66
4220.79
4242.68
4260.11
4274.09
4285.91
4296.82
4310.58
4304.93
4323.35
4316.68
4339.75
4330.91
4363.21
4350.37
4390.78
4374.24
4431.27
4409.85
4480.64
4454.91
4532.39
4502.63
4591.7
4557.85
4670.17
4628.82
4775.17
4746.17
4720.01
4694.98
4908.06
4872.03
4805.61
4837.82
5067.99
5025.84
4944.82
4986.11
5265.7
5215.37
5166.64
5119.32
5507.12
5448.62
5391.06
5334.72
5726.08
5661.24
5597.18
6181.3
6107.32
5835.79
5956.11
6031.99
6405.72
6649.54
6571.68
6328.91
6832.99
7637.7
7964.84
7889.63
7326.54
7030.94
7243.27
7558.26
8315.47
8625.35
8242.82
8963.7
9331.63
11375.2
11012
11397.9
9728.57
10147.3
10575.8
11006
3938.28
3950.84
3964.16
3976.73
3988.78
4001.03
4013.7
4026.72
4039.92
4053.13
4066.22
4079.17
4091.98
4104.66
4117.23
4129.65
4141.88
4153.83
4166.22
4183
4205.59
4229.02
4248.29
4263.67
4276.22
4286.89
4299.39
4294.42
4310.33
4304.72
4322.98
4316.36
4338.83
4330.39
4360.28
4348.64
4387.23
4371.79
4426.11
4405.37
4474.89
4449.33
4526.42
4497.07
4582.55
4550.19
4672.6
4650.74
4618.03
4768.17
4739.06
4712.34
4687.78
4905.4
4867.92
4799.24
4832.45
5073.32
5028.94
4941.48
4984.71
5279.8
5226.48
5174.92
5124.92
5533.95
5471.47
5410.12
5350.19
5765.62
5695.81
5627.05
6250.05
6169.31
5880.16
6005.69
6087.61
6489.85
6750.64
6664.51
6405.22
6944.76
7807.12
8162.53
8075.54
7471.68
7153.95
7378.6
7717.61
8547.32
8879.39
8461.04
9242.21
9637.63
11867.5
11437
11910.6
10063.9
10511.4
10971.1
11442.7
3942.69
3955.8
3968.79
3980.98
3992.99
4005.4
4018.27
4031.43
4044.64
4057.69
4070.52
4083.12
4095.53
4107.77
4119.85
4131.71
4143.28
4154.81
4169.36
4190.41
4214.62
4235.78
4252.66
4266.42
4277.52
4287.02
4299.11
4294.18
4309.73
4304.27
4322.19
4315.64
4337.99
4329.57
4358.76
4347.63
4384.98
4370.23
4422.25
4402.28
4469.82
4444.81
4520.02
4491.79
4571.41
4541.14
4665.3
4644.28
4599.36
4617.65
4759.53
4730.21
4703.46
4679.22
4900.41
4861.66
4791.15
4825.18
5076.4
5029.7
4936.06
4980.99
5291.86
5235.31
5180.75
5127.97
5559.33
5492.55
5427.09
5363.28
5804.33
5729.22
5655.36
6318.93
6231.18
5923.61
6054.14
6142.71
6574.58
6853.65
6758.65
6481.97
7058.85
7981.99
8367.84
8268.95
7620.87
7279.64
7517.54
7881.89
8787.25
9144.13
8687.63
9534.74
9962.18
12646.1
11951
12607.9
10420.8
10902.5
11404.8
11940.6
3947.45
3960.47
3972.96
3984.91
3997.07
4009.77
4022.9
4036.17
4049.29
4062.1
4074.58
4086.76
4098.73
4110.49
4122.04
4133.3
4144.3
4156.95
4175.67
4199.56
4222.44
4240.78
4255.99
4268.21
4277.88
4286.66
4298.62
4293.84
4308.8
4303.57
4320.81
4314.46
4336.61
4328.12
4357.52
4346.39
4383.13
4368.57
4419.31
4399.95
4465.47
4441.22
4512.76
4486.18
4592.66
4570.38
4554.82
4540.71
4526.79
4657.01
4636.49
4609.89
4749.37
4720.02
4693.59
4669.8
4893.51
4853.57
4781.47
4816.2
5076.91
5027.93
4928.77
4975.16
5301.29
5241.37
5183.77
5128.29
5582.69
5511.21
5441.34
5373.43
5841.74
5760.95
5681.54
6387.94
6292.78
5965.34
6100.76
6196.9
6660.31
6958.51
6854.17
6559.3
7175.05
8164.02
8581.88
8471.22
7774.95
7408.48
7661.2
8052.86
9038.14
9423.01
8925.09
9846.12
10308.8
13344.6
12559.4
13290.6
10803.8
11327.4
11885.4
12497.1
3952.13
3964.67
3976.67
3988.65
4001.14
4014.21
4027.59
4040.9
4053.83
4066.29
4078.33
4090.06
4101.56
4112.82
4123.81
4134.48
4145.8
4161.83
4184.32
4208.13
4228.06
4244.65
4258.37
4268.93
4277.66
4288.37
4293.34
4283.98
4297.97
4307.6
4302.69
4318.93
4312.91
4334.52
4326.04
4355.79
4344.46
4380.93
4366.32
4416.59
4397.59
4461.16
4437.85
4504.61
4479.69
4585.77
4563.36
4548.77
4534.89
4521.4
4648.06
4628.15
4602.15
4738.17
4708.94
4683.02
4659.85
4884.93
4843.89
4770.57
4805.79
5074.86
5023.84
4919.68
4967.28
5307.7
5244.45
5183.93
5126.01
5603.39
5526.84
5452.38
5380.35
5877.02
5790.12
5704.65
6456.79
6353.31
6004.54
6144.4
6249.02
6746.83
7065.17
6950.88
6636.71
7293.87
8354.66
8806.61
8683.51
7935.06
7541.17
7810.05
8231.55
9303.79
9720.72
9177.53
10180.8
10681.2
13946.3
13190.3
13903.8
11217.5
11792.1
12410.2
13085.3
3956.42
3968.27
3980.05
3992.32
4005.27
4018.71
4032.25
4045.48
4058.13
4070.17
4081.74
4093
4104.01
4114.76
4125.2
4135.71
4149.27
4169.45
4193.06
4214.54
4232.46
4247.68
4259.74
4268.85
4277.18
4292.81
4287.98
4283.63
4297.25
4306.29
4301.73
4316.74
4311.16
4331.84
4323.5
4353.37
4341.85
4378.07
4363.39
4413.21
4394.62
4455.97
4433.73
4503.95
4492.02
4471.84
4578.38
4556.26
4542.33
4529
4516.22
4638.8
4619.67
4594.18
4726.24
4697.33
4671.98
4649.48
4874.8
4832.88
4758.65
4794.18
5070.46
5017.5
4908.87
4957.43
5310.99
5244.58
5181.34
5121.17
5620.74
5538.99
5459.97
5383.96
5909.26
5815.72
5723.85
6524.66
6411.54
6040.13
6183.8
6297.7
6833.44
7173.74
7048.39
6713.32
7415.33
8554.85
9045.7
8909.51
8101.62
7677.88
7964.16
8419.35
9588.04
10042.7
9448.81
10541.6
11082.4
14504.3
13800.8
14476.7
11666.7
12295
12967.9
13683.1
3960.03
3971.3
3983.24
3995.97
4009.39
4023.14
4036.74
4049.79
4062.09
4073.68
4084.78
4095.57
4106.1
4116.36
4126.42
4138.1
4155.47
4177.93
4200.28
4219.52
4236.1
4249.82
4260
4268.45
4276.82
4292.29
4287.65
4283.39
4296.57
4305.03
4300.8
4314.52
4309.46
4328.81
4320.79
4350.31
4338.72
4374.34
4359.76
4408.56
4390.58
4449.43
4428.25
4498.62
4486.79
4470.31
4459.69
4570.73
4548.93
4535.61
4522.86
4510.58
4629.25
4610.98
4585.96
4713.52
4685.23
4660.58
4638.83
4863.2
4820.63
4745.72
4781.48
5063.72
5009.03
4896.33
4945.7
5311.2
5241.83
5175.98
5113.68
5634.16
5547.37
5463.95
5384.15
5937.44
5836.92
5738.59
6590.74
6466.54
6071.08
6218.16
6342.01
6919.61
7283.67
7146.28
6788.18
7539.37
8767.81
9304.01
9154.2
8276.33
7818.69
8124.59
8619.13
9896.69
10391.1
9744.25
10930.2
11516.2
14987.5
14392.4
15000.8
12151.8
12830.4
13550.3
14286.9
3962.73
3973.9
3986.27
3999.56
4013.42
4027.37
4040.93
4053.74
4065.65
4076.8
4087.45
4097.78
4107.86
4117.7
4128.17
4142.8
4163.34
4185.58
4205.93
4223.73
4238.97
4250.76
4259.62
4268.05
4278.82
4283.17
4274.51
4291.87
4287.41
4296.01
4304.03
4300.05
4312.65
4308.1
4325.78
4318.32
4346.72
4335.31
4369.68
4355.52
4402.52
4385.31
4441.32
4421.27
4492.94
4481.51
4465.1
4454.52
4562.87
4541.35
4528.61
4516.4
4504.55
4619.51
4602.09
4577.53
4700.2
4672.67
4648.84
4628.02
4850.11
4807.2
4732.01
4767.83
5054.61
4998.5
4882.03
4932.08
5308.13
5235.94
5167.65
5103.39
5643.25
5551.62
5463.97
5380.46
5960.67
5852.98
5748.35
6653.39
6516.13
6096.81
6246.69
6379.94
7004.59
7394.69
7242.61
6858.7
7665.59
8998.22
9586.09
9421.17
8461.11
7963
8292.17
8833.59
10232.5
10766.9
10066.9
11349.6
11985.4
15406.8
14982.4
15534.4
12669.4
13396.1
14153.7
14911.9
3964.54
3976.14
3989.19
4003.08
4017.3
4031.34
4044.75
4057.26
4068.78
4079.51
4089.74
4099.67
4109.37
4119.19
4131.56
4149.64
4171.01
4191.9
4210.71
4227.25
4240.74
4250.6
4259.15
4267.79
4283.06
4278.74
4274.4
4291.57
4287.26
4295.63
4303.39
4299.56
4311.37
4307.22
4323.18
4316.44
4342.88
4332.01
4364.29
4350.92
4395.36
4379.07
4439.21
4429.76
4413.13
4486.95
4475.91
4459.62
4449.34
4554.77
4533.69
4521.49
4509.72
4498.22
4609.66
4593.03
4568.9
4686.54
4659.79
4636.86
4617.08
4835.51
4792.57
4717.77
4753.3
5042.92
4985.78
4866.17
4916.55
5301.26
5226.42
5155.98
5090.01
5647.63
5551.28
5459.42
5372.27
5978.67
5863.94
5753.04
6709.98
6554.97
6117.63
6268.31
6406.11
7084.92
7505.11
7331.68
6921.85
7791.93
9248.33
9893.97
9711.94
8657.43
8107.09
8466.14
9062.87
10595.7
11173
10416.1
11802.9
12487
15983.8
15629.3
16392.1
13217.9
13989.4
14785.8
15597.8
3965.72
3978.23
3992.07
4006.51
4020.98
4035
4048.19
4060.35
4071.5
4081.86
4091.71
4101.31
4110.83
4121.67
4137.15
4157.05
4177.77
4197.25
4214.83
4229.8
4241.16
4250.06
4258.82
4267.81
4283
4278.74
4274.41
4291.38
4287.19
4295.41
4303.1
4299.32
4310.76
4306.84
4321.27
4315.33
4339.1
4329.15
4358.64
4346.41
4387.7
4372.36
4434.36
4424.88
4410.98
4402.55
4480.83
4470.11
4454.13
4444.13
4546.56
4526.12
4514.36
4502.94
4491.77
4599.65
4583.77
4560.14
4672.56
4646.65
4624.76
4606.11
4819.6
4776.87
4702.97
4737.93
5028.45
4970.71
4848.61
4898.82
5290.04
5212.78
5140.45
5073.14
5646.85
5545.85
5449.98
5359.31
5987.03
5863.47
5749.06
6761.83
6613.36
6139.31
6267.5
6400.05
7158.94
7615.74
7434.12
6999.33
7912.91
9518.84
10227.2
10026.4
8862.73
8261.7
8649.91
9307.57
10988.3
11610.3
10793.1
12288.9
13018.7
19272.3
16485.9
17958.4
13796.4
14612.3
15467.5
16406
3966.75
3980.37
3994.97
4009.85
4024.46
4038.37
4051.27
4063.07
4073.86
4083.87
4093.42
4102.83
4112.82
4126.03
4143.97
4163.95
4183.62
4201.91
4218.08
4231.04
4240.68
4249.61
4258.75
4268.12
4274.49
4283.01
4278.83
4291.31
4287.2
4295.33
4303.07
4299.25
4310.69
4306.84
4320.2
4314.96
4335.79
4327.03
4353.42
4342.52
4385.76
4398.23
4378.44
4365.91
4429.44
4420.12
4406.73
4474.79
4464.35
4448.81
4439.01
4538.44
4518.78
4507.4
4496.31
4485.44
4589.56
4574.38
4551.42
4658.4
4633.45
4612.72
4595.18
4802.43
4760.26
4687.87
4721.96
5010.85
4952.95
4828.71
4878.34
5274.15
5194.6
5120.58
5052.17
5640.06
5536.44
5437.79
5344.32
6021.6
5847.75
5736.68
6774.21
6589.34
6146.97
6261.54
6393.74
7180.6
7736.04
7411.61
6976.96
7963.22
9816.83
10585.3
10361.3
9079.58
8243.91
8638.8
9569.54
11409
12080.9
11196.1
12804.6
13581.1
23183.8
17632.4
19978.4
14403.5
15273.2
16221.6
17350.6
3968.02
3982.66
3997.92
4013.11
4027.77
4041.48
4054.05
4065.47
4075.91
4085.63
4095.02
4104.63
4116.19
4131.96
4150.75
4170.11
4188.73
4205.76
4220.11
4230.9
4240.15
4249.45
4258.97
4270.84
4274.67
4274.93
4266.31
4283.1
4279.02
4291.32
4287.3
4295.36
4303.18
4299.3
4310.92
4307.02
4319.86
4315.08
4333.27
4325.77
4348.65
4339.31
4393.91
4381.9
4374.73
4359.46
4424.73
4415.58
4402.32
4469.02
4458.81
4443.71
4434.12
4530.58
4511.8
4500.8
4490.03
4479.44
4579.5
4565.05
4542.93
4644.27
4620.41
4600.9
4584.44
4783.45
4742.4
4672.62
4705.35
4989.52
4932.02
4805.9
4854.72
5256.87
5175.71
5100.62
5031.34
5630.05
5527.33
5428.58
5334.49
6001.18
5842.06
5731.17
6768.4
6582.22
6141.85
6256.29
6388.23
7174.68
7718.44
7404.06
6969.47
7956.93
10127.4
10968.5
10716.7
9074.64
8236.28
8631.22
9571.97
11862.4
12580.7
11630.2
13349.7
14171.2
27017.8
18915.8
22321.9
15040.1
15978.8
17046.6
18352.6
3969.72
3985.17
4000.9
4016.3
4030.91
4044.39
4056.59
4067.64
4077.76
4087.26
4096.74
4107.34
4121.14
4138.38
4157.03
4175.57
4193.09
4208.5
4220.64
4230.39
4239.9
4249.58
4259.46
4275.27
4271.21
4279.29
4266.64
4283.29
4291.43
4287.5
4295.47
4303.35
4299.44
4311.19
4307.25
4319.86
4315.32
4331.51
4325.13
4343.86
4336.2
4389.69
4377.84
4370.81
4352.29
4367.09
4357.19
4420.1
4411.06
4397.96
4463.5
4453.51
4438.77
4429.36
4523.16
4505.08
4494.44
4483.99
4473.67
4569.67
4555.94
4534.93
4630.18
4607.66
4589.37
4573.99
4762.14
4723.04
4657.04
4687.88
4967.11
4908.03
4782.55
4830.37