/*--------------------------------*- C++ -*----------------------------------*\
  =========                 |
  \\      /  F ield         | OpenFOAM: The Open Source CFD Toolbox
   \\    /   O peration     | Website:  https://openfoam.org
    \\  /    A nd           | Version:  dev
     \\/     M anipulation  |
\*---------------------------------------------------------------------------*/
FoamFile
{
    version     2.0;
    format      ascii;
    class       volScalarField;
    location    "2500";
    object      H2O;
}
// * * * * * * * * * * * * * * * * * * * * * * * * * * * * * * * * * * * * * //

dimensions      [0 0 0 0 0 0 0];

internalField   nonuniform List<scalar> 
9978
(
3.32467e-30
1.32364e-29
7.50276e-30
2.27563e-29
3.03357e-29
8.6919e-30
4.00415e-29
6.15372e-29
3.7108e-29
2.75288e-30
6.05624e-29
1.11105e-28
8.76546e-29
3.09376e-29
3.00521e-30
8.90343e-29
1.69106e-28
1.85571e-28
8.20396e-29
2.07801e-29
1.28602e-30
1.39376e-28
2.75028e-28
3.5617e-28
1.93262e-28
7.08242e-29
7.51606e-30
4.98113e-31
1.06495e-28
6.63214e-28
7.00645e-28
4.21457e-28
1.75791e-28
4.90984e-29
4.36601e-30
1.66652e-31
2.25488e-28
1.04362e-27
1.37995e-27
7.74648e-28
3.69655e-28
1.14687e-28
2.37365e-29
2.22227e-30
3.76746e-32
4.86872e-28
2.91087e-27
3.03216e-27
1.88534e-27
8.9639e-28
2.7462e-28
7.3056e-29
1.23655e-29
8.52973e-31
2.29578e-32
1.10398e-27
5.78826e-27
5.5667e-27
3.91785e-27
1.99487e-27
8.40737e-28
2.14232e-28
4.40565e-29
3.37059e-30
2.37734e-31
4.41529e-33
3.53964e-27
1.21702e-26
1.08922e-26
1.01958e-26
4.99371e-27
1.82967e-27
5.26003e-28
1.43749e-28
1.94182e-29
1.24944e-30
5.07572e-32
7.18359e-34
4.50161e-27
2.02067e-26
2.35705e-26
2.23242e-26
1.25604e-26
4.41478e-27
1.68575e-27
3.05843e-28
8.4697e-29
4.9545e-30
4.43023e-31
1.88482e-32
6.50235e-34
5.36314e-27
1.88525e-26
5.85351e-26
5.54314e-26
3.00375e-26
1.26726e-26
4.17969e-27
1.04999e-27
2.50892e-28
3.35723e-29
1.97625e-30
1.09059e-31
7.92722e-33
4.60979e-34
3.72486e-27
2.27454e-26
7.32437e-26
1.04906e-25
7.27089e-26
3.0483e-26
9.04491e-27
3.35863e-27
7.49825e-28
1.36035e-28
1.74361e-29
1.0084e-30
6.65631e-32
6.65972e-33
2.47366e-33
4.7657e-27
4.57989e-26
1.12384e-25
2.14425e-25
1.75993e-25
7.89603e-26
2.91679e-26
8.35133e-27
2.042e-27
3.46562e-28
7.01192e-29
5.92055e-30
4.91988e-31
5.65989e-32
7.73459e-32
2.35814e-32
1.82817e-26
7.2168e-26
2.48666e-25
3.66619e-25
3.23857e-25
1.92311e-25
6.00694e-26
2.10178e-26
6.60492e-27
1.06025e-27
1.98582e-28
3.38946e-29
3.06391e-30
5.51439e-31
5.72542e-31
3.49072e-31
1.39949e-31
7.51554e-27
1.28224e-25
3.34811e-25
5.83607e-25
5.54798e-25
4.13601e-25
1.60583e-25
5.24057e-26
1.50938e-26
3.27684e-27
4.91955e-28
9.18513e-29
1.66813e-29
3.05602e-30
2.74682e-30
4.60996e-30
3.96611e-30
7.90232e-31
1.30828e-26
1.10471e-25
3.97347e-25
9.0453e-25
8.69948e-25
7.64993e-25
4.66565e-25
1.46714e-25
5.02092e-26
1.08669e-26
1.78933e-27
3.19898e-28
6.4342e-29
1.86238e-29
1.53154e-29
2.00596e-29
2.6695e-29
2.18898e-29
1.17987e-29
2.16932e-26
1.55585e-25
6.7929e-25
1.0247e-24
1.95731e-24
1.63583e-24
9.03175e-25
4.1996e-25
1.15077e-25
4.25899e-26
9.36576e-27
1.02771e-27
2.46359e-28
8.04911e-29
1.0595e-28
9.57882e-29
1.60408e-28
1.0745e-28
1.12392e-28
5.31236e-29
1.51148e-26
1.39867e-25
9.17003e-25
1.43764e-24
3.11445e-24
2.58511e-24
1.86019e-24
9.5564e-25
3.53194e-25
1.08459e-25
2.49266e-26
5.63899e-27
8.75253e-28
3.38244e-28
3.19e-28
6.49868e-28
7.87335e-28
7.13374e-28
1.04351e-27
8.2743e-28
1.18449e-28
1.99752e-26
1.52324e-25
9.5591e-25
2.67529e-24
4.37335e-24
4.98727e-24
4.30684e-24
2.12517e-24
8.27522e-25
2.79037e-25
6.56222e-26
1.76194e-26
2.87474e-27
1.01736e-27
1.82446e-27
3.04319e-27
5.34712e-27
6.31598e-27
7.75006e-27
7.05105e-27
3.32614e-27
6.04073e-28
1.89669e-26
2.16951e-25
7.61826e-25
3.0008e-24
6.30241e-24
8.6849e-24
7.81163e-24
4.83312e-24
2.07225e-24
7.63926e-25
2.47968e-25
5.21835e-26
1.06275e-26
3.17225e-27
4.74567e-27
1.37619e-26
2.23747e-26
3.64552e-26
4.80354e-26
4.6447e-26
1.49998e-26
1.41563e-26
5.78519e-27
5.02971e-26
2.18588e-25
1.03329e-24
4.18785e-24
9.38392e-24
1.15869e-23
1.23111e-23
9.4777e-24
4.96816e-24
1.80924e-24
6.30482e-25
1.63009e-25
4.16917e-26
1.28427e-26
1.4088e-26
3.20032e-26
8.50641e-26
1.70194e-25
2.80313e-25
2.56109e-25
1.59905e-25
9.59527e-26
6.37593e-26
3.03216e-26
2.74988e-25
5.27182e-25
1.28486e-24
3.05465e-24
1.13275e-23
1.6319e-23
2.50918e-23
1.71264e-23
1.01864e-23
4.55853e-24
1.2853e-24
5.19405e-25
1.33504e-25
5.04092e-26
5.0659e-26
1.1179e-25
3.0993e-25
5.29088e-25
1.17456e-24
1.57244e-24
1.46742e-24
8.47581e-25
3.52129e-25
5.11754e-25
1.60855e-25
1.46207e-24
2.00662e-24
1.89505e-24
4.96772e-24
1.13401e-23
2.21063e-23
3.68343e-23
3.07183e-23
2.1347e-23
1.08571e-23
3.63222e-24
1.02528e-24
3.42196e-25
1.60032e-25
1.63992e-25
2.37082e-25
8.49207e-25
2.49452e-24
4.70655e-24
6.58332e-24
7.87123e-24
6.64075e-24
3.88236e-24
3.55793e-24
3.95371e-24
4.16859e-24
2.88572e-24
9.55528e-24
8.09437e-24
1.11527e-23
1.21716e-23
3.74813e-23
4.65372e-23
5.1078e-23
4.31335e-23
2.3315e-23
1.18037e-23
2.70323e-24
1.09302e-24
4.74883e-25
3.93939e-25
6.17678e-25
2.05729e-24
7.03825e-24
1.26725e-23
2.43781e-23
3.6228e-23
3.81309e-23
3.15835e-23
4.70667e-23
3.91205e-23
4.81452e-23
1.56307e-23
1.61391e-23
4.92519e-23
4.57938e-23
3.1403e-23
3.15575e-23
4.92048e-23
8.39018e-23
8.58032e-23
9.52973e-23
4.85051e-23
3.52328e-23
1.08807e-23
4.52696e-24
1.74606e-24
1.63677e-24
1.92613e-24
4.70478e-24
1.28205e-23
3.36727e-23
6.05525e-23
1.39804e-22
1.71792e-22
2.09281e-22
2.17915e-22
2.72961e-22
1.87994e-22
3.54742e-22
1.4207e-22
7.18303e-23
3.0779e-22
3.18419e-22
2.16447e-22
9.63168e-23
1.09794e-22
1.12983e-22
2.33273e-22
2.22956e-22
1.49094e-22
1.21344e-22
6.33402e-23
1.9533e-23
5.58655e-24
6.00483e-24
8.47242e-24
1.27935e-23
2.46795e-23
9.29068e-23
1.34741e-22
4.39358e-22
7.14357e-22
9.2904e-22
1.2099e-21
1.91057e-21
1.2442e-21
1.69953e-21
2.32151e-21
7.69852e-22
2.09753e-22
6.94344e-22
1.11941e-21
8.47614e-22
4.26954e-22
4.00775e-22
4.01437e-22
4.91351e-22
8.63488e-22
6.2344e-22
3.20133e-22
2.75273e-22
7.73403e-23
3.25271e-23
1.72882e-23
3.04264e-23
5.69331e-23
8.33424e-23
2.15149e-22
3.99372e-22
1.07466e-21
2.15469e-21
3.59511e-21
4.65922e-21
9.30175e-21
1.43602e-20
1.29488e-20
1.53866e-20
1.35463e-20
5.17855e-21
6.29856e-22
2.20728e-21
3.64429e-21
2.13722e-21
1.81322e-21
1.10865e-21
1.40463e-21
1.87278e-21
2.59437e-21
3.26135e-21
1.44526e-21
1.1077e-21
3.98864e-22
2.27209e-22
7.47407e-23
1.03084e-22
1.35755e-22
2.99325e-22
4.6704e-22
1.40077e-21
2.8508e-21
5.99209e-21
1.159e-20
1.74137e-20
3.19394e-20
6.74827e-20
1.267e-19
1.64253e-19
1.86438e-19
1.19418e-19
5.29363e-20
1.23257e-21
5.07204e-21
8.21346e-21
6.93079e-21
4.54093e-21
3.61884e-21
4.53691e-21
5.01155e-21
6.76704e-21
1.11447e-20
8.14967e-21
5.69956e-21
2.22433e-21
1.20459e-21
4.38902e-22
3.41226e-22
4.8758e-22
8.64062e-22
1.3348e-21
2.87762e-21
7.28875e-21
1.72888e-20
3.82516e-20
6.07736e-20
1.73111e-19
3.30437e-19
7.03144e-19
1.327e-18
1.49007e-18
1.45502e-18
8.72952e-19
1.15973e-19
7.85912e-22
1.04514e-20
1.52049e-20
1.53133e-20
1.80798e-20
1.42102e-20
1.24305e-20
1.98658e-20
2.53084e-20
2.99727e-20
3.6527e-20
1.97472e-20
1.63465e-20
6.15703e-21
3.23009e-21
9.41044e-22
9.51382e-22
2.1815e-21
4.45792e-21
9.15804e-21
2.17579e-20
5.50103e-20
9.87843e-20
2.08557e-19
6.36152e-19
2.00913e-18
4.63346e-18
1.32213e-17
1.22621e-17
1.10715e-17
1.20219e-17
4.81314e-18
9.81979e-19
2.971e-21
1.63471e-20
3.75938e-20
4.19142e-20
4.02247e-20
3.79231e-20
4.97147e-20
7.34108e-20
9.03536e-20
1.14559e-19
1.13023e-19
7.20313e-20
5.90639e-20
3.31369e-20
1.55077e-20
6.73232e-21
4.04261e-21
5.27515e-21
7.33274e-21
2.38942e-20
4.39257e-20
1.18872e-19
2.86636e-19
6.29026e-19
1.8973e-18
9.61192e-18
2.97259e-17
8.35735e-17
1.48394e-16
9.0798e-17
1.09356e-16
5.00438e-17
1.03811e-17
2.6245e-18
3.2215e-21
2.01747e-20
5.57681e-20
1.20374e-19
1.01043e-19
1.4747e-19
1.34154e-19
2.10278e-19
2.11651e-19
2.83962e-19
3.04887e-19
2.47542e-19
1.77008e-19
1.35231e-19
7.27744e-20
2.59752e-20
1.22571e-20
1.12757e-20
1.75673e-20
4.08562e-20
1.41146e-19
3.01407e-19
7.67478e-19
2.1608e-18
1.04754e-17
3.76935e-17
1.42219e-16
4.34509e-16
1.0361e-15
1.17353e-15
1.06071e-15
7.67638e-16
1.33318e-16
3.45974e-17
2.40129e-16
7.63175e-18
1.29341e-16
6.62549e-17
3.03816e-20
6.74996e-20
1.1093e-19
2.57516e-19
2.97981e-19
3.93953e-19
4.40529e-19
5.8994e-19
7.87348e-19
1.04086e-18
1.07466e-18
7.76505e-19
9.01711e-19
4.71511e-19
2.3029e-19
1.20585e-19
4.44152e-20
3.91111e-20
4.76877e-20
1.35486e-19
2.38747e-19
6.95031e-19
1.53627e-18
5.15721e-18
3.20858e-17
2.0064e-16
7.14564e-16
2.74465e-15
5.7222e-15
1.13707e-14
1.33788e-14
9.94954e-15
0
9.88287e-16
6.33721e-15
7.89139e-16
1.81445e-17
5.78439e-16
4.61821e-16
2.36162e-19
3.1814e-19
2.62797e-19
3.91922e-19
7.74851e-19
9.08084e-19
1.11515e-18
1.4549e-18
2.3474e-18
2.18266e-18
2.47817e-18
3.33296e-18
2.65841e-18
1.62095e-18
8.18189e-19
4.61053e-19
2.37364e-19
1.24793e-19
1.44366e-19
2.12271e-19
5.65046e-19
1.06783e-18
3.89013e-18
1.33665e-17
8.03848e-17
5.94121e-16
3.62799e-15
1.32476e-14
4.70196e-14
8.94029e-14
1.50298e-13
1.54001e-13
3.10046e-14
1.4061e-13
4.02808e-14
1.67243e-13
2.52483e-13
5.9603e-15
4.43182e-14
5.34117e-15
9.15447e-17
3.752e-15
2.10769e-15
4.44339e-18
3.63343e-18
1.58731e-18
9.3977e-19
1.02491e-18
1.61187e-18
2.32011e-18
2.88103e-18
5.26628e-18
7.53419e-18
7.4928e-18
6.4509e-18
7.84002e-18
5.2952e-18
2.69207e-18
1.90039e-18
8.22892e-19
3.89466e-19
3.84517e-19
5.59698e-19
1.00786e-18
2.62234e-18
8.27161e-18
4.41189e-17
2.91021e-16
1.81786e-15
1.25885e-14
8.95809e-14
2.4887e-13
7.41232e-13
1.32585e-12
1.93378e-12
5.62681e-13
2.60593e-12
8.40348e-13
2.99584e-13
1.29992e-12
1.80041e-12
4.29686e-14
3.29266e-13
3.6297e-14
5.63469e-16
2.59434e-14
1.38632e-14
3.55185e-17
3.59258e-17
1.26167e-17
4.89586e-18
3.50315e-18
4.51213e-18
5.58222e-18
7.68183e-18
9.22043e-18
1.81512e-17
2.35792e-17
1.99018e-17
2.0187e-17
1.40788e-17
9.50471e-18
6.20786e-18
3.05398e-18
1.31953e-18
8.10675e-19
1.2196e-18
2.23502e-18
4.86131e-18
1.78006e-17
8.66359e-17
8.39674e-16
7.35531e-15
4.90415e-14
3.04996e-13
1.8721e-12
4.06608e-12
1.07736e-11
1.78436e-11
9.05492e-12
3.75464e-11
3.72023e-12
1.58014e-11
6.00639e-12
2.22201e-12
9.42795e-12
1.31119e-11
3.09887e-13
2.37995e-12
2.56392e-13
3.41625e-15
1.74271e-13
8.89869e-14
3.86752e-16
3.4249e-16
1.78161e-16
6.48679e-17
1.50298e-17
9.7559e-18
9.74382e-18
1.94905e-17
2.58517e-17
4.07116e-17
4.67596e-17
4.12958e-17
4.70419e-17
4.11805e-17
2.72358e-17
1.78642e-17
8.09865e-18
3.57411e-18
2.66988e-18
2.59993e-18
3.89545e-18
8.92392e-18
3.36305e-17
1.92682e-16
1.57584e-15
1.66887e-14
1.81568e-13
1.39015e-12
6.70881e-12
2.97309e-11
6.4016e-11
1.4198e-10
1.08501e-10
3.63986e-10
5.58198e-11
2.09623e-10
2.5006e-11
9.70861e-11
4.26317e-11
1.59497e-11
6.70529e-11
9.25586e-11
2.20701e-12
1.68542e-11
1.7838e-12
2.1075e-14
1.15359e-12
5.5494e-13
3.42852e-15
4.00121e-15
1.91412e-15
6.99955e-16
2.07129e-16
4.99252e-17
2.3952e-17
4.17941e-17
5.60471e-17
1.19295e-16
1.0781e-16
1.03047e-16
1.36315e-16
8.08176e-17
6.8898e-17
4.62151e-17
3.31072e-17
1.65192e-17
7.43595e-18
5.998e-18
5.52281e-18
2.09653e-17
7.85829e-17
4.35072e-16
4.12616e-15
3.95023e-14
4.17583e-13
4.26021e-12
3.41278e-11
1.09917e-10
4.66774e-10
8.84587e-10
9.92643e-10
2.93607e-09
6.25434e-10
1.97448e-09
3.36766e-10
1.16735e-09
1.74829e-10
6.62261e-10
2.98785e-10
1.12334e-10
4.69375e-10
6.51249e-10
1.55359e-11
1.17354e-10
1.20791e-11
1.23264e-13
7.45505e-12
3.35078e-12
3.60002e-14
5.75176e-14
2.83881e-14
8.97679e-15
2.16188e-15
5.22358e-16
1.41772e-16
8.84095e-17
1.39741e-16
2.5238e-16
3.42726e-16
3.31811e-16
2.734e-16
2.24429e-16
1.8947e-16
9.79257e-17
1.02487e-16
4.75796e-17
2.15138e-17
1.05819e-17
1.49151e-17
3.14917e-17
1.39483e-16
1.20913e-15
1.12343e-14
1.1378e-13
1.09602e-12
9.94876e-12
8.70818e-11
6.02182e-10
1.7741e-09
6.14636e-09
7.46961e-09
1.92786e-08
5.11727e-09
1.53753e-08
3.57341e-09
1.13892e-08
2.3385e-09
7.88927e-09
1.22779e-09
4.69835e-09
2.12675e-09
7.95754e-10
3.3717e-09
4.77219e-09
1.07254e-10
8.19912e-10
8.0295e-11
7.04414e-13
4.69263e-11
1.97372e-11
3.90437e-13
7.21653e-13
4.28991e-13
1.41672e-13
3.49563e-14
6.55401e-15
1.14024e-15
3.38399e-16
2.95246e-16
4.48645e-16
6.12068e-16
9.20427e-16
6.66643e-16
6.36255e-16
4.5167e-16
3.23845e-16
2.7419e-16
1.35038e-16
6.9346e-17
3.25036e-17
2.50405e-17
5.89079e-17
3.49587e-16
3.30922e-15
3.38071e-14
3.53728e-13
3.34019e-12
2.89358e-11
2.25384e-10
1.39406e-09
1.03017e-08
2.37834e-08
4.37223e-08
9.81499e-08
3.80069e-08
1.00617e-07
3.22083e-08
9.33692e-08
2.50461e-08
7.80084e-08
1.68208e-08
5.76135e-08
8.82551e-09
3.44706e-08
1.57109e-08
5.79091e-09
2.53326e-08
3.61076e-08
7.37237e-10
5.91398e-09
5.23998e-10
3.99552e-12
2.88208e-10
1.16645e-10
3.55942e-12
7.60112e-12
5.50115e-12
2.14443e-12
5.40268e-13
1.09882e-13
1.71554e-14
2.86009e-15
8.32034e-16
9.01758e-16
1.48625e-15
1.92694e-15
1.91707e-15
1.63458e-15
1.15845e-15
8.45566e-16
5.99071e-16
4.45704e-16
2.27805e-16
9.22387e-17
5.70052e-17
1.07047e-16
7.16893e-16
8.65122e-15
1.06761e-13
1.14846e-12
1.08302e-11
9.17582e-11
7.06613e-10
3.92933e-09
2.16699e-08
1.40887e-07
2.00832e-07
3.94871e-07
2.17319e-07
4.89558e-07
2.42869e-07
6.03207e-07
2.28529e-07
6.39034e-07
1.8715e-07
5.86952e-07
1.26923e-07
4.43863e-07
6.62751e-08
2.66024e-07
1.20812e-07
4.31558e-08
1.97861e-07
2.77036e-07
5.10924e-09
4.3864e-08
3.41343e-09
2.39836e-11
1.7948e-09
7.1176e-10
2.68125e-11
6.55897e-11
5.70996e-11
2.84335e-11
8.07186e-12
1.66446e-12
2.98802e-13
4.10547e-14
6.07903e-15
2.89479e-15
3.88011e-15
5.61833e-15
6.13482e-15
5.39443e-15
4.4388e-15
2.50922e-15
1.55414e-15
1.54216e-15
6.18692e-16
3.34846e-16
1.24189e-16
1.85675e-16
1.4638e-15
2.28854e-14
3.37717e-13
3.88781e-12
3.69091e-11
3.06492e-10
2.28136e-09
1.33031e-08
7.05761e-08
2.49491e-07
7.44427e-07
1.41447e-06
9.66969e-07
2.05468e-06
1.36024e-06
3.02842e-06
1.65433e-06
4.02649e-06
1.68107e-06
4.55522e-06
1.43833e-06
4.34297e-06
1.00045e-06
3.39643e-06
5.18984e-07
2.09347e-06
9.54434e-07
3.25403e-07
1.5227e-06
2.06089e-06
3.606e-08
3.2717e-07
2.29703e-08
1.51722e-10
1.15434e-08
4.32444e-09
1.62496e-10
4.52169e-10
4.6946e-10
2.95303e-10
1.09709e-10
2.5052e-11
4.60422e-12
7.09953e-13
9.36656e-14
1.61515e-14
1.24654e-14
1.76576e-14
2.0867e-14
2.06642e-14
1.61514e-14
9.85137e-15
5.91248e-15
3.70334e-15
2.57849e-15
9.23357e-16
3.32707e-16
3.12487e-16
2.45008e-15
5.92401e-14
9.94803e-13
1.3253e-11
1.32665e-10
1.07533e-09
7.73736e-09
4.96468e-08
2.49631e-07
1.30818e-06
2.74572e-06
0
3.80017e-06
7.73693e-06
6.52018e-06
1.46155e-05
9.6316e-06
2.2439e-05
1.18343e-05
2.98826e-05
1.20932e-05
3.30615e-05
1.05005e-05
3.08647e-05
7.5017e-06
2.40604e-05
4.02156e-06
1.51285e-05
7.11236e-06
2.37566e-06
1.06696e-05
1.38208e-05
2.57959e-07
2.33486e-06
1.57733e-07
8.77137e-10
7.4795e-08
2.56435e-08
7.6573e-10
2.4156e-09
2.97844e-09
2.34025e-09
1.16808e-09
3.39315e-10
6.67493e-11
1.19265e-11
1.71117e-12
1.89249e-13
5.33196e-14
5.71883e-14
7.1176e-14
7.54828e-14
6.30295e-14
4.12734e-14
2.25397e-14
1.30783e-14
1.51622e-14
4.8338e-15
1.24042e-15
5.50514e-16
3.55881e-15
1.10091e-13
2.83381e-12
4.25004e-11
4.8525e-10
4.06494e-09
2.74801e-08
1.69871e-07
8.37322e-07
4.83762e-06
3.38857e-05
1.45789e-05
3.36954e-05
2.78652e-05
5.73673e-05
4.98804e-05
0.000100973
7.1723e-05
0.000151178
8.34659e-05
0.000190699
8.31991e-05
0.000205986
7.17512e-05
0.000192195
5.10469e-05
0.000150429
2.7822e-05
9.6233e-05
4.46199e-05
1.56643e-05
6.21669e-05
7.66933e-05
1.81908e-06
1.52105e-05
1.11323e-06
3.65243e-09
4.98053e-07
1.59539e-07
2.63126e-09
9.4696e-09
1.39587e-08
1.36789e-08
9.01778e-09
3.76279e-09
8.9779e-10
1.63248e-10
2.89776e-11
3.21417e-12
3.88751e-13
2.10193e-13
2.41175e-13
2.6522e-13
2.41156e-13
1.725e-13
9.6612e-14
4.89068e-14
4.34682e-14
2.59615e-14
5.3961e-15
1.58131e-15
4.15045e-15
1.44216e-13
5.92257e-12
1.29561e-10
1.66401e-09
1.54831e-08
1.06988e-07
5.97068e-07
2.77695e-06
1.49385e-05
8.41844e-05
0.00023288
0.000319587
9.47995e-05
0.000157752
0.0001716
0.000271889
0.000263145
0.000403066
0.00034682
0.000533339
0.000402685
0.000633395
0.000420092
0.000695192
0.000383011
0.000703451
0.000274582
0.000626993
0.000155178
0.000436779
0.000220695
8.47385e-05
0.000284009
0.000332421
1.23517e-05
8.28028e-05
8.16544e-06
2.27067e-08
3.87303e-06
1.44443e-06
5.57034e-09
2.46884e-08
4.46045e-08
5.54435e-08
4.84965e-08
2.83168e-08
1.00548e-08
2.1528e-09
4.3462e-10
5.55746e-11
4.73394e-12
1.01752e-12
8.36669e-13
9.07157e-13
8.7566e-13
6.84095e-13
4.14097e-13
2.08203e-13
1.11426e-13
1.44523e-13
3.02376e-14
6.09232e-15
5.76248e-15
1.52725e-13
7.93465e-12
3.02109e-10
5.32515e-09
5.57174e-08
4.04954e-07
2.15448e-06
9.7961e-06
4.4527e-05
0.000180559
0.000415053
0.00052664
0.000635826
0.000766795
0.000385888
0.000511541
0.000560067
0.000728162
0.000733358
0.000936055
0.000881025
0.00113232
0.000992806
0.00129568
0.00105436
0.00141897
0.00103915
0.00147902
0.000905801
0.0014241
0.000619313
0.00120421
0.000792405
0.000359761
0.000954637
0.00106802
7.10399e-05
0.000357646
5.2016e-05
4.92841e-07
3.07128e-05
1.72642e-05
4.76745e-09
3.78516e-08
8.64245e-08
1.27746e-07
1.61281e-07
1.38692e-07
7.44358e-08
2.34815e-08
5.00296e-09
8.42328e-10
7.07248e-11
7.9302e-12
3.28011e-12
3.09527e-12
3.04638e-12
2.56038e-12
1.70074e-12
8.96938e-13
4.16701e-13
3.91491e-13
1.67414e-13
3.13654e-14
1.20327e-14
1.41125e-13
8.13421e-12
4.20411e-10
1.36655e-08
1.86705e-07
1.46352e-06
8.11318e-06
3.49737e-05
0.000121846
0.000374784
0.000671606
0.000715944
0.000891168
0.00103562
0.00120862
0.0013617
0.000893257
0.00105427
0.00114304
0.00134992
0.0013831
0.00162858
0.00160107
0.00190001
0.00178668
0.00214377
0.00191839
0.00235001
0.0019548
0.00248286
0.00183999
0.00247018
0.00151685
0.00225631
0.00179097
0.00113602
0.0020411
0.00221822
0.00032481
0.00113786
0.000266469
2.40749e-05
0.000207578
0.000212321
1.82866e-08
1.07917e-07
1.90579e-07
2.92512e-07
3.35896e-07
3.08292e-07
1.67744e-07
5.32091e-08
1.05078e-08
1.01454e-09
8.90492e-11
1.71022e-11
1.11213e-11
1.04026e-11
9.12694e-12
6.60848e-12
3.76958e-12
1.83882e-12
9.08179e-13
8.2855e-13
1.73077e-13
4.28311e-14
1.24189e-13
6.9783e-12
4.44971e-10
2.1067e-08
5.37492e-07
5.11738e-06
2.79242e-05
0.000110891
0.000306957
0.000645665
0.00124801
0.00114999
0.00138516
0.00150737
0.00166549
0.00192069
0.00209717
0.00154866
0.00173937
0.00187628
0.002118
0.00219153
0.00247325
0.00249326
0.00282905
0.00276839
0.00316219
0.00298271
0.00345611
0.00308456
0.00366494
0.003005
0.00369606
0.00267333
0.00350164
0.00301753
0.00234298
0.00330659
0.00350257
0.0010702
0.00238558
0.000955811
0.000542017
0.000959077
0.00145777
2.56733e-08
1.56045e-07
3.65343e-07
5.02302e-07
5.93979e-07
5.15349e-07
3.42587e-07
8.35416e-08
1.21431e-08
1.11257e-09
1.31007e-10
4.60914e-11
3.61736e-11
3.15505e-11
2.43483e-11
1.51557e-11
8.0149e-12
3.25761e-12
3.15069e-12
9.49622e-13
2.07629e-13
1.70358e-13
4.14954e-12
3.82606e-10
2.47464e-08
9.12877e-07
1.23127e-05
7.79319e-05
0.00027607
0.000585967
0.000962773
0.00156825
0.00215413
0.00217317
0.00181384
0.00196068
0.0022632
0.00244089
0.00277464
0.0029734
0.00234788
0.002567
0.00275542
0.00302809
0.00315111
0.00345894
0.00353796
0.00389187
0.0039002
0.00430263
0.00418409
0.00465793
0.00434799
0.00490404
0.00430128
0.00495765
0.00397791
0.00478629
0.00433467
0.00364748
0.00459522
0.00473084
0.00236544
0.00372768
0.00236738
0.000404992
0.00267377
0.00238913
2.62571e-08
1.90354e-07
5.06807e-07
8.62585e-07
1.02415e-06
9.06956e-07
5.16956e-07
1.08469e-07
1.27953e-08
1.30272e-09
2.47112e-10
1.35239e-10
1.08812e-10
8.61517e-11
5.79115e-11
3.28663e-11
1.39881e-11
7.21956e-12
4.32758e-12
1.13889e-12
4.59449e-13
2.60438e-12
2.14937e-10
2.16865e-08
1.07133e-06
1.8794e-05
0.000139758
0.000482064
0.000920708
0.00133092
0.0019078
0.0029575
0.00289931
0.00320058
0.00260111
0.00277145
0.00315971
0.00335214
0.00375401
0.0039641
0.00328421
0.00352629
0.0037617
0.00405224
0.00422357
0.00453583
0.00467034
0.00500505
0.00507319
0.00542303
0.00535257
0.00568729
0.00540498
0.00572132
0.00530915
0.00562562
0.00506552
0.00546252
0.00522048
0.00485346
0.00529471
0.00536795
0.0051471
0.00382362
0.0043851
0.0048932
0.00397006
0.000932278
0.00391311
0.00392983
2.45448e-08
2.12571e-07
8.90501e-07
1.78073e-06
1.92914e-06
1.68506e-06
6.21201e-07
1.20783e-07
1.37106e-08
1.79199e-09
5.83862e-10
3.89608e-10
2.99344e-10
2.11566e-10
1.27299e-10
6.06425e-11
2.44041e-11
2.44002e-11
6.55073e-12
1.91387e-12
2.80802e-12
9.48709e-11
1.23959e-08
1.01892e-06
2.13829e-05
0.000186005
0.000685132
0.00129527
0.00180056
0.00234494
0.00324176
0.00413029
0.00429273
0.00383207
0.00399342
0.00352557
0.00369009
0.00416069
0.00435444
0.00479771
0.00499415
0.00431766
0.00456789
0.00483434
0.00511822
0.00530766
0.00559409
0.00572095
0.00598869
0.00595442
0.00618062
0.00595829
0.00615348
0.00583925
0.00599406
0.00565939
0.00579956
0.00548756
0.00561342
0.0055771
0.00541959
0.00547106
0.00535887
0.0052317
0.00542472
0.00544047
0.00541809
0.00543153
0.00543731
0.00449689
0.00498901
0.00488962
0.00529581
0.00499343
0.00451454
0.00502785
0.00233558
0.00457974
0.00509564
0.00501455
0.00522738
0.00473778
0.00536663
2.21914e-08
3.3175e-07
2.04903e-06
4.0988e-06
3.98554e-06
2.60022e-06
7.10093e-07
1.33729e-07
1.60404e-08
3.15127e-09
1.51752e-09
1.05567e-09
7.51519e-10
4.73778e-10
2.49797e-10
1.02279e-10
5.92156e-11
3.50862e-11
9.5984e-12
6.12551e-12
4.68405e-11
5.03647e-09
6.7727e-07
2.06032e-05
0.000202139
0.000827361
0.00166491
0.00234066
0.00297596
0.00384651
0.00443962
0.00461144
0.00500623
0.0051118
0.0047892
0.00490742
0.00452271
0.00466446
0.00518351
0.00534544
0.00578858
0.00593467
0.00536152
0.00559765
0.00586097
0.00609864
0.00622908
0.00644466
0.00638303
0.00656724
0.00633421
0.00650666
0.00614574
0.00630558
0.00588498
0.00593575
0.00599562
0.00606451
0.00564435
0.00566369
0.00585655
0.0057358
0.00569153
0.00554118
0.00549003
0.00546739
0.00554689
0.00541916
0.00544838
0.00547185
0.00547906
0.00539643
0.00527364
0.00534856
0.00536607
0.00538998
0.00535255
0.00553535
0.005419
0.00544266
6.1181e-06
0.00123164
0.00431446
0.00557951
0.00548601
0.00570629
0.00545064
3.0125e-08
1.19845e-06
5.58725e-06
1.06639e-05
8.67451e-06
3.97948e-06
8.30437e-07
1.5443e-07
2.23184e-08
6.83022e-09
3.93449e-09
2.67021e-09
1.74308e-09
9.8605e-10
4.4741e-10
1.952e-10
2.10419e-10
5.48364e-11
2.16068e-11
4.31156e-11
1.78407e-09
2.79866e-07
1.52573e-05
0.000196639
0.000881542
0.00193417
0.00282916
0.00363496
0.00432646
0.00498076
0.00517231
0.00527942
0.00559168
0.00556273
0.0055944
0.00560333
0.00546506
0.00554893
0.00603938
0.00606377
0.00645297
0.00644122
0.00627979
0.0064028
0.00659667
0.00668978
0.00671585
0.0068089
0.00666404
0.00677598
0.00646932
0.00661795
0.0061362
0.00622067
0.00630221
0.00638938
0.00591059
0.00598036
0.00605989
0.00555169
0.00556806
0.00579937
0.00567801
0.00560718
0.00543531
0.00536608
0.00530587
0.0054172
0.00524806
0.00535152
0.00552656
0.00536064
0.00519234
0.00512743
0.00500395
0.00512393
0.00560329
0.0056683
0.0055992
0.00572321
0.00577803
5.93304e-05
0.000872169
0.00336326
0.00584991
0.00593264
0.0058848
0.00518553
9.54516e-08
4.79853e-06
1.7549e-05
2.66026e-05
1.84573e-05
5.35138e-06
9.20434e-07
1.8932e-07
3.8847e-08
1.62048e-08
9.85561e-09
6.41464e-09
3.86078e-09
1.95667e-09
8.41283e-10
5.72676e-10
3.27926e-10
9.42042e-11
7.88795e-11
7.57028e-10
8.24763e-08
7.295e-06
0.000163193
0.000870781
0.0020614
0.00315916
0.00382027
0.00431539
0.0048357
0.00527092
0.0051044
0.00549964
0.00542415
0.00576499
0.00565243
0.00594
0.00585721
0.00604977
0.0060112
0.00639898
0.00631231
0.00665171
0.00654715
0.00671831
0.00670117
0.00684462
0.00683309
0.00685235
0.00685222
0.00673796
0.00677798
0.00646381
0.00652978
0.00658046
0.00661208
0.00614404
0.00623166
0.00631545
0.00639269
0.00587993
0.00596848
0.00606096
0.00542698
0.00547086
0.00576767
0.00565185
0.00555135
0.00526921
0.0051603
0.00511062
0.00527391
0.00500743
0.00508147
0.00540726
0.00507954
0.00488735
0.00485145
0.00469814
0.00479082
0.00568945
0.00578863
0.00549969
0.00589375
0.00599015
0.000146427
0.00305834
0.00127307
0.00607703
0.006109
0.00590777
0.00499556
4.22092e-07
1.72502e-05
4.43284e-05
5.79401e-05
2.7865e-05
6.27105e-06
1.15756e-06
2.8667e-07
7.79079e-08
3.90815e-08
2.41493e-08
1.50703e-08
8.39845e-09
3.95494e-09
1.78918e-09
2.09071e-09
4.75701e-10
2.40599e-10
5.8241e-10
2.69332e-08
2.8934e-06
9.85122e-05
0.00079327
0.00205939
0.00316567
0.00375436
0.00414638
0.00440484
0.00419764
0.00501474
0.00444747
0.00550987
0.00528798
0.00563443
0.0054157
0.0059597
0.00581063
0.00620778
0.0060902
0.00640404
0.00623175
0.00649839
0.00627625
0.0067881
0.00668071
0.00680682
0.0066888
0.00672912
0.00662563
0.00662579
0.00661893
0.00654254
0.00645338
0.00649398
0.00651555
0.00651928
0.006152
0.00623682
0.00630841
0.00636238
0.00586764
0.00597011
0.00606605
0.00532617
0.00541701
0.00576246
0.00565255
0.00553004
0.00511436
0.00494428
0.00494774
0.00517351
0.00477686
0.0047294
0.00513683
0.00472252
0.00455598
0.00460862
0.0044441
0.00443778
0.00563223
0.00578873
0.00525983
0.00594953
0.00609575
0.000271959
0.00322548
0.00160044
0.0061959
0.00618353
0.00589594
0.00494172
1.68796e-06
4.58347e-05
9.15948e-05
9.03383e-05
3.43461e-05
6.51008e-06
1.37056e-06
4.3448e-07
1.71932e-07
9.5959e-08
5.87426e-08
3.50776e-08
1.84468e-08
8.43009e-09
5.39118e-09
2.51952e-09
8.95265e-10
8.62951e-10
1.08011e-08
8.95807e-07
4.67788e-05
0.000593354
0.00196486
0.00309297
0.00356564
0.00369644
0.00338099
0.00254459
0.0029874
0.00220715
0.00429041
0.00366221
0.00513556
0.00476269
0.00513656
0.00480676
0.00563789
0.00540616
0.00604384
0.0058468
0.00603494
0.00578694
0.00599397
0.00571351
0.00648945
0.0062561
0.00648531
0.00632619
0.00649736
0.00645334
0.00651325
0.00650322
0.0066137
0.00655011
0.00639536
0.00641349
0.00642635
0.0064406
0.00614973
0.00621759
0.00626782
0.00630583
0.00587295
0.00597333
0.00605772
0.00527559
0.00540209
0.00577095
0.00566475
0.00553593
0.00501436
0.00477623
0.00484697
0.00512719
0.00460195
0.00435918
0.00479169
0.00434828
0.00428788
0.00442558
0.0042515
0.0041526
0.00544453
0.00566987
0.00494486
0.00590504
0.00611655
0.000372131
0.00336022
0.00179416
0.00624658
0.00621951
0.00590653
0.0049545
5.91968e-06
9.40514e-05
0.000148844
0.000112526
3.49184e-05
6.27246e-06
1.83353e-06
7.91454e-07
4.23452e-07
2.28823e-07
1.41734e-07
8.22967e-08
4.18875e-08
1.95214e-08
1.01223e-08
3.80603e-09
2.25755e-09
6.68414e-09
3.3236e-07
1.79731e-05
0.000372087
0.00169654
0.00292383
0.0033016
0.00307401
0.00214414
0.00117431
0.00067017
0.00174897
0.000924037
0.00324948
0.00251788
0.00439476
0.00387728
0.00433372
0.00389324
0.00500382
0.00469529
0.00553602
0.00527872
0.00542559
0.0051319
0.00565662
0.00535565
0.0061357
0.00591574
0.0064289
0.00633533
0.00667795
0.00676488
0.006891
0.00683248
0.00646357
0.00649297
0.00700442
0.00685351
0.00633864
0.00637563
0.00642492
0.00648987
0.00612685
0.00618422
0.00623929
0.00630243
0.00587701
0.00596866
0.00604921
0.00526522
0.00541035
0.00578224
0.00568744
0.00555212
0.00496909
0.00467173
0.00479799
0.00511658
0.0044889
0.004051
0.00443165
0.00401908
0.00408966
0.00430012
0.00410942
0.00394424
0.00517919
0.00547283
0.00461282
0.00578808
0.0060794
0.000337978
0.0035194
0.00190833
0.0062643
0.0062526
0.00594767
0.00505131
2.01629e-05
0.000157828
0.000201772
0.000117241
3.22858e-05
6.38659e-06
3.17284e-06
1.79287e-06
8.33894e-07
5.41933e-07
3.47707e-07
1.98398e-07
9.67411e-08
6.80438e-08
1.80396e-08
7.40267e-09
7.88819e-09
1.35965e-07
7.29019e-06
0.000193649
0.0013117
0.00269426
0.0030935
0.00256259
0.00131975
0.000546109
0.000205823
0.000136908
5.79466e-05
0.000660881
0.000287723
0.0019731
0.00123032
0.00335533
0.00271359
0.00330749
0.00275459
0.00416096
0.00376696
0.00482881
0.00451024
0.00501338
0.00462952
0.00572972
0.00540452
0.00618478
0.00598924
0.00715549
0.00709941
0.0071521
0.00728492
0.00746463
0.00739009
0.00658268
0.00670786
0.00763921
0.0074363
0.0063816
0.00648562
0.00662649
0.00679731
0.00612666
0.00621268
0.00631805
0.00645312
0.00588961
0.00599398
0.00610332
0.00527276
0.00542995
0.00581939
0.00574769
0.0055865
0.00495421
0.00461503
0.00477487
0.00512115
0.00442101
0.00382933
0.00410186
0.00377991
0.00393591
0.00421852
0.00401504
0.00378505
0.00488937
0.00524211
0.00430924
0.00563525
0.00601459
0.000196255
0.00375845
0.00194231
0.00627306
0.00629611
0.00601744
0.00521616
5.85961e-05
0.000235761
0.000230224
0.000110082
2.75776e-05
7.30614e-06
3.49813e-06
2.73426e-06
1.92471e-06
1.33164e-06
8.57856e-07
4.73568e-07
2.23577e-07
7.83687e-08
2.76051e-08
1.74492e-08
6.71743e-08
3.60373e-06
8.72612e-05
0.000912026
0.00237068
0.0029647
0.00231335
0.00100399
0.000364818
9.42602e-05
1.37407e-05
3.29185e-05
1.31271e-05
0.000181661
7.57858e-05
0.000810094
0.000403886
0.00209827
0.00140272
0.00219967
0.00159344
0.00327398
0.00276612
0.00420602
0.00374975
0.00501031
0.00454262
0.00650633
0.00616147
0.00697838
0.00677792
0.00786541
0.00771987
0.00761072
0.00746027
0.00780878
0.00793602
0.00795744
0.00799089
0.00699934
0.00721773
0.00828701
0.00812198
0.00662569
0.00683656
0.00708346
0.00735407
0.00622859
0.00638109
0.00657252
0.00680921
0.00595456
0.00610147
0.00626929
0.00529408
0.00547139
0.00591761
0.00586642
0.00566268
0.00495152
0.00458198
0.00476286
0.00513726
0.00437543
0.00367301
0.00384428
0.00362205
0.00382561
0.00416119
0.00394844
0.00366781
0.00461503
0.00501314
0.0040573
0.00547762
0.00594852
0.000243008
0.00411675
0.00231087
0.00628829
0.00634708
0.00610606
0.00543719
0.000133773
0.000308113
0.000225546
9.34482e-05
2.26997e-05
7.94129e-06
4.73362e-06
4.01441e-06
4.12722e-06
3.4037e-06
2.39786e-06
1.19317e-06
3.03247e-07
1.17882e-07
5.36886e-08
6.4875e-08
1.2735e-06
3.58341e-05
0.000553624
0.00196162
0.00283949
0.00230782
0.00100511
0.000393358
0.000116308
1.63133e-05
5.36785e-06
4.29693e-06
2.18282e-05
1.06214e-05
8.50869e-05
4.33067e-05
0.000309721
0.000164306
0.00102136
0.00057965
0.00153226
0.00100034
0.0027946
0.00215216
0.00400771
0.00341866
0.00571006
0.0051177
0.00679845
0.00663113
0.00734718
0.00720475
0.00700935
0.00788558
0.0076831
0.00746718
0.00727609
0.00835292
0.00831662
0.00806408
0.00820752
0.00763413
0.00789626
0.00861003
0.00861547