/*--------------------------------*- C++ -*----------------------------------*\
  =========                 |
  \\      /  F ield         | OpenFOAM: The Open Source CFD Toolbox
   \\    /   O peration     | Website:  https://openfoam.org
    \\  /    A nd           | Version:  dev
     \\/     M anipulation  |
\*---------------------------------------------------------------------------*/
FoamFile
{
    version     2.0;
    format      ascii;
    class       volScalarField;
    location    "2500";
    object      k;
}
// * * * * * * * * * * * * * * * * * * * * * * * * * * * * * * * * * * * * * //

dimensions      [0 2 -2 0 0 0 0];

internalField   nonuniform List<scalar> 
9978
(
0.00016258
0.000169103
0.0001547
0.000143842
0.00022013
0.000124429
0.000121217
0.00023377
0.00019811
0.000110211
0.000111541
0.000219224
0.000238335
0.000152037
0.000106287
0.000105717
0.000183411
0.000260261
0.000207891
0.000126674
0.000104245
0.000102753
0.00014783
0.000258045
0.000248091
0.000159535
0.000116151
0.000102964
0.000101113
0.000128495
0.000240624
0.00026751
0.000204566
0.000133039
0.000110642
0.000102109
0.000100209
0.000115819
0.000203685
0.000276666
0.000245266
0.000159126
0.000121028
0.000107143
0.000101505
9.95215e-05
0.000108322
0.00016438
0.000271377
0.000268873
0.000193991
0.000134872
0.000114226
0.000104936
0.000101067
9.89339e-05
0.000104054
0.000139337
0.000253314
0.000280837
0.000233262
0.000154507
0.000122934
0.000109784
0.000103433
0.000100742
9.85183e-05
0.000101569
0.000123378
0.000216777
0.00028564
0.000262902
0.000182055
0.000133976
0.000115857
0.0001068
0.000102313
0.000100511
9.82538e-05
0.000100062
0.00011359
0.000177057
0.000279565
0.000279412
0.000216335
0.000148426
0.000123239
0.000111241
0.000104645
0.000101487
0.000100325
9.80697e-05
9.91271e-05
0.000107868
0.000148169
0.000260858
0.000288687
0.000249832
0.000171049
0.000131242
0.000116524
0.000107985
0.000103063
0.000100879
0.00010016
9.79366e-05
9.85137e-05
0.000104458
0.000130692
0.000224972
0.000290288
0.000273619
0.000199019
0.000143099
0.000122201
0.000111892
0.000105536
0.000101835
0.000100459
0.000100038
9.78676e-05
9.80934e-05
0.000102378
0.000119774
0.000185568
0.000283192
0.000285589
0.000232305
0.000159924
0.000128665
0.000116344
0.00010855
0.000103593
0.000100962
0.000100144
9.99216e-05
9.78604e-05
9.78263e-05
0.000101024
0.000113363
0.000155147
0.000262867
0.000292746
0.000261579
0.000185212
0.000137476
0.000120795
0.000111929
0.000106008
0.000102045
0.000100365
9.98476e-05
9.98591e-05
9.78964e-05
9.76255e-05
0.000100058
0.000109821
0.000137325
0.000227055
0.000292241
0.000280684
0.000213818
0.000151352
0.000126193
0.000115477
0.000108584
0.000103992
0.000100901
9.98797e-05
9.9515e-05
9.98258e-05
9.79741e-05
9.74641e-05
9.93708e-05
0.000107382
0.000126591
0.000188464
0.000283356
0.000289373
0.000245542
0.000172369
0.000132784
0.000119468
0.000111429
0.000106092
0.000102255
0.00010009
9.93993e-05
9.92849e-05
9.97991e-05
9.80621e-05
9.73445e-05
9.88669e-05
0.000105407
0.000120495
0.000159515
0.000259855
0.000294789
0.000270374
0.00019891
0.000144589
0.000123583
0.000114511
0.00010841
0.00010408
0.000100781
9.94537e-05
9.89178e-05
9.91331e-05
9.97733e-05
9.81546e-05
9.72633e-05
9.84961e-05
0.000103816
0.000116669
0.000141744
0.000221943
0.000292574
0.000285829
0.000229009
0.000161746
0.000129438
0.000117954
0.000110753
0.000106048
0.000102323
9.97615e-05
9.88732e-05
9.85127e-05
9.90363e-05
9.97458e-05
9.82578e-05
9.72119e-05
9.82119e-05
0.000102655
0.000113923
0.000131227
0.000184274
0.000280342
0.000293846
0.000258127
0.000186807
0.000138675
0.00012138
0.000113643
0.000107958
0.00010405
0.000100735
9.89831e-05
9.82966e-05
9.8192e-05
9.89749e-05
9.9718e-05
9.83765e-05
9.71904e-05
9.79902e-05
0.000101771
0.000111546
0.000125002
0.000158115
0.000252019
0.000297071
0.000280287
0.000214135
0.000154079
0.000126541
0.000116347
0.00011021
0.000105741
0.000102293
9.94639e-05
9.83159e-05
9.7739e-05
9.79631e-05
9.89341e-05
9.96924e-05
9.8497e-05
9.71869e-05
9.78272e-05
0.000101044
0.000109477
0.000121064
0.000142181
0.000211759
0.000292248
0.000291829
0.000245637
0.000175643
0.000134095
0.000119901
0.000112611
0.000107516
0.000103842
0.000100707
9.85352e-05
9.76645e-05
9.72561e-05
9.78056e-05
9.88992e-05
9.96734e-05
9.86134e-05
9.72047e-05
9.76954e-05
0.000100453
0.000107891
0.000118047
0.000132448
0.000176612
0.000275905
0.000299913
0.000271804
0.000202538
0.000147755
0.000123869
0.0001154
0.000109546
0.000105344
0.000102124
9.93091e-05
9.77458e-05
9.70196e-05
9.68561e-05
9.77094e-05
9.88477e-05
9.96752e-05
9.87164e-05
9.72402e-05
9.76014e-05
9.99727e-05
0.000106654
0.000115345
0.000126529
0.000154165
0.000241569
0.000300098
0.000290208
0.000232019
0.000166413
0.000131048
0.000118314
0.00011182
0.000107001
0.000103504
0.000100588
9.81468e-05
9.70243e-05
9.6411e-05
9.6551e-05
9.76461e-05
9.87929e-05
9.96841e-05
9.87916e-05
9.72699e-05
9.75401e-05
9.95926e-05
0.000105572
0.000113104
0.000122623
0.000140093
0.000199783
0.000292138
0.000299851
0.000262561
0.000192521
0.000141986
0.000122062
0.000114448
0.000108863
0.0001049
0.000101878
9.91912e-05
9.72077e-05
9.63298e-05
9.58786e-05
9.63524e-05
9.75746e-05
9.87559e-05
9.96961e-05
9.88454e-05
9.72797e-05
9.74784e-05
9.92805e-05
0.000104609
0.000111459
0.000119611
0.000131371
0.000169026
0.000269975
0.000307197
0.000286605
0.000220251
0.000159739
0.000128117
0.000117032
0.000111236
0.000106468
0.000103105
0.000100403
9.78814e-05
9.63968e-05
9.5666e-05
9.54553e-05
9.62256e-05
9.74921e-05
9.87391e-05
9.97045e-05
9.88967e-05
9.72693e-05
9.74087e-05
9.89841e-05
0.000103807
0.00011017
0.000116969
0.000125927
0.000149589
0.000229833
0.000304896
0.000301348
0.000253089
0.000182618
0.000137776
0.000120767
0.000113609
0.000108414
0.000104482
0.000101525
9.90182e-05
9.67503e-05
9.56677e-05
9.50731e-05
9.51449e-05
9.61341e-05
9.73892e-05
9.87195e-05
9.96973e-05
9.8927e-05
9.72382e-05
9.73263e-05
9.86947e-05
0.000103093
0.000108904
0.00011481
0.00012262
0.000137644
0.000189551
0.000292362
0.000312297
0.000281077
0.000211054
0.000153711
0.000125726
0.000116395
0.000110686
0.000106051
0.000102761
0.000100068
9.76919e-05
9.58348e-05
9.50009e-05
9.45785e-05
9.49414e-05
9.60388e-05
9.72812e-05
9.86825e-05
9.96837e-05
9.89124e-05
9.71864e-05
9.72151e-05
9.84026e-05
0.000102391
0.000107703
0.000113063
0.000119956
0.000130371
0.000163276
0.0002633
0.000315769
0.000302624
0.000241321
0.00017452
0.000135009
0.000119483
0.000113148
0.000108061
0.000104077
0.000101181
9.87081e-05
9.64527e-05
9.50644e-05
9.4403e-05
9.41963e-05
9.48275e-05
9.59696e-05
9.7189e-05
9.85806e-05
9.96452e-05
9.88663e-05
9.71491e-05
9.70448e-05
9.80867e-05
0.000101671
0.00010668
0.000111556
0.000117446
0.000126136
0.000146744
0.000219613
0.000310241
0.000314338
0.000274611
0.000202129
0.000148198
0.000124512
0.000115689
0.000110336
0.000105773
0.000102358
9.974e-05
9.74454e-05
9.54007e-05
9.44071e-05
9.3891e-05
9.39708e-05
9.4832e-05
9.59642e-05
9.71377e-05
9.83912e-05
9.95682e-05
9.88062e-05
9.71254e-05
9.67736e-05
9.77572e-05
0.000100922
0.000105752
0.000110133
0.000115279
0.00012338
0.000136829
0.000182957
0.000292695
0.000325613
0.000300543
0.000231366
0.000168533
0.000132206
0.000118833
0.000112752
0.000107817
0.000103819
0.000100822
9.84573e-05
9.62798e-05
9.45743e-05
9.38349e-05
9.35593e-05
9.39659e-05
9.49755e-05
9.60954e-05
9.72052e-05
9.82268e-05
9.94088e-05
9.8737e-05
9.70771e-05
9.63986e-05
9.73461e-05
0.000100143
0.000104845
0.000108842
0.000113539
0.000120771
0.000130871
0.00015992
0.000255869
0.000325533
0.000318879
0.000266226
0.000192801
0.000144538
0.000123343
0.000115339
0.000110113
0.000105681
0.000102118
9.94624e-05
9.72859e-05
9.5192e-05
9.39019e-05
9.34375e-05
9.35232e-05
9.41913e-05
9.53182e-05
9.6351e-05
9.72725e-05
9.81476e-05
9.93301e-05
9.86651e-05
9.69843e-05
9.598e-05
9.6827e-05
9.93169e-05
0.000103865
0.00010773
0.000112071
0.000118245
0.000127629
0.000145866
0.000210615
0.000316678
0.00033243
0.000297113
0.00022338
0.000162386
0.000130285
0.000118317
0.000112649
0.000107827
0.000103817
0.000100596
9.82792e-05
9.61687e-05
9.42577e-05
9.34512e-05
9.33638e-05
9.37937e-05
9.47627e-05
9.60157e-05
9.7114e-05
9.78391e-05
9.84075e-05
9.80792e-05
9.97232e-05
9.85234e-05
9.90653e-05
9.86003e-05
9.68225e-05
9.55328e-05
9.62595e-05
9.84365e-05
0.000102795
0.000106699
0.000110663
0.000116182
0.000125261
0.000137546
0.000178514
0.000292544
0.000340941
0.000322215
0.000254772
0.000185435
0.000141579
0.0001226
0.000115179
0.000110346
0.000105807
0.000102126
9.93283e-05
9.72099e-05
9.51786e-05
9.36515e-05
9.33407e-05
9.36454e-05
9.45687e-05
9.60004e-05
9.73324e-05
9.81486e-05
9.80551e-05
9.81874e-05
9.82734e-05
9.96828e-05
9.8651e-05
9.90818e-05
9.85399e-05
9.65889e-05
9.50665e-05
9.56667e-05
9.75512e-05
0.000101676
0.000105586
0.000109149
0.000114573
0.000122834
0.000132992
0.000158513
0.000248239
0.000337809
0.000337869
0.000292075
0.00021414
0.000157107
0.000129207
0.000118369
0.000112851
0.00010828
0.000104003
0.000100681
9.82334e-05
9.62538e-05
9.43596e-05
9.34415e-05
9.36089e-05
9.45235e-05
9.61021e-05
9.787e-05
9.84112e-05
9.89301e-05
9.87202e-05
9.92682e-05
9.97365e-05
9.83348e-05
9.86478e-05
9.85631e-05
9.96474e-05
9.88208e-05
9.91655e-05
9.84901e-05
9.63499e-05
9.47271e-05
9.50473e-05
9.66768e-05
0.000100492
0.000104455
0.000107789
0.000113091
0.000120486
0.000130756
0.000146792
0.000204328
0.000323373
0.00035326
0.000321467
0.000245731
0.000179221
0.000139171
0.000122395
0.000115738
0.00011085
0.000106424
0.000102373
9.94097e-05
9.72708e-05
9.54443e-05
9.38929e-05
9.36811e-05
9.45391e-05
9.62987e-05
9.88729e-05
9.97538e-05
0.000100583
0.000100212
9.96198e-05
0.000101254
0.000101167
9.87164e-05
9.93174e-05
9.88467e-05
9.96436e-05
9.90611e-05
9.93443e-05
9.8456e-05
9.61565e-05
9.44379e-05
9.42684e-05
9.57906e-05
9.92205e-05
0.000103294
0.000106576
0.000111477
0.000118559
0.000128878
0.000140198
0.000176415
0.000290369
0.000356877
0.000345558
0.000283116
0.000205062
0.000153594
0.000128892
0.000118782
0.000113823
0.000109078
0.000104666
0.000100941
9.83808e-05
9.65307e-05
9.48887e-05
9.4058e-05
9.46769e-05
9.67355e-05
9.95986e-05
0.00010142
0.000102168
0.000101364
0.000102477
0.000102648
0.000100896
0.00010295
0.000102926
9.91759e-05
0.00010022
9.91889e-05
9.96924e-05
9.93582e-05
9.95846e-05
9.84816e-05
9.60939e-05
9.42257e-05
9.35355e-05
9.48441e-05
9.78728e-05
0.000102025
0.000105438
0.00010969
0.000116944
0.000126665
0.000137208
0.000159491
0.000241072
0.000350455
0.000361919
0.000320142
0.000237808
0.000173047
0.000137888
0.000123246
0.000116795
0.000112183
0.000107328
0.000103093
9.98152e-05
9.76537e-05
9.60657e-05
9.50034e-05
9.51597e-05
9.71796e-05
0.000100772
0.000102922
0.000103577
0.000103558
0.00010456
0.000104102
0.000105323
0.000104684
0.000102292
0.000104969
0.000104597
9.97788e-05
0.000101385
9.96498e-05
9.97978e-05
9.97184e-05
9.98425e-05
9.86252e-05
9.62167e-05
9.42069e-05
9.29431e-05
9.39486e-05
9.65574e-05
0.000100648
0.000104267
0.000108135
0.000115478
0.000124459
0.000135771
0.000150003
0.000201405
0.000330302
0.000376874
0.000349997
0.000272019
0.000198203
0.00015108
0.000129424
0.000120385
0.000115372
0.000110634
0.00010572
0.000101866
9.90265e-05
9.73034e-05
9.61745e-05
9.60162e-05
9.81244e-05
0.000101624
0.000104294
0.000104971
0.000105392
0.000106218
0.000106339
0.000107263
0.000106271
0.0001076
0.000106882
0.000103751
0.000106764
0.000106183
0.000100587
0.000102614
0.000100242
9.99156e-05
0.000100208
0.000100144
9.89636e-05
9.67508e-05
9.45122e-05
9.25988e-05
9.32107e-05
9.53129e-05
9.92836e-05
0.000103081
0.000106782
0.000113734
0.000122616
0.000134086
0.000145132
0.000177121
0.000287576
0.00037655
0.000372014
0.000315397
0.000228271
0.000168618
0.000138231
0.000125071
0.000118992
0.000114167
0.000109184
0.000104474
0.000101054
9.88e-05
9.74734e-05
9.71154e-05
9.88761e-05
0.00010319
0.000105807
0.000106622
0.000106975
0.000107958
0.000108053
0.00010905
0.000108623
0.000109671
0.000108509
0.000109979
0.000108834
0.000105201
0.000108645
0.000108013
0.000101479
0.000103896
0.000100957
0.000100004
0.000100745
0.000100454
9.9717e-05
9.78183e-05
9.54554e-05
9.28058e-05
9.27385e-05
9.43129e-05
9.79332e-05
0.000101969
0.000105589
0.000111836
0.000121083
0.000132009
0.000143296
0.000163067
0.000236498
0.000365895
0.000391844
0.00035132
0.000264285
0.000192189
0.000150041
0.000131319
0.000123275
0.000118215
0.000113176
0.000108032
0.000103716
0.000100846
9.91437e-05
9.85476e-05
9.98407e-05
0.000103904
0.000107561
0.000108267
0.000108981
0.00011015
0.000109921
0.000111153
0.000110609
0.000111711
0.000111109
0.000112152
0.000110621
0.000111988
0.000110704
0.000106939
0.000110265
0.000109323
0.000102488
0.000105437
0.000101674
0.000100064
0.000101153
0.000100559
0.000100659
9.98547e-05
9.71071e-05
9.40101e-05
9.28843e-05
9.36822e-05
9.66285e-05
0.000100972
0.000104718
0.000110279
0.000119877
0.000129952
0.000142307
0.000155517
0.000201916
0.000337032
0.000403218
0.000382814
0.000305761
0.000220723
0.000166379
0.000139868
0.000128562
0.000122785
0.000117929
0.000112569
0.000107358
0.0001035
0.000101246
0.000100458
0.000101323
0.000105593
0.000109672
0.000111178
0.000111659
0.000114246
0.000113121
0.000116539
0.000113522
0.000117222
0.000113801
0.000117253
0.000113536
0.000116513
0.000112357
0.000114795
0.000112348
0.000107912
0.000111966
0.000111099
0.000103781
0.000106113
0.000102544
0.000100058
0.000101678
0.000100722
0.000102423
0.000103578
0.000100437
9.67381e-05
9.41253e-05
9.38158e-05
9.58186e-05
0.000100217
0.000104454
0.000109062
0.000118512
0.000128199
0.000140882
0.0001522
0.00018106
0.000286494
0.000399444
0.000404714
0.000352778
0.000256565
0.000187652
0.000150998
0.000135485
0.000128329
0.00012312
0.000118188
0.000112563
0.000107439
0.000104194
0.00010282
0.000103307
0.000107074
0.000114362
0.000118216
0.000118093
0.000125891
0.000122228
0.000133616
0.000124949
0.000141063
0.000125086
0.000144109
0.000123429
0.000141944
0.000120162
0.000134757
0.00011609
0.000125698
0.000117542
0.000109624
0.000118783
0.000119117
0.000104272
0.000107642
0.000102944
9.99854e-05
0.000101758
0.000100503
0.000104929
0.00010894
0.0001065
0.000101537
9.72616e-05
9.52136e-05
9.60531e-05
9.99349e-05
0.000104545
0.000108397
0.000117298
0.000127502
0.000138986
0.000151475
0.000169599
0.000236752
0.000382881
0.000428161
0.000389988
0.000297146
0.000215182
0.000166617
0.000143641
0.000135331
0.000129431
0.000124799
0.000119245
0.000113437
0.000108572
0.000106403
0.000106582
0.000115193
0.000127022
9.49664e-05
0.000138579
0.000166874
0.000157678
0.000213931
0.000178028
0.000265454
0.000190866
0.000310142
0.000190216
0.000322933
0.000176995
0.000299268
0.000155972
0.000248673
0.000134056
0.000191636
0.000146082
0.000117834
0.000158017
0.000165933
0.000105562
0.000114997
0.000103712
9.99041e-05
0.000101963
0.000100489
0.000107786
0.000116978
0.000116885
0.000110907
0.000103957
9.91575e-05
9.78627e-05
0.000100536
0.00010529
0.000108741
0.000116055
0.000127267
0.000136997
0.000150867
0.000163872
0.000206813
0.000344247
0.000434243
0.000422384
0.000348411
0.000249769
0.000186161
0.000155114
0.00014332
0.000137272
0.000132929
0.000128106
0.000121963
0.000116101
0.000112164
0.000113142
0.000140535
0.000371936
0.000216711
0.000376701
0.000315756
0.000551763
0.000456809
0.000857935
0.000590892
0.0011796
0.000653277
0.00139433
0.000627963
0.00142993
0.000529233
0.00126245
0.000385466
0.00094454
0.000247593
0.00060194
0.000315285
0.000167106
0.000376116
0.000415521
0.000111119
0.000160412
0.000107279
0.00010032
0.000103806
0.000102178
0.00011461
0.000135343
0.000140097
0.0001326
0.000120088
0.000109215
0.00010334
0.00010351
0.000107293
0.000110066
0.000115679
0.000127197
0.000136549
0.000149462
0.00016209
0.000189231
0.0002897
0.000427129
0.000447793
0.00039707
0.000290967
0.000212506
0.000169213
0.000153568
0.000146182
0.000142971
0.000139658
0.000134708
0.000127657
0.000121544
0.000129397
0.000212489
0.00079196
0.00216519
0.00301478
0.000866108
0.00148813
0.00144922
0.00233544
0.00206166
0.00318069
0.00252893
0.00384902
0.00274629
0.00419987
0.00268407
0.00427473
0.00229775
0.00404311
0.0015585
0.00340171
0.000851233
0.00227318
0.00108994
0.00042505
0.00127946
0.00138871
0.000147866
0.000403043
0.000133542
0.000101484
0.000120326
0.000114042
0.000128628
0.000173284
0.000192824
0.000186172
0.000164672
0.000139453
0.000120132
0.000112101
0.000111453
0.000113216
0.00011655
0.000127472
0.000136991
0.000147851
0.000161838
0.000180051
0.000244219
0.000404779
0.000472029
0.000437019
0.000341584
0.000244407
0.000188276
0.000165076
0.000156791
0.000153971
0.000154101
0.000150276
0.000144095
0.000141999
0.000181164
0.000432166
0.00159971
0.00381051
0.00495996
0.00556828
0.00660214
0.00337584
0.00449361
0.00441051
0.00564199
0.00516366
0.00639466
0.00559993
0.00687448
0.00577645
0.00710116
0.00568481
0.00711733
0.00526186
0.00689409
0.00439316
0.0063011
0.00292819
0.00522654
0.00344723
0.00141656
0.0038168
0.00403093
0.000358415
0.00137229
0.000308718
0.000105946
0.000267203
0.000262053
0.000125545
0.000192782
0.000237737
0.000266274
0.00026313
0.00022273
0.000172697
0.000137325
0.00012218
0.000119597
0.000119767
0.000128302
0.000138584
0.00014745
0.000161234
0.000175526
0.000217791
0.000356894
0.000473198
0.000470613
0.000400379
0.000286463
0.000212518
0.000178731
0.000169046
0.000167265
0.000168744
0.0001689
0.000170875
0.000201291
0.000370463
0.00101794
0.00332186
0.00581115
0.00672805
0.00752453
0.00845
0.00872429
0.00948858
0.00679567
0.00781581
0.00752838
0.0085199
0.00797018
0.00885813
0.00819512
0.0090217
0.00827489
0.00909877
0.00817356
0.0090837
0.00783067
0.00894086
0.00713078
0.00853668
0.00587758
0.00779113
0.00638219
0.00410391
0.00678609
0.00713592
0.00128258
0.00409428
0.00120267
0.000281437
0.00127975
0.00201951
0.000148604
0.000236826
0.000295215
0.000332919
0.000347195
0.000298696
0.000219763
0.000160269
0.000135623
0.000127763
0.000131219
0.000142018
0.000148376
0.000160941
0.000174658
0.000202572
0.000302378
0.000462472
0.000501945
0.0004518
0.000335335
0.000244305
0.000195368
0.000180696
0.000178856
0.000183271
0.000192405
0.000231073
0.000383232
0.000970812
0.00250621
0.0055872
0.00948701
0.00905019
0.0100739
0.0101307
0.0106282
0.0104852
0.0108556
0.00933503
0.00997411
0.00953985
0.0100321
0.00959746
0.00995535
0.00960427
0.00989298
0.00963984
0.00992759
0.00964173
0.0100117
0.00947825
0.0100484
0.00909009
0.00999272
0.0083108
0.00967519
0.00884436
0.00742493
0.00936784
0.00992511
0.00405006
0.00768451
0.00422796
0.00395187
0.00570849
0.00889648
0.000146012
0.000245378
0.000335994
0.000397113
0.000427946
0.000385796
0.000279602
0.000188058
0.000147878
0.000139725
0.000146545
0.000151453
0.000161256
0.000174944
0.000194838
0.000260119
0.00043153
0.000524249
0.000495317
0.00039952
0.000282803
0.000216243
0.000191819
0.000186988
0.000194613
0.000216902
0.000344455
0.000901161
0.00240378
0.00522402
0.00787851
0.0102107
0.0112107
0.0112797
0.0110122
0.0112339
0.0111369
0.0113354
0.01087
0.0109815
0.0103847
0.0106613
0.0101907
0.0103122
0.0100315
0.0100541
0.0100193
0.0100072
0.0101656
0.0102056
0.0104076
0.010639
0.0106205
0.0111862
0.0106373
0.0116285
0.0102978
0.0115654
0.0110425
0.0104096
0.0117428
0.012455
0.00800752
0.0108753
0.00875606
0.00193483
0.0100633
0.00957724
0.000131401
0.000231258
0.000356326
0.000458834
0.000509524
0.000476596
0.000331554
0.000206536
0.000161264
0.000154796
0.000157585
0.000163088
0.000175927
0.000192087
0.000236397
0.000379815
0.000522376
0.000534724
0.000463926
0.000333509
0.000245694
0.000203571
0.000195004
0.000202283
0.000232756
0.000471248
0.00169076
0.00477235
0.00807555
0.00950133
0.0102928
0.0109386
0.0113414
0.0110947
0.011452
0.011439
0.0110041
0.0109821
0.0103774
0.0103885
0.0103747
0.0103847
0.0100318
0.00999309
0.00996105
0.00990767
0.0102115
0.0102323
0.0108389
0.0111159
0.0118105
0.0124247
0.0126155
0.0139735
0.0129843
0.0150292
0.0126002
0.0148924
0.0137763
0.012932
0.0147469
0.0154222
0.0140091
0.0112517
0.0121578
0.0131024
0.0111995
0.00602965
0.0108187
0.0194761
0.000122759
0.000201568
0.000366839
0.00052701
0.000605131
0.000546188
0.000361263
0.000218786
0.000173976
0.000167512
0.000169172
0.000178627
0.000192392
0.000223919
0.000329547
0.000507124
0.000570869
0.000520861
0.000395569
0.000284026
0.00022115
0.000204034
0.000207881
0.000240902
0.000550819
0.00241037
0.0071712
0.010401
0.010689
0.0102157
0.00996773
0.0103509
0.0102014
0.0107026
0.0105343
0.0109261
0.0107962
0.0104173
0.0104386
0.0100551
0.0102024
0.00997725
0.00999064
0.00991111
0.00995464
0.0103031
0.0104683
0.0113834
0.0117132
0.0131938
0.0141551
0.0156459
0.0174431
0.0176453
0.0205479
0.0181489
0.022079
0.0168881
0.0209309
0.0186054
0.01632
0.018467
0.0155071
0.0140869
0.0155145
0.0170734
0.0194814
0.0190151
0.0173222
0.0119505
0.0127906
0.0130006
0.0140044
0.0124354
0.0113784
0.0120068
0.0187385
0.0137419
0.012357
0.0117851
0.0141429
0.0268337
0.0171374
0.000117005
0.000188651
0.000397963
0.000624318
0.000725275
0.00060886
0.000367014
0.000224732
0.000187113
0.000180029
0.000185348
0.000194529
0.000218277
0.000292172
0.000469114
0.000590568
0.000569047
0.000474889
0.000333859
0.000243387
0.000215044
0.000212783
0.000243205
0.000563418
0.00280742
0.00907275
0.0121254
0.0113725
0.0100097
0.00967746
0.0101372
0.00989635
0.0107637
0.0110061
0.0105436
0.0106244
0.010456
0.0104836
0.0104025
0.0106954
0.010823
0.0113623
0.0100811
0.0103684
0.0107899
0.0111875
0.0122173
0.0129754
0.0151534
0.0161836
0.0192007
0.0207944
0.023415
0.0258662
0.0231819
0.0249969
0.0265145
0.0281245
0.0230674
0.0255525
0.0271225
0.0295034
0.027422
0.0221388
0.0206578
0.0234028
0.0246843
0.021521
0.0172731
0.0153006
0.0170319
0.019553
0.0220159
0.0219634
0.0194736
0.0132787
0.0137201
0.0149507
0.0127722
0.0123071
0.00321183
0.0147175
0.0226212
0.0125444
0.0121397
0.0136176
0.0162618
0.000114615
0.000192142
0.000507571
0.000801473
0.000885179
0.000660846
0.000361025
0.000231556
0.000197469
0.000196048
0.000201014
0.000218037
0.000271481
0.000425831
0.000586778
0.00061661
0.000545715
0.000396635
0.000276904
0.000227123
0.000218997
0.000241336
0.000525222
0.0028368
0.0102669
0.0135835
0.0118803
0.0100043
0.0098608
0.0118668
0.0113815
0.0124647
0.0128122
0.0135358
0.0118512
0.0122771
0.0110629
0.0114525
0.0119563
0.0126353
0.0134204
0.0143671
0.0117607
0.0125478
0.0138557
0.0148179
0.01725
0.018418
0.0221747
0.0233336
0.027585
0.0284717
0.0291967
0.0302545
0.0308395
0.0313101
0.0290189
0.030482
0.0316162
0.0270077
0.0290901
0.0311541
0.0323229
0.0308741
0.025847
0.0240631
0.0264918
0.028144
0.0244566
0.0191714
0.0166068
0.0186709
0.0218842
0.0244981
0.024288
0.0215142
0.0144245
0.0137924
0.0159844
0.0131356
0.0125469
0.000666839
0.00784253
0.0177343
0.0122043
0.012361
0.0134014
0.0161212
0.000113374
0.000251289
0.000772417
0.00118288
0.0010868
0.000660696
0.000347123
0.000236534
0.000213025
0.000210859
0.000220935
0.000262425
0.000389183
0.000570781
0.000654718
0.000607764
0.000481419
0.000327143
0.000245082
0.00022788
0.000239888
0.00041465
0.00260471
0.0105996
0.0147975
0.0122404
0.0101363
0.0104623
0.0140945
0.0167075
0.0178375
0.0144546
0.0156595
0.0161654
0.0170347
0.0147218
0.0154088
0.0133498
0.0140519
0.015252
0.0160054
0.0175078
0.0179564
0.0158194
0.0167177
0.0194422
0.020213
0.0241555
0.0243276
0.0285374
0.0280495
0.0313579
0.0312279
0.0309246
0.0304273
0.0323474
0.0327264
0.0327614
0.0325667
0.0324085
0.0331831
0.033565
0.0301677
0.031744
0.0332935
0.0335349
0.0328403
0.0287604
0.0268561
0.0289762
0.0306225
0.0268262
0.0209302
0.0179712
0.020168
0.0238223
0.02652
0.0259324
0.0231442
0.0152108
0.014348
0.0170815
0.013466
0.0126795
0.00106607
0.0139185
0.00682712
0.0121743
0.0124412
0.0138005
0.0151577
0.000116299
0.000485366
0.00130387
0.00168274
0.00124085
0.00063536
0.000335307
0.000248915
0.000228973
0.000229114
0.000260945
0.000362871
0.000547003
0.000675313
0.000664501
0.000569684
0.000398529
0.000275572
0.000239797
0.000240991
0.000334468
0.00189423
0.0102681
0.0158394
0.0126855
0.0103936
0.011137
0.0143902
0.018346
0.0191552
0.0193173
0.0179058
0.0186622
0.0184717
0.0189418
0.0175179
0.0179673
0.016646
0.0171091
0.0181778
0.0182755
0.0197335
0.0193422
0.0203381
0.020133
0.0239157
0.023038
0.027257
0.0262159
0.0299074
0.0293945
0.0281909
0.0321519
0.0315577
0.0308414
0.0300166
0.0336292
0.0333889
0.0328582
0.0320671
0.0338429
0.0339649
0.0336846
0.0319411
0.0328185
0.0337607
0.032975
0.0331372
0.0305724
0.0287682
0.0301835
0.0316919
0.0282662
0.0222957
0.0192239
0.0213148
0.025127
0.0275662
0.0266627
0.0241726
0.016037
0.0148957
0.0181036
0.0137773
0.0128408
0.00123874
0.0122743
0.00654049
0.0124066
0.01305
0.0143339
0.0145459
0.000133424
0.000955865
0.00197469
0.00209381
0.00123017
0.000578209
0.00033341
0.000269416
0.00024771
0.00026577
0.00034777
0.000529198
0.000684369
0.000724289
0.000648318
0.000487394
0.000323156
0.000255191
0.000246318
0.000295673
0.00118447
0.0086862
0.0165562
0.0134317
0.0104853
0.0109705
0.013657
0.0164996
0.0169697
0.0147074
0.0195717
0.0188424
0.0194268
0.0196732
0.0190788
0.019222
0.0185664
0.0188007
0.0183244
0.018417
0.0189738
0.0186341
0.0196157
0.0185015
0.0219189
0.0207542
0.0247236
0.0229138
0.0267513
0.0251585
0.0292191
0.0285281
0.0255179
0.0260304
0.0311144
0.0300837
0.0290735
0.028125
0.0330212
0.032067
0.0309271
0.0297045
0.0335201
0.032789
0.0317212
0.0321981
0.0321954
0.0323063
0.0306826
0.031673
0.0310062
0.0294934
0.0300285
0.0312158
0.0285848
0.0231185
0.0202003
0.02199
0.0256319
0.0275388
0.0264323
0.0245099
0.0168014
0.0154137
0.0189115
0.0141359
0.0132332
0.00140966
0.0115758
0.00657437
0.013079
0.0139093
0.0147991
0.0143445
0.000185927
0.00164007
0.00264353
0.00227056
0.00114846
0.000516562
0.000341654
0.00029064
0.00028531
0.000348006
0.000522503
0.000691739
0.000772598
0.000721088
0.000592984
0.000391862
0.000279186
0.000256968
0.000281728
0.000706951
0.00605014
0.0166763
0.0147006
0.0106443
0.0104718
0.0118946
0.0112774
0.00602382
0.0117497
0.00718617
0.017355
0.0149523
0.019142
0.0186506
0.0176187
0.0171996
0.0179179
0.017797
0.0183433
0.0180954
0.0175308
0.0167259
0.0173823
0.0159814
0.0209733
0.0190848
0.0232429
0.0214291
0.0251491
0.0246818
0.0235503
0.0242572
0.0272973
0.026583
0.0242457
0.0244098
0.0284983
0.0273909
0.0264429
0.0256783
0.0304344
0.0290578
0.0277076
0.0264743
0.0312263
0.0298464
0.0283478
0.0309514
0.0301273
0.0293167
0.0273641
0.0288707
0.0300799
0.0289481
0.0288588
0.0295545
0.0278286
0.0233557
0.0207977
0.0222011
0.0252893
0.0266779
0.0255159
0.0241296
0.0174264
0.0158892
0.0194342
0.0146039
0.0138834
0.00144033
0.0114332
0.00693364
0.0139631
0.014701
0.0151372
0.014313
0.000338308
0.00247496
0.00315779
0.0022204
0.000985559
0.000489299
0.000363059
0.000332585
0.000370158
0.000531096
0.000708256
0.000812001
0.000800661
0.000693568
0.000486175
0.000322147
0.000269969
0.000278707
0.000471661
0.00361443
0.0160723
0.0163869
0.0110563
0.0103322
0.0107334
0.00740118
0.00312567
0.00188825
0.0013884
0.00513015
0.00286725
0.0117044
0.00817651
0.0162444
0.0144904
0.01389
0.012677
0.0150835
0.0145928
0.0160736
0.0155469
0.014828
0.013842
0.0163036
0.0149506
0.0196431
0.017887
0.0220718
0.0204861
0.0240781
0.0238372
0.0228989
0.0234713
0.0251011
0.0246901
0.0231248
0.0231413
0.0254156
0.0245678
0.0239382
0.02351
0.0268722
0.0255316
0.0243838
0.0234542
0.0277592
0.0261828
0.0247269
0.0285167
0.0271465
0.0257518
0.0239647
0.0255762
0.0281459
0.0276097
0.0268489
0.0270287
0.0264016
0.0229881
0.0210056
0.0218764
0.0243611
0.0252653
0.0241803
0.0232321
0.0178611
0.0163141
0.0196461
0.015167
0.0146431
0.00121014
0.0117415
0.00772806
0.0147907
0.0152818
0.0153295
0.0143188
0.00083166
0.00335015
0.00332686
0.00203957
0.000861794
0.000496838
0.000409108
0.000425638
0.00057374
0.000749552
0.000862546
0.000882871
0.000788783
0.000609762
0.000396808
0.000292808
0.000281488
0.000375464
0.00198157
0.0133174
0.0178692
0.0116802
0.0104012
0.0104548
0.00649132
0.00244979
0.00104157
0.000953409
0.000817891
0.0018747
0.00121973
0.00520279
0.00312654
0.0106496
0.00790473
0.00883784
0.00704401
0.0111803
0.0101832
0.0129464
0.012062
0.0137714
0.0127073
0.0159794
0.0148807
0.0188322
0.0172859
0.0213535
0.0202819
0.0195013
0.0185214
0.0230591
0.0228803
0.0219421
0.0225124
0.0232708
0.0231776
0.0219332
0.0218873
0.0227401
0.0222354
0.0219341
0.0218001
0.0234741
0.0224448
0.0216177
0.0209895
0.0241879
0.022802
0.0216344
0.0256008
0.024024
0.022455
0.0209902
0.0224451
0.0256919
0.0256548
0.0245131
0.0242662
0.0245494
0.0221467
0.0207441
0.0211086
0.0231158
0.0235353
0.0225371
0.0220577
0.0180872
0.0166932
0.0195104
0.0157549
0.0153598
0.00122225
0.0123368
0.00996318
0.0154248
0.0156189
0.0153378
0.0141992
0.00181439
0.00407775
0.00322987
0.00175689
0.000830957
0.00055371
0.000526256
0.000646645
0.000838468
0.000951995
0.000980416
0.000900576
0.000743299
0.000509934
0.000340438
0.000294095
0.000337449
0.00110878
0.00908651
0.0182696
0.0125667
0.0106914
0.0106721
0.00702628
0.00279334
0.00116623
0.000726558
0.000803925
0.000744159
0.000720454
0.00102945
0.000831168
0.00208836
0.00139971
0.00503577
0.0032785
0.0055382
0.00388283
0.00900085
0.00732723
0.0116446
0.0104429
0.0138601
0.0128912
0.0157484
0.0150283
0.0178987
0.0171972
0.0162205
0.0196509
0.0186328
0.0176704
0.0169474
0.0218964
0.021699
0.0205523
0.0212645
0.0217635
0.0218072
0.0206931
0.0206057
0.0205588
0.0203278
0.0202318
0.0202133
0.0206558
0.0198925
0.0193275
0.0189382
0.0211379
0.0200047
0.0190684
0.0227041
0.0211642
0.0197272
0.0185679
0.0197731
0.0231029
0.0234535
0.0220778
0.0215763
0.0224929
0.0210796
0.0201206
0.0202191
0.0215042
0.0215444
0.0205425
0.0205615
0.0181733
0.0170278
0.0191493
0.016299
0.0159164
0.0101037
0.0129902
0.0145477
0.0158047
0.0157123
0.0151449
0.0137461
0.00342471
0.00426215
0.00292712
0.00164266
0.000902179
0.000748577
0.000822255
0.0010121
0.00112504
0.00112687
0.00104226
0.000880431
0.000653159
0.000436167
0.00032366
0.000329904
0.000690323
0.00540869
0.0178683
0.0146368
0.0111818
0.011641
0.00913648
0.00446181
0.00166335
0.000840502
0.000675819
0.000692933
0.000689537
0.000665299
0.00090185