/*--------------------------------*- C++ -*----------------------------------*\
  =========                 |
  \\      /  F ield         | OpenFOAM: The Open Source CFD Toolbox
   \\    /   O peration     | Website:  https://openfoam.org
    \\  /    A nd           | Version:  dev
     \\/     M anipulation  |
\*---------------------------------------------------------------------------*/
FoamFile
{
    version     2.0;
    format      ascii;
    class       volScalarField;
    location    "2500";
    object      N2;
}
// * * * * * * * * * * * * * * * * * * * * * * * * * * * * * * * * * * * * * //

dimensions      [0 0 0 0 0 0 0];

internalField   nonuniform List<scalar> 
9978
(
0.76699
0.76699
0.76699
0.76699
0.76699
0.76699
0.76699
0.76699
0.76699
0.76699
0.76699
0.76699
0.76699
0.76699
0.76699
0.76699
0.76699
0.76699
0.76699
0.76699
0.76699
0.76699
0.76699
0.76699
0.76699
0.76699
0.76699
0.76699
0.76699
0.76699
0.76699
0.76699
0.76699
0.76699
0.76699
0.76699
0.76699
0.76699
0.76699
0.76699
0.76699
0.76699
0.76699
0.76699
0.76699
0.76699
0.76699
0.76699
0.76699
0.76699
0.76699
0.76699
0.76699
0.76699
0.76699
0.76699
0.76699
0.76699
0.76699
0.76699
0.76699
0.76699
0.76699
0.76699
0.76699
0.76699
0.76699
0.76699
0.76699
0.76699
0.76699
0.76699
0.76699
0.76699
0.76699
0.76699
0.76699
0.76699
0.76699
0.76699
0.76699
0.76699
0.76699
0.76699
0.76699
0.76699
0.76699
0.76699
0.76699
0.76699
0.76699
0.76699
0.76699
0.76699
0.76699
0.76699
0.76699
0.76699
0.76699
0.76699
0.76699
0.76699
0.76699
0.76699
0.76699
0.76699
0.76699
0.76699
0.76699
0.76699
0.76699
0.76699
0.76699
0.76699
0.76699
0.76699
0.76699
0.76699
0.76699
0.76699
0.76699
0.76699
0.76699
0.76699
0.76699
0.76699
0.76699
0.76699
0.76699
0.76699
0.76699
0.76699
0.76699
0.76699
0.76699
0.76699
0.76699
0.76699
0.76699
0.76699
0.76699
0.76699
0.76699
0.76699
0.76699
0.76699
0.76699
0.76699
0.76699
0.76699
0.76699
0.76699
0.76699
0.76699
0.76699
0.76699
0.76699
0.76699
0.76699
0.76699
0.76699
0.76699
0.76699
0.76699
0.76699
0.76699
0.76699
0.76699
0.76699
0.76699
0.76699
0.76699
0.76699
0.76699
0.76699
0.76699
0.76699
0.76699
0.76699
0.76699
0.76699
0.76699
0.76699
0.76699
0.76699
0.76699
0.76699
0.76699
0.76699
0.76699
0.76699
0.76699
0.76699
0.76699
0.76699
0.76699
0.76699
0.76699
0.76699
0.76699
0.76699
0.76699
0.76699
0.76699
0.76699
0.76699
0.76699
0.76699
0.76699
0.76699
0.76699
0.76699
0.76699
0.76699
0.76699
0.76699
0.76699
0.76699
0.76699
0.76699
0.76699
0.76699
0.76699
0.76699
0.76699
0.76699
0.76699
0.76699
0.76699
0.76699
0.76699
0.76699
0.76699
0.76699
0.76699
0.76699
0.76699
0.76699
0.76699
0.76699
0.76699
0.76699
0.76699
0.76699
0.76699
0.76699
0.76699
0.76699
0.76699
0.76699
0.76699
0.76699
0.76699
0.76699
0.76699
0.76699
0.76699
0.76699
0.76699
0.76699
0.76699
0.76699
0.76699
0.76699
0.76699
0.76699
0.76699
0.76699
0.76699
0.76699
0.76699
0.76699
0.76699
0.76699
0.76699
0.76699
0.76699
0.76699
0.76699
0.76699
0.76699
0.76699
0.76699
0.76699
0.76699
0.76699
0.76699
0.76699
0.76699
0.76699
0.76699
0.76699
0.76699
0.76699
0.76699
0.76699
0.76699
0.76699
0.76699
0.76699
0.76699
0.76699
0.76699
0.76699
0.76699
0.76699
0.76699
0.76699
0.76699
0.76699
0.76699
0.76699
0.76699
0.76699
0.76699
0.76699
0.76699
0.76699
0.76699
0.76699
0.76699
0.76699
0.76699
0.76699
0.76699
0.76699
0.76699
0.76699
0.76699
0.76699
0.76699
0.76699
0.76699
0.76699
0.76699
0.76699
0.76699
0.76699
0.76699
0.76699
0.76699
0.76699
0.76699
0.76699
0.76699
0.76699
0.76699
0.76699
0.76699
0.76699
0.76699
0.76699
0.76699
0.76699
0.76699
0.76699
0.76699
0.76699
0.76699
0.76699
0.76699
0.76699
0.76699
0.76699
0.76699
0.76699
0.76699
0.76699
0.76699
0.76699
0.76699
0.76699
0.76699
0.76699
0.76699
0.76699
0.76699
0.76699
0.76699
0.76699
0.76699
0.76699
0.76699
0.76699
0.76699
0.76699
0.76699
0.76699
0.76699
0.76699
0.76699
0.76699
0.76699
0.76699
0.76699
0.76699
0.76699
0.76699
0.76699
0.76699
0.76699
0.76699
0.76699
0.76699
0.76699
0.76699
0.76699
0.76699
0.76699
0.76699
0.76699
0.76699
0.76699
0.76699
0.76699
0.76699
0.76699
0.76699
0.76699
0.76699
0.76699
0.76699
0.76699
0.76699
0.76699
0.76699
0.76699
0.76699
0.76699
0.76699
0.76699
0.76699
0.76699
0.76699
0.76699
0.76699
0.76699
0.76699
0.76699
0.76699
0.76699
0.76699
0.76699
0.76699
0.76699
0.76699
0.76699
0.76699
0.76699
0.76699
0.76699
0.76699
0.76699
0.76699
0.76699
0.76699
0.76699
0.76699
0.76699
0.76699
0.76699
0.76699
0.76699
0.76699
0.76699
0.76699
0.76699
0.76699
0.76699
0.76699
0.76699
0.76699
0.76699
0.76699
0.76699
0.76699
0.76699
0.76699
0.76699
0.76699
0.76699
0.76699
0.76699
0.76699
0.76699
0.76699
0.76699
0.76699
0.76699
0.76699
0.76699
0.76699
0.76699
0.76699
0.76699
0.76699
0.76699
0.76699
0.76699
0.76699
0.76699
0.76699
0.76699
0.76699
0.76699
0.76699
0.76699
0.76699
0.76699
0.76699
0.76699
0.76699
0.76699
0.76699
0.76699
0.76699
0.76699
0.76699
0.76699
0.76699
0.76699
0.76699
0.76699
0.76699
0.76699
0.76699
0.76699
0.76699
0.76699
0.76699
0.76699
0.76699
0.76699
0.76699
0.76699
0.76699
0.76699
0.76699
0.76699
0.76699
0.76699
0.76699
0.76699
0.76699
0.76699
0.76699
0.76699
0.76699
0.76699
0.76699
0.76699
0.76699
0.76699
0.76699
0.76699
0.76699
0.76699
0.76699
0.76699
0.76699
0.76699
0.76699
0.76699
0.76699
0.76699
0.76699
0.76699
0.76699
0.76699
0.76699
0.76699
0.76699
0.76699
0.76699
0.76699
0.76699
0.76699
0.76699
0.76699
0.76699
0.76699
0.76699
0.76699
0.76699
0.76699
0.76699
0.76699
0.76699
0.76699
0.76699
0.76699
0.76699
0.76699
0.76699
0.76699
0.76699
0.76699
0.76699
0.76699
0.76699
0.76699
0.76699
0.76699
0.76699
0.76699
0.76699
0.76699
0.76699
0.76699
0.76699
0.76699
0.76699
0.76699
0.76699
0.76699
0.76699
0.76699
0.76699
0.76699
0.76699
0.76699
0.76699
0.76699
0.76699
0.76699
0.76699
0.76699
0.76699
0.76699
0.76699
0.76699
0.76699
0.76699
0.76699
0.76699
0.76699
0.76699
0.76699
0.76699
0.76699
0.76699
0.76699
0.76699
0.76699
0.76699
0.76699
0.76699
0.76699
0.76699
0.76699
0.76699
0.76699
0.76699
0.76699
0.76699
0.76699
0.76699
0.76699
0.76699
0.76699
0.76699
0.76699
0.76699
0.76699
0.76699
0.76699
0.76699
0.76699
0.76699
0.76699
0.76699
0.76699
0.76699
0.76699
0.76699
0.76699
0.76699
0.76699
0.76699
0.76699
0.76699
0.76699
0.76699
0.76699
0.76699
0.76699
0.76699
0.76699
0.76699
0.76699
0.76699
0.76699
0.76699
0.76699
0.76699
0.76699
0.76699
0.76699
0.76699
0.76699
0.76699
0.76699
0.76699
0.76699
0.76699
0.76699
0.76699
0.76699
0.76699
0.76699
0.76699
0.76699
0.76699
0.76699
0.76699
0.76699
0.76699
0.76699
0.76699
0.76699
0.76699
0.76699
0.76699
0.76699
0.76699
0.76699
0.76699
0.76699
0.76699
0.76699
0.76699
0.76699
0.76699
0.76699
0.76699
0.76699
0.76699
0.76699
0.76699
0.76699
0.76699
0.76699
0.76699
0.76699
0.76699
0.76699
0.76699
0.76699
0.76699
0.76699
0.76699
0.76699
0.76699
0.76699
0.76699
0.76699
0.76699
0.76699
0.76699
0.76699
0.76699
0.76699
0.76699
0.76699
0.76699
0.76699
0.76699
0.76699
0.76699
0.76699
0.76699
0.76699
0.76699
0.76699
0.76699
0.76699
0.76699
0.76699
0.76699
0.76699
0.76699
0.76699
0.76699
0.76699
0.76699
0.76699
0.76699
0.76699
0.76699
0.76699
0.76699
0.76699
0.76699
0.76699
0.76699
0.76699
0.76699
0.76699
0.76699
0.76699
0.76699
0.76699
0.76699
0.76699
0.76699
0.76699
0.76699
0.76699
0.76699
0.76699
0.76699
0.76699
0.76699
0.76699
0.76699
0.76699
0.76699
0.76699
0.76699
0.76699
0.76699
0.76699
0.76699
0.76699
0.76699
0.76699
0.76699
0.76699
0.76699
0.76699
0.76699
0.76699
0.76699
0.76699
0.76699
0.76699
0.76699
0.76699
0.76699
0.76699
0.76699
0.76699
0.76699
0.76699
0.76699
0.76699
0.76699
0.76699
0.76699
0.76699
0.76699
0.76699
0.76699
0.76699
0.76699
0.76699
0.76699
0.76699
0.76699
0.76699
0.76699
0.76699
0.76699
0.76699
0.76699
0.76699
0.76699
0.76699
0.76699
0.76699
0.76699
0.76699
0.76699
0.76699
0.76699
0.76699
0.76699
0.76699
0.76699
0.76699
0.76699
0.76699
0.76699
0.76699
0.76699
0.76699
0.76699
0.76699
0.76699
0.76699
0.76699
0.76699
0.76699
0.76699
0.76699
0.76699
0.76699
0.76699
0.76699
0.76699
0.76699
0.76699
0.76699
0.76699
0.76699
0.76699
0.76699
0.76699
0.76699
0.76699
0.76699
0.76699
0.76699
0.76699
0.76699
0.76699
0.76699
0.76699
0.76699
0.76699
0.76699
0.76699
0.76699
0.76699
0.76699
0.76699
0.76699
0.76699
0.76699
0.76699
0.76699
0.76699
0.76699
0.76699
0.76699
0.76699
0.76699
0.76699
0.76699
0.76699
0.76699
0.76699
0.76699
0.76699
0.76699
0.76699
0.76699
0.76699
0.76699
0.76699
0.76699
0.76699
0.76699
0.76699
0.76699
0.76699
0.76699
0.76699
0.76699
0.76699
0.76699
0.76699
0.76699
0.76699
0.76699
0.76699
0.76699
0.76699
0.76699
0.76699
0.76699
0.76699
0.76699
0.76699
0.76699
0.76699
0.76699
0.76699
0.76699
0.76699
0.76699
0.76699
0.76699
0.76699
0.76699
0.76699
0.76699
0.76699
0.76699
0.76699
0.76699
0.76699
0.76699
0.76699
0.76699
0.76699
0.76699
0.76699
0.76699
0.76699
0.76699
0.76699
0.76699
0.76699
0.76699
0.76699
0.76699
0.76699
0.76699
0.76699
0.76699
0.76699
0.76699
0.76699
0.76699
0.76699
0.76699
0.76699
0.76699
0.76699
0.76699
0.76699
0.76699
0.76699
0.76699
0.76699
0.76699
0.76699
0.76699
0.76699
0.76699
0.76699
0.76699
0.76699
0.76699
0.76699
0.76699
0.76699
0.76699
0.76699
0.76699
0.76699
0.76699
0.76699
0.76699
0.76699
0.76699
0.76699
0.76699
0.76699
0.76699
0.76699
0.76699
0.76699
0.76699
0.76699
0.76699
0.76699
0.76699
0.76699
0.76699
0.76699
0.76699
0.76699
0.76699
0.76699
0.76699
0.76699
0.76699
0.76699
0.76699
0.76699
0.76699
0.76699
0.76699
0.76699
0.76699
0.76699
0.76699
0.76699
0.76699
0.76699
0.76699
0.76699
0.76699
0.76699
0.76699
0.76699
0.76699
0.76699
0.76699
0.76699
0.76699
0.76699
0.76699
0.76699
0.76699
0.76699
0.766989
0.76699
0.766989
0.766989
0.766989
0.766989
0.766988
0.766989
0.766988
0.766989
0.766988
0.76699
0.766989
0.76699
0.766989
0.76699
0.76699
0.766989
0.766989
0.76699
0.76699
0.76699
0.76699
0.76699
0.76699
0.76699
0.76699
0.76699
0.76699
0.76699
0.76699
0.76699
0.76699
0.76699
0.76699
0.76699
0.76699
0.76699
0.76699
0.76699
0.76699
0.76699
0.76699
0.76699
0.76699
0.76699
0.76699
0.76699
0.76699
0.76699
0.76699
0.76699
0.76699
0.76699
0.76699
0.76699
0.766989
0.766989
0.766988
0.766988
0.766987
0.766987
0.766984
0.766986
0.76698
0.766985
0.766977
0.766985
0.766976
0.766986
0.766977
0.766987
0.76698
0.766988
0.766984
0.766987
0.766989
0.766985
0.766984
0.76699
0.766989
0.76699
0.76699
0.76699
0.76699
0.76699
0.76699
0.76699
0.76699
0.76699
0.76699
0.76699
0.76699
0.76699
0.76699
0.76699
0.76699
0.76699
0.76699
0.76699
0.76699
0.76699
0.76699
0.76699
0.76699
0.76699
0.76699
0.76699
0.76699
0.76699
0.76699
0.76699
0.76699
0.76699
0.76699
0.76699
0.766988
0.766974
0.766984
0.766975
0.766978
0.766966
0.766969
0.766947
0.766959
0.766925
0.766954
0.766909
0.766954
0.766902
0.766959
0.766908
0.766968
0.766926
0.766978
0.766949
0.766971
0.766983
0.766963
0.766957
0.766989
0.766984
0.76699
0.76699
0.76699
0.76699
0.76699
0.76699
0.76699
0.76699
0.76699
0.76699
0.76699
0.76699
0.76699
0.76699
0.76699
0.76699
0.76699
0.76699
0.76699
0.76699
0.76699
0.76699
0.76699
0.76699
0.76699
0.76699
0.76699
0.76699
0.76699
0.76699
0.76699
0.76699
0.76699
0.76699
0.766989
0.766983
0.766952
0.76689
0.766853
0.76695
0.766923
0.766917
0.766874
0.766878
0.766818
0.766842
0.766762
0.766818
0.76672
0.766811
0.766693
0.766827
0.76669
0.766873
0.766722
0.766924
0.766804
0.766896
0.766954
0.766869
0.766848
0.766985
0.766955
0.766987
0.76699
0.766988
0.766989
0.76699
0.76699
0.76699
0.76699
0.76699
0.76699
0.76699
0.76699
0.76699
0.76699
0.76699
0.76699
0.76699
0.76699
0.76699
0.76699
0.76699
0.76699
0.76699
0.76699
0.76699
0.76699
0.76699
0.76699
0.76699
0.76699
0.76699
0.76699
0.76699
0.766989
0.766986
0.76697
0.766911
0.766812
0.766764
0.766719
0.766663
0.766825
0.766772
0.766751
0.766679
0.766677
0.76659
0.766614
0.766507
0.766566
0.766437
0.76654
0.766384
0.766546
0.766359
0.766603
0.766382
0.766726
0.766476
0.766652
0.766836
0.766582
0.766534
0.76696
0.766837
0.766968
0.76699
0.766977
0.766983
0.76699
0.76699
0.76699
0.76699
0.76699
0.76699
0.76699
0.76699
0.76699
0.76699
0.76699
0.76699
0.76699
0.76699
0.76699
0.76699
0.76699
0.76699
0.76699
0.76699
0.76699
0.76699
0.76699
0.76699
0.76699
0.76699
0.76699
0.76699
0.766989
0.766986
0.766975
0.766937
0.766828
0.766703
0.766683
0.766609
0.766548
0.766474
0.766409
0.766609
0.76654
0.766502
0.766414
0.7664
0.766295
0.766307
0.766179
0.766227
0.766075
0.766171
0.765987
0.766156
0.76593
0.766205
0.765936
0.766342
0.766027
0.766225
0.766505
0.766119
0.766043
0.766851
0.766504
0.766876
0.76698
0.766901
0.766899
0.76699
0.76699
0.76699
0.76699
0.76699
0.76699
0.76699
0.76699
0.76699
0.76699
0.76699
0.76699
0.76699
0.76699
0.76699
0.76699
0.76699
0.76699
0.76699
0.76699
0.76699
0.76699
0.76699
0.76699
0.76699
0.76699
0.76699
0.766988
0.766978
0.766942
0.766858
0.766713
0.766457
0.766499
0.766399
0.766347
0.766279
0.76617
0.766095
0.766329
0.766248
0.766189
0.766086
0.766054
0.765934
0.765926
0.765782
0.765808
0.76564
0.765717
0.765515
0.765673
0.765426
0.765707
0.765412
0.765849
0.765495
0.765702
0.76599
0.765578
0.765495
0.766533
0.765972
0.766582
0.766759
0.766581
0.766368
0.76699
0.76699
0.76699
0.76699
0.76699
0.76699
0.76699
0.76699
0.76699
0.76699
0.76699
0.76699
0.76699
0.76699
0.76699
0.76699
0.76699
0.76699
0.76699
0.76699
0.76699
0.76699
0.76699
0.76699
0.76699
0.76699
0.766985
0.766957
0.766872
0.766739
0.766577
0.76632
0.76607
0.766062
0.766216
0.766153
0.766024
0.765948
0.765806
0.765721
0.765988
0.765894
0.765814
0.765697
0.765645
0.765513
0.76548
0.765329
0.765325
0.765153
0.765204
0.765002
0.765134
0.764897
0.765154
0.764874
0.765292
0.764947
0.76514
0.765433
0.765028
0.764971
0.76598
0.765399
0.765979
0.766817
0.765849
0.76597
0.76699
0.76699
0.76699
0.76699
0.76699
0.76699
0.76699
0.76699
0.76699
0.76699
0.76699
0.76699
0.76699
0.76699
0.76699
0.76699
0.76699
0.76699
0.76699
0.76699
0.76699
0.76699
0.76699
0.76699
0.76699
0.766982
0.76693
0.766784
0.766596
0.766421
0.766175
0.765727
0.765752
0.765624
0.76588
0.765807
0.765641
0.765559
0.765388
0.765298
0.765588
0.765485
0.765384
0.76526
0.765187
0.765054
0.764996
0.764853
0.764824
0.764675
0.764705
0.764562
0.764683
0.764548
0.764724
0.764589
0.764828
0.764658
0.764762
0.764918
0.76473
0.764699
0.764793
0.765358
0.765118
0.764901
0.765295
0.766592
0.76532
0.765312
0.76699
0.76699
0.76699
0.766989
0.766989
0.766989
0.76699
0.76699
0.76699
0.76699
0.76699
0.76699
0.76699
0.76699
0.76699
0.76699
0.76699
0.76699
0.76699
0.76699
0.76699
0.76699
0.76699
0.76699
0.766981
0.76691
0.766697
0.766436
0.76622
0.765989
0.765606
0.765227
0.765158
0.765354
0.765285
0.765485
0.765415
0.765214
0.765131
0.764942
0.764858
0.765147
0.76504
0.764926
0.764805
0.764724
0.764602
0.764548
0.764434
0.764448
0.764352
0.764447
0.764363
0.764497
0.764431
0.764574
0.764514
0.764647
0.764594
0.764609
0.764677
0.764655
0.764702
0.764757
0.764674
0.764668
0.764677
0.764671
0.764669
0.76507
0.76486
0.764903
0.764729
0.764858
0.765063
0.764844
0.765993
0.765035
0.764815
0.764849
0.764759
0.764968
0.764699
0.76699
0.76699
0.766989
0.766988
0.766988
0.766989
0.76699
0.76699
0.76699
0.76699
0.76699
0.76699
0.76699
0.76699
0.76699
0.76699
0.76699
0.76699
0.76699
0.76699
0.76699
0.76699
0.76699
0.766981
0.766904
0.766636
0.766278
0.76599
0.76572
0.765348
0.765095
0.765021
0.764853
0.764808
0.764946
0.764895
0.765059
0.764999
0.764777
0.764708
0.764519
0.764457
0.764701
0.7646
0.764488
0.764387
0.764331
0.764239
0.764265
0.764187
0.764286
0.764212
0.764367
0.764298
0.764478
0.764456
0.764431
0.764401
0.764581
0.764572
0.76449
0.764542
0.76456
0.764625
0.764646
0.764656
0.764622
0.764677
0.764664
0.764654
0.764651
0.764686
0.764739
0.764707
0.764699
0.764689
0.764705
0.764627
0.764677
0.764667
0.766987
0.766464
0.765148
0.764608
0.764648
0.764554
0.764663
0.76699
0.766989
0.766988
0.766985
0.766986
0.766988
0.76699
0.76699
0.76699
0.76699
0.76699
0.76699
0.76699
0.76699
0.76699
0.76699
0.76699
0.76699
0.76699
0.76699
0.76699
0.76699
0.766983
0.766906
0.766613
0.766164
0.765782
0.765438
0.765143
0.764864
0.764782
0.764736
0.764603
0.764615
0.764602
0.764598
0.764657
0.764621
0.764412
0.764402
0.764235
0.76424
0.764309
0.764257
0.764174
0.764134
0.764123
0.764083
0.764145
0.764097
0.764228
0.764165
0.764371
0.764335
0.7643
0.764263
0.764467
0.764437
0.764403
0.76462
0.764613
0.764514
0.764566
0.764596
0.76467
0.764699
0.764725
0.764678
0.76475
0.764706
0.764631
0.764702
0.764774
0.764801
0.764854
0.764803
0.764598
0.76457
0.7646
0.764547
0.764523
0.766965
0.766618
0.765554
0.764493
0.764457
0.764478
0.764776
0.76699
0.766988
0.766983
0.766979
0.766982
0.766988
0.76699
0.76699
0.76699
0.76699
0.76699
0.76699
0.76699
0.76699
0.76699
0.76699
0.76699
0.76699
0.76699
0.76699
0.76699
0.766987
0.76692
0.766618
0.766109
0.765641
0.765359
0.765148
0.764926
0.76474
0.764811
0.764642
0.764675
0.764529
0.764577
0.764454
0.76449
0.764407
0.764424
0.764258
0.764295
0.764151
0.764195
0.764122
0.764129
0.764068
0.764073
0.764065
0.764065
0.764114
0.764097
0.764231
0.764203
0.764181
0.764167
0.764367
0.76433
0.764294
0.764261
0.76448
0.764442
0.764403
0.764673
0.764655
0.764528
0.764577
0.76462
0.764741
0.764787
0.764808
0.764739
0.764852
0.764821
0.764682
0.764822
0.764904
0.764919
0.764984
0.764945
0.764561
0.764519
0.764642
0.764474
0.764433
0.766927
0.765684
0.766447
0.764396
0.764382
0.764468
0.764858
0.76699
0.766983
0.766971
0.766965
0.766978
0.766987
0.76699
0.76699
0.76699
0.76699
0.76699
0.76699
0.76699
0.76699
0.76699
0.76699
0.76699
0.76699
0.76699
0.76699
0.766989
0.766948
0.766651
0.76611
0.765638
0.765387
0.76522
0.76511
0.765198
0.764849
0.765091
0.764638
0.764733
0.764585
0.764678
0.764446
0.76451
0.76434
0.76439
0.764256
0.76433
0.764216
0.764311
0.764092
0.764138
0.764084
0.764135
0.764118
0.764162
0.764162
0.764165
0.764197
0.764235
0.764218
0.764209
0.764207
0.764364
0.764328
0.764297
0.764274
0.764485
0.764442
0.764401
0.764716
0.764678
0.76453
0.764577
0.764629
0.764807
0.764879
0.764878
0.764782
0.764951
0.764971
0.764797
0.764974
0.765045
0.765023
0.765093
0.765096
0.764586
0.764519
0.764745
0.76445
0.764388
0.766874
0.765613
0.766307
0.764345
0.76435
0.764473
0.76488
0.766989
0.76697
0.766951
0.766951
0.766975
0.766987
0.766989
0.76699
0.76699
0.76699
0.76699
0.76699
0.76699
0.76699
0.76699
0.76699
0.76699
0.76699
0.76699
0.76699
0.76697
0.766736
0.766151
0.765669
0.765468
0.765412
0.765547
0.765904
0.765715
0.766048
0.765159
0.765427
0.764798
0.764957
0.764797
0.764938
0.764583
0.764682
0.76441
0.764494
0.764414
0.76452
0.764431
0.764551
0.76422
0.764319
0.764222
0.76429
0.764216
0.764235
0.76421
0.764214
0.764167
0.764194
0.76426
0.764252
0.764247
0.764241
0.764365
0.764336
0.764314
0.764298
0.764483
0.76444
0.764404
0.764738
0.764684
0.764527
0.764572
0.764627
0.764849
0.764951
0.764921
0.764801
0.765026
0.765129
0.764945
0.765134
0.76516
0.765101
0.765175
0.765217
0.764666
0.76457
0.764879
0.764469
0.764379
0.766831
0.765556
0.766224
0.764323
0.764335
0.764469
0.764875
0.766987
0.76695
0.766926
0.766942
0.766975
0.766987
0.766989
0.76699
0.76699
0.76699
0.76699
0.76699
0.76699
0.76699
0.76699
0.76699
0.76699
0.76699
0.76699
0.766982
0.766831
0.766265
0.765742
0.765581
0.765678
0.766075
0.766489
0.766704
0.766243
0.766596
0.765603
0.765915
0.765114
0.765335
0.76514
0.765328
0.764854
0.764986
0.764627
0.764737
0.764674
0.764799
0.764575
0.764704
0.764371
0.764465
0.764246
0.764286
0.764139
0.764102
0.764048
0.764073
0.764231
0.764218
0.764
0.764064
0.764284
0.764268
0.764247
0.76422
0.764375
0.76435
0.764327
0.7643
0.764481
0.764442
0.764408
0.764742
0.76468
0.764522
0.764562
0.76462
0.764869
0.764996
0.764942
0.764806
0.765074
0.765261
0.765098
0.765274
0.765244
0.765154
0.765236
0.765306
0.764779
0.764654
0.765021
0.764519
0.764395
0.766846
0.765488
0.766175
0.764316
0.764321
0.764451
0.764834
0.766981
0.766923
0.766904
0.76694
0.766976
0.766987
0.766989
0.766989
0.76699
0.76699
0.76699
0.76699
0.76699
0.76699
0.76699
0.76699
0.76699
0.76699
0.766987
0.766907
0.76643
0.76584
0.765669
0.765896
0.766427
0.766757
0.766902
0.766932
0.766965
0.766708
0.766867
0.766148
0.766465
0.765558
0.765832
0.765578
0.765814
0.765214
0.765382
0.764929
0.765065
0.76485
0.765014
0.764544
0.764683
0.76435
0.764433
0.763935
0.763959
0.763937
0.76388
0.763804
0.763835
0.76418
0.764127
0.763729
0.763816
0.764266
0.764221
0.764161
0.764088
0.764375
0.764338
0.764293
0.764235
0.764476
0.764431
0.764385
0.764739
0.764672
0.764506
0.764536
0.764605
0.764875
0.76502
0.764952
0.764804
0.765103
0.765355
0.765239
0.765376
0.76531
0.765189
0.765276
0.765374
0.764903
0.764752
0.76515
0.764584
0.764423
0.766906
0.765386
0.766161
0.764312
0.764302
0.764421
0.764763
0.766965
0.766889
0.766892
0.766943
0.766978
0.766987
0.766989
0.766989
0.766989
0.766989
0.76699
0.76699
0.76699
0.76699
0.76699
0.76699
0.76699
0.766988
0.766953
0.7666
0.765978
0.765724
0.766002
0.766561
0.766834
0.76695
0.766984
0.766976
0.766984
0.766912
0.766958
0.766644
0.766818
0.766094
0.766391
0.766051
0.76631
0.765592
0.765809
0.765195
0.765389
0.764851
0.765051
0.764213
0.76436
0.764011
0.764097
0.763632
0.763695
0.763741
0.763805
0.763657
0.763602
0.763593
0.763579
0.764002
0.763909
0.763452
0.763523
0.764162
0.764072
0.763966
0.763851
0.764331
0.764266
0.764184
0.764083
0.764448
0.764385
0.764314
0.76473
0.764654
0.764464
0.764486
0.764573
0.764876
0.765034
0.764957
0.764797
0.765122
0.765422
0.765349
0.765444
0.765357
0.765214
0.765305
0.765424
0.76502
0.76485
0.765258
0.764652
0.764451
0.766886
0.765233
0.766004
0.764306
0.764281
0.764383
0.764669
0.766933
0.766858
0.766894
0.76695
0.76698
0.766987
0.766988
0.766988
0.766988
0.766989
0.766989
0.766989
0.76699
0.76699
0.76699
0.76699
0.766989
0.766975
0.766753
0.766152
0.765778
0.766005
0.766561
0.766822
0.76694
0.766983
0.766988
0.766988
0.766981
0.766985
0.766954
0.766972
0.766858
0.76692
0.766554
0.766743
0.766336
0.766563
0.765797
0.766071
0.765279
0.765531
0.764553
0.764805
0.764088
0.764159
0.763854
0.763914
0.763998
0.763624
0.76371
0.763802
0.763884
0.763424
0.76344
0.763548
0.763486
0.763731
0.763619
0.763315
0.763312
0.763963
0.76383
0.763691
0.763558
0.764227
0.764119
0.763989
0.763843
0.764385
0.764291
0.764177
0.764712
0.764618
0.764386
0.764399
0.764519
0.764873
0.765044
0.764959
0.76478
0.765137
0.765467
0.765421
0.765483
0.765389
0.765232
0.765325
0.765457
0.76512
0.764936
0.765337
0.76471
0.764471
0.766108
0.765012
0.765188
0.764294
0.764256
0.764342
0.764561
0.766877
0.76685
0.766902
0.76696
0.766981
0.766986
0.766986
0.766986
0.766987
0.766987
0.766988
0.766989
0.76699
0.76699
0.76699
0.76699
0.766984
0.766867
0.766356
0.765867
0.76597
0.766516
0.766756
0.766885
0.766965
0.766988
0.766988
0.766989
0.766977
0.766984
0.766946
0.766965
0.766881
0.766919
0.766725
0.766823
0.766347
0.766535
0.765758
0.766077
0.765101
0.765425
0.764246
0.764384
0.764414
0.764345
0.763951
0.764009
0.76432
0.764315
0.763763
0.763906
0.764044
0.764157
0.763353
0.763415
0.763624
0.763502
0.76344
0.763353
0.763287
0.763238
0.763688
0.763537
0.763402
0.763296
0.76404
0.763884
0.763718
0.763552
0.764265
0.764119
0.763951
0.764681
0.764566
0.76425
0.76426
0.764431
0.764862
0.765051
0.764949
0.764753
0.765145
0.765492
0.765459
0.765497
0.765406
0.765239
0.765328
0.765468
0.765197
0.765002
0.765385
0.764749
0.764477
0.766101
0.764724
0.764962
0.764276
0.764228
0.764294
0.764442
0.766827
0.766859
0.766922
0.766967
0.766979
0.766981
0.76698
0.766981
0.766983
0.766986
0.766988
0.766989
0.76699
0.76699
0.76699
0.766986
0.766934
0.766566
0.766006
0.765935
0.766406
0.766654
0.766782
0.766899
0.766981
0.766989
0.766987
0.766989
0.766968
0.766981
0.7669
0.766943
0.766778
0.766842
0.766646
0.766716
0.765991
0.766187
0.765349
0.765705
0.764633
0.764968
0.764287
0.764282
0.764652
0.764931
0.764864
0.764794
0.764697
0.76424
0.764294
0.764665
0.764003
0.764198
0.764374
0.764509
0.763361
0.763475
0.763805
0.763625
0.763235
0.763223
0.763307
0.76323
0.763401
0.763276
0.763193
0.76316
0.763773
0.763595
0.763428
0.763287
0.76407
0.763868
0.763665
0.764628
0.764476
0.76405
0.764046
0.764283
0.764831
0.765039
0.764914
0.764696
0.765132
0.765498
0.765469
0.765493
0.765405
0.765225
0.765312
0.765462
0.765246
0.765037
0.765393
0.764763
0.764467
0.766487
0.764576
0.765172
0.76425
0.764194
0.764233
0.76436
0.76683
0.766884
0.76694
0.766964
0.766967
0.766962
0.766961
0.766968
0.766976
0.766983
0.766987
0.766989
0.766989
0.76699
0.766988
0.766967
0.766741
0.766192
0.76594
0.766235
0.766545
0.766669
0.766794
0.766954
0.766987
0.76699
0.766989
0.76699
0.766986
0.766956
0.766978
0.766829
0.766911
0.766568
0.766708
0.766319
0.766436
0.765373
0.765615
0.76477
0.765081
0.764334
0.764494
0.764667
0.764493
0.764972
0.765207
0.765137
0.765052
0.764947
0.764603
0.764651
0.764991
0.764243
0.764484
0.764695
0.764848
0.763423
0.763575
0.763991
0.763765
0.763158
0.763183
0.763368
0.76326
0.763182
0.763124
0.763107
0.76311
0.763478
0.76332
0.763196
0.763113
0.763816
0.763583
0.76338
0.764526
0.764307
0.763783
0.76375
0.76404
0.764766
0.765004
0.764847
0.764572
0.765097
0.765488
0.765456
0.765471
0.765387
0.76519
0.76527
0.765439
0.765255
0.765042
0.765368
0.764749
0.764444
0.766666
0.764595
0.765384
0.764212
0.764148
0.764177
0.764317
0.766851
0.766912
0.766936
0.766938
0.766922
0.766912
0.766921
0.766944
0.766965
0.766979
0.766986
0.766988
0.766989
0.766989
0.76698
0.76686
0.766401
0.765978
0.766085
0.766416
0.766554
0.766675
0.766872
0.766978
0.766989
0.766989
0.76699
0.76699
0.766986
0.766947
0.766976
0.766734
0.766874
0.766268
0.766521
0.765817
0.766025
0.764812
0.765048
0.764432
0.764594
0.764385
0.764374
0.765039
0.764904
0.764814
0.765251
0.76543
0.765361
0.76527
0.765164
0.764945
0.764986
0.765268
0.76443
0.764711
0.764959
0.765128
0.763509
0.763686
0.764152
0.7639
0.763136
0.763184
0.763441
0.763312
0.763076
0.763068
0.763071
0.763096
0.763226
0.763122
0.76306
0.763036
0.763529
0.763313
0.763157
0.764329
0.764028
0.763477
0.763418
0.76371
0.76464
0.764929
0.764699
0.764368
0.765013
0.765449
0.765407
0.765403
0.765331
0.765086
0.765141
0.765358
0.765217
0.765002
0.765286
0.764719
0.764395
0.766762
0.764654
0.765467
0.764162
0.764098
0.764129
0.764303
0.766877
0.766904
0.766894
0.766863
0.766839
0.766842
0.76687
0.766915
0.766954
0.766975
0.766984
0.766987
0.766988
0.766984
0.766929
0.766605
0.766092
0.76603
0.766273
0.76644
0.766552
0.766746
0.766951
0.766987
0.76699
0.766989
0.76699
0.76699
0.766987
0.766945
0.766976
0.766671
0.76686
0.765956
0.766352
0.7653
0.765593
0.764525
0.764704
0.764422
0.764443
0.764609
0.764472
0.765225
0.765086
0.765143
0.765002
0.765472
0.765599
0.765536
0.76545
0.765345
0.765225
0.765263
0.765483
0.764628
0.764915
0.76516
0.765337
0.763604
0.763806
0.764331
0.76405
0.763142
0.763213
0.763522
0.763376
0.76303
0.763033
0.76306
0.763104
0.763059
0.763015
0.762999
0.762994
0.763253
0.76309
0.763009
0.764021
0.763635
0.763179
0.763073
0.763296
0.76438
0.764752
0.764368
0.763952
0.764795
0.765329
0.765289
0.765241
0.765169
0.764814
0.76483
0.765152
0.765114
0.764923
0.76513
0.764649
0.76432
0.766933
0.764678
0.765787
0.764102
0.764048
0.764093
0.764296
0.76686
0.76684
0.766792
0.766759
0.766754
0.766779
0.766828
0.766889
0.766943
0.766972
0.766982
0.766987
0.766985
0.766963
0.766768
0.766274
0.766037
0.766144
0.766322
0.766433
0.766608
0.766871
0.766979
0.766989
0.76699
0.76699
0.76699
0.766989
0.76699
0.766987
0.76695
0.766979
0.766663
0.766863
0.765825
0.766304
0.76497
0.765347
0.764569
0.764675
0.764599
0.764551
0.764915
0.764725
0.765415
0.765288
0.765378
0.765216
0.765633
0.765743
0.765689
0.765616
0.765525
0.765437
0.765475
0.765636
0.76483
0.765126
0.765355
0.765502
0.763705
0.763931
0.76451
0.764201
0.763172
0.76326
0.763603
0.763443
0.763
0.763028
0.763072
0.763136
0.762975
0.762963
0.762962
0.762971
0.763031
0.762961
0.762942
0.76346
0.763159
0.762974
0.762972
0.763029
0.763816
0.764338
0.763753
0.763366
0.764313
0.765105
0.765116
0.765044
0.764847
0.764343
0.764395
0.764857
0.764974
0.764794
0.764976
0.764544
0.764233
0.766934
0.764667
0.765734
0.764043
0.764
0.764067
0.764271
0.766773
0.76672
0.766675
0.766663
0.766685
0.766735
0.766802
0.766873
0.766935
0.766968
0.766982
0.766985
0.766977
0.766871
0.766467
0.766078
0.76607
0.766208
0.76632
0.766474
0.766733
0.766957
0.766988
0.76699
0.76699
0.76699
0.76699
0.76699
0.76699
0.766989
0.766962
0.766983
0.766715
0.766894
0.765869
0.766366
0.764934
0.765351
0.764893
0.764974
0.765011
0.764917
0.765369
0.765245
0.765206
0.765625
0.765514
0.765665
0.765532
0.765768
0.765894
0.765852
0.765792
0.765718
0.765589
0.765626
0.76577
0.765027
0.76533
0.765547
0.765668
0.763802
0.764049
0.764682
0.764344
0.763214
0.763317
0.763675
0.763508
0.763003
0.763045
0.763104
0.763175
0.762926
0.762928
0.762948
0.762982
0.762932
0.762912
0.762895
0.763158
0.763056
0.762925
0.762943
0.762997
0.763411
0.763779
0.763511
0.763249
0.763902
0.764858
0.764934
0.764842
0.764471
0.764025
0.764192
0.764548
0.764832
0.764657
0.764827
0.764424
0.76415
0.760681
0.764565
0.765187
0.763982
0.763957
0.764035
0.764209
0.766643
0.766596
0.766576
0.766594
0.766644
0.766715
0.766795
0.76687
0.766931
0.766969
0.766981
0.766979
0.766927
0.766647
0.766191
0.766056
0.766116
0.766216
0.766349
0.766591
0.7669
0.766983
0.76699
0.76699
0.76699
0.76699
0.76699
0.76699
0.76699
0.766989
0.766977
0.766987
0.766819
0.766937
0.76612
0.766551
0.76522
0.765631
0.765483
0.765535
0.765705
0.765548
0.765734
0.765555
0.765838
0.765732
0.765857
0.765771
0.76596
0.765864
0.765912
0.766059
0.766029
0.765984
0.765928
0.765732
0.765762
0.765912
0.765213
0.765528
0.765732
0.765831
0.763884
0.764151
0.764835
0.764469
0.763264
0.763373
0.763726
0.763561
0.763023
0.763076
0.763142
0.76322
0.7629
0.762932
0.762969
0.763013
0.762877
0.762878
0.762898
0.763165
0.763083
0.762907
0.762834
0.762843
0.763409
0.763694
0.763572
0.763289
0.763897
0.764616
0.764752
0.764622
0.764342
0.764075
0.76422
0.764456
0.764681
0.764543
0.764672
0.764325
0.764061
0.736017
0.764319
0.762927
0.763925
0.763914
0.763991
0.764097
0.766515
0.766497
0.766509
0.766559
0.766632
0.766718
0.7668
0.766874
0.766932
0.76697
0.766977
0.766953
0.766777
0.766342
0.766072
0.766056
0.766127
0.766239
0.766453
0.766785
0.766969
0.766989
0.76699
0.76699
0.76699