/*--------------------------------*- C++ -*----------------------------------*\
  =========                 |
  \\      /  F ield         | OpenFOAM: The Open Source CFD Toolbox
   \\    /   O peration     | Website:  https://openfoam.org
    \\  /    A nd           | Version:  dev
     \\/     M anipulation  |
\*---------------------------------------------------------------------------*/
FoamFile
{
    version     2.0;
    format      ascii;
    class       volScalarField;
    location    "2500";
    object      nut;
}
// * * * * * * * * * * * * * * * * * * * * * * * * * * * * * * * * * * * * * //

dimensions      [0 2 -1 0 0 0 0];

internalField   nonuniform List<scalar> 
9978
(
0.000129608
0.00013318
0.000126522
0.000121446
0.000160756
0.000112278
0.000111963
0.000169702
0.000151768
0.000106186
0.000107828
0.000163621
0.000173387
0.000129871
0.000104383
0.000104581
0.000147232
0.000186262
0.000159877
0.000117385
0.000103215
0.000102874
0.000130202
0.000186141
0.000181497
0.000136475
0.000111692
0.000102464
0.000102415
0.000120591
0.000178891
0.000192842
0.000161412
0.000122773
0.000108376
0.000101918
0.000102211
0.000113203
0.000161811
0.000199338
0.000183241
0.000138745
0.000115966
0.000106235
0.00010149
0.000101887
0.000108738
0.000141222
0.000197551
0.000196567
0.000158517
0.000125509
0.000111814
0.000104767
0.000101253
0.000101426
0.000106064
0.000128966
0.000189801
0.000204498
0.000180364
0.000138104
0.000118388
0.0001091
0.000103745
0.000101039
0.000100878
0.000104523
0.000119703
0.000171131
0.000208326
0.000196939
0.000154567
0.00012649
0.000113967
0.000107041
0.000103098
0.000100869
0.000100446
0.000103845
0.000113712
0.000150085
0.000205798
0.000206496
0.000174466
0.000136154
0.000119891
0.000111084
0.00010557
0.000102563
0.000100734
0.000100131
0.000103452
0.000110182
0.000135383
0.000196876
0.00021298
0.00019357
0.000150672
0.000126027
0.000115527
0.000108864
0.000104589
0.000102143
0.000100606
9.99121e-05
0.00010317
0.00010807
0.000125738
0.000177773
0.000214636
0.000207203
0.000167339
0.000134544
0.000120362
0.00011246
0.00010718
0.000103774
0.000101858
0.000100511
9.97915e-05
0.000102939
0.000106763
0.000119244
0.000156632
0.000211301
0.000213918
0.000187489
0.000145691
0.000125577
0.00011645
0.000110183
0.000105893
0.000103198
0.000101634
0.000100416
9.97667e-05
0.000102719
0.000105869
0.000115354
0.000140743
0.000200785
0.000219108
0.000204406
0.000161947
0.000132234
0.0001204
0.000113396
0.000108429
0.000104797
0.000102812
0.000101404
0.00010037
9.97765e-05
0.00010237
0.000105162
0.00011326
0.000131532
0.000181488
0.000219307
0.000215135
0.000179412
0.00014198
0.000125054
0.000116738
0.000111035
0.000107008
0.000103999
0.000102486
0.000101116
0.000100349
9.98051e-05
0.000102039
0.00010476
0.000111678
0.000125415
0.000160591
0.000214742
0.000219711
0.000198994
0.000156199
0.000130164
0.000120493
0.000113851
0.000109263
0.000105722
0.000103483
0.000102118
0.000100915
0.000100331
9.98401e-05
0.000101786
0.000104446
0.000110298
0.000121979
0.000145507
0.000201918
0.000223848
0.000212952
0.000173063
0.000139161
0.000124147
0.000116943
0.000111708
0.000107803
0.000104641
0.000103079
0.000101709
0.000100786
0.000100308
9.98798e-05
0.000101586
0.000104174
0.000109099
0.000119681
0.000136017
0.000180818
0.000222861
0.000221286
0.000192077
0.000151139
0.000129052
0.000120345
0.00011416
0.000110016
0.000106504
0.000103974
0.00010267
0.000101354
0.000100708
0.00010028
9.99278e-05
0.000101425
0.000103921
0.000108185
0.00011788
0.000130004
0.000160445
0.000215989
0.000225704
0.000209607
0.000168031
0.000136405
0.000123563
0.000117288
0.000112152
0.00010854
0.000105322
0.000103488
0.000102217
0.000101073
0.000100659
0.000100248
9.99881e-05
0.000101303
0.000103676
0.000107451
0.00011617
0.000126294
0.000146854
0.000199786
0.000228269
0.000221659
0.000185221
0.000147757
0.000128159
0.00012006
0.000114613
0.00011055
0.000107214
0.000104421
0.000103051
0.000101755
0.000100874
0.000100622
0.000100215
0.000100049
0.0001012
0.000103425
0.000106811
0.000114614
0.000123864
0.000137949
0.000177021
0.000225407
0.000227459
0.000205352
0.000162677
0.000134342
0.000123559
0.000117367
0.000112617
0.000109129
0.00010602
0.000103814
0.000102593
0.000101341
0.000100744
0.000100582
0.000100191
0.000100105
0.000101114
0.000103182
0.000106296
0.000113411
0.000121871
0.000132143
0.000158528
0.000215882
0.000232326
0.000220228
0.000180228
0.000145026
0.000127141
0.000120311
0.000114911
0.000111004
0.000107813
0.000104973
0.000103312
0.000102099
0.000100995
0.000100667
0.000100518
0.000100188
0.000100153
0.000101042
0.000102982
0.000105858
0.000112416
0.000119931
0.000128555
0.000146435
0.000195526
0.000232419
0.00022961
0.000199107
0.000157967
0.000133332
0.000123236
0.000117582
0.000113
0.000109614
0.000106626
0.000104141
0.000102842
0.000101605
0.000100738
0.000100616
0.000100443
0.000100191
0.000100182
0.000100969
0.000102814
0.000105464
0.000111471
0.000118249
0.000126137
0.000138204
0.000172202
0.000227336
0.000234335
0.000217582
0.00017583
0.000141987
0.000126742
0.000120425
0.000115132
0.000111407
0.000108348
0.000105551
0.000103523
0.000102355
0.000101156
0.000100579
0.000100546
0.000100389
0.000100193
0.000100197
0.000100891
0.000102656
0.000105106
0.000110583
0.000117012
0.000124122
0.000132867
0.000156424
0.000214013
0.000238564
0.000230487
0.000193269
0.00015497
0.000132066
0.000123051
0.000117894
0.000113297
0.000110022
0.000107177
0.000104562
0.000103005
0.000101848
0.000100795
0.000100489
0.000100451
0.00010036
0.000100185
0.000100212
0.000100809
0.000102496
0.000104755
0.000109841
0.000116038
0.000122161
0.000129419
0.000145441
0.000189979
0.000236757
0.000237351
0.000214396
0.000170581
0.000139888
0.000126634
0.000120471
0.000115482
0.000111773
0.000108765
0.000106085
0.000103754
0.000102527
0.000101359
0.000100532
0.00010042
0.000100338
0.000100345
0.000100172
0.000100214
0.000100714
0.000102332
0.000104433
0.000109175
0.000115035
0.0001205
0.000127345
0.000138276
0.000168397
0.000228758
0.00024356
0.000229866
0.000189209
0.000152072
0.000130992
0.000123337
0.000118117
0.000113618
0.000110442
0.000107588
0.000105061
0.000103148
0.000102056
0.000100937
0.000100365
0.000100331
0.000100221
0.000100315
0.000100164
0.000100184
0.000100611
0.000102163
0.000104123
0.000108504
0.000114046
0.000119162
0.000125469
0.000133672
0.000154837
0.000211047
0.000244585
0.000240863
0.000208405
0.000166163
0.000138901
0.000126299
0.000120785
0.000115847
0.000112073
0.000109186
0.00010649
0.000104131
0.000102655
0.000101593
0.000100609
0.000100284
0.00010025
0.000100121
0.000100235
0.000100145
0.000100132
0.000100545
0.000101964
0.000103813
0.000107827
0.000113199
0.000118004
0.000123503
0.000130966
0.000145338
0.000185488
0.000240611
0.000245796
0.000228491
0.000184993
0.000148777
0.000130871
0.000123412
0.000118446
0.000113998
0.000110742
0.000108013
0.000105481
0.00010338
0.000102222
0.000101159
0.000100401
0.000100279
0.000100211
0.000100049
0.000100073
0.000100072
0.000100073
0.000100509
0.000101696
0.000103516
0.000107144
0.000112412
0.00011686
0.000121767
0.000129163
0.000139251
0.000166643
0.000229648
0.000252012
0.000241864
0.000203152
0.000163406
0.000137385
0.000126466
0.000121037
0.00011624
0.000112441
0.00010953
0.000106953
0.000104568
0.000102822
0.00010182
0.000100848
0.000100357
0.000100362
0.00010028
0.000100111
9.99768e-05
9.99494e-05
0.000100011
0.000100467
0.000101362
0.000103162
0.000106462
0.000111626
0.000115802
0.000120378
0.000127189
0.000135393
0.00015432
0.000206802
0.000250312
0.000250264
0.000225513
0.000179491
0.000146948
0.000130569
0.000123718
0.000118785
0.000114458
0.00011108
0.000108426
0.00010598
0.000103734
0.00010239
0.000101489
0.000100742
0.000100449
0.000100533
0.000100391
0.000100188
9.99843e-05
9.99155e-05
9.99532e-05
0.000100406
0.000100999
0.000102749
0.000105768
0.000110782
0.000114891
0.000119171
0.000125093
0.000133376
0.000146108
0.000180924
0.00024429
0.000257026
0.00024199
0.000199702
0.000159915
0.000136448
0.000126605
0.000121481
0.000116756
0.000112931
0.000109851
0.000107435
0.000105078
0.000103049
0.000102077
0.000101354
0.000100832
0.000100749
0.000100886
0.000100833
0.000100683
9.99302e-05
0.000100179
9.99773e-05
9.9999e-05
9.99082e-05
9.99056e-05
0.0001003
0.000100617
0.000102327
0.000105063
0.0001099
0.000114075
0.000117968
0.000123333
0.000131723
0.000140867
0.000165302
0.000229198
0.000260369
0.000254539
0.000218965
0.00017544
0.000145479
0.000130498
0.000124047
0.000119417
0.000115026
0.000111543
0.000108806
0.000106539
0.000104295
0.000102642
0.000101951
0.000101466
0.000101286
0.000101566
0.000101626
0.000101369
0.000100589
0.000100884
0.000100323
9.99513e-05
0.0001001
9.99391e-05
9.9865e-05
0.000100137
0.000100245
0.000101907
0.000104388
0.000109007
0.000113202
0.000116654
0.000121962
0.000129725
0.000137916
0.000154318
0.000201657
0.000256977
0.000260623
0.000241505
0.000194681
0.000156645
0.00013609
0.0001271
0.000121998
0.000117556
0.000113532
0.000110338
0.000107882
0.000105725
0.000103639
0.000102465
0.000102074
0.000101975
0.000102281
0.000102674
0.000101937
0.000102571
0.000101418
0.000102494
0.000102365
0.000100636
0.000100972
0.000100451
9.99329e-05
0.000100218
0.000100022
9.98354e-05
9.99725e-05
0.000100032
0.000101483
0.000103762
0.00010808
0.000112318
0.000115527
0.000120701
0.000127663
0.000136399
0.000147346
0.000177705
0.000247403
0.000268832
0.000255637
0.000214223
0.000172195
0.000144031
0.000130613
0.00012486
0.000120158
0.000115927
0.000112155
0.000109246
0.000107032
0.000105008
0.000103216
0.000102573
0.000102561
0.000102975
0.000103936
0.000103466
0.000104324
0.000103389
0.000101863
0.000103597
0.000103095
0.000100698
0.000101243
0.000100496
9.99439e-05
0.000100323
0.000100142
9.98209e-05
9.98407e-05
9.98777e-05
0.000100891
0.00010317
0.000107111
0.000111411
0.000114558
0.000119305
0.000125985
0.000134815
0.000143052
0.000164458
0.000226595
0.000267845
0.000266801
0.000237486
0.000189045
0.000154681
0.000136174
0.000127602
0.000123085
0.000118466
0.000114461
0.00011091
0.000108336
0.000106349
0.000104472
0.000103252
0.000103094
0.000103741
0.000104785
0.000105161
0.000105867
0.000104399
0.000105358
0.00010466
0.000102552
0.000104307
0.000103781
0.000100818
0.000101684
0.000100534
9.9994e-05
0.000100378
0.000100244
9.98459e-05
9.97972e-05
9.97876e-05
0.000100329
0.000102547
0.00010612
0.000110429
0.000113668
0.000117713
0.000124606
0.000132912
0.00014108
0.000155193
0.000196684
0.000262813
0.000273458
0.000257017
0.000210556
0.000168308
0.00014325
0.000131494
0.000125798
0.000121457
0.000116878
0.000113117
0.000109911
0.000107657
0.000105861
0.000104449
0.000103873
0.000104478
0.00010607
0.000106545
0.000107104
0.000106231
0.000107031
0.000105728
0.000105528
0.000105413
0.000103148
0.000104858
0.000104125
0.00010103
0.000102225
0.000100649
0.000100072
0.000100436
0.000100286
9.99557e-05
9.98842e-05
9.98193e-05
9.98757e-05
0.000101978
0.000105218
0.000109365
0.000112771
0.00011636
0.00012335
0.000131017
0.000139844
0.000149529
0.000176834
0.000249743
0.000280259
0.000270859
0.0002307
0.000185209
0.000153178
0.000136584
0.000128883
0.000124367
0.000119879
0.000115501
0.000112044
0.000109164
0.000107257
0.000105809
0.00010496
0.000105662
0.000106954
0.000107692
0.000108206
0.000106839
0.000105948
0.000100467
9.69033e-05
0.000103867
9.67029e-05
0.00010382
0.000103379
0.000104148
0.00010386
0.000101331
0.000102543
0.000100834
0.000100119
0.000100595
0.000100351
0.000100204
0.000100243
0.000100036
9.96146e-05
0.000101546
0.000104403
0.000108315
0.000111874
0.000115233
0.000121784
0.000129487
0.000138241
0.000146405
0.000165198
0.000222994
0.000276754
0.000279571
0.000256493
0.000204688
0.000165393
0.000143581
0.000132742
0.000127477
0.000123012
0.000118492
0.000114453
0.000111263
0.000108871
0.000107236
0.000106208
0.000106583
0.00010845
0.000108734
0.000109279
0.000104734
0.000106774
9.42454e-05
9.23658e-05
9.16098e-05
8.69133e-05
9.5689e-05
8.84368e-05
9.21175e-05
0.000102638
8.97445e-05
8.86761e-05
0.000101519
0.000101352
0.000100987
0.000100113
0.000100705
0.000100413
0.000100724
0.000100944
0.000100587
9.97688e-05
0.00010137
0.000103774
0.000107262
0.000111036
0.000114257
0.000120038
0.000128179
0.000136329
0.000144989
0.000157602
0.000193825
0.00026939
0.000288882
0.00027273
0.000226867
0.000181483
0.000152366
0.000137685
0.000130963
0.000126491
0.000121839
0.000117402
0.000113714
0.000110932
0.000108961
0.000107731
0.000107618
0.000108905
0.000109755
0.00010976
0.000107679
0.00010965
9.16861e-05
9.23176e-05
8.37528e-05
8.06684e-05
8.29087e-05
7.72233e-05
8.37878e-05
7.84356e-05
8.12498e-05
8.69505e-05
7.96833e-05
7.76609e-05
0.000101465
8.4708e-05
0.00010089
0.000100103
0.000100553
0.000100277
0.000101224
0.000102239
0.000101481
0.000100656
0.00010166
0.000103394
0.000106257
0.000110291
0.000113562
0.000118603
0.000127039
0.000134598
0.000143933
0.000152983
0.000177903
0.00025132
0.000291832
0.000287039
0.000251019
0.000199908
0.000163876
0.000144433
0.000134963
0.000130195
0.000125671
0.000120982
0.000116642
0.000113323
0.000110948
0.000109595
0.000109039
0.000109918
0.000109551
0.00010856
0.000109131
0.000107666
9.91637e-05
0.00010496
8.28865e-05
8.6628e-05
7.39895e-05
7.66207e-05
7.04549e-05
6.98409e-05
7.26952e-05
6.63268e-05
6.83225e-05
7.29323e-05
6.53987e-05
6.28862e-05
8.7554e-05
6.89863e-05
9.11389e-05
0.000100079
8.64594e-05
8.73128e-05
0.000102276
0.000104695
0.000103639
0.000102798
0.000102748
0.000103497
0.000105627
0.000109771
0.000113427
0.000117439
0.000125679
0.000133236
0.000142364
0.000150826
0.000167742
0.000220692
0.000286823
0.000294939
0.000275804
0.000222535
0.00017829
0.000152637
0.000140212
0.000134384
0.00012964
0.000125201
0.00012059
0.00011641
0.000113481
0.000111574
0.000110128
0.000109958
0.000105994
0.000101568
0.000103536
9.56641e-05
0.000100558
9.07125e-05
9.36643e-05
8.76216e-05
8.05306e-05
8.72741e-05
7.25513e-05
8.40101e-05
6.76611e-05
7.22703e-05
6.3724e-05
6.7063e-05
6.27663e-05
5.84317e-05
6.22173e-05
6.10284e-05
6.87229e-05
5.53021e-05
7.00866e-05
0.000100068
6.89777e-05
7.40306e-05
0.000103887
0.000107975
0.000107668
0.00010624
0.000104929
0.000104409
0.000105755
0.000109557
0.000113508
0.000116741
0.000124373
0.000132495
0.000140516
0.000150001
0.00016147
0.000193836
0.000276047
0.000305978
0.000291434
0.000245954
0.000196198
0.000163803
0.000146052
0.000139546
0.000134253
0.000129902
0.000125349
0.000120742
0.000116711
0.000114054
0.000110074
9.94054e-05
9.16669e-05
7.89054e-05
8.70837e-05
7.52715e-05
7.79235e-05
7.15857e-05
7.4413e-05
7.08152e-05
7.5393e-05
7.20094e-05
7.76487e-05
7.34609e-05
8.06973e-05
7.54766e-05
7.66229e-05
7.84649e-05
6.52537e-05
8.15333e-05
6.55267e-05
5.6807e-05
6.51903e-05
6.35428e-05
5.41396e-05
5.20996e-05
5.41798e-05
0.000100055
5.52738e-05
6.75787e-05
0.000105512
0.000112295
0.000113668
0.000111471
0.000108714
0.000106901
0.000106941
0.000109896
0.000114009
0.000116924
0.000122989
0.000132025
0.000138818
0.000149055
0.000157943
0.000180826
0.000252268
0.000304336
0.000305175
0.00027442
0.00021805
0.000176865
0.000154407
0.00014516
0.000139797
0.000135423
0.000131235
0.000126476
0.000121819
0.000116846
0.00010692
8.45472e-05
8.25614e-05
7.39516e-05
8.113e-05
7.46789e-05
9.0506e-05
7.98883e-05
0.000107325
8.60522e-05
0.00012441
8.83594e-05
0.000135786
8.663e-05
0.000136333
8.30256e-05
0.000124779
8.23746e-05
0.000105964
8.2758e-05
9.25844e-05
8.68636e-05
6.04895e-05
9.04005e-05
9.23019e-05
4.70684e-05
5.53915e-05
4.11106e-05
4.02664e-05
3.59857e-05
3.15705e-05
0.000108284
0.000121263
0.000125503
0.000123143
0.000117939
0.000113063
0.000110551
0.000111918
0.000115307
0.000117682
0.000122329
0.000131292
0.000138355
0.000147056
0.000156487
0.000172326
0.000220599
0.000298127
0.00031489
0.000296617
0.000242186
0.000194264
0.000164273
0.000152277
0.00014585
0.000142008
0.000138691
0.000134692
0.00012872
0.000118207
9.76085e-05
7.90569e-05
0.000115394
0.000195975
0.000246212
0.000108735
0.000147906
0.000142711
0.000196934
0.00017844
0.000243539
0.000204213
0.000278091
0.000214588
0.000293799
0.000209482
0.00029472
0.000186616
0.000280287
0.000142449
0.000245367
0.000105121
0.000182813
0.000116899
9.27624e-05
0.000125663
0.000130533
4.88345e-05
9.0621e-05
3.73016e-05
1.40828e-05
2.43149e-05
1.49003e-05
0.000114433
0.00013784
0.000147659
0.000146288
0.000139323
0.000129594
0.000120894
0.000117484
0.000117799
0.000119518
0.000122459
0.000130931
0.000138361
0.000145367
0.000155863
0.000167182
0.000197372
0.000284169
0.000324809
0.000312869
0.000270621
0.00021398
0.000177431
0.000159736
0.000152884
0.000148913
0.0001475
0.000143373
0.000135265
0.00011528
8.92851e-05
9.55646e-05
0.000170449
0.000293929
0.000359907
0.000378509
0.000435874
0.000256554
0.00031935
0.000311356
0.00037754
0.000348347
0.000413385
0.000367059
0.00043386
0.000371712
0.000439753
0.000363098
0.000434178
0.000339095
0.000418136
0.000294056
0.000386544
0.000217215
0.00033309
0.000242849
0.000131918
0.000260093
0.000268581
8.51025e-05
0.000129112
7.75843e-05
6.04356e-06
4.74119e-05
2.84755e-05
0.000112832
0.0001459
0.000166649
0.000179247
0.00017809
0.000163454
0.000145042
0.000130775
0.000123948
0.000123337
0.000124079
0.000130934
0.000138696
0.000144818
0.00015445
0.000164259
0.000186092
0.000255355
0.000319756
0.000325991
0.000299709
0.000239453
0.000193293
0.000168576
0.000160702
0.000157019
0.000155311
0.00015157
0.000139126
0.000110291
0.000100136
0.000142958
0.000288054
0.000413525
0.00046117
0.000487313
0.00054111
0.000544753
0.000588348
0.000439241
0.000494659
0.000473917
0.000527748
0.000492093
0.000539881
0.000496897
0.000541119
0.000492418
0.000535162
0.000479691
0.000523866
0.000457755
0.000508347
0.000421861
0.000483522
0.000361663
0.00044641
0.000381809
0.00026945
0.000395315
0.000404804
0.000122367
0.000265926
0.000112722
5.84144e-05
0.000104727
0.000123277
0.000122336
0.000165122
0.000190225
0.00020516
0.000211207
0.000192895
0.000165162
0.000142528
0.00013237
0.000128624
0.000131942
0.000140313
0.000144973
0.00015333
0.000163288
0.000178904
0.000225468
0.000312144
0.000338333
0.000321035
0.000265934
0.00021333
0.000179769
0.000168561
0.000159724
0.000149578
0.000150325
0.000144816
0.000122481
0.000154941
0.000253882
0.000435657
0.000625589
0.000578077
0.000638211
0.000626668
0.000658244
0.000640636
0.000663986
0.000572862
0.00060971
0.000578423
0.000608252
0.000574423
0.000596662
0.000564123
0.000582313
0.000553275
0.000570421
0.000540146
0.000557222
0.000521663
0.000541334
0.000497571
0.000525464
0.000461412
0.000505917
0.000472879
0.000411715
0.000481434
0.000491076
0.000259067
0.000417703
0.000255571
0.000251397
0.000289042
0.000254817
0.000119738
0.000166761
0.000205194
0.000228826
0.000239724
0.000224617
0.000189969
0.000156874
0.000139367
0.000136151
0.000142372
0.000145941
0.000152831
0.000162835
0.000174603
0.000203888
0.000293317
0.000345219
0.000337633
0.000299757
0.000236324
0.000193612
0.000174488
0.00015517
0.000144531
0.000150403
0.000163851
0.00018758
0.000273449
0.000441012
0.000582167
0.000682427
0.000715887
0.000724782
0.000684337
0.000703724
0.000683319
0.000700371
0.000666469
0.000678579
0.000630547
0.000649912
0.000613541
0.000625998
0.000594253
0.000601374
0.000578149
0.000581502
0.00056399
0.000564567
0.000549619
0.000551014
0.000536528
0.00054044
0.000524078
0.000533678
0.000509774
0.000523728
0.000514151
0.000499753
0.000516942
0.000523014
0.00042421
0.00051111
0.000382837
0.00014451
0.000332965
0.000396512
0.000112875
0.000158512
0.000210416
0.00024843
0.000264803
0.000257451
0.000210104
0.000165542
0.000147277
0.000146212
0.000148561
0.000152853
0.000162396
0.000172653
0.000193327
0.000263628
0.000338675
0.000353016
0.000327544
0.000264704
0.000212821
0.000178006
0.000153791
0.000141289
0.000148446
0.000186166
0.000264997
0.000435783
0.000617434
0.000684929
0.000711577
0.000727024
0.000727621
0.000726846
0.0007139
0.000722231
0.000686107
0.000692269
0.000645596
0.00065158
0.000635211
0.000640916
0.000605975
0.000609324
0.000582646
0.000581561
0.000562811
0.000560785
0.000549685
0.000549996
0.000543894
0.000547515
0.000537608
0.00055091
0.00053149
0.000551576
0.000522759
0.000538356
0.000525455
0.000526858
0.000525302
0.000525472
0.000525825
0.000514485
0.000529964
0.000525937
0.000474351
0.000237589
0.000489841
0.00033508
0.000111935
0.000142686
0.000208695
0.000266378
0.000290336
0.000276904
0.000220052
0.00017269
0.000155193
0.000153509
0.000154871
0.000163119
0.000172485
0.000187912
0.000236614
0.000328816
0.000366198
0.000349939
0.000296313
0.000235737
0.000186313
0.000154926
0.000139975
0.00014406
0.000201491
0.000320994
0.000581887
0.000753355
0.00076294
0.000733738
0.000708301
0.00069942
0.000699888
0.000700033
0.000701359
0.000696101
0.000696965
0.0006587
0.000664809
0.000619518
0.000627317
0.000612807
0.000615646
0.000581409
0.000582348
0.000559735
0.000561019
0.000550967
0.000554661
0.000556165
0.000571821
0.000573932
0.000602784
0.000583314
0.000628364
0.000575876
0.000631049
0.000548037
0.000604395
0.000573494
0.000539982
0.000559593
0.000523482
0.000521017
0.000516682
0.000536481
0.00055924
0.000563422
0.000533117
0.000528544
0.000522217
0.000525014
0.000516624
0.000518342
0.000509834
0.000507057
0.000379995
0.00040727
0.000498889
0.000500741
0.000363581
0.000292106
0.000236179
0.000109307
0.000135156
0.000209087
0.000279393
0.000313025
0.000290432
0.000221939
0.000176613
0.000163175
0.00015973
0.000165618
0.000173074
0.000184954
0.000216334
0.00030615
0.000370268
0.000367294
0.000333612
0.000263904
0.00019938
0.000159891
0.000139228
0.000138994
0.000205897
0.000348961
0.000687772
0.000848216
0.000813017
0.00074147
0.000713072
0.000700095
0.000696741
0.000701626
0.000715525
0.000684421
0.000692569
0.000670795
0.000677085
0.000637586
0.000652002
0.000612927
0.00063513
0.000585715
0.000595874
0.000568143
0.000579807
0.000564944
0.000583185
0.000590629
0.000613145
0.00063364
0.000665567
0.000677542
0.000710312
0.000654118
0.000686292
0.000713648
0.000666112
0.000637238
0.000653254
0.000626819
0.000612847
0.000675603
0.000617054
0.000587948
0.00062462
0.000645396
0.000593131
0.000525732
0.000511244
0.000516932
0.000554449
0.000584211
0.000588582
0.000546287
0.000504321
0.00051122
0.000503052
0.000495929
0.000489067
0.000133641
0.000229497
0.000249128
0.000484215
0.000486657
0.000340176
0.000245376
0.000107913
0.000129768
0.000223659
0.000287919
0.000330816
0.000297258
0.000220468
0.000181884
0.000167978
0.0001703
0.000175631
0.000184544
0.000205261
0.00028202
0.000363144
0.000385429
0.000361102
0.000295936
0.000218583
0.00016717
0.000142289
0.000136626
0.000205679
0.00035182
0.00074794
0.000927287
0.000853126
0.000756315
0.000725234
0.000770989
0.000733759
0.000776022
0.000763713
0.00079777
0.000713215
0.000736413
0.000670265
0.00069092
0.000663037
0.000694003
0.000662085
0.000704747
0.000598354
0.000628537
0.000608848
0.000640869
0.000640217
0.000675107
0.000696185
0.000730426
0.000702063
0.000703778
0.000685105
0.000636001
0.000658954
0.000620288
0.000657355
0.000642312
0.000640778
0.000622882
0.000621697
0.000601321
0.000601163
0.000605315
0.000597415
0.000597157
0.000588238
0.000590722
0.000571123
0.000535228
0.000505483
0.000521356
0.000562041
0.000554521
0.000534639
0.000548829
0.000493194
0.000482761
0.000492048
0.000473338
0.000466399
2.89997e-05
0.000170178
0.000250158
0.000463868
0.000463817
0.000466334
0.000255725
0.000106382
0.000130389
0.000255418
0.000343128
0.000357957
0.00028766
0.000218252
0.000184951
0.000177934
0.00017983
0.000185252
0.000200296
0.000260472
0.000351856
0.000397723
0.000383871
0.000336611
0.00025157
0.000179243
0.000148805
0.000138301
0.000197613
0.000338865
0.000758781
0.000991141
0.000885841
0.000770528
0.000757672
0.000858028
0.000934445
0.000972142
0.000838541
0.000888209
0.000882746
0.000926549
0.000804139
0.00084238
0.000728876
0.000766926
0.000749851
0.000793692
0.000766226
0.000806542
0.000679931
0.000721922
0.000716006
0.000755565
0.000764365
0.000788229
0.000712889
0.000742318
0.000645448
0.000615013
0.000644536
0.000627573
0.000622498
0.000617467
0.000603427
0.00060297
0.000600209
0.000595868
0.000592469
0.000583884
0.0005756
0.000586277
0.000561372
0.000567425
0.000570638
0.000557001
0.000545736
0.000560435
0.000536216
0.000539902
0.000504826
0.000528714
0.000519555
0.000516929
0.000501734
0.000510331
0.000477691
0.000463592
0.000486396
0.000450768
0.000441041
4.76432e-05
0.000221004
0.000173156
0.000437987
0.000448542
0.000465435
0.00028816
0.000103553
0.00017485
0.00035009
0.000429966
0.000379868
0.000279883
0.000216832
0.000192197
0.000187924
0.000188438
0.000199585
0.000243488
0.000335733
0.000401025
0.000404617
0.000372172
0.000296847
0.000198439
0.000159272
0.000142821
0.000184895
0.000292742
0.000735249
0.00104331
0.000920208
0.000792848
0.000779233
0.000860579
0.000976878
0.00101161
0.00100938
0.000965862
0.00099513
0.000972016
0.000995958
0.000909731
0.000942208
0.000838632
0.000876213
0.000841618
0.000872743
0.000826783
0.000848215
0.000782998
0.000806741
0.00080319
0.00080909
0.000797402
0.000810426
0.000661721
0.000629816
0.000695369
0.000599705
0.000606511
0.00061307
0.000626541
0.000583476
0.000580791
0.000577811
0.000581604
0.000574119
0.000569292
0.000567298
0.000552836
0.000548115
0.000555998
0.000543811
0.000546104
0.000537939
0.000526298
0.000524734
0.000536418
0.000510552
0.000505095
0.000507723
0.000501483
0.000490973
0.000499225
0.000489985
0.000484197
0.000467032
0.000447726
0.000484705
0.000430252
0.00041768
5.49646e-05
0.000255043
0.000209889
0.000418291
0.000443706
0.000469723
0.000337986
9.54093e-05
0.000276452
0.000471738
0.000502981
0.000369556
0.000265039
0.000218126
0.000204326
0.000196169
0.000201521
0.000231623
0.000321392
0.000398497
0.000426258
0.000401259
0.000338517
0.000227753
0.000173187
0.000149086
0.000159853
0.000246965
0.000637481
0.00107178
0.000971446
0.000804676
0.000774248
0.000836497
0.000909175
0.000894398
0.000772948
0.0010144
0.000978382
0.00101771
0.00102506
0.000996013
0.00100338
0.000952239
0.000976475
0.000899939
0.000926762
0.000868939
0.000888424
0.000815669
0.000815838
0.000811285
0.000813377
0.000797403
0.000777301
0.000759224
0.000731832
0.000644065
0.00063545
0.000648446
0.000616082
0.00058506
0.00059496
0.000603218
0.000612418
0.000565216
0.000566027
0.000570369
0.000578018
0.000553471
0.000553585
0.000557613
0.000536218
0.000537377
0.000543345
0.000543945
0.000539651
0.000525917
0.000514036
0.000520139
0.000529047
0.000505886
0.000481375
0.000498609
0.000476895
0.000481741
0.000498504
0.00049101
0.000475435
0.000460162
0.000435568
0.000484049
0.000413941
0.000401568
6.14937e-05
0.000283963
0.000224165
0.00040966
0.000443129
0.000424721
0.000344278
9.42725e-05
0.000411919
0.000593838
0.000542354
0.000349584
0.000251516
0.000222329
0.000212185
0.000208352
0.000225565
0.000310008
0.000393879
0.000439404
0.000426925
0.000383749
0.000268259
0.00019048
0.000158381
0.000155948
0.000214968
0.000489465
0.00106487
0.00104431
0.000826087
0.000765044
0.00078374
0.00070633
0.000422894
0.000645468
0.000455929
0.000905722
0.000791028
0.000997195
0.000970549
0.000938541
0.00091697
0.000936213
0.000943002
0.00090741
0.000923767
0.000818235
0.000822939
0.00071124
0.000700681
0.000753618
0.000729899
0.000686874
0.000654198
0.000653756
0.000632253
0.000594116
0.000614228
0.000617137
0.000630423
0.000586267
0.000602533
0.000587242
0.000596434
0.000602897
0.000602504
0.000564234
0.000573922
0.000585373
0.000595452
0.000547676
0.000557115
0.000571941
0.000535186
0.000539857
0.000551346
0.000558425
0.000546748
0.000528324
0.000515645
0.00052666
0.000534523
0.000511601
0.000468152
0.000473386
0.000458469
0.000482626
0.000504282
0.000495413
0.000474234
0.00045546
0.000426608
0.000475819
0.000402785
0.000392811
5.96163e-05
0.000288133
0.000178449
0.000406621
0.00044049
0.000383577
0.000340031
0.000127966
0.000563763
0.000697585
0.000537238
0.000310714
0.000243597
0.000227624
0.000221925
0.000229328
0.000304147
0.000391067
0.000447035
0.000455644
0.000421177
0.000316985
0.000214572
0.00016935
0.000158707
0.000205299
0.000366763
0.00102359
0.00112293
0.000864189
0.000792266
0.00077213
0.000567231
0.000339653
0.000233709
0.000211865
0.000354838
0.000271149
0.000646616
0.000481992
0.000867626
0.000780327
0.000782014
0.00071933
0.000830541
0.000815628
0.000828681
0.000833393
0.000695255
0.000691868
0.00059022
0.000585184
0.000627846
0.000603727
0.000531241
0.000508736
0.000565801
0.000547458
0.000514364
0.000530832
0.000596433
0.000593691
0.000502244
0.000522003
0.000601401
0.000599755
0.000591068
0.000576934
0.000589465
0.000605204
0.000614152
0.000611848
0.000565171
0.000586233
0.000609475
0.000540606
0.000549565
0.000576371
0.000580989
0.00056265
0.000533708
0.000522933
0.000528845
0.00053975
0.000515473
0.000457305
0.000452647
0.000439984
0.000483615
0.000505835
0.000490861
0.000464459
0.000451175
0.000419618
0.000457778
0.000395108
0.000387548
3.45811e-05
0.000274948
0.000107882
0.000403241
0.000412385
0.000364779
0.000343058
0.0002451
0.000724649
0.00073992
0.000510022
0.000282425
0.000239826
0.000229777
0.000241653
0.000309478
0.000392963
0.000453833
0.000479474
0.00045513
0.000367299
0.000250214
0.000185145
0.000165535
0.000208905
0.000282835
0.000858633
0.00117972
0.000911585
0.000825936
0.000801969
0.00057202
0.00032184
0.000201354
0.000168523
0.000162786
0.000214899
0.000181145
0.000361455
0.000273669
0.000615822
0.000480873
0.000556582
0.000465048
0.000657433
0.000621864
0.000686828
0.00067544
0.000583922
0.000584788
0.000479093
0.000482437
0.000492258
0.000481697
0.000444052
0.000435523
0.000431162
0.000430545
0.000485935
0.000472345
0.000450875
0.000460699
0.000564927
0.000545098
0.0004309
0.000445027
0.000598012
0.000574043
0.000541273
0.000511484
0.000626642
0.000628772
0.000591678
0.000553832
0.000599662
0.000622212
0.000617083
0.000546525
0.000557349
0.000602614
0.000587042
0.000571541
0.000531736
0.000521139
0.000519059
0.000534587
0.000506882
0.000440277
0.000434499
0.000423291
0.000470038
0.000488227
0.000463592
0.000445173
0.000445702
0.000413165
0.000447523
0.000388539