/*--------------------------------*- C++ -*----------------------------------*\
  =========                 |
  \\      /  F ield         | OpenFOAM: The Open Source CFD Toolbox
   \\    /   O peration     | Website:  https://openfoam.org
    \\  /    A nd           | Version:  dev
     \\/     M anipulation  |
\*---------------------------------------------------------------------------*/
FoamFile
{
    version     2.0;
    format      ascii;
    class       volScalarField;
    location    "2500";
    object      O2;
}
// * * * * * * * * * * * * * * * * * * * * * * * * * * * * * * * * * * * * * //

dimensions      [0 0 0 0 0 0 0];

internalField   nonuniform List<scalar> 
9978
(
0.23301
0.23301
0.23301
0.23301
0.23301
0.23301
0.23301
0.23301
0.23301
0.23301
0.23301
0.23301
0.23301
0.23301
0.23301
0.23301
0.23301
0.23301
0.23301
0.23301
0.23301
0.23301
0.23301
0.23301
0.23301
0.23301
0.23301
0.23301
0.23301
0.23301
0.23301
0.23301
0.23301
0.23301
0.23301
0.23301
0.23301
0.23301
0.23301
0.23301
0.23301
0.23301
0.23301
0.23301
0.23301
0.23301
0.23301
0.23301
0.23301
0.23301
0.23301
0.23301
0.23301
0.23301
0.23301
0.23301
0.23301
0.23301
0.23301
0.23301
0.23301
0.23301
0.23301
0.23301
0.23301
0.23301
0.23301
0.23301
0.23301
0.23301
0.23301
0.23301
0.23301
0.23301
0.23301
0.23301
0.23301
0.23301
0.23301
0.23301
0.23301
0.23301
0.23301
0.23301
0.23301
0.23301
0.23301
0.23301
0.23301
0.23301
0.23301
0.23301
0.23301
0.23301
0.23301
0.23301
0.23301
0.23301
0.23301
0.23301
0.23301
0.23301
0.23301
0.23301
0.23301
0.23301
0.23301
0.23301
0.23301
0.23301
0.23301
0.23301
0.23301
0.23301
0.23301
0.23301
0.23301
0.23301
0.23301
0.23301
0.23301
0.23301
0.23301
0.23301
0.23301
0.23301
0.23301
0.23301
0.23301
0.23301
0.23301
0.23301
0.23301
0.23301
0.23301
0.23301
0.23301
0.23301
0.23301
0.23301
0.23301
0.23301
0.23301
0.23301
0.23301
0.23301
0.23301
0.23301
0.23301
0.23301
0.23301
0.23301
0.23301
0.23301
0.23301
0.23301
0.23301
0.23301
0.23301
0.23301
0.23301
0.23301
0.23301
0.23301
0.23301
0.23301
0.23301
0.23301
0.23301
0.23301
0.23301
0.23301
0.23301
0.23301
0.23301
0.23301
0.23301
0.23301
0.23301
0.23301
0.23301
0.23301
0.23301
0.23301
0.23301
0.23301
0.23301
0.23301
0.23301
0.23301
0.23301
0.23301
0.23301
0.23301
0.23301
0.23301
0.23301
0.23301
0.23301
0.23301
0.23301
0.23301
0.23301
0.23301
0.23301
0.23301
0.23301
0.23301
0.23301
0.23301
0.23301
0.23301
0.23301
0.23301
0.23301
0.23301
0.23301
0.23301
0.23301
0.23301
0.23301
0.23301
0.23301
0.23301
0.23301
0.23301
0.23301
0.23301
0.23301
0.23301
0.23301
0.23301
0.23301
0.23301
0.23301
0.23301
0.23301
0.23301
0.23301
0.23301
0.23301
0.23301
0.23301
0.23301
0.23301
0.23301
0.23301
0.23301
0.23301
0.23301
0.23301
0.23301
0.23301
0.23301
0.23301
0.23301
0.23301
0.23301
0.23301
0.23301
0.23301
0.23301
0.23301
0.23301
0.23301
0.23301
0.23301
0.23301
0.23301
0.23301
0.23301
0.23301
0.23301
0.23301
0.23301
0.23301
0.23301
0.23301
0.23301
0.23301
0.23301
0.23301
0.23301
0.23301
0.23301
0.23301
0.23301
0.23301
0.23301
0.23301
0.23301
0.23301
0.23301
0.23301
0.23301
0.23301
0.23301
0.23301
0.23301
0.23301
0.23301
0.23301
0.23301
0.23301
0.23301
0.23301
0.23301
0.23301
0.23301
0.23301
0.23301
0.23301
0.23301
0.23301
0.23301
0.23301
0.23301
0.23301
0.23301
0.23301
0.23301
0.23301
0.23301
0.23301
0.23301
0.23301
0.23301
0.23301
0.23301
0.23301
0.23301
0.23301
0.23301
0.23301
0.23301
0.23301
0.23301
0.23301
0.23301
0.23301
0.23301
0.23301
0.23301
0.23301
0.23301
0.23301
0.23301
0.23301
0.23301
0.23301
0.23301
0.23301
0.23301
0.23301
0.23301
0.23301
0.23301
0.23301
0.23301
0.23301
0.23301
0.23301
0.23301
0.23301
0.23301
0.23301
0.23301
0.23301
0.23301
0.23301
0.23301
0.23301
0.23301
0.23301
0.23301
0.23301
0.23301
0.23301
0.23301
0.23301
0.23301
0.23301
0.23301
0.23301
0.23301
0.23301
0.23301
0.23301
0.23301
0.23301
0.23301
0.23301
0.23301
0.23301
0.23301
0.23301
0.23301
0.23301
0.23301
0.23301
0.23301
0.23301
0.23301
0.23301
0.23301
0.23301
0.23301
0.23301
0.23301
0.23301
0.23301
0.23301
0.23301
0.23301
0.23301
0.23301
0.23301
0.23301
0.23301
0.23301
0.23301
0.23301
0.23301
0.23301
0.23301
0.23301
0.23301
0.23301
0.23301
0.23301
0.23301
0.23301
0.23301
0.23301
0.23301
0.23301
0.23301
0.23301
0.23301
0.23301
0.23301
0.23301
0.23301
0.23301
0.23301
0.23301
0.23301
0.23301
0.23301
0.23301
0.23301
0.23301
0.23301
0.23301
0.23301
0.23301
0.23301
0.23301
0.23301
0.23301
0.23301
0.23301
0.23301
0.23301
0.23301
0.23301
0.23301
0.23301
0.23301
0.23301
0.23301
0.23301
0.23301
0.23301
0.23301
0.23301
0.23301
0.23301
0.23301
0.23301
0.23301
0.23301
0.23301
0.23301
0.23301
0.23301
0.23301
0.23301
0.23301
0.23301
0.23301
0.23301
0.23301
0.23301
0.23301
0.23301
0.23301
0.23301
0.23301
0.23301
0.23301
0.23301
0.23301
0.23301
0.23301
0.23301
0.23301
0.23301
0.23301
0.23301
0.23301
0.23301
0.23301
0.23301
0.23301
0.23301
0.23301
0.23301
0.23301
0.23301
0.23301
0.23301
0.23301
0.23301
0.23301
0.23301
0.23301
0.23301
0.23301
0.23301
0.23301
0.23301
0.23301
0.23301
0.23301
0.23301
0.23301
0.23301
0.23301
0.23301
0.23301
0.23301
0.23301
0.23301
0.23301
0.23301
0.23301
0.23301
0.23301
0.23301
0.23301
0.23301
0.23301
0.23301
0.23301
0.23301
0.23301
0.23301
0.23301
0.23301
0.23301
0.23301
0.23301
0.23301
0.23301
0.23301
0.23301
0.23301
0.23301
0.23301
0.23301
0.23301
0.23301
0.23301
0.23301
0.23301
0.23301
0.23301
0.23301
0.23301
0.23301
0.23301
0.23301
0.23301
0.23301
0.23301
0.23301
0.23301
0.23301
0.23301
0.23301
0.23301
0.23301
0.23301
0.23301
0.23301
0.23301
0.23301
0.23301
0.23301
0.23301
0.23301
0.23301
0.23301
0.23301
0.23301
0.23301
0.23301
0.23301
0.23301
0.23301
0.23301
0.23301
0.23301
0.23301
0.23301
0.23301
0.23301
0.23301
0.23301
0.23301
0.23301
0.23301
0.23301
0.23301
0.23301
0.23301
0.23301
0.23301
0.23301
0.23301
0.23301
0.23301
0.23301
0.23301
0.23301
0.23301
0.23301
0.23301
0.23301
0.23301
0.23301
0.23301
0.23301
0.23301
0.23301
0.23301
0.23301
0.23301
0.23301
0.23301
0.23301
0.23301
0.23301
0.23301
0.23301
0.23301
0.23301
0.23301
0.23301
0.23301
0.23301
0.23301
0.23301
0.23301
0.23301
0.23301
0.23301
0.23301
0.23301
0.23301
0.23301
0.23301
0.23301
0.23301
0.23301
0.23301
0.23301
0.23301
0.23301
0.23301
0.23301
0.23301
0.23301
0.23301
0.23301
0.23301
0.23301
0.23301
0.23301
0.23301
0.23301
0.23301
0.23301
0.23301
0.23301
0.23301
0.23301
0.23301
0.23301
0.23301
0.23301
0.23301
0.23301
0.23301
0.23301
0.23301
0.23301
0.23301
0.23301
0.23301
0.23301
0.23301
0.23301
0.23301
0.23301
0.23301
0.23301
0.23301
0.23301
0.23301
0.23301
0.23301
0.23301
0.23301
0.23301
0.23301
0.23301
0.23301
0.23301
0.23301
0.23301
0.23301
0.23301
0.23301
0.23301
0.23301
0.23301
0.23301
0.23301
0.23301
0.23301
0.23301
0.23301
0.23301
0.23301
0.23301
0.23301
0.23301
0.23301
0.23301
0.23301
0.23301
0.23301
0.23301
0.23301
0.23301
0.23301
0.23301
0.23301
0.23301
0.23301
0.23301
0.23301
0.23301
0.23301
0.23301
0.23301
0.23301
0.23301
0.23301
0.23301
0.23301
0.23301
0.23301
0.23301
0.23301
0.23301
0.23301
0.23301
0.23301
0.23301
0.23301
0.23301
0.23301
0.23301
0.23301
0.23301
0.23301
0.23301
0.23301
0.23301
0.23301
0.23301
0.23301
0.23301
0.23301
0.23301
0.23301
0.23301
0.23301
0.23301
0.23301
0.23301
0.23301
0.23301
0.23301
0.23301
0.23301
0.23301
0.23301
0.23301
0.23301
0.23301
0.23301
0.23301
0.23301
0.23301
0.23301
0.23301
0.23301
0.23301
0.23301
0.23301
0.23301
0.23301
0.23301
0.23301
0.23301
0.23301
0.23301
0.23301
0.23301
0.23301
0.23301
0.23301
0.23301
0.23301
0.23301
0.23301
0.23301
0.23301
0.23301
0.23301
0.23301
0.23301
0.23301
0.23301
0.23301
0.23301
0.23301
0.23301
0.23301
0.23301
0.23301
0.23301
0.23301
0.23301
0.23301
0.23301
0.23301
0.23301
0.23301
0.23301
0.23301
0.23301
0.23301
0.23301
0.23301
0.23301
0.23301
0.23301
0.23301
0.23301
0.23301
0.23301
0.23301
0.23301
0.23301
0.23301
0.23301
0.23301
0.23301
0.23301
0.23301
0.23301
0.23301
0.23301
0.23301
0.23301
0.23301
0.23301
0.23301
0.23301
0.23301
0.23301
0.23301
0.23301
0.23301
0.23301
0.23301
0.23301
0.23301
0.23301
0.23301
0.23301
0.23301
0.23301
0.23301
0.23301
0.23301
0.23301
0.23301
0.23301
0.23301
0.23301
0.23301
0.23301
0.23301
0.23301
0.23301
0.23301
0.23301
0.23301
0.23301
0.23301
0.23301
0.23301
0.23301
0.23301
0.23301
0.23301
0.23301
0.23301
0.23301
0.23301
0.23301
0.23301
0.23301
0.23301
0.23301
0.23301
0.23301
0.23301
0.23301
0.23301
0.23301
0.23301
0.23301
0.23301
0.23301
0.23301
0.23301
0.23301
0.23301
0.23301
0.23301
0.23301
0.23301
0.23301
0.23301
0.23301
0.23301
0.23301
0.23301
0.23301
0.23301
0.23301
0.23301
0.23301
0.23301
0.23301
0.23301
0.23301
0.23301
0.23301
0.23301
0.23301
0.23301
0.23301
0.23301
0.23301
0.23301
0.23301
0.23301
0.23301
0.23301
0.23301
0.23301
0.23301
0.23301
0.23301
0.23301
0.23301
0.23301
0.23301
0.23301
0.23301
0.23301
0.23301
0.23301
0.23301
0.23301
0.23301
0.23301
0.23301
0.23301
0.23301
0.23301
0.23301
0.23301
0.23301
0.23301
0.23301
0.23301
0.23301
0.23301
0.23301
0.23301
0.23301
0.23301
0.23301
0.23301
0.23301
0.23301
0.23301
0.23301
0.23301
0.23301
0.23301
0.23301
0.23301
0.23301
0.23301
0.23301
0.23301
0.23301
0.23301
0.23301
0.23301
0.23301
0.23301
0.233009
0.23301
0.233009
0.23301
0.233009
0.23301
0.233009
0.23301
0.233009
0.23301
0.233009
0.23301
0.23301
0.23301
0.23301
0.23301
0.23301
0.23301
0.23301
0.23301
0.23301
0.23301
0.23301
0.23301
0.23301
0.23301
0.23301
0.23301
0.23301
0.23301
0.23301
0.23301
0.23301
0.23301
0.23301
0.23301
0.23301
0.23301
0.23301
0.23301
0.23301
0.23301
0.23301
0.23301
0.23301
0.23301
0.23301
0.23301
0.23301
0.23301
0.23301
0.23301
0.23301
0.23301
0.23301
0.233009
0.233008
0.233008
0.233007
0.233008
0.233005
0.233007
0.233003
0.233007
0.233003
0.233008
0.233003
0.233008
0.233004
0.233009
0.233007
0.233008
0.233009
0.233008
0.233007
0.23301
0.233009
0.23301
0.23301
0.23301
0.23301
0.23301
0.23301
0.23301
0.23301
0.23301
0.23301
0.23301
0.23301
0.23301
0.23301
0.23301
0.23301
0.23301
0.23301
0.23301
0.23301
0.23301
0.23301
0.23301
0.23301
0.23301
0.23301
0.23301
0.23301
0.23301
0.23301
0.23301
0.23301
0.23301
0.23301
0.23301
0.233008
0.233006
0.233012
0.233004
0.232997
0.232999
0.232986
0.232994
0.232974
0.232991
0.232962
0.23299
0.232956
0.232993
0.23296
0.232998
0.232971
0.233003
0.232985
0.232998
0.233006
0.232993
0.232988
0.23301
0.233006
0.23301
0.23301
0.23301
0.23301
0.23301
0.23301
0.23301
0.23301
0.23301
0.23301
0.23301
0.23301
0.23301
0.23301
0.23301
0.23301
0.23301
0.23301
0.23301
0.23301
0.23301
0.23301
0.23301
0.23301
0.23301
0.23301
0.23301
0.23301
0.23301
0.23301
0.23301
0.23301
0.23301
0.23301
0.233009
0.233002
0.232957
0.232986
0.232956
0.232965
0.232917
0.232929
0.232846
0.232894
0.232765
0.232875
0.232701
0.232875
0.232676
0.232894
0.232698
0.232927
0.232766
0.232965
0.232854
0.232938
0.232985
0.232909
0.232886
0.233007
0.232985
0.233008
0.23301
0.233009
0.23301
0.23301
0.23301
0.23301
0.23301
0.23301
0.23301
0.23301
0.23301
0.23301
0.23301
0.23301
0.23301
0.23301
0.23301
0.23301
0.23301
0.23301
0.23301
0.23301
0.23301
0.23301
0.23301
0.23301
0.23301
0.23301
0.23301
0.23301
0.23301
0.23301
0.233009
0.233006
0.232986
0.232875
0.232632
0.232492
0.232856
0.232754
0.232732
0.232569
0.232583
0.232356
0.232447
0.232145
0.232357
0.231982
0.232328
0.231882
0.232389
0.231869
0.232565
0.231993
0.232758
0.232301
0.232652
0.232873
0.232549
0.232471
0.23299
0.232876
0.232997
0.23301
0.233004
0.233008
0.23301
0.23301
0.23301
0.23301
0.23301
0.23301
0.23301
0.23301
0.23301
0.23301
0.23301
0.23301
0.23301
0.23301
0.23301
0.23301
0.23301
0.23301
0.23301
0.23301
0.23301
0.23301
0.23301
0.23301
0.23301
0.23301
0.23301
0.23301
0.233009
0.233007
0.232994
0.232938
0.232719
0.232337
0.232156
0.231978
0.231766
0.232384
0.23218
0.232101
0.231829
0.23182
0.231491
0.231581
0.231173
0.231399
0.230908
0.231299
0.230708
0.231324
0.230611
0.23154
0.2307
0.232005
0.231056
0.231724
0.232426
0.231461
0.231277
0.232895
0.23243
0.232926
0.233009
0.23296
0.232982
0.23301
0.23301
0.23301
0.23301
0.23301
0.23301
0.23301
0.23301
0.23301
0.23301
0.23301
0.23301
0.23301
0.23301
0.23301
0.23301
0.23301
0.23301
0.23301
0.23301
0.23301
0.23301
0.23301
0.23301
0.23301
0.23301
0.23301
0.23301
0.233008
0.232997
0.232953
0.232813
0.232404
0.231921
0.231849
0.231564
0.23133
0.231049
0.230801
0.231561
0.2313
0.231156
0.23082
0.230766
0.230368
0.230412
0.229928
0.230111
0.229532
0.229898
0.229197
0.229839
0.228982
0.230025
0.229002
0.230549
0.229349
0.230104
0.231167
0.229699
0.229411
0.232483
0.231164
0.232578
0.232971
0.232673
0.232666
0.23301
0.23301
0.23301
0.23301
0.233009
0.233009
0.23301
0.23301
0.23301
0.23301
0.23301
0.23301
0.23301
0.23301
0.23301
0.23301
0.23301
0.23301
0.23301
0.23301
0.23301
0.23301
0.23301
0.23301
0.23301
0.23301
0.233009
0.233002
0.232965
0.23283
0.232513
0.231964
0.230986
0.231145
0.230763
0.230565
0.230308
0.229894
0.229608
0.230498
0.230188
0.229966
0.229574
0.229455
0.228997
0.228965
0.22842
0.228519
0.22788
0.228171
0.227403
0.228006
0.227064
0.228135
0.227014
0.228673
0.227329
0.228114
0.229209
0.227646
0.227328
0.231274
0.22914
0.231459
0.232131
0.231454
0.230645
0.23301
0.23301
0.233009
0.233009
0.233009
0.233009
0.233009
0.23301
0.23301
0.23301
0.23301
0.23301
0.23301
0.23301
0.23301
0.23301
0.23301
0.23301
0.23301
0.23301
0.23301
0.23301
0.23301
0.23301
0.23301
0.233009
0.23299
0.232884
0.232563
0.232061
0.23145
0.230466
0.229515
0.229484
0.230067
0.229829
0.229338
0.22905
0.228509
0.228186
0.229201
0.228845
0.22854
0.228097
0.227898
0.227398
0.22727
0.226696
0.226682
0.22603
0.226222
0.225453
0.225956
0.225054
0.226032
0.224967
0.226556
0.225245
0.225978
0.227092
0.225555
0.225335
0.229172
0.226962
0.229169
0.232353
0.228672
0.229134
0.23301
0.23301
0.233009
0.233009
0.233008
0.233009
0.233009
0.23301
0.23301
0.23301
0.23301
0.23301
0.23301
0.23301
0.23301
0.23301
0.23301
0.23301
0.23301
0.23301
0.23301
0.23301
0.23301
0.23301
0.233008
0.23298
0.232783
0.232228
0.231517
0.230852
0.229915
0.228212
0.228306
0.227818
0.22879
0.228514
0.227884
0.227572
0.22692
0.226579
0.227682
0.227289
0.226907
0.226436
0.226158
0.225651
0.225433
0.22489
0.224779
0.224212
0.224326
0.223783
0.224241
0.223728
0.224397
0.223883
0.224792
0.224148
0.224541
0.225136
0.22442
0.224301
0.22466
0.226807
0.225896
0.225071
0.226569
0.231498
0.226662
0.226634
0.23301
0.23301
0.233009
0.233007
0.233007
0.233007
0.233009
0.23301
0.23301
0.23301
0.23301
0.23301
0.23301
0.23301
0.23301
0.23301
0.23301
0.23301
0.23301
0.23301
0.23301
0.23301
0.23301
0.233008
0.232975
0.232708
0.231899
0.23091
0.23009
0.229206
0.227751
0.226309
0.226046
0.226793
0.226531
0.22729
0.227023
0.22626
0.225946
0.225226
0.224908
0.226005
0.225599
0.225167
0.224706
0.224399
0.223934
0.223729
0.223294
0.22335
0.222983
0.223344
0.223027
0.223537
0.223285
0.223828
0.223601
0.224107
0.223903
0.223962
0.224217
0.224134
0.224316
0.224522
0.224209
0.224184
0.22422
0.224198
0.224189
0.225714
0.224916
0.225077
0.224418
0.224909
0.225686
0.224853
0.229221
0.22558
0.224743
0.224875
0.224529
0.225324
0.224303
0.23301
0.233009
0.233007
0.233003
0.233004
0.233006
0.233009
0.23301
0.23301
0.23301
0.23301
0.23301
0.23301
0.23301
0.23301
0.23301
0.23301
0.23301
0.23301
0.23301
0.23301
0.23301
0.233009
0.232977
0.232682
0.231668
0.23031
0.229213
0.228182
0.22677
0.225807
0.225529
0.224888
0.224717
0.22524
0.225048
0.225673
0.225443
0.2246
0.224338
0.223619
0.223382
0.224312
0.223929
0.223501
0.223116
0.222904
0.222554
0.222654
0.222356
0.222734
0.222454
0.223039
0.22278
0.223462
0.22338
0.223283
0.223171
0.223853
0.223821
0.223509
0.223704
0.223776
0.22402
0.224103
0.22414
0.224011
0.224218
0.224171
0.224133
0.224121
0.224255
0.224454
0.224333
0.224304
0.224266
0.224326
0.22403
0.224218
0.22418
0.233
0.231012
0.22601
0.223958
0.22411
0.223752
0.224167
0.23301
0.233008
0.233001
0.232993
0.232996
0.233004
0.233009
0.23301
0.23301
0.23301
0.23301
0.23301
0.23301
0.23301
0.23301
0.23301
0.23301
0.23301
0.23301
0.23301
0.23301
0.23301
0.232985
0.232691
0.23158
0.229873
0.228421
0.227113
0.225991
0.224929
0.224619
0.224445
0.223938
0.223985
0.223934
0.223919
0.224144
0.224008
0.223212
0.223172
0.222541
0.22256
0.222822
0.222622
0.222308
0.222157
0.222114
0.221964
0.222199
0.222017
0.222514
0.222273
0.223055
0.222918
0.222786
0.222644
0.223421
0.223308
0.223179
0.224003
0.223977
0.223601
0.223798
0.223913
0.224192
0.224304
0.224402
0.224221
0.224496
0.224328
0.224044
0.224313
0.224586
0.224691
0.224892
0.224697
0.223919
0.223814
0.223926
0.223725
0.223636
0.232914
0.231595
0.227554
0.223519
0.223385
0.223463
0.224597
0.23301
0.233002
0.232982
0.232967
0.23298
0.233001
0.233009
0.23301
0.23301
0.23301
0.23301
0.23301
0.23301
0.23301
0.23301
0.23301
0.23301
0.23301
0.23301
0.23301
0.23301
0.232998
0.232745
0.231598
0.229666
0.227885
0.226812
0.226009
0.225165
0.224459
0.224729
0.224088
0.22421
0.223657
0.22384
0.223373
0.223508
0.223195
0.223258
0.222629
0.222769
0.222219
0.222388
0.22211
0.222138
0.221906
0.221924
0.221893
0.221893
0.222079
0.222014
0.222523
0.222416
0.222334
0.222283
0.223042
0.2229
0.222764
0.222639
0.223471
0.223327
0.223177
0.224206
0.224134
0.223653
0.223841
0.224004
0.224461
0.224638
0.224719
0.224454
0.224886
0.224766
0.224237
0.224769
0.225081
0.225139
0.225388
0.225238
0.22378
0.223619
0.224088
0.223448
0.223292
0.232772
0.228048
0.230945
0.223151
0.223099
0.223425
0.224905
0.233009
0.232982
0.232938
0.232916
0.232965
0.233
0.233008
0.23301
0.23301
0.23301
0.23301
0.23301
0.23301
0.23301
0.23301
0.23301
0.23301
0.23301
0.23301
0.23301
0.233005
0.23285
0.231723
0.229669
0.227874
0.226919
0.226283
0.225864
0.2262
0.224874
0.225795
0.224071
0.224431
0.223869
0.224224
0.223341
0.223583
0.222939
0.22313
0.22262
0.2229
0.222467
0.222828
0.221997
0.222171
0.221967
0.222158
0.222093
0.222261
0.222261
0.222272
0.222396
0.22254
0.222474
0.222439
0.222433
0.223029
0.222892
0.222776
0.222688
0.223491
0.223324
0.223169
0.224369
0.224222
0.223661
0.22384
0.224038
0.224713
0.224989
0.224983
0.224617
0.22526
0.225337
0.224676
0.225348
0.225619
0.225533
0.2258
0.22581
0.223873
0.223619
0.224477
0.223358
0.223121
0.232569
0.227777
0.230414
0.222958
0.222978
0.223445
0.224993
0.233007
0.232936
0.232861
0.232863
0.232954
0.232999
0.233008
0.233009
0.23301
0.23301
0.23301
0.23301
0.23301
0.23301
0.23301
0.23301
0.23301
0.23301
0.23301
0.233009
0.232934
0.232048
0.229823
0.227992
0.227225
0.227013
0.227525
0.228882
0.228163
0.229429
0.226049
0.227069
0.224678
0.225283
0.224677
0.225212
0.223863
0.224239
0.223205
0.223524
0.223219
0.223622
0.223286
0.223741
0.222482
0.22286
0.222489
0.222747
0.222469
0.22254
0.222443
0.222459
0.22228
0.222383
0.222634
0.222605
0.222584
0.222561
0.223033
0.222923
0.222841
0.22278
0.223482
0.223319
0.223182
0.224451
0.224246
0.223647
0.22382
0.224029
0.224875
0.225261
0.225146
0.224692
0.225544
0.225938
0.225236
0.225956
0.226054
0.22583
0.226113
0.226273
0.224177
0.223811
0.224988
0.22343
0.223087
0.232406
0.227559
0.230099
0.222876
0.22292
0.223428
0.224972
0.233
0.232857
0.232769
0.232827
0.232953
0.233
0.233007
0.233009
0.233009
0.23301
0.23301
0.23301
0.23301
0.23301
0.23301
0.23301
0.23301
0.23301
0.233009
0.232981
0.232407
0.230258
0.228267
0.227654
0.228023
0.229531
0.231105
0.231923
0.230173
0.231511
0.227738
0.228925
0.22588
0.22672
0.225979
0.226694
0.224892
0.225393
0.224029
0.224446
0.224208
0.224684
0.223833
0.224321
0.223056
0.223413
0.22258
0.222732
0.222176
0.222035
0.22183
0.221925
0.222524
0.222476
0.221646
0.221891
0.222726
0.222666
0.222586
0.222481
0.22307
0.222977
0.222888
0.222785
0.223475
0.223327
0.223196
0.224468
0.224232
0.223629
0.223783
0.224002
0.224948
0.225431
0.225226
0.224709
0.225727
0.226438
0.22582
0.22649
0.226375
0.226034
0.226343
0.226611
0.224608
0.224131
0.225526
0.22362
0.223147
0.232462
0.2273
0.229914
0.222847
0.222866
0.223361
0.224815
0.232977
0.232754
0.232683
0.23282
0.232958
0.233
0.233005
0.233007
0.233009
0.233009
0.233009
0.23301
0.23301
0.23301
0.23301
0.23301
0.23301
0.23301
0.232998
0.232696
0.230882
0.228639
0.227991
0.228853
0.230869
0.232124
0.232676
0.232788
0.232916
0.231938
0.232543
0.229809
0.231014
0.227566
0.228608
0.227644
0.228541
0.226259
0.226899
0.225176
0.225693
0.224877
0.225499
0.223714
0.224242
0.222976
0.223293
0.221401
0.221492
0.221407
0.221191
0.2209
0.221021
0.222331
0.222127
0.220616
0.220946
0.222657
0.222488
0.222259
0.221982
0.22307
0.222931
0.22276
0.222541
0.223455
0.223286
0.223108
0.224456
0.224201
0.223569
0.223685
0.223947
0.224973
0.225523
0.225263
0.224702
0.225838
0.226797
0.226355
0.226878
0.226625
0.226166
0.226496
0.226869
0.225078
0.224505
0.226019
0.223868
0.223252
0.232692
0.226912
0.229859
0.222833
0.222795
0.223248
0.224548
0.232915
0.232628
0.232636
0.232831
0.232965
0.232998
0.233004
0.233006
0.233007
0.233008
0.233009
0.233009
0.23301
0.23301
0.23301
0.23301
0.23301
0.233004
0.232868
0.231531
0.229164
0.2282
0.229257
0.231381
0.232418
0.232857
0.232988
0.232957
0.232989
0.232715
0.232887
0.231696
0.232355
0.229606
0.230734
0.229441
0.230425
0.227698
0.228522
0.226186
0.226927
0.224881
0.22564
0.222454
0.223014
0.221689
0.222014
0.22025
0.220486
0.220663
0.220907
0.220341
0.220135
0.2201
0.220046
0.221655
0.2213
0.219566
0.219833
0.222261
0.221919
0.221518
0.221079
0.222905
0.222658
0.222347
0.221963
0.22335
0.223111
0.222839
0.224421
0.224133
0.22341
0.223493
0.223823
0.224977
0.225576
0.225283
0.224676
0.225911
0.227051
0.226773
0.227134
0.226803
0.226259
0.226604
0.227059
0.225523
0.224877
0.226428
0.224123
0.223359
0.232616
0.226331
0.229261
0.222808
0.222713
0.223104
0.224189
0.232793
0.23251
0.232644
0.232858
0.232973
0.232997
0.233002
0.233003
0.233003
0.233004
0.233006
0.233008
0.23301
0.23301
0.23301
0.23301
0.233008
0.232952
0.232112
0.229828
0.228404
0.229266
0.231379
0.232372
0.232821
0.232984
0.233001
0.233003
0.232975
0.232993
0.232872
0.23294
0.232508
0.232743
0.231353
0.23207
0.230524
0.231387
0.228476
0.229518
0.226508
0.227464
0.223746
0.224707
0.22198
0.222252
0.22109
0.221321
0.221638
0.220217
0.220545
0.220896
0.221206
0.219459
0.219517
0.219927
0.219694
0.220625
0.220199
0.219041
0.219033
0.221507
0.220999
0.220472
0.219965
0.222508
0.222097
0.221606
0.221051
0.223108
0.222752
0.222317
0.224353
0.223996
0.223115
0.223162
0.223617
0.224963
0.225614
0.22529
0.224613
0.225967
0.22722
0.227045
0.227282
0.226924
0.22633
0.226681
0.227183
0.225905
0.225204
0.226729
0.224344
0.223438
0.229658
0.225492
0.22616
0.222763
0.222618
0.222948
0.223778
0.232581
0.23248
0.232677
0.232895
0.232975
0.232994
0.232995
0.232996
0.232997
0.233
0.233004
0.233008
0.233009
0.23301
0.23301
0.233009
0.232987
0.232541
0.230604
0.228742
0.229133
0.231207
0.232121
0.232612
0.232914
0.233002
0.233001
0.233005
0.232961
0.232988
0.232841
0.232914
0.232595
0.23274
0.232003
0.232376
0.230567
0.231283
0.228328
0.22954
0.225832
0.227062
0.22258
0.223105
0.223221
0.222958
0.221461
0.221682
0.222862
0.222845
0.220747
0.221291
0.221814
0.222242
0.219189
0.219423
0.220216
0.219755
0.219516
0.219186
0.218938
0.218752
0.220462
0.219886
0.219374
0.218972
0.221797
0.221205
0.220574
0.219944
0.222654
0.222098
0.221462
0.224233
0.223799
0.222596
0.222633
0.223284
0.224922
0.225639
0.225253
0.224509
0.225999
0.227318
0.227191
0.227336
0.22699
0.226355
0.226692
0.227225
0.226196
0.225454
0.22691
0.224495
0.223459
0.22963
0.224396
0.225303
0.222694
0.222514
0.222765
0.223325
0.232392
0.232511
0.232752
0.232921
0.232969
0.232975
0.232971
0.232974
0.232984
0.232994
0.233002
0.233007
0.233009
0.233009
0.233009
0.232997
0.232797
0.231399
0.229272
0.229002
0.230792
0.231734
0.232218
0.232664
0.232975
0.233007
0.232998
0.233005
0.232926
0.232976
0.232669
0.23283
0.232205
0.232449
0.231701
0.231967
0.229213
0.229956
0.226772
0.228128
0.224053
0.225327
0.222737
0.222718
0.224124
0.225184
0.224929
0.224664
0.224294
0.22256
0.222765
0.224172
0.221657
0.2224
0.223068
0.223583
0.219219
0.219652
0.220904
0.220221
0.21874
0.218693
0.219011
0.218721
0.219369
0.218895
0.218579
0.218454
0.220783
0.220105
0.219474
0.218937
0.221913
0.221146
0.220372
0.224033
0.223456
0.221835
0.22182
0.222721
0.224806
0.225594
0.225119
0.22429
0.225949
0.227339
0.22723
0.227319
0.226984
0.226302
0.226634
0.227203
0.226381
0.225589
0.22694
0.224546
0.22342
0.231099
0.223836
0.226101
0.222598
0.222383
0.222532
0.223015
0.232401
0.232605
0.232822
0.23291
0.232921
0.232903
0.232902
0.232925
0.232957
0.232983
0.232999
0.233005
0.233008
0.233009
0.233003
0.232921
0.232066
0.229977
0.229019
0.230142
0.231318
0.231789
0.232267
0.232872
0.232999
0.233008
0.233005
0.233009
0.232995
0.232882
0.232963
0.232398
0.23271
0.231405
0.231939
0.23046
0.230903
0.226866
0.227783
0.224575
0.225753
0.222914
0.223525
0.224181
0.223521
0.225342
0.226235
0.225967
0.225645
0.225247
0.223937
0.224122
0.225413
0.222569
0.223485
0.224286
0.22487
0.219452
0.22003
0.221612
0.220752
0.218445
0.21854
0.219244
0.218833
0.218539
0.218318
0.218254
0.218265
0.219663
0.219062
0.218591
0.218275
0.220949
0.220063
0.21929
0.223645
0.222815
0.220822
0.220695
0.221797
0.224558
0.225462
0.224866
0.223822
0.225816
0.227301
0.22718
0.227238
0.226918
0.226167
0.226475
0.227114
0.226416
0.225606
0.226847
0.224493
0.223332
0.23178
0.223908
0.226905
0.222454
0.222209
0.222319
0.22285
0.232482
0.232712
0.232806
0.232811
0.232753
0.232713
0.232747
0.232836
0.232917
0.232969
0.232993
0.233003
0.233007
0.233005
0.232974
0.232518
0.230772
0.229164
0.229571
0.230828
0.231354
0.231813
0.232563
0.232965
0.233008
0.233006
0.233009
0.23301
0.232995
0.232846
0.232957
0.232037
0.23257
0.230267
0.231226
0.22855
0.229342
0.224734
0.225628
0.22329
0.223903
0.22311
0.223068
0.225594
0.22508
0.22474
0.226403
0.227081
0.226819
0.226472
0.226069
0.225238
0.225393
0.226466
0.223279
0.22435
0.225289
0.225932
0.21978
0.220452
0.222225
0.221268
0.218364
0.218544
0.21952
0.21903
0.218136
0.218103
0.218116
0.218212
0.218705
0.218311
0.218073
0.217983
0.219856
0.219035
0.218443
0.222895
0.221754
0.21966
0.219436
0.220543
0.224078
0.225179
0.224302
0.223043
0.225495
0.227152
0.226994
0.226977
0.226704
0.225774
0.225981
0.226807
0.226274
0.225455
0.226535
0.224377
0.223147
0.232143
0.224131
0.227221
0.222261
0.222017
0.222138
0.222799
0.232582
0.232683
0.232644
0.232527
0.232437
0.232447
0.232554
0.232723
0.232874
0.232953
0.232987
0.233
0.233004
0.232989
0.23278
0.231549
0.229598
0.229362
0.230286
0.230919
0.231347
0.232082
0.232861
0.232998
0.23301
0.233006
0.233009
0.23301
0.232997
0.232838
0.232958
0.231797
0.232514
0.229081
0.230584
0.226588
0.227701
0.223643
0.224322
0.223249
0.223328
0.223962
0.22344
0.226303
0.225773
0.225992
0.225456
0.227239
0.227724
0.227484
0.227157
0.226757
0.226304
0.226445
0.227281
0.224034
0.225125
0.226053
0.226727
0.220142
0.22091
0.222903
0.221835
0.218385
0.218657
0.21983
0.219274
0.217958
0.217971
0.218074
0.218242
0.218069
0.217903
0.217842
0.217824
0.218807
0.218187
0.217881
0.221727
0.22026
0.218527
0.218122
0.218971
0.223089
0.224503
0.223043
0.221463
0.224669
0.226696
0.226544
0.226364
0.226091
0.224741
0.2248
0.226023
0.225881
0.225153
0.22594
0.224111
0.222863
0.232794
0.224223
0.228439
0.222035
0.221828
0.222
0.222773
0.232515
0.232439
0.232258
0.232131
0.232111
0.232208
0.232395
0.232625
0.232833
0.23294
0.232981
0.232999
0.232992
0.232908
0.232166
0.230291
0.229387
0.229794
0.230473
0.230895
0.231557
0.232557
0.232969
0.233008
0.23301
0.23301
0.23301
0.233007
0.23301
0.233
0.232856
0.232968
0.231767
0.232529
0.228583
0.230403
0.225332
0.226766
0.223809
0.224214
0.223922
0.223739
0.225123
0.2244
0.227023
0.226542
0.226884
0.226268
0.227851
0.228271
0.228066
0.227789
0.227441
0.227106
0.227251
0.227864
0.224803
0.225925
0.226796
0.227354
0.220526
0.221383
0.223585
0.222409
0.218498
0.218835
0.220137
0.21953
0.217848
0.217952
0.218121
0.218361
0.217751
0.217706
0.217702
0.217734
0.217962
0.217696
0.217625
0.219596
0.21845
0.217748
0.217739
0.217955
0.220946
0.222932
0.220706
0.219236
0.222836
0.225846
0.225888
0.225614
0.224864
0.222951
0.223147
0.224902
0.22535
0.224665
0.225357
0.223713
0.222531
0.232797
0.22418
0.228237
0.221811
0.221646
0.221902
0.222678
0.232185
0.231983
0.231814
0.231769
0.231851
0.232041
0.232295
0.232564
0.232801
0.232928
0.23298
0.23299
0.232959
0.232559
0.231024
0.229546
0.229512
0.23004
0.230465
0.231047
0.232035
0.232884
0.233002
0.23301
0.23301
0.23301
0.23301
0.233008
0.23301
0.233005
0.232905
0.232985
0.231967
0.232645
0.228748
0.230639
0.225196
0.226782
0.225039
0.225347
0.22549
0.22513
0.226848
0.226378
0.226229
0.227823
0.227401
0.227976
0.227471
0.228367
0.228846
0.228683
0.228459
0.228174
0.227686
0.227826
0.228372
0.225549
0.226702
0.227525
0.227986
0.220893
0.221831
0.224237
0.222955
0.21866
0.219051
0.220412
0.219776
0.217859
0.218019
0.21824
0.218512
0.217565
0.217572
0.217649
0.217776
0.217586
0.217511
0.217446
0.218448
0.218058
0.217562
0.21763
0.217834
0.219407
0.220807
0.219788
0.218791
0.221274
0.224908
0.225197
0.224845
0.223437
0.221741
0.222375
0.223728
0.22481
0.224145
0.22479
0.223257
0.222216
0.209032
0.223795
0.226158
0.221579
0.221482
0.221781
0.222439
0.231689
0.231514
0.231436
0.231506
0.231695
0.231964
0.232267
0.232554
0.232788
0.232929
0.232977
0.232967
0.232772
0.231706
0.229975
0.229462
0.229687
0.230068
0.230576
0.231492
0.232666
0.232983
0.233009
0.23301
0.23301
0.23301
0.23301
0.233009
0.23301
0.233007
0.23296
0.232999
0.232359
0.23281
0.229703
0.231341
0.226285
0.227846
0.227282
0.227479
0.228127
0.227528
0.228238
0.227555
0.22863
0.228227
0.228704
0.228378
0.229094
0.22873
0.228915
0.229471
0.229357
0.229188
0.228973
0.228229
0.228341
0.228913
0.226258
0.227453
0.22823
0.228605
0.221207
0.222219
0.224821
0.223428
0.218851
0.219263
0.220606
0.219976
0.217932
0.218136
0.218386
0.218684
0.217467
0.217588
0.217728
0.217896
0.21738
0.217381
0.217458
0.218473
0.218163
0.217492
0.217215
0.217248
0.219399
0.220484
0.22002
0.218943
0.221256
0.223989
0.224506
0.22401
0.222944
0.221931
0.222482
0.223378
0.224235
0.22371
0.224202
0.22288
0.22188
0.115295
0.22286
0.217567
0.221359
0.221319
0.221611
0.222016
0.231204
0.231135
0.231181
0.231371
0.231651
0.231975
0.23229
0.232568
0.232791
0.232933
0.232962
0.232868
0.2322
0.230548
0.229522
0.229462
0.22973
0.230155