/*--------------------------------*- C++ -*----------------------------------*\
  =========                 |
  \\      /  F ield         | OpenFOAM: The Open Source CFD Toolbox
   \\    /   O peration     | Website:  https://openfoam.org
    \\  /    A nd           | Version:  dev
     \\/     M anipulation  |
\*---------------------------------------------------------------------------*/
FoamFile
{
    version     2.0;
    format      ascii;
    class       volScalarField;
    location    "2500";
    object      omega;
}
// * * * * * * * * * * * * * * * * * * * * * * * * * * * * * * * * * * * * * //

dimensions      [0 0 -1 0 0 0 0];

internalField   nonuniform List<scalar> 
9978
(
1.2544
1.26973
1.22271
1.18441
1.36934
1.10823
1.08266
1.37753
1.30535
1.0379
1.03443
1.33982
1.37459
1.17068
1.01824
1.01087
1.24573
1.39728
1.30032
1.07913
1.00998
0.998831
1.13539
1.38629
1.36692
1.16897
1.03993
1.00488
0.987288
1.06554
1.34509
1.38719
1.26736
1.08362
1.02091
1.00188
0.980408
1.02311
1.25878
1.38793
1.33849
1.14689
1.04365
1.00854
1.00015
0.976788
0.996168
1.16398
1.37371
1.36784
1.22379
1.07459
1.02157
1.00161
0.998163
0.975429
0.981052
1.08042
1.33463
1.3733
1.29329
1.11877
1.03839
1.00628
0.996998
0.997058
0.976608
0.971738
1.0307
1.26673
1.37112
1.33495
1.17784
1.05918
1.01659
0.997747
0.99239
0.996445
0.97818
0.963568
0.998926
1.17971
1.35844
1.35311
1.23999
1.09014
1.02793
1.00141
0.991236
0.989508
0.99594
0.979417
0.958194
0.978993
1.09444
1.32499
1.35546
1.29065
1.13524
1.04138
1.00863
0.991923
0.985413
0.987623
0.995568
0.980227
0.954864
0.966581
1.0394
1.2655
1.35247
1.32054
1.18932
1.06359
1.01528
0.994944
0.98466
0.981319
0.986269
0.9953
0.980721
0.952929
0.958927
1.00445
1.18474
1.34023
1.33504
1.23903
1.09769
1.02459
0.999091
0.985179
0.978283
0.978326
0.985343
0.99508
0.980893
0.952371
0.954237
0.982744
1.10234
1.30919
1.33608
1.27971
1.14366
1.03964
1.00328
0.987069
0.97767
0.973738
0.976196
0.984654
0.994909
0.981157
0.953657
0.951473
0.969633
1.04404
1.25108
1.33256
1.30469
1.19177
1.06601
1.00911
0.989198
0.977923
0.971819
0.970207
0.97457
0.984168
0.994782
0.981655
0.955166
0.948558
0.961533
1.00938
1.17357
1.31952
1.31706
1.23392
1.10352
1.02013
0.991497
0.978721
0.970973
0.967207
0.967216
0.973377
0.983848
0.994696
0.982191
0.956367
0.946584
0.955654
0.987835
1.09627
1.28693
1.31692
1.26965
1.14935
1.03901
0.995462
0.979207
0.970479
0.965465
0.963111
0.964828
0.972554
0.983599
0.994666
0.982727
0.957452
0.945496
0.951575
0.974834
1.0421
1.22744
1.31281
1.29167
1.19228
1.07018
1.00299
0.980131
0.970155
0.963932
0.960747
0.959483
0.963022
0.971964
0.983401
0.994677
0.983289
0.958461
0.945062
0.948891
0.966433
1.0094
1.14852
1.29794
1.30191
1.23148
1.11174
1.01664
0.982339
0.968918
0.962602
0.95864
0.956453
0.95647
0.961647
0.971496
0.983267
0.994718
0.983882
0.959403
0.945155
0.947139
0.960201
0.989773
1.07668
1.26144
1.30141
1.26449
1.15611
1.04279
0.987373
0.969075
0.961583
0.956501
0.954106
0.952528
0.954048
0.96053
0.971141
0.983224
0.994782
0.984489
0.960342
0.945876
0.94601
0.955176
0.977395
1.03068
1.19624
1.29654
1.283
1.19618
1.07971
0.998163
0.970399
0.959474
0.954707
0.951547
0.949887
0.94915
0.95196
0.959691
0.970832
0.983267
0.994834
0.985097
0.961338
0.946824
0.94503
0.951333
0.968618
1.00231
1.11407
1.27804
1.29092
1.2342
1.12379
1.01882
0.974266
0.95918
0.953307
0.949005
0.947227
0.946045
0.946126
0.950254
0.959016
0.970615
0.983384
0.994884
0.98566
0.96237
0.947755
0.944407
0.948752
0.961758
0.984235
1.05279
1.23548
1.2912
1.26392
1.1653
1.05347
0.982872
0.960065
0.950997
0.94691
0.944257
0.943375
0.942439
0.943433
0.948879
0.958438
0.97048
0.983569
0.99494
0.986121
0.963363
0.948708
0.944324
0.947083
0.956484
0.972141
1.01366
1.16016
1.28505
1.27958
1.20672
1.09493
0.999995
0.96307
0.950369
0.945544
0.941594
0.940283
0.939744
0.938993
0.94113
0.947826
0.957973
0.970443
0.983732
0.995044
0.986506
0.964207
0.949568
0.944578
0.945978
0.952548
0.963653
0.988742
1.08056
1.26148
1.28769
1.24348
1.13961
1.03077
0.970099
0.951086
0.943521
0.939726
0.937131
0.936792
0.936104
0.935843
0.939305
0.947028
0.957577
0.970544
0.983853
0.995207
0.986876
0.964888
0.95037
0.944906
0.945071
0.949428
0.957499
0.973019
1.02852
1.20979
1.28781
1.26963
1.18047
1.07057
0.984907
0.953669
0.943046
0.938789
0.934767
0.933437
0.933387
0.932499
0.933095
0.937981
0.946414
0.957321
0.970613
0.983802
0.99526
0.987159
0.96549
0.951081
0.945049
0.944286
0.946704
0.952781
0.962894
0.995426
1.12562
1.27804
1.28222
1.22279
1.11545
1.01078
0.959798
0.943711
0.937089
0.933401
0.930452
0.930102
0.929861
0.929102
0.930867
0.937004
0.945958
0.95722
0.970669
0.983725
0.995202
0.987308
0.965961
0.951573
0.945057
0.943662
0.944383
0.948818
0.956065
0.975305
1.0545
1.24759
1.29104
1.25641
1.15794
1.0503
0.971985
0.946029
0.936766
0.932787
0.92865
0.926688
0.926923
0.926262
0.926056
0.929224
0.936258
0.94559
0.957302
0.970714
0.983494
0.995014
0.98736
0.966227
0.951757
0.944836
0.94291
0.942412
0.945354
0.950955
0.963122
1.00968
1.18398
1.28938
1.27885
1.20184
1.09263
0.996107
0.951404
0.937416
0.931535
0.927849
0.92429
0.92341
0.923822
0.922818
0.923549
0.928151
0.935955
0.945685
0.957622
0.970899
0.983196
0.994965
0.98734
0.966337
0.951593
0.944371
0.94193
0.94075
0.942434
0.946715
0.955231
0.982601
1.0979
1.27454
1.29205
1.24261
1.13888
1.03138
0.962302
0.939646
0.931547
0.927536
0.923325
0.920493
0.920564
0.920741
0.919784
0.921579
0.927729
0.936312
0.94633
0.958266
0.970975
0.982497
0.994592
0.987258
0.966256
0.951031
0.943624
0.940653
0.93926
0.939898
0.943188
0.949537
0.966602
1.03629
1.23726
1.30051
1.27417
1.18053
1.07415
0.983601
0.944657
0.932268
0.926994
0.923316
0.91932
0.917332
0.917967
0.917656
0.9171
0.920666
0.928348
0.937703
0.948125
0.959761
0.970903
0.98163
0.994142
0.987113
0.965925
0.95031
0.942366
0.939003
0.937561
0.93767
0.940428
0.945259
0.956913
0.998344
1.16411
1.29632
1.29337
1.22779
1.11857
1.01545
0.954829
0.934533
0.927296
0.923524
0.919295
0.915747
0.914781
0.915215
0.914691
0.915495
0.921168
0.930197
0.940586
0.951728
0.963118
0.971755
0.984762
0.979035
0.997458
0.985244
0.991564
0.986935
0.96533
0.949469
0.940701
0.936924
0.935356
0.935339
0.938076
0.942021
0.950944
0.976419
1.07993
1.27638
1.30945
1.26588
1.16353
1.05697
0.973194
0.939479
0.928508
0.92404
0.919852
0.915571
0.912893
0.912435
0.912594
0.912411
0.915544
0.922927
0.933684
0.945199
0.957751
0.968229
0.974809
0.973272
0.979569
0.997313
0.985529
0.991422
0.986731
0.964568
0.948345
0.938764
0.934505
0.93275
0.93272
0.935669
0.939414
0.946874
0.964296
1.02718
1.231
1.31455
1.29639
1.20939
1.09995
1.00295
0.949427
0.931304
0.925028
0.921088
0.916068
0.912471
0.910568
0.910416
0.910466
0.911939
0.91707
0.926924
0.93959
0.953212
0.965413
0.964505
0.973399
0.968525
0.974324
0.977138
0.976982
0.981201
0.997143
0.986057
0.99144
0.986525
0.963764
0.946966
0.936582
0.931719
0.929792
0.929998
0.933019
0.936954
0.943777
0.958629
0.996234
1.14981
1.30707
1.31406
1.25751
1.14708
1.0408
0.966255
0.937081
0.926944
0.922537
0.918023
0.912781
0.909966
0.908801
0.908922
0.909678
0.913313
0.921784
0.935164
0.951282
0.964118
0.964143
0.969271
0.977979
0.977389
0.981306
0.980324
0.980979
0.983591
0.996996
0.987418
0.992036
0.986326
0.963099
0.945536
0.934356
0.928473
0.92633
0.927142
0.930325
0.93439
0.941056
0.955964
0.980048
1.0727
1.28145
1.3324
1.29519
1.19214
1.08473
0.992972
0.946523
0.930873
0.924749
0.920755
0.914424
0.910116
0.908108
0.907681
0.908266
0.910954
0.918357
0.93247
0.950503
0.964429
0.965056
0.970933
0.972656
0.98077
0.98385
0.986989
0.991759
0.983708
0.985611
0.986623
0.996984
0.989843
0.993425
0.986336
0.962892
0.944263
0.93229
0.924888
0.922282
0.923894
0.927598
0.931842
0.938512
0.952997
0.972553
1.02769
1.22568
1.33348
1.32349
1.24561
1.12942
1.02816
0.962574
0.937271
0.928434
0.923651
0.918294
0.911385
0.908143
0.907083
0.907468
0.909567
0.916117
0.930145
0.950053
0.966
0.967067
0.974843
0.97691
0.984623
0.988206
0.993088
0.991702
1.00106
1.00453
0.987611
0.991782
0.990074
0.997261
0.992856
0.995582
0.986689
0.963282
0.943774
0.930588
0.921266
0.917689
0.920298
0.92459
0.929317
0.936175
0.949951
0.970873
1.00317
1.13895
1.32257
1.34474
1.29218
1.1791
1.07015
0.986302
0.947576
0.934067
0.927671
0.922883
0.915321
0.90916
0.907132
0.907198
0.908945
0.914791
0.92866
0.950165
0.968447
0.970096
0.979785
0.982421
0.992198
0.995846
0.999532
1.00576
1.01103
1.0036
1.01819
1.02236
0.99265
1.00069
0.994135
0.997972
0.996148
0.997933
0.987621
0.965163
0.944784
0.929571
0.917912
0.912933
0.916616
0.921403
0.926662
0.933899
0.946934
0.969949
0.991306
1.07218
1.28961
1.3606
1.33066
1.22965
1.11522
1.0195
0.962744
0.942212
0.933441
0.928095
0.921449
0.912807
0.908242
0.907495
0.90896
0.914386
0.927689
0.951498
0.973078
0.975689
0.985997
0.989499
1.00118
1.00673
1.01254
1.01969
1.02117
1.03193
1.03375
1.0213
1.04365
1.04881
0.999605
1.01508
0.999707
0.998912
1.0004
1.0004
0.990002
0.969035
0.94898
0.930209
0.914856
0.908829
0.91303
0.918343
0.924131
0.931666
0.944641
0.968312
0.988323
1.03468
1.22016
1.35823
1.35641
1.28816
1.16493
1.059
0.984744
0.953765
0.941297
0.934578
0.928893
0.920192
0.912077
0.909082
0.909898
0.914755
0.927735
0.954081
0.980012
0.986396
0.995399
1.00456
1.012
1.02248
1.02628
1.03766
1.04055
1.05132
1.0481
1.06003
1.0616
1.047
1.07063
1.07287
1.01008
1.03816
1.00777
0.999611
1.00597
1.00281
0.994409
0.976678
0.956902
0.933974
0.913678
0.906069
0.909384
0.915505
0.922119
0.929814
0.943622
0.965484
0.988698
1.01656
1.13497
1.34105
1.38168
1.33367
1.21808
1.10412
1.01527
0.968391
0.952572
0.943082
0.938399
0.930461
0.920401
0.913319
0.91255
0.916637
0.929238
0.960656
1.00111
1.02412
1.02316
1.06112
1.04554
1.09715
1.06145
1.11914
1.07289
1.12603
1.07947
1.12257
1.0788
1.11167
1.09616
1.06736
1.10845
1.11275
1.02696
1.05453
1.0182
0.999792
1.01231
1.00424
1.00144
0.989335
0.969105
0.941053
0.916078
0.906456
0.907139
0.912964
0.920886
0.928669
0.942979
0.962199
0.989594
1.00911
1.0794
1.29816
1.39265
1.37219
1.27909
1.15292
1.05251
0.989262
0.966292
0.954947
0.949713
0.94399
0.933437
0.922935
0.918163
0.921537
0.938066
0.97377
1.07895
1.1639
1.1406
1.31597
1.2155
1.47296
1.26485
1.60992
1.26875
1.65123
1.24161
1.58918
1.19577
1.45239
1.14893
1.30562
1.19111
1.10651
1.23074
1.25638
1.04051
1.09002
1.02879
0.999172
1.0173
1.0042
1.01003
1.00894
0.989147
0.955726
0.926925
0.91193
0.908259
0.912171
0.921033
0.928527
0.943116
0.962313
0.989114
1.00983
1.05034
1.2214
1.38701
1.39932
1.33817
1.20814
1.09676
1.01717
0.983494
0.969796
0.96408
0.960718
0.951303
0.939497
0.93026
0.932915
0.968272
1.15882
1.38569
1.20355
1.59133
2.21696
2.0235
2.98846
2.39243
3.74855
2.53162
4.30696
2.4497
4.39599
2.19332
3.96505
1.81899
3.16923
1.45829
2.3504
1.6504
1.25554
1.83313
1.96225
1.06863
1.22925
1.04815
0.99849
1.02526
1.00633
1.02155
1.04171
1.0283
0.994939
0.956248
0.927561
0.915107
0.914824
0.923519
0.930016
0.943621
0.963967
0.986881
1.01215
1.03753
1.14371
1.36461
1.42685
1.38407
1.26963
1.14546
1.05256
1.00458
0.987324
0.981942
0.981585
0.976155
0.964315
0.953057
0.959926
1.05819
1.6622
4.50496
2.93045
4.64318
4.22818
6.09642
5.71809
7.9938
6.86667
9.48153
7.3934
10.2686
7.2488
10.4885
6.37434
10.1174
4.67943
8.91379
2.99177
6.50153
3.62965
2.0019
4.16055
4.50176
1.18405
1.94544
1.13032
1.00457
1.07722
1.04848
1.05842
1.11611
1.11628
1.0768
1.01822
0.96596
0.934773
0.924877
0.930496
0.935283
0.945641
0.968807
0.986942
1.01636
1.0358
1.0981
1.31324
1.43271
1.42206
1.33866
1.20142
1.0939
1.03007
1.00848
1.00227
1.00678
1.00697
1.00012
0.991744
1.02823
1.32567
2.6878
6.86311
11.0483
12.2447
7.9653
10.0613
10.1549
11.859
11.5538
13.0603
12.3838
13.8409
12.798
14.295
12.8129
14.5044
12.3127
14.4249
10.9407
13.8638
8.09762
12.4345
9.32379
4.58214
10.1817
10.6388
1.81864
4.44757
1.66171
1.05129
1.51532
1.4826
1.12405
1.25714
1.30588
1.27264
1.18194
1.07608
0.993699
0.954182
0.94613
0.94727
0.951745
0.973583
0.990096
1.01709
1.03833
1.07698
1.23736
1.42443
1.45325
1.39681
1.26222
1.14219
1.06112
1.03343
1.02556
1.03396
1.04476
1.04814
1.06528
1.23177
2.02905
4.52224
9.38527
12.964
13.7812
14.7111
15.1469
13.1584
14.0711
14.1655
14.9441
14.8233
15.469
15.2562
15.8449
15.5401
16.1481
15.6564
16.3926
15.5174
16.4877
14.9399
16.3011
13.4806
15.6911
14.195
10.7382
14.6748
15.0082
4.21156
10.6287
3.97862
1.34227
3.95393
4.39806
1.11266
1.32133
1.42657
1.48551
1.47752
1.36265
1.19067
1.05008
0.985743
0.969672
0.96525
0.979898
0.999196
1.01817
1.04393
1.06859
1.17034
1.39764
1.47987
1.44363
1.33589
1.19632
1.09946
1.06024
1.05192
1.06526
1.08649
1.11434
1.22821
1.82508
3.69962
7.12055
11.5321
14.0527
14.5891
15.4409
15.616
16.0151
16.1275
15.4714
15.8004
15.8854
16.1439
16.1965
16.4076
16.4926
16.6723
16.8046
17.0019
17.0392
17.3397
17.1067
17.5881
16.9031
17.6552
16.2515
17.4529
16.7156
15.2307
17.1663
17.6281
10.4814
15.3963
10.6694
4.0445
12.2198
16.3819
1.21472
1.43425
1.55192
1.62273
1.64387
1.54849
1.33059
1.12447
1.02457
0.993303
0.994526
1.01216
1.02347
1.04964
1.06963
1.1323
1.34111
1.4816
1.48358
1.40732
1.26097
1.1452
1.08677
1.07199
1.09103
1.12986
1.20815
1.59563
3.12892
6.26568
9.87158
12.8248
15.1649
15.6557
15.7846
16.166
16.1463
16.3669
16.3491
16.2954
16.3588
16.4929
16.4932
16.708
16.6851
17.0251
16.9891
17.4232
17.404
17.8502
17.9671
18.1693
18.5622
18.2689
19.0169
18.0117
19.1241
18.7032
18.0342
19.4582
20.2109
15.6333
18.3971
16.5432
15.7196
19.3708
24.5279
1.21942
1.47143
1.63744
1.73544
1.78516
1.71757
1.47183
1.19879
1.06107
1.02625
1.02931
1.03777
1.05512
1.07436
1.11589
1.2758
1.47121
1.5186
1.46703
1.33281
1.19668
1.11689
1.09132
1.10696
1.16152
1.29733
2.10225
4.80415
8.79061
11.8455
13.5331
14.9623
15.6599
15.5629
16.0918
15.9635
16.2983
16.1848
16.3098
16.1831
16.4694
16.4041
16.6097
16.4732
16.8809
16.7186
17.3299
17.2092
18.0244
18.0769
18.936
19.3081
19.7948
20.6983
20.2972
21.7893
20.2007
22.0828
21.4772
20.8296
22.7158
23.8139
18.8763
21.2779
20.0553
13.3889
21.7702
24.1537
1.16413
1.45893
1.69344
1.84694
1.92416
1.85121
1.57804
1.24763
1.09497
1.05871
1.06074
1.06696
1.08332
1.11256
1.22278
1.44073
1.54241
1.51473
1.41638
1.25993
1.15446
1.11208
1.11883
1.18124
1.35014
2.53133
6.38029
10.9512
13.0792
13.872
14.4648
15.0457
15.5869
15.2642
16.0414
15.8384
16.0384
15.8639
16.0741
15.9436
16.3327
16.2029
16.5549
16.4003
17.0962
17.0363
18.1437
18.2464
19.7183
20.2108
21.7147
22.693
23.466
25.3644
24.4299
27.2477
24.1033
27.6627
26.2177
24.5455
28.0732
29.3492
26.6421
21.524
22.9407
24.9125
21.6751
25.3785
22.0861
39.1277
1.0967
1.41267
1.75777
1.97843
2.08425
1.97248
1.64172
1.26693
1.12103
1.09122
1.09234
1.09507
1.11542
1.19162
1.39276
1.54227
1.55891
1.48844
1.33497
1.20484
1.13544
1.13141
1.18867
1.3649
2.73371
7.50908
12.324
13.8062
14.0103
13.9228
14.0727
14.7993
14.5757
15.2887
15.0198
15.6961
15.4903
15.815
15.7017
16.2306
16.2636
16.2812
16.2279
17.0467
17.094
18.4072
18.6594
20.6608
21.1178
23.7228
24.7544
27.2609
28.9375
30.2501
32.7006
31.5153
34.9878
30.8156
34.6312
32.4421
30.2232
33.0007
29.623
27.0372
30.0273
31.8247
34.8355
33.7493
32.4924
22.6103
24.493
24.7623
27.1076
23.9908
22.3179
23.6794
47.4821
27.5397
24.769
23.5353
28.591
55.2772
36.7839
1.07042
1.3958
1.90334
2.23455
2.31699
2.09639
1.65367
1.27245
1.1467
1.12708
1.11914
1.12397
1.18017
1.35056
1.5323
1.59497
1.54929
1.42348
1.26508
1.16207
1.1469
1.19042
1.35423
2.73641
8.04507
13.1915
14.2951
13.988
13.4998
13.5715
14.4797
14.2038
15.3411
15.3818
15.4051
15.3406
15.5874
15.4834
16.3154
16.4039
17.6579
17.8897
17.2115
17.4004
18.9915
19.2952
21.6256
22.2491
25.6563
26.3944
30.3023
31.2432
34.5587
35.7841
35.44
36.4231
37.1535
38.0057
36.1991
37.8607
38.275
40.1404
38.8654
35.8783
35.1354
37.4673
37.781
36.2837
32.8553
29.9281
32.948
35.2657
37.6848
37.1852
35.6471
26.3299
26.8379
29.7199
25.754
25.1643
24.0333
53.9533
51.0207
25.9067
24.9451
28.6098
35.0057
1.06211
1.48066
2.2694
2.78367
2.67575
2.22314
1.63754
1.2731
1.17557
1.15119
1.14453
1.18149
1.32261
1.50993
1.61583
1.5998
1.51125
1.34027
1.20157
1.16505
1.19132
1.32239
2.5536
8.06323
13.727
14.6486
13.9256
13.2277
13.5967
15.3917
15.5113
16.0624
16.7762
16.9671
16.6165
16.6714
16.5053
16.5758
18.0326
18.2065
20.2699
20.3862
19.655
19.9634
22.7572
23.1216
26.944
27.2816
31.8517
31.9452
36.4576
36.3501
38.4069
38.9543
39.0659
39.2043
39.2128
39.8687
40.2904
39.2807
40.4072
40.9779
41.9345
41.3027
39.1674
38.3773
40.0467
40.543
39.1815
35.8191
32.8533
35.8121
38.0681
39.7168
40.0771
38.255
29.2472
28.5697
32.4854
27.751
26.9016
16.7163
37.8882
44.7442
26.3098
26.6505
28.7377
34.1864
1.06573
1.92723
3.02413
3.44735
3.03611
2.2968
1.59047
1.2789
1.19721
1.17254
1.19261
1.31019
1.49414
1.6222
1.64617
1.58325
1.43019
1.2611
1.18557
1.19368
1.2932
2.09829
7.68657
13.9692
14.9298
13.8178
13.1549
13.8085
16.4266
17.8796
18.3487
17.2378
17.6304
18.3126
18.3851
18.3075
18.2919
18.3156
18.3224
20.34
20.1657
22.8494
22.2635
23.2662
23.1573
27.1537
26.7522
31.602
30.8636
35.8429
34.8122
39.0011
38.6533
38.1454
37.5358
40.533
40.55
40.3777
40.0162
41.4799
41.6799
41.6376
41.5908
42.2437
42.3025
42.7526
42.6236
41.3951
40.8142
41.9474
42.2571
41.2825
38.2649
35.5988
38.1453
40.2285
41.5447
41.6304
40.2113
31.8422
30.9497
35.1185
29.8735
28.7489
22.3762
37.5602
31.6507
27.796
27.737
29.6508
32.5122
1.12308
2.77591
3.72438
3.91366
3.26653
2.27009
1.54639
1.2951
1.21844
1.21586
1.30744
1.4903
1.62928
1.68396
1.6423
1.5307
1.34254
1.21648
1.20045
1.27034
1.7252
6.47065
13.9654
15.1819
13.7855
13.1091
14.2923
16.7216
18.7802
18.9354
19.1377
18.5387
18.7536
19.0035
19.0187
19.2561
19.0693
19.8489
19.5262
21.5986
20.9404
23.8678
22.8034
25.9747
24.956
29.7758
28.4739
33.6325
32.3483
36.9236
36.436
35.7011
39.519
38.8799
38.1811
37.4567
41.4438
41.0646
40.5122
39.7716
42.3931
42.2172
41.771
42.7385
42.9197
42.6381
42.2994
42.789
42.6265
42.2579
42.7083
42.8918
42.3566
40.0673
37.863
39.8564
41.5644
42.303
42.1421
41.3946
34.3381
33.2696
37.3497
32.0215
30.7432
22.537
32.2699
28.6084
29.6601
29.4114
30.5156
31.3756
1.39843
3.45761
4.186
4.16279
3.32878
2.1816
1.52852
1.31856
1.26274
1.31882
1.50145
1.64658
1.71737
1.69918
1.61571
1.43979
1.26889
1.21765
1.25692
1.5136
4.79611
13.6258
15.4474
13.8265
13.0305
14.1692
16.3265
18.1479
18.9733
19.0276
19.2939
19.2588
19.0887
19.1922
19.1551
19.1572
19.4976
19.2536
20.3618
19.8724
21.8356
20.9743
24.0487
22.6779
27.0176
25.5161
31.0051
29.4787
34.9429
34.3774
36.8509
36.4534
37.8701
37.3526
38.9571
38.1454
37.4809
37.055
41.0994
40.2433
39.2973
38.3709
42.178
41.3931
40.3961
42.7869
42.2958
41.5066
40.401
41.5014
42.7414
42.6048
42.3567
42.3126
42.3906
41.1752
39.563
40.9704
41.9412
42.1468
41.9322
41.7332
36.5119
35.3875
39.0693
34.1496
32.9539
22.9236
30.2112
27.8628
31.9264
31.3887
31.4336
31.1014
1.97222
3.98153
4.4516
4.18649
3.28522
2.0538
1.53671
1.36975
1.36937
1.54282
1.68545
1.75622
1.75829
1.68903
1.54524
1.34619
1.24596
1.25519
1.41445
3.28863
12.3607
15.6605
14.0769
12.8852
13.6879
15.1767
15.9662
14.2443
18.2034
15.7616
19.1616
18.9023
19.1959
19.2166
18.7724
18.757
19.1387
18.8727
20.215
19.5887
21.4252
20.3245
24.4395
22.8084
27.8301
26.1472
33.8387
32.7562
38.4686
39.0379
39.6392
39.4922
36.8701
36.9485
41.3561
40.0735
37.5933
37.1419
37.0606
37.2818
39.3075
38.2482
37.3613
36.8478
40.4304
39.1826
37.9583
41.5385
40.431
39.0857
37.6583
39.0814
41.7078
41.958
41.0732
40.6578
41.5964
41.5857
40.7479
41.5465
41.7612
41.3408
41.2194
41.6609
38.2611
37.2454
40.3063
36.2574
35.3439
24.1601
29.6282
29.2537
34.3394
33.3742
32.5406
31.217
2.64373
4.39007
4.52675
4.13299
3.17192
2.00864
1.59499
1.49864
1.6141
1.74618
1.81109
1.81641
1.75721
1.64674
1.44693
1.29577
1.26318
1.36006
2.29744
9.85493
15.7019
14.593
12.7938
13.0414
13.901
13.0479
9.20254
8.07946
6.55324
14.4577
10.5745
18.101
16.964
18.7228
18.5697
17.7618
17.6233
18.161
17.8915
19.3967
18.6549
21.3273
20.0067
27.6229
25.5486
31.2865
29.6276
41.5476
40.2686
42.5557
43.5416
44.519
44.216
37.9308
38.8927
46.043
44.3318
36.7796
37.0863
37.8909
39.136
36.9372
36.3128
36.1968
36.4967
37.7246
36.5351
35.7481
39.3249
37.8681
36.3406
35.2537
36.4347
39.8409
40.5737
39.2837
38.4301
40.2665
41.7344
41.4537
41.8409
41.2526
40.2163
40.4085
41.4588
39.588
38.8785
41.0967
38.387
37.7838
26.9547
29.8822
34.5267
36.6795
35.2438
33.494
31.3364
3.39315
4.62314
4.49625
3.99898
3.05141
2.07166
1.78046
1.76136
1.85389
1.90744
1.90058
1.84133
1.73309
1.55628
1.3773
1.29092
1.33575
1.79729
7.0061
15.51
15.147
12.8131
12.5932
13.0365
11.3481
7.61183
5.17282
5.65745
5.02434
8.72361
6.73342
14.394
11.4246
17.2932
16.4383
15.8788
15.1469
17.006
16.3752
18.8496
17.858
23.5843
21.7298
33.3534
30.8449
38.2569
35.8854
48.0879
46.5692
45.2297
43.0186
47.453
48.4397
48.6655
48.8659
40.7309
42.5201
50.9008
49.1819
37.3641
38.7347
40.5232
42.6213
35.5433
35.6962
36.5362
37.8986
35.3585
35.0173
35.0592
36.9324
35.574
34.7129
34.4839
34.7265
37.8401
39.0077
37.6388
36.412
39.0358
41.7994
41.8178
41.9899
40.7941
39.4009
39.9922
41.2668
40.5815
40.4033
41.5559
40.5491
40.1611
25.3892
30.6816
48.3658
38.8553
36.8367
34.1547
31.1627
4.1942
4.66699
4.3981
3.85287
3.04157
2.30969
2.07743
2.07504
2.1056
2.06939
1.9799
1.84081
1.6658
1.47911
1.3506
1.33697
1.56778
4.59437
14.5249
15.5505
12.9201
12.3028
12.519
11.0563
7.7592
5.1761
4.52766
4.43515
5.12452
4.72772
6.53611
5.66818
9.61385
7.81303
13.7796
11.7782
14.1573
12.6564
16.7994
15.4502
19.9823
18.3286
28.3699
25.9951
35.4855
33.4617
41.7688
39.8286
37.8963
49.6638
47.3824
45.236
43.1723
52.1009
52.6308
51.4325
52.4368
44.889
47.1318
55.2373
53.8347
39.7501
41.9865
44.4654
47.046
35.7063
36.928
38.705
40.9369
34.6311
35.0683
36.0526
35.1862
34.6259
34.5906
34.8455
34.5144
36.3197
37.8101
36.659
35.2584
38.3538
41.7486
41.9713
42.0337
40.5794
39.138
39.8984
41.142
41.4484
41.9823
41.9997
42.7075
42.3823
56.0709
32.0489
58.7645
40.7794
38.1248
34.351
30.7606
4.63973
4.63565
4.28211
3.83064
3.17446
2.75612
2.60256
2.57153
2.45403
2.26934
2.05512
1.82041
1.60011
1.43649
1.36218
1.47
3.00619
11.6425
15.6547
13.4054
12.1931
12.3472
11.205
8.7858
6.0591
4.26178
4.35072
4.15835
5.04788
4.65085
6.30645
5.58398
8.26111
7.2112
11.0344
9.54079
14.9957
13.1077
19.3426
17.1269
23.7551
21.5809
31.382
29.2655
35.8121
34.467
41.4157
39.9956
36.7537
37.641
49.7614
46.8553
43.95
41.5262
55.8743
55.7196
52.4995
54.6087
49.5836
51.8971
58.7291
57.9091
43.4886
46.219
48.989
51.6808
37.6348
39.7872
42.276
45.0031
35.3489
36.6819
38.698
34.8486
34.7919
35.8186
36.5344
35.2427
35.7398
37.3521
36.4801
35.3373
38.2514
41.7444
42.2382
42.2719
40.5595
39.1116
39.9499
41.2634
42.5799
43.8334
42.8555
44.835
44.4748
70.4164
32.8247
64.8256
42.5915
38.9314
34.1925
30.3905
4.82767
4.56564
4.29397
3.99645
3.71699
3.75429
3.76237
3.48824
2.98286
2.5103
2.13228
1.8028
1.56342
1.42795
1.45072
2.14931
8.07364
15.4771
14.3625
12.2347
12.2915
11.6215
10.0647
7.84811
4.60195
3.61096
4.23338
4.02447
5.23265
4.652
7.20032
6.08888
9.45496
8.3749
11.6101
10.4531
18.7836
16.7457
23.202
21.0095
27.1936
25.2377
32.7847
30.8028
35.9986
34.86
34.7389
34.8847
34.2857
39.7742
38.4846
35.9205
48.621
44.5821
41.0794
38.5094
58.7705
57.7988
52.4966
55.6753
54.1717
56.2977
61.5555
61.2712
47.8513
50.7085
53.4703
56.0417
41.1281
43.7617
46.5648
49.4444
37.6368
40.0981
42.7649
35.2836
35.9387
38.768
40.2035
37.5399
36.0616
37.386
37.0087
36.0688
38.3602
42.2051
43.0215
43.3459
40.9377
39.4632
40.7996
42.2098
44.2909
45.9264
44.532
47.0904
46.733
58.8046
35.1202
52.8896
43.9201
39.1708
34.0249
31.0028
4.87744
4.63473
4.59418
4.77211
5.19072
5.37797
5.12476
4.54772
3.68413
2.80706
2.2111
1.80418
1.55986
1.47795
1.77603
5.16469
14.6333
14.8534
12.4384
12.1457
12.0414
11.0333
9.40882
5.98101
3.56723
3.40589
3.791
3.23323
4.20197
5.69834
4.77287
8.88805
7.08649
12.4598
10.8007
15.1077
13.7993
21.6141
20.0145
25.1134
23.3554
28.7919
26.9623
33.548
32.0212
34.5512
33.599
34.0926
34.285
34.5267
37.0298
36.2582
34.2554
47.0996
41.938
37.847
35.2435
61.1947
59.4589
52.1274
56.3964
58.2981
60.086
64.4949
64.4301
52.3108
55.0808
57.6465
59.9883
45.5131
48.3444
51.222
54.0671
41.6478
44.6598
47.6933
37.027
39.1135
43.5495
46.233
42.4365
37.0908
38.0658
38.4114
38.3018
39.3411
43.9851
44.9654
46.104
42.6122
41.1553
43.7231
45.3084
46.4465
48.5722
47.1385
49.9002
48.4381
49.9108
35.7379
49.6043
44.5677
39.3955
34.1865
32.1749
5.07423
5.21912
5.76718
6.57484
6.79849
6.6023
6.09686
5.34045
4.32536
3.15942
2.29193
1.83088
1.58907
1.68749
3.33164
11.8533
14.8618
12.9822
11.9955
12.2922
11.7444
10.6542
8.0642
3.98554
3.00933
3.68393
3.20646
3.00902
4.12733
6.16501
4.85084
10.7656
8.18716
15.5834
13.3987
18.5746
17.2085
23.0029
21.6143
26.3941
24.5694
30.3057
28.3941
33.7002
32.9176
32.2217
33.0778
31.9379
32.5494
33.0697
33.4592
34.2409
34.0595
32.5325
46.1583
40.0747
35.1841
32.5968
63.5057
61.1018
52.0666
57.2014
62.0366
63.633
67.7343
67.9729
56.8103
59.418
61.9154
64.199
50.6608
53.5533
56.4039
59.159
46.9521
50.3979
53.7186
40.7341
44.4598
50.2313
54.1123
49.047
39.9781
40.2242
42.5897
43.2037
42.7578
48.027
48.7884
51.487
47.5975
46.4232
51.6869
50.9728
49.8119
52.1381
51.8251
51.867
49.4616
48.5263
35.8537
49.814
45.2942
39.6042
34.6963
32.9946
5.92681
6.9082
7.63152
7.92287
7.7487
7.32131
6.67754
5.83073
4.74211
3.46548
2.41812
1.87899
1.74004
2.44538
7.98677
14.5421
13.7639
12.0074
12.3088
12.2658
11.5758
9.79807
5.7037
3.06397
2.63453
3.53188
3.05649
2.89634
4.00902
6.33844
4.85855
12.1837
8.85664
17.7591
15.4126
20.4073
19.2578
24.2423
22.6824
27.8656
26.0037
30.954
29.5742
32.8072
33.1387
31.9971
31.0983
31.3775
29.9343
30.5652
31.3208
32.1061
31.9676
32.0507
30.8475
45.5871
38.8735
33.8105
31.0214
66.0086
62.7292
52.0049
58.0296
66.1329
67.5219
71.2765
72.1583
61.8779
64.4949
66.9789
69.2192
56.8825
59.9356
62.8331
65.6952
54.3438
58.3492
62.0687
48.2102
54.8874
59.3873
70.3242
62.7202
47.3687
46.5773
53.9451
54.9621
52.1052
55.352
54.8781
58.8279
55.8201
59.4247
64.8314
61.1426
54.2898
54.3254
57.0993
53.4204
50.9319
66.2065
35.3086
60.9445
45.6203
40.0291
35.1112
32.9002
7.74715
8.61775
8.73224
8.62167
8.23046
7.6882
6.97889
6.09121
4.97604
3.71682
2.56995
2.00978
2.20763
5.13934
13.5236
13.9695
12.1496
12.208
12.5974
12.2435
11.1311
8.07463
3.53586
2.58496
2.49759
2.69923
2.40907
3.358
2.90976
3.84661
6.31156
4.71335
12.5733
8.96298
18.7017
16.1423
21.2871
20.1993
24.8264
23.2202
28.0298
26.4788
30.4774
29.3824
31.0709
31.7524
30.9831
31.2315
29.5455
28.4537
28.7115
29.3459
30.2345
30.3994
30.4056
29.439
45.2968
37.9818
33.0283
30.4651
68.8706
64.6519
52.1967
59.14
71.0278
72.0038
75.6208
77.3848
68.5361
71.1619
73.5706
75.6687
65.5804
68.9624
72.1834
75.3276
64.8822
70.2024
75.1799
65.7272
78.4164
77.4898
112.034
95.577
66.245
62.6888
80.6421
84.0258
73.0528
64.5322
60.8207
66.491
71.6209
81.5989
93.3683
75.2064
56.8546
56.9924
60.8108
56.0015
51.6097
36.7405
35.7749
95.4115
46.2576
40.2489
35.1513
32.5144
9.17547
9.46691
9.22435
8.91722
8.42023
7.82647
7.09438
6.19381
5.09523
3.8544
2.80949
2.30658
3.61491
10.8399
13.8229
12.5375
12.0171
12.6576
12.7265
12.076
10.0277
5.08991
2.69568
2.29009
2.60191
2.38844
2.30928
3.17064
2.75529
3.62471
5.94597
4.43024
12.3134
8.59794
18.8495
16.0975
21.817
20.5379
23.9816
22.6002
26.7875
25.3372
29.8651
28.8198
28.0496
29.2909
30.2124
29.2913
29.7597
28.5287
27.9218
27.8834
28.0524
28.5106
29.7218
29.5131
28.8866
45.4912
37.5492
32.8286
30.3979
72.4236
67.1612
52.8873
60.8273
77.1668
77.5923
81.2996
84.167
78.3335
80.9466
83.0893
84.7199
79.758
83.9368
87.8446
91.5401
84.944
94.8855
103.387
112.35
154.964
131.121
201.203
201.995
112.016
97.7978
143.798
161.211
112.52
77.2017
66.8648
77.525
97.8679
141.28
145.691
99.7284
61.8867
61.2239
69.9452
57.3133
52.958
212.89
40.2141
168.962
46.6023
40.53
34.9473
32.6972
9.81704
9.77852
9.36658
8.96945
8.43278
7.82591
7.09382
6.19488
5.11431
3.9787
2.85782
3.14537
7.71153
13.2878
12.8331
11.931
12.5604
13.053
12.7415
11.4448
7.60479
3.10151
2.29773
2.12646
2.48304
2.30859
2.25142
2.99611
2.63037
3.38241
5.30612
4.05343
11.0993
7.60057
18.0127
14.9907
21.2634
19.9026
21.9249
20.8433
24.81
23.0793
28.9365
28.899
27.5803
26.0402
28.1857
28.6405
28.4938
28.7543
28.2005
27.8353
27.718
27.7129
27.8682
29.6374
29.2801
28.8291
46.5641
37.4443
32.9889
30.6072
77.4391
70.6921
54.3869
63.6029
85.3402
85.3578
89.0694
93.8496
94.8892
97.3604
98.4163
98.4767
110.216
115.461
119.903
123.518
162.698
205.315
204.425
197.157
210.191
221.058
488.592
470.782
192.551
159.096
210.686
187.212
194.909
99.2351
84.3056
110.458
148.733
199.59
207.165
150.543
68.2006
63.553
78.3815
60.0571
53.7514
362.017
53.1705
175.092
47.3215
40.6283
34.7001
35.217
9.99028
9.78871
9.30666
8.88067
8.35884
7.75961
7.03505
6.14583
5.10619
3.95821
3.26705
5.64138
11.9354
12.7847
11.8712
12.296
13.197
13.2171
12.4369
9.72426
4.0726
2.40233
2.07838
2.03933
2.17103
2.40504
2.25159
2.84391
2.53828
3.1606
4.6066
3.67596
9.22615
6.33734
16.1357
12.9015
19.671
18.2565
19.3172
18.3194
25.3524
26.4321
23.2188
21.618
28.5096
28.2349
27.5845
28.0242
28.2317
28.5733
28.5768
28.2438
28.2246
27.9875
27.8973
27.8787
29.8525
29.3985
29.0329
49.2189
38.3861
33.9108
31.2299
84.8601
76.0751
57.3288
68.2347
97.5201
96.3858
100.505
109.661
126.246
128.186
128.514
124.242
216.364
217.772
214.712
212.11
223.296
454.286
463.143
489.646
496.804
487.331
871.469
860.52
490.149
209.85
495.815
491.99
498.165
160.571
93.9986
120.088
217.176
491.747
487.175
211.694
72.1418
68.9316
85.5716
61.7734
55.587
244.954
56.8858
118.49
47.8422
40.8911
35.0727
37.9572
9.87717
9.57642
9.12829
8.72524
8.24129
7.6527
6.92293
6.03745
4.99921
3.96031
4.86238
10.221
12.4243
11.8424
12.0509
13.1681
13.5439
13.1166
11.3339
6.08207
2.66711
2.08647
1.97014
2.00485
2.13261
2.08524
1.94552
2.34204
2.20024
2.71926
2.4618
2.97869
4.04068
3.37899
7.25716
5.21352
13.42
10.2545
17.2842
15.7637
18.3243
15.6068
27.2156
27.0218
24.2932
22.8346
29.1866
28.4475
29.0721
28.7651
28.6694
30.269
29.766
28.9029
29.7077
29.2666
29.0236
28.8823
30.423
29.8466
29.7628
54.3625
41.1124
35.9875
32.3875
95.7055
84.7356
62.6094
75.9411
116.918
112.244
120.725
136.368
202.343
199.978
187.381