/*--------------------------------*- C++ -*----------------------------------*\
  =========                 |
  \\      /  F ield         | OpenFOAM: The Open Source CFD Toolbox
   \\    /   O peration     | Website:  https://openfoam.org
    \\  /    A nd           | Version:  dev
     \\/     M anipulation  |
\*---------------------------------------------------------------------------*/
FoamFile
{
    version     2.0;
    format      ascii;
    class       volScalarField;
    location    "2500";
    object      p_rgh;
}
// * * * * * * * * * * * * * * * * * * * * * * * * * * * * * * * * * * * * * //

dimensions      [1 -1 -2 0 0 0 0];

internalField   nonuniform List<scalar> 
9978
(
0.00450939
0.00612546
0.00520983
0.00613485
0.00895746
0.00471714
0.00586365
0.0103837
0.00893326
0.00346647
0.00542034
0.0104908
0.0117137
0.00808536
0.00304516
0.00490825
0.00989951
0.0134691
0.0112363
0.00670864
0.00239278
0.00445099
0.00896962
0.0141757
0.0137985
0.0101294
0.00530675
0.00178294
0.00373148
0.00902385
0.0142175
0.0155057
0.0130278
0.00892665
0.00460657
0.00121031
0.00348411
0.007823
0.0135278
0.0162158
0.015246
0.0115221
0.00752058
0.0039934
0.000747661
0.00326201
0.00791655
0.0132783
0.0164024
0.0169607
0.0143335
0.0101709
0.00653771
0.00334649
0.000462556
0.00300812
0.00748082
0.0117241
0.0160832
0.0178619
0.0167325
0.0128734
0.00897514
0.00541498
0.00267106
-2.66441e-05
0.00303909
0.00701547
0.0107942
0.0158421
0.0184758
0.0181624
0.0152448
0.0114877
0.00792115
0.0048355
0.00216734
-0.000430487
0.0030039
0.00642602
0.00971779
0.0149087
0.0184371
0.0192409
0.0176475
0.0136086
0.0103084
0.00677559
0.0042886
0.00176924
-0.000700929
0.00281886
0.00579607
0.00970457
0.0142288
0.0178978
0.0198776
0.0192034
0.0162422
0.0125855
0.00899346
0.00611483
0.00362038
0.00127329
-0.00110851
0.00246044
0.00534965
0.00889249
0.0124751
0.0173403
0.0200232
0.0201222
0.0184242
0.014877
0.0113409
0.00819618
0.00560067
0.00318802
0.000733103
-0.0014778
0.00230826
0.00524658
0.00833828
0.0123272
0.0169689
0.0198323
0.0209615
0.0198475
0.0169618
0.0132169
0.0101887
0.00732548
0.00496748
0.00261155
0.000476236
-0.00177173
0.00233478
0.00506678
0.00828599
0.0119334
0.0153209
0.0194948
0.0211924
0.0208985
0.0189708
0.0153971
0.0120516
0.00931185
0.00670096
0.00448228
0.00223269
-1.6207e-05
-0.00211351
0.00204858
0.00485994
0.0077526
0.0110561
0.0144746
0.0187441
0.0211822
0.0217426
0.0203235
0.0172561
0.0138166
0.0108847
0.00843971
0.00608057
0.00388117
0.00184522
-0.000298893
-0.00246059
0.00193223
0.00454019
0.00719449
0.0104181
0.0134384
0.0179968
0.0212958
0.0223048
0.0216859
0.0192798
0.0159114
0.0128457
0.0101062
0.00769978
0.00548961
0.00338646
0.00139025
-0.000637379
-0.00268224
0.00192721
0.00440564
0.00712673
0.00966515
0.0131206
0.0172622
0.0207959
0.0224362
0.0224205
0.0210524
0.0181645
0.0146761
0.0118417
0.00931206
0.00708436
0.00495529
0.00298392
0.000885978
-0.00108158
-0.00300722
0.00173057
0.00407552
0.00676442
0.00919768
0.0126848
0.0156939
0.0199845
0.0223002
0.023015
0.0221371
0.0197296
0.0167812
0.0135837
0.0109663
0.00843794
0.00643916
0.0044336
0.00246727
0.000548175
-0.00139613
-0.00336525
0.00160413
0.00393019
0.00644093
0.00906582
0.0119312
0.0150714
0.01888
0.0219099
0.0231831
0.022942
0.0211926
0.0185578
0.0152086
0.0125598
0.0101919
0.00789673
0.00587983
0.00403253
0.00209916
0.000230918
-0.00165546
-0.00365279
0.00146587
0.00379773
0.00602212
0.00856802
0.0113052
0.0146412
0.0180657
0.0214362
0.023175
0.0235291
0.0225502
0.0201511
0.0171181
0.014046
0.0116704
0.00948626
0.00735979
0.00542146
0.00354687
0.00172661
-0.000216877
-0.00201852
-0.00390983
0.00130302
0.00349682
0.00580831
0.00835338
0.011045
0.0135854
0.0171354
0.0206912
0.0230526
0.0238023
0.0234011
0.0215432
0.0188878
0.0158485
0.0130939
0.0106957
0.00882493
0.00676599
0.00494904
0.00309487
0.00130012
-0.000542114
-0.00239598
-0.00422859
0.00117388
0.00330522
0.00552755
0.00768602
0.0105193
0.0129842
0.0165197
0.0197141
0.022454
0.0238974
0.0239117
0.022866
0.0204353
0.017615
0.0148506
0.0124705
0.0101743
0.0081024
0.00624419
0.00447704
0.00272362
0.000902558
-0.000976719
-0.00272187
-0.00457635
0.00106967
0.00300329
0.00510639
0.0074945
0.00989568
0.0125454
0.0157242
0.0188894
0.0220192
0.023838
0.0243421
0.0236033
0.0217239
0.0192052
0.0164862
0.0138498
0.0114536
0.00956442
0.0075912
0.00577018
0.00402148
0.00229708
0.00045619
-0.00131124
-0.0030897
-0.00478893
0.000841059
0.00277608
0.00477498
0.00719392
0.00932605
0.012188
0.0148859
0.0178278
0.0211305
0.023471
0.0245249
0.0242805
0.023078
0.0206565
0.0178973
0.015345
0.0129375
0.0108497
0.00882109
0.00697835
0.00528079
0.0035713
0.00185877
0.000176531
-0.00156402
-0.00334533
-0.00514261
0.000697195
0.00258533
0.00446434
0.00655715
0.00904525
0.0116933
0.0142644
0.0171094
0.0202835
0.0228821
0.0244197
0.0247789
0.0239958
0.0220645
0.0196324
0.0168001
0.0143049
0.011828
0.0101858
0.00811573
0.00648301
0.00478242
0.00313361
0.00140434
-0.00018826
-0.00200311
-0.00361136
-0.00540196
0.000568775
0.00248775
0.00438969
0.0064318
0.00869005
0.0110649
0.013602
0.0163276
0.019398
0.0221327
0.0241503
0.025043
0.0246674
0.0232344
0.0209695
0.018335
0.0157954
0.0134293
0.0113685
0.00926224
0.00763473
0.00595296
0.0043105
0.00265488
0.00107364
-0.000637862
-0.00230158
-0.00393607
-0.00569313
0.000412463
0.00220188
0.00413791
0.00613379
0.00830606
0.0107596
0.0130637
0.0157047
0.0184494
0.021329
0.0236839
0.0249843
0.0251161
0.024281
0.0223718
0.019931
0.0174455
0.0149813
0.012504
0.0107779
0.00873811
0.00709757
0.00543932
0.0038073
0.0022523
0.000737881
-0.000939849
-0.00261362
-0.00428493
-0.005988
0.000279366
0.00201631
0.00389808
0.00562171
0.00785557
0.0102615
0.0125901
0.0150364
0.0176965
0.0204761
0.0230518
0.0247302
0.0254085
0.0250228
0.0235363
0.0213609
0.0188352
0.0164687
0.0139176
0.0120722
0.00995759
0.00814077
0.00652578
0.00486777
0.0032771
0.0018684
0.000372442
-0.00121944
-0.00282263
-0.00454221
-0.00622212
0.000119098
0.00180673
0.00360224
0.00526066
0.0073839
0.00955075
0.0120532
0.0144391
0.0168409
0.0196363
0.0223294
0.0243692
0.0254969
0.0255075
0.0245237
0.0226714
0.0203795
0.0178504
0.015282
0.0131816
0.011098
0.00931249
0.00761942
0.00597918
0.00442656
0.00288564
0.00139788
-1.67182e-05
-0.00152114
-0.0031395
-0.00482387
-0.00653672
-7.67948e-05
0.00159771
0.00325749
0.00491739
0.00699863
0.00923483
0.0114427
0.0138118
0.01622
0.0188827
0.0215298
0.0238719
0.025355
0.0258375
0.0253131
0.0237333
0.0216643
0.0193212
0.0170807
0.0145352
0.0125308
0.0105166
0.00861971
0.00700255
0.00531305
0.00388998
0.00240757
0.00109283
-0.000348016
-0.00185013
-0.0033911
-0.00504972
-0.00671767
-0.0001849
0.00140351
0.00300784
0.00467952
0.00658363
0.00872557
0.0109328
0.0132337
0.0155191
0.0180333
0.0207382
0.0230279
0.0250517
0.0259415
0.0258724
0.0248382
0.0229748
0.0207059
0.0181892
0.0158746
0.0136067
0.0116936
0.00977541
0.00790907
0.00626058
0.0047955
0.00339984
0.00202798
0.000745331
-0.000652793
-0.00208006
-0.00364142
-0.00538409
-0.00695162
-0.000364629
0.00113352
0.0027202
0.00438678
0.00612602
0.00828964
0.0104357
0.0126063
0.0148062
0.0172475
0.0197687
0.022267
0.0246882
0.0258776
0.0262525
0.0256448
0.024129
0.0221165
0.0196949
0.0171431
0.0150674
0.0128888
0.0109507
0.00913218
0.00736577
0.00568824
0.00420082
0.00289071
0.0016507
0.000407997
-0.000919891
-0.00225615
-0.00384115
-0.00621251
-0.00548908
-0.00774791
-0.00639822
-0.007176
-0.000473366
0.000990613
0.00249458
0.00411309
0.00573249
0.0077716
0.00986808
0.0120136
0.014195
0.0165599
0.0189841
0.0215682
0.0240518
0.0256788
0.0264212
0.0262966
0.0251964
0.0233899
0.0212643
0.0188215
0.016321
0.014164
0.0119909
0.0101395
0.00833652
0.00662996
0.00509876
0.00365651
0.00243716
0.00129381
0.000129922
-0.00112689
-0.00276489
-0.00478064
-0.00405975
-0.00570885
-0.0078552
-0.00648227
-0.00720243
-0.000610335
0.000758142
0.00221998
0.00376799
0.00545063
0.0072809
0.00931858
0.0114191
0.0135699
0.0157443
0.0181484
0.0206659
0.0233132
0.0252932
0.0264192
0.0267113
0.0260745
0.0245821
0.0225931
0.0201345
0.0179017
0.015297
0.0132474
0.0110613
0.00917281
0.00744507
0.00581914
0.0044313
0.00316774
0.0020648
0.00101498
-7.46865e-05
-0.00172985
-0.00113945
-0.00330336
-0.00229294
-0.00263396
-0.00495829
-0.00420869
-0.00575097
-0.00787657
-0.00658929
-0.00729581
-0.000650363
0.000642095
0.00201729
0.00342348
0.0050047
0.0067616
0.00875368
0.0107666
0.0128791
0.0150471
0.0174152
0.0198603
0.0225072
0.0247536
0.0262219
0.0269661
0.0267706
0.0256835
0.0238879
0.021699
0.0192168
0.0169253
0.0145398
0.0123663
0.0101739
0.00824146
0.00663773
0.00512573
0.00381227
0.002708
0.00174399
0.000800239
-0.000519866
-3.43946e-05
-0.00161223
-0.00346188
-0.00198822
-0.00272561
-0.00500646
-0.00425536
-0.00585391
-0.00787848
-0.00664911
-0.00732887
-0.000722737
0.000475547
0.00171103
0.00309624
0.00472183
0.00640666
0.00819648
0.0102189
0.0121664
0.0143357
0.0165275
0.0188814
0.0216359
0.0240793
0.0259258
0.0270325
0.0272573
0.0266101
0.0250151
0.0231203
0.020764
0.0182768
0.0159198
0.013571
0.0114309
0.00919301
0.00732285
0.00580423
0.00440051
0.00324657
0.00231293
0.00149127
0.000463187
0.000828002
-0.000942227
-0.000333092
-0.00135783
-0.0035028
-0.00201302
-0.00274947
-0.00508917
-0.00432696
-0.00592345
-0.00785445
-0.0067072
-0.00734261
-0.000747316
0.000335735
0.00154254
0.00287606
0.00425292
0.00594418
0.00764473
0.00960759
0.0115723
0.0136614
0.0156789
0.0179902
0.0205806
0.0232679
0.0254204
0.02688
0.0275387
0.0273124
0.0263299
0.0244758
0.0222695
0.0195992
0.0172761
0.0148664
0.0124047
0.0102288
0.00820746
0.00638772
0.00496553
0.00370757
0.00274252
0.00198579
0.0012007
0.00146217
0.000208408
0.000669006
-0.000757573
-0.00020098
-0.00132333
-0.00356048
-0.00201118
-0.00278499
-0.00516082
-0.00439533
-0.0059924
-0.00779043
-0.00675087
-0.00733374
-0.000751591
0.000219794
0.00131745
0.00255857
0.0039754
0.00549263
0.00711391
0.00897515
0.0108194
0.0128698
0.0148457
0.0171141
0.0197361
0.0224923
0.0247515
0.0265362
0.0276691
0.0279273
0.0272383
0.0257792
0.0236801
0.021537
0.01883
0.0162565
0.013737
0.0113167
0.0091037
0.00715138
0.00544693
0.00413799
0.00306019
0.00230294
0.00169249
0.00184501
0.00104891
0.00136094
0.000303699
0.000745427
-0.000683367
-0.000100043
-0.0012938
-0.00361935
-0.00201645
-0.00282454
-0.0052397
-0.00447412
-0.00605569
-0.00768069
-0.00678324
-0.00730142
-0.000712881
0.000168544
0.00114879
0.00227163
0.00353342
0.00505291
0.00668779
0.00833929
0.0101586
0.012147
0.0141117
0.0163689
0.0187989
0.0213384
0.0239923
0.0260636
0.0275743
0.0282548
0.0280318
0.0268989
0.025307
0.023019
0.020327
0.0179062
0.0151693
0.0125608
0.0101035
0.00791389
0.00605296
0.00450061
0.00332438
0.00244925
0.00194904
0.00199711
0.00159431
0.00174135
0.00112164
0.00141944
0.000427337
0.000889259
-0.000617948
6.44805e-06
-0.00127026
-0.00369008
-0.00202495
-0.00287314
-0.00532135
-0.00456362
-0.00611559
-0.00752538
-0.00680553
-0.00724555
-0.000628723
0.00015172
0.00103303
0.00204349
0.00321576
0.00453217
0.00606606
0.00773023
0.00947985
0.0112675
0.0132708
0.0154087
0.0176693
0.0202531
0.0230163
0.025407
0.0272813
0.0283692
0.0286639
0.0280699
0.0266335
0.0246167
0.022339
0.0195602
0.0167453
0.0139458
0.0112489
0.00879961
0.00669822
0.00493454
0.00352684
0.00252096
0.00200683
0.00197995
0.00182505
0.00183399
0.0016418
0.00177892
0.00128584
0.001601
0.000580298
0.00109032
-0.000544124
0.000141308
-0.00123608
-0.00377067
-0.00203473
-0.0029289
-0.00540533
-0.00466212
-0.00617376
-0.00733363
-0.00681747
-0.00717231
-0.000509136
0.000169171
0.000956588
0.00186048
0.00291996
0.00412361
0.00551997
0.00711202
0.00874085
0.0104929
0.0123852
0.0144219
0.0166286
0.0191187
0.0218958
0.0245788
0.026774
0.0282502
0.0290419
0.0289721
0.0280187
0.0261988
0.0239707
0.0211998
0.0184206
0.0154653
0.0125551
0.00980472
0.00741684
0.00548016
0.00385059
0.00251702
0.00193717
0.0018618
0.00182935
0.00175014
0.00184643
0.00186235
0.00183388
0.00202168
0.00154049
0.00194333
0.000790002
0.00140262
-0.000443961
0.000342906
-0.00118029
-0.00386047
-0.00202793
-0.0029663
-0.00549065
-0.00476575
-0.00622629
-0.00713593
-0.00681887
-0.00709702
-0.000362809
0.000218866
0.000911462
0.00171942
0.00267441
0.00378206
0.00502605
0.0064932
0.00803725
0.00970725
0.0115031
0.0134674
0.0155942
0.017957
0.0206703
0.023509
0.0259967
0.0279065
0.0291636
0.0296001
0.0291321
0.0277317
0.0256827
0.0231329
0.0202212
0.0171549
0.0140096
0.0109687
0.00824668
0.00601248
0.00415494
0.00277254
0.00188369
0.00190805
0.00175018
0.00169901
0.00191614
0.00199756
0.00221937
0.00253863
0.00237503
0.00301206
0.00207831
0.00301487
0.00117869
0.0022841
-0.00025732
0.00087369
-0.000998273
-0.00392947
-0.00182842
-0.00273291
-0.00557182
-0.00483796
-0.00627101
-0.0069605
-0.00682095
-0.00704873
-0.000203254
0.000292979
0.000898008
0.00161472
0.00246369
0.00344125
0.00459281
0.0058999
0.0073636
0.00892315
0.0105975
0.0124633
0.0145118
0.0167939
0.0193789
0.0222392
0.0250472
0.0273684
0.0290429
0.0299482
0.0299844
0.0291805
0.0275458
0.0252051
0.0223364
0.0191001
0.0157043
0.0123297
0.00918963
0.00656724
0.00451528
0.00293551
0.00224701
0.00146071
0.0019273
0.00230446
0.0024037
0.00341381
0.00331782
0.00515949
0.00425834
0.00716419
0.00466642
0.00844426
0.00418909
0.00830404
0.00271236
0.00653788
0.000528035
0.00361006
0.000210944
-0.00367375
-0.000115121
-0.000539209
-0.00562381
-0.00457462
-0.00629373
-0.00693822
-0.00681281
-0.00706526
-5.03139e-05
0.000379042
0.000911839
0.00154447
0.00229732
0.00315304
0.00420288
0.00535027
0.00666698
0.00818072
0.00970134
0.0114398
0.0133926
0.0155806
0.0180562
0.0208772
0.0238817
0.0265982
0.0286159
0.0300577
0.0306868
0.0303314
0.029185
0.0272225
0.0246405
0.0213925
0.0176974
0.0139123
0.0103781
0.00726218
0.00490411
0.0035857
0.00626919
0.00342865
0.00631233
0.00532635
0.00966824
0.00934808
0.0171536
0.0139302
0.026576
0.01709
0.0348842
0.0178899
0.0391972
0.0159286
0.0378136
0.0112559
0.0302567
0.00523377
0.0192065
0.00748045
-0.00117499
0.0098955
0.0118173
-0.00540285
-0.00209116
-0.00613085
-0.0071552
-0.00664395
-0.00708164
6.63459e-05
0.000453262
0.0009386
0.0015069
0.00216958
0.0029125
0.00382605
0.00487296
0.00599693
0.00739378
0.00884751
0.0104092
0.0122397
0.0143211
0.0166912
0.0194182
0.0224861
0.0254845
0.0279578
0.0298652
0.0310067
0.0312504
0.030594
0.0291591
0.0269263
0.0239863
0.0202541
0.0159726
0.0117405
0.00815471
0.0055285
0.00493977
0.0133772
0.0351677
0.0472006
0.0152033
0.02443
0.0277755
0.0426695
0.0439565
0.0651744
0.060017
0.0891352
0.0721297
0.109382
0.077511
0.123618
0.0723781
0.128144
0.052933
0.116534
0.0296298
0.0826359
0.0413247
0.0125596
0.0527836
0.0618121
-0.00328655
0.0116199
-0.00455555
-0.00810879
-0.00569254
-0.00700641
0.000108831
0.000466997
0.000932313
0.00147702
0.0020762
0.00272349
0.00350103
0.00441769
0.00537669
0.00660483
0.00798123
0.00939956
0.0110615
0.0130148
0.0152696
0.0178811
0.0209143
0.0241055
0.027039
0.0292881
0.0309823
0.031842
0.0318277
0.0310544
0.0295401
0.0268563
0.0232224
0.018742
0.013718
0.00928435
0.00670775
0.00875252
0.0261947
0.0602772
0.0749748
0.0940524
0.111457
0.0591995
0.0769914
0.0883135
0.112352
0.119254
0.148588
0.147749
0.185002
0.171346
0.217677
0.186514
0.244309
0.187685
0.260036
0.166823
0.255377
0.116112
0.220609
0.148294
0.0669738
0.178789
0.20118
0.00893544
0.0669241
0.00502839
-0.011221
0.000567631
-0.00437859
5.23185e-05
0.000354779
0.000811365
0.00135844
0.00195439
0.00256817
0.00323078
0.00398849
0.00482791
0.00583843
0.00708239
0.00840661
0.00988035
0.011668
0.0137845
0.0162677
0.0191955
0.0224801
0.0257056
0.0283948
0.0305953
0.0320625
0.0327409
0.0325399
0.031484
0.0296851
0.0265238
0.0220635
0.0167175
0.0116184
0.0100884
0.0185069
0.0511462
0.093991
0.09804
0.127352
0.145419
0.176144
0.194947
0.135091
0.156447
0.177364
0.204993
0.220531
0.253706
0.262165
0.30358
0.299759
0.350812
0.328675
0.392532
0.341333
0.422215
0.327769
0.427972
0.276774
0.399924
0.32678
0.215663
0.372996
0.407768
0.0611196
0.218688
0.0503484
-0.0117788
0.0391058
0.0366438
0.000108066
0.000534997
0.00108158
0.00168354
0.00231805
0.00296507
0.0036155
0.00431432
0.00512611
0.00618062
0.00739802
0.00870709
0.0102973
0.0122424
0.0145745
0.0173584
0.0206423
0.0240429
0.0272152
0.0297881
0.031831
0.0331676
0.0336972
0.0332304
0.03206
0.0297718
0.0258913
0.0207999
0.0166651
0.0203453
0.041109
0.0841042
0.165548
0.158665
0.188136
0.212064
0.230221
0.275091
0.294947
0.230421
0.253813
0.285714
0.315526
0.341942
0.377089
0.39808
0.44098
0.451058
0.502898
0.494484
0.559022
0.520024
0.601854
0.516534
0.617532
0.471794
0.598544
0.532367
0.434207
0.584419
0.622877
0.208962
0.447684
0.1905
0.0636798
0.194429
0.287726
0.000139661
0.000633254
0.00125232
0.00189525
0.00255707
0.00320581
0.00383088
0.00446571
0.0053006
0.00636366
0.00753346
0.00891619
0.0106568
0.0128052
0.0154184
0.0186065
0.0220937
0.0255994
0.02856
0.0311233
0.0330925
0.0343147
0.0347723
0.0341562
0.0327455
0.0297918
0.0259639
0.026237
0.04187
0.0741855
0.120813
0.200776
0.282642
0.280607
0.24646
0.261884
0.312721
0.331381
0.389446
0.409707
0.342589
0.367221
0.410554
0.441189
0.479726
0.514545
0.549376
0.590416
0.61602
0.664117
0.670641
0.729564
0.707041
0.778423
0.712471
0.799688
0.676723
0.789056
0.737116
0.653991
0.783477
0.812632
0.451225
0.676686
0.459767
0.0713221
0.521782
0.470813
0.000138998
0.000662837
0.00133998
0.00199225
0.00265799
0.00327728
0.0038359
0.00445574
0.00532068
0.00634585
0.00752962
0.00904128
0.0109715
0.0133825
0.0164001
0.0198844
0.0235661
0.0269982
0.0299691
0.0324865
0.0344156
0.0356399
0.0359875
0.035293
0.0335122
0.031294
0.0377159
0.0682651
0.113163
0.161496
0.235451
0.368903
0.374502
0.406113
0.347155
0.363653
0.427698
0.445867
0.514865
0.533873
0.468505
0.49302
0.546828
0.576009
0.626095
0.657254
0.70495
0.739171
0.777541
0.814382
0.832101
0.868511
0.854417
0.889824
0.855228
0.891703
0.835565
0.883053
0.864804
0.841372
0.883547
0.899817
0.874614
0.70399
0.784519
0.856009
0.739289
0.169851
0.737789
0.74489
9.39183e-05
0.000621029
0.00133573
0.0019703
0.00259733
0.00314021
0.00363069
0.00428007
0.00513855
0.00613394
0.00740662
0.00908893
0.0112616
0.0140565
0.0174362
0.0212043
0.0250097
0.0283047
0.0313223
0.0338837
0.0357707
0.0370957
0.0374838
0.0366742
0.0360593
0.0478239
0.0942277
0.155596
0.211574
0.27908
0.392524
0.508694
0.520759
0.485972
0.498973
0.461091
0.474954
0.550677
0.566756
0.642301
0.657063
0.600955
0.623169
0.68471
0.709383
0.766736
0.790578
0.842518
0.865127
0.894364
0.913616
0.913816
0.931773
0.91353
0.928354
0.90293
0.917438
0.893574
0.902648
0.900127
0.893233
0.896399
0.90351
0.898538
0.917988
0.904526
0.896356
0.895469
0.908085
0.814592
0.883908
0.861826
0.914113
0.890947
0.828642
0.902797
0.293502
0.848433
0.924895
0.906577
0.95073
0.839152
0.967344
-1.23079e-05
0.000510878
0.00122758
0.00179
0.00232482
0.002776
0.00323556
0.0038981
0.00471946
0.00575847
0.00717018
0.00907002
0.011601
0.0147862
0.0185316
0.0225441
0.0262456
0.0296587
0.0327388
0.0353242
0.0374294
0.0388027
0.039213
0.0398789
0.0545338
0.113224
0.195922
0.266527
0.34119
0.448143
0.530664
0.542838
0.607015
0.61184
0.596092
0.602694
0.579392
0.588719
0.67077
0.68127
0.757915
0.764868
0.728331
0.745694
0.810452
0.826479
0.881811
0.894057
0.92821
0.938916
0.946914
0.959754
0.942606
0.957684
0.923141
0.928403
0.935193
0.942919
0.905014
0.906151
0.926036
0.914949
0.909287
0.89821
0.895846
0.890173
0.896302
0.889612
0.913932
0.930663
0.923246
0.896541
0.875652
0.882777
0.895838
0.941989
0.929499
0.946112
0.953419
0.963787
-0.0288899
0.218329
0.762057
0.997244
0.976873
1.01893
0.977476
-0.00019639
0.000305714
0.000982049
0.0014419
0.00183031
0.00217521
0.00262241
0.00328012
0.00409516
0.00522889
0.00682441
0.00905166
0.0119781
0.0155878
0.0196843
0.0237384
0.027444
0.0309728
0.0341724
0.0368457
0.0391774
0.0407956
0.0424831
0.0582711
0.122319
0.223743
0.312792
0.401275
0.486967
0.574045
0.611571
0.615753
0.672123
0.662545
0.686301
0.680362
0.686781
0.688554
0.767424
0.761957
0.832866
0.820995
0.835755
0.837653
0.8983
0.895346
0.943626
0.94007
0.968893
0.970874
0.972242
0.982865
0.950474
0.959627
0.967834
0.976574
0.931124
0.939002
0.94825
0.896287
0.898271
0.922899
0.913375
0.903828
0.88493
0.880017
0.871287
0.88276
0.867184
0.897547
0.935473
0.902938
0.867312
0.853694
0.839521
0.860654
0.96277
0.979393
0.95181
0.994841
1.01017
0.00525012
0.170455
0.621857
1.02776
1.04551
1.04241
0.9391
-0.000484447
5.61871e-06
0.000560584
0.000920603
0.00114454
0.00133207
0.00179465
0.00241844
0.00328068
0.00453894
0.00641402
0.00902647
0.0124192
0.0164847
0.0207325
0.0247585
0.0286448
0.0323351
0.0356048
0.0386305
0.0411781
0.0436578
0.0583029
0.123793
0.235345
0.340144
0.410344
0.473655
0.546739
0.613593
0.591806
0.649472
0.635386
0.692858
0.674837
0.725151
0.709254
0.751829
0.73993
0.806525
0.788451
0.852899
0.831162
0.885548
0.870173
0.929467
0.91235
0.966691
0.950515
0.987891
0.981193
0.982975
0.987663
0.990203
0.989435
0.957757
0.96736
0.975889
0.983031
0.932467
0.94326
0.954348
0.884593
0.891227
0.92459
0.91552
0.902292
0.866965
0.855078
0.849385
0.868845
0.837441
0.857529
0.91407
0.860271
0.825704
0.81885
0.799909
0.814237
0.971337
0.992556
0.932549
1.01535
1.03685
0.0333146
0.584858
0.260317
1.05692
1.0685
1.04764
0.915605
-0.000892913
-0.000407554
2.09067e-05
0.000316773
0.000170921
0.000277759
0.000724714
0.00134162
0.00224904
0.00373727
0.00598275
0.00904686
0.0129573
0.0172799
0.021589
0.0257438
0.0298259
0.0336522
0.0371343
0.0404495
0.0435584
0.0542054
0.117654
0.232896
0.333755
0.392839
0.44431
0.491451
0.49454
0.592322
0.528311
0.654098
0.625613
0.681723
0.653164
0.728531
0.706333
0.769209
0.749301
0.806413
0.779825
0.835113
0.800607
0.892119
0.866871
0.927702
0.896699
0.960104
0.929214
0.986046
0.980438
0.96049
0.987621
0.9892
0.987532
0.982742
0.964606
0.973347
0.980017
0.983939
0.937004
0.949129
0.959656
0.877104
0.889744
0.929233
0.91942
0.904533
0.851451
0.830139
0.832038
0.860994
0.809824
0.807354
0.871871
0.808162
0.781759
0.788579
0.76706
0.766207
0.957688
0.987519
0.893606
1.0186
1.04788
0.0620552
0.624236
0.328629
1.07122
1.07924
1.04917
0.912201
-0.00138176
-0.000933701
-0.000609787
-0.000568877
-0.00103163
-0.000961336
-0.000519654
4.27623e-05
0.00108759
0.00283704
0.00547355
0.00914134
0.0134124
0.0178788
0.0222874
0.0266816
0.0309773
0.0348823
0.0387515
0.0424077
0.0496769
0.0995074
0.220755
0.318645
0.363405
0.388075
0.379911
0.317837
0.377028
0.292754
0.521262
0.451522
0.618686
0.574979
0.63118
0.591241
0.695838
0.665253
0.752323
0.724463
0.765536
0.731007
0.776
0.734745
0.858078
0.817547
0.892056
0.852941
0.935272
0.906967
0.975929
0.967247
0.958496
0.961362
0.98439
0.982186
0.978302
0.973794
0.968254
0.974202
0.977147
0.977819
0.941958
0.952664
0.960622
0.875306
0.891531
0.932642
0.920976
0.907264
0.842855
0.811032
0.822436
0.858586
0.788595
0.755744
0.820055
0.754534
0.746001
0.765126
0.741009
0.727299
0.925343
0.964309
0.844701
1.0061
1.04645
0.0836511
0.652793
0.367812
1.077
1.08544
1.05348
0.917535
-0.00186582
-0.00152266
-0.00141039
-0.00176739
-0.00238824
-0.00235049
-0.00200188
-0.00145813
-0.000315129
0.00181227
0.00508301
0.0091551
0.0136687
0.0183087
0.0229868
0.0276136
0.0320078
0.0361928
0.0402382
0.0456837
0.0788743
0.192492
0.294925
0.327033
0.315586
0.24713
0.166343
0.120544
0.245261
0.151083
0.413362
0.331483
0.543048
0.483997
0.545523
0.49361
0.627785
0.58928
0.697077
0.663126
0.69477
0.655732
0.730092
0.687025
0.812493
0.771741
0.878623
0.843513
0.953722
0.950182
0.935768
0.943742
0.969423
0.964678
0.993486
0.988555
0.977168
0.976129
0.975718
0.976299
0.966004
0.969203
0.971459
0.973968
0.943268
0.951216
0.956993
0.87595
0.892465
0.932101
0.919463
0.907031
0.839279
0.799871
0.817143
0.857554
0.77515
0.712687
0.766869
0.707352
0.718541
0.748903
0.720668
0.697347
0.882412
0.93046
0.794161
0.983852
1.03711
0.0761383
0.683017
0.389829
1.07881
1.09129
1.06138
0.934586
-0.00223265
-0.00221176
-0.00238974
-0.00315655
-0.00380926
-0.00391077
-0.00376688
-0.0032399
-0.00177744
0.000823523
0.00454523
0.00897249
0.0137294
0.0186524
0.0235916
0.0284206
0.0328298
0.0372762
0.0420223
0.0614128
0.154524
0.266292
0.295965
0.253782
0.152543
0.0896748
0.0623384
0.0580257
0.0470636
0.121274
0.076905
0.273235
0.187685
0.431362
0.357845
0.430834
0.365685
0.533471
0.48568
0.61668
0.576577
0.641824
0.593652
0.724842
0.680356
0.805291
0.766215
0.936159
0.902504
0.9968
0.997207
0.985314
0.993475
0.978752
0.983249
1.05315
1.04365
0.977669
0.983443
0.992263
1.00356
0.961869
0.967197
0.974291
0.984274
0.940999
0.94873
0.956721
0.874956
0.890665
0.930448
0.918925
0.905005
0.836226
0.792372
0.811737
0.85453
0.76517
0.68019
0.718357
0.672039
0.695052
0.736002
0.705424
0.672241
0.836818
0.892715
0.748276
0.957353
1.02438
0.041731
0.725224
0.392399
1.07927
1.09829
1.07252
0.960829
-0.0024829
-0.002897
-0.00352281
-0.00448207
-0.00526876
-0.00568037
-0.00577197
-0.0051904
-0.0034251
-0.000328748
0.00381703
0.00860093
0.0137152
0.0189448
0.0241257
0.0289554
0.0335911
0.0380904
0.0491872
0.11659
0.230364
0.271653
0.216131
0.107198
0.0577284
0.0399976
0.0361107
0.0429651
0.0387556
0.0623789
0.0492406
0.136925
0.0888308
0.288766
0.20697
0.300414
0.227346
0.429702
0.368634
0.541931
0.486903
0.631129
0.575261
0.787516
0.743641
0.866871
0.827849
1.00204
0.97124
0.945836
0.917265
1.05769
1.05636
1.02728
1.04649
1.01707
1.03107
1.11232
1.10761
0.997792
1.01484
1.03485
1.05629
0.966302
0.978751
0.995154
1.01599
0.941305
0.953329
0.967657
0.871502
0.887995
0.933551
0.923481
0.904988
0.830942
0.784523
0.803924
0.849243
0.754641
0.655322
0.680012
0.647123
0.676359
0.722813
0.690398
0.651531
0.794348
0.856159
0.710216
0.930764
1.01183
0.0345579
0.785151
0.451628
1.08051
1.1057
1.08512
0.993965
-0.00276102
-0.00389187
-0.00454499
-0.0056962
-0.00682742
-0.00769876
-0.00817971
-0.00744318
-0.00528401
-0.00168261
0.00293174
0.00813549
0.0135951
0.019103
0.0244224
0.0291481
0.033854
0.0409287
0.0834236
0.189002
0.249702
0.199568
0.0899963
0.0442248
0.0283135
0.0270036
0.0322212
0.0289524
0.0385202
0.0353122
0.0476169
0.0422238
0.0735308
0.0568116
0.158311
0.105336
0.216589
0.151331
0.36938
0.292139
0.512468
0.443351
0.691439
0.625548
0.802203
0.778351
0.894624
0.871041
0.833509
0.994809
0.957103
0.919183
0.886419
1.10563
1.08767
1.03002
1.06093
1.07734
1.09512
1.13792
1.15032
1.04089
1.06829
1.09584
1.1207
0.985796
1.00897
1.03699
1.06851
0.949906
0.969898
0.994881
0.8676
0.887497
0.945091
0.936387
0.90953
0.823001
0.77405
0.793015
0.842434
0.741229
0.636596
0.653964
0.630463
0.660053
0.707211
0.674536
0.635346
0.758273
0.824059
0.682047
0.907374
1.00126
0.254947
0.868169
0.776595
1.08354
1.11323
1.09755
1.03044
-0.00381648
-0.00443794
-0.00515312
-0.00701985
-0.00872516
-0.0103403
-0.0111387
-0.0102511
-0.0075285
-0.00330191
0.00188798
0.00753476
0.0133774
0.0191123
0.0242741
0.0291602
0.03462
0.0584703
0.145167
0.223699
0.193667
0.0838288
0.0405789
0.0248475
0.0183792
0.0214229
0.0294141
0.0259822
0.036227
0.0326334
0.0463429
0.0406857
0.0632918
0.0535009
0.105162
0.0782983
0.208144
0.154298
0.373185
0.284743
0.548609
0.463174
0.753621
0.718165
0.71011
0.722748
0.85914
0.835336
0.741818
0.746089
0.949151
0.89711
0.848294
0.808281
1.11551
1.08628
1.00112
1.0487
1.14038
1.15137
1.136
1.1599
1.10122
1.13189
1.15726
1.17449
1.02522
1.05965
1.09592
1.13099
0.971973
1.00492
1.04258
0.864594
0.8905
0.970339
0.961363
0.92161
0.813151
0.759279
0.78147
0.838016
0.725299
0.622606
0.638803
0.621746
0.646474
0.692846
0.663417
0.624657
0.730554
0.798758
0.664476
0.889655
0.996343
0.403879
0.974873
0.892922
1.08804
1.12085
1.11145
1.07015
-0.00360716
-0.00413401
-0.0058709
-0.00845901
-0.0113543
-0.0138533
-0.0146373
-0.0134029
-0.0100633
-0.00515514
0.000628321
0.00682069
0.0130491
0.0188361
0.0238953
0.0288998
0.0417501
0.103096
0.19081
0.190786
0.0931376
0.0452437
0.0297213
0.0177793
0.0118704
0.0170942
0.0268941
0.0235633
0.0358286
0.0306719
0.0559043
0.0438305
0.0888157
0.0717472
0.123553
0.105027
0.301879
0.247972
0.474684
0.379858
0.656402
0.572628
0.733845
0.733391
0.651379
0.576129
0.592053
0.608421
0.632206
0.777799
0.756743
0.652292
0.878583
0.813266
0.755215
0.71021
1.10473
1.06086
0.945309
1.00718
1.18029
1.17393
1.12089
1.15183
1.16143
1.18433
1.19657
1.19668
1.08234
1.1211
1.15574
1.18331
1.0115
1.05738
1.10274
0.866948
0.902519
1.01006
1.00333
0.947825
0.80923
0.750081
0.77933
0.841139
0.718573
0.615639
0.632731
0.619964
0.638466
0.68824
0.660004
0.620569
0.711711
0.782427
0.659072
0.880554
0.995581
0.245644
1.03431
0.818864
1.09448
1.12992
1.12971
1.10049
-0.00227153
-0.00405913
-0.00679455
-0.0104924
-0.014693
-0.0178448
-0.018405
-0.0165149
-0.012568
-0.0070947
-0.000674617
0.00616205
0.0126439
0.0181782
0.0232409
0.0309362
0.0684214
0.152008
0.181855
0.115417
0.0532806
0.0356466
0.0231525
0.00370253
0.00811186
0.0160526
0.0213082
0.0125297
0.0248056
0.0367082
0.0291913
0.0737167
0.0503048
0.145555
0.10727
0.212077
0.180995
0.461513
0.398736
0.614954
0.536834
0.721065
0.682728
0.63695
0.678843
0.566796
0.502411
0.520196
0.541069
0.56624
0.678412
0.660138
0.564215
0.807523
0.730778
0.664073
0.61508
1.07765
1.02465
0.887771
0.96116
1.189
1.17363
1.09068
1.12994
1.2013
1.20796
1.20493
1.19652
1.14278
1.17469
1.19731
1.20973
1.06327
1.11487
1.15775
0.881073
0.932689
1.06337
1.06191
0.995506
0.814055
0.749148
0.787062
0.859552
0.719061
0.614361
0.634594
0.622684
0.636118
0.689542
0.662695
0.621847
0.704697
0.775882
0.664577
0.878964
0.999686
0.163278
1.03415
0.731698
1.10418
1.14237
1.1483
1.11936
-0.00134172
-0.00421147
-0.00814144
-0.0132322
-0.0178839
-0.0208144
-0.0212334
-0.0189725
-0.0145884
-0.00870177
-0.00171641
0.00561187
0.0120161
0.017456
0.0232246
0.0439806
0.111757
0.168601
0.135643
0.0674812
0.0426388
0.0300543
0.00551341
-0.00168996
0.00570273
0.0193378
0.014313
0.0108757
0.0228998
0.0375591
0.0277609
0.098917
0.0590453
0.226781
0.158179
0.345962
0.291421
0.600775
0.542129
0.693832
0.654683
0.704957
0.707722
0.54292
0.577598
0.600151
0.491364
0.44094
0.459548
0.483437
0.510569
0.583593
0.568798
0.487869
0.748654
0.662176
0.586708
0.534478
1.04206