/*--------------------------------*- C++ -*----------------------------------*\
  =========                 |
  \\      /  F ield         | OpenFOAM: The Open Source CFD Toolbox
   \\    /   O peration     | Website:  https://openfoam.org
    \\  /    A nd           | Version:  dev
     \\/     M anipulation  |
\*---------------------------------------------------------------------------*/
FoamFile
{
    version     2.0;
    format      ascii;
    class       surfaceScalarField;
    location    "2500";
    object      phi;
}
// * * * * * * * * * * * * * * * * * * * * * * * * * * * * * * * * * * * * * //

dimensions      [1 0 -1 0 0 0 0];

internalField   nonuniform List<scalar> 
19793
(
1.60282e-07
1.12331e-07
1.39838e-07
2.82289e-07
4.54763e-07
1.0216e-07
1.15524e-07
3.90177e-07
4.49594e-07
2.87515e-07
6.63644e-07
8.6207e-08
9.58077e-08
4.69444e-07
4.16281e-07
4.23463e-07
6.84374e-07
2.66797e-07
8.2785e-07
7.34517e-08
8.00066e-08
5.31383e-07
3.62887e-07
5.22812e-07
6.8655e-07
4.21319e-07
8.60586e-07
2.3408e-07
9.75993e-07
6.45299e-08
6.60605e-08
5.84601e-07
3.02031e-07
5.92206e-07
6.62796e-07
5.46583e-07
8.92353e-07
3.89555e-07
1.00386e-06
2.06218e-07
1.10934e-06
5.83396e-08
5.48038e-08
6.30459e-07
2.47604e-07
6.39028e-07
6.15274e-07
6.39766e-07
9.07824e-07
5.31154e-07
1.04494e-06
3.48494e-07
1.13122e-06
1.8434e-07
1.23342e-06
5.31732e-08
4.68731e-08
6.69699e-07
2.05074e-07
6.72985e-07
5.52047e-07
7.02272e-07
8.9644e-07
6.51127e-07
1.08603e-06
4.90067e-07
1.16801e-06
3.11715e-07
1.25015e-06
1.67543e-07
1.34804e-06
4.87289e-08
4.13975e-08
7.04807e-07
1.75496e-07
6.99316e-07
4.84121e-07
7.40916e-07
8.58502e-07
7.40217e-07
1.11331e-06
6.23876e-07
1.21517e-06
4.42843e-07
1.27865e-06
2.83275e-07
1.36204e-06
1.5358e-07
1.45401e-06
4.50901e-08
3.75877e-08
7.34793e-07
1.57844e-07
7.22469e-07
4.17831e-07
7.6557e-07
7.9906e-07
8.00363e-07
1.11683e-06
7.36674e-07
1.26565e-06
5.73439e-07
1.31983e-06
4.01695e-07
1.38588e-06
2.5944e-07
1.46547e-06
1.42125e-07
1.55394e-06
4.19992e-08
3.47984e-08
7.6138e-07
1.45071e-07
7.47528e-07
3.5901e-07
7.81293e-07
7.26841e-07
8.37754e-07
1.09268e-06
8.24516e-07
1.3053e-06
6.97035e-07
1.37292e-06
5.20363e-07
1.41951e-06
3.68084e-07
1.48511e-06
2.39816e-07
1.56359e-06
1.32486e-07
1.64759e-06
3.93095e-08
3.26215e-08
7.84786e-07
1.33792e-07
7.72676e-07
3.13716e-07
7.9278e-07
6.50044e-07
8.57979e-07
1.04369e-06
8.86761e-07
1.3228e-06
8.07027e-07
1.43022e-06
6.3979e-07
1.46432e-06
4.75563e-07
1.5141e-06
3.39141e-07
1.58014e-06
2.2327e-07
1.65607e-06
1.24005e-07
1.73588e-06
3.69649e-08
3.10636e-08
8.06865e-07
1.23375e-07
7.95213e-07
2.82502e-07
8.03895e-07
5.77497e-07
8.65451e-07
9.7698e-07
9.24717e-07
1.31331e-06
8.962e-07
1.4801e-06
7.5704e-07
1.51962e-06
5.8451e-07
1.55219e-06
4.37465e-07
1.60351e-06
3.15778e-07
1.67022e-06
2.09117e-07
1.74339e-06
1.16498e-07
1.82006e-06
3.47982e-08
2.89605e-08
8.28228e-07
1.15197e-07
8.15106e-07
2.5928e-07
8.18418e-07
5.15113e-07
8.66309e-07
9.00299e-07
9.42152e-07
1.27732e-06
9.60789e-07
1.51076e-06
8.65545e-07
1.58082e-06
6.95746e-07
1.60017e-06
5.36515e-07
1.6354e-06
4.05515e-07
1.69059e-06
2.95418e-07
1.75606e-06
1.96445e-07
1.82669e-06
1.09872e-07
1.8995e-06
3.3017e-08
2.7273e-08
8.46907e-07
1.09053e-07
8.34397e-07
2.39119e-07
8.35313e-07
4.67901e-07
8.65616e-07
8.21841e-07
9.44784e-07
1.22047e-06
9.9895e-07
1.5162e-06
9.55347e-07
1.638e-06
8.08432e-07
1.65708e-06
6.38816e-07
1.67501e-06
4.96962e-07
1.71758e-06
3.78563e-07
1.77386e-06
2.77642e-07
1.83757e-06
1.85574e-07
1.90478e-06
1.04569e-07
1.9759e-06
3.13598e-08
2.63897e-08
8.64288e-07
1.04292e-07
8.5168e-07
2.25675e-07
8.47839e-07
4.3536e-07
8.67813e-07
7.47005e-07
9.40473e-07
1.14943e-06
1.01581e-06
1.49487e-06
1.02028e-06
1.6798e-06
9.13542e-07
1.72024e-06
7.45239e-07
1.72369e-06
5.90216e-07
1.75151e-06
4.63033e-07
1.79724e-06
3.55145e-07
1.85308e-06
2.62154e-07
1.91473e-06
1.75634e-07
1.9812e-06
9.92703e-08
2.04909e-06
2.98439e-08
2.5584e-08
8.81581e-07
1.01179e-07
8.67456e-07
2.16238e-07
8.6116e-07
4.07018e-07
8.7621e-07
6.80387e-07
9.34485e-07
1.07062e-06
1.01927e-06
1.44951e-06
1.0611e-06
1.69915e-06
1.00095e-06
1.7822e-06
8.51627e-07
1.78195e-06
6.8697e-07
1.79232e-06
5.49428e-07
1.82649e-06
4.3383e-07
1.87368e-06
3.34556e-07
1.92861e-06
2.4829e-07
1.9893e-06
1.67543e-07
2.05353e-06
9.48231e-08
2.1195e-06
2.86065e-08
2.49826e-08
8.98816e-07
9.83271e-08
8.8446e-07
2.07458e-07
8.76137e-07
3.82755e-07
8.85479e-07
6.28441e-07
9.28268e-07
9.91063e-07
1.01395e-06
1.38671e-06
1.08204e-06
1.69243e-06
1.06782e-06
1.83307e-06
9.50063e-07
1.84696e-06
7.86636e-07
1.84085e-06
6.38363e-07
1.86169e-06
5.14194e-07
1.89925e-06
4.08282e-07
1.94659e-06
3.16614e-07
2.00124e-06
2.36326e-07
2.06112e-06
1.59953e-07
2.12345e-06
9.08628e-08
2.18736e-06
2.7524e-08
2.48835e-08
9.16491e-07
9.55379e-08
9.01626e-07
2.01905e-07
8.9003e-07
3.62777e-07
8.96132e-07
5.90417e-07
9.23511e-07
9.15922e-07
1.00319e-06
1.31232e-06
1.08835e-06
1.66013e-06
1.11436e-06
1.86433e-06
1.03656e-06
1.91283e-06
8.84041e-07
1.89893e-06
7.28555e-07
1.90296e-06
5.97159e-07
1.92998e-06
4.83481e-07
1.96927e-06
3.85626e-07
2.01772e-06
3.00209e-07
2.07161e-06
2.25806e-07
2.13026e-06
1.53148e-07
2.1908e-06
8.74238e-08
2.25351e-06
2.65306e-08
2.48726e-08
9.35046e-07
9.45844e-08
9.17508e-07
1.98006e-07
9.05572e-07
3.45392e-07
9.07454e-07
5.62067e-07
9.24633e-07
8.49712e-07
9.89785e-07
1.23191e-06
1.08372e-06
1.60657e-06
1.14193e-06
1.87066e-06
1.108e-06
1.97103e-06
9.78368e-07
1.96373e-06
8.19199e-07
1.95192e-06
6.79537e-07
1.96616e-06
5.60969e-07
1.99646e-06
4.56309e-07
2.03744e-06
3.65917e-07
2.08563e-06
2.86233e-07
2.13953e-06
2.1654e-07
2.19625e-06
1.47685e-07
2.25638e-06
8.4569e-08
2.31752e-06
2.57805e-08
2.47894e-08
9.54677e-07
9.47973e-08
9.34853e-07
1.92887e-07
9.22664e-07
3.32512e-07
9.18476e-07
5.38007e-07
9.31585e-07
7.95726e-07
9.7866e-07
1.15057e-06
1.07118e-06
1.53786e-06
1.15244e-06
1.85107e-06
1.16155e-06
2.012e-06
1.06701e-06
2.03097e-06
9.11024e-07
2.00962e-06
7.61511e-07
2.00793e-06
6.37763e-07
2.02796e-06
5.29469e-07
2.061e-06
4.32773e-07
2.10359e-06
3.48029e-07
2.15224e-06
2.73561e-07
2.20454e-06
2.08279e-07
2.26126e-06
1.4281e-07
2.3203e-06
8.18001e-08
2.3804e-06
2.50027e-08
2.48745e-08
9.75372e-07
9.50495e-08
9.54457e-07
1.88136e-07
9.39559e-07
3.22864e-07
9.32338e-07
5.16019e-07
9.40412e-07
7.54653e-07
9.72695e-07
1.07515e-06
1.05415e-06
1.46086e-06
1.14821e-06
1.8082e-06
1.19534e-06
2.03027e-06
1.1433e-06
2.09453e-06
1.00353e-06
2.0739e-06
8.4671e-07
2.05586e-06
7.13515e-07
2.06394e-06
6.01799e-07
2.08937e-06
5.01121e-07
2.12507e-06
4.11316e-07
2.16803e-06
3.32178e-07
2.21574e-06
2.62397e-07
2.26826e-06
2.01282e-07
2.32455e-06
1.38544e-07
2.38244e-06
7.97652e-08
2.44177e-06
2.43692e-08
2.50178e-08
9.97822e-07
9.49697e-08
9.75524e-07
1.85369e-07
9.57296e-07
3.13979e-07
9.48626e-07
4.97503e-07
9.50861e-07
7.21915e-07
9.73283e-07
1.01205e-06
1.03584e-06
1.37995e-06
1.13496e-06
1.74718e-06
1.20921e-06
2.02345e-06
1.20216e-06
2.14481e-06
1.09303e-06
2.1423e-06
9.35116e-07
2.11194e-06
7.90728e-07
2.10634e-06
6.71161e-07
2.1218e-06
5.69388e-07
2.1494e-06
4.76781e-07
2.18727e-06
3.92179e-07
2.23002e-06
3.1792e-07
2.27792e-06
2.52754e-07
2.33051e-06
1.95331e-07
2.386e-06
1.34983e-07
2.44354e-06
7.80102e-08
2.50227e-06
2.39752e-08
2.53163e-08
1.0219e-06
9.54661e-08
9.97366e-07
1.83169e-07
9.7777e-07
3.0582e-07
9.65505e-07
4.81875e-07
9.64239e-07
6.94151e-07
9.78674e-07
9.62927e-07
1.02249e-06
1.29879e-06
1.11699e-06
1.67382e-06
1.20843e-06
1.99223e-06
1.24045e-06
2.17467e-06
1.17229e-06
2.20942e-06
1.02586e-06
2.17551e-06
8.71504e-07
2.15486e-06
7.42182e-07
2.1589e-06
6.33985e-07
2.17869e-06
5.40097e-07
2.20943e-06
4.54627e-07
2.24699e-06
3.75249e-07
2.29026e-06
3.05598e-07
2.33885e-06
2.44452e-07
2.39096e-06
1.90401e-07
2.44624e-06
1.32249e-07
2.50352e-06
7.67579e-08
2.56369e-06
2.44357e-08
2.5759e-08
1.04769e-06
9.60876e-08
1.0213e-06
1.79959e-07
1.00061e-06
2.99842e-07
9.8379e-07
4.67191e-07
9.80239e-07
6.712e-07
9.87195e-07
9.23995e-07
1.01773e-06
1.22482e-06
1.09638e-06
1.59355e-06
1.19725e-06
1.94031e-06
1.26036e-06
2.18037e-06
1.23479e-06
2.26687e-06
1.11482e-06
2.24456e-06
9.56794e-07
2.21056e-06
8.15776e-07
2.20191e-06
6.99229e-07
2.21227e-06
6.0041e-07
2.23427e-06
5.15282e-07
2.26714e-06
4.34497e-07
2.30528e-06
3.6018e-07
2.34937e-06
2.95088e-07
2.39805e-06
2.37361e-07
2.45038e-06
1.86308e-07
2.50548e-06
1.30281e-07
2.56315e-06
7.7343e-08
2.63038e-06
2.4215e-08
2.59092e-08
1.07536e-06
9.6098e-08
1.04771e-06
1.77932e-07
1.02337e-06
2.95383e-07
1.00511e-06
4.53343e-07
9.97757e-07
6.52245e-07
9.99135e-07
8.90637e-07
1.02064e-06
1.16426e-06
1.07837e-06
1.51051e-06
1.17955e-06
1.87315e-06
1.26449e-06
2.16139e-06
1.27936e-06
2.30692e-06
1.19471e-06
2.31522e-06
1.0441e-06
2.27387e-06
8.93472e-07
2.25009e-06
7.67558e-07
2.24985e-06
6.61694e-07
2.26396e-06
5.70763e-07
2.29051e-06
4.91923e-07
2.3229e-06
4.16985e-07
2.36231e-06
3.47276e-07
2.40721e-06
2.85963e-07
2.45614e-06
2.31604e-07
2.50829e-06
1.83535e-07
2.56432e-06
1.29095e-07
2.63162e-06
7.61298e-08
2.69013e-06
2.40945e-08
2.56801e-08
1.10441e-06
9.54411e-08
1.07603e-06
1.765e-07
1.04917e-06
2.89264e-07
1.02954e-06
4.42335e-07
1.01617e-06
6.36351e-07
1.01365e-06
8.62227e-07
1.02776e-06
1.11705e-06
1.06806e-06
1.42996e-06
1.15901e-06
1.79548e-06
1.25728e-06
2.11964e-06
1.30625e-06
2.32481e-06
1.26153e-06
2.37916e-06
1.13073e-06
2.34301e-06
9.74964e-07
2.30552e-06
8.38088e-07
2.29283e-06
7.24578e-07
2.29804e-06
6.27622e-07
2.31593e-06
5.45356e-07
2.3435e-06
4.71378e-07
2.37717e-06
4.02024e-07
2.4182e-06
3.36314e-07
2.46351e-06
2.78622e-07
2.51286e-06
2.27027e-07
2.56651e-06
1.81348e-07
2.63175e-06
1.28938e-07
2.69092e-06
7.53271e-08
2.74984e-06
2.42176e-08
2.55244e-08
1.13378e-06
9.49863e-08
1.10489e-06
1.75831e-07
1.07677e-06
2.84448e-07
1.05404e-06
4.34044e-07
1.03789e-06
6.21245e-07
1.03133e-06
8.37591e-07
1.03836e-06
1.07856e-06
1.06623e-06
1.35997e-06
1.13809e-06
1.71245e-06
1.24214e-06
2.06001e-06
1.31694e-06
2.31849e-06
1.31259e-06
2.42924e-06
1.2115e-06
2.41551e-06
1.05809e-06
2.36828e-06
9.12124e-07
2.34127e-06
7.89558e-07
2.33638e-06
6.86259e-07
2.34563e-06
5.98079e-07
2.36751e-06
5.21346e-07
2.39511e-06
4.5366e-07
2.4314e-06
3.88864e-07
2.47284e-06
3.27024e-07
2.51921e-06
2.72287e-07
2.56978e-06
2.23788e-07
2.63215e-06
1.80945e-07
2.69155e-06
1.28322e-07
2.75067e-06
7.44597e-08
2.80979e-06
2.41415e-08
2.52344e-08
1.16382e-06
9.4444e-08
1.13436e-06
1.76207e-07
1.10458e-06
2.81301e-07
1.07998e-06
4.26042e-07
1.06208e-06
6.07697e-07
1.0515e-06
8.1641e-07
1.05257e-06
1.04625e-06
1.07075e-06
1.30407e-06
1.12229e-06
1.62909e-06
1.22158e-06
1.98821e-06
1.31402e-06
2.2885e-06
1.347e-06
2.45898e-06
1.28286e-06
2.48509e-06
1.14199e-06
2.43765e-06
9.88552e-07
2.39694e-06
8.56382e-07
2.38049e-06
7.45394e-07
2.38076e-06
6.50988e-07
2.39403e-06
5.71587e-07
2.41669e-06
4.99712e-07
2.44679e-06
4.38315e-07
2.48397e-06
3.77771e-07
2.5264e-06
3.19874e-07
2.57417e-06
2.67918e-07
2.63376e-06
2.22182e-07
2.69271e-06
1.79752e-07
2.75234e-06
1.26621e-07
2.81075e-06
7.34816e-08
2.87e-06
2.38149e-08
2.46139e-08
1.19449e-06
9.34462e-08
1.16492e-06
1.7527e-07
1.13534e-06
2.7685e-07
1.10907e-06
4.1811e-07
1.08786e-06
5.95154e-07
1.07469e-06
7.97474e-07
1.07049e-06
1.01843e-06
1.08051e-06
1.2597e-06
1.11525e-06
1.55209e-06
1.19941e-06
1.90846e-06
1.30141e-06
2.23838e-06
1.36419e-06
2.46588e-06
1.34012e-06
2.54449e-06
1.22348e-06
2.51234e-06
1.06746e-06
2.45987e-06
9.25562e-07
2.43029e-06
8.06556e-07
2.42054e-06
7.05645e-07
2.42435e-06
6.20747e-07
2.44155e-06
5.46793e-07
2.46456e-06
4.81988e-07
2.49691e-06
4.25416e-07
2.53538e-06
3.68832e-07
2.57985e-06
3.14223e-07
2.63579e-06
2.65913e-07
2.69399e-06
2.209e-07
2.75381e-06
1.78269e-07
2.81343e-06
1.23941e-07
2.87094e-06
7.25253e-08
2.92952e-06
2.33161e-08
2.3632e-08
1.22483e-06
9.25483e-08
1.19541e-06
1.73057e-07
1.16715e-06
2.72032e-07
1.14015e-06
4.09872e-07
1.11736e-06
5.82105e-07
1.10104e-06
7.79696e-07
1.09253e-06
9.9357e-07
1.09542e-06
1.22276e-06
1.11756e-06
1.48736e-06
1.18009e-06
1.82539e-06
1.28259e-06
2.17343e-06
1.36646e-06
2.44922e-06
1.38089e-06
2.58678e-06
1.29783e-06
2.58723e-06
1.1486e-06
2.53037e-06
9.97065e-07
2.48699e-06
8.6889e-07
2.46534e-06
7.61724e-07
2.45971e-06
6.70173e-07
2.46882e-06
5.93452e-07
2.4857e-06
5.25688e-07
2.51216e-06
4.66811e-07
2.54605e-06
4.14787e-07
2.58626e-06
3.62478e-07
2.6381e-06
3.11914e-07
2.69584e-06
2.64086e-07
2.75286e-06
2.21861e-07
2.81625e-06
1.75413e-07
2.87289e-06
1.2195e-07
2.93134e-06
7.07085e-08
2.98885e-06
2.2768e-08
2.23064e-08
1.25431e-06
9.05351e-08
1.22688e-06
1.68947e-07
1.19955e-06
2.66522e-07
1.17269e-06
4.01213e-07
1.1489e-06
5.69836e-07
1.12967e-06
7.62588e-07
1.11822e-06
9.70975e-07
1.11522e-06
1.19101e-06
1.12726e-06
1.4364e-06
1.16866e-06
1.74428e-06
1.26133e-06
2.09822e-06
1.35788e-06
2.41044e-06
1.40527e-06
2.60704e-06
1.36062e-06
2.65537e-06
1.22963e-06
2.60718e-06
1.07175e-06
2.55078e-06
9.33208e-07
2.51684e-06
8.17379e-07
2.50114e-06
7.20284e-07
2.5002e-06
6.3876e-07
2.50989e-06
5.692e-07
2.52943e-06
5.08438e-07
2.55844e-06
4.54458e-07
2.59394e-06
4.07133e-07
2.64053e-06
3.60117e-07
2.69734e-06
3.10462e-07
2.75251e-06
2.64486e-07
2.81406e-06
2.24026e-07
2.87552e-06
1.72761e-07
2.93396e-06
1.19297e-07
2.9917e-06
6.78282e-08
3.04874e-06
2.19567e-08
2.08341e-08
1.28192e-06
8.68813e-08
1.25799e-06
1.63567e-07
1.23232e-06
2.60173e-07
1.20595e-06
3.91944e-07
1.18196e-06
5.57531e-07
1.16127e-06
7.45809e-07
1.14652e-06
9.50278e-07
1.139e-06
1.16325e-06
1.1431e-06
1.3955e-06
1.16832e-06
1.67138e-06
1.24166e-06
2.01678e-06
1.34286e-06
2.35407e-06
1.41433e-06
2.60409e-06
1.40831e-06
2.70965e-06
1.30639e-06
2.68696e-06
1.14986e-06
2.6225e-06
1.00007e-06
2.57532e-06
8.74723e-07
2.54804e-06
7.7047e-07
2.53597e-06
6.84588e-07
2.53723e-06
6.11488e-07
2.54992e-06
5.48714e-07
2.5724e-06
4.94425e-07
2.60325e-06
4.45201e-07
2.64366e-06
4.04095e-07
2.69873e-06
3.58764e-07
2.75267e-06
3.10292e-07
2.8126e-06
2.65978e-07
2.87536e-06
2.24194e-07
2.93725e-06
1.69407e-07
2.99706e-06
1.13891e-07
3.05181e-06
6.47198e-08
3.10957e-06
1.76601e-08
1.89927e-08
1.30704e-06
8.17085e-08
1.28712e-06
1.5704e-07
1.26456e-06
2.52356e-07
1.24019e-06
3.8045e-07
1.21748e-06
5.43781e-07
1.1958e-06
7.29213e-07
1.17793e-06
9.29806e-07
1.16707e-06
1.13767e-06
1.16469e-06
1.3606e-06
1.17814e-06
1.61123e-06
1.22859e-06
1.93371e-06
1.32488e-06
2.28551e-06
1.41152e-06
2.57838e-06
1.44009e-06
2.74426e-06
1.37374e-06
2.76395e-06
1.2294e-06
2.70223e-06
1.0701e-06
2.64117e-06
9.34196e-07
2.60087e-06
8.21888e-07
2.57806e-06
7.28405e-07
2.5708e-06
6.51016e-07
2.5743e-06
5.87144e-07
2.58879e-06
5.32468e-07
2.61394e-06
4.83715e-07
2.64825e-06
4.40667e-07
2.7002e-06
4.02592e-07
2.75202e-06
3.59492e-07
2.81082e-06
3.12114e-07
2.87506e-06
2.66276e-07
2.93994e-06
2.21503e-07
3.00366e-06
1.6277e-07
3.0599e-06
1.05729e-07
3.10967e-06
3.07054e-08
3.38551e-08
1.57511e-06
6.32646e-09
1.57753e-06
9.11565e-09
1.67156e-08
1.32843e-06
7.55431e-08
1.31325e-06
1.4902e-07
1.29521e-06
2.42212e-07
1.27477e-06
3.67462e-07
1.25326e-06
5.28898e-07
1.23243e-06
7.12328e-07
1.21278e-06
9.09293e-07
1.19852e-06
1.11409e-06
1.19075e-06
1.32942e-06
1.19595e-06
1.56368e-06
1.22591e-06
1.8553e-06
1.30716e-06
2.20911e-06
1.4014e-06
2.53302e-06
1.45696e-06
2.75622e-06
1.42817e-06
2.83051e-06
1.30719e-06
2.78723e-06
1.14442e-06
2.71557e-06
9.95678e-07
2.66168e-06
8.73309e-07
2.62689e-06
7.73024e-07
2.60852e-06
6.9073e-07
2.6028e-06
6.22535e-07
2.60807e-06
5.67877e-07
2.62658e-06
5.19917e-07
2.65512e-06
4.76852e-07
2.70193e-06
4.39092e-07
2.75059e-06
4.04087e-07
2.80778e-06
3.62594e-07
2.87287e-06
3.14296e-07
2.94087e-06
2.65361e-07
3.00967e-06
2.15459e-07
3.0756e-06
1.47034e-07
3.12284e-06
4.63275e-08
4.6163e-08
1.57855e-06
2.72544e-08
1.5739e-06
3.84908e-08
1.58603e-06
4.3771e-09
1.58255e-06
2.22179e-08
1.58767e-06
7.46718e-09
1.41682e-08
1.34495e-06
6.78413e-08
1.33616e-06
1.38286e-07
1.32401e-06
2.29558e-07
1.30789e-06
3.53429e-07
1.28888e-06
5.11841e-07
1.27033e-06
6.9425e-07
1.25056e-06
8.88548e-07
1.2336e-06
1.09118e-06
1.22153e-06
1.30031e-06
1.22e-06
1.52517e-06
1.23466e-06
1.78771e-06
1.29366e-06
2.12859e-06
1.38781e-06
2.47287e-06
1.46164e-06
2.74518e-06
1.46806e-06
2.88011e-06
1.3786e-06
2.87262e-06
1.22181e-06
2.79889e-06
1.06108e-06
2.731e-06
9.26418e-07
2.68268e-06
8.1748e-07
2.65256e-06
7.29018e-07
2.63595e-06
6.57604e-07
2.63176e-06
5.98919e-07
2.64144e-06
5.53069e-07
2.66303e-06
5.12055e-07
2.70254e-06
4.76274e-07
2.74857e-06
4.41153e-07
2.80312e-06
4.08764e-07
2.8679e-06
3.67643e-07
2.93905e-06
3.1613e-07
3.01224e-06
2.62777e-07
3.08386e-06
9.66003e-08
1.10562e-07
1.56677e-06
6.35472e-08
1.5714e-06
6.81063e-08
1.57886e-06
4.13472e-08
1.57987e-06
4.51301e-08
1.58678e-06
3.4246e-08
1.59326e-06
3.02997e-09
1.5945e-06
1.5367e-08
1.59535e-06
5.36828e-09
1.12252e-08
1.35536e-06
5.84325e-08
1.35441e-06
1.25304e-07
1.34919e-06
2.14509e-07
1.33911e-06
3.36226e-07
1.32513e-06
4.92e-07
1.30874e-06
6.73833e-07
1.29078e-06
8.66776e-07
1.27242e-06
1.06766e-06
1.25721e-06
1.27276e-06
1.24917e-06
1.49142e-06
1.25383e-06
1.73346e-06
1.28906e-06
2.04832e-06
1.37395e-06
2.40269e-06
1.4581e-06
2.71277e-06
1.49414e-06
2.90833e-06
1.4399e-06
2.95169e-06
1.29952e-06
2.89009e-06
1.13059e-06
2.80971e-06
9.82376e-07
2.74688e-06
8.62281e-07
2.70378e-06
7.66193e-07
2.6749e-06
6.90058e-07
2.6604e-06
6.28988e-07
2.65959e-06
5.80782e-07
2.67272e-06
5.4348e-07
2.70323e-06
5.1142e-07
2.74613e-06
4.78772e-07
2.79731e-06
4.47037e-07
2.85995e-06
4.16767e-07
2.93186e-06
3.74879e-07
3.01066e-06
3.17729e-07
3.09003e-06
1.24983e-07
1.31604e-07
1.56949e-06
9.38673e-08
1.5691e-06
1.10933e-07
1.58955e-06
5.38399e-08
1.57873e-06
8.65328e-08
1.59363e-06
6.40074e-08
1.59143e-06
3.66786e-08
1.59824e-06
3.82984e-08
1.60326e-06
2.5465e-08
1.59902e-06
2.78691e-09
1.60112e-06
9.57946e-09
1.60154e-06
2.83383e-09
7.5698e-09
1.35823e-06
4.69576e-08
1.36686e-06
1.09258e-07
1.37045e-06
1.95632e-07
1.36806e-06
3.15101e-07
1.36032e-06
4.69995e-07
1.34715e-06
6.50727e-07
1.33188e-06
8.43618e-07
1.314e-06
1.0428e-06
1.29739e-06
1.24606e-06
1.28404e-06
1.45953e-06
1.28125e-06
1.69035e-06
1.29715e-06
1.97393e-06
1.36362e-06
2.32621e-06
1.45059e-06
2.66319e-06
1.50778e-06
2.91378e-06
1.48874e-06
3.01697e-06
1.37463e-06
2.98445e-06
1.20514e-06
2.89866e-06
1.04164e-06
2.82132e-06
9.07891e-07
2.76356e-06
8.02381e-07
2.72179e-06
7.19334e-07
2.6949e-06
6.55565e-07
2.68219e-06
6.06472e-07
2.68496e-06
5.68612e-07
2.70486e-06
5.41912e-07
2.74405e-06
5.13549e-07
2.78998e-06
4.86167e-07
2.84855e-06
4.58503e-07
2.92031e-06
4.28381e-07
3.00195e-06
3.83622e-07
3.09088e-06
1.5192e-07
1.64966e-07
1.57381e-06
1.20254e-07
1.57324e-06
1.32166e-07
1.58436e-06
1.05284e-07
1.60657e-06
4.54783e-08
1.601e-06
7.91348e-08
1.61514e-06
5.54109e-08
1.60676e-06
3.31589e-08
1.61368e-06
3.13398e-08
1.6102e-06
1.63607e-08
1.60326e-06
4.02456e-09
1.60757e-06
3.5309e-09
1.6057e-06
3.84136e-10
2.77441e-09
1.35224e-06
3.27928e-08
1.37242e-06
8.9918e-08
1.38624e-06
1.72867e-07
1.39323e-06
2.90244e-07
1.39299e-06
4.44457e-07
1.38584e-06
6.23654e-07
1.37423e-06
8.17239e-07
1.3583e-06
1.01587e-06
1.341e-06
1.21885e-06
1.32472e-06
1.42823e-06
1.31552e-06
1.65319e-06
1.31848e-06
1.91119e-06
1.36015e-06
2.24702e-06
1.443e-06
2.60074e-06
1.51323e-06
2.89678e-06
1.52486e-06
3.06298e-06
1.44276e-06
3.07666e-06
1.28242e-06
2.99733e-06
1.10643e-06
2.90642e-06
9.56528e-07
2.83332e-06
8.38279e-07
2.77734e-06
7.4686e-07
2.73641e-06
6.77837e-07
2.71045e-06
6.27346e-07
2.7005e-06
5.90908e-07
2.70805e-06
5.65485e-07
2.74144e-06
5.44588e-07
2.78181e-06
5.2178e-07
2.83516e-06
4.99619e-07
2.90393e-06
4.74944e-07
2.98657e-06
4.43824e-07
3.08067e-06
1.88219e-07
2.05648e-07
1.5759e-06
1.49262e-07
1.57321e-06
1.67655e-07
1.58989e-06
1.14718e-07
1.59379e-06
1.28252e-07
1.60769e-06
9.8579e-08
1.6234e-06
3.57291e-08
1.6239e-06
7.03452e-08
1.6342e-06
4.45768e-08
1.61818e-06
2.51498e-08
1.62755e-06
2.19351e-08
1.61781e-06
6.08807e-09
1.60558e-06
6.681e-09
1.61308e-06
-3.86896e-09
1.60749e-06
-1.54251e-09
-3.4352e-09
1.33677e-06
1.63831e-08
1.36864e-06
6.74995e-08
1.39487e-06
1.46259e-07
1.4129e-06
2.61079e-07
1.42246e-06
4.13782e-07
1.42371e-06
5.91955e-07
1.41756e-06
7.86682e-07
1.40488e-06
9.8602e-07
1.38821e-06
1.18943e-06
1.37054e-06
1.39709e-06
1.35601e-06
1.61874e-06
1.35017e-06
1.8614e-06
1.36848e-06
2.16881e-06
1.43852e-06
2.52979e-06
1.51416e-06
2.86006e-06
1.55007e-06
3.08661e-06
1.50128e-06
3.1587e-06
1.36075e-06
3.10248e-06
1.17734e-06
3.00342e-06
1.00942e-06
2.91466e-06
8.75185e-07
2.84349e-06
7.72058e-07
2.78729e-06
6.96044e-07
2.7459e-06
6.42381e-07
2.72076e-06
6.07129e-07
2.71554e-06
5.83476e-07
2.73853e-06
5.68459e-07
2.77248e-06
5.5398e-07
2.82126e-06
5.35755e-07
2.88498e-06
5.1865e-07
2.96432e-06
4.97258e-07
3.05729e-06
2.25974e-07
2.41284e-07
1.57177e-06
1.89662e-07
1.56855e-06
2.08885e-07
1.59631e-06
1.46748e-07
1.59664e-06
1.67326e-07
1.6136e-06
1.08787e-07
1.61806e-06
1.23779e-07
1.63231e-06
9.01485e-08
1.63932e-06
2.39139e-08
1.64526e-06
5.92573e-08
1.65249e-06
3.13676e-08
1.63001e-06
1.2922e-08
1.64102e-06
1.08762e-08
1.62585e-06
-6.71815e-09
1.60392e-06
6.66122e-09
1.61531e-06
-1.17164e-08
1.60625e-06
-3.88347e-09
-1.07656e-08
1.30186e-06
-5.08645e-11
1.35323e-06
4.05851e-08
1.39561e-06
1.1452e-07
1.42663e-06
2.26915e-07
1.44708e-06
3.77834e-07
1.45837e-06
5.55694e-07
1.45997e-06
7.5128e-07
1.45304e-06
9.52209e-07
1.43877e-06
1.15691e-06
1.42084e-06
1.36523e-06
1.40254e-06
1.58449e-06
1.39035e-06
1.82032e-06
1.39142e-06
2.09776e-06
1.43985e-06
2.45333e-06
1.51508e-06
2.80759e-06
1.56674e-06
3.08722e-06
1.54954e-06
3.22408e-06
1.43591e-06
3.20903e-06
1.25424e-06
3.11175e-06
1.06897e-06
3.00908e-06
9.14979e-07
2.92145e-06
7.97239e-07
2.84914e-06
7.10192e-07
2.79072e-06
6.51208e-07
2.74794e-06
6.15225e-07
2.72675e-06
5.95959e-07
2.73525e-06
5.86822e-07
2.76278e-06
5.78232e-07
2.80548e-06
5.69819e-07
2.86475e-06
5.56053e-07
2.93999e-06
5.4306e-07
3.02795e-06
2.5571e-07
2.70959e-07
1.56459e-06
2.29938e-07
1.5574e-06
2.48493e-07
1.59528e-06
1.91022e-07
1.59222e-06
2.11951e-07
1.62133e-06
1.43471e-07
1.62266e-06
1.65997e-07
1.63917e-06
1.01901e-07
1.64517e-06
1.17767e-07
1.65676e-06
7.86168e-08
1.65481e-06
1.00852e-08
1.66774e-06
4.39735e-08
1.67086e-06
1.52738e-08
1.64238e-06
-3.65116e-09
1.65393e-06
-7.14854e-10
1.62776e-06
-1.92063e-08
1.60079e-06
3.44075e-09
1.61443e-06
-1.99225e-08
1.60257e-06
-5.67951e-09
-1.7793e-08
1.25422e-06
-2.21888e-08
1.32402e-06
1.07655e-08
1.38309e-06
7.813e-08
1.43204e-06
1.87362e-07
1.46625e-06
3.35683e-07
1.48927e-06
5.13003e-07
1.50116e-06
7.09774e-07
1.50158e-06
9.13515e-07
1.49181e-06
1.12039e-06
1.47541e-06
1.33081e-06
1.45538e-06
1.54901e-06
1.43814e-06
1.78243e-06
1.42854e-06
2.03844e-06
1.45096e-06
2.37471e-06
1.51866e-06
2.74361e-06
1.57919e-06
3.06598e-06
1.5881e-06
3.26812e-06
1.50555e-06
3.30927e-06
1.33571e-06
3.22992e-06
1.13605e-06
3.11723e-06
9.60814e-07
3.01332e-06
8.2314e-07
2.92436e-06
7.21984e-07
2.84695e-06
6.53992e-07
2.78404e-06
6.15147e-07
2.7433e-06
5.98725e-07
2.73401e-06
5.9726e-07
2.75267e-06
5.97005e-07
2.78861e-06
5.95175e-07
2.84329e-06
5.91344e-07
2.91165e-06
5.84466e-07
2.99334e-06
2.81993e-07
2.95758e-07
1.54898e-06
2.64147e-07
1.53994e-06
2.80015e-07
1.58692e-06
2.35248e-07
1.57906e-06
2.5637e-07
1.62166e-06
1.92022e-07
1.61873e-06
2.14887e-07
1.64969e-06
1.38939e-07
1.65176e-06
1.63927e-07
1.66515e-06
9.34871e-08
1.67298e-06
1.09923e-07
1.68397e-06
6.23531e-08
1.6698e-06
-5.83807e-09
1.68899e-06
2.57985e-08
1.69004e-06
-5.01355e-09
1.64476e-06
-2.06921e-08
1.66235e-06
-1.83594e-08
1.62757e-06
-3.23896e-08
1.58815e-06
7.69268e-10
1.60991e-06
-2.7295e-08
1.59258e-06
-1.01274e-08
-2.55193e-08
1.18932e-06
-4.60638e-08
1.27812e-06
-2.39446e-08
1.35877e-06
3.65493e-08
1.4247e-06
1.42192e-07
1.47723e-06
2.86702e-07
1.51524e-06
4.62532e-07
1.53976e-06
6.60647e-07
1.55026e-06
8.68136e-07
1.54702e-06
1.07805e-06
1.53421e-06
1.29196e-06
1.51441e-06
1.51089e-06
1.49372e-06
1.74357e-06
1.47716e-06
1.98985e-06
1.47726e-06
2.29756e-06
1.52832e-06
2.67124e-06
1.59119e-06
3.02596e-06
1.61932e-06
3.28806e-06
1.56821e-06
3.39569e-06
1.41915e-06
3.35281e-06
1.21269e-06
3.23934e-06
1.01398e-06
3.12126e-06
8.52898e-07
3.01437e-06
7.33129e-07
2.91714e-06
6.51777e-07
2.83175e-06
6.06326e-07
2.76752e-06
5.90978e-07
2.73553e-06
5.97263e-07
2.74147e-06
6.08527e-07
2.76984e-06
6.1585e-07
2.81892e-06
6.19607e-07
2.88638e-06
6.16688e-07
2.95923e-06
3.03897e-07
3.14761e-07
1.52868e-06
2.93269e-07
1.51941e-06
3.05046e-07
1.56934e-06
2.73885e-07
1.55839e-06
2.90982e-07
1.61274e-06
2.41241e-07
1.60459e-06
2.64531e-07
1.65192e-06
1.91862e-07
1.64903e-06
2.17776e-07
1.67954e-06
1.32364e-07
1.68375e-06
1.59708e-07
1.69392e-06
8.35073e-08
1.70347e-06
1.0036e-07
1.70784e-06
4.34681e-08
1.6836e-06
-2.71428e-08
1.71135e-06
4.44257e-09
1.70788e-06
-2.93564e-08
1.64664e-06
-3.98164e-08
1.67069e-06
-4.24735e-08
1.62454e-06
-4.70685e-08
1.57398e-06
-1.3751e-09
1.60074e-06
-3.54959e-08
1.58054e-06
-1.67062e-08
-3.36684e-08
1.10406e-06
-7.13008e-08
1.21459e-06
-6.26459e-08
1.31686e-06
-1.01883e-08
1.40554e-06
9.00743e-08
1.47685e-06
2.30359e-07
1.53361e-06
4.03784e-07
1.57401e-06
6.01686e-07
1.59876e-06
8.13811e-07
1.60471e-06
1.02832e-06
1.59682e-06
1.24676e-06
1.57953e-06
1.46876e-06
1.55667e-06
1.70202e-06
1.53546e-06
1.94689e-06
1.52037e-06
2.22792e-06
1.54725e-06
2.593e-06
1.60677e-06
2.97032e-06
1.64697e-06
3.28403e-06
1.62349e-06
3.46191e-06
1.50202e-06
3.47351e-06
1.29859e-06
3.37341e-06
1.07853e-06
3.24474e-06
8.90486e-07
3.1214e-06
7.4583e-07
3.00439e-06
6.45963e-07
2.89538e-06
5.88209e-07
2.80416e-06
5.69753e-07
2.74314e-06
5.83432e-07
2.72928e-06
6.09525e-07
2.74708e-06
6.31351e-07
2.7906e-06
6.44228e-07
2.85651e-06
6.49527e-07
2.93392e-06
3.18372e-07
3.23713e-07
1.50765e-06
3.15671e-07
1.49903e-06
3.23402e-07
1.54639e-06
3.05279e-07
1.53307e-06
3.18378e-07
1.59368e-06
2.84799e-07
1.57977e-06
3.04896e-07
1.6435e-06
2.46769e-07
1.63322e-06
2.74801e-07
1.6855e-06
1.90101e-07
1.68304e-06
2.20217e-07
1.71277e-06
1.23035e-07
1.72025e-06
1.52204e-07
1.72283e-06
6.8484e-08
1.73824e-06
8.49107e-08
1.73379e-06
2.09736e-08
1.69597e-06
-5.24844e-08
1.73522e-06
-2.29614e-08
1.72596e-06
-5.94209e-08
1.64713e-06
-6.247e-08
1.67728e-06
-7.26934e-08
1.61475e-06
-6.11322e-08
1.55777e-06
-2.29746e-09
1.58634e-06
-4.13461e-08
1.55998e-06
-1.89401e-08
-4.15799e-08
9.965e-07
-9.64515e-08
1.12924e-06
-1.03097e-07
1.25507e-06
-6.19749e-08
1.36868e-06
3.04765e-08
1.46516e-06
1.6332e-07
1.5439e-06
3.35151e-07
1.60225e-06
5.3176e-07
1.64396e-06
7.48485e-07
1.66413e-06
9.69487e-07
1.66363e-06
1.19316e-06
1.65055e-06
1.42109e-06
1.62732e-06
1.65585e-06
1.60302e-06
1.90345e-06
1.5791e-06
2.16839e-06
1.58014e-06
2.51188e-06
1.62862e-06
2.90275e-06
1.67449e-06
3.25775e-06
1.6734e-06
3.50346e-06
1.58196e-06
3.58327e-06
1.39232e-06
3.51561e-06
1.15642e-06
3.38497e-06
9.38184e-07
3.24796e-06
7.63826e-07
3.11238e-06
6.37827e-07
2.97898e-06
5.62408e-07
2.85805e-06
5.34399e-07
2.76427e-06
5.48718e-07
2.72025e-06
5.92544e-07
2.71888e-06
6.37806e-07
2.75715e-06
6.64874e-07
2.82236e-06
6.78434e-07
2.89759e-06
3.36769e-07
3.49132e-07
1.48919e-06
3.28216e-07
1.485e-06
3.27907e-07
1.52343e-06
3.25309e-07
1.51786e-06
3.2896e-07
1.56802e-06
3.17017e-07
1.56283e-06
3.23524e-07
1.62232e-06
2.95663e-07
1.61939e-06
3.07754e-07
1.67661e-06
2.53158e-07
1.67757e-06
2.73724e-07
1.72168e-06
1.88622e-07
1.72736e-06
2.14411e-07
1.75027e-06
1.10957e-07
1.76121e-06
1.41142e-07
1.75591e-06
4.63074e-08
1.77375e-06
6.69787e-08
1.7626e-06
-6.48081e-09
1.70699e-06
-8.2282e-08
1.75723e-06
-5.43502e-08
1.73933e-06
-9.18985e-08
1.6389e-06
-8.66941e-08
1.6729e-06
-1.06786e-07
1.59989e-06
-7.47456e-08
1.54148e-06
1.57399e-09
1.56411e-06
-4.55328e-08
1.53293e-06
-1.04175e-08
-4.7698e-08
8.65471e-07
-1.17952e-07
1.01803e-06
-1.41631e-07
1.16781e-06
-1.1693e-07
1.31007e-06
-3.73101e-08
1.43649e-06
8.51332e-08
1.54338e-06
2.54363e-07
1.62472e-06
4.5094e-07
1.68311e-06
6.70801e-07
1.72166e-06
9.01385e-07
1.73232e-06
1.1314e-06
1.72549e-06
1.36676e-06
1.70502e-06
1.60526e-06
1.67809e-06
1.85676e-06
1.64991e-06
2.117e-06
1.63072e-06
2.43311e-06
1.65919e-06
2.82664e-06
1.70492e-06
3.21279e-06
1.71959e-06
3.51923e-06
1.65769e-06
3.67436e-06
1.49088e-06
3.65895e-06
1.24889e-06
3.54104e-06
1.00034e-06
3.39521e-06
7.90891e-07
3.24391e-06
6.32234e-07
3.0876e-06
5.29209e-07
2.93497e-06
4.85538e-07
2.80239e-06
4.9637e-07
2.71687e-06
5.52191e-07
2.68733e-06
6.24183e-07
2.71536e-06
6.79677e-07
2.77872e-06
7.08574e-07
2.89409e-06
6.81933e-07
1.48738e-06
3.34373e-07
1.51057e-06
3.2598e-07
1.51799e-06
3.28045e-07
1.52735e-06
3.18449e-07
1.56571e-06
3.22315e-07
1.57889e-06
3.15522e-07
1.62738e-06
3.08818e-07
1.65141e-06
2.99015e-07
1.69274e-06
2.80191e-07
1.7317e-06
2.68081e-07
1.74869e-06
2.31501e-07
1.80217e-06
2.19364e-07
1.78623e-06
1.63291e-07
1.84679e-06
1.52977e-07
1.8e-06
8.44527e-08
1.85789e-06
8.25482e-08
1.79032e-06
1.84064e-08
1.83907e-06
1.77541e-08
1.79685e-06
-4.63709e-08
1.70849e-06
-1.18029e-07
1.78983e-06
-1.05221e-07
1.76466e-06
-1.48526e-07
1.62554e-06
-1.12433e-07
1.65951e-06
-1.40913e-07
1.57629e-06
-8.70006e-08
1.52755e-06
1.47806e-08
1.52993e-06
-4.25961e-08
1.50634e-06
1.07671e-08
-4.81019e-08
7.0866e-07
-1.2903e-07
8.76584e-07
-1.71429e-07
1.04787e-06
-1.70041e-07
1.22097e-06
-1.10371e-07
1.38317e-06
-1.62266e-09
1.52328e-06
1.62641e-07
1.63511e-06
3.59106e-07
1.71659e-06
5.83674e-07
1.77026e-06
8.26342e-07
1.79676e-06
1.06532e-06
1.7985e-06
1.30875e-06
1.78362e-06
1.5541e-06
1.75633e-06
1.80891e-06
1.72612e-06
2.072e-06
1.69511e-06
2.36493e-06
1.69912e-06
2.74633e-06
1.73971e-06
3.15411e-06
1.76377e-06
3.51129e-06
1.72762e-06
3.74047e-06
1.59162e-06
3.79409e-06
1.35581e-06
3.70694e-06
1.08298e-06
3.5614e-06
8.34337e-07
3.40061e-06
6.34195e-07
3.22583e-06
4.93944e-07
3.04346e-06
4.20741e-07
2.86808e-06
4.19927e-07
2.72878e-06
4.84582e-07
2.65432e-06
5.85303e-07
2.66188e-06
6.77762e-07
2.71974e-06
7.38708e-07
2.92571e-06
6.76821e-07
-1.57382e-06
3.26777e-06
2.76836e-07
2.20357e-07
1.54524e-06
3.16306e-07
2.97001e-07
1.60806e-06
2.98446e-07
1.66294e-06
2.62775e-07
1.70055e-06
2.72197e-07