/*--------------------------------*- C++ -*----------------------------------*\
  =========                 |
  \\      /  F ield         | OpenFOAM: The Open Source CFD Toolbox
   \\    /   O peration     | Website:  https://openfoam.org
    \\  /    A nd           | Version:  dev
     \\/     M anipulation  |
\*---------------------------------------------------------------------------*/
FoamFile
{
    version     2.0;
    format      ascii;
    class       volScalarField;
    location    "2500";
    object      qr;
}
// * * * * * * * * * * * * * * * * * * * * * * * * * * * * * * * * * * * * * //

dimensions      [1 0 -3 0 0 0 0];

internalField   uniform 0;

boundaryField
{
    lowerOutlet
    {
        type            calculated;
        value           nonuniform List<scalar> 
140
(
1116.62
1120.32
1124.44
1128.96
1133.88
1139.21
1144.97
1151.15
1157.79
1164.89
1172.48
1180.57
1189.2
1198.39
1208.18
1218.6
1229.69
1241.52
1254.12
1267.57
1281.95
1297.33
1313.81
1331.52
1350.61
1371.25
1393.6
1417.87
1444.33
1473.31
1505.2
1540.5
1579.89
1624.35
1661.89
1716.53
1779.41
1852.51
1938.32
2040.57
2165.27
2323.75
2529.85
3007.24
3613.9
4216.36
4877.83
6330.63
-6534.01
3371.56
2916.22
2604.64
2348.95
2177.65
2042.44
1932.9
1842.79
1767.47
1703.32
1647.94
1599.68
1557.25
1510.17
1477.05
1447.29
1420.26
1395.56
1372.87
1351.94
1332.55
1314.55
1297.78
1282.13
1267.51
1253.8
1240.92
1228.8
1217.38
1206.61
1196.45
1186.85
1177.79
1169.23
1161.15
1153.52
1146.31
1139.52
1133.13
1127.11
1121.47
1116.18
1111.25
1106.66
1102.4
1098.47
1094.9
1987.08
2099.61
2239.14
2424.29
2766.88
3216.85
4040.87
4767.32
6051.52
5107.31
3524.74
3012.64
2673.02
2426.65
2257.89
2106.29
1984.96
1885.7
1803.55
1734.16
1893.64
3743.31
4402.3
5399.99
6572.75
3910.49
3237.74
2827.95
2541.13
1674.64
3883.32
4585.34
5750.22
6782.25
3702.55
3119.05
2747.13
2481.91
1688.29
1746.83
1814.55
1623.01
1577.82
1537.86
)
;
    }
    top
    {
        type            calculated;
        value           nonuniform List<scalar> 
100
(
1015.33
1018.24
1021.19
1024.09
1026.94
1029.73
1032.45
1035.09
1037.65
1040.1
1042.45
1044.68
1046.79
1048.81
1050.81
1014.93
1017.42
1023.48
1029.83
1027.88
1013.15
990.658
968.677
952.52
944.503
941.907
941.642
941.737
940.728
938.633
935.993
933.995
933.825
939.882
954.98
980.803
1009.43
1037.32
1058.7
1070.96
1076.91
1080.03
1082.06
1083.75
1085.24
1086.56
1087.71
1088.76
1089.69
1090.5
1091.09
1091.58
1091.98
1092.28
1092.5
1092.64
1092.68
1092.62
1092.41
1092.05
1091.53
1090.85
1090.05
1089.22
1088.4
1087.6
1086.84
1086
1085.33
1084.92
1084.38
1083.78
1082.98
1081.72
1080.03
1078.14
1076.11
1073.83
1071.32
1068.54
1065.48
1062.19
1058.65
1054.96
1051.25
1047.57
1044.03
1040.61
1037.36
1034.35
1031.53
1028.93
1026.53
1024.31
1022.33
1021.11
1026.71
1023.65
1020.6
1017.62
)
;
    }
    sides
    {
        type            calculated;
        value           nonuniform List<scalar> 
100
(
1116.64
1119.6
1122.2
1124.41
1126.25
1127.72
1128.83
1129.59
1130.01
1130.1
1129.87
1129.33
1128.5
1127.4
1126.03
1124.41
1122.57
1120.51
1118.25
1115.81
1113.2
1110.44
1107.54
1104.51
1101.38
1098.15
1094.83
1091.45
1088
1084.51
1080.97
1077.4
1073.81
1070.21
1066.6
1062.99
1059.39
1055.79
1052.22
1048.67
1045.15
1041.65
1038.2
1034.78
1031.41
1028.09
1024.81
1021.59
1018.43
1015.37
1094.92
1097.88
1100.53
1102.87
1104.9
1106.62
1108.04
1109.16
1109.99
1110.54
1110.82
1110.84
1110.6
1110.13
1109.42
1108.49
1107.35
1106.02
1104.5
1102.82
1100.97
1098.97
1096.83
1094.57
1092.19
1089.71
1087.13
1084.46
1081.72
1078.91
1076.04
1073.11
1070.15
1067.14
1064.1
1061.04
1057.95
1054.85
1051.74
1048.62
1045.49
1042.37
1039.25
1036.13
1033.02
1029.9
1026.79
1023.71
1020.64
1017.64
)
;
    }
    front
    {
        type            empty;
    }
    back
    {
        type            empty;
    }
    roller
    {
        type            calculated;
        value           nonuniform List<scalar> 
144
(
5230.82
3696.88
2050.55
2459.25
1673.04
1440.84
1432.23
1217.53
1222.07
1223.97
3854.38
4924.83
4017.27
3052.38
2206.28
1807.43
1460.73
1315.02
1313.3
1260.83
1267.22
1216.45
1215.44
1227.8
1229.56
7790.17
7961.63
8049.15
7905.98
7052.23
3398.59
3388.5
2508.79
2366.02
1642.79
1427.1
1408.34
1348.98
1334.72
1300.28
1227.56
1218.86
1222.62
7570.72
8103.86
8071
7393.59
7683.02
4398.42
4629.39
3606.47
3191.35
2661.95
2272.12
1764.67
1484.2
1370.17
1383.43
1326.5
1271.41
1251.95
1260.12
1215.12
1226.53
1240.51
2928.9
2146.86
1571.47
1498.74
1544.15
1251.51
1245.5
6312.34
5921.98
6604.35
5685.95
5303.56
4070.91
2704.69
2888.96
2125.44
2213.17
1697.38
1941.8
1591.89
1888.77
1741.61
1515.3
1697.93
1585.9
1456.66
1407.86
1395.27
1241.07
1233.75
1216.33
1215.27
1221.26
1223.4
1225.09
5569.62
4811.81
2348.22
1964.55
2559.14
2072.98
1551.88
1483.5
1508.79
1387.83
1338.37
1287.49
1299.98
1275.64
1222.76
6880.33
7232.58
6552.03
6059.76
4295.93
3086.03
2776.01
1853.9
1905.81
1724.77
1997.04
1613.23
1837.6
1788.49
1533.12
1657.48
1620.2
1469.51
1417.43
1355.23
1360.51
1371.85
1324.28
1285.78
1218.85
1220.17
1223.01
1236.19
1232.6
)
;
    }
    burner
    {
        type            calculated;
        value           nonuniform List<scalar> 
16
(
-124309
-117493
-114795
-116528
-118775
-115116
-115532
-123917
-122280
-116467
-114732
-118076
-120349
-115676
-114960
-120392
)
;
    }
}


// ************************************************************************* //
