/*--------------------------------*- C++ -*----------------------------------*\
  =========                 |
  \\      /  F ield         | OpenFOAM: The Open Source CFD Toolbox
   \\    /   O peration     | Website:  https://openfoam.org
    \\  /    A nd           | Version:  dev
     \\/     M anipulation  |
\*---------------------------------------------------------------------------*/
FoamFile
{
    version     2.0;
    format      ascii;
    class       volScalarField;
    location    "2500";
    object      rAU;
}
// * * * * * * * * * * * * * * * * * * * * * * * * * * * * * * * * * * * * * //

dimensions      [-1 3 1 0 0 0 0];

internalField   nonuniform List<scalar> 
9978
(
0.00821347
0.00828099
0.00823401
0.00826547
0.00839564
0.0081689
0.00823878
0.00838954
0.00840015
0.00811412
0.00821658
0.00838875
0.00838432
0.00841287
0.00806188
0.00819995
0.00839436
0.00837669
0.0083944
0.00842257
0.00801416
0.00818548
0.0084043
0.00837739
0.00837943
0.00840957
0.00842714
0.00797025
0.00817146
0.00841431
0.00838341
0.00837125
0.00839351
0.00842059
0.00842968
0.00792977
0.00815704
0.00842103
0.00839417
0.0083677
0.00837939
0.00840934
0.00842612
0.00843115
0.00789246
0.00814386
0.00842411
0.0084074
0.00836988
0.0083695
0.00839618
0.00841993
0.00842926
0.00843199
0.00785751
0.00813374
0.00842436
0.00841697
0.00837699
0.00836389
0.00838245
0.00841148
0.00842572
0.008431
0.00843242
0.00782473
0.00812758
0.00842528
0.00842463
0.0083894
0.0083625
0.00837086
0.00840006
0.00842091
0.00842904
0.00843246
0.0084327
0.00779395
0.00812243
0.00842793
0.00842936
0.0084029
0.00836579
0.00836354
0.00838707
0.00841392
0.00842616
0.00843096
0.00843347
0.00843288
0.0077648
0.00811499
0.00843082
0.00843296
0.00841439
0.0083736
0.00835974
0.00837477
0.00840452
0.00842236
0.00842908
0.00843257
0.00843404
0.0084329
0.0077372
0.00810566
0.00843165
0.00843455
0.00842176
0.00838609
0.0083596
0.00836522
0.0083931
0.00841692
0.00842676
0.00843131
0.00843382
0.0084346
0.00843277
0.00771081
0.00809691
0.00843077
0.00843563
0.00842791
0.00840039
0.00836328
0.00835991
0.00838017
0.00840941
0.00842364
0.00842945
0.00843285
0.00843467
0.00843486
0.00843278
0.0076856
0.00808955
0.00843001
0.00843669
0.00843152
0.00841157
0.00837192
0.00835665
0.00836905
0.00839903
0.00841984
0.00842749
0.00843151
0.00843411
0.00843543
0.00843514
0.0084326
0.00766133
0.00808266
0.00843028
0.00843702
0.00843312
0.00841986
0.0083849
0.00835722
0.00836076
0.00838669
0.00841366
0.0084253
0.00842989
0.00843301
0.00843511
0.00843591
0.00843533
0.0084326
0.00763793
0.00807737
0.00843128
0.00843708
0.00843419
0.00842483
0.00839925
0.00836247
0.00835648
0.00837385
0.00840469
0.00842283
0.00842865
0.00843184
0.00843416
0.00843594
0.00843626
0.00843548
0.0084325
0.00761531
0.00807098
0.00843425
0.00843758
0.00843479
0.0084282
0.00841104
0.00837281
0.00835453
0.00836348
0.00839261
0.00841794
0.00842762
0.00843094
0.00843323
0.00843515
0.00843667
0.00843658
0.0084356
0.00843227
0.0075933
0.00806208
0.00843582
0.00843767
0.00843549
0.00843034
0.00841828
0.00838683
0.00835673
0.00835685
0.00837891
0.00840917
0.00842567
0.00843036
0.00843267
0.00843416
0.00843595
0.00843717
0.00843679
0.00843583
0.0084321
0.00757182
0.00805358
0.00843546
0.00843776
0.00843638
0.0084315
0.00842344
0.0084006
0.00836331
0.00835377
0.00836691
0.00839712
0.00842075
0.00842951
0.0084323
0.00843397
0.00843516
0.00843671
0.00843761
0.00843714
0.00843602
0.00843193
0.00755087
0.00804406
0.00843591
0.00843768
0.00843667
0.00843248
0.00842684
0.0084117
0.00837519
0.00835317
0.00835851
0.0083843
0.00841247
0.00842706
0.00843184
0.00843391
0.00843497
0.00843603
0.00843734
0.00843793
0.00843747
0.00843606
0.00843167
0.00753022
0.00803388
0.00843563
0.00843784
0.00843723
0.00843369
0.00842835
0.00841904
0.0083901
0.0083563
0.00835339
0.00837139
0.00840179
0.00842263
0.00843044
0.00843368
0.00843504
0.00843583
0.00843676
0.0084378
0.00843828
0.00843775
0.00843615
0.00843139
0.00750992
0.00802316
0.00843546
0.0084379
0.00843709
0.00843436
0.00842978
0.00842391
0.00840369
0.00836468
0.00835035
0.00836071
0.00838976
0.00841546
0.00842817
0.0084326
0.00843542
0.00843623
0.00843654
0.00843742
0.00843816
0.00843871
0.008438
0.0084361
0.00843122
0.00749076
0.008012
0.00843513
0.00843773
0.00843749
0.00843472
0.00843114
0.00842674
0.00841391
0.00837883
0.00835111
0.00835299
0.00837607
0.00840637
0.00842425
0.00843107
0.00843428
0.0084365
0.00843718
0.00843732
0.00843796
0.00843851
0.0084391
0.00843816
0.00843614
0.00843127
0.007472
0.00800029
0.00843491
0.00843766
0.00843771
0.00843503
0.00843233
0.00842838
0.00842023
0.00839422
0.00835628
0.00834879
0.00836317
0.00839436
0.00841859
0.00842896
0.00843276
0.00843573
0.00843767
0.0084379
0.00843799
0.00843839
0.00843886
0.00843946
0.0084384
0.00843647
0.00843131
0.00745321
0.00798846
0.00843475
0.00843759
0.00843741
0.00843563
0.00843309
0.00842981
0.00842458
0.00840703
0.00836714
0.00834691
0.00835338
0.00838057
0.00841
0.00842615
0.00843147
0.00843416
0.00843666
0.00843863
0.00843856
0.00843862
0.00843872
0.00843923
0.00843974
0.00843874
0.0084365
0.00843131
0.00743454
0.00797654
0.00843475
0.0084379
0.00843782
0.00843605
0.00843348
0.00843083
0.0084271
0.00841602
0.00838263
0.00834894
0.0083473
0.00836606
0.00839851
0.00842133
0.00842992
0.00843303
0.00843555
0.00843793
0.00843927
0.00843944
0.00843913
0.00843905
0.00843956
0.00844027
0.00843877
0.00843663
0.0084313
0.00741599
0.00796452
0.00843445
0.00843795
0.00843797
0.0084364
0.00843423
0.0084318
0.00842875
0.00842155
0.00839779
0.00835652
0.00834337
0.00835457
0.00838465
0.00841322
0.00842818
0.00843218
0.0084345
0.00843657
0.00843893
0.00844022
0.00844019
0.00843955
0.00843932
0.00844012
0.00844055
0.00843874
0.00843676
0.00843131
0.00739761
0.00795272
0.00843436
0.00843804
0.00843779
0.00843659
0.00843466
0.00843267
0.00842989
0.0084251
0.00840931
0.00836957
0.0083432
0.00834601
0.0083702
0.0084023
0.00842343
0.00843164
0.00843362
0.00843557
0.00843784
0.00843966
0.00844105
0.00844084
0.00843983
0.00843976
0.00844053
0.00844062
0.0084385
0.00843699
0.00843134
0.00737937
0.00794123
0.00843421
0.00843805
0.00843784
0.00843677
0.00843472
0.00843331
0.00843098
0.00842695
0.00841699
0.00838589
0.00834706
0.00834127
0.0083565
0.00838873
0.00841592
0.00842955
0.00843356
0.00843467
0.00843672
0.00843838
0.00844051
0.00844195
0.00844141
0.00844032
0.00844024
0.00844079
0.00844048
0.00843812
0.00843706
0.00843135
0.00736016
0.00793037
0.00843407
0.00843803
0.00843793
0.0084371
0.00843532
0.00843376
0.00843189
0.00842834
0.00842185
0.00840027
0.00835694
0.00833821
0.00834603
0.00837434
0.00840519
0.00842478
0.00843267
0.00843514
0.00843614
0.00843773
0.00843923
0.00844129
0.00844268
0.00844184
0.0084407
0.00844052
0.0084412
0.00844021
0.00843786
0.00843714
0.00843131
0.00733848
0.0079207
0.00843396
0.00843823
0.00843826
0.00843739
0.00843562
0.00843429
0.00843271
0.00842939
0.00842457
0.0084108
0.00837205
0.00833937
0.00832294
0.00835903
0.00839303
0.00841782
0.00842994
0.00843425
0.00843617
0.00843744
0.00843846
0.00843986
0.00844198
0.00844328
0.0084424
0.00844096
0.00844078
0.00844138
0.00843996
0.00843768
0.00843739
0.00842461
0.00735122
0.00791021
0.00843371
0.00843838
0.00843855
0.00843762
0.00843608
0.00843478
0.0084333
0.00843038
0.00842606
0.00841708
0.00838888
0.00834558
0.00831819
0.00834664
0.0083782
0.00840848
0.00842591
0.00843262
0.00843537
0.00843763
0.0084388
0.00843924
0.00844064
0.00844282
0.00844407
0.00844267
0.00844107
0.00844088
0.00844124
0.00843966
0.00843721
0.00843267
0.00825314
0.00815776
0.00616033
0.00834792
0.00811393
0.00789969
0.00843158
0.00843868
0.00843891
0.00843799
0.00843643
0.00843514
0.0084339
0.00843139
0.00842716
0.0084211
0.00840226
0.00835786
0.00833244
0.00833675
0.00836314
0.00839675
0.00841974
0.00843045
0.0084342
0.00843646
0.00843877
0.00843971
0.00843985
0.00844121
0.00844364
0.00844455
0.00844281
0.00844104
0.00844059
0.00844077
0.00843702
0.00851837
0.00815845
0.00819169
0.00815933
0.0059539
0.00815222
0.00779986
0.0078918
0.00842714
0.00843884
0.00843912
0.00843861
0.00843687
0.00843555
0.00843452
0.00843219
0.00842802
0.00842321
0.00841129
0.00837525
0.00833513
0.00833075
0.00834794
0.00838265
0.0084114
0.00842685
0.00843252
0.0084352
0.00843716
0.00843967
0.00844045
0.00844028
0.00844187
0.00844411
0.00844458
0.00844279
0.00844077
0.00843986
0.00843949
0.00840314
0.00819896
0.00819069
0.0083455
0.00818791
0.00816082
0.00815694
0.00815706
0.00585299
0.00815344
0.00765153
0.00788267
0.00842352
0.00843913
0.00843935
0.00843887
0.00843727
0.00843594
0.008435
0.00843281
0.00842905
0.00842438
0.00841673
0.00839185
0.0083442
0.00832624
0.00833634
0.00836712
0.00840018
0.00842138
0.00843072
0.00843378
0.00843595
0.00843815
0.00844056
0.00844115
0.00844088
0.00844248
0.00844441
0.00844424
0.00844247
0.00843997
0.00843962
0.00820028
0.0081954
0.00815061
0.00815198
0.00813481
0.00814746
0.00816076
0.00815784
0.0081544
0.00588087
0.00815332
0.0077019
0.00785455
0.00841573
0.00843905
0.00843967
0.0084395
0.00843807
0.00843638
0.00843564
0.00843345
0.00842995
0.00842501
0.00841962
0.00840373
0.00835934
0.00832667
0.00832727
0.00835065
0.00838702
0.00841348
0.00842736
0.00843256
0.00843456
0.00843674
0.00843898
0.00844143
0.00844179
0.00844143
0.00844291
0.0084442
0.00844341
0.00844158
0.00844134
0.00819355
0.00819273
0.00815248
0.00814691
0.00814748
0.00815104
0.00814411
0.00814587
0.00815911
0.00815777
0.00813147
0.00600653
0.0081537
0.00790652
0.00780883
0.00838343
0.00843925
0.0084402
0.00843969
0.00843865
0.0084369
0.0084361
0.00843438
0.00843078
0.00842579
0.00842098
0.00841096
0.00837785
0.00833141
0.00832161
0.0083363
0.00837106
0.00840358
0.00842241
0.00843052
0.00843321
0.00843526
0.00843753
0.00843962
0.00844189
0.00844243
0.0084418
0.00844305
0.00844347
0.00844205
0.00844504
0.00819566
0.00819786
0.00814463
0.00814443
0.00815188
0.00815439
0.00815113
0.00815057
0.00814588
0.00814829
0.00813572
0.00815715
0.00815074
0.00609387
0.00815459
0.00804809
0.00787309
0.00830891
0.00843914
0.00844038
0.00844032
0.00843925
0.00843754
0.00843655
0.00843496
0.00843139
0.00842664
0.0084217
0.00841534
0.00839337
0.00834308
0.00831819
0.00832497
0.00835478
0.00839063
0.00841534
0.00842726
0.00843216
0.00843397
0.00843602
0.00843823
0.00844026
0.00844255
0.00844271
0.00844188
0.00844281
0.00844202
0.00844741
0.00820104
0.00820356
0.00814901
0.00815188
0.00816361
0.00817314
0.00816397
0.00817785
0.00816407
0.00815432
0.00816149
0.00816604
0.0081528
0.00816048
0.00815211
0.0061394
0.00815554
0.00812143
0.00793622
0.00836864
0.0084196
0.00844042
0.00844034
0.00843977
0.00843838
0.00843697
0.00843565
0.00843226
0.00842756
0.00842264
0.00841751
0.00840346
0.00836067
0.00831993
0.00831703
0.00833744
0.00837572
0.00840594
0.00842278
0.00842988
0.00843232
0.00843456
0.00843671
0.00843878
0.00827999
0.00844276
0.00844266
0.00844164
0.00844165
0.00844865
0.00820454
0.00820218
0.00815406
0.00815282
0.00818333
0.00818886
0.008192
0.00820548
0.00818835
0.00820668
0.00819248
0.008175
0.00819524
0.00820231
0.00815415
0.00818045
0.00815257
0.00613976
0.0081571
0.00812343
0.00795939
0.00843281
0.00842364
0.00844025
0.0084405
0.00843993
0.00843876
0.00843744
0.00843617
0.00843287
0.00842819
0.0084233
0.00841812
0.0084092
0.00837921
0.00832727
0.00831099
0.00832385
0.00835837
0.0083941
0.00841628
0.00842673
0.00843086
0.00843273
0.00843491
0.00843721
0.00807666
0.00842269
0.00844265
0.00844224
0.00844075
0.00844903
0.00820284
0.00820525
0.00814781
0.00814083
0.00818983
0.00818631
0.0082179
0.00822225
0.00822238
0.00823557
0.00822314
0.0082422
0.00822692
0.00821421
0.00823375
0.00824394
0.00816744
0.00821813
0.00816783
0.00615461
0.0081731
0.00815057
0.00799011
0.00843193
0.00843779
0.00843958
0.00844026
0.00844012
0.0084392
0.00843771
0.00843635
0.00843363
0.0084287
0.00842394
0.00841846
0.00841227
0.00839261
0.00834153
0.00830925
0.00831228
0.00834019
0.00837953
0.00840779
0.00842217
0.00842824
0.00843043
0.00843267
0.00843509
0.00824459
0.00826336
0.00842258
0.00844225
0.00844163
0.00845067
0.00820641
0.00821195
0.00814445
0.00815295
0.00817006
0.00816146
0.00821639
0.00820658
0.0082437
0.00823412
0.00825449
0.00825512
0.00825674
0.00827132
0.00825985
0.00825997
0.00826774
0.00827927
0.00821055
0.00826447
0.00821002
0.00617862
0.00822382
0.00818641
0.00802886
0.00843034
0.00843612
0.00843814
0.00843952
0.00844009
0.00843948
0.00843788
0.00843644
0.00843429
0.00842937
0.00842463
0.00841912
0.00841367
0.00840137
0.00836073
0.00831272
0.00830505
0.00832273
0.00836219
0.00839653
0.0084161
0.00842464
0.00842778
0.00843004
0.00843234
0.0084043
0.00831093
0.00840251
0.00844077
0.00844314
0.00845902
0.00821718
0.00819001
0.00815333
0.00812617
0.00816595
0.00815234
0.00819533
0.00817413
0.00822651
0.00819332
0.00824557
0.0082108
0.00826314
0.00824833
0.00827803
0.00826822
0.00827629
0.00829393
0.0082809
0.00829159
0.00826377
0.00829759
0.00826781
0.0061806
0.00827139
0.00816035
0.00807638
0.00842816
0.0084332
0.00843574
0.00843796
0.00843935
0.00843942
0.00843784
0.00843638
0.00843482
0.00843023
0.00842523
0.00842019
0.00841449
0.00840631
0.00837908
0.00832349
0.0082999
0.00831014
0.0083435
0.00838266
0.00840817
0.00842071
0.00842452
0.00842695
0.00842906
0.00843146
0.0084031
0.00843709
0.00843375
0.00842822
0.00830537
0.00825055
0.00788282
0.00767319
0.00732236
0.00766702
0.00731477
0.00781397
0.00752868
0.00800305
0.00782207
0.00820008
0.00805211
0.00821438
0.00809661
0.00823491
0.00812968
0.00826698
0.00820018
0.0082578
0.00830174
0.00825847
0.00824676
0.00830511
0.00830875
0.00831264
0.00592856
0.00825942
0.00764687
0.00813295
0.00842473
0.00842822
0.0084313
0.00843484
0.00843742
0.00843861
0.00843748
0.00843581
0.00843494
0.00843113
0.00842559
0.0084212
0.00841519
0.00840902
0.00839133
0.00834075
0.00830077
0.00829982
0.00832517
0.00836676
0.00839856
0.00841542
0.00842149
0.00842357
0.00842539
0.0084273
0.00843005
0.00843388
0.0084292
0.00838725
0.00805062
0.00795785
0.00747381
0.00732274
0.00754201
0.00774703
0.00771719
0.00788826
0.00787189
0.00789694
0.00794753
0.00791984
0.00797381
0.0079189
0.00796661
0.0079109
0.00805126
0.00797304
0.00816507
0.00799984
0.00812742
0.00823582
0.00809292
0.00806426
0.0083255
0.00823827
0.00834183
0.00598866
0.00814766
0.00772838
0.00819765
0.00841784
0.00841867
0.0084216
0.00842692
0.00843203
0.0084355
0.00843604
0.00843471
0.00843411
0.00843142
0.00842573
0.00842127
0.0084159
0.00840986
0.00839838
0.00836017
0.00830584
0.00829214
0.00830848
0.00834859
0.00838618
0.00840886
0.00841769
0.00842067
0.00842163
0.00842292
0.00842534
0.0084303
0.00842788
0.00815278
0.00785733
0.00809521
0.0078154
0.00772974
0.00783282
0.00786445
0.00792021
0.0078241
0.00786369
0.00774084
0.00783723
0.00769686
0.00783872
0.00768343
0.00785771
0.00769774
0.0079137
0.00772959
0.00791345
0.0078052
0.00797564
0.00787879
0.00798163
0.00805178
0.00795231
0.00794431
0.00825231
0.00804356
0.00831393
0.0062804
0.00820669
0.0083235
0.00827152
0.00840857
0.0084032
0.00840343
0.00840927
0.0084182
0.00842665
0.0084313
0.00843222
0.00843222
0.00843081
0.00842543
0.00842064
0.00841615
0.00840984
0.00840162
0.00837628
0.00831753
0.00828641
0.00829401
0.00832721
0.00837065
0.00839929
0.00841254
0.00841693
0.00841808
0.00841803
0.00842084
0.00842801
0.00839387
0.00799736
0.0078731
0.00816668
0.00764073
0.00753305
0.007456
0.00734404
0.00771365
0.00759134
0.00761801
0.00749566
0.00755244
0.00741849
0.0075331
0.00740107
0.0075441
0.00741262
0.00756777
0.00744865
0.00762383
0.00748593
0.00772751
0.00755401
0.00786456
0.0076757
0.00782827
0.0079304
0.00781896
0.00781526
0.00809303
0.00789816
0.00815109
0.00583682
0.00824236
0.00769756
0.00824926
0.00840596
0.00839109
0.00838217
0.00838202
0.00839128
0.00840586
0.00841872
0.00842587
0.00842833
0.0084289
0.00842475
0.00841969
0.0084158
0.00840985
0.00840302
0.00838607
0.00833541
0.00828744
0.0082822
0.00830577
0.00835068
0.00838672
0.00840539
0.00841144
0.00841501
0.0084157
0.00841643
0.00842435
0.00840786
0.00807701
0.00796281
0.00822956
0.00745845
0.00716825
0.00724255
0.0071592
0.00714959
0.00707003
0.00736683
0.00724765
0.00731351
0.00722561
0.007291
0.00721385
0.00731894
0.00725023
0.00736109
0.00729818
0.0073988
0.00734583
0.00745041
0.0073338
0.00753376
0.00736827
0.00763337
0.00746917
0.00762243
0.0077786
0.00763234
0.0076316
0.00789766
0.00774555
0.00798914
0.00566208
0.00791746
0.00750702
0.00832561
0.00839475
0.00837465
0.00836203
0.0083583
0.00837005
0.00839012
0.00840886
0.00841963
0.00842449
0.00842324
0.00841826
0.0084151
0.00840983
0.00840337
0.00839188
0.00835449
0.0082943
0.00827392
0.00828782
0.00832861
0.00837085
0.0083967
0.00840671
0.00841353
0.00841796
0.00841516
0.00841253
0.0083657
0.00814175
0.00812829
0.00826422
0.00794153
0.00705597
0.00679316
0.00701013
0.00697841
0.00702109
0.00698719
0.00714076
0.00707099
0.00717301
0.00713622
0.0072018
0.00718337
0.00727227
0.00722785
0.00727388
0.00721056
0.00724839
0.00715849
0.00723872
0.00705198
0.00729329
0.00717115
0.00740504
0.00727797
0.00748103
0.00762891
0.00757183
0.00757215
0.00775739
0.00763086
0.00773662
0.00668466
0.00777652
0.00770008
0.00831499
0.00839076
0.00836389
0.00834414
0.00833638
0.00834695
0.00837209
0.00839858
0.00841449
0.00841909
0.00841622
0.00841382
0.00840957
0.00840322
0.00839472
0.00836994
0.00830843
0.00826955
0.00827356
0.00830479
0.00835237
0.00838622
0.00840314
0.0084151
0.00842117
0.00841507
0.00839636
0.00832479
0.0081952
0.00824032
0.00823419
0.00824457
0.00697283
0.00669911
0.0069401
0.00689645
0.0069677
0.00697404
0.00705918
0.00704907
0.00709814
0.00707267
0.00719681
0.00717717
0.00719697
0.00717842
0.00719224
0.00707305
0.00707349
0.00704703
0.00717787
0.00730438
0.00707124
0.00723327
0.00737051
0.00736304
0.00743635
0.00741819
0.00753035
0.0075699
0.00762071
0.00737165
0.00762325
0.00735083
0.00769559
0.00597485
0.0077648
0.00764126
0.00829646
0.00839299
0.00835928
0.0083292
0.0083162
0.00832412
0.00835761
0.00839189
0.00840914
0.00841232
0.00841136
0.00840871
0.00840274
0.00839566
0.008379
0.00832706
0.00827238
0.00826162
0.00828355
0.00833009
0.0083722
0.00839948
0.00841632
0.00842423
0.00841609
0.00838085
0.00832393
0.00822937
0.00819898
0.00820647
0.00818161
0.00785209
0.00688363
0.00661023
0.00696352
0.00694711
0.00702044
0.00702131
0.00708458
0.00704875
0.00714056
0.0071174
0.00717982
0.00714132
0.0070601
0.00705248
0.00730621
0.00726348
0.00728197
0.00731143
0.0074451
0.00767055
0.00735543
0.00689067
0.0068087
0.00636557
0.00690266
0.00619617
0.00681897
0.00727319
0.00699669
0.0046446
0.00499771
0.00738932
0.0053343
0.0050711
0.00746701
0.00606176
0.0074188
0.00770294
0.00825313
0.00839936
0.00835765
0.00831607
0.0082971
0.00830814
0.00834982
0.00838753
0.00840364
0.00840684
0.00840635
0.0084015
0.00839535
0.00838372
0.00834508
0.00828089
0.0082532
0.00826496
0.00830531
0.00835435
0.00839256
0.00841606
0.00842657
0.00841896
0.00837173
0.00828905
0.00818431
0.00815673
0.00816525
0.00810685
0.00808981
0.006795
0.00672331
0.00682143
0.00682111
0.00693482
0.00686635
0.00693051
0.00691972
0.00697903
0.00694167
0.00703229
0.0070123
0.00705271
0.00732915
0.00728142
0.00730793
0.00692647
0.00617457
0.00712226
0.0071072
0.00677301
0.0074727
0.00681061
0.00725405
0.00663407
0.00700162
0.00648174
0.00454833
0.00433839
0.00439193
0.00457409
0.00504674
0.00509569
0.00506591
0.00498116
0.0049842
0.00492314
0.00498752
0.00534123
0.00511212
0.00526024
0.00504064
0.00526513
0.00539614
0.00520924
0.00503076
0.00578368
0.00531955
0.00528966
0.00572992
0.00582334
0.00620464
0.00819798
0.00840374
0.00835462
0.00830448
0.00828183
0.00829823
0.00834754
0.0083847
0.00839831
0.00840182
0.00839875
0.00839396
0.00838554
0.00835871
0.00829549
0.00824952
0.00825007
0.00827931
0.0083324
0.0083818
0.00841313
0.00842782
0.00842252
0.00837023
0.0082713
0.00813712
0.00813758
0.00811071
0.00805085
0.00805419
0.00668743
0.00662478
0.00693523
0.00678019
0.00673126
0.00695734
0.00683368
0.00675994
0.00684509
0.00710311
0.0072011
0.00684369
0.00723682
0.00722257
0.00732206
0.00683523
0.00672106
0.00766614
0.00764633
0.00761031
0.00757741
0.00753339
0.00725751
0.00724603
0.00442113
0.00437595
0.00460094
0.00465415
0.00475132
0.00469265
0.00499424
0.00480102
0.00467688
0.00496148
0.00488687
0.00480904
0.00463628
0.00479962
0.00497558
0.00504823
0.00502254
0.00491596
0.00486506
0.00481716
0.00494676
0.00508912
0.00505545
0.00507644
0.0051278
0.00516118
0.00336651
0.00505775
0.00535326
0.00509842
0.0051762
0.00531727
0.00581098
0.00813576
0.00840601
0.00834446
0.00829028
0.00826462
0.00829339
0.00834936
0.00838175
0.00839395
0.0083942
0.00839123
0.00838531
0.00836691
0.00831117
0.00825308
0.00823707
0.00825722
0.00830633
0.00836564
0.00840721
0.00842675
0.00842558
0.00837377
0.00826993
0.00810883
0.0080862
0.0080347
0.00800105
0.00827096
0.00765684
0.00625482
0.00629439
0.00627755
0.00681783
0.00599065
0.00614845
0.00707726
0.00640669
0.00644158
0.00581191
0.00717098
0.00737213
0.00624581
0.00661532
0.00762539
0.00735946
0.00756559
0.00751783
0.00748705
0.00742553
0.00726831
0.00726874
0.00467996
0.00477763
0.0047939
0.00485709
0.00458963
0.0046056
0.00464399
0.00465775
0.00467036
0.00473534
0.00476637
0.00470013
0.00471935
0.00477268
0.00476522
0.00474548
0.00482176
0.00498074
0.00508373
0.00504367
0.00490008
0.00487293
0.00494898
0.00493988
0.00513922
0.00520014
0.0051552
0.00524952
0.00528063
0.00413246
0.00621053
0.00580322
0.00517056
0.00493755
0.00498188
0.00605091
0.00806785
0.0083979
0.00831709
0.0082514
0.00824399
0.00829662
0.00835159
0.00837947
0.00838719
0.0083872
0.00838393
0.00837109
0.00832552
0.00826133
0.00822891
0.00823864
0.00827819
0.00834257
0.00839787
0.00842309
0.00842779
0.00838444
0.00828009
0.00810001
0.00803544
0.00801152
0.00788752
0.00821791
0.00799239
0.00682729
0.0065319
0.00700021
0.00689433
0.00694666
0.00686214
0.00709523
0.00702086
0.00575392
0.00678077
0.00728536
0.00718112
0.00727344
0.00719661
0.0072722
0.00735906
0.00743268
0.00733322
0.00736227
0.00679799
0.00724782
0.00739349
0.00485577
0.00488392
0.00484497
0.00485236
0.00469264
0.0047614
0.00479556
0.00483393
0.00475258
0.00478421
0.00480262
0.00479102
0.00482166
0.00481569
0.00490111
0.0048629
0.00481535
0.00487568
0.00490902
0.00486801
0.00492854
0.0049721
0.00512424
0.00504669
0.00498972
0.00500091
0.00506658
0.00501717
0.00523398
0.00530596
0.00519997
0.00536752
0.00541458
0.00527805
0.00639904
0.00665963
0.00520588
0.00520136
0.00527902
0.00614463
0.00799749
0.00834715
0.00825403
0.00819746
0.00823117
0.00830487
0.0083545
0.00837497
0.00838045
0.00838134
0.00837298
0.0083374
0.00827255
0.0082266
0.00822339
0.00825194
0.00831257
0.00838307
0.00841596
0.00842733
0.00840034
0.0083074
0.00810905
0.00799326
0.00794211
0.00786633
0.00724911
0.00782381
0.00796312
0.00658303
0.00638119
0.00677103
0.00668616
0.00677613
0.00670064
0.0069057
0.0068432
0.00707251
0.0069797
0.00710549
0.00700856
0.00714197
0.00708331
0.0072548
0.00719262
0.00673773
0.00718612
0.00730137
0.00721739
0.00477008
0.00496542
0.00711563
0.0048311
0.00482706
0.00478385
0.00476407
0.00485483
0.00488868
0.00491355
0.00491217
0.00486959
0.00490099
0.00491365
0.00490898
0.00493848
0.00493035
0.00498592
0.00496398
0.00493606
0.00498752
0.00500639
0.00496393
0.00502187
0.0050438
0.0051121
0.00508693
0.0050923
0.00508338
0.0051168
0.00510525
0.00529317
0.00538943
0.00520289
0.00547609
0.00553613
0.00581382
0.00631428
0.00650993
0.00552535
0.00536669
0.00543921
0.00597022
0.0079146
0.00825132
0.00817254
0.00815037
0.00823111
0.00831606
0.00835556
0.00836839
0.00837495
0.00837199
0.00834548
0.00828258
0.00822812
0.00821
0.00822872
0.00827965
0.00835974
0.0084054
0.00842299
0.00841188
0.00834033
0.00814214
0.00799424
0.00792806
0.00812352
0.00661985
0.00805733
0.00826087
0.00680042
0.006818
0.00658151
0.00662409
0.00662895
0.00658478
0.00668294
0.00663141
0.00679804
0.00674437
0.00692406
0.0068546
0.0070047
0.00692867
0.00705198
0.00701789
0.00716004
0.00710218
0.00719827
0.00721139
0.00711166
0.00706271
0.00471061
0.00491784
0.00481332
0.00485999
0.00490034
0.00486335
0.0048256
0.0048033
0.00494224
0.00495496
0.00494937
0.00492574
0.00496123
0.00496919
0.00495688
0.00498043
0.00499376
0.00498935
0.00499586
0.00500247
0.0049989
0.00503739
0.00503379
0.00499886
0.00505406
0.00512797
0.00511427
0.00514576
0.00513396
0.00509737
0.00511454
0.00514765
0.00532582
0.00544996
0.00521037
0.0055623
0.00562351
0.00583716
0.00614925
0.00640221
0.00556921
0.0054158
0.00557272
0.00591271
0.0078254
0.00813892
0.00809256
0.00812087
0.00821198
0.00832755
0.00835301
0.00836231
0.00836523
0.00834786
0.00828853
0.00822908
0.00819832
0.00820692
0.00824562
0.00832801
0.00839031
0.0084157
0.0084135
0.00836448
0.00819432
0.00799067
0.00795754
0.00811185
0.00727858
0.00824188
0.00815203
0.00798632
0.00708655
0.00714861
0.00672842
0.0068819
0.00660925
0.00663643
0.0067149
0.00671959
0.00678439
0.00674639
0.00686798
0.00682148
0.00698276
0.00695989
0.00705526
0.00700463
0.00722853
0.00716625
0.00738996
0.00745229
0.00476831
0.00475684
0.00499291
0.00478428
0.00477474
0.00474774
0.00485603
0.00484913
0.00489261
0.00485106
0.00482186
0.00482679
0.00495121
0.00492915
0.00489452
0.00485956
0.00498929
0.00495876
0.00490583
0.00499489
0.00499391
0.00496478
0.00494542
0.00498319
0.00500298
0.00503356
0.00502117
0.00498803
0.00504436
0.00518598
0.00517491
0.00521953
0.00513453
0.00508234
0.00509961
0.0051668
0.00533841
0.00549305
0.00521456
0.00561675
0.00566881
0.00588121
0.00611962
0.00670743
0.00558807
0.00549463
0.00574384
0.00592072
0.0077319
0.00807836
0.00802833
0.00808056
0.00816777
0.00833398
0.00834963
0.00835389
0.00834219
0.00828854
0.00822754
0.00818868
0.00818424
0.00821456
0.00829067
0.00836885
0.00840601
0.00841022
0.00837465
0.00825544
0.00799522
0.00799039
0.00812096
0.00769583
0.00777532
0.00815523
0.00824586
0.00775857
0.00759082
0.00753499
0.00770347
0.0070998
0.00730663
0.00678457
0.00691553
0.00692378
0.00700328
0.00690867
0.00689735
0.00694642
0.00693123
0.00704697
0.00709945
0.00737572
0.00710009
0.00748939
0.00746829
0.00729517
0.00753734
0.00490507
0.0049688
0.00523424
0.00503692
0.00483726
0.00483352
0.00517562
0.00509245
0.0048338
0.00482365
0.00484252
0.00490529
0.00486223
0.00481627
0.00479208
0.0047987
0.00492788
0.00485674
0.00477539
0.00498133
0.00496654
0.00487864
0.00487387
0.00493286
0.00499083
0.00501205
0.00501804
0.00497475
0.00504313
0.00524371
0.00523962
0.00529373
0.00513549
0.00508089
0.00512505
0.00522053
0.00535543
0.005517
0.00524488
0.00564889
0.00569099
0.00503536
0.00623198
0.00703315
0.00561551
0.00564898
0.00583609
0.0058878
0.00767068
0.00801854
0.00798963
0.00801307
0.00814804
0.00816922
0.00834505
0.00833262
0.00828321
0.00822347
0.00818081
0.00816478
0.0081859
0.00825309
0.00833974
0.00839244
0.00840665
0.00837745
0.00830281
0.00804903
0.00799927
0.00814784
0.00798238
0.00753827
0.00804656
0.00827005
0.00811643
0.00796067
0.00778229
0.00784641
0.00792774
0.00749639
0.00769177
0.00714233
0.00731453
0.00723886
0.00735968
0.00712066
0.00714918
0.00712723
0.00712755
0.0071827
0.00736897
0.0078844
0.0075979
0.007598
0.00790557
0.00545151
0.00549942
0.00553331
0.00552544
0.00525828
0.00533527
0.00543137
0.00539332
0.00496328
0.0050131
0.00555835
0.00546976
0.00483595
0.00489967
0.00499314
0.00512844
0.00474759
0.0047501
0.00482191
0.00494693
0.00481168
0.00475072
0.00473096
0.00497272
0.00495269
0.00480277
0.00487137
0.00491136
0.00501634
0.00502499
0.0050626
0.00501073
0.00509275
0.00531184
0.00529399
0.00534965
0.00520259
0.00515623
0.00523782
0.00530689
0.00536808
0.00553385
0.00526783
0.00567221
0.00571528
0.00392431
0.00639599
0.0063787
0.00568178
0.00577038
0.00581484
0.00572008
0.00769398
0.00792599
0.0079704
0.00798339
0.00797012
0.00815045
0.00832303
0.00828028
0.00822018
0.00817647
0.00815352
0.00815851
0.00821477
0.00830401
0.00837124
0.00839806
0.00838313
0.00832735
0.00812106
0.00795516
0.00813956
0.00817147
0.00782431
0.00796211
0.00823206
0.00834479
0.00785781
0.0076439
0.00803098
0.00801253
0.00800216
0.00803009
0.0077147
0.00794511
0.00722915
0.00726568
0.00754361
0.00756103
0.00734688
0.00741794
0.00735755
0.00733603
0.0076076
0.00764061
0.00804971
0.00801725
0.00555209
0.00558274
0.00757576
0.0057426
0.00577522
0.00576341
0.00574012
0.00562319
0.00567145
0.00571522
0.0057009
0.00525073
0.00535663
0.00590483
0.00584959
0.00508712
0.00522644
0.00536972
0.00552654
0.00484132
0.00498854
0.00515591
0.00533452
0.0047869
0.00486177
0.00499849
0.00501989
0.00500624
0.00489436
0.00491851
0.00491463
0.0051066
0.00512375
0.00514086
0.00506769
0.00523798
0.005361
0.00530692
0.0053491
0.00532388
0.00521348
0.00514654
0.00536986
0.00538186
0.00555928
0.00528013
0.00569813
0.00575953
0.0027808
0.00629925
0.00602541
0.00574971
0.00581074
0.00565397
0.00554773
0.00755167
0.00787975
0.00797725
0.00797763
0.00795663
0.00811281
0.00827275
0.00822264
0.00817968
0.00815445
0.00814861
0.00817012
0.00825836
0.00833982
0.00838365
0.00838215
0.00835049
0.00818179
0.00793831
0.00806118
0.00813228
0.00796279
0.00793497
0.00813088
0.00830444
0.00825246
0.00800322
0.00781221
0.00806138
0.00803762
0.00798953
0.00806689
0.00795307
0.00803047
0.00763233
0.00779419
0.0077186
0.00785489
0.0075542
0.00760849
0.00762463
0.00757278
0.00798103
0.00784703
0.00758741
0.00773268
0.00573513
0.00574033
0.00569275
0.00565046
0.00595619
0.00595564
0.00591739
0.00587373
0.00593217
0.00594571
0.00594855
0.0059526
0.00565158
0.00575419
0.00619102
0.00617305
0.00550535
0.00565987
0.00580661
0.00594757
0.00520187
0.00540832
0.00560756
0.00579399
0.00502257
0.00521032
0.00543032
0.00493662
0.00484828
0.00509481
0.00498602
0.00483248
0.00502733
0.00510363
0.00491878
0.0048672
0.00502401
0.00536875
0.00529573
0.00534485
0.00514414
0.00491661
0.00486258
0.00515346
0.0054248
0.00560333
0.00533938
0.00574229
0.00581808
0.0048251
0.00553433
0.00680473
0.00582549
0.00574721
0.00551517
0.00523755
0.00795063
0.00789074
0.00800015
0.0080114
0.00797424
0.00803745
0.00813378
0.00817188
0.00816276
0.00815634
0.00816266
0.00819741
0.00829177
0.00835816
0.00837363
0.00835353