/*--------------------------------*- C++ -*----------------------------------*\
  =========                 |
  \\      /  F ield         | OpenFOAM: The Open Source CFD Toolbox
   \\    /   O peration     | Website:  https://openfoam.org
    \\  /    A nd           | Version:  dev
     \\/     M anipulation  |
\*---------------------------------------------------------------------------*/
FoamFile
{
    version     2.0;
    format      ascii;
    class       volScalarField;
    location    "2500";
    object      rDeltaT;
}
// * * * * * * * * * * * * * * * * * * * * * * * * * * * * * * * * * * * * * //

dimensions      [0 0 -1 0 0 0 0];

internalField   nonuniform List<scalar> 
9978
(
100
100
100
100
100
100
100
100
100
100
100
100
100
100
100
100
100
100
100
100
100
100
100
100
100
100
100
100
100
100
100
100
100
100
100
100
100
100
100
100
100
100
100
100
100
100
100
100
100
100
100
100
100
100
100
100
100
100
100
100
100
100
100
100
100
100
100
100
100
100
100
100
100
100
100
100
100
100
100
100
100
100
100
100
100
100
100
100
100
100
100
100
100
100
100
100
100
100
100
100
100
100
100
100
100
100
100
100
100
100
100
100
100
100
100
100
100
100
100
100
100
100
100
100
100
100
100
100
100
100
100
100
100
100
100
100
100
100
100
100
100
100
100
100
100
100
100
100
100
100
100
100
100
100
100
100
100
100
100
100
100
100
100
100
100
100
100
100
100
100
100
100
100
100
100
100
100
100
100
100
100
100
100
100
100
100
100
100
100
100
100
100
100
100
100
100
100
100
100
100
100
100
100
100
100
100
100
100
100
100
100
100
100
100
100
100
100
100
100
100
100
100
100
100
100
100
100
100
100
100
100
100
100
100
100
100
100
100
100
100
100
100
100
100
100
100
100
100
100
100
100
100
100
100
100
100
100
100
100
100
100
100
100
100
100
100
100
100
100
100
100
100
100
100
100
100
100
100
100
100
100
100
100
100
100
100
100
100
100
100
100
100
100
100
100
100
100
100
100
100
100
100
100
100
100
100
100
100
100
100
100
100
100
100
100
100
100
100
100
100
100
100
100
100
100
100
100
100
100
100
100
100
100
100
100
100
100
100
100
100
100
100
100
100
100
100
100
100
100
100
100
100
100
100
100
100
100
100
100
100
100
100
100
100
100
100
100
100
100
100
100
100
100
100
100
100
100
100
100
100
100
100
100
100
100
100
100
100
100
100
100
100
100
100
100
100
100
100
100
100
100
100
100
100
100
100
100
100
100
100
100
100
100
100
100
100
100
100
100
100
100
100
100
100
100
100
100
100
100
100
100
100
100
100
100
100
100
100
100
100
100
100
100
100
100
100
100
100
100
100
100
100
100
100
100
100
100
100
100
100
100
100
100
100
100
100
100
100
100
100
100
100
100
100
100
100
100
100
100
100
100
100
100
100
100
100
100
100
100
100
100
100
100
100
100
100
100
100
100
100
100
100
100
100
100
100
100
100
100
100
100
100
100
100
100
100
100
100
100
100
100
100
100
100
100
100
100
100
100
100
100
100
100
100
100
100
100
100
100
100
100
100
100
100
100
100
100
100
100
100
100
100
100
100
100
100
100
100
100
100
100
100
100
100
100
100
100
100
100
100
100
100
100
100
100
100
100
100
100
100
100
100
100
100
100
100
100
100
100
100
100
100
100
100
100
100
100
100
100
100
100
100
100
100
100
100
100
100
100
100
100
100
100
100
100
100
100
100
100
100
100
100
100
100
100
100
100
100
100
100
100
100
100
100
100
100
100
100
100
100
100
100
100
100
100
100
100
100
100
100
100
100
100
100
100
100
100
100
100
100
100
100
100
100
100
100
100
100
100
100
100
100
100
100
100
100
100
100
100
100
100
100
100
100
100
100
100
100
100
100
100
100
100
100
100
100
100
100
100
100
100
100
100
100
100
100
100
100
100
100
100
100
100
100
100
100
100
100
100
100
100
100
100
100
100
100
100
100
100
100
100
100
100
100
100
100
100
100
100
100
100
100
100
100
100
100
100
100
100
100
100
100
100
100
100
100
100
100
100
100
100
100
100
100
100
100
100
100
100
100
100
100
100
100
100
100
100
100
100
100
100
100
100
100
100
100
100
100
100
100
100
100
100
100
100
100
100
100
100
100
100
100
100
100
100
100
100
100
100
100
100
100
100
100
100
100
100
100
100
100
100
100
100
100
100
100
100
100
100
100
100
100
100
100
100
100
100
100
100
100
100
100
100
100
100
100
100
100
100
100
100
100
100
100
100
100
100
100
100
100
100
100
100
100
100
100
100
100
100
100
100
100
100
100
100
100
100
100
100
100
100
100
100
100
100
100
100
100
100
100
100
100
100
100
100
100
100
100
100
100
100
100
100
100
100
100
100
100
100
100
100
100
100
100
100
100
100
100
100
100
100
100
100
100
100
100
100
100
100
100
100
100
100
100
100
100
100
100
100
100
100
100
100
100
100
100
100
100
100
100
100
100
100
100
100
100
100
100
100
100
100
100
100
100
100
100
100
100
100
100
100
100
100
100
100
100
100
100
100
100
100
100
100
100
100
100
100
100
100
100
100
100
100
100
100
100
100
100
100
100
100
100
100
100
100
100
100
100
100
100
100
100
100
100
100
100
100
100
100
100
100
100
100
100
100
100
100
100
100
100
100
100
100
100
100
100
100
100
100
100
100
100
100
100
100
100
100
100
100
100
100
100
100
100
100
100
100
100
100
100
100
100
100
100
100
100
100
100
100
100
100
100
100
100
100
100
100
100
100
100
100
100
100
100
100
100
100
100
100
100
100
100
100
100
100
100
100
100
100
100
100
100
100
100
100
100
100
100
100
100
100
100
100
100
100
100
100
100
100
100
100
100
100
100
100
100
100
100
100
100
100
100
100
100
100
100
100
100
100
100
100
100
100
100
100
100
100
100
100
100
100
100
100
100
100
100
100
100
100
100
100
100
100
100
100
100
100
100
100
100
100
100
100
100
100
100
100
100
100
100
100
100
100
100
100
100
100
100
100
100
100
100
100
100
100
100
100
100
100
100
100
100
100
100
100
100
100
100
100
100
100
100
100
100
100
100
100
100
100
100
100
100
100
100
100
100
100
100
100
100
100
100
100
100
100
100
100
100
100
100
100
100
100
100
100
100
100
100
100
100
100
100
100
100
100
100
100
100
100
100
100
100
100
100
100
100
100
100
100
100
100
100
100
100
100
100
100
100
100
100
100
100
100
100
100
100
100
100
100
100
100
100
100
100
100
100
100
100
100
100
100
100
100
100
100
100
100
100
100
100
100
100
100
100
100
100
100
100
100
100
100
100
100
100
100
100
100
100
100
100
100
100
100
100
100
100
100
100
100
100
100
100
100
100
100
100
100
100
100
100
100
100
100
100
100
100
100
100
100
100
100
100
100
100
100
100
100
100
100
100
100
100
100
100
100
100
100
100
100
100
100
100
100
100
100
100
100
100
100
100
100
100
100
100
100
100
100
100
100
100
100
100
100
100
100
100
100
100
100
100
100
100
100
100
100
100
100
100
100
100
100
100
100
100
100
100
100
100
100
100
100
100
100
100
100
100
100
100
100
100
100
100
100
100
100
100
100
100
100
100
100
100
100
100
100
100
100
100
100
100
100
100
100
100
100
100
100
100
100
100
100
100
100
100
100
100
100
100
100
100
100
100
100
100
100
100
100
100
100
100
100
100
100
100
100
100
100
100
100
100
100
100
100
100
100
100
100
100
100
100
100
100
100
100
100
100
100
100
100
100
100
100
100
100
100
100
100
100
100
100
100
100
100
100
100
100
100
100
100
100
100
100
100
100
100
100
100
100
100
100
100
100
100
100
100
100
100
100
100
100
100
100
100
100
100
100
100
100
100
100
100
100
100
100
100
100
100
100
100
100
100
100
100
100
100
100
100
100
100
100
100
100
100
100
100
100
100
100
100
100
100
100
100
100
100
100
100
100
100
100
100
100
100
100
100
100
100
100
100
100
100
100
100
100
100
100
100
100
100
100
100
100
100
100
100
100
100
100
100
100
100
100
100
100
100
100
100
100
100
100
100
100
100
100
100
100
100
100
100
100
100
100
100
100
100
100
100
100
100
100
100
100
100
100
100
100
100
100
100
100
100
100
100
100
100
100
100
100
100
100
100
100
100
100
100
100
100
100
100
100
100
100
100
100
100
100
100
100
100
100
100
100
100
100
100
100
100
100
100
100
100
100
100
100
100
100
100
100
100
100
100
100
100
100
100
100
100
100
100
100
100
100
100
100
100
100
100
100
100
100
100
100
100
100
100
100
100
100
100
100
100
100
100
100
100
100
100
100
100
100
100
100
100
100
100
100
100
100
100
100
100
100
100
100
100
100
100
100
100
100
100
100
100
100
100
100
100
100
100
100
100
100
100
100
100
100
100
100
100
100
100
100
100
100
100
100
100
100
100
100
100
100
100
100
100
100
100
100
100
100
100
100
100
100
100
100
100
100
100
100
100
100
100
100
100
100
100
100
100
100
100
100
100
100
100
100
100
100
100
100
100
100
100
100
100
100
100
100
100
100
100
100
100
100
100
100
100
100
100
100
100
100
100
100
100
100
100
100
100
100
100
100
100
100
100
100
100
100
100
100
100
100
100
100
100
100
100
100
100
100
100
100
100
100
100
100
100
100
100
100
100
100
100
100
100
100
100
100
100
100
100
100
100
100
100
100
100
100
100
100
100
100
100
100
100
100
100
100
100
100
100
100
100
100
100
100
100
100
100
100
100
100
100
100
100
100
100
100
100
100
100
100
100
100
100
100
100
100
100
100
100
100
100
100
100
100
100
100
100
100
100
100
100
100
100
100
100
100
100
100
100
100
100
100
100
100
100
100
100
100
100
100
100
100
100
100
100
100
100
100
100
100
100
100
100
100
100
100
100
100
100
100
100
100
100
100
100
100
100
100
100
100
100
100
100
100
100
100
100
100
100
100
100
100
100
100
100
100
100
100
100
100
100
100
100
100
100
100
100
100
100
100
100
100
100
100
100
100
100
100
100
100
100
100
100
100
100
100
100
100
100
100
100
100
100
100
100
100
100
100
100
100
100
100
100
100
100
100
100
100
100
100
100
100
100
100
100
100
100
100
100
100
100
100
100
100
100
100
100
100
100
100
100
100
100
100
100
100
100
100
100
100
100
100
100
100
100
100
100
100
100
100
100
100
100
100
100
100
100
100
100
100
100
100
100
100
100
100
100
100
100
100
100
100
100
100
100
100
100
100
100
100
100
100
100
100
100
100
100
100
100
100
100
100
100
100
100
100
100
100
100
100
100
100
100
100
100
100
100
100
100
100
100
100
100
100
100
100
100
100
100
100
100
100
100
100
100
100
100
100
100
100
100
100
100
100
100
100
100
100
100
100
100
100
100
100
100
100
100
100
100
100
100
100
100
100
100
100
100
100
100
100
100
100
100
100
100
100
100
100
100
100
100
100
100
100
100
100
100
100
100
100
100
100
100
100
100
100
100
100
100
100
100
100
100
100
100
100
100
100
100
100
100
100
100
100
100
100
100
100
100
100
100
100
100
100
100
100
100
100
100
100
100
100
100
100
100
100
100
100
100
100
100
100
100
100
100
100
100
100
100
100
100
100
100
100
100
100
100
100
100
100
100
100
100
100
100
100
100
100
100
100
100
100
100
100
100
100
100
100
100
100
100
100
100
100
100
100
100
100
100
100
100
100
100
100
100
100
100
100
100
100
100
100
100
100
100
100
100
100
100
100
100
100
100
100
100
100
100
100
100
100
100
100
100
100
100
100
100
100
100
100
100
100
100
100
100
100
100
100
100
100
100
100
100
100
100
100
100
100
100
100
100
100
100
100
100
100
100
100
100
100
100
100
100
100
100
100
100
100
100
100
100
100
100
100
100
100
100
100
100
100
100
100
100
100
100
100
100
100
100
100
100
100
100
100
100
100
100
100
100
100
100
100
100
100
100
100
100
100
100
100
100
100
100
100
100
100
100
100
100
100
100
100
100
100
100
100
100
100
100
100
100
100
100
100
100
100
100
100
100
100
100
100
100
100
100
100
100
100
100
100
100
100
100
100
104.341
102.564
100
100
101.934
101.911
100
100
100
100
100
103.682
107.844
100
100
100
100
100
100
164.758
100
100
100
100
100
100
100
100
100
100
100
100
100
100
100
100
100
100
100
100
100
100
100
100
100
100
100
100
100
100
100
100
100
100
100
100
100
100
100
100
100
100
100
100
100
100
100
100
100
100
100
100
100
100
100
100
100
100
100
100
100
100
100
100
100
100
100
100
100
100
100
100
100
100
100
100
100
100
100
107.437
110.983
103.691
113.518
113.25
108.538
107.4
116.59
115.33
113.896
100
100
100
108.877
118.997
121.04
108.657
100
100
100
100
100
100
100
100
100
100
100
100
100
100
100
100
100
100
100
100
100
100
100
100
100
100
100
100
100
100
100
100
100
100
100
100
100
100
100
100
100
100
100
100
100
100
100
100
100
100
100
100
100
100
100
100
100
100
100
100
100
100
100
100
100
100
100
100
100
100
100
100
100
100
111.687
109.047
100
100
100
100
100
100
100
100
102.32
100.012
100
120.012
121.974
111.728
122.081
122.797
122.705
122.525
131.005
127.579
128.984
106.138
100
104.727
120.252
131.814
131.626
119.382
100
100
100
100
100
100
100
100
100
100
100
100
100
100
100
100
100
100
100
100
100
100
100
100
100
100
100
100
100
100
100
100
100
100
100
100
100
100
100
100
100
100
100
100
100
100
100
100
100
100
100
100
100
100
100
100
100
100
100
100
100
100
100
100
100
100.122
100
100
100
113.316
113.298
107.027
111.348
102
106.042
127.559
123.792
100
100
104.47
109.356
100
100
100
100
109.949
107.258
103.137
131.536
132.569
120.12
131.473
132.318
136.916
136.459
142.783
139.854
140.894
118.625
102.524
118.126
132.024
142.404
144.088
133.224
100
100
100
100
100
100
100
100
100
100
100
100
100
100
100
100
100
100
100
100
100
100
100
100
100
100
100
100
100
100
100
100
100
100
100
100
100
100
100
100
100
100
100
100
100
100
100
100
100
100
100
100
100
100
100
100
100
100
100
100
100
100
100
100
100
100
118.153
110.545
101.419
100
130.136
131.169
125.263
129.974
114.275
119.223
143.734
138.898
102.317
108.4
114.897
121.03
100
100
100
105.366
118.595
115.882
112.277
142.711
143.802
130.376
143.158
143.35
148.4
147.702
153.179
150.919
152.06
133.932
115.182
132.799
148.726
156.391
164.409
150.55
100
100
111.489
100
100
100
100
100
100
100
100
100
100
100
100
100
100
100
100
100
100
100
100
100
100
100
100
100
100
100
100
100
100
100
100
100
100
100
100
100
100
100
100
100
100
100
100
100
100
100
100
100
100
100
100
100
100
100
100
100
108.155
102.808
100
100
100
100
100
135.945
127.546
116.947
108.21
147.191
149.194
142.966
148.368
126.736
132.673
159.683
153.579
111.632
118.339
125.569
132.994
108.886
105.693
108.727
114.954
129.95
127.783
125.002
152.824
155.29
143.885
157.366
156.044
159.977
160.58
169.968
166.381
170.315
151.794
128.955
147.935
168.613
180.154
187.574
171.494
105.377
100
122.834
100
100
100
100
100
100
100
100
100
100
100
100
100
100
100
100
100
100
100
100
100
100
100
100
100
100
100
100
100
100
100
100
100
100
100
100
100
100
100
100
100
100
100
100
100
100
100
100
100
100
100
100
100
100
100
100
100
112.23
123.634
120.15
114.745
106.424
104.423
102.045
114.729
155.092
144.539
131.561
122.397
164.218
167.483
161.815
167.211
139.606
146.169
175.629
168.257
121.757
129.061
136.861
145.129
122.26
119.486
120.006
126.324
145.57
145.248
143.071
172.376
180.882
161.536
190.024
186.302
182.679
185.793
202.731
198.519
198.281
168.639
140.867
159.966
191.354
206.768
212.8
190.166
112.982
103.292
129.888
100
100
125.77
100
100
100
100
100
100
100
100
100
100
100
100
100
100
100
100
100
100
100
100
100
100
100
100
100
100
100
100
100
100
100
100
100
100
100
100
100
100
100
100
100
100
100
100
100
100
100
100
100
100
100
113.239
103.014
108.659
100
126.205
138.552
135.229
129.593
122.013
118.954
116.68
128.553
174.363
161.561
147.154
137.511
181.462
186.076
181.082
186.036
152.921
160.026
192.128
183.491
133.446
141.396
149.777
158.628
140.11
137.148
135.223
140.534
169.167
171.414
166.466
212.465
220.878
200.146
222.252
217.391
218.885
218.522
236.358
232.939
226.886
181.338
148.915
170.733
213.308
234.409
236.405
207.108
119.808
109.704
138.112
100
100
443.144
100
144.733
100
100
100
100
100
100
100
100
100
100
100
100
100
100
100
100
100
100
100
100
100
100
100
100
100
100
100
100
100
100
100
100
100
100
100
100
100
100
100
100
100
100
100
100
100
100
100
100
100
100
128.291
119.112
122.793
111.773
140.305
152.642
148.362
142.663
136.023
133.086
130.456
142.876
193.628
178.645
163.71
153.118
199.709
205.167
201.064
204.955
167.43
174.889
209.223
199.927
147.59
156.216
165.787
175.011
163.141
159.346
156.64
159.536
209.891
205.887
200.571
239.016
242.629
235.577
276.379
268.351
241.853
241.699
245.675
251.894
244.717
195.963
159.646
183.565
234.955
239.198
244.575
224.998
127.144
113.22
146.614
101.498
100
216.307
100
100
100
100
100
100
100
100
100
100
100
100
100
100
100
100
100
100
100
100
100
100
100
100
100
100
100
100
100
100
100
100
100
100
100
100
100
100
100
100
100
100
100
100
100
100
100
100
100
100
113.261
100.923
100
140.991
132.395
134.468
124.412
154.649
165.972
160.758
155.273
148.803
147.758
145.164
157.09
214.255
197.68
181.79
169.278
218.405
224.325
223.332
225.496
183.309
191.202
227.683
217.673
165.436
174.82
186.72
197.86
196.03
189.324
185.277
185.434
252.537
256.963
260.319
292.143
162.914
294.583
324.236
315.536
300.622
254.733
160.254
165.682
302.187
210.37
168.257
193.306
240.118
154.45
159.618
221.614
130.826
118.377
152.63
105.291
100
100
100
100
100
100
100
100
100
100
100
100
100
100
100
100
100
100
100
100
100
100
100
100
100
100
100
100
100
100
100
100
100
100
100
100
100
100
100
100
100
100
100
100
100
100
100
100
100
100
100
100
100
100
122.74
111.326
106.861
152.01
143.838
143.028
133.472
169.361
178.484
172.913
166.938
159.857
163.129
159.862
171.893
235.506
218.829
200.723
185.941
237.663
243.94
246.14
247.646
201.769
209.697
249.625
236.055
189.84
195.919
206.933
221.116
253.53
244.532
241.4
240.408
166.845
301.486
300.573
345.415
190.939
345.631
373.277
363.646
353.369
166.611
190.578
196.034
357.468
215.439
177.651
202.596
159.356
184.065
189.51
149.185
138.721
123.344
163.719
108.961
100
100
100
100
100
100
100
100
100
100
100
100
100
100
100
100
100
100
100
100
100
100
100
100
100
100
100
100
100
100
100
100
100
100
100
100
100
100
100
100
100
100
100
100
100
100
100
100
100
100
100
100
100
100
100
129.095
118.178
108.728
160.874
152.593
149.17
139.601
183.082
190.18
183.672
176.293
168.638
178.846
174.384
187.071
259.766
242.953
221.278
203.194
258.907
267.748
270.622
272.98
224.568
229.595
266.688
256.023
248.524
250.711
256.483
278.936
294.062
283.998
280.237
278.484
194.533
345.406
342.599
400.188
219.559
393.451
415.803
405.212
406.872
199.092
221.841
226.024
414.15
224.335
283.494
192.575
206.419
188.864
216.018
222.296
177.901
145.5
129.942
172.923
111.672
100
100
100
100
100
100
100
100
100
100
100
100
100
100
100
100
100
100
100
100
100
100
100
100
100
100
100
100
100
100
100
100
100
100
100
100
100
100
100
100
100
100
100
100
100
100
100
100
100
100
100
100
100
100
131.289
119.772
109.026
168.073
159.311
152.621
142.597
195.522
199.5
191.781
183.34
175.727
194.11
189.157
201.001
286.482
269.175
244.11
221.123
280.621
293.667
295.733
298.305
269.207
260.838
310.433
291.217
286.729
288.797
293.986
170.67
310.451
335.11
325.167
319.945
318.535
219.403
386.136
381.931
446.89
243.912
435.9
453.518
232.554
247.76
251.801
463.99
150.864
336.811
195.322
144.019
221.723
245.017
252.45
211.397
155.205
134.281
182.56
116.057
100
100
100
100
100
100
100
100
100
100
100
100
100
100
100
100
100
100
100
100
100
100
100
100
100
100
100
100
100
100
100
100
100
100
100
100
100
100
100
100
100
100
100
100
100
100
100
100
100
100
100
100
100
100
100
100
130.381
119.299
106.63
172.622
163.071
153.749
142.45
205.968
208.468
199.41
189.529
181.29
208.387
203.456
212.711
315.666
297.925
269.636
240.836
308.877
316.495
323.217
320.203
300.112
179.286
336.068
326.596
325.384
328.095
334.814
192.198
344.719
373.086
364.675
358.457
357.561
240.667
260.71
182.491
397.686
202.652
259.186
173.855
252.097
243.431
162.696
139.52
187.977
119.243
100.18
100
100
112.395
100
100
100
100
100
100
100
100
100
100
100
100
100
100
100
100
100
100
100
100
100
100
100
100
100
100
100
100
100
100
100
100
100
100
100
100
100
100
100
100
100
100
100
100
100
100
100
100
100
100
100
100
128.855
117.741
103.024
175.046
164.902
153.248
140.969
215.538
216.332
205.95
194.602
185.307
223.288
216.86
222.179
343.768
327.17
299.354
266.86
342.25
342.023
346.472
340.456
198.109
366.273
364.772
363.579
368.849
377.956
213.936
383.994
219.207
457.172
140.725
313.661
208.032
170.167
146.876
195.445
248.421
121.463
100.262
100
100
119.675
100
100
100
100
100
100
100
100
100
100
100
100
100
100
100
100
100
100
100
100
100
100
100
100
100
100
100
100
100
100
100
100
100
100
100
100
100
100
100
100
100
100
100
100
100
100
100
100
100
100
100
100
100
129.51
116.095
100.764
177.674
166.001
155.491
142.859
223.986
222.24
211.86
199.903
189.454
241.424
228.504
230.955
352.686
350.646
331.675
299.872
371.375
194.769
354.795
380.692
219.847
400.324
406.041
236.668
255.1
172.296
377.831
242.113
172.547
146.935
140.02
305.512
123.164
100
100
122.502
122.309
100
100
100
100
100
100
100
100
100
100
100
100
100
100
100
100
100
100
100
100
100
100
100
100
100
100
100
100
100
100
100
100
100
100
100
100
100
100
100
100
100
100
100
100
100
100
100
100
100
100
100
100
100
100
100
130.605
115.203
100.018
182.594
168.954
160.736
146.007
231.729
228.833
219.008
207.122
195.852
265.383
241.342
243.212
192.082
374.32
350.349
333.94
408.417
212.22
383.881
424.543
241.421
208.951
441.803
171.635
236.846
151.402
170.179
372.315
125.951
100.299
100
137.61
122.287
100
100
100
107.584
100
100
100
100
100
100
100
100
100
100
100
100
100
100
100
100
100
100
100
100
100
100
100
100
100
100
100
100
100
100
100
100
100
100
100
100
100
100
100
100
100
100
100
100
100
100
100
100
100
100
100
100
133.264
116.4
100.15
188.868
175.115
167.624
149.912
242.678
241.206
228.815
214.958
202.139
300.169
264.184
266.664
205.177
209.927
359.469
340.679
444.551
233.456
423.245
245.229
185.108
225.614
284.392
159.633
205.432
436.68
131.098
100
100
148.048
121.398
100
100
100
125.99
100
100
100
100
100
100
100
100
100
100
100
100
100
100
100
100
100
100
100
100
100
100
100
100
100
100
100
100
100
100
100
100
100
100
100
100
100
100
100
100
100
100
100
100
100
100
100
100
100
100
100
100
100
137.119
118.084
103.25
198.458
184.54
176.077
155.934
264.881
263.157
243.323
224.981
210.875
335.134
300.238
298.074
221.687
232.96
196.502
393.354
252.231
456.406
199.29
240.736
278.589
341.198
163.386
239.077
128.847
100
100
155.215
119.546
100
100
100
140.821
100
100
100
100
100
100
100
100
100
100
100
100
100
100
100
100
100
100
100
100
100
100
100
100
100
100
100
100
100
100
100
100
100
100
100
100
100
100
100
100
100
100
100
100
100
100
100
100
100
100
100
100
100
100
141.525
121.823
107.155
208.237
193.75
185.343
162.161
292.828
287.597
262.346
240.69
223.084
342.465
332.07
324.271
245.022
251.321
212.733
191.828
438.006
136.423
297.965
342.097
396.962
158.745
222.939
124.787
100
100
158.768
119.354
100
100
106.992
150.354
100
100
100
100
100
100
100
100
100
100
100
100
100
100
100
100
100
100
100
100
100
100
100
100
100
100
100
100
100
100
100
100
100
100
100
100
100
100
100
100
100
100
100
100
100
100
100
100
100
100
100
100
100
100
149.062
127.852
110.428
219.557
203.738
194.624
170.424
315.752
309.168
285.595
262.699
238.955
335.813
320.54
264.938
234.361
212.981
192.003
474.214
166.253
361.96
403.639
154.625
213.677
270.467
122.017
100
100
159.486
118.135
100
100
117.94
154.165
100
100
100
100
100
100
100
100
100
100
100
100
100
100
100
100
100
100
100
100
100
100
100
100
100
100
100
100
100
100
100
100
100
100
100
100
100
100
100
100
100
100
100
100
100
100
100
100
100
100
100
100
100
100
100
156.534
132.778
115.912
231.989
212.836
207.551
181.024
323.168
324.243
307.482
285.787
257.484
185.25
252.316
236.57
213.648
201.445
423.093
153.541
210.88
260.927
326.895
123.696
102.456
100
153.609
116.198
100
100
124.399
152.693
100
100
100
100
100
100
100
100
100
100
100
100
100
100
100
100
100
100
100
100
100
100
100
100
100
100
100
100
100
100
100
100
100
100
100
100
100
100
100
100
100
100
100
100
100
100
100
100
100
100
104.557
111.957
105.028
100.831
100
100
100
161.827
137.317
123.701
247.542
224.475
219.319
189.31
337.766
359.958
327.522
321.706
305.725
277.987
206.065
257.83
237.117
234.483
154.301
209.07
257.489
318.721
381.23
127.076
105.655
129.481
140.958
123.972
100
102.894
127.656
140.71
100
100
100
100
100
100
100
100
100
100
100
100
100
100
100
100
100
100
100
100
100
100
100
100
100
100
100
100
100
100
100
100
100
100
100
100
100
100
100
100
100
100
100
100
100
100
100
100
100
100
100
100
130.424
120.36
114.644
111.137
107.771
102.3
170.89
145.572
269.147
238.844
228.625
198.825
203.068
397.487
200.221
327.102
321.582
300.432
227.503
257.941
158.137
205.287
254.827
313.511
374.841
130.619
108.337
318.626
138.249
164.251
100.787
105.723
123.042
127.81
100
100
100
100
100
100
100
100
100
100
100
100
100
100
100
100
100
100
100
100
100
100
100
100
100
100
100
100
100
100
100
100
100
100
100
100
100
100
100
100
100
100
100
101.343
100
100
100
100
100
100
100
103.054
108.486
100
152.426
137.852
129.421
124.323
120.745
115.032
179.226
290.469
251.24
240.536
209.582
225.78
432.774
216.034
374.606
338.014
333.058
322.976
248.798
163.308
206.987
250.363
309.542
366.622
133.54
110.548
733.943
151.443
249.536
103.27
105.255
113.352
114.986
100
100
100
100
100
100
100
100
100
100
100
100
100
100
100
100
100
100
100
100
100
100
100
100
100
100
100
100
100
100
100
100
100
100
100
100
100
100
100
100
100
100
100
112.98
100
100
100
100
100
100
100
100
102.492
113.952
120.768
100
159.032
146.064
138.295
133.482
127.72
185.599
310.061
265.856
250.643
217.006
245.291
469.254
231.512
400.296
205.218
344.724
337.602
169.008
211.283
251.56
304.483
360.624
135.456
112.006
169.509
108.021
100
103.738
102.791
101.214
100
100
100
100
100
100
100
100
100
100
100
100
100
100
100
100
100
100
100
100
100
100
100
100
100
100
100
100
100
100
100
100
100
100
100
100
100
100
100
100
100
100
100
100
100
124.771
100
100
100
100
100
100
100
100
100
108.793
112.489
125.012
133.111
100
166.207
153.785
146.26
140.388
192.016
329.358
282.876
258.676
223.226
263.662
248.836
425.022
221.893
391.772
355.336
342.731
173.46
219.338
256.793
305.003
354.933
136.279
111.444
107.051
100
100
102.188
100
100
100
100
100
100
100
100
100
100
100
100
100
100
100
100
100
100
100
100
100
100
100
100
100
100
100
100
100
100
100
100
100
100
100
100
100
100
100
100
100
100
100
100
100
100
136.638
103.38
100
100
100
100
100
100
100
100
100
100
117.821
122.588
136.12
145.451
100
172.235
159.81
152.907
196.747
336.83
294.833
266.952
228.09
455.836
236.903
410.48
222.204
341.549
176.162
224.05
265.052
310.985
355.04
132.186
109.547
100
100
100
100.118
100
100
100
100
100
100
100
100
100
100
100
100
100
100
100
100
100
100
100
100
100
100
100
100
100
100
100
100
100
100
100
100
100
100
100
100
100
100
100
100
100
100
100
100
100
100
100
148.433
111.249
100
100
100
100
100
100
100
100
100
100
103.945
127.167
132.859
147.308
157.409
100
176.359
165.391
199.786
345.616
306.699
275.224
232.108
253.06
427.206
230.613
372.463
358.748
175.642
229.593
271.241
319.418
361.296
125.998
106.672
100
100
100
100.03
100
100
100
100
100
100
100
100
100
100
100
100
100
100
100
100
100
100
100
100
100
100
100
100
100
100
100
100
100
100
100
100
100
100
100
100
100
100
100
100
100
100
100
100
100
100
100
159.774
119.555
100
100
100
100
100
100
100
100
100
100
100
100
111.168
136.545
143.303
158.284
168.912
100
180.624
203.027
362.309
321.14
280.698
235.068
450.044
237.533
388.914
387.121
390.073
211.68
166.234
276.517
141.636
327.04
369.307
120.331
106.022
100
100
100
101.638
112.401
100
100
100
100
100
100
100
100
100
100
100
100
100
100
100
100
100
100
100
100
100
100
100
100
100
100
100
100
100
100
100
100
100
100
100
100
100
100
100
100
100
100
100
100
100
170.278
127.683
100
100
100
100
100
100
100
100
100
100
100
100
100
103.272
118.053
145.971
153.668
168.943
183.135
100
203.485
370.657
333.72
276.718
231.69
246.98
400.438
402.963
426.509
409.734
202.11
154.868
331.691
172.28
254.84
378.02
117.557
106.907
100
100
100
110.124
113.827
100
100
100
100
100
100
100
100
100
100
100
100
100
100
100
100
100
100
100
100
100
100
100
100
100
100
100
100
100
100
100
100
100
100
100
100
100
100
100
100
100
100
100
100
100
183.284
135.996
100
100
100
100
100
100
100
100
103.375
104.223
102.099
103.386
100.945
103.204
102.126
109.165
125.287
155.627
164.107
181.646
100
200.962
367.917
332.695
266.627
224.362
413.104
414.718
439.622
235.332
189.433
149.363
382.92
205.629
311.172
243.927
116.654
110.926
100
100
100
127.492
100
100
100
100
100
100
100
100
100
100
100
100
100
100
100
100
100
100
100
100
100
100
100
100
100
100
100
100
100
100
100
100
100
100
100
100
100
100
100
100
100
100
100
100
100
100
144.357
106.045
105.447
100
100
100
100
104.865
103.541
100
109.925
110.739
108.207
110.131
107.804
110.34
109.665
115.553
132.689
165.618
175.679
196.045
100
362.52
378.64
323.664
253.273
214.848
425.231
445.628
244.264
185.587
141.499
235.895
372.147
295.52
238.243
116.345
121.691
100
100
100
129.755
100
100
100
100
100
100
100
100
100
100
100
100
100
100
100
100
100
100
100
100
100
100
100
100
100
100
100
100
100
100
100
100
100
100
100
100
100
100
100
100
100
100
100
100
100
100
152.881
114.34
112.748
100
100
100
100
100.7
100
111.267
109.598
100
117.444
118.161
115.498
117.386
114.888
118.572
118.238
122.168
140.425
174.693
186.885
100
352.425
372.655
394.901
311.977
237.644
202.825
449.467
249.428
187.867
132.83
427.627
354.629
289.454
145.118
121.719
140.854
100
100
100
115.385
100
100
100
100
100
100
100
100
100
100
100
100
100
100
100
100
100
100
100
100
100
100
100
100
100
100
100
100
100
100
100
100
100
100
100
100
100
100
100
100
100
100
100
100
100
100
161.419
123.4
120.742
102.236
100
100
100
100
100
107.015
105.552
118.162
115.926
100
125.281
126.387
123.32
125.967
123.079
127.57
127.789
129.363
149.149
189.279
100
339.11
365.748
390.273
407.015
296.821
221.623
250.085
212.026
174.817
131.138
408.777
346.362
176.008
261.993
134.319
142.043
100
100
100
100
100
100
100
100
100
100
100
100
100
100
100
100
100
100
100
100
100
100
100
100
100
100
100
100
100
100
100
100
100
100
100
100
100
100
100
100
100
100
100
100
100
100
100
100
100
100
100
175.697
133.734
129.831
108.436
100
100
100
100
102.545
100
114.127
112.592
126.148
123.895
100
134.433
136.018
132.297
135.411
131.918
138.1
138.912
138.325
163.32
326.53
357.026
379.657
404.027
408.99
280.975
206.819
206.015
159.817
134.874
398.717
210.295
319.837
154.463
150.737
129.088
100
100
100
100
100
100
100
100
100
100
100
100
100
100
100
100
100
100
100
100
100
100
100
100
100
100
100
100
100
100
100
100
100
100
100
100
100
100
100
100
100
100
100
100
100
100
100
100
100
100
100
145.243
139.502
115.758
100
100
100
100
100
100
109.529
100
123.041
120.9
135.442
133.626
144.293
145.978
141.951
145.962
141.969
150.214
154.499
152.171
193.484
314.575
349.1
370.021
393.236
405.604
264.742
200.964
148.241
145.588
241.043