/*--------------------------------*- C++ -*----------------------------------*\
  =========                 |
  \\      /  F ield         | OpenFOAM: The Open Source CFD Toolbox
   \\    /   O peration     | Website:  https://openfoam.org
    \\  /    A nd           | Version:  dev
     \\/     M anipulation  |
\*---------------------------------------------------------------------------*/
FoamFile
{
    version     2.0;
    format      ascii;
    class       volScalarField;
    location    "2500";
    object      rho;
}
// * * * * * * * * * * * * * * * * * * * * * * * * * * * * * * * * * * * * * //

dimensions      [1 -3 0 0 0 0 0];

internalField   nonuniform List<scalar> 
9978
(
1.17173
1.17154
1.17164
1.17152
1.17123
1.17167
1.17153
1.17106
1.17122
1.17177
1.17156
1.17102
1.1709
1.17128
1.17178
1.1716
1.17106
1.17068
1.17093
1.1714
1.17182
1.17164
1.17114
1.17057
1.17062
1.17102
1.17151
1.17185
1.17171
1.1711
1.17053
1.1704
1.17068
1.17112
1.17156
1.17188
1.17172
1.17122
1.17057
1.17028
1.1704
1.17082
1.17124
1.17159
1.1719
1.17173
1.17118
1.17056
1.17022
1.17017
1.17048
1.17094
1.17131
1.17163
1.17189
1.17175
1.17121
1.17071
1.17021
1.17003
1.17017
1.17061
1.17104
1.1714
1.17167
1.17191
1.17173
1.17124
1.17079
1.1702
1.16991
1.16997
1.17032
1.17074
1.17112
1.17143
1.17169
1.17192
1.17172
1.17129
1.17089
1.17027
1.16986
1.16979
1.17
1.17048
1.17084
1.17121
1.17146
1.1717
1.17192
1.17173
1.17135
1.17086
1.17031
1.16988
1.16967
1.16978
1.17014
1.17056
1.17096
1.17125
1.1715
1.17172
1.17193
1.17176
1.17139
1.17094
1.1705
1.1699
1.1696
1.16962
1.16984
1.17027
1.17067
1.17101
1.17128
1.17151
1.17174
1.17194
1.17177
1.17138
1.17099
1.17048
1.1699
1.16957
1.16946
1.16963
1.16999
1.17043
1.17077
1.17108
1.17132
1.17154
1.17174
1.17194
1.17175
1.17139
1.17097
1.1705
1.17008
1.16956
1.16938
1.16945
1.16971
1.17015
1.17054
1.17084
1.17112
1.17134
1.17155
1.17176
1.17195
1.17178
1.1714
1.17102
1.17059
1.17015
1.16961
1.16932
1.16929
1.1695
1.16989
1.17031
1.17065
1.17091
1.17115
1.17137
1.17156
1.17176
1.17195
1.17178
1.17142
1.17107
1.17064
1.17026
1.16966
1.16925
1.16916
1.16928
1.1696
1.17003
1.17039
1.1707
1.17096
1.17119
1.17139
1.17158
1.17176
1.17195
1.17176
1.17142
1.17106
1.17072
1.17026
1.16971
1.16926
1.16909
1.16913
1.16933
1.16972
1.17015
1.17048
1.17077
1.171
1.17121
1.1714
1.1716
1.17178
1.17195
1.17178
1.17146
1.17109
1.17076
1.17029
1.1699
1.16932
1.16905
1.16899
1.16915
1.16948
1.16986
1.17025
1.17056
1.17083
1.17104
1.17124
1.17142
1.1716
1.17178
1.17196
1.17178
1.17146
1.17111
1.17075
1.17037
1.16995
1.16943
1.16904
1.16891
1.16899
1.16925
1.16961
1.17003
1.17035
1.17062
1.17086
1.17107
1.17125
1.17143
1.1716
1.17178
1.17196
1.17179
1.17146
1.17115
1.1708
1.17043
1.16997
1.1695
1.16906
1.16886
1.16885
1.16902
1.16936
1.16976
1.17015
1.17042
1.17066
1.17089
1.17108
1.17126
1.17144
1.17162
1.17178
1.17196
1.1718
1.17149
1.17116
1.17081
1.17043
1.17009
1.1696
1.16911
1.16882
1.16876
1.16886
1.16914
1.1695
1.1699
1.17023
1.17051
1.17071
1.17092
1.1711
1.17128
1.17145
1.17162
1.17179
1.17196
1.1718
1.1715
1.17118
1.17089
1.17049
1.17015
1.16965
1.16921
1.16885
1.16869
1.16873
1.16891
1.16927
1.16964
1.16999
1.17028
1.17054
1.17076
1.17094
1.17111
1.17128
1.17145
1.17163
1.17179
1.17196
1.17179
1.17153
1.17123
1.17089
1.17056
1.17019
1.16973
1.16929
1.16886
1.16864
1.16862
1.16877
1.16905
1.16941
1.16976
1.17009
1.17037
1.17057
1.17078
1.17096
1.17113
1.17129
1.17147
1.17163
1.1718
1.17196
1.17181
1.17154
1.17126
1.17091
1.17062
1.17021
1.16983
1.16941
1.16895
1.16864
1.16854
1.16862
1.16883
1.16918
1.16956
1.16988
1.17017
1.1704
1.17062
1.17081
1.17097
1.17114
1.1713
1.17146
1.17162
1.17179
1.17196
1.17181
1.17155
1.17129
1.171
1.17064
1.17025
1.16989
1.16949
1.16903
1.16868
1.1685
1.1685
1.16865
1.16895
1.1693
1.16968
1.16998
1.17027
1.17045
1.17066
1.17082
1.17099
1.17114
1.17131
1.17146
1.17164
1.17179
1.17196
1.17181
1.17153
1.17127
1.17098
1.17066
1.17033
1.16996
1.16957
1.16913
1.16875
1.16849
1.16841
1.16851
1.16875
1.16909
1.16945
1.16978
1.17006
1.17029
1.17052
1.17067
1.17084
1.17099
1.17115
1.1713
1.17147
1.17163
1.17179
1.17196
1.17181
1.17156
1.17128
1.171
1.1707
1.17034
1.17002
1.16964
1.16924
1.16883
1.16851
1.16836
1.1684
1.16856
1.16887
1.16921
1.16954
1.16985
1.17014
1.17032
1.17053
1.17069
1.17085
1.17101
1.17115
1.1713
1.17147
1.17163
1.17179
1.17196
1.17181
1.17156
1.17129
1.17107
1.17074
1.17039
1.17006
1.16971
1.16933
1.16892
1.16856
1.16835
1.16831
1.16841
1.16867
1.16899
1.16934
1.16964
1.16995
1.17015
1.17037
1.17055
1.17071
1.17087
1.17102
1.17115
1.1713
1.17146
1.17162
1.17179
1.17195
1.17181
1.17157
1.17131
1.1711
1.17079
1.17048
1.17011
1.16977
1.16943
1.16902
1.16863
1.16836
1.16824
1.1683
1.16849
1.16878
1.16911
1.16945
1.16977
1.17
1.17022
1.1704
1.17056
1.17072
1.17086
1.17101
1.17116
1.1713
1.17145
1.17162
1.17178
1.17196
1.17182
1.17157
1.17134
1.17113
1.17082
1.17049
1.17018
1.16984
1.1695
1.16911
1.16872
1.16839
1.16822
1.1682
1.16834
1.16861
1.16892
1.16924
1.16952
1.16982
1.17004
1.17024
1.17043
1.17058
1.17074
1.17087
1.17102
1.17115
1.17129
1.17145
1.17161
1.17178
1.17195
1.17181
1.17157
1.17135
1.17113
1.17086
1.17055
1.17023
1.1699
1.16958
1.16921
1.16881
1.16849
1.16822
1.16814
1.16822
1.16842
1.16872
1.16904
1.16937
1.16965
1.1699
1.17009
1.17027
1.17045
1.1706
1.17074
1.17087
1.17101
1.17114
1.17129
1.17144
1.1716
1.17178
1.17195
1.17183
1.1716
1.17137
1.17114
1.17091
1.17058
1.17027
1.16996
1.16966
1.16931
1.16894
1.16858
1.16823
1.16811
1.16812
1.16827
1.16853
1.16884
1.16917
1.16948
1.16971
1.16993
1.17012
1.17028
1.17045
1.1706
1.17075
1.17087
1.171
1.17113
1.17128
1.17142
1.17159
1.17186
1.17176
1.17203
1.17186
1.17195
1.17182
1.17159
1.17137
1.17114
1.17093
1.17063
1.17032
1.17002
1.16972
1.16938
1.16903
1.16865
1.16829
1.1681
1.16805
1.16814
1.16835
1.16865
1.16895
1.16926
1.16955
1.16977
1.16999
1.17015
1.17031
1.17046
1.1706
1.17075
1.17087
1.17099
1.17112
1.17126
1.17144
1.17167
1.17158
1.17177
1.17204
1.17186
1.17194
1.17183
1.17161
1.17138
1.17116
1.17093
1.17067
1.17037
1.17008
1.16978
1.16948
1.16914
1.16877
1.16838
1.16812
1.16801
1.16804
1.1682
1.16847
1.16876
1.16909
1.16935
1.16964
1.16983
1.17003
1.17019
1.17034
1.17048
1.17061
1.17074
1.17086
1.17098
1.1711
1.17131
1.17122
1.17148
1.17135
1.17139
1.17167
1.17157
1.17176
1.17204
1.17186
1.17195
1.17181
1.17159
1.17137
1.17118
1.17096
1.17072
1.17042
1.17014
1.16985
1.16955
1.16921
1.16887
1.16847
1.16816
1.168
1.16797
1.16807
1.16829
1.16858
1.16889
1.16919
1.16944
1.16968
1.16987
1.17006
1.17022
1.17035
1.17049
1.17061
1.17073
1.17084
1.17096
1.17114
1.17106
1.17126
1.17147
1.1713
1.17138
1.17166
1.17156
1.17176
1.17204
1.17185
1.17194
1.17181
1.1716
1.17141
1.1712
1.17095
1.17071
1.17047
1.17017
1.16992
1.16962
1.16932
1.169
1.16858
1.16824
1.16801
1.16792
1.16797
1.16814
1.16843
1.1687
1.16901
1.16929
1.16952
1.16973
1.1699
1.17009
1.17024
1.17036
1.17049
1.1706
1.17071
1.17082
1.17098
1.17092
1.17117
1.17108
1.17121
1.17146
1.17128
1.17136
1.17165
1.17155
1.17175
1.17203
1.17184
1.17194
1.17181
1.1716
1.17139
1.17118
1.171
1.17074
1.17051
1.17022
1.16996
1.16967
1.16942
1.1691
1.16873
1.16833
1.16805
1.1679
1.1679
1.16802
1.16823
1.16853
1.16883
1.16915
1.16938
1.16959
1.16979
1.16996
1.17011
1.17025
1.17036
1.17048
1.17059
1.1707
1.17085
1.17078
1.171
1.17092
1.17113
1.17105
1.17119
1.17144
1.17126
1.17134
1.17164
1.17153
1.17174
1.17203
1.17183
1.17193
1.17181
1.17161
1.17141
1.17121
1.17098
1.17076
1.17054
1.17027
1.17003
1.16975
1.16951
1.1692
1.16882
1.16841
1.16811
1.16792
1.16784
1.1679
1.1681
1.16836
1.16867
1.16892
1.16922
1.16945
1.16965
1.16983
1.16998
1.17012
1.17026
1.17036
1.17047
1.17057
1.17072
1.17066
1.17085
1.17078
1.17097
1.1709
1.1711
1.17102
1.17117
1.17142
1.17124
1.17131
1.17162
1.17151
1.17172
1.17203
1.17182
1.17193
1.1718
1.1716
1.17141
1.17122
1.17103
1.17078
1.17053
1.17031
1.17007
1.1698
1.16956
1.16925
1.16892
1.16857
1.16819
1.16794
1.16781
1.16782
1.16797
1.16822
1.16847
1.16878
1.16908
1.16928
1.1695
1.16969
1.16986
1.17
1.17013
1.17025
1.17035
1.17046
1.1706
1.17054
1.17071
1.17065
1.17083
1.17076
1.17094
1.17087
1.17108
1.17099
1.17114
1.17139
1.17121
1.17128
1.17161
1.17149
1.17171
1.17203
1.17181
1.17192
1.17179
1.17158
1.1714
1.17122
1.17103
1.17083
1.17059
1.17035
1.17011
1.16989
1.16963
1.16935
1.16906
1.1687
1.1683
1.168
1.16781
1.16777
1.16785
1.16805
1.16832
1.16861
1.16887
1.16914
1.16936
1.16955
1.16973
1.16988
1.17001
1.17013
1.17024
1.17034
1.17048
1.17042
1.17059
1.17053
1.17069
1.17063
1.1708
1.17073
1.17091
1.17084
1.17105
1.17096
1.17111
1.17136
1.17117
1.17125
1.17158
1.17146
1.17169
1.17202
1.1718
1.17191
1.17178
1.17156
1.17137
1.1712
1.17103
1.17084
1.17063
1.17038
1.17017
1.16994
1.1697
1.16945
1.16917
1.16884
1.16844
1.16808
1.16783
1.16774
1.16777
1.16791
1.16815
1.16845
1.16873
1.16902
1.16923
1.16943
1.1696
1.16976
1.16989
1.17001
1.17012
1.17024
1.17037
1.17031
1.17047
1.17041
1.17057
1.1705
1.17066
1.17059
1.17076
1.17068
1.17087
1.17079
1.17101
1.17092
1.17107
1.17133
1.17113
1.1712
1.17156
1.17142
1.17167
1.17202
1.17178
1.1719
1.17176
1.17153
1.17134
1.17117
1.17101
1.17083
1.17065
1.17042
1.17021
1.16999
1.16976
1.16952
1.16926
1.16896
1.16859
1.16819
1.16789
1.16773
1.1677
1.1678
1.168
1.16829
1.16859
1.16887
1.16911
1.16931
1.16948
1.16963
1.16977
1.16989
1.17
1.1701
1.17024
1.17017
1.17034
1.17027
1.17042
1.17033
1.17051
1.1704
1.1706
1.17047
1.1707
1.17056
1.17082
1.17068
1.17096
1.17083
1.171
1.17128
1.17105
1.17111
1.17153
1.17137
1.17164
1.17202
1.17176
1.17189
1.17173
1.17148
1.17129
1.17113
1.17097
1.17082
1.17064
1.17045
1.17023
1.17003
1.16982
1.1696
1.16935
1.16907
1.16873
1.16834
1.16797
1.16774
1.16766
1.16771
1.16788
1.16813
1.16841
1.1687
1.16897
1.16919
1.16936
1.16952
1.16966
1.16978
1.16988
1.16998
1.17006
1.17011
1.17016
1.17004
1.1702
1.16997
1.17021
1.16988
1.17025
1.1698
1.17033
1.16981
1.17045
1.16994
1.17062
1.17018
1.17083
1.17049
1.17081
1.17118
1.17079
1.17078
1.17148
1.17128
1.17161
1.17202
1.17175
1.17188
1.17169
1.17141
1.17121
1.17106
1.17091
1.17079
1.17062
1.17046
1.17027
1.17005
1.16987
1.16967
1.16943
1.16917
1.16886
1.16849
1.16808
1.16777
1.16764
1.16763
1.16775
1.16799
1.16826
1.16856
1.16881
1.16905
1.16926
1.16942
1.16954
1.16966
1.16976
1.16979
1.16928
1.16981
1.16934
1.16962
1.16894
1.16923
1.16807
1.16884
1.16707
1.16866
1.16629
1.16874
1.16603
1.16907
1.1664
1.16961
1.16738
1.17024
1.16865
1.16991
1.17082
1.16958
1.16932
1.17141
1.17094
1.17156
1.17201
1.17172
1.17186
1.17162
1.17129
1.17109
1.17094
1.17083
1.17073
1.17059
1.17044
1.1703
1.17008
1.1699
1.16973
1.16951
1.16927
1.16898
1.16863
1.16822
1.16785
1.16764
1.16757
1.16765
1.16785
1.16813
1.16841
1.16868
1.16891
1.16912
1.16931
1.16945
1.16954
1.1696
1.16947
1.16811
1.16502
1.16315
1.16807
1.16667
1.16651
1.16432
1.16462
1.16161
1.16291
1.15893
1.16179
1.1569
1.16149
1.15567
1.16234
1.15555
1.16472
1.1572
1.1674
1.16128
1.16601
1.16923
1.16469
1.16369
1.17113
1.16938
1.17136
1.172
1.17161
1.17183
1.17154
1.17115
1.17093
1.17078
1.17069
1.17063
1.17054
1.17042
1.17032
1.17012
1.16992
1.16977
1.16958
1.16936
1.16909
1.16877
1.16837
1.16796
1.16766
1.16755
1.16757
1.16773
1.16797
1.16824
1.16848
1.16874
1.16897
1.16917
1.16934
1.16943
1.16936
1.16873
1.16596
1.16109
1.15871
1.15654
1.15379
1.16186
1.15918
1.15827
1.15473
1.15472
1.1505
1.15172
1.14654
1.14948
1.14329
1.14827
1.14086
1.14863
1.13971
1.15142
1.14084
1.15745
1.14532
1.15384
1.16319
1.15052
1.1482
1.16976
1.16332
1.17033
1.172
1.17097
1.17145
1.17158
1.17107
1.1708
1.17063
1.17052
1.17048
1.17044
1.17037
1.1703
1.17016
1.16996
1.1698
1.16964
1.16944
1.16919
1.1689
1.16853
1.1681
1.16773
1.16755
1.1675
1.16761
1.16782
1.16809
1.16837
1.16858
1.16881
1.16903
1.16918
1.16921
1.16875
1.16699
1.16175
1.15565
1.15469
1.15119
1.1482
1.14478
1.14166
1.15128
1.14795
1.14623
1.14202
1.14144
1.13651
1.13715
1.13122
1.13353
1.12655
1.13101
1.12265
1.13034
1.12018
1.13262
1.12046
1.13904
1.12456
1.13361
1.14687
1.12875
1.12532
1.16414
1.14688
1.16555
1.17147
1.167
1.16704
1.17138
1.17087
1.17061
1.17046
1.17036
1.1703
1.17028
1.17025
1.17018
1.17001
1.16983
1.16968
1.16951
1.16929
1.16902
1.16868
1.16825
1.16784
1.16756
1.16747
1.16752
1.16768
1.16793
1.16824
1.16849
1.16869
1.16888
1.16897
1.16866
1.16704
1.163
1.156
1.14376
1.14583
1.14106
1.13872
1.13554
1.13061
1.12715
1.13801
1.13421
1.1316
1.12686
1.12553
1.1201
1.11983
1.11347
1.11472
1.1074
1.11081
1.10215
1.109
1.09851
1.11051
1.09802
1.11669
1.10153
1.11031
1.12296
1.10508
1.10154
1.14834
1.12215
1.1508
1.15998
1.1508
1.14046
1.17141
1.1709
1.17057
1.17039
1.17026
1.17017
1.17015
1.17015
1.17005
1.16987
1.16972
1.16957
1.16937
1.16913
1.16883
1.16842
1.16799
1.16762
1.16746
1.16745
1.16757
1.16779
1.16806
1.16837
1.16859
1.16877
1.16869
1.16745
1.16344
1.15709
1.14939
1.13726
1.12589
1.12548
1.13259
1.12968
1.12391
1.12047
1.11424
1.11049
1.1224
1.1182
1.11474
1.10962
1.10747
1.10181
1.10054
1.09417
1.0942
1.08713
1.08936
1.08121
1.08665
1.07722
1.08757
1.07648
1.09321
1.07948
1.08713
1.09897
1.08283
1.08061
1.12252
1.09749
1.12241
1.16315
1.1164
1.12215
1.1715
1.17104
1.17061
1.17039
1.17018
1.17007
1.17006
1.17005
1.16991
1.16975
1.16961
1.16945
1.16923
1.16896
1.16859
1.16815
1.16773
1.16747
1.1674
1.16747
1.16765
1.1679
1.1682
1.1685
1.16867
1.16847
1.16605
1.15903
1.15013
1.14187
1.13051
1.11053
1.1117
1.10607
1.11739
1.11414
1.107
1.10341
1.09625
1.09243
1.10486
1.1004
1.09632
1.0911
1.0883
1.08283
1.08078
1.07506
1.07419
1.06836
1.06977
1.06427
1.0691
1.06392
1.07089
1.06565
1.07503
1.06856
1.07267
1.07861
1.07166
1.07073
1.07404
1.09565
1.08618
1.07797
1.09283
1.15208
1.09379
1.09343
1.17158
1.17123
1.17068
1.17038
1.17009
1.16997
1.16998
1.16993
1.16978
1.16965
1.16951
1.16932
1.16907
1.16874
1.16832
1.16787
1.16751
1.16739
1.16739
1.16753
1.16777
1.16804
1.16834
1.16859
1.16835
1.165
1.15474
1.14247
1.13251
1.122
1.10519
1.08914
1.08621
1.09456
1.09162
1.1002
1.09717
1.08889
1.0854
1.07792
1.07447
1.08638
1.08197
1.07768
1.07279
1.06997
1.06517
1.06345
1.05906
1.05991
1.05622
1.06001
1.05677
1.06209
1.05941
1.06526
1.06267
1.06835
1.06601
1.06676
1.06965
1.06879
1.07098
1.07277
1.07003
1.06963
1.06994
1.06952
1.06986
1.08407
1.07623
1.078
1.07177
1.07605
1.08358
1.07535
1.12428
1.0823
1.07399
1.07547
1.07167
1.07966
1.06927
1.17165
1.17137
1.1707
1.17032
1.16997
1.16986
1.16988
1.16982
1.16969
1.16956
1.16939
1.16918
1.16888
1.1685
1.16804
1.16761
1.16739
1.16734
1.16742
1.16763
1.16788
1.16818
1.16847
1.1683
1.16462
1.15173
1.13501
1.12195
1.11002
1.09415
1.08358
1.08055
1.07373
1.07186
1.07761
1.07549
1.08238
1.07984
1.07116
1.06829
1.06127
1.05871
1.06861
1.06459
1.06073
1.05672
1.05514
1.05157
1.05293
1.0499
1.05377
1.0509
1.05675
1.05399
1.06113
1.06012
1.05895
1.05761
1.06526
1.06465
1.06116
1.06281
1.06388
1.06715
1.06834
1.06845
1.0668
1.06959
1.06985
1.06934
1.0695
1.07051
1.07225
1.07086
1.07121
1.07007
1.07078
1.06837
1.06947
1.06895
1.17192
1.14628
1.08768
1.06643
1.0681
1.06427
1.06825
1.1717
1.17144
1.17061
1.17009
1.16976
1.16973
1.16979
1.16972
1.1696
1.16945
1.16926
1.169
1.16866
1.16822
1.16774
1.16742
1.16732
1.16734
1.1675
1.16776
1.16803
1.16832
1.1683
1.16469
1.15056
1.12958
1.11256
1.09775
1.08542
1.07402
1.07078
1.06891
1.06363
1.06407
1.06377
1.06349
1.06615
1.06463
1.05684
1.05619
1.05036
1.05037
1.05361
1.05147
1.04895
1.04723
1.04737
1.04568
1.04829
1.04634
1.0512
1.04871
1.05632
1.05481
1.05342
1.05192
1.06002
1.05868
1.05721
1.06631
1.06565
1.06149
1.06312
1.06461
1.06856
1.07013
1.07063
1.06835
1.07209
1.07166
1.06887
1.07176
1.07376
1.07414
1.07629
1.0751
1.06727
1.06615
1.06782
1.06514
1.06411
1.17076
1.15358
1.10506
1.06279
1.06131
1.06185
1.07311
1.17176
1.17128
1.1703
1.1696
1.1694
1.16962
1.1697
1.16964
1.1695
1.16934
1.16911
1.16881
1.16839
1.1679
1.1675
1.16731
1.16728
1.16738
1.16762
1.16788
1.16818
1.16831
1.16532
1.15075
1.12699
1.10621
1.09424
1.08554
1.07647
1.06893
1.07177
1.0651
1.06635
1.06058
1.06241
1.05784
1.05912
1.0563
1.05681
1.05087
1.05204
1.04712
1.0485
1.04646
1.04657
1.04479
1.04475
1.04485
1.04463
1.04667
1.0458
1.0507
1.04962
1.04875
1.04823
1.05571
1.0542
1.05279
1.05153
1.05997
1.05834
1.05669
1.06771
1.06653
1.06142
1.06295
1.06486
1.07065
1.07296
1.07314
1.07
1.07546
1.07609
1.07126
1.07647
1.0784
1.07807
1.08072
1.08026
1.06642
1.06483
1.06997
1.06305
1.06137
1.16886
1.11072
1.14529
1.05978
1.05903
1.06185
1.07652
1.17181
1.17079
1.16951
1.16867
1.16904
1.16953
1.16964
1.16955
1.1694
1.1692
1.16892
1.16856
1.16806
1.16761
1.16734
1.16725
1.1673
1.16747
1.16775
1.16803
1.16828
1.16655
1.1523
1.12698
1.106
1.09537
1.08847
1.08396
1.08748
1.07317
1.08305
1.06478
1.06851
1.06253
1.06618
1.0573
1.05966
1.05353
1.05528
1.05051
1.05302
1.04919
1.05245
1.04524
1.04663
1.04512
1.04675
1.04638
1.0479
1.04797
1.04806
1.04935
1.05054
1.04986
1.04954
1.04954
1.05514
1.05376
1.05261
1.05176
1.0596
1.05782
1.05625
1.06862
1.06675
1.06098
1.06253
1.06464
1.07245
1.0758
1.07511
1.07092
1.07858
1.08165
1.07591
1.08223
1.08329
1.08146
1.08438
1.08559
1.06797
1.06546
1.07426
1.06281
1.06032
1.16615
1.10756
1.13866
1.05847
1.05832
1.06238
1.07754
1.17181
1.16993
1.16816
1.16767
1.16879
1.16947
1.16955
1.16945
1.16926
1.16903
1.16872
1.16823
1.16775
1.1674
1.16725
1.16723
1.16735
1.16761
1.16788
1.16817
1.1675
1.15635
1.12877
1.10727
1.09869
1.09651
1.10237
1.11789
1.10946
1.12428
1.0857
1.09701
1.07094
1.07739
1.07072
1.07642
1.06232
1.06616
1.05587
1.05895
1.0561
1.05995
1.0571
1.06145
1.04963
1.05311
1.05011
1.05261
1.05033
1.0513
1.04973
1.04999
1.04964
1.05027
1.0513
1.05113
1.05111
1.05111
1.05491
1.05388
1.0532
1.05278
1.05914
1.05754
1.05627
1.06884
1.06654
1.06062
1.06232
1.06431
1.07342
1.07795
1.07616
1.07116
1.08093
1.08737
1.08162
1.08817
1.08726
1.08405
1.08725
1.08991
1.07154
1.06805
1.07964
1.06427
1.06068
1.16401
1.10508
1.1348
1.05822
1.0582
1.0625
1.07744
1.1717
1.16854
1.16651
1.16693
1.16869
1.16942
1.16945
1.16933
1.16914
1.16885
1.16839
1.16791
1.1675
1.16727
1.16718
1.16725
1.16745
1.16773
1.16803
1.16796
1.16085
1.134
1.11031
1.1034
1.1078
1.12554
1.14459
1.15489
1.13315
1.1497
1.10446
1.11824
1.08367
1.09295
1.0845
1.09243
1.07281
1.07813
1.06396
1.06818
1.06602
1.07078
1.06298
1.06773
1.05555
1.05895
1.05199
1.05357
1.04899
1.04809
1.04675
1.04737
1.05101
1.0508
1.04534
1.04712
1.05248
1.05219
1.05176
1.05113
1.05532
1.05463
1.05404
1.0534
1.05902
1.05774
1.05673
1.06871
1.06636
1.06064
1.06236
1.06423
1.07375
1.07914
1.07667
1.07118
1.08237
1.09215
1.0875
1.0934
1.09029
1.08579
1.08945
1.09322
1.07627
1.07182
1.08522
1.06685
1.06201
1.16475
1.1022
1.13256
1.0585
1.05812
1.06214
1.07595
1.17128
1.16672
1.16493
1.16664
1.16872
1.16936
1.16936
1.16921
1.16892
1.16854
1.16807
1.16763
1.16733
1.16718
1.16718
1.16732
1.1676
1.16787
1.16806
1.16446
1.14163
1.11454
1.10709
1.11726
1.1415
1.15722
1.16447
1.16606
1.16772
1.15508
1.16288
1.12866
1.14343
1.1023
1.11436
1.10292
1.11334
1.08738
1.09446
1.07582
1.08126
1.07325
1.07961
1.06281
1.06782
1.05591
1.05888
1.04376
1.04453
1.04358
1.04197
1.03982
1.0407
1.05016
1.04878
1.03768
1.04016
1.05258
1.05145
1.04988
1.04788
1.05583
1.05487
1.05369
1.05214
1.05922
1.05794
1.05663
1.06869
1.06639
1.06065
1.06214
1.06424
1.07396
1.07987
1.07711
1.07134
1.08337
1.09576
1.09288
1.09734
1.09285
1.08712
1.09105
1.09598
1.08131
1.07605
1.09031
1.06998
1.06378
1.1678
1.09793
1.13199
1.05895
1.05789
1.06132
1.07336
1.17012
1.16445
1.16394
1.16676
1.16881
1.16928
1.16918
1.16896
1.16863
1.1682
1.16777
1.16742
1.16719
1.16713
1.16721
1.16744
1.16772
1.16801
1.16655
1.14968
1.12067
1.10936
1.12172
1.14754
1.16079
1.1667
1.16862
1.16833
1.16872
1.16516
1.16742
1.15195
1.16044
1.12602
1.13984
1.12382
1.13583
1.10343
1.11291
1.08681
1.09482
1.07406
1.08171
1.05245
1.05732
1.04611
1.04877
1.03502
1.03685
1.03819
1.04007
1.03561
1.03407
1.03385
1.03343
1.04547
1.04283
1.02992
1.03188
1.05012
1.04759
1.04458
1.04127
1.05516
1.05335
1.05104
1.04814
1.05896
1.05714
1.05508
1.06885
1.06641
1.05995
1.06119
1.06388
1.07435
1.08058
1.07777
1.07167
1.08438
1.09853
1.09715
1.10014
1.09486
1.08844
1.0926
1.09826
1.08605
1.08023
1.09456
1.0732
1.06559
1.16685
1.09164
1.12491
1.05932
1.05752
1.06022
1.06992
1.16787
1.16225
1.16393
1.16712
1.16883
1.16908
1.16893
1.16859
1.16824
1.16784
1.16749
1.16722
1.1671
1.16713
1.16728
1.1676
1.16787
1.16746
1.15697
1.1286
1.1116
1.12171
1.14738
1.16008
1.16613
1.16847
1.16889
1.16886
1.16861
1.16882
1.16728
1.16817
1.16244
1.16557
1.14748
1.1567
1.13704
1.1479
1.11255
1.12478
1.09077
1.10113
1.064
1.0732
1.04842
1.05051
1.04148
1.04324
1.04583
1.03516
1.03777
1.04061
1.04306
1.02918
1.02968
1.03288
1.03109
1.03783
1.03462
1.02639
1.02622
1.04468
1.04082
1.03681
1.03299
1.05258
1.04944
1.04568
1.04143
1.05759
1.05482
1.05147
1.06895
1.06604
1.05815
1.05915
1.06287
1.07496
1.08153
1.07869
1.07206
1.08566
1.10062
1.10008
1.10201
1.09659
1.08997
1.0942
1.10002
1.09014
1.084
1.09775
1.07613
1.06721
1.12978
1.0827
1.08925
1.05945
1.05703
1.05901
1.06601
1.16393
1.16148
1.16434
1.16764
1.16873
1.1688
1.16853
1.16818
1.16781
1.16749
1.16722
1.16707
1.16706
1.16717
1.16744
1.1677
1.16773
1.16234
1.13805
1.11549
1.12004
1.14511
1.15668
1.1632
1.16742
1.16876
1.16892
1.16892
1.16851
1.16881
1.16698
1.16792
1.16368
1.16562
1.15585
1.16076
1.13791
1.14687
1.11145
1.12549
1.08449
1.09745
1.0532
1.05791
1.05972
1.05687
1.04502
1.04667
1.05683
1.05699
1.0403
1.04474
1.04903
1.0525
1.02759
1.02942
1.03594
1.0321
1.02966
1.02727
1.0262
1.02465
1.03694
1.03259
1.0288
1.0259
1.04745
1.0429
1.03806
1.03329
1.05452
1.05017
1.04523
1.06883
1.06514
1.05462
1.05558
1.06086
1.07566
1.08288
1.07957
1.07205
1.08714
1.10214
1.1018
1.10295
1.09798
1.0913
1.09519
1.1011
1.09338
1.08709
1.09982
1.0785
1.0682
1.12958
1.07134
1.08006
1.05935
1.05643
1.05757
1.06173
1.16026
1.16184
1.16541
1.16783
1.16843
1.16824
1.16786
1.16757
1.16734
1.16715
1.16703
1.16701
1.16707
1.16726
1.16757
1.16775
1.16548
1.1479
1.12177
1.11837
1.13982
1.15154
1.15783
1.16391
1.16826
1.16889
1.16893
1.16896
1.16812
1.16871
1.1648
1.16689
1.15877
1.16194
1.15224
1.15569
1.1222
1.13098
1.09483
1.10975
1.06693
1.07966
1.05445
1.05404
1.06851
1.07826
1.07554
1.0728
1.06904
1.05503
1.05656
1.06922
1.04866
1.05485
1.06044
1.06473
1.02844
1.03209
1.04244
1.03681
1.02432
1.02411
1.02746
1.02506
1.02902
1.0256
1.02343
1.02268
1.04001
1.03485
1.03014
1.02625
1.04922
1.04324
1.03731
1.06794
1.06307
1.04923
1.04985
1.05706
1.07556
1.08348
1.07923
1.07102
1.08747
1.10279
1.10253
1.10311
1.09863
1.09141
1.09516
1.1013
1.09573
1.08928
1.10064
1.07995
1.0687
1.1475
1.06565
1.08883
1.05896
1.05558
1.05566
1.05882
1.16018
1.16314
1.16627
1.1675
1.16746
1.16691
1.16659
1.16659
1.16672
1.16681
1.16688
1.16696
1.16711
1.16743
1.16767
1.1669
1.15624
1.13027
1.11854
1.13179
1.14612
1.15211
1.15849
1.16673
1.16865
1.169
1.169
1.16893
1.16894
1.16759
1.1686
1.1613
1.16536
1.14863
1.15539
1.13702
1.14241
1.09593
1.10594
1.07193
1.08408
1.05571
1.06151
1.06762
1.06108
1.08004
1.08845
1.08554
1.08215
1.07806
1.06763
1.06903
1.08097
1.057
1.06478
1.07167
1.0767
1.03121
1.03599
1.04901
1.04191
1.02275
1.02361
1.0305
1.02703
1.02348
1.02207
1.02177
1.02202
1.03199
1.02761
1.02432
1.02225
1.0423
1.03554
1.02983
1.06555
1.05871
1.04205
1.04196
1.05055
1.07429
1.083
1.07762
1.06806
1.08683
1.10279
1.10246
1.1028
1.09848
1.09068
1.0943
1.10086
1.09686
1.09044
1.10034
1.08057
1.06863
1.15605
1.06634
1.09784
1.05811
1.05435
1.05389
1.05725
1.16126
1.16457
1.1659
1.16586
1.16481
1.16399
1.16419
1.16513
1.16598
1.16649
1.16677
1.16696
1.16722
1.1675
1.16738
1.16188
1.14
1.12026
1.1249
1.13992
1.14645
1.15243
1.16245
1.16803
1.16882
1.16904
1.16906
1.16897
1.16896
1.16715
1.16855
1.15665
1.16357
1.13453
1.14635
1.11448
1.12355
1.07309
1.08225
1.05872
1.06475
1.05701
1.05657
1.08114
1.07592
1.07231
1.09039
1.09694
1.094
1.09027
1.08602
1.07981
1.08099
1.09126
1.06362
1.07286
1.08115
1.08685
1.03489
1.04032
1.05479
1.04693
1.02296
1.02446
1.03384
1.02982
1.02144
1.02135
1.02167
1.02268
1.0257
1.0231
1.0217
1.0213
1.03474
1.02878
1.02477
1.06036
1.05104
1.03421
1.03356
1.04156
1.07068
1.08097
1.07312
1.0617
1.08454
1.10198
1.10146
1.10137
1.09714
1.08813
1.09111
1.09907
1.09639
1.09043
1.09854
1.08057
1.06765
1.16069
1.06867
1.10158
1.05689
1.05288
1.05237
1.05678
1.16261
1.16406
1.16346
1.16168
1.16025
1.16019
1.16141
1.16345
1.16526
1.16622
1.16666
1.167
1.16737
1.16744
1.16508
1.14965
1.12551
1.12242
1.13324
1.14088
1.14633
1.15598
1.16649
1.16855
1.16892
1.16909
1.1691
1.16902
1.16903
1.16706
1.16858
1.15357
1.16285
1.12022
1.13832
1.09232
1.10445
1.06145
1.06816
1.05762
1.05839
1.06459
1.05948
1.08819
1.08269
1.08477
1.07919
1.09887
1.10372
1.10091
1.0973
1.09299
1.0901
1.09122
1.09953
1.07079
1.08031
1.08863
1.09474
1.03884
1.04498
1.06124
1.05243
1.02421
1.02663
1.03765
1.0332
1.02137
1.0218
1.02287
1.02426
1.02252
1.02177
1.02169
1.02196
1.02822
1.02437
1.02292
1.05099
1.04055
1.02784
1.02883
1.03288
1.06295
1.076
1.06487
1.0511
1.07922
1.09939
1.09893
1.09825
1.09367
1.08205
1.0852
1.09496
1.09456
1.08895
1.09586
1.0793
1.06611
1.16919
1.06987
1.11576
1.05523
1.05142
1.05118
1.05667
1.16164
1.16057
1.15801
1.15618
1.15576
1.15688
1.15917
1.16204
1.16464
1.16599
1.16667
1.16713
1.16737
1.16655
1.15736
1.13396
1.12272
1.12732
1.13531
1.14053
1.14906
1.16231
1.16801
1.16876
1.16902
1.16906
1.16896
1.16915
1.16915
1.16912
1.16733
1.16877
1.15318
1.16306
1.11426
1.13604
1.07845
1.09374
1.06246
1.06646
1.0636
1.06179
1.07568
1.06839
1.09575
1.09058
1.09427
1.08766
1.10541
1.10983
1.10733
1.10418
1.10032
1.09816
1.09937
1.1057
1.07823
1.08819
1.09612
1.10123
1.04313
1.04988
1.06785
1.0581
1.0267
1.02957
1.04156
1.03688
1.0225
1.02353
1.02509
1.02741
1.02255
1.02268
1.02315
1.02383
1.02506
1.02405
1.02392
1.04026
1.03502
1.02686
1.03121
1.03213
1.052
1.06727
1.05486
1.04354
1.07052
1.09571
1.09634
1.09555
1.08816
1.07498
1.07982
1.09112
1.09189
1.08637
1.09304
1.07759
1.0637
1.16897
1.06958
1.11358
1.05358
1.04994
1.05036
1.05589
1.1571
1.15435
1.15202
1.15132
1.15227
1.15461
1.15778
1.16116
1.16419
1.16593
1.16675
1.16723
1.16704
1.16224
1.14301
1.12468
1.12399
1.13004
1.13512
1.14248
1.15532
1.16673
1.16852
1.16886
1.1691
1.16906
1.16899
1.16922
1.16919
1.16922
1.16802
1.16902
1.15573
1.16459
1.11602
1.13889
1.07654
1.0936
1.07457
1.07778
1.07932
1.07555
1.09389
1.08877
1.08714
1.10462
1.09992
1.10644
1.10077
1.11118
1.1165
1.11444
1.11181
1.10857
1.10427
1.10546
1.11138
1.08563
1.09604
1.10371
1.10796
1.04735
1.05468
1.07432
1.06362
1.0299
1.03322
1.04541
1.04071
1.02534
1.02687
1.02884
1.03108
1.02443
1.02506
1.02645
1.02795
1.02617
1.02635
1.02745
1.03933
1.03752
1.03146
1.03714
1.03718
1.04838
1.06018
1.05409
1.04435
1.06654
1.09289
1.09354
1.09315
1.08507
1.07292
1.07932
1.08905
1.08928
1.08408
1.09048
1.07414
1.06142
0.877813
1.06564
1.08903
1.05172
1.04865
1.04942
1.05383
1.15049
1.14815
1.14707
1.14788
1.15022
1.15357
1.15738
1.16102
1.16407
1.16602
1.16691
1.16706
1.16483
1.1515
1.12994
1.12345
1.12583
1.13023
1.1365
1.14822
1.1637
1.16813
1.1687
1.16894
1.16914
1.1691
1.16904
1.16927
1.16923
1.1693
1.16878
1.16925
1.16083
1.16681
1.12723
1.14763
1.08783
1.1053
1.09869
1.10089
1.10826
1.10147
1.10957
1.10181
1.11413
1.10945
1.11478
1.11102
1.11949
1.11524
1.11754
1.12399
1.12246
1.12043
1.1179
1.11025
1.11117
1.11763
1.09286
1.10386
1.11133
1.11479
1.05132
1.0592
1.08032
1.0686
1.03375
1.03689
1.0489
1.04447
1.02948
1.0315
1.03355
1.03574
1.02869
1.03113
1.0325
1.03453
1.03365
1.03536
1.03845
1.04296
1.04122
1.03714
1.06935
1.06968
1.05159
1.06075
1.05818
1.04825
1.06946
1.09167
1.09189
1.09238
1.08461
1.07645
1.08254
1.08919
1.08673
1.08135
1.08908
1.07224
1.0587
0.451454
1.05706
0.989599
1.05007
1.04745
1.04809
1.0503
1.1442
1.14328
1.14382
1.14616
1.14965
1.1537
1.15766
1.16123
1.16417
1.16619
1.1669
1.16591
1.15766
1.13699
1.1242
1.12316
1.12614
1.13126
1.14148
1.15786
1.16731
1.16852
1.16879
1.169
1.16906
1.16918
1.16914
1.16931
1.16926
1.16936
1.16924
1.16937
1.16574
1.1685
1.14356
1.15806
1.11015
1.1256
1.13138
1.13038
1.13847
1.12503
1.13511
1.13547
1.12611
1.12111
1.132
1.12544
1.12281
1.13179
1.12944
1.12459
1.1316
1.13077
1.1294
1.12764
1.11662
1.11741
1.12456
1.09792
1.11123
1.11868
1.12167
1.05415
1.06154
1.08334
1.07117
1.03822
1.04121
1.05112
1.04827
1.03637
1.03835
1.03979
1.04127
1.03896
1.04128
1.04172
1.04262
1.03617
1.07187
1.07198
1.07093
1.06914
1.06866
1.09758
1.09724
1.07343
1.06494
1.0763
1.06941
1.08257
1.09204
1.09073
1.09149
1.08799
1.08557
1.09007
1.09142
1.0852
1.07931
1.08689
1.0684
1.0561
0.384321
1.04429
0.798083
1.04872
1.04611
1.0461
1.04734
1.13955
1.14029
1.14242
1.14595
1.15024
1.15462
1.15861
1.16195
1.1646
1.16646
1.16612
1.16106
1.14381
1.12671
1.12215
1.12306
1.12692
1.13556
1.15091
1.1656
1.16828
1.16864
1.16886
1.16909
1.1691
1.16912
1.16902
1.16923
1.16919
1.16934
1.1693
1.16941
1.16942
1.16944
1.16834
1.16922
1.15863
1.16552
1.13676
1.14764
1.15388
1.15504
1.14005
1.14446
1.14479
1.15185
1.13646
1.13533
1.13979
1.13475
1.13347
1.13707
1.13697
1.13171
1.13632
1.13633
1.13601
1.13553
1.12342
1.12423
1.13156
1.0994
1.11433
1.12468
1.12832
1.0562
1.06228
1.08401
1.072
1.04288
1.04465
1.05284
1.05037
1.04349
1.04445
1.04546
1.04656
1.0708
1.072
1.07179
1.07214
1.06769
1.09816
1.0983
1.09757
1.09746
1.09741
1.12755
1.12746
1.09827
1.07647
1.09963
1.09723
1.10228
1.09228
1.0894
1.09195
1.0937
1.10429
1.1067
1.09676
1.08292
1.07605
1.08672
1.06573
1.05308
0.343793
1.00342
0.477079
1.04711
1.04464
1.04439
1.03845
1.13706
1.139
1.14229
1.14673
1.1516
1.15623
1.16012
1.16317
1.16549
1.16594
1.16242
1.14923
1.13121
1.12232
1.12098
1.12354
1.13056
1.14446
1.16255
1.1679
1.16849
1.16871
1.16892
1.16918
1.16914
1.16922
1.16904
1.16927
1.16937
1.16934
1.16943
1.1695
1.16949
1.16924
1.16947
1.16639
1.16845
1.15796
1.16257
1.15813
1.1637
1.14229
1.14398
1.14816
1.15352
1.14478
1.14572
1.13807
1.13891
1.13905
1.13711
1.13695
1.13622
1.13711
1.1362
1.13672
1.13701
1.13712
1.13716
1.13021
1.1311
1.13595
1.09858
1.11423
1.12711
1.1318
1.0577
1.06232