/*--------------------------------*- C++ -*----------------------------------*\
  =========                 |
  \\      /  F ield         | OpenFOAM: The Open Source CFD Toolbox
   \\    /   O peration     | Website:  https://openfoam.org
    \\  /    A nd           | Version:  dev
     \\/     M anipulation  |
\*---------------------------------------------------------------------------*/
FoamFile
{
    version     2.0;
    format      ascii;
    class       volScalarField;
    location    "2500";
    object      T;
}
// * * * * * * * * * * * * * * * * * * * * * * * * * * * * * * * * * * * * * //

dimensions      [0 0 0 1 0 0 0];

internalField   nonuniform List<scalar> 
9978
(
300.096
300.142
300.118
300.147
300.222
300.111
300.143
300.266
300.226
300.085
300.135
300.275
300.307
300.21
300.081
300.124
300.264
300.363
300.3
300.18
300.072
300.115
300.244
300.391
300.377
300.276
300.15
300.064
300.097
300.252
300.401
300.434
300.362
300.251
300.139
300.057
300.093
300.222
300.389
300.464
300.433
300.327
300.22
300.131
300.053
300.089
300.231
300.391
300.479
300.491
300.413
300.297
300.201
300.121
300.053
300.084
300.224
300.351
300.48
300.528
300.491
300.379
300.271
300.178
300.111
300.048
300.088
300.214
300.33
300.483
300.558
300.543
300.454
300.346
300.25
300.17
300.106
300.046
300.09
300.2
300.303
300.464
300.569
300.587
300.534
300.414
300.321
300.225
300.163
300.103
300.046
300.087
300.184
300.31
300.452
300.563
300.619
300.592
300.499
300.391
300.291
300.215
300.153
300.098
300.044
300.078
300.173
300.289
300.403
300.557
300.636
300.632
300.574
300.466
300.363
300.276
300.209
300.15
300.091
300.042
300.075
300.174
300.276
300.407
300.556
300.643
300.671
300.629
300.537
300.423
300.337
300.259
300.199
300.142
300.092
300.041
300.079
300.173
300.281
300.402
300.511
300.645
300.692
300.675
300.608
300.496
300.396
300.319
300.25
300.194
300.14
300.087
300.04
300.071
300.17
300.268
300.379
300.491
300.632
300.705
300.715
300.662
300.561
300.455
300.369
300.302
300.24
300.186
300.137
300.087
300.038
300.07
300.162
300.253
300.363
300.463
300.618
300.723
300.748
300.719
300.635
300.526
300.433
300.354
300.289
300.232
300.18
300.133
300.086
300.04
300.074
300.161
300.257
300.342
300.461
300.603
300.719
300.766
300.756
300.703
300.606
300.495
300.41
300.339
300.279
300.225
300.177
300.127
300.082
300.039
300.069
300.153
300.248
300.331
300.454
300.555
300.703
300.775
300.79
300.751
300.666
300.568
300.468
300.392
300.321
300.269
300.219
300.172
300.127
300.082
300.037
300.068
300.151
300.241
300.333
300.433
300.542
300.675
300.775
300.81
300.791
300.725
300.634
300.525
300.444
300.376
300.314
300.262
300.217
300.17
300.126
300.083
300.037
300.066
300.151
300.229
300.32
300.417
300.536
300.656
300.771
300.823
300.825
300.782
300.695
300.593
300.495
300.425
300.364
300.307
300.258
300.212
300.169
300.123
300.081
300.038
300.063
300.143
300.226
300.318
300.415
300.503
300.631
300.756
300.833
300.849
300.824
300.752
300.659
300.559
300.473
300.403
300.353
300.299
300.253
300.208
300.166
300.122
300.079
300.037
300.062
300.14
300.22
300.296
300.401
300.487
300.617
300.73
300.824
300.866
300.855
300.809
300.719
300.623
300.534
300.462
300.396
300.34
300.293
300.25
300.208
300.164
300.119
300.079
300.035
300.063
300.131
300.207
300.295
300.381
300.478
300.595
300.709
300.821
300.878
300.884
300.847
300.773
300.683
300.592
300.509
300.438
300.387
300.335
300.289
300.247
300.205
300.161
300.119
300.077
300.037
300.057
300.127
300.198
300.289
300.364
300.472
300.569
300.677
300.798
300.877
300.904
300.884
300.831
300.741
300.645
300.562
300.488
300.429
300.374
300.327
300.285
300.244
300.203
300.163
300.121
300.079
300.036
300.056
300.124
300.19
300.266
300.36
300.459
300.553
300.658
300.775
300.867
300.914
300.915
300.875
300.799
300.71
300.614
300.536
300.462
300.419
300.363
300.323
300.282
300.242
300.2
300.162
300.118
300.08
300.037
300.056
300.127
300.196
300.269
300.352
300.44
300.533
300.634
300.749
300.848
300.916
300.938
300.911
300.849
300.764
300.671
300.588
300.516
300.458
300.401
300.36
300.319
300.28
300.24
300.202
300.16
300.119
300.08
300.037
300.055
300.12
300.192
300.264
300.343
300.436
300.519
300.618
300.72
300.827
300.91
300.948
300.94
300.898
300.82
300.732
300.647
300.57
300.496
300.45
300.396
300.357
300.316
300.277
300.24
300.203
300.161
300.12
300.079
300.037
300.055
300.119
300.189
300.246
300.331
300.422
300.508
300.598
300.697
300.801
300.896
300.95
300.963
300.936
300.871
300.787
300.698
300.622
300.543
300.494
300.437
300.391
300.352
300.312
300.274
300.24
300.203
300.163
300.123
300.08
300.038
300.054
300.117
300.183
300.237
300.317
300.397
300.493
300.581
300.669
300.776
300.877
300.947
300.978
300.965
300.916
300.841
300.756
300.671
300.59
300.53
300.474
300.43
300.389
300.35
300.313
300.275
300.239
300.203
300.165
300.123
300.081
300.037
300.05
300.114
300.174
300.229
300.309
300.394
300.475
300.563
300.652
300.753
300.853
300.938
300.984
300.988
300.955
300.885
300.806
300.724
300.653
300.576
300.522
300.47
300.423
300.385
300.344
300.311
300.274
300.242
300.204
300.165
300.125
300.083
300.039
300.052
300.113
300.171
300.229
300.299
300.38
300.462
300.548
300.631
300.725
300.829
300.912
300.983
301.003
300.985
300.934
300.857
300.774
300.69
300.62
300.556
300.508
300.461
300.417
300.378
300.344
300.311
300.276
300.243
300.206
300.168
300.127
300.081
300.038
300.048
300.106
300.166
300.226
300.286
300.371
300.451
300.53
300.609
300.7
300.795
300.889
300.979
301.011
301.009
300.972
300.904
300.827
300.743
300.662
300.604
300.547
300.5
300.458
300.417
300.378
300.342
300.31
300.278
300.245
300.209
300.172
300.13
300.063
300.086
300.018
300.061
300.039
300.048
300.109
300.166
300.225
300.279
300.358
300.436
300.515
300.593
300.681
300.771
300.869
300.962
301.013
301.026
301.004
300.949
300.875
300.798
300.718
300.644
300.588
300.534
300.492
300.452
300.413
300.378
300.342
300.311
300.28
300.248
300.213
300.168
300.109
300.133
300.084
300.017
300.062
300.04
300.045
300.103
300.161
300.219
300.28
300.347
300.423
300.5
300.577
300.654
300.744
300.838
300.94
301.008
301.035
301.028
300.988
300.921
300.845
300.761
300.695
300.621
300.573
300.522
300.481
300.444
300.408
300.376
300.344
300.314
300.284
300.252
300.201
300.222
300.158
300.19
300.181
300.109
300.134
300.087
300.017
300.063
300.04
300.05
300.107
300.163
300.212
300.269
300.334
300.41
300.482
300.558
300.635
300.723
300.813
300.914
300.995
301.037
301.047
301.021
300.965
300.891
300.813
300.734
300.672
300.612
300.563
300.514
300.473
300.441
300.408
300.376
300.347
300.318
300.289
300.244
300.263
300.213
300.159
300.203
300.184
300.112
300.137
300.088
300.017
300.064
300.041
300.048
300.104
300.153
300.207
300.272
300.334
300.397
300.473
300.539
300.617
300.694
300.779
300.886
300.976
301.035
301.059
301.046
301.003
300.93
300.859
300.782
300.71
300.652
300.599
300.555
300.507
300.469
300.439
300.407
300.378
300.35
300.323
300.283
300.3
300.237
300.259
300.225
300.163
300.208
300.189
300.114
300.141
300.09
300.017
300.066
300.042
300.048
300.102
300.156
300.211
300.259
300.326
300.387
300.461
300.529
300.603
300.668
300.751
300.848
300.951
301.024
301.062
301.065
301.033
300.98
300.903
300.827
300.745
300.688
300.634
300.582
300.541
300.502
300.466
300.438
300.408
300.381
300.355
300.317
300.333
300.28
300.299
300.246
300.267
300.231
300.168
300.213
300.194
300.118
300.146
300.093
300.018
300.068
300.043
300.048
300.1
300.151
300.205
300.263
300.32
300.378
300.448
300.51
300.582
300.645
300.725
300.824
300.929
301.007
301.058
301.079
301.063
301.014
300.946
300.867
300.803
300.728
300.67
300.619
300.573
300.534
300.498
300.465
300.439
300.411
300.385
300.349
300.365
300.317
300.334
300.286
300.305
300.253
300.274
300.237
300.173
300.219
300.2
300.121
300.151
300.096
300.019
300.071
300.045
300.048
300.102
300.15
300.2
300.25
300.315
300.379
300.435
300.499
300.568
300.631
300.71
300.797
300.888
300.986
301.05
301.085
301.083
301.046
300.983
300.918
300.84
300.763
300.711
300.655
300.608
300.565
300.528
300.496
300.466
300.44
300.414
300.38
300.394
300.351
300.367
300.322
300.339
300.293
300.312
300.26
300.281
300.244
300.179
300.227
300.208
300.126
300.157
300.1
300.019
300.074
300.047
300.05
300.105
300.153
300.2
300.249
300.301
300.363
300.426
300.487
300.545
300.613
300.684
300.76
300.853
300.956
301.036
301.086
301.096
301.075
301.026
300.956
300.881
300.816
300.748
300.691
300.642
300.598
300.559
300.526
300.496
300.468
300.443
300.409
300.423
300.382
300.397
300.356
300.372
300.33
300.347
300.301
300.32
300.267
300.289
300.252
300.187
300.236
300.217
300.131
300.164
300.105
300.02
300.078
300.049
300.053
300.11
300.159
300.203
300.249
300.297
300.353
300.416
300.472
300.531
300.593
300.659
300.731
300.818
300.92
301.015
301.079
301.103
301.097
301.06
301
300.922
300.851
300.778
300.724
300.674
300.631
300.591
300.556
300.528
300.499
300.47
300.438
300.452
300.412
300.427
300.388
300.404
300.364
300.382
300.339
300.358
300.311
300.331
300.277
300.3
300.262
300.197
300.247
300.23
300.138
300.173
300.111
300.021
300.082
300.051
300.058
300.118
300.167
300.21
300.254
300.3
300.347
300.407
300.462
300.519
300.577
300.64
300.707
300.785
300.882
300.984
301.062
301.104
301.113
301.088
301.036
300.963
300.887
300.816
300.754
300.704
300.661
300.622
300.587
300.557
300.529
300.505
300.469
300.486
300.445
300.462
300.424
300.446
300.403
300.431
300.381
300.413
300.355
300.389
300.326
300.359
300.29
300.322
300.279
300.209
300.267
300.253
300.146
300.185
300.117
300.022
300.086
300.054
300.064
300.129
300.179
300.221
300.262
300.301
300.348
300.399
300.454
300.508
300.56
300.619
300.683
300.757
300.844
300.946
301.04
301.101
301.124
301.11
301.067
301.005
300.931
300.857
300.79
300.734
300.689
300.651
300.616
300.585
300.559
300.535
300.514
300.503
300.489
300.521
300.481
300.537
300.476
300.56
300.468
300.581
300.448
300.579
300.417
300.546
300.374
300.486
300.322
300.409
300.328
300.234
300.334
300.335
300.157
300.208
300.125
300.022
300.091
300.056
300.075
300.147
300.199
300.239
300.276
300.308
300.353
300.395
300.444
300.502
300.547
300.601
300.661
300.73
300.81
300.907
301.012
301.093
301.126
301.13
301.099
301.039
300.969
300.895
300.829
300.768
300.716
300.676
300.645
300.614
300.589
300.582
300.71
300.578
300.696
300.625
300.797
300.724
301.015
300.824
301.269
300.869
301.466
300.849
301.532
300.766
301.439
300.629
301.192
300.471
300.872
300.553
300.324
300.637
300.703
300.176
300.295
300.138
300.024
300.098
300.061
300.091
300.176
300.229
300.267
300.298
300.323
300.358
300.398
300.435
300.492
300.54
300.585
300.641
300.704
300.779
300.869
300.976
301.072
301.126
301.144
301.125
301.073
301.004
300.932
300.863
300.805
300.752
300.704
300.668
300.645
300.629
300.662
301.005
301.787
302.263
301.015
301.369
301.411
301.965
301.888
302.655
302.323
303.34
302.609
303.862
302.687
304.179
302.471
304.21
301.864
303.785
301.188
302.741
301.539
300.726
301.873
302.127
300.247
300.688
300.187
300.025
300.125
300.071
300.11
300.213
300.27
300.309
300.332
300.348
300.372
300.404
300.43
300.48
300.533
300.573
300.622
300.681
300.749
300.832
300.936
301.042
301.121
301.149
301.145
301.105
301.042
300.975
300.915
300.847
300.789
300.739
300.694
300.673
300.69
300.85
301.549
302.787
303.395
303.953
304.662
302.59
303.276
303.509
304.42
304.423
305.515
305.198
306.546
305.781
307.4
306.096
308.04
306.003
308.346
305.278
308.046
303.722
306.869
304.652
302.256
305.512
306.115
300.59
302.221
300.447
300.027
300.285
300.164
300.101
300.231
300.301
300.346
300.374
300.387
300.398
300.415
300.435
300.47
300.522
300.566
300.606
300.659
300.722
300.799
300.894
301.006
301.102
301.149
301.162
301.135
301.082
301.013
300.941
300.887
300.828
300.775
300.735
300.726
300.843
301.287
302.618
304.182
304.429
305.336
306.113
307.007
307.827
305.311
306.178
306.626
307.733
307.886
309.191
309.024
310.605
309.987
311.866
310.665
312.925
310.845
313.599
310.233
313.524
308.522
312.408
309.97
306.464
311.274
312.202
302.012
306.461
301.654
300.159
301.286
301.277
300.152
300.284
300.351
300.39
300.416
300.432
300.439
300.447
300.466
300.509
300.557
300.594
300.64
300.697
300.767
300.854
300.966
301.072
301.147
301.17
301.159
301.116
301.052
300.974
300.911
300.86
300.811
300.789
300.866
301.274
302.3
304.09
307.275
306.731
307.986
308.605
309.448
310.768
311.702
308.792
309.806
310.504
311.78
312.14
313.618
313.695
315.444
315.099
317.134
316.182
318.608
316.688
319.64
316.266
319.777
314.558
318.783
316.324
312.844
317.786
318.783
306.08
313.065
305.439
303.072
305.44
308.149
300.144
300.276
300.361
300.407
300.442
300.464
300.471
300.472
300.499
300.546
300.585
300.624
300.675
300.738
300.817
300.922
301.035
301.131
301.171
301.176
301.146
301.088
301.02
300.939
300.884
300.838
300.858
301.17
302.187
303.81
305.8
308.99
312.043
312.152
310.238
311.019
312.58
313.517
315.23
316.271
312.99
314.141
315.093
316.514
317.113
318.704
319.064
320.876
320.867
322.903
322.258
324.63
323.042
325.799
322.775
326.018
321.151
325.136
322.903
319.51
324.154
324.804
312.962
319.931
312.994
302.262
314.643
313.066
300.122
300.24
300.351
300.408
300.461
300.491
300.493
300.498
300.535
300.576
300.612
300.655
300.712
300.783
300.879
300.992
301.101
301.169
301.188
301.171
301.125
301.059
300.983
300.908
300.863
300.914
301.525
303.312
305.608
307.77
310.795
316.259
315.934
317.505
314.362
315.257
317.246
318.252
320.284
321.375
317.845
319.102
320.263
321.757
322.565
324.155
324.755
326.439
326.696
328.434
328.012
329.664
328.212
329.77
327.676
329.247
326.445
328.371
327.146
325.39
327.443
327.72
326.738
320.459
323.182
325.578
321.268
305.104
320.993
321.095
300.101
300.192
300.333
300.409
300.484
300.517
300.514
300.529
300.566
300.601
300.639
300.689
300.752
300.838
300.946
301.064
301.157
301.19
301.189
301.156
301.092
301.024
300.948
300.883
300.944
301.79
304.415
307.613
310.256
313.098
317.752
322.325
323.171
320.764
321.608
319.159
320.02
322.397
323.408
325.596
326.617
323.122
324.408
325.668
327.115
327.954
329.396
329.914
331.246
330.985
332.112
330.955
331.944
330.324
331.139
329.364
330.149
328.432
329.138
328.911
328.043
328.301
327.644
327.114
327.926
328.046
327.955
328.081
327.977
323.797
326.093
325.57
327.412
326.149
323.94
326.356
312.479
324.317
326.76
326.321
327.451
325.091
328.169
300.083
300.154
300.327
300.425
300.517
300.546
300.539
300.558
300.59
300.626
300.67
300.725
300.801
300.9
301.02
301.131
301.189
301.203
301.182
301.13
301.064
300.987
300.914
300.956
301.888
305.192
309.59
313.112
316.4
320.882
323.938
324.824
326.84
327.395
325.69
326.316
324.288
325.033
327.603
328.463
330.58
331.359
328.363
329.573
330.741
331.963
332.446
333.546
333.126
334.061
332.865
333.753
331.951
332.801
330.615
330.925
331.281
331.691
329.365
329.551
330.611
330.113
329.786
328.796
328.437
328.405
328.903
328.062
327.98
328.133
328.083
327.782
327.267
327.681
327.574
327.919
327.706
328.423
328.099
328.256
300.046
306.613
322.747
329.016
328.514
329.668
328.472
300.069
300.136
300.35
300.482
300.57
300.577
300.562
300.583
300.613
300.653
300.702
300.77
300.858
300.973
301.096
301.18
301.208
301.202
301.163
301.095
301.026
300.952
300.957
301.868
305.495
311.042
315.694
319.853
323.401
326.753
327.718
328.277
329.866
329.734
329.825
329.909
329.104
329.563
331.931
332.133
333.928
333.926
332.921
333.58
334.358
334.895
334.848
335.377
334.564
335.17
333.663
334.436
332.088
332.554
332.98
333.443
330.959
331.369
331.819
329.054
329.255
330.516
330.023
329.572
328.376
327.903
327.758
328.441
327.319
327.437
328.269
327.407
326.817
326.709
326.072
326.417
328.755
329.09
328.584
329.394
329.708
300.336
304.715
317.787
330.107
330.558
330.397
327.017
300.055
300.177
300.427
300.607
300.661
300.606
300.586
300.604
300.639
300.682
300.741
300.82
300.927
301.056
301.159
301.207
301.216
301.191
301.132
301.065
300.988
300.954
301.709
305.445
311.742
317.466
320.857
323.365
326.025
328.271
327.424
329.424
329.046
330.795
330.237
331.628
331.24
332.099
331.944
333.771
333.413
334.934
334.509
335.137
335.104
335.659
335.672
335.638
335.709
335.07
335.343
333.822
334.158
334.428
334.589
332.278
332.745
333.178
333.569
330.979
331.477
331.982
328.638
328.994
330.542
330.079
329.501
327.755
327.062
327.015
327.954
326.322
326.124
327.555
326.01
325.45
325.552
324.773
324.901
329.003
329.483
327.935
330.022
330.532
300.816
316.205
306.873
331.016
331.246
330.392
326.007
300.041
300.302
300.627
300.844
300.751
300.629
300.603
300.626
300.664
300.718
300.79
300.885
301.012
301.13
301.201
301.224
301.213
301.168
301.098
301.026
300.963
301.398
305.043
311.745
317.524
320.533
322.515
323.825
322.805
327.007
324.095
329.522
328.399
330.205
329.101
331.797
331.078
332.953
332.415
333.884
333.11
334.293
333.288
335.519
335.088
335.556
335.051
335.164
334.69
334.671
334.643
334.24
333.875
334.084
334.184
334.182
332.459
332.883
333.238
333.498
331.097
331.639
332.12
328.369
328.933
330.677
330.209
329.57
327.224
326.226
326.435
327.685
325.409
324.493
326.172
324.319
324.02
324.563
323.71
323.349
328.533
329.287
326.656
330.091
330.847
301.499
317.085
308.619
331.411
331.461
330.23
325.703
300.041
300.52
300.97
301.098
300.815
300.645
300.626
300.652
300.701
300.761
300.843
300.968
301.093
301.183
301.224
301.228
301.199
301.132
301.065
300.99
301.158
303.999
311.26
317.167
319.586
320.206
318.544
314.224
316.558
312.479
323.323
320.068
327.672
325.758
327.74
326.047
330.268
329.109
332.236
331.293
332.166
330.989
331.858
330.531
334.154
333.081
334.004
333.232
333.934
333.632
334.122
334.04
334.138
333.946
333.639
333.692
333.696
333.695
332.53
332.846
333.054
333.183
331.239
331.728
332.114
328.309
329
330.789
330.274
329.673
326.943
325.598
326.129
327.617
324.722
322.831
324.492
322.596
322.871
323.811
322.88
322.104
327.462
328.504
325.068
329.641
330.73
302.041
317.781
309.646
331.483
331.494
330.191
325.732
300.068
300.871
301.388
301.286
300.84
300.659
300.65
300.683
300.731
300.808
300.927
301.052
301.157
301.218
301.24
301.223
301.172
301.102
301.024
301.04
302.846
309.857
316.32
318.253
317.018
312.134
307.055
304.377
310.087
305.723
317.958
314.129
323.918
321.231
323.676
321.383
327.12
325.544
329.774
328.503
329.152
327.725
330.064
328.633
332.326
331.287
333.413
332.925
334.336
334.614
335.025
334.833
333.723
333.785
335.461
334.912
333.273
333.362
333.491
333.682
332.404
332.615
332.794
332.989
331.274
331.663
331.972
328.35
329.055
330.783
330.259
329.694
326.846
325.251
325.984
327.614
324.305
321.456
322.783
321.092
322
323.308
322.245
321.154
326.058
327.375
323.439
328.858
330.322
301.855
318.593
310.244
331.394
331.512
330.297
326.171
300.174
301.332
301.791
301.359
300.833
300.672
300.674
300.714
300.789
300.887
301.01
301.123
301.201
301.242
301.24
301.206
301.133
301.065
301.016
301.927
307.83
315.145
317.217
314.397
307.868
303.777
301.926
301.523
301.103
304.329
302.332
311.296
307.361
318.57
315.2
318.397
315.484
322.842
320.802
326.227
324.626
326.985
325.109
330.108
328.599
332.209
331.301
335.951
335.708
336.01
336.51
337.183
336.906
333.978
334.399
337.857
337.077
333.237
333.58
334.063
334.676
332.244
332.535
332.893
333.366
331.212
331.599
331.994
328.355
329.043
330.775
330.32
329.687
326.784
325.039
325.851
327.563
324.014
320.424
321.236
319.969
321.264
322.922
321.784
320.364
324.574
326.115
321.968
327.917
329.779
301.084
319.802
310.397
331.25
331.581
330.543
326.937
300.467
301.911
302.045
301.329
300.812
300.692
300.721
300.777
300.864
300.974
301.086
301.178
301.238
301.254
301.233
301.175
301.104
301.028
301.397
305.721
313.459
316.584
313.175
306.284
302.864
301.362
300.877
300.95
300.851
301.753
301.18
305.139
302.954
312.01
308.31
312.611
309.377
318.257
315.606
323.006
320.701
326.739
324.489
333.256
331.765
335.218
334.392
338.695
338.113
337.692
337.1
338.51
338.997
339.063
339.2
335.421
336.243
340.318
339.692
333.986
334.766
335.696
336.73
332.442
332.995
333.701
334.592
331.285
331.835
332.461
328.302
329.034
330.979
330.6
329.789
326.666
324.829
325.654
327.46
323.716
319.635
320.015
319.175
320.688
322.538
321.337
319.715
323.192
324.883
320.748
326.954
329.227
301.323
321.601
312.307
331.134
331.691
330.876
327.963
301.039
302.475
302.049
301.237
300.806
300.744
300.784
300.872
300.964
301.066
301.159
301.229
301.262
301.252
301.214
301.133
301.064
301.168
303.837
311.306
315.96
313.178
306.325
303.046
301.507
300.914
300.81
300.815
300.879
300.826
301.216
300.991
302.443
301.649
306.303
303.913
309.056
306.195
315.704
312.348
321.86
318.902
329.739
326.988
334.499
333.857
336.66
336.11
335.303
338.646
337.819
336.924
336.16
340.551
340.392
339.371
339.941
337.809
338.822
341.444
341.5
335.664
336.87
338.129
339.338
333.227
334.188
335.35
336.677
331.694
332.536
333.562
328.266
329.136
331.518
331.209
330.088
326.481
324.547
325.376
327.335
323.339
319.042
319.184
318.645
320.191
322.089
320.872
319.212
322.007
323.78
319.839
326.08
328.735
310.988
324.191
322.293
331.09
331.837
331.241
329.133
302.042
302.673
301.943
301.108
300.833
300.817
300.887
300.977
301.073
301.158
301.226
301.266
301.27
301.244
301.174
301.107
301.098
302.463
308.777
314.882
313.635
306.921
303.917
302.25
301.18
300.84
300.801
300.802
300.904
300.829
301.291
301.052
302.128
301.635
304.132
302.873
308.822
306.46
316.007
312.154
323.671
319.94
333.029
331.588
331.032
331.903
335.547
335.037
331.908
331.856
337.014
335.625
334.295
333.224
341.056
340.47
338.391
339.612
340.398
341.164
341.5
342
338.087
339.463
340.674
341.601
334.8
336.215
337.732
339.238
332.624
333.959
335.485
328.296
329.397
332.589
332.289
330.685
326.263
324.145
325.11
327.331
322.901
318.609
318.699
318.377
319.791
321.7
320.582
318.904
321.075
322.876
319.25
325.375
328.431
311.041
327.544
324.968
331.117
332.018
331.679
330.423
302.983
302.582
301.673
301.059
300.909
300.958
301.057
301.134
301.194
301.243
301.277
301.284
301.268
301.221
301.14
301.093
301.667
306.187
313.16
314.092
308.314
305.245
303.623
302.07
300.967
300.807
300.798
300.791
301.003
300.852
301.841
301.313
303.38
302.569
305.063
304.171
313.044
310.668
320.685
316.474
328.857
325.078
332.646
332.775
328.38
325.49
326.295
327.108
328.23
332.453
331.986
328.165
334.4
332.497
330.796
329.502
340.778
339.608
336.336
338.107
342.111
342.178
341.087
341.861
340.601
341.697
342.395
342.637
337.116
338.74
340.237
341.485
334.246
336.101
337.959
328.552
330.013
334.237
334.039
331.83
326.287
323.962
325.201
327.627
322.801
318.421
318.489
318.328
319.602
321.663
320.586
318.844
320.403
322.237
319.016
324.942
328.274
306.292
329.247
322.411
331.231
332.274
332.261
331.308
303.006
302.249
301.456
301.144
301.155
301.297
301.381
301.382
301.352
301.331
301.314
301.295
301.257
301.177
301.115
301.308
304.024
310.857
314.044
310.453
306.656
305.096
303.453
301.354
300.868
300.779
300.781
300.798
300.795
301.137
300.881
302.731
301.699
305.999
304.248
309.055
307.63
320.37
317.539
327.363
323.785
332.264
330.495
328.658
330.63
324.967
322.526
323.368
324.356
325.556
328.634
328.22
324.695
331.832
329.482
327.425
325.94
339.882
338.359
334.286
336.493
342.61
342.332
340.1
341.216
342.375
342.83
342.925
342.843
339.644
341.043
342.099
342.766
336.387
338.511
340.325
329.261
331.321
336.457
336.476
333.812
326.654
324.095
325.668
328.501
322.98
318.42
318.507
318.411
319.639
321.868
320.825
318.963
320.074
321.898
319.094
324.753
328.29
304.075
329.041
319.828
331.484
332.648
332.803
331.785
302.731
301.886
301.549
301.562
301.828
302.038
301.99
301.754
301.541
301.412
301.344
301.297
301.23
301.156
301.187
302.581
308.26
313.571
312.309
308.287
306.571
305.015
302.44
301.025
300.825
300.769
300.765
300.787
300.79
301.246
300.893
303.922
302.155
309.719
306.595
315.164
312.678
327.022
324.324
331.348
329.519
331.869
332.004
324.656
326.192
327.262
321.964
320.092
320.933
322.005
323.232
325.028
324.686
321.714
329.823
327.067
324.632
322.977
338.698
336.985
332.503
334.922
342.534
342.048
339.021
340.307
343.026
343.055
342.947
342.616
341.648
342.484
342.934
343.061
338.758
340.652
341.938
330.813
333.654
338.916
339.109
336.593
327.718
324.682
326.987
330.406
323.639
318.644
318.781
318.807
320.014
322.591
321.728
319.459
320.2
321.888
319.593
324.742
328.578
302.888
328.34
318.766
331.852
333.097
333.269
331.928
302.386
302.017
302.171
302.625
302.991
303.01
302.7
302.181
301.723
301.483
301.372
301.285
301.191
301.171
301.767
305.729
312.142
312.985
310.065
308.035
306.602
304.096
301.413
300.893
300.8
300.756
300.754
300.775
300.773
301.269
300.885
304.718
302.337
313.586
308.711
321.407
317.961
330.523
328.497
331.688
331.455
329.574
331.12
322.607
324.203
323.6
325.231
319.544
318.175
318.968
319.993
321.225
322.041
321.721
319.356
327.674
324.87
322.46
320.711
337.439
335.518
330.535
333.216
342.12
341.335
337.804
339.212
343.037
342.892
342.54
342.09
342.658
342.896
342.919
342.826
340.822
342.052
342.511
333.667
336.898
340.924
340.562
339.295
330.02
326.129
329.424
333.612
325.17
319.358
319.481
319.665
320.982
324.325
323.387
320.6
320.706
322.302
320.33
325.105
329.029
300.733
327.981
314.806
332.357
333.545
333.633
331.962
302.634
302.906
303.563
304.036
304.145
303.859
303.273
302.542
301.882
301.54
301.368
301.252
301.189
301.395
303.737
309.865
312.902
311.655
309.513
308.128
305.888
302.475
301.031
300.84
300.773
300.765
300.79
300.741
300.741
300.749
301.2
300.838
304.817
302.284
315.227
309.316
325.442
321.003
330.22
329.012
329.875
330.424
326.267
328.436
320.435
321.917
320.858
322.761
317.699
316.466
317.164
318.047
319.138
319.739
319.398
317.616
325.471
322.581
320.313
318.868
336.084
333.989
328.542
331.475
341.299
340.375
336.558
338.029
342.648
342.311
341.802
341.051
342.624
342.575
342.417
342.192
341.802
342.117
342.155
336.938
338.554
341.186
339.748
339.461
333.288
328.675
332.365
335.851
327.67
320.365
320.185
320.395
322.513
326.318
324.872
321.642
321.449
323.03
321.111
325.59
329.749
300.79
328.066
315.408
332.86
334
333.887
332.199
303.795
304.507
305.11
305.292
305.047
304.445
303.631
302.765
301.997
301.555
301.347
301.224
301.272
302.488
307.465
312.366
312.556
310.925
309.565
307.612
304.267
301.353
300.9
300.814
300.753
300.765
300.78
300.724
300.731
300.724
301.026
300.774
304.159
301.893
314.741
308.561
326.008
321.043
326.595
325.647
325.193
326.305
320.968
322.439
322.912
317.924
319.25
317.411
319.008
316.088
314.617
315.187
315.914
316.818
318.014
317.682
316.031
323.311
320.328
318.163
316.978
334.76
332.504
326.613
329.797
340.25
339.19
335.34
336.805
341.698
341.202
340.568
339.85
341.98
341.769
341.314
340.827
341.402
341.337
340.964
337.148
337.707
339.648
337.795
337.798
334.315
330.705
332.534
335.557
328.768
321.122
320.952
321.039
323.323
326.85
324.961
322.164
322.178
323.672
321.823
326.6
330.431
398.295
329.246
322.358
333.429
334.399
334.177
332.831
305.504
306.117
306.4
306.188
305.581
304.712
303.733
302.801
302.027
301.533
301.305
301.268
301.831
305.248
310.946
312.703
312.06
310.873
309.197
306.109
302.121
300.999
300.855
300.794
300.744
300.754
300.77
300.71
300.722
300.702
300.834
300.716
302.851
301.331
311.682
306.261
322.709
317.726
319.597
318.973
316.9
318.809
316.537
318.712
315.27
316.57
315.093
316.135
313.794
314.962
314.331
312.568
312.984
313.54
314.232
316.344
316.089
314.305
321.226
318.116
316.036
315.082
333.519
331.118
324.843
328.298
338.999
338.004
334.24
335.609
340.331
339.68
339.027
338.334
340.554
339.76
339.318
338.668
338.914
338.355
337.354
335.977
336.514
337.782
327.587
327.488
333.294
330.502
331.267
334.32
327.87
321.41
321.384
321.202
323.42
325.792
324.003
322.094
322.892
324.455
322.191
327.148
331.255
757.617
331.847
354.023
333.937
334.769
334.588
333.916
307.149
307.393
307.252
306.637
305.73
304.679
303.66
302.747
302
301.489
301.308
301.557
303.659
309.057
312.497
312.784
311.976
310.596
307.876
303.613
301.207
300.901
300.831
300.778
300.764
300.732
300.743
300.701
300.712
300.687
300.719
300.686
301.602
300.904
307.328
303.562
316.372
312.125
310.568
310.835
308.677
312.283
309.57
309.473
311.991
313.352
310.403
312.174
312.887
310.46
311.091
312.403
310.511
310.734
311.103
311.579
314.579
314.365
312.411
319.782
316.058
314.007
313.197
332.639
330.399
323.96
327.527
337.554
336.618
333.54
334.404
338.082
337.453
337.004
336.548
337.198
336.462
336.33
336.051
338.091
326.825
326.796
327.125
327.661
327.8
319.148
319.246
326.394
329.214
325.547
327.603
323.72
321.27
321.689
321.447
322.411
322.851
321.553
321.419
323.316
325.035
322.808
328.287
332.045
882.506
335.809
436.922
334.347
335.183
335.203
334.834
308.375
308.181
307.618
306.693
305.575
304.442
303.418
302.565
301.89
301.418
301.505
302.788
307.256
311.816
313.059
312.812
311.765
309.446
305.406
301.638
300.962
300.869
300.812
300.755
300.754
300.747
300.774
300.72
300.73
300.694
300.702
300.676
300.673
300.669
300.946
300.723
303.415
301.66
309.128
306.26
304.64
304.339
308.257
307.094
307.008
305.166
309.212
309.511
308.327
309.667
310.008
309.049
309.076
310.482
309.247
309.245
309.332
309.458
312.718
312.501
310.522
319.362
315.2
312.373
311.391
331.998
330.171
323.764
327.277
336.059
335.519
332.992
333.737
335.787
335.494
335.187
334.854
327.172
326.81
326.886
326.786
328.101
318.992
318.96
319.156
319.185
319.203
310.659
310.681
318.965
325.523
318.582
319.258
317.844
321.203
322.055
321.283
320.511
317.284
316.615
319.639
323.957
325.983
322.82
329.079
332.972
979.281
349.218
718.398
334.846
335.639
335.733
337.638
309.035
308.521
307.653
306.488
305.221
304.027
303.03
302.254
301.662
301.549
302.442
305.836
310.602
313.011
313.38
312.684
310.784
307.092
302.414
301.057
300.907
300.851
300.797
300.732
300.741
300.722
300.767
300.709
300.686
300.693
300.67
300.652
300.656
300.718
300.659
301.44
300.917
303.589
302.41
303.544
302.121
307.666
307.221
306.126
304.732
307.011
306.764
308.782
308.561
308.521
309.038
309.082
309.274
309.038
309.28
309.14
309.065
309.035
309.024
310.883
310.643
309.347
319.592
315.225
311.713
310.455
331.524
330.143
324.118
327.366
334.499