/*--------------------------------*- C++ -*----------------------------------*\
  =========                 |
  \\      /  F ield         | OpenFOAM: The Open Source CFD Toolbox
   \\    /   O peration     | Website:  https://openfoam.org
    \\  /    A nd           | Version:  dev
     \\/     M anipulation  |
\*---------------------------------------------------------------------------*/
FoamFile
{
    version     2.0;
    format      ascii;
    class       volVectorField;
    location    "2500";
    object      U;
}
// * * * * * * * * * * * * * * * * * * * * * * * * * * * * * * * * * * * * * //

dimensions      [0 1 -1 0 0 0 0];

internalField   nonuniform List<vector> 
9978
(
(0.00467419 0.00714471 -1.9045e-27)
(0.0111832 0.00645151 0)
(0.00468167 0.0190178 -3.83084e-27)
(0.0156082 0.00539677 -1.24558e-27)
(0.012392 0.0193103 5.10457e-28)
(0.00406505 0.0277068 0)
(0.0191752 0.00447776 -4.83013e-28)
(0.0175379 0.018666 -2.80826e-27)
(0.0119999 0.0287205 0)
(0.00342874 0.034868 -1.4527e-28)
(0.0219828 0.00372437 -1.46516e-28)
(0.0210445 0.0167529 0)
(0.0183471 0.029467 -2.11161e-27)
(0.0106754 0.0358866 -7.22121e-28)
(0.00301014 0.0413767 3.08313e-27)
(0.0243558 0.00306541 8.90583e-28)
(0.0235873 0.0141625 7.90084e-28)
(0.0231289 0.0290876 0)
(0.0175215 0.0374847 -1.39548e-27)
(0.00928651 0.0421509 3.08735e-27)
(0.00271013 0.0472022 2.44088e-29)
(0.0264242 0.0025334 8.4113e-28)
(0.0256941 0.0116175 1.63127e-29)
(0.0264583 0.0274853 2.05474e-28)
(0.0233658 0.0386926 1.18152e-27)
(0.0157259 0.0436931 -1.9707e-27)
(0.00829003 0.0477841 2.87946e-27)
(0.00247192 0.0525597 -3.29552e-27)
(0.0282386 0.00213456 -1.48357e-29)
(0.0274972 0.00951669 0)
(0.0286133 0.0250393 1.88858e-27)
(0.0279401 0.0388727 -1.52173e-27)
(0.021961 0.0456268 -1.39979e-27)
(0.0139847 0.0490588 7.77258e-28)
(0.0075123 0.0530287 2.45651e-32)
(0.00226767 0.0575069 2.41024e-28)
(0.0298395 0.00187145 1.79212e-28)
(0.0289825 0.00799028 7.78692e-31)
(0.0299673 0.0221572 3.08797e-29)
(0.0311381 0.0378004 1.16905e-28)
(0.0275029 0.0472731 1.68279e-27)
(0.0198166 0.0509303 1.15753e-27)
(0.0126271 0.0540348 -2.22716e-27)
(0.00686568 0.0579001 -2.43139e-27)
(0.00209617 0.0620793 1.60271e-27)
(0.0311865 0.00170018 8.3785e-28)
(0.0303049 0.00705057 0)
(0.0309483 0.0192221 -2.7013e-27)
(0.033103 0.0356489 4.9414e-29)
(0.0319263 0.0480335 2.82127e-28)
(0.0255927 0.0531561 0)
(0.0178645 0.0555595 0)
(0.0115312 0.0587397 -2.61478e-27)
(0.00633325 0.0624017 -1.69132e-27)
(0.00195032 0.0663818 1.59066e-27)
(0.0323659 0.00157205 1.27021e-27)
(0.0315316 0.00646024 -2.67327e-29)
(0.0317838 0.0165116 -4.08625e-28)
(0.034191 0.0327777 -9.99942e-28)
(0.0350998 0.0476103 -1.00332e-31)
(0.0308715 0.0552313 2.43083e-27)
(0.0232044 0.0576175 3.67657e-28)
(0.016282 0.0600064 -4.18767e-28)
(0.0106177 0.0630986 -8.30857e-28)
(0.00588388 0.0666538 0)
(0.00182239 0.0704096 4.01737e-28)
(0.0333898 0.00146874 6.26644e-28)
(0.0326622 0.0059803 0)
(0.0326188 0.0142989 1.89275e-27)
(0.0347267 0.0295151 -9.21806e-28)
(0.0371066 0.0459862 2.15523e-27)
(0.0352301 0.0565695 2.01142e-27)
(0.0285586 0.0600599 3.44855e-28)
(0.0210973 0.0617039 1.43192e-27)
(0.0149624 0.0641716 6.18527e-32)
(0.00984895 0.0672459 -8.3388e-28)
(0.00549523 0.0706444 1.65173e-27)
(0.00170899 0.0742066 0)
(0.0343166 0.00138352 0)
(0.0336414 0.00553789 -1.02122e-27)
(0.0334932 0.012718 1.42309e-27)
(0.0350567 0.0262392 -7.74201e-29)
(0.0381722 0.0434402 6.36225e-28)
(0.0384615 0.0567888 -1.08371e-27)
(0.0336038 0.0624945 -1.84197e-27)
(0.026016 0.0638641 6.66516e-28)
(0.0193629 0.0656105 0)
(0.0138513 0.0681389 -3.26261e-28)
(0.009192 0.0711635 0)
(0.0051533 0.0744093 1.68251e-27)
(0.00160677 0.0778213 7.67664e-28)
(0.0351985 0.00130085 -2.99596e-28)
(0.0345157 0.00516375 -1.47731e-27)
(0.0343611 0.0115983 0)
(0.0353672 0.0232913 0)
(0.0385455 0.040322 5.38121e-28)
(0.0405808 0.0558091 -4.55985e-28)
(0.037924 0.0643474 -2.79664e-27)
(0.0309916 0.066428 0)
(0.0238026 0.0674642 0)
(0.0179009 0.06933 1.40927e-27)
(0.012912 0.0719419 -1.63994e-27)
(0.00861452 0.0748726 0)
(0.00485045 0.0779981 0)
(0.00151759 0.0812403 7.58407e-28)
(0.0360137 0.00122261 -2.8384e-28)
(0.0353779 0.00484708 -8.79344e-28)
(0.035157 0.0106757 8.46679e-28)
(0.035734 0.0209482 0)
(0.0384866 0.0369467 -1.11244e-28)
(0.0416946 0.0537612 9.64853e-28)
(0.0412361 0.0652045 -9.79216e-28)
(0.0358194 0.0690916 0)
(0.0283483 0.0697337 0)
(0.0219691 0.0708718 9.24061e-28)
(0.0166529 0.0729702 0)
(0.0120902 0.0755725 0)
(0.00810099 0.0784025 -4.17049e-28)
(0.00459012 0.0813855 -8.31433e-28)
(0.00143842 0.0845164 0)
(0.0367913 0.00117018 1.37308e-28)
(0.0361574 0.00457814 -4.11675e-27)
(0.0358421 0.00994859 -8.45e-32)
(0.0361897 0.0192768 0)
(0.038302 0.033595 0)
(0.0420198 0.0509644 1.27755e-35)
(0.0434784 0.0648902 4.31145e-28)
(0.0400945 0.0713565 7.94072e-28)
(0.033023 0.0723852 0)
(0.0261029 0.0727719 -3.64443e-28)
(0.0204244 0.0742778 0)
(0.015578 0.0764733 8.08015e-28)
(0.0113628 0.0790276 -1.65531e-27)
(0.00765765 0.0817302 -4.16362e-28)
(0.00435716 0.0846494 -8.28367e-28)
(0.00136636 0.0876585 1.07048e-27)
(0.0375354 0.00113711 4.88905e-27)
(0.0368716 0.00439916 -3.49464e-27)
(0.0364997 0.00945422 -4.05342e-27)
(0.0366539 0.0180359 0)
(0.0381883 0.0305192 6.41792e-30)
(0.0418421 0.0477115 0)
(0.0447309 0.0634281 2.5202e-27)
(0.0434968 0.0727716 1.65002e-27)
(0.0376313 0.0751787 3.03613e-28)
(0.0303498 0.075084 -1.36499e-27)
(0.0242322 0.0758949 -3.74923e-28)
(0.0190895 0.0775973 0)
(0.0146408 0.079822 8.14731e-28)
(0.0107279 0.0822912 1.66724e-27)
(0.00726601 0.0849576 -1.82569e-28)
(0.00414466 0.0877724 5.34376e-28)
(0.00130245 0.0906794 9.87116e-28)
(0.0382814 0.00110716 5.43295e-27)
(0.0375993 0.0042752 4.98232e-27)
(0.037149 0.00908174 -3.60964e-27)
(0.037154 0.0169534 0)
(0.0382095 0.027978 8.29402e-29)
(0.0414059 0.0442503 8.83633e-29)
(0.0451604 0.0610297 2.32595e-27)
(0.0459013 0.0730852 1.1475e-27)
(0.0418339 0.0777403 0)
(0.0347429 0.0777789 -4.60132e-28)
(0.0280857 0.0778292 2.77728e-32)
(0.0226228 0.0789985 0)
(0.0179264 0.0808018 -3.99224e-28)
(0.0138156 0.0830005 3.39077e-28)
(0.0101665 0.0854609 2.97582e-27)
(0.0069135 0.0880419 6.60194e-28)
(0.00395958 0.0907795 5.19241e-28)
(0.00124491 0.0935958 -1.60094e-28)
(0.0390587 0.00109558 0)
(0.0383238 0.00415201 4.89306e-27)
(0.0378218 0.00879116 1.00095e-27)
(0.0377073 0.0159861 0)
(0.0383704 0.0260744 0)
(0.0409278 0.0408495 -3.23465e-29)
(0.0450055 0.0580282 2.58954e-29)
(0.0473496 0.072237 0)
(0.0453242 0.0796014 -2.29135e-28)
(0.03911 0.0807077 5.82709e-28)
(0.0320615 0.0801367 6.62613e-28)
(0.0261879 0.0806653 7.31384e-28)
(0.0212196 0.0820221 -6.60009e-28)
(0.0169064 0.0838705 4.07395e-29)
(0.0130815 0.0860903 0)
(0.00966757 0.0885021 3.3968e-27)
(0.00660072 0.0910117 6.29237e-28)
(0.00379438 0.0936826 2.39113e-28)
(0.0011945 0.0964304 3.61199e-29)
(0.0398526 0.00109767 0)
(0.0390463 0.00407874 6.04629e-27)
(0.0385207 0.00857657 6.31508e-32)
(0.0382517 0.0151654 -3.14636e-27)
(0.0387002 0.0246778 2.72644e-27)
(0.0405416 0.0377635 1.70022e-28)
(0.0444663 0.0546772 0)
(0.0479608 0.0703361 -6.32941e-29)
(0.0479254 0.0804716 0)
(0.0432245 0.0834926 -2.53403e-28)
(0.0361761 0.0828229 3.70573e-28)
(0.029801 0.0826257 0)
(0.0245414 0.0834822 -7.78559e-28)
(0.0199946 0.084946 0)
(0.0159984 0.086855 0)
(0.0124332 0.0890651 0)
(0.00922552 0.0914309 3.06585e-27)
(0.00633221 0.0938706 2.64059e-28)
(0.00365115 0.0965045 -2.71818e-28)
(0.00115095 0.0991803 0)
(0.0406924 0.0010973 0)
(0.0398187 0.0040705 3.76945e-28)
(0.0392079 0.00837167 5.32041e-27)
(0.03884 0.0145323 1.21112e-27)
(0.0391081 0.0235633 -1.82052e-27)
(0.0403483 0.0351993 7.86176e-28)
(0.043777 0.0511515 -4.53748e-29)
(0.0479075 0.0676548 -4.54681e-27)
(0.0496096 0.0801887 -2.23822e-28)
(0.0468169 0.0857359 1.92803e-27)
(0.0403441 0.0857475 0)
(0.0335452 0.0849207 -1.94713e-27)
(0.0278855 0.0851833 2.22553e-28)
(0.0230976 0.0862371 -3.20403e-28)
(0.0189122 0.0877987 -4.52737e-28)
(0.0151988 0.0897343 0)
(0.0118528 0.0919474 2.45193e-28)
(0.00884059 0.0942399 -2.1066e-28)
(0.00609716 0.0966569 -1.7228e-27)
(0.00352657 0.0992514 2.05858e-28)
(0.00111133 0.101871 -2.87479e-28)
(0.041584 0.00110271 4.19856e-27)
(0.0406458 0.00407652 0)
(0.0399447 0.00816748 4.14984e-32)
(0.0395156 0.0140456 1.0945e-27)
(0.0395288 0.0225769 -6.76469e-31)
(0.0404222 0.0332066 1.61469e-27)
(0.0431219 0.0476886 0)
(0.0474207 0.064467 -4.50127e-27)
(0.0504571 0.07882 4.29573e-27)
(0.0496373 0.0870672 1.92952e-27)
(0.0443925 0.0886568 -1.20036e-28)
(0.0374261 0.0875765 5.88685e-28)
(0.0313138 0.087139 -1.11422e-27)
(0.0262279 0.087721 -3.58722e-28)
(0.0218218 0.0889438 -5.26696e-28)
(0.0179509 0.0905779 0)
(0.0144787 0.0925471 -1.4573e-28)
(0.0113408 0.0947026 -2.54382e-28)
(0.00850079 0.0969951 2.53843e-28)
(0.00588686 0.0993747 -3.48635e-27)
(0.00341652 0.101936 4.45795e-34)
(0.00107656 0.104503 1.77711e-28)
(0.0425415 0.00111062 -4.57792e-27)
(0.0415263 0.00407031 3.80038e-27)
(0.0407587 0.00800956 -4.53402e-28)
(0.0402241 0.0136269 3.15221e-27)
(0.040067 0.021715 -1.23455e-27)
(0.0406841 0.0316344 -2.17398e-28)
(0.0425977 0.0446397 -9.67303e-28)
(0.0466455 0.061014 4.20866e-27)
(0.0505829 0.0765166 4.20094e-27)
(0.0515733 0.087346 4.01837e-27)
(0.0480528 0.0912061 1.96892e-28)
(0.0414027 0.0904914 2.63539e-28)
(0.0348548 0.0893845 1.72663e-27)
(0.0294074 0.089426 0)
(0.0247706 0.0902651 1.45691e-28)
(0.0207025 0.0916013 1.67449e-27)
(0.0170904 0.0932955 -8.81272e-28)
(0.0138328 0.0952305 -1.69033e-28)
(0.0108939 0.0974131 2.79578e-28)
(0.00820427 0.0996757 3.00612e-27)
(0.00570857 0.102015 -1.76111e-27)
(0.00332336 0.104568 8.44474e-28)
(0.00104727 0.107101 5.34107e-28)
(0.043577 0.00112155 -4.94764e-27)
(0.0424705 0.00407948 -4.57288e-27)
(0.0416476 0.00789449 0)
(0.0409674 0.0132631 -4.09406e-27)
(0.0407169 0.0209877 4.17543e-27)
(0.0410493 0.0303291 -4.44974e-27)
(0.0423539 0.0422458 -1.72162e-27)
(0.045756 0.0574718 5.44712e-27)
(0.0501715 0.073572 -4.31113e-27)
(0.0526702 0.0865056 4.11923e-27)
(0.0510588 0.0930131 3.91455e-27)
(0.0453369 0.0935015 -1.83832e-27)
(0.0385123 0.091967 1.50939e-27)
(0.0326545 0.0913801 0)
(0.0277365 0.0917845 -7.43233e-28)
(0.0234655 0.0927805 1.15157e-28)
(0.0197017 0.0942136 1.75375e-27)
(0.0163168 0.0959007 3.11459e-28)
(0.0132694 0.0978657 0)
(0.0105035 0.100051 0)
(0.00795192 0.102276 2.94443e-27)
(0.00556146 0.104615 0)
(0.00324616 0.107166 8.66254e-28)
(0.00102073 0.109668 3.56977e-28)
(0.0446856 0.00114169 5.30488e-27)
(0.0434938 0.00410659 4.03141e-28)
(0.0425918 0.00777196 -4.45313e-27)
(0.0418117 0.0129774 -3.45363e-27)
(0.0414212 0.0203282 -3.34648e-27)
(0.0415233 0.0292419 1.36906e-27)
(0.0424196 0.0404091 6.53451e-31)
(0.0449712 0.0540683 1.8648e-27)
(0.049398 0.0702295 -2.68123e-28)
(0.0530194 0.0846599 -4.2322e-27)
(0.0532559 0.093824 3.96587e-27)
(0.0490386 0.0962781 -1.70422e-27)
(0.0422928 0.0948572 -3.63296e-28)
(0.0359754 0.093634 0)
(0.0307241 0.0935209 6.52408e-28)
(0.0262276 0.0941499 -1.46926e-27)
(0.02231 0.09527 0)
(0.0187905 0.0967329 -1.8406e-27)
(0.0156314 0.0984381 9.58713e-28)
(0.0127801 0.100441 0)
(0.0101683 0.102618 3.92678e-28)
(0.00773905 0.104833 0)
(0.00544776 0.107162 -9.54794e-28)
(0.00318769 0.109738 8.61401e-28)
(0.000999801 0.112214 0)
(0.0458563 0.0011596 -5.62068e-27)
(0.0445986 0.00412227 5.29516e-27)
(0.0435894 0.00766396 9.20009e-27)
(0.0427656 0.012751 -9.25407e-27)
(0.042185 0.0197069 -4.968e-27)
(0.0421291 0.0283477 -4.87115e-28)
(0.0427151 0.0388861 2.42235e-27)
(0.0444611 0.0511319 3.1016e-27)
(0.0484409 0.0666621 3.21727e-27)
(0.0527539 0.0820356 -6.52341e-33)
(0.0546199 0.0935301 2.17465e-28)
(0.0522161 0.0984657 1.31327e-28)
(0.0461287 0.0979303 1.53312e-27)
(0.0394404 0.0961921 -5.58738e-28)
(0.0337755 0.0955011 0)
(0.0290115 0.0957023 1.25783e-27)
(0.0248956 0.0964611 -1.70127e-27)
(0.0212714 0.097698 1.00051e-27)
(0.0179858 0.0991715 1.4844e-32)
(0.0150381 0.100928 9.98474e-28)
(0.0123599 0.10295 6.06438e-32)
(0.00988651 0.105133 0)
(0.0075743 0.107328 7.65553e-27)
(0.0053639 0.109698 3.66592e-27)
(0.00314821 0.112293 2.00199e-29)
(0.00098311 0.114765 -9.00401e-29)
(0.0470792 0.00115969 0)
(0.045782 0.00411228 -1.1257e-26)
(0.0447022 0.00759678 -4.75071e-28)
(0.0437682 0.0125182 4.74308e-27)
(0.0430471 0.0191817 -9.04046e-27)
(0.0428299 0.0275974 -2.26291e-27)
(0.0431425 0.0375579 5.99884e-31)
(0.0443432 0.0488298 3.90764e-28)
(0.0475342 0.0630563 -6.72861e-28)
(0.0521042 0.0788647 3.43544e-27)
(0.0552346 0.0921856 3.93765e-27)
(0.0546675 0.0997491 3.0599e-28)
(0.049822 0.100921 1.94517e-27)
(0.0430381 0.0990746 -1.19571e-28)
(0.0369257 0.0977339 -1.53416e-28)
(0.0318439 0.0974449 4.84988e-28)
(0.0274908 0.0978286 8.31525e-28)
(0.0237364 0.0987751 -1.7665e-27)
(0.0203335 0.100034 9.77864e-28)
(0.0172889 0.101557 3.96493e-27)
(0.014526 0.103359 2.78298e-28)
(0.0120075 0.105407 0)
(0.00966089 0.107589 0)
(0.00745076 0.109817 -2.59896e-31)
(0.00530658 0.112226 3.54605e-27)
(0.00311138 0.114861 -9.48198e-29)
(0.000973953 0.117316 0)
(0.0483371 0.0011523 -6.01839e-27)
(0.0470164 0.00408002 -5.94058e-27)
(0.0458999 0.00755145 -5.02736e-27)
(0.0448445 0.0122844 5.67025e-27)
(0.044042 0.0187659 5.97998e-28)
(0.0436043 0.0269307 -4.03967e-27)
(0.0436803 0.0364173 -3.38432e-27)
(0.0445262 0.0470277 3.57621e-27)
(0.0468355 0.0597317 -1.79519e-27)
(0.0512145 0.0753601 1.90557e-27)
(0.0552177 0.0899298 3.8675e-27)
(0.0563273 0.100013 -3.59207e-27)
(0.0531282 0.103471 1.5127e-27)
(0.0467345 0.102178 -1.28418e-27)
(0.0402001 0.100275 0)
(0.034732 0.0994171 -1.69564e-28)
(0.030117 0.0994004 -6.97689e-28)
(0.0261527 0.0999806 9.03907e-28)
(0.0226767 0.101016 0)
(0.0195205 0.102302 -6.29076e-29)
(0.0166815 0.103908 1.80572e-27)
(0.0140958 0.105738 1.09123e-27)
(0.0117202 0.107815 -5.63366e-28)
(0.00948694 0.110046 0)
(0.00735928 0.112307 -8.06674e-27)
(0.00526991 0.11477 -3.72475e-27)
(0.00306654 0.117426 1.76339e-27)
(0.000963977 0.119871 0)
(0.0496163 0.00114687 1.8996e-28)
(0.0482708 0.00404384 -6.22971e-27)
(0.0471248 0.00753486 5.18867e-28)
(0.0460031 0.0121021 -5.64063e-28)
(0.0450942 0.0184058 4.40605e-27)
(0.0445053 0.02632 0)
(0.0443655 0.0354366 3.84476e-27)
(0.0448934 0.0455305 -3.14189e-27)
(0.0464547 0.0570101 6.38959e-27)
(0.0502142 0.0717189 2.14178e-27)
(0.0547264 0.0870351 0)
(0.0572426 0.0991983 -1.48494e-28)
(0.0558249 0.105246 -2.93317e-27)
(0.0503851 0.105329 -5.83394e-28)
(0.0436215 0.103135 -7.60234e-28)
(0.0377009 0.101658 -6.12935e-28)
(0.0327692 0.1012 -2.54495e-28)
(0.0285571 0.101369 -4.40648e-28)
(0.0249607 0.102118 9.87218e-28)
(0.021715 0.103167 4.69772e-29)
(0.0188185 0.104568 7.39123e-29)
(0.0161592 0.106202 0)
(0.0137423 0.108075 1.13494e-27)
(0.0114967 0.110221 0)
(0.0093557 0.112509 0)
(0.00730246 0.114806 0)
(0.00521437 0.117337 -3.7368e-27)
(0.00301703 0.12001 1.75826e-27)
(0.000937913 0.122421 1.58594e-27)
(0.050909 0.0011291 0)
(0.0495568 0.00401115 0)
(0.0484007 0.0075171 5.47439e-28)
(0.047222 0.0119442 5.22799e-27)
(0.0462043 0.0180711 -6.37396e-28)
(0.0455194 0.0257572 4.88707e-27)
(0.0451947 0.0345739 0)
(0.0454165 0.0442377 5.20344e-27)
(0.0464584 0.0549052 -1.23372e-27)
(0.0493385 0.0681842 3.80407e-27)
(0.0539042 0.0837259 -1.35665e-27)
(0.0574925 0.0974219 3.55586e-27)
(0.0577902 0.106057 -3.14308e-27)
(0.0537916 0.108188 2.92205e-28)
(0.0471608 0.106285 -1.14559e-27)
(0.0407883 0.104221 0)
(0.0354715 0.103227 -5.03149e-33)
(0.030982 0.102993 0)
(0.027175 0.103352 0)
(0.0238654 0.104176 0)
(0.0208878 0.105314 2.35707e-27)
(0.0182083 0.106768 0)
(0.0157295 0.108453 2.69922e-28)
(0.0134694 0.110399 0)
(0.0113352 0.112649 -2.25443e-27)
(0.009268 0.114985 0)
(0.00725176 0.117351 -1.00184e-26)
(0.00513794 0.119891 3.72527e-27)
(0.00296528 0.122594 4.07577e-28)
(0.000901103 0.124953 1.42705e-27)
(0.0521913 0.00109272 0)
(0.0508686 0.00397613 0)
(0.0497183 0.00744621 -6.05848e-44)
(0.04854 0.0117586 -6.08553e-27)
(0.0474418 0.0177313 0)
(0.0466249 0.0252145 0)
(0.0461719 0.0337862 4.72868e-27)
(0.0461151 0.0431054 1.56914e-27)
(0.0467859 0.053198 0)
(0.0487473 0.065065 0)
(0.0529062 0.0801877 1.86603e-27)
(0.057172 0.09488 -1.10245e-27)
(0.0590021 0.105827 0)
(0.0567105 0.110447 -4.01566e-29)
(0.0507508 0.109569 2.20069e-28)
(0.0440177 0.107107 -2.24154e-32)
(0.0382573 0.105527 2.5621e-28)
(0.0334583 0.104834 7.92082e-28)
(0.0293859 0.104776 1.22258e-28)
(0.0259452 0.105314 5.41865e-28)
(0.0228938 0.10616 2.44151e-27)
(0.0201957 0.107412 2.49638e-27)
(0.0177022 0.10892 -1.18315e-28)
(0.0154029 0.11068 0)
(0.0132848 0.11275 0)
(0.0112301 0.115096 -2.28722e-27)
(0.00922137 0.117505 -3.42873e-27)
(0.00720073 0.119881 -1.26024e-26)
(0.00507132 0.122468 3.98003e-27)
(0.00288522 0.125166 0)
(0.000846953 0.127442 6.27729e-28)
(0.0534371 0.00104137 0)
(0.0521806 0.00391482 0)
(0.0510572 0.00731134 -5.95404e-28)
(0.0499123 0.0115356 5.68338e-27)
(0.0487799 0.0173686 -6.00329e-27)
(0.0478748 0.0246762 0)
(0.0472776 0.0330337 0)
(0.0470215 0.0420897 2.97249e-27)
(0.0473501 0.0517282 0)
(0.0485761 0.0625892 0)
(0.0519442 0.0765846 2.42693e-27)
(0.0564823 0.0918054 -1.62849e-27)
(0.059528 0.1046 -1.59452e-31)
(0.058965 0.111811 2.89376e-27)
(0.0542033 0.11273 -2.01865e-27)
(0.0473917 0.110306 2.96117e-28)
(0.04116 0.108116 6.88648e-28)
(0.0359845 0.106919 -3.16327e-28)
(0.0316352 0.106429 -1.54956e-27)
(0.02797 0.106595 1.07114e-27)
(0.0248408 0.107142 6.01672e-28)
(0.02209 0.108122 2.59279e-27)
(0.0196216 0.109452 -5.29095e-27)
(0.017315 0.111032 0)
(0.015191 0.11293 0)
(0.0131792 0.115134 -1.2842e-28)
(0.0111914 0.117566 -3.48054e-27)
(0.00920301 0.120051 -5.2556e-27)
(0.00713892 0.122447 3.9035e-27)
(0.00495467 0.125071 0)
(0.00275567 0.127711 3.6976e-27)
(0.000770637 0.129842 2.57795e-27)
(0.0546088 0.000981605 0)
(0.0534542 0.00379442 0)
(0.0524215 0.00711574 0)
(0.0513026 0.0112784 6.50699e-27)
(0.050183 0.0169837 6.25738e-27)
(0.0492302 0.0241449 0)
(0.048501 0.0323035 0)
(0.0481066 0.0411587 -1.67777e-27)
(0.0481151 0.0504406 4.44921e-27)
(0.0488447 0.0606631 -1.71873e-27)
(0.0512342 0.0731803 -1.71892e-27)
(0.0555992 0.0883978 6.53028e-28)
(0.0594593 0.102486 -1.60685e-27)
(0.0604905 0.112205 1.52693e-27)
(0.057302 0.115433 1.8735e-28)
(0.0508794 0.11372 -1.41999e-28)
(0.0441871 0.111035 1.9464e-28)
(0.0385776 0.109284 7.20934e-28)
(0.0339078 0.108344 3.38163e-27)
(0.0299974 0.108058 -2.07948e-27)
(0.0267186 0.108275 1.52589e-27)
(0.0238952 0.108939 -9.21068e-29)
(0.0214339 0.110034 0)
(0.0191707 0.111442 -5.73984e-27)
(0.0170613 0.113161 -9.92656e-29)
(0.0150806 0.115226 5.15284e-27)
(0.0131569 0.117526 0)
(0.0112024 0.120127 -2.97093e-27)
(0.00916778 0.122655 -1.46639e-27)
(0.00701669 0.125081 3.13895e-27)
(0.00475759 0.12769 -6.72427e-28)
(0.00249564 0.130205 4.66761e-27)
(0.000651914 0.13208 -1.00578e-26)
(0.0556647 0.000910368 0)
(0.0546454 0.00360384 0)
(0.053764 0.00686257 0)
(0.0527255 0.0109702 1.39233e-27)
(0.0516479 0.0165361 5.68953e-27)
(0.0506751 0.0235874 8.25773e-28)
(0.0498553 0.0315927 8.63243e-28)
(0.0493204 0.0402748 1.76742e-27)
(0.0490865 0.0492994 -1.76401e-27)
(0.0494542 0.0590681 -1.76645e-27)
(0.0509268 0.0702756 3.63559e-27)
(0.0546762 0.0848124 0)
(0.0589836 0.0997361 -1.62434e-27)
(0.0613301 0.111536 1.39386e-27)
(0.0598306 0.117394 1.50863e-27)
(0.054334 0.117171 3.0209e-29)
(0.0473833 0.114304 0)
(0.0412615 0.111958 2.52509e-28)
(0.0362213 0.110509 1.51948e-27)
(0.0320312 0.109743 -1.3934e-33)
(0.0285547 0.109579 2.31455e-27)
(0.0256228 0.109909 1.68562e-27)
(0.0231238 0.110697 0)
(0.0209171 0.111888 0)
(0.0188605 0.113436 -8.54505e-29)
(0.0169375 0.11534 -6.42182e-29)
(0.0150811 0.117527 5.4477e-27)
(0.0132106 0.12005 -1.08988e-27)
(0.0112149 0.122786 2.90023e-27)
(0.00908869 0.125356 -4.00567e-28)
(0.00675735 0.127821 -4.13979e-27)
(0.00442461 0.130298 2.90127e-27)
(0.00214155 0.13258 -1.6002e-26)
(0.000508631 0.134089 5.32338e-27)
(0.0565619 0.000814789 0)
(0.0557302 0.00335809 -2.57061e-28)
(0.0550329 0.00654736 0)
(0.054155 0.0105748 -6.73438e-27)
(0.0531456 0.0160054 -7.94414e-28)
(0.0522227 0.0229658 8.74908e-28)
(0.0513508 0.0308761 9.16213e-28)
(0.0506644 0.0393978 -3.80744e-27)
(0.0502543 0.0482499 -1.325e-31)
(0.0503161 0.0576548 4.80896e-27)
(0.0511181 0.0679942 1.05519e-31)
(0.0539511 0.0812478 3.48826e-27)
(0.0582915 0.0965596 1.46281e-27)
(0.0615804 0.10997 1.27932e-34)
(0.0616926 0.118412 0)
(0.0575628 0.120324 0)
(0.0507287 0.11789 -5.30046e-29)
(0.0440705 0.11498 0)
(0.0385847 0.11295 0)
(0.0340704 0.111689 -1.84866e-27)
(0.0303579 0.111105 -1.19376e-27)
(0.0272702 0.111059 -1.30105e-27)
(0.0247072 0.111474 3.05545e-27)
(0.0225201 0.1124 1.62717e-27)
(0.0205531 0.113734 3.29324e-27)
(0.0187139 0.115458 0)
(0.0169569 0.117546 0)
(0.0151901 0.119964 -5.8779e-28)
(0.0133036 0.122718 4.44637e-27)
(0.0112052 0.125561 4.36754e-28)
(0.00886429 0.128232 4.30687e-28)
(0.00641122 0.130566 -8.62593e-27)
(0.00389291 0.132859 7.99596e-28)
(0.00161742 0.13418 3.68455e-27)
(0.0021348 0.134325 -2.95276e-27)
(0.000288439 0.135114 -4.70596e-28)
(0.00158457 0.134658 5.71751e-27)
(0.000493984 0.135562 -5.7541e-28)
(0.0572551 0.000709666 -3.52397e-27)
(0.0566684 0.00306087 6.76358e-27)
(0.056195 0.00614523 -6.3901e-28)
(0.0555216 0.0100855 -1.50406e-27)
(0.0546507 0.0154227 -8.33046e-28)
(0.053803 0.0222678 0)
(0.0529586 0.0301225 -6.23564e-27)
(0.0521599 0.03851 9.96145e-28)
(0.0516025 0.0472509 -3.6216e-27)
(0.0513855 0.0563553 1.96627e-27)
(0.0517663 0.066188 9.20534e-28)
(0.0535811 0.0780117 1.80337e-27)
(0.0575172 0.0931497 -1.71609e-27)
(0.0613769 0.107626 1.67706e-29)
(0.0628757 0.118415 0)
(0.0603569 0.122884 0)
(0.0541547 0.121614 1.55128e-28)
(0.0470706 0.118377 1.16917e-27)
(0.0410202 0.115735 0)
(0.0361165 0.113945 -2.34856e-27)
(0.0321079 0.112887 2.36863e-27)
(0.0288473 0.112401 0)
(0.02618 0.11241 1.1239e-26)
(0.0239915 0.112999 0)
(0.0220962 0.114071 1.77621e-27)
(0.0203762 0.115574 3.13074e-27)
(0.0187361 0.117531 -1.57919e-28)
(0.0171134 0.119869 -2.05978e-28)
(0.0153926 0.122579 4.66663e-28)
(0.0134116 0.125538 4.66354e-27)
(0.0111346 0.128521 -7.79113e-27)
(0.00847785 0.131255 -1.11254e-26)
(0.00560808 0.133388 8.3522e-28)
(0.00324897 0.134387 -4.17322e-28)
(0.0037193 0.13483 -2.16011e-28)
(0.00204881 0.134992 7.31465e-27)
(9.58353e-05 0.135808 -3.5209e-28)
(0.00112139 0.135822 0)
(0.00028442 0.136172 -4.01999e-28)
(0.0576862 0.000587624 1.30136e-28)
(0.0573968 0.00268707 -3.70206e-27)
(0.0572117 0.00563936 6.12691e-27)
(0.0568007 0.0095018 5.97792e-27)
(0.0561304 0.014759 -8.68782e-28)
(0.0553818 0.021481 6.54118e-27)
(0.0546319 0.0292974 0)
(0.0537958 0.0375975 -6.1482e-27)
(0.0531241 0.0462575 2.13647e-27)
(0.0526686 0.0551368 1.4075e-31)
(0.0527484 0.064656 -4.65037e-27)
(0.0536723 0.0753796 1.92175e-27)
(0.0568327 0.0896368 2.68803e-28)
(0.0609145 0.104768 0)
(0.0634882 0.117432 1.60668e-27)
(0.0625639 0.124576 -2.07122e-27)
(0.0574746 0.125228 3.08395e-28)
(0.0502644 0.122151 1.00715e-27)
(0.0436058 0.118912 -1.68895e-27)
(0.0381974 0.116536 2.85308e-27)
(0.0338324 0.114951 1.2029e-30)
(0.0303378 0.113963 0)
(0.0275374 0.113543 -6.41618e-31)
(0.0253118 0.113725 1.43285e-26)
(0.0234813 0.114463 3.8131e-27)
(0.0218762 0.115725 -2.7575e-28)
(0.0203848 0.117476 9.2396e-29)
(0.0189247 0.119713 1.7244e-27)
(0.0174191 0.122365 -3.05178e-27)
(0.0156962 0.125358 0)
(0.0135173 0.12857 -1.06621e-27)
(0.0108624 0.131761 -4.78353e-27)
(0.00751162 0.133828 4.53773e-28)
(0.00846712 0.134141 -3.66747e-27)
(0.00478609 0.135274 -2.56919e-33)
(0.00735778 0.134454 -3.98519e-28)
(0.00551458 0.135958 -2.08355e-28)
(0.00271627 0.135411 3.68701e-27)
(0.00323289 0.136087 2.14947e-27)
(0.00154315 0.136044 0)
(-3.51819e-05 0.13631 -8.90187e-29)
(0.000678128 0.136591 1.31242e-27)
(8.81744e-05 0.136711 1.91804e-28)
(0.0577789 0.000443083 9.98734e-29)
(0.0578658 0.00223974 -2.16087e-28)
(0.0580345 0.00502031 0)
(0.0579527 0.00878355 -3.32911e-27)
(0.0575457 0.0139475 8.94187e-28)
(0.0569803 0.0205951 -1.00185e-27)
(0.0563267 0.0283621 0)
(0.055553 0.0366357 -1.14266e-27)
(0.0548063 0.0452221 8.37306e-27)
(0.0541892 0.0539734 -2.2806e-27)
(0.0539721 0.0632518 0)
(0.0543098 0.0733415 -5.50744e-28)
(0.0564608 0.0862181 2.35445e-27)
(0.0603673 0.10157 2.13873e-27)
(0.0636453 0.115605 -3.37951e-27)
(0.0641499 0.125307 -1.90517e-27)
(0.0605132 0.128386 -1.26683e-27)
(0.053612 0.126186 3.24558e-28)
(0.046374 0.122531 -2.27814e-27)
(0.0403569 0.11951 3.51296e-27)
(0.0355599 0.11734 -3.80876e-27)
(0.031752 0.115812 0)
(0.0287671 0.114908 3.16821e-27)
(0.0264624 0.114619 -2.17575e-27)
(0.0246752 0.114948 1.71795e-26)
(0.0232018 0.115896 6.31626e-27)
(0.0218761 0.117403 1.8483e-27)
(0.0206086 0.119461 -1.46977e-28)
(0.0193131 0.122046 -1.09394e-26)
(0.0179103 0.125029 0)
(0.0160891 0.128359 -1.25072e-27)
(0.013503 0.131919 0)
(0.00989084 0.134317 -3.49069e-27)
(0.0111047 0.134539 1.69706e-27)
(0.00842478 0.135135 0)
(0.00406987 0.136847 2.20689e-28)
(0.0065622 0.136497 1.92707e-28)
(0.00485628 0.137629 8.32309e-28)
(0.00198196 0.136523 2.09687e-27)
(0.00249771 0.13733 2.0831e-27)
(0.000950109 0.136881 0)
(-0.000169074 0.136568 1.6189e-27)
(0.000229957 0.137218 1.51308e-27)
(-0.00018185 0.1371 2.51015e-27)
(0.0574799 0.000260632 3.39487e-27)
(0.0580208 0.00170809 -1.89379e-28)
(0.0586146 0.00426601 0)
(0.0589305 0.00789836 0)
(0.0588657 0.0129662 -3.26472e-27)
(0.0585606 0.0195807 -1.50649e-26)
(0.0580515 0.0272848 0)
(0.0573884 0.0355761 -6.31405e-27)
(0.0566231 0.044112 1.2449e-27)
(0.0559342 0.0528242 6.05856e-27)
(0.0554395 0.0618944 -2.41047e-27)
(0.0554261 0.0716628 2.28682e-27)
(0.0565387 0.0831952 -2.14678e-27)
(0.0598758 0.0981883 2.40641e-27)
(0.0635007 0.113131 -1.61334e-27)
(0.06518 0.125025 -5.34547e-27)
(0.0630869 0.130826 -2.27036e-27)
(0.0569984 0.130274 -9.13961e-28)
(0.0493858 0.126576 3.48265e-28)
(0.0426565 0.122925 0)
(0.0373099 0.120125 -4.4828e-27)
(0.0331088 0.118008 -1.38015e-28)
(0.0298752 0.116547 0)
(0.0274327 0.115714 -3.33924e-27)
(0.0256524 0.115563 3.95124e-27)
(0.0243151 0.116102 1.82862e-26)
(0.0231899 0.11734 3.29845e-27)
(0.0221077 0.119181 2.20899e-27)
(0.0210791 0.12155 -9.39516e-27)
(0.0199803 0.124539 -8.86863e-27)
(0.0185659 0.127971 0)
(0.01641 0.131667 3.79723e-27)
(0.0125996 0.134628 -7.95269e-28)
(0.0140753 0.1347 0)
(0.00975745 0.135667 -1.65645e-27)
(0.011038 0.136113 6.61408e-28)
(0.00770951 0.137097 1.91574e-28)
(0.00319755 0.13823 0)
(0.0058414 0.138392 -3.72109e-28)
(0.00399676 0.139158 1.1553e-27)
(0.00123015 0.137474 0)
(0.00163592 0.138455 -2.9276e-27)
(0.000265784 0.137572 0)
(-0.000294355 0.136562 0)
(-0.000333284 0.13767 0)
(-0.000548424 0.137308 -8.05949e-30)
(0.0567625 2.15088e-05 4.81425e-29)
(0.057788 0.00105665 6.38197e-27)
(0.0588961 0.00336579 -3.14451e-27)
(0.0596826 0.00684412 0)
(0.0600378 0.0118066 -2.79687e-35)
(0.060072 0.0183818 -1.07134e-27)
(0.0598056 0.0260348 -7.54249e-27)
(0.0592899 0.0343572 1.28499e-27)
(0.0585779 0.0428919 -4.88763e-27)
(0.0578612 0.0516166 0)
(0.0571751 0.0605504 -2.64067e-27)
(0.0568868 0.0701398 -4.54381e-28)
(0.0571873 0.0807866 -1.44265e-31)
(0.0596271 0.0947326 4.81809e-27)
(0.0632781 0.110216 -2.56012e-27)
(0.0657846 0.123816 -2.46598e-27)
(0.0651247 0.132326 -1.8872e-27)
(0.0602544 0.134087 1.99442e-34)
(0.0526336 0.130997 -2.58195e-32)
(0.0451813 0.12684 5.39415e-29)
(0.0391328 0.12336 -9.99651e-27)
(0.0344237 0.120625 -5.42038e-27)
(0.0308557 0.118536 4.62214e-27)
(0.0282185 0.117088 0)
(0.0263973 0.116345 3.33299e-27)
(0.0251574 0.116389 0)
(0.0242572 0.117261 8.15836e-29)
(0.0234411 0.118829 2.74051e-28)
(0.0226007 0.121024 -1.16042e-27)
(0.0218237 0.123842 -1.29303e-26)
(0.0208419 0.127282 1.64295e-27)
(0.0192311 0.131282 2.2037e-27)
(0.0156424 0.134595 7.77499e-28)
(0.0173397 0.134428 8.47606e-28)
(0.0125849 0.136396 -1.69552e-27)
(0.0141361 0.136568 -1.41138e-28)
(0.00905785 0.13767 0)
(0.0105296 0.138165 0)
(0.007072 0.139108 -4.0276e-27)
(0.00223866 0.139522 -2.5447e-28)
(0.00502471 0.140059 2.27367e-27)
(0.00298281 0.140623 2.09011e-28)
(0.000343791 0.138295 -2.78253e-27)
(0.000603613 0.13945 -4.01537e-27)
(-0.000575323 0.138071 3.25578e-27)
(-0.000419121 0.136305 0)
(-0.00101042 0.137893 0)
(-0.000995588 0.137257 -1.464e-27)
(0.0552272 -0.000326356 -1.69203e-29)
(0.0571406 0.000388172 1.18788e-28)
(0.0588116 0.0023225 3.01262e-27)
(0.06015 0.00558944 -3.04779e-27)
(0.06099 0.0104618 9.07499e-28)
(0.0614442 0.0169628 1.08363e-27)
(0.0615279 0.0245934 -1.22402e-27)
(0.0612416 0.0329447 1.3457e-27)
(0.0606603 0.0415213 0)
(0.0599481 0.0502876 0)
(0.0591687 0.0592024 0)
(0.0586112 0.0686646 3.09652e-27)
(0.0584293 0.0788906 -3.55835e-28)
(0.0597991 0.0914272 2.47358e-27)
(0.0631082 0.107008 5.64448e-27)
(0.0660867 0.121826 -2.80328e-27)
(0.0666577 0.132847 -2.70375e-27)
(0.0632254 0.13731 1.19504e-27)
(0.0560694 0.135599 -8.92142e-28)
(0.0479978 0.131261 -1.40662e-27)
(0.0411086 0.127128 -5.44024e-27)
(0.0357545 0.123724 -6.41802e-27)
(0.031699 0.120951 1.38905e-26)
(0.0288046 0.118807 -9.05669e-28)
(0.0268834 0.117353 0)
(0.0257221 0.116801 -3.01746e-27)
(0.0250193 0.117182 -2.0968e-28)
(0.0245308 0.118464 -3.36317e-28)
(0.0240095 0.120431 -3.97433e-27)
(0.0233721 0.123073 -1.50207e-27)
(0.0228499 0.126369 -4.7415e-27)
(0.0219237 0.130139 1.59067e-26)
(0.0188375 0.134072 0)
(0.0205667 0.133628 -1.02174e-27)
(0.015862 0.136561 1.32011e-27)
(0.0176406 0.136408 2.75213e-28)
(0.0122079 0.138522 -1.32515e-27)
(0.0139887 0.13874 0)
(0.00850773 0.139801 1.75111e-27)
(0.0101233 0.140406 -7.61271e-28)
(0.00629297 0.140959 -5.64314e-27)
(0.00107622 0.140728 -1.12935e-27)
(0.00401881 0.141694 5.27679e-27)
(0.00172753 0.142069 3.5872e-27)
(-0.000724 0.138948 -1.79641e-27)
(-0.000643875 0.140281 0)
(-0.00154959 0.138364 0)
(-0.000562104 0.135786 0)
(-0.00178736 0.137855 -6.29369e-28)
(-0.00145269 0.136883 -7.236e-28)
(0.0532044 -0.00062271 -2.94916e-27)
(0.0557864 -0.000445959 -2.86618e-27)
(0.0581753 0.00112767 0)
(0.0602687 0.00413001 0)
(0.0616918 0.00889111 2.95347e-27)
(0.0626264 0.0153019 2.97735e-27)
(0.0631484 0.022915 -1.25436e-27)
(0.0631854 0.0313108 0)
(0.0628285 0.0399715 0)
(0.0621895 0.0488044 3.01319e-27)
(0.0613936 0.0577898 0)
(0.0606146 0.0671712 -6.27177e-27)
(0.060153 0.0772377 -3.01647e-27)