/*--------------------------------*- C++ -*----------------------------------*\
  =========                 |
  \\      /  F ield         | OpenFOAM: The Open Source CFD Toolbox
   \\    /   O peration     | Website:  https://openfoam.org
    \\  /    A nd           | Version:  dev
     \\/     M anipulation  |
\*---------------------------------------------------------------------------*/
FoamFile
{
    version     2.0;
    format      ascii;
    class       volScalarField;
    location    "2500";
    object      a;
}
// * * * * * * * * * * * * * * * * * * * * * * * * * * * * * * * * * * * * * //

dimensions      [0 -1 0 0 0 0 0];

internalField   nonuniform List<scalar> 
9842
(
0.100011
0.100011
0.100011
0.100011
0.100011
0.100011
0.100011
0.100011
0.100011
0.100011
0.10001
0.100011
0.100011
0.100011
0.100011
0.10001
0.10001
0.100011
0.100011
0.100011
0.100011
0.10001
0.10001
0.10001
0.100011
0.100011
0.100011
0.100011
0.10001
0.10001
0.10001
0.10001
0.100011
0.100011
0.100011
0.100011
0.100009
0.10001
0.10001
0.10001
0.10001
0.100011
0.100011
0.100011
0.100011
0.100009
0.100009
0.10001
0.10001
0.10001
0.10001
0.100011
0.100011
0.100011
0.100011
0.100009
0.100009
0.100009
0.10001
0.10001
0.10001
0.10001
0.100011
0.100011
0.100011
0.100011
0.100009
0.100009
0.100009
0.100009
0.10001
0.10001
0.10001
0.10001
0.100011
0.100011
0.100011
0.100011
0.100009
0.100009
0.100009
0.100009
0.100009
0.10001
0.10001
0.10001
0.10001
0.100011
0.100011
0.100011
0.100011
0.100008
0.100009
0.100009
0.100009
0.100009
0.100009
0.10001
0.10001
0.10001
0.10001
0.100011
0.100011
0.100011
0.100011
0.100008
0.100008
0.100009
0.100009
0.100009
0.100009
0.100009
0.10001
0.10001
0.10001
0.10001
0.100011
0.100011
0.100011
0.100011
0.100008
0.100008
0.100008
0.100009
0.100009
0.100009
0.100009
0.100009
0.10001
0.10001
0.10001
0.10001
0.100011
0.100011
0.100011
0.100011
0.100008
0.100008
0.100008
0.100008
0.100009
0.100009
0.100009
0.100009
0.100009
0.10001
0.10001
0.10001
0.10001
0.100011
0.100011
0.100011
0.100011
0.100007
0.100008
0.100008
0.100008
0.100008
0.100009
0.100009
0.100009
0.100009
0.100009
0.10001
0.10001
0.10001
0.10001
0.100011
0.100011
0.100011
0.100011
0.100007
0.100007
0.100008
0.100008
0.100008
0.100008
0.100009
0.100009
0.100009
0.100009
0.100009
0.10001
0.10001
0.10001
0.10001
0.100011
0.100011
0.100011
0.100011
0.100007
0.100007
0.100007
0.100008
0.100008
0.100008
0.100008
0.100009
0.100009
0.100009
0.100009
0.100009
0.10001
0.10001
0.10001
0.10001
0.100011
0.100011
0.100011
0.100011
0.100007
0.100007
0.100007
0.100007
0.100008
0.100008
0.100008
0.100008
0.100009
0.100009
0.100009
0.100009
0.100009
0.10001
0.10001
0.10001
0.10001
0.100011
0.100011
0.100011
0.100011
0.100006
0.100007
0.100007
0.100007
0.100007
0.100008
0.100008
0.100008
0.100008
0.100009
0.100009
0.100009
0.100009
0.100009
0.10001
0.10001
0.10001
0.10001
0.100011
0.100011
0.100011
0.100011
0.100006
0.100006
0.100007
0.100007
0.100007
0.100007
0.100008
0.100008
0.100008
0.100008
0.100009
0.100009
0.100009
0.100009
0.100009
0.10001
0.10001
0.10001
0.10001
0.100011
0.100011
0.100011
0.100011
0.100006
0.100006
0.100006
0.100007
0.100007
0.100007
0.100007
0.100008
0.100008
0.100008
0.100008
0.100009
0.100009
0.100009
0.100009
0.100009
0.10001
0.10001
0.10001
0.10001
0.100011
0.100011
0.100011
0.100011
0.100006
0.100006
0.100006
0.100006
0.100007
0.100007
0.100007
0.100007
0.100008
0.100008
0.100008
0.100008
0.100009
0.100009
0.100009
0.100009
0.100009
0.10001
0.10001
0.10001
0.10001
0.100011
0.100011
0.100011
0.100011
0.100006
0.100006
0.100006
0.100006
0.100006
0.100007
0.100007
0.100007
0.100007
0.100008
0.100008
0.100008
0.100008
0.100008
0.100009
0.100009
0.100009
0.100009
0.10001
0.10001
0.10001
0.10001
0.100011
0.100011
0.100011
0.100011
0.100005
0.100006
0.100006
0.100006
0.100006
0.100006
0.100007
0.100007
0.100007
0.100007
0.100008
0.100008
0.100008
0.100008
0.100008
0.100009
0.100009
0.100009
0.100009
0.10001
0.10001
0.10001
0.10001
0.100011
0.100011
0.100011
0.100011
0.100005
0.100005
0.100006
0.100006
0.100006
0.100006
0.100006
0.100007
0.100007
0.100007
0.100007
0.100008
0.100008
0.100008
0.100008
0.100008
0.100009
0.100009
0.100009
0.100009
0.10001
0.10001
0.10001
0.10001
0.100011
0.100011
0.100011
0.100011
0.100005
0.100005
0.100005
0.100006
0.100006
0.100006
0.100006
0.100006
0.100007
0.100007
0.100007
0.100007
0.100008
0.100008
0.100008
0.100008
0.100008
0.100009
0.100009
0.100009
0.100009
0.10001
0.10001
0.10001
0.10001
0.100011
0.100011
0.100011
0.100011
0.100005
0.100005
0.100005
0.100005
0.100006
0.100006
0.100006
0.100006
0.100006
0.100007
0.100007
0.100007
0.100007
0.100008
0.100008
0.100008
0.100008
0.100008
0.100009
0.100009
0.100009
0.100009
0.10001
0.10001
0.10001
0.10001
0.100011
0.100011
0.100011
0.100011
0.100004
0.100005
0.100005
0.100005
0.100005
0.100006
0.100006
0.100006
0.100006
0.100006
0.100007
0.100007
0.100007
0.100007
0.100008
0.100008
0.100008
0.100008
0.100008
0.100009
0.100009
0.100009
0.100009
0.10001
0.10001
0.10001
0.10001
0.100011
0.100011
0.100011
0.100011
0.100004
0.100004
0.100005
0.100005
0.100005
0.100005
0.100006
0.100006
0.100006
0.100006
0.100006
0.100007
0.100007
0.100007
0.100007
0.100008
0.100008
0.100008
0.100008
0.100008
0.100009
0.100009
0.100009
0.100009
0.10001
0.10001
0.10001
0.10001
0.100011
0.100011
0.100011
0.100011
0.100004
0.100004
0.100004
0.100005
0.100005
0.100005
0.100005
0.100006
0.100006
0.100006
0.100006
0.100006
0.100007
0.100007
0.100007
0.100007
0.100008
0.100008
0.100008
0.100008
0.100008
0.100009
0.100009
0.100009
0.100009
0.10001
0.10001
0.10001
0.10001
0.100011
0.100011
0.100011
0.100011
0.100004
0.100004
0.100004
0.100004
0.100005
0.100005
0.100005
0.100005
0.100006
0.100006
0.100006
0.100006
0.100006
0.100007
0.100007
0.100007
0.100007
0.100008
0.100008
0.100008
0.100008
0.100008
0.100009
0.100009
0.100009
0.100009
0.10001
0.10001
0.10001
0.10001
0.100011
0.100011
0.100011
0.100011
0.100011
0.100004
0.100004
0.100004
0.100004
0.100004
0.100005
0.100005
0.100005
0.100005
0.100006
0.100006
0.100006
0.100006
0.100006
0.100007
0.100007
0.100007
0.100007
0.100008
0.100008
0.100008
0.100008
0.100008
0.100009
0.100009
0.100009
0.100009
0.10001
0.10001
0.10001
0.10001
0.100011
0.100011
0.100011
0.100011
0.100011
0.100011
0.100003
0.100004
0.100004
0.100004
0.100004
0.100004
0.100005
0.100005
0.100005
0.100005
0.100006
0.100006
0.100006
0.100006
0.100006
0.100007
0.100007
0.100007
0.100007
0.100008
0.100008
0.100008
0.100008
0.100008
0.100009
0.100009
0.100009
0.100009
0.10001
0.10001
0.10001
0.10001
0.100011
0.10001
0.100011
0.100011
0.100011
0.100011
0.100011
0.100011
0.100011
0.100003
0.100003
0.100004
0.100004
0.100004
0.100004
0.100004
0.100005
0.100005
0.100005
0.100005
0.100006
0.100006
0.100006
0.100006
0.100006
0.100007
0.100007
0.100007
0.100007
0.100008
0.100008
0.100008
0.100008
0.100008
0.100009
0.100009
0.100009
0.100009
0.10001
0.10001
0.10001
0.10001
0.10001
0.10001
0.100011
0.100011
0.100011
0.100011
0.100011
0.100011
0.100011
0.100003
0.100003
0.100003
0.100004
0.100004
0.100004
0.100004
0.100004
0.100005
0.100005
0.100005
0.100005
0.100006
0.100006
0.100006
0.100006
0.100006
0.100007
0.100007
0.100007
0.100007
0.100008
0.100008
0.100008
0.100008
0.100008
0.100009
0.100009
0.100009
0.100009
0.10001
0.10001
0.10001
0.10001
0.10001
0.10001
0.10001
0.100011
0.100011
0.100011
0.100011
0.100011
0.100011
0.100011
0.100003
0.100003
0.100003
0.100003
0.100004
0.100004
0.100004
0.100004
0.100004
0.100005
0.100005
0.100005
0.100005
0.100006
0.100006
0.100006
0.100006
0.100006
0.100007
0.100007
0.100007
0.100007
0.100008
0.100008
0.100008
0.100008
0.100008
0.100009
0.100009
0.100009
0.100009
0.10001
0.10001
0.10001
0.10001
0.10001
0.10001
0.10001
0.10001
0.100011
0.100011
0.100011
0.100011
0.100011
0.100011
0.100011
0.100002
0.100003
0.100003
0.100003
0.100003
0.100003
0.100004
0.100004
0.100004
0.100004
0.100005
0.100005
0.100005
0.100005
0.100006
0.100006
0.100006
0.100006
0.100006
0.100007
0.100007
0.100007
0.100007
0.100008
0.100008
0.100008
0.100008
0.100008
0.100009
0.100009
0.100009
0.100009
0.10001
0.10001
0.10001
0.10001
0.10001
0.10001
0.10001
0.10001
0.10001
0.100011
0.100011
0.100011
0.100011
0.100011
0.100011
0.100011
0.100002
0.100002
0.100003
0.100003
0.100003
0.100003
0.100003
0.100004
0.100004
0.100004
0.100004
0.100005
0.100005
0.100005
0.100005
0.100006
0.100006
0.100006
0.100006
0.100006
0.100007
0.100007
0.100007
0.100007
0.100008
0.100008
0.100008
0.100008
0.100008
0.100009
0.100009
0.100009
0.100009
0.100009
0.10001
0.10001
0.10001
0.10001
0.10001
0.10001
0.10001
0.10001
0.10001
0.100011
0.100011
0.100011
0.100011
0.100011
0.100011
0.100011
0.100002
0.100002
0.100002
0.100003
0.100003
0.100003
0.100003
0.100003
0.100004
0.100004
0.100004
0.100004
0.100005
0.100005
0.100005
0.100005
0.100006
0.100006
0.100006
0.100006
0.100006
0.100007
0.100007
0.100007
0.100007
0.100008
0.100008
0.100008
0.100008
0.100008
0.100009
0.100009
0.100009
0.100009
0.100009
0.100009
0.10001
0.10001
0.10001
0.10001
0.10001
0.10001
0.10001
0.10001
0.100011
0.100011
0.100011
0.100011
0.100011
0.100011
0.100011
0.100011
0.100002
0.100002
0.100002
0.100002
0.100003
0.100003
0.100003
0.100003
0.100003
0.100004
0.100004
0.100004
0.100004
0.100005
0.100005
0.100005
0.100005
0.100006
0.100006
0.100006
0.100006
0.100006
0.100007
0.100007
0.100007
0.100007
0.100008
0.100008
0.100008
0.100008
0.100008
0.100009
0.100009
0.100009
0.100009
0.100009
0.10001
0.100009
0.10001
0.10001
0.10001
0.10001
0.10001
0.10001
0.10001
0.10001
0.100011
0.100011
0.100011
0.100011
0.100011
0.100011
0.100011
0.100011
0.100001
0.100002
0.100002
0.100002
0.100002
0.100003
0.100003
0.100003
0.100003
0.100003
0.100004
0.100004
0.100004
0.100004
0.100005
0.100005
0.100005
0.100005
0.100006
0.100006
0.100006
0.100006
0.100006
0.100007
0.100007
0.100007
0.100007
0.100008
0.100008
0.100008
0.100008
0.100009
0.100009
0.100009
0.100009
0.100009
0.10001
0.10001
0.10001
0.10001
0.10001
0.100011
0.100011
0.100012
0.100011
0.100012
0.100011
0.100011
0.100011
0.100011
0.100011
0.100011
0.100011
0.100011
0.100011
0.100011
0.100001
0.100001
0.100002
0.100002
0.100002
0.100002
0.100003
0.100003
0.100003
0.100003
0.100004
0.100004
0.100004
0.100004
0.100004
0.100005
0.100005
0.100005
0.100005
0.100006
0.100006
0.100006
0.100006
0.100006
0.100007
0.100007
0.100007
0.100007
0.100008
0.100008
0.100008
0.100008
0.100009
0.100008
0.100009
0.100009
0.10001
0.100011
0.100012
0.100015
0.100014
0.100019
0.100016
0.100025
0.100016
0.100028
0.100014
0.100025
0.100012
0.100018
0.100013
0.100011
0.100014
0.100014
0.100011
0.100011
0.100011
0.100011
0.100001
0.100001
0.100001
0.100002
0.100002
0.100002
0.100002
0.100003
0.100003
0.100003
0.100004
0.100004
0.100004
0.100004
0.100005
0.100005
0.100005
0.100005
0.100005
0.100005
0.100006
0.100006
0.100006
0.100006
0.100006
0.100007
0.100007
0.100007
0.100007
0.100008
0.100008
0.100008
0.100011
0.10001
0.100011
0.100013
0.100015
0.100019
0.100029
0.100032
0.100059
0.100048
0.100097
0.100062
0.100145
0.100062
0.100166
0.100045
0.100139
0.100024
0.100078
0.100031
0.100014
0.100036
0.100036
0.100011
0.100013
0.100011
0.100011
0.100001
0.100001
0.100001
0.100001
0.100002
0.100002
0.100002
0.100002
0.100003
0.100003
0.100004
0.100005
0.100006
0.100006
0.100006
0.100005
0.100005
0.100006
0.100005
0.100005
0.100006
0.100006
0.100006
0.100006
0.100006
0.100007
0.100007
0.100007
0.100008
0.100009
0.100009
0.10001
0.100014
0.10003
0.100039
0.100019
0.100025
0.10004
0.100062
0.100095
0.100168
0.1002
0.100409
0.100335
0.100719
0.100442
0.101082
0.100432
0.101213
0.100292
0.100992
0.100126
0.100539
0.100173
0.100031
0.100203
0.100191
0.100012
0.100024
0.100011
0.100012
0.100001
0.100001
0.100001
0.100001
0.100001
0.100002
0.100002
0.100002
0.100003
0.100005
0.100008
0.100011
0.100013
0.100013
0.100012
0.10001
0.100008
0.100008
0.100007
0.100006
0.100006
0.100006
0.100006
0.100006
0.100006
0.100007
0.100007
0.100009
0.100011
0.100016
0.100022
0.100028
0.100023
0.10005
0.100078
0.100169
0.100224
0.10009
0.100128
0.100256
0.100406
0.10069
0.101157
0.101489
0.102732
0.10245
0.104908
0.103111
0.107121
0.102947
0.107683
0.101994
0.106205
0.100855
0.103461
0.101142
0.100144
0.101284
0.101159
0.100018
0.10009
0.100011
0.100014
0.1
0.100001
0.100001
0.100001
0.100001
0.100001
0.100002
0.100002
0.100004
0.100009
0.100019
0.100032
0.100043
0.100044
0.100038
0.100029
0.100021
0.100017
0.100012
0.100009
0.100008
0.100008
0.100007
0.100007
0.100007
0.100008
0.100012
0.100021
0.100033
0.100058
0.1001
0.100155
0.100219
0.100149
0.100008
0.100291
0.100419
0.101127
0.101538
0.100601
0.100839
0.101755
0.102666
0.104506
0.106909
0.10898
0.114598
0.114146
0.124377
0.117584
0.133319
0.116253
0.136416
0.1113
0.129791
0.105112
0.117799
0.106448
0.100824
0.106881
0.105971
0.100048
0.100464
0.100012
0.100024
0.1
0.1
0.100001
0.100001
0.100001
0.100001
0.100002
0.100002
0.100006
0.10002
0.100053
0.100102
0.100145
0.100159
0.100141
0.100106
0.100071
0.100047
0.100035
0.100021
0.100016
0.100013
0.100011
0.100009
0.100009
0.100015
0.100038
0.10008
0.100163
0.100311
0.100551
0.100883
0.101383
0.103062
0.1007
0.102211
0.102061
0.103032
0.107012
0.10953
0.103835
0.105223
0.110061
0.114196
0.121755
0.13005
0.137409
0.151953
0.152965
0.174843
0.163536
0.193381
0.16321
0.201631
0.147457
0.193972
0.124069
0.165746
0.128395
0.104093
0.128722
0.124061
0.100197
0.10214
0.100013
0.100062
0.1
0.1
0.100001
0.100001
0.100001
0.100001
0.100003
0.100011
0.100047
0.100141
0.100298
0.100459
0.100537
0.100499
0.100386
0.10026
0.100162
0.100103
0.100062
0.100042
0.10003
0.100021
0.100015
0.100014
0.100038
0.100119
0.100347
0.100849
0.101699
0.102964
0.104589
0.106621
0.1117
0.114103
0.124355
0.1047
0.108541
0.112745
0.117774
0.130907
0.138256
0.119086
0.124606
0.139613
0.149848
0.167151
0.182353
0.197206
0.21848
0.223167
0.251461
0.240126
0.275946
0.242552
0.287567
0.224797
0.281156
0.180606
0.251225
0.18892
0.116146
0.186349
0.17101
0.100776
0.107968
0.100018
0.100186
0.1
0.1
0.100001
0.100001
0.100001
0.100004
0.100021
0.100101
0.100338
0.100782
0.101307
0.101649
0.101631
0.101316
0.100909
0.100569
0.100338
0.1002
0.100121
0.10008
0.100051
0.100032
0.100025
0.100089
0.100356
0.101289
0.103559
0.107614
0.112991
0.118508
0.123832
0.13272
0.140909
0.151203
0.145945
0.162649
0.124414
0.13479
0.146494
0.156268
0.180919
0.191451
0.160225
0.170549
0.197588
0.211846
0.238186
0.256452
0.277293
0.299943
0.308004
0.335965
0.327057
0.360208
0.330884
0.371313
0.314212
0.365824
0.269677
0.339044
0.278079
0.14863
0.273945
0.258879
0.202491
0.102558
0.123259
0.100028
0.100401
0.1
0.1
0.100001
0.100001
0.100005
0.100036
0.100196
0.100718
0.1018
0.103283
0.104508
0.104841
0.104183
0.103025
0.10194
0.101132
0.100638
0.100369
0.100217
0.10013
0.100075
0.100047
0.100134
0.100846
0.103661
0.110922
0.123661
0.139977
0.154737
0.165918
0.177223
0.204558
0.176397
0.206921
0.195138
0.21176
0.167576
0.180729
0.202173
0.213887
0.248456
0.25948
0.224899
0.237014
0.273273
0.287972
0.31969
0.33722
0.359673
0.379061
0.387462
0.409471
0.403239
0.427852
0.406778
0.4362
0.392608
0.432368
0.354092
0.406863
0.381227
0.318542
0.357813
0.239169
0.165605
0.224921
0.305593
0.352646
0.354006
0.295548
0.105476
0.19361
0.172389
0.127294
0.100025
0.100371
0.1
0.1
0.100001
0.100006
0.100055
0.100345
0.101336
0.103601
0.107091
0.110742
0.11268
0.112094
0.109471
0.106304
0.103676
0.10199
0.101068
0.100593
0.100331
0.10018
0.100097
0.100168
0.10132
0.107101
0.12234
0.148585
0.17703
0.203308
0.226263
0.245649
0.267661
0.272057
0.289935
0.229149
0.250105
0.254987
0.270972
0.226513
0.240209
0.270502
0.282098
0.322796
0.332613
0.300803
0.312298
0.352333
0.364709
0.394974
0.408209
0.426749
0.439412
0.446438
0.459306
0.456781
0.470245
0.441791
0.453338
0.462262
0.470175
0.426716
0.445063
0.460518
0.469696
0.458409
0.410724
0.388663
0.418054
0.433862
0.390241
0.280614
0.258381
0.343678
0.385106
0.389404
0.332408
0.139069
0.104332
0.119166
0.232704
0.198663
0.100018
0.105999
0.101173
0.100124
0.1
0.100001
0.100007
0.10008
0.100531
0.102228
0.106287
0.113201
0.121323
0.128192
0.130464
0.12654
0.118534
0.111013
0.105968
0.103059
0.101571
0.100825
0.100423
0.100209
0.10021
0.101552
0.110127
0.134212
0.17127
0.21275
0.247495
0.276674
0.30191
0.326834
0.359463
0.32501
0.355473
0.288034
0.308261
0.320135
0.333876
0.294234
0.306865
0.342196
0.351855
0.391442
0.397818
0.374972
0.3838
0.418533
0.425958
0.448725
0.454345
0.467294
0.472215
0.478261
0.483397
0.475796
0.480397
0.4836
0.486249
0.470291
0.477245
0.482263
0.451729
0.465617
0.477405
0.482974
0.475767
0.440006
0.419737
0.443837
0.457801
0.420715
0.315721
0.293879
0.377415
0.419245
0.415048
0.36557
0.162642
0.128986
0.265416
0.230128
0.100189
0.100012
0.100025
0.109279
0.101981
0.1
0.100007
0.100091
0.100728
0.103209
0.10973
0.121253
0.136122
0.149259
0.155903
0.153854
0.144269
0.129967
0.116511
0.108402
0.10411
0.102065
0.100971
0.100455
0.100295
0.101567
0.111507
0.143358
0.191822
0.238447
0.272507
0.297263
0.31952
0.341623
0.365087
0.391626
0.387983
0.377371
0.387924
0.348671
0.364258
0.380277
0.388524
0.361817
0.371144
0.403462
0.407831
0.435535
0.435215
0.430949
0.434089
0.457499
0.458376
0.475568
0.476577
0.486782
0.489125
0.488314
0.490276
0.492316
0.494658
0.485687
0.488191
0.490188
0.492124
0.483086
0.486843
0.489313
0.471299
0.480968
0.48744
0.49056
0.487159
0.462381
0.446026
0.46554
0.475946
0.446652
0.348951
0.32654
0.407564
0.445241
0.441464
0.396003
0.18794
0.14394
0.297228
0.25996
0.100287
0.100012
0.100022
0.115453
0.103572
0.100004
0.100095
0.10082
0.10419
0.113124
0.130124
0.152194
0.172485
0.183794
0.184924
0.176284
0.16014
0.140617
0.122159
0.110502
0.105014
0.102201
0.100977
0.100486
0.101523
0.111457
0.147329
0.204808
0.248332
0.27327
0.29413
0.314383
0.334527
0.355015
0.374895
0.398372
0.38915
0.402308
0.401451
0.395202
0.400219
0.414249
0.41409
0.411118
0.413029
0.434257
0.43241
0.452242
0.447281
0.457499
0.455617
0.475911
0.473836
0.491937
0.492314
0.49724
0.500204
0.503143
0.506196
0.494278
0.496974
0.50044
0.504776
0.491219
0.492958
0.495019
0.497874
0.49009
0.491742
0.493148
0.485111
0.490387
0.492254
0.49364
0.492766
0.47952
0.467532
0.482211
0.488486
0.468185
0.379642
0.357222
0.434526
0.467236
0.464219
0.423699
0.214626
0.163464
0.32745
0.288994
0.100348
0.100011
0.100018
0.124447
0.105258
0.100069
0.10087
0.104703
0.116211
0.138088
0.167638
0.194452
0.21123
0.215381
0.208631
0.193272
0.171654
0.147891
0.126436
0.111796
0.105013
0.102102
0.100901
0.101426
0.110991
0.147454
0.209661
0.246456
0.267484
0.282503
0.295521
0.307644
0.320028
0.324609
0.347864
0.317397
0.390884
0.372299
0.408177
0.402135
0.413218
0.411464
0.423238
0.419221
0.429575
0.426521
0.442188
0.436551
0.455301
0.446462
0.469398
0.462987
0.490624
0.486134
0.519949
0.523242
0.509828
0.515324
0.521022
0.526775
0.501894
0.507342
0.514291
0.522509
0.494863
0.497465
0.501526
0.507543
0.493205
0.494355
0.496253
0.492937
0.494422
0.49407
0.494295
0.494554
0.491207
0.484091
0.493483
0.495134
0.485068
0.407998
0.386069
0.458309
0.484926
0.48312
0.448745
0.240976
0.185136
0.356343
0.317142
0.100299
0.100011
0.100016
0.133967
0.105616
0.100726
0.104953
0.117943
0.144715
0.180498
0.213991
0.234767
0.240977
0.236507
0.223285
0.202685
0.177021
0.150101
0.126983
0.111358
0.104561
0.101765
0.101438
0.109628
0.146278
0.208728
0.240797
0.253996
0.255191
0.248989
0.240503
0.233211
0.225423
0.217176
0.304905
0.256993
0.363553
0.336749
0.397487
0.383391
0.414276
0.407362
0.41541
0.406496
0.430362
0.423316
0.436365
0.425273
0.454236
0.43853
0.478096
0.467325
0.520931
0.513964
0.565906
0.571497
0.573847
0.573889
0.531454
0.540734
0.549945
0.558577
0.515786
0.526174
0.538296
0.551454
0.499761
0.505641
0.514388
0.526077
0.494896
0.497271
0.502278
0.495876
0.495034
0.494942
0.49484
0.494078
0.497075
0.495414
0.499032
0.497171
0.496914
0.434207
0.413267
0.478871
0.49785
0.497792
0.471094
0.267046
0.205816
0.384136
0.344575
0.10026
0.100012
0.100024
0.139834
0.10543
0.104493
0.118737
0.148522
0.190496
0.229301
0.251508
0.258291
0.255601
0.245482
0.228651
0.204749
0.176275
0.148369
0.125306
0.110035
0.103558
0.101729
0.107705
0.142309
0.205914
0.233849
0.24017
0.224457
0.193174
0.167943
0.158077
0.151158
0.143096
0.159865
0.127187
0.247614
0.200311
0.320005
0.286646
0.367563
0.346753
0.396176
0.3836
0.388926
0.375489
0.413633
0.401536
0.42076
0.402863
0.460882
0.437279
0.500362
0.482344
0.571507
0.565936
0.567191
0.608121
0.612276
0.610193
0.612593
0.564953
0.5782
0.590336
0.600563
0.540421
0.556738
0.57426
0.592101
0.510634
0.522637
0.538115
0.55646
0.4982
0.505217
0.516544
0.495233
0.49363
0.499252
0.500644
0.494595
0.498516
0.501111
0.500205
0.495437
0.503324
0.45841
0.439067
0.49582
0.505534
0.507472
0.490672
0.292195
0.224118
0.411011
0.371796
0.10032
0.100027
0.100156
0.143102
0.105921
0.117747
0.15012
0.196435
0.240077
0.26126
0.267592
0.26606
0.259338
0.246432
0.226636
0.200642
0.17132
0.143128
0.120924
0.107452
0.102643
0.106141
0.136035
0.200212
0.2282
0.228877
0.198402
0.15368
0.130396
0.120879
0.11609
0.111766
0.104641
0.118854
0.106324
0.179453
0.141778
0.261828
0.222596
0.321253
0.294549
0.360498
0.342832
0.349065
0.330611
0.384967
0.367006
0.411905
0.383398
0.486474
0.451669
0.543251
0.517135
0.604808
0.597327
0.593357
0.577827
0.649897
0.649594
0.633144
0.643755
0.609269
0.62454
0.636883
0.645522
0.576917
0.598534
0.620195
0.640468
0.532106
0.551315
0.573478
0.597741
0.50866
0.523204
0.542289
0.493172
0.494388
0.512519
0.515736
0.501705
0.495991
0.502505
0.497307
0.492863
0.505628
0.480697
0.463687
0.508266
0.509398
0.513404
0.506805
0.318621
0.243387
0.437977
0.400796
0.100876
0.101135
0.102095
0.149255
0.109113
0.148637
0.199052
0.245966
0.265908
0.271266
0.270838
0.265078
0.254476
0.239053
0.217875
0.19119
0.161673
0.134584
0.114928
0.104738
0.105461
0.1296
0.192203
0.223529
0.221617
0.18344
0.136827
0.115487
0.107177
0.104212
0.10265
0.100933
0.100585
0.100231
0.104174
0.101359
0.127021
0.111255
0.190762
0.154251
0.260504
0.228177
0.310529
0.287524
0.30198
0.276633
0.35438
0.327535
0.414176
0.376316
0.506427
0.473216
0.56618
0.551682
0.532992
0.619983
0.606681
0.582468
0.567998
0.678483
0.667418
0.63543
0.652061
0.65781
0.671072
0.67937
0.682276
0.62294
0.647556
0.66972
0.68778
0.565055
0.590767
0.618404
0.646458
0.530144
0.552567
0.578835
0.494036
0.502172
0.536476
0.541778
0.51809
0.492915
0.499827
0.49367
0.493567
0.503755
0.500942
0.488089
0.516878
0.509216
0.516504
0.519307
0.347801
0.267479
0.465522
0.431035
0.104583
0.119757
0.115801
0.165789
0.122338
0.197652
0.248101
0.267675
0.272088
0.270982
0.264926
0.255204
0.24231
0.225758
0.204218
0.177622
0.149117
0.124662
0.109055
0.10548
0.123811
0.182805
0.219569
0.217875
0.177789
0.133244
0.11212
0.103714
0.101263
0.100546
0.100181
0.100049
0.100155
0.100072
0.101008
0.100379
0.106733
0.10265
0.133161
0.115892
0.189519
0.158815
0.249973
0.220851
0.262484
0.228338
0.33784
0.299081
0.432661
0.385022
0.500723
0.491509
0.471345
0.556222
0.545187
0.507271
0.513702
0.617434
0.59905
0.54905
0.534954
0.686405
0.668341
0.61973
0.64633
0.700533
0.707578
0.70806
0.700715
0.672855
0.695641
0.713283
0.724956
0.607921
0.638485
0.66834
0.695345
0.562369
0.59218
0.624667
0.501791
0.519152
0.571152
0.578389
0.545572
0.493261
0.495704
0.49369
0.500576
0.499689
0.518228
0.510779
0.523339
0.506699
0.516831
0.528737
0.379391
0.302518
0.492975
0.461496
0.122672
0.159455
0.170673
0.211536
0.168584
0.247158
0.267648
0.271615
0.268644
0.261118
0.252495
0.241408
0.22662
0.208796
0.187151
0.161502
0.13541
0.115359
0.106419
0.119186
0.172525
0.21619
0.216607
0.178586
0.135427
0.113562
0.103719
0.100872
0.100216
0.100063
0.100016
0.100036
0.100013
0.100093
0.100054
0.100468
0.100199
0.102508
0.101102
0.111608
0.105509
0.141434
0.122996
0.196227
0.166565
0.245592
0.207443
0.335341
0.28841
0.440753
0.398583
0.479254
0.474992
0.448379
0.442714
0.525697
0.519172
0.480782
0.480648
0.592777
0.568566
0.498543
0.48658
0.68405
0.65628
0.586313
0.622912
0.729605
0.728393
0.719712
0.704675
0.717619
0.733985
0.743927
0.746627
0.657485
0.688248
0.71483
0.73575
0.604706
0.640353
0.675124
0.518267
0.546987
0.615656
0.623898
0.582967
0.499076
0.495483
0.497752
0.515669
0.498655
0.53217
0.530361
0.527954
0.505313
0.517422
0.53703
0.413978
0.348928
0.519039
0.492096
0.180185
0.117266
0.204024
0.280773
0.247686
0.266326
0.270488
0.263836
0.251215
0.242084
0.235988
0.224897
0.208709
0.189604
0.168209
0.144565
0.12269
0.109522
0.11638
0.162164
0.212629
0.216946
0.182789
0.14252
0.119131
0.105745
0.101089
0.100199
0.100035
0.100009
0.100008
0.100023
0.100012
0.100077
0.100049
0.100329
0.100141
0.101734
0.100768
0.107776
0.103778
0.127616
0.115097
0.174228
0.147147
0.247773
0.206916
0.34847
0.296
0.433597
0.42099
0.393668
0.450406
0.450994
0.423002
0.421255
0.481623
0.480362
0.447187
0.441526
0.550462
0.520159
0.441084
0.433016
0.675027
0.63878
0.547994
0.595533
0.745167
0.736923
0.723092
0.703096
0.750396
0.75809
0.759938
0.758719
0.706087
0.731557
0.750618
0.763129
0.654453
0.690932
0.721975
0.54503
0.583243
0.665868
0.6715
0.626639
0.511741
0.497958
0.50663
0.539641
0.501175
0.543899
0.547885
0.531566
0.50819
0.520765
0.545238
0.450389
0.396852
0.543135
0.521931
0.248333
0.105631
0.195892
0.345983
0.315302
0.26848
0.259958
0.243092
0.229462
0.222352
0.21779
0.206417
0.189082
0.169313
0.148956
0.128618
0.113736
0.115587
0.15276
0.208061
0.217808
0.190978
0.153385
0.12909
0.111488
0.101922
0.100297
0.100043
0.100009
0.100006
0.100007
0.100017
0.10001
0.100068
0.100035
0.100242
0.100107
0.101414
0.100589
0.107056
0.10326
0.126909
0.11431
0.173274
0.146488
0.256697
0.213032
0.352523
0.304716
0.415825
0.406834
0.364024
0.376539
0.417015
0.42155
0.391224
0.392773
0.432319
0.435861
0.408915
0.399019
0.501553
0.464187
0.387101
0.381385
0.669431
0.627577
0.516653
0.575784
0.75199
0.740772
0.724313
0.701284
0.768798
0.770191
0.769205
0.764066
0.745815
0.762589
0.772804
0.777066
0.704401
0.73558
0.758031
0.576909
0.621478
0.712132
0.71119
0.667806
0.528993
0.50364
0.519147
0.562808
0.506855
0.556568
0.566588
0.538065
0.516259
0.532167
0.556973
0.485271
0.439445
0.566148
0.549907
0.289044
0.106014
0.205229
0.398015
0.364702
0.258135
0.238625
0.222002
0.211384
0.205093
0.198866
0.18641
0.1685
0.149165
0.13096
0.117581
0.115875
0.145948
0.202211
0.218549
0.199453
0.165641
0.140452
0.119011
0.103413
0.100512
0.100071
0.100012
0.100006
0.100006
0.100007
0.100008
0.100006
0.100012
0.100053
0.100023
0.100151
0.100089
0.100976
0.10038
0.105712
0.102427
0.125524
0.112597
0.175908
0.1465
0.25234
0.208136
0.334706
0.296337
0.391173
0.385562
0.344358
0.352555
0.377734
0.386526
0.352558
0.357059
0.382536
0.389365
0.366583
0.354311
0.457154
0.410601
0.34158
0.334753
0.666231
0.620517
0.495243
0.562604
0.755509
0.742747
0.725121
0.700394
0.778062
0.777353
0.773475
0.767135
0.772339
0.780507
0.78357
0.78428
0.744395
0.766753
0.780642
0.606138
0.655684
0.746858
0.752
0.706463
0.547967
0.515994
0.541165
0.591093
0.521979
0.574783
0.586933
0.555592
0.535932
0.560432
0.583036
0.516487
0.477973
0.588692
0.576473
0.321204
0.149234
0.276513
0.443027
0.414639
0.238729
0.220526
0.20721
0.196735
0.188188
0.17881
0.165455
0.14809
0.131219
0.120618
0.117726
0.143183
0.196218
0.218608
0.207213
0.178166
0.15254
0.128298
0.105988
0.100865
0.10011
0.100016
0.100006
0.100005
0.100006
0.100008
0.100006
0.100006
0.10001
0.100037
0.100017
0.100111
0.100069
0.100629
0.100248
0.10385
0.101575
0.119689
0.108999
0.169028
0.139132
0.233613
0.194397
0.307929
0.296191
0.267485
0.358639
0.357424
0.315576
0.319877
0.333085
0.344057
0.305292
0.313522
0.335609
0.342931
0.320766
0.308621
0.425949
0.368339
0.305105
0.295583
0.665382
0.617886
0.482211
0.556327
0.758059
0.74504
0.726853
0.701024
0.784035
0.782106
0.778347
0.772027
0.787637
0.79037
0.791291
0.791679
0.772837
0.78846
0.795616
0.647288
0.713865
0.783607
0.789615
0.767892
0.584527
0.54455
0.593153
0.651171
0.558828
0.597173
0.608266
0.589679
0.583877
0.604815
0.613565
0.547643
0.514157
0.610254
0.601039
0.401717
0.383241
0.42943
0.485588
0.469826
0.224777
0.207858
0.194982
0.182876
0.171326
0.158826
0.144348
0.131607
0.123182
0.121103
0.143227
0.192529
0.218789
0.213764
0.189874
0.164697
0.13838
0.110372
0.101499
0.100177
0.100022
0.100006
0.100005
0.100005
0.100006
0.100007
0.100006
0.100006
0.100009
0.100029
0.100015
0.100094
0.100059
0.100466
0.100186
0.102822
0.101156
0.114878
0.106642
0.157736
0.130924
0.201663
0.176028
0.277659
0.272136
0.225303
0.234223
0.318307
0.320266
0.280143
0.279045
0.284418
0.295248
0.253038
0.262455
0.294522
0.298846
0.273685
0.264475
0.402736
0.335463
0.272797
0.260761
0.667329
0.618689
0.477909
0.555022
0.762362
0.74875
0.729605
0.703522
0.791309
0.788952
0.784832
0.778564
0.797676
0.798846
0.799403
0.798852
0.796258
0.80145
0.803793
0.726935
0.772399
0.799159
0.802621
0.78921
0.663274
0.606752
0.66908
0.732458
0.625233
0.619271
0.626964
0.626268
0.635536
0.64437
0.643334
0.57742
0.546077
0.630634
0.624375
0.480906
0.438372
0.505928
0.524226
0.515392
0.217934
0.198744
0.183436
0.169776
0.156456
0.143692
0.132653
0.125456
0.124424
0.1447
0.192272
0.219381
0.218971
0.200229
0.176277
0.148719
0.116855
0.102569
0.100293
0.100031
0.100007
0.100005
0.100005
0.100005
0.100006
0.100006
0.100005
0.100007
0.100006
0.100008
0.100022
0.100012
0.100086
0.100048
0.100352
0.100142
0.102179
0.100877
0.111934
0.105231
0.147296
0.12503
0.200649
0.168463
0.163086
0.146766
0.239467
0.23849
0.202559
0.270478
0.276153
0.23791
0.233004
0.236199
0.244366
0.21091
0.214326
0.25817
0.258746
0.228803
0.224116
0.392377
0.312772
0.251184
0.230758
0.67892
0.630445
0.482413
0.563899
0.769062
0.755709
0.738857
0.714112
0.796727
0.793228
0.788785
0.782818
0.807248
0.807667
0.806742
0.803999
0.806644
0.818793
0.822829
0.766839
0.778952
0.809718
0.802689
0.792745
0.722468
0.675435
0.715794
0.747203
0.676022
0.650207
0.648503
0.657048
0.670387
0.67122
0.663415
0.60338
0.576112
0.649588
0.640406
0.526085
0.280728
0.526008
0.557398
0.551303
0.215362
0.194148
0.175749
0.160237
0.14683