/*--------------------------------*- C++ -*----------------------------------*\
  =========                 |
  \\      /  F ield         | OpenFOAM: The Open Source CFD Toolbox
   \\    /   O peration     | Website:  https://openfoam.org
    \\  /    A nd           | Version:  dev
     \\/     M anipulation  |
\*---------------------------------------------------------------------------*/
FoamFile
{
    version     2.0;
    format      ascii;
    class       volScalarField;
    location    "2500";
    object      alphat;
}
// * * * * * * * * * * * * * * * * * * * * * * * * * * * * * * * * * * * * * //

dimensions      [1 -1 -1 0 0 0 0];

internalField   nonuniform List<scalar> 
9842
(
0.000157357
0.000160878
0.000153313
0.000144234
0.000196184
0.000134674
0.000131378
0.00020598
0.000185225
0.000126753
0.000126434
0.000196468
0.00021092
0.000157619
0.000124307
0.000122696
0.000173767
0.000225793
0.000194457
0.000142268
0.000122383
0.000120814
0.000152579
0.000224616
0.000220555
0.000165212
0.00013538
0.000121041
0.000119705
0.000141735
0.000213582
0.000233868
0.00019614
0.000148635
0.000130877
0.000120185
0.000119386
0.000133583
0.000190744
0.000241622
0.000222623
0.000167521
0.000140679
0.000127526
0.000119582
0.000119257
0.000128714
0.000165421
0.00023851
0.00023917
0.000191932
0.00015124
0.000135487
0.000125153
0.000119134
0.000119114
0.000125542
0.00015233
0.000227313
0.000249196
0.000220563
0.000165591
0.000143053
0.000131557
0.000123465
0.000118771
0.000118782
0.000123531
0.000141684
0.000202112
0.000253732
0.000240794
0.000187179
0.000150871
0.000137805
0.000128646
0.000122209
0.000118451
0.000118246
0.000122304
0.000134717
0.000174768
0.000249314
0.00025272
0.000213057
0.000162726
0.00014348
0.000133864
0.000126412
0.000121251
0.000118257
0.000117673
0.000121666
0.000130539
0.00015954
0.000236259
0.000260823
0.000238584
0.000181244
0.00014955
0.000138619
0.000130831
0.000124651
0.000120445
0.000118062
0.000117372
0.000121244
0.000127924
0.00014856
0.000209771
0.000262741
0.000254372
0.00020441
0.00015935
0.00014287
0.000134872
0.000128407
0.000123212
0.000119844
0.0001179
0.000117292
0.000120817
0.000126248
0.0001413
0.000183455
0.00025743
0.00026275
0.000229873
0.000175132
0.000147975
0.000138383
0.000131882
0.000126366
0.000122053
0.000119333
0.000117767
0.000117331
0.000120173
0.000124945
0.000136593
0.000166817
0.000243809
0.000269447
0.000251114
0.000195871
0.000156025
0.00014211
0.000134874
0.00012938
0.000124651
0.000121113
0.000118914
0.000117664
0.000117497
0.000119512
0.000124108
0.000133298
0.000156109
0.000218554
0.000269932
0.000264262
0.000219528
0.000169567
0.000146329
0.000137794
0.000131994
0.000127267
0.00012328
0.000120325
0.000118629
0.000117509
0.000117623
0.000118748
0.00012331
0.000131004
0.000148218
0.000192623
0.000264658
0.000270576
0.000242969
0.000187773
0.000153266
0.00014132
0.000134457
0.000129631
0.000125531
0.00012213
0.000119727
0.000118365
0.000117442
0.000117627
0.00011816
0.000122497
0.000129362
0.000142635
0.000173987
0.000251056
0.000276481
0.00026089
0.000208322
0.000164409
0.000145099
0.000137354
0.000131883
0.000127685
0.000124088
0.000121086
0.000119335
0.000117992
0.000117396
0.00011754
0.000117717
0.00012157
0.000128113
0.000138621
0.000163111
0.000227538
0.000276676
0.000272176
0.000231394
0.000179453
0.000150476
0.000140596
0.000134329
0.00012976
0.000126031
0.000122838
0.000120381
0.000118877
0.000117744
0.000117347
0.000117454
0.000117398
0.000120793
0.000127201
0.000135964
0.000154429
0.000202156
0.000272034
0.000277624
0.000253011
0.000198318
0.000159505
0.000143666
0.000136955
0.000132001
0.000127979
0.000124633
0.000121629
0.000119853
0.000118345
0.000117588
0.000117292
0.000117375
0.000117218
0.000120283
0.000126462
0.000134166
0.000148231
0.000181204
0.000259808
0.000282974
0.000269103
0.000218358
0.00017203
0.00014819
0.000139558
0.000134183
0.000130027
0.000126447
0.000123334
0.000120843
0.000119297
0.000117921
0.000117472
0.000117237
0.000117289
0.000117208
0.000119877
0.000125506
0.000132619
0.000143642
0.000170051
0.000239196
0.000284313
0.000279025
0.000240846
0.000188031
0.000154873
0.000142413
0.000136388
0.000132075
0.000128345
0.000125084
0.0001221
0.000120237
0.000118692
0.000117627
0.000117376
0.000117188
0.000117233
0.000117215
0.000119261
0.000124395
0.000131269
0.000140053
0.000160658
0.000213887
0.000280791
0.000285034
0.000260668
0.000206734
0.000165463
0.000145782
0.000138567
0.000133981
0.000130289
0.000126877
0.000123801
0.000121195
0.00011965
0.000118125
0.000117424
0.000117291
0.000117154
0.000117194
0.000117131
0.000118682
0.000123555
0.000130184
0.000137293
0.000153272
0.000191539
0.000270704
0.000289583
0.000276568
0.000226445
0.000178541
0.000151384
0.000141098
0.000135772
0.000132169
0.000128736
0.000125573
0.000122586
0.000120542
0.000119054
0.00011766
0.000117273
0.000117189
0.00011712
0.000117156
0.000117001
0.000118256
0.000122903
0.000129202
0.000135123
0.000147709
0.000176994
0.000253207
0.000292254
0.000285523
0.000247746
0.000195189
0.000159305
0.000143999
0.000137695
0.000133762
0.000130602
0.000127389
0.00012436
0.000121545
0.000119958
0.00011845
0.000117336
0.000117176
0.00011711
0.000117108
0.000117126
0.000116884
0.000118024
0.000122414
0.00012825
0.000133331
0.000143462
0.000167357
0.000230405
0.000290154
0.000292245
0.000266349
0.000213257
0.000170649
0.00014816
0.000139921
0.000135328
0.000132239
0.00012922
0.000126173
0.000123198
0.000120794
0.000119373
0.000117877
0.000117117
0.000117103
0.000117044
0.000117115
0.000117104
0.000116801
0.000117976
0.000121993
0.000127252
0.00013178
0.000140147
0.000159404
0.00020791
0.000283282
0.000295777
0.00028286
0.000232771
0.000184478
0.000154709
0.000142373
0.000136981
0.000133686
0.000130953
0.000128009
0.000125022
0.000122062
0.000120179
0.000118802
0.000117389
0.000116976
0.000117027
0.000116987
0.000117129
0.000117089
0.000116756
0.000117987
0.00012146
0.000126311
0.000130391
0.000137414
0.000153146
0.00018899
0.000269596
0.000300131
0.000291432
0.000251294
0.000201001
0.000163673
0.000145949
0.000138839
0.000135081
0.000132403
0.000129811
0.000126895
0.000123911
0.000121122
0.000119626
0.000118251
0.000117062
0.000116929
0.000116966
0.000116968
0.000117158
0.000117079
0.000116755
0.000118033
0.000121011
0.000125554
0.000129133
0.000135169
0.000148292
0.000176805
0.000252785
0.000300094
0.000298654
0.000270405
0.000217721
0.000175436
0.000151225
0.000141331
0.000136569
0.000133748
0.000131331
0.000128751
0.000125824
0.000122821
0.000120427
0.000119099
0.000117725
0.000116862
0.00011693
0.00011695
0.000117028
0.000117204
0.000117076
0.000116807
0.000118092
0.00012075
0.000124939
0.000128046
0.000133386
0.000144622
0.000168967
0.000232318
0.000296922
0.000302614
0.000286528
0.000236134
0.000189207
0.000158307
0.0001446
0.000138405
0.000135147
0.000132732
0.000130404
0.000127726
0.000124817
0.000121741
0.000119846
0.000118601
0.000117273
0.000116773
0.00011694
0.000116966
0.000117163
0.000117281
0.000117074
0.000116927
0.000118192
0.000120644
0.000124394
0.000127119
0.000132006
0.00014194
0.000162949
0.000212943
0.000288944
0.00030759
0.000297117
0.000252915
0.000204608
0.000167708
0.000148642
0.00014101
0.000136607
0.00013414
0.000131956
0.000129602
0.000126699
0.000123689
0.000120797
0.000119364
0.000118159
0.000116965
0.000116811
0.000116995
0.000117067
0.000117338
0.000117419
0.000117076
0.000117125
0.000118363
0.000120676
0.000123994
0.000126393
0.000130973
0.000140237
0.000158361
0.000197737
0.000275746
0.000311104
0.000304556
0.000272452
0.000220578
0.000179598
0.000154337
0.000143739
0.00013877
0.000135471
0.000133354
0.000131217
0.000128674
0.000125736
0.000122682
0.000120183
0.000118942
0.000117816
0.000116925
0.00011701
0.000117144
0.000117308
0.000117552
0.000117403
0.000117734
0.000117089
0.000117428
0.000118638
0.000120859
0.000123789
0.000125905
0.000130316
0.000139723
0.000155444
0.000186961
0.000260314
0.000310255
0.000311345
0.000288218
0.000237166
0.000192777
0.000162037
0.000147111
0.000141281
0.000137343
0.000134624
0.000132723
0.00013045
0.000127648
0.000124697
0.000121625
0.000119661
0.000118574
0.000117572
0.000117089
0.000117358
0.000117531
0.000117804
0.000117825
0.000117938
0.000117457
0.000117835
0.000117164
0.00011787
0.00011906
0.000121222
0.000123756
0.000125661
0.000130056
0.000139887
0.000153958
0.000179831
0.00024447
0.000306533
0.000315116
0.000302787
0.000254522
0.000206405
0.000171626
0.000151814
0.000143924
0.000139865
0.000136413
0.000134263
0.000132181
0.000129642
0.000126579
0.000123543
0.000120788
0.00011923
0.000118263
0.000117524
0.000117525
0.000117974
0.000117919
0.000118183
0.00011815
0.000118211
0.000118544
0.00011804
0.000118262
0.000117532
0.00011796
0.000117349
0.000118437
0.00011966
0.000121781
0.000123889
0.000125674
0.000130188
0.000140293
0.0001535
0.000175318
0.00023028
0.000298714
0.000320142
0.000311048
0.000271818
0.00022194
0.000182876
0.000157984
0.000147091
0.000142401
0.000138905
0.00013582
0.000134029
0.000131851
0.000128911
0.000125517
0.000122409
0.000120243
0.000118982
0.000118215
0.000117868
0.000118336
0.000118446
0.000118755
0.000118585
0.000118635
0.000118916
0.000118701
0.000115648
0.000113153
0.000107471
0.000102787
0.000117607
0.000119104
0.000120478
0.000122555
0.000124201
0.000125971
0.00013069
0.000140931
0.000153706
0.000172353
0.000218664
0.000287699
0.000322659
0.000318278
0.000290331
0.00023785
0.000195367
0.000165872
0.000151445
0.00014532
0.000141705
0.000138366
0.00013572
0.000133506
0.000131092
0.000127804
0.000124217
0.000121287
0.000119797
0.000118971
0.000118593
0.000118826
0.000119043
0.000119392
0.000118996
0.000119435
0.000118344
0.000109543
0.000111706
0.000104034
0.000100436
9.8981e-05
9.4405e-05
8.98402e-05
0.000117927
0.000119934
0.000121514
0.000123535
0.000124813
0.000126723
0.000131731
0.000142201
0.000154295
0.000170749
0.00020969
0.000275228
0.000321865
0.000323758
0.000305632
0.000255214
0.000209174
0.000175364
0.000156487
0.000149178
0.000144637
0.000141219
0.000137854
0.000135222
0.000132605
0.000129902
0.000126504
0.000123065
0.00012077
0.000119759
0.000119263
0.000119501
0.000119748
0.000117179
0.000119237
0.000112526
0.00011399
0.00010824
0.000106417
9.60283e-05
9.90275e-05
9.21762e-05
8.80752e-05
8.70956e-05
8.29406e-05
7.92273e-05
0.000118361
0.000120973
0.000122749
0.00012464
0.000125723
0.000127965
0.00013353
0.000143716
0.00015488
0.000170146
0.000203495
0.000263946
0.000318976
0.000327693
0.000317616
0.000272968
0.000224293
0.000186447
0.000163569
0.000152923
0.000148444
0.000144194
0.000141412
0.000137862
0.000134885
0.000132158
0.000129006
0.000125591
0.000122611
0.000120779
0.000120077
0.000120236
0.000112507
0.000107463
0.000109415
0.00010451
0.000104259
9.98618e-05
0.000102045
9.75682e-05
9.4604e-05
8.47609e-05
8.79554e-05
8.18307e-05
7.80022e-05
7.72407e-05
7.33254e-05
7.0555e-05
0.00011895
0.000122201
0.000124155
0.000125825
0.000126958
0.000129718
0.000135984
0.000145613
0.00015659
0.000170556
0.000200077
0.00025486
0.000312398
0.000332754
0.000324971
0.000291104
0.000241265
0.000199561
0.000171492
0.000159185
0.000152189
0.000148472
0.000145488
0.000142117
0.000138136
0.000134185
0.000131013
0.000127593
0.000124367
0.000122128
0.000121056
0.000119015
0.00010587
0.000102859
0.000101202
9.72163e-05
9.66921e-05
9.34289e-05
9.3691e-05
8.99876e-05
9.08726e-05
8.74596e-05
8.43275e-05
7.53251e-05
7.85741e-05
7.32223e-05
6.9731e-05
6.91221e-05
6.54806e-05
6.34421e-05
0.000119773
0.00012357
0.000125679
0.000127166
0.00012857
0.000132054
0.00013901
0.00014813
0.000158941
0.000171608
0.00019906
0.000248528
0.000304908
0.000337043
0.000332034
0.000308571
0.000258975
0.000214639
0.000182651
0.000166004
0.000158505
0.000153156
0.000150468
0.000146703
0.000141995
0.000136734
0.000132704
0.000128925
0.000125426
0.000122994
0.000121836
0.000119415
0.000101943
9.98411e-05
9.49759e-05
9.3341e-05
9.03859e-05
8.76203e-05
8.68234e-05
8.42027e-05
8.4188e-05
8.09273e-05
8.12831e-05
7.89771e-05
7.55793e-05
6.75502e-05
7.06879e-05
6.61464e-05
6.28835e-05
6.25209e-05
5.87561e-05
5.7629e-05
0.0001208
0.000125056
0.000127302
0.000128677
0.000130573
0.000135013
0.000142502
0.000151338
0.000161758
0.00017422
0.000199412
0.000245061
0.000298723
0.000336983
0.000338235
0.000323953
0.000278306
0.000231232
0.000194885
0.000175618
0.000165078
0.00015957
0.000156036
0.00015186
0.000147237
0.000141737
0.00013571
0.000130954
0.000126727
0.000123767
0.000122476
0.000122096
0.000101972
0.000100562
9.18409e-05
9.16269e-05
8.56436e-05
8.4345e-05
8.14989e-05
7.92656e-05
7.82326e-05
7.58483e-05
7.59636e-05
7.30528e-05
7.31729e-05
7.12248e-05
6.82105e-05
6.1254e-05
6.41566e-05
6.03996e-05
5.72996e-05
5.71895e-05
5.34032e-05
5.26488e-05
0.000121835
0.000126625
0.000128979
0.000130376
0.000132945
0.000138487
0.000146377
0.000155344
0.000165849
0.000178991
0.000201075
0.000244304
0.000295032
0.000336263
0.000347115
0.000335398
0.000296962
0.000248379
0.000207987
0.000186006
0.000174419
0.000165477
0.000162089
0.00015821
0.000153796
0.000149049
0.000142621
0.00013534
0.000129389
0.000125065
0.000123132
0.000123019
0.000104312
0.000102235
9.04462e-05
9.19831e-05
8.32876e-05
8.27392e-05
7.74971e-05
7.65129e-05
7.38392e-05
7.18759e-05
7.08876e-05
6.90648e-05
6.86899e-05
6.63557e-05
6.64411e-05
6.47378e-05
6.22887e-05
5.61663e-05
5.88197e-05
5.56298e-05
5.27279e-05
5.29383e-05
4.91637e-05
4.856e-05
0.000122747
0.000128309
0.0001308
0.000132358
0.000135702
0.00014232
0.000150767
0.000160323
0.000171234
0.000184587
0.000206214
0.000245171
0.000294095
0.000335745
0.000353446
0.000345622
0.000316803
0.000266766
0.000222738
0.0001985
0.000185474
0.000174636
0.000169083
0.000165618
0.000161162
0.000156513
0.000150732
0.000143426
0.000135664
0.000128624
0.000124395
0.000123723
0.00010693
9.63511e-05
9.13672e-05
9.3806e-05
8.21744e-05
8.25988e-05
7.57651e-05
7.5217e-05
7.02914e-05
6.98158e-05
6.73527e-05
6.57357e-05
6.48783e-05
6.36391e-05
6.27407e-05
6.12363e-05
6.09941e-05
5.94403e-05
5.76359e-05
5.21506e-05
5.43251e-05
5.15255e-05
4.90475e-05
4.94287e-05
4.60833e-05
4.5303e-05
0.00012327
0.000129896
0.000132838
0.0001348
0.000138995
0.000146607
0.000155881
0.000166431
0.000178187
0.00019248
0.000214869
0.000249355
0.000294695
0.00033628
0.000360073
0.000359485
0.000337769
0.000290462
0.000242615
0.000214396
0.000198078
0.000188686
0.00018181
0.000176606
0.000170217
0.000163501
0.000156989
0.000149808
0.000141842
0.000134015
0.000127318
0.000124464
9.9766e-05
9.52662e-05
9.17058e-05
8.27613e-05
8.52805e-05
7.49287e-05
7.50512e-05
6.92701e-05
6.93345e-05
6.46294e-05
6.52122e-05
6.26169e-05
6.28657e-05
6.07895e-05
6.17362e-05
5.85342e-05
5.93702e-05
5.63156e-05
5.60083e-05
5.37036e-05
4.90176e-05
5.07409e-05
4.81321e-05
4.58668e-05
4.68701e-05
4.40039e-05
4.25588e-05
0.000123248
0.000131276
0.000134943
0.000137711
0.000142961
0.00015145
0.000161852
0.000173858
0.000187089
0.000203078
0.000226263
0.000259963
0.000299133
0.000339604
0.000367871
0.000375083
0.000358193
0.000317868
0.000268049
0.000235643
0.000213865
0.000203449
0.000200955
0.000195035
0.00018496
0.000173456
0.000163365
0.000154604
0.000146059
0.000137591
0.000129621
0.000125223
0.000104125
8.72826e-05
8.65468e-05
8.37108e-05
8.67255e-05
7.61216e-05
7.79404e-05
6.999e-05
7.24507e-05
6.74072e-05
7.29629e-05
6.60761e-05
7.51605e-05
6.64782e-05
7.97852e-05
6.47947e-05
7.93065e-05
6.01822e-05
7.3174e-05
5.3624e-05
6.19983e-05
5.18752e-05
4.62525e-05
4.93855e-05
4.66238e-05
4.38684e-05
4.50601e-05
4.26316e-05
4.04384e-05
0.000123018
0.000132199
0.000137003
0.000141089
0.00014755
0.000156948
0.000168809
0.00018278
0.000198354
0.000217094
0.000242306
0.000276034
0.000312574
0.000348538
0.00037704
0.000388688
0.000378374
0.000342949
0.000295661
0.000260519
0.000232557
0.000217676
0.000219355
0.000218165
0.000208245
0.000191858
0.000174466
0.000161317
0.000150423
0.000140707
0.000132245
0.000126216
0.00010879
9.19341e-05
9.04947e-05
8.50155e-05
8.78084e-05
7.92716e-05
8.13019e-05
7.63391e-05
8.34036e-05
8.15461e-05
9.92513e-05
9.77121e-05
0.000104417
0.000100823
0.000107377
9.902e-05
0.000110348
9.90686e-05
0.000106863
8.87455e-05
0.000102093
6.42694e-05
9.55931e-05
6.58325e-05
4.48271e-05
6.28216e-05
5.66003e-05
4.28915e-05
4.39067e-05
4.21923e-05
3.98033e-05
0.000123568
0.000133458
0.000139073
0.000144714
0.000152585
0.000163084
0.000176708
0.000193311
0.00021244
0.000235395
0.000264241
0.000298984
0.000334715
0.000366449
0.000393537
0.000409895
0.000406486
0.000376737
0.000326893
0.000288176
0.000253538
0.000231833
0.000233173
0.000237431
0.000234393
0.000219016
0.000195741
0.000173594
0.00015785
0.000145125
0.000134328
0.000124901
0.000116934
9.30433e-05
6.66588e-05
9.68825e-05
0.00010043
0.000100152
9.70835e-05
9.4142e-05
0.000104444
0.000102682
0.000103424
0.000109592
0.000119278
0.000123371
0.000145676
0.000136394
0.000171059
0.000138848
0.000186774
0.000125341
0.000183391
0.000110139
0.000153342
9.58136e-05
0.00011958
9.57814e-05
4.93513e-05
9.38265e-05
8.90466e-05
4.27041e-05
4.45552e-05
4.30936e-05
4.1288e-05
0.000128202
0.000137485
0.000142809
0.000148539
0.000157985
0.000169814
0.000185604
0.000205461
0.000229715
0.000258908
0.000293509
0.000331281
0.000367297
0.000401319
0.000430828
0.000452521
0.000458651
0.000434281
0.000381443
0.000326549
0.000282871
0.000252323
0.000247483
0.000250574
0.000254014
0.000247125
0.000224668
0.000196196
0.000168747
0.000148641
0.000132223
0.000119242
0.000109298
0.000103612
9.7264e-05
9.22302e-05
9.32416e-05
9.25355e-05
0.000118711
0.000128752
0.000107068
0.00011107
0.000132669
0.000150753
0.000172934
0.000202177
0.000211732
0.000255594
0.000241238
0.000297015
0.000251837
0.000320365
0.000236639
0.000319271
0.000187243
0.00028841
0.000126517
0.000217683
0.00012985
8.39442e-05
0.000126606
0.000116265
4.31936e-05
6.54076e-05
4.50781e-05
4.35178e-05
0.00014528
0.000151018
0.000153568
0.000163736
0.00017714
0.000195325
0.000219384
0.000250273
0.000288283
0.000331031
0.000373451
0.000410309
0.000442556
0.000472422
0.000502028
0.000521178
0.000515745
0.000472972
0.000403345
0.000341783
0.000297334
0.000270123
0.000255034
0.000266668
0.000268613
0.000251514
0.000214831
0.000181549
0.000157548
0.000148259
0.000145804
0.000138226
0.000137316
0.000146835
0.000212945
9.86589e-05
0.000117592
0.000145291
0.000164205
0.000218559
0.000248764
0.000170821
0.00019321
0.000235408
0.000270514
0.000300538
0.00034517
0.000352475
0.000402159
0.000382512
0.000437267
0.000393471
0.000456586
0.000380619
0.000457849
0.000333872
0.000432926
0.000237667
0.000369592
0.000244707
0.000103643
0.000231479
0.000197087
5.15642e-05
8.82471e-05
5.03403e-05
5.19781e-05
0.000157949
0.000164124
0.000169818
0.000185598
0.000205542
0.000234793
0.000274337
0.000323489
0.000376692
0.000423681
0.000457065
0.000478938
0.000499496
0.000525432
0.000554756
0.000574471
0.000561884
0.00050949
0.000442766
0.000385059
0.00032422
0.000279211
0.000276241
0.000284064
0.000275772
0.000241634
0.000212836
0.000208924
0.000218297
0.000226948
0.000238626
0.000275007
0.000261885
0.000344432
0.00030047
0.000364616
0.000198548
0.000242727
0.000284048
0.000323431
0.000381655
0.000417819
0.000307532
0.000344789
0.000388622
0.000428009
0.000444752
0.000481973
0.000484224
0.000523054
0.000510434
0.000556712
0.000522436
0.000577493
0.0005144
0.000582036
0.000476297
0.000562056
0.000392521
0.000509267
0.000401738
0.000160097
0.000390369
0.000367978
0.000266218
7.5706e-05
0.000115388
7.39769e-05
8.28743e-05
0.000173051
0.000181475
0.000193785
0.0002171
0.000250628
0.000301179
0.00036371
0.000429763
0.000481438
0.000509251
0.000518649
0.000521093
0.000527261
0.00054558
0.000572755
0.000591108
0.000579057
0.000530996
0.000477004
0.000415144
0.000341005
0.000301786
0.000300692
0.000300478
0.000289992
0.000302227
0.000360669
0.000457109
0.000521604
0.000512814
0.000494441
0.000528949
0.000418853
0.000498112
0.0004628
0.000501347
0.000369549
0.000413787
0.000451521
0.000485141
0.000518016
0.00053958
0.000462187
0.000492123
0.00051445
0.000541462
0.000555945
0.000584745
0.000596236
0.000629348
0.000625406
0.00066785
0.000637813
0.000689109
0.000632458
0.000692766
0.000600057
0.000672383
0.000530253
0.000623086
0.000579535
0.000474258
0.000539587
0.00033209
0.000199281
0.000308614
0.00045455
0.000532029
0.000533649
0.000436196
7.59141e-05
0.000250215
0.000212806
0.000126835
0.000108692
7.09299e-05
0.000194343
0.000206236
0.000227826
0.000268637
0.000327699
0.000408946
0.000488924
0.000548303
0.000575758
0.000579865
0.000572521
0.000559713
0.000550484
0.000553608
0.000567608
0.000580963
0.000572083
0.000540055
0.000494469
0.000427852
0.000352468
0.00032469
0.000327822
0.000349526
0.000421917
0.000579182
0.000686115
0.000700827
0.0006709
0.000624199
0.000590154
0.000590608
0.000603511
0.000540954
0.000567973
0.000565273
0.000584003
0.000515883
0.00054188
0.000558877
0.000576066
0.00059825
0.000612022
0.000563383
0.000582111
0.000609483
0.000630667
0.000658707
0.000684911
0.000704428
0.000735152
0.000734232
0.000773226
0.00074483
0.000789027
0.000697173
0.000725312
0.000749546
0.000772607
0.000659258
0.000692501
0.000735326
0.000745462
0.000720222
0.000627761
0.000591749
0.00063751
0.000667513
0.000593127
0.000412251
0.000375461
0.000519492
0.000585591
0.000591523
0.000502748
0.000148725
7.3772e-05
0.000104931
0.000331765
0.000270428
5.73973e-05
7.74743e-05
5.61009e-05
7.44782e-05
0.000222367
0.000243959
0.000281254
0.00035866
0.000453461
0.000554331
0.000624385
0.000661344
0.00067594
0.00067528
0.000657736
0.000624027
0.000589911
0.000570433
0.000563166
0.000567074
0.000562213
0.000542894
0.000503462
0.000438427
0.000364258
0.00035158
0.000402526
0.000541573
0.000729737
0.000774893
0.00076843
0.000723228
0.000677153
0.000650055
0.000664712
0.000629878
0.000653753
0.000599321
0.000611742
0.000616725
0.000628643
0.000591303
0.000604582
0.00062465
0.000636806
0.000676061
0.000688984
0.000647713
0.000662518
0.00070753
0.000725491
0.000763904
0.000788177
0.000807367
0.000830204
0.000823237
0.000845714
0.000791907
0.000809071
0.000822197
0.00083234
0.00076065
0.000781523
0.000799089
0.00069949
0.000726327
0.000766736
0.000767295
0.000748465
0.000673582
0.000639416
0.000675977
0.00070355
0.000638974
0.000477811
0.000443963
0.000574728
0.000635422
0.000628483
0.000558538
0.000201282
0.000128546
0.000397902
0.000337726
6.60659e-05
7.80208e-06
9.85579e-06
7.88102e-05
5.58222e-05
0.00025665
0.000301455
0.000377483
0.000504493
0.000618867
0.000709198
0.000761905
0.000797244
0.000815334
0.000805481
0.000762618
0.000699312
0.000636746
0.000590882
0.00056517
0.000558395
0.000558489
0.000549418
0.000516685
0.00045322
0.000403915
0.000451331
0.000640587
0.00080924
0.000825243
0.000784364
0.000752232
0.000726929
0.000735699
0.000777782
0.000760624
0.000820202
0.000679684
0.00071526
0.000642488
0.000659181
0.000675303
0.000691654
0.000649193
0.000661823
0.000701486
0.000714185
0.000765872
0.000777963
0.000740473
0.000753722
0.000805951
0.000812552
0.000843668
0.000837786
0.000847484
0.000835749
0.000838261
0.000838962
0.000834556
0.000824295
0.000812659
0.000822884
0.000813169
0.000797694
0.000784701
0.000798967
0.000801298
0.000727825
0.000747488
0.000782152
0.000775035
0.00076324
0.00070415
0.000674949
0.000701521
0.00072604
0.000671593
0.000535418
0.000503159
0.000618204
0.000665945
0.000658404
0.000603468
0.000260007
0.000168214
0.000458851
0.000398617
1.70316e-05
4.07041e-06
5.35762e-06
9.56674e-05
5.91856e-05
0.000304982
0.000403817
0.00053791
0.000690905
0.000792053
0.000869383
0.000926251
0.000963993
0.000957119
0.000917554
0.000850171
0.000767114
0.000683522
0.000615456
0.000573758
0.000561754
0.000565758
0.00056371
0.000533729
0.000478304
0.000496012
0.000710855
0.000856969
0.000846414
0.000796587
0.000770787
0.000776953
0.000827657
0.000875925
0.000930624
0.000874685
0.000928766
0.00076893
0.000818654
0.00071208
0.000736498
0.000758836
0.000780867
0.0007277
0.000742001
0.000788876
0.000801047
0.000817557
0.000819763
0.000817598
0.00081742
0.000826915
0.00081357
0.000813773
0.000786106
0.000814294
0.000798819
0.000785014
0.000768411
0.000782063
0.000780671
0.000785727
0.000783581
0.00077185
0.000746777
0.000727452
0.000717741
0.000785176
0.000748056
0.000713722
0.000743021
0.00075575
0.000737321
0.000693124
0.000743148
0.000721298
0.000696822
0.000714345
0.0007357
0.000690415
0.000582681
0.000553334
0.0006488
0.000682832
0.000674501
0.000636156
0.000319456
0.000218454
0.00051186
0.000453778
1.33541e-05
2.91368e-06
3.70805e-06
0.00012249
6.55527e-05
0.00039796
0.000585621
0.000742635
0.000881795
0.000966641
0.00105205
0.00108766
0.00107717
0.00103716
0.000981084
0.00090528
0.000816606
0.000724265
0.000644045
0.000593793
0.000580092
0.000586796
0.000585547
0.0005488
0.000538583
0.000747381
0.000886311
0.000867077
0.000795763
0.00077648
0.000784674
0.00082002
0.000869223
0.000922883
0.000968438
0.000962546
0.000951658
0.000966123
0.00088215
0.000919696
0.000808487
0.000841685
0.000847865
0.000867872
0.000815089
0.000830386
0.000825738
0.000835755
0.000799235
0.000804634
0.000803743
0.000799229
0.000766041
0.000747927
0.000713135
0.00068019
0.00076639
0.000746823
0.000726264
0.000704524
0.000716723
0.000723476
0.00073622
0.000723061
0.000687977
0.000674267
0.000670254
0.000672837
0.000696071
0.000663246
0.000642958
0.000745437
0.000703125
0.000649021
0.000610034
0.000650162
0.000726103
0.000705968
0.000715071
0.000729457
0.000696706
0.000618723
0.000593604
0.000665467
0.000687137
0.000677881
0.000655309
0.000373889
0.000269898
0.000556395
0.000501792
9.10887e-06
2.25939e-06
2.69646e-06
0.000152629
5.9394e-05
0.000583591
0.000820194
0.000948229
0.00106981
0.00115373
0.00117378
0.00114651
0.00110493
0.00104973
0.000990085
0.000921943
0.000841969
0.000753478
0.000673883
0.000624752
0.000612219
0.000618086
0.000603458
0.000575148
0.000752036
0.000902177
0.000883716
0.000808436
0.000773176
0.000781994
0.000804153
0.00083696
0.000846025
0.000721162
0.000929584
0.000812005
0.000971158
0.000966579
0.000938922
0.000960537
0.000890709
0.000915344
0.000882018
0.000899736
0.000848841
0.000864905
0.000814975
0.000827162
0.000723119
0.000725475
0.000734213
0.000725828
0.000653709
0.000633107
0.000617906
0.000600393
0.000574632
0.000588041
0.00069969
0.000676232
0.000654382
0.000634918
0.000679732
0.000689434
0.000674912
0.000648773
0.000635632
0.000636985
0.000642591
0.000648884
0.000621091
0.000609386
0.000608207
0.000667295
0.000612701
0.000589063
0.000563971
0.000577513
0.000704899
0.000703301
0.00068396
0.000636722
0.000691363
0.000642276
0.000622935
0.000669319
0.000679923
0.000669623
0.000661226
0.000423398
0.000316425
0.00059191
0.000542339
7.10741e-06
1.96218e-06
2.21783e-06
0.00017272
5.06864e-05
0.00083605
0.00104854
0.00114282
0.00123713
0.00122525
0.00118544
0.00111868
0.00105722
0.00100884
0.00096447
0.000913438
0.000846566
0.000770056
0.000700791
0.000659753
0.000650223
0.000642775
0.000612123
0.000751651
0.000911348
0.000896782
0.000826368
0.00078924
0.000764431
0.000737412
0.000653889
0.000530221
0.000421288
0.000450184
0.000311468
0.000762001
0.000600057
0.000919482
0.000858011
0.000945949
0.00094465
0.000918101
0.000934908
0.00086208
0.000872149
0.000839338
0.000850831
0.000732205
0.000741278
0.000611198
0.000611817
0.000619967
0.000613171
0.000566218
0.000559427
0.000529313
0.00055551
0.000544897
0.000528867
0.00053608
0.000623916
0.000603097
0.000585164
0.000568911
0.000653788
0.000625951
0.000598109
0.000573513
0.000613782
0.000621353
0.000625293
0.000608829
0.000583723
0.000588941
0.000598808
0.000582238
0.000551516
0.000565464
0.000551311
0.000543418
0.00061163
0.000669357
0.000592864
0.000556356
0.00066216
0.000652398
0.000639835
0.00066122
0.000658643
0.000651074
0.000654944
0.000466314
0.000352366
0.000617496
0.00057502
8.04224e-06
2.62601e-06
5.62497e-06
0.000155938
5.33584e-05
0.00108735
0.00124713
0.00128711
0.00127357
0.00119791
0.00110597
0.00103584
0.000993096
0.000960271
0.000926842
0.000888537
0.00083729
0.000776126
0.000722906
0.000692643
0.000677226
0.000640258
0.000739324
0.000919047
0.000910507
0.000845133
0.000811023
0.000756663
0.000596631
0.000419063
0.000351696
0.000276363
0.000185954
0.000257018
0.000190097
0.000486552
0.000347647
0.000749805
0.000636446
0.000861267
0.000821676
0.000878659
0.00087733
0.000760129
0.0007594
0.000749152
0.000755655
0.000612116
0.000609691
0.00052698
0.000529426
0.000525618
0.000524986
0.000523282
0.000516827
0.000496239
0.000498652
0.000509961
0.000505491
0.000498167
0.00050155
0.000554037
0.000538029
0.000525367
0.000516328
0.000577725
0.000549967
0.000525914
0.000508231
0.000605747
0.000598084
0.000563647
0.000531905
0.000576072
0.000588195
0.000592778
0.000530873
0.00052803
0.000566985
0.000557683
0.000540201
0.000536145
0.000580107
0.000521877
0.000513667
0.000573608
0.000650198
0.000644392
0.000642463
0.00056685
0.000560626
0.000637684
0.000494826
0.000310504
0.000631254
0.000569408
1.78833e-05
1.40599e-05
4.16065e-05
0.000138605
7.57773e-05
0.00130054
0.00136073
0.00130122
0.00120613
0.00107086
0.000973689
0.000934257
0.00092938
0.000916387
0.000890007
0.000858716
0.000819806
0.000775866
0.000739428
0.000713067
0.000672241
0.000713946
0.000922945
0.00093179
0.000878545
0.000838593
0.000773151
0.000503878
0.000320142
0.000246137
0.000190789
0.000146164
0.000131061
0.000126321
0.00016276
0.000139831
0.000267021
0.000202118
0.000475581
0.000359246
0.000672426
0.00058982
0.000748623
0.000721975
0.000597097
0.000575014
0.000608692
0.00060668
0.000526121
0.000515356
0.000493269
0.00048398
0.000498122
0.000501191
0.000499426
0.000496022
0.000495658
0.000489087
0.00049451
0.000478327
0.00047742
0.000479198
0.000477831
0.000495211
0.000486962
0.000482094
0.00047975
0.000503853
0.000481455
0.000465732
0.000455855
0.000556214
0.000520138
0.000488303
0.000460485
0.000578727
0.000555679
0.000515684
0.000515852
0.000530859
0.000560758
0.000531438
0.000547343
0.000501088
0.000511152
0.000489353
0.000505305
0.000501871
0.000636661
0.000633463
0.000559334
0.000493303
0.000488876
0.000570361
0.000446249
0.00027707
0.000595608
0.000524737
6.62841e-05