/*--------------------------------*- C++ -*----------------------------------*\
  =========                 |
  \\      /  F ield         | OpenFOAM: The Open Source CFD Toolbox
   \\    /   O peration     | Website:  https://openfoam.org
    \\  /    A nd           | Version:  dev
     \\/     M anipulation  |
\*---------------------------------------------------------------------------*/
FoamFile
{
    version     2.0;
    format      ascii;
    class       volScalarField;
    location    "2500";
    object      CO2;
}
// * * * * * * * * * * * * * * * * * * * * * * * * * * * * * * * * * * * * * //

dimensions      [0 0 0 0 0 0 0];

internalField   nonuniform List<scalar> 
9842
(
1.48924e-35
4.42816e-35
2.27043e-35
7.63584e-35
9.32656e-35
2.08199e-35
9.97468e-35
1.81129e-34
8.04985e-35
8.89861e-36
1.49451e-34
3.54133e-34
2.62789e-34
5.94415e-35
2.79071e-36
2.0349e-34
4.2768e-34
5.26063e-34
2.04897e-34
4.77875e-35
1.03348e-36
1.84241e-34
7.66672e-34
9.43355e-34
5.07179e-34
1.30566e-34
1.95296e-35
7.86214e-37
5.04869e-34
8.47099e-34
1.60582e-33
1.0778e-33
4.42039e-34
1.00283e-34
9.66047e-36
3.28157e-37
9.48679e-34
1.81632e-33
3.21276e-33
2.24496e-33
1.09625e-33
3.34232e-34
5.30473e-35
3.52776e-36
1.179e-37
1.74538e-33
5.26668e-33
7.1284e-33
4.52648e-33
2.25834e-33
7.56277e-34
2.10367e-34
1.60441e-35
1.27963e-36
3.95214e-38
1.18833e-32
2.34007e-32
1.84772e-32
1.05485e-32
4.86415e-33
2.12155e-33
4.61701e-34
1.12708e-34
9.8639e-36
1.09956e-36
4.63398e-37
2.63855e-32
5.45248e-32
5.59535e-32
2.83674e-32
1.17073e-32
4.67647e-33
1.62358e-33
2.93482e-34
5.04174e-35
8.43582e-36
7.21472e-36
2.6699e-36
3.69304e-32
1.31909e-31
1.35895e-31
8.19933e-32
3.29357e-32
1.13832e-32
3.87817e-33
9.45744e-34
1.30186e-34
4.85668e-35
5.61098e-35
7.65318e-35
4.99611e-35
4.69385e-32
3.17414e-31
2.79279e-31
2.3464e-31
8.93878e-32
2.9806e-32
8.04948e-33
2.82151e-33
6.58162e-34
2.32498e-34
3.58622e-34
6.15505e-34
6.77374e-34
4.26372e-34
1.82447e-31
7.80958e-31
9.43975e-31
6.86034e-31
2.97618e-31
9.19779e-32
2.9383e-32
7.76484e-33
1.88274e-33
1.31231e-33
1.77885e-33
4.22205e-33
6.28019e-33
5.67859e-33
2.39462e-33
1.59454e-31
8.73075e-31
2.48227e-30
1.80114e-30
8.70185e-31
3.29308e-31
9.62992e-32
2.73389e-32
1.20446e-32
8.21289e-33
1.81592e-32
2.45942e-32
4.57473e-32
8.16577e-32
9.32994e-32
1.92911e-32
1.02386e-30
2.53691e-30
4.67678e-30
4.83639e-30
2.52541e-30
1.05055e-30
4.1587e-31
1.59891e-31
7.21964e-32
5.29982e-32
1.08784e-31
2.34236e-31
3.70781e-31
4.80156e-31
9.19133e-31
7.55979e-31
2.34425e-31
2.26226e-30
1.49385e-29
1.70319e-29
1.57635e-29
6.38891e-30
3.55015e-30
1.97331e-30
9.1751e-31
5.90041e-31
4.34013e-31
4.32117e-31
1.1943e-30
2.8899e-30
3.80804e-30
6.9093e-30
7.6849e-30
5.67526e-30
3.85001e-30
1.62278e-29
4.41527e-29
3.78809e-29
4.89188e-29
2.27161e-29
1.58899e-29
1.14855e-29
6.05348e-30
4.40533e-30
3.2822e-30
3.96827e-30
5.66212e-30
1.66538e-29
2.92321e-29
3.27501e-29
7.06361e-29
5.46306e-29
8.27405e-29
3.34981e-29
1.60924e-29
7.13955e-29
1.12889e-28
1.43446e-28
1.0982e-28
5.69907e-29
8.69347e-29
4.85977e-29
3.65158e-29
1.6956e-29
2.43002e-29
3.40723e-29
6.98401e-29
1.54898e-28
2.2568e-28
4.9353e-28
4.55353e-28
8.69794e-28
5.24887e-28
4.32174e-28
2.36037e-29
1.55471e-28
5.23008e-28
4.59833e-28
2.93023e-28
4.64701e-28
5.28839e-28
6.39148e-28
3.0417e-28
2.10387e-28
1.18043e-28
2.15698e-28
3.97672e-28
8.9098e-28
1.7649e-27
2.04391e-27
4.87308e-27
5.58785e-27
6.69001e-27
5.37068e-27
1.71784e-27
1.41466e-28
4.75731e-28
1.54459e-27
1.36816e-27
1.45595e-27
2.00741e-27
3.32074e-27
5.07325e-27
3.34637e-27
1.90545e-27
7.84211e-28
1.06749e-27
2.10744e-27
5.41414e-27
9.67281e-27
2.10295e-26
2.12279e-26
3.83494e-26
3.6025e-26
5.10809e-26
2.77633e-26
2.27565e-26
8.98838e-28
1.11916e-27
4.22739e-27
6.71083e-27
1.01123e-26
1.08958e-26
3.20835e-26
4.15438e-26
3.15664e-26
2.80514e-26
8.30842e-27
5.38343e-27
1.01084e-26
2.90745e-26
6.35613e-26
7.97682e-26
2.25702e-25
2.67233e-25
2.45167e-25
3.80985e-25
3.07959e-25
3.34724e-25
7.29052e-26
1.3291e-27
5.5381e-27
1.06806e-26
3.01687e-26
5.4093e-26
7.91716e-26
1.55804e-25
2.60756e-25
2.48148e-25
2.13308e-25
1.20951e-25
3.72827e-26
5.44859e-26
1.62886e-25
4.03629e-25
5.95136e-25
8.36918e-25
1.63739e-24
1.2084e-24
1.73671e-24
3.3446e-24
2.63065e-24
1.61653e-24
4.55089e-25
4.19226e-27
9.43532e-27
3.07881e-26
1.23971e-25
3.26876e-25
4.96588e-25
1.12624e-24
2.10823e-24
1.68148e-24
1.46975e-24
1.24225e-24
4.70583e-25
3.04853e-25
6.52373e-25
2.5044e-24
5.87093e-24
7.69501e-24
8.21536e-24
1.10298e-23
1.65566e-23
2.07659e-23
1.93965e-23
1.03828e-23
3.76015e-24
1.05535e-24
3.9832e-27
4.73002e-26
1.33072e-25
4.45923e-25
1.94497e-24
4.29631e-24
5.36303e-24
1.48223e-23
1.31783e-23
8.22933e-24
9.87664e-24
4.2301e-24
3.21444e-24
2.38001e-24
1.19849e-23
2.82952e-23
3.3413e-23
4.53934e-23
3.18547e-23
8.10031e-23
1.10587e-22
1.41896e-22
1.21127e-22
6.12869e-23
2.38382e-23
8.18143e-25
2.08448e-26
1.50475e-25
6.16496e-25
1.75242e-24
8.64155e-24
2.27759e-23
5.46109e-23
6.51747e-23
1.08858e-22
6.12304e-23
6.82934e-23
4.36952e-23
1.9988e-23
1.87241e-23
3.80478e-23
1.68311e-22
2.61564e-22
2.61198e-22
1.61583e-22
4.04102e-22
4.78575e-22
6.83434e-22
7.95109e-22
4.67504e-22
2.00589e-22
2.82098e-23
1.00077e-23
6.57541e-26
5.03021e-25
2.41528e-24
8.76734e-24
3.60271e-23
1.19336e-22
2.96734e-22
4.12593e-22
6.88558e-22
4.17869e-22
4.39619e-22
3.98971e-22
1.95179e-22
1.02769e-22
1.54276e-22
6.14052e-22
9.9528e-22
2.49231e-21
1.42288e-21
1.54285e-21
2.19358e-21
3.31629e-21
3.55763e-21
3.24211e-21
2.09648e-21
4.31167e-22
1.57814e-22
1.56023e-23
2.38639e-25
1.31092e-24
1.25891e-23
5.03178e-23
1.77573e-22
5.95742e-22
1.28093e-21
3.0057e-21
4.25947e-21
3.9942e-21
2.25101e-21
1.82576e-21
1.70212e-21
7.44289e-22
7.68418e-22
2.09391e-21
8.01398e-21
1.38675e-20
8.27121e-21
6.40459e-21
7.29487e-21
1.04707e-20
2.01445e-20
1.85158e-20
1.32806e-20
8.17645e-21
9.92966e-22
6.83003e-22
3.85248e-23
6.47956e-25
5.21215e-24
3.77361e-23
2.32158e-22
7.53105e-22
2.9711e-21
7.64331e-21
1.01002e-20
2.29013e-20
2.94764e-20
1.46367e-20
1.15046e-20
1.37242e-20
7.06692e-21
2.97391e-21
8.33496e-21
2.31103e-20
6.99148e-20
5.7419e-20
3.1276e-20
3.33476e-20
5.66171e-20
7.18177e-20
6.87475e-20
5.68594e-20
4.329e-20
1.51795e-20
2.72679e-21
8.24732e-22
4.25505e-22
3.35285e-24
2.70067e-23
1.44399e-22
6.19244e-22
4.58756e-21
1.23122e-20
3.16906e-20
6.92302e-20
1.01464e-19
1.61097e-19
1.36326e-19
8.60726e-20
8.2141e-20
4.41391e-20
2.58113e-20
4.45747e-20
1.05101e-19
2.27513e-19
2.98638e-19
1.50481e-19
1.95831e-19
2.62399e-19
2.4752e-19
1.96866e-19
1.55864e-19
1.84377e-19
9.26817e-20
2.35194e-20
1.09278e-20
5.95328e-21
2.29802e-21
1.15177e-23
1.40458e-22
6.77479e-22
2.2043e-21
1.51731e-20
6.87094e-20
1.36156e-19
4.02423e-19
5.43459e-19
7.75039e-19
8.44295e-19
4.76083e-19
4.4836e-19
2.316e-19
1.98699e-19
1.16998e-19
4.55369e-19
9.0665e-19
7.48034e-19
1.0212e-18
4.98071e-19
9.25979e-19
1.06523e-18
5.24011e-19
5.24019e-19
7.05655e-19
3.05446e-19
1.47035e-19
3.55787e-20
5.00899e-20
1.66497e-20
4.73206e-21
6.17756e-23
4.74921e-22
3.37791e-21
1.56673e-20
5.15237e-20
2.60765e-19
6.79883e-19
1.43368e-18
2.47646e-18
4.33548e-18
2.89811e-18
3.164e-18
1.58145e-18
2.05566e-18
1.25486e-18
8.78809e-19
9.59796e-19
3.27692e-18
3.21737e-18
2.76293e-18
4.65835e-18
2.35974e-18
4.02453e-18
2.24109e-18
1.40638e-18
1.62043e-18
2.01143e-18
6.84159e-19
2.90324e-19
2.33401e-19
1.2597e-19
5.4199e-20
3.946e-21
4.08039e-22
2.49713e-21
1.28147e-20
6.63511e-20
1.93705e-19
7.81985e-19
3.55297e-18
7.87849e-18
1.30434e-17
2.48579e-17
1.78628e-17
1.43591e-17
1.18322e-17
8.24169e-18
6.18701e-18
6.31762e-18
4.60181e-18
6.5436e-18
1.26069e-17
8.86174e-18
1.8169e-17
1.34315e-17
1.3625e-17
8.63582e-18
5.9035e-18
4.23489e-18
4.03564e-18
4.00415e-18
1.21106e-18
1.55363e-18
8.30096e-19
5.49314e-19
2.0646e-19
4.48297e-21
8.44817e-20
1.30775e-21
8.45897e-21
5.52378e-20
2.67629e-19
9.56424e-19
3.46187e-18
1.53971e-17
2.59787e-17
4.58528e-17
9.4962e-17
7.76689e-17
7.13521e-17
6.90252e-17
4.2741e-17
3.23592e-17
2.54703e-17
3.4931e-17
3.82505e-17
4.00582e-17
4.30988e-17
5.4484e-17
4.94687e-17
5.33206e-17
3.47379e-17
2.73983e-17
1.45313e-17
1.83398e-17
9.35186e-18
9.07694e-18
8.86708e-18
7.88582e-18
4.76815e-18
5.24472e-18
7.32197e-19
3.57998e-18
3.77233e-20
4.35519e-19
3.71613e-21
2.29125e-20
1.89656e-19
1.0585e-18
6.36358e-18
1.91824e-17
5.22112e-17
1.16166e-16
1.7199e-16
3.03359e-16
4.45613e-16
2.93806e-16
2.81883e-16
2.87443e-16
2.13934e-16
1.09744e-16
9.23467e-17
1.22092e-16
2.05642e-16
2.17085e-16
1.30753e-16
1.21179e-16
1.41165e-16
1.15489e-16
8.28081e-17
4.89605e-17
5.37413e-17
3.09971e-17
4.48811e-17
5.88217e-17
7.61147e-17
4.79934e-17
1.93197e-17
7.76625e-17
2.86935e-17
1.34627e-16
1.63817e-16
4.5672e-18
2.34143e-17
1.39576e-19
2.50149e-18
6.54445e-21
6.29861e-20
7.24019e-19
5.02834e-18
2.48478e-17
8.43357e-17
2.79763e-16
5.71677e-16
6.95967e-16
1.03342e-15
1.42569e-15
1.2048e-15
1.12211e-15
1.10232e-15
1.00977e-15
4.6766e-16
3.60797e-16
4.2105e-16
6.87564e-16
5.43883e-16
7.1277e-16
5.20205e-16
3.16196e-16
3.57828e-16
2.30134e-16
1.37726e-16
1.42483e-16
1.87135e-16
1.25486e-16
2.96759e-16
7.57576e-16
9.26162e-16
2.50121e-16
1.0913e-15
4.66953e-16
1.72715e-16
8.9373e-16
9.01337e-16
2.97127e-17
1.50177e-16
1.89965e-18
1.84593e-17
2.82797e-20
2.19916e-19
1.89706e-18
1.55131e-17
8.36276e-17
2.99176e-16
7.57015e-16
1.85012e-15
3.85831e-15
5.0141e-15
6.54782e-15
6.88554e-15
6.22526e-15
5.36121e-15
5.83503e-15
2.95198e-15
1.68603e-15
1.89285e-15
2.03693e-15
2.27625e-15
2.01895e-15
1.98423e-15
1.2191e-15
8.87597e-16
5.47341e-16
4.31655e-16
3.95059e-16
4.77647e-16
6.85115e-16
1.4692e-15
5.06057e-15
1.05114e-14
4.91372e-15
2.38906e-14
2.19485e-15
1.17311e-14
4.02957e-15
1.13942e-15
6.22912e-15
7.81087e-15
1.6726e-16
9.98885e-16
8.58156e-18
9.60055e-17
2.49104e-19
5.51335e-19
4.51934e-18
4.35767e-17
2.65133e-16
9.62824e-16
3.48623e-15
8.00163e-15
1.63791e-14
2.74188e-14
3.66195e-14
4.07313e-14
3.73612e-14
3.33067e-14
3.25472e-14
2.51227e-14
9.78641e-15
8.86869e-15
9.66765e-15
1.04646e-14
9.46467e-15
8.10282e-15
5.96149e-15
3.7947e-15
2.4987e-15
1.47326e-15
1.30752e-15
1.56564e-15
2.20988e-15
6.93553e-15
4.06227e-14
9.84259e-14
8.25881e-14
3.23354e-13
5.13961e-14
2.26799e-13
2.20685e-14
1.13691e-13
3.90377e-14
8.57451e-15
5.70177e-14
7.04143e-14
8.54183e-16
7.25656e-15
3.4335e-17
5.1452e-16
6.53457e-19
1.74136e-18
1.48904e-17
1.34729e-16
8.07351e-16
3.4701e-15
1.34831e-14
3.88551e-14
8.50618e-14
1.47385e-13
2.05997e-13
2.34552e-13
2.22826e-13
1.96078e-13
1.96073e-13
2.03848e-13
7.08413e-14
5.23649e-14
5.48595e-14
5.73512e-14
5.31508e-14
4.3298e-14
3.12766e-14
1.92086e-14
1.12965e-14
6.40353e-15
4.29162e-15
5.68655e-15
1.77969e-14
3.81477e-14
1.91076e-13
7.1404e-13
8.97309e-13
2.84593e-12
8.07926e-13
2.91912e-12
5.10023e-13
2.14007e-12
2.17869e-13
1.10445e-12
3.70245e-13
7.24216e-14
5.21678e-13
6.34901e-13
5.27947e-15
6.16474e-14
1.14488e-16
3.05129e-15
3.48296e-18
8.29342e-18
3.37259e-17
3.44338e-16
2.35886e-15
1.26205e-14
5.4836e-14
1.78503e-13
4.25977e-13
7.80118e-13
1.12967e-12
1.31766e-12
1.275e-12
1.11524e-12
1.05517e-12
1.32925e-12
5.39722e-13
3.17216e-13
3.09762e-13
3.20282e-13
2.99261e-13
2.40441e-13
1.71311e-13
1.07998e-13
6.18201e-14
3.39846e-14
2.03129e-14
2.05647e-14
5.06423e-14
3.07233e-13
7.50184e-13
3.51548e-12
6.79213e-12
1.75703e-11
8.34133e-12
2.48139e-11
7.71521e-12
2.64806e-11
4.9712e-12
2.03178e-11
2.10681e-12
1.06558e-11
3.49427e-12
6.40564e-13
4.84193e-12
5.82752e-12
4.39772e-14
5.33328e-13
8.7707e-16
2.4612e-14
2.19025e-17
4.22099e-17
7.91463e-17
8.93774e-16
6.60384e-15
4.36881e-14
2.15997e-13
7.75252e-13
2.02367e-12
3.95148e-12
5.98988e-12
7.18961e-12
7.06336e-12
6.12648e-12
5.50954e-12
6.01313e-12
4.52804e-12
1.91601e-12
1.65923e-12
1.68137e-12
1.58556e-12
1.29749e-12
9.14684e-13
5.77495e-13
3.32172e-13
1.84229e-13
1.13727e-13
1.14705e-13
2.36588e-13
8.05059e-13
5.36658e-12
1.56586e-11
3.7871e-11
8.47642e-11
6.10007e-11
1.51086e-10
7.73983e-11
2.2038e-10
7.39822e-11
2.45094e-10
4.8304e-11
1.96038e-10
2.03375e-11
1.0278e-10
3.31056e-11
5.72282e-12
4.54554e-11
5.34072e-11
3.70627e-13
4.62994e-12
6.6173e-15
2.06826e-13
1.60997e-16
2.1046e-16
2.1452e-16
1.84323e-15
1.93036e-14
1.43566e-13
7.97079e-13
3.17537e-12
9.08354e-12
1.90806e-11
3.04522e-11
3.79346e-11
3.80365e-11
3.2781e-11
2.79309e-11
2.88117e-11
3.10705e-11
1.12756e-11
8.51999e-12
8.24358e-12
7.75244e-12
6.48194e-12
4.6865e-12
2.96932e-12
1.71122e-12
9.72633e-13
6.7322e-13
7.8624e-13
1.45792e-12
3.5492e-12
1.24362e-11
7.86402e-11
1.66933e-10
3.38536e-10
3.36816e-10
7.75323e-10
5.54734e-10
1.34888e-09
7.27477e-10
2.01046e-09
7.1409e-10
2.31694e-09
4.68176e-10
1.89416e-09
1.95649e-10
9.86793e-10
3.12987e-10
5.05844e-11
4.22859e-10
4.78188e-10
3.15839e-12
3.95302e-11
5.34236e-14
1.7242e-12
6.08093e-16
1.00792e-15
6.98162e-16
4.26241e-15
4.99225e-14
4.40204e-13
2.7546e-12
1.21972e-11
3.84386e-11
8.75456e-11
1.48038e-10
1.92444e-10
1.98553e-10
1.71778e-10
1.38837e-10
1.31604e-10
1.66842e-10
6.56847e-11
4.22315e-11
3.82771e-11
3.53531e-11
2.98e-11
2.21454e-11
1.43746e-11
8.40966e-12
5.06167e-12
4.29498e-12
6.30282e-12
1.13194e-11
2.10311e-11
5.35084e-11
1.35912e-10
6.14699e-10
1.25315e-09
1.48356e-09
2.97949e-09
3.04641e-09
7.1591e-09
5.10245e-09
1.22025e-08
6.87995e-09
1.86232e-08
6.83423e-09
2.17932e-08
4.47914e-09
1.79114e-08
1.85443e-09
9.29575e-09
2.89617e-09
4.34167e-10
3.81469e-09
4.11306e-09
2.6502e-11
3.27038e-10
4.24202e-13
1.38203e-11
3.50912e-15
4.10047e-15
2.56896e-15
8.89778e-15
1.24082e-13
1.24153e-12
8.82417e-12
4.37537e-11
1.5258e-10
3.79095e-10
6.8563e-10
9.33821e-10
9.97902e-10
8.7828e-10
6.86812e-10
5.75355e-10
7.19683e-10
3.86369e-10
2.03497e-10
1.69523e-10
1.51725e-10
1.27865e-10
9.65134e-11
6.39667e-11
3.8366e-11
2.54362e-11
2.89774e-11
5.4367e-11
1.01758e-10
1.61802e-10
2.74966e-10
9.71527e-10
2.68528e-09
7.69598e-10
4.94251e-09
8.54921e-09
1.30527e-08
2.60147e-08
2.74453e-08
6.4074e-08
4.67918e-08
1.09916e-07
6.38021e-08
1.69778e-07
6.34378e-08
1.98061e-07
4.16008e-08
1.62523e-07
1.69986e-08
8.42142e-08
2.5706e-08
3.56857e-09
3.27521e-08
3.36593e-08
2.11977e-10
2.57718e-09
3.24252e-12
1.04547e-10
1.57961e-14
2.03091e-14
1.05166e-14
1.82533e-14
2.71492e-13
3.2571e-12
2.59758e-11
1.45443e-10
5.64202e-10
1.53809e-09
2.99923e-09
4.31604e-09
4.79678e-09
4.33522e-09
3.37108e-09
2.54085e-09
2.48427e-09
2.01484e-09
9.33242e-10
7.1691e-10
6.14766e-10
5.13444e-10
3.91427e-10
2.62573e-10
1.62803e-10
1.24885e-10
1.89667e-10
4.33189e-10
9.12994e-10
1.4314e-09
1.92082e-09
4.24174e-09
2.45844e-08
1.56932e-08
3.19423e-08
4.1022e-08
7.3472e-08
1.13072e-07
2.18136e-07
2.43818e-07
5.5003e-07
4.19647e-07
9.6116e-07
5.68356e-07
1.48092e-06
5.59537e-07
1.69796e-06
3.67395e-07
1.38226e-06
1.48285e-07
7.19279e-07
2.16203e-07
2.76981e-08
2.64781e-07
2.59115e-07
1.58332e-09
1.90374e-08
2.321e-11
7.29242e-10
5.87839e-14
9.69712e-14
5.09277e-14
4.08886e-14
5.16921e-13
7.62297e-12
7.0625e-11
4.43625e-10
1.92889e-09
5.79466e-09
1.22615e-08
1.88117e-08
2.19027e-08
2.04517e-08
1.61087e-08
1.1503e-08
9.20369e-09
9.15763e-09
4.09278e-09
2.88032e-09
2.35804e-09
1.93013e-09
1.47614e-09
9.94918e-10
6.52688e-10
6.51938e-10
1.257e-09
3.08168e-09
6.73958e-09
1.20991e-08
1.69243e-08
2.0275e-08
6.32889e-08
2.3723e-07
3.25002e-07
1.14337e-07
1.76244e-07
3.39155e-07
5.77206e-07
9.50095e-07
1.75655e-06
2.09484e-06
4.3908e-06
3.57552e-06
7.81026e-06
4.71332e-06
1.17262e-05
4.54821e-06
1.3027e-05
2.99821e-06
1.05073e-05
1.21043e-06
5.58838e-06
1.69427e-06
2.01066e-07
1.9862e-06
1.85095e-06
1.08313e-08
1.29459e-07
1.50913e-10
4.59051e-09
1.86441e-13
3.74334e-13
2.66788e-13
1.16703e-13
9.36106e-13
1.50535e-11
1.75728e-10
1.24112e-09
6.03661e-09
2.00973e-08
4.63388e-08
7.62971e-08
9.39262e-08
9.12422e-08
7.36284e-08
5.20737e-08
3.59861e-08
3.49874e-08
1.72248e-08
1.10388e-08
8.60345e-09
6.83413e-09
5.17104e-09
3.46162e-09
2.53121e-09
3.60496e-09
9.24351e-09
2.0838e-08
4.32833e-08
8.22035e-08
1.36509e-07
1.90838e-07
1.52071e-07
4.40704e-07
7.2241e-07
1.75004e-06
2.3366e-06
8.91362e-07
1.30254e-06
2.71678e-06
4.34998e-06
7.50877e-06
1.2629e-05
1.62395e-05
2.98298e-05
2.67571e-05
5.36132e-05
3.36558e-05
7.72511e-05
3.15362e-05
8.25635e-05
2.10524e-05
6.59515e-05
8.8445e-06
3.63363e-05
1.17506e-05
1.35563e-06
1.31263e-05
1.1746e-05
6.71175e-08
8.06767e-07
8.75358e-10
2.56078e-08
5.55456e-13
1.0743e-12
8.72455e-13
4.33656e-13
1.5403e-12
2.80246e-11
3.72295e-10
3.15923e-09
1.72085e-08
6.34727e-08
1.60114e-07
2.84419e-07
3.72856e-07
3.80085e-07
3.17035e-07
2.27241e-07
1.48707e-07
1.15233e-07
6.98664e-08
4.07177e-08
3.00667e-08
2.30634e-08
1.68623e-08
1.10865e-08
9.1289e-09
2.15854e-08
6.15661e-08
1.41502e-07
2.58307e-07
4.96909e-07
8.88445e-07
1.40596e-06
2.0002e-06
1.40891e-06
0
3.02753e-06
4.29944e-06
1.21596e-05
1.65549e-05
6.48493e-06
9.0827e-06
1.91768e-05
2.90263e-05
4.92449e-05
7.53003e-05
9.77261e-05
0.00015852
0.000153522
0.000264252
0.0001894
0.00035981
0.000173503
0.000390945
0.00011936
0.000316714
5.32931e-05
0.000187019
6.67953e-05
8.28241e-06
7.07934e-05
6.10128e-05
3.74457e-07
4.60001e-06
4.47393e-09
1.25207e-07
1.13407e-12
3.16516e-12
2.43864e-12
1.60617e-12
2.43194e-12
4.72661e-11
6.97892e-10
7.24293e-09
4.42589e-08
1.81028e-07
4.99681e-07
9.60899e-07
1.34849e-06
1.45256e-06
1.26201e-06
9.27429e-07
6.05212e-07
3.84049e-07
2.68121e-07
1.44156e-07
1.01434e-07
7.46693e-08
5.17278e-08
3.30371e-08
3.04031e-08
9.68675e-08
3.16885e-07
7.4268e-07
1.54062e-06
2.94898e-06
5.2234e-06
8.32921e-06
1.29929e-05
2.93791e-05
7.05253e-06
2.15975e-05
2.19352e-05
3.17852e-05
7.54617e-05
0.00010185
4.16734e-05
5.65975e-05
0.000109314
0.000153651
0.000235874
0.000325387
0.000405439
0.000563706
0.000574135
0.000814716
0.000686689
0.00101782
0.000679119
0.00110522
0.000503956
0.00101404
0.000251777
0.000698294
0.000295728
4.16268e-05
0.000297332
0.000247218
1.88239e-06
2.16155e-05
1.91256e-08
5.13359e-07
5.9313e-12
7.7237e-12
4.07357e-12
4.48569e-12
6.81352e-11
1.24131e-09
1.40626e-08
1.01743e-07
4.61039e-07
1.3928e-06
2.90408e-06
4.3844e-06
5.02713e-06
4.5829e-06
3.48016e-06
2.30804e-06
1.41501e-06
8.89545e-07
5.12334e-07
3.32972e-07
2.31152e-07
1.5128e-07
9.27088e-08
8.91877e-08
3.49598e-07
1.19081e-06
3.51273e-06
8.44761e-06
1.6656e-05
2.86352e-05
4.38413e-05
6.30142e-05
0.000113152
0.000141125
0.000242227
4.82367e-05
8.61288e-05
0.000134964
0.000186362
0.000331014
0.000408293
0.000205849
0.000264546
0.000428475
0.000538815
0.000729927
0.00089712
0.00106347
0.00130296
0.00135448
0.00167974
0.0015431
0.00196123
0.00156462
0.00209178
0.00135497
0.002008
0.000856228
0.00165119
0.000942808
0.000164988
0.000910351
0.000740834
7.7595e-06
8.09869e-05
7.06002e-08
1.79202e-06
1.37821e-11
1.42829e-11
8.62124e-12
9.0276e-11
1.8931e-09
2.50966e-08
2.07721e-07
1.04418e-06
3.43444e-06
7.77083e-06
1.26987e-05
1.56686e-05
1.51823e-05
1.20406e-05
8.20316e-06
5.0805e-06
2.99439e-06
1.78733e-06
1.04659e-06
6.80933e-07
4.24986e-07
2.50135e-07
2.00222e-07
9.13885e-07
3.7522e-06
1.35036e-05
3.64572e-05
7.6569e-05
0.000129015
0.000181735
0.000232528
0.000323139
0.000412423
0.000517342
0.00047449
0.000648476
0.000253567
0.000359856
0.000494678
0.000597262
0.000874341
0.000988474
0.000650699
0.000762242
0.00106568
0.00122438
0.00152718
0.00173703
0.00198178
0.00225071
0.00234432
0.00268488
0.00256824
0.00297912
0.00260701
0.00311042
0.00239596
0.00303308
0.00185949
0.00269213
0.00195216
0.000503868
0.00189921
0.00172169
0.00108386
2.57682e-05
0.000237662
1.74831e-07
3.96203e-06
2.39051e-11
2.19744e-11
9.5134e-11
2.67617e-09
4.00319e-08
3.79765e-07
2.07243e-06
7.43752e-06
1.82333e-05
3.24701e-05
4.35535e-05
4.57231e-05
3.87018e-05
2.75351e-05
1.74473e-05
1.00929e-05
5.66372e-06
3.26101e-06
1.9235e-06
1.14493e-06
6.49193e-07
4.11146e-07
1.47439e-06
9.41379e-06
3.91827e-05
0.000114487
0.000243575
0.000407437
0.000554732
0.000663003
0.000777978
0.00108834
0.000793618
0.00112344
0.00100993
0.00118965
0.000716372
0.000855884
0.00110503
0.00123276
0.00163519
0.00176
0.00137024
0.00150622
0.00193202
0.00210367
0.00248795
0.00270042
0.00297834
0.00322141
0.00332378
0.0036057
0.00351818
0.00383931
0.00355568
0.00394039
0.00336557
0.00388218
0.00287242
0.00354358
0.00321453
0.00243098
0.00291448
0.00149446
0.00068334
0.00133409
0.00227131
0.00284599
0.00286509
0.00215033
5.49639e-05
0.000986784
0.000755657
0.000278738
1.5006e-07
3.55586e-06
3.48987e-11
1.02301e-10
2.88972e-09
6.07965e-08
5.97043e-07
3.70886e-06
1.4072e-05
3.71478e-05
7.1603e-05
0.000106081
0.00012208
0.000113581
8.73141e-05
5.72083e-05
3.29447e-05
1.77431e-05
9.53467e-06
5.26074e-06
2.96846e-06
1.61246e-06
8.72863e-07
1.87391e-06
1.52234e-05
7.81214e-05
0.000239569
0.000515204
0.000811895
0.00108639
0.00132685
0.00153009
0.00178295
0.00186374
0.002058
0.00137964
0.00161213
0.00168755
0.00186837
0.0013714
0.00152278
0.00188542
0.00201792
0.00251409
0.00263094
0.00225421
0.00238967
0.00288506
0.00303702
0.00342273
0.0035899
0.00382913
0.00399504
0.00408335
0.00425634
0.0042141
0.00439568
0.00400726
0.00416073
0.00427992
0.00438682
0.00380184
0.00404347
0.00425306
0.00437176
0.00422066
0.00359067
0.00330359
0.00368265
0.00389249
0.00332166
0.0019738
0.00171528
0.00273323
0.00325197
0.00330869
0.00259412
0.000402757
4.33225e-05
0.000195865
0.00142237
0.00104258
6.64823e-08
6.0887e-05
1.21281e-05
1.22082e-06
8.23773e-11
2.96389e-09
7.0891e-08
9.00192e-07
5.81313e-06
2.38247e-05
6.594e-05
0.000135896
0.000215588
0.000280475
0.00029643
0.000251137
0.000170267
9.99853e-05
5.35301e-05
2.73287e-05
1.40954e-05
7.45804e-06
3.84192e-06
1.91365e-06
2.27532e-06
1.83531e-05
0.000113901
0.000372406
0.000767418
0.00121638
0.00159781
0.00192691
0.00221697
0.00251142
0.0029248
0.00249137
0.00287045
0.00206172
0.00229986
0.00245994
0.00262273
0.00215784
0.00230453
0.00274562
0.00286171
0.0033668
0.00344641
0.00316275
0.00327191
0.00372122
0.00381574
0.00411984
0.00419854
0.0043693
0.00444167
0.00451104
0.00459198
0.00446397
0.00452908
0.00457718
0.00461996
0.00438401
0.0044782
0.00454816
0.00412835
0.00431328
0.00447565
0.00454757
0.00444946
0.00397011
0.00370183
0.00401759
0.00420562
0.00371204
0.00239133
0.00213037
0.00315317
0.00369062
0.00363427
0.00300344
0.000652823
0.000298798
0.00179712
0.00139483
1.96025e-06
8.72037e-09
1.46185e-07
9.50903e-05
2.04606e-05
1.6151e-09
7.57822e-08
1.05092e-06
8.1879e-06
3.49753e-05
0.000103736
0.000222775
0.000373776
0.00050441
0.000565336
0.000535064
0.000427831
0.000278428
0.000149623
7.56755e-05
3.69062e-05
1.8633e-05
8.84719e-06
4.16901e-06
3.04848e-06
1.86731e-05
0.000132103
0.000478327
0.00100113
0.00151417
0.00190473
0.00219875
0.00246591
0.00273467
0.00302882
0.00335508
0.00331658
0.00315782
0.00329649
0.00280001
0.00299038
0.0032084
0.00331161
0.00298248
0.00309651
0.00351735
0.00357193
0.00394015
0.00393634
0.0038799
0.00392033
0.004242
0.00425554
0.00449439
0.00451523
0.00465307
0.00470123
0.00465689
0.00469588
0.00473701
0.00478564
0.00459933
0.00464044
0.00467729
0.00471629
0.0045539
0.00460877
0.00464957
0.0043857
0.00451581
0.00461089
0.0046515
0.00460116
0.00426325
0.00404363
0.00430212
0.00444439
0.00404921
0.00279648
0.00252207
0.00353621
0.00402822
0.00397652
0.00338704
0.000927668
0.000457209
0.0021709
0.00173616
2.85195e-06
2.83368e-09
1.07961e-07
0.000159845
3.68334e-05
4.73443e-08
1.13266e-06
9.37574e-06
4.64497e-05
0.000142107
0.000320988
0.000550348
0.000758769
0.000870269
0.000871981
0.00076959
0.000590868
0.000383669
0.000200206
9.47104e-05
4.52827e-05
2.00241e-05
8.95981e-06
4.74243e-06
1.81543e-05
0.000132662
0.000528694
0.00115268
0.00163615
0.00192426
0.00217022
0.00241307
0.00266058
0.00291818
0.0031743
0.00345158
0.00334751
0.00349287
0.00348516
0.00339618
0.00346111
0.00365002
0.00364821
0.00361251
0.00363597
0.00392326
0.00389744
0.00417368
0.00410504
0.0042446
0.00421848
0.00450887
0.00448467
0.00475817
0.00477407
0.00483612
0.00489331
0.00494763
0.00500285
0.00476172
0.00481795
0.00488719
0.00496929
0.0046849
0.00472168
0.00476711
0.00482783
0.0046523
0.0046847
0.00471655
0.0045681
0.0046419
0.00468229
0.00470163
0.00468066
0.0044888
0.00432559
0.00452141
0.00461004
0.00433138
0.00317891
0.00289844
0.00388406
0.00431614
0.00427385
0.00374195
0.00122381
0.000666741
0.00253383
0.00207543
3.50029e-06
1.02697e-09
6.62052e-08
0.000254266
5.42003e-05
8.55142e-07
1.01619e-05
5.30012e-05
0.000177948
0.000411273
0.000723775
0.00100603
0.0011793
0.00121457
0.00112988
0.000952045
0.000712257
0.000459959
0.00024218
0.00010662
4.54895e-05
1.92163e-05
8.49625e-06
1.6693e-05
0.00012804
0.00053483
0.00121369
0.00161525
0.00185822
0.00203887
0.00220217
0.00235986
0.00252235
0.00261068
0.00286097
0.00250515
0.00337069
0.0031507
0.00357532
0.00350322
0.00363716
0.0036153
0.00377186
0.0037189
0.0038583
0.00381621
0.00403482
0.00395797
0.00423327
0.00411062
0.00442768
0.00434033
0.00475443
0.00469647
0.00523307
0.00528378
0.00505938
0.00515484
0.00525119
0.00534679
0.00490867
0.00501185
0.00513619
0.00527519
0.00475725
0.00481557
0.00489948
0.00501457
0.00470784
0.00473955
0.00478831
0.00467379
0.00470157
0.00472265
0.00472969
0.00471468
0.004643
0.0045432
0.00466982
0.00470018
0.00455301
0.0035386
0.00325898
0.00419389
0.00454811
0.00452141
0.00406659
0.00152217
0.000902352
0.00288749
0.00241056
2.94815e-06
6.50084e-10
4.60515e-08
0.000354345
5.79873e-05
8.74979e-06
5.66986e-05
0.00019953
0.000488333
0.00087175
0.00123062
0.00145255
0.00151404
0.00145375
0.00129499
0.00105662
0.000771343
0.000484838
0.000249522
0.00010268
4.16284e-05
1.63234e-05
1.61957e-05
0.00011402
0.000523952
0.00120231
0.00154821
0.0017017
0.00172554
0.00167805
0.00160915
0.00154748
0.00145998
0.00135856
0.0023504
0.00179699
0.00303782
0.00272072
0.00344628
0.00327523
0.0036549
0.00356808
0.00367469
0.00355817
0.00387393
0.00377958
0.00397394
0.00382354
0.00424786
0.00403746
0.00458229
0.00443078
0.00524543
0.00513534
0.00595053
0.00602481
0.00603033
0.00604809
0.00542249
0.00557244
0.00571664
0.00584675
0.00516234
0.00533931
0.00553707
0.00574651
0.00486573
0.00498108
0.00513923
0.00533922
0.00475548
0.00481703
0.00492113
0.00471819
0.00472222
0.00476642
0.00477534
0.00473149
0.00472284
0.00469186
0.00474485
0.00473334
0.0047081
0.00387548
0.00360397
0.00446283
0.00471687
0.00471266
0.00435804
0.00182144
0.00112958
0.00323308
0.00274243
2.34337e-06
1.58123e-09
8.27456e-08
0.000417498
5.3873e-05
5.25598e-05
0.000210861
0.000535468
0.000989579
0.00141106
0.00165314
0.00172456
0.00168667
0.0015612
0.0013585
0.00108127
0.000765011
0.000468854
0.000234819
9.00967e-05
3.26572e-05
1.80167e-05
9.17807e-05
0.000484191
0.00117089
0.00146535
0.00153288
0.00135919
0.00102946
0.000769394
0.000668473
0.000596244
0.000505939
0.00070523
0.000330703
0.00168547
0.00116129
0.00250999
0.00212582
0.00307276
0.00282389
0.00342593
0.00326865
0.00333909
0.00316598
0.00366647
0.00350494
0.00379547
0.00355289
0.00436952
0.00404211
0.00492959
0.00467163
0.00598512
0.00589077
0.00585601
0.00657044
0.00660578
0.00651452
0.00658587
0.00595861
0.00616009
0.0063372
0.00647772
0.0055742
0.00583464
0.00610891
0.0063839
0.00507564
0.00528244
0.00553709
0.00583096
0.004846
0.00498266
0.00518145
0.00472616
0.00473077
0.00487635
0.00490805
0.00478237
0.00474829
0.00476781
0.0047664
0.00472861
0.00479219
0.00418918
0.00393477
0.00468369
0.00481678
0.00483781
0.00461319
0.00211378
0.001326
0.0035713
0.00307271
2.60463e-06
7.04288e-08
7.82449e-07
0.000442395
5.50343e-05
0.000202883
0.000558368
0.00106436
0.00154063
0.00177265
0.0018415
0.00181838
0.00173357
0.00157593
0.00133962
0.00103957
0.000715635
0.000418341
0.000195377
6.71968e-05
2.56155e-05
7.24269e-05
0.000414003
0.00111009
0.00139808
0.00139415
0.0010478
0.000572764
0.000336022
0.000239818
0.000189699
0.000140983
5.75026e-05
0.00022886
7.87998e-05
0.000917734
0.000493917
0.00182677
0.00139253
0.00250625
0.00219728
0.00297781
0.0027623
0.00284495
0.00261324
0.00331312
0.00307647
0.00369973
0.00332351
0.00471328
0.00424228
0.00550918
0.00513218
0.00639543
0.00624938
0.00608559
0.00587874
0.00713526
0.00706042
0.00670241
0.00690496
0.00663925
0.00685533
0.0070172
0.00711276
0.00615298
0.00648843
0.00681705
0.00711231
0.00543882
0.00574695
0.00609722
0.00647638
0.00504927
0.00529356
0.00560029
0.00472865
0.00478718
0.00511705
0.00517367
0.00493166
0.0047333
0.00479096
0.00474478
0.00472542
0.00482468
0.00447924
0.00425202
0.00484445
0.00486703
0.00491344
0.00482139
0.00241198
0.00152215
0.00390896
0.00342235
5.81627e-06
6.19717e-06
1.30079e-05
0.000485873
7.54909e-05
0.000547877
0.00110193
0.00161311
0.00183044
0.00188876
0.00188169
0.0018118
0.00168348
0.00149754
0.00124621
0.00094021
0.000616599
0.000334085
0.000138854
4.39156e-05
6.17271e-05
0.000342191
0.00102708
0.00134353
0.001304
0.000868494
0.000378435
0.000162961
8.02526e-05
4.97635e-05
3.22045e-05
1.16786e-05
7.18723e-06
2.8389e-06
5.11942e-05
1.68258e-05
0.000317263
0.000135432
0.00102397
0.000622408
0.00179077
0.0014331
0.00236919
0.00209872
0.00228064
0.00197343
0.00294539
0.00260073
0.00373762
0.00323937
0.0049131
0.0044734
0.00571149
0.00552822
0.00525888
0.00649808
0.00629241
0.00581834
0.00563251
0.00740635
0.00717687
0.00663403
0.00692155
0.00735041
0.00751244
0.00759117
0.00756019
0.00686426
0.00723196
0.00754847
0.00778659
0.0059603
0.00636375
0.0067931
0.00721967
0.00540452
0.00575909
0.00617088
0.00478541
0.00494323
0.00550479
0.00558774
0.00521498
0.00472377
0.00476835
0.00473024
0.00477714
0.004808
0.00473981
0.00456404
0.00495409
0.00486773
0.00495287
0.00498162
0.002748
0.00176338
0.00426047
0.00380058
3.02325e-05
9.99057e-05
0.000111738
0.00061418
0.000168624
0.00109464
0.00164197
0.00185276
0.00190064
0.00188599
0.00181406
0.00169944
0.00154732
0.00135121
0.00109855
0.000796477
0.000487699
0.000236214
8.39275e-05
6.01363e-05
0.000276209
0.000927257
0.00129804
0.00125757
0.000797024
0.00033189
0.000119752
3.7809e-05
1.408e-05
6.61136e-06
2.15063e-06
5.18409e-07
1.7567e-06
7.5064e-07
1.19086e-05
4.42874e-06
7.87932e-05
3.12636e-05
0.000375407
0.000183258
0.000989542
0.000654978
0.00166223
0.00133389
0.00182034
0.00142059
0.00274628
0.00226325
0.00394548
0.00333485
0.00476534
0.0046562
0.00438781
0.00548893
0.00535629
0.00483739
0.00489938
0.00632745