/*--------------------------------*- C++ -*----------------------------------*\
  =========                 |
  \\      /  F ield         | OpenFOAM: The Open Source CFD Toolbox
   \\    /   O peration     | Website:  https://openfoam.org
    \\  /    A nd           | Version:  dev
     \\/     M anipulation  |
\*---------------------------------------------------------------------------*/
FoamFile
{
    version     2.0;
    format      ascii;
    class       volScalarField;
    location    "2500";
    object      G;
}
// * * * * * * * * * * * * * * * * * * * * * * * * * * * * * * * * * * * * * //

dimensions      [1 0 -3 0 0 0 0];

internalField   nonuniform List<scalar> 
9842
(
4114.7
4120.75
4122.29
4126.02
4128.36
4130.69
4130.53
4133.64
4136.76
4139.89
4134.27
4138.15
4142.06
4145.98
4149.92
4137.26
4141.89
4146.57
4151.28
4156.02
4160.79
4139.51
4144.88
4150.3
4155.78
4161.32
4166.9
4172.52
4141.05
4147.12
4153.26
4159.49
4165.8
4172.19
4178.64
4185.14
4141.88
4148.64
4155.48
4162.42
4169.47
4176.64
4183.91
4191.26
4198.67
4142.03
4149.46
4156.97
4164.59
4172.36
4180.27
4188.33
4196.52
4204.8
4213.14
4141.53
4149.58
4157.74
4166.02
4174.47
4183.09
4191.9
4200.89
4210.03
4219.28
4228.61
4140.39
4149.05
4157.82
4166.73
4175.83
4185.12
4194.64
4204.38
4214.34
4224.47
4234.75
4245.11
4138.66
4147.89
4157.24
4166.74
4176.45
4186.38
4196.57
4207.02
4217.74
4228.71
4239.9
4251.24
4262.69
4136.35
4146.12
4156.01
4166.08
4176.36
4186.89
4197.71
4208.83
4220.26
4232.01
4244.05
4256.34
4268.81
4281.41
4133.5
4143.78
4154.18
4164.77
4175.59
4186.68
4198.08
4209.82
4221.92
4234.39
4247.22
4260.39
4273.85
4287.53
4301.35
4130.14
4140.89
4151.77
4162.85
4174.16
4185.77
4197.71
4210.02
4222.74
4235.87
4249.43
4263.41
4277.78
4292.48
4307.44
4322.57
4126.29
4137.48
4148.82
4160.34
4172.12
4184.2
4196.64
4209.47
4222.75
4236.49
4250.71
4265.43
4280.63
4296.27
4312.31
4328.64
4345.16
4121.99
4133.59
4145.34
4157.28
4169.49
4182
4194.89
4208.2
4221.98
4236.26
4251.09
4266.48
4282.42
4298.92
4315.93
4333.39
4351.19
4369.22
4117.26
4129.25
4141.38
4153.7
4166.3
4179.21
4192.51
4206.24
4220.47
4235.24
4250.6
4266.58
4283.2
4300.45
4318.34
4336.82
4355.82
4375.22
4394.88
4112.15
4124.48
4136.96
4149.64
4162.58
4175.85
4189.52
4203.63
4218.26
4233.46
4249.29
4265.78
4282.98
4300.92
4319.58
4338.96
4359.03
4379.69
4400.81
4422.25
4106.67
4119.32
4132.11
4145.11
4158.38
4171.97
4185.96
4200.42
4215.4
4230.97
4247.19
4264.13
4281.83
4300.34
4319.68
4339.86
4360.85
4382.63
4405.1
4428.12
4451.49
4100.86
4113.8
4126.88
4140.17
4153.72
4167.6
4181.88
4196.62
4211.91
4227.8
4244.37
4261.68
4279.8
4298.79
4318.7
4339.55
4361.35
4384.1
4407.74
4432.19
4457.27
4482.78
4094.74
4107.94
4121.28
4134.83
4148.63
4162.77
4177.3
4192.3
4207.84
4224
4240.86
4258.48
4276.94
4296.32
4316.69
4338.09
4360.57
4384.13
4408.78
4434.47
4461.08
4488.45
4516.32
4088.35
4101.78
4115.35
4129.13
4143.16
4157.51
4172.27
4187.48
4203.24
4219.62
4236.71
4254.57
4273.31
4293
4313.72
4335.56
4358.58
4382.82
4408.29
4435.02
4462.94
4491.96
4521.85
4552.34
4081.7
4095.34
4109.12
4123.09
4137.32
4151.87
4166.81
4182.21
4198.15
4214.7
4231.97
4250.02
4268.97
4288.88
4309.87
4332.03
4355.45
4380.2
4406.35
4433.92
4462.92
4493.32
4524.99
4557.71
4591.2
4074.82
4088.65
4102.61
4116.76
4131.16
4145.88
4160.97
4176.52
4192.59
4209.29
4226.68
4244.88
4263.96
4284.04
4305.21
4327.59
4351.28
4376.39
4403.04
4431.26
4461.12
4492.63
4525.76
4560.4
4596.35
4633.25
4067.74
4081.73
4095.85
4110.15
4124.7
4139.55
4154.78
4170.44
4186.63
4203.42
4220.91
4239.18
4258.35
4278.52
4299.8
4322.31
4346.17
4371.5
4398.45
4427.14
4457.63
4490
4524.29
4560.48
4598.51
4638.14
4678.83
4060.48
4074.6
4088.86
4103.3
4117.97
4132.94
4148.26
4164.02
4180.28
4197.14
4214.68
4233
4252.2
4272.4
4293.72
4316.27
4340.19
4365.63
4392.74
4421.67
4452.57
4485.56
4520.7
4558.08
4597.76
4639.64
4683.38
4728.41
4053.06
4067.3
4081.67
4096.22
4111
4126.06
4141.47
4157.29
4173.6
4190.49
4208.05
4226.37
4245.56
4265.74
4287.02
4309.54
4333.44
4358.88
4386.01
4415.02
4446.09
4479.43
4515.15
4553.37
4594.25
4637.88
4684.08
4732.52
4782.54
4045.48
4059.83
4074.3
4088.94
4103.8
4118.94
4134.41
4150.27
4166.61
4183.51
4201.06
4219.34
4238.48
4258.58
4279.78
4302.2
4326
4351.34
4378.38
4407.33
4438.38
4471.79
4507.78
4546.52
4588.2
4633.06
4681.11
4732.24
4786.12
4841.93
4037.78
4052.21
4066.77
4081.48
4096.41
4111.6
4127.12
4143.01
4159.36
4176.24
4193.74
4211.96
4231.01
4251
4272.06
4294.33
4317.95
4343.1
4369.95
4398.71
4429.6
4462.87
4498.81
4537.72
4579.83
4625.43
4674.72
4727.81
4784.63
4844.86
4907.47
4029.97
4044.47
4059.09
4073.87
4088.85
4104.08
4119.61
4135.52
4151.85
4168.7
4186.14
4204.28
4223.21
4243.05
4263.93
4285.98
4309.37
4334.25
4360.82
4389.28
4419.87
4452.84
4488.5
4527.21
4569.35
4615.26
4665.21
4719.52
4778.39
4841.87
4909.55
4980.17
4022.06
4036.61
4051.29
4066.12
4081.13
4096.39
4111.93
4127.83
4144.13
4160.93
4178.29
4196.32
4215.1
4234.77
4255.43
4277.24
4300.33
4324.89
4351.1
4379.17
4409.33
4441.86
4477.07
4515.32
4557.07
4602.82
4652.93
4707.77
4767.81
4833.39
4904.68
4981.24
5061.33
4014.09
4028.66
4043.38
4058.24
4073.28
4088.55
4104.1
4119.97
4136.23
4152.96
4170.22
4188.12
4206.74
4226.2
4246.63
4268.14
4290.91
4315.09
4340.88
4368.47
4398.12
4430.08
4464.68
4502.29
4543.35
4588.46
4638.2
4692.98
4753.37
4820
4893.38
4974.1
5061.19
5128.24
5130.3
4006.06
4020.64
4035.37
4050.26
4065.31
4080.59
4096.12
4111.97
4128.18
4144.82
4161.98
4179.72
4198.16
4217.39
4237.55
4258.76
4281.16
4304.93
4330.24
4357.3
4386.35
4417.65
4451.51
4488.32
4528.5
4572.65
4621.44
4675.54
4735.58
4802.29
4876.55
4959.08
5051.56
5129.63
5126.02
5176.85
5178.71
3998
4012.56
4027.3
4042.18
4057.24
4072.51
4088.03
4103.83
4119.99
4136.55
4153.58
4171.17
4189.41
4208.4
4228.26
4249.13
4271.14
4294.46
4319.26
4345.74
4374.13
4404.69
4437.72
4473.59
4512.74
4555.71
4603.21
4655.99
4714.95
4780.92
4854.88
4938.11
5019.31
5008.09
5119.75
5057.52
5110.51
5177.46
5173.07
5228.79
5230.35
3989.92
4004.46
4019.17
4034.04
4049.09
4064.34
4079.83
4095.59
4111.68
4128.15
4145.06
4162.49
4180.52
4199.26
4218.81
4239.31
4260.9
4283.74
4308.01
4333.87
4361.57
4391.33
4423.46
4458.3
4496.27
4537.91
4583.89
4634.96
4692.12
4756.49
4829.18
4911.54
4995.49
4981.15
5045.54
5165.64
5098.74
5155.16
5228.44
5223.12
5284.38
5285.57
3981.84
3996.33
4011.01
4025.84
4040.86
4056.08
4071.54
4087.26
4103.28
4119.66
4136.44
4153.7
4171.52
4190
4209.24
4229.37
4250.53
4272.86
4296.54
4321.76
4348.72
4377.66
4408.84
4442.59
4479.31
4519.49
4563.78
4612.93
4667.85
4729.81
4800.21
4880.59
4965.66
4948.79
5031.42
5015.5
5084.99
5214.45
5141.96
5202.5
5282.91
5276.51
5344.01
5344.82
3973.78
3988.2
4002.82
4017.6
4032.57
4047.75
4063.17
4078.84
4094.8
4111.08
4127.75
4144.84
4162.45
4180.67
4199.59
4219.34
4240.05
4261.86
4284.95
4309.49
4335.68
4363.75
4393.96
4426.59
4462.01
4500.67
4543.17
4590.22
4642.7
4701.77
4768.97
4846.14
4930.99
4912.02
4998.23
4979.67
5069.09
5051.33
5126.43
5266.44
5187.59
5252.82
5341.26
5333.59
5408.13
5408.49
3965.76
3980.09
3994.63
4009.34
4024.25
4039.37
4054.73
4070.34
4086.24
4102.44
4118.98
4135.93
4153.33
4171.29
4189.89
4209.25
4229.51
4250.8
4273.29
4297.14
4322.55
4349.73
4378.92
4410.4
4444.5
4481.62
4522.29
4567.16
4617.05
4673.04
4736.54
4809.46
4892.34
4871.87
4960
4939.29
5032.14
5011.63
5108.58
5088.77
5170.06
5321.92
5235.93
5306.37
5403.89
5394.75
5477.13
5477.03
3957.8
3972.02
3986.46
4001.07
4015.89
4030.94
4046.23
4061.78
4077.61
4093.73
4110.16
4126.96
4144.18
4161.88
4180.18
4199.16
4218.96
4239.72
4261.6
4284.75
4309.38
4335.68
4363.86
4394.16
4426.91
4462.47
4501.32
4544
4591.25
4644.06
4703.69
4771.87
4851.12
4830.02
4917.73
4895.51
4989.97
4967.26
5067.43
5044.75
5150.05
5127.94
5216.12
5381.2
5287.17
5363.39
5471.31
5460.45
5551.73
5551.18
3949.92
3964.01
3978.32
3992.81
4007.53
4022.48
4037.69
4053.17
4068.92
4084.96
4101.3
4117.96
4135
4152.48
4170.47
4189.09
4208.45
4228.68
4249.94
4272.4
4296.23
4321.63
4348.82
4377.98
4409.4
4443.39
4480.4
4520.93
4565.57
4615.19
4670.94
4734.3
4809
4787.98
4872.94
4850.19
4943.68
4919.49
5020.86
4995.92
5104.19
5079.04
5193.7
5168.99
5264.78
5444.7
5341.53
5424.25
5544.21
5531.29
5632.69
5631.63
3942.15
3956.08
3970.24
3984.59
3999.16
4014
4029.11
4044.5
4060.18
4076.14
4092.39
4108.93
4125.81
4143.08
4160.79
4179.06
4197.99
4217.71
4238.36
4260.12
4283.16
4307.66
4333.84
4361.89
4392.03
4424.53
4459.75
4498.13
4540.22
4586.73
4638.65
4697.27
4767.23
4746.62
4827.5
4804.98
4895
4870.41
4970.13
4943.79
5052.68
5025.23
5142.47
5114.55
5239.63
5211.96
5316.19
5512.92
5399.36
5489.41
5623.18
5607.86
5720.79
5719.09
3934.51
3948.26
3962.24
3976.41
3990.83
4005.51
4020.5
4035.78
4051.38
4067.26
4083.43
4099.88
4116.62
4133.7
4151.16
4169.09
4187.61
4206.83
4226.9
4247.97
4270.22
4293.83
4319
4345.93
4374.82
4405.91
4439.45
4475.83
4515.46
4558.95
4607.15
4661.15
4726.35
4706.32
4782.75
4760.81
4845.95
4821.79
4917.21
4890.62
4996.99
4968.33
5085.41
5055.17
5182.31
5151.28
5287.89
5256.85
5370.63
5586.41
5461.05
5559.32
5708.99
5690.97
5817.02
5814.53
3927.03
3940.57
3954.35
3968.32
3982.54
3997.05
4011.87
4027.03
4042.53
4058.33
4074.43
4090.79
4107.43
4124.34
4141.58
4159.21
4177.34
4196.08
4215.57
4235.98
4257.46
4280.19
4304.37
4330.19
4357.84
4387.54
4419.52
4454.05
4491.43
4532.14
4576.82
4626.38
4686.7
4667.69
4739.23
4717.99
4798
4774.62
4864.26
4838.31
4939.48
4910.71
5024.25
4993.03
5119.05
5085.75
5223.72
5189.23
5338.67
5303.8
5428.43
5665.85
5526.94
5634.47
5802.55
5781.39
5922.56
5919.06
3919.74
3933.04
3946.59
3960.33
3974.32
3988.61
4003.25
4018.26
4033.62
4049.34
4065.37
4081.67
4098.22
4115.01
4132.06
4149.42
4167.19
4185.48
4204.42
4224.17
4244.89
4266.76
4289.97
4314.71
4341.17
4369.53
4399.98
4432.77
4468.12
4506.34
4547.87
4593.43
4643.88
4697.25
4677.23
4751.66
4729.12
4812.87
4787.95
4882.3
4854.45
4961.7
4930.58
5051.87
5017.82
5153.57
5116.89
5266.77
5228.4
5392.22
5352.95
5489.78
5751.97
5597.31
5715.47
5904.78
5880.07
6038.83
6034.07
3912.64
3925.7
3938.99
3952.47
3966.2
3980.24
3994.65
4009.46
4024.68
4040.28
4056.24
4072.5
4088.99
4105.69
4122.6
4139.74
4157.19
4175.06
4193.48
4212.59
4232.57
4253.59
4275.84
4299.52
4324.81
4351.89
4380.92
4412.06
4445.52
4481.48
4520.26
4562.28
4608.31
4665.55
4645.86
4707.2
4686.05
4763.57
4739.69
4827.24
4800.7
4899.96
4870.08
4983.78
4950.12
5079.74
5042.61
5188.93
5148.54
5311.51
5268.82
5448.68
5404.48
5554.91
5845.72
5672.69
5803.14
6017.02
5988.14
6167.52
6161.2
3905.77
3918.56
3931.58
3944.77
3958.21
3971.97
3986.1
4000.67
4015.69
4031.16
4047.04
4063.25
4079.72
4096.38
4113.19
4130.16
4147.34
4164.83
4182.76
4201.27
4220.53
4240.72
4262.03
4284.64
4308.78
4334.61
4362.29
4391.93
4423.67
4457.6
4493.91
4532.83
4574.99
4626.97
4608.83
4673
4652.5
4716.56
4694.35
4774.82
4749.57
4841.01
4812.77
4917.17
4885.15
5005.68
4969.37
5107.91
5067.56
5225.23
5181
5358.17
5310.87
5508.35
5458.81
5624.32
5947.97
5753.79
5898.3
6140.73
6106.76
6310.55
6302.43
3899.13
3911.65
3924.38
3937.27
3950.39
3963.82
3977.63
3991.91
4006.68
4021.97
4037.74
4053.91
4070.38
4087.04
4103.82
4120.68
4137.65
4154.81
4172.29
4190.24
4208.81
4228.19
4248.56
4270.13
4293.11
4317.7
4344.06
4372.32
4402.52
4434.7
4468.86
4505.09
4543.7
4591.43
4574.83
4632.87
4614.09
4679.64
4658.32
4725.2
4701.92
4785.34
4758.68
4854.15
4824.15
4934.02
4899.83
5027.7
4988.69
5136.88
5093.27
5263.13
5215.11
5407.49
5355.62
5571.84
5516.94
5698.89
6059.8
5841.67
6002.34
6277.88
6237.8
6470.16
6460.25
3892.83
3904.98
3917.42
3929.99
3942.76
3955.83
3969.28
3983.21
3997.68
4012.72
4028.33
4044.44
4060.92
4077.64
4094.45
4111.28
4128.11
4145.01
4162.09
4179.51
4197.43
4216.03
4235.49
4256.03
4277.85
4301.19
4326.24
4353.15
4381.94
4412.61
4445.01
4479.02
4514.67
4552.29
4596.13
4578.92
4637.96
4618.52
4685.47
4663.32
4733.06
4708.69
4795.12
4767.04
4866.84
4834.98
4950.81
4914.26
5050.25
5008.26
5167.23
5120.08
5303.63
5251.49
5460.81
5404.25
5640.52
5580.56
5780.36
6183.07
5938.51
6117.66
6431.06
6383.79
6649.06
6637.22
3898.66
3910.71
3922.96
3935.37
3948.05
3961.09
3974.61
3988.7
4003.44
4018.83
4034.83
4051.32
4068.12
4085.04
4101.92
4118.71
4135.42
4152.17
4169.12
4186.42
4204.28
4222.87
4242.39
4263.06
4285.14
4308.85
4334.4
4361.84
4391.14
4422.09
4454.34
4487.63
4522.03
4564.78
4548.22
4599.94
4582.05
4642.21
4622.07
4690.42
4667.32
4740.17
4714.67
4804.17
4774.53
4879.06
4845.1
4967.63
4928.52
5073.78
5028.66
5199.91
5149.19
5348.02
5292.01
5519.84
5459.09
5716.75
5652.21
5871.78
6320.42
6048.24
6247.92
6603.01
6547.72
6849.5
6835.64
3904.37
3916.2
3928.25
3940.52
3953.11
3966.17
3979.81
3994.15
4009.23
4025.05
4041.51
4058.41
4075.5
4092.55
4109.4
4126.04
4142.54
4159.07
4175.81
4192.96
4210.72
4229.26
4248.8
4269.6
4291.93
4316.08
4342.17
4370.14
4399.72
4430.46
4461.87
4493.42
4532.33
4516.71
4566.28
4549.04
4602.76
4584.17
4645.32
4624.26
4694.09
4669.86
4746.31
4719.53
4812.32
4780.96
4890.88
4854.54
4985
4942.92
5099.25
5050.4
5236.35
5181.24
5398.41
5337.59
5587.48
5521.81
5803.92
5734.44
5977.22
6476.51
6176.23
6342.22
6381.97
6796.4
6732.49
7073.94
7058.08
3909.82
3921.43
3933.27
3945.39
3957.93
3971.06
3984.9
3999.58
4015.13
4031.48
4048.45
4065.75
4083.06
4100.12
4116.82
4133.19
4149.39
4165.62
4182.11
4199.07
4216.67
4235.13
4254.66
4275.58
4298.26
4322.91
4349.42
4377.39
4406.44
4436.06
4465.39
4493.22
4532.41
4515.95
4565.86
4547.8
4604.02
4584.57
4646.74
4624.57
4696.12
4670.54
4751.2
4722.97
4819.55
4786.2
4902.36
4863.15
5002.98
4957.21
5126.68
5073.11
5276.62
5215.8
5454.87
5387.81
5664.67
5592.29
5905.27
5786.44
5824.06
6088.65
6049.82
6463.95
6631.34
6590.73
6305.01
6264.79
6154.28
6424.22
7013.47
6727.04
6870.31
6910
7325.5
7307.4
3915.01
3926.36
3937.99
3949.98
3962.51
3975.77
3989.93
4005.08
4021.22
4038.18
4055.67
4073.31
4090.72
4107.66
4124.06
4140.04
4155.85
4171.74
4187.94
4204.66
4222.08
4240.41
4259.91
4281.04
4304.11
4328.86
4354.83
4381.66
4409.01
4436.12
4461.61
4495.8
4478.55
4530.26
4512.95
4563.17
4544.19
4603.26
4582.82
4646.08
4622.59
4696.09
4668.91
4754.6
4724.61
4825.53
4789.83
4913.08
4870.51
5021.02
4970.78
5155.37
5095.98
5319.91
5251.9
5519.91
5483.54
5446.78
5409.7
5748.71
5709.65
5553.16
5628.93
5669.75
5874.71
6011.24
5970.26
5835.2
6114.07
6551.61
6687.6
6383.62
6341.68
6224.02
6510.64
7020.75
7211.22
7178.64
6830.59
6982.72
7607.8
7339.16
7504.98
7524.69
3919.89
3930.95
3942.36
3954.24
3966.82
3980.35
3994.98
4010.77
4027.6
4045.18
4063.11
4080.95
4098.32
4115
4130.97
4146.49
4161.85
4177.35
4193.23
4209.68
4226.88
4245.04
4264.58
4285.95
4308.8
4332.53
4356.66
4381.02
4405.28
4428.42
4449.16
4489.6
4471.69
4525.73
4507.55
4557.9
4537.98
4600.08
4578.55
4642.9
4617.99
4693.64
4664.68
4756.05
4724.03
4829.83
4791.41
4922.43
4876.03
5038.33
4982.94
5184.36
5118.21
5372.46
5335.37
5297.99
5260.95
5514.64
5475.54
5436.03
5794.85
5753.28
5587.76
5667.14
5710.59
5928.58
6072.69
6029.63
5886.14
6181.5
6646.21
6789.72
6467.59
6298.12
6422.73
6602.65
7140.86
7306.56
6941.86
7101.77
7670.18
7840.24
7837.78
7477.16
7651.2
3924.44
3935.16
3946.34
3958.15
3970.92
3984.89
4000.18
4016.73
4034.25
4052.35
4070.59
4088.49
4105.67
4121.96
4137.43
4152.41
4167.29
4182.38
4197.93
4214.08
4231.01
4249.05
4268.71
4289.78
4311.26
4332.69
4353.95
4375.06
4395.5
4414.26
4444.44
4426.96
4481
4462.56
4518.62
4499.65
4549.96
4529.18
4594.24
4571.6
4637.02
4610.71
4688.64
4657.89
4755.2
4721.01
4832
4790.69
4929.87
4879.35
5054.27
4993.11
5223.97
5187.61
5151.53
5116.28
5396.5
5357.01
5317.42
5278.06
5546.51
5504.82
5462.72
5842.9
5798.44
5623.25
5706.41
5752.78
5984.97
6137.41
6091.5
5939.23
6252.64
6746.16
6898.39
6556.54
6376.08
6508.12
6699.71
7269.1
7442.93
7059.44
7228.74
7826.31
8003.21
8000.87
7622.96
7806.96
3928.58
3938.91
3949.88
3961.75
3974.91
3989.54
4005.64
4022.94
4041.06
4059.53
4077.89
4095.7
4112.58
4128.37
4143.28
4157.7
4172.1
4186.81
4202
4217.81
4234.52
4252.6
4272.06
4291.72
4310.9
4329.43
4347.56
4365.27
4381.96
4396.89
4434.37
4417.26
4470.66
4452.24
4509.1
4489.61
4539.74
4518.38
4585.77
4562.15
4628.73
4601.25
4681.45
4649.07
4752.02
4715.7
4831.84
4787.62
4934.77
4879.92
5081.64
5047.95
5014.95
4982.95
5239.01
5200.47
5162.45
5125.18
5420.68
5378.71
5336.72
5294.98
5579.07
5534.52
5489.66
5892.74
5845.04
5659.46
5746.51
5796.14
6043.59
6205.3
6156.01
5994.35
6327.21
6851.9
7013.43
6650.29
6457.76
6598.06
6802.07
7405.46
7588.38
7184.19
7363.48
7990.22
8174.19
8171.87
7778.46
7971.79
3932.22
3942.14
3952.99
3965.16
3978.98
3994.48
4011.41
4029.37
4047.88
4066.51
4084.83
4102.39
4118.86
4134.12
4148.44
4162.31
4176.26
4190.57
4205.39
4220.94
4237.7
4255.8
4274.16
4291.74
4308.11
4323.65
4338.81
4353.53
4367.39
4391.81
4378.13
4423.82
4407.31
4459.42
4441.25
4497.93
4478.3
4528.06
4506.39
4575.36
4550.99
4618.64
4590.19
4672.32
4638.62
4746.56
4708.26
4828.9
4781.85
4936.1
4876.85
5088.76
5053.24
5018.64
4985.23
5253.67
5212.89
5172.74
5133.38
5444.93
5400.34
5355.79
5311.56
5612.13
5564.54
5516.73
5944.26
5893.05
5696.2
5787.42
5840.66
6104.61
6276.15
6223.05
6051.6
6405.09
6963.56
7135.12
6748.93
6543.39
6692.57
6909.7
7550.29
7743.71
7316.23
7506.21
8161.71
8353.11
8350.59
7944.15
8144.3
3935.25
3944.78
3955.78
3968.59
3983.35
3999.8
4017.44
4035.82
4054.5
4073.12
4091.26
4108.47
4124.44
4139.12
4152.85
4166.22
4179.74
4193.67
4208.18
4223.84
4240.91
4258.43
4275.03
4290.08
4303.88
4317.34
4330.86
4344.23
4357.15
4384.22
4371.98
4413.55
4398.21
4447.75
4430.14
4485.84
4466.32
4515.48
4493.74
4563.58
4538.71
4607.21
4578.02
4661.47
4626.85
4738.66
4698.71
4822.45
4772.7
4950.61
4917.47
4855.85
4885.96
5094.97
5057.51
5021
4985.42
5267.82
5224.67
5182.22
5140.62
5469.14
5421.76
5374.49
5327.59
5645.55
5594.74
5543.79
5997.48
5942.43
5733.44
5829.05
5886.27
6167.88
6349.98
6292.62
6110.68
6486.31
7081.28
7263.54
6852.19
6633.02
6791.2
7022.82
7704.04
7908.83
7455.88
7657.35
8340.06
8540.44
8537.17
8117.94
8322.44
3937.51
3946.89
3958.46
3972.32
3988.19
4005.44
4023.56
4042.13
4060.83
4079.31
4097.14
4113.89
4129.28
4143.35
4156.51
4169.43
4182.58
4196.21
4210.85
4227.12
4244.14
4260.35
4274.9
4288.02
4300.83
4313.75
4326.79
4339.85
4357.77
4350.04
4377.95
4367.2
4404.23
4390.34
4436.25
4419.57
4473.34
4454.19
4502.57
4481.02
4550.91
4525.81
4594.84
4565.25
4649.08
4614.17
4727.84
4686.85
4827.59
4800.62
4759.08
4948.13
4913.54
4849.6
4880.68
5100.04
5060.48
5021.96
4984.46
5281.23
5235.54
5190.6
5146.6
5493.15
5442.79
5392.58
5342.78
5679.24
5624.99
5570.67
6052.19
5992.98
5771.08
5871.17
5932.67
6233.16
6426.63
6364.61
6171.44
6570.72
7205.27
7399.1
6960.35
6726.42
6894.04
7141.86
7866.78
8082.16
7603.59
7817.37
8524.94
8737.04
8732.13
8296.52
8505.28
3938.92
3948.67
3961.4
3976.6
3993.45
4011.26
4029.62
4048.24
4066.82
4085.03
4102.44
4118.62
4133.36
4146.81
4159.47
4172.02
4184.92
4198.67
4214.17
4230.89
4247.06
4261.67
4274.79
4287.38
4299.93
4312.65
4325.5
4338.6
4356.32
4349.01
4373.58
4364.42
4396.4
4384.2
4425.58
4410.2
4461.03
4442.54
4489.89
4468.78
4537.96
4512.9
4581.96
4552.32
4635.25
4600.71
4713.87
4672.73
4820.59
4793.68
4758.48
4734.01
4943.65
4907.56
4841.41
4873.45
5103.68
5061.84
5021.18
4981.7
5293.6
5245.13
5197.53
5150.99
5516.74
5463.13
5409.71
5356.77
5713.06
5655.1
5597.11
6108.35
6044.57
5808.97
5913.66
5979.73
6300.49
6505.98
6438.97
6234.16
6658.55
7335.99
7542.49
7073.93
6823.77
7001.6
7267.23
8038.28
8261.71
7760.27
7986.97
8716.94
8945.82
8938.65
8478.76
8693.76
3939.53
3950.54
3964.96
3981.44
3999
4017.14
4035.57
4054.1
4072.45
4090.27
4107.13
4122.66
4136.72
4149.58
4161.83
4174.15
4187.16
4201.89
4218.3
4234.59
4249.51
4262.89
4275.4
4287.68
4300.05
4312.55
4325.2
4341.37
4334.75
4355.43
4348.31
4371.1
4362.96
4390.63
4380.2
4416.42
4402.65
4449.49
4432.02
4477.99
4457.62
4525.21
4500.49
4568.88
4539.65
4620.63
4586.92
4712.04
4690.79
4656.76
4811.74
4784.29
4748.12
4724.35
4937.13
4899.56
4831.55
4864.36
5105.57
5061.31
5018.43
4976.95
5304.51
5253.06
5202.62
5153.41
5539.56
5482.41
5425.49
5369.13
5746.82
5684.76
5622.72
6166.23
6097.32
5846.95
5956.43
6027.42
6369.9
6588.36
6516
6298.79
6750.12
7474.32
7694.89
7193.12
6925.29
7114.06
7399.67
8218.77
8447.89
7927.38
8167.7
8919.73
9188.05
9172.59
8667.54
8893.87
3939.89
3953.11
3969.3
3986.75
4004.74
4022.98
4041.37
4059.72
4077.71
4095
4111.22
4126.04
4139.43
4151.77
4163.76
4176.18
4190.16
4206.18
4222.55
4237.85
4251.56
4264.09
4276.13
4288.15
4300.29
4312.48
4324.56
4340.75
4334.11
4354.59
4347.58
4369.56
4361.88
4387
4377.84
4409.42
4397.41
4439.39
4423.35
4467.23
4448.01
4513.01
4488.89
4555.88
4527.38
4617.96
4601.05
4572.94
4702.57
4682.01
4635.09
4653.75
4801.41
4773.77
4737.05
4713.97
4928.89
4889.91
4820.22
4853.66
5105.47
5058.83
5013.77
4970.36
5313.57
5258.98
5205.59
5153.66
5561.21
5500.16
5439.45
5379.46
5780.26
5713.62
5647.08
6225.7
6151.22
5884.84
5999.25
6075.71
6441.58
6673.97
6595.81
6365.21
6845.37
7621.4
7858.21
7318.63
7031.04
7232.25
7540.11
8410.26
8645.99
8106.76
8362.59
9148.51
9520.58
9477.87
8875.16
9126.17
3941.04
3956.81
3974.37
3992.4
4010.53
4028.73
4047.01
4065.07
4082.59
4099.24
4114.73
4128.82
4141.59
4153.57
4165.6
4178.89
4194.4
4210.74
4226.36
4240.44
4253.1
4264.96
4276.65
4288.43
4300.27
4312
4326.92
4320.71
4339.96
4333.38
4353.58
4346.69
4368.11
4360.7
4384.44
4375.96
4404.46
4393.81
4431.23
4416.8
4457.77
4439.9
4501.52
4478.3
4543.27
4515.69
4609.97
4593.23
4570.28
4555.33
4692.76
4672.74
4626.99
4644.73
4789.82
4762.26
4725.46
4703.24
4919.34
4878.99
4807.85
4841.76
5103.32
5054.52
5007.52
4962.39
5320.5
5262.78
5206.53
5152.03
5581.2
5515.94
5451.23
5387.53
5813.1
5741.25
5669.71
6286.67
6206.25
5922.19
6041.8
6124.47
6515.6
6762.79
6678.35
6433.34
6944.55
7779.03
8034.28
7451.49
7141.92
7357.09
7690.26
8618.57
8869.24
8301.7
8577.04
9439.52
9911.01
9870.83
9125.53
9426.66
3943.95
3961.61
3979.99
3998.23
4016.32
4034.42
4052.48
4070.14
4087.06
4102.99
4117.71
4131.09
4143.38
4155.27
4168
4182.89
4199.05
4214.9
4229.34
4242.25
4254.05
4265.44
4276.91
4288.44
4299.91
4311.12
4326.24
4320.05
4339.02
4332.56
4352.37
4345.62
4366.47
4359.3
4381.93
4373.96
4400.34
4390.62
4424.57
4411.51
4449.2
4432.61
4490.72
4468.53
4541
4527.36
4504.36
4602.09
4585.84
4563.31
4548.74
4682.72
4663.26
4618.75
4635.88
4777.35
4750.02
4713.72
4692.39
4908.88
4867.32
4794.87
4829.18
5099.47
5048.77
5000
4953.3
5325.21
5264.52
5205.66
5148.84
5599.11
5529.43
5460.65
5393.29
5844.7
5767.16
5690.3
6348.81
6261.76
5958.37
6083.25
6172.97
6591.83
6855.2
6763.68
6502.83
7048.16
7949.28
8225.84
7593.18
7258.57
7489.78
7852.54
8854.41
9135.81
8517.3
8819.35
9820.51
10286.7
10273.2
9441.74
9812.04
3948.48
3967.27
3985.95
4004.15
4022.12
4040.03
4057.75
4074.88
4091.1
4106.26
4120.22
4133.01
4145.03
4157.41
4171.65
4187.48
4203.4
4218.15
4231.37
4243.28
4254.47
4265.66
4276.93
4288.18
4299.25
4310.03
4325.45
4319.35
4337.96
4331.64
4350.97
4344.4
4364.62
4357.7
4379.27
4371.77
4396.26
4387.32
4418.49
4406.5
4441.07
4425.55
4480.45
4459.32
4534.62
4520.96
4490.5
4502.29
4594.21
4578.44
4556.41
4542.18
4672.55
4653.74
4610.47
4627.07
4764.41
4737.49
4702.1
4681.59
4897.81
4855.25
4781.64
4816.32
5094.27
5041.81
4991.39
4943.33
5327.78
5264.32
5203.05
5144.11
5614.7
5540.46
5467.65
5396.8
5874.49
5791.01
5708.72
6411.28
6316.76
5992.66
6122.47
6220.15
6669.89
6951.04
6851.34
6573.24
7156.36
8134.75
8437.68
7746.08
7381.84
7632.4
8029.47
9130.1
9458.42
8760.11
9097.95
10250.4
10664.2
10675.6
9828.06
10254.2
3954.28
3973.44
3992.06
4010.13
4027.91
4045.53
4062.76
4079.25
4094.72
4109.11
4122.42
4134.76
4147.04
4160.69
4176.06
4191.86
4206.84
4220.38
4232.53
4243.67
4254.63
4265.67
4276.73
4287.67
4298.36
4311.89
4318.58
4306.2
4324.57
4336.81
4330.64
4349.44
4343.07
4362.61
4355.95
4376.52
4369.45
4392.15
4383.98
4412.46
4401.47
4433.25
4418.71
4470.59
4450.5
4528.35
4515.02
4484.93
4496.76
4586.35
4571.1
4549.57
4535.67
4662.41
4644.26
4602.11
4618.26
4751.32
4725
4690.54
4670.84
4886.22
4842.94
4768.45
4803.45
5087.72
5033.69
4981.85
4932.61
5328.26
5262.16
5198.6
5137.7
5627.95
5548.99
5472.17
5397.92
5901.92
5812.35
5724.49
6473.6
6370.75
6024.26
6158.97
6265.4
6749.17
7050.44
6941.41
6643.72
7269.78
8339.62
8675.72
7912.84
7513.45
7787.91
8224.89
9454.34
9841.65
9036.66
9420.02
10705.2
11090.5
11146.6
10274.5
10746.2
3960.8
3979.8
3998.22
4016.09
4033.63
4050.84
4067.48
4083.23
4097.96
4111.66
4124.4
4136.76
4149.99
4164.83
4180.36
4195.43
4209.26
4221.71
4232.96
4243.77
4254.63
4265.51
4276.32
4286.95
4297.22
4317.73
4311.12
4305.45
4323.62
4335.58
4329.57
4347.84
4341.67
4360.51
4354.12
4373.75
4367.04
4388.23
4380.72
4406.64
4396.67
4425.95
4412.4
4468.75
4458.78
4442.18
4522.19
4509.19
4479.75
4491.33
4578.59
4563.86
4542.89
4529.31
4652.36
4634.89
4593.79
4609.46
4738.19
4712.5
4679.07
4660.11
4874.12
4830.4
4755.45
4790.64
5079.62
5024.27
4971.37
4921.2
5326.42
5257.77
5192.05
5129.33
5638.41
5554.71
5473.88
5396.2
5926.49
5830.52
5736.84
6534.76
6422.46
6052.72
6191.72
6307.21
6829.32
7153.95
7034.35
6713.36
7390.02
8568.95
8945.44
8096.63
7656.57
7958.55
8442.52
9832.68
10286
9352.56
9791.7
11242.8
11733.3
11831.9
10781.8
11324.7
3967.46
3986.15
4004.32
4021.96
4039.18
4055.88
4071.85
4086.87
4100.87
4113.95
4126.47
4139.49
4153.82
4168.97
4183.99
4198.03
4210.78
4222.26
4233.03
4243.74
4254.48
4265.18
4275.75
4286.05
4296.02
4316.85
4310.3
4304.69
4322.62
4334.3
4328.43
4346.19
4340.21
4358.35
4352.23
4370.94
4364.58
4384.52
4377.52
4401.34
4392.27
4419.16
4406.63
4464.07
4454.08
4432.44
4440.51
4516.16
4503.48
4474.75
4486.06
4571.12
4556.83
4536.51
4523.24
4642.35
4625.58
4585.78
4600.93
4725.25
4700.18
4667.86
4649.61
4861.57
4817.67
4742.77
4777.91
5069.76
5013.37
4959.81
4909.08
5321.76
5250.62
5182.88
5118.57
5645.41
5556.97
5472.11
5391
5947.8
5845.21
5745.58
6593
6469.53
6077.76
6217.69
6344.89
6910.09
7262.21
7129.48
6781.07
7519.24
8826.97
9251.47
8299.95
7812.55
8145.26
8685.92
10269.9
10793.1
9714.1
10218.3
11949.7
12820.3
12784.3
11369.4
12025.1
3973.98
3992.37
4010.29
4027.65
4044.46
4060.6
4075.85
4090.12
4103.47
4116.18
4129.1
4143.01
4157.75
4172.59
4186.73
4199.75
4211.51
4222.33
4232.98
4243.61
4254.21
4264.71
4275.02
4285.03
4297.75
4303.94
4292.4
4315.92
4309.44
4321.57
4332.97
4327.25
4344.48
4338.71
4356.16
4350.3
4368.13
4362.1
4380.93
4374.35
4396.47
4388.14
4428.53
4417.54
4411.33
4401.11
4459.43
4449.65
4436.56
4510.36
4497.95
4469.88
4480.98
4564.06
4550.13
4530.46
4517.46
4632.61
4616.51
4578.29
4592.9
4712.76
4688.26
4657.01
4639.56
4848.58
4804.84
4730.5
4765.33
5057.81
5000.68
4946.83
4896.04
5313.66
5240.13
5170.48
5104.77
5648.59
5555.25
5466.38
5381.95
5965.85
5851.47
5744.85
6641.96
6508.03
6096.61
6263.97
6381.33
6990.97
7375.84
7223.11
6849.52
7658.27
9117.93
9597.65
8524.8
7980.87
8349.06
8957.22
10768.7
11372.6
10125.1
10701.6
12818
13780.3
13760.7
12052.6
12842.1
3980.25
3998.31
4015.98
4033.03
4049.38
4064.9
4079.45
4093.06
4105.93
4118.77
4132.38
4146.71
4161.29
4175.42
4188.63
4200.66
4211.65
4222.29
4232.86
4243.38
4253.82
4264.11
4274.17
4283.93
4303.16
4297.07
4291.74
4314.96
4308.58
4320.49
4331.6
4326.04
4342.75
4337.17
4353.96
4348.35
4365.34
4359.61
4377.41
4371.22
4391.84
4384.14
4424.73
4414.18
4408.13
4395.54
4454.89
4445.37
4432.52
4504.83
4492.65
4465.09
4475.92
4557.37
4543.77
4524.53
4511.75
4623.4
4607.94
4571.23
4585.36
4700.89
4676.85
4646.7
4630.05
4834.57
4791.55
4718.59
4752.75
5043.05
4985.41
4931.74
4881.43
5301.81
5225.92
5154.39
5087.33
5644.82
5548.79
5457.58
5370.89
5984.78
5880.61
5730.88
6708.28
6511.72
6093.24
6244.21
6393.32
7071.33
7495.31
7331.37
6933.4
7805.82
9444.44
9987.61
8773.4
8161.92
8572.44
9258.02
11333.3
12034.6
10586.6
11244.3
13765.3
14594.1
14731.9
12830.6
13747.4
3986.11
4003.84
4021.26
4037.99
4053.86
4068.75
4082.66
4095.74
4108.54
4121.88
4135.86
4150.13
4164.17
4177.49
4189.75
4200.94
4211.65
4222.2
4232.67
4243.05
4253.3
4263.39
4273.26
4282.92
4302.41
4296.38
4291.1
4313.99
4307.73
4319.41
4330.22
4324.82
4340.99
4335.61
4351.74
4346.37
4362.54
4357.12
4373.88
4368.09
4387.19
4380.14
4420.92
4410.58
4404.81
4401.45
4393.06
4389.04
4450.22
4441.01
4428.35
4499.31
4487.35
4460.15
4470.77
4550.85
4537.57
4518.31
4505.82
4614.68
4599.85
4564.35
4578.02
4689.57
4665.98
4636.69
4620.8
4818.53
4776.83
4706.55
4739.45
5024.85
4967.08
4913.92
4864.38
5288.59
5210.81
5137.8
5069.84
5633.91
5539.75
5449.35
5362.63
5989.09
5861.31
5725.72
6684.93
6505.76
6087.75
6237.98
6388.08
7105.61
7629.29
7312.31
6915.98
7968.63
9808.99
10423.1
9046.38
8359.02
8811.53
9590.79
11970.9
12776.7
11101.4
11851.5
14780.1
15668
15941.9
13689.9
14730.4
3991.41
4008.82
4025.99
4042.37
4057.77
4072.11
4085.47
4098.33
4111.49
4125.16
4139.14
4153.02
4166.36
4178.8
4190.21
4201.03
4211.61
4222.07
4232.41
4242.62
4252.7
4262.63
4272.38
4281.94
4290.52
4301.65
4295.73
4313.05
4306.89
4318.35
4328.86
4323.62
4339.25
4334.07
4349.51
4344.4
4359.7
4354.6
4370.18
4364.85
4382.11
4375.85
4416.96
4406.81
4397.73
4389.73
4386.02
4445.38
4436.5
4423.98
4493.68
4481.98
4454.98
4465.29
4543.97
4531.04
4511.29
4499.25
4606.12
4591.93
4557.07
4570.27
4678.47
4655.33
4626.41
4611.14
4799.33
4759.51
4693.31
4724.34
5006.8
4947.7
4893.29
4844.18
5279.91
5201.76
5128.67
5060.83
5628.9
5534.9
5444.6
5358.01
5984.21
5855.55
5721.35
6678.79
6500.56
6083.03
6232.8
6383.31
7099.64
7615.71
7306.16
6909.64
7958.89
10225.9
10906.1
9333.69
8354.49
8813.07
9945.13
12677.7
13591.6
11673.3
12523.2
15932.1
18727.5
17613.2
14621.9
15803.5
3996.08
4013.16
4030.05
4046.08
4061.02
4074.85
4087.99
4101.14
4114.6
4128.31
4142
4155.3
4167.86
4179.48
4190.44
4201.09
4211.54
4221.86
4232.04
4242.1
4252.05
4261.86
4271.53
4281.08
4289.95
4289.46
4300.92
4295.12
4312.12
4306.09
4317.31
4327.55
4322.46
4337.56
4332.58
4347.3
4342.47
4356.8
4352.08
4366.27
4361.51
4379.45
4376.56
4371.21
4412.75
4402.76
4393.88
4386.11
4382.69
4440.18
4431.7
4419.31
4487.52
4476.17
4449.37
4459.21
4536.06
4523.58
4502.82
4491.44
4597.13
4583.59
4548.66
4561.28
4666.71
4644.43
4614.64
4600.12
4778.69
4740.15
4677.25
4706.14
4997.81
4917.49
4869.8
4822.55
5275.39
5197.4
5124.4
5056.71