/*--------------------------------*- C++ -*----------------------------------*\
  =========                 |
  \\      /  F ield         | OpenFOAM: The Open Source CFD Toolbox
   \\    /   O peration     | Website:  https://openfoam.org
    \\  /    A nd           | Version:  dev
     \\/     M anipulation  |
\*---------------------------------------------------------------------------*/
FoamFile
{
    version     2.0;
    format      ascii;
    class       volScalarField;
    location    "2500";
    object      H2O;
}
// * * * * * * * * * * * * * * * * * * * * * * * * * * * * * * * * * * * * * //

dimensions      [0 0 0 0 0 0 0];

internalField   nonuniform List<scalar> 
9842
(
1.41936e-35
4.22038e-35
2.16389e-35
7.27754e-35
8.88893e-35
1.9843e-35
9.50664e-35
1.7263e-34
7.67213e-35
8.48106e-36
1.42438e-34
3.37516e-34
2.50458e-34
5.66523e-35
2.65976e-36
1.93942e-34
4.07612e-34
5.01379e-34
1.95283e-34
4.55451e-35
9.84982e-37
1.75596e-34
7.30697e-34
8.9909e-34
4.8338e-34
1.24439e-34
1.86132e-35
7.49322e-37
4.81179e-34
8.0735e-34
1.53047e-33
1.02723e-33
4.21297e-34
9.5577e-35
9.20717e-36
3.12759e-37
9.04164e-34
1.73109e-33
3.06201e-33
2.13961e-33
1.04481e-33
3.18548e-34
5.05582e-35
3.36223e-36
1.12368e-37
1.66348e-33
5.01955e-33
6.79391e-33
4.31408e-33
2.15237e-33
7.2079e-34
2.00496e-34
1.52912e-35
1.21958e-36
3.76669e-38
1.13257e-32
2.23027e-32
1.76102e-32
1.00536e-32
4.63591e-33
2.022e-33
4.40036e-34
1.07419e-34
9.40105e-36
1.04797e-36
4.41654e-37
2.51474e-32
5.19664e-32
5.3328e-32
2.70364e-32
1.1158e-32
4.45703e-33
1.5474e-33
2.79711e-34
4.80516e-35
8.03999e-36
6.87619e-36
2.54462e-36
3.51975e-32
1.25719e-31
1.29518e-31
7.81459e-32
3.13902e-32
1.08491e-32
3.69619e-33
9.01367e-34
1.24077e-34
4.62879e-35
5.3477e-35
7.29406e-35
4.76168e-35
4.4736e-32
3.0252e-31
2.66174e-31
2.2363e-31
8.51934e-32
2.84074e-32
7.67177e-33
2.68911e-33
6.27279e-34
2.21589e-34
3.41794e-34
5.86624e-34
6.4559e-34
4.06365e-34
1.73886e-31
7.44313e-31
8.99681e-31
6.53843e-31
2.83653e-31
8.76621e-32
2.80043e-32
7.40049e-33
1.7944e-33
1.25073e-33
1.69538e-33
4.02394e-33
5.9855e-33
5.41213e-33
2.28225e-33
1.51972e-31
8.32107e-31
2.36579e-30
1.71662e-30
8.29353e-31
3.13856e-31
9.17805e-32
2.60561e-32
1.14795e-32
7.82752e-33
1.73071e-32
2.34402e-32
4.36007e-32
7.78261e-32
8.89215e-32
1.83859e-32
9.75819e-31
2.41787e-30
4.45733e-30
4.60946e-30
2.40691e-30
1.00125e-30
3.96356e-31
1.52389e-31
6.88088e-32
5.05114e-32
1.03679e-31
2.23245e-31
3.53383e-31
4.57626e-31
8.76005e-31
7.20506e-31
2.23425e-31
2.15611e-30
1.42375e-29
1.62327e-29
1.50238e-29
6.08912e-30
3.38357e-30
1.88071e-30
8.74458e-31
5.62355e-31
4.13648e-31
4.1184e-31
1.13826e-30
2.7543e-30
3.62936e-30
6.58509e-30
7.3243e-30
5.40896e-30
3.66935e-30
1.54663e-29
4.20809e-29
3.61035e-29
4.66233e-29
2.16502e-29
1.51443e-29
1.09466e-29
5.76944e-30
4.19862e-30
3.12819e-30
3.78206e-30
5.39643e-30
1.58723e-29
2.78604e-29
3.12133e-29
6.73217e-29
5.20671e-29
7.8858e-29
3.19263e-29
1.53373e-29
6.80454e-29
1.07592e-28
1.36715e-28
1.04667e-28
5.43165e-29
8.28554e-29
4.63173e-29
3.48024e-29
1.61603e-29
2.31599e-29
3.24736e-29
6.6563e-29
1.47629e-28
2.15091e-28
4.70372e-28
4.33986e-28
8.2898e-28
5.00258e-28
4.11895e-28
2.24962e-29
1.48176e-28
4.98467e-28
4.38257e-28
2.79273e-28
4.42896e-28
5.04024e-28
6.09158e-28
2.89897e-28
2.00515e-28
1.12504e-28
2.05577e-28
3.79012e-28
8.49172e-28
1.68209e-27
1.948e-27
4.64442e-27
5.32565e-27
6.3761e-27
5.11868e-27
1.63723e-27
1.34828e-28
4.53409e-28
1.47212e-27
1.30396e-27
1.38764e-27
1.91321e-27
3.16492e-27
4.8352e-27
3.18935e-27
1.81604e-27
7.47413e-28
1.0174e-27
2.00856e-27
5.16009e-27
9.21893e-27
2.00427e-26
2.02318e-26
3.65499e-26
3.43346e-26
4.86841e-26
2.64606e-26
2.16887e-26
8.56661e-28
1.06665e-27
4.02903e-27
6.39594e-27
9.63784e-27
1.03845e-26
3.0578e-26
3.95944e-26
3.00852e-26
2.67351e-26
7.91857e-27
5.13082e-27
9.63412e-27
2.77103e-26
6.05788e-26
7.60252e-26
2.15112e-25
2.54694e-25
2.33663e-25
3.63108e-25
2.93509e-25
3.19018e-25
6.94843e-26
1.26673e-27
5.27823e-27
1.01794e-26
2.8753e-26
5.15548e-26
7.54566e-26
1.48494e-25
2.4852e-25
2.36504e-25
2.03299e-25
1.15276e-25
3.55333e-26
5.19293e-26
1.55243e-25
3.84689e-25
5.6721e-25
7.97647e-25
1.56056e-24
1.1517e-24
1.65522e-24
3.18766e-24
2.50721e-24
1.54068e-24
4.33735e-25
3.99555e-27
8.99258e-27
2.93434e-26
1.18154e-25
3.11538e-25
4.73287e-25
1.0734e-24
2.0093e-24
1.60258e-24
1.40079e-24
1.18396e-24
4.48502e-25
2.90548e-25
6.21762e-25
2.38689e-24
5.59545e-24
7.33393e-24
7.82987e-24
1.05122e-23
1.57797e-23
1.97915e-23
1.84864e-23
9.89559e-24
3.58371e-24
1.00583e-24
3.7963e-27
4.50807e-26
1.26828e-25
4.24999e-25
1.85371e-24
4.09471e-24
5.11138e-24
1.41268e-23
1.25599e-23
7.84318e-24
9.41319e-24
4.03161e-24
3.06361e-24
2.26833e-24
1.14225e-23
2.69675e-23
3.18452e-23
4.32634e-23
3.036e-23
7.72022e-23
1.05398e-22
1.35238e-22
1.15444e-22
5.84111e-23
2.27196e-23
7.79753e-25
1.98667e-26
1.43415e-25
5.87568e-25
1.67019e-24
8.23606e-24
2.17072e-23
5.20484e-23
6.21165e-23
1.0375e-22
5.83573e-23
6.50889e-23
4.16449e-23
1.90501e-23
1.78455e-23
3.62624e-23
1.60413e-22
2.49291e-22
2.48942e-22
1.54001e-22
3.85141e-22
4.56119e-22
6.51366e-22
7.578e-22
4.45568e-22
1.91177e-22
2.68861e-23
9.53812e-24
6.26687e-26
4.79417e-25
2.30195e-24
8.35595e-24
3.43366e-23
1.13736e-22
2.8281e-22
3.93233e-22
6.56249e-22
3.98262e-22
4.18991e-22
3.8025e-22
1.86021e-22
9.79463e-23
1.47037e-22
5.85239e-22
9.48578e-22
2.37536e-21
1.35611e-21
1.47045e-21
2.09065e-21
3.16068e-21
3.3907e-21
3.08998e-21
1.9981e-21
4.10935e-22
1.50409e-22
1.48702e-23
2.27442e-25
1.24941e-24
1.19984e-23
4.79568e-23
1.6924e-22
5.67788e-22
1.22083e-21
2.86466e-21
4.0596e-21
3.80678e-21
2.14539e-21
1.74009e-21
1.62226e-21
7.09365e-22
7.32362e-22
1.99566e-21
7.63794e-21
1.32168e-20
7.8831e-21
6.10406e-21
6.95257e-21
9.9794e-21
1.91993e-20
1.76469e-20
1.26574e-20
7.79278e-21
9.46373e-22
6.50954e-22
3.67171e-23
6.17552e-25
4.96758e-24
3.59654e-23
2.21265e-22
7.17767e-22
2.83169e-21
7.28466e-21
9.62624e-21
2.18267e-20
2.80933e-20
1.39499e-20
1.09648e-20
1.30802e-20
6.73532e-21
2.83436e-21
7.94386e-21
2.20259e-20
6.66342e-20
5.47247e-20
2.98085e-20
3.17828e-20
5.39605e-20
6.84478e-20
6.55216e-20
5.41914e-20
4.12587e-20
1.44672e-20
2.59884e-21
7.86033e-22
4.05539e-22
3.19552e-24
2.57394e-23
1.37623e-22
5.90187e-22
4.3723e-21
1.17344e-20
3.02036e-20
6.59817e-20
9.67031e-20
1.53538e-19
1.29929e-19
8.20338e-20
7.82867e-20
4.2068e-20
2.46002e-20
4.24831e-20
1.00169e-19
2.16837e-19
2.84625e-19
1.4342e-19
1.86642e-19
2.50086e-19
2.35905e-19
1.87628e-19
1.4855e-19
1.75725e-19
8.83328e-20
2.24158e-20
1.04151e-20
5.67393e-21
2.19019e-21
1.09773e-23
1.33867e-22
6.45689e-22
2.10086e-21
1.44611e-20
6.54854e-20
1.29767e-19
3.8354e-19
5.17958e-19
7.38671e-19
8.04678e-19
4.53744e-19
4.27322e-19
2.20733e-19
1.89375e-19
1.11508e-19
4.34002e-19
8.64107e-19
7.12934e-19
9.73287e-19
4.747e-19
8.82529e-19
1.01524e-18
4.99423e-19
4.99431e-19
6.72544e-19
2.91113e-19
1.40135e-19
3.39093e-20
4.77395e-20
1.58684e-20
4.51001e-21
5.88769e-23
4.52636e-22
3.2194e-21
1.49322e-20
4.9106e-20
2.48529e-19
6.47981e-19
1.36641e-18
2.36025e-18
4.13204e-18
2.76212e-18
3.01553e-18
1.50724e-18
1.9592e-18
1.19597e-18
8.37572e-19
9.1476e-19
3.12316e-18
3.06641e-18
2.63328e-18
4.43977e-18
2.24902e-18
3.83569e-18
2.13593e-18
1.34039e-18
1.54439e-18
1.91705e-18
6.52056e-19
2.76701e-19
2.22449e-19
1.20059e-19
5.16558e-20
3.76084e-21
3.88893e-22
2.37995e-21
1.22134e-20
6.32377e-20
1.84616e-19
7.45292e-19
3.38626e-18
7.5088e-18
1.24314e-17
2.36915e-17
1.70246e-17
1.36853e-17
1.1277e-17
7.85497e-18
5.8967e-18
6.02118e-18
4.38588e-18
6.23656e-18
1.20153e-17
8.44592e-18
1.73164e-17
1.28013e-17
1.29857e-17
8.2306e-18
5.62649e-18
4.03617e-18
3.84627e-18
3.81626e-18
1.15424e-18
1.48072e-18
7.91146e-19
5.23539e-19
1.96772e-19
4.27261e-21
8.05176e-20
1.24639e-21
8.06205e-21
5.26458e-20
2.55071e-19
9.11545e-19
3.29943e-18
1.46746e-17
2.47597e-17
4.37012e-17
9.05061e-17
7.40245e-17
6.80041e-17
6.57863e-17
4.07355e-17
3.08409e-17
2.42752e-17
3.3292e-17
3.64556e-17
3.81785e-17
4.10764e-17
5.19275e-17
4.71475e-17
5.08187e-17
3.31079e-17
2.61127e-17
1.38494e-17
1.74792e-17
8.91305e-18
8.65102e-18
8.451e-18
7.51579e-18
4.54442e-18
4.99862e-18
6.9784e-19
3.412e-18
3.59532e-20
4.15083e-19
3.54176e-21
2.18374e-20
1.80756e-19
1.00883e-18
6.06498e-18
1.82823e-17
4.97613e-17
1.10715e-16
1.6392e-16
2.89124e-16
4.24703e-16
2.8002e-16
2.68656e-16
2.73955e-16
2.03895e-16
1.04594e-16
8.80135e-17
1.16363e-16
1.95992e-16
2.06899e-16
1.24618e-16
1.15493e-16
1.34541e-16
1.1007e-16
7.89225e-17
4.66631e-17
5.12196e-17
2.95426e-17
4.27752e-17
5.60616e-17
7.25431e-17
4.57414e-17
1.84132e-17
7.40183e-17
2.73472e-17
1.2831e-16
1.5613e-16
4.35289e-18
2.23157e-17
1.33027e-19
2.38411e-18
6.23737e-21
6.00306e-20
6.90046e-19
4.7924e-18
2.36818e-17
8.03784e-17
2.66636e-16
5.44852e-16
6.6331e-16
9.84933e-16
1.35879e-15
1.14827e-15
1.06946e-15
1.0506e-15
9.62388e-16
4.45716e-16
3.43868e-16
4.01293e-16
6.55302e-16
5.18362e-16
6.79325e-16
4.95795e-16
3.01359e-16
3.41037e-16
2.19335e-16
1.31263e-16
1.35797e-16
1.78354e-16
1.19597e-16
2.82834e-16
7.22028e-16
8.82704e-16
2.38384e-16
1.04009e-15
4.45042e-16
1.64611e-16
8.51793e-16
8.59043e-16
2.83185e-17
1.43131e-16
1.81051e-18
1.75931e-17
2.69527e-20
2.09596e-19
1.80804e-18
1.47852e-17
7.97036e-17
2.85138e-16
7.21494e-16
1.7633e-15
3.67727e-15
4.77882e-15
6.24057e-15
6.56245e-15
5.93315e-15
5.10965e-15
5.56123e-15
2.81347e-15
1.60691e-15
1.80403e-15
1.94135e-15
2.16944e-15
1.92421e-15
1.89113e-15
1.1619e-15
8.45948e-16
5.21658e-16
4.114e-16
3.76522e-16
4.55234e-16
6.52967e-16
1.40026e-15
4.82311e-15
1.00182e-14
4.68315e-15
2.27696e-14
2.09186e-15
1.11807e-14
3.84049e-15
1.08596e-15
5.93683e-15
7.44436e-15
1.59412e-16
9.52015e-16
8.17889e-18
9.15006e-17
2.37415e-19
5.25465e-19
4.30728e-18
4.15319e-17
2.52692e-16
9.17645e-16
3.32265e-15
7.62617e-15
1.56106e-14
2.61323e-14
3.49012e-14
3.88201e-14
3.56081e-14
3.17439e-14
3.102e-14
2.39439e-14
9.3272e-15
8.45255e-15
9.21402e-15
9.97361e-15
9.02056e-15
7.72261e-15
5.68176e-15
3.61664e-15
2.38146e-15
1.40413e-15
1.24617e-15
1.49218e-15
2.10618e-15
6.61009e-15
3.87166e-14
9.38075e-14
7.87128e-14
3.08181e-13
4.89845e-14
2.16156e-13
2.1033e-14
1.08357e-13
3.7206e-14
8.17216e-15
5.43422e-14
6.71102e-14
8.14102e-16
6.91606e-15
3.27239e-17
4.90377e-16
6.22795e-19
1.65965e-18
1.41917e-17
1.28407e-16
7.69468e-16
3.30727e-15
1.28504e-14
3.70319e-14
8.10705e-14
1.40469e-13
1.96331e-13
2.23546e-13
2.1237e-13
1.86877e-13
1.86873e-13
1.94283e-13
6.75172e-14
4.99078e-14
5.22853e-14
5.46601e-14
5.06568e-14
4.12664e-14
2.9809e-14
1.83073e-14
1.07664e-14
6.10306e-15
4.09024e-15
5.41972e-15
1.69618e-14
3.63577e-14
1.8211e-13
6.80535e-13
8.55204e-13
2.71239e-12
7.70016e-13
2.78215e-12
4.86091e-13
2.03965e-12
2.07645e-13
1.05262e-12
3.52872e-13
6.90234e-14
4.97199e-13
6.0511e-13
5.03174e-15
5.87547e-14
1.09116e-16
2.90811e-15
3.31953e-18
7.90427e-18
3.21434e-17
3.28181e-16
2.24817e-15
1.20283e-14
5.2263e-14
1.70127e-13
4.05989e-13
7.43513e-13
1.07666e-12
1.25583e-12
1.21518e-12
1.06291e-12
1.00566e-12
1.26687e-12
5.14397e-13
3.02331e-13
2.95227e-13
3.05253e-13
2.85219e-13
2.29159e-13
1.63273e-13
1.02931e-13
5.89193e-14
3.23899e-14
1.93597e-14
1.95998e-14
4.8266e-14
2.92816e-13
7.14983e-13
3.35052e-12
6.47342e-12
1.67458e-11
7.94993e-12
2.36495e-11
7.35318e-12
2.5238e-11
4.73793e-12
1.93644e-11
2.00795e-12
1.01558e-11
3.3303e-12
6.10507e-13
4.61473e-12
5.55407e-12
4.19137e-14
5.08303e-13
8.35915e-16
2.34572e-14
2.08748e-17
4.02292e-17
7.54325e-17
8.51836e-16
6.29396e-15
4.16381e-14
2.05862e-13
7.38875e-13
1.92872e-12
3.76607e-12
5.70881e-12
6.85225e-12
6.73193e-12
5.83901e-12
5.25101e-12
5.73097e-12
4.31557e-12
1.82611e-12
1.58138e-12
1.60247e-12
1.51116e-12
1.23661e-12
8.71764e-13
5.50397e-13
3.16585e-13
1.75585e-13
1.08391e-13
1.09323e-13
2.25486e-13
7.67284e-13
5.11477e-12
1.49239e-11
3.6094e-11
8.07868e-11
5.81383e-11
1.43997e-10
7.37666e-11
2.10039e-10
7.05107e-11
2.33593e-10
4.60375e-11
1.86839e-10
1.93832e-11
9.7957e-11
3.15522e-11
5.45429e-12
4.33225e-11
5.09011e-11
3.53236e-13
4.41269e-12
6.3068e-15
1.97121e-13
1.53442e-16
2.00585e-16
2.04454e-16
1.75674e-15
1.83978e-14
1.3683e-13
7.59677e-13
3.02637e-12
8.65731e-12
1.81853e-11
2.90233e-11
3.61546e-11
3.62517e-11
3.12428e-11
2.66203e-11
2.74597e-11
2.96125e-11
1.07465e-11
8.1202e-12
7.85676e-12
7.38867e-12
6.17779e-12
4.4666e-12
2.82999e-12
1.63092e-12
9.26994e-13
6.4163e-13
7.49347e-13
1.38951e-12
3.38266e-12
1.18527e-11
7.49501e-11
1.591e-10
3.22651e-10
3.21011e-10
7.38942e-10
5.28704e-10
1.28559e-09
6.93342e-10
1.91612e-09
6.80583e-10
2.20823e-09
4.46207e-10
1.80528e-09
1.86468e-10
9.4049e-10
2.98301e-10
4.82109e-11
4.03017e-10
4.5575e-10
3.01019e-12
3.76753e-11
5.09168e-14
1.6433e-12
5.79559e-16
9.60621e-16
6.65402e-16
4.0624e-15
4.758e-14
4.19549e-13
2.62534e-12
1.16249e-11
3.66349e-11
8.34377e-11
1.41092e-10
1.83414e-10
1.89237e-10
1.63718e-10
1.32323e-10
1.25428e-10
1.59013e-10
6.26025e-11
4.02499e-11
3.6481e-11
3.36942e-11
2.84017e-11
2.11062e-11
1.37001e-11
8.01505e-12
4.82416e-12
4.09344e-12
6.00707e-12
1.07882e-11
2.00443e-11
5.09976e-11
1.29534e-10
5.85855e-10
1.19434e-09
1.41395e-09
2.83968e-09
2.90347e-09
6.82318e-09
4.86303e-09
1.16299e-08
6.55712e-09
1.77493e-08
6.51355e-09
2.07706e-08
4.26896e-09
1.7071e-08
1.76741e-09
8.85956e-09
2.76027e-09
4.13795e-10
3.63569e-09
3.92007e-09
2.52584e-11
3.11692e-10
4.04297e-13
1.31718e-11
3.34446e-15
3.90807e-15
2.44842e-15
8.48027e-15
1.1826e-13
1.18328e-12
8.41011e-12
4.17007e-11
1.45421e-10
3.61307e-10
6.53458e-10
8.90003e-10
9.51078e-10
8.37069e-10
6.54584e-10
5.48357e-10
6.85913e-10
3.6824e-10
1.93948e-10
1.61569e-10
1.44606e-10
1.21865e-10
9.19847e-11
6.09652e-11
3.65658e-11
2.42426e-11
2.76177e-11
5.18159e-11
9.69835e-11
1.5421e-10
2.62064e-10
9.2594e-10
2.55928e-09
7.33486e-10
4.71059e-09
8.14806e-09
1.24403e-08
2.4794e-08
2.61575e-08
6.10674e-08
4.45962e-08
1.04758e-07
6.08083e-08
1.61811e-07
6.04611e-08
1.88768e-07
3.96488e-08
1.54897e-07
1.62009e-08
8.02626e-08
2.44998e-08
3.40113e-09
3.12153e-08
3.20799e-08
2.0203e-10
2.45625e-09
3.09037e-12
9.96416e-11
1.50549e-14
1.93561e-14
1.00231e-14
1.73968e-14
2.58753e-13
3.10427e-12
2.47569e-11
1.38619e-10
5.37728e-10
1.46592e-09
2.8585e-09
4.11352e-09
4.5717e-09
4.1318e-09
3.2129e-09
2.42162e-09
2.3677e-09
1.92029e-09
8.89452e-10
6.83271e-10
5.85919e-10
4.89352e-10
3.7306e-10
2.50252e-10
1.55164e-10
1.19025e-10
1.80767e-10
4.12863e-10
8.70153e-10
1.36423e-09
1.83069e-09
4.0427e-09
2.34308e-08
1.49568e-08
3.04434e-08
3.90971e-08
7.00245e-08
1.07766e-07
2.079e-07
2.32377e-07
5.24221e-07
3.99956e-07
9.16059e-07
5.41687e-07
1.41143e-06
5.33281e-07
1.61828e-06
3.50156e-07
1.3174e-06
1.41327e-07
6.85529e-07
2.06058e-07
2.63984e-08
2.52356e-07
2.46956e-07
1.50902e-09
1.81441e-08
2.21209e-11
6.95024e-10
5.60256e-14
9.2421e-14
4.85381e-14
3.897e-14
4.92666e-13
7.26527e-12
6.73111e-11
4.22809e-10
1.83838e-09
5.52276e-09
1.16861e-08
1.7929e-08
2.08749e-08
1.94921e-08
1.53528e-08
1.09633e-08
8.77183e-09
8.72793e-09
3.90073e-09
2.74517e-09
2.24739e-09
1.83956e-09
1.40688e-09
9.48233e-10
6.22062e-10
6.21347e-10
1.19802e-09
2.93708e-09
6.42334e-09
1.15314e-08
1.61301e-08
1.93237e-08
6.03192e-08
2.26098e-07
3.09752e-07
1.08972e-07
1.67974e-07
3.23241e-07
5.50122e-07
9.05513e-07
1.67413e-06
1.99655e-06
4.18477e-06
3.40775e-06
7.44378e-06
4.49215e-06
1.1176e-05
4.3348e-06
1.24157e-05
2.85753e-06
1.00143e-05
1.15363e-06
5.32615e-06
1.61477e-06
1.91632e-07
1.893e-06
1.7641e-06
1.0323e-08
1.23385e-07
1.43832e-10
4.3751e-09
1.77692e-13
3.56769e-13
2.54269e-13
1.11227e-13
8.92181e-13
1.43472e-11
1.67482e-10
1.18288e-09
5.75335e-09
1.91543e-08
4.41644e-08
7.2717e-08
8.95189e-08
8.69609e-08
7.01735e-08
4.96303e-08
3.42975e-08
3.33457e-08
1.64166e-08
1.05208e-08
8.19975e-09
6.51345e-09
4.9284e-09
3.29919e-09
2.41244e-09
3.43581e-09
8.80977e-09
1.98603e-08
4.12523e-08
7.83463e-08
1.30103e-07
1.81883e-07
1.44935e-07
4.20025e-07
6.88513e-07
1.66792e-06
2.22696e-06
8.49537e-07
1.24142e-06
2.5893e-06
4.14586e-06
7.15643e-06
1.20364e-05
1.54775e-05
2.84301e-05
2.55016e-05
5.10975e-05
3.20766e-05
7.36263e-05
3.00564e-05
7.86893e-05
2.00645e-05
6.28569e-05
8.42949e-06
3.46313e-05
1.11992e-05
1.29202e-06
1.25104e-05
1.11949e-05
6.39682e-08
7.68911e-07
8.34284e-10
2.44062e-08
5.29392e-13
1.02389e-12
8.31517e-13
4.13308e-13
1.46802e-12
2.67096e-11
3.54826e-10
3.01099e-09
1.6401e-08
6.04943e-08
1.52601e-07
2.71073e-07
3.5536e-07
3.6225e-07
3.02159e-07
2.16578e-07
1.41729e-07
1.09826e-07
6.6588e-08
3.88071e-08
2.86559e-08
2.19812e-08
1.60711e-08
1.05663e-08
8.70055e-09
2.05725e-08
5.86772e-08
1.34862e-07
2.46187e-07
4.73593e-07
8.46757e-07
1.33999e-06
1.90635e-06
1.3428e-06
0
2.88547e-06
4.0977e-06
1.15891e-05
1.57781e-05
6.18063e-06
8.65651e-06
1.8277e-05
2.76643e-05
4.69341e-05
7.17669e-05
9.31405e-05
0.000151082
0.000146318
0.000251853
0.000180513
0.000342926
0.000165362
0.000372601
0.000113759
0.000301853
5.07924e-05
0.000178243
6.36611e-05
7.89377e-06
6.74716e-05
5.81499e-05
3.56886e-07
4.38416e-06
4.264e-09
1.19332e-07
1.08086e-12
3.01665e-12
2.32422e-12
1.53081e-12
2.31783e-12
4.50482e-11
6.65145e-10
6.90307e-09
4.21822e-08
1.72534e-07
4.76235e-07
9.1581e-07
1.28521e-06
1.3844e-06
1.20279e-06
8.83911e-07
5.76813e-07
3.66028e-07
2.5554e-07
1.37392e-07
9.66739e-08
7.11656e-08
4.93006e-08
3.14869e-08
2.89765e-08
9.23222e-08
3.02016e-07
7.07831e-07
1.46833e-06
2.8106e-06
4.9783e-06
7.93838e-06
1.23832e-05
2.80005e-05
6.72161e-06
2.0584e-05
2.09059e-05
3.02937e-05
7.19208e-05
9.70709e-05
3.9718e-05
5.39418e-05
0.000104185
0.000146441
0.000224806
0.000310119
0.000386414
0.000537255
0.000547195
0.000776487
0.000654468
0.000970062
0.000647252
0.00105336
0.000480309
0.000966454
0.000239963
0.000665528
0.000281851
3.96735e-05
0.000283381
0.000235617
1.79406e-06
2.06012e-05
1.82281e-08
4.8927e-07
5.65298e-12
7.36128e-12
3.88243e-12
4.27521e-12
6.49381e-11
1.18307e-09
1.34028e-08
9.69689e-08
4.39406e-07
1.32745e-06
2.76781e-06
4.17867e-06
4.79124e-06
4.36785e-06
3.31686e-06
2.19974e-06
1.34861e-06
8.47805e-07
4.88294e-07
3.17348e-07
2.20305e-07
1.44182e-07
8.83586e-08
8.50027e-08
3.33194e-07
1.13494e-06
3.3479e-06
8.05122e-06
1.58744e-05
2.72916e-05
4.17841e-05
6.00574e-05
0.000107842
0.000134503
0.000230861
4.59733e-05
8.20874e-05
0.000128631
0.000177617
0.000315482
0.000389135
0.00019619
0.000252133
0.00040837
0.000513532
0.000695676
0.000855024
0.00101357
0.00124182
0.00129092
0.00160092
0.00147069
0.00186921
0.0014912
0.00199363
0.00129139
0.00191378
0.000816051
0.00157371
0.000898569
0.000157247
0.000867635
0.000706072
7.3954e-06
7.71868e-05
6.72874e-08
1.70793e-06
1.31354e-11
1.36127e-11
8.2167e-12
8.604e-11
1.80427e-09
2.3919e-08
1.97974e-07
9.95184e-07
3.27328e-06
7.4062e-06
1.21029e-05
1.49334e-05
1.44699e-05
1.14756e-05
7.81824e-06
4.8421e-06
2.85388e-06
1.70346e-06
9.97481e-07
6.48982e-07
4.05044e-07
2.38398e-07
1.90827e-07
8.71003e-07
3.57613e-06
1.287e-05
3.47465e-05
7.29761e-05
0.000122961
0.000173207
0.000221617
0.000307976
0.000393071
0.000493067
0.000452225
0.000618048
0.000241669
0.00034297
0.000471466
0.000569237
0.000833314
0.000942091
0.000620166
0.000726475
0.00101567
0.00116693
0.00145552
0.00165553
0.00188879
0.0021451
0.00223431
0.0025589
0.00244773
0.00283933
0.00248468
0.00296447
0.00228354
0.00289076
0.00177224
0.00256581
0.00186056
0.000480225
0.0018101
0.0016409
0.001033
2.45591e-05
0.00022651
1.66628e-07
3.77612e-06
2.27834e-11
2.09433e-11
9.067e-11
2.5506e-09
3.81535e-08
3.61945e-07
1.97519e-06
7.08853e-06
1.73777e-05
3.09465e-05
4.15099e-05
4.35777e-05
3.68858e-05
2.62431e-05
1.66286e-05
9.61931e-06
5.39796e-06
3.10799e-06
1.83324e-06
1.0912e-06
6.18731e-07
3.91854e-07
1.40521e-06
8.97207e-06
3.73441e-05
0.000109115
0.000232146
0.000388319
0.000528702
0.000631893
0.000741473
0.00103727
0.000756379
0.00107072
0.000962538
0.00113383
0.000682758
0.000815723
0.00105318
0.00117491
0.00155846
0.00167741
0.00130595
0.00143554
0.00184137
0.00200496
0.00237121
0.00257371
0.00283859
0.00307025
0.00316782
0.00343651
0.0033531
0.00365915
0.00338884
0.0037555
0.00320765
0.00370001
0.00273763
0.0033773
0.00306369
0.00231691
0.00277773
0.00142433
0.000651276
0.00127149
0.00216474
0.00271245
0.00273066
0.00204943
5.23848e-05
0.000940481
0.000720199
0.000265659
1.43019e-07
3.38901e-06
3.32611e-11
9.75005e-11
2.75413e-09
5.79437e-08
5.69028e-07
3.53482e-06
1.34117e-05
3.54047e-05
6.82432e-05
0.000101103
0.000116352
0.000108252
8.3217e-05
5.45239e-05
3.13988e-05
1.69105e-05
9.08727e-06
5.01389e-06
2.82917e-06
1.5368e-06
8.31905e-07
1.78598e-06
1.45091e-05
7.44557e-05
0.000228328
0.000491029
0.000773798
0.00103541
0.00126459
0.00145829
0.00169929
0.00177628
0.00196144
0.00131491
0.00153648
0.00160836
0.0017807
0.00130705
0.00145132
0.00179695
0.00192324
0.00239612
0.00250749
0.00214843
0.00227754
0.00274968
0.00289451
0.00326212
0.00342145
0.00364946
0.00380758
0.00389174
0.00405662
0.00401636
0.00418942
0.00381923
0.00396549
0.0040791
0.00418098
0.00362345
0.00385373
0.00405349
0.00416662
0.00402262
0.00342219
0.00314857
0.00350985
0.00370984
0.0031658
0.00188118
0.0016348
0.00260498
0.00309938
0.00315344
0.00247239
0.000383858
4.12896e-05
0.000186675
0.00135563
0.000993657
6.33628e-08
5.803e-05
1.1559e-05
1.16354e-06
7.85119e-11
2.82481e-09
6.75646e-08
8.57952e-07
5.54036e-06
2.27067e-05
6.28459e-05
0.000129519
0.000205472
0.000267314
0.00028252
0.000239353
0.000162278
9.52937e-05
5.10183e-05
2.60463e-05
1.3434e-05
7.10808e-06
3.66165e-06
1.82386e-06
2.16855e-06
1.74919e-05
0.000108556
0.000354931
0.000731409
0.0011593
0.00152284
0.00183649
0.00211294
0.00239358
0.00278756
0.00237447
0.00273576
0.00196497
0.00219194
0.00234451
0.00249966
0.00205659
0.00219639
0.00261679
0.00272743
0.00320882
0.0032847
0.00301434
0.00311838
0.00354661
0.0036367
0.00392653
0.00400154
0.00416428
0.00423325
0.00429937
0.00437651
0.00425451
0.00431656
0.00436241
0.00440318
0.00417829
0.00426807
0.00433475
0.00393463
0.00411089
0.00426564
0.00433419
0.00424068
0.00378382
0.00352813
0.00382907
0.00400828
0.00353786
0.00227912
0.0020304
0.00300521
0.00351744
0.00346374
0.00286251
0.000622191
0.000284777
0.00171279
0.00132938
1.86827e-06
8.31119e-09
1.39326e-07
9.06284e-05
1.95005e-05
1.53931e-09
7.22262e-08
1.00161e-06
7.8037e-06
3.33341e-05
9.8868e-05
0.000212322
0.000356238
0.000480742
0.000538809
0.000509957
0.000407755
0.000265363
0.000142603
7.21245e-05
3.51745e-05
1.77587e-05
8.43205e-06
3.97339e-06
2.90544e-06
1.77969e-05
0.000125904
0.000455882
0.000954151
0.00144312
0.00181535
0.00209558
0.0023502
0.00260635
0.0028867
0.00319765
0.00316096
0.00300964
0.00314181
0.00266862
0.00285006
0.00305785
0.00315622
0.00284253
0.00295121
0.0033523
0.00340432
0.00375526
0.00375164
0.00369785
0.00373638
0.00404295
0.00405585
0.0042835
0.00430336
0.00443474
0.00448064
0.00443837
0.00447554
0.00451473
0.00456108
0.00438351
0.00442269
0.00445782
0.00449499
0.00434021
0.00439251
0.0044314
0.00417991
0.00430392
0.00439454
0.00443324
0.00438526
0.0040632
0.00385389
0.00410025
0.00423585
0.00385921
0.00266526
0.00240373
0.00337028
0.0038392
0.00378993
0.00322811
0.000884139
0.000435755
0.00206903
0.00165469
2.71813e-06
2.70072e-09
1.02895e-07
0.000152345
3.51051e-05
4.51227e-08
1.07952e-06
8.9358e-06
4.42702e-05
0.000135439
0.000305926
0.000524524
0.000723165
0.000829433
0.000831065
0.000733478
0.000563143
0.000365666
0.000190812
9.02663e-05
4.31579e-05
1.90845e-05
8.53939e-06
4.5199e-06
1.73024e-05
0.000126437
0.000503886
0.00109859
0.00155937
0.00183397
0.00206839
0.00229985
0.00253573
0.00278125
0.00302535
0.00328963
0.00319043
0.00332898
0.00332162
0.00323682
0.0032987
0.00347875
0.00347703
0.003443
0.00346536
0.00373917
0.00371456
0.00397784
0.00391242
0.00404543
0.00402053
0.0042973
0.00427424
0.0045349
0.00455006
0.00460919
0.0046637
0.00471547
0.0047681
0.00453828
0.00459188
0.00465787
0.00473611
0.00446507
0.00450012
0.00454342
0.0046013
0.004434
0.00446488
0.00449523
0.00435375
0.00442409
0.00446258
0.00448101
0.00446103
0.00427817
0.00412262
0.00430925
0.00439372
0.00412814
0.00302974
0.00276244
0.00370181
0.00411361
0.00407331
0.00356637
0.00116639
0.000635455
0.00241493
0.00197804
3.33604e-06
9.78777e-10
6.30986e-08
0.000242335
5.16571e-05
8.15017e-07
9.68509e-06
5.05142e-05
0.000169598
0.000391975
0.000689814
0.000958822
0.00112396
0.00115758
0.00107686
0.000907373
0.000678836
0.000438376
0.000230816
0.000101617
4.3355e-05
1.83146e-05
8.09758e-06
1.59098e-05
0.000122032
0.000509734
0.00115674
0.00153946
0.00177103
0.0019432
0.00209884
0.00224913
0.00240399
0.00248818
0.00272672
0.0023876
0.00321253
0.00300286
0.00340755
0.00333884
0.00346649
0.00344565
0.00359487
0.0035444
0.00367725
0.00363715
0.00384549
0.00377225
0.00403463
0.00391773
0.00421992
0.00413667
0.00453134
0.0044761
0.00498751
0.00503585
0.00482197
0.00491296
0.00500479
0.0050959
0.00467834
0.00477668
0.00489519
0.00502766
0.00453403
0.0045896
0.00466958
0.00477927
0.00448694
0.00451715
0.00456363
0.00445448
0.00448095
0.00450105
0.00450776
0.00449345
0.00442514
0.00433002
0.0044507
0.00447964
0.00433937
0.00337256
0.00310606
0.0039971
0.00433469
0.00430925
0.00387578
0.00145075
0.000860011
0.002752
0.00229745
2.80981e-06
6.1958e-10
4.38906e-08
0.000337718
5.52663e-05
8.33922e-06
5.40381e-05
0.000190167
0.000465419
0.000830845
0.00117288
0.00138439
0.001443
0.00138554
0.00123422
0.00100704
0.000735149
0.000462088
0.000237814
9.78624e-05
3.96751e-05
1.55574e-05
1.54358e-05
0.00010867
0.000499366
0.0011459
0.00147556
0.00162185
0.00164457
0.00159931
0.00153364
0.00147487
0.00139148
0.00129481
0.00224011
0.00171267
0.00289528
0.00259305
0.00328457
0.00312154
0.00348341
0.00340066
0.00350227
0.00339121
0.00369215
0.00360223
0.00378747
0.00364413
0.00404854
0.00384801
0.00436728
0.00422287
0.0049993
0.00489438
0.00567131
0.00574211
0.00574737
0.0057643
0.00516805
0.00531096
0.0054484
0.0055724
0.0049201
0.00508877
0.00527726
0.00547687
0.00463741
0.00474735
0.00489808
0.00508869
0.00453234
0.004591
0.00469021
0.0044968
0.00450064
0.00454276
0.00455127
0.00450947
0.00450123
0.0044717
0.0045222
0.00451123
0.00448718
0.00369363
0.00343486
0.00425342
0.00449554
0.00449153
0.00415354
0.00173597
0.00107658
0.00308138
0.00261374
2.23341e-06
1.50703e-09
7.88629e-08
0.000397908
5.13451e-05
5.00935e-05
0.000200966
0.000510342
0.000943145
0.00134485
0.00157557
0.00164364
0.00160753
0.00148795
0.00129476
0.00103054
0.000729114
0.000446854
0.0002238
8.58691e-05
3.11248e-05
1.71713e-05
8.74741e-05
0.000461471
0.00111595
0.00139659
0.00146095
0.00129541
0.000981151
0.000733292
0.000637106
0.000568266
0.000482198
0.000672139
0.000315185
0.00160638
0.0011068
0.00239222
0.00202607
0.00292857
0.00269139
0.00326518
0.00311527
0.00318241
0.00301742
0.00349443
0.00334048
0.00361738
0.00338618
0.00416449
0.00385245
0.00469828
0.00445243
0.00570428
0.00561436
0.00558122
0.00626214
0.00629582
0.00620884
0.00627685
0.00567901
0.00587104
0.00603984
0.00617376
0.00531264
0.00556086
0.00582226
0.00608435
0.00483748
0.00503458
0.00527728
0.00555736
0.00461861
0.00474886
0.00493832
0.0045044
0.00450879
0.00464754
0.00467775
0.00455796
0.00452549
0.00454409
0.00454274
0.00450673
0.00456733
0.00399261
0.00375014
0.00446391
0.00459077
0.00461081
0.00439672
0.00201459
0.00126378
0.00340372
0.00292853
2.48242e-06
6.7124e-08
7.45734e-07
0.000421637
5.24519e-05
0.000193363
0.000532167
0.00101442
0.00146834
0.00168947
0.00175509
0.00173305
0.00165223
0.00150198
0.00127676
0.000990792
0.000682055
0.000398711
0.00018621
6.40437e-05
2.44136e-05
6.90284e-05
0.000394576
0.001058
0.00133248
0.00132874
0.000998633
0.000545888
0.000320254
0.000228565
0.000180798
0.000134368
5.48044e-05
0.000218121
7.51023e-05
0.000874671
0.000470741
0.00174105
0.00132719
0.00238864
0.00209418
0.00283808
0.00263268
0.00271145
0.00249062
0.00315766
0.00293211
0.00352613
0.00316756
0.00449212
0.00404322
0.00525067
0.00489136
0.00609534
0.00595614
0.00580003
0.0056029
0.00680045
0.00672912
0.00638791
0.00658096
0.00632772
0.00653365
0.00668793
0.00677901
0.00586427
0.00618398
0.00649717
0.00677858
0.00518361
0.00547729
0.00581112
0.00617249
0.00481234
0.00504517
0.00533751
0.00450676
0.00456255
0.00487694
0.0049309
0.00470025
0.0045112
0.00456616
0.00452214
0.00450369
0.00459829
0.00426906
0.0040525
0.00461714
0.00463865
0.00468288
0.00459515
0.0022988
0.00145073
0.00372554
0.00326176
5.54335e-06
5.90638e-06
1.23976e-05
0.000463074
7.19487e-05
0.000522169
0.00105022
0.00153742
0.00174455
0.00180013
0.00179339
0.00172679
0.00160449
0.00142727
0.00118774
0.000896093
0.000587666
0.000318408
0.000132339
4.18549e-05
5.88307e-05
0.000326134
0.000978884
0.00128048
0.00124281
0.000827742
0.000360677
0.000155315
7.64869e-05
4.74285e-05
3.06933e-05
1.11306e-05
6.84999e-06
2.70569e-06
4.87921e-05
1.60363e-05
0.000302376
0.000129077
0.000975925
0.000593203
0.00170674
0.00136585
0.00225802
0.00200024
0.00217362
0.00188083
0.00280718
0.00247869
0.00356224
0.00308737
0.00468256
0.0042635
0.00544349
0.00526882
0.00501212
0.00619317
0.00599715
0.00554533
0.00536821
0.00705883
0.00684011
0.00632274
0.00659677
0.00700551
0.00715993
0.00723497
0.00720545
0.00654217
0.00689261
0.00719427
0.00742122
0.00568063
0.00606514
0.00647435
0.0068809
0.00515092
0.00548886
0.00588132
0.00456086
0.00471128
0.00524649
0.00532554
0.00497028
0.00450211
0.00454461
0.00450828
0.00455298
0.00458239
0.0045174
0.00434989
0.00472163
0.00463932
0.00472047
0.00474787
0.00261906
0.00168064
0.00406056
0.00362225
2.88139e-05
9.52178e-05
0.000106495
0.00058536
0.000160712
0.00104327
0.00156492
0.00176583
0.00181145
0.0017975
0.00172894
0.00161969
0.00147472
0.00128781
0.001047
0.000759104
0.000464815
0.00022513
7.99893e-05
5.73145e-05
0.000263249
0.000883747
0.00123713
0.00119856
0.000759626
0.000316317
0.000114133
3.60349e-05
1.34193e-05
6.30113e-06
2.04971e-06
4.94083e-07
1.67427e-06
7.15417e-07
1.13498e-05
4.22093e-06
7.5096e-05
2.97966e-05
0.000357792
0.000174659
0.00094311
0.000624244
0.00158423
0.0012713
0.00173493
0.00135393
0.00261741
0.00215705
0.00376035
0.00317837
0.00454174
0.00443772
0.00418192
0.00523138
0.00510496
0.00461041