/*--------------------------------*- C++ -*----------------------------------*\
  =========                 |
  \\      /  F ield         | OpenFOAM: The Open Source CFD Toolbox
   \\    /   O peration     | Website:  https://openfoam.org
    \\  /    A nd           | Version:  dev
     \\/     M anipulation  |
\*---------------------------------------------------------------------------*/
FoamFile
{
    version     2.0;
    format      ascii;
    class       volScalarField;
    location    "2500";
    object      k;
}
// * * * * * * * * * * * * * * * * * * * * * * * * * * * * * * * * * * * * * //

dimensions      [0 2 -2 0 0 0 0];

internalField   nonuniform List<scalar> 
9842
(
0.000173832
0.000179003
0.000164763
0.000148396
0.000237152
0.000130414
0.000122478
0.000249776
0.000213585
0.000114396
0.000112219
0.000230725
0.00025591
0.000162573
0.000109704
0.0001065
0.000188363
0.000278032
0.00022346
0.000135138
0.000106795
0.000103779
0.000150295
0.000273877
0.000266117
0.00017025
0.000123774
0.000104798
0.000102282
0.000131097
0.000251865
0.000286124
0.000219448
0.000142076
0.000117143
0.000103498
0.000101416
0.000118935
0.000209873
0.000295662
0.000263169
0.000169197
0.000129462
0.000112409
0.000102609
0.00010085
0.000111744
0.000167686
0.000288613
0.000288972
0.000207267
0.000143091
0.000121855
0.000109053
0.00010197
0.000100514
0.000107364
0.000143473
0.000266534
0.000302504
0.000252603
0.000162889
0.00013067
0.000116358
0.000106696
0.000101467
0.000100288
0.00010476
0.000127639
0.000223629
0.0003076
0.000284893
0.000194114
0.000140214
0.000123145
0.000112302
0.000104945
0.000101071
0.00010005
0.00010313
0.000117881
0.000179533
0.000299208
0.000303249
0.000234167
0.000155377
0.000129237
0.000117713
0.000109232
0.000103586
0.000100758
9.97217e-05
0.000101914
0.000111989
0.000151957
0.000275855
0.000313721
0.000274285
0.00018074
0.00013617
0.000122451
0.000113593
0.000106819
0.000102515
0.000100501
9.95121e-05
0.000101063
0.000108255
0.00013495
0.00023306
0.000315622
0.000299311
0.000214555
0.000148
0.000126692
0.000117436
0.000110346
0.000104905
0.000101663
0.000100285
9.93868e-05
0.000100461
0.000105833
0.000124185
0.000189954
0.000306641
0.000312623
0.000253592
0.000167914
0.000132084
0.000120669
0.000113523
0.000107687
0.000103354
0.000100979
0.000100104
9.93501e-05
9.99916e-05
0.000104145
0.000117375
0.000160557
0.000283399
0.000321137
0.000287377
0.000196788
0.000141014
0.000123935
0.000116158
0.000110338
0.000105513
0.000102095
0.000100427
9.99591e-05
9.94562e-05
9.95387e-05
0.000102827
0.000112812
0.000142674
0.000242743
0.000321278
0.000308441
0.000231186
0.00015692
0.000127939
0.000118542
0.00011257
0.000107715
0.000103721
0.000101066
0.000100022
9.97792e-05
9.95693e-05
9.89078e-05
0.000101591
0.000109568
0.000130696
0.00020049
0.000312468
0.000318952
0.000267025
0.000180513
0.000135022
0.000120915
0.000114446
0.000109649
0.000105537
0.000102207
0.000100275
9.96599e-05
9.96818e-05
9.95882e-05
9.83381e-05
0.000100533
0.00010725
0.000122606
0.000168714
0.000289889
0.000326333
0.000296171
0.000209828
0.000147236
0.000124231
0.000116136
0.000111267
0.000107241
0.000103664
0.000100891
9.97134e-05
9.92265e-05
9.96098e-05
9.95339e-05
9.78641e-05
9.96098e-05
0.000105503
0.000117034
0.000149429
0.000251935
0.00032612
0.00031474
0.000243172
0.000165908
0.000129428
0.000118028
0.00011257
0.000108695
0.000105169
0.00010204
9.99363e-05
9.9133e-05
9.89152e-05
9.95399e-05
9.94835e-05
9.74922e-05
9.88182e-05
0.000103902
0.000113171
0.000136192
0.000211186
0.00031841
0.000324091
0.000276254
0.000190995
0.000138852
0.000120485
0.000113786
0.000109877
0.000106544
0.000103371
0.000100535
9.91963e-05
9.85199e-05
9.86967e-05
9.94711e-05
9.94385e-05
9.72476e-05
9.8167e-05
0.000102403
0.000110237
0.00012693
0.000177188
0.000298623
0.000331044
0.000302745
0.00021974
0.000153433
0.000124642
0.000115167
0.00011076
0.00010767
0.000104688
0.000101714
9.94523e-05
9.84878e-05
9.80249e-05
9.85286e-05
9.94067e-05
9.9386e-05
9.71527e-05
9.75407e-05
0.000100925
0.000107723
0.000120197
0.000156191
0.000265409
0.000332465
0.000319827
0.000251804
0.000173772
0.000131392
0.00011715
0.000111585
0.000108512
0.000105826
0.000103
0.000100161
9.85875e-05
9.77824e-05
9.76598e-05
9.83849e-05
9.93501e-05
9.93453e-05
9.70549e-05
9.67271e-05
9.94418e-05
0.000105385
0.000115021
0.000141296
0.000226027
0.000326886
0.000329983
0.000282345
0.000198867
0.000142924
0.000120141
0.000112597
0.000109057
0.000106676
0.000104179
0.0001014
9.89445e-05
9.78108e-05
9.71478e-05
9.73888e-05
9.82577e-05
9.93052e-05
9.93047e-05
9.68662e-05
9.59175e-05
9.81825e-05
0.000103255
0.000110876
0.000130313
0.00019032
0.000311154
0.000336633
0.000308246
0.000226803
0.000158744
0.000125504
0.000114093
0.000109589
0.000107241
0.000105106
0.000102658
9.98911e-05
9.80034e-05
9.7083e-05
9.66287e-05
9.7188e-05
9.81405e-05
9.92763e-05
9.92634e-05
9.66106e-05
9.5195e-05
9.70465e-05
0.000101284
0.000107503
0.000122174
0.000165282
0.000283323
0.000340156
0.000324642
0.000256966
0.000179865
0.000133789
0.000116542
0.000110316
0.000107545
0.00010576
0.00010372
0.000101214
9.85595e-05
9.71783e-05
9.63811e-05
9.624e-05
9.7034e-05
9.80379e-05
9.92614e-05
9.922e-05
9.6339e-05
9.46072e-05
9.60014e-05
9.94007e-05
0.000104622
0.000116028
0.000148198
0.000248046
0.000336955
0.000336129
0.000285409
0.000204207
0.000146603
0.000120375
0.000111544
0.000107882
0.000106107
0.000104502
0.000102428
9.9807e-05
9.75179e-05
9.642e-05
9.57553e-05
9.59634e-05
9.69108e-05
9.79638e-05
9.92678e-05
9.91765e-05
9.60666e-05
9.41337e-05
9.49808e-05
9.75561e-05
0.000102011
0.000111202
0.000135755
0.000213042
0.000326428
0.000342239
0.000311675
0.000231046
0.000163327
0.00012681
0.00011341
0.000108449
0.000106303
0.000104991
0.00010338
0.000101136
9.84307e-05
9.66374e-05
9.57317e-05
9.52458e-05
9.57855e-05
9.68114e-05
9.79182e-05
9.92889e-05
9.91341e-05
9.57855e-05
9.366e-05
9.38309e-05
9.58084e-05
9.95962e-05
0.000107217
0.000126447
0.000183134
0.000305418
0.000348163
0.000328364
0.000257532
0.000184173
0.000136477
0.000116508
0.000109414
0.000106583
0.0001052
0.000104052
0.000102301
9.98419e-05
9.7223e-05
9.58566e-05
9.50861e-05
9.48736e-05
9.56924e-05
9.67417e-05
9.79186e-05
9.93328e-05
9.90935e-05
9.5493e-05
9.31666e-05
9.2718e-05
9.42484e-05
9.74086e-05
0.000103888
0.000119368
0.000162351
0.000278359
0.000348052
0.000341222
0.00028535
0.000206512
0.000149808
0.000121444
0.000111116
0.000107102
0.000105413
0.000104387
0.000103207
0.000101213
9.85472e-05
9.62538e-05
9.51605e-05
9.45324e-05
9.46558e-05
9.56491e-05
9.67148e-05
9.79822e-05
9.94022e-05
9.90494e-05
9.51829e-05
9.26171e-05
9.17425e-05
9.28618e-05
9.54838e-05
0.000101148
0.000113999
0.000147811
0.000246641
0.000343353
0.000348585
0.000311165
0.000231036
0.000166344
0.000128671
0.000113838
0.00010808
0.000105776
0.000104643
0.000103757
0.000102352
0.000100084
9.72553e-05
9.54368e-05
9.45639e-05
9.40945e-05
9.45632e-05
9.56747e-05
9.67912e-05
9.81517e-05
9.95144e-05
9.89938e-05
9.4868e-05
9.20572e-05
9.08988e-05
9.16237e-05
9.38243e-05
9.89153e-05
0.000109969
0.000137326
0.000216918
0.000331199
0.000355739
0.000331089
0.000254928
0.000185583
0.000138899
0.000117495
0.000109858
0.000106415
0.000104993
0.000104145
0.000103147
0.000101378
9.8795e-05
9.6093e-05
9.47573e-05
9.40676e-05
9.38259e-05
9.46245e-05
9.58042e-05
9.69845e-05
9.8416e-05
9.97259e-05
9.8917e-05
9.45585e-05
9.15416e-05
9.01964e-05
9.0623e-05
9.24837e-05
9.71377e-05
0.000107129
0.000129737
0.000192407
0.000310441
0.000360923
0.000345353
0.000282228
0.000206172
0.000152356
0.000123015
0.000112089
0.000107664
0.000105532
0.000104563
0.000103741
0.000102481
0.000100364
9.76e-05
9.5245e-05
9.41875e-05
9.36818e-05
9.37674e-05
9.4861e-05
9.60778e-05
9.73436e-05
9.87611e-05
0.000100032
9.99129e-05
9.88067e-05
9.4292e-05
9.11285e-05
8.96813e-05
8.99199e-05
9.15103e-05
9.58428e-05
0.000105532
0.000124637
0.000173977
0.000285419
0.000359759
0.000357077
0.00030775
0.00022798
0.000167952
0.000131004
0.000115057
0.00010951
0.000106516
0.000105128
0.000104381
0.00010335
0.000101679
9.9207e-05
9.63757e-05
9.45413e-05
9.37672e-05
9.35067e-05
9.39782e-05
9.5316e-05
9.66494e-05
9.80381e-05
9.94457e-05
9.90297e-05
0.000100127
0.000100068
9.8687e-05
9.41279e-05
9.08881e-05
8.94118e-05
8.95074e-05
9.09026e-05
9.50508e-05
0.000104741
0.000121446
0.00016102
0.000259672
0.000354095
0.000363964
0.000332317
0.000251662
0.000184842
0.000141339
0.000119446
0.00011169
0.000108267
0.000105997
0.000105022
0.000104082
0.000102745
0.000100635
9.79112e-05
9.53907e-05
9.40463e-05
9.35684e-05
9.36178e-05
9.45834e-05
9.61847e-05
9.74303e-05
9.72769e-05
9.88124e-05
9.7819e-05
9.87963e-05
9.97465e-05
9.9485e-05
0.000100217
0.000100285
9.85914e-05
9.41191e-05
9.08969e-05
8.94381e-05
8.93896e-05
9.06498e-05
9.47476e-05
0.00010442
0.000119656
0.000152204
0.000236555
0.000341522
0.000370852
0.000349341
0.000276598
0.000204263
0.000153857
0.00012568
0.000114511
0.000110313
0.000107769
0.000105977
0.000105144
0.000104
0.000102146
9.94482e-05
9.66233e-05
9.46657e-05
9.37588e-05
9.36503e-05
9.41971e-05
9.57569e-05
9.71607e-05
9.70912e-05
9.78503e-05
9.94423e-05
9.88995e-05
9.95203e-05
0.000100177
0.000100092
0.000100321
0.000100583
9.85376e-05
9.42987e-05
9.12211e-05
8.9809e-05
8.95931e-05
9.07708e-05
9.48918e-05
0.00010457
0.000118891
0.000146206
0.000217514
0.000323007
0.000374091
0.000362596
0.000304131
0.000224987
0.000168291
0.000133794
0.000118701
0.000112869
0.000110039
0.000108002
0.000106449
0.000105143
0.000103577
0.000101094
9.79846e-05
9.5335e-05
9.40645e-05
9.3771e-05
9.42092e-05
9.55277e-05
9.70126e-05
9.70283e-05
9.79287e-05
9.80725e-05
9.91334e-05
0.000100135
9.98141e-05
0.000100369
0.000100638
0.000100683
0.000100385
0.000100839
9.8553e-05
9.47151e-05
9.1868e-05
9.05411e-05
9.02139e-05
9.13967e-05
9.56142e-05
0.000105453
0.000118834
0.000142469
0.00020273
0.000302524
0.000372674
0.00037204
0.000329478
0.000248241
0.000185099
0.000143917
0.000123988
0.000116545
0.000112628
0.000110427
0.000108241
0.00010654
0.000104734
0.000102676
9.97788e-05
9.66964e-05
9.46478e-05
9.40149e-05
9.43325e-05
9.56021e-05
9.7067e-05
9.71705e-05
9.81673e-05
9.83294e-05
9.93718e-05
9.96102e-05
0.000100291
0.000100837
0.000100997
0.000101347
0.000101028
0.000101192
0.000100435
0.000101033
9.8707e-05
9.54481e-05
9.28344e-05
9.15844e-05
9.12482e-05
9.25907e-05
9.7113e-05
0.000106773
0.000119197
0.000140465
0.000192002
0.000283754
0.000367614
0.000378343
0.000351279
0.000273178
0.000204181
0.000156321
0.000131364
0.000120672
0.00011627
0.000113233
0.000111409
0.000108834
0.000106616
0.000104483
0.000101774
9.86946e-05
9.60635e-05
9.46319e-05
9.46301e-05
9.58481e-05
9.72905e-05
9.75298e-05
9.84623e-05
9.87068e-05
9.98213e-05
0.000100087
0.000100721
0.000101077
0.000101693
0.000101541
0.000102264
0.000102395
0.000101337
0.000101623
0.000100495
0.000101196
9.90884e-05
9.65102e-05
9.41208e-05
9.28878e-05
9.27042e-05
9.4374e-05
9.9426e-05
0.000108713
0.000120664
0.000139905
0.000185228
0.000268166
0.000356722
0.000384664
0.000366256
0.000299952
0.000226031
0.000171619
0.000139849
0.0001273
0.000120535
0.000117678
0.000115527
0.000112801
0.000109494
0.000106207
0.000103411
0.00010028
9.73917e-05
9.55172e-05
9.50601e-05
9.61482e-05
9.76779e-05
9.79029e-05
9.89329e-05
9.92334e-05
0.000100387
0.000100734
0.000101433
0.000101856
0.000102303
0.00010277
0.000103136
0.000102234
0.000103497
0.000103388
0.000101579
0.000101996
0.000100562
0.000101353
9.97969e-05
9.78604e-05
9.5686e-05
9.44865e-05
9.46103e-05
9.6821e-05
0.000102503
0.000111532
0.000123187
0.000140547
0.000181908
0.000256714
0.000343937
0.000390033
0.000378571
0.000327163
0.000249708
0.000189645
0.000152065
0.000134701
0.000127386
0.00012308
0.000121114
0.000117795
0.000113315
0.000108608
0.00010491
0.000101362
9.81142e-05
9.595e-05
9.5241e-05
9.62099e-05
9.80331e-05
9.8196e-05
9.948e-05
9.97422e-05
0.000101094
0.00010148
0.000102358
0.000102874
0.000103262
0.000103848
0.000103884
0.000104452
0.000104514
0.000102907
0.00010466
0.000104363
0.000101803
0.000102366
0.000100634
0.000101503
0.000100844
9.95095e-05
9.75066e-05
9.63871e-05
9.69585e-05
9.99946e-05
0.000106351
0.00011536
0.000126643
0.000143008
0.000181086
0.000249663
0.00033255
0.000390071
0.000388716
0.000353002
0.000276024
0.000209831
0.000166323
0.000145327
0.000134668
0.000130513
0.000127633
0.000123957
0.000119307
0.000113599
0.000107821
0.000103161
9.91241e-05
9.63681e-05
9.53573e-05
9.621e-05
9.82412e-05
9.83025e-05
9.99514e-05
0.000100094
0.000101811
0.00010215
0.000103386
0.000103918
0.00010455
0.000105224
0.000105103
0.000105904
0.000105376
0.000106104
0.000105865
0.000103604
0.000105851
0.000105421
0.000102025
0.000102757
0.000100716
0.000101651
0.000102049
0.000101465
9.95789e-05
9.86166e-05
9.97488e-05
0.000103873
0.000111017
0.000120322
0.000131681
0.000148368
0.000182549
0.000246996
0.000324854
0.000388781
0.000401141
0.000374131
0.000303413
0.000231739
0.000182476
0.000157942
0.000145358
0.000137957
0.000135695
0.000132102
0.000127708
0.000122256
0.000115028
0.000107425
0.000101445
9.73682e-05
9.56432e-05
9.62574e-05
9.83e-05
9.83353e-05
0.00010024
0.00010035
0.000102418
0.000102653
0.000104371
0.000104834
0.000105888
0.000106622
0.000106845
0.000107727
0.000106995
0.000108114
0.000106863
0.000107907
0.00010731
0.000104398
0.000107179
0.000106575
0.000102251
0.000103166
0.000100796
0.000101799
0.00010317
0.000103716
0.000102019
0.000101302
0.000103093
0.000108437
0.000116654
0.000126668
0.000138628
0.000155888
0.00018841
0.000247556
0.000321816
0.000387017
0.000411953
0.000393278
0.000334402
0.000257129
0.000201603
0.000173914
0.000159082
0.000149659
0.0001458
0.000142559
0.000137566
0.000132083
0.000125009
0.000116377
0.000107593
0.000100391
9.65239e-05
9.6485e-05
9.84196e-05
9.82375e-05
0.000100428
0.000100538
0.000102878
0.000103138
0.000105208
0.000105774
0.000107333
0.000108139
0.000108735
0.000110041
0.000109427
0.000110971
0.000109161
0.000110898
0.000108556
0.000110084
0.000108952
0.000105343
0.000108715
0.000107727
0.00010246
0.000103714
0.000100863
0.000101916
0.0001038
0.000105951
0.000104893
0.000104646
0.000107215
0.000113853
0.000123498
0.000134769
0.000148002
0.000166831
0.000200285
0.000252809
0.000322203
0.000387461
0.000423494
0.000416445
0.000369581
0.000291301
0.000228226
0.000194141
0.00017544
0.000167758
0.00016301
0.000157802
0.000149882
0.000141352
0.000133165
0.000124227
0.000114557
0.000105556
9.88004e-05
9.67569e-05
9.98849e-05
0.000100649
0.000101333
0.000103355
0.000103644
0.000106298
0.000107132
0.000109153
0.000111388
0.000112068
0.000115284
0.000113689
0.000119028
0.000113819
0.000120274
0.000112522
0.000118351
0.000110709
0.000114594
0.000111007
0.000105961
0.000110577
0.000109072
0.000102648
0.000103946
0.000100899
0.000102
0.000103599
0.000107784
0.000108016
0.000108661
0.000112331
0.000120361
0.000131742
0.000145027
0.00016055
0.000182268
0.000217541
0.000268016
0.000328292
0.000392301
0.000436759
0.000442838
0.000406158
0.000334082
0.000263386
0.000222425
0.000195901
0.000188134
0.000190019
0.000183401
0.000170339
0.000154873
0.000141902
0.000130612
0.000119708
0.000109539
0.00010092
9.73327e-05
9.99693e-05
0.000105326
0.000105942
0.000104127
0.000104774
0.000108042
0.000109625
0.000113875
0.000118481
0.000121572
0.000134597
0.000130503
0.000152554
0.000135671
0.000170485
0.000133972
0.000174242
0.000125891
0.000160089
0.000116863
0.000136725
0.000118448
0.00010664
0.000118385
0.000115579
0.000102731
0.000104294
0.000100927
0.000101924
0.000102906
0.000108815
0.000111084
0.000113278
0.000118484
0.000128136
0.000141622
0.00015788
0.000177199
0.000203784
0.000242905
0.000294039
0.000348977
0.000407145
0.000454465
0.000470124
0.000445976
0.000379611
0.000306193
0.000257486
0.000223149
0.00020895
0.000218522
0.00021968
0.000206364
0.000182433
0.000158312
0.000140687
0.000126292
0.000114366
0.000104689
9.94597e-05
0.00010011
0.000106502
0.000107686
0.000117975
0.0001218
0.000111838
0.000114775
0.000124568
0.000134365
0.000151823
0.000180701
0.000195957
0.000270135
0.000245519
0.000380724
0.000271546
0.00047666
0.000254833
0.00048457
0.000203568
0.000396587
0.000149057
0.000262475
0.000158559
0.00011075
0.000160584
0.000151126
0.000102812
0.000106546
0.000100876
0.000101742
0.000103371
0.000110309
0.000113942
0.000118257
0.000125584
0.000137241
0.000153305
0.000173767
0.000199148
0.000233611
0.000280041
0.000334319
0.000389957
0.000442227
0.000489819
0.000519472
0.000506286
0.000445859
0.000360692
0.0003013
0.000257014
0.000233322
0.000241159
0.000255606
0.000255186
0.000232345
0.000194649
0.000161642
0.000139714
0.000124509
0.000114105
0.000108376
0.000110437
0.000111541
9.17638e-05
0.000126322
0.000134628
0.000185699
0.00021311
0.000147732
0.000164513
0.000220232
0.000278256
0.000374491
0.000520754
0.000603153
0.000921176
0.000841583
0.0013753
0.00096418
0.00172899
0.000856906
0.00178537
0.000605121
0.00141101
0.000322687
0.000851785
0.000364817
0.000134926
0.000368542
0.000323837
0.000103742
0.000119731
0.000100698
0.00010189
0.000109567
0.000115232
0.000118367
0.000123294
0.000133478
0.000147604
0.000167073
0.000193045
0.000227746
0.000274867
0.000334457
0.000398327
0.000460657
0.000520817
0.000576816
0.000617628
0.00062087
0.000562822
0.000461027
0.000368678
0.000308464
0.000271825
0.000266655
0.000282747
0.000301238
0.000296939
0.000259944
0.000209675
0.000172129
0.000154506
0.000150814
0.000155702
0.00017729
0.000281252
0.000150906
0.000240356
0.000251404
0.0003106
0.000576432
0.000742795
0.000355934
0.000448354
0.000718686
0.000983089
0.0013356
0.00182257
0.00205844
0.00282201
0.00267416
0.003687
0.00299711
0.00425567
0.00285173
0.00439311
0.00209248
0.0039449
0.00106599
0.00274262
0.00119063
0.000251705
0.00116239
0.000970386
0.000109064
0.000180561
0.000100574
0.000103333
0.000126258
0.000128616
0.000129688
0.000141973
0.0001592
0.000182813
0.000216343
0.000264212
0.000331318
0.000413732
0.000497956
0.000575961
0.00064734
0.000711909
0.000767504
0.000790419
0.000753839
0.000647131
0.000511308
0.000413233
0.000351716
0.000314027
0.00031254
0.000336127
0.00035991
0.000344758
0.000295898
0.000268302
0.000284899
0.000340363
0.000416688
0.00052021
0.00081162
0.00104523
0.00186351
0.000424558
0.000688755
0.0009921
0.00130551
0.00209415
0.00258424
0.00130169
0.00167144
0.00238799
0.00299284
0.00360598
0.00436904
0.0046766
0.00555311
0.00541322
0.00642184
0.00580736
0.00703416
0.00573546
0.007323
0.00496007
0.00703057
0.00321312
0.00585407
0.00344321
0.000690559
0.003294
0.00273255
0.000131688
0.000404579
0.000100682
0.00010891
0.000139485
0.000143823
0.000150759
0.00017308
0.000200138
0.000243697
0.000310053
0.000406725
0.000526658
0.000647291
0.000751367
0.000832085
0.000895406
0.000945165
0.000978971
0.000971613
0.000890159
0.000744967
0.000607342
0.00051035
0.000418798
0.000366313
0.000371906
0.000412585
0.000450608
0.000479524
0.000582428
0.000847989
0.00122133
0.00155266
0.0018168
0.00244129
0.00248649
0.00365049
0.00324003
0.00409525
0.00180557
0.00244209
0.00313525
0.00372561
0.00477301
0.00531168
0.00360282
0.0042008
0.00509665
0.0057348
0.00629338
0.00691823
0.00728355
0.0079947
0.00812925
0.00913876
0.00877479
0.0101559
0.00895726
0.0107995
0.00832672
0.0106685
0.00656652
0.00953144
0.00701376
0.00197639
0.00699432
0.00665162
0.00415357
0.000209564
0.00105082
0.000101101
0.000121722
0.00015836
0.000167695
0.000186746
0.000220851
0.000273546
0.000365801
0.000503756
0.00068226
0.000863815
0.00101506
0.00111715
0.00116408
0.00117124
0.00116496
0.00114944
0.00109918
0.000989188
0.000837906
0.000718388
0.000605344
0.000483896
0.000431993
0.000463794
0.000576908
0.000816805
0.00141384
0.0025363
0.00394129
0.00491829
0.0050604
0.00511287
0.00592961
0.00479605
0.00582137
0.00563572
0.00609786
0.00438719
0.00501013
0.00579857
0.00624184
0.00706051
0.00733097
0.00626827
0.00670608
0.0074363
0.00783817
0.00859757
0.00912828
0.0100577
0.0108588
0.0114885
0.0127698
0.0125152
0.0142722
0.0129336
0.0151551
0.0123197
0.0149936
0.0104969
0.0134932
0.0119351
0.00908323
0.0110732
0.00586714
0.00279834
0.00540992
0.00888022
0.0112449
0.0110794
0.00855755
0.000366122
0.00413827
0.00334353
0.0013227
0.000101464
0.000132202
0.00018981
0.000207014
0.00024119
0.000309607
0.000425511
0.000625739
0.000885693
0.00116663
0.00140795
0.00156839
0.0016207
0.00157116
0.0014675
0.00136264
0.00126668
0.00117383
0.00105533
0.000935416
0.000829777
0.000698015
0.000558759
0.000536234
0.00071776
0.00128478
0.00269728
0.00507501
0.00674721
0.00721869
0.006992
0.00657649
0.00656814
0.00687568
0.0068611
0.00653914
0.0067558
0.00713237
0.00725461
0.00663052
0.00692262
0.00753611
0.00768627
0.00853619
0.00864508
0.00814245
0.00836892
0.00957337
0.0099236
0.0115831
0.0122154
0.0139084
0.0148595
0.0159326
0.0174333
0.0173055
0.0192945
0.0158893
0.0171118
0.0182409
0.0194575
0.0148789
0.0163901
0.0180691
0.0191838
0.0177226
0.0139362
0.0127742
0.0145813
0.0155641
0.0130745
0.00805538
0.00720741
0.0110104
0.0132583
0.0132581
0.0106825
0.00195137
0.000362478
0.00112345
0.0061997
0.00479113
0.000100884
0.000478417
0.000197342
0.00011274
0.000236067
0.000272217
0.000336279
0.000499892
0.000758086
0.00114189
0.00156276
0.00196147
0.00225515
0.00237894
0.00230247
0.00207219
0.00180414
0.00157442
0.00137832
0.00124639
0.00113779
0.00105341
0.000959574
0.000817895
0.000681634
0.000858795
0.00178889
0.00412485
0.00694141
0.00786606
0.00793009
0.00750051
0.00709152
0.0069696
0.00757784
0.00736599
0.00762893
0.00730723
0.0073175
0.0078794
0.00790518
0.00778936
0.00784581
0.00872778
0.00880284
0.0105168
0.0106278
0.0101845
0.010377
0.0127088
0.0130307
0.0157025
0.0163059
0.0187059
0.0195284
0.0209596
0.0221425
0.02047
0.0215029
0.022291
0.0230338
0.0194035
0.020625
0.0217256
0.0170947
0.0185677
0.0204674
0.0213278
0.0199832
0.0161744
0.0148948
0.0166168
0.0177429
0.015162
0.0101065
0.00927998
0.0131035
0.015292
0.015281
0.01276
0.00328049
0.00173584
0.00813513
0.00665717
0.000119365
0.000101464
0.000107243
0.000741743
0.000273779
0.000297732
0.000379877
0.000547323
0.000923655
0.00142253
0.00205098
0.00266442
0.00317166
0.00342697
0.00337575
0.0030552
0.00259007
0.00213336
0.00176464
0.00149537
0.00133454
0.00125725
0.00121205
0.00112988
0.00099133
0.00108808
0.00223304
0.00532752
0.00792487
0.00836522
0.00790531
0.00756727
0.00744576
0.00791235
0.00899043
0.00948091
0.0103252
0.00835152
0.0088281
0.00796382
0.00809661
0.00908467
0.00924788
0.00888632
0.00897739
0.010732
0.0108371
0.0133676
0.0133827
0.0132385
0.0133393
0.0166327
0.0166106
0.0199264
0.0197009
0.0225404
0.0223128
0.0235229
0.02387
0.02396
0.0238672
0.0226794
0.0234824
0.02409
0.0244596
0.0216904
0.0227751
0.0236953
0.0192555
0.0206997
0.022559
0.0232741
0.0220539
0.0182529
0.0169476
0.0186301
0.0198102
0.0171613
0.0121931
0.0113493
0.015126
0.0172492
0.0172235
0.01479
0.00481295
0.002773
0.0101672
0.00857453
0.000143019
0.000101225
0.000107664
0.00121115
0.000454694
0.000390167
0.000616887
0.00103939
0.00176121
0.00257082
0.00347845
0.00421513
0.00461313
0.0045639
0.00422309
0.00367355
0.00303441
0.00243023
0.00194419
0.00161939
0.00146396
0.00142512
0.00141263
0.00134253
0.00139709
0.00255121
0.00611764
0.00840653
0.00843323
0.00775769
0.00753792
0.00785897
0.00905183
0.0106255
0.0125413
0.0118604
0.0128174
0.0102523
0.0109877
0.00947977
0.00979923
0.0111972
0.0114366
0.0109408
0.0110506
0.0133952
0.0134093
0.0156757
0.015331
0.0164241
0.0160612
0.0191668
0.0183788
0.0216936
0.0207104
0.0237131
0.0233655
0.0230429
0.0225769
0.0245807
0.0245251
0.0243649
0.0240942
0.0244094
0.0248492
0.0250102
0.0249712
0.0236281
0.0244927
0.0250623
0.0212775
0.0226349
0.0243148
0.0248276
0.0238422
0.0202241
0.0188931
0.0205072
0.0217176
0.0190396
0.01424
0.0134068
0.017066
0.0190816
0.0190312
0.0167478
0.0065537
0.00411554
0.012208
0.0105559
0.000164756
0.000100945
0.000106118
0.00193672
0.000688047
0.000600555
0.00121656
0.0020172
0.00316329
0.00428384
0.00529277
0.005671
0.00558679
0.00521624
0.00469973
0.00405239
0.0033484
0.00267484
0.00212684
0.00178348
0.0016527
0.00165011
0.00165396
0.00171907
0.00276375
0.00644318
0.00866278
0.00839597
0.00749337
0.00747218
0.00793758
0.0090875
0.0105839
0.0122363
0.0137185
0.0134684
0.0136617
0.0138034
0.0127323
0.013232
0.0117691
0.0121925
0.0135056
0.0135778
0.013444
0.0134666
0.0150468
0.0148143
0.0162002
0.0156648
0.0175771
0.0168409
0.019623
0.0184343
0.0217604
0.0204908
0.023756
0.023344
0.0228911
0.0224321
0.0247933
0.0244884
0.0240951
0.0236807
0.0253012
0.0252985
0.0250799
0.024672
0.0250754
0.0254582
0.0255237
0.0230747
0.0242592
0.0254419
0.0256137
0.0251548
0.0220127
0.0206778
0.0221811
0.023374
0.0207446
0.0162217
0.0154137
0.0188728
0.0207276
0.0206413
0.0185844
0.00836265
0.00565134
0.0142293
0.0125489
0.000162021
0.000100756
0.000105364
0.00280625
0.000845667
0.00120488
0.0024213
0.00361347
0.00515133
0.00619106
0.00647356
0.00623764
0.0058372
0.00531516
0.00475768
0.00415503
0.00350193
0.00284896
0.00231329
0.00200008
0.00190532
0.00192105
0.00200545
0.00290413
0.00643394
0.0087336
0.00833515
0.00736891
0.00719804
0.00773727
0.00863212
0.00974529
0.010535
0.00940751
0.0131823
0.0111178
0.014164
0.013914
0.0140208
0.0141705
0.013697
0.0138569
0.0144108
0.0143384
0.0146357
0.0145075
0.0152314
0.0148721
0.0151683
0.014367
0.0172377
0.0161272
0.0190416
0.0175503
0.0217655
0.0211701
0.0199173
0.0206549
0.0232654
0.0228639
0.0224941
0.0221286
0.0241715
0.0236768
0.0232461
0.0228897
0.0253006
0.0248021
0.0241622
0.023523
0.0256486
0.0254971
0.024957
0.0245247
0.0253223
0.0256443
0.0254226
0.0256272
0.0235285
0.022247
0.0235742
0.0246389
0.0222197
0.0181035
0.0173491
0.0204852
0.0221345
0.0220073
0.020236
0.0102368
0.00726042
0.0162088
0.0145316
0.000160816
0.00010078
0.000108481
0.00360611
0.000951847
0.00249314
0.00429324
0.00577576
0.00698546
0.00698739
0.00664803
0.00602456
0.00543398
0.00495976
0.00453025
0.00406567
0.00351659
0.00295039
0.00249377
0.00224726
0.00218879
0.00224849
0.00296591
0.00628897
0.00872509
0.00829238
0.00737255
0.00707065
0.00714795
0.00730508
0.00676624
0.00552535
0.00414248
0.00509357
0.00283567
0.0104886
0.00778531
0.0133035
0.0121552
0.0141525
0.0138975
0.0142926
0.0142496
0.0139559
0.0136737
0.0145514
0.0142468
0.0137157
0.0131469
0.0135105
0.0124537
0.0160633
0.0147082
0.0192649
0.018401
0.0172324
0.021782
0.021351
0.020135
0.0208048
0.0226139
0.0224577
0.0223194
0.0220932
0.0229824
0.0225906
0.0223361
0.0222407
0.0241895
0.023377
0.0226601
0.0221275
0.0251818
0.0243425
0.0233555
0.0253337
0.0254903
0.024649
0.0239919
0.0250165
0.0246323
0.0235215
0.0245369
0.0252229
0.0233972
0.0198231
0.0191583
0.0218519
0.0232446
0.0230797
0.0216286
0.012146
0.00885524
0.0181206
0.0165154
0.00019198
0.000104401
0.000165458
0.00428362
0.00118694
0.0045176
0.00665918
0.00747372
0.00750501
0.00681642
0.0059643
0.00530244
0.00487187
0.00453149
0.00420235
0.00385364
0.00343546
0.00299603
0.00265984
0.00249209
0.00247795
0.0029724
0.00588625
0.00867894
0.00832445
0.00746707
0.00711722
0.00663999
0.00499613
0.00312838
0.00227421
0.00159321
0.000904333
0.00199664
0.001035
0.00600543
0.0035796
0.0103829
0.00846586
0.0125003
0.0116717
0.0133811
0.0130239
0.0116612
0.0111978
0.012623
0.0121299
0.0115019
0.0106184
0.0128649
0.0116211
0.0156425
0.0141967
0.0193728
0.018591
0.0178046
0.0168812
0.0221291
0.021717
0.0202946
0.0210919
0.0222989
0.0223721
0.0223971
0.0223393
0.0217919
0.0216854
0.0217427
0.0219887
0.0224291
0.0216885
0.0211748
0.0209334
0.023557
0.0224135
0.0214234
0.0252234
0.0245375
0.0227066
0.0218898
0.0233256
0.0250225
0.0243663
0.0247733
0.0249075
0.0241509
0.0212869
0.0207649
0.0229047
0.0239313
0.023714
0.0226797
0.0141428
0.0106086
0.0199189
0.0185592
0.000458388
0.000435847
0.00109897
0.00514242
0.00199479
0.0070521
0.00822327
0.00780351
0.00696939
0.00574562
0.00487712
0.00446654
0.0043251
0.00414508
0.00388854
0.00361335
0.00331003
0.0030133
0.00280362
0.00271226
0.00300876
0.00529782
0.00855253
0.00846569
0.0077442
0.0073364
0.00655364
0.00364284
0.00164655
0.00101543
0.00071043
0.000508106
0.000493486
0.000425047
0.000818442
0.000577459
0.00228168
0.00130165
0.00582379
0.00385423
0.00905831
0.00767272
0.0106787
0.0100066
0.0082939
0.00756229
0.00979367
0.00902336
0.0103693
0.00909446
0.0130773
0.011587
0.0162051
0.0154428
0.0145282
0.0194423
0.0185762
0.0175232
0.0168602
0.022457
0.0218774
0.0201805
0.0211026
0.0222825
0.0225733
0.0227533
0.0227447
0.0209168
0.0211162
0.0215015
0.0219813
0.0206718
0.0201933
0.0200289
0.0200659
0.0214641
0.0204319
0.0196609
0.0240822
0.0226937
0.0205783
0.0198127
0.0211743
0.0245928
0.0245103
0.0243018
0.0236664
0.0242565
0.0223904
0.0220346
0.023475
0.024015
0.0237606
0.0232111
0.0163852
0.0126676
0.0215122
0.0205829
0.00186184
0.00435343
0.00484767
0.00685193
0.00424775
0.00872371
0.00837877
0.00704984
0.00556834
0.00443828
0.00388872
0.00377497
0.00385785
0.00380961
0.00360889
0.00338416
0.003178
0.00300746
0.00290225
0.00303916
0.00472571
0.00822646
0.00864681
0.0082192
0.00792034
0.00676715
0.00336067
0.00119192
0.000636883
0.000460849
0.000389225
0.000360592
0.00041332
0.000377094
0.000523035
0.000454851
0.000877638
0.000643697
0.00215506
0.00133612
0.00453888
0.00328744
0.00673484
0.00573005
0.00541781
0.00437331
0.00781344
0.00656877
0.0100755
0.00853213
0.0141638
0.0134078
0.0124757
0.0162508
0.0157107
0.0147684
0.0153942
0.0192057
0.0183003
0.0170284
0.0166088
0.0224824
0.0217364
0.0195396
0.0206956
0.0224719
0.0228615
0.0230044
0.0229077
0.0203597
0.0208329
0.0214138
0.0220183
0.0192247
0.0190909
0.0191604
0.0194792
0.0195007
0.0187135
0.0182926
0.0221672
0.0206057
0.0186931
0.0180569
0.0192103
0.0233307
0.0240472
0.0230922
0.0218089
0.0238199
0.0230026
0.0228793
0.0234795
0.023598
0.0233235
0.0232742
0.0188118
0.0152941
0.0227298
0.0223159
0.00567244
0.0153027
0.0141689
0.0105817
0.00850319
0.00890597
0.00729712
0.00550962
0.00421184
0.0035069
0.00328201
0.00335487
0.00351226
0.00351856
0.00336214
0.00318811
0.00304881
0.00295458
0.00302122
0.00424417
0.00762771
0.0087179
0.0087348
0.00901583
0.00767674
0.00367211
0.00115229
0.000554715
0.000395985
0.000346034