/*--------------------------------*- C++ -*----------------------------------*\
  =========                 |
  \\      /  F ield         | OpenFOAM: The Open Source CFD Toolbox
   \\    /   O peration     | Website:  https://openfoam.org
    \\  /    A nd           | Version:  dev
     \\/     M anipulation  |
\*---------------------------------------------------------------------------*/
FoamFile
{
    version     2.0;
    format      ascii;
    class       volScalarField;
    location    "2500";
    object      nut;
}
// * * * * * * * * * * * * * * * * * * * * * * * * * * * * * * * * * * * * * //

dimensions      [0 2 -1 0 0 0 0];

internalField   nonuniform List<scalar> 
9842
(
0.000134295
0.000137318
0.00013085
0.000123114
0.000167496
0.00011494
0.000112135
0.000175884
0.000158137
0.000108172
0.000107913
0.000167772
0.000180129
0.000134559
0.000106079
0.00010472
0.000148372
0.000192862
0.000166064
0.000121448
0.000104435
0.000103108
0.000130281
0.000191874
0.0001884
0.000141073
0.000115556
0.000103289
0.00010216
0.000121007
0.000182444
0.00019981
0.000167537
0.00012691
0.000111708
0.000102557
0.000101885
0.000114039
0.000162935
0.000206453
0.000190208
0.000143077
0.000120105
0.000108843
0.00010204
0.000101772
0.000109876
0.000141297
0.000203795
0.000204379
0.000163971
0.000129158
0.000115662
0.000106815
0.000101657
0.000101652
0.000107176
0.00013011
0.000194226
0.000212974
0.00018848
0.000141448
0.000122154
0.000112304
0.000105372
0.000101346
0.000101368
0.000105456
0.000121006
0.000172693
0.000216866
0.000205804
0.000159937
0.000128861
0.000117663
0.000109814
0.000104298
0.000101072
0.000100909
0.000104404
0.000115048
0.000149322
0.00021309
0.000216025
0.000182091
0.000139022
0.000122534
0.00011429
0.000107904
0.000103479
0.000100907
0.000100418
0.000103857
0.000111465
0.000136302
0.000201929
0.000222969
0.000203944
0.000154885
0.000127752
0.000118375
0.000111696
0.000106399
0.00010279
0.00010074
0.000100162
0.000103497
0.000109235
0.000126919
0.000179277
0.000224617
0.000217474
0.000174722
0.000136156
0.000122033
0.000115168
0.000109623
0.000105167
0.000102275
0.000100601
0.000100091
0.000103126
0.000107803
0.000120704
0.000156779
0.000220082
0.000224658
0.000196524
0.000149681
0.000126422
0.000118191
0.000112609
0.000107877
0.000104176
0.000101839
0.000100487
0.000100125
0.000102575
0.000106682
0.000116675
0.000142558
0.000208437
0.0002304
0.000214718
0.000167443
0.000133333
0.0001214
0.000115186
0.000110469
0.00010641
0.000103373
0.00010148
0.000100399
0.000100265
0.000102013
0.000105968
0.000113864
0.000133399
0.000186838
0.000230825
0.000225987
0.000187703
0.000144941
0.000125031
0.000117704
0.000112721
0.000108661
0.000105238
0.000102699
0.000101236
0.000100267
0.000100375
0.000101361
0.00010528
0.000111897
0.000126654
0.000164668
0.000226316
0.000231406
0.000207779
0.000160537
0.000130991
0.000120742
0.000114845
0.000110698
0.000107175
0.000104254
0.000102187
0.000101011
0.000100209
0.000100377
0.000100855
0.000104586
0.000110493
0.00012188
0.000148728
0.000214685
0.000236468
0.000223133
0.000178139
0.000140546
0.000123995
0.000117343
0.000112641
0.000109033
0.000105942
0.000103362
0.000101852
0.000100691
0.000100171
0.000100302
0.000100476
0.000103799
0.000109424
0.000118447
0.000139427
0.000194572
0.000236645
0.00023281
0.000197902
0.000153437
0.00012862
0.000120137
0.000114752
0.000110823
0.000107616
0.000104873
0.000102759
0.000101461
0.00010048
0.000100128
0.000100229
0.000100204
0.000103135
0.000108641
0.000116171
0.000132002
0.000172861
0.000232679
0.000237487
0.00021642
0.000169602
0.000136366
0.000122785
0.000117015
0.000112757
0.000109297
0.00010642
0.000103839
0.000102307
0.000101006
0.000100346
0.000100082
0.000100163
0.00010005
0.0001027
0.000108012
0.000114633
0.000126699
0.000154943
0.000222224
0.000242076
0.000230212
0.000186771
0.000147103
0.000126675
0.000119261
0.00011464
0.000111064
0.000107987
0.000105309
0.000103166
0.000101831
0.000100643
0.000100248
0.000100034
0.00010009
0.000100045
0.000102354
0.000107197
0.000113311
0.000122772
0.000145402
0.000204592
0.000243231
0.00023872
0.000206036
0.000160817
0.000132418
0.000121725
0.000116544
0.000112833
0.000109623
0.000106819
0.000104253
0.000102647
0.000101315
0.000100393
0.000100166
9.99924e-05
0.000100043
0.00010005
0.000101828
0.00010625
0.000112159
0.000119704
0.000137366
0.000182942
0.000240223
0.000243878
0.00022302
0.000176845
0.0001415
0.000124631
0.000118429
0.000114482
0.000111303
0.000108367
0.000105722
0.000103479
0.000102145
0.00010083
0.000100219
0.000100093
9.99638e-05
0.000100008
9.99812e-05
0.000101336
0.000105532
0.000111233
0.000117346
0.000131049
0.000163826
0.000231596
0.000247782
0.000236648
0.000193735
0.000152713
0.000129445
0.000120614
0.000116032
0.000112927
0.000109972
0.000107249
0.000104681
0.000102921
0.000101636
0.000100434
0.00010009
0.000100006
9.99343e-05
9.99781e-05
9.98725e-05
0.000100974
0.000104976
0.000110395
0.000115492
0.000126292
0.000151383
0.000216629
0.000250078
0.00024433
0.000211985
0.00016698
0.000136246
0.000123116
0.000117696
0.000114308
0.000111583
0.000108817
0.000106211
0.00010379
0.000102421
0.00010112
0.000100157
0.000100007
9.99388e-05
9.99244e-05
9.99533e-05
9.97738e-05
0.000100778
0.00010456
0.000109582
0.000113962
0.000122661
0.000143136
0.00019712
0.000248286
0.0002501
0.000227928
0.000182465
0.000145974
0.000126701
0.000119618
0.000115665
0.000113001
0.000110399
0.000107775
0.000105217
0.000103148
0.000101921
0.000100631
9.99696e-05
9.99451e-05
9.98824e-05
9.99306e-05
9.99354e-05
9.97045e-05
0.00010074
0.000104205
0.000108733
0.000112639
0.000119827
0.000136335
0.000177875
0.000242413
0.000253136
0.000242079
0.000199189
0.000157829
0.000132325
0.000121738
0.000117098
0.000114256
0.000111897
0.00010936
0.000106788
0.000104245
0.000102622
0.000101433
0.000100214
9.98495e-05
9.98802e-05
9.98347e-05
9.99422e-05
9.99222e-05
9.96672e-05
0.000100753
0.000103753
0.000107932
0.000111454
0.000117492
0.000130981
0.000161686
0.000230705
0.000256871
0.000249437
0.000215065
0.000171992
0.000140015
0.000124817
0.000118705
0.000115467
0.000113154
0.000110916
0.000108405
0.000105838
0.00010344
0.000102149
0.000100963
9.99348e-05
9.9809e-05
9.98286e-05
9.98182e-05
9.99675e-05
9.99149e-05
9.96702e-05
0.000100796
0.000103373
0.000107289
0.000110381
0.000115574
0.000126832
0.000151263
0.000216321
0.000256848
0.000255636
0.000231445
0.000186325
0.000150105
0.000129353
0.000120856
0.000116758
0.000114321
0.000112233
0.000110008
0.000107488
0.000104906
0.000102845
0.000101698
0.000100513
9.97645e-05
9.98103e-05
9.9816e-05
9.98698e-05
0.000100007
9.99127e-05
9.97177e-05
0.000100851
0.000103155
0.000106768
0.000109455
0.000114052
0.000123695
0.000144557
0.000198808
0.000254142
0.000259039
0.000245267
0.000202106
0.000161912
0.000135434
0.000123674
0.000118346
0.000115534
0.000113448
0.000111436
0.000109128
0.000106625
0.000103981
0.000102348
0.000101272
0.000100127
9.96886e-05
9.9819e-05
9.98299e-05
9.99852e-05
0.000100073
9.99143e-05
9.98245e-05
0.000100942
0.000103071
0.000106307
0.000108667
0.000112875
0.000121402
0.000139409
0.00018223
0.000247319
0.00026331
0.000254351
0.000216496
0.000175115
0.0001435
0.000127153
0.000120593
0.000116802
0.000114666
0.000112781
0.000110745
0.000108248
0.00010566
0.000103174
0.000101936
0.000100896
9.98647e-05
9.97216e-05
9.98674e-05
9.99171e-05
0.000100136
0.000100191
9.99196e-05
9.9998e-05
0.000101093
0.000103104
0.00010597
0.00010805
0.000111996
0.00011995
0.000135487
0.00016922
0.000236027
0.000266328
0.000260738
0.000233241
0.000188808
0.000153699
0.000132045
0.000122945
0.00011867
0.000115824
0.000113991
0.000112145
0.000109951
0.000107423
0.000104798
0.000102648
0.000101576
0.000100603
9.98308e-05
9.98925e-05
9.99955e-05
0.000100124
0.000100319
0.000100171
0.000100461
9.99329e-05
0.00010026
0.000101333
0.000103265
0.0001058
0.000107638
0.000111439
0.000119512
0.000132994
0.00016
0.000222822
0.000265612
0.000266566
0.000246759
0.000203031
0.000165
0.000138657
0.000125852
0.000120834
0.000117443
0.000115094
0.000113449
0.000111485
0.000109071
0.000106533
0.000103893
0.000102202
0.000101262
0.000100395
9.99721e-05
0.000100192
0.000100327
0.000100548
0.000100546
0.00010065
0.000100217
0.000100547
9.99986e-05
0.000100642
0.000101697
0.00010358
0.000105778
0.000107434
0.000111219
0.000119657
0.000131724
0.000153901
0.000209265
0.000262433
0.000269808
0.000259255
0.000217911
0.000176688
0.000146882
0.000129895
0.000123115
0.000119618
0.00011664
0.00011478
0.000112979
0.000110791
0.000108155
0.000105545
0.000103178
0.000101834
0.000100998
0.000100355
0.000100345
0.000100718
0.000100653
0.000100885
0.000100839
0.000100903
0.000101182
0.00010073
0.000100927
0.000100281
0.000100654
0.000100155
0.00010113
0.000102216
0.000104064
0.000105896
0.000107449
0.000111336
0.000120008
0.000131336
0.00015004
0.000197121
0.000255745
0.000274125
0.000266346
0.00023274
0.000190008
0.000156534
0.000135194
0.000125842
0.000121803
0.00011879
0.000116128
0.000114574
0.000112695
0.000110163
0.000107246
0.000104575
0.000102713
0.000101624
0.000100957
0.00010065
0.000101039
0.000101116
0.000101386
0.000101229
0.000101253
0.000101507
0.000101316
9.86896e-05
9.65673e-05
9.16973e-05
8.77073e-05
0.000100377
0.000101708
0.000102921
0.00010473
0.000106167
0.000107707
0.000111768
0.000120556
0.000131516
0.000147506
0.000187183
0.000246323
0.000276291
0.000272554
0.000248613
0.000203653
0.000167248
0.000141965
0.000129586
0.000124318
0.0001212
0.000118321
0.000116036
0.000114124
0.00011204
0.000109214
0.000106133
0.000103617
0.000102332
0.000101613
0.00010128
0.000101468
0.000101639
0.000101943
0.000101586
0.000101968
0.000101025
9.34934e-05
9.53522e-05
8.87978e-05
8.57087e-05
8.44729e-05
8.05489e-05
7.66604e-05
0.000100658
0.000102421
0.000103812
0.000105573
0.000106695
0.000108354
0.000112663
0.000121647
0.000132024
0.000146138
0.000179506
0.000235655
0.000275623
0.000277264
0.000261738
0.000218542
0.000179091
0.000150111
0.000133921
0.000127636
0.000123725
0.000120777
0.000117878
0.000115606
0.00011335
0.000111022
0.0001081
0.000105147
0.000103174
0.000102298
0.000101863
0.000102056
0.000102253
0.000100065
0.000101805
9.60807e-05
9.7314e-05
9.24113e-05
9.08441e-05
8.19594e-05
8.4531e-05
7.86777e-05
7.51604e-05
7.43303e-05
7.07673e-05
6.76047e-05
0.000101026
0.00010331
0.000104874
0.000106523
0.000107477
0.00010942
0.000114206
0.000122946
0.00013253
0.000145627
0.000174209
0.000226003
0.000273161
0.000280649
0.000272021
0.000233767
0.000192058
0.00015962
0.000140002
0.00013086
0.000126999
0.000123339
0.000120937
0.000117879
0.000115314
0.000112965
0.000110253
0.000107319
0.000104758
0.000103182
0.00010257
0.000102695
9.60811e-05
9.17787e-05
9.34305e-05
8.92469e-05
8.9018e-05
8.52689e-05
8.71173e-05
8.33012e-05
8.07608e-05
7.23436e-05
7.50807e-05
6.98482e-05
6.65648e-05
6.59206e-05
6.25633e-05
6.02049e-05
0.00010153
0.000104369
0.000106079
0.00010754
0.000108536
0.000110923
0.000116309
0.000124575
0.000133997
0.000145983
0.000171289
0.000218232
0.000267541
0.000284999
0.000278339
0.00024932
0.000206615
0.00017087
0.000146805
0.000136238
0.000130222
0.000127016
0.000124439
0.000121534
0.00011811
0.000114713
0.000111983
0.000109043
0.000106271
0.000104347
0.00010342
0.000101663
9.04231e-05
8.78558e-05
8.64268e-05
8.30279e-05
8.25673e-05
7.97853e-05
7.99961e-05
7.68388e-05
7.75807e-05
7.46719e-05
7.1989e-05
6.4291e-05
6.70737e-05
6.25013e-05
5.9507e-05
5.89926e-05
5.58701e-05
5.41358e-05
0.000102235
0.000105544
0.000107386
0.00010869
0.000109919
0.000112925
0.000118902
0.000126733
0.000136015
0.00014689
0.000170426
0.000212819
0.000261138
0.000288688
0.000284409
0.000264303
0.000221802
0.000183803
0.000156379
0.000142094
0.000135645
0.000131041
0.000128716
0.000125473
0.000121425
0.000116908
0.000113443
0.000110196
0.00010719
0.000105099
0.000104098
0.000102017
8.70781e-05
8.52868e-05
8.11189e-05
7.97266e-05
7.71911e-05
7.48334e-05
7.41413e-05
7.19076e-05
7.18833e-05
6.91035e-05
6.9395e-05
6.74309e-05
6.4522e-05
5.7656e-05
6.03429e-05
5.64626e-05
5.36641e-05
5.33595e-05
5.01327e-05
4.91757e-05
0.000103117
0.000106818
0.000108776
0.000109983
0.000111634
0.000115459
0.000121893
0.000129483
0.000138431
0.000149132
0.000170734
0.00020986
0.000255854
0.000288652
0.000289739
0.000277501
0.000238381
0.000198036
0.000166875
0.000150344
0.000141289
0.000136547
0.000133497
0.000129901
0.000125925
0.000121201
0.000116028
0.000111945
0.000108316
0.000105773
0.000104658
0.000104319
8.71118e-05
8.59119e-05
7.84498e-05
7.82705e-05
7.31493e-05
7.20437e-05
6.96026e-05
6.76989e-05
6.68065e-05
6.47742e-05
6.48622e-05
6.23808e-05
6.24722e-05
6.08132e-05
5.82325e-05
5.22829e-05
5.47686e-05
5.15583e-05
4.88994e-05
4.88101e-05
4.55656e-05
4.49265e-05
0.000103999
0.000108157
0.000110211
0.000111438
0.000113664
0.000118432
0.000125211
0.000132915
0.000141939
0.000153223
0.000172168
0.000209223
0.000252706
0.000288052
0.000297365
0.000287326
0.000254383
0.000212744
0.000178117
0.000159259
0.000149305
0.00014162
0.000138693
0.000135349
0.000131551
0.00012747
0.000121954
0.00011571
0.000110606
0.000106895
0.00010523
0.000105122
8.91206e-05
8.73509e-05
7.72663e-05
7.8583e-05
7.11447e-05
7.06792e-05
6.61923e-05
6.53549e-05
6.30621e-05
6.13887e-05
6.05355e-05
5.89824e-05
5.86529e-05
5.66635e-05
5.67262e-05
5.5276e-05
5.31784e-05
4.79414e-05
5.0214e-05
4.74878e-05
4.49985e-05
4.51826e-05
4.19485e-05
4.14378e-05
0.00010478
0.000109593
0.000111765
0.000113133
0.000116022
0.000121713
0.00012897
0.00013718
0.000146554
0.000158022
0.000176578
0.000209977
0.000251918
0.000287626
0.000302807
0.000296107
0.000271402
0.000228515
0.000190773
0.000169979
0.000158789
0.000149478
0.000144696
0.000141704
0.000137868
0.00013387
0.000128905
0.000122638
0.000115985
0.000109951
0.000106322
0.000105733
9.13689e-05
8.23326e-05
7.80613e-05
8.01485e-05
7.02008e-05
7.05666e-05
6.472e-05
6.42546e-05
6.00389e-05
5.96358e-05
5.75237e-05
5.61459e-05
5.54053e-05
5.43505e-05
5.35745e-05
5.22935e-05
5.20772e-05
5.07544e-05
4.92075e-05
4.45148e-05
4.63784e-05
4.39857e-05
4.18582e-05
4.21881e-05
3.93203e-05
3.86589e-05
0.000105226
0.000110946
0.000113509
0.000115219
0.000118838
0.00012538
0.000133348
0.000142412
0.000152512
0.000164789
0.000184
0.000213575
0.000252448
0.000288102
0.000308506
0.000308007
0.000289389
0.000248836
0.00020782
0.000183615
0.000169603
0.000161525
0.000155607
0.000151124
0.000145631
0.000139863
0.000134272
0.000128111
0.000121281
0.000114573
0.000108833
0.00010638
8.52606e-05
8.14016e-05
7.83625e-05
7.07094e-05
7.28653e-05
6.40119e-05
6.41197e-05
5.9173e-05
5.92311e-05
5.52043e-05
5.57058e-05
5.3481e-05
5.36974e-05
5.19157e-05
5.27286e-05
4.99846e-05
5.0703e-05
4.80843e-05
4.78263e-05
4.58521e-05
4.18418e-05
4.33203e-05
4.10905e-05
3.91444e-05
4.00052e-05
3.75463e-05
3.63175e-05
0.000105208
0.000112124
0.000115304
0.000117708
0.000122229
0.000129523
0.000138458
0.000148771
0.000160138
0.000173872
0.000193771
0.000222677
0.000256268
0.000290971
0.000315209
0.000321395
0.000306915
0.00027234
0.000229631
0.000201837
0.000183145
0.000174187
0.000172014
0.000166913
0.000158262
0.000148396
0.000139742
0.000132227
0.000124902
0.000117644
0.000110815
0.000107042
8.89977e-05
7.4588e-05
7.39634e-05
7.1528e-05
7.41077e-05
6.50377e-05
6.65953e-05
5.97947e-05
6.19009e-05
5.75848e-05
6.23368e-05
5.64449e-05
6.4214e-05
5.67853e-05
6.81648e-05
5.53425e-05
6.77524e-05
5.13965e-05
6.25051e-05
4.5789e-05
5.29486e-05
4.42942e-05
3.94829e-05
4.21664e-05
3.98058e-05
3.74396e-05
3.84615e-05
3.63756e-05
3.45085e-05
0.000105013
0.000112913
0.000117062
0.000120594
0.000126152
0.000134225
0.000144411
0.00015641
0.000169789
0.000185884
0.000207526
0.000236462
0.000267805
0.000298649
0.00032309
0.000333078
0.000324233
0.000293856
0.000253311
0.000223171
0.000199178
0.000186392
0.000187787
0.000186729
0.000178205
0.000164156
0.000149252
0.000137984
0.000128648
0.000120323
0.000113072
0.000107904
9.29966e-05
7.85729e-05
7.73487e-05
7.26533e-05
7.50447e-05
6.77366e-05
6.94755e-05
6.52276e-05
7.12695e-05
6.96775e-05
8.48179e-05
8.34983e-05
8.92543e-05
8.61671e-05
9.18187e-05
8.46311e-05
9.43936e-05
8.46629e-05
9.14153e-05
7.58195e-05
8.73013e-05
5.48898e-05
8.1691e-05
5.62256e-05
3.82685e-05
5.36529e-05
4.83352e-05
3.66067e-05
3.74787e-05
3.60009e-05
3.3967e-05
0.000105488
0.000113993
0.000118832
0.00012369
0.000130454
0.000139471
0.000151169
0.000165425
0.000181853
0.000201566
0.00022633
0.000256145
0.000286802
0.000314024
0.000337254
0.000351278
0.000348351
0.00032284
0.000280098
0.00024689
0.000217176
0.000198541
0.000199642
0.000203242
0.000200603
0.000187411
0.000167468
0.000148499
0.000135015
0.000124115
0.000114868
0.000106794
9.99717e-05
7.95339e-05
5.69802e-05
8.28057e-05
8.5845e-05
8.56058e-05
8.29941e-05
8.04527e-05
8.92657e-05
8.77646e-05
8.84188e-05
9.37161e-05
0.000102052
0.000105586
0.000124819
0.000116843
0.00014684
0.000119015
0.000160597
0.000107399
0.000157767
9.42727e-05
0.000131731
8.1903e-05
0.000102478
8.18932e-05
4.21384e-05
8.0224e-05
7.61184e-05
3.64477e-05
3.80366e-05
3.67701e-05
3.52346e-05
0.000109452
0.000117442
0.000122029
0.000126959
0.00013507
0.000145224
0.000158778
0.000175825
0.000196648
0.000221715
0.000251421
0.000283844
0.000314754
0.000343943
0.000369249
0.000387845
0.00039309
0.000372186
0.000326872
0.000279798
0.000242332
0.000216116
0.00021192
0.000214518
0.000217418
0.000211481
0.000192233
0.000167851
0.000144352
0.000127141
0.000113089
0.00010198
9.34732e-05
8.86246e-05
8.315e-05
7.88728e-05
7.97223e-05
7.91369e-05
0.000101588
0.000110239
9.15597e-05
9.50125e-05
0.000113584
0.000129177
0.000148388
0.000173768
0.000182225
0.000220607
0.000208235
0.00025749
0.000217808
0.000278714
0.000204624
0.000278173
0.000161395
0.000250868
0.000108549
0.000188281
0.000111494
7.17244e-05
0.000108707
9.97306e-05
3.68676e-05
5.58585e-05
3.84636e-05
3.71382e-05
0.000124111
0.000129052
0.000131261
0.000139985
0.000151488
0.000167092
0.000187741
0.000214254
0.000246885
0.000283591
0.000320018
0.000351667
0.000379345
0.000404958
0.000430331
0.000446729
0.000442045
0.000405352
0.000345637
0.000292837
0.000254701
0.000231338
0.000218363
0.000228271
0.000229888
0.000215224
0.000183817
0.000155334
0.000134803
0.000126869
0.000124788
0.000118331
0.000117645
0.000125845
0.000182847
8.44046e-05
0.000100677
0.000124481
0.000140824
0.000187902
0.000214177
0.000146517
0.000165904
0.000202712
0.000233412
0.000260177
0.000299712
0.000306924
0.000351669
0.000334758
0.000384851
0.000345456
0.000403773
0.000334277
0.000405763
0.000292141
0.000383102
0.000206137
0.000325045
0.00021256
8.8762e-05
0.000200945
0.000170566
4.40183e-05
7.545e-05
4.29539e-05
4.43598e-05
0.000134981
0.000140289
0.000145186
0.000158719
0.000175829
0.000200926
0.00023486
0.000277054
0.000322747
0.000363128
0.000391838
0.000410648
0.000428286
0.0004505
0.000475599
0.000492452
0.000481612
0.00043665
0.000379408
0.000329893
0.000277706
0.000239093
0.000236493
0.000243138
0.000236009
0.000206798
0.000182206
0.000178968
0.000187153
0.000194735
0.000204919
0.000236521
0.000225565
0.000297241
0.000259059
0.000315355
0.000170491
0.000208836
0.000244944
0.000279427
0.000331315
0.000363454
0.000265893
0.000298708
0.000338456
0.00037381
0.000390446
0.000424673
0.000428408
0.000464902
0.000454353
0.000498409
0.000466751
0.0005195
0.00045983
0.000524662
0.000424232
0.000505951
0.000346428
0.000455816
0.000355102
0.000137956
0.000344719
0.000323935
0.00023178
6.46504e-05
9.89399e-05
6.31227e-05
7.07306e-05
0.000147921
0.000155154
0.000165719
0.000185711
0.000214473
0.000257843
0.000311522
0.000368271
0.000412746
0.000436776
0.000444963
0.000447091
0.000452324
0.000467933
0.000491128
0.000506766
0.000496351
0.000455078
0.000408726
0.000355638
0.00029205
0.000258395
0.0002574
0.000257199
0.000248315
0.00025911
0.000309904
0.000393894
0.000450605
0.000443811
0.000428728
0.000461125
0.000363214
0.000434486
0.000402817
0.000437768
0.000319961
0.000359165
0.000393591
0.000423862
0.000455712
0.000475726
0.000404702
0.00043195
0.000454827
0.000480135
0.000496143
0.000523738
0.000536436
0.00056854
0.00056583
0.000607056
0.000578808
0.000628651
0.000574211
0.000632892
0.000543044
0.000613583
0.000475975
0.000565441
0.000523134
0.00042257
0.000484637
0.000291183
0.000172263
0.000269843
0.000403892
0.000477261
0.000478884
0.000386774
6.48632e-05
0.000217441
0.000184171
0.00010883
9.27439e-05
6.05355e-05
0.000166154
0.000176366
0.000194882
0.000229877
0.000280547
0.000350289
0.000419045
0.000470271
0.000494211
0.000498089
0.000491936
0.000480854
0.000472686
0.000475087
0.000486856
0.000498134
0.000490395
0.000462832
0.000423664
0.000366486
0.000301829
0.000277974
0.00028066
0.000299519
0.000362558
0.000500131
0.000595565
0.000611248
0.00058756
0.000548521
0.000520806
0.000521869
0.000535082
0.000473944
0.00049966
0.000497861
0.000515994
0.000451833
0.000475876
0.000493827
0.000510197
0.000534277
0.000547687
0.000500877
0.000518744
0.000547613
0.00056812
0.000597079
0.00062259
0.000642686
0.000672585
0.000672506
0.000710263
0.000683484
0.000726217
0.000637503
0.00066487
0.00068841
0.000710833
0.000600744
0.000633467
0.000674982
0.000685495
0.000660685
0.000570071
0.000534863
0.000579734
0.000609093
0.000536227
0.000364437
0.000330438
0.000465126
0.000528755
0.000534633
0.000449078
0.000127892
6.30153e-05
8.98895e-05
0.000290501
0.000235217
4.89757e-05
6.61975e-05
4.78875e-05
6.35568e-05
0.000190159
0.000208676
0.000240665
0.00030705
0.00038844
0.000475212
0.000535842
0.000568379
0.00058181
0.000581941
0.000566986
0.000537472
0.000507319
0.000489911
0.000483224
0.000486298
0.000481951
0.000465248
0.000431329
0.00037549
0.000311886
0.000301044
0.000345193
0.000466523
0.000633016
0.000677533
0.000676344
0.000640157
0.000602314
0.000581059
0.000598276
0.000562598
0.000587796
0.000531319
0.000544591
0.000550435
0.000562667
0.000524975
0.000538142
0.000560104
0.000572158
0.000612493
0.000625083
0.000584738
0.000599232
0.000644585
0.000662044
0.000700383
0.000723658
0.000743074
0.000765091
0.000759212
0.000781082
0.000729529
0.000746177
0.000758929
0.000768896
0.000699701
0.000720016
0.000737074
0.00064066
0.00066719
0.000706252
0.000707495
0.000689025
0.000615334
0.000581602
0.00061793
0.0006451
0.00058125
0.000425345
0.000393469
0.000518086
0.000577779
0.000570916
0.000502238
0.000173862
0.000110322
0.000350642
0.000295548
5.63786e-05
6.65685e-06
8.40972e-06
6.73809e-05
4.7657e-05
0.000219524
0.000257939
0.000323152
0.000432173
0.00053066
0.000609077
0.000655872
0.000688223
0.000705523
0.000697771
0.000660274
0.000604271
0.000548686
0.000507932
0.00048513
0.000478921
0.000478756
0.0004708
0.000442587
0.000388109
0.000345901
0.000387217
0.00055291
0.000704953
0.000725395
0.000694158
0.000669081
0.000649498
0.000660293
0.000701488
0.000689658
0.000743277
0.00061405
0.000647776
0.000576832
0.000593778
0.000610429
0.000626358
0.000584516
0.000597079
0.000637233
0.000649415
0.000700567
0.000711668
0.000676499
0.00068913
0.000740576
0.000746945
0.000778282
0.000773268
0.000783628
0.000773495
0.000774893
0.0007761
0.000772588
0.000763736
0.00075027
0.000760287
0.000751832
0.000738058
0.000723747
0.000737613
0.000740324
0.000669256
0.000688768
0.00072198
0.000715802
0.000704277
0.000646168
0.000617187
0.000644078
0.000668153
0.000614116
0.000479796
0.000448828
0.000560663
0.000608695
0.000601262
0.000545958
0.000225675
0.000144776
0.000406891
0.000350866
1.45344e-05
3.4729e-06
4.57144e-06
8.18898e-05
5.05437e-05
0.000260934
0.00034568
0.000460798
0.000592562
0.000680731
0.000749752
0.000802165
0.000838012
0.000833723
0.000799296
0.000739232
0.000664841
0.000590132
0.00052954
0.000492659
0.000481833
0.000484955
0.000482977
0.000457125
0.000409632
0.000425576
0.000614166
0.00074858
0.000745659
0.000705267
0.000685291
0.00069362
0.000741964
0.000788626
0.000841525
0.000794426
0.000842193
0.000698715
0.000743874
0.000645837
0.000668774
0.000691127
0.000711262
0.000662219
0.000675565
0.000721563
0.000732467
0.000750849
0.000752149
0.000751538
0.000751149
0.00076325
0.000750746
0.000753942
0.00072861
0.000755112
0.000741466
0.000729299
0.00071452
0.000724182
0.000723588
0.000729102
0.000728064
0.0007136
0.000690902
0.000673577
0.000665274
0.000725326
0.000691476
0.000660157
0.000685134
0.000697737
0.000681389
0.000640689
0.000686603
0.000664171
0.000639928
0.000658021
0.000678744
0.00063403
0.000525359
0.000496605
0.000591585
0.00062685
0.000618732
0.000578717
0.000278701
0.000188716
0.000456615
0.000401695
1.1396e-05
2.48595e-06
3.16387e-06
0.000105029
5.59979e-05
0.000340624
0.000501656
0.000636997
0.000758367
0.000835004
0.000913969
0.000949717
0.000943505
0.000909073
0.000858644
0.000789778
0.000709313
0.000626181
0.000554551
0.000509929
0.000497524
0.00050292
0.000501609
0.000470058
0.000462081
0.00064582
0.000775105
0.000763615
0.000703752
0.000688828
0.00069803
0.000731419
0.000777445
0.000826746
0.000871259
0.000860779
0.000863352
0.000873358
0.000802801
0.000836076
0.000736354
0.000766388
0.000773929
0.000791599
0.000744919
0.000758448
0.000756855
0.000765176
0.000734954
0.000738585
0.000741138
0.000736084
0.000709895
0.000692613
0.000665475
0.00063534
0.000713095
0.000695918
0.000677765
0.000658448
0.000665204
0.000672558
0.000685707
0.000674861
0.00063683
0.000624772
0.000621904
0.000625423
0.00064362
0.000613662
0.000595419
0.000688478
0.000649773
0.000600219
0.000564187
0.000601052
0.000670145
0.000650439
0.000660144
0.00067391
0.000641916
0.000561012
0.000535805
0.000609631
0.000632967
0.000624105
0.000599091
0.000327858
0.000234122
0.000499185
0.000446656
7.77297e-06
1.9277e-06
2.3007e-06
0.000131105
5.07388e-05
0.000499849
0.000703554
0.000815819
0.000925415
0.00100497
0.00102901
0.00100912
0.000973643
0.000924078
0.000869136
0.000805868
0.000732148
0.000651728
0.000580287
0.000536439
0.000524985
0.000529628
0.000516917
0.000493369
0.000649732
0.00078885
0.000777389
0.000713055
0.000682216
0.000689395
0.000708049
0.00073612
0.000742974
0.00063221
0.000829142
0.000717357
0.000876329
0.000867583
0.000852876
0.000870125
0.000811665
0.000833033
0.000804108
0.000818781
0.000776184
0.000789765
0.000746549
0.000755968
0.000665307
0.000665357
0.000678848
0.000669631
0.00061036
0.000590274
0.000582561
0.000566721
0.000542604
0.000555316
0.000654485
0.000633952
0.000614784
0.000597658
0.000633246
0.000643973
0.000632236
0.0006096
0.000589392
0.000591716
0.000598352
0.000605997
0.000574772
0.000564546
0.000564392
0.000616749
0.000566439
0.000545188
0.000521994
0.000534081
0.000651359
0.000649398
0.000632122
0.000588553
0.000638431
0.000585387
0.000565306
0.000615599
0.000627847
0.000618198
0.000607121
0.000373151
0.000275564
0.000533961
0.000485349
6.06483e-06
1.67411e-06
1.8923e-06
0.000148526
4.32956e-05
0.00071705
0.000902299
0.000989412
0.00107987
0.00107755
0.00104705
0.00098941
0.000934503
0.000889829
0.000847663
0.000798822
0.000736066
0.000665852
0.000603259
0.000566301
0.000557393
0.00055067
0.00052494
0.000648965
0.000796454
0.000787779
0.000726767
0.000691984
0.000666316
0.000639764
0.000566247
0.000458542
0.00036372
0.000390072
0.000268043
0.0006719
0.000524215
0.000822421
0.000762389
0.000854132
0.000849432
0.000833751
0.000846872
0.000781859
0.000788769
0.000765217
0.000773713
0.000669019
0.000674708
0.000563517
0.000561244
0.000576359
0.000567908
0.000534376
0.00052733
0.000498824
0.000528289
0.00051853
0.000502806
0.000510088
0.000588043
0.000570077
0.00055455
0.000540264
0.000612661
0.000588767
0.000564774
0.000543655
0.000570905
0.000579714
0.000585542
0.000572514
0.000540967
0.000546961
0.00055777
0.000538253
0.000509983
0.000524231
0.000511288
0.00050297
0.000565405
0.000618732
0.00054811
0.000514279
0.000612186
0.000597416
0.000583573
0.000610086
0.000609037
0.000602111
0.00060358
0.000412976
0.000307895
0.000559972
0.000517305
6.86249e-06
2.24046e-06
4.79938e-06
0.000134149
4.55781e-05
0.000935528
0.00108015
0.00112497
0.00112258
0.00106024
0.000980125
0.000917688
0.000878589
0.000847249
0.000814349
0.000776475
0.000727335
0.00067044
0.000621777
0.000594186
0.000580328
0.000548939
0.000637566
0.000802352
0.000798933
0.000741511
0.000707247
0.000654255
0.000513651
0.000360119
0.000301926
0.000237017
0.000159217
0.000220763
0.000162824
0.000423214
0.00030007
0.000662829
0.000558322
0.000770372
0.000731066
0.000792197
0.000788153
0.000683895
0.000680579
0.000679242
0.000682489
0.000558498
0.000552928
0.000488532
0.000487252
0.000492973
0.00048973
0.000496752
0.000489699
0.000469163
0.000470127
0.000488691
0.000483999
0.000474829
0.000479298
0.000527087
0.000513423
0.000502505
0.000494566
0.000545731
0.000521943
0.000501388
0.000486504
0.000566342
0.000561633
0.0005319
0.000504585
0.000535465
0.00054869
0.000555392
0.000490819
0.000488698
0.00052746
0.000519141
0.000501083
0.000495552
0.000536404
0.000482352
0.000474815
0.000530536
0.000597936
0.000590508
0.000594106
0.000524489
0.000518972
0.000589397
0.000440372
0.000272216
0.000575391
0.000515058
1.52608e-05
1.1997e-05
3.5508e-05
0.000119326
6.47519e-05
0.00112618
0.0011901
0.00114837
0.00106854
0.000949727
0.000863502
0.000827611
0.000821523
0.000807434
0.000780691
0.000749058
0.000710822
0.000669105
0.000635219
0.000611303
0.000576302
0.000614939
0.000804603
0.000816862
0.000769662
0.00072903
0.000666257
0.000432484
0.000274332
0.000210773
0.000163305
0.000125045
0.000112101
0.000108038
0.000139331
0.000119624
0.000229729
0.0001733
0.000414484
0.000310816
0.000594112
0.000517834
0.000668131
0.00064134
0.000532151
0.00050975
0.000548604
0.000543647
0.000480353
0.000466736
0.000458736
0.000447081
0.000468565
0.000470255
0.000466821
0.000471534
0.000469914
0.000460567
0.000464513
0.000459961
0.000457767
0.000456249
0.00045667
0.000475599
0.000468735
0.000464584
0.000462193
0.000480515
0.000461446
0.000448281
0.000440179
0.000523773
0.000492539
0.000465105
0.000441129
0.000540619
0.000521693
0.000486915
0.000477339
0.000492416
0.000524474
0.000497522
0.000509719
0.000463087
0.000472493
0.000452189
0.000467435
0.00046406
0.000587667
0.000583124
0.000517984
0.000456408
0.000452755
0.000528318
0.000399299
0.000243886
0.000545734
0.000477396
5.65904e-05