/*--------------------------------*- C++ -*----------------------------------*\
  =========                 |
  \\      /  F ield         | OpenFOAM: The Open Source CFD Toolbox
   \\    /   O peration     | Website:  https://openfoam.org
    \\  /    A nd           | Version:  dev
     \\/     M anipulation  |
\*---------------------------------------------------------------------------*/
FoamFile
{
    version     2.0;
    format      ascii;
    class       volScalarField;
    location    "2500";
    object      O2;
}
// * * * * * * * * * * * * * * * * * * * * * * * * * * * * * * * * * * * * * //

dimensions      [0 0 0 0 0 0 0];

internalField   nonuniform List<scalar> 
9842
(
0.23301
0.23301
0.23301
0.23301
0.23301
0.23301
0.23301
0.23301
0.23301
0.23301
0.23301
0.23301
0.23301
0.23301
0.23301
0.23301
0.23301
0.23301
0.23301
0.23301
0.23301
0.23301
0.23301
0.23301
0.23301
0.23301
0.23301
0.23301
0.23301
0.23301
0.23301
0.23301
0.23301
0.23301
0.23301
0.23301
0.23301
0.23301
0.23301
0.23301
0.23301
0.23301
0.23301
0.23301
0.23301
0.23301
0.23301
0.23301
0.23301
0.23301
0.23301
0.23301
0.23301
0.23301
0.23301
0.23301
0.23301
0.23301
0.23301
0.23301
0.23301
0.23301
0.23301
0.23301
0.23301
0.23301
0.23301
0.23301
0.23301
0.23301
0.23301
0.23301
0.23301
0.23301
0.23301
0.23301
0.23301
0.23301
0.23301
0.23301
0.23301
0.23301
0.23301
0.23301
0.23301
0.23301
0.23301
0.23301
0.23301
0.23301
0.23301
0.23301
0.23301
0.23301
0.23301
0.23301
0.23301
0.23301
0.23301
0.23301
0.23301
0.23301
0.23301
0.23301
0.23301
0.23301
0.23301
0.23301
0.23301
0.23301
0.23301
0.23301
0.23301
0.23301
0.23301
0.23301
0.23301
0.23301
0.23301
0.23301
0.23301
0.23301
0.23301
0.23301
0.23301
0.23301
0.23301
0.23301
0.23301
0.23301
0.23301
0.23301
0.23301
0.23301
0.23301
0.23301
0.23301
0.23301
0.23301
0.23301
0.23301
0.23301
0.23301
0.23301
0.23301
0.23301
0.23301
0.23301
0.23301
0.23301
0.23301
0.23301
0.23301
0.23301
0.23301
0.23301
0.23301
0.23301
0.23301
0.23301
0.23301
0.23301
0.23301
0.23301
0.23301
0.23301
0.23301
0.23301
0.23301
0.23301
0.23301
0.23301
0.23301
0.23301
0.23301
0.23301
0.23301
0.23301
0.23301
0.23301
0.23301
0.23301
0.23301
0.23301
0.23301
0.23301
0.23301
0.23301
0.23301
0.23301
0.23301
0.23301
0.23301
0.23301
0.23301
0.23301
0.23301
0.23301
0.23301
0.23301
0.23301
0.23301
0.23301
0.23301
0.23301
0.23301
0.23301
0.23301
0.23301
0.23301
0.23301
0.23301
0.23301
0.23301
0.23301
0.23301
0.23301
0.23301
0.23301
0.23301
0.23301
0.23301
0.23301
0.23301
0.23301
0.23301
0.23301
0.23301
0.23301
0.23301
0.23301
0.23301
0.23301
0.23301
0.23301
0.23301
0.23301
0.23301
0.23301
0.23301
0.23301
0.23301
0.23301
0.23301
0.23301
0.23301
0.23301
0.23301
0.23301
0.23301
0.23301
0.23301
0.23301
0.23301
0.23301
0.23301
0.23301
0.23301
0.23301
0.23301
0.23301
0.23301
0.23301
0.23301
0.23301
0.23301
0.23301
0.23301
0.23301
0.23301
0.23301
0.23301
0.23301
0.23301
0.23301
0.23301
0.23301
0.23301
0.23301
0.23301
0.23301
0.23301
0.23301
0.23301
0.23301
0.23301
0.23301
0.23301
0.23301
0.23301
0.23301
0.23301
0.23301
0.23301
0.23301
0.23301
0.23301
0.23301
0.23301
0.23301
0.23301
0.23301
0.23301
0.23301
0.23301
0.23301
0.23301
0.23301
0.23301
0.23301
0.23301
0.23301
0.23301
0.23301
0.23301
0.23301
0.23301
0.23301
0.23301
0.23301
0.23301
0.23301
0.23301
0.23301
0.23301
0.23301
0.23301
0.23301
0.23301
0.23301
0.23301
0.23301
0.23301
0.23301
0.23301
0.23301
0.23301
0.23301
0.23301
0.23301
0.23301
0.23301
0.23301
0.23301
0.23301
0.23301
0.23301
0.23301
0.23301
0.23301
0.23301
0.23301
0.23301
0.23301
0.23301
0.23301
0.23301
0.23301
0.23301
0.23301
0.23301
0.23301
0.23301
0.23301
0.23301
0.23301
0.23301
0.23301
0.23301
0.23301
0.23301
0.23301
0.23301
0.23301
0.23301
0.23301
0.23301
0.23301
0.23301
0.23301
0.23301
0.23301
0.23301
0.23301
0.23301
0.23301
0.23301
0.23301
0.23301
0.23301
0.23301
0.23301
0.23301
0.23301
0.23301
0.23301
0.23301
0.23301
0.23301
0.23301
0.23301
0.23301
0.23301
0.23301
0.23301
0.23301
0.23301
0.23301
0.23301
0.23301
0.23301
0.23301
0.23301
0.23301
0.23301
0.23301
0.23301
0.23301
0.23301
0.23301
0.23301
0.23301
0.23301
0.23301
0.23301
0.23301
0.23301
0.23301
0.23301
0.23301
0.23301
0.23301
0.23301
0.23301
0.23301
0.23301
0.23301
0.23301
0.23301
0.23301
0.23301
0.23301
0.23301
0.23301
0.23301
0.23301
0.23301
0.23301
0.23301
0.23301
0.23301
0.23301
0.23301
0.23301
0.23301
0.23301
0.23301
0.23301
0.23301
0.23301
0.23301
0.23301
0.23301
0.23301
0.23301
0.23301
0.23301
0.23301
0.23301
0.23301
0.23301
0.23301
0.23301
0.23301
0.23301
0.23301
0.23301
0.23301
0.23301
0.23301
0.23301
0.23301
0.23301
0.23301
0.23301
0.23301
0.23301
0.23301
0.23301
0.23301
0.23301
0.23301
0.23301
0.23301
0.23301
0.23301
0.23301
0.23301
0.23301
0.23301
0.23301
0.23301
0.23301
0.23301
0.23301
0.23301
0.23301
0.23301
0.23301
0.23301
0.23301
0.23301
0.23301
0.23301
0.23301
0.23301
0.23301
0.23301
0.23301
0.23301
0.23301
0.23301
0.23301
0.23301
0.23301
0.23301
0.23301
0.23301
0.23301
0.23301
0.23301
0.23301
0.23301
0.23301
0.23301
0.23301
0.23301
0.23301
0.23301
0.23301
0.23301
0.23301
0.23301
0.23301
0.23301
0.23301
0.23301
0.23301
0.23301
0.23301
0.23301
0.23301
0.23301
0.23301
0.23301
0.23301
0.23301
0.23301
0.23301
0.23301
0.23301
0.23301
0.23301
0.23301
0.23301
0.23301
0.23301
0.23301
0.23301
0.23301
0.23301
0.23301
0.23301
0.23301
0.23301
0.23301
0.23301
0.23301
0.23301
0.23301
0.23301
0.23301
0.23301
0.23301
0.23301
0.23301
0.23301
0.23301
0.23301
0.23301
0.23301
0.23301
0.23301
0.23301
0.23301
0.23301
0.23301
0.23301
0.23301
0.23301
0.23301
0.23301
0.23301
0.23301
0.23301
0.23301
0.23301
0.23301
0.23301
0.23301
0.23301
0.23301
0.23301
0.23301
0.23301
0.23301
0.23301
0.23301
0.23301
0.23301
0.23301
0.23301
0.23301
0.23301
0.23301
0.23301
0.23301
0.23301
0.23301
0.23301
0.23301
0.23301
0.23301
0.23301
0.23301
0.23301
0.23301
0.23301
0.23301
0.23301
0.23301
0.23301
0.23301
0.23301
0.23301
0.23301
0.23301
0.23301
0.23301
0.23301
0.23301
0.23301
0.23301
0.23301
0.23301
0.23301
0.23301
0.23301
0.23301
0.23301
0.23301
0.23301
0.23301
0.23301
0.23301
0.23301
0.23301
0.23301
0.23301
0.23301
0.23301
0.23301
0.23301
0.23301
0.23301
0.23301
0.23301
0.23301
0.23301
0.23301
0.23301
0.23301
0.23301
0.23301
0.23301
0.23301
0.23301
0.23301
0.23301
0.23301
0.23301
0.23301
0.23301
0.23301
0.23301
0.23301
0.23301
0.23301
0.23301
0.23301
0.23301
0.23301
0.23301
0.23301
0.23301
0.23301
0.23301
0.23301
0.23301
0.23301
0.23301
0.23301
0.23301
0.23301
0.23301
0.23301
0.23301
0.23301
0.23301
0.23301
0.23301
0.23301
0.23301
0.23301
0.23301
0.23301
0.23301
0.23301
0.23301
0.23301
0.23301
0.23301
0.23301
0.23301
0.23301
0.23301
0.23301
0.23301
0.23301
0.23301
0.23301
0.23301
0.23301
0.23301
0.23301
0.23301
0.23301
0.23301
0.23301
0.23301
0.23301
0.23301
0.23301
0.23301
0.23301
0.23301
0.23301
0.23301
0.23301
0.23301
0.23301
0.23301
0.23301
0.23301
0.23301
0.23301
0.23301
0.23301
0.23301
0.23301
0.23301
0.23301
0.23301
0.23301
0.23301
0.23301
0.23301
0.23301
0.23301
0.23301
0.23301
0.23301
0.23301
0.23301
0.23301
0.23301
0.23301
0.23301
0.23301
0.23301
0.23301
0.23301
0.23301
0.23301
0.23301
0.23301
0.23301
0.23301
0.23301
0.23301
0.23301
0.23301
0.23301
0.23301
0.23301
0.23301
0.23301
0.23301
0.23301
0.23301
0.23301
0.23301
0.23301
0.23301
0.23301
0.23301
0.23301
0.23301
0.23301
0.23301
0.23301
0.23301
0.23301
0.23301
0.23301
0.23301
0.23301
0.23301
0.23301
0.23301
0.23301
0.23301
0.23301
0.23301
0.23301
0.23301
0.23301
0.23301
0.23301
0.23301
0.23301
0.23301
0.23301
0.23301
0.23301
0.23301
0.23301
0.23301
0.23301
0.23301
0.23301
0.23301
0.23301
0.23301
0.23301
0.23301
0.23301
0.23301
0.23301
0.23301
0.23301
0.23301
0.23301
0.23301
0.23301
0.23301
0.23301
0.23301
0.23301
0.23301
0.23301
0.23301
0.23301
0.23301
0.23301
0.23301
0.23301
0.23301
0.23301
0.23301
0.23301
0.23301
0.23301
0.23301
0.23301
0.23301
0.23301
0.23301
0.23301
0.23301
0.23301
0.23301
0.23301
0.23301
0.23301
0.23301
0.23301
0.23301
0.23301
0.23301
0.23301
0.23301
0.23301
0.23301
0.23301
0.23301
0.23301
0.23301
0.23301
0.23301
0.23301
0.23301
0.23301
0.23301
0.23301
0.23301
0.23301
0.23301
0.23301
0.23301
0.23301
0.23301
0.23301
0.23301
0.23301
0.23301
0.23301
0.23301
0.23301
0.23301
0.23301
0.23301
0.23301
0.23301
0.23301
0.23301
0.23301
0.23301
0.23301
0.23301
0.23301
0.23301
0.23301
0.23301
0.23301
0.23301
0.23301
0.23301
0.23301
0.23301
0.23301
0.23301
0.23301
0.23301
0.23301
0.23301
0.23301
0.23301
0.23301
0.23301
0.23301
0.23301
0.23301
0.23301
0.23301
0.23301
0.23301
0.23301
0.23301
0.23301
0.23301
0.23301
0.23301
0.23301
0.23301
0.23301
0.23301
0.23301
0.23301
0.23301
0.23301
0.23301
0.23301
0.23301
0.23301
0.23301
0.23301
0.23301
0.23301
0.23301
0.23301
0.23301
0.23301
0.23301
0.23301
0.23301
0.23301
0.23301
0.23301
0.23301
0.23301
0.23301
0.23301
0.23301
0.23301
0.23301
0.23301
0.23301
0.23301
0.23301
0.23301
0.23301
0.23301
0.23301
0.23301
0.23301
0.23301
0.23301
0.23301
0.23301
0.23301
0.23301
0.23301
0.23301
0.23301
0.23301
0.23301
0.23301
0.23301
0.23301
0.23301
0.23301
0.23301
0.23301
0.23301
0.23301
0.23301
0.23301
0.23301
0.23301
0.23301
0.23301
0.23301
0.23301
0.23301
0.23301
0.23301
0.23301
0.23301
0.23301
0.23301
0.23301
0.23301
0.23301
0.23301
0.23301
0.23301
0.23301
0.23301
0.23301
0.23301
0.23301
0.23301
0.23301
0.23301
0.23301
0.23301
0.23301
0.23301
0.23301
0.23301
0.23301
0.23301
0.23301
0.23301
0.23301
0.23301
0.23301
0.23301
0.23301
0.23301
0.23301
0.23301
0.23301
0.23301
0.23301
0.23301
0.23301
0.23301
0.23301
0.23301
0.23301
0.23301
0.23301
0.23301
0.23301
0.23301
0.23301
0.23301
0.23301
0.23301
0.23301
0.23301
0.23301
0.23301
0.23301
0.23301
0.23301
0.23301
0.23301
0.23301
0.23301
0.23301
0.23301
0.23301
0.23301
0.23301
0.23301
0.23301
0.23301
0.23301
0.23301
0.23301
0.23301
0.23301
0.23301
0.23301
0.23301
0.23301
0.23301
0.23301
0.23301
0.23301
0.23301
0.23301
0.23301
0.23301
0.23301
0.23301
0.23301
0.23301
0.23301
0.23301
0.23301
0.23301
0.23301
0.23301
0.23301
0.23301
0.23301
0.23301
0.23301
0.23301
0.23301
0.23301
0.23301
0.23301
0.23301
0.23301
0.23301
0.23301
0.23301
0.23301
0.23301
0.233009
0.233009
0.233009
0.233009
0.233008
0.233009
0.233007
0.233009
0.233008
0.23301
0.233009
0.23301
0.23301
0.23301
0.23301
0.23301
0.23301
0.23301
0.23301
0.23301
0.23301
0.23301
0.23301
0.23301
0.23301
0.23301
0.23301
0.23301
0.23301
0.23301
0.23301
0.23301
0.23301
0.23301
0.23301
0.23301
0.23301
0.23301
0.23301
0.23301
0.23301
0.23301
0.23301
0.23301
0.23301
0.23301
0.23301
0.23301
0.23301
0.23301
0.23301
0.23301
0.23301
0.233009
0.23301
0.23301
0.233009
0.233009
0.233009
0.233007
0.233007
0.233003
0.233004
0.232998
0.233003
0.232992
0.233003
0.23299
0.233005
0.232994
0.233008
0.233001
0.233007
0.23301
0.233007
0.233007
0.23301
0.23301
0.23301
0.23301
0.23301
0.23301
0.23301
0.23301
0.23301
0.23301
0.23301
0.23301
0.23301
0.23301
0.23301
0.23301
0.23301
0.23301
0.23301
0.23301
0.23301
0.23301
0.23301
0.23301
0.23301
0.23301
0.23301
0.23301
0.23301
0.23301
0.23301
0.23301
0.23301
0.23301
0.23301
0.23301
0.23301
0.233009
0.233009
0.233007
0.233006
0.233009
0.233008
0.233006
0.233003
0.232998
0.23299
0.232985
0.232964
0.232969
0.232927
0.232958
0.232891
0.232961
0.232882
0.232977
0.232908
0.232996
0.232954
0.232992
0.233008
0.23299
0.232992
0.23301
0.233009
0.23301
0.23301
0.23301
0.23301
0.23301
0.23301
0.23301
0.23301
0.23301
0.23301
0.23301
0.23301
0.23301
0.23301
0.233009
0.233009
0.23301
0.23301
0.23301
0.23301
0.23301
0.23301
0.23301
0.23301
0.23301
0.23301
0.23301
0.23301
0.23301
0.23301
0.23301
0.233009
0.233009
0.233008
0.233007
0.233008
0.233012
0.233005
0.233003
0.232991
0.232984
0.233
0.232996
0.23298
0.232965
0.232934
0.232894
0.232859
0.232765
0.232773
0.232601
0.232717
0.232454
0.232742
0.232406
0.232825
0.23252
0.232928
0.232721
0.232907
0.232997
0.232901
0.232916
0.233009
0.233003
0.23301
0.23301
0.23301
0.23301
0.23301
0.23301
0.23301
0.23301
0.23301
0.23301
0.23301
0.23301
0.233009
0.233009
0.233008
0.233008
0.233008
0.233009
0.233009
0.233009
0.23301
0.23301
0.23301
0.23301
0.23301
0.23301
0.23301
0.23301
0.23301
0.233009
0.233008
0.233005
0.233002
0.232997
0.23299
0.232966
0.232999
0.232977
0.232976
0.232961
0.232893
0.232853
0.232946
0.232922
0.232841
0.232772
0.232645
0.232507
0.232383
0.232138
0.232122
0.23175
0.231948
0.231436
0.23196
0.231301
0.232231
0.231442
0.232621
0.23193
0.232553
0.232946
0.23255
0.232628
0.233007
0.232977
0.23301
0.233009
0.23301
0.23301
0.23301
0.23301
0.23301
0.23301
0.23301
0.23301
0.233009
0.233008
0.233006
0.233003
0.233002
0.233003
0.233005
0.233006
0.233008
0.233009
0.233009
0.233009
0.23301
0.23301
0.23301
0.23301
0.233009
0.233008
0.233005
0.232997
0.232984
0.232966
0.232942
0.232913
0.232836
0.232792
0.232636
0.232935
0.232877
0.232801
0.232722
0.232498
0.232379
0.232692
0.232601
0.232347
0.232177
0.231881
0.231623
0.231366
0.230995
0.230916
0.230413
0.230624
0.229977
0.230591
0.229776
0.230915
0.229905
0.231686
0.230457
0.231552
0.232755
0.231602
0.231864
0.232998
0.232885
0.23301
0.233007
0.23301
0.23301
0.23301
0.23301
0.23301
0.23301
0.23301
0.233008
0.233005
0.232998
0.23299
0.232986
0.232987
0.232991
0.232997
0.233002
0.233005
0.233007
0.233008
0.233009
0.233009
0.23301
0.23301
0.233009
0.233004
0.232989
0.232954
0.232892
0.232811
0.232729
0.232651
0.232511
0.232372
0.23221
0.232276
0.232007
0.232618
0.232454
0.232245
0.232086
0.231658
0.231482
0.232004
0.231831
0.231362
0.231117
0.230649
0.230324
0.229946
0.22953
0.229385
0.228859
0.229039
0.228404
0.228979
0.228201
0.229305
0.22832
0.230135
0.228847
0.229992
0.232231
0.230073
0.230348
0.231334
0.23297
0.232643
0.23301
0.233004
0.23301
0.23301
0.23301
0.23301
0.23301
0.233009
0.233007
0.232998
0.232982
0.23296
0.232943
0.232939
0.23295
0.232967
0.232983
0.232994
0.233001
0.233005
0.233007
0.233008
0.233009
0.233009
0.233008
0.232995
0.232949
0.232833
0.232633
0.23238
0.232152
0.231985
0.231807
0.231327
0.231783
0.231273
0.231448
0.231171
0.231902
0.231687
0.231301
0.231104
0.230482
0.230289
0.230891
0.230681
0.230023
0.229757
0.229163
0.228835
0.228405
0.228029
0.227871
0.227435
0.22757
0.227074
0.227512
0.226917
0.227806
0.227007
0.228569
0.227531
0.22804
0.229251
0.228504
0.230699
0.231953
0.230947
0.229498
0.228609
0.22858
0.229685
0.232925
0.231484
0.231842
0.232579
0.23301
0.233004
0.23301
0.23301
0.23301
0.23301
0.233009
0.233004
0.232988
0.232953
0.232899
0.232846
0.232821
0.232834
0.232875
0.232922
0.232959
0.232983
0.232995
0.233002
0.233005
0.233008
0.233009
0.233007
0.232986
0.232889
0.23264
0.232213
0.231755
0.23133
0.230958
0.230644
0.230253
0.230128
0.229828
0.230877
0.230517
0.230401
0.230121
0.23089
0.230655
0.230095
0.22989
0.229123
0.228942
0.229524
0.229315
0.228549
0.228314
0.227718
0.227459
0.227089
0.226833
0.226696
0.226429
0.226494
0.226213
0.226814
0.226577
0.226392
0.226227
0.227131
0.226758
0.226434
0.22625
0.226484
0.227458
0.227902
0.227316
0.226991
0.227874
0.229958
0.230358
0.228784
0.227982
0.227894
0.228999
0.232387
0.232943
0.232707
0.230811
0.231398
0.23301
0.232916
0.232992
0.233009
0.23301
0.23301
0.23301
0.233009
0.233001
0.232973
0.232908
0.2328
0.232677
0.232576
0.232552
0.232622
0.232747
0.232855
0.232927
0.232968
0.232988
0.232998
0.233004
0.233007
0.233006
0.232982
0.232834
0.232434
0.231823
0.231129
0.230539
0.230031
0.229582
0.229127
0.228488
0.229158
0.228572
0.229822
0.229454
0.229206
0.228955
0.229673
0.229447
0.228765
0.228585
0.227804
0.227681
0.22812
0.227951
0.227256
0.22711
0.22664
0.226518
0.226254
0.226142
0.226035
0.22591
0.226108
0.226007
0.225933
0.225866
0.226231
0.226086
0.225977
0.226627
0.226341
0.22609
0.225978
0.22613
0.226871
0.227286
0.226798
0.226507
0.22727
0.229312
0.229716
0.228134
0.227303
0.227391
0.228366
0.232001
0.232548
0.230231
0.230853
0.233008
0.23301
0.23301
0.232864
0.232979
0.23301
0.23301
0.233008
0.232997
0.232956
0.23285
0.232666
0.232432
0.23223
0.232136
0.232183
0.232348
0.232579
0.232779
0.232893
0.232953
0.232981
0.232996
0.233004
0.233005
0.232981
0.232806
0.23227
0.231462
0.230669
0.230065
0.22961
0.229197
0.228782
0.228327
0.227822
0.227882
0.228127
0.227913
0.228681
0.228386
0.228049
0.227889
0.228398
0.228222
0.227571
0.227487
0.226918
0.226924
0.227011
0.226948
0.226451
0.22643
0.226061
0.226028
0.225815
0.225741
0.225809
0.225749
0.225685
0.22561
0.225898
0.225835
0.225778
0.225718
0.225969
0.225884
0.225821
0.226229
0.226028
0.22588
0.225818
0.225896
0.226418
0.226758
0.226358
0.226138
0.226749
0.228686
0.22911
0.227542
0.226781
0.226861
0.227773
0.231576
0.232303
0.229653
0.230326
0.233006
0.23301
0.23301
0.232764
0.232954
0.23301
0.233008
0.232996
0.232938
0.23279
0.232514
0.232159
0.231837
0.231664
0.231662
0.23182
0.232096
0.232417
0.2327
0.232864
0.23294
0.232979
0.232996
0.233003
0.232982
0.232805
0.232193
0.231228
0.23048
0.230035
0.229654
0.229279
0.228896
0.228498
0.228102
0.227673
0.227834
0.227609
0.227621
0.227759
0.227658
0.227366
0.227369
0.227424
0.227388
0.226944
0.226984
0.226557
0.226663
0.226447
0.226487
0.226038
0.226076
0.225653
0.225628
0.225532
0.225444
0.22536
0.225274
0.225647
0.22556
0.225453
0.225326
0.225766
0.225709
0.225639
0.225545
0.225816
0.225766
0.225717
0.225947
0.225833
0.22577
0.22574
0.225773
0.226069
0.226322
0.226019
0.225882
0.226313
0.228095
0.228528
0.227004
0.226336
0.226402
0.227224
0.231118
0.23198
0.229092
0.229801
0.233005
0.23301
0.23301
0.232618
0.232927
0.233009
0.232994
0.232928
0.232735
0.232374
0.231891
0.231454
0.231187
0.231132
0.231263
0.231538
0.231909
0.232299
0.232636
0.232845
0.23294
0.23298
0.232997
0.232984
0.232812
0.232183
0.231133
0.230512
0.230137
0.229857
0.229605
0.229361
0.22911
0.228973
0.228586
0.229136
0.227798
0.228138
0.227482
0.227593
0.227386
0.22742
0.227178
0.22726
0.227044
0.227109
0.226771
0.22689
0.226464
0.226654
0.226164
0.226299
0.225659
0.225748
0.224918
0.22484
0.225187
0.225039
0.22489
0.224743
0.22542
0.225261
0.225068
0.224853
0.225654
0.225564
0.225434
0.225256
0.225731
0.225682
0.225606
0.225783
0.22574
0.225708
0.225697
0.22572
0.225831
0.225985
0.225789
0.225742
0.22597
0.227539
0.227971
0.226525
0.225978
0.226019
0.226722
0.230657
0.231615
0.228545
0.229283
0.233006
0.23301
0.23301
0.232463
0.232921
0.232996
0.232922
0.232701
0.232255
0.231662
0.231107
0.230764
0.230669
0.230762
0.231008
0.231376
0.231817
0.23226
0.232624
0.232851
0.232946
0.232985
0.232985
0.232834
0.2322
0.231151
0.230616
0.230379
0.230342
0.230415
0.230522
0.230617
0.230753
0.230909
0.229376
0.230231
0.228313
0.228803
0.227681
0.227946
0.227359
0.227493
0.227328
0.227508
0.22702
0.227166
0.226865
0.227098
0.226442
0.226767
0.225925
0.226159
0.224899
0.22507
0.223809
0.223694
0.223686
0.223658
0.224626
0.224394
0.224171
0.22397
0.225028
0.224754
0.224448
0.224125
0.225486
0.225308
0.225064
0.224754
0.225657
0.225562
0.225401
0.225715
0.225708
0.22564
0.225626
0.225694
0.225707
0.225755
0.225673
0.225691
0.22573
0.227018
0.227437
0.226109
0.225717
0.225723
0.226271
0.230194
0.231264
0.228011
0.22877
0.233006
0.23301
0.23301
0.232365
0.232927
0.232929
0.232684
0.232182
0.23148
0.230828
0.230454
0.230343
0.230402
0.230596
0.230909
0.231338
0.231827
0.232285
0.232647
0.232871
0.23296
0.232982
0.232868
0.232261
0.2312
0.230744
0.23064
0.230908
0.231418
0.23182
0.231976
0.232088
0.232228
0.23192
0.232499
0.230404
0.231214
0.229129
0.229723
0.228259
0.228644
0.227713
0.227956
0.227847
0.228115
0.227341
0.227591
0.227141
0.227516
0.226254
0.22676
0.225388
0.225787
0.223756
0.223902
0.223955
0.222851
0.222796
0.222937
0.222827
0.223797
0.223485
0.223211
0.222994
0.224391
0.223988
0.223564
0.223139
0.225162
0.224842
0.224448
0.223994
0.225517
0.225306
0.224998
0.225702
0.225695
0.22547
0.225421
0.225615
0.225668
0.225638
0.22564
0.225698
0.2256
0.226533
0.226926
0.225768
0.225562
0.22553
0.225877
0.229742
0.23096
0.227488
0.228259
0.233006
0.23301
0.233009
0.232326
0.232925
0.232696
0.232147
0.231364
0.230628
0.230269
0.230163
0.230198
0.230329
0.230573
0.230939
0.231403
0.231903
0.232363
0.232708
0.232906
0.23297
0.232898
0.23237
0.231294
0.230848
0.230854
0.23139
0.232124
0.23249
0.232639
0.232717
0.232792
0.232921
0.232656
0.232888
0.231591
0.232246
0.230185
0.230857
0.229135
0.229612
0.228406
0.228739
0.228611
0.228969
0.227887
0.228253
0.227289
0.227871
0.225722
0.22645
0.224492
0.225074
0.223121
0.223347
0.2236
0.22392
0.221977
0.222093
0.222647
0.222333
0.222744
0.22241
0.22216
0.222012
0.223496
0.222977
0.222469
0.222013
0.2246
0.224124
0.223582
0.222996
0.225203
0.224825
0.224351
0.225698
0.225608
0.225098
0.22501
0.225385
0.225691
0.225602
0.225673
0.225703
0.22555
0.226084
0.226435
0.225519
0.225484
0.225413
0.225555
0.229281
0.230657
0.226966
0.227718
0.233001
0.233
0.23299
0.232259
0.232893
0.232163
0.231306
0.230516
0.23018
0.23009
0.2301
0.230209
0.230407
0.230694
0.231083
0.231556
0.232057
0.232493
0.232795
0.232942
0.232915
0.232481
0.231422
0.230933
0.230994
0.231667
0.232425
0.232758
0.232886
0.232933
0.23296
0.232992
0.232999
0.233006
0.232931
0.232984
0.232519
0.232801
0.231427
0.232048
0.230241
0.230794
0.229347
0.229765
0.229484
0.229959
0.228456
0.228989
0.227231
0.228001
0.225413
0.226093
0.224179
0.224462
0.224879
0.222962
0.22328
0.224014
0.224301
0.221558
0.221913
0.222752
0.222308
0.221645
0.221394
0.221272
0.22132
0.222396
0.221828
0.221338
0.22097
0.223794
0.22317
0.222506
0.221847
0.224653
0.224105
0.223468
0.225611
0.225367
0.224498
0.22437
0.224946
0.225706
0.225637
0.225696
0.225623
0.225576
0.225681
0.225953
0.22535
0.225483
0.225352
0.225307
0.228761
0.230284
0.226422
0.227134
0.232963
0.232856
0.232837
0.232061
0.232749
0.231317
0.230471
0.230145
0.230071
0.230094
0.230205
0.230382
0.230617
0.230921
0.231311
0.231778
0.232256
0.232645
0.23288
0.232917
0.232583
0.231576
0.231003
0.231066
0.231778
0.232497
0.232825
0.232952
0.232988
0.233
0.233007
0.233009
0.233007
0.233009
0.232992
0.233003
0.232888
0.232962
0.23243
0.232727
0.23148
0.231997
0.23044
0.230947
0.230195
0.230813
0.228764
0.22951
0.226909
0.227854
0.225642
0.22581
0.226225
0.224523
0.224728
0.22553
0.225434
0.223226
0.223655
0.224903
0.22514
0.221533
0.222056
0.223381
0.222702
0.220742
0.220688
0.220805
0.221115
0.221246
0.220753
0.220402
0.220225
0.222766
0.22204
0.221346
0.22074
0.223874
0.223156
0.222379
0.225373
0.224915
0.223668
0.223499
0.224278
0.225646
0.225672
0.225654
0.225407
0.225621
0.225336
0.225496
0.225224
0.225518
0.225348
0.22512
0.228184
0.229724
0.225868
0.226528
0.232767
0.23225
0.23214
0.231484
0.232228
0.23048
0.230145
0.23008
0.230133
0.230263
0.230421
0.230626
0.230893
0.231211
0.231597
0.232041
0.232472
0.232785
0.232907
0.232667
0.231748
0.231062
0.231089
0.231768
0.232468
0.232808
0.232955
0.232997
0.233007
0.233009
0.23301
0.233009
0.23301
0.233008
0.233009
0.233002
0.233007
0.232966
0.232991
0.23281
0.232915
0.232306
0.232616
0.231376
0.231882
0.230498
0.231178
0.22882
0.229711
0.226831
0.227661
0.226123
0.226192
0.226756
0.226864
0.225276
0.225362
0.226114
0.226148
0.224012
0.224529
0.226054
0.2262
0.221796
0.22258
0.224335
0.223453
0.220215
0.220378
0.220702
0.221158
0.220268
0.219955
0.219835
0.21984
0.221607
0.2209
0.220312
0.219878
0.222866
0.222023
0.221213
0.224931
0.22424
0.222616
0.222426
0.22339
0.225459
0.225645
0.225512
0.224993
0.225603
0.225056
0.225099
0.225136
0.225515
0.22533
0.224959
0.227534
0.228912
0.225337
0.225905
0.232043
0.232738
0.231509
0.230317
0.230946
0.230168
0.230103
0.230227
0.230439
0.230586
0.230703
0.230916
0.231206
0.231539
0.231911
0.232314
0.232669
0.232868
0.232723
0.231924
0.231118
0.231081
0.231703
0.23236
0.232729
0.23293
0.232994
0.233007
0.23301
0.23301
0.23301
0.23301
0.23301
0.233009
0.233009
0.233004
0.233008
0.23298
0.232997
0.232879
0.232946
0.232545
0.232756
0.231755
0.232216
0.230475
0.231199
0.228622
0.229598
0.227042
0.227288
0.227833
0.226731
0.226711
0.227299
0.227328
0.226227
0.226197
0.226811
0.226949
0.225117
0.225703
0.227217
0.227273
0.222149
0.223134
0.225322
0.224225
0.219996
0.220295
0.220729
0.221344
0.219615
0.219535
0.219543
0.219673
0.22051
0.219955
0.219569
0.219367
0.221707
0.220866
0.220172
0.22428
0.223373
0.22145
0.221306
0.222349
0.225098
0.22556
0.225255
0.224405
0.225548
0.224824
0.22475
0.225074
0.225446
0.225251
0.224801
0.226816
0.227984
0.224847
0.225284
0.230908
0.232928
0.231647
0.229089
0.22971
0.230142
0.230308
0.2306
0.230822
0.230929
0.231016
0.231237
0.231543
0.231882
0.232227
0.232567
0.232802
0.232745
0.232087
0.231188
0.231062
0.231561
0.232185
0.232573
0.232847
0.232983
0.233006
0.233009
0.23301
0.23301
0.23301
0.23301
0.23301
0.233009
0.233009
0.233006
0.233008
0.232986
0.233
0.232892
0.232955
0.232562
0.232772
0.231781
0.232235
0.230348
0.231112
0.228608
0.229487
0.227432
0.227603
0.228459
0.228227
0.227423
0.22733
0.227964
0.227932
0.227227
0.227099
0.22759
0.227799
0.226273
0.226926
0.228244
0.228274
0.222358
0.223479
0.2261
0.224767
0.219914
0.220272
0.22077
0.22146
0.219305
0.219313
0.219415
0.219605
0.219662
0.21933
0.219176
0.21913
0.220572
0.219887
0.219419
0.223509
0.222456
0.220389
0.220397
0.221379
0.224666
0.225391
0.22495
0.223836
0.225412
0.224585
0.224381
0.22495
0.225292
0.225042
0.224595
0.226093
0.227122
0.22437
0.224693
0.230156
0.232942
0.231593
0.228046
0.22875
0.23035
0.230696
0.230972
0.231139
0.231236
0.231346
0.231581
0.231892
0.232217
0.232518
0.232738
0.232744
0.232213
0.231279
0.231043
0.231411
0.231984
0.232391
0.232732
0.232962
0.233003
0.233009
0.23301
0.23301
0.23301
0.23301
0.23301
0.23301
0.23301
0.233009
0.23301
0.233008
0.233009
0.232994
0.233004
0.232915
0.232969
0.232589
0.232802
0.231748
0.232241
0.230462
0.231219
0.229014
0.229695
0.227958
0.22806
0.228867
0.228726
0.228221
0.228054
0.228753
0.228665
0.228189
0.228014
0.228434
0.228671
0.227266
0.227998
0.229088
0.229137
0.222483
0.2237
0.226626
0.225131
0.219876
0.220262
0.220795
0.221516
0.219137
0.219213
0.219347
0.219547
0.219142
0.21903
0.218995
0.218995
0.219693
0.219234
0.218991
0.2228
0.221637
0.21962
0.21952
0.220482
0.224221
0.225117
0.224472
0.223183
0.2251
0.224237
0.223961
0.22465
0.224914
0.224518
0.224112
0.225425
0.226316
0.2239
0.224138
0.229599
0.232739
0.23105
0.227128
0.227815
0.230701
0.231012
0.231233
0.231398
0.231534
0.231694
0.231934
0.232231
0.232512
0.232686
0.232723
0.232276
0.231378
0.231036
0.231271
0.231773
0.232194
0.232586
0.232926
0.232998
0.233009
0.23301
0.23301
0.23301
0.23301
0.23301
0.23301
0.23301
0.23301
0.233009
0.23301
0.233008
0.233009
0.233
0.233006
0.232947
0.232984
0.232688
0.232862
0.231876
0.23237
0.230833
0.231479
0.22957
0.229769
0.230273
0.228631
0.228645
0.229447
0.229382
0.229107
0.22891
0.229677
0.229528
0.229072
0.2289
0.229326
0.229543
0.227956
0.228809
0.229758
0.229843
0.222525
0.223786
0.226947
0.225304
0.219835
0.220233
0.220783
0.221532
0.219035
0.219117
0.219257
0.219465
0.218884
0.218856
0.218849
0.218862
0.219119
0.218846
0.218758
0.221851
0.220342
0.218982
0.218951
0.219366
0.223428
0.224526
0.223398
0.221873
0.22439
0.223767
0.223513
0.224
0.223994
0.223611
0.223465
0.224756
0.225532
0.223444
0.223613
0.228366
0.229183
0.227894
0.226211
0.226641
0.230951
0.23123
0.231447
0.231645
0.231832
0.23204
0.232287
0.232504
0.232642
0.232671
0.23228
0.231448
0.231031
0.23115
0.231571
0.231993
0.232424
0.232863
0.232989
0.233008
0.23301
0.23301
0.23301
0.23301
0.23301
0.23301
0.23301
0.23301
0.23301
0.23301
0.23301
0.233009
0.233009
0.233002
0.233007
0.232964
0.232991
0.232769
0.232902
0.232077
0.232511
0.231422
0.231815
0.230153
0.23023
0.231038
0.230904
0.229431
0.229389
0.230129
0.230157
0.230027
0.229851
0.230624
0.23048
0.229836
0.229727
0.230201
0.230354
0.22847
0.229445
0.230342
0.230475
0.222487
0.223778
0.227052
0.225342
0.21976
0.220169
0.220725
0.221479
0.218919
0.219018
0.219154
0.219347
0.218734
0.218722
0.218734
0.218793
0.218764
0.218684
0.218642
0.220163
0.219409
0.218804
0.218874
0.219088
0.221791
0.223281
0.22185
0.220338
0.223049
0.223302
0.223114
0.223271
0.222892
0.222767
0.222834
0.224098
0.224809
0.223003
0.223106
0.226453
0.227031
0.225811
0.225338
0.225562
0.23108
0.231407
0.231651
0.231875
0.232096
0.232308
0.232489
0.232605
0.232617
0.232263
0.23146
0.231021
0.231051
0.23139
0.231798
0.232255
0.232766
0.232974
0.233006
0.23301
0.23301
0.23301
0.23301
0.23301
0.23301
0.23301
0.23301
0.23301
0.23301
0.23301
0.23301
0.23301
0.233009
0.233009
0.233004
0.233008
0.232975
0.232996
0.23282
0.232926
0.232264
0.232614
0.231465
0.231995
0.232068
0.232323
0.230849
0.230849
0.231457
0.230334
0.230217
0.230894
0.230969
0.230861
0.230748
0.231173
0.231148
0.230494
0.230461
0.230965
0.231037
0.228696
0.229923
0.230713
0.23096
0.222178
0.223481
0.226953
0.225127
0.219621
0.21999
0.220471
0.221196
0.218873
0.218979
0.219105
0.219268
0.218611
0.218634
0.218695
0.218778
0.218661
0.218522
0.218512
0.219651
0.219384
0.218692
0.218936
0.219118
0.220663
0.221871
0.220943
0.22012
0.221938
0.22267
0.22265
0.222534
0.222125
0.222231
0.222339
0.223535
0.224131
0.222598
0.22276
0.225286
0.229434
0.225153
0.224564
0.224686
0.231134
0.231513
0.2318
0.232051
0.232268
0.23244
0.232547
0.232545
0.232206
0.231445
0.230998
0.230972
0.231234
0.231618
0.23209
0.23265
0.232951
0.233003
0.233009
0.23301
0.23301
0.23301
0.23301
0.23301
0.23301
0.23301
0.23301
0.23301
0.23301
0.23301
0.23301
0.23301
0.233009
0.23301
0.233006
0.233008
0.232987
0.233001
0.232881
0.232953
0.232539
0.23275
0.231975
0.232326
0.232362
0.232695
0.231509
0.231479
0.231948
0.231111
0.231054
0.231475
0.231414
0.231218
0.231194
0.231223
0.231254
0.231041
0.231059
0.231237
0.231242
0.228725
0.2301
0.230774
0.231087
0.22162
0.222816
0.226347
0.224438
0.219477
0.219815
0.220227
0.220743
0.218869
0.218981
0.219095
0.219242
0.218548
0.218589
0.218659
0.218825
0.218578
0.21853
0.218427
0.219814
0.218632
0.21841
0.218484
0.218536
0.220631
0.221318
0.221048
0.220238
0.221676
0.222267
0.222246
0.222182
0.2219
0.221977
0.222201
0.223032
0.223522
0.222351
0.222404
0.224502
0.229436
0.224746
0.223887
0.224065
0.231134
0.2315
0.23185
0.232119
0.232312
0.232421
0.232404
0.232083
0.23139
0.230961
0.230904
0.231104
0.231462
0.231938
0.232532
0.232921
0.232999
0.233009
0.23301
0.23301
0.23301
0.23301
0.23301
0.23301
0.23301
0.23301