/*--------------------------------*- C++ -*----------------------------------*\
  =========                 |
  \\      /  F ield         | OpenFOAM: The Open Source CFD Toolbox
   \\    /   O peration     | Website:  https://openfoam.org
    \\  /    A nd           | Version:  dev
     \\/     M anipulation  |
\*---------------------------------------------------------------------------*/
FoamFile
{
    version     2.0;
    format      ascii;
    class       volScalarField;
    location    "2500";
    object      omega;
}
// * * * * * * * * * * * * * * * * * * * * * * * * * * * * * * * * * * * * * //

dimensions      [0 0 -1 0 0 0 0];

internalField   nonuniform List<scalar> 
9842
(
1.29441
1.30356
1.25917
1.20536
1.41587
1.13463
1.09224
1.42012
1.35063
1.05754
1.0399
1.37523
1.4207
1.2082
1.03417
1.017
1.26954
1.44161
1.34563
1.11273
1.0226
1.00651
1.15362
1.42738
1.41251
1.20683
1.07111
1.01462
1.00119
1.08339
1.38051
1.43198
1.30985
1.1195
1.04866
1.00918
0.995397
1.04293
1.28808
1.43211
1.38358
1.18256
1.07791
1.03275
1.00558
0.990938
1.017
1.18676
1.41619
1.4139
1.26405
1.10787
1.05355
1.02096
1.00308
0.988801
1.00175
1.1027
1.37229
1.42038
1.34021
1.15158
1.06972
1.03609
1.01257
1.00119
0.989344
0.993403
1.05481
1.29495
1.41839
1.38429
1.21369
1.0881
1.04659
1.02266
1.00621
0.999984
0.991491
0.987796
1.02463
1.20232
1.40414
1.40377
1.28599
1.11764
1.05471
1.02995
1.01231
1.00103
0.998524
0.993067
0.981289
1.0047
1.11485
1.3661
1.40702
1.34491
1.16693
1.06589
1.03443
1.01698
1.00396
0.997326
0.997621
0.993508
0.976485
0.991031
1.06328
1.3
1.40515
1.37631
1.22798
1.08699
1.03818
1.01969
1.00659
0.997507
0.994022
0.99686
0.992962
0.974152
0.981725
1.02884
1.2116
1.3933
1.39155
1.29038
1.12181
1.04479
1.02097
1.00812
0.998242
0.992104
0.99156
0.996187
0.992265
0.974815
0.976219
1.006
1.12626
1.35964
1.39383
1.33839
1.17525
1.0576
1.02088
1.00844
0.998812
0.991568
0.987641
0.989619
0.995619
0.99193
0.975747
0.970358
0.990758
1.06953
1.29922
1.39187
1.36486
1.23166
1.08265
1.02325
1.00712
0.998665
0.9913
0.985589
0.9841
0.98801
0.995139
0.991973
0.975797
0.964961
0.979187
1.03192
1.21754
1.38067
1.37832
1.28514
1.12443
1.03077
1.00143
0.996521
0.990518
0.984718
0.980367
0.981294
0.986628
0.994738
0.992145
0.975046
0.961248
0.970644
1.00596
1.13437
1.3503
1.38003
1.32733
1.17789
1.0476
1.0019
0.989713
0.987803
0.983567
0.978504
0.976096
0.979001
0.985451
0.994402
0.992343
0.974003
0.959637
0.964165
0.988067
1.07173
1.29482
1.3781
1.35192
1.22875
1.08127
1.00628
0.982445
0.980987
0.980799
0.977259
0.972983
0.972532
0.977059
0.984429
0.994127
0.992561
0.972937
0.958144
0.95638
0.974174
1.03174
1.22171
1.36845
1.36467
1.27647
1.12614
1.01823
0.981271
0.972405
0.974461
0.974807
0.971354
0.968188
0.969598
0.975385
0.983559
0.993898
0.992762
0.971992
0.955857
0.948071
0.961652
1.00183
1.14357
1.3438
1.36752
1.31507
1.17652
1.04303
0.983948
0.965665
0.966154
0.969447
0.969451
0.965862
0.963999
0.967166
0.973985
0.982851
0.993725
0.992966
0.971088
0.952971
0.941491
0.95068
0.979022
1.0742
1.29726
1.36687
1.33976
1.22213
1.08055
0.992256
0.962409
0.957448
0.961701
0.965359
0.964243
0.960746
0.960452
0.965135
0.972778
0.982217
0.993576
0.993027
0.970064
0.949904
0.935921
0.939607
0.960877
1.02861
1.23551
1.36076
1.35307
1.266
1.12453
1.01007
0.963978
0.950756
0.95261
0.958428
0.961351
0.959126
0.956182
0.957565
0.963485
0.971759
0.981669
0.993412
0.992966
0.968844
0.946528
0.930361
0.928276
0.94486
0.994386
1.16172
1.34352
1.35858
1.30255
1.17069
1.03949
0.969553
0.945937
0.944475
0.949645
0.955755
0.957193
0.954243
0.952224
0.955202
0.962115
0.971005
0.981342
0.993416
0.992852
0.967339
0.94277
0.924464
0.917468
0.930828
0.967396
1.09181
1.30787
1.3602
1.3287
1.21219
1.07716
0.981964
0.946606
0.937296
0.940837
0.947808
0.953165
0.952948
0.949601
0.948812
0.953138
0.960894
0.970267
0.98098
0.993365
0.992663
0.965573
0.938764
0.918143
0.907086
0.918046
0.945923
1.03536
1.25835
1.35712
1.34398
1.25219
1.11916
1.00431
0.950077
0.932497
0.932711
0.938986
0.946585
0.950383
0.948585
0.945414
0.946029
0.951551
0.959925
0.96964
0.980792
0.993368
0.992406
0.963513
0.93442
0.911479
0.897208
0.905652
0.928021
0.995748
1.1977
1.34658
1.352
1.2875
1.15993
1.03483
0.958323
0.931596
0.926135
0.930396
0.938283
0.94532
0.947073
0.944227
0.94168
0.943791
0.950425
0.959299
0.969276
0.980803
0.993463
0.992114
0.961053
0.929602
0.904366
0.887675
0.893609
0.912546
0.96538
1.13265
1.32385
1.3554
1.31642
1.19746
1.07082
0.974726
0.933428
0.921724
0.923061
0.929706
0.938114
0.94369
0.943344
0.939893
0.938398
0.941795
0.949355
0.958755
0.969077
0.980969
0.99365
0.991779
0.95809
0.924305
0.896929
0.878451
0.882473
0.898889
0.941154
1.0733
1.28679
1.35509
1.33479
1.23291
1.10834
0.998017
0.938852
0.919403
0.917298
0.922077
0.930088
0.938175
0.941621
0.939388
0.935909
0.935718
0.940497
0.948792
0.95831
0.96893
0.981099
0.993952
0.991359
0.954524
0.918358
0.889368
0.869755
0.872354
0.886853
0.921612
1.02251
1.2406
1.35103
1.34569
1.26868
1.14314
1.02738
0.950068
0.920471
0.913257
0.915536
0.922389
0.931089
0.937907
0.938646
0.935317
0.932471
0.933757
0.93975
0.948586
0.958482
0.969561
0.981662
0.994416
0.990788
0.950348
0.911984
0.881901
0.861875
0.863409
0.876325
0.905823
0.985062
1.19036
1.33916
1.35103
1.3017
1.17752
1.05978
0.967936
0.924049
0.910979
0.911074
0.915639
0.92343
0.931387
0.936535
0.93503
0.93137
0.92958
0.932319
0.93953
0.948887
0.959314
0.97065
0.982828
0.995354
0.989966
0.945604
0.90552
0.874813
0.855175
0.85593
0.867335
0.893119
0.957559
1.13702
1.31528
1.35518
1.32452
1.21003
1.09196
0.991263
0.931618
0.911703
0.907255
0.911146
0.917285
0.925066
0.932065
0.934292
0.931314
0.927876
0.92726
0.931203
0.939263
0.94963
0.960821
0.972233
0.984472
0.998612
0.994541
0.988731
0.940471
0.8993
0.868456
0.849908
0.850171
0.860049
0.883023
0.937166
1.08735
1.28093
1.35445
1.33954
1.24717
1.12288
1.01789
0.944807
0.914226
0.906283
0.906963
0.913406
0.920071
0.927031
0.932226
0.931231
0.927645
0.925041
0.925988
0.93139
0.940044
0.951336
0.963346
0.975036
0.989056
0.983906
0.999096
0.995234
0.986883
0.935278
0.893713
0.863215
0.846184
0.846127
0.854624
0.875344
0.921972
1.04626
1.24087
1.34928
1.34897
1.28182
1.15489
1.04615
0.962263
0.919565
0.9072
0.905102
0.90876
0.914984
0.921245
0.92737
0.930468
0.927674
0.924526
0.923524
0.926434
0.932864
0.942579
0.954994
0.967979
0.964232
0.979904
0.96944
0.976422
0.990232
0.985714
0.999365
0.996334
0.984386
0.930674
0.889261
0.859456
0.844128
0.843651
0.851002
0.870104
0.911068
1.01442
1.20005
1.3354
1.35286
1.31161
1.18844
1.07503
0.9829
0.929628
0.909958
0.905669
0.907229
0.912583
0.917702
0.922841
0.92722
0.927293
0.923962
0.921651
0.922609
0.927624
0.935884
0.94772
0.960883
0.95764
0.966627
0.982121
0.974315
0.979822
0.991965
0.98789
0.999758
0.99777
0.981678
0.927156
0.886322
0.857527
0.843891
0.842754
0.849006
0.867399
0.904003
0.991191
1.16204
1.31131
1.35397
1.33036
1.22331
1.10475
1.00624
0.942446
0.916007
0.907906
0.907913
0.912784
0.917381
0.921308
0.924457
0.925651
0.923226
0.920075
0.919212
0.922821
0.930186
0.941455
0.954485
0.951792
0.963998
0.961801
0.972309
0.985267
0.978619
0.984422
0.993963
0.990885
1.00024
0.999445
0.979086
0.92476
0.884945
0.857617
0.845533
0.843504
0.848673
0.866883
0.900099
0.974895
1.12938
1.28376
1.35211
1.34183
1.25881
1.13589
1.03355
0.958739
0.925832
0.913099
0.910311
0.914302
0.918246
0.921575
0.92399
0.924828
0.923021
0.919632
0.917362
0.919029
0.926069
0.936761
0.949286
0.947359
0.959317
0.957447
0.970297
0.96855
0.977717
0.990048
0.984626
0.990482
0.996677
0.995338
1.00113
1.00133
0.977048
0.923901
0.885196
0.859761
0.849004
0.846196
0.850335
0.868453
0.899396
0.964552
1.10213
1.25553
1.34578
1.3481
1.29137
1.16859
1.06312
0.979331
0.938299
0.922141
0.915513
0.918065
0.921215
0.92327
0.924567
0.924919
0.923092
0.91964
0.917
0.917134
0.922589
0.933328
0.945486
0.944154
0.955567
0.954379
0.966902
0.965799
0.976728
0.975881
0.985356
0.995638
0.992465
0.997718
1.00047
1.00047
1.00226
1.00411
0.975954
0.924705
0.88727
0.86375
0.85413
0.850806
0.854842
0.872674
0.900498
0.958369
1.08137
1.22881
1.33334
1.3497
1.31586
1.20308
1.09397
1.00438
0.952619
0.934399
0.925614
0.926482
0.928384
0.928144
0.927047
0.925846
0.923456
0.919638
0.916443
0.915384
0.91917
0.929595
0.942497
0.941207
0.953152
0.952369
0.965009
0.964615
0.975356
0.975574
0.986055
0.986724
0.995882
1.00197
1.00376
1.00769
1.00471
1.00592
1.00357
1.00717
0.976155
0.927198
0.89105
0.86932
0.860731
0.857391
0.862084
0.880058
0.90569
0.95682
1.06738
1.20626
1.31707
1.35106
1.33108
1.23783
1.12581
1.03178
0.972415
0.947971
0.939111
0.939254
0.940941
0.938807
0.933206
0.929006
0.924783
0.919831
0.91533
0.912951
0.914919
0.924614
0.939594
0.938189
0.951355
0.95047
0.96441
0.964417
0.976218
0.977392
0.987738
0.989489
0.999074
1.00141
1.01059
1.01
1.01943
1.02243
1.00905
1.01237
1.00516
1.01047
0.977957
0.931579
0.896398
0.876379
0.868542
0.866063
0.872491
0.890928
0.914844
0.958939
1.06063
1.18967
1.29977
1.35135
1.34161
1.27208
1.15791
1.05956
0.996692
0.966629
0.953139
0.95581
0.956079
0.954244
0.947446
0.937275
0.929266
0.921534
0.915137
0.911088
0.911135
0.919948
0.936165
0.934267
0.949491
0.948195
0.964339
0.964319
0.978783
0.980488
0.992551
0.995887
1.00452
1.00953
1.01674
1.02124
1.03048
1.02091
1.04016
1.0431
1.01383
1.02
1.00695
1.01408
0.981252
0.938127
0.903533
0.88495
0.877574
0.877068
0.886633
0.90525
0.927734
0.968312
1.0603
1.18054
1.2855
1.34969
1.34899
1.30211
1.19274
1.08929
1.02447
0.991732
0.973564
0.974134
0.978381
0.976009
0.970787
0.959092
0.943215
0.9284
0.917173
0.910877
0.908901
0.915674
0.931905
0.929919
0.947162
0.945701
0.964198
0.964003
0.982077
0.98389
0.999669
1.00457
1.01616
1.02314
1.0283
1.03842
1.03992
1.04896
1.0565
1.03594
1.06736
1.06975
1.01919
1.0291
1.00884
1.01784
0.984642
0.946373
0.912798
0.895431
0.888563
0.890925
0.904506
0.923369
0.945918
0.986498
1.06701
1.17897
1.27747
1.34556
1.36044
1.32816
1.23213
1.12522
1.05677
1.02315
1.00184
1.00121
1.00763
1.00603
0.997814
0.986654
0.969774
0.948944
0.92765
0.913053
0.907846
0.912531
0.928424
0.924852
0.944106
0.943107
0.964092
0.964239
0.985803
0.989702
1.00992
1.01768
1.03253
1.04695
1.05152
1.06994
1.06301
1.08317
1.0711
1.0889
1.09052
1.05726
1.10255
1.10013
1.02505
1.04028
1.01047
1.02133
0.98645
0.954984
0.924093
0.908238
0.902188
0.908064
0.926139
0.946334
0.970431
1.01239
1.08851
1.1837
1.27631
1.34487
1.37273
1.35206
1.27711
1.17065
1.09819
1.05732
1.03442
1.03858
1.04758
1.04419
1.02919
1.01065
0.991758
0.969679
0.944557
0.921298
0.907813
0.909542
0.930576
0.941145
0.943993
0.964679
0.966008
0.994261
1.00269
1.03054
1.05778
1.07213
1.12023
1.10711
1.18619
1.12489
1.22139
1.12425
1.21205
1.11638
1.17549
1.13949
1.07924
1.15072
1.13977
1.03101
1.05158
1.01146
1.0242
0.984711
0.9613
0.936794
0.923135
0.919021
0.929262
0.951495
0.97483
1.00257
1.04829
1.12267
1.20361
1.28105
1.34825
1.38562
1.37786
1.32336
1.22671
1.147
1.102
1.06965
1.08007
1.10467
1.09878
1.07631
1.04365
1.01546
0.987787
0.958418
0.93111
0.910705
0.909292
0.929943
0.97844
0.986653
0.968691
0.973181
1.01434
1.03464
1.09473
1.16095
1.21663
1.39716
1.35637
1.68
1.45291
1.94635
1.44474
2.01408
1.34976
1.84748
1.23406
1.54266
1.28527
1.10381
1.30952
1.28039
1.03565
1.0659
1.01196
1.02511
0.979935
0.963706
0.948934
0.939334
0.939219
0.954638
0.980683
1.0094
1.04364
1.0963
1.17048
1.2435
1.3031
1.36329
1.40662
1.41146
1.37548
1.29183
1.20877
1.15376
1.12035
1.12102
1.16367
1.17647
1.15801
1.11134
1.0607
1.01959
0.981685
0.950495
0.92586
0.921745
0.935318
0.997904
1.0216
1.16008
1.2287
1.06498
1.10594
1.25587
1.40197
1.65048
2.02367
2.24443
3.02657
2.84934
4.14648
3.20859
5.04971
3.00997
5.30075
2.45868
4.54274
1.7634
3.21302
1.94789
1.2023
2.02823
1.93461
1.04101
1.12255
1.01123
1.02456
0.979931
0.967682
0.958854
0.95607
0.962669
0.984016
1.01413
1.05042
1.09511
1.15898
1.23731
1.30519
1.35968
1.40826
1.45237
1.4788
1.45338
1.38105
1.28774
1.22038
1.18344
1.17518
1.20796
1.25764
1.27209
1.23976
1.1623
1.08851
1.03481
1.00317
0.99336
1.01481
1.10469
1.10738
0.912187
1.3321
1.4974
2.16924
2.56778
1.59992
1.84296
2.50935
3.14702
3.99601
5.10284
5.71244
7.38009
7.2027
9.36597
8.10133
10.766
7.97871
11.3165
6.41884
10.7112
3.93987
8.3119
4.45479
1.70175
4.59392
4.25439
1.06443
1.42976
1.0085
1.0302
1.00105
0.981181
0.969994
0.97113
0.988215
1.01638
1.05224
1.09794
1.15814
1.23973
1.33027
1.40333
1.46355
1.51425
1.56213
1.59246
1.57946
1.51221
1.41042
1.31766
1.2729
1.25777
1.25828
1.31806
1.38553
1.40409
1.35223
1.24917
1.19242
1.21524
1.33359
1.52679
1.8967
3.17352
1.81487
3.04739
3.15349
3.92485
5.67418
6.73805
3.88745
4.71889
6.32733
7.6104
9.00072
10.4885
11.2961
12.792
12.842
14.319
13.7603
15.269
13.9364
15.7927
12.965
15.725
9.82044
14.5666
10.6789
3.50934
10.6929
9.73007
1.20554
2.58555
1.00799
1.07266
1.0173
0.996617
0.988018
1.0142
1.05091
1.09409
1.15235
1.23317
1.34199
1.4589
1.55603
1.6378
1.70647
1.75798
1.78352
1.76935
1.70534
1.59647
1.47932
1.41114
1.3809
1.34886
1.37697
1.47249
1.56559
1.60186
1.60975
1.72726
2.11345
2.68279
3.33916
4.39622
6.89891
8.30567
10.1916
5.03004
6.84126
7.9699
9.27057
11.1449
12.0659
8.88419
10.0748
11.7802
12.8221
13.8597
14.5775
15.237
15.7907
16.1705
16.6865
16.8107
17.4211
17.1578
18.0475
16.9784
18.3517
15.5873
18.01
16.1988
7.7799
16.3926
16.0205
1.76214
5.36222
1.01188
1.25199
1.03336
1.02519
1.03839
1.09048
1.13826
1.21287
1.32016
1.46804
1.6318
1.78254
1.91754
2.02627
2.09067
2.09803
2.0584
1.97301
1.84829
1.7061
1.60076
1.54702
1.49677
1.47415
1.54382
1.69692
1.90928
2.31881
3.19655
4.73822
6.52585
7.9732
8.86593
10.3217
11.0234
12.2813
12.5069
12.9862
10.5904
11.6938
12.7999
13.333
14.4062
14.6145
13.5499
14.0632
15.0585
15.3415
16.1184
16.2907
17.0014
17.1965
17.8919
18.3359
18.7997
19.5494
19.4795
20.5837
19.6277
21.086
18.9549
20.9107
19.7514
14.3262
20.2899
20.5338
17.9204
3.2415
10.6208
1.03343
1.67273
1.07057
1.08083
1.12688
1.18922
1.27543
1.4187
1.61708
1.8526
2.09285
2.32398
2.51066
2.60368
2.58939
2.48958
2.34041
2.16901
1.99292
1.84124
1.75762
1.70213
1.64617
1.6429
1.80184
2.24304
3.28939
5.45651
8.18415
10.006
10.9149
11.4021
11.9257
12.859
13.2045
13.3983
13.9907
13.9294
13.7116
13.9494
14.7325
14.7261
15.4933
15.4101
15.4886
15.5251
16.3497
16.3249
17.3288
17.4291
18.7491
19.0995
20.3038
21.0356
21.6223
22.7029
22.5242
23.9458
22.6864
24.4361
22.0535
23.8632
22.8146
21.4952
22.8485
20.1493
16.2446
20.0484
21.9866
23.5613
23.136
22.1255
5.64452
19.0317
18.1544
12.1539
1.06189
2.18388
1.14238
1.17378
1.23762
1.34684
1.51672
1.78635
2.1136
2.48076
2.84887
3.14882
3.29454
3.26745
3.10459
2.86819
2.60176
2.35646
2.15199
2.02107
1.95857
1.90462
1.85125
1.92908
2.5574
4.28947
7.43956
10.1474
11.3291
11.8098
11.9
11.9895
12.6115
13.1751
12.8225
13.7973
13.5208
14.326
14.0595
14.6747
14.5471
15.2606
15.0653
15.9771
15.7847
16.2564
16.1331
17.482
17.4675
19.3995
19.6203
21.6411
22.0932
23.6914
24.5448
25.3196
26.5685
24.9243
25.7371
26.4972
27.3728
24.7674
25.8737
26.7697
27.9854
26.8245
24.4464
23.8832
25.1516
25.553
24.3824
22.1036
21.8117
23.6718
25.0745
24.7984
23.7875
15.258
5.75222
12.4981
21.3414
20.369
1.09498
7.22711
4.12094
1.77384
1.24142
1.30449
1.39729
1.62805
1.95162
2.4029
2.91646
3.451
3.8761
4.08794
4.06089
3.85543
3.55622
3.21368
2.85233
2.56301
2.3608
2.2642
2.22469
2.1782
2.18552
2.85272
5.1823
8.84169
10.9656
11.6099
11.7249
11.7167
11.7738
11.9947
12.6661
13.0928
12.9789
13.753
13.4367
14.3149
14.0495
14.8376
14.5794
15.5824
15.3853
17.1705
17.0022
17.4171
17.3171
19.7162
19.6826
22.4199
22.5327
25.1736
25.5243
27.6071
28.3485
28.0591
28.8174
29.3716
29.9569
27.7311
28.6451
29.4755
26.6829
27.8297
28.9803
30.1455
29.0022
26.2855
25.6099
26.8911
27.5042
26.0853
23.7607
23.5851
25.2921
26.4669
26.7657
25.4062
18.8684
15.7343
23.2006
22.5248
2.1172
1.12856
1.67386
11.0082
5.74478
1.35626
1.47274
1.6937
2.13723
2.68068
3.36736
4.06241
4.60848
4.85735
4.8379
4.62716
4.28627
3.88813
3.47417
3.08241
2.78656
2.62608
2.57445
2.5529
2.55426
3.14564
5.76688
9.63543
11.2417
11.5319
11.3883
11.3099
11.4639
11.9831
12.8162
13.7473
13.8914
13.6007
13.6283
13.8061
13.6357
14.8825
14.7645
15.2029
15.0355
16.8416
16.6874
19.0812
18.8047
19.5692
19.3567
22.4591
22.238
25.603
25.4775
28.7642
28.8468
30.3564
30.7564
31.0126
31.2506
30.2283
30.8862
31.4498
31.9219
29.9696
30.8767
31.6883
28.7714
30.0533
31.2461
32.5147
31.3143
28.248
27.4594
28.9253
29.6491
27.9447
25.4132
25.2866
26.9789
28.338
28.6456
27.0899
21.327
19.1537
24.9874
24.4382
3.42918
1.1934
2.03252
14.79
8.99606
1.49527
1.78456
2.25563
2.97219
3.77655
4.63947
5.25468
5.50485
5.47412
5.28351
4.96941
4.56412
4.11812
3.67147
3.28704
3.03832
2.93868
2.92483
2.9369
3.41059
5.99473
9.96089
11.23
11.3098
10.9997
10.9996
11.3304
12.1998
13.4734
14.903
14.9296
15.2191
14.673
14.7709
14.6783
14.6525
16.2013
16.0793
16.5214
16.3575
18.5642
18.307
20.8773
20.3829
21.854
21.3821
25.112
24.4807
28.7736
28.4245
31.4034
31.5126
31.596
31.5974
32.3048
32.6096
32.8633
33.0935
32.4014
32.9948
33.4677
33.8312
32.2528
33.1544
33.9194
31.056
32.4405
33.6378
35.0048
33.7698
30.4501
29.5239
31.165
31.9968
30.0295
27.1053
26.9968
28.8479
30.4404
30.7584
28.9396
23.5152
21.8081
26.7359
26.2783
4.74849
1.20094
2.07656
18.4399
12.287
1.7631
2.42509
3.16674
4.17119
5.13032
5.79098
5.97125
5.92131
5.73797
5.47343
5.13105
4.72062
4.27167
3.83524
3.49751
3.32185
3.28107
3.29731
3.65714
5.98109
9.97675
11.1763
10.995
10.6477
10.8477
11.3714
12.4245
13.6137
14.8005
15.7456
15.6468
15.824
15.8049
15.8598
15.8263
15.983
15.9091
17.4506
17.1524
18.0476
17.7554
19.8807
19.3607
22.0424
21.2092
23.7164
22.8791
27.6421
26.6156
32.6991
32.2518
33.314
33.5442
33.7744
34.0681
34.1244
34.3983
34.7112
35.0897
34.5118
34.922
35.2011
35.4343
34.622
35.4019
35.9209
33.5156
34.9884
36.0551
37.4007
36.3349
32.8477
31.7905
33.6003
34.5185
32.3167
28.9151
28.7674
30.9578
32.7468
33.0735
31.021
25.5069
24.1384
28.505
28.0953
5.161
1.19474
2.14706
21.4046
14.7044
2.41048
3.44152
4.42926
5.56651
6.16047
6.29103
6.18126
5.99521
5.75185
5.47403
5.15597
4.78309
4.37139
3.98646
3.72844
3.62929
3.62717
3.87963
5.88632
9.90245
11.0713
10.722
10.3343
10.551
11.2233
12.1914
13.2387
14.1795
14.8804
15.8987
15.4983
16.1629
16.0377
16.4394
16.2856
16.8752
16.6343
17.9215
17.5119
18.8559
18.3694
20.4024
19.673
22.799
21.5929
25.3926
24.0837
31.1973
29.7324
37.3618
37.3553
36.7068
37.1948
35.5477
36.0657
36.5886
37.0255
35.7255
36.1588
36.768
37.5487
36.1789
36.3147
36.4852
36.8331
36.7897
37.0931
37.1372
36.142
37.5925
37.9474
38.88
38.5912
35.417
34.2578
36.2157
37.1976
34.8036
30.9257
30.6897
33.2769
35.2547
35.5991
33.331
27.4334
26.3475
30.3557
29.9406
5.52077
1.20202
2.56046
24.2794
16.9803
3.47694
4.75811
5.83757
6.46881
6.4845
6.34928
6.08904
5.81484
5.57383
5.3444
5.08958
4.77754
4.43101
4.13382
3.96831
3.92683
4.0832
5.64999
9.69077
10.9549
10.5263
10.1443
10.2179
10.7276
11.4184
11.9493
12.0498
11.3892
13.058
10.5792
15.6104
14.8514
16.1761
15.9436
16.5694
16.3609
17.1426
16.8262
17.8496
17.3355
19.0161
18.4135
20.5013
19.4854
23.9753
22.1894
27.8703
25.899
36.0512
34.8948
34.546
41.2312
41.1761
40.0452
40.7866
38.4563
39.3941
40.2477
40.8934
37.4517
38.3693
39.5488
40.9095
37.1477
37.2978
37.7703
38.6497
38.0086
37.8546
37.7656
38.7359
39.5844
38.7394
39.3302
39.7062
38.1352
36.8986
38.9631
39.7493
37.4646
33.1815
32.8293
35.8178
37.9428
38.3314
35.8338
29.4109
28.7606
32.3599
31.926
6.85278
1.96257
5.71417
27.6304
20.3406
4.82893
6.16502
6.64346
6.6855
6.4291
6.08525
5.77803
5.54511
5.34847
5.16038
4.963
4.72335
4.46875
4.27781
4.19413
4.2699
5.41481
9.23238
10.8169
10.4195
10.0701
10.0633
10.1489
9.7267
8.68707
7.53233
6.72191
5.67987
9.04427
6.35653
14.1901
11.9292
15.6645
15.163
16.2263
15.9654
16.8912
16.5246
17.0512
16.4533
18.5839
17.7731
20.5944
19.2039
26.3338
23.8502
31.7309
28.9888
38.9989
37.9641
37.9497
35.9077
45.2824
44.8699
42.7408
44.0058
42.3059
43.5743
44.571
45.1696
39.9317
41.5476
43.3649
45.1974
37.9606
38.6168
39.8097
41.4864
38.3955
38.2612
38.5518
40.4339
40.411
38.8207
39.2729
39.7943
40.6154
39.664
41.3514
41.1876
40.2561
35.6007
35.1644
38.5533
40.8062
41.2591
38.4796
31.6003
31.6492
34.6181
34.1693
12.1044
11.2358
18.2599
31.7615
28.3208
6.26194
6.90975
6.7953
6.52234
6.04976
5.64807
5.3969
5.26473
5.13365
4.98089
4.82386
4.65662
4.50347
4.41362
4.43686
5.2208
8.6152
10.6295
10.3637
10.0618
10.0632
9.83651
8.42306
6.00202
4.81766
4.35033
4.0634
4.40218
3.93423
5.87408
4.82729
9.93205
7.51093
14.0507
12.4003
15.2468
14.8169
15.9829
15.6027
15.5856
14.8353
17.852
16.5978
21.5869
19.4852
28.5072
25.917
34.5846
32.8391
31.1216
41.2319
39.5311
38.0471
36.2965
48.8236
47.7916
44.2314
46.2098
46.8516
48.1579
48.9756
49.2103
43.5299
45.7608
47.9642
49.9372
39.467
40.9984
43.0632
45.4876
38.7259
39.1645
40.3785
40.9915
40.241
39.236
39.8228
39.7914
41.8834
42.024
42.5733
41.5889
42.6913
38.1005
37.6114
41.4065
43.3427
43.8096
41.0781
34.1346
34.9894
37.1552
36.7933
27.7665
30.0482
38.4378
37.0717
38.9144
7.05602
7.01407
6.57741
6.03497
5.51991
5.17438
5.02109
4.99643
4.93881
4.82053
4.69763
4.59737
4.53516
4.55029
5.07046
7.90984
10.3827
10.3168
10.0778
10.1143
9.80347
7.95206
4.8578
3.65467
3.36933
3.3579
3.47234
4.04789
3.73419
4.81276
4.37436
6.46267
5.45538
9.89239
7.97408
12.9088
11.6743
14.2488
13.6786
14.2333
12.864
17.5528
15.8128
23.3878
20.8939
29.7753
28.4999
26.9077
34.7941
33.4278
30.8793
32.1855
42.0282
39.9368
37.4824
35.8923
51.5178
49.6867
44.4611
47.286
51.5109
52.5407
52.8838
52.6246
48.0555
50.5481
52.7779
54.5932
42.2789
44.6981
47.4332
50.2571
39.9011
41.424
43.6953
40.7679
40.4046
40.7179
41.7071
40.5095
42.278
43.3089
43.0866
41.432
44.0557
40.5871
40.2217
43.7591
44.7152
44.9954
43.3391
37.0212
38.4474
39.863
39.6579
38.2896
60.7533
56.1834
41.0536
40.6453
7.18629
6.72313
6.05461
5.4854
5.04854
4.80273
4.74126
4.77705
4.76784
4.68349
4.60024
4.55306
4.56785
4.9423
7.20176
10.0615
10.2531
10.1118
10.2673
9.90901
8.0015
4.71506
3.22284
2.92329
2.95235
3.0883
3.44939
3.22681
3.89699
3.6255
4.52066
4.1717
5.43295
4.91704
6.99599
6.10339
9.45401
8.14482
11.7225
10.6372
13.8405
12.0241
18.4337
16.0244
24.5699
22.216
29.9422
28.8924
27.9697
26.7588
34.5739
33.3653
31.0038
32.0043
41.8609
39.4675
36.1044
34.8417
53.4905
50.7943
43.9389
47.5049
55.855
56.3771
56.2912
55.3718
52.9565
55.3758
57.4016
58.9194
46.441
49.424
52.4348
55.2836
42.6197
45.2842
48.3623
41.1075
41.3699
43.9819
45.6315
42.8674
42.2473
43.9055
43.1218
41.9415
44.6988
43.145
42.9523
45.1895
45.177
45.8083
45.5642
39.8773
40.9603
42.7426
42.4077
41.287
74.5541
79.5044
41.1394
39.4563
6.94609
6.18248
5.52526
5.042
4.71208
4.55043
4.54207
4.6002
4.62162
4.57582
4.53952
4.55359
4.81801
6.56739
9.61734
10.1362
10.1222
10.5002
10.2375
8.46722
5.11441
3.12897
2.67509
2.66264
2.77805
2.91352
3.32157
3.11581
3.7743
3.54179
4.37154
4.05748
5.21673
4.75742
6.45704
5.78455
8.20529
7.2635
10.5537
9.29371
15.0913
13.0567
19.8293
17.4028
25.7237
24.5024
23.0506
30.0922
29.0395
28.2538
27.1875
33.8727
32.9626
31.0535
31.884
40.6045
37.9703
34.4032
33.6403
55.2668
51.701
43.0757
47.4678
59.734
59.8859
59.364
57.8408
57.8476
60.0411
61.7693
62.9727
51.5656
54.7344
57.7024
60.3972
47.1193
50.5461
54.0271
42.3932
44.3272
49.2978
51.9359
47.7551
42.8188
43.9613
43.6743
43.3471
44.8432
45.7854
46.0587
46.9126
45.9433
47.5015
48.0356
42.3766
41.7896
45.9125
45.4391
48.1416
55.2374
91.7287
40.1499
39.5196
6.50273
5.74787
5.14492
4.72502
4.48142
4.37641
4.38439
4.4445
4.49166
4.49751
4.51809
4.71088
6.04568
9.07336
9.97015
10.1134
10.6951
10.601
9.21094
6.25819
3.2398
2.53646
2.44301
2.52331
2.63736
2.7831
3.2371
3.0628
3.67862
3.43766
4.27217
3.94576
5.15216
4.6626
6.57536
5.77416
8.70627
7.56737
11.3629
9.94963
16.3972
14.3937
20.8068
18.5643
26.0863
25.0355
22.9842
24.2626
30.2762
29.2879
28.6812
27.6122
33.1281
32.5859
31.1212
31.7873
38.7608
35.9345
32.8495
32.553
57.5691
53.3031
42.5561
48.1063
63.4426
63.4306
62.6012
60.648
62.7447
64.6631
66.1612
67.2199
57.3663
60.4887
63.318
65.8349
53.1431
56.9576
60.6277
45.3649
49.0126
56.2034
58.3291
53.4455
44.2632
44.6096
45.401
46.2911
46.0813
49.4112
50.3055
49.7169
48.4058
51.4542
52.6612
43.9195
41.8389
50.0007
47.7364
56.7663
51.1826
101.244
39.3607
40.3755
6.24775
5.52216
4.88557
4.5054
4.3339
4.26646
4.27556
4.32953
4.39326
4.45146
4.61042
5.64643
8.48613
9.74956
10.0634
10.8405
10.9301
9.9011
7.36439
3.70719
2.49654
2.28552
2.31854
2.41065
2.51729
2.79043
2.96622
2.61703
3.17316
3.59156
3.36257
4.17936
3.8586
5.1007
4.58179
6.67329
5.77915
9.33471
7.87246
12.5951
10.9363
17.2335
15.1617
21.5818
19.3783
26.4878
25.3634
23.6125
24.7173
30.4994
29.6703
29.1039
28.0764
32.4503
32.2406
31.1705
31.5953
37.6065
34.0204
31.7941
31.5927
60.3496
55.5037
43.1957
49.6078
67.5274
67.4061
66.2061
63.8851
67.9708
69.8042
71.2722
72.0916
64.0043
67.0792
69.8141
72.2242
60.4688
64.6537
68.6689
50.2902
55.9202
63.4651
70.0178
62.6773
47.8913
47.3939
50.7958
53.0058
50.6961
55.2998
55.8149
56.2718
54.6612
61.7099
60.6808
45.2167
42.1038
53.5558
50.848
63.8833
50.985
105.31
39.5342
42.5076
6.14233
5.38477
4.73198
4.39001
4.26192
4.21974
4.22789
4.27794
4.35603
4.53647
5.39387
7.90924
9.49672
10.0003
10.9373
11.2222
10.5093
8.38776
4.65477
2.54547
2.18218
2.15984
2.22463
2.30335
2.40501
2.91182
2.70394
2.56417
3.09781
3.51991
3.29285
4.10248
3.78289
5.03121
4.50609
6.66887
5.73038
9.49424
7.91245
13.2123
11.3142
17.8298
15.6673
22.7848
21.4054
19.9653
26.9711
25.8264
23.9595
25.1639
30.5876
29.9566
29.4759
28.5442
31.7346
31.77
30.9939
31.1041
37.2209
33.1602
31.392
31.0094
63.9599
58.6402
44.9217
52.1131
72.2822
72.0391
70.5082
67.8396
74.4204
76.2399
77.5782
78.1784
72.304
75.5744
78.4903
81.1046
68.7927
74.2713
79.7509
61.1133
71.7397
77.7362
95.4183
83.2801
57.5387
56.1497
65.8076
68.6974
60.9342
62.363
61.2233
67.0706
70.2813
75.422
69.6969
47.0697
42.7196
58.8254
54.132
63.174
103.008
92.3569
40.2822
42.6746
6.10966
5.32618
4.67667
4.3535
4.23823
4.21176
4.23377
4.3112
4.52703
5.32272
7.45745
9.22477
9.90129
10.9934
11.4797
11.0244
9.31136
5.82937
2.72979
2.13017
2.03942
2.07542
2.12877
2.20291
2.32529
2.86843
2.66067
2.52279
3.03453
3.45781
3.23408
4.04401
3.72287
4.97972
4.44925
6.62931
5.68479
9.52641
7.89085
13.5605
11.4746
18.0865
15.8959
23.1525
21.9456
19.5844
20.987
27.4939
26.3391
24.4169
25.7279
30.5774
30.1485
29.9832
29.1559
30.988
31.0832
30.7055
30.7162
37.8147
32.9568
31.5554
30.9098
68.8008
63.2385
48.5229
56.236
78.284
77.6821
75.8753
72.8933
83.4498
85.2557
86.2597
86.5833
84.5783
88.7907
92.4424
95.4298
85.1319
92.9773
102.957
84.1884
105.947
111.821
164.541
129.3
81.2727
71.9404
89.854
106.096
82.6535
69.8807
68.0372
78.0071
86.5143
88.498
78.4553
48.4146
43.9966
62.8732
56.4096
53.5422
105.374
102.563
40.6768
41.7099
6.18741
5.38245
4.73914
4.39915
4.27279
4.25536
4.32386
4.55261
5.34398
7.26408
8.98912
9.8113
11.0453
11.7053
11.4458
10.0978
7.03936
3.10275
2.12661
1.95423
1.95707
1.9876
2.03505
2.12298
2.32811
2.46085
2.19567
2.80542
2.61145
2.98371
3.4037
3.17678
3.98899
3.66827
4.91848
4.39271
6.57323
5.62293
9.52772
7.84969
13.7504
11.5728
19.9128
18.9041
17.4366
15.7854
23.6065
22.2035
21.1847
28.1598
26.9492
25.1177
26.627
30.7014
30.4613
31.0838
30.3344
30.767
30.7333
30.7672
30.8015
40.0472
33.9814
32.9824
31.5994
75.3003
69.905
54.8543
62.4928
86.3106
85.1106
83.0478
79.6079
98.07
99.6214
100.359
100.325
110.025
116.229
120.116
123.545
131.346
162.674
202.801
151.653
202.983
206.201
240.03
203.811
120.818
104.036
149.538
166.249
108.253
76.9462
72.6004
88.987
110.607
111.586
88.1806
51.1303
44.9191
66.7883
61.6859
49.9466
82.9195
97.424
40.7982
41.8158
6.43162
5.67124
5.02491
4.58156
4.42165
4.43287
4.6642
5.4517
7.26181
8.90925
9.80466
11.1058
11.8933
11.7817
10.7473
8.07311
3.68819
2.17232
1.90065
1.86449
1.87546
1.89733
1.95995
2.0363
2.42205
2.2545
2.15663
2.75796
2.55441
2.92689
3.34669
3.12249
3.92505
3.6094
4.82348
4.31768
6.39429
5.49397
9.24125
7.60967
13.5447
11.3232
20.2177
19.2816
17.751
15.845
24.6395
22.7816
22.0552
29.3578
28.011
26.5931
28.4844
31.7369
31.4565
33.6084
32.7811
31.0986
30.8675
31.9062
32.0703
44.9762
37.4705
37.1468
34.2102
83.9833
79.3716
64.6796
71.4635
98.0869
95.4343
92.9863
89.0519
125.737
127.109
127.908
125.713
200.407
205.998
207.581
203.419
207.168
218.798
456.035
217.276
497.994
488.659
486.61
506.567
203.273
154.284
205.991
211.559
157.594
85.2249
80.5983
111.113
159.268
159.965
108.711
53.2863
46.5916
77.9739
66.033
48.8322
70.7596
94.5983
41.7657
42.983
6.84113
6.18533
5.57813
5.04202
4.83226
5.00254
5.73746
7.35447
8.93381
9.83838
11.2039
12.0522
12.0514
11.2674
8.94563
4.48574
2.28084
1.87081
1.79443
1.78765
1.78724
1.82942
1.88756
1.9628
2.38089
2.21829
2.12145
2.70364
2.50497
2.87097
3.2824
3.06188
3.84219
3.53832
4.68175
4.2142
6.07837
5.28613
8.53508
7.12953
12.8969
10.4723
21.5135
21.1073
18.3869
20.6775
20.2676
16.0427
27.0055
24.4041
24.4552
31.7652
30.2405
29.6436
32.0598
34.7438
34.1357
38.1918
37.0165
32.9424
32.3527
35.1828
35.5965
53.7993
45.1263
46.6754
40.862
95.9089
92.1636
78.2541
83.575
120.327
111.746
106.734
103.524
201.023
190.661
187.969
175.642
460.872
439.239
447.726
438.714
500.444
447.559
862.081
493.701
917.304
901.544
881.399
919.369
490.585
214.047
480.799
487.771
217.848
103.767
106.584
159.658
220.317
222.228
156.478
57.998
50.6094
86.0033
77.6841
48.4641
215.8
115.895
44.4501
45.6119
7.36035
6.86798
6.40297
6.01546
5.91426
6.41833
7.64135
9.05748
9.9569
11.3475
12.1922
12.2637
11.6661
9.66058
5.30369
2.42881
1.8579
1.74156
1.71929
1.70103
1.72409
1.76472
1.81775
1.88399
2.06765
2.32534
2.17226
2.64958
2.45401
2.81273
3.21078
2.99829
3.7446
3.45629
4.51425
4.09095
5.70647
5.0416
7.79977
6.56902
13.1152
9.96723
24.6922
24.8457
24.7343
24.0819
19.1414
31.2031
27.8348
28.7504
35.8143
34.1461
34.2777
36.8338
40.2734
39.1729
44.2977
42.5604
37.7095
36.3261
41.0997
42.0036
67.3217
58.5379
63.7255
54.2865
113.972
109.031
94.9497
99.172
169.109
151.001
128.138
125.797
438.845
428.681
429.959
426.427
872.417
829.639
841.755
835.238
919.91
833.953
2489.11
900.724
2543.37