/*--------------------------------*- C++ -*----------------------------------*\
  =========                 |
  \\      /  F ield         | OpenFOAM: The Open Source CFD Toolbox
   \\    /   O peration     | Website:  https://openfoam.org
    \\  /    A nd           | Version:  dev
     \\/     M anipulation  |
\*---------------------------------------------------------------------------*/
FoamFile
{
    version     2.0;
    format      ascii;
    class       volScalarField;
    location    "2500";
    object      p_rgh;
}
// * * * * * * * * * * * * * * * * * * * * * * * * * * * * * * * * * * * * * //

dimensions      [1 -1 -2 0 0 0 0];

internalField   nonuniform List<scalar> 
9842
(
0.00449252
0.00585609
0.00495557
0.00585348
0.00857892
0.00441156
0.00513692
0.00989941
0.00820719
0.00331004
0.00478745
0.010334
0.0113601
0.00711028
0.00239038
0.00425454
0.00903247
0.0128633
0.0107939
0.00624564
0.00172246
0.00342109
0.00879612
0.0135652
0.0133834
0.00926529
0.00484066
0.00121686
0.00315586
0.00731879
0.0130059
0.0151457
0.0126703
0.00825041
0.00395316
0.000644867
0.00266674
0.00634264
0.0126524
0.0156927
0.0152581
0.0113457
0.0068345
0.00318319
9.1296e-05
0.00212711
0.00547673
0.0118247
0.0154329
0.0166397
0.0140343
0.00991375
0.00549877
0.00239377
-0.000517317
0.00212618
0.00587937
0.0111023
0.0149537
0.0175918
0.0164978
0.0123847
0.00850548
0.00484408
0.00182546
-0.000931834
0.00182314
0.00529348
0.009834
0.01459
0.0178625
0.0179247
0.0152753
0.0109789
0.00730395
0.00403051
0.00120765
-0.00148959
0.00140895
0.00466112
0.00886893
0.0136938
0.01746
0.0188144
0.0173804
0.0135239
0.00944026
0.00622685
0.00331075
0.000699903
-0.00188111
0.00100034
0.00417096
0.00729748
0.0126929
0.0168791
0.0191274
0.0187153
0.0160539
0.0121832
0.0084327
0.00543001
0.00271242
0.000146588
-0.00230207
0.000876105
0.00387022
0.00719985
0.0120729
0.0157948
0.0190598
0.0198644
0.017989
0.0143805
0.0107089
0.00745821
0.00472075
0.00208463
-0.000412705
-0.00276506
0.000407531
0.00303926
0.00673494
0.0107711
0.0148972
0.0187985
0.0203053
0.0194712
0.0167986
0.0129611
0.00964423
0.00663491
0.00404458
0.0015922
-0.000757848
-0.00316092
0.000172217
0.00260483
0.00574717
0.00967672
0.0142019
0.0182344
0.0204111
0.0205474
0.0185968
0.0152947
0.011751
0.00871636
0.00599076
0.00342829
0.00112399
-0.00117039
-0.00351011
-0.000127694
0.00245817
0.00539158
0.00950028
0.0132028
0.0173346
0.020274
0.0211281
0.0200461
0.017328
0.0138088
0.0106991
0.0079018
0.00532956
0.00293897
0.000667307
-0.00160375
-0.00381165
-0.000232286
0.00213519
0.00450366
0.00849779
0.0125232
0.016652
0.0197278
0.0213455
0.0210608
0.0190382
0.0159721
0.0127114
0.00979615
0.00720233
0.00463706
0.00249645
0.000195664
-0.00189968
-0.00411976
-0.000592074
0.00150868
0.00410375
0.00789093
0.011746
0.0156232
0.0191325
0.0212301
0.0216939
0.0203542
0.0177739
0.0145823
0.0116656
0.00897679
0.00655889
0.00425844
0.00203967
-5.13989e-05
-0.0022234
-0.00433901
-0.00090131
0.00115035
0.00403574
0.00724277
0.010984
0.0147747
0.0184141
0.0209353
0.0220119
0.0214246
0.0192914
0.0164682
0.0135042
0.0108241
0.00831403
0.00593544
0.00387178
0.0017007
-0.000319832
-0.00242633
-0.00461676
-0.00112827
0.000763074
0.003555
0.00645286
0.0100639
0.01387
0.0174644
0.0204166
0.0220054
0.0220578
0.0206704
0.0181374
0.0152379
0.0125061
0.0100929
0.00769774
0.0054682
0.00342369
0.00135437
-0.000605572
-0.00267946
-0.00476704
-0.00125096
0.000414314
0.00314586
0.00603272
0.00932563
0.0128717
0.0166267
0.0197601
0.0217422
0.0224479
0.0216298
0.0195712
0.0167593
0.0141312
0.0117167
0.0093315
0.00726163
0.00514343
0.00314825
0.00114164
-0.000844572
-0.00281775
-0.00495411
-0.00152081
0.000303605
0.00266883
0.00559866
0.00863604
0.0119407
0.0156552
0.0189455
0.021285
0.0224852
0.0223119
0.0208321
0.0184267
0.0157391
0.0132765
0.011018
0.00880875
0.00678469
0.00472289
0.00279117
0.000963337
-0.000982027
-0.00292517
-0.00502535
-0.00170725
-0.000147516
0.00216515
0.00507536
0.00802855
0.0111171
0.0146586
0.0180853
0.0206826
0.022293
0.0226736
0.0218103
0.019795
0.0173064
0.0149106
0.0127014
0.0105222
0.00842472
0.00645917
0.00449197
0.00264415
0.00075714
-0.00111801
-0.00305962
-0.00512371
-0.00200557
-0.00035824
0.00180577
0.00438988
0.00741327
0.0104112
0.0137056
0.0171445
0.019927
0.0218746
0.0227528
0.0224438
0.0209603
0.0187443
0.0163067
0.0141337
0.0119765
0.00998988
0.00788041
0.0060944
0.00428087
0.00250846
0.000735663
-0.00111243
-0.0030201
-0.00517139
-0.00211315
-0.000643035
0.00135357
0.00381789
0.00668287
0.00963876
0.0127792
0.0161273
0.0191026
0.0213261
0.0226056
0.0227726
0.0217661
0.0200647
0.017612
0.0156048
0.0135404
0.011484
0.00951149
0.0076676
0.00583541
0.00412295
0.00243076
0.000685628
-0.00113027
-0.00301544
-0.00508668
-0.00226352
-0.000964523
0.000943187
0.00322411
0.00593547
0.00880772
0.0118484
0.0149783
0.0181557
0.0205518
0.0222683
0.0228752
0.0223931
0.0210415
0.0191239
0.0167456
0.0148868
0.0130082
0.0111194
0.00918244
0.00738559
0.00571391
0.00400686
0.00237292
0.000732989
-0.00102036
-0.00288705
-0.00502237
-0.00242494
-0.00129586
0.000544086
0.00274782
0.00522942
0.00799069
0.0108763
0.0139715
0.0171169
0.0197584
0.0217374
0.0227164
0.0227756
0.0218428
0.0202249
0.0181348
0.0162728
0.014353
0.0125374
0.0106276
0.00875396
0.0071633
0.0056296
0.00406351
0.00249763
0.000900595
-0.000875677
-0.00264959
-0.00487993
-0.00259229
-0.00159294
0.000112819
0.00216395
0.00451761
0.00714612
0.00991423
0.0128501
0.0159687
0.0188135
0.0209639
0.0224259
0.02288
0.0224013
0.0210592
0.0192261
0.0173484
0.0156565
0.0138916
0.0120537
0.0103233
0.00866812
0.00707653
0.00558258
0.00410794
0.00264612
0.00104054
-0.000610283
-0.00242315
-0.00459968
-0.00267229
-0.00182259
-0.000299375
0.00152527
0.00377022
0.00623231
0.00886891
0.0117733
0.0148509
0.0177343
0.0200997
0.0219304
0.0227605
0.0227349
0.021914
0.0203173
0.0184702
0.0168588
0.0151757
0.0134616
0.0118412
0.0101124
0.0085035
0.0069586
0.0055209
0.00426746
0.00286401
0.00137037
-0.000185386
-0.002011
-0.0042151
-0.00271875
-0.00201483
-0.000713358
0.000938674
0.00297293
0.00528577
0.00781082
0.0106313
0.0135806
0.0165663
0.019138
0.021178
0.0224343
0.0227785
0.0224005
0.0211342
0.0195655
0.0179077
0.0163014
0.0147118
0.013043
0.0114423
0.00991228
0.00836891
0.00699339
0.00573551
0.0044798
0.00323178
0.00173973
0.000352649
-0.00155019
-0.00377982
-0.00266641
-0.00221288
-0.00109972
0.000407733
0.00217113
0.00428797
0.00666125
0.00933361
0.0122317
0.0152807
0.0180101
0.02027
0.0218867
0.0227093
0.0226599
0.0217886
0.020481
0.0189485
0.0174092
0.0157132
0.0143731
0.0126003
0.0111821
0.00975589
0.00831004
0.00700921
0.00609533
0.00487313
0.00371279
0.00241335
0.00100514
-0.000869154
-0.0032866
-0.0025711
-0.00236597
-0.00151829
-0.000249189
0.00129602
0.00320744
0.00548062
0.00807967
0.0108888
0.0139368
0.016734
0.0191928
0.0211547
0.0223184
0.0227547
0.0223551
0.0211777
0.0197616
0.0184837
0.01697
0.0155142
0.0140201
0.0123918
0.0109555
0.00965018
0.00839701
0.00734657
0.00633432
0.00536175
0.00437642
0.00318626
0.00176999
-0.000124575
-0.00409838
-0.0022006
-0.00248889
-0.00253016
-0.00195318
-0.000934764
0.000382381
0.00210432
0.0042326
0.00666128
0.00941508
0.0124387
0.0153358
0.0179982
0.0202223
0.0217242
0.0225707
0.0225844
0.0219225
0.0207403
0.0193152
0.0181064
0.0165963
0.0152175
0.0136921
0.0121905
0.0108767
0.00959318
0.0086027
0.0076492
0.00686995
0.00609571
0.00527017
0.00413231
0.0027542
-0.000499078
0.001071
-0.00373162
-0.00184843
-0.00238261
-0.00265652
-0.0023735
-0.00164606
-0.000510276
0.000935416
0.0028435
0.00517339
0.00781231
0.0108053
0.0138081
0.0165837
0.0190581
0.0209736
0.0221576
0.022619
0.0222247
0.0213309
0.0202402
0.0190754
0.0175722
0.0162154
0.014735
0.0133815
0.0119607
0.0106887
0.00971798
0.008881
0.008291
0.00755732
0.00696398
0.00621189
0.00409161
0.00530379
0.00267118
0.00467507
0.00415216
-6.26265e-05
0.00157764
-0.00343796
-0.00140872
-0.0023588
-0.00274848
-0.00271161
-0.00229656
-0.00148278
-0.00027892
0.00142708
0.00360541
0.00610935
0.00903146
0.0120839
0.0150097
0.01774
0.0199422
0.0215092
0.022372
0.0224783
0.0218762
0.0209115
0.0198486
0.0186838
0.0172627
0.0157423
0.0144902
0.0130979
0.0118306
0.0107478
0.0100454
0.00928698
0.00879872
0.00841403
0.00797657
0.00637016
0.00738454
0.00587117
0.00323903
0.00548767
0.0047421
0.000487275
0.00218793
-0.00300921
-0.000930516
-0.00221619
-0.00270533
-0.00304114
-0.00295805
-0.00246786
-0.00155049
-0.000124292
0.00185656
0.00431173
0.00715558
0.0102325
0.0132852
0.0161898
0.018699
0.0206314
0.0219661
0.0224915
0.0222381
0.02154
0.0206223
0.0194779
0.0182416
0.0168167
0.0154187
0.0140475
0.0128484
0.0117094
0.0109188
0.0103027
0.00972378
0.00952406
0.00937063
0.00834176
0.00918358
0.00702178
0.00809257
0.00669966
0.00388354
0.00618655
0.00549127
0.00103803
0.00282888
-0.00261063
-0.000410847
-0.0018681
-0.00272213
-0.00330612
-0.00357641
-0.00343389
-0.00283889
-0.00166301
8.85078e-05
0.00239046
0.00516036
0.00823728
0.0113919
0.01445
0.0172319
0.0195419
0.0212481
0.0222624
0.0224807
0.0220939
0.0213452
0.0203486
0.0191475
0.0178469
0.0164331
0.0151043
0.0138265
0.012602
0.01162
0.011031
0.0105926
0.0104285
0.0104813
0.00990304
0.0105446
0.00904866
0.00989922
0.00788722
0.00897203
0.00752162
0.0046272
0.00702826
0.00634252
0.00163221
0.00355527
-0.00219174
0.00013342
-0.00177469
-0.00278235
-0.00348488
-0.00411627
-0.00435295
-0.00409314
-0.0032303
-0.00175708
0.000358989
0.00300865
0.00605758
0.00928482
0.0124913
0.0155151
0.0181592
0.0202837
0.0217864
0.0224704
0.0224665
0.0219765
0.0211601
0.0200875
0.0188438
0.0174611
0.0160878
0.0147506
0.0134632
0.0124493
0.0117176
0.0113521
0.0111218
0.0112843
0.0110804
0.0115287
0.0106364
0.0112678
0.00994163
0.010796
0.00876194
0.0098904
0.00844195
0.00546674
0.00795757
0.00728178
0.00228544
0.00436975
-0.00175807
0.00072662
-0.00157577
-0.00258809
-0.00371077
-0.00459976
-0.00520522
-0.00529944
-0.00480079
-0.00362344
-0.00177379
0.000712331
0.00369053
0.00695542
0.010292
0.0135365
0.0165037
0.0190045
0.0210209
0.0222125
0.0226497
0.0224866
0.0218986
0.0209933
0.0198376
0.0185008
0.0170965
0.0156928
0.0143199
0.0131728
0.0123343
0.0119316
0.0117723
0.0118159
0.0118789
0.0121308
0.0117908
0.0122055
0.011528
0.0121425
0.0108916
0.0117649
0.00973955
0.0109143
0.00945053
0.00638574
0.00898968
0.00830798
0.00303493
0.00524306
-0.00126081
0.00136238
-0.00134918
-0.00244312
-0.0038092
-0.00502093
-0.00596557
-0.00644683
-0.0063278
-0.00551729
-0.00397271
-0.00171959
0.00113514
0.00439327
0.00783299
0.0112737
0.0145432
0.0174647
0.0198925
0.0216601
0.0226086
0.0228461
0.0225469
0.0218465
0.0208197
0.0195397
0.018119
0.0166462
0.0152079
0.0139439
0.0129865
0.0123903
0.0121415
0.0122116
0.0123363
0.0123966
0.0125203
0.0127132
0.012639
0.0130124
0.0125005
0.0131076
0.0119498
0.0128456
0.0108144
0.0120494
0.0105708
0.007383
0.0101221
0.00942823
0.00381736
0.00617385
-0.000737162
0.00203957
-0.00107081
-0.00231104
-0.00385544
-0.00533808
-0.00660677
-0.00747778
-0.00778528
-0.00739075
-0.00621917
-0.004263
-0.00160129
0.0015919
0.00509433
0.00870496
0.0122544
0.0155528
0.018438
0.0207772
0.0222925
0.0230178
0.023083
0.0226397
0.0217844
0.0205922
0.0191728
0.0176352
0.0161092
0.0147209
0.0136068
0.0128639
0.0125382
0.0123905
0.0125094
0.0125063
0.0128835
0.0128588
0.0132882
0.0134127
0.0135813
0.0139117
0.0135878
0.0141927
0.0131324
0.0140618
0.012013
0.0133209
0.0118072
0.00845717
0.0113614
0.0106415
0.00465062
0.00716986
-0.000183368
0.00275855
-0.000942209
-0.00221808
-0.00382264
-0.00551871
-0.00709194
-0.00835896
-0.00911504
-0.0091942
-0.00846967
-0.00689021
-0.00450071
-0.00144744
0.00205997
0.0058052
0.00960725
0.0132703
0.0165965
0.0195158
0.0216518
0.0229469
0.0234683
0.0233559
0.0227252
0.0216618
0.0202704
0.0186825
0.0170479
0.0155082
0.0142052
0.0132611
0.0127156
0.0126745
0.0125459
0.0124462
0.0129027
0.012809
0.0135355
0.0134225
0.0141482
0.0142087
0.0146459
0.0149326
0.0148207
0.0154327
0.0144633
0.0154401
0.0133453
0.0147418
0.0131656
0.00961404
0.0127104
0.0119549
0.0055354
0.00823156
0.000395901
0.00351817
-0.000777672
-0.00207636
-0.0037207
-0.00554973
-0.00738995
-0.0090369
-0.0102626
-0.0108624
-0.0106631
-0.0095556
-0.00753601
-0.0047138
-0.0012794
0.00254863
0.00656761
0.0105817
0.0143526
0.0178056
0.0206165
0.0225664
0.023645
0.0239577
0.0236296
0.0227477
0.0214227
0.019806
0.0180638
0.016328
0.0148104
0.0136363
0.0128925
0.0124501
0.0125976
0.0123083
0.012763
0.0125597
0.0133818
0.0132126
0.0142475
0.0140637
0.0151168
0.0151425
0.015871
0.0161328
0.0162338
0.0168802
0.0159618
0.017019
0.0148194
0.0163317
0.0146547
0.0108579
0.0141835
0.0133819
0.00647483
0.00936332
0.00099749
0.00431898
-0.000642598
-0.00188335
-0.00347349
-0.0054226
-0.00746998
-0.0094653
-0.0111617
-0.0123216
-0.012722
-0.0121913
-0.0106601
-0.00818487
-0.00492284
-0.00108631
0.00310306
0.00743815
0.0116797
0.0156256
0.019126
0.0217948
0.0235389
0.0243925
0.024464
0.0238359
0.0226382
0.021036
0.0191808
0.0172562
0.0154383
0.0140079
0.0130378
0.0124786
0.0124111
0.0125443
0.0122849
0.0130664
0.0128331
0.0139313
0.0136914
0.0150625
0.0148556
0.0162804
0.0163376
0.0173553
0.0177235
0.017921
0.0187703
0.017691
0.0189989
0.0164664
0.0182041
0.0163193
0.0121977
0.0158315
0.0149677
0.00747637
0.0105769
0.00161521
0.00515929
-0.000517633
-0.00162532
-0.00317162
-0.00509952
-0.00731646
-0.00960515
-0.0117488
-0.0134891
-0.0145546
-0.0147073
-0.0138006
-0.0118166
-0.00885707
-0.00511418
-0.000820512
0.00379099
0.00848501
0.0129491
0.0171157
0.0205553
0.0230601
0.0245812
0.0251626
0.0248983
0.0239186
0.0223753
0.0204532
0.018315
0.0162182
0.014398
0.0131272
0.0124026
0.0122446
0.012209
0.0119837
0.0126246
0.0123948
0.0134441
0.0131734
0.014654
0.0144272
0.0162758
0.0163182
0.0181038
0.0186981
0.0197042
0.021107
0.0204747
0.0226842
0.0200651
0.0226919
0.0184671
0.0210974
0.0184061
0.013671
0.0179344
0.0169731
0.00854413
0.011899
0.00224999
0.00604541
-0.00038344
-0.00131993
-0.00275567
-0.00462672
-0.00691594
-0.0094295
-0.01197
-0.0142803
-0.0160562
-0.0169916
-0.0168564
-0.0155367
-0.0130493
-0.00953887
-0.00523919
-0.000413054
0.00468217
0.00971197
0.0145168
0.0187638
0.0221113
0.0244116
0.025633
0.0258768
0.0252341
0.0238492
0.0218571
0.0195723
0.0171761
0.0149745
0.0132884
0.0121949
0.011968
0.0118881
0.011821
0.0124529
0.012253
0.0129213
0.0126723
0.0141973
0.0140428
0.0164025
0.0167362
0.0197619
0.0215105
0.0236528
0.0279348
0.0267378
0.0344807
0.0275216
0.0373718
0.0255995
0.0352402
0.0219547
0.0291797
0.0223859
0.0154708
0.0221088
0.020843
0.0096978
0.0134559
0.00289921
0.00699123
-0.00023446
-0.000975431
-0.00223883
-0.00400987
-0.00627496
-0.00892499
-0.0117852
-0.0146188
-0.0171146
-0.0189105
-0.0196922
-0.019233
-0.0174306
-0.0143418
-0.0101769
-0.00522212
0.000223367
0.00585599
0.011295
0.016336
0.0205734
0.0237534
0.0257675
0.0266763
0.0265277
0.025389
0.0234722
0.0210073
0.0184174
0.0158541
0.0136654
0.0121951
0.0115139
0.0118113
0.010968
0.0121157
0.0120532
0.0140834
0.0143791
0.013976
0.0139808
0.0172398
0.0182314
0.0240525
0.0275148
0.0347812
0.0439987
0.047376
0.0653867
0.0565338
0.0857789
0.0557205
0.0947952
0.0463912
0.0836808
0.0327858
0.0600771
0.0353642
0.0186354
0.0356874
0.0328135
0.0110004
0.0158224
0.00355123
0.00802792
-8.17726e-05
-0.000597744
-0.00164742
-0.00324734
-0.00540716
-0.00809206
-0.0111722
-0.014446
-0.0176225
-0.0203138
-0.0221346
-0.0227402
-0.0218764
-0.0194607
-0.0156264
-0.0106672
-0.00493944
0.00120307
0.00734501
0.0132131
0.0183595
0.0224977
0.0254441
0.0271707
0.0276697
0.0269787
0.0252342
0.0228123
0.0200413
0.017195
0.0145857
0.0129602
0.0124065
0.0143377
0.0123634
0.014136
0.014888
0.0159522
0.0237255
0.0271531
0.0196397
0.0213888
0.0320966
0.0381589
0.0554793
0.0684319
0.0875791
0.111554
0.121038
0.158869
0.145545
0.199707
0.148621
0.221248
0.119751
0.210765
0.0730387
0.1571
0.0817892
0.0273821
0.0820972
0.0718396
0.0126982
0.0211377
0.00422566
0.00922175
-0.000206015
-0.00100241
-0.00237286
-0.00434646
-0.00695234
-0.0101313
-0.0137271
-0.0174934
-0.0210528
-0.023978
-0.0258229
-0.0261688
-0.0247403
-0.0215233
-0.0167738
-0.0108933
-0.00430535
0.00257187
0.00927795
0.0154204
0.020586
0.0245521
0.0272191
0.0285179
0.0284588
0.0272797
0.0251031
0.0225095
0.020132
0.0181676
0.0172638
0.0181945
0.0246118
0.0297948
0.0426887
0.018
0.0228568
0.031485
0.0382991
0.0621819
0.0724837
0.0452821
0.0532419
0.0830354
0.0982773
0.13575
0.15907
0.196136
0.230188
0.251976
0.299682
0.29212
0.356023
0.303908
0.388125
0.273915
0.383511
0.187737
0.329071
0.205189
0.054321
0.200375
0.169054
0.0154802
0.0352954
0.00495179
0.0107603
-0.00034214
-0.00143079
-0.003148
-0.0055554
-0.00869015
-0.0124579
-0.0166745
-0.0210039
-0.0250083
-0.0281688
-0.0299327
-0.0298292
-0.0276303
-0.0234609
-0.0176958
-0.0107806
-0.00322952
0.00441554
0.0116342
0.0179242
0.0229955
0.0266996
0.0290018
0.0298417
0.029442
0.0283105
0.0274982
0.0285369
0.0311904
0.0343251
0.0388293
0.0504804
0.0645201
0.0771661
0.0755627
0.0975827
0.0471069
0.0610284
0.0838044
0.0970445
0.14222
0.15644
0.113309
0.127908
0.181661
0.201985
0.260305
0.286903
0.341254
0.375657
0.410851
0.456073
0.459656
0.517175
0.478142
0.552707
0.453404
0.553284
0.368733
0.507597
0.388096
0.123117
0.381753
0.351551
0.234402
0.0210436
0.0690281
0.00573314
0.012667
-0.000476438
-0.00187115
-0.00397507
-0.00691257
-0.0106754
-0.0151554
-0.0200884
-0.0250413
-0.0294353
-0.0326047
-0.0340014
-0.0332088
-0.0300949
-0.0249464
-0.0181434
-0.0101318
-0.00156429
0.00680064
0.0143559
0.0206671
0.0255223
0.0289005
0.0307843
0.0317109
0.0331877
0.0380626
0.0486037
0.0642419
0.0790009
0.0906198
0.105395
0.147869
0.115062
0.156554
0.148211
0.169682
0.112143
0.129497
0.170614
0.18587
0.250613
0.264414
0.219854
0.235897
0.310226
0.329455
0.403667
0.426819
0.491788
0.518173
0.56147
0.593856
0.608733
0.648767
0.629933
0.682139
0.612864
0.68845
0.542507
0.645473
0.594859
0.472296
0.552642
0.310834
0.158486
0.282351
0.448122
0.545438
0.546406
0.428374
0.029137
0.217152
0.173214
0.0776912
0.00660559
0.0143719
-0.000593863
-0.00230647
-0.00489202
-0.00846067
-0.0129812
-0.0182868
-0.0239669
-0.029346
-0.0336325
-0.0361621
-0.0368011
-0.0351614
-0.0311679
-0.0253247
-0.0177735
-0.00871314
0.000780847
0.00969258
0.017416
0.0235651
0.0280747
0.0310679
0.033556
0.0388784
0.0528872
0.0789084
0.109001
0.139072
0.167086
0.193345
0.22873
0.247712
0.268942
0.191897
0.218972
0.238129
0.258269
0.202104
0.219519
0.278005
0.292181
0.370959
0.381876
0.34531
0.358921
0.445156
0.458673
0.537166
0.550501
0.615803
0.627996
0.675079
0.689226
0.71531
0.733267
0.701888
0.722179
0.736819
0.749316
0.683598
0.718423
0.741376
0.762992
0.742849
0.655999
0.61465
0.673348
0.700942
0.620054
0.398486
0.353007
0.528201
0.613461
0.620399
0.50632
0.103262
0.0269742
0.0611557
0.300149
0.229222
0.00781804
0.0318141
0.0196861
0.0134094
-0.000671996
-0.00277013
-0.0059261
-0.0102568
-0.0156592
-0.0217672
-0.0277988
-0.0326961
-0.0356933
-0.0364749
-0.0357715
-0.0337818
-0.0301261
-0.0243491
-0.0162145
-0.00624767
0.00391258
0.0130714
0.0206695
0.0263975
0.0305852
0.0344154
0.0437639
0.0673326
0.105176
0.150677
0.192514
0.231649
0.269331
0.310558
0.368689
0.326356
0.368768
0.279517
0.306042
0.338274
0.354892
0.306974
0.322267
0.392374
0.402818
0.483198
0.48803
0.468652
0.476682
0.55847
0.562014
0.633483
0.632228
0.693455
0.690643
0.740163
0.740407
0.757072
0.762978
0.765853
0.767888
0.757558
0.768418
0.775621
0.734894
0.760677
0.775902
0.791202
0.778813
0.716116
0.679113
0.726562
0.750076
0.683439
0.472944
0.428562
0.599388
0.682669
0.676202
0.576596
0.154137
0.0833219
0.369976
0.296859
0.015072
0.00494778
0.0112932
0.0405452
0.023223
-0.000703291
-0.00326844
-0.00712133
-0.0123467
-0.0185672
-0.0248757
-0.0299457
-0.0326582
-0.0331275
-0.0323497
-0.0312997
-0.0296402
-0.0265649
-0.0216738
-0.0131669
-0.00270713
0.00758749
0.0166265
0.0237206
0.0291669
0.03424
0.0461023
0.0777088
0.126836
0.17814
0.220883
0.25737
0.293687
0.332455
0.376003
0.425089
0.418291
0.408571
0.421251
0.372835
0.392088
0.433195
0.441621
0.41377
0.42375
0.491894
0.493764
0.556249
0.550087
0.56216
0.559956
0.626133
0.617735
0.684334
0.673587
0.736222
0.72849
0.768243
0.768769
0.768394
0.768801
0.779873
0.782496
0.784066
0.785475
0.78489
0.790431
0.7938
0.775235
0.792752
0.798424
0.80933
0.803572
0.762178
0.733506
0.771263
0.787567
0.737197
0.543683
0.498373
0.662887
0.736659
0.731242
0.641034
0.20885
0.116656
0.438316
0.361238
0.0172493
0.00430273
0.0121847
0.0557525
0.0288933
-0.000672583
-0.003857
-0.00851537
-0.0145636
-0.0209106
-0.0258678
-0.0282132
-0.0281034
-0.027168
-0.0261199
-0.0251522
-0.0238995
-0.0211987
-0.0172984
-0.0089928
0.00140953
0.0114541
0.0199719
0.0266714
0.0326534
0.0454238
0.0814136
0.138106
0.185773
0.218158
0.24943
0.283093
0.320242
0.359309
0.400253
0.440014
0.424812
0.451587
0.447068
0.447599
0.451207
0.489585
0.485153
0.49409
0.492393
0.543177
0.535263
0.584012
0.57029
0.607022
0.595873
0.659169
0.64411
0.72039
0.706372
0.768254
0.768391
0.767235
0.766432
0.787056
0.789388
0.792492
0.796394
0.796129
0.798326
0.801117
0.805235
0.802505
0.805231
0.807639
0.804286
0.813746
0.812323
0.82017
0.818201
0.797599
0.777789
0.805607
0.814048
0.781513
0.609021
0.564087
0.719348
0.781924
0.778194
0.699388
0.266867
0.159897
0.503406
0.424133
0.0194577
0.00247157
0.012762
0.077293
0.0352496
-0.000615952
-0.0045673
-0.00998652
-0.0161796
-0.021076
-0.0230687
-0.0226235
-0.0212222
-0.0202051
-0.0196893
-0.019036
-0.0177514
-0.0156797
-0.011821
-0.00439547
0.00552842
0.0150898
0.0229848
0.0299593
0.0429772
0.0794825
0.13917
0.178023
0.205642
0.23057
0.256589
0.284062
0.313053
0.334894
0.373046
0.332452
0.434995
0.407748
0.464485
0.45289
0.479543
0.472877
0.506709
0.496277
0.526017
0.516433
0.557084
0.543666
0.589944
0.570574
0.627346
0.608948
0.688337
0.667887
0.781274
0.768221
0.800428
0.804422
0.807745
0.809867
0.811104
0.818877
0.828274
0.838529
0.810841
0.815821
0.823366
0.833995
0.814529
0.817389
0.822046
0.822232
0.82549
0.822166
0.828042
0.826687
0.822237
0.811763
0.829206
0.829637
0.815983
0.669182
0.625744
0.768655
0.817937
0.816683
0.751664
0.3245
0.20791
0.56562
0.485215
0.0214194
-0.00123617
0.012271
0.100292
0.0389212
-0.000557272
-0.0053315
-0.0109683
-0.0158764
-0.0178791
-0.0172058
-0.0157421
-0.0149446
-0.0146473
-0.0145514
-0.014169
-0.0127019
-0.011098
-0.00714404
-9.28737e-05
0.00935157
0.0180963
0.0257609
0.0386181
0.074647
0.13211
0.164842
0.184173
0.194866
0.20028
0.203997
0.207862
0.207108
0.201872
0.318815
0.253574
0.401084
0.362719
0.453569
0.430872
0.484734
0.471027
0.498315
0.480732
0.52958
0.514595
0.550517
0.52914
0.589794
0.560867
0.64359
0.617487
0.745309
0.716646
0.872628
0.869685
0.847787
0.861253
0.848883
0.858502
0.866387
0.871445
0.847711
0.863938
0.881569
0.899473
0.829849
0.841791
0.858206
0.878751
0.825421
0.832069
0.843582
0.831621
0.831922
0.832025
0.837589
0.832545
0.836137
0.835204
0.842125
0.837211
0.840173
0.724343
0.683519
0.810669
0.844038
0.846077
0.79764
0.381536
0.25401
0.625227
0.544667
0.0224568
-0.00838185
0.00897811
0.116029
0.0402744
-0.000507737
-0.00582456
-0.0105019
-0.0128931
-0.0124057
-0.0115907
-0.0114205
-0.0114751
-0.0114738
-0.0112127
-0.0106657
-0.00937959
-0.00718552
-0.00294263
0.00366464
0.0122623
0.0203893
0.0324794
0.0664085
0.122334
0.149739
0.160915
0.154046
0.133068
0.11654
0.11272
0.109954
0.102629
0.127465
0.0827293
0.243891
0.181608
0.342954
0.296482
0.413505
0.381748
0.461466
0.439556
0.461004
0.43683
0.507013
0.484305
0.528965
0.497099
0.601515
0.559314
0.68082
0.64243
0.832404
0.812009
0.792948
0.943583
0.934768
0.899241
0.919857
0.916413
0.930684
0.940793
0.945412
0.902397
0.927835
0.953501
0.977682
0.860744
0.883536
0.911097
0.942155
0.841169
0.857074
0.879984
0.836087
0.836057
0.849587
0.857406
0.842128
0.842309
0.847963
0.847371
0.839519
0.853784
0.774611
0.737732
0.844593
0.859695
0.865236
0.837081
0.436513
0.293822
0.682351
0.602629
0.0212796
-0.0196648
0.000989008
0.123615
0.0409474
-0.000417346
-0.00548222
-0.0080851
-0.00842345
-0.00861356
-0.00938873
-0.0100064
-0.0100529
-0.00968396
-0.0091808
-0.00827921
-0.00673999
-0.00427119
-4.79756e-05
0.00622139
0.01422
0.0254037
0.055083
0.109583
0.135403
0.140282
0.118473
0.0841439
0.0693381
0.0647351
0.0626674
0.058769
0.0483626
0.0696142
0.0508074
0.153614
0.1021
0.264063
0.211136
0.348886
0.309862
0.410976
0.382132
0.40289
0.371674
0.465464
0.433975
0.516086
0.468664
0.638367
0.580769
0.741985
0.691067
0.874154
0.846623
0.813617
0.782889
1.00483
0.982394
0.914997
0.951109
0.997904
1.012
1.01845
1.01615
0.975093
1.00793
1.03812
1.06259
0.90922
0.943545
0.981507
1.0212
0.870187
0.898934
0.934354
0.838767
0.845656
0.882578
0.892743
0.863353
0.842711
0.852995
0.846337
0.840775
0.859676
0.820043
0.788487
0.868987
0.867729
0.876765
0.868651
0.491471
0.332692
0.737901
0.662243
0.0161977
-0.0285664
-0.00948623
0.133349
0.0421582
-0.000124826
-0.00402892
-0.00488258
-0.00631209
-0.00788779
-0.00920346
-0.00992669
-0.0100963
-0.0094981
-0.00844886
-0.00706814
-0.00543414
-0.00293404
0.00131686
0.00766663
0.0179047
0.0431696
0.094813
0.121646
0.123576
0.0946563
0.0597731
0.0471837
0.0443419
0.0441084
0.0435609
0.0408846
0.0397532
0.0384978
0.0461633
0.0415329
0.0792548
0.0567592
0.167195
0.11723
0.263632
0.218355
0.339005
0.303369
0.33381
0.293141
0.420458
0.375833
0.51906
0.45744
0.656706
0.605213
0.759052
0.734904
0.697302
0.87983
0.845795
0.774942
0.747056
1.03111
0.990766
0.900852
0.947516
1.07886
1.08497
1.08039
1.06273
1.05997
1.09433
1.12089
1.13697
0.975017
1.0193
1.06467
1.10754
0.916719
0.958059
1.00486
0.847701
0.867021
0.932318
0.944972
0.90022
0.842427
0.851299
0.844897
0.848348
0.85833
0.859875
0.836883
0.885348
0.868425
0.882615
0.892395
0.551392
0.378186
0.793722
0.724202
0.0117457
-0.00425189
0.00446977
0.157502
0.055577
0.000404533
-0.00224063
-0.0038106
-0.0063646
-0.00849057
-0.010401
-0.0114159
-0.0114258
-0.0103424
-0.00864175
-0.00692007
-0.00528601
-0.00280661
0.00166709
0.0102197
0.0313411
0.0788549
0.108311
0.109963
0.0801565
0.0485321
0.0367516
0.0349992
0.0360597
0.0371661
0.0370829
0.0357352
0.0371571
0.0361211
0.0394441
0.0381117
0.0478317
0.0419411
0.0849383
0.0607725
0.163863
0.120698
0.251933
0.208735
0.27562
0.222761
0.395345
0.333392
0.542508
0.468182
0.634384
0.623341
0.59225
0.72595
0.707051
0.641477
0.647974
0.853042
0.810396
0.699194
0.675469
1.02857
0.975035
0.846428
0.911792
1.14146
1.13217
1.10987
1.0735
1.14389
1.17042
1.18511
1.18615
1.05485
1.10453
1.14943
1.18568
0.979594
1.03245
1.08765
0.868091
0.904372
0.998213
1.01313
0.953957
0.847432
0.848221
0.847515
0.866332
0.854218
0.892796
0.880785
0.896995
0.865396
0.882837
0.909322
0.615075
0.442639
0.847925
0.785152
0.0333332
0.0385976
0.0997307
0.226007
0.117988
0.000898078
-0.00173085
-0.00418588
-0.00750498
-0.0104505
-0.0124005
-0.0131673
-0.0130061
-0.0116406
-0.0095602
-0.00769342
-0.00611961
-0.00338592
0.00272191
0.0201794
0.0625202
0.0954488
0.0986548
0.0712658
0.0420829
0.0306486
0.0286902
0.0305535
0.0325666
0.0335634
0.0333455
0.0332061
0.0322615
0.035078
0.0341658
0.0366925
0.0358476
0.0397819
0.0378128
0.0521367
0.0437638
0.0943671
0.0680923
0.174299
0.130661
0.250523
0.19213
0.390327
0.316869
0.54762
0.483302
0.594122
0.590199
0.548111
0.542099
0.661678
0.653439
0.592776
0.588315
0.785877
0.735962
0.601333
0.585258
1.00357
0.929706
0.766162
0.848373
1.17423
1.14954
1.1128
1.06575
1.21037
1.22237
1.21977
1.2073
1.14009
1.18535
1.21974
1.2414
1.05718
1.11678
1.17123
0.904073
0.957912
1.07787
1.09302
1.02249
0.862355
0.849211
0.858128
0.899318
0.854829
0.918038
0.916468
0.903946
0.864967
0.882762
0.922448
0.682675
0.530381
0.896262
0.843264
0.12706
0.0434051
0.213723
0.359726
0.27167
0.000968266
-0.00209797
-0.00586039
-0.0106766
-0.0137703
-0.0146999
-0.0148582
-0.0145845
-0.0132204
-0.0110623
-0.00921671
-0.00743032
-0.00343551
0.0103301
0.0466812
0.0830044
0.0888592
0.0650144
0.0390849
0.0275601
0.0236248
0.0252932
0.0280562
0.0298311
0.0304761
0.0296863
0.0312844
0.0302058
0.0329994
0.0321439
0.0344945
0.0337644
0.0368481
0.0353752
0.045169
0.0396957
0.0734736
0.0554381
0.142128
0.102003
0.252516
0.190454
0.406422
0.326175
0.530259
0.512658
0.470611
0.544307
0.548672
0.504262
0.504988
0.580991
0.583264
0.535173
0.52137
0.692574
0.636424
0.500579
0.492395
0.971068
0.881584
0.68181
0.782415
1.18381
1.14975
1.10505
1.0456
1.24987
1.24491
1.2327
1.21169
1.21541
1.24689
1.26475
1.26893
1.14175
1.1975
1.2401
0.954959
1.02373
1.16113
1.17077
1.09847
0.89025
0.855033
0.87783
0.943894
0.858233
0.936573
0.944423
0.907153
0.868791
0.886417
0.932657
0.751834
0.623984
0.936013
0.895792
0.281332
0.00385347
0.194968
0.492786
0.418718
0.000649621
-0.00359896
-0.00911785
-0.0144314
-0.0168474
-0.016709
-0.0164565
-0.0161466
-0.01499
-0.0130249
-0.0112254
-0.00818304
0.00229129
0.0321945
0.0705021
0.0799598
0.0624989
0.0390216
0.0275383
0.0213295
0.0202471
0.0234555
0.0258188
0.0270623
0.0272734
0.0260325
0.0293661
0.0284745
0.0310039
0.0302049
0.0324363
0.0317487
0.0346267
0.0332628
0.0427696
0.0373399
0.0713559
0.0531526
0.139778
0.0999435
0.263914
0.198312
0.408812
0.336451
0.499147
0.486899
0.421965
0.439454
0.48727
0.498404
0.449891
0.456081
0.495264
0.507071
0.469896
0.449257
0.593298
0.53078
0.409006
0.403795
0.947795
0.847887
0.612528
0.732963
1.18253
1.14445
1.09446
1.02911
1.26282
1.25099
1.23252
1.20797
1.26757
1.2812
1.28183
1.27449
1.21856
1.25935
1.28285
1.01165
1.08879
1.23013
1.2279
1.16408
0.923139
0.868112
0.90196
0.986596
0.866832
0.952305
0.968688
0.912519
0.877258
0.898547
0.943082
0.815787
0.705827
0.969158
0.939512
0.373282
-0.0437801
0.163242
0.602826
0.52664
-0.000244698
-0.00600141
-0.0124371
-0.0172489
-0.019021
-0.0184846
-0.0180783
-0.0178065
-0.0169496
-0.0152888
-0.0122604
-0.00422849
0.0204099
0.0577372
0.0715665
0.0604974
0.0400548
0.0281578
0.0199471
0.0154114
0.0187478
0.0217706
0.0235762
0.0243644
0.0240123
0.0238708
0.0265445
0.0229908
0.0275157
0.0289619
0.0282651
0.0303602
0.0296715
0.0323208
0.0311338
0.0395378
0.0346403
0.0685702
0.0496449
0.142918
0.0994084
0.255337
0.189598
0.377602
0.320799