/*--------------------------------*- C++ -*----------------------------------*\
  =========                 |
  \\      /  F ield         | OpenFOAM: The Open Source CFD Toolbox
   \\    /   O peration     | Website:  https://openfoam.org
    \\  /    A nd           | Version:  dev
     \\/     M anipulation  |
\*---------------------------------------------------------------------------*/
FoamFile
{
    version     2.0;
    format      ascii;
    class       surfaceScalarField;
    location    "2500";
    object      phi;
}
// * * * * * * * * * * * * * * * * * * * * * * * * * * * * * * * * * * * * * //

dimensions      [1 0 -1 0 0 0 0];

internalField   nonuniform List<scalar> 
19515
(
1.69626e-07
1.25339e-07
1.46086e-07
3.17868e-07
4.8033e-07
1.15977e-07
1.19358e-07
4.48968e-07
4.71623e-07
3.26591e-07
7.08947e-07
1.01178e-07
9.87674e-08
5.53821e-07
4.32753e-07
4.87881e-07
7.28214e-07
3.07349e-07
8.9865e-07
8.89187e-08
8.29772e-08
6.44895e-07
3.74539e-07
6.11973e-07
7.28058e-07
4.88013e-07
9.29929e-07
2.76002e-07
1.07115e-06
8.0161e-08
6.99566e-08
7.28517e-07
3.13688e-07
7.05723e-07
7.00199e-07
6.39809e-07
9.60076e-07
4.57835e-07
1.0992e-06
2.47952e-07
1.2308e-06
7.34779e-08
6.06115e-08
8.07743e-07
2.59887e-07
7.82297e-07
6.47739e-07
7.5818e-07
9.73488e-07
6.26399e-07
1.14005e-06
4.16968e-07
1.25323e-06
2.25486e-07
1.37994e-06
6.78177e-08
5.43508e-08
8.86453e-07
2.1685e-07
8.50846e-07
5.81923e-07
8.48099e-07
9.59889e-07
7.71765e-07
1.18207e-06
5.84345e-07
1.29079e-06
3.79445e-07
1.39852e-06
2.06912e-07
1.51905e-06
6.27608e-08
4.89518e-08
9.64306e-07
1.88297e-07
9.14979e-07
5.14332e-07
9.18375e-07
9.18688e-07
8.89273e-07
1.20925e-06
7.44585e-07
1.33998e-06
5.35138e-07
1.43022e-06
3.47762e-07
1.5344e-06
1.91556e-07
1.64808e-06
5.82461e-08
4.53478e-08
1.03644e-06
1.73636e-07
9.78906e-07
4.50564e-07
9.78674e-07
8.5718e-07
9.79797e-07
1.21176e-06
8.8674e-07
1.3923e-06
6.92222e-07
1.47457e-06
4.9074e-07
1.56112e-06
3.21047e-07
1.6628e-06
1.76858e-07
1.76876e-06
5.41795e-08
4.33069e-08
1.10411e-06
1.65197e-07
1.04483e-06
3.96965e-07
1.03243e-06
7.86276e-07
1.04959e-06
1.18704e-06
1.00449e-06
1.43427e-06
8.44773e-07
1.53171e-06
6.35091e-07
1.60054e-06
4.51288e-07
1.68687e-06
2.96947e-07
1.78175e-06
1.63879e-07
1.88177e-06
5.02809e-08
4.11831e-08
1.17048e-06
1.58002e-07
1.11127e-06
3.57517e-07
1.0842e-06
7.14435e-07
1.10419e-06
1.13817e-06
1.0983e-06
1.45472e-06
9.84025e-07
1.59422e-06
7.82249e-07
1.65147e-06
5.84164e-07
1.7201e-06
4.18037e-07
1.80377e-06
2.74926e-07
1.89367e-06
1.51991e-07
1.98711e-06
4.65647e-08
3.91411e-08
1.23475e-06
1.51313e-07
1.17713e-06
3.28936e-07
1.13976e-06
6.48417e-07
1.15012e-06
1.07425e-06
1.16805e-06
1.44835e-06
1.10463e-06
1.64937e-06
9.28846e-07
1.71465e-06
7.18968e-07
1.76489e-06
5.39365e-07
1.83468e-06
3.87129e-07
1.91413e-06
2.54472e-07
1.99859e-06
1.40513e-07
2.08529e-06
4.31413e-08
3.80588e-08
1.29601e-06
1.43412e-07
1.24261e-06
3.08617e-07
1.19732e-06
5.93987e-07
1.19408e-06
1.00307e-06
1.22122e-06
1.41685e-06
1.1995e-06
1.68751e-06
1.06644e-06
1.78536e-06
8.58113e-07
1.82128e-06
6.62546e-07
1.87478e-06
4.99169e-07
1.94298e-06
3.58264e-07
2.01768e-06
2.35389e-07
2.09606e-06
1.29746e-07
2.17672e-06
3.98902e-08
3.71617e-08
1.35616e-06
1.34634e-07
1.30473e-06
2.95158e-07
1.25597e-06
5.50843e-07
1.24034e-06
9.31476e-07
1.26565e-06
1.36706e-06
1.27084e-06
1.70185e-06
1.18509e-06
1.85278e-06
9.98972e-07
1.88975e-06
7.89617e-07
1.92485e-06
6.12465e-07
1.97989e-06
4.62216e-07
2.04465e-06
3.31283e-07
2.11437e-06
2.17083e-07
2.18687e-06
1.196e-07
2.26176e-06
3.65934e-08
3.57215e-08
1.4158e-06
1.27205e-07
1.36353e-06
2.81941e-07
1.31784e-06
5.16609e-07
1.29007e-06
8.65969e-07
1.3056e-06
1.30601e-06
1.32651e-06
1.6913e-06
1.28139e-06
1.90808e-06
1.12973e-06
1.96697e-06
9.21704e-07
1.98612e-06
7.28393e-07
2.02556e-06
5.66782e-07
2.07938e-06
4.27447e-07
2.14019e-06
3.05461e-07
2.20416e-06
1.99807e-07
2.27174e-06
1.09636e-07
2.34025e-06
3.35369e-08
3.43053e-08
1.47298e-06
1.22915e-07
1.42001e-06
2.67948e-07
1.37732e-06
4.93067e-07
1.34132e-06
8.11611e-07
1.34426e-06
1.24014e-06
1.37145e-06
1.65941e-06
1.35832e-06
1.94336e-06
1.24608e-06
2.04527e-06
1.05139e-06
2.05868e-06
8.49074e-07
2.08045e-06
6.73464e-07
2.12218e-06
5.2397e-07
2.17314e-06
3.94461e-07
2.22875e-06
2.80868e-07
2.28844e-06
1.83103e-07
2.34997e-06
9.99207e-08
2.41294e-06
3.04859e-08
3.32228e-08
1.52721e-06
1.20003e-07
1.47579e-06
2.55648e-07
1.43222e-06
4.76665e-07
1.39359e-06
7.69604e-07
1.38316e-06
1.17518e-06
1.4091e-06
1.61237e-06
1.41842e-06
1.9553e-06
1.34631e-06
2.11631e-06
1.17499e-06
2.14117e-06
9.68862e-07
2.1458e-06
7.83663e-07
2.17302e-06
6.2259e-07
2.21349e-06
4.83593e-07
2.26067e-06
3.62522e-07
2.31172e-06
2.57597e-07
2.36607e-06
1.67021e-07
2.42195e-06
9.09237e-08
2.47973e-06
2.75545e-08
3.21746e-08
1.57921e-06
1.15516e-07
1.53161e-06
2.45461e-07
1.48585e-06
4.629e-07
1.44582e-06
7.39193e-07
1.42384e-06
1.11511e-06
1.44297e-06
1.55664e-06
1.46471e-06
1.94464e-06
1.429e-06
2.17159e-06
1.29097e-06
2.22824e-06
1.08788e-06
2.22262e-06
8.91985e-07
2.23259e-06
7.24029e-07
2.26158e-06
5.74451e-07
2.29942e-06
4.44807e-07
2.34213e-06
3.32082e-07
2.38914e-06
2.34513e-07
2.43779e-06
1.51152e-07
2.48899e-06
8.16729e-08
2.54059e-06
2.46809e-08
3.05707e-08
1.62959e-06
1.09847e-07
1.58481e-06
2.39849e-07
1.53719e-06
4.51911e-07
1.49637e-06
7.1764e-07
1.46713e-06
1.06368e-06
1.47508e-06
1.49747e-06
1.50197e-06
1.91515e-06
1.49408e-06
2.206e-06
1.3945e-06
2.31222e-06
1.20694e-06
2.30929e-06
1.00117e-06
2.30211e-06
8.22446e-07
2.31719e-06
6.68302e-07
2.34506e-06
5.28793e-07
2.37952e-06
4.07358e-07
2.41845e-06
3.02763e-07
2.46012e-06
2.12189e-07
2.50442e-06
1.3572e-07
2.54981e-06
7.24344e-08
2.59594e-06
2.16289e-08
2.88733e-08
1.67681e-06
1.0591e-07
1.63347e-06
2.35535e-07
1.58895e-06
4.40416e-07
1.54838e-06
7.0122e-07
1.51279e-06
1.02248e-06
1.50812e-06
1.43859e-06
1.5338e-06
1.87268e-06
1.54435e-06
2.21805e-06
1.48197e-06
2.38549e-06
1.32118e-06
2.40313e-06
1.11307e-06
2.38271e-06
9.20495e-07
2.38145e-06
7.58156e-07
2.39781e-06
6.15475e-07
2.42335e-06
4.8489e-07
2.45428e-06
3.71526e-07
2.48888e-06
2.74003e-07
2.52621e-06
1.90414e-07
2.56513e-06
1.20423e-07
2.60504e-06
6.33478e-08
2.64532e-06
1.87508e-08
2.74794e-08
1.72052e-06
1.02166e-07
1.68053e-06
2.29163e-07
1.63967e-06
4.30724e-07
1.59842e-06
6.90076e-07
1.55931e-06
9.91636e-07
1.54345e-06
1.38331e-06
1.56323e-06
1.82311e-06
1.58325e-06
2.20958e-06
1.55273e-06
2.44141e-06
1.426e-06
2.49764e-06
1.22661e-06
2.47291e-06
1.02281e-06
2.45457e-06
8.47378e-07
2.45836e-06
6.97567e-07
2.47413e-06
5.64652e-07
2.49703e-06
4.42098e-07
2.52416e-06
3.36222e-07
2.55447e-06
2.45741e-07
2.5867e-06
1.68871e-07
2.62027e-06
1.05199e-07
2.6543e-06
5.44007e-08
2.68903e-06
1.58035e-08
2.6202e-08
1.76033e-06
9.90304e-08
1.72353e-06
2.24155e-07
1.68527e-06
4.25123e-07
1.64502e-06
6.81847e-07
1.60642e-06
9.6946e-07
1.58126e-06
1.33449e-06
1.59209e-06
1.77043e-06
1.61578e-06
2.18427e-06
1.60847e-06
2.47718e-06
1.5169e-06
2.58643e-06
1.33716e-06
2.57157e-06
1.12783e-06
2.53811e-06
9.39185e-07
2.52678e-06
7.78825e-07
2.53193e-06
6.39716e-07
2.54606e-06
5.15545e-07
2.56576e-06
4.00461e-07
2.58905e-06
3.01614e-07
2.61442e-06
2.17995e-07
2.64147e-06
1.47683e-07
2.66964e-06
8.98692e-08
2.69845e-06
4.49961e-08
2.72711e-06
1.27869e-08
2.47927e-08
1.79631e-06
9.57903e-08
1.76344e-06
2.19344e-07
1.72807e-06
4.20128e-07
1.68998e-06
6.73986e-07
1.6526e-06
9.55175e-07
1.62045e-06
1.2939e-06
1.62164e-06
1.71789e-06
1.64447e-06
2.14813e-06
1.65179e-06
2.49215e-06
1.59342e-06
2.66259e-06
1.44067e-06
2.67461e-06
1.23413e-06
2.63171e-06
1.03411e-06
2.60364e-06
8.62325e-07
2.59701e-06
7.13774e-07
2.60206e-06
5.83656e-07
2.61368e-06
4.67573e-07
2.62973e-06
3.59674e-07
2.64826e-06
2.67754e-07
2.66911e-06
1.90382e-07
2.69118e-06
1.26176e-07
2.71382e-06
7.45206e-08
2.73661e-06
3.54908e-08
2.75918e-06
9.69839e-09
2.32525e-08
1.82801e-06
9.1553e-08
1.8004e-06
2.14974e-07
1.76759e-06
4.16129e-07
1.73175e-06
6.68188e-07
1.69548e-06
9.46496e-07
1.66099e-06
1.26256e-06
1.65154e-06
1.66822e-06
1.6711e-06
2.10592e-06
1.68655e-06
2.48852e-06
1.65536e-06
2.72149e-06
1.53445e-06
2.77623e-06
1.33898e-06
2.73444e-06
1.13137e-06
2.69006e-06
9.47475e-07
2.66927e-06
7.89846e-07
2.66432e-06
6.51439e-07
2.66806e-06
5.2922e-07
2.67691e-06
4.20426e-07
2.6883e-06
3.1962e-07
2.70252e-06
2.34314e-07
2.71851e-06
1.63056e-07
2.7355e-06
1.04465e-07
2.75247e-06
5.86976e-08
2.76899e-06
2.56873e-08
2.79519e-06
7.01455e-09
2.18208e-08
1.85416e-06
8.7866e-08
1.83153e-06
2.11848e-07
1.80326e-06
4.13605e-07
1.76978e-06
6.64451e-07
1.73521e-06
9.40117e-07
1.70157e-06
1.24075e-06
1.68254e-06
1.62303e-06
1.69654e-06
2.06101e-06
1.71581e-06
2.47048e-06
1.70449e-06
2.76109e-06
1.61569e-06
2.87013e-06
1.44051e-06
2.84342e-06
1.22997e-06
2.78681e-06
1.03464e-06
2.75003e-06
8.66735e-07
2.73355e-06
7.20489e-07
2.72842e-06
5.90986e-07
2.72978e-06
4.76292e-07
2.73435e-06
3.74329e-07
2.74203e-06
2.80097e-07
2.75189e-06
2.00934e-07
2.76327e-06
1.35336e-07
2.77458e-06
8.23465e-08
2.78569e-06
4.20277e-08
2.8052e-06
1.57263e-08
2.81551e-06
4.92249e-09
2.04303e-08
1.87433e-06
8.38453e-08
1.85798e-06
2.07851e-07
1.83525e-06
4.1207e-07
1.80448e-06
6.61509e-07
1.7724e-06
9.34254e-07
1.74074e-06
1.22601e-06
1.71604e-06
1.58363e-06
1.72176e-06
2.01588e-06
1.7415e-06
2.44254e-06
1.74367e-06
2.78164e-06
1.68387e-06
2.95085e-06
1.53493e-06
2.95506e-06
1.32882e-06
2.89296e-06
1.12377e-06
2.83977e-06
9.44775e-07
2.80981e-06
7.90449e-07
2.79473e-06
6.54127e-07
2.78846e-06
5.32199e-07
2.78662e-06
4.23967e-07
2.78768e-06
3.28642e-07
2.7911e-06
2.40882e-07
2.79687e-06
1.67344e-07
2.80273e-06
1.07198e-07
2.80833e-06
5.97185e-08
2.82212e-06
2.5137e-08
2.82593e-06
5.30957e-09
2.82965e-06
3.42464e-09
1.85795e-08
1.88847e-06
7.91326e-08
1.87887e-06
2.04126e-07
1.86138e-06
4.12927e-07
1.83403e-06
6.59874e-07
1.80576e-06
9.29181e-07
1.77717e-06
1.21603e-06
1.75049e-06
1.55194e-06
1.7475e-06
1.97207e-06
1.76538e-06
2.40864e-06
1.77526e-06
2.7857e-06
1.73953e-06
3.01474e-06
1.61991e-06
3.06398e-06
1.42595e-06
3.00724e-06
1.2144e-06
2.93906e-06
1.02433e-06
2.89394e-06
8.60634e-07
2.86816e-06
7.16955e-07
2.85327e-06
5.89257e-07
2.84429e-06
4.74472e-07
2.83928e-06
3.72317e-07
2.83647e-06
2.83239e-07
2.836e-06
2.01731e-07
2.83662e-06
1.33482e-07
2.83734e-06
7.81512e-08
2.84525e-06
3.65343e-08
2.84446e-06
6.63198e-09
2.84006e-06
-5.08091e-09
2.83514e-06
1.05261e-09
1.62837e-08
1.89543e-06
7.40933e-08
1.89326e-06
2.01362e-07
1.88128e-06
4.14952e-07
1.85892e-06
6.58517e-07
1.83502e-06
9.24357e-07
1.81023e-06
1.20796e-06
1.78497e-06
1.52749e-06
1.77468e-06
1.93086e-06
1.78854e-06
2.37189e-06
1.80199e-06
2.77691e-06
1.78395e-06
3.06069e-06
1.69349e-06
3.16442e-06
1.51941e-06
3.12644e-06
1.30675e-06
3.04807e-06
1.10542e-06
2.98638e-06
9.31632e-07
2.9484e-06
7.80249e-07
2.92382e-06
6.46319e-07
2.90758e-06
5.25888e-07
2.8959e-06
4.1781e-07
2.88723e-06
3.21472e-07
2.88077e-06
2.38469e-07
2.87642e-06
1.61914e-07
2.87254e-06
9.83381e-08
2.8748e-06
4.86797e-08
2.87008e-06
1.09415e-08
2.85926e-06
-1.25466e-08
2.8476e-06
-1.7518e-08
2.83393e-06
-3.58751e-09
1.4476e-08
1.89544e-06
6.89654e-08
1.90028e-06
1.99376e-07
1.89488e-06
4.16646e-07
1.87919e-06
6.56663e-07
1.86044e-06
9.18745e-07
1.84027e-06
1.19942e-06
1.81847e-06
1.50862e-06
1.80354e-06
1.89351e-06
1.81176e-06
2.33427e-06
1.82598e-06
2.75834e-06
1.82044e-06
3.08953e-06
1.75502e-06
3.25172e-06
1.60612e-06
3.24703e-06
1.39872e-06
3.16632e-06
1.18841e-06
3.08842e-06
1.00347e-06
3.03597e-06
8.43942e-07
3.00117e-06
7.02806e-07
2.97634e-06
5.77465e-07
2.95725e-06
4.64353e-07
2.94328e-06
3.61698e-07
2.93166e-06
2.70536e-07
2.9217e-06
1.93182e-07
2.91278e-06
1.21682e-07
2.90942e-06
6.37432e-08
2.9019e-06
1.68877e-08
2.88684e-06
-1.66698e-08
2.86862e-06
-3.35125e-08
2.84711e-06
-3.06734e-08
2.82401e-06
-8.97015e-09
1.16941e-08
1.88706e-06
6.44855e-08
1.89961e-06
1.99522e-07
1.89972e-06
4.18998e-07
1.89209e-06
6.55695e-07
1.87975e-06
9.11888e-07
1.86693e-06
1.18942e-06
1.84993e-06
1.49238e-06
1.83443e-06
1.85984e-06
1.837e-06
2.29661e-06
1.8493e-06
2.73353e-06
1.85068e-06
3.10372e-06
1.80616e-06
3.32288e-06
1.68378e-06
3.36416e-06
1.48892e-06
3.29159e-06
1.27338e-06
3.20041e-06
1.07627e-06
3.13225e-06
9.07199e-07
3.08534e-06
7.59678e-07
3.051e-06
6.2805e-07
3.0245e-06
5.10216e-07
3.00407e-06
4.03492e-07
2.98686e-06
3.06426e-07
2.97199e-06
2.20214e-07
2.95817e-06
1.47819e-07
2.94939e-06
8.16481e-08
2.9401e-06
2.55685e-08
2.9215e-06
-1.78128e-08
2.89824e-06
-4.6337e-08
2.87039e-06
-5.67332e-08
2.8386e-06
-4.52351e-08
2.80222e-06
-1.66258e-08
8.91251e-09
1.86805e-06
6.09926e-08
1.89018e-06
2.01581e-07
1.89708e-06
4.22089e-07
1.89617e-06
6.54308e-07
1.89303e-06
9.04242e-07
1.88703e-06
1.17774e-06
1.87829e-06
1.47734e-06
1.86471e-06
1.82964e-06
1.86441e-06
2.2592e-06
1.87422e-06
2.70387e-06
1.8788e-06
3.10478e-06
1.84947e-06
3.3775e-06
1.75147e-06
3.47219e-06
1.57566e-06
3.42156e-06
1.3589e-06
3.32169e-06
1.15199e-06
3.23735e-06
9.71046e-07
3.17677e-06
8.15526e-07
3.13238e-06
6.78121e-07
3.097e-06
5.55427e-07
3.06923e-06
4.44986e-07
3.04626e-06
3.44033e-07
3.02675e-06
2.51614e-07
3.00874e-06
1.69624e-07
2.99479e-06
1.02515e-07
2.9838e-06
3.79502e-08
2.9625e-06
-1.53173e-08
2.93564e-06
-5.51227e-08
2.90294e-06
-7.88586e-08
2.86503e-06
-8.31456e-08
2.82072e-06
-6.37315e-08
2.76981e-06
-2.66684e-08
6.8492e-09
1.83756e-06
5.9291e-08
1.86934e-06
2.06131e-07
1.88517e-06
4.24523e-07
1.89419e-06
6.4991e-07
1.90016e-06
8.93924e-07
1.903e-06
1.16365e-06
1.90077e-06
1.46258e-06
1.8928e-06
1.80483e-06
1.88928e-06
2.2242e-06
1.89918e-06
2.67199e-06
1.90594e-06
3.09532e-06
1.88809e-06
3.41565e-06
1.81124e-06
3.56704e-06
1.65654e-06
3.55203e-06
1.44512e-06
3.45193e-06
1.22856e-06
3.35216e-06
1.03701e-06
3.27658e-06
8.71283e-07
3.22033e-06
7.27573e-07
3.17541e-06
5.99584e-07
3.13973e-06
4.84835e-07
3.11008e-06
3.81073e-07
3.08544e-06
2.8529e-07
3.063e-06
1.97289e-07
3.04387e-06
1.20555e-07
3.03186e-06
5.43898e-08
3.00914e-06
-8.65442e-09
2.9802e-06
-5.98473e-08
2.94439e-06
-9.65292e-08
2.9023e-06
-1.16123e-07
2.85105e-06
-1.13404e-07
2.79316e-06
-8.70353e-08
2.72294e-06
-1.14753e-08
-2.6579e-08
5.34284e-09
1.79513e-06
5.95592e-08
1.83688e-06
2.12646e-07
1.86235e-06
4.25214e-07
1.88401e-06
6.43063e-07
1.90062e-06
8.79583e-07
1.91413e-06
1.1459e-06
1.92042e-06
1.444e-06
1.91908e-06
1.78126e-06
1.91608e-06
2.19064e-06
1.92262e-06
2.64201e-06
1.929e-06
3.07996e-06
1.92114e-06
3.43979e-06
1.8639e-06
3.64709e-06
1.73113e-06
3.67703e-06
1.53147e-06
3.58984e-06
1.30716e-06
3.47715e-06
1.10349e-06
3.38549e-06
9.28e-07
3.31554e-06
7.75935e-07
3.26075e-06
6.4212e-07
3.21562e-06
5.23588e-07
3.17844e-06
4.1639e-07
3.14763e-06
3.18697e-07
3.12069e-06
2.27579e-07
3.09667e-06
1.44437e-07
3.0845e-06
6.79338e-08
3.06019e-06
3.39271e-09
3.0303e-06
-5.88506e-08
2.99332e-06
-1.08774e-07
2.94866e-06
-1.42805e-07
2.89358e-06
-1.58639e-07
2.83082e-06
-1.51017e-07
2.7522e-06
-5.34293e-08
-6.28335e-08
1.33247e-06
-8.38223e-09
1.33742e-06
-3.1533e-08
4.26602e-09
1.74116e-06
6.13182e-08
1.79294e-06
2.19173e-07
1.82986e-06
4.22451e-07
1.86462e-06
6.33715e-07
1.89295e-06
8.61947e-07
1.91791e-06
1.12406e-06
1.93566e-06
1.42199e-06
1.94214e-06
1.75669e-06
1.94339e-06
2.15679e-06
1.94968e-06
2.60963e-06
1.95481e-06
3.06001e-06
1.94876e-06
3.45461e-06
1.90622e-06
3.71383e-06
1.79706e-06
3.79312e-06
1.61496e-06
3.73147e-06
1.38975e-06
3.61152e-06
1.17267e-06
3.50368e-06
9.85183e-07
3.4194e-06
8.23971e-07
3.35289e-06
6.83691e-07
3.29726e-06
5.60342e-07
3.25161e-06
4.50299e-07
3.21334e-06
3.50674e-07
3.18171e-06
2.57458e-07
3.15436e-06
1.69829e-07
3.13938e-06
8.96151e-08
3.11507e-06
1.30563e-08
3.08538e-06
-5.16037e-08
3.04868e-06
-1.14172e-07
3.00289e-06
-1.62972e-07
2.946e-06
-1.95161e-07
2.87542e-06
-9.74479e-08
-1.05797e-07
1.39542e-06
-8.80219e-08
1.39039e-06
-9.65668e-08
1.3388e-06
-5.47827e-08
1.3502e-06
-7.42278e-08
1.31673e-06
-6.28295e-09
1.31895e-06
-3.37385e-08
3.49416e-09
1.67602e-06
6.42605e-08
1.73775e-06
2.24846e-07
1.78677e-06
4.16487e-07
1.83536e-06
6.19621e-07
1.87834e-06
8.39446e-07
1.91513e-06
1.09799e-06
1.94367e-06
1.3964e-06
1.96096e-06
1.73057e-06
1.96799e-06
2.12377e-06
1.97615e-06
2.57629e-06
1.98281e-06
3.03596e-06
1.97868e-06
3.45715e-06
1.94607e-06
3.76615e-06
1.85381e-06
3.90147e-06
1.68861e-06
3.87415e-06
1.47224e-06
3.75592e-06
1.24532e-06
3.63251e-06
1.04364e-06
3.5325e-06
8.72025e-07
3.4525e-06
7.24251e-07
3.38518e-06
5.95677e-07
3.32941e-06
4.82454e-07
3.28262e-06
3.80922e-07
3.24529e-06
2.87145e-07
3.21371e-06
1.97884e-07
3.19431e-06
1.14802e-07
3.17178e-06
3.29005e-08
3.14457e-06
-4.60421e-08
3.10967e-06
-1.12582e-07
3.06479e-06
-1.76019e-07
3.00786e-06
-2.24775e-07
2.93413e-06
-1.23216e-07
-1.30563e-07
1.40788e-06
-1.09893e-07
1.42496e-06
-1.22862e-07
1.35678e-06
-9.45918e-08
1.40125e-06
-1.20741e-07
1.37191e-06
-1.11683e-07
1.32384e-06
-5.9666e-08
1.33233e-06
-8.26917e-08
1.29911e-06
-3.56126e-09
1.30018e-06
-3.47963e-08
3.91288e-09
1.59915e-06
6.99607e-08
1.66987e-06
2.30574e-07
1.73153e-06
4.07583e-07
1.79522e-06
5.99673e-07
1.85494e-06
8.12098e-07
1.90538e-06
1.06634e-06
1.94648e-06
1.36466e-06
1.97515e-06
1.70082e-06
1.99041e-06
2.08981e-06
2.00172e-06
2.54135e-06
2.01088e-06
3.00987e-06
2.00869e-06
3.45209e-06
1.98362e-06
3.80393e-06
1.9082e-06
3.99491e-06
1.76028e-06
4.01229e-06
1.55036e-06
3.90984e-06
1.31809e-06
3.77408e-06
1.10382e-06
3.65571e-06
9.20346e-07
3.56112e-06
7.63345e-07
3.48066e-06
6.28682e-07
3.41307e-06
5.11795e-07
3.35639e-06
4.08578e-07
3.31156e-06
3.14546e-07
3.27523e-06
2.25675e-07
3.25025e-06
1.41844e-07
3.22939e-06
5.70393e-08
3.20445e-06
-2.70177e-08
3.17366e-06
-1.09964e-07
3.13255e-06
-1.803e-07
3.07787e-06
-2.45986e-07
3.00634e-06
-1.46182e-07
-1.5075e-07
1.43787e-06
-1.36103e-07
1.4579e-06
-1.50593e-07
1.41555e-06
-1.37148e-07
1.34253e-06
-1.04789e-07
1.3854e-06
-1.34207e-07
1.35596e-06
-1.25109e-07
1.30554e-06
-6.50151e-08
1.31433e-06
-9.14579e-08
1.27827e-06
-2.87497e-09
1.27962e-06
-3.61562e-08
6.55368e-09
1.51026e-06
7.8208e-08
1.59037e-06
2.34704e-07
1.66524e-06
3.95148e-07
1.74356e-06
5.75113e-07
1.81944e-06
7.80225e-07
1.88652e-06
1.02869e-06
1.94273e-06
1.32588e-06
1.98498e-06
1.66434e-06
2.01131e-06
2.05191e-06
2.028e-06
2.50261e-06
2.04016e-06
2.97949e-06
2.041e-06
3.43988e-06
2.02071e-06
3.82959e-06
1.9578e-06
4.07556e-06
1.82742e-06
4.14305e-06
1.62943e-06
4.06614e-06
1.39398e-06
3.92654e-06
1.16542e-06
3.7928e-06
9.66526e-07
3.68107e-06
8.00204e-07
3.58561e-06
6.58285e-07
3.50519e-06
5.36606e-07
3.43656e-06
4.31524e-07
3.3812e-06
3.38857e-07
3.33851e-06
2.51204e-07
3.30642e-06
1.69442e-07
3.28658e-06
8.47564e-08
3.26216e-06
-6.6895e-10
3.23626e-06
-8.96388e-08
3.20214e-06
-1.79569e-07
3.15313e-06
-2.55521e-07
3.08544e-06
-1.6186e-07
-1.63185e-07
1.47516e-06
-1.6343e-07
1.49757e-06
-1.73152e-07
1.43162e-06
-1.52155e-07
1.45055e-06
-1.69513e-07
1.40206e-06
-1.53801e-07
1.32559e-06
-1.16047e-07
1.37105e-06
-1.49283e-07
1.33975e-06
-1.3925e-07
1.28517e-06
-7.05435e-08
1.29419e-06
-1.00464e-07
1.25699e-06
-5.32906e-09
1.25753e-06
-3.66805e-08
1.02245e-08
1.41247e-06
8.76306e-08
1.50033e-06
2.36649e-07
1.58797e-06
3.80989e-07
1.67904e-06
5.47337e-07
1.77102e-06
7.43953e-07
1.85543e-06
9.85831e-07
1.92911e-06
1.28039e-06
1.98793e-06
1.62062e-06
2.0284e-06
2.00886e-06
2.05405e-06
2.45938e-06
2.07093e-06
2.9435e-06
2.07589e-06
3.42037e-06
2.06031e-06
3.84208e-06
2.00807e-06
4.13923e-06
1.89401e-06
4.26368e-06
1.70667e-06
4.22513e-06
1.47034e-06
4.0893e-06
1.23111e-06
3.94166e-06
1.01642e-06
3.81236e-06
8.35108e-07
3.70232e-06
6.83356e-07
3.60602e-06
5.57302e-07
3.52298e-06
4.50075e-07
3.45593e-06
3.56665e-07
3.40347e-06
2.73799e-07
3.36269e-06
1.94929e-07
3.34258e-06
1.13277e-07
3.31868e-06
2.82158e-08
3.29701e-06
-6.14086e-08
3.2701e-06
-1.57566e-07
3.23136e-06
-2.57766e-07
3.17179e-06
-1.69986e-07
-1.71845e-07
1.51778e-06
-1.82048e-07
1.54239e-06
-1.8778e-07
1.47089e-06
-1.83757e-07
1.49338e-06
-1.95627e-07
1.42049e-06
-1.7057e-07
1.44103e-06
-1.90043e-07
1.38867e-06
-1.71408e-07
1.30651e-06
-1.28355e-07
1.35574e-06
-1.65261e-07
1.32229e-06
-1.55017e-07
1.2626e-06
-7.55981e-08
1.27161e-06
-1.09468e-07
1.2275e-06
-7.56433e-09
1.23069e-06
-3.98601e-08
1.4377e-08
1.30623e-06
1.00261e-07
1.3994e-06
2.37572e-07
1.49898e-06
3.66501e-07
1.60213e-06
5.17009e-07
1.70907e-06
7.0377e-07
1.81094e-06
9.37601e-07
1.9034e-06
1.22787e-06
1.98133e-06
1.5686e-06
2.03965e-06
1.95857e-06
2.07836e-06
2.41018e-06
2.10294e-06
2.90133e-06
2.11283e-06
3.39373e-06
2.10231e-06
3.84306e-06
2.05917e-06
4.18639e-06
1.96078e-06
4.36859e-06
1.78898e-06
4.37799e-06
1.55368e-06
4.26113e-06
1.29837e-06
4.10659e-06
1.06603e-06
3.95796e-06
8.70665e-07
3.82922e-06
7.08073e-07
3.7151e-06
5.74127e-07
3.61776e-06
4.62388e-07
3.5358e-06
3.70083e-07
3.4713e-06
2.88715e-07
3.42245e-06
2.13929e-07
3.39772e-06
1.39784e-07
3.37475e-06
5.71408e-08
3.35667e-06
-3.14619e-08
3.338e-06
-1.29309e-07
3.3097e-06
-2.35903e-07
3.26392e-06
-1.75617e-07
-1.74234e-07
1.56583e-06
-1.93412e-07
1.59186e-06
-1.97859e-07
1.51681e-06
-2.05466e-07
1.54205e-06
-2.12996e-07
1.46347e-06
-2.0618e-07
1.4877e-06
-2.19841e-07
1.40891e-06
-1.90789e-07
1.43109e-06
-2.12208e-07
1.37445e-06
-1.90103e-07
1.28413e-06
-1.40856e-07
1.3383e-06
-1.81253e-07
1.29958e-06
-1.70454e-07
1.23674e-06
-8.16354e-08
1.24641e-06
-1.19126e-07
1.1975e-06
-9.87616e-09
1.20312e-06
-4.54633e-08
1.98203e-08
1.19243e-06
1.15259e-07
1.29082e-06
2.37256e-07
1.39932e-06
3.51773e-07
1.51344e-06
4.85801e-07
1.6331e-06
6.6051e-07
1.75211e-06
8.84546e-07
1.86375e-06
1.16829e-06
1.9627e-06
1.50756e-06
2.04205e-06
1.8995e-06
2.09838e-06
2.35338e-06
2.13482e-06
2.85179e-06
2.15217e-06
3.35932e-06
2.147e-06
3.83376e-06
2.11143e-06
4.21882e-06
2.0266e-06
4.45751e-06
1.87173e-06
4.52144e-06
1.6454e-06
4.43416e-06
1.38051e-06
4.27873e-06
1.12608e-06
4.11834e-06
9.05503e-07
3.97439e-06
7.25346e-07
3.83759e-06
5.85441e-07
3.72092e-06
4.70826e-07
3.62142e-06
3.76634e-07
3.54222e-06
2.99044e-07
3.4822e-06
2.28867e-07
3.44821e-06
1.63343e-07
3.428e-06
8.64812e-08
3.41326e-06
5.21899e-10
3.40417e-06
-9.76496e-08
3.38791e-06
-2.07504e-07
3.35773e-06
-1.68543e-07
-1.61157e-07
1.61728e-06
-2.01023e-07
1.64377e-06
-2.00716e-07
1.56832e-06
-2.19669e-07
1.59592e-06
-2.25445e-07
1.51363e-06
-2.31378e-07
1.54096e-06
-2.40306e-07
1.45534e-06
-2.30415e-07
1.48143e-06
-2.45907e-07
1.3963e-06
-2.12626e-07
1.41974e-06
-2.35634e-07
1.35842e-06
-2.10209e-07
1.25928e-06
-1.53715e-07
1.31751e-06
-1.99168e-07
1.27523e-06
-1.86387e-07
1.20907e-06
-8.75719e-08
1.21863e-06
-1.28677e-07
1.16686e-06
-1.2826e-08
1.17405e-06
-5.26437e-08
2.63227e-08
1.07505e-06
1.2965e-07
1.17763e-06
2.37304e-07
1.29048e-06
3.37895e-07
1.41298e-06
4.55983e-07
1.54308e-06
6.15668e-07
1.67775e-06
8.27581e-07
1.80885e-06
1.10169e-06
1.93007e-06
1.43691e-06
2.03303e-06
1.82997e-06
2.11122e-06
2.28708e-06
2.16433e-06
2.79298e-06
2.19331e-06
3.31552e-06
2.1957e-06
3.81377e-06
2.16679e-06
4.23707e-06
2.09302e-06
4.52972e-06
1.95425e-06
4.65258e-06
1.74046e-06
4.60751e-06
1.47189e-06
4.46077e-06
1.19831e-06
4.28977e-06
9.54478e-07
4.12864e-06
7.51094e-07
3.97681e-06
5.85973e-07
3.83912e-06
4.67109e-07
3.71906e-06
3.73055e-07
3.61797e-06
3.00768e-07
3.54209e-06
2.39041e-07
3.49398e-06
1.82996e-07
3.47499e-06
1.1628e-07
3.46331e-06
3.63647e-08
3.46323e-06
-5.85726e-08
3.46088e-06
-1.70638e-07
3.4454e-06
-1.51022e-07
-1.44147e-07
1.67004e-06
-1.94804e-07
1.69502e-06
-1.86128e-07
1.62376e-06
-2.28846e-07
1.65199e-06
-2.28931e-07
1.56981e-06
-2.48497e-07
1.5996e-06
-2.5522e-07
1.50952e-06
-2.5945e-07
1.53956e-06
-2.70335e-07
1.44579e-06
-2.56442e-07
1.47415e-06
-2.74247e-07
1.38233e-06
-2.36511e-07
1.40681e-06
-2.60103e-07
1.33901e-06
-2.31696e-07
1.23165e-06
-1.66714e-07
1.29461e-06
-2.18528e-07
1.24854e-06
-2.03262e-07
1.17922e-06
-9.27187e-08
1.18799e-06
-1.37439e-07
1.13125e-06
-1.48942e-08
1.13787e-06
-5.92539e-08
3.30113e-08
9.58095e-07
1.43302e-07
1.06107e-06
2.39924e-07
1.1748e-06
3.26971e-07
1.30124e-06
4.29773e-07
1.43906e-06
5.718e-07
1.5868e-06
7.68444e-07
1.73669e-06
1.02951e-06
1.88077e-06
1.35705e-06
2.00961e-06
1.74892e-06
2.11371e-06
2.20892e-06
2.18899e-06
2.72244e-06
2.2345e-06
3.26014e-06
2.24838e-06
3.78127e-06
2.22796e-06
4.23984e-06
2.16384e-06
4.5838e-06
2.03879e-06
4.76881e-06
1.83788e-06
4.7779e-06
1.56992e-06
4.65329e-06
1.2792e-06
4.47625e-06
1.01165e-06
4.29742e-06
7.85531e-07
4.12792e-06
5.99825e-07
3.9703e-06
4.54654e-07
3.8334e-06
3.52639e-07
3.70795e-06
2.82949e-07
3.61037e-06
2.32384e-07
3.5406e-06
1.92323e-07
3.51556e-06
1.42319e-07
3.5043e-06
7.52087e-08
3.51008e-06
-1.05311e-08
3.52418e-06
-1.21908e-07
3.52992e-06
-1.3042e-07
-1.24817e-07
1.72036e-06
-1.76353e-07
1.74304e-06
-1.66828e-07
1.67994e-06
-2.22744e-07
1.70717e-06
-2.13345e-07
1.63002e-06
-2.5925e-07
1.66079e-06
-2.59689e-07
1.57081e-06
-2.79719e-07
1.60353e-06
-2.87923e-07
1.50481e-06
-2.90087e-07
1.53713e-06
-3.0264e-07
1.43464e-06
-2.84252e-07
1.46546e-06
-3.05045e-07
1.36386e-06
-2.6134e-07
1.39109e-06
-2.87313e-07
1.31709e-06
-2.54164e-07
1.20153e-06
-1.80239e-07
1.26901e-06
-2.38981e-07
1.21927e-06
-2.20984e-07
1.14561e-06
-1.00445e-07
1.15461e-06
-1.46413e-07
1.09388e-06
-1.65318e-08
1.10069e-06
-6.60484e-08
3.92355e-08
8.46462e-07
1.56052e-07
9.45005e-07
2.46026e-07
1.05484e-06
3.21496e-07
1.18018e-06
4.08908e-07
1.32202e-06
5.3162e-07
1.47912e-06
7.09842e-07
1.64523e-06
9.53997e-07
1.81197e-06
1.26905e-06
1.96846e-06
1.65594e-06
2.10221e-06
2.11704e-06
2.20519e-06
2.638e-06
2.27303e-06
3.19055e-06
2.30375e-06
3.73395e-06
2.29543e-06
4.22596e-06
2.24163e-06
4.61923e-06
2.12824e-06
4.86631e-06
1.94115e-06
4.9376e-06
1.67803e-06
4.85083e-06
1.3722e-06
4.67906e-06
1.0762e-06
4.48737e-06
8.21507e-07
4.29872e-06
6.14562e-07
4.11779e-06
4.52182e-07
3.95541e-06
3.32511e-07
3.81098e-06
2.49492e-07
3.69484e-06
1.98376e-07
3.59989e-06
1.72994e-07
3.55689e-06
1.50896e-07
3.53957e-06
1.06959e-07
3.54932e-06
3.58981e-08
3.57582e-06
-6.22241e-08
3.60555e-06
-1.09164e-07
-8.83502e-08
1.7676e-06
-1.54968e-07
1.7896e-06
-1.46819e-07
1.73398e-06
-2.03151e-07
1.75957e-06
-1.92406e-07
1.6915e-06
-2.53433e-07
1.72107e-06
-2.42902e-07
1.63707e-06
-2.92778e-07
1.67062e-06
-2.93215e-07
1.57228e-06
-3.14848e-07
1.60783e-06
-3.23451e-07
1.49902e-06
-3.23617e-07
1.53502e-06
-3.38622e-07
1.42154e-06
-3.14671e-07
1.45499e-06
-3.38473e-07
1.34329e-06
-2.87517e-07
1.3732e-06
-3.17203e-07
1.29279e-06
-2.77926e-07
1.16812e-06
-1.9374e-07
1.24113e-06
-2.60818e-07
1.18589e-06
-2.38737e-07
1.11055e-06
-1.10285e-07
1.1193e-06
-1.55146e-07
1.05399e-06
-1.76367e-08
1.05955e-06
-7.15829e-08
4.49784e-08
7.44034e-07
1.68543e-07
8.33744e-07
2.56632e-07
9.3432e-07
3.23434e-07
1.05285e-06
3.96203e-07
1.19283e-06
4.99086e-07
1.35448e-06
6.55547e-07
1.53328e-06
8.77968e-07
1.72104e-06
1.17514e-06
1.90557e-06
1.55182e-06
2.07221e-06
2.01019e-06
2.20862e-06
2.53661e-06
2.30615e-06
3.10317e-06
2.36004e-06
3.66867e-06
2.36872e-06
4.19363e-06
2.32753e-06
4.63376e-06
2.22691e-06
4.9417e-06
2.05268e-06
5.08058e-06
1.798e-06
5.04728e-06
1.48139e-06
4.89627e-06
1.15478e-06
4.69948e-06
8.63885e-07
4.49404e-06
6.25994e-07
4.29002e-06
4.42172e-07
4.09623e-06
3.11221e-07
3.92277e-06
2.20607e-07
3.78019e-06
1.64046e-07
3.66801e-06
1.30158e-07
3.60187e-06
1.27916e-07
3.57679e-06
1.13584e-07
3.58138e-06
7.48356e-08
3.61538e-06
-3.7167e-09
3.66082e-06
-1.17536e-07
1.81097e-06
-1.30537e-07
1.83228e-06
-1.09657e-07
1.78565e-06
-1.81043e-07
1.81231e-06
-1.73471e-07
1.74988e-06
-2.31945e-07
1.77789e-06
-2.20405e-07
1.70382e-06
-2.86614e-07
1.73651e-06
-2.75573e-07
1.64461e-06
-3.29536e-07
1.68182e-06
-3.30394e-07
1.57273e-06
-3.52533e-07
1.61245e-06
-3.63139e-07
1.49163e-06
-3.60231e-07
1.53127e-06
-3.78238e-07
1.40619e-06
-3.47636e-07
1.44261e-06
-3.74858e-07
1.32023e-06
-3.14938e-07
1.35265e-06
-3.4959e-07
1.26534e-06
-3.02112e-07
1.13178e-06
-2.06202e-07
1.20814e-06
-2.83043e-07
1.14934e-06
-2.56275e-07
1.06919e-06
-1.1991e-07
1.07998e-06
-1.65913e-07
1.01236e-06
-1.80541e-08
1.01734e-06
-7.65456e-08
4.97089e-08
6.52147e-07
1.81808e-07
7.30568e-07
2.7254e-07
8.17868e-07
3.34641e-07
9.23103e-07
3.94807e-07
1.05424e-06
4.77757e-07
1.21413e-06
6.09713e-07
1.40021e-06
8.05978e-07
1.60508e-06
1.07898e-06
1.81692e-06
1.4385e-06
2.0185e-06
1.88831e-06
2.19363e-06
2.41639e-06
2.32839e-06
2.99457e-06
2.41433e-06
3.58118e-06
2.44718e-06
4.1385e-06
2.42358e-06
4.62442e-06
2.33666e-06
4.99255e-06
2.17587e-06
5.20242e-06
1.93068e-06
5.23547e-06
1.60962e-06
5.12218e-06
1.25527e-06
4.93222e-06
9.21814e-07
4.71527e-06
6.42442e-07
4.48811e-06
4.27725e-07
4.26174e-06
2.76526e-07
4.05252e-06
1.81355e-07
3.87254e-06
1.28162e-07
3.73228e-06
9.96949e-08
3.63927e-06
9.26768e-08
3.60695e-06
9.76684e-08
3.5971e-06
9.77796e-08
3.63776e-06
5.23991e-08
3.70067e-06
-4.36031e-08
-1.8513e-06
3.75267e-06
-9.92272e-08
-8.74709e-08
1.83237e-06
-1.50593e-07
-1.28604e-07
1.80538e-06
-2.08524e-07
1.83186e-06
-1.99942e-07
1.76831e-06
-2.63733e-07
1.79885e-06
-2.50927e-07
1.71874e-06
-3.23514e-07
1.7554e-06
-3.12201e-07
1.6542e-06
-3.71259e-07
1.6966e-06
-3.72764e-07
1.57369e-06
-3.94919e-07
1.61984e-06
-4.09246e-07
1.48296e-06
-4.00553e-07
1.52851e-06
-4.23742e-07
1.38845e-06
-3.83407e-07
1.42929e-06
-4.15664e-07
1.29439e-06
-3.43965e-07
1.32998e-06
-3.85158e-07
1.23426e-06
-3.28214e-07
1.09185e-06
-2.18061e-07
1.17196e-06
-3.05644e-07
1.1091e-06
-2.73505e-07
1.02687e-06
-1.29423e-07
1.03817e-06
-1.77196e-07
9.6925e-07
-1.72739e-08
9.72988e-07
-8.02609e-08
5.36818e-08
5.66346e-07
1.96622e-07
6.37224e-07
2.94246e-07
7.08897e-07
3.56751e-07
7.95811e-07
4.07148e-07
9.10793e-07
4.71482e-07
1.06052e-06
5.77383e-07
1.24639e-06
7.43424e-07
1.46261e-06
9.85575e-07
1.69822e-06
1.31956e-06
1.93548e-06
1.75258e-06
2.15377e-06
2.27512e-06
2.33441e-06
2.85887e-06
2.46364e-06
3.46384e-06
2.53128e-06
4.05329e-06
2.53208e-06
4.58562e-06
2.46214e-06
5.01501e-06
2.31398e-06
5.29844e-06
2.07965e-06
5.40642e-06
1.75953e-06
5.34724e-06
1.38434e-06
5.18034e-06
1.0069e-06
4.96132e-06
6.7552e-07
4.71479e-06
4.15558e-07
4.45731e-06
2.3199e-07
4.20594e-06
1.22996e-07
3.98082e-06
7.29897e-08
3.79754e-06
6.28238e-08
3.66719e-06
7.17008e-08