/*--------------------------------*- C++ -*----------------------------------*\
  =========                 |
  \\      /  F ield         | OpenFOAM: The Open Source CFD Toolbox
   \\    /   O peration     | Website:  https://openfoam.org
    \\  /    A nd           | Version:  dev
     \\/     M anipulation  |
\*---------------------------------------------------------------------------*/
FoamFile
{
    version     2.0;
    format      ascii;
    class       volScalarField;
    location    "2500";
    object      qr;
}
// * * * * * * * * * * * * * * * * * * * * * * * * * * * * * * * * * * * * * //

dimensions      [1 0 -3 0 0 0 0];

internalField   uniform 0;

boundaryField
{
    lowerOutlet
    {
        type            calculated;
        value           nonuniform List<scalar> 
144
(
1137.04
1140.83
1145.02
1149.62
1154.63
1160.05
1165.91
1172.21
1178.97
1186.2
1193.92
1202.16
1210.94
1220.29
1230.24
1240.83
1252.12
1264.13
1276.94
1290.61
1305.21
1320.83
1337.58
1355.56
1374.97
1395.96
1418.72
1443.48
1470.51
1500.17
1532.9
1569.21
1609.74
1644.38
1694.62
1752.21
1818.74
1896.47
1988.58
2099.41
2235.19
2404.36
2616.67
2883.45
3167.65
3553.35
4223.54
5220
-9241.01
3418.23
2880.28
2544.35
2306.72
2107.18
1972.74
1865.44
1778.22
1705.91
1644.89
1592.54
1547.07
1507.07
1471.64
1432.08
1404.29
1379.02
1355.92
1334.71
1315.14
1297.01
1280.17
1264.47
1249.83
1236.13
1223.27
1211.16
1199.76
1189.01
1178.86
1169.27
1160.2
1151.62
1143.51
1135.83
1128.58
1121.72
1115.25
1109.14
1103.38
1097.97
1092.9
1088.15
1083.72
1079.6
1075.79
1072.28
2041.31
2163.72
2314.95
2504.52
2742.38
3082.18
3449
4035.62
4692.86
4953.58
3625
2988.21
2616.78
2359.5
2188.38
2035.93
1916.23
1819.68
1740.45
1674.18
1856.01
1940.49
3257.09
3654.13
4412.21
5966.27
4160.78
3251.39
2783.69
2477.83
2257.7
1617.76
1569.04
3000.72
3350.73
3789.19
4534.46
6372.62
3876.49
3110.51
2696.23
2416.39
1668.67
1722.41
1784.25
1526.45
1488.83
1455.4
)
;
    }
    top
    {
        type            calculated;
        value           nonuniform List<scalar> 
100
(
1024.21
1024.79
1026.39
1028.27
1030.14
1031.7
1033.17
1034.28
1034.65
1033.82
1030.5
1020.77
998.515
961.47
920.542
904.293
904.448
916.22
936.231
951.074
959.764
965.019
968.691
970.934
971.19
970.988
971.621
973.704
980.035
992.65
1012.8
1036.4
1058.64
1075.57
1084.77
1089.08
1091.47
1093.15
1094.52
1095.64
1096.53
1097.21
1097.71
1098.07
1098.32
1098.49
1098.46
1098.29
1098.07
1097.75
1097.31
1096.8
1096.24
1095.62
1094.91
1094.11
1093.25
1092.31
1091.28
1090.29
1089.05
1087.76
1086.37
1084.88
1083.26
1081.51
1079.65
1077.7
1075.66
1073.54
1071.37
1069.23
1067.15
1065.29
1063.91
1063.71
1071.83
1069.06
1066.26
1063.42
1060.53
1057.62
1054.67
1051.7
1048.71
1045.69
1042.67
1039.63
1036.59
1033.54
1027.49
1023.46
1019.44
1015.32
1011.5
1008.19
1005.43
1003.2
1001.71
1001.06
)
;
    }
    sides
    {
        type            calculated;
        value           nonuniform List<scalar> 
100
(
1137.05
1140.07
1142.7
1144.95
1146.82
1148.31
1149.43
1150.2
1150.61
1150.69
1150.44
1149.87
1149.01
1147.86
1146.43
1144.75
1142.83
1140.68
1138.32
1135.77
1133.04
1130.13
1127.08
1123.89
1120.57
1117.14
1113.6
1109.97
1106.27
1102.49
1098.65
1094.75
1090.81
1086.83
1082.82
1078.8
1074.77
1070.74
1066.72
1062.72
1058.75
1054.82
1050.94
1047.13
1043.4
1039.75
1036.21
1032.78
1029.47
1026.33
1072.29
1075.21
1077.83
1080.17
1082.21
1083.97
1085.45
1086.65
1087.59
1088.26
1088.67
1088.84
1088.77
1088.48
1087.97
1087.25
1086.34
1085.24
1083.96
1082.52
1080.92
1079.18
1077.31
1075.31
1073.19
1070.97
1068.66
1066.25
1063.77
1061.21
1058.58
1055.9
1053.16
1050.38
1047.55
1044.69
1041.81
1038.89
1035.96
1033
1030.04
1027.06
1024.08
1021.08
1018.09
1015.09
1012.09
1009.09
1006.09
1003.14
)
;
    }
    front
    {
        type            empty;
    }
    back
    {
        type            empty;
    }
    roller
    {
        type            calculated;
        value           nonuniform List<scalar> 
142
(
6794.25
5613.76
3742.2
2879.68
1693.99
1382.07
1319.44
1265.57
1222.27
1243.76
8219.27
8439.54
6280.33
6238.64
2852.71
2148.95
1731.33
1481.34
1335.21
1277.59
1303.07
1236.73
1252.33
5022.5
5428.27
5177.51
2616.1
2044.82
2414.78
2328.46
1668.71
1418.17
1433.74
1376.34
1304.56
1246.11
7812.02
8945.39
6960.77
4054.06
4652.15
5911.56
4170.75
4619.73
3152.18
3050.94
2529.94
2270.01
1850.45
1802.54
1771.11
2004.04
1504.08
1411.95
1392.9
1369.21
1358.23
1347.98
1231.91
8569.13
8010.08
2194.71
2120.01
1583.96
1501.64
1436.25
1459.59
1216.89
1219.7
1230.06
9300.15
9297.1
3768.46
1939.43
1606.54
1891.21
1756.11
1520.85
1714.91
1605.9
1450.87
1574.62
1392.56
1313.27
1276.19
1268.84
1225.19
1240.25
1217.42
1218.21
1227.06
7376.15
7504.44
3477.42
2727.87
1918.55
2068.55
1562.01
1483.53
1536.21
1329.86
1338.73
1293.41
1284.4
1257.34
1260.05
1219.85
1216.87
1221.77
1233.17
9200.28
9185.87
8895.73
4339.43
3444.98
3248.31
2426
2273.27
2625
1977.44
1636.98
1844.28
1799.28
1541.01
1676.02
1639.63
1466.6
1403.3
1361.56
1348.16
1321.56
1290.59
1250.4
1242.21
1227.76
1249.17
1255.31
1264.15
1218.41
1217.3
1224.29
1236.29
)
;
    }
    burner
    {
        type            calculated;
        value           nonuniform List<scalar> 
16
(
-124684
-118930
-116208
-117231
-120079
-116606
-116475
-123654
-123022
-117973
-116029
-118496
-121461
-117198
-116100
-120488
)
;
    }
}


// ************************************************************************* //
