/*--------------------------------*- C++ -*----------------------------------*\
  =========                 |
  \\      /  F ield         | OpenFOAM: The Open Source CFD Toolbox
   \\    /   O peration     | Website:  https://openfoam.org
    \\  /    A nd           | Version:  dev
     \\/     M anipulation  |
\*---------------------------------------------------------------------------*/
FoamFile
{
    version     2.0;
    format      ascii;
    class       volScalarField;
    location    "2500";
    object      rAU;
}
// * * * * * * * * * * * * * * * * * * * * * * * * * * * * * * * * * * * * * //

dimensions      [-1 3 1 0 0 0 0];

internalField   nonuniform List<scalar> 
9842
(
0.0082058
0.00827157
0.00822104
0.00824338
0.00839045
0.00814986
0.00820483
0.00838442
0.0083947
0.00808761
0.00817218
0.00838291
0.00837831
0.0084083
0.00802765
0.00814663
0.00839005
0.00837078
0.00838891
0.00841915
0.00797223
0.00812388
0.0084039
0.00837243
0.00837339
0.00840474
0.00842415
0.00792108
0.00809762
0.0084174
0.00837938
0.00836509
0.00838818
0.00841653
0.00842702
0.00787364
0.00807004
0.00842526
0.00839185
0.00836165
0.00837355
0.00840528
0.00842231
0.008429
0.00782985
0.00804394
0.0084287
0.00840535
0.00836426
0.00836264
0.00839108
0.00841648
0.00842549
0.00843031
0.00778914
0.00802002
0.00843199
0.00841558
0.00837249
0.00835688
0.00837583
0.00840771
0.00842222
0.00842806
0.00843132
0.00775141
0.00799714
0.00843345
0.00842302
0.00838637
0.00835551
0.00836346
0.00839537
0.00841794
0.0084255
0.0084298
0.00843196
0.0077164
0.00797504
0.00843421
0.00842778
0.00840115
0.0083594
0.00835548
0.00838062
0.00841106
0.00842296
0.00842774
0.00843113
0.00843249
0.0076839
0.00795379
0.00843468
0.00843008
0.00841231
0.00836859
0.00835126
0.00836662
0.00840047
0.00842022
0.00842608
0.00842956
0.0084322
0.00843282
0.00765381
0.00793342
0.00843513
0.00843248
0.00842074
0.00838242
0.00835089
0.00835679
0.00838697
0.00841458
0.00842463
0.00842823
0.00843101
0.00843302
0.00843301
0.00762597
0.00791318
0.008435
0.0084338
0.00842563
0.00839725
0.00835545
0.00835041
0.00837285
0.00840611
0.00842237
0.00842733
0.00842997
0.00843218
0.00843373
0.00843328
0.00760026
0.00789384
0.00843528
0.00843422
0.00842872
0.00840912
0.00836501
0.00834686
0.00836029
0.00839411
0.00841859
0.00842629
0.00842934
0.00843147
0.00843315
0.0084343
0.0084334
0.00757662
0.00787539
0.00843591
0.00843499
0.00843164
0.00841736
0.00837893
0.00834745
0.00835124
0.00837982
0.00841148
0.00842506
0.00842868
0.00843095
0.00843266
0.00843399
0.00843474
0.00843341
0.00755494
0.00785808
0.00843637
0.00843511
0.00843294
0.00842345
0.00839399
0.00835213
0.0083463
0.0083659
0.00840056
0.00842232
0.00842843
0.00843051
0.00843226
0.00843355
0.00843469
0.00843505
0.00843348
0.00753516
0.00784143
0.00843643
0.00843572
0.00843417
0.00842746
0.00840621
0.00836165
0.00834357
0.0083549
0.0083874
0.00841599
0.0084278
0.00843055
0.00843185
0.00843331
0.00843448
0.00843524
0.00843537
0.00843354
0.00751722
0.00782587
0.00843672
0.00843676
0.008435
0.00843034
0.00841502
0.00837526
0.0083444
0.00834731
0.00837358
0.00840659
0.0084252
0.00843071
0.00843219
0.00843296
0.00843414
0.00843526
0.00843569
0.00843566
0.00843363
0.0075011
0.00781153
0.00843689
0.00843723
0.00843542
0.00843214
0.00842159
0.00838986
0.00834878
0.00834311
0.00836089
0.00839515
0.00841992
0.00842974
0.00843267
0.00843343
0.00843385
0.00843491
0.00843586
0.008436
0.00843593
0.0084336
0.00748682
0.00779868
0.00843705
0.00843772
0.00843622
0.00843354
0.00842589
0.00840299
0.00835739
0.00834059
0.00835098
0.00838248
0.00841245
0.00842728
0.00843219
0.00843421
0.00843433
0.00843469
0.00843571
0.00843639
0.00843636
0.00843617
0.00843359
0.00747434
0.00778713
0.00843747
0.00843808
0.00843707
0.00843474
0.00842916
0.00841221
0.00836996
0.00834077
0.00834408
0.0083692
0.00840286
0.00842374
0.00843105
0.00843392
0.00843537
0.00843522
0.00843537
0.0084363
0.00843669
0.00843674
0.00843639
0.00843356
0.00746375
0.00777712
0.00843744
0.00843846
0.00843787
0.00843589
0.00843183
0.00841938
0.00838444
0.00834432
0.00833975
0.00835728
0.00839142
0.00841792
0.00842979
0.00843332
0.00843538
0.00843641
0.00843604
0.00843606
0.00843686
0.00843709
0.00843705
0.00843651
0.0084335
0.00745534
0.00776202
0.00843776
0.00843904
0.0084384
0.00843692
0.00843406
0.00842486
0.00839812
0.00835172
0.00833733
0.0083476
0.00837896
0.00841008
0.00842717
0.00843267
0.00843476
0.00843626
0.00843725
0.00843662
0.00843662
0.00843726
0.00843746
0.00843739
0.00843669
0.00842873
0.00744833
0.00774653
0.00843004
0.00843944
0.00843902
0.00843774
0.00843581
0.00842894
0.0084087
0.00836289
0.00833678
0.00834115
0.00836615
0.0084
0.00842299
0.00843182
0.00843456
0.00843579
0.00843711
0.00843797
0.00843736
0.00843713
0.00843758
0.00843784
0.00843763
0.00843193
0.00836301
0.00729112
0.00773034
0.00841713
0.00843983
0.00843957
0.00843854
0.00843724
0.00843216
0.00841642
0.00837625
0.00833925
0.00833658
0.00835472
0.00838863
0.00841641
0.00843038
0.0084342
0.0084357
0.00843652
0.00843792
0.00843871
0.00843799
0.0084376
0.0084379
0.00843819
0.00843806
0.00836631
0.00815931
0.00743728
0.00771117
0.0083925
0.00843823
0.0084403
0.00843943
0.00843857
0.00843473
0.00842274
0.00838985
0.0083448
0.00833428
0.00834509
0.00837658
0.00840801
0.00842704
0.00843398
0.00843594
0.00843649
0.00843712
0.00843848
0.00843929
0.00843859
0.00843794
0.00843832
0.00843877
0.00843827
0.00834805
0.00843358
0.00743536
0.00768775
0.00835942
0.0084282
0.00844095
0.00844037
0.00843984
0.00843689
0.00842745
0.0084017
0.00835366
0.00833267
0.00833874
0.00836475
0.00839799
0.00842188
0.00843257
0.00843583
0.00843679
0.00843704
0.00843759
0.00843914
0.00844011
0.00843915
0.00843823
0.00843887
0.0084391
0.00843833
0.00843789
0.00843332
0.00743397
0.00765883
0.00831373
0.00839788
0.00844155
0.0084413
0.00844105
0.00843872
0.00843116
0.00841086
0.00836443
0.00833356
0.00833388
0.00835349
0.00838732
0.0084151
0.00843023
0.00843538
0.00843703
0.00843733
0.00843744
0.00843819
0.00843982
0.00844081
0.00843954
0.00843864
0.00843929
0.00843928
0.00843844
0.00843826
0.00843277
0.00743527
0.0076278
0.00826583
0.00837046
0.0084046
0.00844214
0.00844217
0.0084404
0.00843416
0.00841763
0.00837671
0.00833665
0.00833079
0.00834379
0.00837575
0.00840671
0.00842639
0.00843442
0.00843698
0.00843758
0.00843764
0.00843773
0.00843859
0.00844047
0.00844147
0.00844005
0.00843909
0.00843955
0.00843937
0.0084385
0.00843872
0.0084319
0.00744153
0.00763876
0.00822497
0.00837692
0.00839605
0.00839878
0.0084431
0.00844161
0.00843634
0.00842274
0.00838897
0.00834288
0.0083286
0.00833653
0.0083645
0.00839694
0.00842087
0.00843276
0.00843646
0.00843771
0.00843773
0.00843791
0.00843795
0.0084391
0.00844115
0.00844218
0.00844043
0.00843949
0.0084398
0.0084394
0.00843887
0.00843883
0.00843118
0.00744583
0.00765421
0.00822666
0.00838749
0.00843403
0.00839346
0.0084439
0.0084425
0.00843783
0.00842648
0.00839906
0.00835178
0.00832809
0.00833173
0.00835336
0.00838678
0.00841371
0.00842959
0.00843553
0.00843754
0.00843812
0.00843811
0.0084381
0.00843842
0.00843963
0.0084419
0.00844282
0.00844084
0.00843964
0.00843988
0.00843943
0.00843921
0.00843818
0.00841909
0.00644766
0.00815921
0.00767435
0.00823462
0.00838629
0.00844372
0.00843807
0.00844466
0.00844335
0.00843859
0.0084291
0.00840665
0.00836129
0.00832961
0.00832791
0.00834428
0.00837662
0.00840574
0.00842526
0.00843413
0.00843669
0.00843801
0.00843829
0.00843828
0.00843835
0.00843896
0.00844033
0.00844269
0.00844326
0.00844107
0.00843982
0.00843989
0.00843962
0.00842521
0.0084991
0.00817844
0.0081774
0.0064451
0.00813195
0.00769925
0.0082459
0.00839073
0.00844384
0.00844465
0.0084451
0.00844378
0.00843904
0.00843075
0.00841252
0.00837133
0.00833252
0.00832508
0.00833584
0.00836637
0.00839795
0.00842007
0.00843186
0.0084358
0.00843718
0.0084379
0.00843814
0.00843813
0.00843856
0.00843947
0.00844117
0.00844333
0.00844359
0.00844144
0.0084399
0.00843971
0.00842447
0.00836738
0.00817613
0.00817472
0.0083453
0.0081763
0.0081536
0.00815331
0.00645884
0.00813584
0.00772869
0.00826251
0.00839763
0.00844394
0.00844486
0.00844531
0.00844385
0.00843901
0.00843144
0.00841647
0.00838086
0.00833841
0.00832312
0.00832936
0.00835496
0.00838838
0.00841426
0.00842942
0.00843508
0.00843642
0.00843719
0.00843776
0.00843771
0.00843818
0.00843886
0.00844034
0.008442
0.00844391
0.00844383
0.00844141
0.00843968
0.00842283
0.00817624
0.00817508
0.00815492
0.00815443
0.0081569
0.00816004
0.00815918
0.00816155
0.00648519
0.00816248
0.00776316
0.00828581
0.0084089
0.00844383
0.00844492
0.0084453
0.00844353
0.00843854
0.00843148
0.00841883
0.00838844
0.00834575
0.00832312
0.00832522
0.00834436
0.00837769
0.00840616
0.00842529
0.00843396
0.00843645
0.00843687
0.00843714
0.00843734
0.00843757
0.00843817
0.0084396
0.00844107
0.00844269
0.00844419
0.00844383
0.00844119
0.00842142
0.00817038
0.00816953
0.00815846
0.00816056
0.00815693
0.00817032
0.00816874
0.00818507
0.00819262
0.00819571
0.00652325
0.00819646
0.00780254
0.00830932
0.00842572
0.00844357
0.00844475
0.00844498
0.00844308
0.00843801
0.0084313
0.00842024
0.00839418
0.00835295
0.00832402
0.00832195
0.00833585
0.00836741
0.00839769
0.00841923
0.008431
0.0084352
0.0084368
0.00843734
0.00843748
0.00843738
0.00843766
0.00843865
0.00844027
0.00844166
0.00844296
0.00844414
0.00844371
0.00842391
0.00816853
0.00817254
0.0081599
0.00816626
0.00816677
0.00817944
0.00817863
0.00820383
0.00819932
0.00821674
0.00822851
0.00822997
0.00656245
0.00822529
0.00784534
0.00831727
0.00844196
0.00844323
0.00844435
0.00844436
0.00844219
0.00843722
0.008431
0.00842102
0.00839848
0.00835992
0.00832588
0.00831877
0.00832794
0.0083566
0.00838907
0.00841345
0.00842729
0.00843284
0.00843481
0.00843645
0.00843723
0.00843778
0.00843794
0.00843788
0.0084392
0.00844075
0.00844203
0.00844305
0.00844401
0.00842745
0.00818384
0.00819676
0.00817421
0.00818548
0.00818702
0.00819688
0.00819386
0.00820783
0.00821036
0.00823563
0.00823024
0.00824469
0.00825797
0.00825861
0.00660703
0.00824951
0.00789166
0.00832644
0.00844123
0.00844271
0.00844368
0.00844338
0.00844085
0.00843618
0.00843021
0.00842119
0.00840121
0.008366
0.00832969
0.00831577
0.00832152
0.00834443
0.008378
0.00840594
0.00842362
0.00843059
0.00843312
0.00843362
0.00843486
0.00843648
0.00843809
0.00843889
0.0084389
0.00844002
0.00844128
0.00844228
0.00844291
0.00842897
0.00820353
0.0082104
0.00819901
0.00821208
0.00820563
0.00821611
0.00821621
0.00822511
0.00822375
0.0082356
0.0082398
0.00826246
0.00825648
0.00826876
0.008282
0.00828259
0.0066527
0.00826907
0.00794013
0.00833591
0.00844054
0.00844193
0.00844269
0.00844196
0.00843912
0.00843469
0.00842892
0.0084207
0.00840245
0.00837045
0.00833446
0.00831417
0.00831629
0.00833306
0.00836529
0.00839556
0.00841683
0.00842737
0.00843126
0.00843235
0.00843177
0.00843316
0.00843558
0.00843861
0.00844017
0.00844074
0.00844147
0.00844201
0.00844228
0.00842835
0.00821427
0.00821523
0.00821995
0.00822657
0.00822761
0.00823823
0.00823316
0.00824231
0.00824311
0.00825025
0.00824931
0.00825958
0.008265
0.00828495
0.00827878
0.00828911
0.00830121
0.00830281
0.006699
0.00828506
0.0080028
0.00834538
0.00843963
0.00844094
0.00844139
0.00844013
0.00843698
0.00843265
0.00842704
0.00841924
0.00840262
0.00837304
0.00833853
0.00831418
0.00831185
0.00832344
0.00835259
0.00838429
0.00840818
0.00842089
0.00842734
0.00843026
0.00843052
0.00843073
0.00843203
0.0084346
0.0084388
0.00844145
0.00844288
0.0084432
0.0084426
0.00842879
0.00821331
0.00821264
0.00823014
0.00823024
0.00824546
0.00825088
0.00825223
0.00826095
0.00825716
0.00826603
0.0082673
0.00827267
0.00827102
0.00828041
0.00828624
0.00830399
0.00829714
0.00830605
0.0083158
0.00831896
0.0067488
0.00829939
0.0080727
0.00836862
0.00843855
0.00843974
0.00843978
0.00843789
0.00843444
0.00842999
0.0084244
0.00841647
0.00840163
0.00837397
0.00834113
0.00831491
0.00830734
0.00831557
0.00834034
0.00837285
0.00839913
0.00841345
0.00842077
0.00842564
0.00842771
0.00842882
0.00842983
0.00843109
0.00843363
0.00843844
0.00844223
0.00844448
0.00844432
0.00843269
0.00821018
0.00821262
0.00822922
0.00822712
0.00825419
0.00825391
0.00826775
0.00827246
0.00827388
0.00828061
0.00827767
0.00828622
0.00828844
0.00829185
0.00828986
0.00829842
0.00830343
0.00832003
0.00831178
0.0083205
0.0083273
0.00833118
0.00680058
0.00831192
0.00812947
0.00840074
0.00843714
0.00843826
0.00843785
0.00843531
0.00843143
0.00842662
0.00842075
0.0084126
0.00839848
0.00837361
0.00834216
0.00831525
0.00830319
0.00830778
0.00832752
0.00836005
0.00838886
0.00840521
0.0084133
0.00841864
0.00842168
0.008424
0.00842648
0.00842871
0.00843074
0.00843361
0.00843794
0.00844244
0.0084452
0.00844653
0.00821899
0.00805781
0.00822488
0.00822616
0.00825357
0.00825129
0.00827516
0.00827471
0.00828693
0.00829073
0.00829236
0.00829642
0.00829439
0.00830116
0.00830543
0.00830595
0.00830605
0.0083131
0.00831712
0.00833335
0.00832389
0.00833331
0.0083366
0.0083398
0.00685344
0.00832253
0.00817136
0.00842132
0.00843572
0.0084364
0.00843551
0.00843234
0.00842785
0.0084224
0.00841594
0.00840722
0.00839293
0.00837064
0.0083417
0.00831464
0.00829884
0.00829892
0.00831407
0.00834426
0.00837542
0.00839471
0.00840499
0.00840963
0.00841244
0.00841536
0.00841951
0.00842415
0.00842844
0.00843195
0.00843522
0.00843878
0.00844296
0.00844618
0.00833316
0.00822954
0.00805419
0.00824955
0.00825224
0.00827364
0.00827085
0.00829195
0.00828871
0.00830041
0.00829926
0.00830344
0.00829863
0.00830372
0.00830086
0.00831581
0.00830649
0.00831945
0.0083196
0.00832748
0.00834376
0.0083336
0.00834351
0.00834482
0.00834602
0.00690581
0.00833104
0.00820262
0.00842985
0.00843394
0.0084343
0.00843267
0.0084289
0.00842361
0.00841719
0.00840966
0.00839984
0.00838501
0.00836353
0.00833805
0.00831214
0.008294
0.00828942
0.00830069
0.00832684
0.00835863
0.00838094
0.0083949
0.00840027
0.00840045
0.0084028
0.00840844
0.00841597
0.0084231
0.00842968
0.00843233
0.00812589
0.00844135
0.00844468
0.00844741
0.00825839
0.00825753
0.00825639
0.00825032
0.00826695
0.00826864
0.00828285
0.00827097
0.00828821
0.0082743
0.00828827
0.00826976
0.00828608
0.00825806
0.00828478
0.00826062
0.00830293
0.00826985
0.00832182
0.00829427
0.00832503
0.0083511
0.00832979
0.00834179
0.00835098
0.00834995
0.00695677
0.0083368
0.00823595
0.00842956
0.00843226
0.00843179
0.00842937
0.00842493
0.00841865
0.00841084
0.00840161
0.00838994
0.00837385
0.00835241
0.00832875
0.00830551
0.00828677
0.00827868
0.00828549
0.00830875
0.0083397
0.00836455
0.00838286
0.00839117
0.00838929
0.00838829
0.00839302
0.00840287
0.00841419
0.00842376
0.00838368
0.00806543
0.00843463
0.00844372
0.0084495
0.00825227
0.00825129
0.00824785
0.00824155
0.00826728
0.00825463
0.00826085
0.00825492
0.00825277
0.00822103
0.0082314
0.00820489
0.00822085
0.00819365
0.00822002
0.00817755
0.00822232
0.00818213
0.00824968
0.00820249
0.00828975
0.00823478
0.008289
0.00834939
0.00829493
0.00831037
0.0083549
0.0083511
0.00700532
0.008338
0.00827977
0.0084287
0.00843064
0.00842904
0.0084257
0.00842042
0.00841294
0.00840328
0.00839151
0.00837694
0.00835848
0.00833628
0.00831294
0.0082911
0.0082724
0.00826085
0.00826283
0.00828291
0.00831587
0.00834464
0.00836784
0.00838101
0.00838024
0.00837639
0.00837669
0.00838518
0.00839961
0.00841444
0.00833232
0.00829583
0.00839624
0.00812514
0.00844302
0.00817518
0.00795012
0.00822742
0.00822027
0.00821373
0.00821749
0.0082382
0.00821555
0.00820529
0.0082039
0.00818217
0.00815052
0.00814972
0.00809626
0.00811923
0.008052
0.00811049
0.00802012
0.00812689
0.00802907
0.00817479
0.00807523
0.00822008
0.00813532
0.00819379
0.00832249
0.00819821
0.00820521
0.00835622
0.00833336
0.00704573
0.00833332
0.00833408
0.0084284
0.00842814
0.00842619
0.00842178
0.00841545
0.00840646
0.00839446
0.00837913
0.00836035
0.00833821
0.00831422
0.00829098
0.00826899
0.00824896
0.00823342
0.008228
0.00824184
0.00827523
0.00831314
0.00834343
0.0083646
0.0083711
0.00836861
0.0083643
0.00836748
0.00838175
0.00839433
0.00836227
0.00823255
0.00809655
0.00781958
0.00817064
0.00820925
0.00801031
0.00783138
0.00821654
0.00820861
0.00814998
0.00812301
0.00819329
0.00817107
0.00811858
0.00808777
0.00803599
0.00797367
0.00797176
0.00788427
0.00792482
0.00782954
0.00791018
0.00772021
0.00790706
0.00768833
0.0080046
0.00775507
0.0080956
0.0079019
0.00808411
0.00821942
0.00807103
0.00807585
0.00834554
0.00826773
0.00707324
0.00831984
0.00843103
0.0084236
0.00842244
0.00841761
0.00841006
0.00839935
0.00838435
0.00836444
0.00833994
0.00831288
0.00828673
0.00826446
0.00824499
0.00822605
0.00820682
0.00819274
0.00819342
0.00821757
0.00825899
0.00829882
0.00833045
0.00835291
0.0083627
0.00835602
0.0083536
0.00836379
0.00838575
0.00839854
0.00813579
0.00784258
0.00790285
0.00797207
0.00821195
0.00809199
0.00796511
0.0081677
0.00812695
0.0080848
0.00803628
0.00793352
0.00787074
0.00804468
0.00799066
0.00791423
0.00785351
0.00779751
0.00772063
0.0076946
0.0075679
0.00757663
0.00745758
0.00750952
0.00729764
0.00748263
0.00739099
0.00761537
0.00751339
0.00783698
0.00758885
0.00781214
0.0081097
0.00787649
0.00781769
0.00831809
0.00817613
0.00706952
0.00828386
0.00841403
0.00841624
0.00841277
0.00840412
0.00839178
0.00837323
0.00834754
0.00831589
0.00828268
0.0082545
0.00823511
0.00822243
0.00821059
0.00819522
0.00817705
0.00816379
0.00816848
0.00819718
0.00823726
0.00827456
0.00831344
0.00834334
0.0083486
0.00834292
0.00834628
0.00836193
0.0083745
0.00811886
0.00791541
0.00803601
0.00808242
0.00821698
0.00784183
0.00744855
0.00777056
0.00764437
0.00796784
0.00788335
0.00779968
0.00772712
0.00763458
0.0075686
0.0077807
0.00770483
0.00765663
0.00758103
0.00746932
0.00739573
0.00729409
0.00716331
0.00730113
0.00730166
0.00733574
0.00721118
0.00732883
0.00733348
0.00742568
0.00743605
0.00762357
0.00722671
0.00741808
0.00793997
0.00753127
0.0058131
0.00650951
0.00824215
0.00806454
0.00699298
0.00822831
0.00839319
0.00840542
0.00839794
0.00838352
0.00836169
0.00832899
0.00828871
0.00824811
0.00821746
0.00820153
0.00819634
0.00819488
0.00819103
0.00818061
0.00816537
0.00815438
0.00815979
0.00818532
0.00821749
0.00825583
0.00830162
0.00832943
0.00833155
0.00832889
0.00833076
0.00832132
0.00819099
0.0081134
0.00815614
0.00819977
0.00824546
0.00802492
0.00744971
0.00711223
0.00748665
0.00740926
0.00765294
0.00757406
0.00750909
0.0074619
0.00734545
0.0072669
0.00749207
0.00741584
0.0073366
0.00725922
0.00709325
0.00707479
0.00718943
0.00710223
0.00726604
0.0073042
0.00734754
0.00727543
0.00710564
0.00701733
0.0071715
0.00707314
0.00729299
0.00478854
0.00524492
0.00559612
0.00508984
0.00610882
0.0068641
0.00609572
0.00538799
0.00512327
0.00529063
0.00540532
0.00816858
0.0064087
0.00659314
0.00732679
0.00698336
0.00807341
0.00836544
0.00838986
0.00837564
0.00834956
0.00831034
0.00825923
0.00821008
0.00817553
0.00816067
0.00815988
0.00816502
0.00815252
0.00811403
0.00809309
0.00816574
0.00815881
0.00816313
0.00818017
0.0082062
0.0082456
0.00829187
0.00831379
0.0083114
0.00829675
0.00826597
0.00822337
0.00821056
0.00818168
0.00819249
0.00821446
0.00809832
0.00718053
0.00665219
0.00733987
0.00724838
0.00726839
0.00716275
0.00739969
0.00733482
0.00719175
0.00715252
0.00703491
0.00698284
0.00715131
0.00707391
0.00712219
0.00716146
0.00706091
0.0070649
0.00724246
0.00718418
0.00721198
0.00715041
0.00690716
0.00684154
0.00451742
0.00416917
0.00443544
0.00438712
0.00467305
0.00460586
0.00464126
0.0044737
0.00453279
0.0049312
0.00490392
0.00479262
0.00455639
0.0047994
0.00550241
0.00566242
0.00506469
0.00481868
0.00480795
0.00513623
0.00684378
0.00761785
0.00722818
0.00587586
0.00617526
0.00700556
0.00707021
0.00709143
0.00751956
0.00832776
0.00836681
0.00834009
0.00829138
0.00823026
0.00816992
0.00813001
0.00810117
0.00810481
0.00811904
0.00811281
0.00799382
0.00771499
0.00773196
0.0081681
0.00816638
0.00816837
0.00817764
0.00819903
0.00823673
0.00828021
0.0082909
0.00826551
0.00821629
0.00816992
0.00809047
0.00806224
0.00792263
0.00794583
0.00799574
0.00774061
0.0068334
0.00634113
0.00703721
0.0069355
0.00699395
0.0068895
0.00711469
0.00705016
0.00692939
0.0068971
0.00702116
0.00701378
0.0070844
0.00703256
0.00712692
0.00718725
0.00714087
0.00711622
0.00709139
0.00704619
0.00681845
0.00660792
0.00432515
0.00429429
0.00427066
0.00425842
0.0042944
0.00425181
0.00421106
0.00446378
0.00440298
0.00428822
0.00429793
0.00434993
0.0045682
0.00465587
0.00455745
0.00445981
0.00465379
0.00522218
0.00535489
0.00487396
0.00466349
0.00468314
0.00492515
0.00656924
0.00694504
0.0055534
0.00583556
0.00696347
0.0052756
0.00791522
0.00714984
0.00716566
0.00828093
0.00831382
0.00827792
0.00820108
0.00813108
0.00808324
0.00806136
0.00804735
0.00805805
0.00807895
0.00800828
0.00765544
0.0073761
0.00785638
0.0081672
0.00817013
0.00816896
0.00817206
0.00818937
0.00822594
0.00825638
0.00823628
0.00817534
0.00807252
0.00799176
0.00780727
0.00777512
0.00768379
0.00805152
0.00809671
0.00690986
0.00662642
0.00688202
0.00679757
0.00676153
0.0066764
0.00700004
0.00695255
0.00687501
0.00703963
0.00700807
0.0069877
0.00711461
0.00710848
0.00715521
0.00713135
0.00708701
0.00706012
0.00702975
0.00704313
0.00639715
0.00654876
0.00424481
0.00424115
0.00423877
0.00424243
0.00418034
0.00417769
0.00420843
0.00424814
0.00423385
0.00422468
0.00423382
0.0043862
0.00434465
0.00426657
0.00431263
0.00431219
0.00448268
0.00454706
0.00448246
0.00440341
0.00455796
0.00499941
0.00511509
0.00473264
0.0045679
0.00459992
0.00476943
0.00623554
0.00676378
0.00528997
0.00554636
0.00779546
0.00496728
0.00809006
0.00721436
0.00745864
0.00820544
0.00824148
0.0081779
0.00809112
0.00803813
0.00801276
0.00800634
0.00801537
0.00803222
0.00805494
0.00797175
0.00769663
0.00757596
0.00805648
0.00816223
0.00816692
0.00816235
0.00816127
0.00817725
0.00820884
0.00820625
0.00814316
0.0080028
0.00781681
0.00769697
0.0079455
0.00730311
0.0077707
0.00829971
0.00789794
0.00676601
0.00651271
0.00686667
0.00678234
0.00689699
0.00683006
0.00707871
0.00704874
0.00661616
0.0067625
0.00709604
0.00611882
0.00703959
0.00704341
0.00704261
0.00703567
0.00705194
0.00705953
0.00706228
0.00713893
0.00424942
0.0042834
0.0043156
0.0044805
0.00428415
0.00429693
0.0042912
0.00426631
0.00428535
0.00435836
0.00442549
0.00446829
0.00426705
0.00435148
0.00444301
0.00434785
0.00434454
0.00438698
0.00450259
0.00438892
0.00443943
0.00448482
0.00444652
0.00438628
0.0045052
0.00483306
0.00493186
0.00463823
0.00452197
0.00456454
0.00466514
0.00592526
0.00646321
0.00508009
0.00530756
0.0081154
0.00443426
0.00808888
0.00708593
0.00763603
0.00811447
0.00813188
0.00805561
0.00799024
0.00796486
0.00795961
0.0079775
0.00800565
0.00803262
0.00805584
0.00803333
0.0078255
0.00790946
0.00812337
0.00815235
0.00815586
0.00814798
0.00814679
0.00816689
0.00817849
0.00812354
0.00795668
0.0077248
0.00793835
0.00791436
0.00699845
0.00788104
0.0082484
0.00829859
0.00672344
0.00665103
0.00674268
0.00670195
0.00686026
0.00679487
0.00699441
0.0069309
0.00693697
0.00689793
0.00586546
0.00668603
0.00702461
0.00699252
0.00708286
0.00707383
0.0070662
0.0070734
0.00717361
0.00720074
0.00682153
0.00710701
0.00427499
0.00432766
0.00438527
0.00457556
0.00448819
0.00448103
0.00445467
0.00443323
0.00452219
0.0045907
0.00462983
0.00463866
0.00448519
0.00460221
0.00468448
0.00438552
0.00448474
0.00464297
0.00478145
0.00463421
0.00443212
0.00446466
0.0044552
0.00446006
0.00449247
0.00471712
0.00479604
0.00458394
0.0045241
0.00456335
0.00460931
0.0056583
0.00617721
0.0049188
0.00511627
0.0081693
0.00388646
0.00804334
0.00687748
0.00765609
0.007993
0.00800299
0.00794634
0.00791517
0.00791783
0.00795171
0.00799638
0.00803398
0.00806051
0.0080763
0.00808551
0.00797412
0.0080939
0.00812413
0.00813537
0.00813624
0.00812934
0.00813662
0.00815422
0.0081165
0.00794181
0.00769228
0.00788612
0.00758013
0.00742074
0.00802574
0.00822582
0.00822636
0.00785981
0.00674194
0.00638527
0.00669349
0.00668871
0.00675435
0.00671743
0.00685001
0.00680073
0.00686896
0.00682729
0.00695734
0.00691379
0.00704101
0.00700341
0.00723718
0.00721682
0.00721771
0.00723051
0.00716653
0.00747244
0.00484084
0.00488404
0.00498635
0.00494355
0.00447125
0.00454748
0.00462194
0.00470785
0.00462948
0.00461119
0.00460833
0.00465378
0.00472302
0.00474732
0.00475071
0.00474051
0.00474463
0.00481437
0.00483889
0.00458002
0.00475449
0.00487989
0.00498773
0.00490431
0.00452531
0.00449437
0.00457725
0.00469479
0.00452446
0.00464983
0.00470421
0.00457379
0.00456966
0.00459153
0.00460145
0.00543464
0.00594777
0.0048008
0.00496783
0.00818735
0.0033967
0.00797748
0.00678875
0.00771584
0.00785598
0.00789555
0.00787201
0.00788102
0.00793629
0.00799444
0.00804727
0.00808244
0.00809803
0.00810108
0.00809624
0.00809322
0.0080978
0.00810666
0.00811251
0.00811238
0.00811514
0.00813284
0.00810992
0.00793307
0.00796751
0.00787178
0.00750108
0.0080238
0.00814811
0.00819996
0.00824457
0.00827251
0.00755355
0.00757896
0.00700702
0.00725766
0.00676267
0.00684511
0.0067374
0.00673343
0.00678888
0.00675773
0.00688573
0.00685791
0.00696349
0.00692198
0.00718049
0.00714219
0.00747474
0.00744425
0.00748606
0.0074876
0.00502414
0.00507476
0.0072606
0.00503267
0.00507432
0.00515235
0.00511921
0.00473024
0.0048164
0.00489307
0.00497753
0.00474365
0.0047731
0.00484678
0.00493711
0.00482998
0.00482715
0.00483412
0.00486108
0.00491441
0.0049225
0.00490192
0.00486856
0.00499922
0.00500635
0.00507543
0.00507067
0.00477534
0.00462436
0.00483204
0.00498913
0.00465723
0.00462314
0.00465883
0.00461174
0.00469483
0.00471537
0.00462977
0.00527513
0.0058839
0.00472758
0.00489008
0.00814469
0.00302609
0.00756905
0.00692056
0.00767034
0.00773149
0.0078221
0.00785348
0.00792187
0.00799788
0.008067
0.00811329
0.00813163
0.0081306
0.00812019
0.00810492
0.00809224
0.00808666
0.0080865
0.00808864
0.0080939
0.00811428
0.00810309
0.0079286
0.00794594
0.00815208
0.00809777
0.00811508
0.00815693
0.00823714
0.00830135
0.00834891
0.00820998
0.00752143
0.00749066
0.00742499
0.00764819
0.0070243
0.00720686
0.00685991
0.00691279
0.0068417
0.006841
0.00704122
0.00703476
0.00710106
0.00706497
0.00741165
0.00737671
0.0076995
0.00765411
0.00752882
0.00773716
0.00516475
0.00524803
0.00535707
0.00535655
0.00526103
0.00527716
0.00530695
0.00529874
0.00502074
0.00510097
0.00516508
0.00523024
0.00494281
0.00504547
0.00514998
0.00523527
0.00488545
0.00491845
0.00500505
0.00512273
0.00497696
0.00495624
0.00496115
0.00509724
0.00512909
0.00503493
0.00508573
0.0051209
0.00505748
0.00488156
0.00510748
0.00518961
0.00491769
0.00464311
0.00466412
0.00473722
0.0049582
0.00497634
0.00474267
0.00529571
0.0060678
0.00474434
0.00499446
0.00793281
0.00280809
0.0067361
0.00701053
0.00748254
0.00762134
0.0078191
0.00790893
0.0079977
0.00808951
0.00815501
0.00817767
0.00816736
0.00814828
0.00813006
0.00810918
0.00808887
0.00807473
0.00806894
0.00807275
0.00809509
0.00810136
0.00793323
0.00793227
0.00811414
0.0080879
0.00808012
0.00819398
0.00828502
0.00836366
0.00839954
0.008428
0.00809573
0.00795511
0.00789604
0.00810829
0.00742385
0.007418
0.00744162
0.00762661
0.00715794
0.00727187
0.00704848
0.00708573
0.00732063
0.00734536
0.00734175
0.00732031
0.00761364
0.00758523
0.00763699
0.00778792
0.00535562
0.00544256
0.00745262
0.005299
0.00530455
0.00536502
0.00532854
0.00543329
0.00542278
0.00540744
0.00541944
0.00530891
0.00536537
0.00539906
0.0054322
0.0052528
0.0053689
0.00545727
0.00551873
0.00502497
0.00516448
0.00531913
0.00546503
0.00500725
0.00505301
0.00517881
0.00520568
0.00516066
0.00508425
0.00516936
0.00513328
0.0052317
0.00515825
0.00528532
0.00526168
0.00521107
0.00473905
0.00478036
0.00497959
0.00524716
0.00525212
0.00494671
0.00546603
0.00621339
0.0049075
0.00516758
0.00714844
0.00404687
0.00631571
0.00692771
0.00712
0.00755226
0.00788909
0.00799407
0.00810438
0.00819112
0.0082263
0.00821598
0.00818333
0.0081537
0.00813141
0.00810767
0.00808306
0.00806531
0.00806048
0.00807948
0.00810013
0.00795385
0.0079304
0.00807274
0.00803337
0.00781372
0.00819598
0.0083242
0.0083896
0.00842062
0.00843977
0.00828673
0.00816771
0.00803722
0.00814272
0.00815934
0.00773281
0.00811364
0.00750695
0.00738809
0.0075438
0.00764657
0.00737814
0.00744358
0.00762561
0.00765809
0.00757633
0.00759032
0.00776301
0.00774497
0.00534705
0.00555358
0.00749784
0.0052971
0.00540784
0.00532975
0.00533957
0.00538043
0.00536837
0.00536928
0.00530848
0.00556448
0.00553487
0.00547001
0.00550544
0.00556386
0.00558397
0.00558397
0.00558792
0.00558887
0.00568213
0.00573974
0.00576681
0.00533705
0.00552175
0.00568323
0.00581213
0.00517851
0.0053514
0.00554378
0.00523165
0.00519678
0.00531609
0.00544813
0.00526531
0.00530799
0.00534138
0.00537545
0.00529136
0.00540733
0.00492693
0.00497671
0.00520577
0.00542454
0.00538825
0.00514202
0.00560247
0.00618484
0.00509715
0.00532505
0.00639513
0.00461228
0.00560374
0.00659915
0.00636089
0.00752611
0.00796685
0.0081088
0.00820749
0.00825699
0.00825979
0.00822832
0.00818494
0.00815033
0.00812607
0.00810112
0.00807679
0.00806224
0.00807182
0.00809838
0.00798541
0.00794124
0.00803497
0.00797033
0.00769162
0.00806323
0.00832895
0.00839331
0.00842441
0.00844027
0.00844973
0.00810125
0.00795869
0.00818441
0.00818317
0.00817831
0.00818245
0.00816023
0.00817209
0.00779069
0.00805128
0.007621
0.00762169
0.00768681
0.00770881
0.0078264
0.00787222
0.00774791
0.00777638
0.00762284
0.00779823
0.00518849
0.0054135
0.00539082
0.00534385
0.00526979
0.00526024
0.00518137
0.00520759
0.00542772
0.00540228
0.00534733
0.00529363
0.00567679
0.00562607
0.00552492
0.00557466
0.005774
0.00576138
0.00573691
0.00571915
0.00590733
0.00596692
0.00599087
0.00598138
0.00572476
0.0059063
0.00604617
0.00614439
0.00553286
0.00575976
0.00595777
0.00529189
0.00536998
0.00570251
0.00585876
0.00557297
0.00536497
0.00544113
0.00543427
0.00537658
0.0054884
0.00513429
0.00517699
0.00533855
0.00545883
0.00545222
0.00532819
0.00564296
0.0059517
0.00528845
0.00544277
0.00490727
0.00400395
0.00530008
0.0059147
0.00553145
0.00750537
0.00805903
0.00820389
0.00825419
0.00827259
0.0082624
0.00822363
0.00817798
0.00814167
0.00811652
0.00809297
0.00807443
0.00807367
0.00809929
0.00801981
0.00795989
0.00800293
0.00791072
0.00784273
0.00783558
0.0083113