/*--------------------------------*- C++ -*----------------------------------*\
  =========                 |
  \\      /  F ield         | OpenFOAM: The Open Source CFD Toolbox
   \\    /   O peration     | Website:  https://openfoam.org
    \\  /    A nd           | Version:  dev
     \\/     M anipulation  |
\*---------------------------------------------------------------------------*/
FoamFile
{
    version     2.0;
    format      ascii;
    class       volScalarField;
    location    "2500";
    object      rDeltaT;
}
// * * * * * * * * * * * * * * * * * * * * * * * * * * * * * * * * * * * * * //

dimensions      [0 0 -1 0 0 0 0];

internalField   nonuniform List<scalar> 
9842
(
100
100
100
100
100
100
100
100
100
100
100
100
100
100
100
100
100
100
100
100
100
100
100
100
100
100
100
100
100
100
100
100
100
100
100
100
100
100
100
100
100
100
100
100
100
100
100
100
100
100
100
100
100
100
100
100
100
100
100
100
100
100
100
100
100
100
100
100
100
100
100
100
100
100
100
100
100
100
100
100
100
100
100
100
100
100
100
100
100
100
100
100
100
100
100
100
100
100
100
100
100
100
100
100
100
100
100
100
100
100
100
100
100
100
100
100
100
100
100
100
100
100
100
100
100
100
100
100
100
100
100
100
100
100
100
100
100
100
100
100
100
100
100
100
100
100
100
100
100
100
100
100
100
100
100
100
100
100
100
100
100
100
100
100
100
100
100
100
100
100
100
100
100
100
100
100
100
100
100
100
100
100
100
100
100
100
100
100
100
100
100
100
100
100
100
100
100
100
100
100
100
100
100
100
100
100
100
100
100
100
100
100
100
100
100
100
100
100
100
100
100
100
100
100
100
100
100
100
100
100
100
100
100
100
100
100
100
100
100
100
100
100
100
100
100
100
100
100
100
100
100
100
100
100
100
100
100
100
100
100
100
100
100
100
100
100
100
100
100
100
100
100
100
100
100
100
100
100
100
100
100
100
100
100
100
100
100
100
100
100
100
100
100
100
100
100
100
100
100
100
100
100
100
100
100
100
100
100
100
100
100
100
100
100
100
100
100
100
100
100
100
100
100
100
100
100
100
100
100
100
100
100
100
100
100
100
100
100
100
100
100
100
100
100
100
100
100
100
100
100
100
100
100
100
100
100
100
100
100
100
100
100
100
100
100
100
100
100
100
100
100
100
100
100
100
100
100
100
100
100
100
100
100
100
100
100
100
100
100
100
100
100
100
100
100
100
100
100
100
100
100
100
100
100
100
100
100
100
100
100
100
100
100
100
100
100
100
100
100
100
100
100
100
100
100
100
100
100
100
100
100
100
100
100
100
100
100
100
100
100
100
100
100
100
100
100
100
100
100
100
100
100
100
100
100
100
100
100
100
100
100
100
100
100
100
100
100
100
100
100
100
100
100
100
100
100
100
100
100
100
100
100
100
100
100
100
100
100
100
100
100
100
100
100
100
100
100
100
100
100
100
100
100
100
100
100
100
100
100
100
100
100
100
100
100
100
100
100
100
100
100
100
100
100
100
100
100
100
100
100
100
100
100
100
100
100
100
100
100
100
100
100
100
100
100
100
100
100
100
100
100
100
100
100
100
100
100
100
100
100
100
100
100
100
100
100
100
100
100
100
100
100
100
100
100
100
100
100
100
100
100
100
100
100
100
100
100
100
100
100
100
100
100
100
100
100
100
100
100
100
100
100
100
100
100
100
100
100
100
100
100
100
100
100
100
100
100
100
100
100
100
100
100
100
100
100
100
100
100
100
100
100
100
100
100
100
100
100
100
100
100
100
100
100
100
100
100
100
100
100
100
100
100
100
100
100
100
100
100
100
100
100
100
100
100
100
100
100
100
100
100
100
100
100
100
100
100
100
100
100
100
100
100
100
100
100
100
100
100
100
100
100
100
100
100
100
100
100
100
100
100
100
100
100
100
100
100
100
100
100
100
100
100
100
100
100
100
100
100
100
100
100
100
100
100
100
100
100
100
100
100
100
100
100
100
100
100
100
100
100
100
100
100
100
100
100
100
100
100
100
100
100
100
100
100
100
100
100
100
100
100
100
100
100
100
100
100
100
100
100
100
100
100
100
100
100
100
100
100
100
100
100
100
100
100
100
100
100
100
100
100
100
100
100
100
100
100
100
100
100
100
100
100
100
100
100
100
100
100
100
100
100
100
100
100
100
100
100
100
100
100
100
100
100
100
100
100
100
100
100
100
100
100
100
100
100
100
100
100
100
100
100
100
100
100
100
100
100
100
100
100
100
100
100
100
100
100
100
100
100
100
100
100
100
100
100
100
100
100
100
100
100
100
100
100
100
100
100
100
100
100
100
100
100
100
100
100
100
100
100
100
100
100
100
100
100
100
100
100
100
100
100
100
100
100
100
100
100
100
100
100
100
100
100
100
100
100
100
100
100
100
100
100
100
100
100
100
100
100
100
100
100
100
100
100
100
100
100
100
100
100
100
100
100
100
100
100
100
100
100
100
100
100
100
100
100
100
100
100
100
100
100
100
100
100
100
100
100
100
100
100
100
100
100
100
100
100
100
100
100
100
100
100
100
100
100
100
100
100
100
100
100
100
100
100
100
100
100
100
100
100
100
100
100
100
100
100
100
100
100
100
100
100
100
100
100
100
100
100
100
100
100
100
100
100
100
100
100
100
100
100
100
100
100
100
100
100
100
100
100
100
100
100
100
100
100
100
100
100
100
100
100
100
100
100
100
100
100
100
100
100
100
100
100
100
100
100
100
100
100
100
100
100
100
100
100
100
100
100
100
100
100
100
100
100
100
100
100
100
100
100
100
100
100
100
100
100
100
100
100
100
100
100
100
100
100
100
100
100
100
100
100
100
100
100
100
100
100
100
100
100
100
100
100
100
100
100
100
100
100
100
100
100
100
100
100
100
100
100
100
100
100
100
100
100
100
100
100
100
100
100
100
100
100
100
100
100
100
100
100
100
100
100
100
100
100
100
100
100
100
100
100
100
100
100
100
100
100
100
100
100
100
100
100
100
100
100
100
100
100
100
100
100
100
100
100
100
100
100
100
100
100
100
100
100
100
100
100
100
100
100
100
100
100
100
100
100
100
100
100
100
100
100
100
100
100
100
100
100
100
100
100
100
100
100
100
100
100
100
100
100
100
100
100
100
100
100
100
100
100
100
100
100
100
100
100
100
100
100
100
100
100
100
100
100
100
100
100
100
100
100
100
100
100
100
100
100
100
100
100
100
100
100
100
100
100
100
100
100
100
100
100
100
100
100
100
100
100
100
100
100
100
100
100
100
100
100
100
100
100
100
100
100
100
100
100
100
100
100
100
100
100
100
100
100
100
100
100
100
100
100
100
100
100
100
100
100
100
100
100
100
100
100
100
100
100
100
100
100
100
100
100
100
100
100
100
100
100
100
100
100
100
100
100
100
100
100
100
100
100
100
100
100
100
100
100
100
100
100
100
100
100
100
100
100
100
100
100
100
100
100
100
100
100
100
100
100
100
100
100
100
100
100
100
100
100
100
100
100
100
100
100
100
100
100
100
100
100
100
100
100
100
100
100
100
100
100
100
100
100
100
100
100
100
100
100
100
100
100
100
100
100
100
100
100
100
100
100
100
100
100
100
100
100
100
100
100
100
100
100
100
100
100
100
100
100
100
100
100
100
100
100
100
100
100
100
100
100
100
100
100
100
100
100
100
100
100
100
100
100
100
100
100
100
100
100
100
100
100
100
100
100
100
100
100
100
100
100
100
100
100
100
100
100
100
100
100
100
100
100
100
100
100
100
100
100
100
100
100
100
100
100
100
100
100
100
100
100
100
100
100
100
100
100
100
100
100
100
100
100
100
100
100
100
100
100
100
100
100
100
100
100
100
100
100
100
100
100
100
100
100
100
100
100
100
100
100
100
100
100
100
100
100
100
100
100
100
100
100
100
100
100
100
100
100
100
100
100
100
100
100
100
100
100
100
100
100
100
100
100
100
100
100
100
100
100
100
100
100
100
100
100
100
100
100
100
100
100
100
100
100
100
100
100
100
100
100
100
100
100
100
100
100
100
100
100
100
100
100
100
100
100
100
100
100
100
100
100
100
100
100
100
100
100
100
100
100
100
100
100
100
100
100
100
100
100
100
100
100
100
100
100
100
100
100
100
100
100
100
100
100
100
100
100
100
100
100
100
100
100
100
100
100
100
100
100
100
100
100
100
100
100
100
100
100
100
100
100
100
100
100
100
100
100
100
100
100
100
100
100
100
100
100
100
100
100
100
100
100
100
100
100
100
100
100
100
100
100
100
100
100
100
100
100
100
100
100
100
100
100
100
100
100
100
100
100
100
100
100
100
100
100
100
100
100
100
100
100
100
100
100
100
100
100
100
100
100
100
100
100
100
100
100
100
100
100
100
100
100
100
100
100
100
100
100
100
100
100
100
100
100
100
100
100
100
100
100
100
100
100
100
100
100
100
100
100
100
100
100
100
100
100
100
100
100
100
100
100
100
100
100
100
100
100
100
100
100
100
100
100
100
100
100
100
100
100
100
100
100
100
100
100
100
100
100
100
100
100
100
100
100
100
100
100
100
100
100
100
100
100
100
100
100
100
100
100
100
100
100
100
100
100
100
100
100
100
100
100
100
100
100
100
100
100
100
100
100
100
100
100
100
100
100
100
100
100
100
100
100
100
100
100
100
100
100
100
100
100
100
100
100
100
100
100
100
100
100
100
100
100
100
100
100
100
100
100
100
100
100
100
100
100
100
100
100
100
100
100
100
100
100
100
100
100
100
100
100
100
100
100
100
100
100
100
100
100
100
100
100
100
100
100
100
100
100
100
100
100
100
100
100
100
100
100
100
100
100
100
100
100
100
100
100
100
100
100
100
100
100
100
100
100
100
100
100
100
100
100
100
100
100
100
100
100
100
100
100
100
100
100
100
100
100
100
100
100
100
100
100
100
100
100
100
100
100
100
100
100
100
100
100
100
100
100
100
100
100
100
100
100
100
100
100
100
100
100
100
100
100
100
100
100
100
100
100
100
100
100
100
100
100
100
100
100
100
100
100
100
100
100
100
100
100
100
100
100
100
100
100
100
100
100
100
100
100
100
100
100
100
100
100
100
100
100
100
100
100
100
100
100
100
100
100
100
100
100
100
100
100
100
100
100
100
100
100
100
100
100
100
100
100
100
100
100
100
100
100
100
100
100
100
100
100
100
100
100
100
100
100
100
100
100
100
100
100
100
100
100
100
100
100
100
100
100
100
100
100
100
100
100
100
100
100
100
100
100
100
100
100
100
100
100
100
100
100
100
100
100
100
100
100
100
100
100
100
100
100
100
100
100
100
100
100
100
100
100
100
100
100
100
100
100
100
100
100
100
100
100
100
100
100
100
100
100
100
100
100
100
100
100
100
100
100
100
100
100
100
100
100
100
100
100
100
100
100
100
100
100
100
100
100
100
100
100
100
100
100
100
100
100
100
100
100
100
100
100
100
100
100
100
100
100
100
100
100
100
100
100
100
100
100
100
100
100
100
100
100
100
100
100
100
100
100
100
100
100
100
100
100
100
100
100
100
100
100
100
100
100
100
100
100
100
100
100
100
100
100
100
100
100
100
100
100
100
100
100
100
100
100
100
100
100
100
100
100
100
100
100
100
100
100
100
100
100
100
100
100
100
100
100
100
100
100
100
100
100
100
100
100
100
100
100
100
100
100
100
100
100
100
100
100
100
100
100
100
100
100
100
100
100
100
100
100
100
100
100
100
100
100
100
100
100
100
100
100
100
100
100
100
100
100
100
100
100
100
100
100
100
100
100
100
100
100
100
100
100
100
100
100
100
100
100
100
100
100
100
100
100
100
100
100
100
100
100
100
100
100
100
100
100
100
100
100
100
100
100
100
100
100
100
100
100
100
100
100
100
100
100
100
100
100
100
100
100
100
100
100
100
100
100
100
100
100
100
100
100
100
100
100
100
100
100
100
100
100
100
100
100
100
100
100
100
100
100
100
100
100
100
100
100
100
100
100
100
100
100
100
100
100
100
100
100
100
100
100
100
100
100
100
100
100
100
100
100
100
100
100
100
100
100
100
100
100
100
100
100
100
100
100
100
100
100
100
100
100
100
100
100
100
100
100
100
100
100
100
100
100
100
100
100
100
100
100
100
100
100
100
100
100
100
100
100
100
100
100
100
100
100
100
100
100
100
100
100
100
100
100
100
100
100
100
100
100
100
100
100
100
100
100
100
100
100
100
100
100
100
100
100
100
100
100
100
100
100
100
100
100
100
100
100
100
100
100
100
100
100
100
100
100
100
100
100
100
100
100
100
100
100
100
100
100
100
100
100
100
100
100
100
100
100
100
100
100
100
100
100
100
100
100
100
100
100
100
100
100
100
100
100
100
100
100
100
100
100
100
100
100
100
100
100
100
100
100
100
100
100
100
100
100
100
100
100
100
100
100
100
100
100
100
100
100
100
100
100
100
100
100
100
100
100
100
100
100
100
100
100
100
100
100
100
100
102.443
100.174
100
100
100
100
102.081
102.888
100
100
100
104.837
100
100
100
100
100
100
100
100
100
100
100
100
100
100
100
100
100
100
100
100
100
100
100
100
100
100
100
100
100
100
100
100
100
100
100
100
100
100
100
100
100
100
100
100
100
100
100
100
100
100
100
100
100
100
100
100
100
100
100
100
100
100
100
100
100
100
100
100
100
100
100
100
100
100
100
100
100
100
100
100
100
100
100
100
100
100
100
100
100
100
100
100
120.066
118.142
108.483
114.198
110.58
114.672
117.831
119.863
100
103.779
110.891
117.986
100
100
100
100
100
100
100
102.841
105.697
100
113.202
109.585
104.475
100
108.923
110.721
100.983
100
100
100
104.475
106.861
100
100
100
100
100
100
136.874
100
100
100
100
100
100
100
100
100
100
100
100
100
100
100
100
100
100
100
100
100
100
100
100
100
100
100
100
100
100
100
100
100
100
100
100
100
100
100
100
100
100
100
100
100
100
100
100
100
100
100
100
100
100
100
100
100
100
100
100
101.052
100
105.506
100.763
138.333
136.653
126.064
132.581
124.913
130.1
134.288
137.67
107.216
115.153
123.213
131.276
100
100
101.858
110.022
102.001
105.093
106.405
115.569
118.824
116.76
128.849
122.796
117.219
112.054
123.28
124.405
118.702
100
100
110.847
124.177
130.558
114.44
100
100
100.354
102.97
100
121.793
127.72
101.772
107.127
100
100
100
100
100
100
100
100
100
100
100
100
100
100
100
100
100
100
100
100
100
100
100
100
100
100
100
100
100
100
100
100
100
100
100
100
100
100
100
100
100
100
100
100
100
100
100
100
100
100
100
100
100
100
100
100
100
103.967
117.273
110.076
120.33
115.333
156.845
155.827
143.969
151.631
139.295
145.991
151.093
155.398
118.38
127.079
136.086
145.17
106.905
107.761
113.558
122.236
121.484
126.565
128.853
132.169
140.242
135.278
162.144
149.459
135.438
133.85
150.541
149.903
143.154
116.114
116.167
134.824
152.528
157.519
137.15
106.346
109.361
117.156
117.934
130.096
276.084
202.659
114.764
127.602
100
100
100
100
100
100
100
100
100
100
100
100
100
100
100
100
100
100
100
100
100
100
100
100
100
100
100
100
100
100
100
100
100
100
100
100
100
100
100
100
100
100
100
100
100
100
100
100
100
100
100
107.797
100
105.762
100
112.435
109.784
114.491
119.693
133.831
126.175
133.97
128.981
176.435
176.186
162.809
171.788
154.359
162.755
168.632
173.75
130.891
140.139
150.133
160.283
128.99
128.522
129.775
137.159
143.631
153.096
157.112
166.933
180.112
174.977
199.881
190.805
170.161
164.808
187.21
193.249
176.321
136.206
135.508
159.625
181.113
183.248
158.812
118.528
122.092
133.844
131.259
158.007
256.332
161.063
128.777
143.723
100
100
100
100
100
100
100
100
100
100
100
100
100
100
100
100
100
100
100
100
100
100
100
100
100
100
100
100
100
100
100
100
100
100
100
100
100
100
100
100
100
100
100
100
100
100
100
100
100
100
100
100
100
122.529
114.373
119.371
109.664
127.413
124.735
129.291
134.011
151.399
142.156
147.312
142.553
196.808
197.66
183.886
193.612
170.461
180.001
186.912
192.816
145.558
154.947
165.865
177.563
154.103
153.36
152.535
155.805
185.145
197.966
193.685
213.777
210.623
205.293
229.079
222.474
210.165
201.886
227.41
228.6
206.941
157.069
153.6
181.687
208.659
207.668
180.033
131.664
133.975
148.614
145.702
142.899
100
100
139.494
145.091
100
100
100
100
100
100
100
100
100
100
100
100
100
100
100
100
100
100
100
100
100
100
100
100
100
100
100
100
100
100
100
100
100
100
100
100
100
100
100
100
100
100
100
100
100
100
100
100
100
100
100
100
100
135.537
127.856
130.197
120.462
141.06
137.761
142.152
147.571
171.166
158.656
162.131
156.553
217.868
220.064
207.29
216.617
188.482
198.048
206.561
212.686
163.583
171.711
183.295
197.639
187.967
185.689
182.664
180.921
217.891
236.565
245.281
230.401
260.771
257.92
154.998
282.865
235.955
234.188
239.784
251.572
235.363
176.485
171.323
205.736
235.536
234.303
204.084
143.071
142.785
165.977
157.59
125.706
111.442
116.375
144.406
139.176
100
100
100
100
100
100
100
100
100
100
100
100
100
100
100
100
100
100
100
100
100
100
100
100
100
100
100
100
100
100
100
100
100
100
100
100
100
100
100
100
100
100
100
100
100
100
100
100
100
100
100
110.962
101.212
100
100
146.992
138.984
138.547
129.21
153.826
150.276
153.353
159.417
193.323
176.586
179.528
169.983
239.819
244.094
233.994
242.086
211.484
218.432
227.542
232.8
186.798
192.298
201.866
215.567
245.16
238.612
232.879
231.016
283.803
159.525
290.002
151.517
312.788
307.698
186.031
338.95
286.616
244.823
154.117
162.889
244.888
199.84
192.955
235.301
244.385
246.376
233.964
152.809
149.388
180.522
170.109
125.187
469.752
164.504
142.106
131.612
100
100
100
100
100
100
100
100
100
100
100
100
100
100
100
100
100
100
100
100
100
100
100
100
100
100
100
100
100
100
100
100
100
100
100
100
100
100
100
100
100
100
100
100
100
100
100
100
100
100
120.021
110.056
100
106.165
156.492
147.551
146.113
136.715
164.953
161.964
163.346
169.931
218.68
197.644
202.29
185.369
263.612
270.052
264.025
271.317
232.142
238.571
247.411
251.96
234.838
237.676
245.565
254.15
285.359
279.919
272.247
270.196
334.72
189.492
337.429
183.497
369.891
359.121
216.498
395.314
343.061
156.097
184.201
194.593
155.242
226.937
210.065
248.418
155.618
156.648
240.052
160.322
150.322
195.78
178.209
119.814
227.159
100
136.52
122.129
100
100
100
100
100
100
100
100
100
100
100
100
100
100
100
100
100
100
100
100
100
100
100
100
100
100
100
100
100
100
100
100
100
100
100
100
100
100
100
100
100
100
100
100
100
100
100
100
100
100
100
100
127.152
116.69
100.742
111.571
165.23
155.44
154.374
143.964
176.579
173.093
172.985
179.834
247.927
224.748
232.264
207.406
278.531
295.385
294.824
301.183
281.799
280.299
277.882
270.324
270.644
273.882
280.718
290.012
329.816
324.962
317.068
313.172
384.497
217.979
383.904
216.266
421.051
408.247
242.887
445.884
403.663
186.918
217.768
229.524
185.418
234.953
224.543
159.014
185.774
187.154
156.429
164.744
148.394
206.058
186.76
100
100
100
129.145
107.484
100
100
100
100
100
100
100
100
100
100
100
100
100
100
100
100
100
100
100
100
100
100
100
100
100
100
100
100
100
100
100
100
100
100
100
100
100
100
100
100
100
100
100
100
100
100
100
100
100
100
100
100
133.357
122.575
105.544
117.091
173.978
164.16
163.828
152.065
191.456
183.798
182.104
189.967
279.962
258.06
272.152
241.938
304.989
328.077
320.601
321.966
312.036
167.849
305.405
299.776
312.045
315.808
321.796
330.884
373.474
368.746
361.566
356.665
431.043
243.361
243.906
456.151
221.036
246.826
259.984
219.682
247.8
286.415
232.247
188.343
220.033
221.359
183.937
165.883
144.339
214.375
190.361
100
100
100
121.193
100
100
100
100
100
100
100
100
100
100
100
100
100
100
100
100
100
100
100
100
100
100
100
100
100
100
100
100
100
100
100
100
100
100
100
100
100
100
100
100
100
100
100
100
100
100
100
100
100
100
100
100
100
100
100
100
140.521
129.107
111.382
123.642
183.967
174.295
173.825
161.42
214.16
197.076
192.63
203.503
312.321
296.512
311.389
286.348
186.509
330.514
349.065
337.635
345.567
190.213
339.026
334.005
355.474
358.699
365.209
374.318
250.329
249.791
160.362
338.144
240.665
282.716
222.026
249.931
251.431
216.729
165.138
139.275
214.263
192.305
100
100
100
111.135
100
100
100
100
100
100
100
100
100
100
100
100
100
100
100
100
100
100
100
100
100
100
100
100
100
100
100
100
100
100
100
100
100
100
100
100
100
100
100
100
100
100
100
100
100
100
100
100
100
100
100
100
100
105.387
100
100
149.248
136.697
118.2
131.556
196.864
185.608
184.745
171.7
252.316
219.705
208.605
228.097
333.918
327.094
331.965
326.59
205.409
365.053
191.873
368.869
382.535
213.354
379.664
370.882
188.116
398.724
155.901
333.32
251.951
245.893
162.835
134.684
224.571
272.55
191.67
100
100
105.873
103.352
100
100
100
100
100
100
100
100
100
100
100
100
100
100
100
100
100
100
100
100
100
100
100
100
100
100
100
100
100
100
100
100
100
100
100
100
100
100
100
100
100
100
100
100
100
100
100
100
100
100
100
100
100
100
112.355
100
100
158.755
145.42
126.518
141.443
215.029
198.725
198.958
184.169
297.056
259.145
236.105
265.764
343.955
353.323
340.598
337.375
227.022
399.695
210.988
406.848
235.699
421.975
404
220.823
452.402
184.026
392.194
161.462
129.557
227.59
269.549
317.58
187.942
100
100
135.98
100.476
100
100
100
100
100
100
100
100
100
100
100
100
100
100
100
100
100
100
100
100
100
100
100
100
100
100
100
100
100
100
100
100
100
100
100
100
100
100
100
100
100
100
100
100
100
100
100
100
100
100
100
100
100
100
100
100
119.7
106.293
101.38
169.738
155.869
134.834
151.584
241.971
217.357
218.738
199.254
332.417
300.388
272.059
302.98
375.456
199.123
192.304
374.682
245.741
234.809
439.828
249.966
215.682
444.155
157.454
126.999
146.695
319.788
368.371
184.315
247.437
103.209
100
153.097
102.407
100
100
100
100
100
100
100
100
100
100
100
100
100
100
100
100
100
100
100
100
100
100
100
100
100
100
100
100
100
100
100
100
100
100
100
100
100
100
100
100
100
100
100
100
100
100
100
100
100
100
100
100
100
100
100
100
100
129.28
115.243
108.596
181.779
166.799
144.89
162.099
274.351
244.15
244.786
219.662
337.749
328.566
303.527
327.64
415.402
215.754
190.019
210.338
417.085
254.347
243.454
154.758
130.141
175.806
380.142
414.218
183.61
233.261
290.634
126.423
100
167.338
104.354
105.552
100
100
100
100
100
100
100
100
100
100
100
100
100
100
100
100
100
100
100
100
100
100
100
100
100
100
100
100
100
100
100
100
100
100
100
100
100
100
100
100
100
100
100
100
100
100
100
100
100
100
100
100
101.891
100
100
100
100
138.635
123.252
116.188
196.569
178.271
156.118
173.585
302.475
274.882
272.875
243.047
331.872
323.91
329.712
448.376
237.836
210.414
187.651
233.592
453.008
162.049
135.704
207.98
434.164
200.608
233.228
278.856
338.896
149.977
100
175.579
111.206
123.23
100
100
100
100
100
100
100
100
100
100
100
100
100
100
100
100
100
100
100
100
100
100
100
100
100
100
100
100
100
100
100
100
100
100
100
100
100
100
100
100
100
100
100
100
100
100
100
100
100
100
100
100
100
108.174
101.978
100
100
100
147.161
131.218
122.711
213.465
189.918
167.271
186.873
321.849
300.191
295.289
266.267
325.185
189.022
256.712
234.558
209.143
253.498
175.915
139.794
236.375
228.138
246.204
281.409
332.04
384.239
171.872
100
179.577
120.243
140.941
100
100
100
100
100
100
100
100
100
100
100
100
100
100
100
100
100
100
100
100
100
100
100
100
100
100
100
100
100
100
100
100
100
100
100
100
100
100
100
100
100
100
100
100
100
100
100
100
100
100
100
100
100
100
115.329
106.973
100
100
156.248
138.91
129.494
234.974
205.857
178.695
199.334
319.367
317.728
314.969
288.986
187.249
210.831
255.562
233.208
179.089
136.801
149.353
299.026
337.312
382.627
190.44
100
179.085
134.328
160.4
100
100
100
100
100
100
100
100
100
100
100
100
100
100
100
100
100
100
100
100
100
100
100
100
100
100
100
100
100
100
100
100
100
100
100
100
100
100
100
100
100
100
100
100
100
100
100
100
100
100
100
100
100
100
100
121.32
110.934
100
100
164.287
145.593
136.743
258.622
223.368
189.907
211.982
185.87
324.854
329.752
310.938
209.537
234.002
254.714
174.095
241.818
148.182
176.914
357.518
389.276
203.453
100
177.259
149.076
173.626
100
100
100
100
100
100
100
100
100
100
100
100
100
100
100
100
100
100
100
100
100
100
100
100
100
100
100
100
100
100
100
100
100
100
100
100
100
100
100
100
100
100
100
100
100
100
100
100
100
100
100
100
100
100
100
100
125.628
113.688
101.546
100
173.028
153.619
141.868
280.699
241.038
199.802
223.209
206.456
354.576
340.745
333.602
326.146
232.733
255.544
181.244
245.307
287.75
161.765
209.294
412.873
210.925
100
172.922
157.615
185.906
100
100
100
100
100
100
100
100
100
100
100
100
100
100
100
100
100
100
100
100
100
100
100
100
100
100
100
100
100
100
100
100
100
100
100
100
100
100
100
100
100
100
100
100
100
100
100
100
100
100
100
100
100
100
100
100
100
100
128.718
115.496
102.351
100
182.934
160.514
145.87
300.123
258.334
212.048
237.29
227.307
393.367
200.083
197.098
327.052
253.932
193.31
244.681
289.723
344.287
167.421
239.629
207.163
100
160.761
164.152
186.167
100
100
100
100
100
100
100
100
100
100
100
100
100
100
100
100
100
100
100
100
100
100
100
100
100
100
100
100
100
100
100
100
100
100
100
100
100
100
100
100
100
100
100
100
100
100
100
100
100
100
100
100
100
100
100
100
100
100
131.247
117.295
101.777
100
190.893
166.168
149.71
313.705
276.758
221.293
249.369
247.604
429.434
223.78
355.979
216.007
333.216
196.972
248.393
290.711
344.689
397.54
165.86
188.843
141.503
169.795
161.45
179.763
100
100
100
100
100
100
100
100
100
100
100
100
100
100
100
100
100
100
100
100
100
100
100
100
100
100
100
100
100
100
100
100
100
100
100
100
100
100
100
100
100
100
100
100
100
100
100
100
100
100
100
100
100
100
100
100
100
100
100
100
134.264
117.025
100.093
100
198.026
171.64
153.845
317.662
292.091
228.797
258.181
463.981
244.918
389.422
196.036
234.108
185.539
243.847
294.678
155.985
345.808
395.606
160.786
185.945
338.852
217.261
156.811
164.254
100
100
100
100
100
100
100
100
100
100
100
100
100
100
100
100
100
100
100
100
100
100
100
100
100
100
100
100
100
100
100
100
100
100
100
100
100
100
100
100
100
100
100
100
100
100
100
100
100
100
100
100
100
100
100
100
100
100
100
100
100
134.789
116.041
100.552
203.785
176.545
155.643
313.303
298.871
235.27
266.387
263.453
422.251
213.81
332.489
251.011
217.124
174.597
348.845
184.338
268.513
395.577
156.167
189.695
806.823
296.883
145.447
145.384
100
100
100
100
100
100
100
100
100
100
100
100
100
100
100
100
100
100
100
100
100
100
100
100
100
100
100
100
100
100
100
100
100
100
100
100
100
100
100
100
100
100
100
100
100
100
100
100
100
100
100
100
100
100
100
100
100
100
100
102.374
106.306
107.542
134.745
115.022
208.782
180.015
156.72
331.115
305.322
240.785
273.246
455.013
231.404
365.691
363.093
199.269
167.314
398.291
215.997
318.857
241.595
150.231
151.621
168.204
100
132.633
120.664
100
100
100
100
100
100
100
100
100
100
100
100
100
100
100
100
100
100
100
100
100
100
100
100
100
100
100
100
100
100
100
100
100
100
100
100
100
100
100
100
100
100
100
100
100
100
100
100
100
100
100
100
100
100
100
100
100
100
100
109.146
110.405
114.779
119.932
119.207
134.626
211.515
182.362
157.429
337.07
306.156
242.088
271.749
248.584
397.496
391.129
195.978
191.655
164.186
243.359
373.841
289.016
241.976
142.268
100
100
100
116.618
100
100
100
100
100
100
100
100
100
100
100
100
100
100
100
100
100
100
100
100
100
100
100
100
100
100
100
100
100
100
100
100
100
100
100
100
100
100
100
100
100
100
100
100
100
100
100
100
100
100
100
100
100
100
100
100
100
100
100
100
108.771
103.694
124.306
127.26
127.977
134.571
135.363
211.447
183.451
157.942
296.244
239.214
264.608
426.637
420.23
212.738
316.237
186.827
156.614
421.641
344.732
287.414
232.629
132.48
100
100
100
100
100
100
100
100
100
100
100
100
100
100
100
100
100
100
100
100
100
100
100
100
100
100
100
100
100
100
100
100
100
100
100
100
100
100
100
100
100
100
100
100
100
100
100
100
100
100
100
100
100
100
100
100
100
100
100
100
100
100
100
100
100
127.279
123.524
140.641
145.581
142.569
150.793
210.264
183.914
160.252
290.18
235.227
259.016
450.604
227.218
341.807
317.323
184.473
148.305
394.769
340.024
279.159
143.105
123.219
100
100
100
103.621
100
100
100
100
100
100
100
100
100
100
100
100
100
100
100
100
100
100
100
100
100
100
100
100
100
100
100
100
100
100
100
100
100
100
100
100
100
100
100
100
100
100
100
100
100
100
100
100
100
100
100
100
100
100
100
100
100
100
100
100
100
115.689
104.187
147.673
145.949
158.614
165.814
168.371
207.454
182.89
282.365
230.572
251.906
242.421
367.563
340.546
306.839
211.734
175.683
140.285
387.028
334.207
172.401
269.831
122.018
100
100
100
100.842
100
100
100
100
100
100
100
100
100
100
100
100
100
100
100
100
100
100
100
100
100
100
100
100
100
100
100
100
100
100
100
100
100
100
100
100
100
100
100
100
100
100
100
100
100
100
100
100
100
100
100
100
100
100
100
100
100
100
100
100
100
100
100
139.74
128.591
170.275
171.13
177.946
187.199
186.881
206.47
274.657
227.574
249.551
393.26
363.733
331.315
306.136
205.482
167.159
136.226
383.453
205.795
320.303
238.079
132.588
100
100
100
100
100
100
100
100
100
100
100
100
100
100
100
100
100
100
100
100
100
100
100
100
100
100
100
100
100
100
100
100
100
100
100
100
100
100
100
100
100
100
100
100
100
100
100
100
100
100
100
100
100
100
100
100
100
100
100
100
100
100
100
100
100
110.356
100.184
167.742
158.95
194.137
197.921
197.826
208.462
217.571
275.468
236.472
255.1
387.969
354.53
325.928
315.827
190.752
158.792
138.293
235.496
376.431
290.074
140.458
126.981
100
100
100
100
100
100
100
100
100
100
100
100
100
100
100
100
100
100
100
100
100
100
100
100
100
100
100
100
100
100
100
100
100
100
100
100
100
100
100
100
100
100
100
100
100
100
100
100
100
100
100
100
100
100
100
100
100
100
100
100
100
100
100
100
100
102.875
103.593
140.634
119.243
198.156
193.373
217.486
223.872
228.525
275.725
246.183
261.05
377.845
346.187
334.898
305.398
190.473
151.672
149.583
430.629
349.59
171.467
210.807
254.532
111.249
100
100
100
100
100
100
100
100
100
100
100
100
100
100
100
100
100
100
100
100
100
100
100
100
100
100
100
100
100
100
100
100
100
100
100
100
100
100
100
100
100
100
100
100
100
100
100
100
100
100
100
100
100
100
100
100
100
100
100
100
100
100
100
100
100
103.566
100
111.249
112.228
178.542
156.051
227.638
227.767
238.694
246.994
277.708
256.912
272.393
368.478
350.852
326.024
307.524
181.24
154.036
145.975
406.4
206.684
310.783
205.148
148.087
100
100
100
100
100
100
100
100
100
100
100
100
100
100
100
100
100
100
100
100
100
100
100
100
100
100
100
100
100
100
100
100
100
100
100
100
100
100
100
100
100
100
100
100
100
100
100
100
100
100
100
100
100
100
100
100
100
100
100
100.891
101.535
101.675
101.833
104.636
105.641
103.551
104.33
100
111.632
106.592
132.778
121.506
219.575
201.687
253.532
258.459
266.299
286.582
282.112
367.306
345.383
327.482
311.289
173.803
164.506
130.011
239.318
375.706
178.639
203.064
224.16
263.408
100
100
100
100
100
100
100
100
100
100
100
100
100
100
100
100
100
100
100
100
100
100
100
100
100
100
100
100
100
100
100
100
100
100
100
100
100
100
100
100
100
100
100
100
100
100
100
100
100
100
100
100
100
100
100
108.621
100
100
100
100
100
104.464
106.117
106.75
106.297
111.731
112.826
110.864
112.617
105.313
119.046
112.117
175.168
146.357
258.396
249.936
274.296
282.836
298.433
290.227
363.718
343.329
327.246
330.394
171.528
160.585
100
437.151
213.816
319.396
195.459
214.464
148.249
100
100
100
100
100
100
100
100
100
100
100
100
100
100
100
100
100
100
100
100
100
100
100
100
100
100
100
100
100
100
100
100
100
100
100
100
100
100
100
100
100
100