/*--------------------------------*- C++ -*----------------------------------*\
  =========                 |
  \\      /  F ield         | OpenFOAM: The Open Source CFD Toolbox
   \\    /   O peration     | Website:  https://openfoam.org
    \\  /    A nd           | Version:  dev
     \\/     M anipulation  |
\*---------------------------------------------------------------------------*/
FoamFile
{
    version     2.0;
    format      ascii;
    class       volScalarField;
    location    "2500";
    object      rho;
}
// * * * * * * * * * * * * * * * * * * * * * * * * * * * * * * * * * * * * * //

dimensions      [1 -3 0 0 0 0 0];

internalField   nonuniform List<scalar> 
9842
(
1.17173
1.17157
1.17166
1.17155
1.17127
1.17169
1.17161
1.17111
1.17129
1.17178
1.17162
1.17104
1.17094
1.17138
1.17183
1.17166
1.17116
1.17075
1.17098
1.17144
1.17186
1.17173
1.17115
1.17064
1.17068
1.17111
1.17155
1.17188
1.17174
1.17129
1.17067
1.17045
1.17073
1.17119
1.1716
1.17189
1.17177
1.17138
1.17067
1.17035
1.17042
1.17084
1.1713
1.17165
1.17191
1.17181
1.17145
1.17073
1.17034
1.17023
1.17053
1.17097
1.17141
1.17169
1.17193
1.17178
1.17136
1.17077
1.17036
1.17007
1.17022
1.17068
1.17108
1.17144
1.17171
1.17193
1.17179
1.1714
1.17089
1.17035
1.17
1.17002
1.17033
1.1708
1.17118
1.17149
1.17173
1.17194
1.17181
1.17145
1.17096
1.17041
1.16999
1.16987
1.17005
1.1705
1.17094
1.17126
1.17153
1.17174
1.17194
1.17184
1.17147
1.17112
1.17049
1.17001
1.16978
1.16986
1.17018
1.17062
1.17102
1.17131
1.17155
1.17176
1.17195
1.17182
1.17147
1.17109
1.17051
1.17009
1.16973
1.16967
1.16992
1.17035
1.17076
1.17109
1.17135
1.17158
1.17178
1.17196
1.17185
1.17155
1.1711
1.17063
1.17015
1.1697
1.16956
1.16969
1.17003
1.17048
1.17084
1.17115
1.17139
1.1716
1.17178
1.17196
1.17185
1.17157
1.17119
1.17072
1.17017
1.1697
1.16948
1.16951
1.16978
1.17019
1.17059
1.17092
1.17119
1.17142
1.17161
1.17179
1.17196
1.17186
1.17154
1.17119
1.17068
1.17024
1.16975
1.16942
1.16937
1.16955
1.16991
1.17033
1.17069
1.17098
1.17123
1.17144
1.17163
1.17181
1.17196
1.17184
1.17154
1.17126
1.17075
1.17026
1.16977
1.16942
1.16927
1.16936
1.16965
1.17005
1.17044
1.17076
1.17103
1.17127
1.17146
1.17165
1.17181
1.17197
1.17185
1.17159
1.17126
1.17077
1.17029
1.16983
1.16942
1.16921
1.16921
1.16944
1.16979
1.17019
1.17053
1.17083
1.17107
1.17129
1.17148
1.17165
1.17182
1.17196
1.17186
1.17159
1.1712
1.17079
1.17032
1.16986
1.16943
1.16916
1.16909
1.16923
1.16955
1.16993
1.1703
1.17061
1.17088
1.17112
1.1713
1.17149
1.17165
1.17181
1.17197
1.17186
1.17159
1.17121
1.17084
1.17037
1.1699
1.16947
1.16914
1.16901
1.16907
1.16932
1.16968
1.17006
1.1704
1.17067
1.17093
1.17115
1.17133
1.17151
1.17166
1.17182
1.17197
1.17183
1.17159
1.1712
1.17082
1.17039
1.16995
1.16949
1.16913
1.16895
1.16894
1.16912
1.16945
1.16984
1.17018
1.17047
1.17074
1.17095
1.17116
1.17134
1.17151
1.17167
1.17182
1.17197
1.17184
1.17155
1.1712
1.17079
1.1704
1.16999
1.16952
1.16914
1.1689
1.16884
1.16895
1.16922
1.16958
1.16995
1.17027
1.17054
1.17078
1.17099
1.17119
1.17136
1.17152
1.17167
1.17182
1.17197
1.17183
1.17156
1.1712
1.17078
1.17039
1.17
1.16956
1.16915
1.16888
1.16876
1.16881
1.16901
1.16935
1.16972
1.17004
1.17032
1.17058
1.17081
1.17101
1.1712
1.17137
1.17153
1.17168
1.17182
1.17197
1.17184
1.17153
1.17117
1.17079
1.17037
1.16998
1.16958
1.16916
1.16886
1.1687
1.16869
1.16884
1.16913
1.16948
1.16983
1.17013
1.1704
1.17063
1.17086
1.17104
1.17121
1.17137
1.17152
1.17167
1.17182
1.17197
1.17182
1.17151
1.17115
1.17077
1.17036
1.16997
1.16959
1.16918
1.16885
1.16865
1.1686
1.16869
1.16894
1.16925
1.16962
1.16991
1.17019
1.17044
1.17067
1.17087
1.17106
1.17123
1.17138
1.17153
1.17168
1.17182
1.17197
1.1718
1.17149
1.17112
1.17075
1.17035
1.16996
1.16958
1.16922
1.16885
1.16863
1.16852
1.16857
1.16876
1.16904
1.16937
1.16973
1.17
1.17025
1.17048
1.1707
1.1709
1.17107
1.17124
1.17139
1.17153
1.17167
1.17182
1.17197
1.1718
1.17148
1.17109
1.1707
1.17032
1.16994
1.16958
1.16921
1.16886
1.16859
1.16845
1.16846
1.16859
1.16884
1.16916
1.1695
1.16979
1.17006
1.1703
1.17053
1.17075
1.17092
1.17108
1.17123
1.17138
1.17152
1.17167
1.17181
1.17197
1.1718
1.17145
1.17105
1.17066
1.17028
1.16991
1.16956
1.16922
1.16887
1.16857
1.16841
1.16836
1.16846
1.16866
1.16897
1.1693
1.16961
1.16987
1.17011
1.17035
1.17056
1.17075
1.17093
1.17109
1.17124
1.17138
1.17153
1.17167
1.17181
1.17196
1.17179
1.17142
1.17101
1.17062
1.17024
1.16988
1.16955
1.1692
1.16886
1.16856
1.16837
1.16828
1.16833
1.1685
1.16875
1.16908
1.16941
1.16968
1.16993
1.17016
1.17037
1.17058
1.17077
1.17095
1.17111
1.17124
1.17138
1.17152
1.17166
1.1718
1.17195
1.17178
1.17137
1.17095
1.17057
1.17019
1.16984
1.16951
1.16918
1.16886
1.16855
1.16833
1.16822
1.16823
1.16836
1.16858
1.16889
1.1692
1.16949
1.16975
1.16998
1.17021
1.17042
1.17061
1.1708
1.17096
1.1711
1.17124
1.17138
1.17153
1.17165
1.1718
1.17195
1.17175
1.17133
1.17089
1.17049
1.17014
1.1698
1.16949
1.16917
1.16886
1.16854
1.1683
1.16816
1.16814
1.16822
1.16842
1.1687
1.169
1.1693
1.16957
1.16983
1.17003
1.17027
1.17045
1.17063
1.17081
1.17098
1.17109
1.17124
1.17137
1.17151
1.17164
1.17179
1.17195
1.17171
1.17128
1.17083
1.17043
1.17008
1.16976
1.16944
1.16913
1.16883
1.16852
1.16828
1.16812
1.16805
1.16811
1.16826
1.16851
1.16882
1.16913
1.16938
1.16963
1.16986
1.17007
1.17029
1.17048
1.17065
1.17082
1.17096
1.1711
1.17123
1.17136
1.17149
1.17163
1.17178
1.17203
1.17194
1.17168
1.17123
1.17078
1.17037
1.17003
1.16971
1.1694
1.1691
1.16881
1.1685
1.16826
1.16808
1.16798
1.16801
1.16813
1.16834
1.16862
1.16892
1.16921
1.16944
1.16969
1.16989
1.17011
1.17032
1.1705
1.17067
1.17082
1.17097
1.17109
1.17121
1.17134
1.17148
1.17162
1.17185
1.17176
1.17203
1.17194
1.17166
1.17118
1.17073
1.17032
1.16996
1.16966
1.16936
1.16907
1.16879
1.16849
1.16823
1.16804
1.16793
1.16791
1.16801
1.16819
1.16846
1.16875
1.16902
1.16926
1.16952
1.16974
1.16996
1.17015
1.17035
1.17053
1.17068
1.17082
1.17094
1.17108
1.1712
1.17133
1.17154
1.17146
1.17167
1.17153
1.17159
1.17185
1.17176
1.17203
1.17193
1.17167
1.17113
1.17066
1.17026
1.16991
1.16961
1.16932
1.16903
1.16876
1.16847
1.16821
1.16801
1.16787
1.16784
1.1679
1.16806
1.16829
1.16857
1.16886
1.16911
1.16934
1.16957
1.1698
1.16998
1.17018
1.17037
1.17054
1.17067
1.17082
1.17094
1.17106
1.17119
1.17139
1.17131
1.17146
1.17167
1.17151
1.17159
1.17184
1.17175
1.17202
1.17193
1.17166
1.17105
1.17059
1.1702
1.16986
1.16957
1.16929
1.16901
1.16872
1.16845
1.16818
1.16797
1.16782
1.16776
1.1678
1.16792
1.16813
1.1684
1.16868
1.16894
1.16919
1.16941
1.16963
1.16984
1.17004
1.17021
1.17039
1.17053
1.17067
1.17082
1.17094
1.17106
1.17124
1.17117
1.17138
1.1713
1.17144
1.17167
1.17151
1.17158
1.17183
1.17175
1.17202
1.17192
1.17156
1.17099
1.17052
1.17014
1.16982
1.16953
1.16925
1.16897
1.16869
1.16841
1.16815
1.16793
1.16777
1.16769
1.1677
1.1678
1.16798
1.16823
1.1685
1.16877
1.16902
1.16925
1.16947
1.16968
1.16987
1.17006
1.17024
1.17041
1.17055
1.17068
1.17081
1.17093
1.1711
1.17103
1.17123
1.17116
1.17136
1.17129
1.17143
1.17166
1.17149
1.17157
1.17183
1.17174
1.17202
1.17192
1.17159
1.17097
1.17044
1.17008
1.16977
1.16948
1.1692
1.16893
1.16865
1.16837
1.16811
1.16789
1.16772
1.16763
1.16762
1.16769
1.16784
1.16806
1.16833
1.1686
1.16885
1.16909
1.16931
1.16952
1.16971
1.1699
1.17009
1.17026
1.17041
1.17054
1.17068
1.1708
1.17096
1.1709
1.17109
1.17102
1.17121
1.17114
1.17135
1.17127
1.17141
1.17164
1.17148
1.17155
1.17182
1.17172
1.17202
1.17191
1.17157
1.17086
1.1704
1.17002
1.16972
1.16944
1.16916
1.16888
1.16861
1.16833
1.16807
1.16784
1.16767
1.16756
1.16753
1.16759
1.16771
1.16791
1.16817
1.16843
1.16869
1.16893
1.16915
1.16936
1.16955
1.16975
1.16994
1.17012
1.17028
1.17041
1.17053
1.17067
1.17083
1.17077
1.17095
1.17089
1.17107
1.171
1.17119
1.17112
1.17133
1.17125
1.17139
1.17163
1.17146
1.17153
1.17181
1.17171
1.17202
1.17191
1.17155
1.17079
1.17035
1.16999
1.16969
1.1694
1.16912
1.16884
1.16856
1.16828
1.16802
1.16779
1.16761
1.1675
1.16746
1.16749
1.16759
1.16777
1.168
1.16827
1.16853
1.16877
1.16899
1.1692
1.1694
1.16959
1.16978
1.16996
1.17013
1.17027
1.1704
1.17054
1.17071
1.17065
1.17082
1.17076
1.17094
1.17087
1.17105
1.17098
1.17118
1.1711
1.17131
1.17123
1.17137
1.17161
1.17144
1.17151
1.1718
1.17169
1.17201
1.1719
1.17148
1.17074
1.17032
1.16996
1.16966
1.16936
1.16908
1.16879
1.16851
1.16823
1.16797
1.16774
1.16756
1.16743
1.16738
1.1674
1.16749
1.16763
1.16785
1.16811
1.16837
1.16861
1.16884
1.16905
1.16925
1.16944
1.16962
1.1698
1.16997
1.17012
1.17026
1.17041
1.17058
1.17052
1.1707
1.17064
1.17081
1.17075
1.17092
1.17085
1.17103
1.17096
1.17115
1.17108
1.17129
1.17121
1.17135
1.17159
1.17141
1.17148
1.17179
1.17167
1.17201
1.17189
1.1715
1.17075
1.1703
1.16995
1.16963
1.16934
1.16904
1.16875
1.16845
1.16817
1.16791
1.16768
1.16749
1.16737
1.1673
1.16731
1.16738
1.1675
1.1677
1.16794
1.16821
1.16846
1.16869
1.1689
1.1691
1.16929
1.16947
1.16965
1.16982
1.16998
1.17012
1.17025
1.17046
1.1704
1.17058
1.17052
1.17068
1.17063
1.17079
1.17073
1.1709
1.17083
1.17101
1.17094
1.17113
1.17105
1.17126
1.17117
1.17132
1.17156
1.17138
1.17145
1.17177
1.17165
1.172
1.17188
1.17148
1.17077
1.17031
1.16994
1.16962
1.16932
1.16901
1.1687
1.1684
1.16811
1.16784
1.16761
1.16743
1.1673
1.16723
1.16722
1.16728
1.16739
1.16756
1.16779
1.16805
1.1683
1.16854
1.16876
1.16896
1.16915
1.16933
1.1695
1.16967
1.16983
1.16998
1.17014
1.17031
1.17027
1.17045
1.1704
1.17056
1.17051
1.17066
1.17061
1.17077
1.1707
1.17087
1.1708
1.17098
1.1709
1.17109
1.17101
1.17123
1.17114
1.17128
1.17153
1.17135
1.17142
1.17175
1.17163
1.172
1.17187
1.17148
1.1708
1.17029
1.16994
1.16961
1.1693
1.16898
1.16866
1.16835
1.16804
1.16776
1.16753
1.16735
1.16722
1.16715
1.16713
1.16718
1.16728
1.16743
1.16764
1.16789
1.16815
1.16839
1.16862
1.16882
1.16901
1.16919
1.16936
1.16953
1.16969
1.16984
1.16999
1.17013
1.17032
1.17028
1.17044
1.17039
1.17054
1.17048
1.17064
1.17058
1.17073
1.17065
1.17082
1.17074
1.17093
1.17083
1.17105
1.17094
1.17118
1.17108
1.17124
1.1715
1.1713
1.17137
1.17173
1.1716
1.17199
1.17185
1.17147
1.17081
1.17032
1.16994
1.16962
1.16929
1.16896
1.16863
1.16829
1.16797
1.16768
1.16745
1.16726
1.16714
1.16707
1.16705
1.16708
1.16718
1.1673
1.16749
1.16773
1.16799
1.16825
1.16848
1.16869
1.16888
1.16905
1.16923
1.16939
1.16956
1.1697
1.16985
1.16998
1.1702
1.17013
1.17032
1.17026
1.17042
1.17036
1.17051
1.17043
1.17057
1.17046
1.17063
1.17047
1.17069
1.17047
1.17079
1.17053
1.17094
1.17069
1.17111
1.17092
1.17115
1.17146
1.1712
1.17128
1.17171
1.17156
1.17198
1.17184
1.17145
1.1708
1.17034
1.16995
1.16962
1.16929
1.16895
1.1686
1.16824
1.1679
1.1676
1.16735
1.16717
1.16705
1.16698
1.16696
1.16698
1.16707
1.16719
1.16735
1.16758
1.16784
1.1681
1.16835
1.16856
1.16875
1.16893
1.1691
1.16926
1.16942
1.16956
1.16971
1.16983
1.17005
1.16996
1.17015
1.17008
1.17029
1.17022
1.17035
1.17026
1.17034
1.17017
1.17023
1.16988
1.17009
1.16944
1.17002
1.16902
1.17015
1.16899
1.17048
1.16943
1.17088
1.17018
1.17086
1.17138
1.17089
1.17099
1.17169
1.17151
1.17198
1.17182
1.17139
1.17075
1.17033
1.16997
1.16964
1.1693
1.16894
1.16857
1.1682
1.16783
1.1675
1.16724
1.16706
1.16695
1.16688
1.16687
1.16689
1.16695
1.16707
1.16722
1.16743
1.16769
1.16796
1.16821
1.16844
1.16864
1.16882
1.16899
1.16913
1.16928
1.16941
1.16955
1.16967
1.16986
1.16986
1.17
1.1699
1.16992
1.16976
1.17015
1.17004
1.16997
1.1697
1.16941
1.1688
1.16844
1.1671
1.16733
1.16494
1.16665
1.163
1.16706
1.16242
1.16831
1.16405
1.16984
1.16688
1.16959
1.17117
1.16956
1.16984
1.17165
1.17138
1.17197
1.1718
1.1713
1.17066
1.17029
1.16998
1.16966
1.16932
1.16895
1.16855
1.16815
1.16775
1.1674
1.16712
1.16693
1.16682
1.16677
1.16676
1.16678
1.16684
1.16695
1.16709
1.16729
1.16754
1.16781
1.16808
1.16832
1.16854
1.16873
1.16887
1.169
1.16911
1.1692
1.16927
1.1693
1.16911
1.16974
1.16935
1.16958
1.16931
1.16855
1.16793
1.16938
1.169
1.16802
1.16703
1.16542
1.16349
1.16193
1.15859
1.15849
1.1535
1.15623
1.14944
1.15646
1.14774
1.16016
1.14965
1.16554
1.15616
1.16464
1.17037
1.16466
1.16579
1.17159
1.17095
1.17197
1.17178
1.17056
1.17021
1.16995
1.16966
1.16934
1.16897
1.16855
1.16811
1.16768
1.16728
1.16697
1.16675
1.16663
1.16659
1.16661
1.16665
1.16672
1.16682
1.16696
1.16714
1.16738
1.16766
1.16794
1.16821
1.16845
1.16862
1.16873
1.16877
1.16873
1.1686
1.16841
1.16813
1.1672
1.1668
1.16461
1.16888
1.16801
1.16717
1.16603
1.16315
1.16149
1.16588
1.16459
1.16129
1.15895
1.15513
1.15167
1.14841
1.14357
1.14265
1.1362
1.13899
1.1308
1.13863
1.12837
1.14285
1.13005
1.15296
1.13705
1.15124
1.16765
1.15196
1.15549
1.17143
1.16961
1.17196
1.17174
1.17016
1.1699
1.16966
1.16935
1.16899
1.16856
1.16809
1.1676
1.16715
1.16676
1.16646
1.1663
1.16627
1.16633
1.16644
1.16655
1.16667
1.16682
1.16699
1.16722
1.16749
1.16779
1.16807
1.16832
1.16848
1.16846
1.16811
1.16739
1.16641
1.16542
1.16449
1.16272
1.16102
1.15877
1.15985
1.15621
1.16456
1.16228
1.15965
1.15748
1.15194
1.14958
1.1566
1.15427
1.14822
1.14499
1.13909
1.13493
1.13029
1.12508
1.12343
1.11698
1.1193
1.11163
1.11868
1.10935
1.12273
1.11089
1.13305
1.11726
1.13133
1.1605
1.13243
1.13596
1.14858
1.17101
1.16624
1.17195
1.17169
1.16989
1.16965
1.16936
1.16902
1.16858
1.16807
1.16753
1.16697
1.16643
1.16593
1.1656
1.16552
1.16567
1.16594
1.1662
1.16643
1.16663
1.16682
1.16705
1.16732
1.16763
1.16793
1.16819
1.16827
1.16784
1.1664
1.16381
1.16049
1.15756
1.15548
1.15327
1.14708
1.15319
1.14644
1.14891
1.14523
1.15498
1.15208
1.14718
1.14457
1.13672
1.13423
1.14204
1.1393
1.13109
1.12773
1.12053
1.11648
1.11148
1.10695
1.10529
1.10015
1.10194
1.09617
1.10144
1.0946
1.10499
1.09583
1.11404
1.10195
1.10781
1.12232
1.11338
1.14048
1.15685
1.14368
1.12542
1.11476
1.11436
1.12778
1.17037
1.15073
1.15548
1.16545
1.17195
1.17171
1.16966
1.16936
1.16905
1.16861
1.16807
1.16746
1.16676
1.16593
1.165
1.16418
1.16381
1.164
1.16459
1.16528
1.16586
1.16628
1.16658
1.16685
1.16713
1.16744
1.16778
1.16806
1.16804
1.16696
1.16372
1.15806
1.15204
1.14655
1.14184
1.13797
1.13316
1.13172
1.12788
1.14139
1.13672
1.1354
1.1318
1.14176
1.1387
1.13173
1.1291
1.11974
1.11747
1.12479
1.12216
1.11298
1.1101
1.10322
1.1001
1.09607
1.09302
1.09179
1.08865
1.08976
1.08649
1.0936
1.09091
1.08881
1.0869
1.0974
1.09319
1.0894
1.08748
1.09011
1.1012
1.10636
1.09966
1.09591
1.10611
1.1312
1.13625
1.11688
1.10749
1.10641
1.11951
1.1629
1.1707
1.16733
1.14204
1.1497
1.17195
1.17035
1.17151
1.17184
1.16938
1.16908
1.16865
1.16808
1.16739
1.16649
1.16524
1.16356
1.16179
1.16039
1.16006
1.16104
1.1628
1.16436
1.16543
1.1661
1.16653
1.16689
1.16724
1.16761
1.16792
1.16787
1.16609
1.16087
1.15279
1.1437
1.13615
1.12977
1.12425
1.11874
1.11104
1.11959
1.11221
1.12799
1.12331
1.12043
1.11726
1.12634
1.12346
1.11524
1.11299
1.10379
1.10223
1.1077
1.10561
1.09765
1.09584
1.0907
1.08916
1.08652
1.0851
1.08433
1.08275
1.08551
1.08429
1.08337
1.08251
1.08711
1.08543
1.08414
1.09183
1.08863
1.08564
1.08452
1.08627
1.09466
1.09941
1.09394
1.09061
1.09931
1.12335
1.12833
1.10933
1.09977
1.10083
1.1121
1.15771
1.16518
1.13478
1.14271
1.17183
1.17204
1.17195
1.16962
1.17133
1.16912
1.16871
1.16813
1.16734
1.16622
1.16438
1.16167
1.15841
1.15564
1.15436
1.155
1.15728
1.16049
1.16331
1.16499
1.16594
1.16654
1.16699
1.16742
1.16777
1.16772
1.16558
1.15857
1.14794
1.13765
1.12995
1.12428
1.11922
1.1142
1.10876
1.1029
1.10349
1.10689
1.10418
1.11382
1.11015
1.10628
1.10425
1.11065
1.10843
1.10083
1.09974
1.09322
1.09315
1.09457
1.09373
1.08828
1.08783
1.08401
1.08344
1.08149
1.08048
1.08178
1.081
1.08021
1.07929
1.08316
1.08233
1.08158
1.0808
1.08422
1.08318
1.08236
1.08751
1.08525
1.08334
1.08275
1.08372
1.08973
1.09359
1.08919
1.08664
1.09359
1.11593
1.12105
1.10263
1.09405
1.09504
1.10534
1.15213
1.16189
1.1277
1.13609
1.17181
1.17205
1.17198
1.16825
1.17098
1.16881
1.16818
1.16734
1.16596
1.16353
1.15956
1.15469
1.15033
1.14801
1.14795
1.15007
1.15383
1.15825
1.16225
1.16462
1.16587
1.16662
1.16716
1.16758
1.16764
1.16551
1.15743
1.14479
1.13512
1.12948
1.12476
1.12014
1.1155
1.1107
1.10588
1.10103
1.10279
1.10049
1.10053
1.10257
1.10127
1.09797
1.09786
1.09888
1.09834
1.09329
1.09363
1.08884
1.08989
1.0879
1.08823
1.08341
1.08368
1.07936
1.07891
1.07838
1.07735
1.07639
1.07542
1.07993
1.07889
1.07766
1.07625
1.08163
1.08087
1.07998
1.07887
1.08252
1.08182
1.08114
1.08449
1.08315
1.08208
1.08184
1.08236
1.08601
1.08891
1.0856
1.08391
1.08893
1.10911
1.11423
1.09672
1.08931
1.09013
1.09925
1.14623
1.15758
1.12099
1.12966
1.17182
1.17206
1.172
1.16625
1.17063
1.16833
1.16738
1.16584
1.16276
1.15765
1.15108
1.14524
1.14166
1.1409
1.1426
1.14625
1.15126
1.15664
1.16138
1.16446
1.16596
1.16678
1.16734
1.16752
1.16556
1.15726
1.14347
1.13549
1.13074
1.12725
1.12413
1.12114
1.11805
1.11628
1.11154
1.11823
1.10228
1.10622
1.09884
1.10002
1.09796
1.09825
1.09553
1.09635
1.0942
1.09485
1.09101
1.09224
1.08746
1.08943
1.08447
1.08578
1.07909
1.07986
1.07162
1.07059
1.07474
1.07315
1.07156
1.06998
1.07745
1.07571
1.07367
1.07142
1.08032
1.07922
1.07775
1.07581
1.08149
1.0808
1.07984
1.08273
1.08211
1.08131
1.08126
1.08171
1.0835
1.08537
1.0832
1.08242
1.08535
1.10287
1.10787
1.09159
1.08558
1.08616
1.09384
1.1404
1.15281
1.11461
1.12344
1.17187
1.17207
1.17202
1.16417
1.17058
1.16753
1.16579
1.1623
1.15603
1.14803
1.14068
1.13615
1.13484
1.13598
1.13916
1.14404
1.15
1.15612
1.16129
1.16463
1.16617
1.16702
1.16742
1.16576
1.15746
1.14366
1.13677
1.13376
1.13333
1.13432
1.13573
1.13699
1.1387
1.1407
1.12114
1.13194
1.10821
1.11411
1.10089
1.10391
1.09739
1.09881
1.09689
1.09887
1.09361
1.09514
1.09166
1.09418
1.0869
1.09035
1.08156
1.08392
1.07102
1.07256
1.06067
1.05942
1.05902
1.05893
1.06907
1.06669
1.06441
1.06234
1.07341
1.0706
1.0675
1.06426
1.07845
1.07651
1.07393
1.07077
1.08059
1.07943
1.07763
1.08196
1.08167
1.08048
1.08042
1.08132
1.0822
1.083
1.08201
1.08184
1.08291
1.09718
1.10194
1.08726
1.08294
1.08319
1.08912
1.13465
1.14828
1.10853
1.11742
1.17191
1.17208
1.17203
1.16289
1.17071
1.16596
1.16208
1.15505
1.14563
1.13707
1.13216
1.13065
1.13132
1.13375
1.1378
1.14348
1.15012
1.1565
1.16167
1.16502
1.16654
1.16726
1.16608
1.15823
1.14426
1.13837
1.13705
1.14055
1.14725
1.15263
1.15478
1.15632
1.15828
1.1541
1.16201
1.1341
1.14468
1.11802
1.12543
1.1075
1.1121
1.10117
1.10395
1.1026
1.10571
1.09686
1.09967
1.09445
1.09866
1.08461
1.09011
1.07566
1.0797
1.05959
1.06087
1.06112
1.05153
1.05085
1.05183
1.05096
1.061
1.05792
1.0552
1.05302
1.06713
1.06316
1.05902
1.05492
1.0751
1.07183
1.06789
1.06343
1.07904
1.07675
1.07358
1.08172
1.08144
1.07866
1.07828
1.08042
1.08176
1.08182
1.08165
1.08182
1.08163
1.09203
1.09641
1.08382
1.08145
1.08132
1.0851
1.12915
1.14443
1.10273
1.11157
1.17191
1.17209
1.17202
1.16242
1.1707
1.16229
1.15458
1.14412
1.13451
1.12985
1.1284
1.12875
1.13033
1.1334
1.13814
1.14432
1.15118
1.15764
1.16264
1.1657
1.16697
1.16635
1.1596
1.14544
1.13965
1.13974
1.14673
1.15653
1.16155
1.16368
1.16484
1.166
1.16793
1.16422
1.1675
1.14966
1.15855
1.13122
1.13993
1.11799
1.12394
1.10914
1.11315
1.11147
1.11581
1.10292
1.10721
1.096
1.10266
1.0787
1.08655
1.06622
1.07199
1.05341
1.0554
1.05771
1.06068
1.04352
1.0444
1.04915
1.04643
1.05113
1.04792
1.0455
1.044
1.05863
1.05369
1.04892
1.04466
1.06958
1.0649
1.05969
1.05414
1.07583
1.072
1.06731
1.08161
1.08048
1.07493
1.07424
1.07807
1.08191
1.08148
1.08194
1.08183
1.08119
1.0874
1.09125
1.08139
1.08077
1.08026
1.08193
1.12365
1.14065
1.09709
1.10552
1.17184
1.17196
1.17175
1.16157
1.17027
1.15482
1.14338
1.1331
1.12877
1.12755
1.1276
1.12886
1.13129
1.13494
1.14002
1.14639
1.15332
1.15956
1.16405
1.16647
1.16647
1.161
1.14708
1.14069
1.14147
1.15029
1.16044
1.16508
1.16699
1.16778
1.1683
1.1689
1.16913
1.16923
1.16815
1.16892
1.16233
1.16629
1.14741
1.15582
1.13182
1.13901
1.12047
1.12573
1.12204
1.12803
1.10953
1.11594
1.09528
1.10417
1.07528
1.08253
1.06308
1.06578
1.06984
1.05193
1.05479
1.06192
1.06458
1.03993
1.04293
1.0503
1.04634
1.04124
1.03889
1.03769
1.03799
1.04857
1.04336
1.03893
1.03561
1.06194
1.05603
1.04988
1.04388
1.07049
1.06515
1.05909
1.08068
1.07807
1.06918
1.06817
1.07381
1.08206
1.08182
1.08219
1.08102
1.08148
1.08337
1.08633
1.07983
1.08084
1.07978
1.07958
1.11758
1.13606
1.09139
1.09917
1.17129
1.16992
1.1696
1.15895
1.16827
1.14354
1.13257
1.1284
1.12741
1.1276
1.12887
1.13101
1.13396
1.13788
1.14307
1.14945
1.15617
1.16185
1.16551
1.16644
1.16229
1.14907
1.14156
1.14234
1.15163
1.1613
1.16589
1.16781
1.16849
1.1688
1.16904
1.16927
1.16932
1.16935
1.16909
1.16926
1.16757
1.16864
1.16107
1.16526
1.14802
1.15507
1.13423
1.1409
1.13102
1.13904
1.11324
1.12239
1.09161
1.1025
1.07773
1.07947
1.08393
1.06662
1.06852
1.07665
1.07579
1.05464
1.0586
1.07112
1.07333
1.03995
1.0445
1.05665
1.05035
1.03355
1.033
1.03393
1.03647
1.03851
1.03417
1.03112
1.02958
1.05255
1.04593
1.03975
1.03447
1.06317
1.05643
1.04931
1.07835
1.07373
1.06148
1.06018
1.06754
1.0815
1.08223
1.08188
1.07892
1.082
1.08005
1.08184
1.07873
1.08125
1.07984
1.07791
1.11101
1.12928
1.0858
1.09283
1.16856
1.16168
1.16017
1.15143
1.16127
1.13271
1.12846
1.12759
1.1282
1.12971
1.13155
1.13409
1.13752
1.14173
1.14697
1.15314
1.15933
1.16407
1.16623
1.16333
1.15128
1.14229
1.14258
1.15145
1.16084
1.1656
1.16779
1.16854
1.16884
1.16903
1.16918
1.16938
1.16934
1.16939
1.1694
1.16931
1.16938
1.16877
1.16914
1.16648
1.16801
1.15931
1.1637
1.14653
1.15342
1.13498
1.14392
1.11401
1.12497
1.0907
1.10028
1.08297
1.08365
1.08991
1.0911
1.07452
1.07521
1.083
1.08352
1.06263
1.06756
1.08337
1.0847
1.04277
1.04983
1.06638
1.05793
1.02947
1.03078
1.03342
1.0372
1.03044
1.02782
1.02682
1.02687
1.0424
1.03623
1.03123
1.02763
1.05405
1.04643
1.03931
1.07414
1.06746
1.05209
1.05073
1.05949
1.07973
1.08209
1.08059
1.07503
1.08192
1.07749
1.07816
1.07804
1.08129
1.07982
1.07656
1.10385
1.11971
1.08074
1.08664
1.15888
1.16836
1.15193
1.13679
1.14476
1.1288
1.12799
1.12961
1.13224
1.1339
1.13516
1.13783
1.14168
1.1462
1.15137
1.15709
1.16233
1.16557
1.16399
1.15356
1.14298
1.14246
1.15054
1.1593
1.16439
1.16734
1.16843
1.16878
1.16896
1.1691
1.16929
1.16943
1.16941
1.16947
1.16946
1.16942
1.16946
1.16907
1.16932
1.16755
1.16855
1.16274
1.16577
1.1517
1.15808
1.13485
1.14434
1.11171
1.12372
1.09311
1.09594
1.10231
1.08976
1.08946
1.09614
1.09644
1.08478
1.08424
1.09075
1.09245
1.07407
1.0799
1.09618
1.09663
1.04648
1.05548
1.0767
1.06585
1.02812
1.03053
1.03409
1.03937
1.02552
1.02489
1.02499
1.02602
1.03329
1.02868
1.02559
1.02403
1.04398
1.03671
1.03089
1.06815
1.05969
1.04214
1.04137
1.05045
1.07641
1.08134
1.07818
1.06974
1.08144
1.07557
1.07522
1.07766
1.08071
1.07926
1.07543
1.09627
1.10924
1.07647
1.08085
1.14421
1.17095
1.15379
1.12213
1.12952
1.1286
1.13082
1.13457
1.13726
1.13837
1.13923
1.14209
1.14627
1.15099
1.15592
1.16088
1.16456
1.1642
1.15567
1.14386
1.14217
1.1486
1.15684
1.16213
1.16605
1.16816
1.16866
1.16889
1.16906
1.16918
1.1694
1.16947
1.16943
1.16952
1.16951
1.16951
1.16953
1.16924
1.16944
1.16786
1.16879
1.16311
1.16611
1.15221
1.1585
1.13332
1.1433
1.11159
1.12241
1.09762
1.09961
1.10981
1.10701
1.09767
1.09654
1.10395
1.10354
1.09595
1.0943
1.09971
1.10224
1.08641
1.0932
1.10797
1.1082
1.04884
1.05915
1.08508
1.07158
1.02792
1.03075
1.03492
1.04091
1.02359
1.0237
1.02449
1.0259
1.02677
1.0242
1.02309
1.02281
1.03467
1.02905
1.02537
1.06139
1.05188
1.03367
1.03424
1.04246
1.07242
1.07968
1.07517
1.06453
1.08019
1.07386
1.07256
1.07694
1.07949
1.07767
1.0742
1.08905
1.1
1.07275
1.07583
1.13482
1.17113
1.15312
1.11024
1.11815
1.13149
1.13601
1.13948
1.14144
1.14243
1.14366
1.14679
1.15114
1.15582
1.16027
1.16363
1.16415
1.1573
1.14502
1.14188
1.14657
1.15407
1.15955
1.16435
1.16774
1.16849
1.16876
1.16896
1.16912
1.16928
1.16947
1.16949
1.16943
1.16951
1.16958
1.16955
1.1696
1.1696
1.16942
1.16956
1.16828
1.16907
1.16356
1.16662
1.15184
1.15865
1.13487
1.14482
1.11657
1.12507
1.10382
1.10503
1.11478
1.11306
1.10709
1.10505
1.11348
1.11238
1.10706
1.10486
1.1097
1.11263
1.09739
1.10532
1.11804
1.11855
1.05034
1.06161
1.09095
1.07555
1.02806
1.03122
1.03568
1.04178
1.02291
1.02349
1.02452
1.0261
1.02333
1.02259
1.02243
1.02252
1.02809
1.02466
1.02306
1.05499
1.04484
1.02823
1.02945
1.03578
1.06809
1.07707
1.07088
1.05859
1.07758
1.07178
1.06992
1.07503
1.0766
1.07456
1.07191
1.08284
1.09182
1.06957
1.07159
1.12797
1.16822
1.14589
1.10027
1.10742
1.13616
1.14013
1.14292
1.14491
1.14649
1.14849
1.15177
1.15605
1.16022
1.16291
1.16383
1.15807
1.14628
1.14175
1.14469
1.1512
1.15681
1.16225
1.16712
1.16831
1.16864
1.16884
1.16904
1.16917
1.16936
1.16951
1.1695
1.16947
1.16956
1.16963
1.16959
1.16966
1.16966
1.16957
1.16965
1.16881
1.16935
1.16508
1.16759
1.15371
1.16057
1.1398
1.14841
1.12354
1.12605
1.1325
1.11195
1.11209
1.122
1.1212
1.11789
1.11543
1.12499
1.12309
1.11767
1.11548
1.12064
1.12338
1.10532
1.11487
1.1263
1.1273
1.05103
1.06268
1.09462
1.07752
1.02834
1.03157
1.03608
1.04233
1.02301
1.02384
1.02495
1.02646
1.02256
1.02252
1.02272
1.02306
1.02495
1.02364
1.02325
1.04771
1.03767
1.02677
1.03012
1.03268
1.06187
1.07252
1.06388
1.05059
1.07262
1.06932
1.06748
1.07189
1.07171
1.07057
1.06922
1.07708
1.08434
1.06685
1.06807
1.11314
1.12333
1.1077
1.09077
1.09477
1.13944
1.14299
1.14578
1.14833
1.15072
1.1535
1.15701
1.16021
1.16234
1.16306
1.15811
1.14715
1.14165
1.14307
1.14848
1.15405
1.15994
1.16615
1.16808
1.16852
1.16873
1.16891
1.16909
1.16924
1.16944
1.16955
1.16955
1.16949
1.16959
1.16967
1.16963
1.16971
1.16971
1.16966
1.16971
1.16911
1.1695
1.16631
1.16822
1.15658
1.16264
1.14773
1.15307
1.13099
1.13197
1.14258
1.14081
1.12186
1.12131
1.1307
1.13107
1.12948
1.12722
1.1372
1.13531
1.12718
1.12574
1.13173
1.13374
1.11139
1.12261
1.1337
1.13539
1.05109
1.06295
1.09591
1.07812
1.0286
1.03167
1.03608
1.04232
1.02387
1.02487
1.02583
1.02714
1.02324
1.02355
1.0239
1.02479
1.0253
1.02477
1.02493
1.04108
1.03709
1.0292
1.03463
1.03509
1.05366
1.06527
1.05704
1.04612
1.06646
1.06709
1.06562
1.0691
1.0676
1.06797
1.06729
1.07196
1.07783
1.0648
1.06522
1.09235
1.09941
1.08565
1.08237
1.08403
1.14117
1.14536
1.14856
1.15155
1.15454
1.1575
1.16007
1.16183
1.16227
1.15786
1.14726
1.14148
1.14176
1.14605
1.15139
1.15758
1.16471
1.16776
1.16838
1.16861
1.1688
1.16898
1.16912
1.16932
1.16952
1.16953
1.16944
1.16959
1.16958
1.16963
1.16971
1.16967
1.16976
1.16975
1.16974
1.16976
1.16934
1.16963
1.16711
1.16864
1.15927
1.16418
1.14835
1.15563
1.15663
1.16019
1.14011
1.1401
1.14825
1.1334
1.13187
1.14072
1.14172
1.14034
1.13884
1.14449
1.14415
1.13562
1.13517
1.14176
1.14274
1.11413
1.12854
1.13845
1.14174
1.04914
1.06085
1.09515
1.07643
1.02882
1.03135
1.03518
1.04087
1.02544
1.0262
1.02708
1.0281
1.02546
1.02622
1.02689
1.02739
1.02954
1.03162
1.03374
1.042
1.04077
1.03547
1.03843
1.03933
1.05095
1.06048
1.0558
1.04703
1.0638
1.06554
1.06418
1.06749
1.06627
1.06755
1.06617
1.06789
1.07232
1.0632
1.06345
1.08125
1.12802
1.08002
1.07553
1.07632
1.14195
1.14684
1.15064
1.15405
1.15703
1.15946
1.16107
1.16132
1.15708
1.14705
1.14114
1.14071
1.14397
1.14897
1.15529
1.16303
1.16734
1.16825
1.1685
1.16868
1.16886
1.16903
1.16919
1.16938
1.16955
1.16953
1.16948
1.16963
1.16961
1.16967
1.16975
1.16971
1.16982
1.16979
1.16982
1.16983
1.16958
1.16977
1.16807
1.16911
1.16321
1.16621
1.15536
1.16028
1.16077
1.16553
1.14898
1.14857
1.155
1.14364
1.14286
1.14852
1.1477
1.14512
1.1448
1.1452
1.14561
1.14283
1.14307
1.14545
1.14553
1.11456
1.13079
1.13919
1.14345
1.04483
1.05514
1.08908
1.07002
1.0295
1.03101
1.03396
1.03791
1.02801
1.02861
1.02937
1.03005
1.03424
1.03416
1.03439
1.03387
1.03567
1.03416
1.06624
1.04534
1.0674
1.06565
1.06366
1.06479
1.05366
1.06019
1.05852
1.05079
1.06392
1.06455
1.06309
1.06741
1.06685
1.0683
1.06636
1.06481
1.06786
1.0625
1.06202
1.07437
1.12675
1.07683
1.07036
1.07152
1.14204
1.14687
1.15152
1.15517
1.15787
1.15952
1.15951
1.15544
1.1463
1.14061
1.13979
1.14224
1.14687
1.1532
1.16134
1.16684
1.16809
1.16839
1.16857
1.16874
1.16892
1.16906
1.16925
1.16943
1.16959
1.16956
1.16949
1.16966
1.16964
1.1697
1.16979
1.16975
1.16987
1.16983
1.16991
1.1699
1.16984
1.1699
1.16926
1.16965
1.16729
1.16856
1.15897
1.16153
1.16332
1.16326
1.16414
1.16661
1.15216
1.15395
1.15695
1.1461
1.14676
1.14984
1.14738
1.14475
1.14492
1.1396
1.14119
1.14498
1.14551
1.14464
1.14446
1.11031
1.12967
1.13495
1.14093
1.03925
1.04646
1.07649
1.05889
1.03068
1.03159
1.03319
1.03575
1.03382
1.03324
1.03339
1.0334
1.06565
1.06296
1.06406
1.06326
1.06577
1.06221
1.09217
1.0683
1.09331
1.09321
1.09236
1.09294
1.07136
1.06289
1.07403
1.06765
1.06661
1.06497
1.06344
1.06809
1.06899
1.06973
1.06681
1.06275
1.0646
1.06167
1.06127
1.07109
0.874675
1.06762
1.06693
1.06884
1.14187
1.14536
1.14958
1.15336
1.15579
1.15589
1.15192
1.14439
1.1398
1.13896
1.14085
1.14516
1.15144
1.15979
1.1663
1.16793
1.16828
1.16846
1.16862
1.16879
1.16895
1.16912
1.1693
1.16946
1.16952
1.16961
1.16958
1.16969
1.16967
1.16973
1.16982
1.16978
1.16991
1.16987
1.16999
1.16996
1.17
1.17
1.16976
1.16994
1.16807
1.16927
1.15887
1.15973
1.15981
1.16014
1.16473
1.14996
1.15413
1.15464
1.14303
1.14526
1.14477
1.13981
1.13728
1.13852
1.12597
1.12868
1.14305
1.14404
1.13655
1.13578
1.09802
1.12089
1.12061
1.12961
1.03661
1.03927
1.05786
1.04454
1.03375
1.03378
1.03336
1.03504
1.06333
1.06251
1.06251
1.06157
1.09198
1.08976
1.09076
1.08998
1.09375
1.08991
1.12381
1.09338
1.12481
1.12433
1.12393
1.12461
1.09486
1.07685
1.09603
1.09355
1.07923
1.06565
1.06292
1.06861
1.08127
1.08302
1.06777
1.06136
1.06256
1.06149
1.06057
1.06982
0.486417
1.02663
1.06467
1.06657
1.14105
1.14311
1.14576
1.14789
1.14822
1.14567
1.14146
1.13868
1.13818
1.13979
1.14391
1.15011
1.15851
1.16577
1.16778
1.16817
1.16835
1.16851
1.16867
1.16884
1.16898
1.16916
1.16933
1.16949
1.16953
1.16956
1.16964
1.1696
1.16972
1.16969
1.16977
1.16986
1.16982
1.16996
1.16991
1.17005
1.17001
1.17008
1.17008
1.16985
1.17004
1.16529
1.16784
1.16909
1.15399
1.15324
1.15326
1.15431
1.16088
1.14062
1.14834
1.14623
1.13175
1.13552
1.13289
1.12635
1.12151
1.12369
1.10733
1.1113
1.13327
1.13509
1.12033
1.11906
1.07675
1.09962
1.0903
1.10684
1.03632
1.03704
1.04163
1.03743
1.06071
1.03864
1.03571