/*--------------------------------*- C++ -*----------------------------------*\
  =========                 |
  \\      /  F ield         | OpenFOAM: The Open Source CFD Toolbox
   \\    /   O peration     | Website:  https://openfoam.org
    \\  /    A nd           | Version:  dev
     \\/     M anipulation  |
\*---------------------------------------------------------------------------*/
FoamFile
{
    version     2.0;
    format      ascii;
    class       volScalarField;
    location    "2500";
    object      T;
}
// * * * * * * * * * * * * * * * * * * * * * * * * * * * * * * * * * * * * * //

dimensions      [0 0 0 1 0 0 0];

internalField   nonuniform List<scalar> 
9842
(
300.096
300.135
300.113
300.14
300.212
300.105
300.125
300.252
300.207
300.084
300.12
300.27
300.296
300.184
300.069
300.11
300.24
300.344
300.287
300.169
300.061
300.091
300.24
300.371
300.364
300.252
300.141
300.058
300.089
300.203
300.363
300.421
300.35
300.233
300.127
300.054
300.08
300.181
300.362
300.445
300.43
300.321
300.203
300.116
300.05
300.069
300.162
300.347
300.447
300.478
300.401
300.289
300.176
300.106
300.045
300.075
300.183
300.335
300.443
300.516
300.48
300.362
300.259
300.168
300.101
300.045
300.072
300.172
300.305
300.443
300.535
300.531
300.451
300.33
300.234
300.156
300.095
300.041
300.065
300.16
300.285
300.427
300.535
300.569
300.521
300.407
300.295
300.214
300.146
300.091
300.041
300.059
300.153
300.243
300.407
300.53
300.591
300.571
300.488
300.376
300.275
300.201
300.14
300.087
300.04
300.062
300.152
300.251
300.4
300.509
300.603
300.619
300.555
300.446
300.341
300.256
300.191
300.132
300.081
300.038
300.053
300.133
300.247
300.37
300.494
300.61
300.647
300.612
300.526
300.411
300.319
300.241
300.181
300.128
300.081
300.036
300.053
300.127
300.224
300.346
300.486
300.608
300.667
300.66
300.591
300.487
300.383
300.3
300.232
300.173
300.124
300.079
300.036
300.051
300.133
300.225
300.356
300.468
300.595
300.68
300.694
300.649
300.557
300.448
300.359
300.284
300.221
300.167
300.12
300.075
300.036
300.056
300.133
300.205
300.335
300.462
300.59
300.68
300.719
300.696
300.622
300.521
300.422
300.34
300.272
300.209
300.163
300.115
300.075
300.035
300.051
300.12
300.204
300.33
300.453
300.574
300.68
300.735
300.734
300.677
300.587
300.484
300.397
300.322
300.26
300.206
300.157
300.115
300.073
300.036
300.048
300.119
300.218
300.324
300.445
300.565
300.676
300.746
300.764
300.729
300.647
300.55
300.457
300.378
300.309
300.249
300.202
300.154
300.114
300.073
300.034
300.049
300.116
300.216
300.312
300.432
300.554
300.665
300.751
300.786
300.769
300.707
300.614
300.516
300.431
300.362
300.297
300.242
300.195
300.15
300.111
300.072
300.035
300.054
300.116
300.218
300.317
300.426
300.54
300.659
300.752
300.801
300.804
300.756
300.674
300.573
300.486
300.412
300.344
300.29
300.238
300.192
300.149
300.109
300.072
300.034
300.052
300.127
300.217
300.322
300.424
300.531
300.65
300.749
300.81
300.829
300.8
300.731
300.639
300.544
300.464
300.396
300.334
300.281
300.23
300.186
300.148
300.109
300.072
300.035
300.054
300.123
300.216
300.325
300.426
300.527
300.641
300.746
300.817
300.849
300.836
300.784
300.698
300.605
300.521
300.45
300.385
300.326
300.275
300.227
300.186
300.145
300.107
300.07
300.034
300.05
300.131
300.223
300.322
300.431
300.529
300.635
300.742
300.82
300.863
300.865
300.828
300.755
300.664
300.574
300.5
300.431
300.372
300.314
300.268
300.224
300.184
300.146
300.109
300.072
300.034
300.056
300.136
300.226
300.326
300.431
300.531
300.632
300.736
300.822
300.874
300.889
300.865
300.803
300.724
300.627
300.553
300.484
300.419
300.361
300.31
300.263
300.221
300.183
300.145
300.107
300.071
300.035
300.058
300.139
300.233
300.33
300.434
300.533
300.631
300.727
300.821
300.88
300.909
300.897
300.849
300.776
300.692
300.599
300.532
300.469
300.41
300.353
300.304
300.26
300.218
300.181
300.145
300.108
300.072
300.034
300.058
300.142
300.242
300.343
300.44
300.539
300.632
300.727
300.82
300.887
300.925
300.923
300.89
300.826
300.746
300.658
300.585
300.516
300.456
300.397
300.342
300.298
300.258
300.219
300.182
300.146
300.108
300.074
300.034
300.057
300.147
300.251
300.352
300.45
300.546
300.636
300.725
300.816
300.892
300.935
300.949
300.925
300.872
300.794
300.709
300.63
300.565
300.503
300.442
300.389
300.34
300.295
300.255
300.218
300.182
300.145
300.109
300.074
300.036
300.06
300.155
300.262
300.36
300.46
300.553
300.64
300.729
300.818
300.894
300.944
300.97
300.955
300.913
300.849
300.764
300.68
300.614
300.55
300.49
300.437
300.383
300.335
300.29
300.25
300.217
300.182
300.146
300.112
300.076
300.038
300.062
300.166
300.274
300.374
300.471
300.562
300.647
300.734
300.817
300.897
300.953
300.984
300.982
300.948
300.893
300.814
300.734
300.659
300.594
300.535
300.477
300.425
300.377
300.329
300.288
300.252
300.217
300.183
300.146
300.115
300.076
300.039
300.07
300.177
300.29
300.394
300.485
300.572
300.654
300.735
300.817
300.899
300.96
300.997
301.005
300.983
300.933
300.862
300.784
300.708
300.64
300.574
300.524
300.463
300.416
300.371
300.325
300.284
300.255
300.218
300.185
300.15
300.117
300.079
300.038
300.079
300.19
300.304
300.408
300.498
300.582
300.664
300.745
300.823
300.903
300.965
301.007
301.025
301.011
300.973
300.911
300.83
300.752
300.689
300.624
300.567
300.513
300.457
300.409
300.365
300.323
300.287
300.252
300.219
300.188
300.154
300.119
300.081
300.019
300.042
300.085
300.2
300.317
300.422
300.51
300.594
300.675
300.751
300.828
300.907
300.971
301.018
301.043
301.036
301.006
300.952
300.883
300.806
300.73
300.672
300.61
300.557
300.502
300.45
300.405
300.36
300.323
300.287
300.255
300.224
300.193
300.158
300.122
300.065
300.086
300.02
300.042
300.09
300.212
300.33
300.434
300.527
300.605
300.683
300.759
300.832
300.91
300.977
301.026
301.056
301.061
301.037
300.991
300.923
300.848
300.779
300.717
300.651
300.596
300.541
300.493
300.442
300.396
300.359
300.323
300.293
300.258
300.228
300.194
300.143
300.163
300.109
300.144
300.13
300.065
300.086
300.019
300.043
300.085
300.224
300.348
300.45
300.54
300.617
300.693
300.769
300.839
300.913
300.981
301.034
301.071
301.08
301.064
301.025
300.967
300.893
300.82
300.757
300.699
300.639
300.58
300.534
300.484
300.437
300.395
300.362
300.324
300.292
300.262
300.23
300.181
300.199
300.162
300.109
300.15
300.13
300.067
300.088
300.02
300.044
300.089
300.246
300.364
300.464
300.551
300.628
300.7
300.774
300.847
300.92
300.988
301.043
301.082
301.099
301.089
301.06
301.007
300.936
300.864
300.799
300.736
300.68
300.623
300.571
300.52
300.476
300.431
300.395
300.361
300.323
300.293
300.262
300.219
300.237
300.182
300.201
300.168
300.111
300.151
300.132
300.068
300.09
300.021
300.045
300.112
300.26
300.381
300.479
300.563
300.637
300.71
300.783
300.856
300.928
300.996
301.053
301.095
301.116
301.114
301.089
301.044
300.981
300.91
300.842
300.779
300.719
300.665
300.611
300.563
300.516
300.468
300.426
300.392
300.357
300.325
300.295
300.254
300.271
300.22
300.238
300.187
300.206
300.171
300.113
300.154
300.136
300.069
300.092
300.021
300.047
300.105
300.264
300.402
300.494
300.575
300.648
300.721
300.792
300.865
300.937
301.006
301.064
301.107
301.133
301.136
301.117
301.08
301.022
300.954
300.885
300.821
300.761
300.705
300.652
300.602
300.554
300.506
300.464
300.425
300.393
300.358
300.328
300.287
300.304
300.256
300.273
300.225
300.243
300.191
300.21
300.175
300.116
300.158
300.14
300.071
300.096
300.021
300.048
300.108
300.292
300.41
300.507
300.585
300.66
300.732
300.804
300.876
300.948
301.016
301.075
301.12
301.148
301.156
301.142
301.113
301.061
300.996
300.927
300.862
300.802
300.746
300.693
300.643
300.594
300.545
300.5
300.46
300.427
300.395
300.36
300.32
300.336
300.29
300.306
300.26
300.277
300.229
300.247
300.195
300.215
300.179
300.121
300.163
300.145
300.074
300.1
300.022
300.05
300.115
300.31
300.423
300.516
300.595
300.669
300.742
300.815
300.888
300.959
301.028
301.087
301.134
301.164
301.176
301.168
301.141
301.098
301.037
300.969
300.903
300.842
300.786
300.732
300.682
300.633
300.585
300.54
300.498
300.461
300.428
300.394
300.352
300.365
300.323
300.338
300.294
300.31
300.265
300.282
300.234
300.252
300.2
300.22
300.185
300.125
300.168
300.15
300.077
300.104
300.023
300.052
300.131
300.321
300.431
300.522
300.602
300.678
300.752
300.826
300.9
300.972
301.041
301.101
301.148
301.18
301.195
301.191
301.169
301.132
301.076
301.011
300.944
300.881
300.824
300.771
300.72
300.672
300.625
300.579
300.537
300.499
300.465
300.427
300.382
300.397
300.354
300.367
300.327
300.341
300.299
300.315
300.27
300.287
300.24
300.259
300.206
300.227
300.191
300.131
300.175
300.157
300.081
300.109
300.025
300.055
300.125
300.317
300.435
300.525
300.607
300.684
300.76
300.837
300.913
300.987
301.056
301.116
301.163
301.196
301.213
301.213
301.194
301.164
301.114
301.051
300.985
300.92
300.862
300.808
300.758
300.709
300.663
300.618
300.575
300.535
300.498
300.467
300.415
300.429
300.384
300.398
300.359
300.371
300.332
300.346
300.304
300.32
300.276
300.294
300.247
300.266
300.213
300.235
300.199
300.137
300.183
300.165
300.084
300.114
300.026
300.057
300.129
300.311
300.432
300.527
300.61
300.688
300.768
300.847
300.926
301.002
301.072
301.132
301.18
301.213
301.232
301.235
301.219
301.193
301.15
301.091
301.025
300.959
300.899
300.844
300.793
300.745
300.7
300.655
300.613
300.572
300.534
300.494
300.452
300.462
300.415
300.428
300.388
300.402
300.364
300.376
300.337
300.353
300.311
300.328
300.285
300.304
300.256
300.276
300.222
300.245
300.208
300.144
300.192
300.174
300.089
300.121
300.027
300.06
300.13
300.303
300.434
300.525
300.611
300.691
300.774
300.857
300.939
301.018
301.09
301.151
301.199
301.232
301.251
301.257
301.246
301.219
301.183
301.129
301.065
300.999
300.936
300.879
300.827
300.78
300.735
300.691
300.648
300.607
300.57
300.531
300.497
300.448
300.46
300.418
300.432
300.393
300.408
300.37
300.385
300.346
300.366
300.323
300.344
300.297
300.322
300.268
300.294
300.233
300.26
300.22
300.153
300.205
300.186
300.094
300.128
300.029
300.064
300.129
300.3
300.426
300.526
300.609
300.693
300.778
300.865
300.952
301.035
301.111
301.173
301.22
301.253
301.272
301.278
301.271
301.246
301.214
301.166
301.105
301.038
300.973
300.914
300.861
300.813
300.769
300.725
300.683
300.642
300.604
300.568
300.535
300.48
300.496
300.448
300.463
300.423
300.439
300.403
300.422
300.386
300.413
300.372
300.412
300.356
300.411
300.331
300.396
300.295
300.358
300.251
300.301
300.241
300.164
300.228
300.209
300.099
300.137
300.03
300.067
300.134
300.302
300.42
300.522
300.606
300.692
300.781
300.873
300.964
301.053
301.132
301.197
301.244
301.275
301.294
301.3
301.295
301.274
301.244
301.201
301.144
301.078
301.01
300.947
300.893
300.845
300.799
300.757
300.716
300.677
300.639
300.603
300.572
300.517
300.54
300.49
300.509
300.456
300.473
300.442
300.465
300.445
300.487
300.473
300.56
300.509
300.67
300.526
300.778
300.492
300.786
300.409
300.675
300.309
300.486
300.314
300.183
300.307
300.281
300.106
300.151
300.032
300.071
300.149
300.314
300.422
300.516
300.601
300.689
300.782
300.879
300.976
301.071
301.156
301.223
301.271
301.301
301.318
301.323
301.319
301.304
301.273
301.234
301.181
301.116
301.047
300.981
300.924
300.872
300.827
300.785
300.748
300.712
300.677
300.644
300.613
300.566
300.565
300.53
300.554
300.551
300.589
300.491
300.52
300.537
300.604
300.679
300.833
300.922
301.262
301.204
301.811
301.377
302.303
301.272
302.452
300.959
302.036
300.571
301.318
300.635
300.237
300.643
300.571
300.115
300.184
300.033
300.076
300.171
300.337
300.432
300.514
300.597
300.684
300.78
300.882
300.987
301.089
301.181
301.254
301.304
301.334
301.348
301.351
301.345
301.331
301.304
301.268
301.217
301.154
301.084
301.016
300.953
300.898
300.85
300.814
300.782
300.754
300.731
300.714
300.705
300.753
300.595
300.692
300.635
300.704
300.895
301.051
300.686
300.78
301.029
301.279
301.688
302.178
302.576
303.428
303.456
304.741
304.036
305.795
303.979
306.238
303.03
305.742
301.66
304.055
301.887
300.438
301.883
301.596
300.131
300.292
300.035
300.082
300.363
300.453
300.52
300.594
300.679
300.775
300.883
300.995
301.108
301.211
301.292
301.349
301.38
301.391
301.389
301.377
301.36
301.336
301.301
301.254
301.193
301.123
301.051
300.983
300.921
300.878
300.851
300.84
300.85
300.882
300.93
301.002
301.235
301.338
301.893
300.811
301.03
301.242
301.531
302.263
302.686
301.571
301.897
302.738
303.336
304.32
305.213
306.062
307.331
307.573
309.283
308.542
310.728
308.636
311.384
307.523
310.929
304.883
309.058
305.328
301.125
305.143
304.229
300.172
300.629
300.036
300.093
300.466
300.532
300.595
300.674
300.768
300.88
301.002
301.127
301.245
301.346
301.422
301.465
301.474
301.459
301.432
301.403
301.373
301.337
301.292
301.234
301.164
301.089
301.017
300.953
300.912
300.918
301.006
301.189
301.435
301.686
301.923
302.372
302.807
303.383
303.105
304.04
301.904
302.483
303.157
303.713
305.144
305.757
303.94
304.541
306.112
306.957
308.515
309.621
310.865
312.272
312.722
314.488
313.85
315.967
314.022
316.601
312.914
316.173
310.124
314.41
310.586
302.943
310.292
309.346
306.019
300.277
301.48
300.038
300.105
300.535
300.596
300.672
300.76
300.875
301.005
301.145
301.289
301.43
301.556
301.642
301.663
301.625
301.558
301.492
301.434
301.385
301.335
301.278
301.208
301.13
301.054
300.986
300.965
301.074
301.436
302.095
302.942
303.691
304.228
304.797
306.408
304.82
306.576
305.932
306.892
304.356
305.106
306.382
307.066
309.143
309.808
307.733
308.457
310.649
311.555
313.512
314.624
316.01
317.273
317.74
319.191
318.682
320.323
318.825
320.77
317.824
320.418
315.3
318.68
317.031
313.025
315.48
308.146
303.879
307.303
312.18
315.1
315.21
311.541
300.437
305.461
304.231
301.681
300.038
300.101
300.594
300.671
300.752
300.865
301.005
301.164
301.343
301.555
301.792
302.002
302.097
302.05
301.901
301.726
301.578
301.473
301.397
301.329
301.257
301.176
301.091
301.019
301.023
301.296
302.117
303.563
305.117
306.547
307.786
308.811
310.094
310.48
311.512
307.905
309.142
309.493
310.457
307.807
308.616
310.477
311.183
313.73
314.353
312.35
313.068
315.592
316.395
318.323
319.205
320.352
321.224
321.579
322.486
322.164
323.11
321.057
321.831
322.437
322.989
319.969
321.173
322.265
322.821
322.059
318.892
317.439
319.327
320.393
317.507
310.62
309.268
314.513
317.12
317.423
313.791
302.329
300.354
301.204
307.733
305.728
300.038
300.442
300.149
300.068
300.666
300.743
300.854
301.001
301.179
301.41
301.73
302.158
302.611
302.969
303.055
302.804
302.355
301.959
301.686
301.517
301.408
301.317
301.229
301.133
301.054
301.066
301.516
302.843
304.921
307.296
309.294
311.005
312.499
314.004
316.132
313.77
315.807
311.485
312.754
313.539
314.411
311.929
312.712
314.968
315.59
318.164
318.603
317.064
317.649
319.901
320.42
321.895
322.34
323.102
323.516
323.739
324.203
323.396
323.751
324.021
324.27
322.929
323.418
323.794
321.564
322.485
323.355
323.68
323.172
320.751
319.399
320.958
321.915
319.425
312.742
311.392
316.606
319.296
318.993
315.836
303.656
301.748
309.66
307.557
300.07
300.017
300.038
300.625
300.194
300.731
300.839
300.989
301.191
301.478
301.948
302.641
303.475
304.187
304.519
304.354
303.768
302.945
302.226
301.8
301.557
301.405
301.292
301.182
301.093
301.104
301.646
303.431
306.185
308.896
310.956
312.492
313.875
315.257
316.77
318.416
318.249
317.293
318.055
315.36
316.381
317.463
318.035
316.24
316.859
318.999
319.31
321.172
321.19
320.783
321.024
322.595
322.724
323.835
324.004
324.573
324.868
324.486
324.715
324.948
325.217
324.081
324.322
324.542
324.773
323.769
324.073
324.313
322.809
323.466
324.024
324.197
323.913
322.167
321.057
322.324
323.063
321.055
314.775
313.369
318.484
320.923
320.641
317.723
305.094
302.586
311.562
309.31
300.074
300.014
300.032
300.972
300.283
300.813
300.974
301.19
301.543
302.163
303.178
304.433
305.563
306.17
306.185
305.632
304.658
303.518
302.497
301.894
301.576
301.385
301.248
301.141
301.123
301.663
303.724
307.007
309.569
311.082
312.361
313.621
314.899
316.23
317.579
318.947
318.447
319.098
319.088
318.509
318.878
319.814
319.845
319.553
319.707
321.152
321.054
322.434
322.131
322.706
322.612
324.012
323.933
325.2
325.332
325.488
325.79
326.073
326.361
325.03
325.335
325.697
326.114
324.528
324.751
325.012
325.342
324.267
324.47
324.672
323.687
324.08
324.393
324.464
324.312
323.244
322.404
323.364
323.855
322.397
316.666
315.243
320.161
322.287
322.048
319.439
306.632
303.688
313.385
311.033
300.071
300.011
300.027
301.476
300.372
300.936
301.181
301.574
302.36
303.669
305.367
306.892
307.835
308.038
307.591
306.632
305.324
303.934
302.718
301.932
301.552
301.344
301.202
301.156
301.65
303.768
307.354
309.47
310.742
311.685
312.533
313.349
314.196
314.683
315.998
314.15
318.593
317.485
319.567
319.234
319.817
319.735
320.51
320.277
320.892
320.706
321.809
321.456
322.837
322.269
323.704
323.323
325.28
325.054
327.491
327.799
326.563
327.035
327.509
327.98
325.759
326.274
326.88
327.547
324.914
325.236
325.672
326.243
324.566
324.771
325.053
324.2
324.384
324.621
324.634
324.503
323.975
323.428
324.06
324.289
323.433
318.416
317.011
321.628
323.366
323.195
320.982
308.167
304.919
315.138
312.716
300.06
300.009
300.022
302.004
300.383
301.14
301.586
302.475
304.085
306.16
308.093
309.298
309.649
309.345
308.5
307.212
305.653
304.066
302.74
301.89
301.499
301.282
301.181
301.6
303.717
307.304
309.127
309.931
310.047
309.783
309.407
309.072
308.618
308.089
313.351
310.424
316.927
315.287
318.988
318.135
319.982
319.578
320.125
319.561
321.063
320.624
321.626
320.903
323.003
322.003
324.558
323.867
327.671
327.213
330.784
331.167
331.288
331.316
328.25
328.963
329.651
330.277
326.955
327.793
328.719
329.695
325.462
326.037
326.798
327.739
324.833
325.175
325.704
324.427
324.512
324.866
324.882
324.616
324.355
324.118
324.41
324.46
324.144
320.026
318.676
322.876
324.133
324.061
322.339
309.693
306.096
316.827
314.362
300.05
300.007
300.019
302.328
300.352
301.542
302.532
304.336
306.788
309.051
310.362
310.769
310.593
309.942
308.862
307.359
305.621
303.97
302.642
301.79
301.403
301.22
301.517
303.518
307.147
308.703
309.055
308.127
306.364
304.964
304.409
304.012
303.509
304.585
302.554
309.846
307.042
314.208
312.184
317.128
315.845
318.91
318.123
318.506
317.631
320.135
319.336
320.827
319.624
323.668
322.075
326.295
325.105
331.118
330.729
330.654
333.585
333.795
333.494
333.763
330.68
331.619
332.451
333.122
328.829
330.027
331.281
332.536
326.451
327.424
328.601
329.942
325.289
325.963
326.903
324.498
324.581
325.401
325.511
324.881
324.484
324.463
324.514
324.468
324.517
321.499
320.245
323.877
324.569
324.606
323.502
311.167
307.102
318.454
315.978
300.048
300.004
300.02
302.449
300.353
302.478
304.456
307.183
309.733
310.985
311.376
311.284
310.858
310.035
308.772
307.138
305.347
303.676
302.394
301.616
301.293
301.448
303.165
306.835
308.362
308.339
306.499
303.958
302.67
302.128
301.832
301.538
301.051
301.99
301.159
305.739
303.439
310.62
308.296
314.218
312.589
316.669
315.555
316.023
314.819
318.417
317.213
320.383
318.493
325.401
323.105
329.114
327.387
333.009
332.4
331.692
330.79
336.073
335.799
334.323
335.169
333.703
334.697
335.454
335.922
331.4
332.911
334.386
335.711
328.093
329.497
331.076
332.77
326.233
327.371
328.77
324.531
324.862
326.498
326.702
325.572
324.439
324.564
324.429
324.466
324.647
322.833
321.722
324.582
324.768
324.914
324.426
312.657
308.099
320.05
317.666
300.065
300.037
300.088
302.667
300.461
304.395
307.378
310.108
311.275
311.605
311.591
311.253
310.601
309.624
308.271
306.594
304.79
303.183
302.035
301.42
301.418
302.807
306.406
308.086
307.882
305.572
302.953
301.772
301.288
301.087
300.957
300.806
300.746
300.722
300.995
300.799
302.472
301.467
306.329
304.144
310.461
308.539
313.537
312.104
313.109
311.482
316.565
314.784
320.59
318.067
326.413
324.277
330.062
329.246
328.029
333.464
332.587
330.409
329.607
337.201
336.258
333.966
335.195
336.785
337.528
337.906
337.814
334.491
336.115
337.509
338.56
330.391
332.188
334.083
335.951
327.819
329.42
331.255
324.802
325.57
328.208
328.509
326.828
324.396
324.464
324.357
324.702
324.561
324.003
323.143
325.04
324.747
325.054
325.112
314.316
309.316
321.68
319.458
300.204
300.549
300.63
303.335
300.964
307.335
310.248
311.373
311.641
311.593
311.25
310.675
309.885
308.84
307.466
305.794
304.053
302.596
301.664
301.426
302.48
305.887
307.857
307.651
305.224
302.735
301.565
301.08
300.909
300.831
300.77
300.711
300.699
300.691
300.757
300.714
301.142
300.871
302.796
301.728
306.169
304.337
309.816
308.042
310.678
308.536
315.533
313.017
321.642
318.538
325.689
325.177
323.87
328.995
328.424
326.007
326.259
332.629
331.418
327.64
326.985
337.192
335.766
332.008
333.947
339.219
339.392
339.098
338.293
337.639
339.015
339.989
340.483
333.256
335.306
337.243
338.916
330.015
332.064
334.255
325.487
326.85
330.523
330.915
328.696
324.558
324.344
324.447
325.317
324.408
324.974
324.448
325.361
324.626
325.035
325.603
316.131
311.132
323.293
321.265
300.893
302.637
303.022
305.274
302.743
310.211
311.356
311.59
311.429
311.021
310.527
309.849
308.934
307.819
306.443
304.834
303.239
302.028
301.478
302.215
305.309
307.665
307.587
305.269
302.85
301.64
301.086
300.894
300.82
300.773
300.732
300.683
300.692
300.68
300.679
300.702
300.684
300.839
300.746
301.418
301.032
303.248
302.125
306.561
304.764
309.615
307.246
315.319
312.313
321.905
319.166
324.149
323.952
322.133
321.791
326.634
326.431
324.14
323.988
330.191
328.705
324.026
323.64
336.3
334.102
329.053
331.611
340.519
340.101
339.256
338.058
340.203
341.046
341.366
341.35
336.408
338.354
339.947
341.101
332.791
335.146
337.378
326.728
328.717
333.391
333.807
331.124
325.078
324.382
324.824
326.462
324.429
325.724
325.524
325.561
324.612
325.042
325.996
318.133
313.731
324.765
323.047
303.352
300.942
305.146
309.12
307.015
311.262
311.482
311.045
310.339
309.897
309.562
308.851
307.833
306.643
305.295
303.815
302.471
301.645
302.047
304.719
307.482
307.62
305.506
303.246
301.946
301.199
300.921
300.835
300.788
300.753
300.705
300.67
300.674
300.661
300.663
300.673
300.663
300.762
300.699
301.147
300.895
302.37
301.599
305.211
303.562
309.65
307.134
315.955
312.651
321.212
320.402
318.591
322.176
322.264
320.344
320.257
323.617
323.775
321.889
321.401
326.757
325.04
320.328
320.201
335.138
332.358
325.976
329.209
340.947
340.176
339.039
337.365
341.784
341.986
341.954
341.621
339.285
340.76
341.757
342.259
335.907
338.194
340.047
328.51
331.059
336.481
336.718
333.89
326.052
324.6
325.528
328.03
324.571
326.287
326.387
325.672
324.782
325.204
326.327
320.279
316.622
326.015
324.728
307.159
300.29
304.662
313.067
311.064
311.317
310.718
309.713
308.996
308.706
308.48
307.722
306.624
305.391
304.115
302.841
301.903
301.991
304.173
307.249
307.696
306.01
303.876
302.522
301.524
300.991
300.865
300.806
300.764
300.732
300.676
300.659
300.669
300.647
300.651
300.65
300.646
300.718
300.668
301.07
300.834
302.276
301.513
305.079
303.455
310.058
307.407
315.99
313.009
319.92
319.355
316.486
317.269
319.906
320.23
318.129
318.242
320.396
320.868
319.328
318.61
323.136
321.179
316.997
316.932
334.401
331.232
323.517
327.492
341.01
340.1
338.769
336.877
342.4
342.366
342.111
341.654
341.371
342.2
342.56
342.65
338.839
340.634
341.817
330.539
333.445
339.151
338.967
336.372
327.231
325.089
326.418
329.591
324.936
326.787
327.169
325.882
325.137
325.668
326.684
322.346
319.216
327.111
326.198
309.645
300.244
304.834
316.341
314.157
310.537
309.326
308.406
307.889
307.631
307.308
306.487
305.351
304.139
302.996
302.138
302.005
303.755
306.944
307.771
306.54
304.59
303.18
301.955
301.097
300.908
300.838
300.787
300.748
300.707
300.658
300.655
300.669
300.651
300.631
300.64
300.629
300.628
300.673
300.639
300.963
300.762
302.159
301.381
305.173
303.414
309.642
307.006
314.609
312.283
318.164
317.825
315.106
315.581
317.244
317.818
315.464
315.77
317.252
317.87
316.515
315.7
319.978
317.739
314.205
314.064
333.934
330.482
321.818
326.309
340.959
339.946
338.522
336.6
342.616
342.428
342.094
341.585
342.476
342.715
342.765
342.734
340.936
342.041
342.554
332.489
335.627
340.884
340.471
338.47
328.524
325.853
327.686
331.388
325.698
327.395
327.941
326.436
325.981
326.57
327.344
324.144
321.544
328.047
327.446
311.483
300.978
306.72
319.139
317.129
309.285
308.231
307.497
306.974
306.563
306.041
305.187
304.081
303.007
302.32
302.086
303.555
306.614
307.806
307.033
305.334
303.883
302.49
301.253
300.953
300.869
300.817
300.768
300.736
300.685
300.648
300.651
300.658
300.636
300.618
300.628
300.611
300.612
300.636
300.616
300.827
300.691
301.774
301.137
304.688
302.923
308.331
306.067
312.7
312.018
310.278
315.889
315.849
313.12
313.339
314.248
314.924
312.306
312.822
314.307
314.911
313.492
312.743
317.735
315.078
311.949
311.678
333.716
330.155
320.763
325.726
340.862
339.826
338.393
336.421
342.575
342.303
341.942
341.456
342.715
342.724
342.655
342.543
341.935
342.35
342.472
334.726
337.841
341.318
340.205
339.395
330.386
327.19
329.757
333.81
327.149
328.112
328.656
327.343
327.396
327.715
328.119
325.826
323.703
328.845
328.483
315.54
312.739
317.056
321.848
320.704
308.414
307.478
306.745
306.078
305.458
304.736
303.832
303.01
302.466
302.28
303.545
306.386
307.832
307.457
306.04
304.596
303.08
301.499
301.012
300.9
300.846
300.799
300.754
300.717
300.665
300.638
300.639
300.653
300.629
300.608
300.619
300.598
300.6
300.613
300.6
300.751
300.653
301.461
300.977
303.947
302.394
306.244
304.854
310.684
310.42
307.597
308.063
313.159
313.309
310.761
310.662
311.092
311.701
309.024
309.525
311.711
312.102
310.485
309.947
316.037
312.951
309.956
309.506
333.696
330.073
320.393
325.548
340.77
339.79
338.386
336.422
342.276
341.952
341.642
341.221
342.473
342.37
342.254
341.96
341.788
341.959
341.902
336.72
337.955
340.496
338.716
338.583
332.831
329.319
331.769
335.111
328.935
328.759
329.199
328.138
328.571
328.447
328.661
327.329
325.601
329.444
329.322
321.4
319.381
323.335
324.276
323.798
307.957
306.854
306.018
305.241
304.465
303.703
303.045
302.595
302.481
303.61
306.355
307.877
307.802
306.675
305.284
303.686
301.864
301.091
300.933
300.875
300.828
300.782
300.746
300.695
300.647
300.642
300.665
300.629
300.632
300.618
300.599
300.608
300.586
300.59
300.592
300.586
300.694
300.619
301.257
300.871
303.254
302.001
306.082
304.191
303.934
303.019
308.248
308.253
306.107
310.037
310.447
308.089
307.824
308.19
308.587
307.094
307.184
309.444
309.563
307.814
307.555
315.277
311.342
308.691
307.818
334.29
330.702
320.608
326.043
340.687
339.88
338.66
336.867
341.751
341.503
341.222
340.898
341.724
341.471
341.252
341.094
340.373
339.673
338.978
336.381
336.759
338.427
337.481
337.203
333.597
330.696
332.089
334.805
329.67
329.189
329.61
328.577
328.921
328.535
328.969
328.532
327.222
329.908
329.844
324.61
311.459
324.968
326.279
326.049
307.749
306.467
305.475
304.592
303.822
303.201
302.787
302.723
303.808
306.411
307.964
308.081
307.222
305.914
304.275
302.291
301.196
300.968
300.903
300.858
300.812
300.768
300.729
300.681
300.637
300.643
300.656
300.619
300.623
300.608
300.588
300.598
300.571
300.579
300.571
300.569
300.632
300.585
301.013
300.751
302.247
301.486
304.261
302.997
302.871
301.658
305.917
306.024
304.354
307.318
307.522
306.039
306.253
306.927
307.013
306.907
306.8
307.532
307.467
306.843
306.82
315.157
310.737
308.494
307.369
335.624
332.438
322.35
327.942
340.449
339.977
339.042
337.792
340.896
340.703
340.461
340.248
338.816
338.847
338.774
338.959
338.351
338.84
328.638
335.322
328.296
328.819
329.44
329.095
332.739
330.741
331.242
333.615
329.613
329.465
329.914
328.573
328.724
328.284
328.899
329.444
328.542
330.108
330.259
326.627
311.809
325.899
327.803
327.463
307.724
306.457
305.246
304.301
303.607
303.181
303.186
304.229
306.607
308.103
308.324
307.676
306.462
304.813
302.722
301.323
301.006
300.931
300.886
300.843
300.797
300.762
300.714
300.667
300.629
300.635
300.652
300.611
300.616
300.6
300.578
300.589
300.558
300.568
300.55
300.552
300.568
300.551
300.713
300.615
301.212
300.889
303.332
302.678
302.221
302.236
302.01
301.384
305.091
304.626
303.852
306.67
306.498
305.692
306.336
307.025
306.982
308.383
307.963
306.964
306.826
307.053
307.101
316.335
311.038
309.624
308.031
337.363
335.114
326.02
331.295
340.053
339.772
339.272
338.468
338.982
339.181
339.137
339.151
328.826
329.664
329.326
329.582
328.779
329.884
320.833
328.037
320.495
320.522
320.771
320.602
327.135
329.907
326.345
328.257
328.766
329.317
329.779
328.347
328.052
327.83
328.732
330.054
329.506
330.34
330.48
327.593
399.645
328.645
328.817
328.251
307.768
306.852
305.747
304.767
304.138
304.113
305.138
307.106
308.317
308.542
308.044
306.908
305.269
303.118
301.459
301.047
300.958
300.913
300.872
300.83
300.788
300.746
300.7
300.659
300.645
300.623
300.631
300.604
300.609
300.592
300.569
300.58
300.547
300.558
300.529
300.536
300.526
300.526
300.587
300.541
301.013
300.712
303.358
303.137
303.115
303.032
301.861
305.661
304.578
304.448
307.477
306.892
307.02
308.33
309
308.671
312.039
311.304
307.474
307.21
309.193
309.4
319.791
313.418
313.5
311.052
338.188
337.355
331.607
335.714
339.042
339.043
339.197
338.68
329.566
329.829
329.83
330.133
320.897
321.554
321.262
321.502
320.363
321.497
311.801
320.483
311.511
311.644
311.755
311.565
320.065
325.509
319.736
320.441
324.808
329.082
329.93
328.176
324.207
323.696
328.426
330.459
330.106
330.376
330.677
327.962
705.68
341.5
329.479
328.921
307.986
307.443
306.747
306.187
306.102
306.77
307.878
308.616
308.748
308.322
307.237
305.616
303.445
301.592
301.085
300.985
300.94
300.901
300.86
300.818
300.781
300.736
300.693
300.651
300.641
300.636
300.616
300.624
300.596
300.602
300.583
300.559
300.571
300.535
300.547
300.512
300.522
300.507
300.506
300.564
300.517
301.718
301.072
300.755
304.615
304.808
304.805
304.532
302.841
308.115
306.085
306.635
310.478
309.469
310.174
311.936
313.252
312.656
317.178
316.071
310.071
309.582
313.572
313.924
325.951
319.333
322.01
317.303
338.254
338.04
336.619
337.944
330.406
337.451
338.425
338.198
321.5
321.786
321.794
322.045
311.868