/*--------------------------------*- C++ -*----------------------------------*\
  =========                 |
  \\      /  F ield         | OpenFOAM: The Open Source CFD Toolbox
   \\    /   O peration     | Website:  https://openfoam.org
    \\  /    A nd           | Version:  dev
     \\/     M anipulation  |
\*---------------------------------------------------------------------------*/
FoamFile
{
    version     2.0;
    format      ascii;
    class       volVectorField;
    location    "2500";
    object      U;
}
// * * * * * * * * * * * * * * * * * * * * * * * * * * * * * * * * * * * * * //

dimensions      [0 1 -1 0 0 0 0];

internalField   nonuniform List<vector> 
9842
(
(0.00514478 0.00751827 0)
(0.0125876 0.00671832 -8.96116e-28)
(0.00517872 0.0202018 -2.33336e-28)
(0.0180389 0.00554135 -2.08629e-27)
(0.0139388 0.0203807 -9.05672e-28)
(0.00459073 0.0297587 -9.35053e-29)
(0.0227676 0.00460572 -2.15854e-27)
(0.0201202 0.019553 0)
(0.0136424 0.0306734 0)
(0.00397254 0.0379857 -1.10488e-28)
(0.0268576 0.00384048 -2.21731e-27)
(0.0246893 0.0173526 0)
(0.0210971 0.0313378 0)
(0.0123545 0.0389256 0)
(0.00357144 0.0455202 -1.21365e-28)
(0.0305398 0.00321681 -1.14532e-27)
(0.0284011 0.0146249 0)
(0.0269915 0.0308011 -4.85452e-29)
(0.0203559 0.0404614 -9.31618e-28)
(0.0109778 0.046273 -4.28695e-29)
(0.00326187 0.0524431 -1.27999e-28)
(0.034074 0.00273365 0)
(0.031818 0.0120853 0)
(0.0313977 0.0289954 -1.64544e-27)
(0.0273687 0.0415894 -2.72324e-27)
(0.018576 0.0478025 -1.01583e-28)
(0.00996356 0.0530467 -1.25392e-28)
(0.00300534 0.0588718 0)
(0.0375579 0.00242079 0)
(0.035096 0.0100337 0)
(0.0347421 0.0263862 -1.78185e-27)
(0.0330698 0.0416602 -1.61202e-27)
(0.0259964 0.0497438 -1.12319e-27)
(0.016821 0.0543409 0)
(0.00914981 0.0593747 -6.61358e-28)
(0.00277808 0.0648512 0)
(0.0409159 0.00221271 0)
(0.0382641 0.00854968 9.72251e-29)
(0.0374838 0.0234239 1.60212e-30)
(0.0374364 0.0404562 0)
(0.0327144 0.0514095 0)
(0.0238013 0.0562322 0)
(0.0153923 0.0604849 -1.79245e-28)
(0.00844334 0.0652904 0)
(0.0025755 0.070403 1.26076e-27)
(0.0440693 0.0020297 0)
(0.0414086 0.00767124 7.65073e-28)
(0.0400563 0.0205405 3.62407e-29)
(0.0406834 0.0381737 -2.89476e-29)
(0.0383404 0.0521462 6.37457e-29)
(0.0307762 0.0585413 1.18008e-27)
(0.0217315 0.0621046 0)
(0.0141976 0.0662444 -4.28817e-28)
(0.0078043 0.0707975 8.98718e-28)
(0.00239324 0.0755867 5.3585e-28)
(0.0470216 0.0019179 0)
(0.0444287 0.00721464 -8.13935e-32)
(0.0426605 0.0180013 0)
(0.0431826 0.0352809 1.31396e-28)
(0.0427645 0.0516643 0)
(0.0372801 0.0607206 1.58892e-27)
(0.0282253 0.0643121 -9.49672e-28)
(0.0199925 0.0676309 -1.17426e-28)
(0.0131283 0.0716908 0)
(0.00722751 0.0759404 0)
(0.0022219 0.0804375 2.56869e-27)
(0.0498491 0.00183325 -8.68904e-29)
(0.047309 0.00693573 2.97072e-32)
(0.0452858 0.0160215 0)
(0.0452864 0.032149 1.38374e-28)
(0.0461 0.0500225 1.40875e-28)
(0.0428638 0.0621705 -1.23235e-27)
(0.0347819 0.0669667 -1.38741e-27)
(0.0258793 0.0695553 -1.28543e-27)
(0.0184846 0.0729207 8.5577e-30)
(0.0121494 0.0767615 6.85876e-28)
(0.00669978 0.0807612 1.20728e-27)
(0.00205994 0.0849524 2.15245e-27)
(0.0525932 0.00174466 6.22411e-28)
(0.0501314 0.00667084 7.42586e-28)
(0.0479681 0.0146331 5.47435e-29)
(0.0473516 0.0291406 0)
(0.0485977 0.0475442 1.48872e-28)
(0.047389 0.0625258 -9.68496e-28)
(0.0410505 0.0696429 -3.12276e-28)
(0.0319246 0.0720408 -9.66343e-28)
(0.0238769 0.0745773 -5.04852e-28)
(0.0171229 0.0778897 5.81448e-28)
(0.0112534 0.081539 0)
(0.00620188 0.0852546 1.34833e-27)
(0.00190537 0.0891692 1.75851e-27)
(0.0552474 0.0016783 1.25662e-27)
(0.0528648 0.00633449 8.0647e-29)
(0.0506707 0.0136667 9.91472e-28)
(0.0495378 0.0265147 2.7539e-29)
(0.0505651 0.0446177 -1.24361e-27)
(0.0508829 0.0617059 1.52753e-28)
(0.0466312 0.0717797 2.66122e-28)
(0.0380909 0.0749979 1.046e-27)
(0.0293528 0.0767475 -8.61217e-28)
(0.0221031 0.0794002 1.01466e-28)
(0.0158555 0.0825818 1.25484e-27)
(0.0104126 0.0860116 0)
(0.0057287 0.0894462 2.00022e-27)
(0.00175812 0.0930927 1.88035e-27)
(0.0578216 0.00164362 1.27942e-27)
(0.0554609 0.00596768 0)
(0.0533787 0.0129741 1.07829e-27)
(0.0518252 0.0244093 0)
(0.0522968 0.0415076 -1.28776e-27)
(0.0535106 0.0598984 0)
(0.0512788 0.0729792 1.41016e-27)
(0.0441174 0.0780889 1.92397e-27)
(0.0350033 0.0794634 -1.73276e-28)
(0.0271183 0.0813378 -3.76535e-28)
(0.020468 0.083971 -1.10443e-28)
(0.0146712 0.0869971 4.68118e-28)
(0.00961562 0.0901787 0)
(0.00528211 0.0933471 1.62318e-27)
(0.00161514 0.0967331 0)
(0.060342 0.00159759 1.29759e-27)
(0.0580086 0.00563918 0)
(0.0560243 0.0123868 1.10686e-27)
(0.0542209 0.0227905 1.23644e-27)
(0.0540758 0.0385067 1.33925e-27)
(0.0555325 0.0574479 0)
(0.0549572 0.073076 1.32675e-27)
(0.0496614 0.080866 3.92234e-28)
(0.040793 0.0826508 -8.54486e-30)
(0.0322345 0.0837475 -3.76202e-28)
(0.0251018 0.0857577 3.51987e-28)
(0.0189436 0.0882877 -1.08428e-28)
(0.0135457 0.0911269 0)
(0.00885786 0.0940564 -1.30769e-27)
(0.0048523 0.0969733 -4.6787e-28)
(0.00147604 0.100105 8.47405e-28)
(0.0627814 0.00153177 7.35873e-28)
(0.0605359 0.00538587 0)
(0.0585325 0.0117906 1.12982e-27)
(0.056717 0.0216182 2.62523e-27)
(0.0559857 0.0358549 1.39842e-27)
(0.0571778 0.0546688 0)
(0.0577802 0.0721255 1.44677e-27)
(0.0544235 0.0829034 -2.1084e-28)
(0.0465388 0.086111 -1.59438e-28)
(0.0375052 0.0866384 0)
(0.0297875 0.0879494 -6.31101e-28)
(0.023225 0.0899579 0)
(0.0174974 0.0923482 0)
(0.0124755 0.0949649 -1.04874e-27)
(0.00813104 0.0976736 4.3858e-28)
(0.00443311 0.100327 0)
(0.00134239 0.103218 3.04142e-27)
(0.0651087 0.00147694 6.61432e-28)
(0.0629787 0.00522738 1.05914e-27)
(0.0609251 0.0112221 0)
(0.059167 0.0207857 2.70524e-27)
(0.0579819 0.0337692 6.10077e-29)
(0.058654 0.0518176 1.54397e-27)
(0.0599201 0.0703525 1.55171e-27)
(0.05828 0.0839499 -1.42121e-27)
(0.0519588 0.0894427 9.26022e-28)
(0.0429172 0.0900316 -2.95739e-28)
(0.0345609 0.0905444 -1.01664e-27)
(0.0275431 0.0920058 7.3484e-28)
(0.0214571 0.0939256 0)
(0.0161182 0.0961206 5.63325e-28)
(0.0114525 0.098558 1.20176e-27)
(0.00742939 0.101016 1.98688e-27)
(0.00402949 0.10342 5.49171e-35)
(0.00121048 0.106079 -2.37924e-27)
(0.0673287 0.00143829 6.65968e-28)
(0.065328 0.00507702 1.85528e-27)
(0.0632585 0.0107534 1.17423e-27)
(0.0614635 0.020151 1.39326e-27)
(0.0600275 0.032255 1.54994e-27)
(0.0601188 0.0490996 3.24559e-27)
(0.0615744 0.0680954 1.66053e-27)
(0.0613111 0.0839603 7.04001e-36)
(0.0567786 0.0922479 1.43689e-27)
(0.0483279 0.0937596 -7.62538e-28)
(0.0394644 0.0936183 1.10342e-27)
(0.0319191 0.0944027 -6.67961e-28)
(0.0254373 0.0958621 1.48648e-36)
(0.0197718 0.0976327 4.476e-28)
(0.0147953 0.099658 7.46591e-28)
(0.0104618 0.101888 1.34447e-27)
(0.00674843 0.104093 -2.09101e-27)
(0.00363306 0.106273 -1.40733e-27)
(0.00107995 0.108688 0)
(0.0694555 0.00138319 5.45993e-29)
(0.0675703 0.0048609 1.95608e-27)
(0.0655597 0.0104306 2.43055e-27)
(0.0636771 0.0196254 1.38378e-27)
(0.0620983 0.0312021 3.1708e-27)
(0.0616649 0.0466721 3.40399e-27)
(0.0629349 0.0655912 3.44193e-27)
(0.0636303 0.0830496 1.6863e-27)
(0.0608407 0.0942292 0)
(0.0535645 0.0975434 -2.33128e-27)
(0.0444831 0.0971705 8.50307e-28)
(0.0363604 0.0971927 -2.73e-35)
(0.0294678 0.0981158 2.38343e-29)
(0.0234398 0.099496 -6.70377e-28)
(0.0181499 0.101097 0)
(0.0135154 0.102951 1.08865e-27)
(0.0094976 0.104956 1.83629e-27)
(0.00608079 0.106948 -5.75113e-37)
(0.0032365 0.10887 6.62792e-28)
(0.0009489 0.111058 -2.65783e-27)
(0.0714641 0.00131024 6.62435e-28)
(0.0697119 0.00464947 2.03127e-27)
(0.0678185 0.0102088 1.32681e-27)
(0.065866 0.0191467 1.54302e-27)
(0.0641912 0.0304355 3.24776e-27)
(0.0633334 0.0446648 3.5489e-27)
(0.0641659 0.0630355 1.81491e-27)
(0.0653981 0.0814401 1.79297e-27)
(0.0641078 0.0952355 1.61943e-27)
(0.0583974 0.101017 -1.48874e-27)
(0.0495483 0.101112 -1.05999e-27)
(0.0408911 0.100431 -2.55603e-28)
(0.0335358 0.100716 6.8328e-28)
(0.0271521 0.101645 -5.94896e-28)
(0.0215274 0.102887 -6.24123e-28)
(0.0165844 0.104336 4.78281e-28)
(0.0122741 0.105991 2.47486e-27)
(0.00855554 0.107807 -1.31333e-27)
(0.00542217 0.109541 -2.9721e-28)
(0.00284151 0.111232 -2.4395e-27)
(0.000817525 0.113171 0)
(0.0733395 0.00124419 6.80102e-28)
(0.0717331 0.00447664 9.85707e-28)
(0.0699418 0.00997922 4.74808e-29)
(0.0680267 0.0187062 1.588e-27)
(0.0663275 0.02986 1.69133e-27)
(0.0650976 0.0431063 1.84295e-27)
(0.0654126 0.0605488 1.90249e-27)
(0.0668044 0.0794187 1.89368e-27)
(0.0666563 0.0952886 3.64189e-27)
(0.0626295 0.103859 -2.68944e-29)
(0.0545614 0.105241 -2.58441e-27)
(0.0455258 0.104126 5.43816e-29)
(0.0376357 0.10369 2.99348e-28)
(0.0308895 0.104096 2.96915e-29)
(0.0249441 0.104957 -5.62084e-28)
(0.0196803 0.106069 1.2476e-32)
(0.0150678 0.107334 6.59135e-28)
(0.0110576 0.108821 2.7896e-28)
(0.00763023 0.110407 0)
(0.00476588 0.1119 -5.0415e-28)
(0.00244918 0.113333 0)
(0.000685647 0.115046 -2.98927e-27)
(0.0750438 0.00118618 0)
(0.073602 0.00433845 1.05801e-27)
(0.0719309 0.00973072 1.34853e-27)
(0.0701006 0.0183564 1.56272e-27)
(0.0684238 0.0294179 -4.02613e-29)
(0.0669469 0.0419935 1.9925e-27)
(0.0667824 0.0582714 1.95646e-27)
(0.0680011 0.07719 2.02748e-27)
(0.0686173 0.0945167 3.88831e-27)
(0.0661435 0.105866 0)
(0.0593261 0.109276 -8.31146e-29)
(0.050261 0.108228 -1.06041e-27)
(0.0418107 0.10706 5.25322e-29)
(0.0346363 0.106885 4.1083e-28)
(0.0283751 0.107312 -8.75554e-28)
(0.0228154 0.108078 0)
(0.0178831 0.10903 8.39096e-28)
(0.0135782 0.110129 -3.00305e-32)
(0.00986102 0.111415 1.75291e-27)
(0.00671125 0.11277 1.88554e-27)
(0.00411081 0.114 0)
(0.00205219 0.115206 -3.71301e-28)
(0.00055007 0.116668 3.20973e-28)
(0.0765714 0.00112664 -6.33356e-28)
(0.0753255 0.00420893 1.80375e-30)
(0.0737629 0.00951556 1.38147e-27)
(0.0720428 0.0181107 1.73676e-27)
(0.0704171 0.0290689 2.00106e-27)
(0.0688427 0.0412584 3.98509e-27)
(0.0682373 0.05632 2.17559e-27)
(0.0691158 0.0749094 4.24859e-27)
(0.0701532 0.0931487 2.09997e-27)
(0.0689525 0.10695 1.9389e-27)
(0.0636406 0.112892 3.3584e-27)
(0.0549989 0.112634 -5.82472e-29)
(0.0460985 0.110877 8.47583e-28)
(0.0384167 0.110018 8.00654e-28)
(0.0318022 0.109969 5.18949e-28)
(0.0259576 0.110359 -4.55586e-28)
(0.0207446 0.111005 1.61719e-28)
(0.0161204 0.111787 -7.96072e-28)
(0.0121151 0.112686 1.22474e-27)
(0.00868271 0.113772 1.45738e-27)
(0.00579583 0.114886 0)
(0.00345045 0.115881 4.80294e-27)
(0.00164313 0.116826 -5.08866e-28)
(0.000411387 0.11804 2.20737e-28)
(0.0779176 0.00106391 1.11916e-42)
(0.0768779 0.00405465 -1.08211e-27)
(0.0754648 0.00934128 1.41647e-27)
(0.0738468 0.0179315 3.44959e-27)
(0.0722718 0.0287945 1.96509e-27)
(0.0707345 0.0407939 2.13409e-27)
(0.0697264 0.0547719 2.25821e-27)
(0.0702319 0.072682 4.60824e-27)
(0.071417 0.0914144 2.21611e-27)
(0.0711532 0.107171 4.21314e-27)
(0.0673785 0.115851 3.75554e-27)
(0.059602 0.117103 3.08558e-27)
(0.0504819 0.115127 2.28933e-27)
(0.0422601 0.113539 1.08529e-42)
(0.0352489 0.112933 -2.80198e-28)
(0.0290933 0.112914 0)
(0.0236158 0.113231 3.96555e-28)
(0.0187163 0.113729 -3.22567e-29)
(0.0143963 0.114303 8.26064e-28)
(0.0106793 0.115016 0)
(0.00751278 0.115904 1.6318e-27)
(0.0048742 0.116781 1.93252e-27)
(0.00277739 0.117514 -2.56243e-27)
(0.00122083 0.118195 -1.23333e-28)
(0.000268286 0.119148 0)
(0.0790351 0.0010035 -8.28462e-29)
(0.0782379 0.00388146 -1.02541e-27)
(0.077035 0.00918146 -2.34797e-29)
(0.0755086 0.0177944 1.80799e-27)
(0.0739984 0.0285858 0)
(0.0725478 0.0404774 2.30366e-27)
(0.0712807 0.0536444 2.28712e-27)
(0.0713784 0.0706154 2.42619e-27)
(0.07251 0.089515 2.3927e-27)
(0.07289 0.106657 4.57019e-27)
(0.0704734 0.117986 4.10957e-27)
(0.0639193 0.121389 1.76184e-27)
(0.0549115 0.119732 2.73254e-27)
(0.0462015 0.117486 9.70911e-28)
(0.0387173 0.116234 -5.57092e-28)
(0.0322336 0.115752 -1.8311e-28)
(0.0264842 0.115702 0)
(0.0213351 0.115907 3.31292e-28)
(0.0167336 0.116209 3.2284e-28)
(0.0126992 0.11661 2.79466e-28)
(0.00925754 0.117141 1.57323e-27)
(0.00633572 0.117821 1.97679e-27)
(0.00393712 0.118442 -4.64976e-27)
(0.00208057 0.118904 -1.955e-29)
(0.000774199 0.119307 0)
(0.000113829 0.119974 7.95543e-27)
(0.0798985 0.000942936 -6.58274e-28)
(0.079367 0.00370102 -2.26685e-27)
(0.0783977 0.00901665 -2.90141e-27)
(0.077027 0.0177052 -1.8498e-27)
(0.0756015 0.02843 -2.19494e-27)
(0.0742438 0.0402197 2.34949e-27)
(0.0728983 0.0528899 2.61429e-27)
(0.072581 0.068779 8.08675e-29)
(0.0735075 0.0875646 2.55282e-27)
(0.0742904 0.105625 4.84016e-27)
(0.0729591 0.119267 2.26998e-27)
(0.0678167 0.125201 1.9761e-27)
(0.0593014 0.124537 3.19244e-27)
(0.0502326 0.121865 1.13389e-27)
(0.042242 0.119912 0)
(0.0353767 0.118897 -9.32203e-28)
(0.0293427 0.118439 1.42619e-28)
(0.02395 0.118315 2.80405e-28)
(0.0191036 0.118357 0)
(0.0147789 0.118508 -5.32227e-28)
(0.0110171 0.118714 -1.84286e-28)
(0.00782781 0.119069 1.55731e-27)
(0.005138 0.119514 -1.99199e-27)
(0.00297676 0.119863 0)
(0.00134714 0.120045 4.25176e-28)
(0.000318427 0.120182 6.44333e-27)
(-5.22868e-05 0.120539 0)
(0.080479 0.000877196 0)
(0.0802439 0.00352937 -3.40715e-27)
(0.0795241 0.0088537 -1.57971e-27)
(0.0783479 0.0176902 -3.68389e-27)
(0.0770503 0.0283247 -2.17472e-27)
(0.0758087 0.0399818 -2.54046e-27)
(0.074518 0.0523834 -2.74971e-27)
(0.0738532 0.0672376 -2.84374e-27)
(0.0744861 0.085641 2.89096e-27)
(0.0754409 0.104258 2.64661e-27)
(0.0749317 0.11977 0)
(0.0711794 0.128357 4.49879e-27)
(0.0635394 0.129344 1.82599e-27)
(0.0543383 0.126638 1.53953e-30)
(0.0458371 0.123981 1.01534e-27)
(0.0385478 0.122364 4.97652e-36)
(0.0321858 0.121462 5.74162e-29)
(0.0265454 0.120981 -4.38099e-28)
(0.0214727 0.12073 -4.78642e-29)
(0.0169014 0.120632 1.81594e-28)
(0.012841 0.120595 -3.58529e-28)
(0.00934651 0.120638 -1.43178e-28)
(0.00638708 0.120782 9.84755e-30)
(0.00391613 0.120984 0)
(0.00197778 0.12106 0)
(0.000555478 0.120893 -3.37039e-28)
(-0.000171131 0.120762 -1.95654e-27)
(-0.00023078 0.120763 -9.55193e-27)
(0.0807551 0.000801949 8.65911e-28)
(0.0808531 0.00335112 -4.00634e-27)
(0.0803927 0.00872179 -3.25747e-27)
(0.0794406 0.017754 -2.0908e-27)
(0.0783038 0.0282729 6.1195e-32)
(0.0772064 0.0397656 -2.70931e-27)
(0.0760679 0.052009 -2.88582e-27)
(0.0751832 0.0660357 -2.94428e-27)
(0.075486 0.0837928 -1.815e-28)
(0.0764375 0.102715 3.0849e-27)
(0.0765156 0.119634 2.68389e-27)
(0.0739564 0.13072 2.10081e-27)
(0.0674934 0.133917 1.26379e-28)
(0.0584674 0.131713 0)
(0.0495195 0.128473 2.44242e-27)
(0.0417611 0.126169 1.72835e-27)
(0.0350454 0.124776 5.49095e-28)
(0.0291213 0.12391 -2.98835e-28)
(0.023817 0.123342 -3.45873e-29)
(0.0190409 0.122967 5.18204e-33)
(0.01473 0.122709 -1.81354e-28)
(0.0109245 0.122506 -5.58952e-29)
(0.007668 0.122353 1.15463e-28)
(0.00491689 0.122286 0)
(0.00264794 0.122239 6.10556e-28)
(0.000917422 0.121996 -1.7197e-28)
(-0.000257943 0.121476 -1.69354e-27)
(-0.000713536 0.121028 -8.9181e-27)
(-0.000441354 0.120657 3.81122e-27)
(0.0806946 0.000717266 -8.25715e-27)
(0.0811599 0.00315454 -2.12445e-27)
(0.0809878 0.0086385 -3.02015e-27)
(0.0802726 0.0178627 4.36445e-27)
(0.0793455 0.0282544 -1.03464e-26)
(0.0784226 0.0395649 -1.16711e-26)
(0.0774859 0.0516783 -1.17898e-28)
(0.0765458 0.0651356 9.86975e-29)
(0.076536 0.082091 -6.28914e-27)
(0.0773629 0.101101 2.78593e-27)
(0.0778131 0.119012 3.08719e-27)
(0.0761962 0.132319 3.07812e-27)
(0.0710446 0.138009 1.92324e-27)
(0.0625433 0.136924 0)
(0.0532953 0.133385 2.89709e-27)
(0.045025 0.130351 1.02288e-27)
(0.0379337 0.128403 1.38433e-27)
(0.0316936 0.127099 4.35127e-28)
(0.0261468 0.126195 2.14779e-28)
(0.021156 0.125513 -2.66625e-29)
(0.0166415 0.125012 -1.44031e-28)
(0.012578 0.124609 -8.22727e-29)
(0.00901823 0.124241 -5.75619e-29)
(0.00597055 0.123901 -8.65239e-28)
(0.00340484 0.123607 1.61751e-27)
(0.00131282 0.123268 2.03778e-27)
(-0.000239039 0.122662 0)
(-0.00112925 0.121821 4.71016e-28)
(-0.00133573 0.120922 -4.94169e-27)
(-0.000666541 0.120148 5.34669e-27)
(0.0802555 0.000625002 -7.5777e-31)
(0.0811265 0.0029525 -1.25364e-26)
(0.0812663 0.00861871 -5.14863e-27)
(0.0808041 0.0179879 3.25289e-27)
(0.0801574 0.0282377 -1.45061e-30)
(0.0794615 0.0393477 -1.2203e-26)
(0.0787456 0.0513231 -2.26589e-28)
(0.0779006 0.0644487 1.35076e-26)
(0.0776481 0.0805797 -6.59291e-27)
(0.078276 0.0994858 0)
(0.0789031 0.118053 6.07204e-27)
(0.0780213 0.133222 2.39714e-27)
(0.0740863 0.14145 3.08757e-27)
(0.0664584 0.1421 2.14192e-27)
(0.0571356 0.138653 3.36872e-27)
(0.0483717 0.134962 0)
(0.0408236 0.132357 1.70905e-27)
(0.0342741 0.130577 1.13953e-27)
(0.0284539 0.129297 0)
(0.0232502 0.128297 3.605e-36)
(0.0185534 0.127535 1.35672e-29)
(0.0142819 0.126899 8.10494e-33)
(0.0104417 0.126347 -3.77448e-29)
(0.00709183 0.125795 -4.65431e-28)
(0.0042277 0.125226 -6.59681e-29)
(0.00182355 0.124707 1.13333e-27)
(-0.000107155 0.124051 1.52004e-27)
(-0.00146732 0.123092 2.29091e-27)
(-0.0020989 0.121852 -4.16884e-27)
(-0.00203215 0.120403 2.20619e-26)
(-0.000911659 0.119208 0)
(0.079404 0.000507141 3.90378e-28)
(0.0807103 0.00276802 6.21827e-27)
(0.0811753 0.00868008 -6.92883e-27)
(0.0810048 0.0181356 -7.71728e-27)
(0.0806913 0.0281937 1.0188e-26)
(0.0803116 0.0390758 1.59561e-27)
(0.0798513 0.0508915 0)
(0.079206 0.063853 1.45626e-26)
(0.0788158 0.0792703 2.88965e-26)
(0.0792287 0.0979055 0)
(0.0798734 0.116891 6.80413e-27)
(0.0795352 0.133544 0)
(0.0766284 0.144156 -5.67959e-27)
(0.0700992 0.14701 1.82234e-27)
(0.0609831 0.144185 1.48291e-27)
(0.0518185 0.139993 0)
(0.0437514 0.136692 1.95904e-27)
(0.0368312 0.134373 1.40278e-27)
(0.0307445 0.132667 0)
(0.0253135 0.131315 2.50041e-28)
(0.0204278 0.130255 -2.01629e-28)
(0.0159869 0.129365 -6.63765e-29)
(0.0119378 0.128628 1.41899e-35)
(0.00831245 0.127938 -3.60863e-28)
(0.0051517 0.127188 0)
(0.00242523 0.126433 1.69149e-28)
(0.000141553 0.125616 1.86517e-27)
(-0.00166465 0.124583 0)
(-0.00280073 0.12319 2.50926e-27)
(-0.00320782 0.121502 1.29896e-26)
(-0.00278022 0.119506 0)
(-0.00122616 0.117774 2.61849e-26)
(0.0781158 0.000395137 1.36349e-26)
(0.0798738 0.00265542 -3.79996e-27)
(0.080658 0.00883627 1.01964e-26)
(0.0808586 0.0182882 -1.17101e-26)
(0.0809201 0.0280914 -3.1438e-27)
(0.0809335 0.0387091 2.20766e-27)
(0.080793 0.0503548 -1.21601e-26)
(0.0804221 0.0632327 -1.60279e-26)
(0.0800201 0.0781268 -5.81305e-29)
(0.0802587 0.0963654 -4.82713e-28)
(0.0808188 0.115623 -2.86531e-26)
(0.0808306 0.133381 0)
(0.0787521 0.146179 -7.77554e-27)
(0.0733553 0.151426 7.55626e-28)
(0.0647879 0.149858 2.20754e-31)
(0.0553182 0.145417 -9.30464e-28)
(0.0467823 0.141435 1.23869e-27)
(0.039392 0.138487 7.08434e-28)
(0.0330038 0.13632 0)
(0.0273329 0.134572 2.99365e-28)
(0.0222641 0.133203 -1.15922e-43)
(0.0176803 0.132053 1.0583e-28)
(0.0134735 0.131078 1.56052e-30)
(0.00961941 0.130193 6.42577e-33)
(0.00616944 0.129347 -3.1839e-28)
(0.00313759 0.128458 2.29418e-27)
(0.000498781 0.127459 3.29983e-28)
(-0.00167938 0.126309 4.38435e-27)
(-0.00332419 0.124865 0)
(-0.004283 0.123013 -7.44091e-27)
(-0.00453364 0.120755 7.08448e-27)
(-0.00362376 0.11815 2.82479e-26)
(-0.0016282 0.115759 -5.7935e-27)
(0.0763556 0.000302204 4.52344e-29)
(0.0785874 0.00261663 -3.55028e-27)
(0.0797055 0.00906703 6.94768e-27)
(0.0803328 0.0183686 0)
(0.08085 0.0278925 1.97536e-27)
(0.0812948 0.0382031 -2.9193e-27)
(0.0815455 0.0496839 -1.37796e-26)
(0.0815063 0.0625243 1.75562e-26)
(0.081224 0.0770877 -3.40507e-26)
(0.0813664 0.094877 0)
(0.0818156 0.114294 -3.21578e-26)
(0.0819903 0.132846 1.36189e-27)
(0.0805742 0.147579 1.70854e-27)
(0.0761976 0.155231 -1.82307e-27)
(0.0684375 0.15545 -1.00687e-26)
(0.0588899 0.151233 6.67268e-28)
(0.0498411 0.146595 -4.75201e-28)
(0.0420125 0.142988 1.72842e-27)
(0.0352474 0.140278 -1.32362e-28)
(0.0293221 0.138118 8.9311e-28)
(0.024049 0.136363 2.16683e-28)
(0.0193036 0.134897 0)
(0.014986 0.133679 1.99845e-33)
(0.0109916 0.132603 -6.27889e-29)
(0.00732228 0.131643 -1.79993e-28)
(0.0040181 0.1307 -8.42418e-29)
(0.00104795 0.129605 9.08411e-29)
(-0.00155258 0.1283 0)
(-0.00367799 0.126793 3.39039e-27)
(-0.00519023 0.12492 2.81735e-27)
(-0.00602823 0.122458 -8.18426e-27)
(-0.00598177 0.119527 1.76768e-26)
(-0.00459554 0.116229 0)
(-0.00100956 0.113972 1.39363e-27)
(-0.00278546 0.113453 -2.55341e-27)
(0.0741007 0.000230333 -1.76445e-26)
(0.0768206 0.00262885 0)
(0.0783138 0.00931822 -3.99708e-27)
(0.0794204 0.0182995 9.92921e-27)
(0.0804799 0.027538 -6.10893e-28)
(0.0813825 0.037519 3.74056e-27)
(0.0820874 0.0488479 2.79148e-26)
(0.0824343 0.0616792 3.84597e-26)
(0.0823802 0.0760785 1.18884e-27)
(0.08251 0.0934281 3.63946e-26)
(0.0828967 0.112925 -1.55196e-27)
(0.0831097 0.132051 2.7649e-27)
(0.082175 0.148405 -3.05526e-26)
(0.0786891 0.158423 6.33469e-27)
(0.0718237 0.160741 -1.1423e-26)
(0.062525 0.157341 -1.81209e-26)
(0.0529787 0.152214 0)
(0.0446503 0.147899 3.3249e-27)
(0.0374911 0.144563 -2.78142e-28)
(0.0312608 0.141938 5.36205e-28)
(0.0257584 0.139764 0)
(0.0208667 0.137977 0)
(0.0164524 0.136481 0)
(0.0123671 0.135192 -1.19739e-28)
(0.00853455 0.134062 -8.27428e-29)
(0.00499073 0.133046 -1.81553e-28)
(0.0017422 0.131967 -8.45989e-29)
(-0.00119209 0.130592 -4.13901e-27)
(-0.00378205 0.128965 4.4682e-28)
(-0.0058667 0.127099 -3.19442e-27)
(-0.00731345 0.124641 -6.11799e-27)
(-0.00797618 0.12146 -4.35283e-26)
(-0.00752835 0.1178 -6.88611e-27)
(-0.00469647 0.113983 -5.49489e-28)
(-0.00617326 0.114758 -2.0594e-27)
(-0.00102328 0.112384 0)
(-0.00301489 0.111976 0)
(0.071356 0.00018277 0)
(0.0745391 0.00271163 -1.82784e-26)
(0.0764505 0.00957124 -1.2203e-30)
(0.0780917 0.0180772 9.83186e-27)
(0.0797794 0.0269939 1.28294e-26)
(0.0811904 0.0366318 -1.75585e-27)
(0.0823819 0.0478115 3.13244e-26)
(0.0831819 0.060649 3.3157e-26)
(0.083451 0.0750039 2.19179e-27)
(0.0836563 0.0920148 3.29255e-28)
(0.0840529 0.111509 0)
(0.0842689 0.131084 -2.67545e-27)
(0.0836476 0.148719 3.91881e-27)
(0.080905 0.160978 0)
(0.0749291 0.1656 -2.09166e-26)
(0.0661178 0.16352 -4.17344e-26)
(0.0562887 0.158289 3.7399e-27)
(0.047336 0.153226 0)
(0.0397292 0.149256 7.52353e-27)
(0.0331603 0.146094 0)
(0.0274251 0.143451 1.50827e-28)
(0.0223582 0.141248 0)
(0.0178232 0.139402 0)
(0.0136841 0.137902 1.96448e-36)
(0.00977804 0.136602 0)
(0.00607629 0.135466 4.08531e-28)
(0.00263177 0.134416 -2.26381e-28)
(-0.00065305 0.133137 1.23164e-29)
(-0.00361434 0.131511 4.21984e-29)
(-0.00624888 0.129539 5.46238e-28)
(-0.00831704 0.127129 -5.7698e-27)
(-0.00973687 0.123915 -4.28945e-26)
(-0.00921256 0.1195 -5.71294e-27)
(-0.0102265 0.120835 -1.5718e-26)
(-0.00799261 0.115545 -1.14526e-31)
(-0.00994014 0.119042 0)
(-0.00951335 0.11649 -1.04874e-26)
(-0.00507215 0.112598 2.442e-27)
(-0.00689129 0.113378 3.85893e-27)
(-0.0010407 0.110694 0)
(-0.00328241 0.110322 -4.57052e-27)
(0.0681313 0.000170926 1.08247e-28)
(0.0717423 0.00288368 0)
(0.0740888 0.00981031 -3.03048e-27)
(0.0763122 0.0177255 2.09547e-26)
(0.0786619 0.0262319 -2.79788e-30)
(0.0806859 0.0355327 -5.72774e-27)
(0.0824045 0.0465411 1.35745e-34)
(0.0837057 0.0593842 3.51667e-26)
(0.0843985 0.0737839 -1.75777e-27)
(0.0847867 0.0905611 1.7245e-30)
(0.0852597 0.110025 4.19476e-26)
(0.0854969 0.130002 -4.00406e-26)
(0.0850811 0.148625 2.9357e-26)
(0.0829178 0.162894 -2.86132e-26)
(0.0778211 0.169919 -2.92469e-26)
(0.0695848 0.169584 -1.84354e-26)
(0.0597101 0.164734 0)
(0.0501631 0.159057 -1.61855e-30)
(0.0419891 0.15438 8.75568e-27)
(0.0350276 0.150595 -8.04616e-28)
(0.0290014 0.147394 3.49363e-27)
(0.0237516 0.144725 1.07506e-27)
(0.0191202 0.142504 -2.67114e-28)
(0.0149399 0.140719 3.97178e-28)
(0.0110472 0.139242 0)
(0.00726179 0.13799 -2.13277e-28)
(0.00363948 0.136889 8.25124e-28)
(0.000142227 0.135784 8.21483e-29)
(-0.00325338 0.134321 6.53387e-28)
(-0.00633868 0.132361 1.93276e-29)
(-0.00904117 0.129959 -4.76891e-28)
(-0.0111825 0.126792 0)
(-0.0114172 0.122174 -1.27312e-26)
(-0.0123072 0.123734 -3.50654e-27)
(-0.0112971 0.120185 1.18705e-26)
(-0.0088224 0.114203 1.0456e-27)
(-0.0111897 0.117708 -1.58173e-27)
(-0.0106071 0.115206 -1.37114e-26)
(-0.0055308 0.111016 2.6637e-27)
(-0.00763694 0.111833 4.23782e-27)
(-0.0011145 0.108846 2.43405e-26)
(-0.00357967 0.10848 1.95782e-26)
(0.0644424 0.000237909 -2.27898e-26)
(0.0684252 0.00316148 4.96001e-28)
(0.0712185 0.010021 0)
(0.0740372 0.0172591 4.55119e-27)
(0.0770555 0.0252612 3.57184e-27)
(0.0797779 0.0342315 -2.27435e-26)
(0.0821102 0.0450277 -1.39987e-30)
(0.0839736 0.0578411 -1.04384e-34)
(0.0851752 0.0723395 2.1692e-26)
(0.0858723 0.0890014 2.18286e-26)
(0.0864842 0.108411 4.57938e-26)
(0.086805 0.128775 -8.81134e-26)
(0.086537 0.148217 0)
(0.0848196 0.164222 -7.54591e-26)
(0.0805219 0.173633 5.22791e-26)
(0.072947 0.175394 0)
(0.0631748 0.171408 -4.78664e-30)
(0.0531733 0.165375 4.97318e-27)
(0.0443287 0.159939 6.64807e-27)
(0.0368586 0.155504 -2.47011e-27)
(0.0304862 0.151737 -5.09712e-27)
(0.0250242 0.14853 1.11096e-27)
(0.0202832 0.145825 -5.01305e-28)
(0.0160768 0.143679 -8.9226e-28)
(0.0121669 0.141963 6.14539e-28)
(0.00844152 0.140545 -3.1462e-28)
(0.00478073 0.139374 2.95577e-28)
(0.00115844 0.138336 1.04419e-27)
(-0.00250396 0.137128 1.11152e-27)
(-0.00606621 0.135438 7.71834e-28)
(-0.00931264 0.13312 -8.68248e-27)
(-0.0122576 0.130092 -5.85432e-27)
(-0.0133209 0.12528 6.76996e-28)
(-0.0140219 0.127075 4.75493e-28)
(-0.0126621 0.121556 4.50836e-27)
(-0.0138222 0.123126 2.69662e-27)
(-0.0127477 0.119046 1.18191e-26)
(-0.00971934 0.112689 -5.71876e-27)
(-0.0124153 0.116444 -8.66215e-28)
(-0.011753 0.113758 -1.93692e-26)
(-0.00605641 0.109243 0)
(-0.00839728 0.110101 -7.21819e-28)
(-0.00120215 0.106812 6.99672e-27)
(-0.00389389 0.106428 -2.41346e-26)
(0.0603239 0.000378318 0)
(0.0645974 0.00355694 -2.31723e-26)
(0.0678569 0.0101598 -2.37522e-27)
(0.0712595 0.0166904 4.20511e-27)
(0.0749204 0.0241179 0)
(0.0783633 0.0327506 -1.57507e-26)
(0.0814012 0.0432861 -6.71426e-27)
(0.0839242 0.0560107 5.16389e-27)
(0.0857342 0.0706028 2.32091e-26)
(0.0868739 0.0872586 -2.42762e-26)
(0.0877143 0.106636 3.06825e-28)
(0.0881938 0.127337 -7.26993e-26)
(0.0880602 0.147512 0)
(0.0866806 0.165019 -8.44207e-26)
(0.0830697 0.176703 5.13695e-26)
(0.0762499 0.180799 -1.25495e-29)
(0.0667092 0.178158 0)
(0.0563316 0.172147 -6.34112e-27)
(0.0467963 0.166057 1.74271e-26)
(0.0386942 0.160908 0)
(0.0318943 0.156499 -8.33534e-27)
(0.0261396 0.152688 3.18862e-31)
(0.0212218 0.149443 -3.59746e-28)
(0.0169713 0.146781 1.41903e-27)
(0.0131895 0.144742 1.04601e-27)
(0.00955314 0.143122 1.41601e-27)
(0.00596205 0.141846 -8.49086e-29)
(0.00238441 0.140793 0)
(-0.00135658 0.139781 1.3824e-27)
(-0.00523624 0.138475 8.493e-28)
(-0.00908722 0.136507 2.80824e-28)
(-0.0127139 0.133696 -1.10043e-26)
(-0.0147863 0.128846 -3.39899e-27)
(-0.0152378 0.130869 -5.35205e-35)
(-0.0149375 0.124837 3.02496e-27)
(-0.0158372 0.126694 0)
(-0.0142443 0.120567 1.49019e-26)
(-0.0156052 0.122273 9.83381e-28)
(-0.0141804 0.117873 7.31442e-27)
(-0.0106947 0.110995 -5.01567e-27)
(-0.0137599 0.11507 -3.78994e-27)
(-0.0129564 0.112127 -8.30468e-27)
(-0.00661529 0.107264 -1.18938e-26)
(-0.00919317 0.108161 -3.59942e-27)
(-0.0013051 0.104569 -1.42066e-26)
(-0.00423703 0.104155 -2.59867e-26)
(0.0558204 0.000550607 2.50889e-26)
(0.0603557 0.00405253 2.46749e-26)
(0.0640286 0.0101994 1.1875e-30)
(0.067997 0.0160574 3.73661e-27)
(0.072237 0.0228498 2.08633e-26)
(0.0763935 0.0310986 0)
(0.0801767 0.0413218 1.90875e-26)
(0.0834633 0.0538915 6.46079e-27)
(0.086008 0.0685283 -2.36508e-27)
(0.0877395 0.0852504 3.7272e-28)
(0.0889397 0.104643 -2.70864e-26)
(0.089653 0.12565 -2.66353e-26)
(0.0896694 0.146521 -2.54309e-26)
(0.0885767 0.165298 -7.35321e-26)
(0.0855242 0.179092 0)
(0.0794936 0.185665 0)
(0.070326 0.184866 -3.43454e-26)
(0.0596283 0.17934 0)
(0.0494294 0.172755 2.99034e-26)
(0.0406135 0.166824 -9.90632e-27)
(0.033223 0.161699 0)
(0.0270853 0.157211 1.54936e-27)
(0.0219992 0.153328 1.28901e-28)
(0.0177156 0.150134 1.21722e-27)
(0.0139499 0.147623 5.86564e-29)
(0.010542 0.145725 -5.27173e-29)
(0.00708103 0.144337 -3.17963e-28)
(0.00358708 0.143283 1.71435e-27)
(-0.000133396 0.142425 -3.63629e-28)
(-0.00415104 0.141441 3.30751e-28)
(-0.00832755 0.139998 4.21403e-28)
(-0.0126891 0.137637 8.40871e-27)
(-0.0156787 0.132848 -6.57613e-27)
(-0.0158215 0.135069 -1.84593e-28)
(-0.0166712 0.128676 1.25596e-28)
(-0.0172847 0.130782 7.14971e-30)
(-0.0168314 0.124138 3.73238e-28)
(-0.0178876 0.126154 -4.22384e-27)
(-0.0158622 0.119513 -1.94182e-32)
(-0.0174097 0.121352 0)
(-0.0157302 0.116593 -3.33806e-27)
(-0.0117274 0.109094 2.68486e-27)
(-0.0151896 0.11352 2.63938e-26)
(-0.0142235 0.110284 1.14826e-26)
(-0.00720393 0.105065 1.52038e-26)
(-0.0100217 0.105994 1.53462e-27)
(-0.00141985 0.102106 -8.03257e-27)
(-0.00461001 0.101659 2.47718e-26)
(0.0510304 0.000764104 -2.24393e-28)
(0.0557638 0.00463877 2.54762e-26)
(0.0597466 0.010196 5.12212e-26)
(0.0642432 0.0154161 3.15168e-27)
(0.0689964 0.0215214 -5.1236e-27)
(0.07383 0.0292919 4.28403e-26)
(0.0783801 0.0391341 4.70241e-26)
(0.0824963 0.051468 0)
(0.0858968 0.0660859 6.10639e-27)
(0.0883838 0.0828928 -3.13843e-27)
(0.0901136 0.102359 -2.92741e-26)
(0.091169 0.123671 0)
(0.0913998 0.145212 -2.76516e-26)
(0.0905687 0.165107 -2.51854e-26)
(0.0879596 0.180824 -2.76676e-26)
(0.0826472 0.189881 -2.09333e-26)
(0.0740398 0.191345 0)
(0.063194 0.186798 -4.52367e-26)
(0.0522683 0.179953 3.64699e-26)
(0.0426241 0.173342 0)
(0.0345571 0.167461 -9.33271e-27)
(0.0279515 0.162218 -5.2964e-27)
(0.0225511 0.157629 -7.54723e-28)
(0.0181182 0.153721 -2.21357e-27)
(0.0144715 0.150648 1.11449e-27)
(0.0112155 0.14837 0)
(0.00801881 0.146765 0)
(0.00468177 0.145765 1.81612e-27)
(0.00110191 0.145075 0)
(-0.00295517 0.144433 2.31464e-27)
(-0.00731325 0.143423 0)
(-0.0119149 0.141663 9.86203e-28)
(-0.0158728 0.137208 -1.45386e-27)
(-0.0157053 0.139522 0)
(-0.0177764 0.133004 -7.28095e-27)
(-0.0180351 0.135324 3.4727e-27)
(-0.0188053 0.128319 8.48212e-27)
(-0.0195438 0.130616 -2.93334e-32)
(-0.0188031 0.123363 3.98045e-28)
(-0.0200245 0.125541 -4.45503e-27)
(-0.0176201 0.118352 -2.17751e-26)
(-0.0193665 0.120328 0)
(-0.0173878 0.115135 1.70695e-26)
(-0.0128089 0.106965 -1.45983e-27)
(-0.0167011 0.111754 -1.06021e-29)
(-0.0155555 0.108213 -1.3572e-27)
(-0.00781947 0.102634 2.90538e-26)
(-0.0108866 0.103591 1.66619e-27)
(-0.00153721 0.099415 1.65517e-26)