/*--------------------------------*- C++ -*----------------------------------*\
  =========                 |
  \\      /  F ield         | OpenFOAM: The Open Source CFD Toolbox
   \\    /   O peration     | Website:  https://openfoam.org
    \\  /    A nd           | Version:  dev
     \\/     M anipulation  |
\*---------------------------------------------------------------------------*/
FoamFile
{
    version     2.0;
    format      ascii;
    class       volScalarField;
    location    "2500";
    object      a;
}
// * * * * * * * * * * * * * * * * * * * * * * * * * * * * * * * * * * * * * //

dimensions      [0 -1 0 0 0 0 0];

internalField   nonuniform List<scalar> 
9851
(
0.100011
0.100011
0.100011
0.100011
0.100011
0.100011
0.100011
0.100011
0.100011
0.100011
0.10001
0.100011
0.100011
0.100011
0.100011
0.10001
0.10001
0.100011
0.100011
0.100011
0.100011
0.10001
0.10001
0.10001
0.100011
0.100011
0.100011
0.100011
0.10001
0.10001
0.10001
0.10001
0.100011
0.100011
0.100011
0.100011
0.100009
0.10001
0.10001
0.10001
0.10001
0.100011
0.100011
0.100011
0.100011
0.100009
0.100009
0.10001
0.10001
0.10001
0.10001
0.100011
0.100011
0.100011
0.100011
0.100009
0.100009
0.100009
0.10001
0.10001
0.10001
0.10001
0.100011
0.100011
0.100011
0.100011
0.100009
0.100009
0.100009
0.100009
0.10001
0.10001
0.10001
0.10001
0.100011
0.100011
0.100011
0.100011
0.100009
0.100009
0.100009
0.100009
0.100009
0.10001
0.10001
0.10001
0.10001
0.100011
0.100011
0.100011
0.100011
0.100008
0.100009
0.100009
0.100009
0.100009
0.100009
0.10001
0.10001
0.10001
0.10001
0.100011
0.100011
0.100011
0.100011
0.100008
0.100008
0.100009
0.100009
0.100009
0.100009
0.100009
0.10001
0.10001
0.10001
0.10001
0.100011
0.100011
0.100011
0.100011
0.100008
0.100008
0.100008
0.100009
0.100009
0.100009
0.100009
0.100009
0.10001
0.10001
0.10001
0.10001
0.100011
0.100011
0.100011
0.100011
0.100008
0.100008
0.100008
0.100008
0.100009
0.100009
0.100009
0.100009
0.100009
0.10001
0.10001
0.10001
0.10001
0.100011
0.100011
0.100011
0.100011
0.100007
0.100008
0.100008
0.100008
0.100008
0.100009
0.100009
0.100009
0.100009
0.100009
0.10001
0.10001
0.10001
0.10001
0.100011
0.100011
0.100011
0.100011
0.100007
0.100007
0.100008
0.100008
0.100008
0.100008
0.100009
0.100009
0.100009
0.100009
0.100009
0.10001
0.10001
0.10001
0.10001
0.100011
0.100011
0.100011
0.100011
0.100007
0.100007
0.100007
0.100008
0.100008
0.100008
0.100008
0.100009
0.100009
0.100009
0.100009
0.100009
0.10001
0.10001
0.10001
0.10001
0.100011
0.100011
0.100011
0.100011
0.100007
0.100007
0.100007
0.100007
0.100008
0.100008
0.100008
0.100008
0.100008
0.100009
0.100009
0.100009
0.100009
0.10001
0.10001
0.10001
0.10001
0.100011
0.100011
0.100011
0.100011
0.100006
0.100007
0.100007
0.100007
0.100007
0.100008
0.100008
0.100008
0.100008
0.100008
0.100009
0.100009
0.100009
0.100009
0.10001
0.10001
0.10001
0.10001
0.100011
0.100011
0.100011
0.100011
0.100006
0.100006
0.100007
0.100007
0.100007
0.100007
0.100008
0.100008
0.100008
0.100008
0.100008
0.100009
0.100009
0.100009
0.100009
0.10001
0.10001
0.10001
0.10001
0.100011
0.100011
0.100011
0.100011
0.100006
0.100006
0.100006
0.100007
0.100007
0.100007
0.100007
0.100008
0.100008
0.100008
0.100008
0.100008
0.100009
0.100009
0.100009
0.100009
0.10001
0.10001
0.10001
0.10001
0.100011
0.100011
0.100011
0.100011
0.100006
0.100006
0.100006
0.100006
0.100007
0.100007
0.100007
0.100007
0.100008
0.100008
0.100008
0.100008
0.100008
0.100009
0.100009
0.100009
0.100009
0.10001
0.10001
0.10001
0.10001
0.100011
0.100011
0.100011
0.100011
0.100006
0.100006
0.100006
0.100006
0.100006
0.100007
0.100007
0.100007
0.100007
0.100008
0.100008
0.100008
0.100008
0.100008
0.100009
0.100009
0.100009
0.100009
0.10001
0.10001
0.10001
0.10001
0.100011
0.100011
0.100011
0.100011
0.100005
0.100006
0.100006
0.100006
0.100006
0.100006
0.100007
0.100007
0.100007
0.100007
0.100008
0.100008
0.100008
0.100008
0.100008
0.100009
0.100009
0.100009
0.100009
0.10001
0.10001
0.10001
0.10001
0.100011
0.100011
0.100011
0.100011
0.100005
0.100005
0.100006
0.100006
0.100006
0.100006
0.100006
0.100007
0.100007
0.100007
0.100007
0.100008
0.100008
0.100008
0.100008
0.100008
0.100009
0.100009
0.100009
0.100009
0.10001
0.10001
0.10001
0.10001
0.100011
0.100011
0.100011
0.100011
0.100005
0.100005
0.100005
0.100006
0.100006
0.100006
0.100006
0.100006
0.100007
0.100007
0.100007
0.100007
0.100008
0.100008
0.100008
0.100008
0.100008
0.100009
0.100009
0.100009
0.100009
0.10001
0.10001
0.10001
0.10001
0.100011
0.100011
0.100011
0.100011
0.100005
0.100005
0.100005
0.100005
0.100006
0.100006
0.100006
0.100006
0.100006
0.100007
0.100007
0.100007
0.100007
0.100008
0.100008
0.100008
0.100008
0.100008
0.100009
0.100009
0.100009
0.100009
0.10001
0.10001
0.10001
0.10001
0.100011
0.100011
0.100011
0.100011
0.100004
0.100005
0.100005
0.100005
0.100005
0.100006
0.100006
0.100006
0.100006
0.100006
0.100007
0.100007
0.100007
0.100007
0.100008
0.100008
0.100008
0.100008
0.100008
0.100009
0.100009
0.100009
0.100009
0.10001
0.10001
0.10001
0.10001
0.100011
0.100011
0.100011
0.100011
0.100004
0.100004
0.100005
0.100005
0.100005
0.100005
0.100006
0.100006
0.100006
0.100006
0.100006
0.100007
0.100007
0.100007
0.100007
0.100008
0.100008
0.100008
0.100008
0.100008
0.100009
0.100009
0.100009
0.100009
0.10001
0.10001
0.10001
0.10001
0.100011
0.100011
0.100011
0.100011
0.100004
0.100004
0.100004
0.100005
0.100005
0.100005
0.100005
0.100006
0.100006
0.100006
0.100006
0.100006
0.100007
0.100007
0.100007
0.100007
0.100008
0.100008
0.100008
0.100008
0.100008
0.100009
0.100009
0.100009
0.100009
0.10001
0.10001
0.10001
0.10001
0.100011
0.100011
0.100011
0.100011
0.100004
0.100004
0.100004
0.100004
0.100005
0.100005
0.100005
0.100005
0.100006
0.100006
0.100006
0.100006
0.100006
0.100007
0.100007
0.100007
0.100007
0.100008
0.100008
0.100008
0.100008
0.100008
0.100009
0.100009
0.100009
0.100009
0.10001
0.10001
0.10001
0.10001
0.100011
0.100011
0.100011
0.100011
0.100011
0.100004
0.100004
0.100004
0.100004
0.100004
0.100005
0.100005
0.100005
0.100005
0.100006
0.100006
0.100006
0.100006
0.100006
0.100007
0.100007
0.100007
0.100007
0.100008
0.100008
0.100008
0.100008
0.100008
0.100009
0.100009
0.100009
0.100009
0.10001
0.10001
0.10001
0.10001
0.100011
0.100011
0.100011
0.100011
0.100011
0.100011
0.100003
0.100004
0.100004
0.100004
0.100004
0.100004
0.100005
0.100005
0.100005
0.100005
0.100006
0.100006
0.100006
0.100006
0.100006
0.100007
0.100007
0.100007
0.100007
0.100008
0.100008
0.100008
0.100008
0.100008
0.100009
0.100009
0.100009
0.100009
0.10001
0.10001
0.10001
0.10001
0.100011
0.10001
0.100011
0.100011
0.100011
0.100011
0.100011
0.100011
0.100011
0.100003
0.100003
0.100004
0.100004
0.100004
0.100004
0.100004
0.100005
0.100005
0.100005
0.100005
0.100006
0.100006
0.100006
0.100006
0.100006
0.100007
0.100007
0.100007
0.100007
0.100008
0.100008
0.100008
0.100008
0.100008
0.100009
0.100009
0.100009
0.100009
0.10001
0.10001
0.10001
0.10001
0.10001
0.100011
0.100011
0.100011
0.100011
0.100011
0.100011
0.100011
0.100011
0.100003
0.100003
0.100003
0.100004
0.100004
0.100004
0.100004
0.100004
0.100005
0.100005
0.100005
0.100005
0.100006
0.100006
0.100006
0.100006
0.100006
0.100007
0.100007
0.100007
0.100007
0.100008
0.100008
0.100008
0.100008
0.100009
0.100009
0.100009
0.100009
0.10001
0.10001
0.100011
0.100011
0.100011
0.10001
0.100011
0.100011
0.100011
0.100011
0.100011
0.100011
0.100011
0.100011
0.100011
0.100003
0.100003
0.100003
0.100003
0.100004
0.100004
0.100004
0.100004
0.100004
0.100005
0.100005
0.100005
0.100005
0.100006
0.100006
0.100006
0.100006
0.100006
0.100007
0.100007
0.100007
0.100007
0.100008
0.100008
0.100008
0.100008
0.100009
0.100009
0.10001
0.100011
0.100014
0.100017
0.100014
0.100022
0.100012
0.100017
0.100011
0.100013
0.100011
0.100011
0.100011
0.100012
0.100011
0.100011
0.100011
0.100011
0.100002
0.100003
0.100003
0.100003
0.100003
0.100004
0.100004
0.100004
0.100004
0.100004
0.100005
0.100005
0.100005
0.100005
0.100006
0.100006
0.100006
0.100006
0.100006
0.100007
0.100007
0.100007
0.100007
0.100008
0.100008
0.100008
0.100008
0.100009
0.100012
0.100018
0.100032
0.100053
0.100043
0.100093
0.100033
0.100075
0.100022
0.10005
0.100014
0.100028
0.100015
0.100011
0.100016
0.100015
0.100011
0.100011
0.100011
0.100011
0.100002
0.100002
0.100003
0.100003
0.100003
0.100003
0.100004
0.100004
0.100004
0.100004
0.100004
0.100005
0.100005
0.100005
0.100005
0.100006
0.100006
0.100006
0.100006
0.100006
0.100007
0.100007
0.100007
0.100007
0.100008
0.100008
0.100009
0.100011
0.100017
0.100039
0.100097
0.100221
0.100203
0.100446
0.100177
0.100407
0.100129
0.100327
0.100074
0.100213
0.100034
0.100105
0.100038
0.100014
0.100039
0.100036
0.100011
0.100013
0.100011
0.100011
0.100002
0.100002
0.100002
0.100003
0.100003
0.100003
0.100003
0.100004
0.100004
0.100004
0.100004
0.100004
0.100005
0.100005
0.100005
0.100005
0.100006
0.100006
0.100006
0.100006
0.100006
0.100007
0.100007
0.100007
0.100007
0.100008
0.100009
0.100014
0.100033
0.100097
0.100296
0.100791
0.100911
0.101911
0.100903
0.10191
0.100782
0.101757
0.100575
0.101428
0.10033
0.100941
0.100135
0.100467
0.100158
0.10003
0.100163
0.100145
0.100012
0.100022
0.100011
0.100012
0.100002
0.100002
0.100002
0.100002
0.100003
0.100003
0.100003
0.100003
0.100004
0.100004
0.100004
0.100004
0.100004
0.100005
0.100005
0.100005
0.100005
0.100006
0.100006
0.100006
0.100006
0.100006
0.100007
0.100007
0.100007
0.100008
0.100011
0.100023
0.100073
0.100243
0.100768
0.102299
0.103197
0.105615
0.103648
0.106268
0.103668
0.106683
0.103227
0.106484
0.102422
0.105483
0.101416
0.103762
0.100602
0.101942
0.100693
0.100107
0.100702
0.100612
0.100017
0.100068
0.100011
0.100014
0.100001
0.100002
0.100002
0.100002
0.100002
0.100003
0.100003
0.100003
0.100003
0.100004
0.100004
0.100004
0.100004
0.100004
0.100005
0.100005
0.100005
0.100005
0.100006
0.100006
0.100006
0.100006
0.100006
0.100007
0.100007
0.100008
0.100015
0.100044
0.100164
0.100588
0.101852
0.105009
0.108136
0.111767
0.109602
0.113461
0.110576
0.115052
0.110942
0.11612
0.110366
0.11624
0.108496
0.115007
0.105335
0.111953
0.10243
0.10691
0.102716
0.100439
0.102686
0.102307
0.100039
0.100263
0.100012
0.100022
0.100001
0.100001
0.100002
0.100002
0.100002
0.100002
0.100003
0.100003
0.100003
0.100003
0.100004
0.100004
0.100004
0.100004
0.100004
0.100005
0.100005
0.100005
0.100005
0.100006
0.100006
0.100006
0.100006
0.100006
0.100007
0.10001
0.100023
0.100086
0.100352
0.101297
0.104048
0.110359
0.115463
0.118092
0.117509
0.121996
0.11974
0.124434
0.121497
0.12684
0.122459
0.128605
0.122153
0.129229
0.119976
0.128194
0.115377
0.124772
0.108182
0.118247
0.108767
0.101657
0.108504
0.107313
0.100135
0.10098
0.100014
0.100059
0.100001
0.100001
0.100001
0.100002
0.100002
0.100002
0.100002
0.100003
0.100003
0.100003
0.100003
0.100004
0.100004
0.100004
0.100004
0.100004
0.100005
0.100005
0.100005
0.100005
0.100006
0.100006
0.100006
0.100006
0.100007
0.100012
0.10004
0.100174
0.100708
0.102574
0.107399
0.116608
0.1307
0.12566
0.131894
0.129024
0.133567
0.131957
0.136786
0.13441
0.13984
0.135949
0.142166
0.136036
0.143235
0.133974
0.1425
0.128973
0.139144
0.120207
0.132187
0.120917
0.105284
0.120071
0.117434
0.100486
0.103181
0.100021
0.100199
0.100001
0.100001
0.100001
0.100001
0.100002
0.100002
0.100002
0.100002
0.100003
0.100003
0.100003
0.100003
0.100004
0.100004
0.100004
0.100004
0.100004
0.100005
0.100005
0.100005
0.100005
0.100006
0.100006
0.100006
0.100008
0.100018
0.100073
0.100327
0.101329
0.104397
0.111389
0.122988
0.138064
0.145394
0.1492
0.137816
0.141962
0.141328
0.145654
0.144825
0.149364
0.147775
0.152821
0.149717
0.155446
0.150117
0.156762
0.148304
0.156271
0.143407
0.153213
0.134177
0.146453
0.134763
0.113106
0.133666
0.130514
0.10165
0.10881
0.100061
0.100736
0.100001
0.100001
0.100001
0.100001
0.100001
0.100002
0.100002
0.100002
0.100002
0.100003
0.100003
0.100003
0.100003
0.100004
0.100004
0.100004
0.100004
0.100004
0.100005
0.100005
0.100005
0.100005
0.100006
0.100006
0.100009
0.100028
0.100127
0.100571
0.102209
0.106749
0.115731
0.128758
0.144273
0.152125
0.155149
0.15642
0.159326
0.149618
0.15322
0.153501
0.157312
0.157289
0.161228
0.160415
0.164697
0.162417
0.167197
0.162907
0.168386
0.161361
0.167956
0.156973
0.165381
0.148193
0.159418
0.1485
0.125291
0.147063
0.14361
0.105085
0.118968
0.1002
0.102258
0.1
0.100001
0.100001
0.100001
0.100001
0.100001
0.100002
0.100002
0.100002
0.100002
0.100003
0.100003
0.100003
0.100003
0.100004
0.100004
0.100004
0.100004
0.100004
0.100005
0.100005
0.100005
0.100005
0.100006
0.10001
0.100042
0.100211
0.100917
0.103349
0.10941
0.120144
0.134609
0.14958
0.157356
0.158973
0.161786
0.1638
0.166119
0.168237
0.160691
0.163629
0.164704
0.167772
0.168344
0.171476
0.171142
0.174312
0.172611
0.175715
0.172742
0.175896
0.171496
0.175256
0.168054
0.17363
0.160633
0.169536
0.160518
0.138367
0.158882
0.155614
0.112129
0.131175
0.100589
0.105621
0.1
0.1
0.100001
0.100001
0.100001
0.100001
0.100001
0.100002
0.100002
0.100002
0.100002
0.100003
0.100003
0.100003
0.100003
0.100004
0.100004
0.100004
0.100004
0.100004
0.100005
0.100005
0.100005
0.100006
0.100012
0.100061
0.100324
0.101402
0.10472
0.112191
0.124237
0.139673
0.153618
0.163026
0.165153
0.166577
0.169771
0.170724
0.174064
0.175052
0.170377
0.172515
0.174102
0.176219
0.176803
0.178669
0.177957
0.179583
0.177969
0.17938
0.177416
0.178614
0.176507
0.177819
0.174719
0.176934
0.170044
0.175158
0.169577
0.150492
0.16807
0.165359
0.121706
0.142795
0.101403
0.111002
0.1
0.1
0.100001
0.100001
0.100001
0.100001
0.100001
0.100002
0.100002
0.100002
0.100002
0.100003
0.100003
0.100003
0.100003
0.100004
0.100004
0.100004
0.100004
0.100004
0.100005
0.100005
0.100006
0.100015
0.100085
0.100471
0.102004
0.106355
0.11502
0.128069
0.143416
0.154273
0.161528
0.168119
0.165478
0.170543
0.169789
0.174995
0.174313
0.178608
0.178131
0.177723
0.17853
0.179964
0.180732
0.180751
0.181477
0.180349
0.181081
0.179429
0.179884
0.178406
0.178371
0.177648
0.177228
0.176992
0.176864
0.17514
0.176751
0.174625
0.160732
0.173586
0.171797
0.131775
0.152962
0.103803
0.118126
0.1
0.1
0.100001
0.100001
0.100001
0.100001
0.100001
0.100002
0.100002
0.100002
0.100002
0.100003
0.100003
0.100003
0.100003
0.100004
0.100004
0.100004
0.100004
0.100004
0.100005
0.100006
0.100017
0.100112
0.10065
0.102733
0.108147
0.117921
0.131501
0.145808
0.153749
0.158235
0.162784
0.159576
0.167485
0.16358
0.172762
0.170506
0.176988
0.175031
0.179928
0.178466
0.180939
0.180667
0.181868
0.181804
0.181496
0.181479
0.179983
0.179689
0.177841
0.176935
0.175968
0.174194
0.175183
0.17256
0.175751
0.17267
0.17634
0.174737
0.17588
0.168083
0.175386
0.174644
0.172869
0.141559
0.161368
0.106775
0.125529
0.1
0.1
0.100001
0.100001
0.100001
0.100001
0.100001
0.100002
0.100002
0.100002
0.100002
0.100003
0.100003
0.100003
0.100003
0.100004
0.100004
0.100004
0.100004
0.100004
0.100006
0.100019
0.100141
0.100848
0.103552
0.110118
0.120759
0.134643
0.1473
0.152832
0.154821
0.151517
0.159163
0.153646
0.163495
0.15787
0.172223
0.168346
0.176059
0.172625
0.178042
0.175065
0.181303
0.180136
0.180972
0.17985
0.178976
0.177705
0.175666
0.173948
0.171995
0.169344
0.169211
0.165434
0.168364
0.163565
0.17023
0.163992
0.173886
0.168203
0.171491
0.175087
0.173336
0.173981
0.169248
0.172866
0.174999
0.173702
0.173445
0.17483
0.150325
0.171186
0.168522
0.162374
0.107676
0.132764
0.1
0.1
0.100001
0.100001
0.100001
0.100001
0.100001
0.100002
0.100002
0.100002
0.100002
0.100003
0.100003
0.100003
0.100003
0.100004
0.100004
0.100004
0.100004
0.100006
0.10002
0.100169
0.101061
0.104419
0.112136
0.123638
0.137415
0.148434
0.152474
0.152306
0.145307
0.14071
0.1365
0.151852
0.145835
0.155985
0.148828
0.168114
0.162525
0.171158
0.166239
0.171604
0.167228
0.17794
0.175199
0.175766
0.173074
0.171626
0.168657
0.166239
0.162618
0.161248
0.156469
0.158172
0.152888
0.157295
0.156355
0.153001
0.164799
0.161001
0.153803
0.157341
0.167349
0.170758
0.167046
0.163554
0.170744
0.174444
0.173773
0.174124
0.171701
0.171091
0.174356
0.164919
0.150665
0.159767
0.172556
0.170519
0.115731
0.153553
0.145376
0.133957
0.1
0.1
0.100001
0.100001
0.100001
0.100001
0.100001
0.100002
0.100002
0.100002
0.100002
0.100003
0.100003
0.100003
0.100003
0.100004
0.100004
0.100004
0.100005
0.100022
0.100186
0.10126
0.10531
0.114093
0.126383
0.140024
0.149362
0.152276
0.150648
0.141603
0.126702
0.129631
0.124561
0.141618
0.135016
0.145293
0.137107
0.160238
0.153184
0.162041
0.155934
0.160336
0.154892
0.169587
0.165296
0.164983
0.160589
0.158252
0.15352
0.151779
0.147875
0.148085
0.144868
0.150475
0.148189
0.146491
0.145311
0.150673
0.148175
0.14977
0.147901
0.159621
0.155583
0.149033
0.152045
0.16277
0.16705
0.162533
0.158531
0.167306
0.174324
0.173977
0.172441
0.167937
0.168845
0.173128
0.167307
0.162695
0.173221
0.171766
0.13805
0.120528
0.129662
0.156821
0.149802
0.1
0.1
0.100001
0.100001
0.100001
0.100001
0.100001
0.100002
0.100002
0.100002
0.100002
0.100003
0.100003
0.100003
0.100003
0.100004
0.100004
0.100005
0.100021
0.100189
0.101397
0.106121
0.116003
0.128843
0.142346
0.150123
0.152197
0.149633
0.139739
0.124705
0.113288
0.112623
0.118198
0.115001
0.129407
0.122954
0.132352
0.124034
0.148852
0.14088
0.148868
0.142158
0.14444
0.138639
0.155543
0.150075
0.148678
0.143825
0.145015
0.142634
0.143471
0.143359
0.144836
0.144922
0.145304
0.146433
0.146191
0.145225
0.145159
0.145628
0.14697
0.146312
0.146244
0.145677
0.15439
0.150773
0.147037
0.148085
0.157918
0.162692
0.157812
0.15361
0.163208
0.173614
0.173697
0.169952
0.164113
0.165322
0.171121
0.16922
0.16526
0.173307
0.172382
0.142677
0.125762
0.135436
0.159977
0.153661
0.1
0.1
0.100001
0.100001
0.100001
0.100001
0.100001
0.100002
0.100002
0.100002
0.100002
0.100003
0.100003
0.100004
0.100004
0.100005
0.100006
0.100019
0.100184
0.101443
0.106706
0.11766
0.131298
0.14408
0.150675
0.152067
0.148837
0.138807
0.124064
0.108598
0.10575
0.105098
0.108279
0.106548
0.116817
0.111525
0.118804
0.111816
0.134763
0.12684
0.132556
0.126201
0.130279
0.125602
0.139255
0.134792
0.140117
0.13736
0.143943
0.144334
0.147776
0.149664
0.151651
0.15437
0.147059
0.149055
0.151548
0.154442
0.145806
0.146828
0.148859
0.15166
0.147094
0.146515
0.148337
0.147818
0.150017
0.148035
0.14841
0.147724
0.153326
0.158123
0.153437
0.14983
0.15887
0.172171
0.172895
0.166826
0.160013
0.161512
0.168482
0.170549
0.167395
0.173012
0.172482
0.146856
0.129716
0.139809
0.162743
0.156943
0.1
0.1
0.100001
0.100001
0.100001
0.100001
0.100001
0.100002
0.100002
0.100003
0.100003
0.100005
0.100006
0.100007
0.100007
0.100009
0.100019
0.100166
0.101432
0.10697
0.118899
0.133246
0.14541
0.150739
0.151719
0.147902
0.137824
0.123471
0.108483
0.102079
0.102073
0.102212
0.102009
0.10321
0.102537
0.107115
0.104552
0.108618
0.105119
0.119761
0.113646
0.120848
0.116131
0.127329
0.123281
0.134372
0.131014
0.144446
0.143899
0.162409
0.167656
0.157506
0.160588
0.163279
0.164563
0.155183
0.159254
0.163762
0.168454
0.150275
0.153688
0.158044
0.163075
0.150823
0.150896
0.1546
0.15468
0.148542
0.148631
0.153629
0.150305
0.15022
0.153971
0.150945
0.149333
0.154925
0.170103
0.171451
0.163372
0.156233
0.157922
0.165449
0.171301
0.168982
0.172291
0.172291
0.150388
0.130298
0.141543
0.165049
0.15954
0.1
0.1
0.100001
0.100001
0.100001
0.100001
0.100002
0.100003
0.100004
0.100007
0.10001
0.100014
0.100016
0.100016
0.100017
0.100025
0.100146
0.101358
0.106991
0.119558
0.134585
0.145952
0.15051
0.151177
0.146444
0.136166
0.12225
0.108058
0.101501
0.10074
0.100651
0.100908
0.100802
0.101365
0.101068
0.103049
0.101945
0.105065
0.103069
0.111767
0.108024
0.119071
0.114817
0.137246
0.132945
0.142781
0.140456
0.170206
0.170897
0.188991
0.191835
0.195751
0.193939
0.173107
0.177549
0.181719
0.185487
0.168628
0.174414
0.180217
0.185809
0.15968
0.165609
0.172069
0.178757
0.15894
0.159983
0.165842
0.16657
0.149801
0.152264
0.16353
0.156811
0.150275
0.151873
0.151311
0.151006
0.152946
0.167582
0.169532
0.159991
0.154222
0.155636
0.162356
0.171606
0.16998
0.171026
0.171792
0.152546
0.126562
0.139661
0.166768
0.161403
0.1
0.1
0.100001
0.100001
0.100001
0.100002
0.100005
0.10001
0.10002
0.100033
0.100043
0.100045
0.100044
0.100042
0.100046
0.100142
0.101202
0.106838
0.119678
0.135366
0.145824
0.150037
0.149997
0.144014
0.133295
0.119485
0.106945
0.101522
0.100286
0.100263
0.100332
0.100279
0.100477
0.100392
0.10081
0.100585
0.101879
0.101202
0.104795
0.102932
0.110883
0.107504
0.128055
0.122668
0.16378
0.157809
0.170759
0.167933
0.197007
0.198538
0.20533
0.206477
0.20879
0.211301
0.210465
0.191018
0.195728
0.199948
0.203543
0.185463
0.191948
0.198035
0.203586
0.173824
0.181392
0.188946
0.196221
0.171755
0.173735
0.180799
0.182124
0.154264
0.160051
0.177381
0.168038
0.152199
0.152251
0.153454
0.156194
0.153381
0.164811
0.167289
0.157307
0.154392
0.155397
0.159487
0.171567
0.17053
0.169433
0.170941
0.152837
0.119823
0.134059
0.167941
0.162686
0.1
0.1
0.100001
0.100002
0.100005
0.100012
0.10003
0.100063
0.100104
0.100133
0.100141
0.100135
0.100119
0.100107
0.100162
0.101073
0.106557
0.119582
0.135411
0.145427
0.149046
0.147811
0.140733
0.129527
0.115867
0.105446
0.101308
0.10018
0.100126
0.100096
0.100193
0.100153
0.100322
0.100247
0.100714
0.100462
0.101815
0.101125
0.107842
0.104575
0.117247
0.112148
0.150681
0.14236
0.193147
0.18548
0.203529
0.198888
0.211541
0.211119
0.223913
0.222583
0.221687
0.223421
0.22505
0.224558
0.208505
0.212758
0.216409
0.219378
0.203065
0.209326
0.214928
0.219819
0.190549
0.198667
0.20628
0.213237
0.187415
0.190086
0.197451
0.199147
0.163059
0.172128
0.193382
0.182498
0.15775
0.154245
0.158968
0.165558
0.155047
0.162074
0.16496
0.156505
0.155654
0.156245
0.157931
0.171391
0.170785
0.167656
0.16988
0.150717
0.112472
0.126651
0.168691
0.16279
0.1
0.100001
0.100003
0.100011
0.100033
0.100088
0.10019
0.100323
0.100429
0.100466
0.100431
0.100355
0.100278
0.100255
0.101022
0.106043
0.119326
0.135191
0.144562
0.147469
0.145174
0.137041
0.125278
0.112052
0.104034
0.100938
0.100168
0.100058
0.100045
0.100079
0.100062
0.100137
0.100102
0.100282
0.100188
0.100831
0.100473
0.102454
0.101381
0.116624
0.10995
0.133584
0.124759
0.176504
0.166114
0.212931
0.204566
0.221056
0.219737
0.219876
0.225112
0.22478
0.232852
0.23111
0.23402
0.235076
0.235558
0.23552
0.223973
0.227422
0.230255
0.232437
0.219485
0.224959
0.22966
0.233608
0.207639
0.215392
0.222342
0.228428
0.204009
0.206958
0.213869
0.21568
0.175611
0.186888
0.209719
0.198574
0.167401
0.159569
0.168483
0.178247
0.159532
0.159866
0.162709
0.156952
0.159018
0.158149
0.157719
0.171063
0.170871
0.165917
0.168729
0.145761
0.105879
0.118374
0.169127
0.161664
0.100001
0.100007
0.100026
0.100094
0.100238
0.100554
0.100967
0.101347
0.101468
0.101344
0.101058
0.100748
0.10053
0.10106
0.1057
0.118528
0.13463
0.143281
0.145766
0.142483
0.13352
0.121391
0.109144
0.102832
0.100644
0.100125
0.100031
0.100036
0.100029
0.100057
0.100045
0.100108
0.100076
0.100305
0.100174
0.10116
0.100631
0.105252
0.102469
0.130681
0.119703
0.154777
0.142734
0.194949
0.184166
0.223153
0.218892
0.215156
0.228939
0.226387
0.226402
0.230109
0.23523
0.234201
0.240054
0.238078
0.243716
0.244107
0.243894
0.244156
0.236825
0.23938
0.241372
0.242801
0.233685
0.238117
0.241785
0.244746
0.223479
0.230297
0.236164
0.241115
0.219867
0.222735
0.228779
0.230469
0.190431
0.202832
0.22494
0.214521
0.179962
0.168345
0.18037
0.192908
0.167106
0.158945
0.161005
0.158011
0.164979
0.162533
0.158279
0.170666
0.170991
0.164174
0.16756
0.139042
0.101659
0.110119
0.169051
0.158805
0.100011
0.10005
0.100194
0.100622
0.101415
0.102703
0.103783
0.104284
0.103917
0.103028
0.101986
0.101234
0.101332
0.105608
0.117638
0.133485
0.141942
0.144079
0.140056
0.130582
0.118404
0.1072
0.102063
0.100438
0.100089
0.100023
0.100018
0.100013
0.100025
0.100022
0.100039
0.10003
0.100101
0.100058
0.100424
0.100205
0.102236
0.100927
0.110994
0.105276
0.145742
0.132099
0.172276
0.159359
0.205134
0.194277
0.228027
0.223784
0.224547
0.218918
0.235737
0.233063
0.231908
0.235427
0.242997
0.241645
0.246019
0.243898
0.25121
0.251278
0.250586
0.251076
0.247056
0.248793
0.250057
0.250867
0.245246
0.248609
0.251299
0.253391
0.237101
0.242661
0.24726
0.251017
0.233915
0.23643
0.241369
0.242765
0.206097
0.218356
0.23817
0.229115
0.194157
0.179472
0.194075
0.208151
0.177185
0.158994
0.160243
0.160615
0.173562
0.169289
0.159465
0.170232
0.170967
0.162715
0.166383
0.130718
0.100268
0.104077
0.168528
0.154123
0.100083
0.10034
0.10113
0.102909
0.105331
0.10764
0.108577
0.108184
0.106695
0.104786
0.102996
0.102206
0.105735
0.117169
0.132271
0.140606
0.142514
0.138081
0.128404
0.116434
0.106008
0.101584
0.100331
0.100062
0.100017
0.10001
0.100012
0.100011
0.100017
0.100014
0.100032
0.100022
0.100122
0.100056
0.100695
0.100275
0.104403
0.10167
0.11965
0.110138
0.156482
0.142775
0.182418
0.169761
0.214248
0.207925
0.201371
0.233251
0.229028
0.229476
0.224409
0.241427
0.2386
0.237152
0.240698
0.249198
0.247758
0.251334
0.249205
0.257158
0.25703
0.256113
0.256701
0.254958
0.256057
0.256766
0.257083
0.254064
0.256483
0.258368
0.259802
0.247962
0.252116
0.255408
0.258004
0.245476
0.247423
0.251166
0.252163
0.221146
0.232369
0.248914
0.241634
0.209056
0.192409
0.208156
0.222702
0.189032
0.159528
0.160221
0.165167
0.184225
0.178419
0.162035
0.169681
0.170829
0.161802
0.165109
0.121215
0.100048
0.101307
0.16733
0.14797
0.100528
0.101766
0.104541
0.10848
0.111765
0.113418
0.113043
0.111074
0.108303
0.105657
0.104151
0.106397
0.117121
0.131317
0.139354
0.141123
0.136565
0.127031
0.115346
0.105384
0.101304
0.100261
0.100048
0.100013
0.100008
0.100007
0.100009
0.100008
0.100014
0.100011
0.100033
0.10002
0.100169
0.100069
0.101052
0.100382
0.107712
0.102994
0.128965
0.116499
0.161906
0.148423
0.188643
0.175363
0.218892
0.21297
0.204337
0.21221
0.238485
0.234177
0.234945
0.229838
0.246728
0.243887
0.242396
0.245906
0.254599
0.253112
0.256258
0.254217
0.261953
0.261719
0.260808
0.261336
0.260855
0.261587
0.26195
0.262044
0.260014
0.26155
0.262732
0.263668
0.255845
0.258622
0.260711
0.262281
0.254386
0.255497
0.258407
0.258698
0.234421
0.243949
0.256776
0.251373
0.222679
0.205796
0.221287
0.235064
0.201691
0.160553
0.16071
0.171967
0.195796
0.188217
0.166241
0.169127
0.170512
0.161576
0.164163
0.112366
0.100017
0.100389
0.165517
0.140016
0.102512
0.106257
0.111548
0.116101
0.118353
0.118266
0.115846
0.112255
0.108788
0.106649
0.108123
0.117337
0.130907
0.138303
0.139924
0.135449
0.126236
0.115025
0.105169
0.101211
0.100219
0.100039
0.100011
0.100007
0.100006
0.100007
0.100007
0.100006
0.100008
0.100014
0.10001
0.100043
0.100022
0.100222
0.100102
0.101717
0.100578
0.111679
0.104843
0.13514
0.12248
0.165719
0.151182
0.196145
0.180977
0.224305
0.218387
0.210136
0.217233
0.243857
0.239616
0.240462
0.235404
0.251819
0.24904
0.247665
0.251057
0.259508
0.257996
0.260851
0.258957
0.265796
0.265378
0.264672
0.26517
0.264409
0.264989
0.265431
0.265711
0.263481
0.26436
0.26512
0.265794
0.261084
0.262858
0.264049
0.265011
0.260402
0.261338
0.262165
0.263045
0.2453
0.253387
0.26106
0.258579
0.235085
0.218703
0.234698
0.24678
0.214395
0.162368
0.161404
0.179957
0.207875
0.199568
0.172237
0.168555
0.170027
0.161915
0.163806
0.106532
0.100013
0.100134
0.162881
0.131477
0.108043
0.114342
0.120136
0.123376
0.123573
0.120934
0.116686
0.112444
0.109679
0.110586
0.11813
0.130877
0.137502
0.138931
0.134662
0.125812
0.115049
0.105156
0.10117
0.1002
0.100034
0.100009
0.100006
0.100006
0.100006
0.100007
0.100006
0.100006
0.100008
0.100016
0.100011
0.100063
0.100029
0.100294
0.100142
0.102577
0.100854
0.114541
0.106733
0.137663
0.125211
0.171629
0.154452
0.208763
0.199303
0.189489
0.229848
0.223792
0.216014
0.222971
0.249129
0.245024
0.245828
0.240907
0.256725
0.254067
0.25279
0.256023
0.264041
0.262515
0.265096
0.263369
0.267942
0.26808
0.267545
0.267943
0.266349
0.266813
0.267206
0.267572
0.26586
0.26664
0.267278
0.26778
0.264279
0.265245
0.266066
0.266727
0.262158
0.263545
0.263071
0.264716
0.254963
0.258545
0.262053
0.259899
0.247173
0.233778
0.247463
0.254761
0.230729
0.165764
0.162675
0.18979
0.224497
0.215014
0.17935
0.168229
0.169418
0.162737
0.164006
0.103411
0.100012
0.100072
0.159513
0.123688
0.11707
0.123608
0.127908
0.128702
0.126197
0.121744
0.116878
0.113469
0.113854
0.120066
0.131107
0.136974
0.138134
0.134068
0.125735
0.115243
0.105255
0.10117
0.100192
0.100031
0.100008
0.100006
0.100005
0.100005
0.100006
0.100007
0.100007
0.100006
0.100009
0.100021
0.100013
0.100093
0.100042
0.100396
0.100184
0.103019
0.101132
0.115201
0.107419
0.139113
0.126047
0.180116
0.160259
0.213609
0.205391
0.191327
0.202421
0.23546
0.229471
0.221294
0.228389
0.25423
0.250263
0.250954
0.246142
0.261391
0.258881
0.257741
0.260777
0.267312
0.266703
0.26844
0.267186
0.269185
0.269372
0.269534
0.269452
0.268223
0.268608
0.26892
0.269124
0.267226
0.267688
0.26811
0.268512
0.265528
0.266354
0.266797
0.267231
0.263191
0.264644
0.263914
0.265339
0.257248
0.2592
0.262363
0.261383
0.254077
0.245935
0.252871
0.255992
0.241979
0.170772
0.1651
0.202868
0.237039
0.230175
0.190279
0.167987
0.16869
0.163419
0.164513
0.101969
0.100014
0.100096
0.155411
0.117507
0.126887
0.131864
0.133095
0.131274
0.127326
0.122295
0.118456
0.118166
0.123335
0.131892
0.136766
0.137546
0.133607
0.125602
0.115496
0.105432
0.101197
0.100191
0.100029
0.100008
0.100005
0.100005
0.100005
0.100005
0.100006
0.100006
0.100006
0.100008
0.100007
0.10001
0.100028
0.100015
0.100125
0.100058
0.100496
0.100222
0.103133
0.101263
0.115068
0.10743
0.141809
0.126593
0.197262
0.192311
0.180434
0.167714
0.218905
0.210774
0.206414
0.240789
0.234878
0.226553
0.23358
0.25905
0.255261
0.255696
0.251038
0.265724
0.263441
0.262376
0.265123
0.269128
0.268844
0.269615
0.269248
0.270269
0.270484
0.270473
0.270533
0.268906
0.269297
0.269665
0.269982
0.267573
0.26792
0.268261
0.268606
0.265916
0.26627
0.266569
0.266798
0.262591
0.264405
0.2629
0.264555
0.258925
0.260276
0.261541
0.260954
0.25538
0.250612
0.25349
0.25728
0.247806
0.17857
0.168323
0.219359
0.243751
0.238531
0.203635
0.168078
0.167888
0.164553
0.165447
0.101812
0.100035
0.100389
0.151299
0.116258
0.134313
0.136335
0.135477
0.132623
0.128316