/*--------------------------------*- C++ -*----------------------------------*\
  =========                 |
  \\      /  F ield         | OpenFOAM: The Open Source CFD Toolbox
   \\    /   O peration     | Website:  https://openfoam.org
    \\  /    A nd           | Version:  dev
     \\/     M anipulation  |
\*---------------------------------------------------------------------------*/
FoamFile
{
    version     2.0;
    format      ascii;
    class       volScalarField;
    location    "2500";
    object      alphat;
}
// * * * * * * * * * * * * * * * * * * * * * * * * * * * * * * * * * * * * * //

dimensions      [1 -1 -1 0 0 0 0];

internalField   nonuniform List<scalar> 
9851
(
0.000152244
0.000156333
0.000147485
0.00014267
0.000186866
0.000130568
0.000131152
0.000198131
0.000175597
0.000124225
0.00012655
0.000191658
0.000201215
0.000149252
0.000122273
0.000122841
0.000173091
0.00021766
0.000185083
0.000135664
0.00012088
0.000120845
0.000153409
0.000217944
0.000211745
0.000157004
0.000130019
0.000119898
0.000120039
0.000142327
0.000210055
0.000226947
0.000187821
0.000141369
0.000126629
0.000119244
0.000119779
0.00013346
0.000189756
0.000236319
0.000215815
0.000160331
0.000134062
0.000124228
0.000118796
0.00011962
0.000128329
0.000164673
0.000234197
0.00023368
0.000186209
0.000144549
0.000129717
0.000122434
0.000118425
0.00011946
0.000125143
0.000151398
0.000223868
0.00024536
0.000215618
0.000160448
0.00013644
0.000126554
0.000121209
0.000118134
0.000118813
0.000123208
0.000140575
0.000200342
0.000251747
0.000237209
0.000183196
0.000145523
0.000131324
0.000124395
0.000120316
0.000117938
0.000118226
0.000122391
0.000133729
0.000173281
0.00024821
0.000250837
0.000210353
0.000159151
0.000137401
0.000127713
0.000122712
0.000119589
0.000117741
0.0001178
0.000121851
0.000129578
0.000159096
0.000236601
0.00026099
0.000236676
0.000178879
0.000145343
0.000132087
0.000125306
0.000121466
0.000119015
0.000117579
0.00011752
0.000121438
0.000127073
0.000147502
0.000211714
0.000265916
0.000254445
0.000203194
0.000157005
0.000137267
0.000128477
0.000123447
0.000120456
0.000118584
0.000117465
0.000117377
0.000120969
0.000125507
0.00013962
0.000185063
0.000261885
0.000265775
0.000229696
0.000173688
0.000144476
0.000132086
0.000125823
0.00012206
0.000119578
0.000118214
0.000117366
0.000117335
0.000120401
0.000124545
0.000134705
0.000167621
0.000250367
0.000274757
0.000252984
0.000195037
0.000154115
0.000136929
0.000128613
0.000123754
0.00012091
0.000119005
0.000117916
0.000117284
0.000117453
0.000119866
0.000123925
0.000131449
0.000156372
0.000226699
0.000279857
0.0002685
0.000220031
0.000168158
0.000142735
0.000131863
0.000125807
0.000122241
0.000119807
0.000118494
0.000117667
0.000117221
0.000117586
0.000119184
0.000123259
0.000129242
0.000147386
0.000201534
0.000276498
0.000279567
0.000244239
0.000186682
0.000151101
0.000135739
0.000128284
0.0001237
0.000120925
0.000119073
0.000118081
0.000117464
0.000117172
0.000117684
0.000118538
0.000122561
0.000127468
0.000141165
0.000178931
0.000267232
0.000287585
0.000266618
0.000208388
0.000162353
0.000140922
0.000131142
0.000125519
0.000122172
0.000119807
0.000118483
0.000117742
0.000117303
0.000117136
0.000117764
0.000117984
0.000121866
0.000126059
0.000136665
0.000167485
0.000248797
0.000294148
0.000280962
0.000231797
0.00017805
0.000147633
0.000134588
0.000127841
0.000123511
0.000120842
0.000119004
0.000117997
0.000117467
0.000117171
0.000117108
0.000117803
0.000117505
0.000121193
0.000125056
0.000133399
0.000158104
0.00022392
0.000293492
0.00029259
0.000255202
0.000196282
0.000157175
0.000138936
0.000130402
0.000125228
0.000122
0.000119754
0.00011835
0.000117596
0.00011724
0.000117071
0.00011709
0.000117799
0.000117164
0.000120599
0.000124256
0.000131046
0.000150541
0.00020095
0.000288212
0.000299626
0.000277152
0.000217802
0.000169286
0.000144645
0.000133296
0.000127247
0.000123293
0.000120731
0.000118908
0.000117822
0.000117281
0.000117064
0.000117
0.000117085
0.000117781
0.00011699
0.000120072
0.000123575
0.000129318
0.000145016
0.000182784
0.000275862
0.000307779
0.000291931
0.000238878
0.000184972
0.000151929
0.000136936
0.000129486
0.000124855
0.00012185
0.000119676
0.000118237
0.000117409
0.000117038
0.000116937
0.000116952
0.000117092
0.000117743
0.000116805
0.000119445
0.00012291
0.000127991
0.000141131
0.000172913
0.000257352
0.000312793
0.000303878
0.000262696
0.000202723
0.00016158
0.000141512
0.000132042
0.000126605
0.00012306
0.000120593
0.000118841
0.00011772
0.000117094
0.000116856
0.000116845
0.000116927
0.000117112
0.000117696
0.000116607
0.000118933
0.000122311
0.000126877
0.000138338
0.00016638
0.000236262
0.000310085
0.000313694
0.000283033
0.000223063
0.000174021
0.000147268
0.000134966
0.000128608
0.000124426
0.000121651
0.000119605
0.000118221
0.00011732
0.000116853
0.000116733
0.000116795
0.000116935
0.000117151
0.000117638
0.00011641
0.000118506
0.00012181
0.000126026
0.000136369
0.000160919
0.000217211
0.000305352
0.000320324
0.000301922
0.000244018
0.000189204
0.000154868
0.000138654
0.00013077
0.000126009
0.000122769
0.000120488
0.000118864
0.000117732
0.000117024
0.000116709
0.00011669
0.000116792
0.000116973
0.000117204
0.000117565
0.00011619
0.000118141
0.00012138
0.000125424
0.000135031
0.000156935
0.000202581
0.000295369
0.000327169
0.000313992
0.000264195
0.000206328
0.000164672
0.00014332
0.000133178
0.000127719
0.000124022
0.000121491
0.000119625
0.000118294
0.000117381
0.000116856
0.000116684
0.000116721
0.000116852
0.000117047
0.000117282
0.000117474
0.000115967
0.000117901
0.000121013
0.000125005
0.000134274
0.000154419
0.000191993
0.000283171
0.000331074
0.000323644
0.000285438
0.000224233
0.000176415
0.000149229
0.000136215
0.000129603
0.000125447
0.000122533
0.000120481
0.000118976
0.000117889
0.000117185
0.000116835
0.000116779
0.000116863
0.000116997
0.000117166
0.000117398
0.000117359
0.000115777
0.000117806
0.000120738
0.00012474
0.000134029
0.000153248
0.000186265
0.000271576
0.000332562
0.000331393
0.000302691
0.000243221
0.000190138
0.000156483
0.000139964
0.000131768
0.000126975
0.0001237
0.000121419
0.000119736
0.00011851
0.000117655
0.000117145
0.000116969
0.000117012
0.000117137
0.000117253
0.000117357
0.000117544
0.000117228
0.000115616
0.000117845
0.000120543
0.000124701
0.000134214
0.000153296
0.000183786
0.00026082
0.000330882
0.000337013
0.000317683
0.000261422
0.000205369
0.000165402
0.000144389
0.000134204
0.000128637
0.000124952
0.000122398
0.000120576
0.000119214
0.000118232
0.000117585
0.000117256
0.00011726
0.000117425
0.000117597
0.000117664
0.000117723
0.000117687
0.000117096
0.000115546
0.000118018
0.00012047
0.00012492
0.000134979
0.000154601
0.000183319
0.000253119
0.000328653
0.00034322
0.000329298
0.00027796
0.000221143
0.000175932
0.000149779
0.000137076
0.000130406
0.000126311
0.00012345
0.000121463
0.000119979
0.000118883
0.000118121
0.000117665
0.000117564
0.000117784
0.000118152
0.000118321
0.000118378
0.000118581
0.000118129
0.000116936
0.000115605
0.000118341
0.000120543
0.000125477
0.000136359
0.000158426
0.000184755
0.000248086
0.000325302
0.000349304
0.000337893
0.000294436
0.000236698
0.00018774
0.000156316
0.000140437
0.000132451
0.000127705
0.000124606
0.000122378
0.000120776
0.000119571
0.000118709
0.000118196
0.000118001
0.000118145
0.000118647
0.000119239
0.000119398
0.000119622
0.000119636
0.000118813
0.000116764
0.000115891
0.000118771
0.000120824
0.000126544
0.00013854
0.000162628
0.00018819
0.000245085
0.00032194
0.000354096
0.000345476
0.000309718
0.000251425
0.000200318
0.000164038
0.000144423
0.000134606
0.000129276
0.000125807
0.000123377
0.000121613
0.000120297
0.000119345
0.000118782
0.000118559
0.000118659
0.00011913
0.000120075
0.00012069
0.000120968
0.000120757
0.000117473
9.99306e-05
0.000100165
0.000116547
0.000116442
0.000119293
0.000121558
0.000128453
0.000141931
0.000168044
0.000194296
0.000243536
0.000318543
0.000357999
0.000352265
0.000322481
0.000265725
0.000212918
0.000172817
0.000149207
0.000137238
0.00013098
0.000127085
0.000124434
0.000122483
0.000121063
0.000120034
0.000119404
0.000119179
0.000119262
0.00011977
0.00012068
0.000122127
0.000123157
0.000123665
0.000110023
0.000100351
9.78354e-05
8.92684e-05
9.16904e-05
0.00011634
0.000117282
0.000119838
0.000122851
0.000131321
0.000147335
0.000175036
0.000200876
0.000244138
0.00031547
0.000360755
0.000358387
0.000333576
0.000278774
0.00022534
0.000182237
0.000154815
0.000140405
0.000132893
0.000128488
0.000125521
0.000123409
0.000121849
0.000120787
0.000120116
0.000119834
0.000119929
0.000120369
0.000121543
0.000123316
0.000124965
0.000126295
0.000116874
0.000111967
9.26371e-05
0.000106009
9.06923e-05
9.09148e-05
8.69616e-05
8.14854e-05
8.13628e-05
0.000116357
0.000118309
0.00012045
0.000124862
0.000135682
0.000155663
0.000182843
0.000207506
0.000245914
0.000312731
0.000361501
0.000363284
0.000343212
0.000290757
0.000237056
0.000191904
0.000161035
0.000143972
0.000135
0.000129993
0.000126702
0.000124366
0.000122704
0.000121557
0.000120843
0.00012051
0.000120647
0.00012122
0.000122423
0.000124327
0.000126575
0.000121694
0.000109844
0.000108037
0.000102631
8.4076e-05
8.82148e-05
8.37258e-05
8.0428e-05
7.80146e-05
7.33741e-05
7.28513e-05
0.000116616
0.000119284
0.000121467
0.000127942
0.00014225
0.000165502
0.000190089
0.000213682
0.000248098
0.000310198
0.000361563
0.000366628
0.000351522
0.000301226
0.000248039
0.00020144
0.000167616
0.000147895
0.000137386
0.000131628
0.000127966
0.000125407
0.000123607
0.00012242
0.000121682
0.000121372
0.00012151
0.000122237
0.000123296
0.00012531
0.000127319
0.000118777
0.000106265
0.000104467
0.000101196
9.88059e-05
8.9952e-05
7.62465e-05
8.33993e-05
7.6139e-05
7.16171e-05
7.03228e-05
6.66781e-05
6.57911e-05
0.000117119
0.000120144
0.000123205
0.000132608
0.00015171
0.000175567
0.000196938
0.000218902
0.000250227
0.000307898
0.000361338
0.000368919
0.000357924
0.000310656
0.000257817
0.000210686
0.000174402
0.000152101
0.000140018
0.000133336
0.0001293
0.000126501
0.000124594
0.000123354
0.000122615
0.000122262
0.000122499
0.000123189
0.000124558
0.000126029
0.000127885
0.00011843
0.000104937
0.000104614
9.78175e-05
9.6799e-05
9.05285e-05
8.99438e-05
8.33286e-05
6.92153e-05
7.64758e-05
6.97183e-05
6.46129e-05
6.37943e-05
6.0554e-05
5.98595e-05
0.000117857
0.000120957
0.000125925
0.000139489
0.000162247
0.000184071
0.000202725
0.000222778
0.000251967
0.000305718
0.000359411
0.000370123
0.000361696
0.000319666
0.000266731
0.000219308
0.000181293
0.000156508
0.000142743
0.000135241
0.000130687
0.000127663
0.000125682
0.000124403
0.000123598
0.000123325
0.000123493
0.000124438
0.000125644
0.000126907
0.000127994
0.000121991
0.000108758
0.000114516
9.93895e-05
0.000105411
8.99731e-05
9.3472e-05
8.29631e-05
8.35407e-05
7.61684e-05
6.34647e-05
6.96167e-05
6.34154e-05
5.89168e-05
5.83124e-05
5.55247e-05
5.49462e-05
0.000118623
0.000121868
0.000129997
0.000149079
0.000172351
0.000190898
0.000206892
0.00022528
0.00025299
0.000303481
0.000356765
0.000371644
0.000364531
0.000326948
0.00027443
0.000227271
0.000188068
0.000161098
0.000145655
0.000137193
0.000132224
0.00012894
0.000126855
0.000125527
0.00012469
0.000124365
0.000124629
0.000125436
0.000126751
0.000127836
0.000127623
0.000123372
0.000121031
0.000114739
0.000119844
0.000116058
0.000104829
0.000117075
8.93744e-05
0.00010735
7.6973e-05
8.57588e-05
7.08792e-05
5.80822e-05
6.46746e-05
5.85049e-05
5.43595e-05
5.40774e-05
5.14497e-05
5.10512e-05
0.000119293
0.000123575
0.000136484
0.000159903
0.00018037
0.000195817
0.000209312
0.000226656
0.000253437
0.000301203
0.00035359
0.00037182
0.000365479
0.000332951
0.000280979
0.00023442
0.000194583
0.000165755
0.000148648
0.000139306
0.000133833
0.000130369
0.00012814
0.000126748
0.000125904
0.000125541
0.000125712
0.00012645
0.000127781
0.000128684
0.000127333
0.000125677
0.000115901
0.000124235
0.000112165
0.000119427
0.000112719
0.000115926
0.000113366
0.0001128
0.000112897
0.000111295
8.20655e-05
0.000111016
7.75394e-05
5.35408e-05
7.12069e-05
6.31875e-05
5.1022e-05
5.03743e-05
4.82448e-05
4.78868e-05
0.000119869
0.000126641
0.000146171
0.000170439
0.000186471
0.00019882
0.000210886
0.000226858
0.000253598
0.000298982
0.000350121
0.00037038
0.00036632
0.000336882
0.000286844
0.000240365
0.000200674
0.000170419
0.000151708
0.000141368
0.00013554
0.000131901
0.000129575
0.000128082
0.000127246
0.000127011
0.000126966
0.000127642
0.000128963
0.000129835
0.000130985
0.000138404
0.000139351
0.000170354
0.000138845
0.000170628
0.000136226
0.000171273
0.000128483
0.000164891
0.000117727
0.000150271
0.000110915
0.000127083
0.000107863
0.00011159
0.000104926
5.53296e-05
0.000102134
9.97551e-05
4.84765e-05
5.05963e-05
4.57313e-05
4.59246e-05
0.000120259
0.000131512
0.000157121
0.000178408
0.000190397
0.000200483
0.000210961
0.000226631
0.000253598
0.000297214
0.000346712
0.000368381
0.000366133
0.000339249
0.000291158
0.000245807
0.000206176
0.000174867
0.000154829
0.000143524
0.000137241
0.000133469
0.00013111
0.000129532
0.000128737
0.000128472
0.000128731
0.000129148
0.000130543
0.000133735
0.000144017
0.000177101
0.000201781
0.000244748
0.000210326
0.000255177
0.000215793
0.000265274
0.000214159
0.000269073
0.000203093
0.000263919
0.000179259
0.000246444
0.00014015
0.000211328
0.000112704
0.000154508
0.000112124
8.08274e-05
0.000108926
0.000104311
4.81735e-05
6.55739e-05
4.3389e-05
4.5871e-05
0.000120816
0.000138833
0.000167908
0.000183955
0.000192204
0.0002005
0.000210148
0.00022619
0.000253631
0.000295855
0.000343712
0.000366061
0.000364536
0.000340126
0.000294131
0.00025009
0.000210891
0.00017915
0.000157581
0.000145568
0.000138881
0.000135009
0.000132662
0.000131106
0.000130227
0.000130158
0.000131055
0.000131627
0.000133239
0.000144136
0.000178023
0.000243021
0.000289126
0.000322409
0.00030144
0.000347228
0.000314286
0.000359923
0.000322781
0.00037209
0.000324299
0.000379092
0.000315267
0.000377503
0.000290235
0.000363478
0.00024241
0.00032995
0.000165746
0.000267471
0.000168955
9.96571e-05
0.000161459
0.000148108
5.60267e-05
9.25122e-05
4.11283e-05
4.89523e-05
0.000121857
0.000148479
0.000177375
0.000187419
0.000192561
0.000199734
0.00020902
0.000225474
0.000253161
0.000294821
0.000341188
0.000363714
0.000362585
0.00034111
0.000295512
0.000253203
0.000215111
0.000182838
0.000160462
0.000147224
0.000140362
0.000136457
0.000134203
0.00013274
0.000132001
0.000132142
0.000133184
0.00013535
0.00014104
0.000169647
0.000229721
0.000321343
0.000436466
0.000383638
0.000436636
0.000401302
0.000438895
0.000415384
0.000452884
0.000426136
0.000466212
0.000430907
0.000475667
0.000426113
0.000477904
0.000406092
0.000469117
0.000362797
0.000442423
0.000283792
0.000387055
0.000289149
0.000129605
0.000280616
0.00025625
9.06458e-05
0.000109659
4.00395e-05
6.1651e-05
0.000123542
0.00015811
0.000184403
0.000189338
0.000192561
0.000199343
0.000207716
0.000224389
0.00025262
0.00029435
0.000339234
0.000361578
0.000360475
0.000340669
0.000297029
0.000255071
0.000218238
0.000186306
0.000162614
0.000148861
0.000141543
0.00013774
0.000135719
0.000134439
0.000134049
0.000134285
0.000135492
0.00013869
0.000155596
0.000204554
0.000288324
0.000397305
0.000499335
0.000526757
0.000555598
0.000472233
0.00050257
0.00048562
0.00051504
0.00050013
0.000529098
0.00051267
0.000543822
0.00052076
0.000556311
0.000520685
0.00056295
0.000507156
0.000559994
0.000472215
0.000540706
0.000402189
0.000494643
0.000406977
0.000213241
0.000399665
0.000375575
9.41513e-05
0.00016681
4.69255e-05
8.25325e-05
0.000125513
0.0001664
0.000189576
0.000191092
0.000193181
0.000198696
0.000206258
0.000223284
0.000252703
0.000295066
0.000338351
0.000359976
0.000358438
0.000339333
0.000297859
0.000256613
0.000220765
0.000188963
0.000164879
0.000150089
0.000142433
0.000138776
0.000137136
0.000136205
0.000136149
0.000136823
0.000138046
0.000144475
0.000175245
0.00024662
0.000353011
0.000462836
0.000552701
0.000577357
0.000602459
0.000586131
0.000607
0.000541153
0.000564561
0.000554372
0.000577273
0.000570158
0.000592842
0.000585738
0.00061102
0.000598484
0.000628385
0.000603694
0.000640439
0.000596273
0.00064271
0.000568989
0.000629157
0.000509411
0.000590997
0.000515328
0.000332063
0.000509016
0.000486267
0.000127624
0.000273068
7.58764e-05
9.1597e-05
0.000127896
0.000172303
0.000193074
0.000193265
0.000193828
0.00019792
0.000205175
0.000222869
0.00025332
0.000296148
0.000338873
0.000359274
0.000356835
0.000337744
0.000297572
0.000257836
0.000222701
0.0001916
0.000166513
0.000151135
0.000143205
0.00013958
0.000138377
0.000137956
0.000138355
0.000139617
0.000141539
0.000152334
0.000198872
0.000289244
0.000413141
0.000516698
0.000600263
0.000623148
0.000640227
0.000626876
0.000646671
0.000633911
0.000650851
0.0005978
0.00061632
0.000612792
0.00063117
0.000632579
0.000651301
0.000653784
0.000675526
0.000671985
0.000698817
0.00068169
0.000715006
0.00067823
0.000719884
0.000656143
0.000709107
0.000606089
0.000676972
0.000612199
0.000445848
0.000606151
0.000585019
0.000202418
0.000385256
5.89436e-05
0.000129662
0.000136301
0.000176157
0.000194651
0.00019492
0.000193781
0.000197272
0.000204806
0.000223393
0.000254166
0.000297295
0.000339855
0.000359525
0.000355906
0.000336186
0.00029691
0.000258283
0.000224523
0.000193605
0.000168604
0.000151991
0.000143809
0.000140318
0.00013936
0.000139649
0.000140748
0.000142512
0.000145604
0.000163823
0.000224066
0.000334139
0.000463502
0.000561461
0.000640525
0.000691764
0.000663657
0.000687394
0.000667357
0.0006831
0.000675748
0.000688001
0.000647499
0.000662277
0.000667466
0.000682334
0.000693836
0.000709117
0.000720905
0.000738096
0.00074219
0.000763757
0.000753223
0.000779549
0.000750887
0.000783215
0.000731821
0.000772655
0.000689914
0.000746472
0.000693956
0.000546307
0.000686967
0.000666646
0.000299694
0.000485584
7.10824e-05
0.000191074
0.000185874
0.000194746
0.000195181
0.000193067
0.000196725
0.000205068
0.000224268
0.000256846
0.000300397
0.000341016
0.000360456
0.000355649
0.000334816
0.000296031
0.000258499
0.000225885
0.000195956
0.000170156
0.00015276
0.000143804
0.000140636
0.000140165
0.000141142
0.000143071
0.000145703
0.000150957
0.000177673
0.000252226
0.000377439
0.000506771
0.000596121
0.000678417
0.000721531
0.000718209
0.000719363
0.000698224
0.000711878
0.000700189
0.000709819
0.000712043
0.000716783
0.000693999
0.000703904
0.000720575
0.000729971
0.000751846
0.000759819
0.000779172
0.000786581
0.000796773
0.0008028
0.000803749
0.000802806
0.000799768
0.000789736
0.000784374
0.000803293
0.000753174
0.000787835
0.000753165
0.000630176
0.000745166
0.000725494
0.000394913
0.000572621
0.000116008
0.000263809
0.000197338
0.000194921
0.000192572
0.000196297
0.000205492
0.000226773
0.000261035
0.000305707
0.00034444
0.00036154
0.000356013
0.000333691
0.000295231
0.00025856
0.000227258
0.000198028
0.00017182
0.000153493
0.000143653
0.000140225
0.000140778
0.000142469
0.000145313
0.000149115
0.000157506
0.000194197
0.000281999
0.000418734
0.000537954
0.000623161
0.000706792
0.000727653
0.000720624
0.000724648
0.000710428
0.000709063
0.00071269
0.000712737
0.000715451
0.000709227
0.000728767
0.000717025
0.000735259
0.000736147
0.000763579
0.000759837
0.00078561
0.000778768
0.000797447
0.000757503
0.00074867
0.000700065
0.000720437
0.000657896
0.000723218
0.000648545
0.000754143
0.000665444
0.00078522
0.000715919
0.000780021
0.000694529
0.000767677
0.000741719
0.00073693
0.000482843
0.00064322
0.000154787
0.000339202
0.000196349
0.000192526
0.000196236
0.000206234
0.000229966
0.000266352
0.000311502
0.000351283
0.000364341
0.000357095
0.000333062
0.000294605
0.000259124
0.000228765
0.000200293
0.000174246
0.000154328
0.000143618
0.000139667
0.000140704
0.000143607
0.000147883
0.000152831
0.000164674
0.00021164
0.000314009
0.000458382
0.00056308
0.000643699
0.000725899
0.000738436
0.0007194
0.000707422
0.000698801
0.000689608
0.000676003
0.00070335
0.000698038
0.000706397
0.000695106
0.000720182
0.000703331
0.000748701
0.000734337
0.00076607
0.000751588
0.000723562
0.000698587
0.000657846
0.000620586
0.000607125
0.000564431
0.00058418
0.000529278
0.000587847
0.000528307
0.000620264
0.000538805
0.000684418
0.000559338
0.000682299
0.000772723
0.000644156
0.000723205
0.00070666
0.00073612
0.000763197
0.000651151
0.000625616
0.000750421
0.000560824
0.000722314
0.000701244
0.000654961
0.000137974
0.000263688
0.000193757
0.000196553
0.000207597
0.00023324
0.000272128
0.000318897
0.000358109
0.000371396
0.000358753
0.00033316
0.000294428
0.000260107
0.000230676
0.000203602
0.000176603
0.000155633
0.000143889
0.000139314
0.000140378
0.000144459
0.000150526
0.000156862
0.000172806
0.000230323
0.000350134
0.000494475
0.000582895
0.000661177
0.00074253
0.000754709
0.000725954
0.000624198
0.000619979
0.000659179
0.000640249
0.000631077
0.00060063
0.000679701
0.000658057
0.000680804
0.000651932
0.000688777
0.000654844
0.000735202
0.000715385
0.000675557
0.00065386
0.000588609
0.000563626
0.000526177
0.000494333
0.000484074
0.000449505
0.00046959
0.000427035
0.000466612
0.000463279
0.000408013
0.000570621
0.000476596
0.000408532
0.000487332
0.000530525
0.000652397
0.000540354
0.000534852
0.000625195
0.000752213
0.000744037
0.000693399
0.000635201
0.000627048
0.000713828
0.000676258
0.000573031
0.000641055
0.000732247
0.000716191
0.000194199
0.000541995
0.000532757
0.000417026
0.000198314
0.000209014
0.000236686
0.000278485
0.0003267
0.000367107
0.000379505
0.000363345
0.000334093
0.000294846
0.000261476
0.000233506
0.000207346
0.00018125
0.000157971
0.000144479
0.000139368
0.000140312
0.000145074
0.000152622
0.000160578
0.000181563
0.000250474
0.000389678
0.000526225
0.000600275
0.000678447
0.000760935
0.000777023
0.000741362
0.000562933
0.000519316
0.000496121
0.000569665
0.000541424
0.000534687
0.000489153
0.000617405
0.000578078
0.00061504
0.000569882
0.00061175
0.000566028
0.000638564
0.000630738
0.000542104
0.000523437
0.000469644
0.000452808
0.000422644
0.000407878
0.000399772
0.000391585
0.000423026
0.00037436
0.000399168
0.000371391
0.000421675
0.000366008
0.000366907
0.000396217
0.000487618
0.000449095
0.000390418
0.000416128
0.000525337
0.000568521
0.000520592
0.000481259
0.000574431
0.000735524
0.000743877
0.000646625
0.000584235
0.000589459
0.000667488
0.000694067
0.000663906
0.000736098
0.000723907
0.000472216
0.00027582
0.000362309
0.000621055
0.000564371
0.000212158
0.000239625
0.000284454
0.000336499
0.000376891
0.000388894
0.000372116
0.000335717
0.000295945
0.00026314
0.000237302
0.000213128
0.000185976
0.000162885
0.000145554
0.000139814
0.000140536
0.000145525
0.000153837
0.00016373
0.000190045
0.00027055
0.000429275
0.000554807
0.000617571
0.000695532
0.000780121
0.00079938
0.000764109
0.000580134
0.000361773
0.00036423
0.000387193
0.00037013
0.000446591
0.000412202
0.000408342
0.000350982
0.000519731
0.000465399
0.000514156
0.000456583
0.000492827
0.000442496
0.000512722
0.000514393
0.000442264
0.000440122
0.000411581
0.000422572
0.000405072
0.000427525
0.000408382
0.000399505
0.000433847
0.000424028
0.000382174
0.000387185
0.000400142
0.000423091
0.000377935
0.000379421
0.000387822
0.000380361
0.000436317
0.000405297
0.000374026
0.000380832
0.000479119
0.00051944
0.000473218
0.000429609
0.000524257
0.000693167
0.000724795
0.000601334
0.000533861
0.000544777
0.00062238
0.000705434
0.000677755
0.000732134
0.000725001
0.000509759
0.000232295
0.000336039
0.000638132
0.00059019
0.000243681
0.000290458
0.000346007
0.000389268
0.000400915
0.000379823
0.000341548
0.000297394
0.000266225
0.00024294
0.000219609
0.00019389
0.000168046
0.000149301
0.000140644
0.000140908
0.000145532
0.000154318
0.000166103
0.000197265
0.00028925
0.000465465
0.00058106
0.000636047
0.000713366
0.000800196
0.000822175
0.00078542
0.00059334
0.000305533
0.000241836
0.000237869
0.000254777
0.000245805
0.00030449
0.000272289
0.000278271
0.00023847
0.00039562
0.000334272
0.000390301
0.000339174
0.000406582
0.000370729
0.000448894
0.000438676
0.000438387
0.000428803
0.000426684
0.000413317
0.000416652
0.00041057
0.000406284
0.000404737
0.000425675
0.000416198
0.000409093
0.000404201
0.000398018
0.000427101
0.000419823
0.000410879
0.000382064
0.000397299
0.000409937
0.000413916
0.000394859
0.00037466
0.000389786
0.000371461
0.000426548
0.000471335
0.000425016
0.000388386
0.000475904
0.000651167
0.000688636
0.00056047
0.000487914
0.000503282
0.000582797
0.0007102
0.000685412
0.000719929
0.000717817
0.000546178
0.00021112
0.000276735
0.000651136
0.000612156
0.000296515
0.000355868
0.000403863
0.000413858
0.000392202
0.000347697
0.000302141
0.000269952
0.000248618
0.000230097
0.000203034
0.000177348
0.000158475
0.000143946
0.00014165
0.000145666
0.00015485
0.000167766
0.000202302
0.000304847
0.000497348
0.000605822
0.000656381
0.000734778
0.000822894
0.000843591
0.000801159
0.000598217
0.000311828
0.000188568
0.000192582
0.000185657
0.000184404
0.000191663
0.000187623
0.000213177
0.000199057
0.000214578
0.00019121
0.000290965
0.000248661
0.000331804
0.0002928
0.000356691
0.000329547
0.000406208
0.000382371
0.000403082
0.000394777
0.000406838
0.000416603
0.00040309
0.00040393
0.000406172
0.000407619
0.000403535
0.000400025
0.000400136
0.000402643
0.000416436
0.000407328
0.000399327
0.000396185
0.000419338
0.000416066
0.000407376
0.000406322
0.000369895
0.000372279
0.000410781
0.000397697
0.000386401
0.000426109
0.000387925
0.000366514
0.000434153
0.000615236
0.000656918
0.000524648
0.000447438
0.000465189
0.00055002
0.000708396
0.00068874
0.000702204
0.00070362
0.000577078
0.000249798
0.000251603
0.000661223
0.000632446
0.000369427
0.000415778
0.000433434
0.000403621
0.000359109
0.000307523
0.000276769
0.000258786
0.000241091
0.000219722
0.000193324
0.000170109
0.000152305
0.00014463
0.000146642
0.000155915
0.000169357
0.00020507
0.000317029
0.000523364
0.000628789
0.000678342
0.000758264
0.000842943
0.000861482
0.00080875
0.000587273
0.000309555
0.000183136
0.000163979
0.000163341
0.00016519
0.000163991
0.000168854
0.000166847
0.000177971
0.000171726
0.000198244
0.000180407
0.000255876
0.000223987
0.000300931
0.00027194
0.000363652
0.000346105
0.00038659
0.000376808
0.000425098
0.000430281
0.000435832
0.000443496
0.000458004
0.000450889
0.000407251
0.000413213
0.000420086
0.000427506
0.000396634
0.000399856
0.000405328
0.000412234
0.000397634
0.000392556
0.000392301
0.000395331
0.000401411
0.000398492
0.000391296
0.00039029
0.000373561
0.000406392
0.000396233
0.000405702
0.000366583
0.000391271
0.000368169
0.000373967
0.000399883
0.000583538
0.000631003
0.00048834
0.000412298
0.000429412
0.000516546
0.000700541
0.000688853
0.00068412
0.000685718
0.000515629
0.0002437
0.00024934
0.000670103
0.000650392
0.000440563
0.000448569
0.00042489
0.000368611
0.000317357
0.000283447
0.000268583
0.000258065
0.000235821
0.000211067
0.000182246
0.000163184
0.0001514
0.000149673
0.000157967
0.000171759
0.000206312
0.000324584
0.000543921
0.00064984
0.000699894
0.000781518
0.000858107
0.00087453
0.000806545
0.000560373
0.000300751
0.00018873
0.000158105
0.000158407
0.000157654
0.000157093
0.000159643
0.000158465
0.000162589
0.000160964
0.000169992
0.000164931
0.000194313
0.000176685
0.000243458
0.000217355
0.000323963
0.000297528
0.000422622
0.000406862
0.000432558
0.000430868
0.000464257
0.00047051
0.000488525
0.00045416
0.000462445
0.000477774
0.000470383
0.000420059
0.000428395
0.000437023
0.000445662
0.000400618
0.000407404
0.000415135
0.000423364
0.000387725
0.000389628
0.000394129
0.000399985
0.000384942
0.000384615
0.000379255
0.000383525
0.000412444
0.000402585
0.000379555
0.000391077
0.000374228
0.000370155
0.000372904
0.000411761
0.000375669
0.000554715
0.000610174
0.000453385
0.000384757
0.000401873
0.000486369
0.000688317
0.000687296
0.000664792
0.000669671
0.000400648
0.000363382
0.000264343
0.000679366
0.000615546
0.00048148
0.000441983
0.000387722
0.000325518
0.000293324
0.000282657
0.000269895
0.000255552
0.000224806
0.000196223
0.000175054
0.000161035
0.000155265
0.00016108
0.000174737
0.000207242
0.000327325
0.000558441
0.000668899
0.00072131
0.00080267
0.000871263
0.000881627
0.000789976
0.000521206
0.000287783
0.000189009
0.000157384
0.00015365
0.000153575
0.000152882
0.000153127
0.00015294
0.000152656
0.000155452
0.000153959
0.000164923
0.000158437
0.000209102
0.00018474
0.000268303
0.000238058
0.0003842
0.00035397
0.000491025
0.000477364
0.000493953
0.000495976
0.000484536
0.000488214
0.000510443
0.000516282
0.000465559
0.000473761
0.000489543
0.00048178
0.000431799
0.000440304
0.000448828
0.000457258
0.00040678
0.000414082
0.000421624
0.00042926
0.000386807
0.000391316
0.000396604
0.000402352
0.00037431
0.000379615
0.000374783
0.000382516
0.000400563
0.000386578
0.000369141
0.000374538
0.000410779
0.000370782
0.000406047
0.000399427
0.00037079
0.000527939
0.000585684
0.000427875
0.000376039
0.000388385
0.000459895
0.000675891
0.000683697
0.00064464
0.000655904
0.000349124
0.000266233
0.000271166
0.00068706
0.000486318
0.000480667
0.000404556
0.000341606
0.000304184
0.000292851
0.000290343
0.000267717
0.000238596
0.000211206
0.000186657
0.000170364
0.000162112
0.000164376
0.000177044
0.000208145
0.000327662
0.000564827
0.00068492
0.000741114
0.000823071
0.000883542
0.000887018
0.000767766
0.000473821
0.000274191
0.000186362
0.000159747
0.000152648
0.000152771
0.000150139
0.000151063
0.000148402
0.000149207
0.000147448
0.000147776
0.000150301
0.000147724
0.000166974
0.000156263
0.000237762
0.000200594
0.000318229
0.000278387
0.000455423
0.000423561
0.000536728
0.000529274
0.000521146
0.000525189
0.000536168
0.000496898
0.000504008
0.000514093
0.000520892
0.000468025
0.00047593
0.000491732
0.000483864
0.000436911
0.000444603
0.00045235
0.000460162
0.000408324
0.000414419
0.000420611
0.000426934
0.000385994
0.000389796
0.000393709
0.00039773
0.000368453
0.000376184
0.000367593
0.000377759
0.000382885
0.0003696
0.000360623
0.0003635
0.000398637
0.000401562
0.000399396
0.000380155
0.000396696
0.00050092
0.000553757
0.000404501
0.000388742
0.000377245
0.000431452
0.000664131
0.00068007
0.000615102
0.000638556
0.000333694
0.000169822
0.000261156