/*--------------------------------*- C++ -*----------------------------------*\
  =========                 |
  \\      /  F ield         | OpenFOAM: The Open Source CFD Toolbox
   \\    /   O peration     | Website:  https://openfoam.org
    \\  /    A nd           | Version:  dev
     \\/     M anipulation  |
\*---------------------------------------------------------------------------*/
FoamFile
{
    version     2.0;
    format      ascii;
    class       volScalarField;
    location    "2500";
    object      CO2;
}
// * * * * * * * * * * * * * * * * * * * * * * * * * * * * * * * * * * * * * //

dimensions      [0 0 0 0 0 0 0];

internalField   nonuniform List<scalar> 
9851
(
1.0029e-29
4.04676e-29
2.03684e-29
1.18472e-28
9.92066e-29
1.01557e-29
3.77708e-28
3.34394e-28
1.11855e-28
5.33456e-30
9.96024e-28
1.0407e-27
3.56277e-28
8.17322e-29
2.95132e-30
3.96948e-27
4.50323e-27
1.38651e-27
2.61474e-28
4.12163e-29
2.47674e-30
1.22225e-26
1.3112e-26
6.89008e-27
1.1648e-27
2.28525e-28
1.60478e-29
2.58789e-30
3.38913e-26
4.24836e-26
2.38279e-26
6.08406e-27
8.23812e-28
1.16575e-28
2.74402e-29
8.65255e-30
8.5369e-26
1.32504e-25
7.98271e-26
2.79417e-26
4.37951e-27
7.90563e-28
9.05097e-29
5.50771e-29
1.57154e-29
1.17485e-25
3.5803e-25
2.71019e-25
1.1302e-25
2.75945e-26
3.20161e-27
5.33695e-28
1.56573e-28
9.87116e-29
2.00114e-29
4.44141e-25
1.23018e-24
9.21204e-25
3.66545e-25
1.12355e-25
2.11928e-26
2.92428e-27
8.14738e-28
4.72655e-28
1.16733e-28
1.16748e-29
7.0692e-25
2.70972e-24
2.44421e-24
1.09455e-24
3.8405e-25
6.89912e-26
1.1785e-26
2.22448e-27
2.08152e-27
9.0522e-28
1.59779e-28
5.93951e-29
2.69334e-24
4.58728e-24
6.08933e-24
3.97928e-24
1.42681e-24
2.96556e-25
5.69955e-26
1.12013e-26
5.52496e-27
4.14442e-27
9.72703e-28
3.94226e-28
1.76806e-28
2.43837e-24
1.34285e-23
1.98225e-23
1.2172e-23
4.22099e-24
1.31106e-24
2.25365e-25
3.34941e-26
1.47601e-26
1.2722e-26
7.63194e-27
3.32586e-27
1.17028e-27
4.3587e-29
8.67768e-24
3.4908e-23
3.2456e-23
3.36226e-23
1.35393e-23
4.54154e-24
8.05013e-25
1.50672e-25
4.22034e-26
2.79311e-26
1.97475e-26
8.79366e-27
7.10141e-27
1.0919e-27
1.43077e-28
1.60247e-23
5.04546e-23
7.97911e-23
1.02689e-22
5.47258e-23
1.22601e-23
4.02681e-24
5.30358e-25
1.26346e-25
8.56515e-26
6.86958e-26
5.54735e-26
2.10848e-26
1.35516e-26
3.87732e-27
3.56119e-28
7.47785e-23
1.26792e-22
2.31429e-22
2.39618e-22
1.63985e-22
5.04403e-23
1.08157e-23
2.12136e-24
3.66532e-25
1.91279e-25
1.80892e-25
1.58665e-25
1.12967e-25
3.58447e-26
2.63375e-26
8.09137e-27
1.42576e-27
1.10559e-22
4.31354e-22
4.35324e-22
7.23819e-22
4.678e-22
1.96976e-22
5.24018e-23
7.9935e-24
1.58606e-24
3.78611e-25
4.33044e-25
4.31083e-25
3.24726e-25
2.60185e-25
7.23887e-26
5.18969e-26
2.0609e-26
1.97503e-27
1.91536e-22
4.44316e-22
1.1349e-21
1.76846e-21
1.25728e-21
5.637e-22
1.86609e-22
4.21762e-23
5.45902e-24
1.3542e-24
8.74762e-25
1.01584e-24
9.57472e-25
8.02311e-25
3.26966e-25
1.3681e-25
8.159e-26
2.25325e-26
2.25786e-27
3.01711e-22
7.70157e-22
2.32456e-21
3.55346e-21
2.7907e-21
1.43993e-21
5.53853e-22
1.40508e-22
2.61025e-23
3.64737e-24
1.6201e-24
2.00835e-24
2.11989e-24
1.71692e-24
1.27436e-24
3.65538e-25
3.62362e-25
1.19105e-25
3.11044e-26
8.84849e-27
3.60508e-22
1.41482e-21
5.02637e-21
5.62373e-21
6.50416e-21
4.18237e-21
1.52609e-21
4.41193e-22
9.64146e-23
1.65642e-23
3.99936e-24
3.77925e-24
4.74554e-24
3.45146e-24
2.9248e-24
1.92918e-24
8.55786e-25
4.86949e-25
1.1916e-25
1.86936e-25
1.6499e-25
2.17236e-22
2.82965e-21
7.08489e-21
1.10428e-20
1.54655e-20
1.00157e-20
4.22047e-21
1.30717e-21
2.49854e-22
5.36337e-23
1.11849e-23
7.17981e-24
8.6074e-24
9.10903e-24
7.30757e-24
6.33416e-24
3.4323e-24
2.15847e-24
7.67595e-25
8.71393e-25
1.61679e-24
1.73269e-24
1.16851e-21
3.86744e-21
9.57946e-21
2.44059e-20
2.69436e-20
2.05952e-20
1.01171e-20
3.5294e-21
9.30322e-22
1.77856e-22
3.39049e-23
1.18789e-23
1.44817e-23
2.29075e-23
1.64051e-23
1.46128e-23
9.35386e-24
9.59432e-24
6.96029e-24
5.20915e-24
1.14555e-23
1.75336e-23
1.02611e-23
1.65868e-21
7.21901e-21
1.75971e-20
3.76377e-20
4.845e-20
4.25891e-20
2.08579e-20
9.03839e-21
2.4098e-21
5.15115e-22
1.12374e-22
2.52541e-23
2.82631e-23
3.38549e-23
3.39495e-23
3.37089e-23
2.49839e-23
2.77584e-23
3.24325e-23
3.15032e-23
8.00206e-23
1.07074e-22
1.84684e-22
1.12728e-22
4.60662e-21
1.18621e-20
2.31399e-20
5.92338e-20
6.56964e-20
7.62836e-20
4.42752e-20
1.96472e-20
6.86903e-21
1.55412e-21
3.20732e-22
7.70637e-23
4.59205e-23
6.11208e-23
6.64839e-23
6.44298e-23
9.43008e-23
5.4258e-23
1.39167e-22
2.84618e-22
4.37688e-22
6.69259e-22
9.72255e-22
2.14433e-21
1.40093e-21
3.67777e-21
2.68818e-20
3.14717e-20
9.34887e-20
1.23175e-19
1.43449e-19
8.92846e-20
4.40759e-20
1.4877e-20
4.27759e-21
9.73354e-22
1.96674e-22
9.01169e-23
1.34312e-22
1.60678e-22
2.3021e-22
2.56759e-22
2.24944e-22
3.84585e-22
1.21103e-21
2.61374e-21
5.46736e-21
7.42161e-21
1.51423e-20
2.0866e-20
6.55071e-21
4.16525e-21
3.6527e-20
7.35251e-20
1.52594e-19
1.96008e-19
2.1891e-19
1.92878e-19
9.09577e-20
3.56085e-20
1.09898e-20
2.79041e-21
4.4324e-22
1.45901e-22
2.23472e-22
3.69329e-22
4.36116e-22
6.31406e-22
7.38254e-22
1.62958e-21
5.70206e-21
1.38892e-20
3.17021e-20
6.12545e-20
7.13078e-20
1.71485e-19
1.78907e-19
9.27206e-20
2.29562e-21
2.74728e-20
1.70948e-19
2.7019e-19
2.63158e-19
3.54253e-19
3.17979e-19
1.87784e-19
6.45941e-20
2.64827e-20
6.58211e-21
1.56683e-21
4.00525e-22
2.89868e-22
5.14919e-22
1.02743e-21
1.47682e-21
1.70516e-21
4.68653e-21
1.69629e-20
6.27789e-20
1.43658e-19
3.6286e-19
7.50115e-19
1.066e-18
1.46531e-18
1.89542e-18
1.10152e-18
8.2546e-21
3.9283e-20
2.58569e-19
5.27113e-19
5.04563e-19
5.16487e-19
5.13751e-19
3.26992e-19
1.64267e-19
4.74563e-20
1.19151e-20
3.15726e-21
9.61639e-22
4.96277e-22
1.09801e-21
1.57436e-21
3.05287e-21
5.71232e-21
1.95112e-20
5.24384e-20
1.87615e-19
7.27214e-19
1.31572e-18
4.25361e-18
7.75783e-18
9.95678e-18
1.32771e-17
1.20541e-17
6.07275e-18
4.25605e-20
1.04331e-19
3.65451e-19
7.61729e-19
1.07593e-18
9.26925e-19
8.6286e-19
5.71885e-19
2.89551e-19
1.15068e-19
3.02676e-20
7.76134e-21
1.96392e-21
1.06411e-21
1.82172e-21
3.41674e-21
5.26718e-21
1.27067e-20
3.57557e-20
2.27032e-19
9.62305e-19
3.15952e-18
7.94426e-18
2.37959e-17
3.59868e-17
7.61947e-17
8.13296e-17
8.28206e-17
6.72197e-17
1.70456e-17
5.7016e-20
4.85466e-19
5.44112e-19
1.49413e-18
1.92573e-18
1.80428e-18
1.46504e-18
9.62322e-19
5.22232e-19
2.20508e-19
7.5156e-20
1.84941e-20
3.54267e-21
1.80051e-21
2.56094e-21
5.57799e-21
9.5098e-21
2.63187e-20
1.31307e-19
4.79388e-19
2.50912e-18
1.16482e-17
4.31563e-17
1.21239e-16
2.32511e-16
4.62575e-16
6.47923e-16
7.07672e-16
5.75148e-16
2.94355e-16
6.32869e-17
1.25157e-19
6.99612e-19
2.22089e-18
1.78707e-18
2.65715e-18
2.85681e-18
2.54114e-18
1.66988e-18
8.96974e-19
3.99257e-19
1.42688e-19
4.43841e-20
1.07851e-20
2.72647e-21
3.60923e-21
8.32179e-21
2.04975e-20
6.42044e-20
2.94779e-19
1.61613e-18
7.81924e-18
2.56519e-17
1.56503e-16
6.11224e-16
1.14078e-15
2.78629e-15
4.95552e-15
6.44762e-15
6.03406e-15
4.18106e-15
1.64415e-15
2.77426e-16
8.11427e-19
2.80512e-18
4.42021e-18
4.29137e-18
5.82606e-18
5.9174e-18
4.58079e-18
2.62751e-18
1.50567e-18
6.87123e-19
2.51398e-19
8.59196e-20
2.23071e-20
6.18178e-21
5.88463e-21
1.73623e-20
3.92844e-20
1.51641e-19
6.71169e-19
2.80922e-18
2.02607e-17
1.06602e-16
4.41501e-16
2.31747e-15
6.67664e-15
1.93646e-14
4.14168e-14
6.41888e-14
7.16642e-14
5.58813e-14
3.04632e-14
7.54041e-15
5.37736e-16
6.56477e-19
8.30092e-18
1.28055e-17
1.52113e-17
8.69141e-18
9.94961e-18
7.91222e-18
5.26246e-18
2.70919e-18
1.2141e-18
5.02228e-19
1.60479e-19
4.41662e-20
1.50646e-20
1.12642e-20
2.85366e-20
8.24729e-20
3.26567e-19
1.28836e-18
8.89608e-18
4.57672e-17
2.76902e-16
1.38596e-15
7.8617e-15
3.61106e-14
1.2254e-13
3.06496e-13
5.8018e-13
7.96067e-13
7.67851e-13
4.98164e-13
1.61555e-13
2.39612e-14
4.93545e-16
9.2786e-15
2.31277e-18
1.28105e-17
2.63281e-17
3.24839e-17
2.06697e-17
2.03861e-17
1.47792e-17
8.62634e-18
4.73076e-18
2.23326e-18
8.34366e-19
2.99844e-19
7.82336e-20
2.56862e-20
2.13407e-20
3.84613e-20
1.67995e-19
5.80346e-19
3.12621e-18
1.67984e-17
1.27406e-16
7.66477e-16
4.61989e-15
2.90821e-14
1.61193e-13
6.65757e-13
1.98681e-12
4.41738e-12
7.54215e-12
9.3656e-12
8.02455e-12
4.37633e-12
4.23337e-13
8.62987e-14
7.92088e-13
2.57635e-15
4.78649e-14
1.10783e-17
2.01356e-17
4.06144e-17
6.24712e-17
5.34509e-17
4.07869e-17
2.71073e-17
1.50402e-17
7.51489e-18
3.61227e-18
1.44377e-18
5.13057e-19
1.36186e-19
3.98992e-20
3.55295e-20
8.30037e-20
2.7234e-19
1.3796e-18
7.91927e-18
4.47616e-17
2.639e-16
1.8377e-15
1.32375e-14
1.00914e-13
6.29197e-13
3.00064e-12
1.07936e-11
2.85998e-11
5.81519e-11
9.19393e-11
1.04952e-10
7.94605e-11
1.21243e-11
5.59774e-11
5.832e-12
4.55049e-11
4.42248e-11
4.94755e-13
4.38923e-12
1.2928e-14
2.55544e-13
1.19526e-17
5.69412e-17
5.31365e-17
9.4028e-17
9.78872e-17
8.34153e-17
4.76226e-17
2.78704e-17
1.31094e-17
5.05178e-18
2.46828e-18
8.9373e-19
3.15748e-19
8.43467e-20
6.18328e-20
1.37149e-19
4.43004e-19
2.36913e-18
1.71352e-17
1.18637e-16
6.22968e-16
4.84848e-15
3.75921e-14
3.1163e-13
2.17234e-12
1.16468e-11
4.82924e-11
1.53845e-10
3.71603e-10
7.06361e-10
1.04767e-09
1.08921e-09
2.55124e-10
9.99139e-10
2.41303e-10
3.5338e-11
2.70586e-10
2.5459e-10
2.7462e-12
2.50672e-11
6.77817e-14
1.3783e-12
2.6357e-17
1.13579e-16
1.13102e-16
1.81745e-16
1.8589e-16
1.352e-16
9.67821e-17
4.41786e-17
2.043e-17
1.02349e-17
3.7462e-18
1.48052e-18
4.92901e-19
1.71831e-19
1.06482e-19
2.56399e-19
9.58733e-19
4.49334e-18
2.91376e-17
2.30341e-16
1.86338e-15
1.3219e-14
1.09403e-13
9.0523e-13
6.75586e-12
3.97795e-11
1.84497e-10
6.76306e-10
1.96398e-09
4.39998e-09
7.90463e-09
1.10114e-08
3.73684e-09
1.36657e-08
1.19664e-09
5.50557e-09
1.51645e-09
2.05191e-10
1.61715e-09
1.48811e-09
1.52516e-11
1.42347e-10
3.63554e-13
7.52033e-12
7.69957e-17
1.77966e-16
2.40488e-16
3.29987e-16
2.75462e-16
2.49826e-16
1.50236e-16
9.22217e-17
4.0205e-17
1.66747e-17
5.80242e-18
2.17202e-18
7.56138e-19
3.03029e-19
2.15077e-19
5.08843e-19
1.74163e-18
7.4393e-18
6.69713e-17
4.60945e-16
3.55749e-15
3.1594e-14
2.91502e-13
2.63228e-12
1.97537e-11
1.22176e-10
6.16838e-10
2.52126e-09
8.41067e-09
2.26854e-08
4.75542e-08
8.14315e-08
4.35989e-08
1.31822e-07
2.1841e-08
7.67892e-08
7.42885e-09
3.24624e-08
8.98597e-09
1.18032e-09
9.44636e-09
8.59413e-09
8.46382e-11
8.00235e-10
1.95365e-12
4.08368e-11
2.86955e-16
3.94475e-16
5.15633e-16
5.98045e-16
5.33474e-16
3.488e-16
2.69455e-16
1.44474e-16
6.31577e-17
2.94887e-17
1.13916e-17
3.63434e-18
1.38171e-18
5.17061e-19
3.50818e-19
9.97189e-19
3.73485e-18
1.58705e-17
1.0288e-16
9.56666e-16
8.31092e-15
7.549e-14
7.19787e-13
6.87178e-12
5.62671e-11
3.55849e-10
1.85329e-09
8.16354e-09
3.0301e-08
9.37718e-08
2.37339e-07
4.69229e-07
3.52964e-07
8.94643e-07
2.42903e-07
6.93523e-07
1.24907e-07
4.23616e-07
4.34234e-08
1.85222e-07
5.2101e-08
6.68407e-09
5.4347e-08
4.88345e-08
4.62964e-10
4.40082e-09
1.04493e-11
2.18234e-10
7.48377e-16
1.68582e-15
1.01588e-15
9.16957e-16
9.32094e-16
6.44652e-16
3.95538e-16
2.49912e-16
1.13316e-16
4.53713e-17
1.84477e-17
6.96565e-18
2.19258e-18
9.55838e-19
8.6992e-19
1.59941e-18
6.68848e-18
3.01134e-17
2.26993e-16
1.73222e-15
1.75475e-14
1.75047e-13
1.71365e-12
1.66268e-11
1.44972e-10
9.74979e-10
5.29028e-09
2.37358e-08
9.37659e-08
3.22811e-07
9.36318e-07
2.24623e-06
2.06626e-06
4.66189e-06
1.78563e-06
4.24273e-06
1.26956e-06
3.39196e-06
6.86567e-07
2.1695e-06
2.47609e-07
1.00693e-06
2.94841e-07
3.70187e-08
3.05852e-07
2.71382e-07
2.47385e-09
2.3536e-08
5.46639e-11
1.13024e-09
4.07619e-15
7.78111e-15
3.08994e-15
1.54365e-15
1.44235e-15
1.0116e-15
6.62301e-16
3.67525e-16
1.77663e-16
7.04396e-17
2.57579e-17
1.10538e-17
3.79916e-18
1.67644e-18
1.72451e-18
3.99462e-18
1.12597e-17
4.7414e-17
4.08978e-16
3.62952e-15
3.88593e-14
4.04601e-13
3.98248e-12
3.90371e-11
3.48328e-10
2.44015e-09
1.38006e-08
6.56331e-08
2.61083e-07
9.37268e-07
3.03447e-06
8.26205e-06
9.57836e-06
2.01375e-05
9.51896e-06
2.0203e-05
8.24335e-06
1.86109e-05
6.03657e-06
1.51115e-05
3.41774e-06
9.92659e-06
1.33449e-06
4.86475e-06
1.57108e-06
1.99888e-07
1.61825e-06
1.42613e-06
1.2769e-08
1.2187e-07
2.76071e-10
5.62778e-09
1.95217e-14
4.23708e-14
1.34531e-14
3.67742e-15
2.32849e-15
1.48136e-15
9.25901e-16
5.897e-16
2.82397e-16
1.22931e-16
4.81975e-17
1.5486e-17
6.39812e-18
2.82693e-18
3.49535e-18
8.23697e-18
2.02637e-17
9.95624e-17
5.97987e-16
6.46992e-15
8.85106e-14
9.23729e-13
9.17717e-12
9.0013e-11
8.10009e-10
5.7485e-09
3.3217e-08
1.64348e-07
6.8821e-07
2.47058e-06
7.99755e-06
2.41292e-05
3.36603e-05
5.90379e-05
3.85242e-05
6.60671e-05
3.88249e-05
7.05905e-05
3.42261e-05
6.85948e-05
2.56648e-05
5.8132e-05
1.49699e-05
3.98515e-05
6.30026e-06
2.05453e-05
7.26442e-06
1.02814e-06
7.3588e-06
6.4014e-06
6.34571e-08
6.04049e-07
1.32389e-09
2.66084e-08
9.56927e-14
2.15962e-13
5.94634e-14
1.22445e-14
4.41963e-15
2.35635e-15
1.48534e-15
8.21427e-16
4.22981e-16
1.7979e-16
7.52568e-17
2.92508e-17
8.73848e-18
5.93817e-18
6.15488e-18
1.65555e-17
5.39639e-17
1.78063e-16
9.94525e-16
9.74776e-15
1.501e-13
2.08862e-12
2.10269e-11
2.04244e-10
1.83368e-09
1.30754e-08
7.59201e-08
3.79395e-07
1.64429e-06
6.10214e-06
1.93566e-05
5.25091e-05
8.54724e-05
0.000123667
0.000101123
0.00014175
0.00011158
0.00015877
0.000115592
0.000170271
0.00010963
0.00017169
8.99844e-05
0.000158732
5.65144e-05
0.000126492
2.57155e-05
7.32185e-05
2.874e-05
4.56883e-06
2.84237e-05
2.44284e-05
3.00316e-07
2.69641e-06
5.98941e-09
1.19701e-07
4.08622e-13
9.31304e-13
2.60696e-13
4.65628e-14
9.25284e-15
4.17234e-15
2.11859e-15
1.16566e-15
6.25953e-16
2.47745e-16
1.11041e-16
4.43804e-17
1.94309e-17
9.30837e-18
1.76995e-17
3.98543e-17
1.21763e-16
3.26985e-16
1.44133e-15
1.43149e-14
2.22299e-13
3.58282e-12
4.5182e-11
4.58053e-10
4.05363e-09
2.86598e-08
1.67574e-07
8.25115e-07
3.62799e-06
1.35388e-05
4.23857e-05
0.000108647
0.000162558
0.000190367
0.00018445
0.00023193
0.000208325
0.000258101
0.000227198
0.000283973
0.000237602
0.000302992
0.000234442
0.00030976
0.000211371
0.000298739
0.000162655
0.000262279
8.66841e-05
0.000193006
9.28835e-05
1.75697e-05
9.00539e-05
7.75803e-05
1.3298e-06
1.03885e-05
2.59436e-08
5.17149e-07
1.48302e-12
3.41408e-12
1.08493e-12
1.89263e-13
2.63041e-14
7.94649e-15
3.58937e-15
1.76164e-15
8.72081e-16
4.23625e-16
1.59918e-16
7.08492e-17
3.663e-17
3.1824e-17
3.52196e-17
1.0441e-16
2.25977e-16
6.67037e-16
2.79435e-15
2.15136e-14
3.19982e-13
5.38496e-12
8.24117e-11
9.99998e-10
8.76764e-09
6.08009e-08
3.50614e-07
1.74945e-06
7.35261e-06
2.69273e-05
7.75444e-05
0.000174528
0.00032441
0.000270806
0.000337306
0.000306923
0.000355426
0.000338547
0.000390229
0.000365018
0.00042326
0.00038162
0.000448395
0.000382555
0.000459884
0.000360415
0.00045186
0.000306959
0.000415704
0.000213794
0.000341198
0.000221492
5.62567e-05
0.00021268
0.000185032
5.12848e-06
3.40562e-05
1.12325e-07
2.04522e-06
4.67624e-12
1.07252e-11
4.15539e-12
7.59369e-13
9.03044e-14
1.7326e-14
6.87271e-15
3.03594e-15
1.37651e-15
5.96384e-16
2.30124e-16
1.16292e-16
6.11075e-17
7.96667e-17
1.20948e-16
2.32495e-16
5.65051e-16
1.72411e-15
5.55909e-15
3.56665e-14
4.36375e-13
7.84484e-12
1.28857e-10
1.8011e-09
1.80109e-08
1.22982e-07
6.97792e-07
3.354e-06
1.38599e-05
4.60626e-05
0.000119548
0.000242249
0.000403321
0.000482526
0.00052377
0.000400949
0.000445522
0.000439004
0.000485622
0.000476929
0.000525967
0.000508881
0.00056347
0.000529795
0.00059185
0.000533957
0.00060586
0.000514174
0.000600216
0.00046135
0.000566953
0.000362443
0.000493942
0.000368752
0.000139756
0.000357199
0.000324027
1.77542e-05
9.45029e-05
5.46218e-07
7.90786e-06
1.39348e-11
2.93908e-11
1.38106e-11
2.92623e-12
3.42055e-13
4.50519e-14
1.30918e-14
5.31862e-15
2.27541e-15
8.29844e-16
4.19033e-16
2.14417e-16
1.81686e-16
1.95327e-16
2.70185e-16
6.29623e-16
1.32252e-15
3.7995e-15
1.36152e-14
6.82117e-14
6.15606e-13
1.02728e-11
1.84347e-10
2.86521e-09
3.12635e-08
2.30333e-07
1.25983e-06
5.91823e-06
2.30892e-05
7.07635e-05
0.000165475
0.00030373
0.000470392
0.00055553
0.000588529
0.000602408
0.000634168
0.000528492
0.000567584
0.000570801
0.000612222
0.000611979
0.000654876
0.000645803
0.000692368
0.000667158
0.000719277
0.000672208
0.000731569
0.000654998
0.000726293
0.000607244
0.000698153
0.000512526
0.000633317
0.000515786
0.000269412
0.000500499
0.000463959
5.49808e-05
0.000203124
2.09078e-06
2.45451e-05
4.06412e-11
7.4889e-11
4.07552e-11
1.02296e-11
1.34231e-12
1.42798e-13
2.93804e-14
1.05143e-14
3.8e-15
1.32114e-15
6.24676e-16
3.88903e-16
4.45303e-16
5.32453e-16
1.01129e-15
2.00271e-15
4.17264e-15
1.16904e-14
3.84139e-14
1.54748e-13
9.7377e-13
1.30493e-11
2.50464e-10
4.25348e-09
4.89184e-08
3.7918e-07
2.14271e-06
9.52717e-06
3.50406e-05
9.87648e-05
0.000212312
0.00036658
0.000527984
0.000612663
0.000630518
0.000661096
0.000683281
0.000708439
0.0007319
0.000649067
0.000681207
0.000692793
0.000726276
0.000732283
0.000766524
0.00076213
0.000796491
0.000777229
0.00081047
0.000777711
0.000811442
0.000763808
0.000803849
0.00072639
0.000785914
0.000646157
0.000741871
0.000644757
0.000408644
0.000627207
0.000592435
0.000130922
0.000333017
6.36566e-06
6.13832e-05
1.01296e-10
1.84599e-10
1.06e-10
3.17044e-11
4.93186e-12
5.17797e-13
7.28636e-14
2.07792e-14
6.48616e-15
2.10926e-15
1.01778e-15
9.79708e-16
1.23104e-15
2.30425e-15
4.02352e-15
8.67702e-15
1.66819e-14
4.34598e-14
1.2667e-13
4.20131e-13
1.86039e-12
1.70867e-11
3.18728e-10
5.9345e-09
7.25402e-08
5.81645e-07
3.33741e-06
1.46184e-05
4.93983e-05
0.000128098
0.000255743
0.000421062
0.000572031
0.000674776
0.000698158
0.000713767
0.000748635
0.00075895
0.000795216
0.000805663
0.000755001
0.000778388
0.000795066
0.000818071
0.000823249
0.0008432
0.000834434
0.000851838
0.000833606
0.00084856
0.000826814
0.000839569
0.000816441
0.000830347
0.000796855
0.000820136
0.000746911
0.000800947
0.000741602
0.000538238
0.00072532
0.000696476
0.000233562
0.000457058
1.53676e-05
0.000120296
4.46907e-10
2.5833e-10
8.65431e-11
1.62386e-11
1.91292e-12
2.12704e-13
4.53394e-14
1.30961e-14
3.91056e-15
2.10475e-15
2.46647e-15
4.63837e-15
8.41296e-15
1.71934e-14
3.74249e-14
7.30095e-14
1.77873e-13
4.64435e-13
1.31607e-12
4.36978e-12
2.57145e-11
3.84572e-10
7.7988e-09
1.00087e-07
8.41189e-07
4.9059e-06
2.0947e-05
6.65477e-05
0.000157884
0.000296748
0.000461468
0.000578629
0.000658245
0.000730239
0.000701296
0.000756857
0.000748551
0.000804791
0.000797263
0.000842976
0.000837654
0.000834042
0.000842422
0.000856968
0.000865019
0.000864229
0.000871839
0.000858948
0.000866614
0.000848122
0.00085251
0.000836202
0.000835022
0.000827351
0.000821883
0.000819959
0.000817526
0.000800125
0.000816418
0.000794097
0.000647739
0.000782736
0.000763829
0.00034148
0.000565864
4.39313e-05
0.000199239
6.22892e-10
2.2874e-10
4.91904e-11
5.87806e-12
6.13665e-13
1.08814e-13
2.67536e-14
7.81746e-15
5.2403e-15
8.3369e-15
1.69331e-14
3.54935e-14
7.63211e-14
1.68603e-13
3.45402e-13
7.61641e-13
1.8251e-12
4.56171e-12
1.22623e-11
4.60641e-11
4.77876e-10
9.37527e-09
1.30174e-07
1.14021e-06
6.81906e-06
2.86494e-05
8.53762e-05
0.000188477
0.000333235
0.000486598
0.000572648
0.000621688
0.000671651
0.00063621
0.000722723
0.00067985
0.000780472
0.000755869
0.000825334
0.000804048
0.000855808
0.000839601
0.000866938
0.000864032
0.000875964
0.000874898
0.00087061
0.000869629
0.000852668
0.000848471
0.000828276
0.000817134
0.000807144
0.000786541
0.00079812
0.000768321
0.000804079
0.000769245
0.000811132
0.00079185
0.000805553
0.000725323
0.000799971
0.000792
0.000774641
0.000446862
0.000655387
7.92291e-05
0.000280762
7.01455e-10
1.60081e-10
1.6368e-11
1.57622e-12
2.44288e-13
5.93921e-14
1.67918e-14
1.51949e-14
3.03085e-14
6.76155e-14
1.50108e-13
3.35615e-13
7.56481e-13
1.60202e-12
3.31744e-12
7.46353e-12
1.68553e-11
3.89226e-11
1.03066e-10
6.31554e-10
1.0499e-08
1.57984e-07
1.46356e-06
8.95886e-06
3.73576e-05
0.000106154
0.000218439
0.000366595
0.000502162
0.000561762
0.000583413
0.000547018
0.000631332
0.000570591
0.000677871
0.000616447
0.000773263
0.000730873
0.000812997
0.000775356
0.000831771
0.000798806
0.000868956
0.000855378
0.000863219
0.000849707
0.000839371
0.000824004
0.000801783
0.000781168
0.00076089
0.000730073
0.000730473
0.000687867
0.000721257
0.000668163
0.000741291
0.000672834
0.000781499
0.000718544
0.00075488
0.0007953
0.000775026
0.000785191
0.000737483
0.000773972
0.000794523
0.000778841
0.000775899
0.000792835
0.000541134
0.000757116
0.000729892
0.00066642
8.44598e-05
0.000358758
5.67297e-10
6.7191e-11
5.98714e-12
5.53331e-13
1.39932e-13
4.0909e-14
4.73545e-14
1.09231e-13
2.6047e-13
6.1192e-13
1.44268e-12
3.36059e-12
7.3016e-12
1.46654e-11
3.13615e-11
6.51845e-11
1.33713e-10
2.80637e-10
9.48582e-10
1.30025e-08
1.72556e-07
1.7813e-06
1.1272e-05
4.66354e-05
0.000127577
0.000248869
0.000396047
0.00051397
0.000556981
0.000554894
0.000478138
0.000429083
0.000383019
0.000550754
0.000485028
0.000594491
0.000517007
0.000726164
0.000665414
0.000755997
0.000702501
0.00075682
0.000708897
0.000827686
0.000796752
0.000801304
0.000770312
0.000753831
0.000719682
0.000694554
0.000652555
0.000640308
0.000587778
0.000609231
0.00055298
0.000600915
0.00059124
0.000556184
0.000681381
0.000640558
0.000565104
0.000601721
0.000708702
0.000745917
0.000705111
0.000667561
0.000745397
0.000788937
0.000782385
0.000783474
0.000755545
0.000748967
0.000786457
0.000693107
0.000546243
0.000640152
0.0007703
0.000750114
0.000176269
0.000577067
0.000492608
0.000373382
3.47374e-10
2.81478e-11
2.17627e-12
2.77005e-13
1.06092e-13
1.44874e-13
3.79441e-13
9.66041e-13
2.39342e-12
5.97228e-12
1.45916e-11
3.24665e-11
6.49775e-11
1.34393e-10
2.60852e-10
4.84478e-10
8.66699e-10
1.81558e-09
1.36556e-08
1.98293e-07
1.99535e-06
1.34959e-05
5.62364e-05
0.000148451
0.000278132
0.000423727
0.00052373
0.000554829
0.000536034
0.000436996
0.000276711
0.000309374
0.000254539
0.000439016
0.000367603
0.000477073
0.000389462
0.000637632
0.00056172
0.000652665
0.000587031
0.00062921
0.000570559
0.000730909
0.000683293
0.000678267
0.000628317
0.000603986
0.000553727
0.000539953
0.000503407
0.000505751
0.0004782
0.000530694
0.000509164
0.000494341
0.000486507
0.000533638
0.000509662
0.000523918
0.000506742
0.000625582
0.000583313
0.000518152
0.000547464
0.000658818
0.000704767
0.00065608
0.000613944
0.000707248
0.000786553
0.00078346
0.000763689
0.000713892
0.000723641
0.000771521
0.000717804
0.000671135
0.000776085
0.000761873
0.000419003
0.000237664
0.000333395
0.000611419
0.000540474
1.76193e-10
1.13228e-11
8.05748e-13
3.14434e-13
4.42689e-13
1.25921e-12
3.4275e-12
8.95911e-12
2.36099e-11
6.13952e-11
1.39457e-10
2.85594e-10
5.78069e-10
1.06924e-09
1.82121e-09
2.8784e-09
4.46614e-09
1.49178e-08
1.89098e-07
2.03952e-06
1.50861e-05
6.51167e-05
0.00016896
0.000304589
0.000448775
0.00053181
0.000553821
0.000524656
0.000416355
0.000254964
0.00013473
0.000127409
0.000187342
0.000153048
0.000307092
0.000238146
0.000336572
0.000248875
0.000511469
0.000426796
0.000506254
0.000435303
0.00045453
0.000393435
0.000572766
0.00051413
0.000503444
0.000454941
0.000478017
0.000454355
0.000469521
0.00047273
0.000485244
0.000489303
0.000498738
0.000515588
0.000492025
0.000487444
0.000490032
0.000501293
0.000502296
0.000499779
0.000494656
0.000493142
0.000571163
0.000535182
0.000506387
0.000512153
0.000607484
0.000657604
0.00060637
0.000563698
0.000662976
0.000777408
0.000779261
0.000735675
0.000672558
0.000685435
0.000748573
0.000736985
0.000697698
0.000775859
0.000767066
0.000470288
0.0002968
0.000400505
0.000644778
0.000582496
7.86561e-11
4.29226e-12
6.57415e-13
1.33361e-12
3.97803e-12
1.15604e-11
3.20393e-11
8.89313e-11
2.4701e-10
5.74003e-10
1.22846e-09
2.46717e-09
4.41281e-09
7.02596e-09
9.95732e-09
1.27567e-08
2.27372e-08
1.69781e-07
2.00041e-06
1.56964e-05
7.17326e-05
0.000186985
0.00033105
0.000467541
0.000537885
0.000552446
0.000516057
0.00040633
0.000247997
8.59503e-05
5.70589e-05
5.04466e-05
8.32773e-05
6.5389e-05
0.000172653
0.000117206
0.000191227
0.000119518
0.000357741
0.000274555
0.000329927
0.000264257
0.000316644
0.000267912
0.00040897
0.000363359
0.000429017
0.000401213
0.000484595
0.000493138
0.000534107
0.000558127
0.000582716
0.00061561
0.000521511
0.000547499
0.000578664
0.000614153
0.000498271
0.000515775
0.000542554
0.000577728
0.000510672
0.000505662
0.000530452
0.000526321
0.000529174
0.000515058
0.000529184
0.000514999
0.000560823
0.000609749
0.000562747
0.000530278
0.00061772
0.000760347
0.000768961
0.000701548
0.000629775
0.000645529
0.000719409
0.000749455
0.000719342
0.000771585
0.000766929
0.0005175
0.000345187
0.000453416
0.000674274
0.00061805
3.05535e-11
2.08331e-12
4.50744e-12
1.19451e-11
3.70835e-11
1.0909e-10
3.19166e-10
9.33435e-10
2.25944e-09
5.14269e-09
1.03678e-08
1.80728e-08
2.73277e-08
3.51258e-08
3.92344e-08
4.97228e-08
1.70372e-07
1.82039e-06
1.56387e-05
7.49783e-05
0.00020077
0.000352432
0.000481956
0.000538901
0.000548593
0.000506203
0.000396237
0.000242112
8.5295e-05
2.04898e-05
2.0461e-05
2.18593e-05
1.97853e-05
3.21079e-05
2.52124e-05
7.20004e-05
4.58574e-05
8.72895e-05
5.21062e-05
0.00019848
0.000137451
0.000218385
0.000169251
0.000296848
0.000253694
0.000370721
0.000335717
0.00049765
0.000494369
0.000710716
0.000769559
0.000651053
0.000687336
0.000718774
0.000733855
0.000620579
0.000669246
0.000721877
0.000775784
0.000557807
0.000600245
0.000652483
0.000711576
0.000560176
0.000563207
0.000607922
0.00061049
0.000522194
0.000527076
0.000594221
0.000551396
0.0005361
0.000568999
0.000544621
0.000530804
0.00057917
0.000737106
0.00075216
0.000665034
0.000592804
0.000609928
0.000686906
0.000756035
0.000734601
0.000762117
0.000763851
0.000557114
0.000358566
0.000477867
0.000698134
0.000645976
1.13969e-11
8.72342e-12
3.35192e-11
1.12671e-10
3.52343e-10
1.09001e-09
3.33757e-09
8.60193e-09
2.06327e-08
4.22619e-08
7.32693e-08
1.07318e-07
1.22753e-07
1.24202e-07
1.30802e-07
2.17411e-07
1.589e-06
1.49701e-05
7.54338e-05
0.000208594
0.000367269
0.000488412
0.000536632
0.0005431
0.000490987
0.000379447
0.000230104
8.15488e-05
1.48759e-05
7.28813e-06
6.38185e-06
9.00126e-06
7.93896e-06
1.37516e-05
1.06483e-05
3.10635e-05
1.9749e-05
5.37271e-05
3.26402e-05
0.000123773
8.46981e-05
0.000208561
0.000162738
0.000423905
0.000376262
0.000483936
0.000459064
0.000797418
0.000804428
0.00100436
0.00103531
0.00107693
0.00105771
0.000828531
0.000878334
0.000924634
0.000966099
0.000775577
0.000841386
0.000906649
0.000968953
0.000670276
0.000738987
0.0008127
0.000888265
0.000658737
0.00067233
0.000738955
0.000748488
0.000542065
0.000574658
0.000711091
0.000631999
0.00054121
0.000554872
0.000552442
0.000556639
0.00056607
0.0007097
0.000730849
0.000630673
0.000579022
0.000592718
0.000654798
0.000757739
0.000743584
0.000747364
0.000757126
0.000582555
0.00032156
0.000462809
0.000715345
0.000666558
1.69679e-11
9.53436e-11
3.13677e-10
1.07647e-09
3.48707e-09
1.12446e-08
3.09598e-08
7.77365e-08
1.67639e-07
2.86382e-07
3.77184e-07
3.91766e-07
3.84472e-07
3.64478e-07
4.08909e-07
1.51575e-06
1.33386e-05
7.40202e-05
0.000210423
0.000376463
0.000487413
0.000531928
0.000530903
0.000465563
0.000349739
0.000202296
7.09517e-05
1.52162e-05
2.80339e-06
2.56066e-06
3.27478e-06
2.73819e-06
4.77781e-06
3.90003e-06
8.42462e-06
5.94791e-06
1.99587e-05
1.26669e-05
5.32247e-05
3.24129e-05
0.000120053
8.30453e-05
0.00032162
0.000261004
0.000721745
0.000654577
0.000801685
0.000769109
0.00108995
0.00110563
0.0011781
0.00119431
0.00121872
0.00124406
0.00123589
0.00102651
0.00107818
0.00112412
0.00116294
0.000963351
0.0010354
0.00110258
0.00116347
0.000830956
0.000916094
0.00100037
0.00108108
0.000804959
0.000828542
0.000906838
0.00092288
0.000598971
0.000669373
0.000867348
0.000761682
0.000570418
0.000563057
0.000583517
0.000621157
0.000574105
0.00068104
0.000706773
0.000608921
0.00058449
0.000595724
0.000628505
0.000756618
0.000748085
0.000729563
0.000746485
0.000589512
0.000250144
0.000402841
0.000726149
0.000680537
1.4945e-10
7.74144e-10
2.96195e-09
1.05826e-08
3.45668e-08
1.04246e-07
2.70794e-07
5.84504e-07
9.59716e-07
1.21802e-06
1.28288e-06
1.22664e-06
1.0746e-06
9.85485e-07
1.66733e-06
1.18426e-05
7.13195e-05
0.000209581
0.000377516
0.000483374
0.000521903
0.00050788
0.000430866
0.000310348
0.000165022
5.5923e-05
1.32079e-05
1.75622e-06
1.21714e-06
9.11952e-07
1.90688e-06
1.48699e-06
3.28002e-06
2.47328e-06
7.64743e-06
4.86022e-06
1.97535e-05
1.22168e-05
9.18484e-05
5.37628e-05
0.000199643
0.000141499
0.000574532
0.00048164
0.00103534
0.000949399
0.0011547
0.00110121
0.00124616
0.00124095
0.00137396
0.00135764
0.00135822
0.00137601
0.0013908
0.00138683
0.00121712
0.00126319
0.00130243
0.00133402
0.00115662
0.0012254
0.00128664
0.00133983
0.00101672
0.00110668
0.00119071
0.00126722
0.000979648
0.00101036
0.00109091
0.00111073
0.000703572
0.000807135
0.00104499
0.000923869
0.000639157
0.000592464
0.000653018
0.000731927
0.000599992
0.000653721
0.000682698
0.0006061
0.000603546
0.000608011
0.000618651
0.000753652
0.000749384
0.000710555
0.000734218
0.000571285
0.000166245
0.000322481
0.000732569
0.000682735
1.53599e-09
7.17649e-09
2.85782e-08
1.0389e-07
3.09145e-07
8.40247e-07
1.80234e-06
3.02416e-06
3.97778e-06
4.28583e-06
3.9487e-06
3.26147e-06
2.57819e-06
2.49114e-06
1.11277e-05
6.6039e-05
0.000207225
0.000375348
0.000474543
0.000505139
0.000479559
0.00039148
0.000265476
0.000125362
4.15685e-05
9.52422e-06
1.64391e-06
5.23129e-07
3.97415e-07
7.38546e-07
5.65289e-07
1.34468e-06
9.74576e-07
2.95662e-06
1.89832e-06
9.19499e-06
5.15293e-06
2.86971e-05
1.55106e-05
0.000192759
0.000116502
0.00038355
0.000284636
0.000849332
0.000734859
0.00124131
0.00114723
0.00133925
0.00132299
0.00132103
0.00139039
0.00138537
0.00146988
0.00144922
0.00149109
0.00150106
0.0015042
0.00150472
0.00138476
0.00142179
0.00145193
0.00147484
0.00133568
0.00139542
0.0014465
0.00148918
0.00120445
0.00128977
0.00136604
0.00143261
0.00116242
0.00119584
0.00127095
0.00129185
0.000845595
0.000972134
0.00122454
0.00110171
0.000752179
0.000659211
0.000764205
0.000874688
0.000658129
0.000635779
0.000661334
0.000613815
0.000649992
0.000639726
0.00062139
0.000748865
0.000749477
0.000692467
0.000721512
0.000522559
8.67429e-05
0.000231785
0.000736119
0.00067233
1.40544e-08
6.36303e-08
2.5996e-07
9.13838e-07
2.31253e-06