/*--------------------------------*- C++ -*----------------------------------*\
  =========                 |
  \\      /  F ield         | OpenFOAM: The Open Source CFD Toolbox
   \\    /   O peration     | Website:  https://openfoam.org
    \\  /    A nd           | Version:  dev
     \\/     M anipulation  |
\*---------------------------------------------------------------------------*/
FoamFile
{
    version     2.0;
    format      ascii;
    class       volScalarField;
    location    "2500";
    object      G;
}
// * * * * * * * * * * * * * * * * * * * * * * * * * * * * * * * * * * * * * //

dimensions      [1 0 -3 0 0 0 0];

internalField   nonuniform List<scalar> 
9851
(
4302.05
4308.66
4310.16
4314.5
4316.8
4319.14
4319.57
4322.67
4325.79
4328.94
4323.86
4327.75
4331.67
4335.61
4339.57
4327.38
4332.05
4336.75
4341.48
4346.25
4351.04
4330.16
4335.58
4341.04
4346.55
4352.12
4357.73
4363.39
4332.21
4338.35
4344.54
4350.82
4357.17
4363.6
4370.08
4376.62
4333.55
4340.38
4347.29
4354.29
4361.41
4368.63
4375.94
4383.33
4390.78
4334.21
4341.71
4349.3
4357
4364.83
4372.81
4380.93
4389.17
4397.49
4405.89
4334.2
4342.34
4350.58
4358.95
4367.48
4376.18
4385.06
4394.11
4403.3
4412.6
4422
4333.56
4342.31
4351.17
4360.18
4369.36
4378.74
4388.35
4398.17
4408.19
4418.39
4428.71
4439.14
4332.3
4341.64
4351.09
4360.69
4370.5
4380.53
4390.81
4401.36
4412.16
4423.21
4434.45
4445.85
4457.37
4330.47
4340.35
4350.36
4360.53
4370.92
4381.56
4392.48
4403.7
4415.23
4427.07
4439.19
4451.54
4464.07
4476.74
4328.09
4338.49
4349.01
4359.72
4370.65
4381.86
4393.38
4405.23
4417.44
4430.01
4442.93
4456.18
4469.71
4483.44
4497.33
4325.19
4336.07
4347.08
4358.28
4369.72
4381.46
4393.53
4405.96
4418.79
4432.04
4445.7
4459.78
4474.23
4489
4504.01
4519.2
4321.8
4333.12
4344.59
4356.25
4368.17
4380.39
4392.96
4405.93
4419.33
4433.19
4447.54
4462.36
4477.66
4493.39
4509.49
4525.86
4542.44
4317.95
4329.69
4341.58
4353.66
4366.01
4378.68
4391.71
4405.16
4419.08
4433.51
4448.46
4463.97
4480.02
4496.62
4513.72
4531.24
4549.07
4567.15
4313.67
4325.8
4338.07
4350.55
4363.29
4376.36
4389.81
4403.7
4418.09
4433.01
4448.51
4464.63
4481.37
4498.74
4516.72
4535.28
4554.33
4573.74
4593.44
4308.98
4321.47
4334.11
4346.94
4360.04
4373.48
4387.3
4401.59
4416.38
4431.75
4447.73
4464.38
4481.72
4499.77
4518.55
4538.02
4558.16
4578.86
4599.98
4621.42
4303.93
4316.74
4329.71
4342.87
4356.29
4370.06
4384.22
4398.85
4414.01
4429.76
4446.16
4463.26
4481.12
4499.77
4519.24
4539.52
4560.6
4582.44
4604.93
4627.91
4651.26
4298.54
4311.63
4324.9
4338.36
4352.08
4366.14
4380.6
4395.53
4411
4427.08
4443.84
4461.34
4479.63
4498.78
4518.84
4539.81
4561.71
4584.53
4608.21
4632.65
4657.67
4683.1
4292.84
4306.18
4319.72
4333.45
4347.44
4361.75
4376.47
4391.66
4407.4
4423.77
4440.82
4458.64
4477.3
4496.87
4517.4
4538.95
4561.55
4585.2
4609.9
4635.6
4662.18
4689.42
4717.15
4286.87
4300.43
4314.2
4328.17
4342.39
4356.94
4371.88
4387.3
4403.26
4419.85
4437.15
4455.24
4474.19
4494.08
4514.99
4537
4560.17
4584.52
4610.07
4636.82
4664.73
4693.65
4723.35
4753.65
4280.64
4294.4
4308.38
4322.55
4336.98
4351.72
4366.86
4382.46
4398.61
4415.39
4432.88
4451.17
4470.34
4490.48
4511.69
4534.05
4557.64
4582.54
4608.79
4636.41
4665.4
4695.74
4727.25
4759.7
4792.9
4274.2
4288.13
4302.28
4316.63
4331.22
4346.14
4361.44
4377.19
4393.5
4410.42
4428.06
4446.49
4465.82
4486.14
4507.55
4530.16
4554.06
4579.35
4606.13
4634.45
4664.32
4695.78
4728.79
4763.19
4798.76
4835.2
4267.56
4281.63
4295.93
4310.43
4325.17
4340.22
4355.65
4371.54
4387.95
4404.98
4422.72
4441.25
4460.68
4481.11
4502.65
4525.41
4549.51
4575.06
4602.19
4631.01
4661.57
4693.92
4728.1
4764.09
4801.77
4840.84
4880.86
4260.74
4274.93
4289.36
4303.98
4318.84
4334.01
4349.54
4365.52
4382.02
4399.12
4416.92
4435.51
4454.98
4475.46
4497.05
4519.88
4544.08
4569.77
4597.1
4626.21
4657.24
4690.27
4725.34
4762.53
4801.9
4843.28
4886.23
4930.31
4253.78
4268.07
4282.6
4297.32
4312.28
4327.53
4343.14
4359.18
4375.73
4392.87
4410.69
4429.29
4448.78
4469.25
4490.83
4513.65
4537.85
4563.57
4590.97
4620.21
4651.47
4684.91
4720.64
4758.72
4799.32
4842.5
4887.98
4935.33
4984.05
4246.68
4261.05
4275.67
4290.47
4305.5
4320.81
4336.48
4352.56
4369.13
4386.28
4404.09
4422.67
4442.11
4462.53
4484.04
4506.79
4530.9
4556.55
4583.9
4613.13
4644.43
4678.03
4714.11
4752.8
4794.28
4838.72
4886.12
4936.24
4988.65
5042.69
4239.48
4253.91
4268.59
4283.45
4298.53
4313.88
4329.58
4345.68
4362.25
4379.39
4397.16
4415.68
4435.03
4455.35
4476.75
4499.36
4523.33
4548.82
4576.01
4605.09
4636.28
4669.81
4705.94
4744.92
4786.94
4832.22
4880.91
4933.08
4988.53
5046.75
5106.97
4232.19
4246.67
4261.39
4276.28
4291.39
4306.77
4322.48
4338.57
4355.13
4372.22
4389.94
4408.36
4427.61
4447.78
4469.01
4491.43
4515.19
4540.45
4567.39
4596.21
4627.15
4660.44
4696.39
4735.29
4777.47
4823.21
4872.7
4926.18
4983.8
5045.37
5110.35
5177.79
4224.83
4239.33
4254.08
4269
4284.12
4299.51
4315.2
4331.28
4347.79
4364.82
4382.45
4400.77
4419.87
4439.88
4460.9
4483.07
4506.57
4531.53
4558.14
4586.61
4617.17
4650.08
4685.65
4724.2
4766.15
4811.91
4861.76
4915.95
4974.86
5038.72
5107.42
5180.35
5256.26
4217.42
4231.93
4246.69
4261.61
4276.74
4292.11
4307.78
4323.81
4340.27
4357.22
4374.74
4392.93
4411.87
4431.67
4452.46
4474.36
4497.53
4522.13
4548.36
4576.39
4606.47
4638.87
4673.89
4711.9
4753.3
4798.63
4848.33
4902.72
4962.22
5027.34
5098.39
5175.52
5257.77
5320.07
5322.72
4209.97
4224.47
4239.23
4254.15
4269.25
4284.6
4300.23
4316.21
4332.59
4349.44
4366.84
4384.88
4403.64
4423.22
4443.75
4465.35
4488.16
4512.35
4538.11
4565.65
4595.17
4626.95
4661.3
4698.58
4739.22
4783.76
4832.79
4886.8
4946.3
5011.83
5084.08
5163.41
5250.89
5322.93
5320.59
5366.45
5368.9
4202.5
4216.98
4231.72
4246.62
4261.69
4277
4292.57
4308.48
4324.78
4341.52
4358.79
4376.66
4395.22
4414.57
4434.81
4456.09
4478.52
4502.26
4527.51
4554.47
4583.36
4614.45
4648.02
4684.44
4724.14
4767.65
4815.61
4868.64
4927.46
4992.69
5065.08
5145.62
5221.85
5212.51
5315.95
5259.23
5308.81
5368.63
5365.66
5415.64
5417.88
4195.02
4209.47
4224.18
4239.04
4254.07
4269.32
4284.84
4300.66
4316.86
4333.48
4350.6
4368.29
4386.64
4405.74
4425.69
4446.62
4468.65
4491.93
4516.65
4542.98
4571.17
4601.47
4634.2
4669.65
4708.26
4750.56
4797.18
4848.8
4906.25
4970.41
5042.12
5122.37
5201.78
5189.39
5249.33
5360.1
5299.39
5351.97
5417.12
5413.41
5467.94
5469.95
4187.54
4201.95
4216.62
4231.43
4246.41
4261.6
4277.04
4292.77
4308.86
4325.35
4342.31
4359.81
4377.93
4396.77
4416.42
4436.99
4458.61
4481.41
4505.57
4531.27
4558.71
4588.17
4619.94
4654.36
4691.79
4732.72
4777.81
4827.73
4883.33
4945.63
5015.76
5094.82
5175.89
5161.08
5237.35
5223.65
5288.04
5406.84
5341.44
5397.55
5468.64
5464.06
5523.66
5525.41
4180.07
4194.43
4209.05
4223.81
4238.72
4253.84
4269.19
4284.83
4300.79
4317.14
4333.93
4351.24
4369.14
4387.7
4407.03
4427.24
4448.43
4470.75
4494.35
4519.39
4546.09
4574.67
4605.42
4638.71
4674.88
4714.36
4757.77
4805.79
4859.24
4919.15
4986.81
5063.62
5145.3
5128.38
5208.67
5192.42
5274.61
5259.4
5328.65
5456.38
5385.67
5445.74
5523.48
5517.92
5583.14
5584.61
4172.63
4186.93
4201.49
4216.18
4231.02
4246.06
4261.32
4276.84
4292.68
4308.88
4325.5
4342.61
4360.27
4378.56
4397.57
4417.41
4438.17
4459.99
4483.02
4507.41
4533.34
4561.05
4590.78
4622.86
4657.68
4695.65
4737.3
4783.29
4834.39
4891.6
4956.2
5029.73
5110.65
5091.99
5175.05
5156.61
5242.8
5224.9
5313.65
5296.75
5371.33
5508.95
5432.31
5496.78
5581.97
5575.31
5646.77
5647.93
4165.23
4179.45
4193.95
4208.56
4223.32
4238.27
4253.42
4268.83
4284.54
4300.59
4317.03
4333.93
4351.35
4369.37
4388.06
4407.52
4427.86
4449.18
4471.64
4495.37
4520.55
4547.38
4576.1
4606.99
4640.4
4676.77
4716.59
4760.48
4809.13
4863.46
4924.68
4994.34
5072.9
5053.31
5137.23
5117.06
5205.81
5185.63
5278.35
5258.61
5354.64
5335.87
5416.24
5564.87
5481.57
5550.92
5644.5
5636.61
5714.98
5715.79
4157.86
4172.02
4186.43
4200.96
4215.64
4230.48
4245.53
4260.82
4276.39
4292.28
4308.54
4325.23
4342.41
4360.15
4378.52
4397.61
4417.52
4438.36
4460.24
4483.32
4507.75
4533.72
4561.43
4591.16
4623.19
4657.93
4695.85
4737.56
4783.72
4835.11
4892.81
4958.33
5033.64
5013.75
5096.36
5075.33
5164.53
5142.73
5237.65
5215.6
5315.43
5293.66
5397.68
5376.81
5463.52
5624.48
5533.69
5608.48
5711.46
5702.16
5788.25
5788.64
4150.55
4164.62
4178.95
4193.4
4207.98
4222.72
4237.65
4252.82
4268.24
4283.97
4300.05
4316.53
4333.47
4350.93
4368.98
4387.71
4407.19
4427.54
4448.87
4471.31
4495
4520.12
4546.85
4575.44
4606.14
4639.3
4675.34
4714.81
4758.4
4806.84
4861.02
4922.32
4993.95
4974.17
5054.21
5033.04
5120.45
5097.94
5192.73
5169.3
5270.73
5246.82
5354.15
5330.29
5442.83
5419.71
5513.43
5688.11
5588.98
5669.81
5783.31
5772.43
5867.22
5867.17
4143.3
4157.28
4171.52
4185.87
4200.35
4214.98
4229.8
4244.83
4260.11
4275.67
4291.57
4307.84
4324.54
4341.72
4359.46
4377.82
4396.9
4416.77
4437.55
4459.36
4482.34
4506.62
4532.4
4559.88
4589.3
4620.95
4655.19
4692.5
4733.49
4778.91
4829.64
4886.8
4954.59
4935.07
5011.96
4991.04
5075.4
5052.91
5145.46
5121.45
5222.23
5197.18
5305.47
5279.78
5394.86
5369.08
5490.44
5465.1
5566.36
5756.26
5647.88
5735.45
5860.69
5848
5952.62
5952.04
4136.11
4150
4164.14
4178.4
4192.77
4207.29
4221.98
4236.87
4252
4267.4
4283.11
4299.17
4315.63
4332.54
4349.97
4367.98
4386.65
4406.06
4426.31
4447.52
4469.79
4493.27
4518.13
4544.54
4572.73
4602.93
4635.46
4670.73
4709.26
4751.7
4798.98
4852.17
4915.85
4897.09
4970.29
4949.7
5030.54
5008.4
5097.49
5073.61
5171.77
5146.22
5253.52
5226.82
5342.48
5315.08
5438.31
5410.76
5541.15
5513.89
5623
5829.5
5711.17
5806.26
5944.19
5929.46
6045.22
6043.98
4128.99
4142.78
4156.83
4170.98
4185.24
4199.64
4214.2
4228.96
4243.93
4259.16
4274.68
4290.54
4306.76
4323.41
4340.54
4358.2
4376.48
4395.44
4415.18
4435.79
4457.39
4480.1
4504.07
4529.46
4556.46
4585.29
4616.21
4649.56
4685.8
4725.48
4769.41
4818.66
4874.46
4929.44
4909.55
4986.46
4964.69
5049.88
5026.39
5120.73
5095.32
5199.74
5172.49
5287.07
5258.56
5382.41
5353.16
5485.34
5455.97
5595.95
5567.03
5684.49
5908.66
5780.06
5883.51
6034.57
6017.68
6146.02
6143.94
4121.94
4135.63
4149.58
4163.62
4177.77
4192.05
4206.48
4221.09
4235.91
4250.97
4266.31
4281.95
4297.94
4314.33
4331.17
4348.5
4366.39
4384.92
4404.16
4424.2
4445.15
4467.12
4490.24
4514.66
4540.54
4568.07
4597.47
4629.03
4663.14
4700.3
4741.16
4786.61
4837.92
4901.63
4881.39
4943.24
4922.26
5003.13
4980.04
5070.06
5045.05
5145.26
5118.1
5229.58
5200.35
5323.16
5292.52
5425.65
5394.2
5536.62
5505.07
5655.86
5625.16
5751.85
5994.94
5855.77
5968.52
6132.74
6113.81
6256.28
6253.15
4114.96
4128.55
4142.4
4156.34
4170.37
4184.53
4198.82
4213.29
4227.95
4242.84
4257.99
4273.42
4289.19
4305.32
4321.87
4338.87
4356.4
4374.51
4393.27
4412.77
4433.1
4454.36
4476.67
4500.16
4524.98
4551.29
4579.27
4609.17
4641.33
4676.18
4714.26
4756.26
4803.2
4861.7
4842.54
4913.33
4892.03
4957.31
4935.1
5020.28
4995.71
5091.08
5064.33
5171.1
5141.9
5261.28
5229.73
5361.82
5328.62
5472.31
5438.17
5592.49
5558.13
5721.42
5688.48
5825.66
6089.85
5939.04
6062.25
6240.06
6219.82
6377.6
6373.3
4108.05
4121.55
4135.3
4149.13
4163.05
4177.07
4191.24
4205.56
4220.06
4234.77
4249.73
4264.96
4280.5
4296.38
4312.65
4329.34
4346.52
4364.22
4382.52
4401.5
4421.24
4441.82
4463.37
4485.98
4509.79
4534.95
4561.62
4590
4620.37
4653.12
4688.69
4727.63
4770.58
4824.09
4806.39
4871.28
4851.22
4924.91
4902.37
4971.54
4947.96
5037.84
5011.59
5112.84
5084.1
5198.11
5166.54
5294.69
5260.37
5402.85
5366.55
5522.25
5484.73
5652.87
5614.92
5792.8
5756.81
5906.36
6195.03
6030.52
6165.54
6358.64
6337.73
6511.75
6506.38
4101.31
4114.63
4128.28
4142
4155.8
4169.7
4183.73
4197.9
4212.24
4226.78
4241.55
4256.57
4271.89
4287.53
4303.52
4319.91
4336.74
4354.06
4371.93
4390.41
4409.58
4429.52
4450.34
4472.13
4495
4519.08
4544.52
4571.5
4600.25
4631.11
4664.44
4700.66
4740.13
4783.53
4831.93
4813.4
4880.49
4859.43
4936.23
4912.34
4985.81
4960.7
5055.65
5027.51
5135.14
5104.1
5225.98
5191.67
5329.4
5291.84
5445.82
5405.79
5575.06
5533.38
5717.44
5675.03
5870.1
5829.95
5994.24
6311.44
6130.48
6278.77
6490.81
6469.01
6660.2
6654.18
4107.87
4121.34
4134.95
4148.64
4162.42
4176.3
4190.32
4204.5
4218.87
4233.45
4248.27
4263.37
4278.77
4294.49
4310.59
4327.1
4344.05
4361.5
4379.51
4398.14
4417.47
4437.6
4458.61
4480.6
4503.67
4527.97
4553.66
4580.94
4610.1
4641.45
4675.28
4711.74
4751.32
4801.07
4783.39
4839.2
4819.78
4889.25
4867.11
4947.09
4921.79
4999.93
4973.14
5073.44
5043.2
5157.61
5124
5254.25
5216.86
5364.9
5323.63
5490.18
5445.82
5630.27
5583.56
5785.77
5737.89
5953.25
5907.5
6089.2
6440.11
6238.99
6402.49
6638.22
6614.81
6825.06
6818.87
4114.58
4127.99
4141.57
4155.22
4168.97
4182.84
4196.86
4211.05
4225.44
4240.06
4254.94
4270.1
4285.58
4301.39
4317.58
4334.19
4351.25
4368.81
4386.93
4405.68
4425.15
4445.42
4466.59
4488.72
4511.94
4536.44
4562.4
4590.03
4619.61
4651.36
4685.31
4721.59
4766.59
4750.76
4806.4
4788.16
4845.93
4825.69
4897.42
4874.16
4957.31
4930.51
5013.67
4985.06
5090.86
5058.33
5179.86
5143.43
5282.46
5241.66
5400.65
5355.24
5535.37
5486.07
5687.29
5634.7
5857.31
5802.95
6042.11
5989.06
6191.03
6582.18
6356.93
6491.97
6516.52
6802.35
6776.23
7009.25
7002.62
4121.23
4134.59
4148.12
4161.74
4175.46
4189.31
4203.32
4217.52
4231.94
4246.6
4261.54
4276.77
4292.31
4308.21
4324.49
4341.17
4358.31
4375.96
4394.16
4413
4432.56
4452.94
4474.2
4496.43
4519.82
4544.56
4570.82
4598.83
4628.75
4660.58
4694.21
4729.67
4770.93
4754.73
4811.02
4792.25
4852
4830.94
4904.86
4880.47
4966.7
4938.37
5026.76
4996.22
5107.59
5072.64
5201.46
5162.03
5310.13
5265.63
5436.08
5386.09
5580.77
5525.86
5745.62
5686.1
5931.74
5869.78
6136.98
6038.21
6069.26
6288.03
6258.67
6586.68
6709.84
6687.06
6465.75
6436.79
6344.78
6561.28
6984.87
6790.2
6899.25
6919.09
7212.71
7206.59
4127.82
4141.12
4154.61
4168.19
4181.88
4195.71
4209.72
4223.93
4238.37
4253.08
4268.07
4283.36
4298.98
4314.94
4331.28
4348.03
4365.22
4382.92
4401.17
4420.06
4439.68
4460.11
4481.41
4503.77
4527.4
4552.43
4579.03
4607.3
4637.28
4668.73
4701.54
4742.15
4727.36
4774.58
4757.95
4814.94
4795.68
4857.34
4835.5
4911.45
4885.97
4975.13
4945.31
5038.92
5006.41
5123.39
5085.91
5221.99
5179.41
5336.7
5288.23
5470.51
5415.52
5625.82
5564.67
5804.88
5741.48
5708.65
6006.12
5972.88
5903.21
5938.38
6113.72
6228.01
6195.27
6080.83
6313.77
6661.92
6767.1
6532.62
6501.24
6405.04
6633.85
7010.75
7143.41
7128.07
6876.91
6991.38
7440.81
7247.67
7372.72
7382.1
4134.35
4147.58
4161.02
4174.56
4188.22
4202.03
4216.04
4230.26
4244.74
4259.48
4274.52
4289.87
4305.55
4321.56
4337.94
4354.72
4371.94
4389.65
4407.92
4426.82
4446.45
4466.87
4488.28
4510.89
4534.8
4560.13
4586.93
4615.2
4644.78
4675.44
4707.14
4744.93
4729.98
4777.66
4760.8
4818.2
4798.52
4861.92
4839.33
4917.15
4890.62
4982.41
4951.2
5049.93
5015.4
5137.88
5097.82
5240.96
5195.11
5361.62
5309.16
5503.57
5443.47
5675.68
5642.73
5609.58
5576.63
5867.34
5831.08
5767.71
5733.24
6046.5
6010.81
5936.37
5973.93
6160.45
6280.61
6245.36
6124.51
6370.99
6740.04
6851.21
6602.49
6467.08
6568.16
6709.49
7110.31
7233.71
6967.46
7088.66
7500.55
7635.66
7635.26
7361.44
7493.76
4140.8
4153.97
4167.35
4180.84
4194.47
4208.26
4222.27
4236.51
4251.01
4265.81
4280.9
4296.29
4312
4328.04
4344.43
4361.21
4378.43
4396.12
4414.36
4433.23
4452.83
4473.33
4494.99
4517.89
4542.08
4567.55
4594.27
4622.14
4650.95
4680.48
4717.17
4703.21
4747.15
4731.87
4780.25
4763.21
4820.86
4800.87
4865.73
4842.48
4921.88
4894.41
4988.45
4955.96
5059.58
5023.07
5150.71
5108.19
5258.31
5209.22
5385
5328.49
5543.78
5511.34
5479.2
5447.67
5698.47
5663.74
5629.03
5594.48
5898.29
5859.76
5794.43
5757.83
6087.52
6049.25
5969.99
6009.9
6207.94
6334.81
6296.69
6169.06
6430.08
6821.66
6939.33
6675.24
6531.11
6637.68
6788.3
7214.74
7345.62
7062.43
7190.87
7631.68
7776.77
7776.69
7481.56
7623.19
4147.17
4160.27
4173.6
4187.03
4200.62
4214.39
4228.4
4242.66
4257.21
4272.04
4287.17
4302.6
4318.33
4334.37
4350.74
4367.49
4384.66
4402.29
4420.47
4439.28
4458.93
4479.69
4501.66
4524.8
4549.09
4574.42
4600.7
4627.83
4655.55
4683.65
4718.57
4704.54
4748.82
4733.33
4782.38
4765.12
4822.98
4802.75
4868.77
4844.97
4925.6
4897.28
4993.32
4959.63
5067.8
5029.44
5162.02
5117.08
5273.93
5221.66
5416.68
5386.36
5356.54
5327.72
5560.18
5526.29
5492.84
5459.98
5721.14
5684.65
5648.34
5612.2
5929.57
5821.12
5888.78
5782.51
6129.27
6088.38
6004.15
6046.49
6256.43
6390.71
6349.48
6214.64
6491.15
6907.02
7031.54
6750.99
6597.39
6710.07
6870.54
7324.63
7463.82
7161.93
7298.22
7771.65
7929.24
7928.39
7608.9
7760.83
4153.45
4166.48
4179.73
4193.11
4206.66
4220.42
4234.43
4248.72
4263.31
4278.18
4293.35
4308.79
4324.51
4340.51
4356.83
4373.51
4390.59
4408.13
4426.22
4445.07
4464.97
4486.06
4508.26
4531.46
4555.55
4580.41
4605.97
4632.06
4658.42
4691.49
4678.47
4719.35
4705.16
4749.9
4734.23
4784.01
4766.45
4824.5
4803.97
4871
4846.76
4928.28
4899.16
4996.89
4962.04
5074.54
5034.42
5171.78
5124.49
5287.82
5232.48
5427.82
5396.29
5365.32
5335.23
5576.39
5541.04
5506.22
5472.04
5743.9
5705.62
5667.62
5629.83
5961.33
5848.03
5918.21
5807.39
6171.99
6128.38
6039.08
6083.96
6306.37
6448.55
6404.02
6261.65
6554.3
6996.12
7127.94
6829.94
6666.16
6785.47
6956.25
7440.32
7588.61
7266.3
7410.97
7920.93
8091.99
8089.86
7743.76
7906.8
4159.63
4172.58
4185.75
4199.07
4212.57
4226.32
4240.35
4254.68
4269.32
4284.23
4299.41
4314.84
4330.51
4346.45
4362.68
4379.25
4396.2
4413.62
4431.72
4450.81
4471.09
4492.4
4514.61
4537.56
4561.15
4585.3
4609.89
4634.77
4659.6
4691.67
4678.63
4719.55
4705.31
4750.27
4734.5
4784.88
4767.02
4825.03
4804.17
4872.29
4847.64
4929.7
4899.78
4999.07
4963.01
5079.86
5037.99
5179.92
5130.19
5312.08
5282.34
5225.03
5253.2
5438.64
5405.92
5373.83
5342.58
5592.43
5555.55
5519.28
5483.72
5766.82
5726.65
5686.84
5647.29
5993.72
5875.27
5948.13
5832.49
6215.93
6169.49
6074.81
6122.42
6357.93
6508.35
6460.36
6310.1
6619.62
7089.14
7228.97
6912.16
6737.8
6864.16
7045.8
7562.13
7720.21
7375.87
7529.39
8079.14
8262.84
8259.43
7886.03
8060.84
4165.7
4178.55
4191.64
4204.89
4218.36
4232.12
4246.18
4260.56
4275.24
4290.18
4305.35
4320.73
4336.32
4352.15
4368.24
4384.66
4401.46
4418.87
4437.2
4456.69
4477.18
4498.49
4520.41
4542.85
4565.74
4588.98
4612.52
4636.01
4665.55
4653.51
4691.25
4678.18
4719.11
4704.86
4749.87
4734.07
4784.77
4766.7
4824.23
4803.08
4872.32
4847.22
4929.67
4898.96
4999.64
4962.37
5083.53
5039.98
5197.8
5171.83
5133.64
5318.01
5287.27
5228.35
5257.32
5449.02
5415.07
5381.83
5349.49
5608.2
5569.7
5531.87
5494.86
5789.82
5747.64
5705.89
5664.45
6026.72
5902.81
5978.48
5857.72
6261.19
6211.82
6111.27
6161.87
6411.04
6570.29
6518.85
6360.04
6687.65
7186.62
7335.01
6998.17
6812.88
6946.67
7139.63
7690.16
7858.69
7490.68
7653.75
8245.17
8438.86
8434.83
8035.64
8222.32
4171.65
4184.38
4197.38
4210.56
4224.02
4237.8
4251.91
4266.36
4281.08
4296.03
4311.16
4326.44
4341.91
4357.57
4373.49
4389.73
4406.48
4424.11
4442.85
4462.59
4483.06
4504.05
4525.46
4547.21
4569.27
4591.59
4613.89
4635.78
4664.81
4652.86
4690.24
4677.27
4717.96
4703.78
4748.62
4732.86
4783.52
4765.43
4821.91
4800.56
4870.89
4845.29
4928.08
4896.63
4998.45
4960.11
5085.22
5040.07
5200.45
5173.58
5147.63
5121.7
5323.17
5291.47
5231
5260.71
5458.8
5423.58
5389.14
5355.69
5623.54
5583.31
5543.84
5505.29
5812.81
5768.45
5724.59
5681.13
6060.23
5930.57
6009.17
5882.96
6307.93
6255.39
6148.34
6202.23
6466.08
6634.91
6579.91
6411.83
6758.93
7288.88
7446.03
7088.3
6891.69
7033.05
7237.97
7824.6
8003.87
7611.09
7784.16
8417.89
8617.29
8613.42
8192.32
8390.68
4177.47
4190.06
4202.95
4216.09
4229.55
4243.38
4257.57
4272.09
4286.84
4301.76
4316.8
4331.95
4347.23
4362.7
4378.42
4394.57
4411.53
4429.57
4448.58
4468.29
4488.46
4508.94
4529.67
4550.66
4571.89
4593.09
4613.99
4640.33
4629.39
4663.58
4651.77
4688.65
4675.85
4716.08
4702.04
4746.44
4730.83
4781.04
4763.09
4818.11
4796.73
4867.92
4841.79
4925.01
4892.88
4995.3
4956.08
5096.83
5073.27
5037.82
5202.37
5174.7
5147.69
5121.25
5327.5
5294.83
5232.82
5263.26
5467.81
5431.28
5395.62
5361.06
5638.27
5596.2
5555.01
5514.86
5835.6
5788.89
5742.76
5697.12
6094.16
5958.44
6040.08
5908.03
6356.32
6300.16
6185.96
6243.36
6523.38
6702.44
6643.57
6465.54
6833.58
7395.94
7562.44
7182.71
6974.05
7123.27
7341.1
7965.51
8155.73
7737.53
7920.78
8595.7
8795.88
8793.22
8355.72
8565.24
4183.11
4195.55
4208.34
4221.45
4234.95
4248.87
4263.18
4277.76
4292.51
4307.35
4322.24
4337.19
4352.26
4367.5
4383.11
4399.43
4416.8
4435.13
4454.14
4473.56
4493.23
4513.06
4533.09
4553.31
4573.52
4593.47
4612.84
4639.12
4628.28
4661.95
4650.34
4686.53
4673.99
4713.44
4699.66
4743.28
4727.93
4777.37
4759.67
4813.17
4791.83
4863.57
4837.02
4920.38
4887.71
5001.7
4981.31
4949.93
5096
5071.89
5023.42
5046.08
5203.51
5175.19
5146.78
5119.96
5330.86
5297.25
5233.71
5264.85
5475.91
5438.03
5401.14
5365.46
5652.21
5608.2
5565.22
5523.41
5858.04
5808.79
5760.21
5712.26
6128.39
5986.29
6071
5932.82
6406.3
6346.09
6224.11
6285.29
6582.89
6772.87
6709.88
6520.97
6911.61
7508.29
7684.81
7281.71
7060.03
7217.87
7449.37
8112.83
8314.3
7870
8063.78
8776.57
8974.65
8973.38
8525.49
8744.65
4188.54
4200.83
4213.53
4226.66
4240.26
4254.33
4268.74
4283.36
4298.05
4312.74
4327.43
4342.14
4356.96
4372.07
4387.81
4404.52
4422.2
4440.55
4459.29
4478.23
4497.27
4516.43
4535.72
4555.04
4574.15
4592.77
4616.33
4606.3
4637.48
4626.76
4659.89
4648.51
4683.91
4671.67
4710.07
4696.68
4739.14
4724.17
4772.64
4755.2
4807.37
4786.07
4858
4831.25
4914.04
4881
4998.46
4977.78
4953.62
4934.73
5094.34
5069.81
5020.28
5043.2
5203.73
5174.76
5144.98
5117.83
5333.14
5298.6
5233.59
5265.4
5482.96
5443.71
5405.58
5368.76
5665.17
5619.16
5574.32
5530.82
5880
5828.03
5776.78
5726.36
6162.81
6013.82
6101.65
5957.07
6457.62
6393.06
6262.64
6327.96
6644.77
6846.38
6778.82
6578.12
6993.2
7626.52
7813.23
7385.59
7150.22
7317.25
7563.18
8266.79
8479.21
8008.72
8213.39
8959.3
9155.43
9154.96
8701.13
8927.79
4193.73
4205.86
4218.53
4231.75
4245.53
4259.75
4274.24
4288.82
4303.37
4317.86
4332.3
4346.76
4361.41
4376.62
4392.71
4409.75
4427.47
4445.57
4463.86
4482.19
4500.56
4519.02
4537.53
4555.89
4573.85
4591.01
4614.78
4604.91
4635.44
4624.96
4657.39
4646.24
4680.79
4668.89
4706.08
4693.16
4734.15
4719.67
4767
4749.81
4800.72
4779.53
4851.18
4824.49
4916.67
4899.67
4872.58
4994.49
4973.62
4949.03
4930.1
5091.92
5067.11
5016.41
5039.49
5203
5173.43
5142.33
5114.89
5334.21
5298.83
5232.39
5264.86
5488.84
5448.21
5408.82
5370.85
5677.02
5628.92
5582.18
5536.95
5901.26
5846.35
5792.28
5739.28
6197.13
6040.76
6131.78
5980.62
6510.11
6440.87
6301.07
6371.09
6708.82
6923.08
6850.27
6636.9
7078.63
7750.8
7947.71
7494.79
7244.82
7421.69
7682.93
8427.25
8650.33
8154.09
8369.86
9144.02
9339.84
9339.34
8882.09
9114.55
4198.64
4210.64
4223.38
4236.8
4250.78
4265.12
4279.61
4294.07
4308.42
4322.65
4336.84
4351.11
4365.81
4381.34
4397.76
4414.86
4432.36
4450.03
4467.72
4485.38
4503.1
4520.87
4538.54
4555.9
4572.65
4588.55
4612.99
4603.34
4633.1
4622.91
4654.43
4643.6
4677.17
4665.61
4701.53
4689.11
4728.51
4714.58
4760.61
4743.71
4793.1
4772.18
4842.99
4816.61
4912.04
4894.84
4857.77
4873.05
4989.86
4968.95
4943.79
4924.87
5088.71
5063.62
5011.83
5034.96
5201.23
5171.17
5138.65
5110.98
5333.96
5297.82
5230.05
5263.17
5493.42
5451.4
5410.72
5371.56
5687.59
5637.34
5588.64
5541.64
5921.6
5863.54
5806.53
5750.86
6230.94
6066.97
6161.17
6003.28
6563.67
6489.42
6339.3
6414.53
6774.95
7003.03
6924.26
6697.39
7167.77
7881.02
8088.84
7609.81
7343.77
7531.33
7808.48
8594.07
8827.92
8306.54
8532.76
9330.83
9528.96
9528.11
9068.13
9304.96
4203.21
4215.21
4228.17
4241.84
4256
4270.39
4284.79
4299.05
4313.15
4327.12
4341.1
4355.36
4370.37
4386.19
4402.68
4419.6
4436.69
4453.78
4470.81
4487.86
4504.96
4522
4538.8
4555.12
4570.69
4590.59
4601.6
4581.83
4611.01
4630.55
4620.66
4651.15
4640.71
4673.06
4661.93
4696.45
4684.53
4722.35
4708.96
4753.6
4737.09
4784.47
4764.03
4833.46
4807.55
4906.81
4889.54
4852.44
4867.66
4984.5
4963.64
4937.86
4919.02
5084.57
5059.24
5006.45
5029.57
5198.27
5167.77
5133.88
5106.02
5332.29
5295.45
5226.47
5260.18
5496.53
5453.11
5411.19
5370.86
5696.73
5644.27
5593.56
5544.73
5940.84
5879.45
5819.38
5760.94
6264.15
6092.28
6189.69
6024.8
6618.41
6538.63
6377.26
6458.09
6843
7086.06
7000.7
6759.28
7260.51
8017.6
8237.27
7730.42
7447.1
7646.01
7940.25
8767.71
9011.47
8465.95
8702.47
9520.6
9724.08
9723.01
9259.16
9498.52
4207.45
4219.67
4232.95
4246.88
4261.14
4275.49
4289.71
4303.73
4317.55
4331.31
4345.23
4359.74
4375.01
4390.92
4407.26
4423.8
4440.34
4456.79
4473.23
4489.71
4506.16
4522.44
4538.34
4553.62
4567.98
4599.62
4588.68
4580.05
4608.82
4627.81
4618.21
4647.68
4637.62
4668.62
4658
4690.94
4679.57
4715.75
4702.89
4745.96
4729.97
4774.9
4755.11
4832.42
4819.11
4797.33
4901.06
4883.91
4846.75
4861.82
4978.38
4957.62
4931.24
4912.53
5079.43
5053.92
5000.26
5023.31
5194.12
5163.2
5127.99
5099.96
5329.1
5291.54
5221.52
5255.72
5497.94
5453.11
5410.03
5368.62
5704.29
5649.54
5596.76
5546.04
5958.69
5893.83
5830.57
5769.22
6296.73
6116.57
6217.12
6045.06
6673.91
6587.84
6414.73
6501.34
6912.59
7172.17
7079.42
6822.1
7356.97
8161.37
8392.9
7856.39
7554.87
7765.29
8078.53
8948.2
9200.8
8632.28
8879.88
9715.4
9925.18
9924.75
9454.91
9695.81
4211.49
4224.13
4237.75
4251.85
4266.13
4280.34
4294.34
4308.09
4321.69
4335.36
4349.43
4364.19
4379.54
4395.32
4411.32
4427.33
4443.26
4459.15
4475.07
4490.98
4506.76
4522.24
4537.22
4551.46
4564.81
4597.49
4586.6
4578.14
4606.45
4624.88
4615.58
4644.02
4634.35
4664.01
4653.9
4685.18
4674.4
4708.76
4696.51
4737.7
4722.36
4764.41
4745.47
4826.59
4813.33
4783.44
4794.86
4894.72
4877.81
4840.67
4855.5
4971.47
4950.87
4923.84
4905.32
5073.19
5047.61
4993.18
5016.08
5188.73
5157.51
5120.82
5092.66
5324.22
5285.91
5214.94
5249.57
5497.5
5451.21
5407.01
5364.65
5709.93
5652.81
5597.91
5545.28
5974.92
5906.32
5839.67
5775.26
6328.13
6139.31
6242.55
6063.43
6729.92
6637.19
6446.83
6543.78
6983.51
7261.01
7159.98
6885.82
7456.96
8312.49
8555.79
7987.9
7666.67
7889.16
8223.74
9135.24
9395.93
8806.37
9064.48
9917.28
10131.3
10133.6
9655.15
9898.62
4215.51
4228.64
4242.53
4256.71
4270.91
4284.92
4298.66
4312.18
4325.66
4339.4
4353.68
4368.51
4383.76
4399.23
4414.75
4430.18
4445.57
4460.98
4476.38
4491.68
4506.76
4521.43
4535.49
4548.76
4565.99
4576.11
4558.19
4595.19
4584.36
4603.92
4621.77
4612.77
4640.19
4630.91
4659.25
4649.64
4679.26
4669.1
4701.47
4689.94
4728.86
4714.31
4777.54
4760.95
4751.37
4735.2
4820.28
4807.22
4788.79
4887.77
4871.18
4834.11
4848.7
4963.65
4943.28
4915.63
4897.43
5065.8
5040.26
4985.13
5007.85
5181.85
5150.44
5112.21
5084.01
5317.52
5278.52
5206.7
5241.68
5495.04
5447.28
5401.97
5358.74
5713.24
5653.67
5596.59
5542.02
5988.99
5916.37
5846.16
5778.59
6352.6
6159.44
6263.57
6075.81
6786.1
6684.19
6490.57
6584.11
7055.43
7352.58
7240.5
6948.1
7560.17
8471.09
8725.79
8125.41
7781.97
8017.89
8375.94
9328.9
9597.25
8988.06
9256.33
10127.6
10340.3
10351.2
9861.23
10109.3
4219.67
4233.2
4247.25
4261.4
4275.44
4289.22
4302.72
4316.09
4329.58
4343.45
4357.81
4372.55
4387.52
4402.56
4417.53
4432.46
4447.39
4462.32
4477.18
4491.85
4506.2
4520.05
4533.25
4545.6
4573.95
4563.99
4556.3
4592.73
4582.01
4601.22
4618.5
4609.81
4636.21
4627.3
4654.37
4645.23
4673.21
4663.67
4693.95
4683.2
4719.57
4705.94
4771.36
4754.92
4745.59
4723.46
4731.27
4813.55
4800.79
4782.35
4880.26
4864.05
4827.08
4841.36
4954.88
4934.79
4906.72
4888.93
5057.21
5031.84
4976.08
4998.53
5173.42
5141.92
5102.15
5073.97
5308.7
5269.16
5196.71
5231.9
5490.09
5440.95
5394.56
5350.56
5713.76
5651.72
5592.43
5535.81
5995.96
5920.8
5848.37
5778.63
6355.89
6180.21
6268.82
6104.07
6839.87
6740.45
6477.62
6598.94
7125.39
7446.41
7327.88
7017.58
7666.28
8636.45
8903.54
8269.68
7901.56
8152.53
8535.55
9530.19
9805.98
9177.42
9456.29
10349.2
10543.2
10584.9
10075.6
10331.7
4224
4237.76
4251.84
4265.89
4279.72
4293.26
4306.58
4319.9
4333.47
4347.39
4361.66
4376.16
4390.74
4405.28
4419.77
4434.27
4448.76
4463.19
4477.47
4491.49
4505.12
4518.19
4530.6
4542.26
4571.76
4561.92
4554.38
4590.16
4579.62
4598.4
4615.09
4606.7
4632.1
4623.55
4649.39
4640.71
4667.07
4658.14
4686.27
4676.33
4709.93
4697.35
4764.96
4748.69
4739.71
4718.13
4725.65
4806.44
4794.03
4775.62
4872.2
4856.39
4819.59
4833.49
4945.21
4925.5
4897.07
4879.81
5047.34
5022.25
4966.02
4988.08
5163.38
5131.9
5090.46
5062.48
5297.35
5257.45
5184.69
5219.97
5482.16
5431.68
5384.28
5339.67
5711.65
5647.63
5586.64
5528.42
5991.51
5917.72
5846.17
5776.6
6354.53
6189.83
6267.55
6092.59
6861.63
6729.12
6475.99
6597.94
7154.79
7545.56
7319.32
7006.97
7778.08
8809.01
9089.43
8420.84
8026.35
8291.76
8706.91
9739.85
10024.8
9374.85
9665.62
10591.3
10813
10885
10302.6
10577
4228.44
4242.29
4256.31
4270.17
4283.77
4297.11
4310.35
4323.68
4337.24
4351.08
4365.13
4379.27
4393.41
4407.5
4421.58
4435.66
4449.68
4463.58
4477.27
4490.65
4503.58
4515.96
4527.69
4538.69
4552.44
4569.53
4559.82
4587.54
4577.19
4595.51
4611.61
4603.53
4627.9
4619.74
4644.31
4636.1
4660.85
4652.54
4678.52
4669.4
4700.2
4688.64
4758.31
4742.29
4733.7
4712.76
4719.91
4798.95
4786.92
4768.55
4863.55
4848.13
4811.68
4825.12
4934.58
4915.34
4886.63
4869.99
5036.19
5011.45
4954.93
4976.48
5151.44
5120.09
5077.02
5049.43
5283.41
5243.14
5170.54
5205.71
5473.63
5422.42
5373.22
5326.24
5709.29
5644.79
5583.46
5525.08
5990.16
5916.39
5844.86
5775.3
6353.32
6189
6266.38
6090.92
6860.74
6727.42
6474.64
6596.8
7153.93
7540.24
7317.69
7005.21
7774.88
8990.11
9283.3
8577.61
8025.6
8293.6
8881.38
9960.3
10256.6
9582.49
9885.62
10888.3
11897.4
11375.2
10550.6
10867.1
4232.92
4246.76
4260.64
4274.3
4287.68
4300.88
4314.05
4327.32
4340.78
4354.42
4368.15
4381.9
4395.62
4409.31
4422.99
4436.63
4450.16
4463.52
4476.63
4489.38
4501.67
4513.43
4524.55
4534.96
4550.43
4548.4
4567.25
4557.68
4584.89
4574.73
4592.61
4608.14
4600.37
4623.71
4615.93
4639.22
4631.48
4654.61
4646.91
4670.77
4662.47
4695.65
4707.24
4690.03
4679.89
4751.45
4735.72
4727.55
4714.06
4791.07
4779.46
4761.24
4854.23
4839.28
4803.35
4816.27
4922.93
4904.26
4875.47
4859.48
5023.61
4999.35
4942.71
4963.68
5137.48
5106.37
5061.71
5034.72
5268.65
5227.52
5154.12
5189.18
5470.43
5419.6
5352.07
5310.26
5708
5643.5
5582.18
5523.8
5988.97
5915.25
5843.76
5774.18