/*--------------------------------*- C++ -*----------------------------------*\
  =========                 |
  \\      /  F ield         | OpenFOAM: The Open Source CFD Toolbox
   \\    /   O peration     | Website:  https://openfoam.org
    \\  /    A nd           | Version:  dev
     \\/     M anipulation  |
\*---------------------------------------------------------------------------*/
FoamFile
{
    version     2.0;
    format      ascii;
    class       volScalarField;
    location    "2500";
    object      H2O;
}
// * * * * * * * * * * * * * * * * * * * * * * * * * * * * * * * * * * * * * //

dimensions      [0 0 0 0 0 0 0];

internalField   nonuniform List<scalar> 
9851
(
9.55842e-30
3.85687e-29
1.94127e-29
1.12913e-28
9.45515e-29
9.67916e-30
3.59985e-28
3.18704e-28
1.06607e-28
5.08425e-30
9.49288e-28
9.91865e-28
3.39559e-28
7.7897e-29
2.81284e-30
3.78322e-27
4.29192e-27
1.32145e-27
2.49205e-28
3.92823e-29
2.36052e-30
1.1649e-26
1.24967e-26
6.56678e-27
1.11015e-27
2.17802e-28
1.52948e-29
2.46646e-30
3.23011e-26
4.04902e-26
2.27099e-26
5.79858e-27
7.85156e-28
1.11105e-28
2.61527e-29
8.24655e-30
8.13632e-26
1.26287e-25
7.60814e-26
2.66306e-26
4.17401e-27
7.53468e-28
8.62627e-29
5.24927e-29
1.4978e-29
1.11972e-25
3.4123e-25
2.58302e-25
1.07717e-25
2.62997e-26
3.05138e-27
5.08652e-28
1.49226e-28
9.40798e-29
1.90724e-29
4.233e-25
1.17245e-24
8.77978e-25
3.49346e-25
1.07083e-25
2.01983e-26
2.78707e-27
7.76508e-28
4.50477e-28
1.11256e-28
1.11269e-29
6.73749e-25
2.58258e-24
2.32952e-24
1.04319e-24
3.66029e-25
6.57539e-26
1.1232e-26
2.12011e-27
1.98384e-27
8.62744e-28
1.52282e-28
5.66081e-29
2.56696e-24
4.37203e-24
5.8036e-24
3.79256e-24
1.35986e-24
2.82641e-25
5.43211e-26
1.06757e-26
5.26571e-27
3.94995e-27
9.27061e-28
3.75727e-28
1.6851e-28
2.32395e-24
1.27984e-23
1.88924e-23
1.16008e-23
4.02292e-24
1.24954e-24
2.14791e-25
3.19224e-26
1.40675e-26
1.2125e-26
7.27383e-27
3.1698e-27
1.11537e-27
4.15417e-29
8.2705e-24
3.327e-23
3.09331e-23
3.20449e-23
1.2904e-23
4.32844e-24
7.6724e-25
1.43602e-25
4.0223e-26
2.66205e-26
1.88208e-26
8.38103e-27
6.76819e-27
1.04067e-27
1.36363e-28
1.52728e-23
4.80871e-23
7.6047e-23
9.78706e-23
5.21579e-23
1.16848e-23
3.83786e-24
5.05472e-25
1.20417e-25
8.16325e-26
6.54724e-26
5.28706e-26
2.00955e-26
1.29157e-26
3.69539e-27
3.39409e-28
7.12696e-23
1.20842e-22
2.2057e-22
2.28375e-22
1.5629e-22
4.80735e-23
1.03082e-23
2.02182e-24
3.49333e-25
1.82303e-25
1.72404e-25
1.5122e-25
1.07666e-25
3.41628e-26
2.51017e-26
7.7117e-27
1.35886e-27
1.05371e-22
4.11113e-22
4.14897e-22
6.89855e-22
4.45849e-22
1.87733e-22
4.99429e-23
7.61842e-24
1.51163e-24
3.60845e-25
4.12724e-25
4.10855e-25
3.09488e-25
2.47977e-25
6.8992e-26
4.94617e-26
1.9642e-26
1.88236e-27
1.82548e-22
4.23467e-22
1.08165e-21
1.68548e-21
1.19828e-21
5.3725e-22
1.77853e-22
4.01971e-23
5.20287e-24
1.29066e-24
8.33716e-25
9.68169e-25
9.12544e-25
7.64664e-25
3.11624e-25
1.3039e-25
7.77615e-26
2.14752e-26
2.15192e-27
2.87553e-22
7.34019e-22
2.21549e-21
3.38672e-21
2.65975e-21
1.37236e-21
5.27865e-22
1.33914e-22
2.48777e-23
3.47622e-24
1.54408e-24
1.91411e-24
2.02042e-24
1.63635e-24
1.21457e-24
3.48386e-25
3.45358e-25
1.13516e-25
2.96449e-26
8.43329e-27
3.43592e-22
1.34843e-21
4.79052e-21
5.35984e-21
6.19897e-21
3.98612e-21
1.45448e-21
4.20491e-22
9.18905e-23
1.57869e-23
3.8117e-24
3.60192e-24
4.52286e-24
3.2895e-24
2.78756e-24
1.83866e-24
8.1563e-25
4.641e-25
1.13568e-25
1.78164e-25
1.57248e-25
2.07042e-22
2.69687e-21
6.75245e-21
1.05247e-20
1.47398e-20
9.54573e-21
4.02244e-21
1.24583e-21
2.3813e-22
5.1117e-23
1.06601e-23
6.84291e-24
8.20351e-24
8.6816e-24
6.96468e-24
6.03694e-24
3.27125e-24
2.05718e-24
7.31577e-25
8.30505e-25
1.54092e-24
1.65138e-24
1.11368e-21
3.68597e-21
9.12996e-21
2.32607e-20
2.56793e-20
1.96288e-20
9.64234e-21
3.36379e-21
8.86669e-22
1.69511e-22
3.2314e-23
1.13215e-23
1.38021e-23
2.18326e-23
1.56353e-23
1.39271e-23
8.91495e-24
9.14412e-24
6.63369e-24
4.96472e-24
1.0918e-23
1.67109e-23
9.77966e-24
1.58085e-21
6.88027e-21
1.67713e-20
3.58716e-20
4.61766e-20
4.05907e-20
1.98792e-20
8.61428e-21
2.29672e-21
4.90944e-22
1.07101e-22
2.40691e-23
2.69369e-23
3.22663e-23
3.23565e-23
3.21271e-23
2.38116e-23
2.64559e-23
3.09107e-23
3.00249e-23
7.62658e-23
1.02049e-22
1.76018e-22
1.07438e-22
4.39047e-21
1.13055e-20
2.20541e-20
5.64544e-20
6.26138e-20
7.27041e-20
4.21977e-20
1.87253e-20
6.54672e-21
1.4812e-21
3.05682e-22
7.34477e-23
4.37658e-23
5.82528e-23
6.33643e-23
6.14066e-23
8.9876e-23
5.17121e-23
1.32637e-22
2.71263e-22
4.1715e-22
6.37855e-22
9.26634e-22
2.04371e-21
1.3352e-21
3.5052e-21
2.56204e-20
2.9995e-20
8.91019e-20
1.17395e-19
1.36718e-19
8.50951e-20
4.20077e-20
1.41789e-20
4.07687e-21
9.27682e-22
1.87446e-22
8.58884e-23
1.2801e-22
1.53139e-22
2.19408e-22
2.44711e-22
2.14389e-22
3.66539e-22
1.1542e-21
2.49109e-21
5.21082e-21
7.07336e-21
1.44317e-20
1.98869e-20
6.24333e-21
3.9698e-21
3.4813e-20
7.00751e-20
1.45434e-19
1.86811e-19
2.08638e-19
1.83827e-19
8.66897e-20
3.39376e-20
1.04741e-20
2.65948e-21
4.22442e-22
1.39055e-22
2.12986e-22
3.51999e-22
4.15653e-22
6.01779e-22
7.03613e-22
1.55311e-21
5.43451e-21
1.32375e-20
3.02145e-20
5.83802e-20
6.79618e-20
1.63438e-19
1.70512e-19
8.83699e-20
2.18791e-21
2.61837e-20
1.62926e-19
2.57512e-19
2.5081e-19
3.3763e-19
3.03058e-19
1.78973e-19
6.15631e-20
2.524e-20
6.27325e-21
1.49331e-21
3.81731e-22
2.76267e-22
4.90757e-22
9.7922e-22
1.40752e-21
1.62515e-21
4.46662e-21
1.6167e-20
5.98331e-20
1.36917e-19
3.45834e-19
7.14918e-19
1.01598e-18
1.39655e-18
1.80648e-18
1.04983e-18
7.86727e-21
3.74398e-20
2.46436e-19
5.02379e-19
4.80887e-19
4.92252e-19
4.89645e-19
3.11649e-19
1.56559e-19
4.52295e-20
1.1356e-20
3.00911e-21
9.16516e-22
4.72991e-22
1.04649e-21
1.50049e-21
2.90962e-21
5.44428e-21
1.85957e-20
4.99778e-20
1.78811e-19
6.93091e-19
1.25398e-18
4.05402e-18
7.39381e-18
9.48958e-18
1.26541e-17
1.14884e-17
5.7878e-18
4.05634e-20
9.9435e-20
3.48303e-19
7.25986e-19
1.02545e-18
8.83431e-19
8.22372e-19
5.4505e-19
2.75965e-19
1.09669e-19
2.88473e-20
7.39716e-21
1.87177e-21
1.01418e-21
1.73624e-21
3.25642e-21
5.02002e-21
1.21105e-20
3.4078e-20
2.16379e-19
9.17151e-19
3.01127e-18
7.57149e-18
2.26793e-17
3.42982e-17
7.26194e-17
7.75134e-17
7.89344e-17
6.40656e-17
1.62458e-17
5.43406e-20
4.62687e-19
5.18581e-19
1.42402e-18
1.83537e-18
1.71962e-18
1.3963e-18
9.17167e-19
4.97728e-19
2.10161e-19
7.16294e-20
1.76263e-20
3.37643e-21
1.71602e-21
2.44078e-21
5.31626e-21
9.06357e-21
2.50837e-20
1.25146e-19
4.56893e-19
2.39138e-18
1.11016e-17
4.11313e-17
1.1555e-16
2.21601e-16
4.40869e-16
6.17521e-16
6.74466e-16
5.4816e-16
2.80543e-16
6.03173e-17
1.19284e-19
6.66784e-19
2.11668e-18
1.70322e-18
2.53247e-18
2.72275e-18
2.4219e-18
1.59153e-18
8.54885e-19
3.80523e-19
1.35992e-19
4.23014e-20
1.02791e-20
2.59854e-21
3.43987e-21
7.93131e-21
1.95357e-20
6.11918e-20
2.80947e-19
1.5403e-18
7.45234e-18
2.44482e-17
1.4916e-16
5.82543e-16
1.08726e-15
2.65554e-15
4.72299e-15
6.14508e-15
5.75092e-15
3.98488e-15
1.567e-15
2.64408e-16
7.73353e-19
2.6735e-18
4.2128e-18
4.09001e-18
5.55268e-18
5.63974e-18
4.36585e-18
2.50422e-18
1.43502e-18
6.54881e-19
2.39601e-19
8.1888e-20
2.12603e-20
5.89171e-21
5.60851e-21
1.65476e-20
3.74411e-20
1.44526e-19
6.39676e-19
2.67741e-18
1.931e-17
1.016e-16
4.20784e-16
2.20873e-15
6.36335e-15
1.8456e-14
3.94734e-14
6.11768e-14
6.83015e-14
5.32591e-14
2.90337e-14
7.18659e-15
5.12504e-16
6.25673e-19
7.91142e-18
1.22046e-17
1.44975e-17
8.28358e-18
9.48275e-18
7.54095e-18
5.01553e-18
2.58207e-18
1.15713e-18
4.78662e-19
1.52949e-19
4.20938e-20
1.43577e-20
1.07356e-20
2.71976e-20
7.8603e-20
3.11243e-19
1.2279e-18
8.47865e-18
4.36196e-17
2.63909e-16
1.32093e-15
7.4928e-15
3.44161e-14
1.1679e-13
2.92114e-13
5.52956e-13
7.58713e-13
7.31821e-13
4.74788e-13
1.53974e-13
2.28369e-14
4.70387e-16
8.84322e-15
2.20425e-18
1.22094e-17
2.50927e-17
3.09596e-17
1.96998e-17
1.94295e-17
1.40857e-17
8.22156e-18
4.50878e-18
2.12847e-18
7.95215e-19
2.85775e-19
7.45626e-20
2.44809e-20
2.03393e-20
3.66566e-20
1.60112e-19
5.53114e-19
2.97952e-18
1.60102e-17
1.21428e-16
7.30512e-16
4.40311e-15
2.77175e-14
1.53629e-13
6.34518e-13
1.89358e-12
4.2101e-12
7.18825e-12
8.92614e-12
7.64801e-12
4.17098e-12
4.03473e-13
8.22493e-14
7.5492e-13
2.45546e-15
4.56189e-14
1.05585e-17
1.91908e-17
3.87086e-17
5.95399e-17
5.09428e-17
3.88731e-17
2.58353e-17
1.43345e-17
7.16227e-18
3.44277e-18
1.37602e-18
4.88983e-19
1.29795e-19
3.8027e-20
3.38624e-20
7.91089e-20
2.59561e-19
1.31487e-18
7.54767e-18
4.26612e-17
2.51517e-16
1.75147e-15
1.26164e-14
9.61786e-14
5.99673e-13
2.85984e-12
1.02871e-11
2.72578e-11
5.54233e-11
8.76252e-11
1.00027e-10
7.5732e-11
1.15554e-11
5.33508e-11
5.55834e-12
4.33697e-11
4.21497e-11
4.7154e-13
4.18327e-12
1.23214e-14
2.43553e-13
1.13918e-17
5.42694e-17
5.06432e-17
8.96159e-17
9.3294e-17
7.95012e-17
4.5388e-17
2.65626e-17
1.24943e-17
4.81474e-18
2.35246e-18
8.51794e-19
3.00932e-19
8.03889e-20
5.89314e-20
1.30714e-19
4.22217e-19
2.25796e-18
1.63311e-17
1.13071e-16
5.93736e-16
4.62097e-15
3.58282e-14
2.97007e-13
2.07041e-12
1.11003e-11
4.60264e-11
1.46626e-10
3.54166e-10
6.73216e-10
9.98512e-10
1.0381e-09
2.43152e-10
9.52256e-10
2.29981e-10
3.36798e-11
2.57889e-10
2.42643e-10
2.61734e-12
2.3891e-11
6.46012e-14
1.31362e-12
2.51202e-17
1.08249e-16
1.07795e-16
1.73217e-16
1.77167e-16
1.28856e-16
9.22408e-17
4.21056e-17
1.94714e-17
9.75465e-18
3.57042e-18
1.41105e-18
4.69773e-19
1.63768e-19
1.01486e-19
2.44368e-19
9.13746e-19
4.2825e-18
2.77703e-17
2.19533e-16
1.77594e-15
1.25987e-14
1.0427e-13
8.62754e-13
6.43885e-12
3.79129e-11
1.7584e-10
6.44572e-10
1.87182e-09
4.19352e-09
7.53372e-09
1.04947e-08
3.56149e-09
1.30244e-08
1.14049e-09
5.24723e-09
1.44529e-09
1.95563e-10
1.54127e-09
1.41828e-09
1.4536e-11
1.35667e-10
3.46495e-13
7.16745e-12
7.33828e-17
1.69615e-16
2.29203e-16
3.14503e-16
2.62536e-16
2.38104e-16
1.43187e-16
8.78944e-17
3.83184e-17
1.58923e-17
5.53015e-18
2.0701e-18
7.20657e-19
2.8881e-19
2.04985e-19
4.84966e-19
1.6599e-18
7.09022e-18
6.38288e-17
4.39316e-16
3.39056e-15
3.01115e-14
2.77824e-13
2.50876e-12
1.88268e-11
1.16443e-10
5.87894e-10
2.40295e-09
8.01601e-09
2.16209e-08
4.53229e-08
7.76105e-08
4.15531e-08
1.25637e-07
2.08161e-08
7.3186e-08
7.08026e-09
3.09391e-08
8.56432e-09
1.12493e-09
9.00311e-09
8.19086e-09
8.06667e-11
7.62686e-10
1.86198e-12
3.89207e-11
2.7349e-16
3.75965e-16
4.91438e-16
5.69982e-16
5.08442e-16
3.32433e-16
2.56811e-16
1.37695e-16
6.01941e-17
2.8105e-17
1.08571e-17
3.46381e-18
1.31687e-18
4.92799e-19
3.34357e-19
9.50398e-19
3.5596e-18
1.51258e-17
9.80524e-17
9.11776e-16
7.92094e-15
7.19477e-14
6.86012e-13
6.54933e-12
5.36269e-11
3.39152e-10
1.76633e-09
7.78048e-09
2.88792e-08
8.93717e-08
2.26202e-07
4.47212e-07
3.36401e-07
8.52663e-07
2.31505e-07
6.60981e-07
1.19046e-07
4.03739e-07
4.13858e-08
1.76531e-07
4.96562e-08
6.37043e-09
5.17969e-08
4.6543e-08
4.41241e-10
4.19432e-09
9.95898e-12
2.07994e-10
7.13261e-16
1.60672e-15
9.68212e-16
8.73931e-16
8.88358e-16
6.14403e-16
3.76978e-16
2.38185e-16
1.07999e-16
4.32424e-17
1.75821e-17
6.6388e-18
2.0897e-18
9.10987e-19
8.291e-19
1.52436e-18
6.37463e-18
2.87004e-17
2.16342e-16
1.65094e-15
1.67242e-14
1.66834e-13
1.63324e-12
1.58466e-11
1.38169e-10
9.2923e-10
5.04204e-09
2.2622e-08
8.93661e-08
3.07664e-07
8.92383e-07
2.14083e-06
1.9693e-06
4.44314e-06
1.70184e-06
4.04364e-06
1.20999e-06
3.2328e-06
6.54351e-07
2.0677e-06
2.3599e-07
9.59685e-07
2.81006e-07
3.52817e-08
2.91501e-07
2.58648e-07
2.35777e-09
2.24316e-08
5.20989e-11
1.0772e-09
3.88492e-15
7.416e-15
2.94495e-15
1.47121e-15
1.37467e-15
9.64129e-16
6.31223e-16
3.5028e-16
1.69326e-16
6.71344e-17
2.45492e-17
1.05351e-17
3.62089e-18
1.59778e-18
1.64359e-18
3.80718e-18
1.07313e-17
4.51892e-17
3.89787e-16
3.45921e-15
3.70359e-14
3.85616e-13
3.79561e-12
3.72053e-11
3.31984e-10
2.32565e-09
1.31531e-08
6.25534e-08
2.48832e-07
8.93288e-07
2.89209e-06
7.87437e-06
9.12892e-06
1.91926e-05
9.0723e-06
1.9255e-05
7.85654e-06
1.77376e-05
5.75332e-06
1.44025e-05
3.25737e-06
9.46081e-06
1.27187e-06
4.63648e-06
1.49736e-06
1.90508e-07
1.54232e-06
1.35922e-06
1.21699e-08
1.16151e-07
2.63116e-10
5.3637e-09
1.86057e-14
4.03826e-14
1.28218e-14
3.50486e-15
2.21923e-15
1.41185e-15
8.82455e-16
5.62029e-16
2.69146e-16
1.17163e-16
4.59359e-17
1.47593e-17
6.0979e-18
2.69428e-18
3.33134e-18
7.85047e-18
1.93129e-17
9.48906e-17
5.69928e-16
6.16633e-15
8.43574e-14
8.80385e-13
8.74655e-12
8.57893e-11
7.72001e-10
5.47877e-09
3.16583e-08
1.56636e-07
6.55917e-07
2.35465e-06
7.62228e-06
2.2997e-05
3.20809e-05
5.62676e-05
3.67165e-05
6.29671e-05
3.70031e-05
6.72782e-05
3.26201e-05
6.53761e-05
2.44605e-05
5.54043e-05
1.42675e-05
3.79816e-05
6.00464e-06
1.95813e-05
6.92355e-06
9.79896e-07
7.01351e-06
6.10103e-06
6.04795e-08
5.75705e-07
1.26177e-09
2.53599e-08
9.12025e-14
2.05828e-13
5.66732e-14
1.16699e-14
4.21224e-15
2.24578e-15
1.41564e-15
7.82883e-16
4.03134e-16
1.71354e-16
7.17255e-17
2.78783e-17
8.32844e-18
5.65953e-18
5.86608e-18
1.57787e-17
5.14318e-17
1.69708e-16
9.47859e-16
9.29036e-15
1.43056e-13
1.99061e-12
2.00403e-11
1.9466e-10
1.74764e-09
1.24619e-08
7.23577e-08
3.61593e-07
1.56714e-06
5.81581e-06
1.84483e-05
5.00452e-05
8.14617e-05
0.000117865
9.63778e-05
0.000135098
0.000106344
0.00015132
0.000110168
0.000162281
0.000104486
0.000163634
8.5762e-05
0.000151284
5.38626e-05
0.000120556
2.45089e-05
6.97829e-05
2.73915e-05
4.35444e-06
2.709e-05
2.32822e-05
2.86224e-07
2.56989e-06
5.70837e-09
1.14084e-07
3.89449e-13
8.87604e-13
2.48463e-13
4.4378e-14
8.81867e-15
3.97656e-15
2.01917e-15
1.11097e-15
5.96581e-16
2.3612e-16
1.0583e-16
4.2298e-17
1.85191e-17
8.87159e-18
1.6869e-17
3.79842e-17
1.1605e-16
3.11642e-16
1.37369e-15
1.36432e-14
2.11868e-13
3.4147e-12
4.30619e-11
4.3656e-10
3.86342e-09
2.7315e-08
1.59711e-07
7.86398e-07
3.45776e-06
1.29036e-05
4.03969e-05
0.000103549
0.00015493
0.000181434
0.000175795
0.000221047
0.00019855
0.00024599
0.000216537
0.000270648
0.000226453
0.000288775
0.000223442
0.000295225
0.000201453
0.000284721
0.000155023
0.000249972
8.26166e-05
0.00018395
8.85252e-05
1.67453e-05
8.58283e-05
7.394e-05
1.2674e-06
9.90105e-06
2.47262e-08
4.92883e-07
1.41343e-12
3.25388e-12
1.03403e-12
1.80382e-13
2.50699e-14
7.57362e-15
3.42094e-15
1.67898e-15
8.3116e-16
4.03747e-16
1.52414e-16
6.75247e-17
3.49112e-17
3.03307e-17
3.3567e-17
9.95112e-17
2.15373e-16
6.35737e-16
2.66323e-15
2.05041e-14
3.04967e-13
5.13228e-12
7.85447e-11
9.53075e-10
8.35623e-09
5.79479e-08
3.34162e-07
1.66736e-06
7.0076e-06
2.56638e-05
7.39058e-05
0.000166338
0.000309187
0.000258098
0.000321479
0.000292522
0.000338748
0.000322661
0.000371918
0.00034789
0.0004034
0.000363713
0.000427355
0.000364605
0.000438305
0.000343503
0.000430657
0.000292555
0.000396198
0.000203762
0.000325188
0.000211099
5.3617e-05
0.0002027
0.000176349
4.88784e-06
3.24582e-05
1.07054e-07
1.94925e-06
4.45681e-12
1.02219e-11
3.9604e-12
7.23737e-13
8.6067e-14
1.6513e-14
6.55022e-15
2.89349e-15
1.31192e-15
5.684e-16
2.19326e-16
1.10835e-16
5.82402e-17
7.59285e-17
1.15273e-16
2.21586e-16
5.38537e-16
1.64321e-15
5.29824e-15
3.39929e-14
4.15899e-13
7.47673e-12
1.22811e-10
1.71659e-09
1.71658e-08
1.17211e-07
6.65049e-07
3.19662e-06
1.32096e-05
4.39012e-05
0.000113938
0.000230882
0.000384396
0.000459884
0.000499193
0.000382135
0.000424617
0.000418404
0.000462835
0.00045455
0.000501287
0.000485002
0.00053703
0.000504936
0.000564078
0.000508902
0.000577431
0.000490047
0.000572052
0.000439702
0.000540349
0.000345436
0.000470765
0.000351449
0.000133198
0.000340438
0.000308823
1.69211e-05
9.00685e-05
5.20588e-07
7.5368e-06
1.32809e-11
2.80117e-11
1.31626e-11
2.78892e-12
3.26005e-13
4.29379e-14
1.24775e-14
5.06906e-15
2.16864e-15
7.90906e-16
3.9937e-16
2.04356e-16
1.73161e-16
1.86161e-16
2.57507e-16
6.00079e-16
1.26046e-15
3.62122e-15
1.29763e-14
6.5011e-14
5.8672e-13
9.79081e-12
1.75697e-10
2.73076e-09
2.97965e-08
2.19525e-07
1.20071e-06
5.64053e-06
2.20058e-05
6.7443e-05
0.00015771
0.000289478
0.00044832
0.000529463
0.000560913
0.000574141
0.000604411
0.000503694
0.000540952
0.000544017
0.000583495
0.000583263
0.000624147
0.0006155
0.00065988
0.000635853
0.000685526
0.000640666
0.000697242
0.000624264
0.000692213
0.000578751
0.000665393
0.000488476
0.0006036
0.000491584
0.00025677
0.000477014
0.000442188
5.2401e-05
0.000193593
1.99268e-06
2.33934e-05
3.87342e-11
7.1375e-11
3.88428e-11
9.74961e-12
1.27932e-12
1.36097e-13
2.80018e-14
1.0021e-14
3.6217e-15
1.25915e-15
5.95365e-16
3.70654e-16
4.24408e-16
5.07469e-16
9.63835e-16
1.90874e-15
3.97685e-15
1.11419e-14
3.66114e-14
1.47487e-13
9.28078e-13
1.2437e-11
2.38712e-10
4.05389e-09
4.6623e-08
3.61387e-07
2.04217e-06
9.08013e-06
3.33964e-05
9.41305e-05
0.000202349
0.000349379
0.000503209
0.000583915
0.000600932
0.000630075
0.000651219
0.000675196
0.000697557
0.00061861
0.000649242
0.000660285
0.000692197
0.000697922
0.000730557
0.000726369
0.000759117
0.000740759
0.00077244
0.000741219
0.000773366
0.000727968
0.00076613
0.000692306
0.000749036
0.000615837
0.00070706
0.000614503
0.000389469
0.000597777
0.000564636
0.000124779
0.000317391
6.06696e-06
5.8503e-05
9.65427e-11
1.75937e-10
1.01026e-10
3.02167e-11
4.70045e-12
4.935e-13
6.94446e-14
1.98042e-14
6.18181e-15
2.01029e-15
9.70026e-16
9.33737e-16
1.17328e-15
2.19613e-15
3.83472e-15
8.26987e-15
1.58992e-14
4.14205e-14
1.20726e-13
4.00417e-13
1.77309e-12
1.62849e-11
3.03773e-10
5.65604e-09
6.91364e-08
5.54353e-07
3.18081e-06
1.39324e-05
4.70804e-05
0.000122088
0.000243743
0.000401304
0.00054519
0.000643113
0.000665398
0.000680275
0.000713507
0.000723337
0.000757902
0.000767858
0.000719574
0.000741864
0.000757759
0.000779685
0.00078462
0.000803635
0.00079528
0.000811867
0.000794491
0.000808743
0.000788017
0.000800174
0.000778131
0.000791384
0.000759464
0.000781652
0.000711863
0.000763364
0.000706803
0.000512982
0.000691286
0.000663796
0.000222603
0.000435611
1.46465e-05
0.000114652
4.25937e-10
2.46208e-10
8.24822e-11
1.54766e-11
1.82316e-12
2.02723e-13
4.3212e-14
1.24816e-14
3.72707e-15
2.00598e-15
2.35074e-15
4.42072e-15
8.0182e-15
1.63866e-14
3.56688e-14
6.95836e-14
1.69527e-13
4.42642e-13
1.25431e-12
4.16473e-12
2.45079e-11
3.66526e-10
7.43286e-09
9.53906e-08
8.01718e-07
4.6757e-06
1.99641e-05
6.3425e-05
0.000150475
0.000282824
0.000439814
0.000551478
0.000627358
0.000695974
0.000668389
0.000721343
0.000713426
0.000767027
0.000759853
0.000803421
0.000798349
0.000794906
0.000802893
0.000816756
0.000824429
0.000823677
0.000830929
0.000818643
0.00082595
0.000808325
0.000812507
0.000796965
0.00079584
0.000788529
0.000783318
0.000781484
0.000779165
0.000762581
0.000778109
0.000756836
0.000617345
0.000746007
0.000727987
0.000325456
0.000539312
4.18699e-05
0.00018989
5.93664e-10
2.18007e-10
4.68822e-11
5.60225e-12
5.8487e-13
1.03708e-13
2.54983e-14
7.45064e-15
4.99441e-15
7.9457e-15
1.61385e-14
3.38281e-14
7.27399e-14
1.60691e-13
3.29194e-13
7.25902e-13
1.73946e-12
4.34766e-12
1.16869e-11
4.39027e-11
4.55453e-10
8.93535e-09
1.24066e-07
1.08671e-06
6.49909e-06
2.73051e-05
8.13701e-05
0.000179633
0.000317599
0.000463766
0.000545778
0.000592517
0.000640135
0.000606357
0.000688811
0.00064795
0.00074385
0.000720401
0.000786607
0.000766319
0.000815651
0.000800205
0.000826259
0.000823489
0.000834861
0.000833845
0.000829758
0.000828824
0.000812658
0.000808658
0.000789411
0.000778792
0.000769271
0.000749634
0.00076067
0.000732269
0.000766349
0.00073315
0.000773071
0.000754694
0.000767754
0.000691289
0.000762434
0.000754837
0.000738292
0.000425894
0.000624634
7.55114e-05
0.000267588
6.6854e-10
1.52569e-10
1.55999e-11
1.50226e-12
2.32825e-13
5.66052e-14
1.60039e-14
1.44819e-14
2.88864e-14
6.44428e-14
1.43064e-13
3.19867e-13
7.20985e-13
1.52684e-12
3.16177e-12
7.11332e-12
1.60644e-11
3.70963e-11
9.82296e-11
6.01919e-10
1.00063e-08
1.5057e-07
1.39488e-06
8.53848e-06
3.56046e-05
0.000101173
0.000208189
0.000349393
0.000478599
0.000535402
0.000556038
0.000521351
0.000601708
0.000543817
0.000646063
0.000587522
0.000736979
0.000696578
0.000774849
0.000738974
0.000792742
0.000761324
0.000828182
0.000815241
0.000822714
0.000809836
0.000799985
0.00078534
0.000764161
0.000744513
0.000725187
0.000695815
0.000696197
0.00065559
0.000687414
0.00063681
0.000706507
0.000641262
0.000744829
0.000684828
0.000719459
0.000757982
0.00073866
0.000748347
0.000702878
0.000737655
0.000757242
0.000742295
0.000739492
0.000755632
0.000515742
0.00072159
0.000695643
0.000635149
8.04967e-05
0.000341924
5.40678e-10
6.40382e-11
5.7062e-12
5.27367e-13
1.33366e-13
3.89894e-14
4.51325e-14
1.04106e-13
2.48248e-13
5.83207e-13
1.37498e-12
3.2029e-12
6.95899e-12
1.39773e-11
2.98899e-11
6.21258e-11
1.27439e-10
2.67468e-10
9.04072e-10
1.23924e-08
1.64459e-07
1.69771e-06
1.07431e-05
4.44471e-05
0.000121591
0.000237191
0.000377463
0.000489853
0.000530846
0.000528856
0.000455702
0.000408949
0.000365046
0.000524911
0.000462269
0.000566595
0.000492748
0.00069209
0.000634191
0.000720524
0.000669537
0.000721307
0.000675633
0.000788848
0.000759365
0.000763704
0.000734167
0.000718459
0.000685912
0.000661963
0.000621935
0.000610263
0.000560198
0.000580644
0.000527032
0.000572719
0.000563497
0.000530087
0.000649408
0.000610501
0.000538587
0.000573487
0.000675447
0.000710916
0.000672025
0.000636237
0.000710421
0.000751918
0.000745673
0.000746711
0.000720092
0.000713823
0.000749554
0.000660584
0.000520612
0.000610114
0.000734155
0.000714916
0.000167998
0.000549989
0.000469494
0.000355862
3.31075e-10
2.6827e-11
2.07415e-12
2.64008e-13
1.01113e-13
1.38076e-13
3.61637e-13
9.20711e-13
2.28112e-12
5.69204e-12
1.39069e-11
3.09431e-11
6.19286e-11
1.28086e-10
2.48612e-10
4.61745e-10
8.2603e-10
1.73039e-09
1.30148e-08
1.88989e-07
1.90172e-06
1.28626e-05
5.35976e-05
0.000141485
0.000265081
0.000403844
0.000499155
0.000528795
0.000510881
0.000416491
0.000263727
0.000294858
0.000242595
0.000418416
0.000350354
0.000454688
0.000371188
0.000607712
0.000535362
0.00062204
0.000559486
0.000599686
0.000543787
0.000696613
0.00065123
0.00064644
0.000598834
0.000575646
0.000527744
0.000514617
0.000479785
0.000482019
0.000455761
0.000505792
0.000485273
0.000471145
0.000463678
0.000508598
0.000485747
0.000499334
0.000482965
0.000596228
0.000555942
0.000493839
0.000521775
0.000627905
0.000671697
0.000625295
0.000585136
0.000674062
0.000749645
0.000746698
0.000727855
0.000680394
0.000689685
0.000735319
0.000684123
0.000639643
0.000739668
0.000726124
0.000399342
0.000226512
0.000317751
0.000582729
0.000515113
1.67925e-10
1.07915e-11
7.6794e-13
2.9968e-13
4.21917e-13
1.20012e-12
3.26667e-12
8.53872e-12
2.25021e-11
5.85143e-11
1.32913e-10
2.72193e-10
5.50944e-10
1.01906e-09
1.73575e-09
2.74333e-09
4.25657e-09
1.42178e-08
1.80225e-07
1.94382e-06
1.43782e-05
6.20612e-05
0.000161032
0.000290297
0.000427717
0.000506855
0.000527834
0.000500037
0.000396818
0.000243
0.000128408
0.00012143
0.000178551
0.000145866
0.000292682
0.000226971
0.000320779
0.000237197
0.000487469
0.000406769
0.000482499
0.000414877
0.000433202
0.000374974
0.00054589
0.000490006
0.000479821
0.000433594
0.000455587
0.000433035
0.00044749
0.000450548
0.000462475
0.000466344
0.000475336
0.000491395
0.000468937
0.000464572
0.000467038
0.000477771
0.000478727
0.000476328
0.000471445
0.000470003
0.000544362
0.000510069
0.000482626
0.000488121
0.000578979
0.000626747
0.000577918
0.000537248
0.000631867
0.00074093
0.000742696
0.000701155
0.000641
0.000653273
0.000713447
0.000702404
0.00066496
0.000739453
0.000731073
0.000448221
0.000282873
0.000381712
0.000614523
0.000555163
7.49653e-11
4.09086e-12
6.26567e-13
1.27103e-12
3.79137e-12
1.1018e-11
3.05359e-11
8.47584e-11
2.3542e-10
5.47069e-10
1.17082e-09
2.3514e-09
4.20575e-09
6.69628e-09
9.49009e-09
1.21581e-08
2.16703e-08
1.61814e-07
1.90654e-06
1.49599e-05
6.83667e-05
0.000178211
0.000315516
0.000445602
0.000512646
0.000526524
0.000491842
0.000387263
0.000236361
8.19173e-05
5.43815e-05
4.80795e-05
7.93697e-05
6.23207e-05
0.000164552
0.000111706
0.000182254
0.00011391
0.000340955
0.000261672
0.000314445
0.000251857
0.000301786
0.000255341
0.00038978
0.000346309
0.000408887
0.000382387
0.000461856
0.000469999
0.000509045
0.000531938
0.000555373
0.000586724
0.00049704
0.000521809
0.000551511
0.000585335
0.000474891
0.000491573
0.000517096
0.000550619
0.00048671
0.000481934
0.000505562
0.000501624
0.000504343
0.00049089
0.000504353
0.000490834
0.000534508
0.000581138
0.000536342
0.000505396
0.000588735
0.000724669
0.000732879
0.000668629
0.000600224
0.000615239
0.000685652
0.000714289
0.000685589
0.000735379
0.000730943
0.000493217
0.00032899
0.00043214
0.000642635
0.000589049
2.91198e-11
1.98555e-12
4.29594e-12
1.13846e-11
3.53434e-11
1.03971e-10
3.04189e-10
8.89636e-10
2.15342e-09
4.90138e-09
9.88131e-09
1.72248e-08
2.60454e-08
3.34776e-08
3.73934e-08
4.73896e-08
1.62378e-07
1.73497e-06
1.49049e-05
7.14601e-05
0.00019135
0.000335895
0.000459341
0.000513614
0.000522852
0.00048245
0.000377645
0.000230751
8.12926e-05
1.95284e-05
1.95009e-05
2.08336e-05
1.88569e-05
3.06013e-05
2.40293e-05
6.86219e-05
4.37057e-05
8.31936e-05
4.96612e-05
0.000189167
0.000131001
0.000208138
0.000161309
0.000282919
0.00024179
0.000353326
0.000319965
0.000474299
0.000471171
0.000677367
0.000733449
0.000620503
0.000655084
0.000685047
0.00069942
0.000591459
0.000637843
0.000688004
0.000739381
0.000531633
0.00057208
0.000621866
0.000678187
0.000533891
0.00053678
0.000579396
0.000581843
0.000497691
0.000502344
0.000566338
0.000525522
0.000510944
0.000542299
0.000519066
0.000505897
0.000551993
0.000702519
0.000716866
0.000633829
0.000564988
0.000581308
0.000654674
0.00072056
0.000700131
0.000726356
0.000728009
0.000530972
0.000341741
0.000455444
0.000665375
0.000615665
1.08622e-11
8.31409e-12
3.19464e-11
1.07384e-10
3.3581e-10
1.03887e-09
3.18096e-09
8.19831e-09
1.96646e-08
4.02788e-08
6.98313e-08
1.02282e-07
1.16993e-07
1.18375e-07
1.24664e-07
2.07209e-07
1.51443e-06
1.42676e-05
7.18942e-05
0.000198806
0.000350035
0.000465495
0.000511452
0.000517616
0.000467949
0.000361642
0.000219307
7.77223e-05
1.41779e-05
6.94615e-06
6.0824e-06
8.57889e-06
7.56644e-06
1.31063e-05
1.01487e-05
2.96059e-05
1.88223e-05
5.12061e-05
3.11086e-05
0.000117966
8.07238e-05
0.000198775
0.000155102
0.000404014
0.000358606
0.000461228
0.000437523
0.000760001
0.000766682
0.000957232
0.000986733
0.0010264
0.00100808
0.000789653
0.00083712
0.000881247
0.000920767
0.000739184
0.000801906
0.000864106
0.000923487
0.000638825
0.000704311
0.000774566
0.000846585
0.000627827
0.000640783
0.000704281
0.000713366
0.00051663
0.000547693
0.000677724
0.000602344
0.000515815
0.000528836
0.00052652
0.000530519
0.000539508
0.000676399
0.000696555
0.00060108
0.000551852
0.000564906
0.000624073
0.000722184
0.000708693
0.000712296
0.000721599
0.000555219
0.000306471
0.000441093
0.000681779
0.000635281
1.61717e-11
9.08698e-11
2.98959e-10
1.02596e-09
3.32345e-09
1.0717e-08
2.9507e-08
7.40889e-08
1.59773e-07
2.72944e-07
3.59485e-07
3.73383e-07
3.66431e-07
3.47375e-07
3.89722e-07
1.44463e-06
1.27128e-05
7.0547e-05
0.000200549
0.000358798
0.000464543
0.000506968
0.000505991
0.000443718
0.000333328
0.000192803
6.76225e-05
1.45022e-05
2.67185e-06
2.4405e-06
3.12112e-06
2.6097e-06
4.55362e-06
3.71703e-06
8.02931e-06
5.66882e-06
1.90222e-05
1.20725e-05
5.07273e-05
3.0892e-05
0.00011442
7.91486e-05
0.000306528
0.000248757
0.000687879
0.000623862
0.000764067
0.00073302
0.00103881
0.00105375
0.00112282
0.00113827
0.00116153
0.00118568
0.0011779
0.000978347
0.00102759
0.00107137
0.00110837
0.000918147
0.000986815
0.00105085
0.00110888
0.000791965
0.000873108
0.000953433
0.00103035
0.000767188
0.000789665
0.000864287
0.000879576
0.000570865
0.000637964
0.000826649
0.000725941
0.000543652
0.000536637
0.000556136
0.00059201
0.000547166
0.000649083
0.000673609
0.000580348
0.000557064
0.000567771
0.000599014
0.000721115
0.000712982
0.00069533
0.000711457
0.000561851
0.000238407
0.000383939
0.000692076
0.000648604
1.42437e-10
7.37819e-10
2.82296e-09
1.0086e-08
3.29449e-08
9.93545e-08
2.58088e-07
5.57077e-07
9.14683e-07
1.16087e-06
1.22269e-06
1.16908e-06
1.02418e-06
9.39243e-07
1.5891e-06
1.12869e-05
6.7973e-05
0.000199746
0.000359802
0.000460692
0.000497414
0.000484049
0.000410649
0.000295785
0.000157278
5.32989e-05
1.25881e-05
1.67381e-06
1.16002e-06
8.69161e-07
1.81741e-06
1.41721e-06
3.12611e-06
2.35722e-06
7.28858e-06
4.63216e-06
1.88266e-05
1.16435e-05
8.75386e-05
5.12401e-05
0.000190275
0.000134859
0.000547573
0.00045904
0.000986759
0.000904851
0.00110052
0.00104954
0.00118769
0.00118272
0.00130949
0.00129394
0.00129449
0.00131144
0.00132554
0.00132176
0.00116
0.00120392
0.00124132
0.00127142
0.00110235
0.0011679
0.00122626
0.00127697
0.000969013
0.00105475
0.00113484
0.00120776
0.00093368
0.00096295
0.00103972
0.00105861
0.000670558
0.000769261
0.000995955
0.000880518
0.000609166
0.000564664
0.000622376
0.000697583
0.000571839
0.000623047
0.000650663
0.00057766
0.000575226
0.000579481
0.000589622
0.000718288
0.000714221
0.000677213
0.000699766
0.000544478
0.000158444
0.000307349
0.000698195
0.000650699
1.46392e-09
6.83974e-09
2.72373e-08
9.90154e-08
2.94639e-07
8.0082e-07
1.71777e-06
2.88226e-06
3.79113e-06
4.08472e-06
3.76341e-06
3.10843e-06
2.45722e-06
2.37425e-06
1.06056e-05
6.29402e-05
0.000197501
0.000357736
0.000452276
0.000481436
0.000457056
0.00037311
0.000253019
0.00011948
3.9618e-05
9.07732e-06
1.56678e-06
4.98582e-07
3.78767e-07
7.03891e-07
5.38764e-07
1.28158e-06
9.28846e-07
2.81789e-06
1.80925e-06
8.76353e-06
4.91114e-06
2.73505e-05
1.47828e-05
0.000183714
0.000111036
0.000365552
0.00027128
0.000809478
0.000700377
0.00118306
0.0010934
0.00127641
0.00126091
0.00125904
0.00132515
0.00132037
0.00140091
0.00138122
0.00142112
0.00143062
0.00143362
0.00143411
0.00131979
0.00135508
0.0013838
0.00140563
0.001273
0.00132994
0.00137863
0.0014193
0.00114793
0.00122925
0.00130194
0.00136539
0.00110787
0.00113973
0.00121131
0.00123123
0.000805917
0.000926519
0.00116708
0.00105002
0.000716884
0.000628279
0.000728346
0.000833645
0.000627248
0.000605946
0.000630302
0.000585013
0.000619492
0.000609708
0.000592233
0.000713726
0.000714309
0.000659975
0.000687657
0.000498039
8.26726e-05
0.000220909
0.000701578
0.000640782
1.3395e-08
6.06446e-08
2.47762e-07