/*--------------------------------*- C++ -*----------------------------------*\
  =========                 |
  \\      /  F ield         | OpenFOAM: The Open Source CFD Toolbox
   \\    /   O peration     | Website:  https://openfoam.org
    \\  /    A nd           | Version:  dev
     \\/     M anipulation  |
\*---------------------------------------------------------------------------*/
FoamFile
{
    version     2.0;
    format      ascii;
    class       volScalarField;
    location    "2500";
    object      k;
}
// * * * * * * * * * * * * * * * * * * * * * * * * * * * * * * * * * * * * * //

dimensions      [0 2 -2 0 0 0 0];

internalField   nonuniform List<scalar> 
9851
(
0.000163639
0.000170437
0.000153727
0.000145366
0.000218889
0.000122932
0.000121854
0.000234377
0.000195493
0.000109458
0.000112028
0.000220889
0.00023694
0.000148269
0.000106005
0.000106227
0.000185898
0.000261301
0.000205552
0.000123815
0.000104117
0.000103328
0.000150103
0.000259981
0.000248519
0.000155865
0.000114631
0.000102745
0.00010169
0.000130571
0.000243563
0.000271217
0.000204387
0.000129394
0.000109873
0.000101842
0.0001008
0.000117464
0.000206383
0.000284021
0.000249225
0.000156626
0.000118229
0.000106621
0.000101189
0.000100295
0.00011002
0.000164839
0.000279214
0.000277275
0.000196789
0.000131146
0.000112182
0.000104312
0.000100701
9.99968e-05
0.0001057
0.000140839
0.000260098
0.000294104
0.000243267
0.000153316
0.000119365
0.000107998
0.000102662
0.00010033
9.96096e-05
0.000103224
0.00012469
0.000220315
0.000303061
0.000277499
0.000187163
0.000130212
0.000112527
0.000105011
0.000101482
0.000100065
9.92926e-05
0.000101735
0.000114967
0.000176577
0.000297009
0.00029913
0.000229517
0.00014825
0.000118735
0.000107853
0.000102857
0.000100561
9.98135e-05
9.90752e-05
0.000100777
0.000109192
0.000149831
0.000277165
0.000313998
0.000271204
0.000176561
0.000127715
0.000111789
0.000104575
0.000101278
9.9833e-05
9.96104e-05
9.89416e-05
0.000100149
0.000105763
0.000132032
0.000236826
0.000321891
0.000299718
0.000213338
0.000142518
0.000116861
0.00010706
0.000102199
0.000100007
9.92777e-05
9.9465e-05
9.88468e-05
9.96996e-05
0.000103716
0.000120676
0.000193312
0.000315866
0.00031871
0.000254557
0.000165403
0.000124597
0.000110224
0.000103651
0.000100403
9.89542e-05
9.88218e-05
9.93406e-05
9.88037e-05
9.93292e-05
0.000102373
0.000113792
0.000162429
0.000297223
0.000332288
0.000292163
0.000196717
0.000136279
0.00011477
0.00010564
0.000101039
9.8964e-05
9.82339e-05
9.84529e-05
9.92387e-05
9.88839e-05
9.9006e-05
0.000101396
0.000109393
0.00014302
0.000260186
0.000341414
0.000317944
0.000234206
0.000154763
0.000120808
0.000108397
0.00010215
9.9125e-05
9.76863e-05
9.76174e-05
9.81463e-05
9.91604e-05
9.89875e-05
9.85672e-05
0.000100497
0.000106461
0.000129587
0.000219069
0.000337572
0.000337218
0.0002726
0.000180494
0.000130368
0.000111918
0.000103835
9.95614e-05
9.75398e-05
9.67914e-05
9.71207e-05
9.78982e-05
9.91013e-05
9.90739e-05
9.81211e-05
9.96227e-05
0.000104252
0.000120604
0.000182272
0.00032376
0.000350841
0.000308808
0.000212474
0.000144423
0.000116997
0.000106101
0.000100485
9.76567e-05
9.62284e-05
9.60932e-05
9.67165e-05
9.77043e-05
9.90552e-05
9.91549e-05
9.76887e-05
9.88713e-05
0.000102533
0.000114424
0.000159614
0.000295285
0.00036287
0.000334477
0.000247831
0.000165148
0.00012426
0.000109084
0.000101964
9.80215e-05
9.60802e-05
9.52727e-05
9.55199e-05
9.63888e-05
9.75475e-05
9.90226e-05
9.92026e-05
9.72997e-05
9.81886e-05
0.000101162
0.000110152
0.000143667
0.000256656
0.000365179
0.000355585
0.000285025
0.000190843
0.000135431
0.00011315
0.000103807
9.88232e-05
9.61915e-05
9.48184e-05
9.45038e-05
9.50485e-05
9.61232e-05
9.7428e-05
9.90033e-05
9.92177e-05
9.70223e-05
9.75871e-05
0.000100015
0.000107125
0.000132226
0.000218686
0.00035815
0.000370639
0.000320899
0.000222186
0.000150751
0.000118961
0.000106216
9.99935e-05
9.65226e-05
9.47158e-05
9.38309e-05
9.38879e-05
9.46806e-05
9.5921e-05
9.73478e-05
9.89984e-05
9.92181e-05
9.6883e-05
9.70437e-05
9.90424e-05
0.000104905
0.000124339
0.000188086
0.000339778
0.000385083
0.0003493
0.000254871
0.00017158
0.000127102
0.000109443
0.000101518
9.71776e-05
9.4824e-05
9.35014e-05
9.30527e-05
9.3409e-05
9.44052e-05
9.57778e-05
9.72947e-05
9.90104e-05
9.91956e-05
9.67305e-05
9.64035e-05
9.81479e-05
0.0001032
0.000118927
0.000168892
0.000310725
0.000395456
0.000372404
0.000291575
0.000196691
0.000138631
0.000113825
0.000103448
9.8103e-05
9.50984e-05
9.33901e-05
9.25363e-05
9.24635e-05
9.30512e-05
9.4198e-05
9.5674e-05
9.72701e-05
9.90394e-05
9.91664e-05
9.65698e-05
9.58385e-05
9.73597e-05
0.000101813
0.000115174
0.000155699
0.000277228
0.000394671
0.000391616
0.000326422
0.000226031
0.000154377
0.000119897
0.000105898
9.93207e-05
9.5576e-05
9.34705e-05
9.22658e-05
9.18355e-05
9.20077e-05
9.27776e-05
9.40615e-05
9.56212e-05
9.72878e-05
9.90927e-05
9.9149e-05
9.64083e-05
9.53165e-05
9.67155e-05
0.000100731
0.000112565
0.000146491
0.00024669
0.000388347
0.000405915
0.000359729
0.000257802
0.000174379
0.000128458
0.000109227
0.000100807
9.6323e-05
9.36785e-05
9.21768e-05
9.14478e-05
9.12864e-05
9.16733e-05
9.26207e-05
9.40227e-05
9.56262e-05
9.73414e-05
9.91663e-05
9.91334e-05
9.62027e-05
9.48179e-05
9.61321e-05
9.99542e-05
0.000110776
0.000140269
0.000222155
0.00037392
0.000418494
0.000384963
0.000290064
0.000198014
0.000140066
0.000113811
0.000102727
9.72921e-05
9.40863e-05
9.2249e-05
9.12284e-05
9.08228e-05
9.09013e-05
9.14967e-05
9.26107e-05
9.40736e-05
9.57077e-05
9.74429e-05
9.92768e-05
9.91116e-05
9.59689e-05
9.43633e-05
9.55674e-05
9.93971e-05
0.000109706
0.000136375
0.000204183
0.000354842
0.000427089
0.000404907
0.000324091
0.000224032
0.000154721
0.000120071
0.000105278
9.84885e-05
9.47238e-05
9.24283e-05
9.1154e-05
9.05289e-05
9.03858e-05
9.07008e-05
9.15039e-05
9.27519e-05
9.42652e-05
9.5902e-05
9.76046e-05
9.94383e-05
9.9081e-05
9.57087e-05
9.39596e-05
9.50878e-05
9.89772e-05
0.000109306
0.000134396
0.000193479
0.00033585
0.000431738
0.000420779
0.000354624
0.00025213
0.000172655
0.000128207
0.000108663
9.99989e-05
9.54997e-05
9.27691e-05
9.12103e-05
9.03712e-05
9.00465e-05
9.01532e-05
9.06976e-05
9.17019e-05
9.30693e-05
9.46296e-05
9.62366e-05
9.78549e-05
9.96498e-05
9.90407e-05
9.53863e-05
9.36617e-05
9.47318e-05
9.87996e-05
0.000109433
0.000134113
0.000187865
0.00031822
0.000431388
0.000433193
0.000382084
0.000280114
0.000193308
0.000138668
0.000113048
0.000101934
9.64253e-05
9.32363e-05
9.13482e-05
9.03252e-05
8.98394e-05
8.97847e-05
9.01234e-05
9.08745e-05
9.20958e-05
9.36171e-05
9.52552e-05
9.67831e-05
9.82954e-05
9.98834e-05
9.89929e-05
9.50524e-05
9.34815e-05
9.45275e-05
9.89378e-05
0.000110209
0.000135386
0.000185767
0.000304966
0.000429066
0.000445696
0.000405204
0.000306502
0.000215406
0.000151539
0.000118691
0.000104347
9.75334e-05
9.38296e-05
9.16018e-05
9.03691e-05
8.97181e-05
8.95298e-05
8.97144e-05
9.02675e-05
9.12965e-05
9.27876e-05
9.45777e-05
9.62669e-05
9.77355e-05
9.92415e-05
0.000100398
9.88948e-05
9.47594e-05
9.34432e-05
9.45496e-05
9.94807e-05
0.000111806
0.000139587
0.000186582
0.000295766
0.000424412
0.00045673
0.000424097
0.000333036
0.000237701
0.000166511
0.000125872
0.000107343
9.89146e-05
9.44947e-05
9.19784e-05
9.04798e-05
8.96808e-05
8.9331e-05
8.9393e-05
8.98613e-05
9.07302e-05
9.20734e-05
9.39381e-05
9.60745e-05
9.78151e-05
9.93485e-05
0.000100587
0.000101225
9.87386e-05
9.46025e-05
9.36099e-05
9.48848e-05
0.000100605
0.000114419
0.000145262
0.000190184
0.000289399
0.00041927
0.000465742
0.00044018
0.000358315
0.000259375
0.00018291
0.000134712
0.000111196
0.000100583
9.53679e-05
9.24302e-05
9.06928e-05
8.97092e-05
8.92144e-05
8.91442e-05
8.95522e-05
9.03802e-05
9.15958e-05
9.33689e-05
9.58049e-05
9.82601e-05
0.000100163
0.000101347
0.00010207
0.000101147
0.000102291
9.85287e-05
9.46428e-05
9.4018e-05
9.57222e-05
0.000102747
0.000118742
0.000152722
0.000196825
0.000285048
0.000413391
0.000473014
0.000453834
0.000381243
0.000280484
0.000199783
0.000145088
0.000116095
0.000102738
9.64322e-05
9.29897e-05
9.09834e-05
8.97865e-05
8.91704e-05
8.89939e-05
8.93073e-05
9.01234e-05
9.13362e-05
9.30376e-05
9.54267e-05
9.86222e-05
0.00010183
0.000104042
0.000103974
0.000102668
0.000103221
0.000101263
0.000102455
9.83014e-05
9.48875e-05
9.45995e-05
9.71349e-05
0.000105993
0.000125687
0.000162091
0.000204389
0.000283471
0.000406846
0.000477595
0.000465584
0.000401738
0.000300326
0.000216621
0.000156534
0.000122081
0.000105512
9.77281e-05
9.36965e-05
9.13174e-05
8.9926e-05
8.91605e-05
8.89392e-05
8.91822e-05
8.99214e-05
9.11602e-05
9.28495e-05
9.53805e-05
9.8886e-05
0.000102932
0.000106916
0.000105995
0.000108178
0.0001044
0.00010756
0.000107141
0.000103025
0.000103829
0.000101288
0.000102652
9.81108e-05
9.53356e-05
9.54403e-05
9.94426e-05
0.00011116
0.000136059
0.000172218
0.000212084
0.000283404
0.000399966
0.000478423
0.000474513
0.000419872
0.000318692
0.000232757
0.000168469
0.00012892
0.000108896
9.93284e-05
9.4526e-05
9.17666e-05
9.01066e-05
8.9215e-05
8.89228e-05
8.91216e-05
8.97868e-05
9.10328e-05
9.29012e-05
9.5486e-05
9.91397e-05
0.00010372
0.000108592
0.000109958
0.000111502
0.000110147
0.00010557
0.000110416
0.000108822
0.000103421
0.000104477
0.000101357
0.00010285
9.79638e-05
9.59883e-05
9.6874e-05
0.000103045
0.000119203
0.000148564
0.000181773
0.000219055
0.000283625
0.00039287
0.00047737
0.000479975
0.000435351
0.000335124
0.000247806
0.000180436
0.000136288
0.000112764
0.00010122
9.55097e-05
9.23341e-05
9.03818e-05
8.9339e-05
8.89899e-05
8.9179e-05
8.98386e-05
9.10894e-05
9.30485e-05
9.57671e-05
9.94876e-05
0.00010425
0.000109409
0.000112423
0.000113153
0.000112407
0.000114168
0.000113365
0.000106785
0.000112466
0.000110672
0.000103764
0.000105112
0.000101463
0.000103034
9.79762e-05
9.68571e-05
9.90637e-05
0.000108494
0.000130741
0.000161272
0.000190523
0.000224585
0.00028336
0.0003855
0.000474126
0.000482836
0.000446964
0.000349754
0.000261296
0.000192072
0.000143979
0.000116998
0.000103432
9.66283e-05
9.29898e-05
9.07544e-05
8.95685e-05
8.91573e-05
8.93231e-05
8.99837e-05
9.12575e-05
9.33402e-05
9.62793e-05
0.000100211
0.000105244
0.000110786
0.000113775
0.000115018
0.000115367
0.000116557
0.000115642
0.000117381
0.000115627
0.000108107
0.00011466
0.000112563
0.00010406
0.000105736
0.000101572
0.000103194
9.82071e-05
9.79247e-05
0.000102219
0.0001167
0.000143865
0.000171817
0.000197405
0.00022807
0.000282125
0.00037769
0.000467283
0.000483041
0.000454082
0.000363242
0.000273159
0.000202976
0.000151855
0.000121488
0.000105842
9.80196e-05
9.37455e-05
9.12518e-05
8.99368e-05
8.94674e-05
8.95634e-05
9.02613e-05
9.15689e-05
9.38344e-05
9.72135e-05
0.000101714
0.00010797
0.000115522
0.000117564
0.00012334
0.000118841
0.000123929
0.000119304
0.000123333
0.000118093
0.000121133
0.000118
0.000109486
0.000116642
0.00011397
0.000104314
0.000106347
0.000101684
0.000103347
9.85551e-05
9.93502e-05
0.000107009
0.000128392
0.000156528
0.000179943
0.000201728
0.000229335
0.000279672
0.000369343
0.000458561
0.000481596
0.000457923
0.000374091
0.000283374
0.000212862
0.000159643
0.000126183
0.00010847
9.94898e-05
9.46846e-05
9.19044e-05
9.04584e-05
8.98886e-05
8.99712e-05
9.05808e-05
9.20049e-05
9.44415e-05
9.86419e-05
0.000105176
0.000116237
0.000134512
0.000135371
0.000161701
0.000135328
0.000159873
0.000132692
0.000154369
0.000127871
0.000144102
0.000122371
0.000132628
0.000122341
0.000110241
0.000120617
0.000117013
0.000104517
0.0001067
0.000101807
0.000103474
9.90355e-05
0.000101668
0.0001146
0.000141605
0.000166134
0.000185148
0.000203435
0.000228897
0.000276201
0.000360653
0.000448402
0.00047705
0.000458231
0.000382173
0.00029168
0.000221459
0.000167106
0.000130982
0.000111181
0.000101143
9.5759e-05
9.27382e-05
9.11231e-05
9.04547e-05
9.04925e-05
9.11655e-05
9.25384e-05
9.54724e-05
0.000101212
0.000113095
0.000139186
0.000196363
0.000210172
0.000313954
0.000211379
0.000313862
0.00020191
0.00030083
0.000182735
0.000269662
0.000158839
0.000222541
0.000136518
0.000174874
0.000138253
0.00011207
0.00013645
0.000130435
0.000104693
0.000107807
0.000101944
0.000103495
9.96586e-05
0.000105323
0.000126043
0.000154478
0.000172857
0.000187517
0.000203161
0.000226728
0.000272063
0.000351847
0.00043742
0.000469486
0.000456737
0.000386958
0.00029813
0.000228538
0.00017397
0.000135773
0.000113945
0.000102755
9.69542e-05
9.37138e-05
9.19773e-05
9.11678e-05
9.11916e-05
9.1956e-05
9.35404e-05
9.7308e-05
0.000106844
0.000130988
0.000193163
0.000348536
0.000441238
0.000676895
0.000486465
0.000730885
0.000487672
0.000768456
0.000448062
0.000750928
0.000369352
0.000664037
0.000272802
0.000499825
0.000189883
0.000328155
0.000198942
0.000121407
0.000197395
0.000183576
0.000105278
0.000113309
0.000102047
0.000103676
0.000100373
0.000111011
0.000139476
0.000163902
0.00017647
0.000187474
0.000200913
0.000223552
0.000267457
0.000343542
0.000426273
0.000460594
0.00045224
0.000389328
0.000302484
0.00023405
0.000180089
0.000140301
0.00011672
0.000104395
9.81442e-05
9.47565e-05
9.29729e-05
9.20523e-05
9.20756e-05
9.29779e-05
9.5192e-05
0.000100754
0.000118698
0.000171133
0.000307812
0.000637995
0.000900327
0.00122374
0.00103216
0.00134738
0.00110967
0.00147155
0.00114085
0.00155778
0.00109606
0.00157627
0.000940525
0.00149069
0.000654818
0.00124795
0.000379371
0.000813397
0.000409076
0.000160257
0.000403617
0.000364287
0.000108123
0.00013734
0.0001021
0.000104956
0.000101512
0.000119759
0.000153228
0.000170156
0.000177425
0.000185223
0.000197356
0.000219681
0.000262813
0.000336009
0.000415689
0.000450975
0.000445149
0.000388979
0.000305026
0.000237995
0.000185053
0.000144548
0.00011913
0.000105894
9.92234e-05
9.57877e-05
9.40201e-05
9.31405e-05
9.3129e-05
9.42875e-05
9.78435e-05
0.000107685
0.000142109
0.00025227
0.000531609
0.00109109
0.00149348
0.00173831
0.00166059
0.0019595
0.0018157
0.00212396
0.00195025
0.00229947
0.00203853
0.00245075
0.00204253
0.00254063
0.00190325
0.00251949
0.00155349
0.00230972
0.000944298
0.00182156
0.00101083
0.000298495
0.000986267
0.000888542
0.000120736
0.000225352
0.00010214
0.000110601
0.000103233
0.000131669
0.000165488
0.000174099
0.000176814
0.000181832
0.000193198
0.000215407
0.000258011
0.000329402
0.000406041
0.000441306
0.000437033
0.000387137
0.000305075
0.000240467
0.000188896
0.000148071
0.000121494
0.00010702
0.00010009
9.66993e-05
9.50726e-05
9.43234e-05
9.44584e-05
9.6014e-05
0.00010138
0.000121157
0.000188454
0.000395102
0.00086235
0.00159157
0.00247544
0.0021912
0.00253122
0.00239407
0.00263135
0.0025983
0.00285188
0.00280193
0.00310094
0.00297447
0.0033468
0.00306621
0.00354068
0.00300354
0.00362064
0.00269434
0.00349204
0.00202935
0.00303657
0.00214992
0.000706224
0.00214143
0.0019669
0.000168073
0.000492542
0.000103649
0.00013145
0.000105485
0.000144344
0.000174874
0.000176642
0.000175378
0.000178588
0.000188843
0.000211026
0.000253863
0.000324473
0.000397773
0.000432123
0.000428453
0.000382904
0.00030441
0.000241111
0.000191497
0.000151121
0.000123152
0.00010799
0.000100658
9.74179e-05
9.6097e-05
9.55749e-05
9.61282e-05
9.82269e-05
0.000106821
0.000140688
0.000262825
0.000604244
0.00125766
0.0020665
0.00286017
0.00317056
0.00335305
0.00283921
0.00302245
0.00306993
0.00326599
0.00335418
0.00357047
0.00366178
0.00393314
0.00395435
0.00431367
0.00416617
0.00464621
0.00420877
0.00485348
0.00397217
0.00482172
0.00331541
0.00441291
0.00349857
0.00160332
0.00354578
0.00339396
0.000320999
0.00117042
0.000109888
0.000208847
0.000107898
0.000156404
0.000182574
0.000179089
0.000174308
0.000175592
0.000184771
0.000207196
0.000251485
0.000322345
0.000392004
0.000424157
0.000419954
0.000377147
0.000302502
0.000240777
0.00019326
0.000153243
0.000124809
0.000108555
0.000100894
9.78536e-05
9.69556e-05
9.69142e-05
9.80641e-05
0.000101516
0.000114739
0.000170685
0.000365894
0.000864741
0.00166022
0.00246772
0.00316839
0.00349142
0.00365687
0.00374368
0.00388841
0.00344018
0.00359657
0.00375956
0.00393224
0.00416468
0.0043632
0.0046198
0.00488755
0.00507431
0.00544591
0.00543211
0.00594753
0.00558955
0.00628886
0.00542611
0.00634788
0.00478626
0.00597933
0.00505422
0.00300194
0.00515519
0.00501963
0.000768803
0.0024136
0.000130393
0.000423689
0.000110783
0.000165692
0.000188609
0.000181889
0.000173427
0.000173038
0.000181639
0.000204787
0.000251054
0.000322298
0.000389532
0.000418273
0.000412295
0.000370792
0.000299061
0.000239719
0.000194013
0.000155213
0.000125793
0.000108849
0.000100883
9.79711e-05
9.76431e-05
9.82272e-05
0.000100138
0.000105743
0.000126748
0.000211419
0.000498299
0.00114409
0.00202226
0.00277837
0.0034432
0.00379862
0.00390095
0.00402884
0.00417028
0.00435276
0.00447748
0.00408656
0.00422307
0.00453583
0.00469113
0.00511169
0.00529729
0.00576221
0.00602459
0.00640079
0.00678081
0.00690522
0.00744198
0.00716382
0.00789375
0.0070615
0.00802584
0.00644901
0.00770387
0.006783
0.00462521
0.00691719
0.0067907
0.00168211
0.00395519
0.000192954
0.000920347
0.000123351
0.000171895
0.000191874
0.000183811
0.000172345
0.000171144
0.000179796
0.000204262
0.000251882
0.000323497
0.000389337
0.000414956
0.00040617
0.000364431
0.000294996
0.000237669
0.000194368
0.000156482
0.000126976
0.000108838
0.000100605
9.78764e-05
9.80617e-05
9.94804e-05
0.000102464
0.000110638
0.000142526
0.000267352
0.000652018
0.00142147
0.00231282
0.00301466
0.00367086
0.00436046
0.004293
0.00449148
0.00459589
0.00470506
0.00502664
0.00510204
0.00482335
0.00493332
0.00544787
0.00557065
0.00622776
0.00637381
0.00707571
0.00727955
0.00786941
0.00818031
0.0084895
0.00894672
0.00883279
0.00947271
0.00879217
0.00967243
0.00822541
0.00944278
0.00858712
0.00637465
0.00873025
0.00860667
0.00298809
0.00563317
0.000327986
0.00178193
0.000189536
0.000192585
0.000183952
0.000170926
0.000169813
0.000179156
0.000204957
0.000255269
0.000327539
0.000390554
0.00041396
0.000401892
0.000358536
0.000290616
0.00023531
0.000194106
0.00015795
0.000127697
0.000108671
9.97397e-05
9.73586e-05
9.81427e-05
0.000100543
0.000104823
0.000116596
0.000163035
0.000336501
0.000826377
0.00167684
0.0025281
0.00317892
0.00386938
0.00453075
0.00491972
0.00489743
0.00480642
0.00489148
0.0051666
0.00520403
0.0057119
0.00568368
0.00565293
0.00569911
0.00646161
0.00650239
0.00740482
0.00743768
0.00836387
0.00841039
0.00922467
0.00929559
0.00989387
0.0100459
0.0102997
0.01061
0.0103787
0.0109573
0.00995856
0.0109561
0.0103193
0.00818044
0.0104814
0.0103561
0.00451545
0.00740249
0.000786405
0.00293209
0.000199439
0.000183232
0.000169938
0.000168915
0.000179215
0.000207647
0.000261581
0.000335691
0.000395129
0.000414522
0.000399422
0.000353323
0.000286452
0.000232765
0.000193835
0.0001592
0.000128575
0.000108479
9.86863e-05
9.61306e-05
9.79393e-05
0.000101382
0.000107187
0.000123586
0.000188971
0.00042147
0.00101157
0.00190014
0.00266547
0.00327076
0.00400103
0.00453203
0.00486745
0.00480206
0.00507116
0.00498104
0.00518905
0.00514498
0.00560036
0.00546948
0.00620734
0.00597747
0.00647334
0.00638317
0.0073844
0.00722495
0.00831268
0.00810323
0.00918831
0.00894425
0.00996445
0.00972542
0.0106108
0.0104164
0.0111074
0.0110016
0.0114552
0.0114982
0.0114161
0.011854
0.011755
0.00995606
0.0119315
0.011874
0.0110623
0.00617345
0.00916034
0.00138027
0.00431429
0.000186169
0.00016985
0.000168734
0.000179881
0.000211805
0.000270244
0.000346074
0.000405569
0.000417945
0.000398886
0.000349202
0.000282712
0.000231062
0.000193897
0.000160778
0.000130266
0.000108493
9.76819e-05
9.46661e-05
9.71042e-05
0.000101957
0.000110063
0.000131642
0.000219044
0.000520126
0.00120403
0.00208743
0.00274494
0.00330229
0.00403952
0.00449304
0.00466761
0.00487353
0.00470703
0.00500532
0.00478912
0.00533045
0.00518312
0.00574091
0.00549568
0.00634169
0.00598435
0.00697398
0.00666916
0.00780104
0.00745464
0.00862233
0.00823267
0.00937448
0.00891226
0.0100373
0.00946935
0.0106147
0.0099272
0.0111699
0.0104425
0.0118088
0.0111201
0.0122197
0.0118714
0.0120813
0.0122451
0.0124299
0.0118297
0.0106057
0.0116365
0.0124397
0.0127163
0.0126222
0.0124673
0.00790092
0.0114181
0.0110041
0.00973506
0.00173122
0.00631537
0.0001729
0.000169334
0.000181398
0.000216702
0.000280015
0.000359716
0.000418596
0.000427649
0.000400138
0.000346692
0.000279814
0.000230151
0.000194697
0.000163464
0.000132149
0.00010913
9.70218e-05
9.34124e-05
9.59762e-05
0.000102298
0.000113074
0.000140695
0.000253055
0.000630038
0.00140507
0.00224523
0.00277686
0.00330552
0.00403575
0.00444275
0.00448612
0.00403552
0.00388311
0.00454986
0.00428225
0.00457599
0.00421144
0.00522229
0.00491507
0.00559143
0.00516951
0.00611373
0.00557357
0.00706027
0.00661563
0.00776851
0.00723257
0.00834249
0.00770702
0.00875194
0.00796198
0.00903425
0.00805204
0.00935933
0.008132
0.00987793
0.00940431
0.00864679
0.0114815
0.0109291
0.00945331
0.0102319
0.0120154
0.0123934
0.0121103
0.0115261
0.0125735
0.0124281
0.0123078
0.0128194
0.0128892
0.0127447
0.012889
0.0105704
0.0084878
0.0099468
0.012086
0.0117544
0.00361658
0.00933789
0.00825589
0.00657496
0.000173442
0.00018355
0.000222381
0.000291452
0.000374636
0.000435848
0.00044169
0.000405601
0.000346113
0.000278064
0.00023012
0.000196786
0.000166908
0.000136435
0.000110784
9.69578e-05
9.26162e-05
9.50857e-05
0.000102374
0.000115372
0.000149216
0.000289435
0.000747811
0.00161019
0.00236985
0.00278773
0.00330607
0.00403781
0.00443964
0.0043898
0.00325056
0.00319312
0.00288682
0.0038416
0.00348885
0.00377071
0.00328359
0.0047231
0.00425502
0.00501159
0.00443458
0.00538564
0.00472583
0.00664837
0.00602982
0.00702683
0.00632301
0.00714441
0.00637218
0.00706636
0.00623288
0.00696662
0.00605434
0.0079818
0.00735184
0.00676884
0.00629718
0.00858615
0.0077993
0.00814963
0.0074908
0.0108815
0.0100705
0.00827588
0.00919147
0.0116007
0.0122682
0.0117007
0.0108529
0.0124474
0.0129093
0.0128577
0.0130286
0.0126409
0.0128419
0.0131393
0.011322
0.0107593
0.0127027
0.012433
0.00725913
0.00478576
0.00615225
0.00998642
0.00896177
0.000189387
0.000227201
0.00030371
0.00039359
0.000456003
0.000459418
0.000417662
0.000347338
0.00027774
0.000230845
0.000200129
0.000173118
0.000141435
0.000114771
9.76349e-05
9.24338e-05
9.45709e-05
0.000102127
0.000116493
0.00015608
0.000324355
0.000864487
0.00180606
0.00247104
0.00279753
0.0033129
0.00405585
0.00445903
0.00438046
0.00317352
0.00179483
0.00176518
0.00215173
0.00193088
0.00282811
0.0024438
0.00269643
0.00215174
0.00385078
0.00326813
0.00405833
0.00339259
0.00427936
0.00362279
0.0056217
0.00494108
0.00566715
0.00506726
0.00566414
0.00529016
0.00557035
0.00536727
0.00591402
0.00565864
0.005496
0.00540815
0.00686844
0.00632661
0.00593031
0.00565683
0.00743045
0.00670534
0.00704028
0.00647473
0.00995658
0.00897283
0.00713431
0.0080057
0.0108732
0.0118525
0.0109601
0.00988819
0.0120538
0.0132228
0.0132519
0.0130582
0.012296
0.012569
0.013251
0.0120296
0.0114318
0.0131977
0.0130093
0.00805927
0.0062468
0.00759777
0.0106068
0.00967545
0.000235361
0.000315322
0.000414965
0.000480537
0.000483497
0.000431441
0.000353982
0.000278576
0.000233434
0.000206064
0.000180597
0.000150607
0.000120281
0.000100517
9.29343e-05
9.44741e-05
0.000101668
0.000116801
0.000160376
0.00035349
0.000971653
0.00197957
0.00256098
0.00282203
0.00333683
0.004103
0.00450618
0.00439568
0.00313514
0.00130973
0.000981119
0.000919959
0.00117354
0.00105116
0.00170136
0.00137503
0.00163863
0.0012608
0.00275074
0.00215458
0.00300053
0.00243287
0.00358643
0.00309173
0.00455859
0.00407468
0.00497387
0.00464298
0.00527236
0.00519024
0.00536969
0.00538003
0.00542232
0.00553498
0.0054986
0.00542664
0.00541782
0.00546029
0.00600912
0.00570424
0.00553475
0.00547819
0.00644654
0.00616694
0.00597128
0.00580271
0.00882014
0.00779077
0.00626952
0.00691508
0.0098872
0.0111168
0.00997002
0.00873729
0.0113504
0.0134016
0.013494
0.0128655
0.0116463
0.0120075
0.0131531
0.0126282
0.01201
0.0135283
0.0134281
0.0090022
0.00815528
0.00926084
0.011212
0.0104253
0.0003301
0.000435231
0.00051347
0.000509201
0.000454756
0.000362917
0.000283316
0.000237055
0.000213217
0.000194019
0.000162071
0.000131303
0.000108357
9.55182e-05
9.50005e-05
0.00010171
0.000117229
0.000162594
0.000372828
0.00106114
0.00212959
0.00264674
0.00286745
0.00339457
0.00418286
0.00456833
0.00440916
0.00308399
0.0012803
0.000627595
0.000624804
0.000650789
0.000622436
0.000749107
0.000688402
0.00100616
0.000846464
0.00118069
0.000945409
0.00193055
0.00151064
0.00259996
0.00213581
0.00357421
0.00316585
0.00431072
0.00395589
0.00513077
0.00506227
0.00590813
0.00627373
0.00556113
0.00569021
0.00582983
0.00591112
0.00548526
0.00557088
0.00572333
0.00591621
0.00559801
0.00553077
0.0055378
0.00564325
0.00587833
0.00570615
0.00570959
0.00560301
0.00765258
0.00677275
0.00587939
0.00617384
0.00874274
0.0101387
0.00883729
0.00759774
0.0104068
0.0134229
0.0136268
0.0124227
0.0107625
0.0112117
0.0128586
0.0131103
0.0125407
0.0137167
0.0136913
0.0101368
0.00981256
0.0110014
0.0118357
0.0113001
0.000470116
0.000540002
0.000551149
0.000476415
0.000382325
0.000289919
0.000244817
0.000226976
0.000208257
0.000183158
0.000149259
0.000120827
0.000103065
9.77911e-05
0.000102907
0.000118623
0.000164576
0.000381808
0.00112739
0.0022521
0.00272857
0.00293139
0.0034747
0.0042689
0.00462624
0.00439722
0.00296693
0.00122419
0.000566975
0.000518572
0.000501828
0.000558439
0.000534431
0.000632193
0.000589589
0.000790822
0.000693804
0.00109731
0.00089693
0.00171995
0.0013725
0.00273896
0.00230831
0.00456576
0.0042058
0.00497251
0.00481778
0.00655094
0.00670101
0.00711605
0.0073527
0.00776601
0.00755854
0.00613866
0.00637631
0.00662204
0.00686675
0.0058196
0.00604462
0.00630439
0.0065819
0.00559472
0.00568676
0.00587002
0.00611133
0.00577572
0.00567016
0.00577436
0.00571851
0.0067039
0.00617041
0.00588135
0.00594073
0.00763411
0.00902976
0.00775816
0.00671364
0.00933731
0.0132582
0.0135856
0.0117428
0.0097519
0.0102822
0.012317
0.013485
0.0130524
0.0138103
0.0138462
0.011442
0.0108311
0.0124203
0.0125313
0.0123703
0.000599507
0.000584093
0.000518897
0.00039923
0.000304608
0.000254486
0.000240243
0.000232767
0.0002054
0.000172671
0.000138189
0.000116457
0.000105899
0.000107654
0.000122698
0.000168401
0.000384618
0.00116679
0.00234941
0.00280675
0.00300223
0.00356576
0.0043389
0.00466224
0.00433891
0.00277039
0.00114092
0.000562549
0.000473322
0.000456995
0.000497696
0.000480531
0.00054369
0.00051804
0.000616433
0.000575339
0.000761119
0.000673482
0.00121538
0.000976236
0.00189671
0.00152759
0.00375415
0.00322387
0.00645912
0.00604292
0.00675845
0.00669628
0.00793325
0.00812355
0.00871362
0.00794984
0.00818922
0.00860274
0.00840966
0.00686623
0.0071492
0.00742898
0.00769683
0.00639017
0.00668967
0.00699783
0.00730514
0.00588752
0.00613532
0.00642672
0.00673767
0.00591587
0.00589284
0.0061014
0.00612452
0.00623603
0.00604815
0.00609524
0.00601069
0.00680138
0.00797347
0.00696387
0.00634983
0.00830409
0.01289
0.0134088
0.0109071
0.00874762
0.00931766
0.011597
0.0137784
0.0135802
0.0137789
0.0139774
0.0128571
0.00960844
0.0129598
0.0133779
0.0136011
0.000660577
0.00055352
0.000434908
0.00031792
0.000268845
0.000263404
0.000254461
0.000240176
0.000202253
0.000167369
0.000140528
0.000124356
0.000120585
0.000132819
0.000176528
0.00038705
0.00117988
0.00242073
0.00287975
0.00307947
0.00365624
0.00439656
0.0046635
0.00419801
0.00250733
0.00103095
0.000538797
0.000438332
0.000460374
0.000445413
0.000494576
0.000475795
0.000545011
0.000516867
0.000629368
0.000581576
0.000808377
0.000698947
0.00162028
0.00122368
0.0026649
0.00211416
0.00547878
0.00476889
0.00848672
0.00803639
0.00878441
0.00872849
0.00875966
0.00883652
0.00980398
0.00990036
0.0086862
0.00892363
0.00934705
0.00914476
0.00760481
0.00789358
0.00817294
0.00843718
0.00705853
0.00737847
0.00769112
0.00799204
0.00642806
0.00675096
0.00708188
0.00741045
0.00634477
0.00639697
0.0066909
0.00673581
0.00618807
0.00616454
0.00661041
0.0063046
0.00650975
0.00719672
0.00670726
0.00635834
0.00750235
0.0123356
0.0130578
0.00999554
0.00790869
0.00845337
0.010798
0.014066
0.0141538
0.0136705
0.0141055
0.0141742
0.00742586
0.0124887
0.0143629
0.0148578
0.000637365
0.000466551
0.000345331
0.00028663
0.000282957
0.000298901
0.000282206
0.000256053
0.000224871
0.000192634
0.000166985
0.000152773
0.000156681
0.000194638
0.000393555
0.00118046
0.00245329
0.00294101
0.00315421
0.00374533
0.00444645
0.00465129
0.00401295
0.00218465
0.000911873
0.000503631
0.00042209
0.000432864
0.000415669
0.000456596
0.000442052
0.000492949
0.000473183
0.000546124
0.000516712
0.000650291
0.000585594
0.000940462
0.000759829
0.00235336
0.00167418
0.00397856
0.00314781
0.00740464
0.00658324
0.0101308
0.00971824
0.00996821
0.010014
0.0103326
0.00952577
0.00967833
0.0103764
0.0104877
0.00928476
0.00950635
0.00990645
0.00971432
0.00827803
0.00854923
0.00880882
0.00905341
0.00773073
0.00803691
0.00832694
0.00860002
0.00708125
0.00742284
0.00775294
0.00806536
0.00699636
0.00705482
0.00738216
0.00741652
0.00634313
0.00653265
0.00730985
0.00689196
0.00654887
0.00694696
0.00676346
0.0065392
0.00723658
0.0116966
0.0126233
0.00916064
0.00758626
0.00802714
0.0100443
0.0144229
0.0148178
0.013507
0.0142575
0.014966
0.00485645
0.0106521
0.0154096
0.0160916
0.000546873
0.000371088
0.000312869
0.000323039
0.000341973
0.000370083
0.000367418
0.000356859
0.000322144
0.000278627
0.000237119
0.000216093
0.000237157
0.000415806
0.00118046
0.002454
0.0029857
0.00322313
0.00382803
0.00449232
0.00462953
0.00381951
0.00188515
0.000798214
0.000468028
0.000403089
0.000398184
0.000422995
0.000412126
0.000449947
0.000436549
0.000483948
0.000465707
0.000534755
0.000505971
0.000671711
0.000580222
0.00116842
0.000847554
0.00344475
0.00242325
0.00562098
0.00454715
0.00909677
0.00826252
0.0110552
0.0109527
0.0109729
0.0105494
0.010571
0.011093
0.0111276
0.0100823
0.0102387
0.0108114
0.0109406
0.00975135
0.00995322
0.0103288
0.0101462
0.00885559
0.00909601
0.00932552
0.00954295
0.00835864
0.00863064
0.00888256
0.00911588
0.00776489
0.00809124
0.00839312
0.00866868
0.00771656
0.00775811
0.00810188
0.00810815
0.00677441
0.00718231
0.00805317
0.00762445
0.0067532
0.0070129
0.00699763
0.0070123
0.0072983
0.0110606
0.0122048
0.00858263
0.00760901
0.00795353
0.00941343
0.0148827
0.0155894