/*--------------------------------*- C++ -*----------------------------------*\
  =========                 |
  \\      /  F ield         | OpenFOAM: The Open Source CFD Toolbox
   \\    /   O peration     | Website:  https://openfoam.org
    \\  /    A nd           | Version:  dev
     \\/     M anipulation  |
\*---------------------------------------------------------------------------*/
FoamFile
{
    version     2.0;
    format      ascii;
    class       volScalarField;
    location    "2500";
    object      nut;
}
// * * * * * * * * * * * * * * * * * * * * * * * * * * * * * * * * * * * * * //

dimensions      [0 2 -1 0 0 0 0];

internalField   nonuniform List<scalar> 
9851
(
0.000129935
0.000133446
0.000125884
0.000121785
0.000159553
0.000111436
0.000111954
0.000169203
0.000149938
0.000106017
0.000108017
0.000163682
0.00017186
0.000127433
0.000104348
0.000104852
0.000147832
0.000185942
0.000158077
0.000115819
0.000103157
0.000103146
0.000131012
0.000186203
0.0001809
0.000134085
0.000110987
0.000102316
0.000102455
0.000121537
0.000179464
0.000193925
0.000160452
0.000120717
0.000108091
0.000101757
0.000102231
0.000113959
0.000162111
0.000201958
0.000184416
0.000136956
0.000114465
0.000106037
0.000101374
0.000102089
0.000109571
0.000140677
0.00020016
0.000199722
0.000159105
0.000123457
0.000110747
0.000104502
0.000101056
0.000101955
0.000106853
0.000129333
0.000191331
0.000209731
0.000184282
0.000137079
0.000116522
0.000108043
0.000103452
0.000100806
0.0001014
0.000105195
0.000120071
0.000171206
0.000215205
0.000202771
0.000156555
0.00012431
0.000112145
0.000106196
0.000102689
0.000100638
0.000100899
0.000104489
0.000114214
0.00014808
0.000212191
0.000214451
0.000179809
0.000135993
0.000117363
0.000109054
0.000104756
0.000102067
0.00010047
0.000100532
0.000104026
0.000110673
0.000135951
0.000202253
0.000223154
0.000202348
0.000152886
0.00012418
0.000112816
0.000106995
0.000103691
0.000101576
0.000100331
0.000100294
0.000103675
0.000108521
0.000126022
0.000180976
0.000227379
0.000217571
0.000173712
0.000134177
0.000117264
0.000109724
0.000105401
0.000102827
0.000101207
0.000100233
0.00010017
0.000103268
0.000107177
0.000119289
0.000158192
0.000223931
0.000227285
0.000196405
0.00014847
0.000123457
0.000112833
0.000107454
0.000104214
0.000102076
0.000100891
0.000100149
0.000100135
0.00010278
0.000106356
0.000115076
0.00014327
0.00021408
0.00023498
0.000216351
0.000166755
0.000131724
0.000116995
0.000109858
0.000105682
0.00010323
0.000101585
0.000100635
0.000100079
0.000100236
0.000102326
0.000105822
0.000112292
0.000133647
0.000193834
0.000239349
0.000229649
0.000188163
0.000143757
0.000121984
0.000112658
0.000107455
0.000104388
0.000102287
0.000101148
0.000100423
0.000100024
0.000100349
0.000101739
0.00010525
0.000110404
0.000125955
0.00017231
0.000236475
0.000239136
0.000208897
0.000159631
0.000129162
0.000115994
0.000109594
0.000105653
0.000103261
0.000101658
0.000100794
0.00010025
9.99832e-05
0.000100432
0.000101186
0.000104654
0.000108882
0.000120618
0.000152974
0.000228549
0.000246008
0.000228069
0.000178223
0.000138809
0.000120447
0.000112056
0.000107225
0.000104345
0.000102302
0.000101155
0.000100503
0.000100112
9.9951e-05
0.0001005
0.000100713
0.00010406
0.000107668
0.000116767
0.000143184
0.000212777
0.000251627
0.000240364
0.00019828
0.000152264
0.000126212
0.000115025
0.000109226
0.000105505
0.000103206
0.000101615
0.000100738
0.000100267
9.99993e-05
9.99278e-05
0.000100531
0.000100305
0.000103481
0.000106811
0.000113984
0.000135151
0.000191497
0.000251067
0.000250328
0.000218328
0.000167886
0.000134396
0.000118765
0.000111439
0.000106991
0.000104214
0.000102275
0.000101057
0.000100395
0.000100074
9.99131e-05
9.99135e-05
0.000100529
0.000100012
0.000102973
0.00010613
0.000111967
0.000128667
0.000171846
0.000246548
0.00025636
0.000237134
0.000186324
0.000144777
0.000123666
0.000113936
0.000108737
0.000105336
0.000103125
0.000101552
0.000100607
0.000100125
9.99245e-05
9.98532e-05
9.99087e-05
0.000100513
9.9863e-05
0.000102523
0.000105546
0.000110488
0.000123947
0.000156307
0.000235974
0.000263341
0.000249799
0.000204385
0.000158221
0.000129922
0.000117065
0.000110669
0.000106688
0.000104099
0.000102224
0.000100978
0.000100253
9.99195e-05
9.98159e-05
9.98124e-05
9.99147e-05
0.000100481
9.97044e-05
0.000101985
0.000104977
0.000109344
0.000120614
0.000147853
0.000220139
0.00026764
0.000260042
0.000224789
0.000173438
0.000138197
0.000120998
0.00011287
0.0001082
0.000105153
0.000103022
0.00010151
0.000100537
9.9984e-05
9.97635e-05
9.97371e-05
9.97918e-05
9.9932e-05
0.000100439
9.95359e-05
0.000101545
0.000104464
0.000108395
0.000118233
0.000142259
0.000202087
0.000265319
0.000268454
0.000242217
0.000190868
0.000148868
0.000125947
0.000115395
0.000109932
0.000106337
0.000103945
0.000102177
0.00010098
0.000100194
9.97786e-05
9.96588e-05
9.96952e-05
9.97989e-05
9.99648e-05
0.000100391
9.93673e-05
0.00010118
0.000104036
0.000107668
0.000116543
0.000137585
0.000185793
0.000261269
0.000274138
0.000258402
0.000208823
0.00016188
0.000132469
0.00011857
0.000111798
0.000107707
0.000104917
0.00010295
0.000101545
0.000100562
9.99408e-05
9.96563e-05
9.96222e-05
9.96939e-05
9.98314e-05
0.00010001
0.000100327
9.91766e-05
0.000100872
0.000103667
0.000107147
0.000115399
0.000134177
0.000173272
0.000252724
0.000279994
0.000268749
0.000226121
0.000176564
0.000140877
0.000122578
0.000113878
0.000109186
0.000106003
0.000103823
0.000102211
0.000101058
0.000100262
9.97977e-05
9.9635e-05
9.96502e-05
9.97457e-05
9.98957e-05
0.000100079
0.000100248
9.89861e-05
0.000100666
0.000103355
0.000106792
0.00011474
0.000132021
0.000164212
0.000242284
0.000283342
0.000277031
0.000244326
0.000191912
0.000150949
0.000127654
0.00011649
0.000110813
0.000107242
0.000104731
0.000102957
0.000101656
0.000100712
0.000100093
9.97806e-05
9.97165e-05
9.97726e-05
9.98705e-05
9.99981e-05
0.000100178
0.000100152
9.88238e-05
0.000100584
0.000103117
0.000106569
0.000114535
0.000131027
0.000159311
0.00023236
0.00028462
0.000283673
0.000259116
0.000208188
0.000162723
0.000133883
0.00011972
0.000112681
0.000108563
0.000105743
0.000103778
0.000102323
0.000101259
0.000100512
0.000100062
9.98937e-05
9.9917e-05
0.000100007
0.00010009
0.000100162
0.000100303
0.00010004
9.86891e-05
0.000100616
0.000102953
0.000106538
0.000114698
0.000131059
0.000157194
0.000223155
0.000283187
0.000288493
0.000271968
0.000223789
0.00017578
0.000141536
0.000123525
0.000114783
0.000109997
0.00010683
0.000104628
0.000103056
0.000101876
0.000101022
0.000100454
0.000100157
0.000100145
0.000100271
0.000100401
0.000100442
0.000100475
0.000100425
9.99278e-05
9.86275e-05
0.000100768
0.000102888
0.000106718
0.000115346
0.000132164
0.000156795
0.000216565
0.000281285
0.000293814
0.000281927
0.000237973
0.0001893
0.00015057
0.000128154
0.00011726
0.00011153
0.000108009
0.000105545
0.000103829
0.000102543
0.000101593
0.000100928
0.000100522
0.000100421
0.000100594
0.000100893
0.000101021
0.000101054
0.000101209
0.000100803
9.97927e-05
9.86818e-05
0.000101043
0.000102948
0.000107204
0.000116538
0.000135455
0.000158033
0.000212261
0.000278428
0.000299036
0.000289301
0.000252101
0.000202641
0.000160696
0.000133769
0.000120152
0.000113298
0.000109216
0.000106547
0.000104626
0.000103242
0.000102195
0.000101444
0.000100991
0.00010081
0.000100919
0.000101333
0.000101824
0.000101944
0.000102118
0.000102111
0.000101388
9.96452e-05
9.89289e-05
0.000101417
0.000103202
0.000108107
0.000118397
0.000139044
0.000160973
0.000209709
0.000275554
0.000303148
0.000295808
0.000265207
0.000215277
0.000171487
0.000140396
0.000123581
0.000115157
0.000110575
0.000107591
0.000105494
0.000103971
0.000102831
0.000102001
0.000101506
0.000101302
0.000101374
0.000101763
0.000102556
0.000103066
0.000103287
0.00010309
0.000100267
8.52661e-05
8.54769e-05
9.94599e-05
9.94009e-05
0.000101867
0.000103836
0.000109746
0.000121319
0.000143692
0.000166211
0.000208392
0.000272647
0.000306505
0.000301642
0.000276153
0.000227539
0.000182297
0.000147927
0.000127693
0.000117423
0.00011205
0.000108699
0.000106415
0.00010473
0.0001035
0.000102604
0.000102053
0.000101847
0.000101905
0.000102326
0.00010309
0.000104312
0.000105177
0.000105594
9.39248e-05
8.56454e-05
8.35087e-05
7.61686e-05
7.82453e-05
9.92886e-05
0.000100119
0.000102334
0.000104947
0.000112211
0.000125952
0.00014968
0.000171845
0.000208916
0.000270039
0.000308882
0.000306903
0.000285673
0.000238732
0.000192954
0.000156018
0.000132509
0.000120151
0.000113703
0.000109916
0.000107358
0.000105535
0.000104186
0.000103262
0.000102676
0.000102422
0.000102491
0.000102854
0.000103845
0.000105346
0.000106741
0.000107861
9.9792e-05
9.56118e-05
7.90808e-05
9.051e-05
7.74299e-05
7.75929e-05
7.4228e-05
6.95281e-05
6.94327e-05
9.93019e-05
0.000101002
0.000102854
0.000106665
0.00011595
0.000133084
0.000156375
0.000177532
0.000210455
0.00026771
0.000309533
0.000311115
0.000293949
0.000249021
0.000203008
0.000164313
0.000137853
0.000123221
0.000115522
0.000111219
0.000108383
0.000106368
0.000104931
0.000103936
0.000103311
0.000103015
0.000103119
0.000103597
0.000104613
0.000106228
0.000108135
0.000103951
9.38074e-05
9.22748e-05
8.76364e-05
7.17739e-05
7.53236e-05
7.14841e-05
6.86438e-05
6.65924e-05
6.26073e-05
6.21699e-05
9.95253e-05
0.000101842
0.000103729
0.000109316
0.000121587
0.000141508
0.000162593
0.000182824
0.000212336
0.000265564
0.000309601
0.000313995
0.000301089
0.000258014
0.000212434
0.000172501
0.000143508
0.000126595
0.000117577
0.000112632
0.000109481
0.000107273
0.000105718
0.000104689
0.000104044
0.000103766
0.000103871
0.000104481
0.000105375
0.000107085
0.000108789
0.000101478
9.07697e-05
8.92431e-05
8.64222e-05
8.4391e-05
7.68162e-05
6.50918e-05
7.12144e-05
6.50089e-05
6.11248e-05
6.00283e-05
5.68942e-05
5.61456e-05
9.99575e-05
0.000102577
0.000105224
0.000113303
0.00012968
0.00015014
0.000168468
0.000187318
0.000214188
0.000263613
0.000309424
0.000315976
0.000306589
0.00026611
0.000220833
0.000180438
0.000149335
0.000130212
0.000119847
0.000114107
0.000110635
0.000108224
0.000106576
0.000105501
0.000104856
0.000104541
0.000104732
0.00010531
0.000106469
0.000107716
0.00010929
0.000101198
8.96526e-05
8.93852e-05
8.35561e-05
8.26948e-05
7.73177e-05
7.68271e-05
7.11631e-05
5.90912e-05
6.53053e-05
5.95293e-05
5.51479e-05
5.44571e-05
5.16691e-05
5.10844e-05
0.00010059
0.000103273
0.000107563
0.000119202
0.000138717
0.000157421
0.000173442
0.000190654
0.000215688
0.00026177
0.000307815
0.000317029
0.000309846
0.000273848
0.000228488
0.000187843
0.000155256
0.000134005
0.000122192
0.000115751
0.000111836
0.000109231
0.000107521
0.000106413
0.000105711
0.000105465
0.000105596
0.000106393
0.000107413
0.000108482
0.0001094
0.000104259
9.29343e-05
9.78645e-05
8.49167e-05
9.00713e-05
7.68607e-05
7.98586e-05
7.08598e-05
7.1362e-05
6.50516e-05
5.4184e-05
5.94512e-05
5.41503e-05
5.02874e-05
4.97793e-05
4.73782e-05
4.6892e-05
0.000101241
0.00010406
0.000111046
0.000127402
0.000147377
0.000163281
0.000177031
0.000192816
0.000216595
0.000259883
0.000305575
0.00031836
0.000312301
0.00028011
0.000235107
0.000194681
0.000161076
0.000137953
0.000124705
0.000117435
0.000113163
0.000110339
0.00010854
0.000107389
0.00010666
0.00010637
0.000106583
0.000107261
0.000108375
0.000109293
0.000109102
0.00010546
0.000103443
9.80809e-05
0.000102416
9.91952e-05
8.95726e-05
0.000100051
7.63548e-05
9.17247e-05
6.57476e-05
7.32628e-05
6.05384e-05
4.9591e-05
5.52346e-05
4.99606e-05
4.63988e-05
4.61658e-05
4.39014e-05
4.35688e-05
0.000101814
0.000105506
0.000116606
0.000136665
0.000154257
0.000167518
0.000179133
0.000194013
0.000217008
0.000257956
0.000302878
0.000318537
0.000313137
0.000285276
0.000240738
0.000200829
0.000166673
0.000141956
0.000127282
0.000119258
0.000114555
0.000111574
0.000109653
0.000108448
0.000107713
0.00010739
0.000107524
0.000108144
0.000109272
0.000110035
0.000108875
0.000107463
9.9094e-05
0.000106257
9.58891e-05
0.000102134
9.63485e-05
9.91242e-05
9.68845e-05
9.64317e-05
9.64641e-05
9.5121e-05
7.01042e-05
9.48558e-05
6.62339e-05
4.57162e-05
6.082e-05
5.39649e-05
4.35513e-05
4.30065e-05
4.11671e-05
4.0869e-05
0.000102308
0.000108132
0.000124915
0.000145692
0.000159496
0.000170108
0.000180496
0.000194216
0.000217178
0.000256087
0.000299941
0.000317321
0.000313884
0.000288666
0.000245783
0.00020594
0.00017191
0.000145967
0.000129917
0.00012104
0.00011603
0.000112899
0.000110894
0.000109604
0.000108876
0.000108663
0.000108612
0.000109179
0.0001103
0.00011104
0.000112029
0.000118409
0.000119235
0.000145865
0.000118804
0.000146109
0.000116551
0.000146663
0.000109901
0.000141176
0.000100668
0.000128612
9.48054e-05
0.000108703
9.21603e-05
9.53922e-05
8.96477e-05
4.72476e-05
8.72555e-05
8.52128e-05
4.13799e-05
4.31988e-05
3.90228e-05
3.91953e-05
0.000102643
0.000112306
0.000134296
0.000152535
0.000162873
0.000171562
0.000180582
0.000194047
0.0002172
0.000254594
0.000297049
0.000315649
0.000313748
0.00029072
0.000249498
0.000210621
0.000176643
0.000149792
0.000132604
0.0001229
0.000117502
0.000114255
0.000112221
0.000110858
0.000110165
0.000109927
0.000110137
0.000110483
0.00011167
0.000114402
0.000123226
0.000151645
0.000172897
0.000209922
0.000180269
0.000218939
0.000184983
0.000227671
0.000183582
0.000230972
0.000174052
0.000226533
0.000153537
0.000211448
0.000119927
0.00018116
9.6352e-05
0.000132263
9.58579e-05
6.90321e-05
9.31161e-05
8.91522e-05
4.11231e-05
5.59927e-05
3.70245e-05
3.91507e-05
0.000103121
0.000118574
0.000143537
0.000157302
0.000164439
0.000171598
0.000179903
0.000193692
0.000217253
0.000253468
0.000294513
0.000313693
0.000312412
0.000291493
0.000252072
0.000214311
0.0001807
0.000153476
0.000134974
0.000124664
0.00011892
0.000115589
0.000113564
0.000112218
0.000111454
0.000111383
0.000112139
0.00011262
0.000113997
0.000123338
0.000152429
0.000208399
0.000248229
0.000277003
0.00025891
0.000298588
0.000270068
0.000309661
0.000277464
0.00032029
0.000278809
0.000326427
0.000270999
0.000325078
0.000249323
0.000312893
0.000207978
0.000283766
0.000141923
0.000229634
0.000144683
8.51483e-05
0.000138244
0.000126761
4.78303e-05
7.90154e-05
3.5096e-05
4.17822e-05
0.000104013
0.000126829
0.000151648
0.000160287
0.000164766
0.00017097
0.000178973
0.000193113
0.000216873
0.000252617
0.000292379
0.000311716
0.000310767
0.000292366
0.000253275
0.000217
0.000184331
0.000156653
0.000137458
0.000126098
0.000120202
0.000116843
0.000114899
0.000113633
0.000112987
0.000113095
0.000113976
0.000115823
0.000120698
0.000145235
0.000196887
0.000276026
0.000376196
0.000330214
0.000376426
0.00034567
0.00037849
0.000358022
0.00039082
0.000367473
0.000402577
0.00037169
0.00041093
0.000367529
0.000412927
0.000350054
0.000405226
0.000312323
0.000381826
0.000243753
0.000333448
0.000248382
0.000110851
0.000240982
0.000219891
7.73958e-05
9.37223e-05
3.41678e-05
5.26251e-05
0.000105455
0.000135071
0.000157671
0.000161947
0.000164783
0.000170653
0.000177877
0.000192203
0.000216437
0.000252239
0.000290728
0.000309915
0.000308983
0.000292013
0.000254597
0.000218619
0.000187029
0.000159641
0.000139317
0.000127514
0.000121229
0.000117956
0.000116211
0.000115102
0.000114755
0.000114945
0.000115968
0.000118702
0.000133193
0.000175223
0.00024739
0.000341851
0.000431199
0.000455619
0.000481025
0.000407678
0.000434323
0.000419547
0.000445444
0.000432399
0.000457955
0.000443505
0.000471031
0.000450664
0.000482092
0.000450598
0.000487945
0.000438662
0.000485281
0.000407929
0.000468191
0.000346632
0.000427585
0.000350783
0.000182763
0.000344361
0.000323328
8.04199e-05
0.000142789
4.00457e-05
7.04652e-05
0.000107142
0.000142166
0.000162104
0.000163462
0.000165329
0.000170115
0.000176652
0.000191276
0.000216526
0.000252876
0.000290018
0.000308575
0.000307269
0.000290891
0.000255329
0.000219958
0.000189211
0.000161933
0.000141273
0.000128581
0.000122005
0.000118857
0.000117438
0.000116629
0.000116568
0.000117134
0.000118171
0.000123677
0.000150067
0.000211405
0.000303253
0.000398841
0.000478046
0.00050023
0.000522379
0.000508286
0.000526764
0.00046849
0.000489192
0.000480318
0.000500625
0.000494374
0.00051453
0.000508194
0.000530665
0.000519435
0.000545998
0.000523966
0.000556562
0.000517293
0.000558428
0.000493079
0.000546287
0.000440502
0.000512405
0.000445618
0.000285477
0.000439977
0.000419936
0.000109123
0.000234368
6.47567e-05
7.82439e-05
0.000109183
0.000147222
0.000165103
0.000165332
0.000165892
0.000169462
0.000175737
0.000190938
0.000217077
0.000253834
0.000290494
0.000308001
0.000305921
0.000289553
0.000255105
0.000221026
0.000190888
0.00016421
0.000142688
0.000129492
0.000122681
0.00011956
0.000118515
0.000118142
0.000118471
0.00011954
0.000121181
0.000130434
0.000170368
0.000248135
0.000355327
0.000445935
0.000519897
0.000540622
0.000555675
0.000544347
0.000561825
0.000550929
0.00056595
0.000518854
0.000535313
0.000532289
0.000548655
0.000549864
0.000566555
0.000568586
0.000587925
0.000584543
0.000608312
0.000592942
0.000622366
0.000589716
0.000626466
0.000570023
0.000616813
0.000525601
0.000588275
0.000530848
0.000384521
0.000525369
0.000506635
0.000173409
0.000331663
5.03124e-05
0.000110869
0.000116372
0.000150529
0.000166458
0.000166758
0.00016586
0.000168914
0.000175429
0.000191404
0.000217822
0.000254844
0.000291366
0.000308248
0.000305151
0.000288244
0.00025456
0.000221428
0.000192468
0.000165944
0.000144496
0.000130239
0.000123212
0.000120206
0.000119371
0.000119605
0.000120534
0.000122034
0.000124679
0.000140306
0.000192038
0.000286876
0.000399077
0.000485209
0.000555347
0.000601022
0.000576789
0.000597632
0.000580528
0.000594379
0.000588305
0.000599123
0.000563205
0.000576356
0.000580974
0.000594213
0.000604206
0.00061778
0.000627861
0.000643077
0.000646336
0.000665337
0.000655804
0.000678921
0.000653583
0.000681936
0.000636682
0.00067255
0.000599551
0.00064945
0.000602961
0.000472515
0.000596646
0.000578605
0.000257377
0.000419201
6.06892e-05
0.000163617
0.000158855
0.000166545
0.000166989
0.000165252
0.00016845
0.000175658
0.000192167
0.000220138
0.000257526
0.000292387
0.000309074
0.000304959
0.000287094
0.000253829
0.000221634
0.000193653
0.000167976
0.00014584
0.000130912
0.00012322
0.000120492
0.000120074
0.000120896
0.000122538
0.000124782
0.000129281
0.000152207
0.000216285
0.000324306
0.000436784
0.000515675
0.000588355
0.000626712
0.000624641
0.000625308
0.000607536
0.000619334
0.000609751
0.000618067
0.000620467
0.000624551
0.000604589
0.000613342
0.000627956
0.000636269
0.000655239
0.000662309
0.000678927
0.000685506
0.00069406
0.00069939
0.000699919
0.0006991
0.000696276
0.000687489
0.000682717
0.000699175
0.000655236
0.000685647
0.000655111
0.000546342
0.000647962
0.000630568
0.000339993
0.000495518
9.91271e-05
0.000226327
0.00016877
0.000166776
0.00016483
0.000168085
0.000176023
0.00019432
0.000223742
0.000262097
0.000295346
0.000310031
0.000305298
0.000286154
0.000253165
0.000221705
0.000194848
0.000169767
0.000147281
0.000131554
0.000123104
0.000120152
0.000120613
0.000122048
0.000124471
0.000127719
0.000134911
0.00016641
0.000241946
0.000360078
0.000464085
0.000539423
0.000612924
0.000631604
0.00062605
0.000629112
0.000617744
0.000616039
0.000620387
0.000620148
0.000623264
0.000617605
0.000635168
0.000624753
0.000640928
0.000641684
0.000665663
0.000662407
0.000684733
0.000678771
0.000694743
0.0006599
0.000651883
0.000609436
0.000626994
0.000572341
0.000629255
0.000563964
0.000656189
0.000578627
0.000683262
0.000622748
0.000678624
0.000603122
0.000667767
0.000645053
0.000640638
0.000416675
0.000557681
0.000132378
0.000291554
0.000168009
0.000164791
0.000168032
0.000176657
0.000197058
0.00022831
0.000267081
0.000301235
0.000312458
0.000306253
0.00028564
0.00025265
0.000222208
0.000196158
0.000171726
0.000149374
0.000132282
0.000123086
0.000119685
0.000120562
0.000123037
0.000126688
0.000130918
0.000141075
0.000181412
0.000269565
0.000394478
0.000486171
0.000557443
0.000629418
0.000640514
0.000623416
0.000614022
0.000605795
0.000599042
0.000586502
0.000612126
0.000607002
0.000615181
0.000604907
0.000627339
0.000612269
0.000652638
0.000639957
0.00066763
0.000654844
0.000630227
0.000608294
0.000572513
0.000539866
0.000527906
0.000490477
0.000507617
0.000459516
0.000510676
0.000458468
0.000539015
0.000467593
0.000595192
0.000485828
0.000593053
0.000672125
0.000560082
0.00062884
0.000613796
0.000639897
0.000663786
0.000566172
0.000543955
0.000652629
0.00048497
0.000627647
0.000608959
0.000567969
0.000117997
0.000227048
0.000165845
0.000168301
0.000177821
0.000199862
0.000233266
0.000273434
0.000307107
0.000318532
0.0003077
0.000285748
0.000252519
0.00022307
0.000197814
0.000174578
0.000151409
0.000133414
0.00012333
0.000119395
0.000120294
0.000123777
0.000128965
0.00013439
0.000148067
0.000197488
0.000300752
0.000425872
0.000503666
0.000572778
0.00064383
0.000654303
0.000628248
0.000539509
0.000535373
0.000571149
0.00055401
0.000547211
0.000519993
0.000590929
0.000571421
0.000592162
0.000566448
0.000599026
0.000568972
0.000640296
0.000622659
0.000587978
0.000568743
0.000511765
0.000489702
0.0004569
0.000428871
0.000419855
0.000389434
0.000407018
0.000369688
0.000404346
0.000401378
0.000353231
0.000495263
0.000413314
0.00035373
0.000422287
0.000460699
0.000566928
0.000469185
0.000464075
0.000543268
0.000654112
0.000646889
0.000602943
0.00055204
0.0005449
0.00062072
0.000586766
0.00049555
0.00055555
0.000636451
0.000622201
0.000166469
0.000469021
0.000460124
0.000359182
0.000169803
0.000179029
0.00020281
0.000238716
0.000280131
0.000314839
0.000325508
0.000311663
0.000286572
0.000252898
0.000224263
0.000200258
0.000177804
0.000155408
0.000135431
0.000123848
0.000119453
0.000120249
0.00012432
0.000130778
0.00013759
0.000155597
0.000214835
0.000334907
0.000453562
0.000519048
0.000587934
0.000659812
0.000673452
0.000641098
0.000485035
0.000447691
0.000427212
0.0004924
0.000467306
0.000462463
0.000422318
0.000535752
0.000500857
0.000533787
0.00049394
0.000530601
0.000490359
0.000554999
0.00054767
0.000470603
0.00045393
0.000407032
0.000392022
0.00036578
0.000352713
0.000345721
0.000338415
0.000366022
0.000323753
0.000345083
0.000320994
0.000364859
0.000316515
0.000317412
0.000342629
0.000422731
0.000388991
0.00033768
0.000360157
0.000455723
0.000493624
0.000451567
0.000417103
0.000498765
0.000639564
0.000646759
0.000562042
0.000507328
0.000511948
0.000580247
0.000602532
0.000575734
0.000639872
0.000629057
0.000407134
0.000236774
0.000311736
0.000537835
0.000487946
0.000181714
0.000205319
0.000243827
0.000288536
0.000323243
0.000333582
0.000319208
0.000287986
0.000253861
0.000225708
0.000203529
0.000182778
0.000159475
0.000139657
0.000124782
0.000119847
0.000120452
0.000124716
0.000131827
0.0001403
0.000162888
0.000232125
0.000369139
0.000478524
0.000534362
0.000602898
0.000676524
0.000692741
0.000660556
0.000499679
0.000310707
0.000312783
0.000332892
0.000317999
0.000384915
0.000354767
0.000352113
0.000302097
0.000449781
0.000402062
0.000444836
0.000394451
0.000425848
0.000381872
0.000444127
0.000445033
0.000382484
0.00038024
0.000355709
0.000365017
0.000349979
0.000369377
0.000352937
0.000345275
0.000375004
0.000366616
0.000330362
0.000334638
0.000345833
0.000365721
0.000326748
0.00032799
0.000335251
0.000328766
0.000377812
0.000350673
0.000323368
0.00032932
0.000415177
0.000450565
0.000410038
0.000371927
0.000454777
0.000602618
0.000630111
0.000522371
0.000463183
0.000472761
0.000540776
0.000612648
0.000588077
0.000636418
0.000630073
0.000440009
0.000199692
0.000289582
0.000553024
0.000510742
0.000208782
0.000248963
0.000296689
0.000333867
0.000343911
0.00032584
0.000293009
0.000255123
0.000228372
0.000208381
0.000188352
0.000166275
0.000144095
0.000128006
0.000120569
0.000120782
0.000124733
0.000132254
0.000142342
0.00016909
0.000248232
0.000400454
0.000501506
0.000550629
0.00061851
0.000693982
0.000712441
0.000678908
0.000511029
0.000262142
0.00020732
0.000203894
0.000218528
0.000210755
0.00026166
0.000233715
0.000239182
0.000204659
0.000341236
0.000287822
0.000336382
0.000291917
0.000350244
0.000319033
0.000387443
0.000378262
0.00037847
0.000369975
0.000368711
0.000357204
0.000360355
0.000355248
0.000351699
0.000350576
0.000368074
0.000360042
0.000354096
0.000350092
0.000344039
0.00036927
0.000363141
0.000355628
0.000330319
0.000343458
0.000354516
0.000357932
0.000341575
0.000323979
0.000337086
0.000321183
0.000369236
0.000408418
0.000367906
0.000335961
0.000412429
0.000565903
0.000598546
0.000486523
0.000422926
0.000436375
0.000506072
0.000616948
0.000594997
0.000625749
0.000623823
0.000471943
0.000181691
0.000238763
0.000564655
0.000530164
0.00025414
0.000305136
0.00034639
0.000355029
0.000336479
0.000298303
0.000259213
0.000231586
0.000213269
0.000197362
0.000174131
0.000152085
0.000135884
0.000123412
0.000121431
0.00012486
0.000132719
0.00014378
0.000173414
0.00026166
0.000428058
0.000523172
0.000568454
0.000637151
0.000713669
0.000730909
0.000692427
0.000515207
0.000267552
0.000161509
0.000164951
0.000159012
0.000157936
0.000164186
0.000160704
0.000182767
0.000170567
0.000183991
0.000163831
0.000250077
0.000213442
0.000285238
0.000251449
0.000307082
0.000283457
0.000350254
0.000329458
0.000348375
0.000341163
0.000353031
0.000361923
0.000349373
0.000350343
0.000352501
0.000353861
0.000349544
0.000346818
0.00034726
0.000349796
0.000360303
0.000352688
0.00034609
0.000343744
0.000362822
0.000360012
0.000352762
0.000351873
0.000319883
0.000321947
0.000355621
0.000344047
0.000334265
0.000368884
0.000335628
0.000316999
0.000375912
0.000534415
0.000570775
0.000455068
0.000387512
0.000403017
0.000477276
0.000615464
0.00059808
0.000610221
0.000611442
0.000499079
0.000215036
0.000217194
0.000573697
0.000548068
0.000316749
0.00035661
0.000371833
0.000346295
0.000308114
0.000263848
0.000237451
0.000222006
0.000206808
0.000188459
0.000165799
0.000145872
0.000130592
0.000123998
0.000125709
0.000133643
0.000145158
0.000175796
0.000272131
0.000450577
0.000543228
0.000587626
0.000657519
0.000731012
0.000746221
0.000698782
0.000505674
0.000265591
0.000156843
0.000140387
0.000139841
0.000141421
0.000140396
0.000144563
0.00014284
0.000152419
0.000147037
0.000169831
0.000154481
0.000219529
0.000192011
0.000258599
0.000233464
0.000313802
0.000298369
0.00033401
0.00032539
0.000369515
0.000374082
0.000380334
0.000387267
0.000400286
0.000393907
0.000354159
0.000359694
0.00036601
0.000372782
0.000344548
0.000347782
0.000352984
0.000359432
0.000344722
0.000340751
0.000340999
0.000344123
0.000347902
0.000345467
0.000339626
0.000338826
0.000323128
0.000351704
0.000343725
0.000351449
0.000317111
0.00033858
0.000318542
0.000323555
0.000346102
0.000506583
0.000548009
0.000423248
0.000356934
0.000371852
0.000447909
0.000608658
0.00059829
0.000594318
0.000595797
0.000446181
0.000209592
0.000215158
0.000581616
0.000563869
0.00037786
0.000384826
0.00036456
0.000316285
0.000272304
0.000243195
0.000230427
0.000221384
0.000202282
0.000181031
0.000156296
0.000139934
0.000129815
0.000128321
0.000135417
0.000147229
0.000176874
0.000278621
0.000468327
0.000561588
0.000606318
0.000677651
0.000744018
0.000757157
0.000696468
0.000482237
0.000257988
0.000161642
0.000135335
0.000135596
0.000134941
0.000134464
0.000136636
0.000135632
0.000139158
0.000137764
0.000145525
0.000141171
0.000166439
0.000151274
0.000208825
0.000186291
0.000278968
0.000255886
0.000366842
0.000352686
0.000376052
0.000374349
0.000405869
0.000411482
0.000427875
0.000397774
0.000405242
0.000418922
0.000412357
0.000366667
0.000374324
0.000382215
0.000390077
0.000349223
0.00035563
0.000362848
0.000370481
0.000337114
0.000339306
0.00034377
0.00034941
0.000334495
0.000334373
0.000330164
0.000334005
0.000357085
0.000348969
0.000330168
0.000339547
0.000323856
0.000320321
0.00032278
0.000356625
0.000325159
0.000481257
0.000529641
0.000392737
0.000333091
0.000347982
0.000421478
0.000598017
0.000596991
0.000577303
0.000581719
0.00034673
0.00031198
0.000227774
0.000589789
0.000533812
0.00041306
0.000379243
0.000332703
0.000279322
0.000251687
0.000242516
0.00023155
0.000219225
0.000192835
0.000168302
0.000150131
0.000138094
0.000133131
0.000138101
0.000149792
0.000177683
0.000280973
0.000480835
0.00057811
0.000624846
0.000695886
0.000755107
0.000762774
0.000681606
0.000448177
0.00024679
0.000161879
0.000134721
0.000131499
0.000131439
0.000130832
0.000131047
0.000130872
0.000130633
0.000133029
0.000131746
0.000141166
0.000135593
0.000179216
0.000158215
0.000230461
0.000204239
0.000332503
0.000305762
0.000428928
0.000416288
0.000432465
0.000433803
0.000424885
0.000428095
0.000448791
0.000453815
0.000409027
0.000416403
0.000430455
0.000423569
0.000378263
0.000386069
0.000393859
0.000401522
0.000355859
0.000362726
0.000369771
0.000376863
0.00033745
0.000341958
0.000347125
0.000352665
0.000326267
0.000331105
0.000327339
0.000334252
0.000347416
0.000335898
0.000322114
0.000326114
0.000355882
0.000320997
0.000351862
0.000346594
0.000321049
0.00045774
0.000508107
0.000370578
0.000325625
0.00033635
0.000398419
0.000587179
0.000593875
0.000559566
0.000569604
0.000302004
0.000228108
0.000233204
0.000596543
0.000421754
0.000412446
0.000347169
0.000293147
0.000261021
0.000251281
0.000249111
0.000229685
0.00020469
0.000181181
0.000160108
0.000146117
0.000139023
0.000140946
0.000151787
0.000178468
0.000281255
0.000486322
0.000591949
0.000641914
0.000713366
0.000765332
0.000766822
0.000661814
0.000407084
0.000235066
0.000159607
0.00013675
0.000130634
0.000130744
0.000128472
0.000129269
0.000126974
0.000127669
0.000126157
0.000126434
0.000128606
0.000126395
0.00014293
0.000133726
0.00020417
0.000171986
0.000274339
0.000239505
0.000396357
0.00036777
0.000470829
0.000463439
0.000457953
0.000461383
0.000471045
0.000436948
0.000443192
0.000452844
0.000458684
0.000412209
0.000419285
0.000433299
0.000426336
0.000383925
0.00039098
0.000398047
0.000405126
0.000358367
0.000364134
0.000369945
0.000375826
0.000337875
0.000341743
0.000345665
0.000349633
0.000322191
0.000329191
0.000322067
0.000331147
0.000332902
0.000322071
0.000315659
0.000317484
0.000346021
0.000348013
0.000346744
0.000330682
0.000343791
0.000434116
0.000480165
0.000350353
0.000336857
0.000326849
0.000373757
0.000576896
0.000590716
0.000533702