/*--------------------------------*- C++ -*----------------------------------*\
  =========                 |
  \\      /  F ield         | OpenFOAM: The Open Source CFD Toolbox
   \\    /   O peration     | Website:  https://openfoam.org
    \\  /    A nd           | Version:  dev
     \\/     M anipulation  |
\*---------------------------------------------------------------------------*/
FoamFile
{
    version     2.0;
    format      ascii;
    class       volScalarField;
    location    "2500";
    object      O2;
}
// * * * * * * * * * * * * * * * * * * * * * * * * * * * * * * * * * * * * * //

dimensions      [0 0 0 0 0 0 0];

internalField   nonuniform List<scalar> 
9851
(
0.23301
0.23301
0.23301
0.23301
0.23301
0.23301
0.23301
0.23301
0.23301
0.23301
0.23301
0.23301
0.23301
0.23301
0.23301
0.23301
0.23301
0.23301
0.23301
0.23301
0.23301
0.23301
0.23301
0.23301
0.23301
0.23301
0.23301
0.23301
0.23301
0.23301
0.23301
0.23301
0.23301
0.23301
0.23301
0.23301
0.23301
0.23301
0.23301
0.23301
0.23301
0.23301
0.23301
0.23301
0.23301
0.23301
0.23301
0.23301
0.23301
0.23301
0.23301
0.23301
0.23301
0.23301
0.23301
0.23301
0.23301
0.23301
0.23301
0.23301
0.23301
0.23301
0.23301
0.23301
0.23301
0.23301
0.23301
0.23301
0.23301
0.23301
0.23301
0.23301
0.23301
0.23301
0.23301
0.23301
0.23301
0.23301
0.23301
0.23301
0.23301
0.23301
0.23301
0.23301
0.23301
0.23301
0.23301
0.23301
0.23301
0.23301
0.23301
0.23301
0.23301
0.23301
0.23301
0.23301
0.23301
0.23301
0.23301
0.23301
0.23301
0.23301
0.23301
0.23301
0.23301
0.23301
0.23301
0.23301
0.23301
0.23301
0.23301
0.23301
0.23301
0.23301
0.23301
0.23301
0.23301
0.23301
0.23301
0.23301
0.23301
0.23301
0.23301
0.23301
0.23301
0.23301
0.23301
0.23301
0.23301
0.23301
0.23301
0.23301
0.23301
0.23301
0.23301
0.23301
0.23301
0.23301
0.23301
0.23301
0.23301
0.23301
0.23301
0.23301
0.23301
0.23301
0.23301
0.23301
0.23301
0.23301
0.23301
0.23301
0.23301
0.23301
0.23301
0.23301
0.23301
0.23301
0.23301
0.23301
0.23301
0.23301
0.23301
0.23301
0.23301
0.23301
0.23301
0.23301
0.23301
0.23301
0.23301
0.23301
0.23301
0.23301
0.23301
0.23301
0.23301
0.23301
0.23301
0.23301
0.23301
0.23301
0.23301
0.23301
0.23301
0.23301
0.23301
0.23301
0.23301
0.23301
0.23301
0.23301
0.23301
0.23301
0.23301
0.23301
0.23301
0.23301
0.23301
0.23301
0.23301
0.23301
0.23301
0.23301
0.23301
0.23301
0.23301
0.23301
0.23301
0.23301
0.23301
0.23301
0.23301
0.23301
0.23301
0.23301
0.23301
0.23301
0.23301
0.23301
0.23301
0.23301
0.23301
0.23301
0.23301
0.23301
0.23301
0.23301
0.23301
0.23301
0.23301
0.23301
0.23301
0.23301
0.23301
0.23301
0.23301
0.23301
0.23301
0.23301
0.23301
0.23301
0.23301
0.23301
0.23301
0.23301
0.23301
0.23301
0.23301
0.23301
0.23301
0.23301
0.23301
0.23301
0.23301
0.23301
0.23301
0.23301
0.23301
0.23301
0.23301
0.23301
0.23301
0.23301
0.23301
0.23301
0.23301
0.23301
0.23301
0.23301
0.23301
0.23301
0.23301
0.23301
0.23301
0.23301
0.23301
0.23301
0.23301
0.23301
0.23301
0.23301
0.23301
0.23301
0.23301
0.23301
0.23301
0.23301
0.23301
0.23301
0.23301
0.23301
0.23301
0.23301
0.23301
0.23301
0.23301
0.23301
0.23301
0.23301
0.23301
0.23301
0.23301
0.23301
0.23301
0.23301
0.23301
0.23301
0.23301
0.23301
0.23301
0.23301
0.23301
0.23301
0.23301
0.23301
0.23301
0.23301
0.23301
0.23301
0.23301
0.23301
0.23301
0.23301
0.23301
0.23301
0.23301
0.23301
0.23301
0.23301
0.23301
0.23301
0.23301
0.23301
0.23301
0.23301
0.23301
0.23301
0.23301
0.23301
0.23301
0.23301
0.23301
0.23301
0.23301
0.23301
0.23301
0.23301
0.23301
0.23301
0.23301
0.23301
0.23301
0.23301
0.23301
0.23301
0.23301
0.23301
0.23301
0.23301
0.23301
0.23301
0.23301
0.23301
0.23301
0.23301
0.23301
0.23301
0.23301
0.23301
0.23301
0.23301
0.23301
0.23301
0.23301
0.23301
0.23301
0.23301
0.23301
0.23301
0.23301
0.23301
0.23301
0.23301
0.23301
0.23301
0.23301
0.23301
0.23301
0.23301
0.23301
0.23301
0.23301
0.23301
0.23301
0.23301
0.23301
0.23301
0.23301
0.23301
0.23301
0.23301
0.23301
0.23301
0.23301
0.23301
0.23301
0.23301
0.23301
0.23301
0.23301
0.23301
0.23301
0.23301
0.23301
0.23301
0.23301
0.23301
0.23301
0.23301
0.23301
0.23301
0.23301
0.23301
0.23301
0.23301
0.23301
0.23301
0.23301
0.23301
0.23301
0.23301
0.23301
0.23301
0.23301
0.23301
0.23301
0.23301
0.23301
0.23301
0.23301
0.23301
0.23301
0.23301
0.23301
0.23301
0.23301
0.23301
0.23301
0.23301
0.23301
0.23301
0.23301
0.23301
0.23301
0.23301
0.23301
0.23301
0.23301
0.23301
0.23301
0.23301
0.23301
0.23301
0.23301
0.23301
0.23301
0.23301
0.23301
0.23301
0.23301
0.23301
0.23301
0.23301
0.23301
0.23301
0.23301
0.23301
0.23301
0.23301
0.23301
0.23301
0.23301
0.23301
0.23301
0.23301
0.23301
0.23301
0.23301
0.23301
0.23301
0.23301
0.23301
0.23301
0.23301
0.23301
0.23301
0.23301
0.23301
0.23301
0.23301
0.23301
0.23301
0.23301
0.23301
0.23301
0.23301
0.23301
0.23301
0.23301
0.23301
0.23301
0.23301
0.23301
0.23301
0.23301
0.23301
0.23301
0.23301
0.23301
0.23301
0.23301
0.23301
0.23301
0.23301
0.23301
0.23301
0.23301
0.23301
0.23301
0.23301
0.23301
0.23301
0.23301
0.23301
0.23301
0.23301
0.23301
0.23301
0.23301
0.23301
0.23301
0.23301
0.23301
0.23301
0.23301
0.23301
0.23301
0.23301
0.23301
0.23301
0.23301
0.23301
0.23301
0.23301
0.23301
0.23301
0.23301
0.23301
0.23301
0.23301
0.23301
0.23301
0.23301
0.23301
0.23301
0.23301
0.23301
0.23301
0.23301
0.23301
0.23301
0.23301
0.23301
0.23301
0.23301
0.23301
0.23301
0.23301
0.23301
0.23301
0.23301
0.23301
0.23301
0.23301
0.23301
0.23301
0.23301
0.23301
0.23301
0.23301
0.23301
0.23301
0.23301
0.23301
0.23301
0.23301
0.23301
0.23301
0.23301
0.23301
0.23301
0.23301
0.23301
0.23301
0.23301
0.23301
0.23301
0.23301
0.23301
0.23301
0.23301
0.23301
0.23301
0.23301
0.23301
0.23301
0.23301
0.23301
0.23301
0.23301
0.23301
0.23301
0.23301
0.23301
0.23301
0.23301
0.23301
0.23301
0.23301
0.23301
0.23301
0.23301
0.23301
0.23301
0.23301
0.23301
0.23301
0.23301
0.23301
0.23301
0.23301
0.23301
0.23301
0.23301
0.23301
0.23301
0.23301
0.23301
0.23301
0.23301
0.23301
0.23301
0.23301
0.23301
0.23301
0.23301
0.23301
0.23301
0.23301
0.23301
0.23301
0.23301
0.23301
0.23301
0.23301
0.23301
0.23301
0.23301
0.23301
0.23301
0.23301
0.23301
0.23301
0.23301
0.23301
0.23301
0.23301
0.23301
0.23301
0.23301
0.23301
0.23301
0.23301
0.23301
0.23301
0.23301
0.23301
0.23301
0.23301
0.23301
0.23301
0.23301
0.23301
0.23301
0.23301
0.23301
0.23301
0.23301
0.23301
0.23301
0.23301
0.23301
0.23301
0.23301
0.23301
0.23301
0.23301
0.23301
0.23301
0.23301
0.23301
0.23301
0.23301
0.23301
0.23301
0.23301
0.23301
0.23301
0.23301
0.23301
0.23301
0.23301
0.23301
0.23301
0.23301
0.23301
0.23301
0.23301
0.23301
0.23301
0.23301
0.23301
0.23301
0.23301
0.23301
0.23301
0.23301
0.23301
0.23301
0.23301
0.23301
0.23301
0.23301
0.23301
0.23301
0.23301
0.23301
0.23301
0.23301
0.23301
0.23301
0.23301
0.23301
0.23301
0.23301
0.23301
0.23301
0.23301
0.23301
0.23301
0.23301
0.23301
0.23301
0.23301
0.23301
0.23301
0.23301
0.23301
0.23301
0.23301
0.23301
0.23301
0.23301
0.23301
0.23301
0.23301
0.23301
0.23301
0.23301
0.23301
0.23301
0.23301
0.23301
0.23301
0.23301
0.23301
0.23301
0.23301
0.23301
0.23301
0.23301
0.23301
0.23301
0.23301
0.23301
0.23301
0.23301
0.23301
0.23301
0.23301
0.23301
0.23301
0.23301
0.23301
0.23301
0.23301
0.23301
0.23301
0.23301
0.23301
0.23301
0.23301
0.23301
0.23301
0.23301
0.23301
0.23301
0.23301
0.23301
0.23301
0.23301
0.23301
0.23301
0.23301
0.23301
0.23301
0.23301
0.23301
0.23301
0.23301
0.23301
0.23301
0.23301
0.23301
0.23301
0.23301
0.233009
0.233009
0.233009
0.23301
0.233009
0.23301
0.233009
0.23301
0.23301
0.23301
0.23301
0.23301
0.23301
0.23301
0.23301
0.23301
0.23301
0.23301
0.23301
0.23301
0.23301
0.23301
0.23301
0.23301
0.23301
0.23301
0.23301
0.23301
0.23301
0.23301
0.23301
0.23301
0.23301
0.23301
0.23301
0.23301
0.23301
0.23301
0.23301
0.23301
0.23301
0.23301
0.23301
0.23301
0.23301
0.23301
0.23301
0.233009
0.233007
0.233007
0.233003
0.233007
0.233003
0.233008
0.233005
0.233009
0.233007
0.23301
0.233008
0.23301
0.23301
0.23301
0.23301
0.23301
0.23301
0.23301
0.23301
0.23301
0.23301
0.23301
0.23301
0.23301
0.23301
0.23301
0.23301
0.23301
0.23301
0.23301
0.23301
0.23301
0.23301
0.23301
0.23301
0.23301
0.23301
0.23301
0.23301
0.23301
0.23301
0.23301
0.23301
0.23301
0.23301
0.23301
0.23301
0.23301
0.233009
0.233005
0.232997
0.232995
0.232979
0.232995
0.232979
0.232997
0.232981
0.233001
0.232987
0.233005
0.232995
0.233008
0.233002
0.233008
0.23301
0.233007
0.233008
0.23301
0.23301
0.23301
0.23301
0.23301
0.23301
0.23301
0.23301
0.23301
0.23301
0.23301
0.23301
0.23301
0.23301
0.23301
0.23301
0.23301
0.23301
0.23301
0.23301
0.23301
0.23301
0.23301
0.23301
0.23301
0.23301
0.23301
0.23301
0.23301
0.23301
0.23301
0.23301
0.233009
0.233006
0.232998
0.232973
0.232958
0.232919
0.23295
0.232908
0.23295
0.232901
0.232957
0.232904
0.23297
0.23292
0.232987
0.232948
0.233
0.232978
0.232999
0.233008
0.232999
0.233
0.23301
0.233009
0.23301
0.23301
0.23301
0.23301
0.23301
0.23301
0.23301
0.23301
0.23301
0.23301
0.23301
0.23301
0.23301
0.23301
0.23301
0.23301
0.23301
0.23301
0.23301
0.23301
0.23301
0.23301
0.23301
0.23301
0.23301
0.23301
0.23301
0.23301
0.23301
0.233009
0.233007
0.233001
0.23298
0.232929
0.232878
0.232819
0.232854
0.232791
0.232837
0.232765
0.232831
0.232747
0.23284
0.232745
0.232871
0.232765
0.232923
0.232814
0.23297
0.232897
0.232966
0.233003
0.232966
0.232972
0.23301
0.233006
0.23301
0.23301
0.23301
0.23301
0.23301
0.23301
0.23301
0.23301
0.23301
0.23301
0.23301
0.23301
0.23301
0.23301
0.23301
0.23301
0.23301
0.23301
0.23301
0.23301
0.23301
0.23301
0.23301
0.23301
0.23301
0.23301
0.23301
0.23301
0.23301
0.233009
0.233004
0.232989
0.232944
0.232842
0.232759
0.232716
0.232725
0.232651
0.232688
0.232611
0.232659
0.232571
0.232643
0.232542
0.232647
0.232531
0.232683
0.232548
0.232758
0.232604
0.232876
0.232712
0.232866
0.232983
0.232871
0.23289
0.233008
0.232994
0.23301
0.233009
0.23301
0.23301
0.23301
0.23301
0.23301
0.23301
0.23301
0.23301
0.23301
0.23301
0.23301
0.23301
0.23301
0.23301
0.23301
0.23301
0.23301
0.23301
0.23301
0.23301
0.23301
0.23301
0.23301
0.23301
0.23301
0.23301
0.233009
0.233007
0.232999
0.232968
0.23289
0.23274
0.232508
0.232591
0.232488
0.232535
0.23246
0.232487
0.232407
0.232446
0.232356
0.23242
0.232317
0.232418
0.232299
0.232453
0.232311
0.232535
0.232367
0.232679
0.232482
0.232668
0.232923
0.232681
0.232724
0.233002
0.232957
0.23301
0.233007
0.23301
0.23301
0.23301
0.23301
0.23301
0.23301
0.23301
0.23301
0.23301
0.23301
0.23301
0.23301
0.23301
0.23301
0.23301
0.23301
0.23301
0.23301
0.23301
0.23301
0.23301
0.23301
0.23301
0.23301
0.23301
0.23301
0.233009
0.233005
0.232989
0.232939
0.232825
0.232635
0.232386
0.232264
0.2322
0.23239
0.232321
0.232331
0.232259
0.232273
0.232197
0.232223
0.232139
0.232191
0.232095
0.232184
0.232073
0.232215
0.232082
0.232297
0.232133
0.23245
0.232246
0.23244
0.232794
0.232458
0.232509
0.232983
0.232864
0.233009
0.232998
0.23301
0.23301
0.23301
0.23301
0.23301
0.23301
0.23301
0.23301
0.23301
0.23301
0.23301
0.23301
0.23301
0.23301
0.23301
0.23301
0.23301
0.23301
0.23301
0.23301
0.23301
0.23301
0.23301
0.23301
0.23301
0.23301
0.233008
0.233001
0.232974
0.232901
0.232754
0.23254
0.232283
0.232151
0.2321
0.232079
0.232029
0.232193
0.232132
0.232127
0.232063
0.232064
0.231997
0.232011
0.231939
0.231978
0.231898
0.231971
0.231879
0.231997
0.231887
0.232071
0.23193
0.232218
0.232031
0.232212
0.232593
0.232236
0.232293
0.232925
0.232696
0.233007
0.232972
0.23301
0.23301
0.23301
0.23301
0.23301
0.23301
0.23301
0.23301
0.23301
0.23301
0.23301
0.23301
0.23301
0.23301
0.23301
0.23301
0.23301
0.23301
0.23301
0.23301
0.23301
0.23301
0.23301
0.23301
0.23301
0.233009
0.233007
0.232995
0.232956
0.232857
0.232682
0.232443
0.232194
0.232063
0.232035
0.231988
0.231953
0.231915
0.231878
0.232006
0.231957
0.231939
0.231887
0.231878
0.231825
0.231832
0.231778
0.231808
0.231757
0.231807
0.231755
0.231829
0.231767
0.231887
0.231795
0.232011
0.231863
0.232013
0.232378
0.23204
0.232094
0.232808
0.232495
0.233
0.232915
0.23301
0.23301
0.23301
0.23301
0.23301
0.23301
0.23301
0.23301
0.23301
0.23301
0.23301
0.23301
0.23301
0.23301
0.23301
0.23301
0.23301
0.23301
0.23301
0.23301
0.23301
0.23301
0.23301
0.23301
0.23301
0.233009
0.233005
0.232987
0.232934
0.232812
0.232615
0.232359
0.232126
0.231967
0.23193
0.231906
0.231852
0.231836
0.23178
0.231764
0.231843
0.231806
0.231781
0.231745
0.231737
0.231706
0.23172
0.231693
0.231721
0.231698
0.231732
0.231712
0.231748
0.231726
0.231778
0.231742
0.231855
0.231772
0.231863
0.232178
0.231888
0.231933
0.232649
0.232303
0.232986
0.232824
0.23301
0.23301
0.23301
0.23301
0.23301
0.23301
0.23301
0.23301
0.23301
0.23301
0.23301
0.23301
0.23301
0.23301
0.23301
0.23301
0.23301
0.23301
0.23301
0.23301
0.23301
0.23301
0.23301
0.23301
0.233009
0.233002
0.232978
0.232907
0.232766
0.232551
0.232296
0.232115
0.231992
0.231881
0.231926
0.23184
0.231853
0.231766
0.231777
0.231707
0.231715
0.23172
0.231707
0.231685
0.231672
0.231674
0.231662
0.231682
0.23167
0.231699
0.231692
0.231717
0.231719
0.231731
0.231739
0.231742
0.231746
0.231773
0.231748
0.231782
0.232008
0.2318
0.231829
0.232482
0.232135
0.232942
0.232702
0.23301
0.23301
0.23301
0.23301
0.23301
0.23301
0.23301
0.23301
0.23301
0.23301
0.23301
0.23301
0.23301
0.23301
0.23301
0.23301
0.23301
0.23301
0.23301
0.23301
0.23301
0.23301
0.23301
0.233008
0.232999
0.232966
0.232878
0.232719
0.232495
0.232258
0.232125
0.232049
0.231971
0.232026
0.231893
0.231959
0.231803
0.231841
0.231734
0.231767
0.231687
0.231712
0.23167
0.231674
0.231656
0.231657
0.231664
0.231665
0.231692
0.231698
0.231729
0.231747
0.231762
0.231794
0.231776
0.231822
0.231767
0.231821
0.231756
0.231786
0.231764
0.231888
0.231773
0.231785
0.231812
0.232319
0.231997
0.232887
0.232576
0.23301
0.23301
0.23301
0.23301
0.23301
0.23301
0.23301
0.23301
0.23301
0.23301
0.23301
0.23301
0.23301
0.23301
0.23301
0.23301
0.23301
0.23301
0.23301
0.23301
0.23301
0.23301
0.233008
0.232996
0.232952
0.232846
0.232672
0.232443
0.232234
0.232141
0.232108
0.232164
0.232034
0.232128
0.231962
0.232057
0.231814
0.23188
0.231753
0.231811
0.231724
0.231775
0.231666
0.231687
0.231675
0.231696
0.231712
0.231736
0.23177
0.231802
0.231833
0.231881
0.231881
0.231946
0.231895
0.231977
0.231864
0.23197
0.231802
0.231899
0.231843
0.23178
0.231812
0.231796
0.23187
0.231813
0.231781
0.231806
0.23181
0.231784
0.232173
0.231839
0.231881
0.23198
0.232879
0.232455
0.23301
0.23301
0.23301
0.23301
0.23301
0.23301
0.23301
0.23301
0.23301
0.23301
0.23301
0.23301
0.23301
0.23301
0.23301
0.23301
0.23301
0.23301
0.23301
0.23301
0.23301
0.233007
0.232993
0.232938
0.232813
0.232625
0.232398
0.232215
0.232149
0.232152
0.232271
0.232347
0.232418
0.232158
0.23226
0.232091
0.232211
0.231887
0.231981
0.231841
0.231924
0.23184
0.231914
0.23173
0.231778
0.231771
0.231819
0.231844
0.231897
0.231936
0.232001
0.23202
0.232101
0.232068
0.232155
0.232081
0.232096
0.23215
0.231956
0.23202
0.232136
0.23208
0.231914
0.231857
0.23192
0.231978
0.231857
0.23179
0.2318
0.231799
0.231842
0.231852
0.231794
0.231938
0.232165
0.23202
0.231819
0.23185
0.232737
0.232118
0.232248
0.232433
0.23301
0.23301
0.23301
0.23301
0.23301
0.23301
0.23301
0.23301
0.23301
0.23301
0.23301
0.23301
0.23301
0.23301
0.23301
0.23301
0.23301
0.23301
0.23301
0.23301
0.233007
0.232989
0.232923
0.23278
0.23258
0.232355
0.2322
0.232152
0.232181
0.232334
0.232582
0.232532
0.232616
0.232331
0.232442
0.232272
0.232408
0.232024
0.232141
0.232001
0.232102
0.232037
0.232128
0.23188
0.231953
0.231961
0.232038
0.232076
0.232154
0.232175
0.232232
0.232228
0.232271
0.232189
0.232223
0.232246
0.232258
0.232185
0.232222
0.2322
0.232226
0.232043
0.232108
0.232209
0.232163
0.231991
0.23192
0.231996
0.232061
0.231916
0.231794
0.231799
0.231829
0.231906
0.231891
0.231817
0.2319
0.231972
0.23181
0.231832
0.232362
0.232643
0.232494
0.232065
0.232174
0.23301
0.23301
0.23301
0.23301
0.23301
0.23301
0.23301
0.23301
0.23301
0.23301
0.23301
0.23301
0.23301
0.23301
0.23301
0.23301
0.23301
0.23301
0.23301
0.233007
0.232987
0.232909
0.232749
0.232539
0.232316
0.232188
0.232154
0.232199
0.232366
0.232616
0.232802
0.232813
0.23272
0.232773
0.232535
0.232642
0.23249
0.232625
0.232219
0.23235
0.232227
0.232337
0.232307
0.232402
0.232124
0.232215
0.232232
0.232307
0.232271
0.232307
0.232284
0.232279
0.23226
0.232253
0.232239
0.232213
0.232249
0.232256
0.232252
0.232235
0.232233
0.232237
0.232245
0.232247
0.232127
0.232182
0.232227
0.232218
0.232071
0.231993
0.232072
0.232138
0.231985
0.231808
0.231805
0.231872
0.23197
0.23195
0.231853
0.23187
0.231931
0.23181
0.231824
0.232283
0.232551
0.232391
0.232013
0.232109
0.23301
0.23301
0.23301
0.23301
0.23301
0.23301
0.23301
0.23301
0.23301
0.23301
0.23301
0.23301
0.23301
0.23301
0.23301
0.23301
0.23301
0.23301
0.233007
0.232986
0.232899
0.232721
0.232498
0.232287
0.232178
0.232156
0.232212
0.232382
0.232627
0.232877
0.232922
0.232932
0.232881
0.232909
0.232743
0.232829
0.232714
0.232825
0.232457
0.232585
0.2325
0.232601
0.23252
0.232596
0.232378
0.232448
0.232347
0.23239
0.232261
0.232247
0.232184
0.232147
0.232109
0.232058
0.232204
0.232163
0.232115
0.23206
0.23224
0.232212
0.232171
0.232117
0.23222
0.232228
0.23219
0.232196
0.232192
0.232214
0.232192
0.232214
0.232143
0.232067
0.23214
0.23219
0.232055
0.231834
0.231821
0.231925
0.232036
0.232012
0.231898
0.231851
0.231898
0.231817
0.231824
0.23221
0.232476
0.232309
0.231967
0.232054
0.23301
0.23301
0.23301
0.23301
0.23301
0.23301
0.23301
0.23301
0.23301
0.23301
0.23301
0.23301
0.23301
0.23301
0.23301
0.23301
0.23301
0.233007
0.232986
0.232894
0.2327
0.232465
0.232265
0.232177
0.232162
0.232227
0.232397
0.232636
0.232878
0.232978
0.232978
0.232976
0.232979
0.23296
0.232971
0.232899
0.232939
0.232875
0.232929
0.232703
0.232797
0.232672
0.232748
0.232551
0.232618
0.232437
0.232491
0.232241
0.232246
0.231911
0.23182
0.232003
0.231947
0.231899
0.231875
0.23205
0.231975
0.231894
0.23181
0.232148
0.232082
0.232001
0.23191
0.232144
0.232139
0.23207
0.232066
0.232203
0.232195
0.232091
0.232157
0.232181
0.23213
0.232168
0.232189
0.232114
0.23187
0.231847
0.231982
0.232093
0.232067
0.231948
0.231841
0.231874
0.231832
0.231829
0.232149
0.232456
0.232271
0.231931
0.232011
0.23301
0.23301
0.23301
0.23301
0.23301
0.23301
0.23301
0.23301
0.23301
0.23301
0.23301
0.23301
0.23301
0.23301
0.23301
0.23301
0.233008
0.232987
0.232893
0.232687
0.232442
0.232255
0.23218
0.23217
0.232251
0.232423
0.232654
0.232884
0.232987
0.232999
0.233
0.232996
0.232998
0.232989
0.232994
0.232962
0.232979
0.232927
0.23296
0.232819
0.232879
0.232688
0.232758
0.232355
0.232428
0.232262
0.2323
0.231777
0.231766
0.231457
0.231409
0.231345
0.231375
0.231729
0.231652
0.23158
0.231516
0.231811
0.231709
0.231608
0.231512
0.231974
0.231867
0.231753
0.231637
0.231991
0.23197
0.231867
0.231853
0.232172
0.232121
0.23191
0.232033
0.232173
0.232152
0.232156
0.232149
0.232135
0.231913
0.23188
0.232035
0.232115
0.232094
0.231998
0.231838
0.23186
0.231854
0.231839
0.232109
0.232513
0.232294
0.231904
0.231979
0.23301
0.23301
0.23301
0.23301
0.23301
0.23301
0.23301
0.23301
0.23301
0.23301
0.233009
0.233009
0.233009
0.233009
0.233009
0.233008
0.232989
0.232896
0.232685
0.232428
0.232256
0.232188
0.232189
0.23229
0.232469
0.232697
0.2329
0.232986
0.233006
0.233006
0.233005
0.233006
0.233003
0.233004
0.232997
0.233001
0.232979
0.23299
0.232928
0.23296
0.232824
0.232882
0.232513
0.232606
0.231894
0.231998
0.23177
0.231821
0.231325
0.2313
0.231188
0.231163
0.231126
0.231086
0.231099
0.231423
0.231343
0.231272
0.231212
0.23152
0.231409
0.231305
0.231211
0.231725
0.231594
0.231463
0.231338
0.231765
0.231729
0.231608
0.231583
0.232084
0.231975
0.231669
0.231832
0.232128
0.232139
0.232108
0.23205
0.232122
0.231957
0.231917
0.232068
0.232106
0.232089
0.232038
0.23184
0.231853
0.231882
0.231856
0.232098
0.232623
0.232387
0.231887
0.231958
0.23301
0.23301
0.23301
0.23301
0.23301
0.23301
0.23301
0.233009
0.233009
0.233008
0.233008
0.233008
0.233008
0.233008
0.233007
0.232992
0.2329
0.232686
0.232426
0.232263
0.232203
0.232225
0.232344
0.23253
0.232755
0.232924
0.23299
0.233007
0.233008
0.233009
0.233007
0.233008
0.233005
0.233006
0.232998
0.233002
0.232979
0.232991
0.232868
0.232927
0.232701
0.232791
0.232122
0.232265
0.231409
0.231542
0.231225
0.231307
0.231083
0.231091
0.230886
0.230911
0.23091
0.230882
0.23086
0.230866
0.231128
0.231057
0.230996
0.230947
0.231222
0.231115
0.231021
0.230938
0.231438
0.231299
0.231169
0.231051
0.231495
0.231448
0.231323
0.231293
0.231922
0.231762
0.231394
0.231581
0.232022
0.232094
0.232
0.231878
0.232082
0.231999
0.231954
0.232073
0.232077
0.23207
0.232053
0.231845
0.231851
0.231911
0.231875
0.232127
0.232753
0.232511
0.231877
0.231954
0.23301
0.23301
0.23301
0.23301
0.23301
0.233009
0.233007
0.233005
0.233004
0.233003
0.233004
0.233005
0.233006
0.233006
0.232993
0.232908
0.23269
0.23243
0.232276
0.232229
0.232268
0.232405
0.2326
0.232816
0.232946
0.232995
0.233007
0.233009
0.233009
0.233009
0.233009
0.233008
0.233008
0.233005
0.233007
0.232996
0.233002
0.232966
0.232986
0.232712
0.23283
0.232417
0.23257
0.231697
0.231874
0.231091
0.231236
0.230939
0.230964
0.230967
0.23086
0.230868
0.230737
0.230769
0.230704
0.230689
0.230684
0.230683
0.230869
0.230812
0.230765
0.23073
0.230945
0.230852
0.230773
0.230707
0.231148
0.231016
0.230898
0.230795
0.231213
0.231161
0.231045
0.231013
0.231703
0.231507
0.231117
0.231306
0.231847
0.231991
0.231828
0.231658
0.231992
0.232027
0.231987
0.232061
0.232005
0.232021
0.232049
0.231852
0.231851
0.231939
0.231894
0.232202
0.232876
0.232652
0.231872
0.23197
0.23301
0.23301
0.23301
0.233009
0.233006
0.233002
0.232996
0.232991
0.232989
0.232991
0.232995
0.232999
0.233002
0.232992
0.232915
0.232702
0.232438
0.232297
0.232257
0.232313
0.232463
0.232663
0.232863
0.232965
0.233
0.233008
0.23301
0.23301
0.23301
0.233009
0.233009
0.233008
0.233009
0.233005
0.233007
0.23299
0.232999
0.232914
0.232965
0.232474
0.232662
0.232066
0.23227
0.231403
0.231587
0.230918
0.230994
0.231061
0.230808
0.230854
0.23086
0.230794
0.230692
0.230712
0.230616
0.230652
0.230543
0.230538
0.230544
0.230538
0.230654
0.230612
0.230579
0.230557
0.230706
0.230632
0.230571
0.230521
0.23088
0.230765
0.230666
0.230582
0.230944
0.230894
0.230793
0.230763
0.231447
0.231235
0.230859
0.231036
0.231628
0.23183
0.23162
0.231405
0.23185
0.232034
0.232008
0.232035
0.231887
0.231935
0.232036
0.231861
0.231851
0.231965
0.231913
0.232312
0.232964
0.232797
0.231873
0.232012
0.23301
0.233009
0.233007
0.233
0.232989
0.23297
0.232954
0.232947
0.232953
0.232967
0.232981
0.232992
0.232989
0.232917
0.232717
0.232457
0.23232
0.232285
0.232354
0.232512
0.232713
0.232895
0.232977
0.233003
0.233009
0.23301
0.23301
0.23301
0.23301
0.23301
0.233009
0.23301
0.233008
0.233009
0.233003
0.233007
0.232969
0.232994
0.232813
0.232915
0.232231
0.232458
0.231788
0.232004
0.231237
0.231426
0.230833
0.230908
0.230893
0.230992
0.230694
0.230742
0.230764
0.230701
0.230563
0.230587
0.230513
0.230551
0.230417
0.230417
0.230431
0.230421
0.230483
0.230455
0.230434
0.230422
0.230513
0.230457
0.230412
0.230377
0.230651
0.230558
0.230481
0.230418
0.230708
0.230664
0.230583
0.230558
0.23118
0.230972
0.230637
0.23079
0.231383
0.231633
0.231383
0.231144
0.23167
0.232028
0.232014
0.231978
0.231731
0.231807
0.232008
0.231869
0.231852
0.231984
0.231932
0.232448
0.233003
0.232918
0.231881
0.232084
0.233009
0.233005
0.232992
0.232964
0.232927
0.232892
0.232879
0.232886
0.232909
0.232939
0.232966
0.232977
0.232915
0.232726
0.232477
0.232342
0.232312
0.232388
0.232549
0.232746
0.232914
0.232985
0.233005
0.233009
0.23301
0.23301
0.23301
0.23301
0.23301
0.23301
0.23301
0.23301
0.233008
0.233009
0.232998
0.233005
0.232931
0.23298
0.232668
0.232831
0.232066
0.232292
0.231629
0.231844
0.231075
0.231186
0.231301
0.230739
0.230814
0.230805
0.230894
0.230595
0.230645
0.230671
0.230608
0.230456
0.230482
0.23042
0.230457
0.230316
0.230318
0.230337
0.230323
0.230351
0.230333
0.230322
0.230317
0.230367
0.230327
0.230295
0.230271
0.230471
0.230402
0.230347
0.230304
0.230515
0.230481
0.230421
0.230403
0.230924
0.230735
0.230458
0.23058
0.231128
0.231409
0.231142
0.230896
0.231463
0.232015
0.232008
0.231883
0.231544
0.231643
0.23195
0.231879
0.231855
0.231991
0.23195
0.232605
0.233009
0.23298
0.231899
0.232181
0.233001
0.232982
0.232938
0.232876
0.232825
0.232801
0.232808
0.23284
0.232883
0.232925
0.232947
0.232906
0.232728
0.232494
0.232363
0.232335
0.232413
0.232572
0.232764
0.232925
0.232989
0.233006
0.233009
0.23301
0.23301
0.23301
0.23301
0.23301
0.23301
0.23301
0.23301
0.23301
0.233007
0.233009
0.232992
0.233003
0.232875
0.232957
0.232518
0.232726
0.231983
0.232208
0.231524
0.231753
0.230991
0.231096
0.231245
0.231107
0.230646
0.230722
0.230707
0.230797
0.230501
0.230552
0.230577
0.230515
0.230362
0.230388
0.230333
0.230369
0.230234
0.230238
0.230253
0.230244
0.230254
0.230241
0.230235
0.230233
0.23027
0.230245
0.230225
0.230208
0.230342
0.230296
0.230261
0.230235
0.230368
0.230349
0.230303
0.230296
0.2307
0.230541
0.230332
0.230419
0.230896
0.23118
0.230918
0.230688
0.231247
0.231992
0.231998
0.231757
0.231344
0.231472
0.231865
0.231888
0.23186
0.231989
0.231961
0.232768
0.23301
0.233002
0.231928
0.232309
0.232968
0.232909
0.232825
0.232754
0.23272
0.232723
0.232763
0.23282
0.232875
0.232908
0.232881
0.232725
0.232502
0.232381
0.232355
0.232432
0.232586
0.23277
0.232928
0.232991
0.233007
0.233009
0.23301
0.23301
0.23301
0.23301
0.23301
0.23301
0.23301
0.23301
0.23301
0.233009
0.23301
0.233006
0.233008
0.23298
0.233
0.232811
0.232926
0.232428
0.232633
0.231917
0.232165
0.231388
0.231653
0.230895
0.230999
0.231144
0.231019
0.23055
0.230625
0.23061
0.230699
0.230411
0.23046
0.230483
0.230423
0.230276
0.230302
0.230252
0.230285
0.23017
0.230176
0.230186
0.230178
0.230195
0.230185
0.230177
0.230172
0.230215
0.2302
0.230186
0.230174
0.230257
0.230228
0.230208
0.230191
0.230275
0.230256
0.230247
0.230229
0.230518
0.230388
0.23027
0.230308
0.230686
0.23096
0.230693
0.230494
0.23103
0.231945
0.231981
0.231614
0.231138
0.231275
0.231753
0.231898
0.231868
0.231981
0.231961
0.232883
0.23301
0.233008
0.231969
0.232456
0.232878
0.232778
0.232687
0.232637
0.232636
0.232681
0.23275
0.232817
0.23286
0.232843
0.232714
0.232503
0.232395
0.232372
0.232445
0.232593
0.23277
0.232929
0.232992
0.233007
0.23301
0.23301
0.23301
0.23301
0.23301
0.23301
0.23301
0.23301
0.23301
0.23301
0.23301
0.233009
0.23301
0.233005
0.233008
0.232966
0.232995
0.23277
0.232897
0.232391
0.232596
0.231813
0.232107
0.231169
0.231335
0.231504
0.230797
0.230904
0.231042
0.23092
0.230457
0.23053
0.230517
0.230604
0.230324
0.230371
0.230393
0.230336
0.230197
0.230224
0.230179
0.230207
0.230136
0.230132
0.230138
0.230134
0.230164
0.230155
0.230148
0.230142
0.230176
0.230163
0.230152
0.230143
0.230208
0.230192
0.230178
0.230167
0.230253
0.230223
0.230236
0.230204
0.23037
0.230316
0.230257
0.230294
0.230495
0.230707
0.23049
0.230378
0.230757
0.231878
0.231956
0.231441
0.230852
0.231009
0.231623
0.231903
0.231877
0.23197
0.231955
0.232947
0.23301
0.233009
0.232022
0.232596
0.232731
0.232628
0.232561
0.232551
0.232595
0.232669
0.232747
0.232801
0.232792
0.232686
0.2325
0.232404
0.232386
0.232455
0.232594
0.232767
0.232927
0.232992
0.233007
0.23301
0.23301
0.23301
0.23301
0.23301
0.23301
0.23301
0.23301
0.23301
0.23301
0.23301
0.23301
0.233009
0.233009
0.233003
0.233007
0.23296
0.232991
0.232762
0.232889
0.232367
0.232585
0.231671
0.232008
0.231088
0.231231
0.231478
0.231287
0.2307
0.230806
0.230953
0.230828
0.230369
0.230439
0.230429
0.230514
0.230242
0.230286
0.230307
0.230253
0.230143
0.230152
0.230126
0.230145
0.230113
0.230111
0.23011
0.23011
0.230135
0.230127
0.230121
0.230116
0.230158
0.23015
0.230142
0.230134
0.230193
0.230178
0.230171
0.230164
0.230245
0.230213
0.230234
0.230202
0.230342
0.23031
0.230264
0.230277
0.230398
0.230521
0.23042
0.230367
0.230579
0.231786
0.231897
0.23121
0.230672
0.230781
0.231435
0.231904
0.231889
0.23195
0.231945
0.232978
0.23301
0.233009
0.23209
0.232715
0.232571
0.232493
0.232477
0.23251
0.232578
0.232661
0.232722
0.232724
0.232635
0.23249
0.232409
0.232396
0.232463
0.232596
0.232763
0.232924
0.232991
0.233007
0.23301
0.23301
0.23301
0.23301
0.23301
0.23301
0.23301
0.23301
0.23301
0.23301
0.23301
0.23301
0.23301
0.23301
0.233008
0.233009
0.233002
0.233006
0.232959
0.232989
0.232766
0.23289
0.23232
0.232575
0.231382
0.231473
0.231673
0.231889
0.231001
0.231143
0.231225
0.230609
0.230714
0.230866
0.230742
0.230286
0.230353
0.230349
0.230431
0.230168
0.230207
0.230227
0.230181
0.230115
0.23012
0.230108
0.230115
0.230099
0.230095
0.230094
0.230094
0.230127
0.230119
0.230112
0.230106
0.230158
0.230152
0.230146
0.230139
0.230196
0.230188
0.230186
0.230183
0.230265
0.230228
0.230262
0.230229
0.230318
0.2303
0.230287
0.230292
0.230385
0.230459
0.230412
0.230344
0.230513
0.231639
0.231836
0.230938
0.230573
0.230656
0.231193
0.231902
0.231903
0.231928
0.23193
0.232987
0.23301
0.233008
0.232169
0.232777
0.232449
0.23242
0.232438
0.232489
0.232563
0.232624
0.232634
0.232565
0.232466
0.23241
0.232404
0.23247
0.232598
0.232761
0.232923
0.232991
0.233007
0.23301
0.23301
0.23301
0.23301
0.23301
0.23301
0.23301
0.23301
0.23301
0.23301
0.23301
0.23301
0.23301
0.233009
0.23301
0.233008
0.233009
0.233002
0.233006
0.232961
0.23299
0.232767
0.232896
0.232237
0.232543
0.23132
0.231442
0.231604
0.23192
0.231724
0.230926
0.231072
0.231163
0.230524
0.230628
0.23079
0.230664
0.230216
0.230276
0.230281
0.230358
0.230124
0.230148
0.230173
0.230142
0.230096
0.230101
0.230091
0.230102
0.230099
0.230093
0.230086
0.230089
0.230132
0.230124
0.230114
0.230107
0.230182
0.230179
0.230173
0.230171
0.230243
0.230241
0.230243
0.230243
0.230391
0.230262
0.23039
0.230261
0.23033
0.230316
0.230383
0.230388
0.230381
0.230461
0.230413
0.230363
0.230517
0.231508
0.231753
0.230772
0.230579
0.230658
0.230986
0.231896
0.231914
0.231884
0.231911
0.232982
0.23298
0.232991
0.232219
0.232762
0.232395
0.23239
0.232418
0.23247
0.232519
0.232529
0.232488
0.232437
0.232409
0.23241
0.232477
0.232601
0.232763
0.232924
0.232991
0.233007
0.23301
0.23301
0.23301
0.23301
0.23301
0.23301
0.23301
0.23301
0.23301
0.23301
0.23301
0.23301
0.23301
0.23301