/*--------------------------------*- C++ -*----------------------------------*\
  =========                 |
  \\      /  F ield         | OpenFOAM: The Open Source CFD Toolbox
   \\    /   O peration     | Website:  https://openfoam.org
    \\  /    A nd           | Version:  dev
     \\/     M anipulation  |
\*---------------------------------------------------------------------------*/
FoamFile
{
    version     2.0;
    format      ascii;
    class       volScalarField;
    location    "2500";
    object      omega;
}
// * * * * * * * * * * * * * * * * * * * * * * * * * * * * * * * * * * * * * //

dimensions      [0 0 -1 0 0 0 0];

internalField   nonuniform List<scalar> 
9851
(
1.25939
1.27721
1.22118
1.19363
1.37189
1.10316
1.08843
1.38518
1.30383
1.03246
1.03713
1.3495
1.37868
1.1635
1.01589
1.01311
1.25749
1.40529
1.30033
1.06904
1.0093
1.00176
1.14572
1.39623
1.37379
1.16243
1.03283
1.00419
0.992528
1.07433
1.35717
1.39856
1.27382
1.07188
1.01649
1.00083
0.986003
1.03075
1.2731
1.40634
1.35143
1.14362
1.03288
1.0055
0.998176
0.98242
1.0041
1.17175
1.39496
1.38831
1.23685
1.06228
1.01295
0.998187
0.996488
0.980797
0.989211
1.08897
1.35941
1.40229
1.32008
1.11845
1.0244
0.999585
0.992358
0.995277
0.982342
0.981267
1.03847
1.28684
1.40824
1.36853
1.19551
1.04747
1.0034
0.988845
0.988241
0.994298
0.984079
0.973647
1.0066
1.19244
1.39972
1.39486
1.27645
1.09013
1.01169
0.988979
0.981874
0.985249
0.993463
0.985508
0.968772
0.986619
1.1021
1.37039
1.40709
1.34029
1.15485
1.02847
0.990901
0.977384
0.976732
0.98284
0.992822
0.986512
0.965998
0.974585
1.04769
1.3086
1.41566
1.37757
1.22812
1.06216
0.996559
0.975724
0.969612
0.972585
0.980935
0.992339
0.986787
0.965447
0.967713
1.01162
1.22201
1.41055
1.40225
1.29608
1.11405
1.00924
0.976876
0.964615
0.963426
0.969418
0.979495
0.991933
0.986702
0.966424
0.962547
0.988845
1.13373
1.38837
1.41411
1.35041
1.17968
1.03458
0.980982
0.961609
0.956064
0.958674
0.967015
0.978313
0.991605
0.986512
0.967558
0.958174
0.974184
1.07013
1.34231
1.42642
1.38448
1.2447
1.07656
0.990362
0.962176
0.950622
0.949582
0.955019
0.965093
0.977329
0.991361
0.986429
0.968828
0.954841
0.964282
1.02884
1.27137
1.42752
1.41015
1.30495
1.1307
1.00934
0.964856
0.947452
0.942344
0.944598
0.952127
0.963562
0.976544
0.99118
0.986475
0.96971
0.951926
0.957475
0.999881
1.19152
1.41659
1.42614
1.35401
1.19218
1.04044
0.971355
0.946858
0.937142
0.935899
0.940627
0.949964
0.962321
0.975954
0.991038
0.986617
0.969972
0.950139
0.952314
0.979929
1.11475
1.38777
1.4421
1.39155
1.24991
1.08461
0.984539
0.948353
0.933513
0.929073
0.930954
0.937589
0.948199
0.961325
0.975482
0.990942
0.986785
0.970042
0.948855
0.947119
0.96638
1.06301
1.34026
1.45451
1.42048
1.30549
1.13674
1.0077
0.952729
0.931513
0.923657
0.923021
0.927094
0.935151
0.946742
0.960525
0.975127
0.99089
0.986958
0.970102
0.947701
0.942381
0.956761
1.02766
1.27257
1.45266
1.44578
1.35324
1.19247
1.04127
0.96196
0.932241
0.919593
0.916333
0.918459
0.923969
0.933215
0.945624
0.959935
0.974908
0.990889
0.987114
0.97016
0.946556
0.93838
0.949477
1.00317
1.20331
1.4399
1.4623
1.39832
1.24702
1.08444
0.978299
0.934886
0.917308
0.910857
0.910904
0.914674
0.921518
0.931731
0.944812
0.959544
0.974776
0.99095
0.987205
0.970172
0.945272
0.934942
0.943815
0.986014
1.1423
1.41149
1.47757
1.43209
1.2971
1.13407
1.00314
0.940717
0.916518
0.906686
0.904383
0.906505
0.911598
0.919698
0.930661
0.944213
0.959262
0.974731
0.991068
0.987331
0.9702
0.9438
0.931992
0.939275
0.974124
1.09448
1.37183
1.48754
1.45878
1.34764
1.18422
1.037
0.951966
0.917706
0.90347
0.898807
0.89923
0.903
0.909445
0.918299
0.929835
0.943836
0.959136
0.974838
0.991277
0.987632
0.970222
0.942049
0.929639
0.935574
0.965864
1.06473
1.32777
1.48639
1.4807
1.39213
1.23455
1.07721
0.969722
0.921204
0.901686
0.894304
0.89288
0.895353
0.900561
0.907762
0.917276
0.929401
0.943792
0.959198
0.975058
0.991561
0.988106
0.970014
0.939983
0.92732
0.932866
0.959941
1.0454
1.28212
1.47956
1.49466
1.43243
1.28278
1.12149
0.994243
0.928475
0.90208
0.89107
0.887578
0.888521
0.892549
0.898716
0.906636
0.916821
0.9295
0.944038
0.959517
0.975446
0.991989
0.988662
0.969519
0.93739
0.924656
0.930756
0.956127
1.03298
1.24341
1.46457
1.50733
1.46159
1.32647
1.16737
1.02499
0.940599
0.90375
0.888778
0.883275
0.882526
0.885364
0.890543
0.897464
0.906161
0.917051
0.930155
0.944801
0.960264
0.976065
0.992617
0.989305
0.968478
0.93414
0.922136
0.928758
0.954348
1.02572
1.21447
1.44538
1.51689
1.48333
1.36859
1.21107
1.06104
0.95761
0.907641
0.887455
0.879674
0.877312
0.878902
0.883198
0.88927
0.89694
0.906414
0.917994
0.931466
0.946228
0.961501
0.976969
0.99349
0.990009
0.966533
0.930887
0.920146
0.927367
0.954098
1.02331
1.19512
1.42601
1.52333
1.50157
1.40488
1.25169
1.09972
0.979738
0.915181
0.888058
0.876615
0.872754
0.873075
0.876468
0.881851
0.888762
0.897163
0.907317
0.919623
0.933642
0.948748
0.963577
0.978308
0.994608
0.990644
0.963751
0.927694
0.918743
0.927094
0.955465
1.02438
1.18478
1.4082
1.52538
1.51693
1.43727
1.28797
1.13791
1.00643
0.926164
0.889872
0.874506
0.868724
0.867892
0.870363
0.874928
0.881256
0.888899
0.897989
0.90914
0.922396
0.937406
0.952937
0.967163
0.980559
0.995983
0.991002
0.960252
0.924787
0.918419
0.927959
0.959396
1.0305
1.18065
1.3934
1.52431
1.52734
1.46594
1.32104
1.17301
1.03619
0.940963
0.893387
0.873052
0.865209
0.863266
0.864791
0.868646
0.87412
0.881207
0.889799
0.900014
0.912351
0.92702
0.943537
0.959498
0.972881
0.985076
0.998395
0.990902
0.956267
0.923022
0.919404
0.930603
0.966401
1.04472
1.18146
1.38
1.52155
1.53635
1.48806
1.35108
1.20484
1.06661
0.959512
0.899784
0.873445
0.862471
0.859086
0.859699
0.862825
0.867585
0.873958
0.882233
0.892181
0.903546
0.917513
0.934171
0.953367
0.96975
0.983099
0.993984
1.00288
1.00293
0.990637
0.952132
0.92295
0.921862
0.936222
0.978752
1.06284
1.18419
1.36785
1.51621
1.54325
1.50455
1.38055
1.23268
1.09592
0.980806
0.909175
0.87494
0.860617
0.855479
0.854983
0.857318
0.861553
0.867351
0.875108
0.884892
0.896286
0.909229
0.92566
0.945453
0.968171
0.985304
0.9965
1.00051
1.0005
1.0046
1.00535
0.990057
0.947744
0.924419
0.92556
0.944591
0.997899
1.08292
1.18938
1.35687
1.50662
1.5462
1.51704
1.40629
1.258
1.12265
1.00331
0.921302
0.878162
0.859504
0.852435
0.850587
0.852095
0.855781
0.861293
0.86858
0.877951
0.889447
0.902731
0.918492
0.938678
0.964321
0.990408
0.998711
1.00535
1.00346
1.00843
1.01395
1.00493
1.00632
1.00583
1.00902
0.988005
0.943897
0.927924
0.932285
0.958688
1.02236
1.10132
1.19462
1.34662
1.49403
1.54563
1.5252
1.42838
1.27978
1.14654
1.0253
0.9352
0.883744
0.859824
0.849908
0.846691
0.847122
0.850223
0.855557
0.862651
0.871593
0.882796
0.896758
0.912753
0.933275
0.95917
0.992604
1.01363
1.02052
1.02232
1.01226
1.03433
1.02967
1.01033
1.01362
1.00763
1.01313
0.984311
0.942525
0.933911
0.942634
0.980392
1.04987
1.11796
1.19818
1.33574
1.47938
1.54189
1.52861
1.44592
1.29886
1.16651
1.046
0.94969
0.890746
0.860883
0.847982
0.843376
0.842542
0.845072
0.850044
0.857131
0.865784
0.876946
0.890578
0.908821
0.929056
0.95828
0.995332
1.02485
1.02908
1.03483
1.04544
1.05314
1.02378
1.05697
1.05159
1.0162
1.02245
1.00988
1.01761
0.980179
0.944235
0.941459
0.957559
1.00818
1.07415
1.13091
1.19895
1.32295
1.46237
1.53228
1.52808
1.45786
1.31432
1.18323
1.06447
0.964137
0.898517
0.863033
0.846824
0.840508
0.838581
0.840419
0.845082
0.85186
0.860748
0.871345
0.886338
0.904296
0.930328
0.962978
1.00571
1.03516
1.04898
1.05417
1.06687
1.06841
1.08204
1.0816
1.03938
1.0869
1.0799
1.02264
1.03279
1.01253
1.02242
0.976314
0.948208
0.950317
0.979009
1.03711
1.09145
1.13816
1.19625
1.30802
1.44283
1.51807
1.52365
1.46551
1.32644
1.19551
1.08056
0.978091
0.906593
0.866192
0.846812
0.838238
0.835399
0.836457
0.840759
0.847246
0.855839
0.867159
0.881962
0.905043
0.93761
0.986921
1.06072
1.07999
1.15325
1.09417
1.15853
1.10362
1.15244
1.1026
1.13761
1.11788
1.0604
1.12083
1.10748
1.02949
1.04409
1.01545
1.02742
0.973471
0.954737
0.963643
1.00777
1.06209
1.10205
1.13951
1.1894
1.29122
1.42119
1.50065
1.51274
1.46629
1.33551
1.2053
1.09339
0.991106
0.914683
0.869815
0.847192
0.836711
0.832928
0.833413
0.837034
0.843532
0.851568
0.863225
0.88048
0.910189
0.962334
1.06539
1.27547
1.30864
1.64865
1.30455
1.6117
1.27093
1.5429
1.22023
1.42313
1.17003
1.29829
1.19158
1.0799
1.19371
1.16911
1.0362
1.05632
1.01868
1.03225
0.972709
0.963616
0.982796
1.03614
1.07699
1.10524
1.13566
1.1798
1.27277
1.39812
1.48047
1.49763
1.46335
1.33966
1.21161
1.10272
1.0026
0.922694
0.873499
0.848099
0.835924
0.831181
0.831011
0.83408
0.840127
0.84892
0.860631
0.882827
0.926238
1.02781
1.2784
1.82726
2.12094
2.95466
2.20441
3.07306
2.09562
3.03488
1.88611
2.7964
1.62131
2.33955
1.37331
1.84358
1.42771
1.12365
1.43971
1.39023
1.04321
1.08277
1.02211
1.0363
0.974106
0.974017
1.00903
1.06031
1.08377
1.10234
1.12557
1.16741
1.25272
1.37394
1.45835
1.47953
1.45511
1.3405
1.21298
1.10973
1.01198
0.930167
0.877062
0.848928
0.835597
0.83007
0.82942
0.831794
0.837574
0.846249
0.861236
0.891267
0.968667
1.17965
1.72423
2.94349
3.70059
4.64055
4.0947
5.00232
4.18418
5.23961
4.07695
5.3191
3.66901
5.16311
2.87749
4.59806
2.06036
3.44006
2.21915
1.29302
2.26227
2.15432
1.05819
1.18946
1.02529
1.04429
0.977879
0.988473
1.03858
1.07452
1.08348
1.09275
1.11259
1.15205
1.23139
1.34937
1.43503
1.4592
1.44141
1.33919
1.21237
1.11124
1.01951
0.936641
0.88022
0.849424
0.835258
0.829339
0.828481
0.830364
0.835795
0.845815
0.864304
0.911941
1.06294
1.4959
2.49795
4.20716
5.20729
5.8295
5.72566
6.15416
5.99878
6.4635
6.21437
6.74445
6.2973
6.95823
6.12571
7.04991
5.46014
6.88865
3.93734
6.14985
4.26752
1.90555
4.33456
4.08612
1.11554
1.61628
1.02865
1.07188
0.984392
1.01
1.06752
1.08171
1.07897
1.0794
1.09701
1.13417
1.20971
1.32565
1.41144
1.43763
1.42488
1.33443
1.21007
1.11051
1.02409
0.941825
0.882616
0.849434
0.834368
0.828691
0.827901
0.829999
0.835585
0.846514
0.872516
0.956184
1.24661
2.04535
3.48758
5.23558
6.01653
6.27543
6.41379
6.56257
6.7231
6.85899
7.02885
7.17934
7.31156
7.50781
7.53707
7.81543
7.63369
8.05225
7.46951
8.13953
6.6536
7.93243
6.98648
3.50559
7.13424
7.00959
1.36698
2.852
1.03458
1.19323
0.992493
1.03816
1.09127
1.08617
1.07313
1.06353
1.07948
1.11544
1.18969
1.30396
1.38875
1.41573
1.40631
1.32415
1.20452
1.10814
1.02476
0.945213
0.883863
0.848708
0.832676
0.827598
0.827448
0.830073
0.836014
0.848964
0.889482
1.04605
1.56137
2.72042
4.37993
5.76602
6.58017
6.63571
6.72435
6.92589
6.95223
7.25739
7.29717
7.62486
7.70273
8.00256
8.14447
8.34279
8.57458
8.58021
8.93487
8.62678
9.14564
8.32545
9.10657
8.65572
6.37096
8.88625
8.9449
2.1716
5.25533
1.07208
1.63602
1.00029
1.06865
1.10911
1.09074
1.06429
1.0465
1.06165
1.09794
1.17292
1.28637
1.3682
1.39433
1.38665
1.31126
1.19566
1.10288
1.02389
0.946627
0.88397
0.846887
0.83031
0.825884
0.826915
0.830352
0.837684
0.854557
0.921122
1.18522
1.97327
3.44844
5.08372
6.04503
6.63307
6.9588
6.97063
6.96434
6.95898
7.31724
7.33197
7.75714
7.79656
8.25647
8.35007
8.77449
8.94782
9.24587
9.522
9.59456
10.0014
9.73738
10.2986
9.56466
10.3205
9.97363
8.77269
10.2967
10.497
3.99154
8.19682
1.24568
2.96383
1.00706
1.10015
1.12627
1.0956
1.05431
1.0322
1.04596
1.08323
1.16146
1.27471
1.35166
1.37457
1.36673
1.29652
1.18476
1.09465
1.0214
0.946337
0.883461
0.844248
0.826968
0.823289
0.825587
0.830965
0.841263
0.866668
0.970957
1.38009
2.4382
4.09044
5.4747
6.18722
6.62779
6.97962
7.00041
7.36529
7.38169
7.34312
7.35206
7.82725
7.85466
8.42414
8.47997
9.09064
9.21024
9.7689
9.97423
10.3673
10.6862
10.8054
11.2617
11.0045
11.62
10.8655
11.6691
11.342
10.5155
11.717
11.9533
7.04525
10.2983
1.84534
5.41498
1.01465
1.12546
1.14237
1.10014
1.04542
1.0211
1.03358
1.07253
1.15652
1.26972
1.34093
1.35803
1.34772
1.28057
1.1723
1.08458
1.01637
0.945214
0.88159
0.840589
0.822316
0.81943
0.823888
0.831434
0.84525
0.884579
1.04594
1.62089
2.92484
4.61074
5.69128
6.23043
6.62285
7.02638
7.0202
7.40122
7.42273
7.90077
7.91144
7.87614
7.88898
8.52137
8.55024
9.29629
9.34999
10.1343
10.2472
10.9501
11.1469
11.6457
11.9576
12.1479
12.6004
12.3881
13.0118
12.2698
13.0957
12.7777
12.0285
13.1663
13.4035
9.70027
11.9253
3.31878
8.30124
1.05997
1.14194
1.15268
1.10226
1.0391
1.0132
1.02489
1.06718
1.15637
1.26939
1.33625
1.34618
1.33105
1.26431
1.15885
1.07335
1.00987
0.942979
0.878755
0.83568
0.816519
0.814237
0.82149
0.831743
0.850085
0.906613
1.14314
1.9055
3.39525
4.955
5.79543
6.21312
6.61003
7.25507
7.44292
7.51547
7.91673
7.91592
8.54427
8.51584
8.56412
8.55951
9.37713
9.37484
10.3073
10.3173
11.2695
11.3199
12.1754
12.295
12.9452
13.1778
13.5144
13.8909
13.8094
14.3817
13.7193
14.5397
14.2416
13.4909
14.6322
14.8748
11.6098
13.4379
5.40436
10.8908
1.19314
1.15635
1.10158
1.03434
1.00809
1.01992
1.06655
1.15959
1.27187
1.33575
1.33936
1.31785
1.24885
1.14493
1.06171
1.00234
0.940317
0.875594
0.830106
0.809442
0.808007
0.817351
0.831645
0.855434
0.934396
1.26109
2.21082
3.82079
5.17054
5.78799
6.16457
6.5766
7.22939
7.87608
7.83204
7.91133
7.89796
8.4733
8.41984
9.2058
9.10043
9.35004
9.29191
10.2899
10.2196
11.301
11.2299
12.3193
12.2689
13.2909
13.291
14.1357
14.256
14.7926
15.0588
15.2021
15.6718
15.1984
15.9793
15.752
14.9731
16.1759
16.4235
13.281
14.9389
7.93331
12.9551
1.18172
1.09867
1.03099
1.00494
1.01814
1.06858
1.16912
1.28079
1.33785
1.33703
1.3083
1.23473
1.13148
1.04988
0.994801
0.937756
0.872989
0.824596
0.801651
0.800078
0.812015
0.830677
0.861142
0.967642
1.4007
2.53272
4.18097
5.27702
5.74349
6.06345
6.52778
7.17543
7.77486
7.63307
8.20916
8.08559
8.36421
8.29638
8.98553
8.85596
9.77274
9.56773
10.0999
9.94753
11.0933
10.9071
12.14
11.9381
13.2059
13.0304
14.2611
14.1536
15.2079
15.2221
15.9748
16.1092
16.5481
16.8887
16.7082
17.4083
17.3218
16.5076
17.8402
18.0714
17.2676
14.816
16.4258
10.4267
14.7975
1.10809
1.03069
1.00418
1.01825
1.07483
1.18367
1.29576
1.34635
1.3376
1.30247
1.22252
1.11899
1.03984
0.988475
0.936251
0.872076
0.820168
0.793605
0.790958
0.805431
0.828673
0.86877
1.00553
1.55268
2.86709
4.46658
5.29162
5.64604
5.92399
6.41787
7.01474
7.48715
7.93706
7.77001
8.35554
8.16555
8.70808
8.53888
9.33207
9.08516
10.1089
9.77406
10.6858
10.4213
11.6847
11.3838
12.7792
12.4538
13.9337
13.6025
15.0474
14.7186
16.0487
15.7474
16.9615
16.7219
17.7628
17.784
18.2429
18.4222
18.253
18.2184
18.7752
18.1958
17.2788
18.185
18.7406
19.3938
19.1576
18.9037
16.2916
18.192
18.0703
17.1401
13.916
17.2195
1.04254
1.00614
1.02011
1.08426
1.20041
1.31555
1.36303
1.34256
1.30042
1.21328
1.10809
1.03174
0.984242
0.936335
0.872791
0.817983
0.786682
0.782382
0.797849
0.826472
0.876784
1.04692
1.70905
3.19025
4.67186
5.27208
5.51329
5.77103
6.26835
6.79006
7.14067
7.47998
7.2531
7.96616
7.72955
8.36239
8.09904
8.83742
8.60148
9.4424
9.12619
10.2061
9.79585
11.0266
10.6248
12.0661
11.6271
13.1908
12.733
14.2947
13.8198
15.3341
14.8222
16.3083
15.6845
17.3645
16.8445
16.505
18.417
18.3565
17.7402
18.0458
18.9643
19.1034
19.2958
18.862
19.4882
18.9999
19.0262
19.5721
20.1332
19.8445
19.7353
18.0147
17.128
17.9044
18.9896
18.8917
16.4459
17.9816
17.9427
17.3387
1.02143
1.02525
1.0965
1.22092
1.33736
1.38435
1.35692
1.30141
1.20777
1.09951
1.02612
0.982663
0.938719
0.877913
0.818014
0.782877
0.775336
0.790741
0.823472
0.882198
1.08449
1.86016
3.48086
4.80788
5.22497
5.37085
5.62321
6.11964
6.59237
6.84732
6.7017
7.13242
6.75735
7.80178
7.46588
8.15355
7.77515
8.81583
8.49548
9.38875
8.97797
10.1501
9.6375
11.1537
10.6579
12.239
11.7199
13.3224
12.8306
14.2947
13.8053
14.9914
14.4498
16.0721
15.723
15.2785
15.0136
17.1984
16.7649
16.6697
16.0954
18.7024
18.3937
17.4014
17.9337
19.2936
19.6552
19.6694
19.0704
20.038
19.8391
19.8802
20.3762
20.406
20.7522
20.5701
18.7906
18.688
19.8519
19.7645
17.8298
17.6569
17.9036
18.5678
18.3663
1.04223
1.10658
1.24559
1.3641
1.41071
1.37723
1.30843
1.20609
1.09406
1.02276
0.983291
0.947149
0.886884
0.821807
0.782444
0.771267
0.785134
0.818879
0.883685
1.11248
1.99128
3.72423
4.89263
5.16387
5.23527
5.49496
5.99513
6.43679
6.63146
6.35112
5.7766
5.64345
6.46375
6.07197
7.34736
6.88847
7.65785
7.1227
8.56146
8.12842
9.12319
8.6008
10.049
9.48694
11.1792
10.6154
12.3144
11.8035
13.3768
13.0659
14.1859
14.1661
14.7607
14.6775
14.6559
14.7515
15.6785
15.2948
15.0234
14.9327
16.7603
16.1837
16.1279
15.6795
18.6988
18.1778
16.8313
17.5344
19.4424
20.0598
19.8344
19.0188
20.4599
20.6941
20.7473
21.0686
20.8526
21.2303
21.3357
19.6354
19.4394
20.7375
20.6473
18.3161
19.3448
19.0799
19.1797
18.9439
1.12731
1.26654
1.39865
1.43931
1.40588
1.32409
1.2081
1.09193
1.02217
0.988877
0.958826
0.905769
0.834737
0.785248
0.770796
0.782186
0.815088
0.883158
1.1267
2.09054
3.91429
4.94331
5.10658
5.12511
5.39495
5.91225
6.32499
6.47463
6.13495
4.99628
4.73239
4.51195
5.3702
4.9876
6.50215
5.88339
6.85097
6.16049
8.06111
7.48583
8.92002
8.33411
10.2398
9.69095
11.2958
10.7721
12.7932
12.5494
14.2995
14.5302
14.9011
15.1444
15.4175
15.7883
14.9388
15.0722
15.3004
15.5967
15.3478
15.234
15.2413
15.4043
16.2357
15.7335
15.9308
15.5634
18.4342
17.6892
16.3977
16.929
19.3651
20.2528
19.7499
18.722
20.6979
21.5205
21.6155
21.5908
21.1367
21.5766
21.9278
20.4688
20.185
21.6194
21.5256
19.0748
22.0079
20.807
19.8563
19.6644
1.29889
1.42635
1.48235
1.43425
1.35151
1.2166
1.09298
1.02362
0.99976
0.98306
0.930737
0.863352
0.797429
0.77398
0.782343
0.814591
0.883286
1.13085
2.14993
4.05542
4.975
5.05902
5.0443
5.32773
5.86106
6.2502
6.36769
5.98592
4.78524
3.88583
3.78781
4.09271
3.94106
4.56255
4.28367
5.50515
4.96265
6.41714
5.77065
7.7198
7.07751
9.11503
8.49401
11.6393
11.1687
12.3074
12.0073
14.7277
14.8383
16.7354
17.3344
15.9175
16.2418
16.5385
16.7046
15.6926
16.0628
16.4814
16.9133
15.537
15.6817
16.0011
16.417
16.2017
15.8499
16.1854
15.9234
17.8855
17.0827
16.5327
16.6574
19.0552
20.1778
19.435
18.1453
20.6449
22.2037
22.4114
21.9964
21.1504
21.6904
22.3846
21.3015
20.9683
22.4782
22.3918
20.311
24.931
23.5227
20.6306
20.6181
1.48419
1.51427
1.48225
1.37575
1.24086
1.09881
1.03102
1.02238
1.00701
0.971874
0.900243
0.828306
0.789218
0.788651
0.818611
0.887608
1.13377
2.17188
4.14282
4.99826
5.02289
4.98853
5.28456
5.83972
6.19956
6.29269
5.86728
4.60932
3.61493
3.69388
3.58856
3.94877
3.80661
4.37314
4.12762
5.18847
4.71856
6.46116
5.80607
7.83474
7.14801
10.5915
9.88723
14.5498
14.096
14.8873
14.8062
17.7285
17.9132
18.71
18.9861
19.4011
19.1887
17.333
17.7271
18.0925
18.4203
16.8905
17.3805
17.8603
18.312
16.2297
16.6889
17.2142
17.7591
16.6016
16.413
17.0021
16.8774
17.3179
16.9823
17.1106
16.9035
18.461
19.8848
18.8571
17.6688
20.4049
22.7433
23.0502
22.2324
20.9703
21.5912
22.75
22.1553
21.8161
23.2372
23.2397
22.0397
29.0663
26.9565
21.5456
21.9382
1.58658
1.51781
1.42335
1.26225
1.11863
1.04643
1.0426
1.05142
1.01541
0.95382
0.884146
0.832226
0.815769
0.838941
0.906078
1.1438
2.17453
4.18775
5.0166
4.99789
4.95157
5.26194
5.83172
6.15756
6.22987
5.74486
4.42238
3.48021
3.49742
3.37027
3.68825
3.57367
3.97911
3.81945
4.42975
4.17626
5.23018
4.77067
7.30222
6.45341
9.08274
8.2
13.4573
12.5989
17.6074
17.134
17.9721
17.8878
19.5464
19.7422
20.3649
19.9858
20.2082
20.5354
20.3941
18.7261
19.099
19.4367
19.7316
18.2982
18.8108
19.2858
19.718
17.4645
18.0819
18.6948
19.283
17.686
17.6235
18.4799
18.3366
17.3694
17.3315
18.461
17.7021
18.0844
19.3526
18.5567
17.8053
19.9411
23.1936
23.5644
22.268
20.6163
21.3769
22.9401
23.0402
22.7478
23.8678
24.0277
24.3047
30.7983
30.7222
22.6825
23.7197
1.59923
1.45954
1.3072
1.13818
1.06817
1.08613
1.09895
1.09557
1.04884
0.994461
0.936038
0.900521
0.905763
0.961752
1.17848
2.17832
4.19925
5.03442
4.98132
4.92837
5.25408
5.82243
6.11387
6.15899
5.59449
4.17744
3.32838
3.25362
3.50097
3.38875
3.78024
3.63073
4.16447
3.95664
4.73106
4.41437
5.72644
5.15474
9.04091
7.73429
11.5633
10.3514
16.4774
15.5967
19.7859
19.3049
20.3124
20.1209
20.6165
20.6415
21.8453
21.8159
21.2363
21.4303
21.7144
21.5898
20.1046
20.446
20.7509
21.013
19.8352
20.3417
20.7997
21.2068
19.0489
19.7421
20.4015
21.0127
19.4466
19.3201
20.4403
20.1519
17.8117
18.3524
20.522
19.3325
18.2919
19.0939
18.8117
18.3452
19.6954
23.5513
24.0328
22.1715
20.3797
21.1817
22.996
23.9552
23.8329
24.4305
24.7636
27.201
32.5542
33.8321
24.0769
25.9879
1.54533
1.34387
1.17801
1.09811
1.12606
1.19987
1.22866
1.25093
1.24114
1.20315
1.14282
1.09891
1.11164
1.28231
2.20519
4.19711
5.04458
4.96836
4.91376
5.25022
5.80983
6.06567
6.06356
5.36659
3.87922
3.15544
3.08658
3.31358
3.17925
3.55405
3.41963
3.88228
3.70634
4.32894
4.0868
5.05648
4.63306
6.57987
5.68199
11.5265
9.73442
14.5024
13.143
18.6818
17.9004
21.5169
20.9698
21.7669
21.7044
21.9355
21.8007
21.8378
22.9138
22.8647
22.5244
22.6728
22.8628
22.7856
21.5616
21.8662
22.1301
22.3471
21.5721
22.0713
22.5086
22.883
20.9582
21.7205
22.429
23.0681
21.7149
21.4308
22.9212
22.3964
19.0541
20.2833
23.1575
21.708
18.9262
19.3758
19.5056
19.7749
20.0081
23.7942
24.4672
22.1071
20.7231
21.5448
23.0602
25.0008
25.0845
25.0219
25.718
30.5411
33.4421
36.8781
25.8518
28.8145
1.43347
1.21291
1.14058
1.21335
1.32183
1.50637
1.67627
1.82026
1.84455
1.7725
1.63858
1.53021
1.57921
2.31635
4.19614
5.04452
4.95641
4.90489
5.24767
5.79071
6.01717
5.95056
5.0982
3.57216
2.97204
2.91709
3.03499
3.30243
3.18534
3.57727
3.43106
3.93087
3.74246
4.43287
4.15324
5.46943
4.83061
7.9714
6.49777
14.2055
12.3105
16.9407
15.7332
20.2958
19.5085
23.035
22.7576
22.6894
22.7616
22.5976
23.2527
23.5227
22.9075
22.9208
24.0135
23.9416
23.9182
24.0069
24.0769
24.0584
23.1941
23.446
23.6522
23.805
23.6355
24.121
24.5251
24.8476
23.3141
24.1628
24.9314
25.6015
24.6491
24.1109
26.1287
25.2423
21.2892
22.9801
26.6112
24.7579
20.4512
20.0943
21.1315
22.208
20.7944
24.0334
24.9989
22.4547
21.5666
22.3905
23.4668
26.1227
26.6589
25.939
26.7974
34.0328
29.9657
39.7626
28.3286
31.8916
1.29847
1.18171
1.2841
1.56583
1.87717
2.2691
2.48736
2.52994
2.44973
2.3093
2.15989
2.13182
2.64109
4.21289
5.03544
4.94359
4.89743
5.24837
5.76908
5.97087
5.83688
4.83809
3.3154
2.79598
2.75609
2.84742
3.07975
2.94882
3.29939
3.17323
3.58859
3.4338
3.96304
3.76206
4.57363
4.2143
6.24413
5.17666
10.1155
7.94216
16.2413
14.6186
18.596
17.5261
21.9037
20.9929
24.0424
23.6999
24.4931
23.9922
23.8403
23.7026
24.327
24.5446
24.0794
24.0573
25.1504
25.0345
25.4605
25.4621
25.3839
25.4352
25.09
25.2619
25.3866
25.4434
26.1705
26.6288
26.979
27.2268
26.3028
27.2575
28.0945
28.797
28.4845
27.5722
30.3135
28.9136
24.2545
26.4404
31.1519
28.7582
23.1869
21.9567
24.487
25.7712
22.8009
24.6312
25.9311
23.3374
23.4663
24.2809
24.5169
27.7071
28.9371
27.1004
28.6437
37.7339
18.1142
39.9465
31.0607
35.5207
1.26487
1.41822
1.78746
2.36429
2.82475
3.07181
3.07877
2.99934
2.8614
2.71469
2.66152
3.03698
4.2656
5.00874
4.92383
4.89363
5.25181
5.75494
5.93247
5.73787
4.62043
3.10671
2.63928
2.60874
2.686
2.79619
3.03577
2.92567
3.28933
3.16029
3.59785
3.43504
4.00798
3.78378
4.82348
4.31482
7.49052
5.78122
12.4975
9.93225
17.5849
16.1708
19.9681
18.8298
23.6229
23.0676
22.7495
25.1395
24.8321
25.5481
25.1468
24.9002
24.7337
25.4096
25.6425
25.3163
25.2396
26.3749
26.2124
27.2547
27.1253
26.8257
26.9789
27.3657
27.4159
27.4235
27.3649
29.36
29.7795
30.0473
30.1725
30.1505
31.2362
32.1592
32.9054
33.5065
32.0709
35.7841
33.6876
28.5377
31.4781
37.4939
34.5107
27.5675
25.443
28.4844
30.6891
25.861
25.8603
27.327
25.1504
26.247
26.5114
26.1617
30.1021
31.314
29.2034
30.9035
41.6798
7.43157
33.1613
34.5424
39.4051
1.54807
2.0858
2.77205
3.33133
3.48477
3.49416
3.39785
3.27149
3.14258
3.08993
3.37543
4.32585
4.95287
4.89108
4.89036
5.26168
5.75242
5.90833
5.66561
4.4662
2.94475
2.50422
2.47416
2.54273
2.63055
2.73595
3.01792
2.90247
3.27949
3.13875
3.61187
3.43657
4.07665
3.81635
5.21685
4.4742
9.07724
6.67012
14.388
11.949
18.7706
17.2821
21.5392
20.1952
24.666
24.1472
23.9956
24.7738
26.2583
25.9202
26.736
26.3057
26.0478
25.8545
26.5472
26.8019
26.6672
26.5207
27.7077
27.4714
29.43
29.1164
28.4928
28.797
30.2069
30.1331
29.9556
29.7165
33.4687
33.8276
33.9986
34.0499
35.1626
36.4322
37.4906
38.3182
40.3933
37.9534
43.2012
39.9718
33.974
37.3343
44.3749
40.7949
31.7308
28.8741
32.3641
35.1762
29.1968
27.5961
29.4446
27.0051
29.2264
29.3394
28.0241
32.4295
34.7741
31.1604
32.9178
45.2854
3.1334
21.6128
37.764
43.4697
2.39377
3.18203
3.6464
3.81024
3.76483
3.67518
3.56017
3.45235
3.42014
3.64238
4.37667
4.86962
4.85392
4.8924
5.28154
5.75598
5.89983
5.62587
4.37493
2.82666
2.38914
2.35292
2.41137
2.48245
2.55118
2.7599
2.87138
2.62926
2.99774
3.27721
3.12915
3.6325
3.44392
4.1678
3.85921
5.73903
4.69084
10.6536
7.74218
15.6402
13.521
20.1675
18.4122
23.4676
21.8776
25.8305
25.3099
25.1983
25.8668
27.4688
27.1246
27.9723
27.5348
27.2653
27.0421
27.756
28.0327
28.1978
27.9399
29.2219
28.8556
32.2178
31.6451
30.5289
31.0604
33.9267
33.6366
33.2408
32.7571
38.9151
39.2151
39.3363
39.3103
41.8142
43.3889
44.689
45.6865
48.213
45.9358
52.1122
48.5567
39.1538
43.8543
55.605
49.3326
36.6584
33.2594
38.9999
42.2402
33.9861
29.5432
31.1949
29.7736
34.618
35.2275
30.5719
35.6383
37.3044
33.0626
35.8014
47.1004
1.89552
13.6735
41.5152
47.7245
3.524
3.91477
3.97957
3.96363
3.85698
3.75254
3.66912
3.66297
3.85454
4.37552
4.76177
4.80848
4.90123
5.3196
5.76948
5.90087
5.61058
4.33521
2.74382
2.2922
2.24509
2.29097
2.34641
2.39757
2.4724
2.85381
2.71601
2.6076
2.98112
3.27935
3.12109
3.65927
3.45748
4.27221
3.9086
6.30367
4.93741
11.9094
8.76757
16.6138
14.5997
21.8664
19.7879
25.7289
24.6793
23.8826
27.0392
26.4794
26.4273
27.1135
28.7076
28.3623
29.2391
28.8033
28.5778
28.3166
29.0011
29.3373
30.0252
29.577
31.0246
30.4484
35.9504
35.0271
33.1468
34.0352
38.9109
38.4082
37.6818
36.8718
46.3647
46.6788
46.7967
46.5742
50.9821
53.1111
54.8464
56.1774
62.234
55.8808
67.8126
59.7824
49.1898
57.7545
78.5151
67.6034
47.183
41.4917
52.8664
58.7289
44.021
31.716
33.3441
35.6402
46.7065
48.4171
35.7996
37.622
41.0451
35.9405
37.8069
45.243
1.66908
11.1
45.2319
50.857
4.07437
4.13025
4.05629
3.96973
3.8533
3.79723
3.81872
3.9919
4.35895
4.65848
4.73394
4.92302
5.37711
5.80213
5.91072
5.60931
4.3233
2.6888
2.21044
2.14949
2.18236
2.22028
2.26313
2.30728
2.42126
2.83991
2.69722
2.58244
2.96981
3.28059
3.1165
3.68457
3.46647
4.38341
3.95929
6.8077
5.18512
12.7841
9.55215
17.6779
15.4641
23.7626
21.3757
26.8156
25.9599
24.8995
26.2459
28.3137
27.7409
27.634
28.3673
30.0033
29.6449
30.5537
30.0952
30.02
29.6972
30.3365
30.791
32.3441
31.5558
33.2738
32.4142
41.1372
39.7411
36.6805
38.1788
45.9184
45.0637
43.9047
42.6409
57.0659
57.4774
57.6578
57.3257
63.7933
67.4783
70.1826
72.3591
92.8485
73.3893
106.337
80.1834
71.7138
88.004
153.779
114.156
68.4949
59.2146
81.4823
86.5125
67.6823
36.3234
37.4719
47.9412
70.8393
69.269
46.5014
41.6307
43.9822
38.5466
42.0676
43.6333
2.10998
12.9645
48.7908
54.0787
4.19579
4.13803
3.98768
3.87557
3.84318
3.88247
4.03829
4.31975
4.5478
4.69452
4.95425
5.4468
5.84411
5.93593
5.61293
4.3186
2.64765
2.14284
2.06483
2.08492
2.10603
2.14173
2.16605
2.23823
2.43218
2.54545
2.31067
2.81663
2.67074
2.95611
3.27808
3.10774
3.699
3.46933
4.49138
4.0062
7.18473
5.40455
13.4736
10.091
18.9555
16.4137
26.1454
26.0412
24.4275
22.9757
28.0842
27.1614
27.2527
29.6033
29.0143
28.924
29.6569
31.3695
30.9898
31.9219
31.4223
31.6781
31.2424
31.7997
32.4448
35.4939
34.1095
36.1561
34.9932
48.5097
46.3808
41.5931
44.1886
56.2248
54.779
52.8075
50.9772
73.7377
74.5129
74.9603
74.8573
88.8658
94.6156
99.8108
102.424
191.066
124.774
194.01
154.624
112.36
149.565
184.849
185.901
110.546
94.3503
137.334
152.098
97.8879
44.5742
42.6023
66.0864
97.5867
96.0799
61.6647
43.9508
47.5942
44.9757
45.2562
43.8223
11.9552
31.4815
52.0481
56.1879
4.11507
3.97509
3.85951
3.84055
3.88403
4.03619
4.26548
4.48862
4.70306
5.00621
5.53295
5.88043
5.96223
5.61293
4.30345
2.61239
2.08371
1.99059
1.99794
2.00497
2.03143
2.04391
2.08676
2.15716
2.51964
2.37084
2.27825
2.79803
2.63723
2.93683
3.26822
3.09321
3.70335
3.46779
4.54961
4.02662
7.38798
5.52068
14.2249
10.4682
20.322
17.5531
27.2076
26.8362
25.4922
23.1496
24.9371
29.3365
28.3543
28.459
30.9284
30.3145
30.1964
30.9521
32.8255
32.3919
33.3541
32.7736
33.7031
32.9906
33.4764
34.3698
39.9378
37.6606
40.0411
38.4654
59.4145
55.5495
48.7379
53.0684
72.8588
70.1186
65.7584
63.0515
104.477
105.841
107.02
107.25
195.344
191.65
203.5
201.069
483.976
219.103
498.16
236.916
184.888
189.232
500.862
489.164
183.302
145.312
195.517
178.528
148.109
55.8838
57.1756
92.5183
149.266
150.269
85.2371
49.1676
50.9375
50.5711
52.8897
48.0943
13.6311
41.5274
55.4356
59.6253
3.85194
3.81762
3.80811
3.8639
4.03238
4.25845
4.49431
4.74217
5.11829
5.63106
5.91385
5.97145
5.59855
4.2604
2.56558
2.03212
1.92391
1.92025
1.91651
1.93159
1.93765
1.95929
2.00975
2.08572
2.48925
2.34091
2.24622
2.76823
2.60464
2.9117
3.24723
3.06916
3.69905
3.45207
4.55597
4.02801
7.46937
5.53795
15.1721
10.8561
21.5336
18.7263
28.282
27.8466
26.285
23.9939
25.4273
30.6024
29.608
29.6392
32.2836
31.6438
31.4855
32.273
34.451
33.8628
34.8671
34.1569
36.441
35.0529
35.5031
36.6223
46.2144
43.0518
45.9332
43.0963
76.702
68.657
59.862
65.5063
103.979
99.0907
87.7182
79.9785
198.692
196.336
185.105
180.092
450.648
471.818
468.25
472.392
886.588
499.522
890.331
503.372
500.601
508.15
889.762
885.847
498.395
202.982
498.901
504.421
209.626
88.7461
67.6361
146.73
217.007
217.836
148.81
52.93
56.4231
63.923
57.5135
62.2942
132.76
85.3287
60.7248
63.5908
3.706
3.77474
3.86434
4.05016
4.28383
4.53825
4.83084
5.26737
5.71716
5.93772
5.96826
5.54691
4.15496
2.50355
1.97835
1.86569
1.84969
1.8381
1.84243
1.84452
1.8505
1.88477
1.93426
1.99829
2.19424
2.44225
2.29589
2.73446
2.56221
2.87628
3.21203
3.03395
3.67078
3.41883
4.53626
4.00975
7.54265
5.52069
16.1857
11.4411
22.4621
19.6109
29.3943
28.7995
27.0876
24.444
26.0958
31.8578
30.8355
30.8294
33.6622
32.9998
32.7843
33.6088
36.4317
35.4543
36.4998
35.5815
40.442
37.7564
38.0031
39.4059
54.8162
51.3741
55.8245
49.4996
106.407
89.4445
77.342
82.4823
166.21
160.647
143.497
108.764
466.073
470.708
466.685
464.191
862.938
870.93
866.35
869.131
2462.45
866.291
2473.6
876.27
896.615
899.968
2443.77
2437.67
900.434
492.71
905.192
901.147
486.324
103.342
92.5582
203.542
484.359
473.842