/*--------------------------------*- C++ -*----------------------------------*\
  =========                 |
  \\      /  F ield         | OpenFOAM: The Open Source CFD Toolbox
   \\    /   O peration     | Website:  https://openfoam.org
    \\  /    A nd           | Version:  dev
     \\/     M anipulation  |
\*---------------------------------------------------------------------------*/
FoamFile
{
    version     2.0;
    format      ascii;
    class       volScalarField;
    location    "2500";
    object      p_rgh;
}
// * * * * * * * * * * * * * * * * * * * * * * * * * * * * * * * * * * * * * //

dimensions      [1 -1 -2 0 0 0 0];

internalField   nonuniform List<scalar> 
9851
(
0.00410687
0.00568178
0.00485818
0.00567596
0.00863624
0.00380942
0.00552909
0.0104557
0.00897971
0.00293835
0.00452766
0.0106588
0.0117781
0.00789473
0.00228652
0.00448307
0.010904
0.013545
0.0112371
0.00632647
0.00179994
0.00406966
0.00978259
0.0143173
0.0140443
0.010197
0.00488764
0.00114295
0.00363032
0.00865099
0.0140796
0.0157724
0.0132268
0.00856569
0.00432659
0.000789576
0.00325417
0.00788225
0.0130873
0.0166582
0.015718
0.0120496
0.00704743
0.00358381
0.000371378
0.00259224
0.00699206
0.0124115
0.0170544
0.0174749
0.0147318
0.0102997
0.00598384
0.00291969
-3.92024e-05
0.00255009
0.00699265
0.0118444
0.0166484
0.0183832
0.0171398
0.0133174
0.00917025
0.00532288
0.00223804
-0.00054358
0.00220039
0.00628706
0.0102478
0.0151822
0.0186284
0.0185411
0.0158163
0.0116538
0.00819601
0.0047311
0.00183338
-0.000767124
0.0020907
0.00522314
0.00913723
0.014842
0.0186378
0.0195475
0.0180991
0.0145446
0.0105867
0.0072411
0.00408476
0.0014304
-0.00101834
0.00165552
0.00488675
0.00916721
0.0139736
0.0175701
0.0200759
0.0195362
0.016647
0.0131023
0.00960448
0.00659005
0.00374718
0.0010872
-0.00141254
0.00154228
0.00476244
0.0079455
0.0119933
0.0169651
0.0201587
0.020465
0.0187547
0.0153828
0.0115597
0.00853854
0.00572793
0.00332333
0.000764477
-0.00163469
0.00123154
0.00405712
0.00707782
0.0117471
0.0163816
0.0195887
0.0211039
0.0201434
0.0174564
0.0141393
0.0108193
0.00797914
0.00527883
0.00299877
0.000535546
-0.00185029
0.00114358
0.00361487
0.00684659
0.010358
0.0152079
0.0190292
0.021105
0.0211372
0.0191245
0.0161318
0.0128413
0.00988771
0.0073776
0.00482855
0.00266154
0.000284329
-0.00195815
0.000973105
0.00350933
0.00616516
0.00976891
0.014231
0.0181417
0.0208861
0.0217736
0.0206329
0.0178167
0.0148808
0.011885
0.00919352
0.0069222
0.004503
0.00238722
0.000125605
-0.00208231
0.000762262
0.00292482
0.00565537
0.0092424
0.0130053
0.0172919
0.0202811
0.0220115
0.0215886
0.0196739
0.0167094
0.0137916
0.011081
0.00871695
0.00637875
0.00411239
0.00202534
-5.79733e-05
-0.00221924
0.000552364
0.00261063
0.00530421
0.00839426
0.0112296
0.0162075
0.0196822
0.0219146
0.0222716
0.0208825
0.0183162
0.0154563
0.0127562
0.0102952
0.00830385
0.00589827
0.00399424
0.00184752
-0.00019873
-0.00237047
0.000308612
0.00234145
0.0049609
0.0072835
0.0103598
0.0154264
0.0188792
0.0214997
0.0225755
0.0219784
0.0199544
0.017226
0.0145853
0.0117916
0.00971658
0.00790173
0.00562602
0.00372216
0.00160959
-0.000202594
-0.00234912
1.04867e-05
0.00212291
0.00437623
0.00685417
0.0103716
0.0141079
0.0180962
0.0209117
0.0225149
0.0225475
0.0211307
0.0187581
0.0161601
0.0136871
0.0113745
0.00955849
0.00751211
0.00561918
0.00363132
0.0016315
-0.000315068
-0.00233169
-7.40693e-05
0.00182384
0.00396346
0.00665998
0.00947951
0.012476
0.0171836
0.0201992
0.0222725
0.0229148
0.0220174
0.0198455
0.0173752
0.0154295
0.0130005
0.0110749
0.00901617
0.00742469
0.00563248
0.00345466
0.0016838
-0.000283659
-0.00237594
-0.000300958
0.00151251
0.00364653
0.00610244
0.00883823
0.01203
0.0163558
0.0192175
0.0217394
0.0229147
0.022733
0.0209257
0.0189343
0.0164792
0.014475
0.0124801
0.0106431
0.00896493
0.00725873
0.00547403
0.00361609
0.00170949
-0.000191461
-0.00231424
-0.000445189
0.00118927
0.00313692
0.00561462
0.00770026
0.0107739
0.0150721
0.0184998
0.0212829
0.0228097
0.0230349
0.0220615
0.0199031
0.0177152
0.0155078
0.0136702
0.0122789
0.0102728
0.00884284
0.0072717
0.00541244
0.00360163
0.00168204
-0.00010209
-0.00215148
-0.000717231
0.000967417
0.00264575
0.00508926
0.0074159
0.0105839
0.0140308
0.017362
0.0204132
0.0224211
0.02316
0.0226453
0.0211307
0.0191342
0.0170629
0.0152175
0.0135458
0.0119067
0.0100952
0.00876675
0.00713187
0.00554395
0.00373725
0.00189778
4.45868e-05
-0.0020908
-0.000827393
0.000678977
0.00227723
0.0046052
0.00691665
0.0095874
0.0131585
0.0166866
0.0196453
0.0219254
0.0230348
0.0229105
0.0217556
0.0200947
0.0183424
0.0162994
0.0147837
0.0132271
0.011752
0.0102839
0.00880542
0.00723216
0.00562996
0.00383899
0.00213969
0.000206926
-0.00187743
-0.0010893
0.000274083
0.00211301
0.00409569
0.00600469
0.00893263
0.0123787
0.0156593
0.0187668
0.0210353
0.0226744
0.0232576
0.0225759
0.0208157
0.0191194
0.0175401
0.0159053
0.0143165
0.0129686
0.0115819
0.0103112
0.00883729
0.00736239
0.00583533
0.00410085
0.0023421
0.000551407
-0.00154833
-0.0012695
1.639e-05
0.00168704
0.00368528
0.00564043
0.00769937
0.0114203
0.0147413
0.0178177
0.0203413
0.0223714
0.0231519
0.0229423
0.0216417
0.0200637
0.0182058
0.0168907
0.0156727
0.0142903
0.0126818
0.0115284
0.0103468
0.00883199
0.00754613
0.00599297
0.00441488
0.00272529
0.000849265
-0.00124437
-0.00131024
-0.000249065
0.00131226
0.00309708
0.00529834
0.00728568
0.0109881
0.0138458
0.0168921
0.0195705
0.021711
0.0229206
0.0230735
0.0224629
0.0208408
0.0193674
0.0176729
0.01649
0.0151559
0.0141731
0.0129635
0.0117316
0.0104199
0.00918099
0.00760416
0.0063587
0.00475158
0.00306352
0.00123481
-0.000962197
-0.00143061
-0.000370221
0.000858642
0.00278334
0.00481639
0.00690886
0.00985711
0.013139
0.0159123
0.0187573
0.0209958
0.0224823
0.0229123
0.0226739
0.0214844
0.0201175
0.0185886
0.0171508
0.0162741
0.0150367
0.0141197
0.013001
0.0119141
0.0106998
0.00947588
0.00813369
0.00673274
0.00518623
0.00349526
0.00165786
-0.00056429
-0.00152468
-0.000664134
0.000745825
0.00216646
0.0039261
0.00592328
0.00864108
0.0122898
0.014982
0.017926
0.0201979
0.0218968
0.0228327
0.0226111
0.0219342
0.0205754
0.0194926
0.0182012
0.0171351
0.0161762
0.0151255
0.0139542
0.0131135
0.0120745
0.0108669
0.00974261
0.00850533
0.00719977
0.00571041
0.00406958
0.00217456
-7.2018e-05
-0.00150754
-0.000718916
0.000372787
0.00159973
0.00377259
0.00585396
0.00867732
0.0117467
0.0141145
0.0171787
0.0194766
0.021223
0.0224555
0.0226295
0.0220925
0.021207
0.0200002
0.0189949
0.0178556
0.0168788
0.0160055
0.0152221
0.0141349
0.013201
0.0122138
0.0112313
0.0101676
0.00906683
0.0078262
0.00641451
0.00476508
0.00279531
0.00041496
-0.00158861
-0.000754103
0.000324375
0.00178058
0.00283335
0.00491269
0.00772602
0.0109022
0.0135752
0.0162162
0.0186043
0.0205091
0.0219852
0.0225785
0.0222578
0.0214188
0.020472
0.0195169
0.0185037
0.0177608
0.0167074
0.0159905
0.0151162
0.0141493
0.0134073
0.0125648
0.0116896
0.0107739
0.00975571
0.00859464
0.00720797
0.00546766
0.00339735
-0.000553259
0.00118108
-0.00161207
-0.000874398
0.000162808
0.0015687
0.00260555
0.00517384
0.00751198
0.0104056
0.0127559
0.015161
0.0178219
0.0198273
0.0213041
0.0221113
0.0222645
0.0214668
0.0208158
0.0198109
0.0191221
0.0182977
0.0176028
0.01673
0.0159741
0.0151061
0.0144533
0.0137541
0.0130544
0.0123142
0.0114962
0.0105755
0.00947181
0.00801194
0.00579111
0.00277074
0.00431577
-0.000283879
0.00146278
-0.00142641
-0.000970288
-5.88812e-05
0.00138118
0.0025402
0.00490051
0.00690253
0.00956717
0.0119555
0.0145092
0.0170071
0.0190711
0.0206269
0.021583
0.0220269
0.0217907
0.020952
0.0202369
0.0195801
0.0189523
0.0180545
0.0173628
0.0166801
0.0159913
0.0153872
0.0148079
0.0142495
0.0136797
0.0130538
0.0123498
0.0115081
0.0103684
0.00795653
0.00914525
0.00581024
0.00759704
0.00732922
0.00308703
0.00467296
7.20128e-08
0.00179711
-0.0014435
-0.000913129
-0.000477
0.000926923
0.00241602
0.00451329
0.00656095
0.0089745
0.0113219
0.0136914
0.0160616
0.0182228
0.0199443
0.0211323
0.0216889
0.0216168
0.0211066
0.0205477
0.0199609
0.0193638
0.0185579
0.0179076
0.0173546
0.0167299
0.0162171
0.0157371
0.0152927
0.0148629
0.014429
0.0139237
0.0133106
0.0124625
0.0103051
0.0115633
0.0091193
0.00626321
0.00878229
0.00785453
0.0034785
0.00513105
0.000300686
0.0021538
-0.0013191
-0.000799589
-0.000481425
0.00114994
0.0025833
0.00414123
0.00624049
0.00816861
0.0104934
0.0129525
0.0151051
0.0172945
0.0191893
0.0205974
0.0212283
0.0214839
0.0212192
0.0206182
0.0200336
0.0196069
0.0191651
0.0183795
0.0179068
0.0174103
0.0169493
0.0165421
0.0162054
0.0158875
0.0156042
0.0153106
0.0148907
0.0142961
0.0126478
0.0137142
0.0105799
0.0119217
0.0102178
0.00680114
0.00942349
0.00847735
0.00390023
0.00563335
0.000610605
0.00252449
-0.00118429
-0.000860154
-0.000401086
0.00069692
0.0021859
0.00407182
0.00577174
0.00778701
0.010002
0.0120846
0.01415
0.0163596
0.0182394
0.0198122
0.020743
0.0211299
0.0210148
0.020599
0.0202418
0.0197186
0.0192856
0.0188081
0.0183415
0.0179583
0.0176009
0.0172681
0.0169812
0.0167786
0.0166146
0.0164741
0.0162923
0.0159097
0.0146651
0.0156148
0.0131677
0.0143241
0.0116147
0.0129379
0.0109484
0.00739798
0.0101336
0.00917585
0.00434465
0.00617345
0.000928579
0.00290671
-0.00104042
-0.000875849
-0.000167345
0.000852581
0.00235431
0.00351798
0.00540862
0.0072192
0.00910634
0.0113
0.0135367
0.0154491
0.0173975
0.0189662
0.0200482
0.0206915
0.0208187
0.0206534
0.0201031
0.0198141
0.0194803
0.0190849
0.0186969
0.018393
0.0181282
0.0178813
0.0176903
0.0175257
0.017479
0.0174813
0.0174762
0.0174186
0.0164913
0.0174452
0.0154172
0.0164967
0.0141818
0.0153906
0.0124179
0.0138277
0.0117472
0.00805183
0.0109405
0.00995851
0.00480792
0.00674879
0.00125045
0.00329454
-0.00101571
-0.000706845
-0.000262549
0.000575718
0.00223939
0.00326723
0.00502776
0.00664011
0.00858868
0.0105686
0.0126663
0.0145855
0.0165329
0.0181261
0.019393
0.0200621
0.0204256
0.020479
0.0202668
0.0197278
0.0194188
0.0193147
0.0190355
0.0187713
0.0185512
0.0183907
0.0182546
0.0182076
0.0182066
0.0183377
0.0186142
0.0189949
0.0184375
0.0197432
0.017662
0.0190778
0.0166537
0.0181446
0.0152219
0.0167715
0.0133282
0.0149665
0.0127009
0.00876949
0.0119011
0.0108761
0.00528204
0.00735567
0.00157212
0.00368189
-0.000885831
-0.000992972
-7.91004e-05
0.000468898
0.0021232
0.00315208
0.00478923
0.00604391
0.00804186
0.00977783
0.0117256
0.0136573
0.0155754
0.017227
0.0185754
0.0195311
0.0198965
0.0201031
0.0200357
0.0196564
0.0194526
0.0192711
0.0192188
0.0190673
0.0189198
0.0187921
0.018739
0.0187424
0.0188856
0.0191463
0.0197864
0.0213541
0.0215128
0.0245317
0.0210952
0.0242946
0.0202294
0.0235282
0.0188125
0.0220311
0.0169079
0.0197592
0.0145866
0.0170065
0.0140474
0.00958189
0.0132589
0.0121422
0.00576172
0.00800597
0.00189324
0.00406568
-0.000756814
-0.000838576
0.000313436
0.000509338
0.00196377
0.0028783
0.00425599
0.00563647
0.00751005
0.00911252
0.0109454
0.0126123
0.0146157
0.0162621
0.0176906
0.0187539
0.0193916
0.0196698
0.0196927
0.0196186
0.0193965
0.0192602
0.0191739
0.0191939
0.0191675
0.0191286
0.0191064
0.0192194
0.0194583
0.0200594
0.0215082
0.0253657
0.0279576
0.0339319
0.0291098
0.0357577
0.0290444
0.0369575
0.0275409
0.0364386
0.0247433
0.0336003
0.0209486
0.0283581
0.0169782
0.0221954
0.0166722
0.0106393
0.0158962
0.0145089
0.00625422
0.00878848
0.00220969
0.00444412
-0.000621736
-0.00059722
0.000442079
0.000678639
0.00176595
0.00275267
0.00386811
0.00515982
0.00681579
0.00829098
0.0101071
0.0118422
0.0136254
0.0153208
0.016713
0.0178865
0.0187514
0.0191313
0.0192891
0.0193396
0.0193074
0.0192362
0.019161
0.0191876
0.0192546
0.0193069
0.0194033
0.0195735
0.020046
0.0211843
0.0242208
0.0318492
0.0397311
0.0477961
0.0437355
0.0525019
0.0465538
0.0570408
0.0478056
0.060332
0.0465336
0.0612327
0.0416072
0.0585437
0.0325674
0.0507463
0.0232161
0.0367311
0.0235087
0.0124735
0.0226492
0.0204239
0.00679784
0.0100342
0.00251877
0.0048213
-0.00049416
-0.00037946
0.000490759
0.000708949
0.00159937
0.00248698
0.00341318
0.00467376
0.00619689
0.00770196
0.00932253
0.0109653
0.0127155
0.0142859
0.015842
0.017034
0.017999
0.0184977
0.0187494
0.0189765
0.0191114
0.019183
0.0191998
0.0191576
0.0192277
0.0193448
0.019505
0.0198483
0.0206283
0.0228616
0.0289632
0.0430758
0.0555594
0.0606855
0.0612952
0.0706314
0.0675307
0.0775661
0.0727373
0.084509
0.0760504
0.0900223
0.0761737
0.0928195
0.0713734
0.0914422
0.0597686
0.0837687
0.0399635
0.0673163
0.0411717
0.0169233
0.0397822
0.0354552
0.00754958
0.0128352
0.00281942
0.00524108
-0.000384109
-0.000227501
0.000475166
0.000699143
0.00145926
0.00230057
0.00324317
0.00434875
0.00557801
0.00708128
0.00849812
0.0101059
0.0117373
0.0133445
0.0148182
0.0161671
0.0171241
0.0178607
0.0182716
0.0185846
0.0188287
0.019018
0.0191195
0.0191704
0.0192085
0.0193247
0.0195561
0.0200723
0.0214451
0.0254494
0.0355077
0.0550767
0.0859399
0.077818
0.0901178
0.0869287
0.095773
0.0952637
0.10493
0.102619
0.113846
0.107901
0.12118
0.10969
0.125649
0.106083
0.125764
0.0946693
0.119261
0.0724278
0.103085
0.0741683
0.0281785
0.0715411
0.0637303
0.00901735
0.0199603
0.00313168
0.00595767
-0.000296841
-0.000142998
0.000415479
0.000638515
0.00128811
0.00203092
0.00288299
0.0038419
0.00503982
0.00637063
0.00763387
0.00921535
0.010748
0.0123357
0.0138026
0.0151544
0.0162506
0.0171166
0.0176747
0.0181343
0.0184896
0.0187445
0.0189549
0.0190954
0.0191928
0.0193213
0.0196069
0.0203452
0.022539
0.0287395
0.042635
0.0663379
0.0983568
0.116445
0.122462
0.103625
0.110943
0.113564
0.121352
0.123612
0.132002
0.132553
0.142228
0.139301
0.150716
0.142486
0.156305
0.140309
0.157679
0.130266
0.152802
0.108366
0.138316
0.109975
0.0506693
0.107069
0.0984856
0.0130119
0.036809
0.00356357
0.00806971
-0.000224588
-0.000109891
0.000322059
0.00053684
0.00109531
0.00175695
0.0025902
0.00338868
0.00442549
0.00567529
0.00704937
0.00838828
0.00983088
0.0113046
0.0127466
0.0141116
0.0152901
0.0162452
0.0169954
0.0175987
0.0180821
0.0184325
0.0187201
0.01893
0.0190845
0.0192763
0.0196145
0.0206492
0.0239461
0.0325244
0.04971
0.0754686
0.107491
0.126458
0.13044
0.13832
0.142076
0.128039
0.133695
0.13918
0.145345
0.150256
0.156816
0.160002
0.167418
0.167344
0.176066
0.17135
0.181859
0.170512
0.183958
0.162621
0.180961
0.143129
0.169345
0.144297
0.0838959
0.140898
0.132026
0.0239417
0.0655526
0.00404915
0.0129883
-0.000153488
-0.000103984
0.000212542
0.000420173
0.000884244
0.00145957
0.0021982
0.00294182
0.00390795
0.00507404
0.00628947
0.00752486
0.0088814
0.0102879
0.0117237
0.0130761
0.0143183
0.0153647
0.0162413
0.016969
0.0175873
0.0180463
0.0184272
0.0187009
0.0189081
0.0191194
0.019638
0.0210329
0.0254795
0.0364234
0.0561398
0.0838293
0.114009
0.132678
0.133701
0.144783
0.146481
0.156979
0.158838
0.150341
0.154204
0.162097
0.166252
0.173213
0.177639
0.182603
0.187233
0.189211
0.193867
0.192854
0.19791
0.193282
0.199958
0.188315
0.199482
0.173071
0.192914
0.17344
0.117995
0.169828
0.161732
0.0445656
0.0980164
0.00474098
0.0226118
-6.5374e-05
-0.000102357
9.82682e-05
0.000293237
0.000669674
0.00116031
0.00180158
0.00252725
0.00338071
0.00447502
0.00558938
0.00672829
0.00795923
0.00931764
0.0106856
0.0120318
0.0132965
0.0144184
0.0154
0.0162484
0.0169863
0.0176084
0.0180446
0.0184065
0.0186772
0.018929
0.0195471
0.0215043
0.0271258
0.040011
0.0613466
0.0899406
0.117336
0.137747
0.146801
0.146878
0.159408
0.158858
0.171764
0.171117
0.169299
0.171171
0.180758
0.182652
0.19022
0.191771
0.196569
0.197891
0.200518
0.201623
0.203016
0.203953
0.204372
0.20577
0.203368
0.206923
0.195108
0.205652
0.194771
0.148315
0.191564
0.184871
0.0704296
0.127243
0.00477157
0.0362379
-5.19885e-05
4.86324e-06
0.000166808
0.000461914
0.000874425
0.00141927
0.00210599
0.00289172
0.00387378
0.00488416
0.00593547
0.00709058
0.00834458
0.00965657
0.0109696
0.0122377
0.013413
0.014478
0.0154361
0.0162903
0.0170586
0.0176173
0.0180379
0.0184032
0.0187244
0.0194076
0.021965
0.0289601
0.043214
0.065601
0.0931113
0.114549
0.130521
0.147119
0.140245
0.156118
0.152333
0.168537
0.164824
0.179852
0.176373
0.183149
0.182175
0.192053
0.191182
0.198171
0.19748
0.201781
0.201325
0.203975
0.20315
0.20551
0.203862
0.207125
0.204812
0.208549
0.206949
0.206611
0.209173
0.206061
0.17269
0.203737
0.19893
0.0955434
0.151267
0.00548021
0.0525055
-1.85869e-05
6.79598e-05
0.000277149
0.000611593
0.00106504
0.00167946
0.00240418
0.00329212
0.00420135
0.00518013
0.0062406
0.00740826
0.00864197
0.00990452
0.0111502
0.0123524
0.0134838
0.0145359
0.0155065
0.0163886
0.0171401
0.0176791
0.0180694
0.0184682
0.0193534
0.0225055
0.0307738
0.0461945
0.0686405
0.0936008
0.109356
0.120272
0.133219
0.125693
0.145654
0.136454
0.159725
0.153386
0.171837
0.16587
0.182162
0.176825
0.189164
0.186147
0.196038
0.193528
0.20012
0.197896
0.201466
0.198904
0.201094
0.197458
0.200705
0.195491
0.202007
0.195102
0.205753
0.197812
0.208995
0.204307
0.208223
0.188685
0.206695
0.204057
0.200042
0.118075
0.169414
0.0100761
0.0691945
1.38466e-05
0.000129726
0.000382701
0.00074796
0.00127247
0.00193011
0.00272411
0.00355557
0.00445458
0.00543113
0.00649986
0.0076478
0.00884352
0.0100476
0.011249
0.0124238
0.0135549
0.0146344
0.0156353
0.0165281
0.0172433
0.0177669
0.0182351
0.0193564
0.0231156
0.0326282
0.0487276
0.0709259
0.0924415
0.103885
0.110134
0.107938
0.126438
0.114275
0.138175
0.126073
0.158349
0.149058
0.169769
0.161008
0.178372
0.170133
0.190024
0.185079
0.194526
0.189816
0.195381
0.190635
0.193008
0.187534
0.18924
0.181905
0.186557
0.176982
0.187179
0.17542
0.193243
0.178343
0.202796
0.18897
0.196576
0.205559
0.201413
0.201907
0.189312
0.197917
0.204796
0.201454
0.201631
0.203528
0.136971
0.192724
0.184222
0.168747
0.0119823
0.0861805
3.35661e-05
0.000192444
0.000473785
0.000903584
0.00148006
0.00218985
0.00294368
0.00376618
0.00465699
0.0056284
0.0066812
0.00779517
0.00894398
0.0101163
0.0113075
0.0125005
0.0136728
0.0147941
0.0158199
0.016643
0.017333
0.0180875
0.0193691
0.0237246
0.0343802
0.0510212
0.0724523
0.0906948
0.099344
0.101753
0.0933102
0.0902606
0.0816418
0.113433
0.100918
0.124545
0.109963
0.15049
0.138252
0.160369
0.148989
0.166108
0.155326
0.183537
0.17562
0.184456
0.176722
0.180752
0.172658
0.173635
0.164102
0.166286
0.154455
0.16237
0.14954
0.162277
0.158925
0.151257
0.180901
0.171778
0.154482
0.163064
0.187441
0.195248
0.1863
0.178125
0.194866
0.20155
0.19859
0.201719
0.195842
0.195201
0.201221
0.173333
0.134776
0.157872
0.194068
0.187186
0.0137609
0.139346
0.111511
0.0778967
5.40416e-05
0.000245165
0.00057947
0.00107117
0.00169152
0.00237195
0.00312022
0.00392654
0.00480207
0.00575015
0.00677186
0.00784622
0.00896888
0.0101472
0.0113712
0.0126216
0.0138545
0.0150124
0.0161075
0.017001
0.0178201
0.0193312
0.0242957
0.0358287
0.053019
0.073399
0.0889247
0.0953751
0.0952578
0.0835297
0.0620668
0.0712329
0.0606543
0.0954845
0.0822282
0.105355
0.089189
0.135921
0.121245
0.14331
0.129911
0.144731
0.132151
0.167438
0.156646
0.163168
0.152072
0.153297
0.142199
0.143503
0.134778
0.13821
0.130637
0.145051
0.13959
0.135314
0.132455
0.146838
0.140482
0.144587
0.139466
0.168706
0.159024
0.14282
0.15042
0.176251
0.186033
0.175319
0.166053
0.186089
0.199848
0.197411
0.196579
0.186857
0.188017
0.19695
0.17707
0.162689
0.193717
0.188042
0.0833649
0.011298
0.0456826
0.143052
0.117882
7.09583e-05
0.000305114
0.000701155
0.00123168
0.00184652
0.00252124
0.0032468
0.0040287
0.00487152
0.0057741
0.00675354
0.0078025
0.00894878
0.0101659
0.0114742
0.0128077
0.0141104
0.0153043
0.0162659
0.0172195
0.0191439
0.0247362
0.0370436
0.0543869
0.0739842
0.0868326
0.0921508
0.0903491
0.0773343
0.0558902
0.0398842
0.0376561
0.051379
0.0442547
0.0740498
0.0612079
0.0820965
0.0658624
0.11507
0.098933
0.118774
0.104449
0.11448
0.101554
0.139934
0.127247
0.131102
0.120356
0.128258
0.122285
0.126972
0.12582
0.130843
0.130535
0.130949
0.133058
0.134988
0.132572
0.13162
0.132234
0.137748
0.135409
0.135883
0.133762
0.156087
0.147165
0.137383
0.140526
0.164329
0.175132
0.163508
0.153928
0.1756
0.196603
0.195005
0.189406
0.176761
0.178409
0.190695
0.179287
0.165784
0.191928
0.187246
0.089556
0.016998
0.0564744
0.147065
0.123845
9.03494e-05
0.000377631
0.000828172
0.00136513
0.00197488
0.00262256
0.00331701
0.0040539
0.00485112
0.00569358
0.00662367
0.00769681
0.0088989
0.010222
0.0116503
0.0130956
0.014419
0.0156605
0.0165642
0.0186891
0.0248881
0.0378352
0.0555085
0.0735486
0.0846891
0.0889647
0.0862753
0.07319
0.0523765
0.0289173
0.0265176
0.0241404
0.0337188
0.0292697
0.0516315
0.0408814
0.0572851
0.043449
0.0891943
0.0731719
0.0883004
0.0747841
0.0896587
0.0789749
0.110102
0.0999641
0.116024
0.109297
0.126191
0.126077
0.135269
0.138771
0.142142
0.147258
0.13455
0.138116
0.142688
0.148162
0.133114
0.134612
0.138059
0.143172
0.136224
0.134743
0.137762
0.136609
0.144995
0.14005
0.138332
0.137913
0.152568
0.163458
0.152059
0.144239
0.164253
0.191442
0.191161
0.18053
0.165751
0.167891
0.182774
0.179716
0.167956
0.189171
0.185109
0.0970604
0.0227358
0.0661587
0.151111
0.129861
0.000117081
0.000458421
0.000934506
0.00147657
0.00206074
0.00266969
0.00331085
0.00398495
0.00471571
0.00549164
0.00641099
0.00756547
0.00888356
0.0103749
0.0119482
0.0134471
0.0147664
0.0159848
0.0179701
0.0245581
0.0381191
0.0558471
0.0724283
0.0818489
0.0855351
0.0823237
0.06954
0.0494851
0.0268783
0.0170234
0.0162529
0.0193908
0.0178781
0.0238558
0.0212636
0.0337483
0.0277162
0.0383141
0.0304134
0.0613578
0.0488515
0.0681311
0.0573704
0.0850704
0.0753419
0.102041
0.0939424
0.125179
0.122787
0.1619
0.17062
0.153881
0.159525
0.164294
0.16619
0.14976
0.157476
0.165931
0.174654
0.140741
0.147001
0.155172
0.164652
0.141884
0.141938
0.148715
0.148881
0.140401
0.139121
0.146859
0.141157
0.14443
0.152392
0.145171
0.141148
0.153477
0.184695
0.185711
0.170655
0.155219
0.157597
0.173732
0.178927
0.169294
0.185205
0.182458
0.105384
0.0264044
0.0741297
0.155089
0.13623
0.000150853
0.000534287
0.00103119
0.00155278
0.00209824
0.00264414
0.00320295
0.00377323
0.00442457
0.00517755
0.00616831
0.00746195
0.00899148
0.0106712
0.012344
0.0138228
0.0153142
0.0172472
0.0237135
0.0377081
0.0553039
0.0705952
0.0784624
0.0818486
0.0778892
0.0653642
0.0462199
0.0250322
0.0139585
0.0134066
0.0124948
0.0155912
0.0143831
0.0188412
0.017009
0.0249982
0.0213736
0.0308607
0.0251627
0.0472661
0.0383165
0.0651819
0.054872
0.104163
0.0935381
0.118984
0.112546
0.173902
0.173213
0.210824
0.215531
0.221015
0.218459
0.183177
0.191182
0.198561
0.205025
0.175042
0.18578
0.196415
0.20652
0.158242
0.169304
0.181318
0.193671
0.156626
0.158716
0.169414
0.170959
0.140767
0.144288
0.16483
0.152474
0.142225
0.146241
0.143396
0.142476
0.147487
0.17675
0.179107
0.160675
0.149006
0.150763
0.164304
0.177498
0.170151
0.180101
0.17934
0.114146
0.0254227
0.0784569
0.159196
0.143499
0.000191388
0.000610903
0.00110295
0.00159144
0.00207311
0.00251152
0.00293842
0.00338782
0.00398579
0.00479626
0.00598097
0.00747389
0.00923483
0.0110704
0.0127732
0.0143714
0.0165129
0.0226444
0.0364315
0.0541476
0.0676202
0.0749369
0.077542
0.0724189
0.0598824
0.0414071
0.0228232
0.0133152
0.009931
0.00959224
0.011037
0.0103557
0.0128385
0.0118766
0.0157381
0.0140628
0.0210036
0.0179676
0.0289768
0.0231988
0.0451047
0.0363677
0.0815932
0.0685832
0.151949
0.137651
0.170617
0.1627
0.222249
0.224219
0.234249
0.241731
0.245124
0.247725
0.247255
0.21578
0.223995
0.231195
0.237128
0.205922
0.217613
0.228421
0.238108
0.184386
0.198296
0.21203
0.225089
0.179963
0.183955
0.196546
0.199353
0.147586
0.158046
0.189784
0.172672
0.144058
0.144521
0.145419
0.150529
0.145659
0.168226
0.171771
0.152847
0.146723
0.147789
0.15567
0.176175
0.171283
0.17448
0.175925
0.122594
0.0215428
0.0747558
0.163786
0.152182
0.000245576
0.000685531
0.00115138
0.0015818
0.00194452
0.00221864
0.00247618
0.0028167
0.00349089
0.00450111
0.00585447
0.00762238
0.00959521
0.0115229
0.013261
0.0155831
0.0214148
0.0346697
0.0518985
0.0642559
0.0709003
0.0721801
0.0660468
0.0534793
0.0357552
0.0204078
0.0126297
0.00871262
0.00799292
0.00775138
0.00879837
0.00829684
0.0102828
0.00940474
0.0134929
0.0116979
0.0189124
0.015755
0.0325637
0.0240842
0.055558
0.0432644
0.121057
0.10231
0.202286
0.184525
0.228124
0.216413
0.247011
0.245138
0.2651
0.261598
0.267462
0.269692
0.270526
0.270733
0.246525
0.253625
0.259538
0.264135
0.237192
0.248077
0.257627
0.265782
0.214616
0.229127
0.242526
0.254547
0.208033
0.213372
0.225973
0.229545
0.163012
0.179543
0.218039
0.198454
0.15274
0.146226
0.154134
0.166906
0.146693
0.159671
0.164361
0.148825
0.146655
0.146653
0.150412
0.175441
0.173159
0.168849
0.172773
0.127333
0.0161994
0.0663421
0.169355
0.160161
0.000314485
0.00075762
0.00116898
0.0014909
0.00166639
0.00171873
0.00180035
0.00219163
0.00305157
0.00425792
0.00586467
0.00792277
0.0100567
0.0120444
0.0144326
0.0199491
0.0326756
0.0491202
0.0604593
0.0662056
0.0663504
0.0593378
0.0466498
0.0301122
0.01829
0.0120467
0.00854751
0.00596152
0.00607859
0.00590011
0.00580689
0.00635673
0.00605044
0.0081044
0.0069767
0.0112424
0.00945563
0.0180363
0.0140251
0.0456814
0.0309532
0.0828147
0.0634645
0.164182
0.141376
0.23394
0.214739
0.257338
0.253601
0.250145
0.269598
0.267885
0.279031
0.274598
0.287164
0.288032
0.286826
0.287761
0.272527
0.277933
0.282179
0.285223
0.265124
0.274174
0.281739
0.287894
0.244436
0.257763
0.26944
0.27939
0.236779
0.242651
0.253748
0.257618
0.185085
0.205548
0.245728
0.226362
0.169325
0.154264
0.170229
0.188891
0.153134
0.15292
0.157496
0.146909
0.150889
0.148417
0.147557
0.175375
0.176079
0.163686
0.170163
0.124598
0.0104485
0.0541851
0.17564
0.165445
0.000396789
0.000830651
0.00112352
0.00127285
0.00118037
0.00104492
0.00105182
0.00167238
0.00280811
0.00422592
0.00621097
0.00846419
0.0106503
0.0130297
0.0183179
0.0302233
0.045982
0.0562425
0.0613453
0.0605453
0.0529938
0.0404757
0.0257735
0.0165756
0.0116671
0.00857487
0.0055982
0.00402122
0.00427278
0.00381975
0.00386524
0.00424146
0.00389054
0.00587645
0.00498841
0.00954491
0.00719881
0.0202343
0.0134303
0.0670852
0.0448579
0.117025
0.0917954
0.19297
0.169107
0.250143
0.240719
0.229738
0.269229
0.262924
0.257846
0.265978
0.28527
0.282613
0.289247
0.284567
0.30119
0.300826
0.298554
0.299948
0.292716
0.296336
0.298949
0.300584
0.287731
0.29452
0.299915
0.304059
0.270651
0.281697
0.290871
0.298292
0.262826
0.268577
0.27728
0.281058
0.210859
0.232734
0.269886
0.252737
0.19082
0.168859
0.190292
0.214027
0.165456
0.149042
0.152461
0.146376
0.16018
0.154079
0.145983
0.17603
0.179963
0.159117
0.168173
0.115127
0.0059238
0.0383168
0.181585
0.16585
0.00050567
0.000854011
0.00101424
0.000883523
0.000552733
0.000502359
0.000839206
0.00183414
0.00328749
0.00496906
0.00700017
0.0091696
0.0115365
0.0165808
0.0275503
0.0423618
0.0519995
0.0565016
0.0551041
0.047476
0.0355244
0.0226886
0.0153539
0.011476
0.00872781
0.00600373
0.00281115
0.0033378
0.00226357
0.00250096
0.00197644
0.00206765
0.0024055
0.00208064
0.0035523
0.00281554
0.00857755
0.00522127
0.0271889
0.0152948
0.0888851
0.0621875
0.143416
0.11639
0.207275
0.182941
0.25661
0.246946
0.244273
0.232313
0.279138
0.272927
0.265294
0.273124
0.296329
0.293154
0.296604
0.291861
0.310351
0.309494
0.306565
0.308314
0.307085
0.309131
0.310382
0.310812
0.304192
0.308727
0.312122
0.314554
0.291321
0.299501
0.305867
0.310702
0.283931
0.289113
0.294835
0.29833
0.237091
0.257736
0.288551
0.274992
0.214847
0.187331
0.213083
0.239128
0.181712
0.147003
0.149755
0.148964
0.173535
0.164197
0.145829
0.177119
0.184321
0.155625
0.166115
0.0995423
0.00507109
0.0231289
0.185968
0.159669
0.000661032
0.000805243
0.000699161
0.000438288
0.000355133
0.000638965
0.00153991
0.00289901
0.00438731
0.00611909
0.00798845
0.010132
0.0147331
0.0249974
0.0386612
0.0478419
0.0519696
0.0502501
0.0428993
0.0318085
0.020545
0.014458
0.0112866
0.00888852
0.00645282
0.00327791
0.00143706
0.00189003
0.000728236
0.00106771
0.000360458
0.000483754
0.000283714
0.000317401
0.00127349
0.000486217
0.00901244
0.00357893
0.0383185
0.0201157
0.102548
0.0755443
0.156895
0.129862
0.22187
0.208285
0.191776
0.263423
0.254224
0.250297
0.239485
0.286406
0.280172
0.271822
0.279424
0.303936
0.300596
0.301965
0.297453
0.315794
0.31501
0.3116
0.313473
0.316156
0.317027
0.317199
0.316687
0.314296
0.316862
0.318618
0.319739
0.305356
0.310455
0.314016
0.316393
0.298499
0.302958
0.305263
0.308595
0.260709
0.278166
0.30013
0.291256
0.238904
0.208263
0.235079
0.261272
0.200336
0.145857
0.148403
0.155324
0.189846
0.177553
0.148487
0.17859
0.18802
0.153921
0.164617
0.0778249
0.00448437
0.0139679
0.187272
0.146972
0.000687539
0.000705918
0.00046214
0.000319067
0.000678213
0.00129594
0.00247883
0.00388927
0.00534039
0.00701425
0.00905892
0.012985
0.0225267
0.03512
0.0438335
0.0477922
0.0460621
0.0392154
0.0291235
0.0190309
0.0137856
0.0110861
0.00903612
0.00685564
0.00411325
0.000804746
0.000133019
0.000672807
-0.000736749
-0.00032417
-0.00144482
-0.00107443
-0.00209062
-0.00183841
-0.000932654
-0.00199087
0.0108978
0.00249668
0.0496026
0.0268053
0.107368
0.0802971
0.164018
0.135513
0.227649
0.214752
0.192282
0.208626
0.269297
0.260254
0.256387
0.245841
0.292237
0.286234
0.277439
0.28469
0.308993
0.305781
0.305517
0.301451
0.318449
0.317465
0.314129
0.315908
0.320379
0.320616
0.320073
0.31901
0.317856
0.318683
0.319107
0.319288
0.312307
0.314461
0.315525
0.315816
0.305358
0.309464
0.307727
0.311613
0.278876
0.291298
0.302078
0.29884
0.258576
0.22848
0.252953
0.276551
0.218812
0.145689
0.147772
0.164772
0.20603
0.191128
0.15367
0.179666
0.190097
0.153457
0.163479
0.0515432
0.000114804
0.00657397
0.184686
0.125665
0.000849718
0.00048892
0.000516134
0.000712797
0.00130632
0.00213836
0.00321678
0.00445143
0.00594378
0.00793978
0.01163
0.0200387
0.0318755
0.0400347
0.0439112
0.042449
0.0362203
0.0271755
0.0178702
0.0131609
0.0108979
0.00913174
0.00719993
0.00480458
0.00178154
-0.00110701
-0.000580601
-0.000452604
-0.00112819
-0.00221164
-0.0016487
-0.00357295
-0.00288342
-0.00460909
-0.00421475
-0.00303079
-0.00454839
0.0133812
0.00190713
0.0548614
0.0320333
0.109802
0.0805339
0.172984
0.141259
0.234318
0.221846
0.199505
0.214266
0.274494
0.265933
0.261584
0.25149
0.296665
0.291086
0.282087
0.288757
0.311831
0.308957
0.307158
0.303703
0.31745
0.316835
0.314222