/*--------------------------------*- C++ -*----------------------------------*\
  =========                 |
  \\      /  F ield         | OpenFOAM: The Open Source CFD Toolbox
   \\    /   O peration     | Website:  https://openfoam.org
    \\  /    A nd           | Version:  dev
     \\/     M anipulation  |
\*---------------------------------------------------------------------------*/
FoamFile
{
    version     2.0;
    format      ascii;
    class       surfaceScalarField;
    location    "2500";
    object      phi;
}
// * * * * * * * * * * * * * * * * * * * * * * * * * * * * * * * * * * * * * //

dimensions      [1 0 -1 0 0 0 0];

internalField   nonuniform List<scalar> 
19533
(
1.65383e-07
1.13492e-07
1.44386e-07
2.83824e-07
4.64455e-07
1.02397e-07
1.192e-07
3.89981e-07
4.59981e-07
2.88311e-07
6.70418e-07
8.51029e-08
9.79928e-08
4.67567e-07
4.27569e-07
4.22439e-07
6.94514e-07
2.64226e-07
8.32282e-07
7.13569e-08
8.19281e-08
5.26452e-07
3.7642e-07
5.1877e-07
6.98816e-07
4.18181e-07
8.66556e-07
2.29964e-07
9.72758e-07
6.25308e-08
6.93952e-08
5.75776e-07
3.18023e-07
5.84782e-07
6.76286e-07
5.41273e-07
8.99834e-07
3.84912e-07
1.0033e-06
1.99425e-07
1.10135e-06
5.61857e-08
5.94038e-08
6.23651e-07
2.6346e-07
6.30407e-07
6.28723e-07
6.3236e-07
9.15568e-07
5.25551e-07
1.04635e-06
3.41868e-07
1.12288e-06
1.77912e-07
1.21887e-06
5.06575e-08
5.20889e-08
6.69893e-07
2.22501e-07
6.64685e-07
5.64442e-07
6.94609e-07
9.04579e-07
6.4338e-07
1.08833e-06
4.83587e-07
1.1625e-06
3.0226e-07
1.23631e-06
1.60537e-07
1.3269e-06
4.57774e-08
4.66128e-08
7.15265e-07
1.94064e-07
6.98389e-07
4.94161e-07
7.34907e-07
8.67535e-07
7.31732e-07
1.11676e-06
6.14973e-07
1.2128e-06
4.33296e-07
1.26612e-06
2.72457e-07
1.34188e-06
1.45571e-07
1.42532e-06
4.14723e-08
4.28666e-08
7.58882e-07
1.76089e-07
7.33345e-07
4.29854e-07
7.62607e-07
8.08751e-07
7.93727e-07
1.12061e-06
7.27901e-07
1.26519e-06
5.62605e-07
1.31218e-06
3.87257e-07
1.36769e-06
2.46653e-07
1.43922e-06
1.31702e-07
1.51515e-06
3.75052e-08
4.00913e-08
8.0143e-07
1.64239e-07
7.70752e-07
3.76542e-07
7.86594e-07
7.34721e-07
8.36699e-07
1.09649e-06
8.17879e-07
1.30658e-06
6.86547e-07
1.37006e-06
5.04734e-07
1.4051e-06
3.49868e-07
1.46247e-06
2.23444e-07
1.52782e-06
1.19043e-07
1.59701e-06
3.38766e-08
3.78062e-08
8.44633e-07
1.51764e-07
8.13972e-07
3.35196e-07
8.12054e-07
6.57752e-07
8.63591e-07
1.04824e-06
8.84994e-07
1.32615e-06
7.98323e-07
1.43178e-06
6.24834e-07
1.45648e-06
4.53365e-07
1.4951e-06
3.17187e-07
1.54915e-06
2.02168e-07
1.60847e-06
1.07593e-07
1.67223e-06
3.05055e-08
3.58595e-08
8.87931e-07
1.41395e-07
8.54998e-07
3.09676e-07
8.3944e-07
5.87429e-07
8.8247e-07
9.82089e-07
9.2978e-07
1.3197e-06
8.91461e-07
1.48684e-06
7.43305e-07
1.52008e-06
5.61228e-07
1.53943e-06
4.09069e-07
1.57943e-06
2.86904e-07
1.62825e-06
1.82374e-07
1.68315e-06
9.66656e-08
1.74056e-06
2.69849e-08
3.42855e-08
9.30363e-07
1.35755e-07
8.93633e-07
2.91293e-07
8.73382e-07
5.26289e-07
9.00674e-07
9.06953e-07
9.57767e-07
1.28814e-06
9.61382e-07
1.52368e-06
8.54634e-07
1.58967e-06
6.73707e-07
1.59607e-06
5.04607e-07
1.61854e-06
3.69962e-07
1.65601e-06
2.59145e-07
1.70133e-06
1.64229e-07
1.75092e-06
8.63335e-08
1.80111e-06
2.38753e-08
3.32306e-08
9.72904e-07
1.29893e-07
9.36244e-07
2.75131e-07
9.09765e-07
4.80744e-07
9.19153e-07
8.31647e-07
9.76034e-07
1.23633e-06
1.00948e-06
1.53727e-06
9.47803e-07
1.65696e-06
7.87391e-07
1.66422e-06
6.05573e-07
1.66766e-06
4.5544e-07
1.69206e-06
3.33888e-07
1.72704e-06
2.33445e-07
1.76814e-06
1.47016e-07
1.81124e-06
7.62201e-08
1.85593e-06
2.09265e-08
3.2266e-08
1.01668e-06
1.24222e-07
9.78556e-07
2.63844e-07
9.47551e-07
4.47824e-07
9.427e-07
7.60148e-07
9.90509e-07
1.17131e-06
1.04108e-06
1.52641e-06
1.02037e-06
1.71164e-06
8.93147e-07
1.74061e-06
7.11028e-07
1.72907e-06
5.44229e-07
1.73779e-06
4.09775e-07
1.76146e-06
2.99493e-07
1.79272e-06
2.0884e-07
1.82835e-06
1.2992e-07
1.86578e-06
6.63267e-08
1.90457e-06
1.7833e-08
3.14616e-08
1.05955e-06
1.21599e-07
1.01924e-06
2.5242e-07
9.90055e-07
4.24708e-07
9.70823e-07
6.98452e-07
1.00441e-06
1.10012e-06
1.06173e-06
1.49329e-06
1.07422e-06
1.74694e-06
9.85043e-07
1.81883e-06
8.14905e-07
1.80193e-06
6.382e-07
1.79327e-06
4.88791e-07
1.80394e-06
3.67327e-07
1.82475e-06
2.67514e-07
1.85201e-06
1.852e-07
1.88228e-06
1.13482e-07
1.9142e-06
5.66771e-08
1.94689e-06
1.48736e-08
3.03668e-08
1.1023e-06
1.18339e-07
1.06289e-06
2.40616e-07
1.03111e-06
4.1284e-07
1.00193e-06
6.47776e-07
1.02142e-06
1.02747e-06
1.07708e-06
1.4434e-06
1.11164e-06
1.7597e-06
1.06149e-06
1.89009e-06
9.13846e-07
1.88494e-06
7.31978e-07
1.85946e-06
5.72015e-07
1.85508e-06
4.37657e-07
1.86478e-06
3.27337e-07
1.88297e-06
2.36575e-07
1.90525e-06
1.6227e-07
1.9297e-06
9.80484e-08
1.95626e-06
4.73206e-08
1.98297e-06
1.19699e-08
2.97174e-08
1.14596e-06
1.13166e-07
1.10748e-06
2.3117e-07
1.07229e-06
4.02471e-07
1.04149e-06
6.05027e-07
1.04467e-06
9.5742e-07
1.09146e-06
1.38336e-06
1.13712e-06
1.75002e-06
1.12133e-06
1.94717e-06
1.00443e-06
1.97303e-06
8.25713e-07
1.937e-06
6.54443e-07
1.9153e-06
5.11802e-07
1.91229e-06
3.90154e-07
1.92024e-06
2.90084e-07
1.93508e-06
2.06775e-07
1.95122e-06
1.40683e-07
1.97212e-06
8.22267e-08
1.99237e-06
3.79479e-08
2.01309e-06
9.1714e-09
2.871e-08
1.18861e-06
1.0868e-07
1.15046e-06
2.24748e-07
1.11395e-06
3.88427e-07
1.0864e-06
5.73302e-07
1.07329e-06
8.94643e-07
1.10745e-06
1.31865e-06
1.15618e-06
1.72132e-06
1.16584e-06
1.98476e-06
1.08373e-06
2.05885e-06
9.18594e-07
2.02483e-06
7.37949e-07
1.98519e-06
5.84389e-07
1.96798e-06
4.55955e-07
1.96538e-06
3.44966e-07
1.9717e-06
2.53447e-07
1.98053e-06
1.77578e-07
1.99404e-06
1.18736e-07
2.00827e-06
6.63637e-08
2.02236e-06
2.87084e-08
2.03738e-06
6.12968e-09
2.75997e-08
1.22913e-06
1.06721e-07
1.19061e-06
2.18279e-07
1.15693e-06
3.72301e-07
1.13004e-06
5.54671e-07
1.10492e-06
8.406e-07
1.12709e-06
1.25326e-06
1.17283e-06
1.67908e-06
1.19842e-06
2.0016e-06
1.14899e-06
2.13578e-06
1.00684e-06
2.11992e-06
8.23464e-07
2.06634e-06
6.57004e-07
2.03349e-06
5.19048e-07
2.01883e-06
4.02549e-07
2.01455e-06
3.02061e-07
2.0169e-06
2.17103e-07
2.02161e-06
1.50036e-07
2.0303e-06
9.67325e-08
2.03849e-06
5.02477e-08
2.04707e-06
1.90267e-08
2.05532e-06
3.14851e-09
2.66999e-08
1.2682e-06
1.04119e-07
1.23174e-06
2.09149e-07
1.19975e-06
3.59867e-07
1.16943e-06
5.40887e-07
1.14378e-06
7.93759e-07
1.15164e-06
1.19055e-06
1.18997e-06
1.62922e-06
1.2227e-06
1.99952e-06
1.2005e-06
2.19805e-06
1.08676e-06
2.21705e-06
9.09732e-07
2.15736e-06
7.32448e-07
2.10804e-06
5.82481e-07
2.08015e-06
4.57822e-07
2.06469e-06
3.52363e-07
2.0596e-06
2.59361e-07
2.05627e-06
1.82497e-07
2.05903e-06
1.21311e-07
2.06121e-06
7.40155e-08
2.06298e-06
3.43854e-08
2.06526e-06
9.07618e-09
2.06737e-06
5.29309e-11
2.58103e-08
1.30621e-06
1.00793e-07
1.27156e-06
2.0235e-07
1.23853e-06
3.51327e-07
1.20822e-06
5.26536e-07
1.18373e-06
7.58278e-07
1.17946e-06
1.13297e-06
1.20937e-06
1.57611e-06
1.24307e-06
1.9822e-06
1.24001e-06
2.24315e-06
1.15538e-06
2.31071e-06
9.93048e-07
2.25737e-06
8.09686e-07
2.19209e-06
6.483e-07
2.14921e-06
5.13361e-07
2.12302e-06
3.99479e-07
2.10828e-06
3.03708e-07
2.09852e-06
2.17175e-07
2.09374e-06
1.47783e-07
2.08965e-06
9.28864e-08
2.08537e-06
5.16098e-08
2.08209e-06
1.76303e-08
2.07758e-06
-1.09057e-09
2.0731e-06
-3.17974e-09
2.44699e-08
1.34279e-06
9.78684e-08
1.30914e-06
1.95611e-07
1.27826e-06
3.39829e-07
1.24999e-06
5.09783e-07
1.22493e-06
7.32112e-07
1.2098e-06
1.08136e-06
1.23081e-06
1.52383e-06
1.26174e-06
1.95481e-06
1.27048e-06
2.27112e-06
1.21207e-06
2.39577e-06
1.07039e-06
2.36327e-06
8.87234e-07
2.2859e-06
7.16017e-07
2.22642e-06
5.71186e-07
2.18855e-06
4.48049e-07
2.16361e-06
3.4418e-07
2.14742e-06
2.54721e-07
2.1345e-06
1.76441e-07
2.12415e-06
1.13242e-07
2.11483e-06
6.3429e-08
2.10489e-06
2.88345e-08
2.09468e-06
5.58146e-10
2.08319e-06
-1.12298e-08
2.0735e-06
-5.95434e-09
2.2932e-08
1.37677e-06
9.39181e-08
1.34674e-06
1.86924e-07
1.31775e-06
3.2772e-07
1.29033e-06
4.95072e-07
1.26465e-06
7.12451e-07
1.24459e-06
1.03834e-06
1.25275e-06
1.47467e-06
1.27994e-06
1.9216e-06
1.29483e-06
2.28417e-06
1.25738e-06
2.46865e-06
1.13922e-06
2.47061e-06
9.63097e-07
2.38916e-06
7.84062e-07
2.31311e-06
6.29188e-07
2.2615e-06
4.98189e-07
2.22665e-06
3.84997e-07
2.20221e-06
2.89442e-07
2.18164e-06
2.07592e-07
2.16509e-06
1.356e-07
2.15039e-06
7.77211e-08
2.13444e-06
3.39097e-08
2.11843e-06
5.07518e-09
2.10062e-06
-1.6781e-08
2.08401e-06
-2.16738e-08
2.07037e-06
-9.86381e-09
2.11747e-08
1.40766e-06
8.81012e-08
1.38257e-06
1.79187e-07
1.35443e-06
3.17998e-07
1.32749e-06
4.83248e-07
1.30212e-06
6.96569e-07
1.28046e-06
1.00489e-06
1.27772e-06
1.43067e-06
1.29679e-06
1.88783e-06
1.31359e-06
2.28616e-06
1.2928e-06
2.52797e-06
1.19805e-06
2.57461e-06
1.03523e-06
2.50053e-06
8.51681e-07
2.41004e-06
6.87241e-07
2.34252e-06
5.4803e-07
2.29642e-06
4.28422e-07
2.26291e-06
3.24309e-07
2.23576e-06
2.3536e-07
2.21233e-06
1.60358e-07
2.19157e-06
9.44119e-08
2.17079e-06
4.13932e-08
2.14859e-06
3.79432e-09
2.1255e-06
-1.97528e-08
2.1014e-06
-3.41255e-08
2.08218e-06
-3.34492e-08
2.05365e-06
-1.38125e-08
1.93243e-08
1.43595e-06
8.08478e-08
1.41496e-06
1.72442e-07
1.38923e-06
3.0747e-07
1.3649e-06
4.71644e-07
1.33902e-06
6.82261e-07
1.3164e-06
9.8049e-07
1.30472e-06
1.394e-06
1.31445e-06
1.85652e-06
1.32799e-06
2.28068e-06
1.31916e-06
2.57415e-06
1.24662e-06
2.67237e-06
1.10028e-06
2.6173e-06
9.18455e-07
2.5157e-06
7.4605e-07
2.4318e-06
5.98129e-07
2.37263e-06
4.71701e-07
2.32978e-06
3.61556e-07
2.29537e-06
2.64714e-07
2.2658e-06
1.81935e-07
2.23885e-06
1.13134e-07
2.21315e-06
5.20512e-08
2.1853e-06
4.70729e-09
2.15688e-06
-2.75638e-08
2.12634e-06
-4.46857e-08
2.10135e-06
-5.3264e-08
2.06608e-06
-4.58233e-08
2.02931e-06
-1.81671e-08
1.75788e-08
1.4608e-06
7.39327e-08
1.44285e-06
1.65849e-07
1.42149e-06
2.95137e-07
1.40156e-06
4.62667e-07
1.3739e-06
6.6928e-07
1.35191e-06
9.63773e-07
1.33289e-06
1.36532e-06
1.33331e-06
1.8291e-06
1.34182e-06
2.27135e-06
1.33729e-06
2.60985e-06
1.28336e-06
2.76132e-06
1.15766e-06
2.7354e-06
9.82167e-07
2.62954e-06
8.04552e-07
2.52992e-06
6.47917e-07
2.45642e-06
5.14468e-07
2.40303e-06
3.98463e-07
2.361e-06
2.95877e-07
2.32474e-06
2.05718e-07
2.29177e-06
1.29061e-07
2.26114e-06
6.51649e-08
2.22858e-06
8.79479e-09
2.19472e-06
-3.31135e-08
2.15955e-06
-6.07423e-08
2.12855e-06
-7.18455e-08
2.08711e-06
-7.42422e-08
2.04319e-06
-5.96725e-08
1.99635e-06
-2.29018e-08
1.55815e-08
1.48207e-06
6.77666e-08
1.46694e-06
1.57296e-07
1.45116e-06
2.82424e-07
1.43411e-06
4.54781e-07
1.40937e-06
6.58145e-07
1.38477e-06
9.54567e-07
1.36097e-06
1.34641e-06
1.35168e-06
1.80812e-06
1.35421e-06
2.26259e-06
1.35053e-06
2.63714e-06
1.31003e-06
2.84077e-06
1.20392e-06
2.85178e-06
1.04127e-06
2.75071e-06
8.60951e-07
2.63655e-06
6.97885e-07
2.54719e-06
5.57091e-07
2.48293e-06
4.3459e-07
2.43263e-06
3.2686e-07
2.38905e-06
2.31616e-07
2.35093e-06
1.46643e-07
2.31528e-06
7.49242e-08
2.27827e-06
1.55015e-08
2.23914e-06
-3.56062e-08
2.19973e-06
-7.32562e-08
2.16298e-06
-9.51291e-08
2.11708e-06
-1.0181e-07
2.06641e-06
-9.74102e-08
2.01147e-06
-7.47459e-08
1.95399e-06
-2.83486e-08
1.34224e-08
1.49778e-06
6.0981e-08
1.48889e-06
1.47835e-07
1.47637e-06
2.72053e-07
1.46167e-06
4.45744e-07
1.44303e-06
6.54582e-07
1.41285e-06
9.52041e-07
1.38715e-06
1.33773e-06
1.36948e-06
1.7953e-06
1.36439e-06
2.25728e-06
1.35941e-06
2.65865e-06
1.32899e-06
2.9101e-06
1.24066e-06
2.96421e-06
1.09149e-06
2.8772e-06
9.14826e-07
2.75126e-06
7.46344e-07
2.64649e-06
5.98632e-07
2.56905e-06
4.70799e-07
2.5091e-06
3.58167e-07
2.45888e-06
2.57042e-07
2.41508e-06
1.67357e-07
2.37495e-06
8.70052e-08
2.3338e-06
1.9412e-08
2.29037e-06
-3.57404e-08
2.24662e-06
-8.24688e-08
2.20465e-06
-1.1491e-07
2.15513e-06
-1.33118e-07
2.09863e-06
-1.3402e-07
2.03689e-06
-1.22772e-07
1.97062e-06
-9.13337e-08
1.90076e-06
-3.46522e-08
1.10815e-08
1.50697e-06
5.3032e-08
1.50564e-06
1.39834e-07
1.49667e-06
2.5888e-07
1.48938e-06
4.33363e-07
1.47376e-06
6.54929e-07
1.44253e-06
9.5269e-07
1.41196e-06
1.33869e-06
1.38599e-06
1.79147e-06
1.37303e-06
2.25711e-06
1.36446e-06
2.67793e-06
1.34005e-06
2.97038e-06
1.26868e-06
3.07019e-06
1.13468e-06
3.006e-06
9.62721e-07
2.87485e-06
7.91054e-07
2.75327e-06
6.39532e-07
2.66158e-06
5.06308e-07
2.59167e-06
3.88319e-07
2.53468e-06
2.82397e-07
2.48429e-06
1.87922e-07
2.43908e-06
1.03228e-07
2.39421e-06
2.66085e-08
2.34772e-06
-3.78657e-08
2.29957e-06
-8.8672e-08
2.25269e-06
-1.30469e-07
2.20036e-06
-1.60121e-07
2.13939e-06
-1.73812e-07
2.07249e-06
-1.69586e-07
1.99858e-06
-1.50667e-07
1.91932e-06
-1.09799e-07
1.83568e-06
-4.18322e-08
8.26601e-09
1.50915e-06
4.49519e-08
1.51497e-06
1.28593e-07
1.51686e-06
2.4377e-07
1.51183e-06
4.25276e-07
1.49727e-06
6.58835e-07
1.46972e-06
9.62108e-07
1.43273e-06
1.3485e-06
1.40188e-06
1.79657e-06
1.38066e-06
2.26268e-06
1.3673e-06
2.69699e-06
1.34533e-06
3.02399e-06
1.28641e-06
3.16884e-06
1.16998e-06
3.1332e-06
1.00756e-06
3.0032e-06
8.34604e-07
2.86789e-06
6.76375e-07
2.76042e-06
5.40606e-07
2.6804e-06
4.17477e-07
2.61494e-06
3.08036e-07
2.5582e-06
2.08424e-07
2.5078e-06
1.19219e-07
2.45936e-06
3.8082e-08
2.40966e-06
-3.53067e-08
2.3579e-06
-9.61633e-08
2.30631e-06
-1.42266e-07
2.25218e-06
-1.82272e-07
2.18815e-06
-2.08848e-07
2.11745e-06
-2.18732e-07
2.03849e-06
-2.09457e-07
1.95094e-06
-1.82235e-07
1.85698e-06
-1.3102e-07
1.758e-06
-4.99588e-08
4.94068e-09
1.50267e-06
3.75425e-08
1.51638e-06
1.15052e-07
1.52847e-06
2.36359e-07
1.52428e-06
4.20656e-07
1.51616e-06
6.66167e-07
1.48948e-06
9.82624e-07
1.44889e-06
1.36668e-06
1.41434e-06
1.81107e-06
1.38699e-06
2.27583e-06
1.36737e-06
2.71908e-06
1.34521e-06
3.07336e-06
1.29585e-06
3.25974e-06
1.19546e-06
3.25749e-06
1.04568e-06
3.13537e-06
8.75427e-07
2.98881e-06
7.13758e-07
2.86738e-06
5.69433e-07
2.77468e-06
4.46275e-07
2.69974e-06
3.32684e-07
2.63695e-06
2.29254e-07
2.5809e-06
1.35343e-07
2.5288e-06
4.97835e-08
2.47531e-06
-2.76191e-08
2.42071e-06
-9.80693e-08
2.36555e-06
-1.55391e-07
2.31073e-06
-2.00777e-07
2.24439e-06
-2.38465e-07
2.17134e-06
-2.62697e-07
2.08867e-06
-2.68857e-07
1.99626e-06
-2.54723e-07
1.89361e-06
-2.18804e-07
1.78119e-06
-1.54151e-07
1.66519e-06
-1.74885e-08
-4.1482e-08
1.54103e-09
1.48691e-06
3.13123e-08
1.50879e-06
1.04971e-07
1.52642e-06
2.33738e-07
1.53078e-06
4.18136e-07
1.52641e-06
6.83735e-07
1.4983e-06
1.01306e-06
1.45876e-06
1.39456e-06
1.42071e-06
1.83552e-06
1.38962e-06
2.29822e-06
1.36462e-06
2.74519e-06
1.34103e-06
3.1205e-06
1.29802e-06
3.34431e-06
1.21125e-06
3.37723e-06
1.07559e-06
3.26907e-06
9.11924e-07
3.11473e-06
7.49548e-07
2.97933e-06
6.01806e-07
2.87382e-06
4.70117e-07
2.79062e-06
3.55403e-07
2.72032e-06
2.4933e-07
2.65883e-06
1.51371e-07
2.60179e-06
6.23999e-08
2.54486e-06
-1.97313e-08
2.48724e-06
-9.41619e-08
2.42893e-06
-1.61424e-07
2.3746e-06
-2.19216e-07
2.30721e-06
-2.63553e-07
2.23269e-06
-2.99765e-07
2.14849e-06
-3.22471e-07
2.05284e-06
-3.25381e-07
1.94474e-06
-3.05789e-07
1.82597e-06
-2.63521e-07
1.69157e-06
-8.00132e-08
-1.00448e-07
7.84782e-07
-1.33933e-08
7.90256e-07
-4.69341e-08
-1.61558e-09
1.46318e-06
2.59482e-08
1.49219e-06
9.83445e-08
1.51524e-06
2.31253e-07
1.52852e-06
4.28162e-07
1.52046e-06
7.15098e-07
1.49464e-06
1.05164e-06
1.45905e-06
1.43269e-06
1.42039e-06
1.86961e-06
1.38638e-06
2.33001e-06
1.35757e-06
2.77749e-06
1.3321e-06
3.1681e-06
1.29339e-06
3.42322e-06
1.21896e-06
3.49187e-06
1.09667e-06
3.40308e-06
9.41528e-07
3.24613e-06
7.80505e-07
3.09671e-06
6.32142e-07
2.97828e-06
4.97457e-07
2.88617e-06
3.74461e-07
2.80902e-06
2.66586e-07
2.74134e-06
1.66746e-07
2.6784e-06
7.46329e-08
2.61841e-06
-1.11627e-08
2.55758e-06
-9.00548e-08
2.49717e-06
-1.62378e-07
2.4429e-06
-2.29693e-07
2.37576e-06
-2.87729e-07
2.30122e-06
-3.3204e-07
2.21652e-06
-3.6775e-07
2.12007e-06
-3.89636e-07
2.00876e-06
-3.89341e-07
1.88088e-06
-1.6986e-07
-1.90778e-07
8.72452e-07
-1.40512e-07
8.60157e-07
-1.63974e-07
7.91363e-07
-8.10979e-08
8.04261e-07
-1.13322e-07
7.5599e-07
-1.2569e-08
7.58579e-07
-4.95016e-08
-4.54338e-09
1.43029e-06
2.34547e-08
1.46564e-06
9.53642e-08
1.49485e-06
2.34145e-07
1.51203e-06
4.54709e-07
1.50194e-06
7.54518e-07
1.48067e-06
1.09853e-06
1.44739e-06
1.48143e-06
1.41028e-06
1.91375e-06
1.37583e-06
2.37074e-06
1.3453e-06
2.81674e-06
1.31822e-06
3.21716e-06
1.28286e-06
3.49841e-06
1.21814e-06
3.60162e-06
1.10911e-06
3.53567e-06
9.64063e-07
3.38096e-06
8.06665e-07
3.22e-06
6.57232e-07
3.08802e-06
5.22262e-07
2.98557e-06
3.97869e-07
2.90149e-06
2.82049e-07
2.82977e-06
1.78062e-07
2.75973e-06
8.54967e-08
2.69499e-06
-1.92946e-09
2.63157e-06
-8.51549e-08
2.56957e-06
-1.62432e-07
2.51342e-06
-2.32876e-07
2.44812e-06
-3.0202e-07
2.37487e-06
-3.61327e-07
2.29233e-06
-4.07793e-07
2.19634e-06
-4.43969e-07
2.0851e-06
-4.65915e-07
1.95377e-06
-2.21588e-07
-2.4057e-07
8.88073e-07
-1.85465e-07
9.08816e-07
-2.11506e-07
8.11782e-07
-1.48012e-07
8.73118e-07
-1.98407e-07
8.28726e-07
-1.80899e-07
7.63927e-07
-8.6421e-08
7.73292e-07
-1.22662e-07
7.24325e-07
-1.31011e-08
7.27153e-07
-5.23065e-08
-6.47569e-09
1.38639e-06
2.37734e-08
1.42981e-06
9.7659e-08
1.46309e-06
2.4912e-07
1.4794e-06
4.96066e-07
1.4704e-06
8.04311e-07
1.45158e-06
1.15637e-06
1.42244e-06
1.53889e-06
1.3894e-06
1.96676e-06
1.35688e-06
2.41949e-06
1.32696e-06
2.86237e-06
1.29947e-06
3.26855e-06
1.26657e-06
3.57139e-06
1.20977e-06
3.70614e-06
1.11339e-06
3.66526e-06
9.79478e-07
3.51702e-06
8.27983e-07
3.34778e-06
6.78848e-07
3.20251e-06
5.42898e-07
3.08907e-06
4.18919e-07
2.99645e-06
3.02885e-07
2.91813e-06
1.93707e-07
2.84614e-06
9.16183e-08
2.77519e-06
5.28766e-09
2.70917e-06
-7.95316e-08
2.64532e-06
-1.60898e-07
2.58666e-06
-2.35647e-07
2.52378e-06
-3.08505e-07
2.45249e-06
-3.79598e-07
2.37285e-06
-4.41791e-07
2.28079e-06
-4.92177e-07
2.17163e-06
-5.30427e-07
2.04045e-06
-2.68423e-07
-2.84099e-07
9.26247e-07
-2.39005e-07
9.50863e-07
-2.6517e-07
8.9005e-07
-2.2842e-07
7.84718e-07
-1.59416e-07
8.44976e-07
-2.14637e-07
7.99932e-07
-1.96092e-07
7.33035e-07
-9.22765e-08
7.41993e-07
-1.31593e-07
6.89511e-07
-1.4072e-08
6.92824e-07
-5.55939e-08
-6.30561e-09
1.33262e-06
2.58984e-08
1.38412e-06
1.07583e-07
1.41961e-06
2.77429e-07
1.43436e-06
5.48458e-07
1.42662e-06
8.65884e-07
1.40826e-06
1.22239e-06
1.38504e-06
1.60424e-06
1.35678e-06
2.02726e-06
1.32856e-06
2.4748e-06
1.30125e-06
2.91397e-06
1.27518e-06
3.32315e-06
1.24472e-06
3.64275e-06
1.19514e-06
3.80584e-06
1.11011e-06
3.79124e-06
9.87385e-07
3.65343e-06
8.43042e-07
3.47851e-06
6.97143e-07
3.32161e-06
5.59739e-07
3.19662e-06
4.35395e-07
3.09527e-06
3.20097e-07
3.00966e-06
2.11313e-07
2.9323e-06
1.07534e-07
2.85972e-06
7.07181e-09
2.79008e-06
-7.5634e-08
2.72433e-06
-1.58543e-07
2.66301e-06
-2.37238e-07
2.6022e-06
-3.14048e-07
2.53247e-06
-3.88451e-07
2.45738e-06
-4.64085e-07
2.3693e-06
-5.30241e-07
2.26523e-06
-5.85699e-07
2.13803e-06
-3.07309e-07
-3.20614e-07
9.72146e-07
-2.89687e-07
9.99757e-07
-3.11686e-07
9.09892e-07
-2.58828e-07
9.33215e-07
-2.88473e-07
8.64759e-07
-2.48182e-07
7.54303e-07
-1.71702e-07
8.17946e-07
-2.32632e-07
7.69792e-07
-2.11559e-07
6.98793e-07
-9.82163e-08
7.08136e-07
-1.40908e-07
6.5266e-07
-1.47439e-08
6.5639e-07
-5.92964e-08
-4.83615e-09
1.27173e-06
3.1408e-08
1.32681e-06
1.2644e-07
1.36488e-06
3.20873e-07
1.37555e-06
6.14098e-07
1.36841e-06
9.39126e-07
1.3531e-06
1.29568e-06
1.33448e-06
1.6763e-06
1.3125e-06
2.09332e-06
1.29022e-06
2.53534e-06
1.26751e-06
2.97091e-06
1.24404e-06
3.38092e-06
1.21712e-06
3.71295e-06
1.17438e-06
3.90079e-06
1.10012e-06
3.9126e-06
9.88651e-07
3.78805e-06
8.52729e-07
3.61107e-06
7.10494e-07
3.44457e-06
5.7399e-07
3.30755e-06
4.48721e-07
3.19781e-06
3.32865e-07
3.10457e-06
2.25218e-07
3.02101e-06
1.22548e-07
2.94563e-06
2.16036e-08
2.87466e-06
-7.75262e-08
2.80697e-06
-1.58279e-07
2.74269e-06
-2.3822e-07
2.68418e-06
-3.19204e-07
2.61497e-06
-3.96518e-07
2.54309e-06
-4.74118e-07
2.46263e-06
-5.5736e-07
2.36385e-06
-6.2879e-07
2.24415e-06
-3.39706e-07
-3.52009e-07
1.02505e-06
-3.32581e-07
1.05561e-06
-3.51139e-07
9.58568e-07
-3.15017e-07
9.86628e-07
-3.39717e-07
8.87651e-07
-2.81698e-07
9.1321e-07
-3.14006e-07
8.39275e-07
-2.6949e-07
7.20771e-07
-1.84312e-07
7.89021e-07
-2.51839e-07
7.37065e-07
-2.2783e-07
6.62399e-07
-1.04193e-07
6.71727e-07
-1.50205e-07
6.129e-07
-1.58081e-08
6.16763e-07
-6.31283e-08
-2.3482e-09
1.20263e-06
4.23665e-08
1.26061e-06
1.53724e-07
1.29929e-06
3.81746e-07
1.30334e-06
6.92147e-07
1.29717e-06
1.02032e-06
1.28681e-06
1.37575e-06
1.27257e-06
1.75166e-06
1.2587e-06
2.16318e-06
1.24235e-06
2.59993e-06
1.22515e-06
3.03212e-06
1.20613e-06
3.44066e-06
1.18404e-06
3.78249e-06
1.14728e-06
3.99193e-06
1.08314e-06
4.02913e-06
9.83464e-07
3.92027e-06
8.56368e-07
3.74439e-06
7.19325e-07
3.56973e-06
5.85402e-07
3.42186e-06
4.59572e-07
3.30313e-06
3.4338e-07
3.20219e-06
2.3516e-07
3.11365e-06
1.32542e-07
3.03403e-06
3.4118e-08
2.96127e-06
-6.50349e-08
2.8926e-06
-1.63181e-07
2.82833e-06
-2.43931e-07
2.77062e-06
-3.24652e-07
2.70077e-06
-4.04985e-07
2.63057e-06
-4.8396e-07
2.5562e-06
-5.6764e-07
2.46752e-06
-6.60965e-07
2.35969e-06
-3.66406e-07
-3.77822e-07
1.08463e-06
-3.68691e-07
1.11828e-06
-3.85622e-07
1.01645e-06
-3.62369e-07
1.04902e-06
-3.83669e-07
9.4156e-07
-3.43336e-07
9.72716e-07
-3.70837e-07
8.64023e-07
-3.06421e-07
8.92731e-07
-3.42684e-07
8.12011e-07
-2.92455e-07
6.84406e-07
-1.96964e-07
7.57639e-07
-2.72389e-07
7.01429e-07
-2.44827e-07
6.23293e-07
-1.10688e-07
6.3226e-07
-1.59141e-07
5.71737e-07
-1.75346e-08
5.75245e-07
-6.66012e-08
2.29511e-09
1.12459e-06
5.68077e-08
1.18794e-06
1.93855e-07
1.2202e-06
4.58244e-07
1.22209e-06
7.78233e-07
1.21709e-06
1.10671e-06
1.21036e-06
1.46051e-06
1.20149e-06
1.82875e-06
1.19503e-06
2.23617e-06
1.18519e-06
2.66671e-06
1.17497e-06
3.0951e-06
1.16202e-06
3.50169e-06
1.14485e-06
3.85099e-06
1.11555e-06
4.07819e-06
1.06088e-06
4.13972e-06
9.72521e-07
4.04854e-06
8.55076e-07
3.87677e-06
7.23967e-07
3.69629e-06
5.92692e-07
3.53912e-06
4.6812e-07
3.41058e-06
3.51963e-07
3.30263e-06
2.42946e-07
3.20878e-06
1.40007e-07
3.12529e-06
4.12257e-08
3.05e-06
-5.46583e-08
2.98016e-06
-1.52632e-07
2.9141e-06
-2.48975e-07
2.86122e-06
-3.34537e-07
2.78993e-06
-4.1381e-07
2.72121e-06
-4.95603e-07
2.65334e-06
-5.81056e-07
2.57483e-06
-6.74878e-07
2.48761e-06
-3.84843e-07
-4.03906e-07
1.15366e-06
-4.01738e-07
1.19535e-06
-4.1945e-07
1.08458e-06
-4.04201e-07
1.12642e-06
-4.2739e-07
1.00751e-06
-3.97119e-07
1.04814e-06
-4.24232e-07
9.25003e-07
-3.75569e-07
9.61758e-07
-4.07535e-07
8.39733e-07
-3.34113e-07
8.7216e-07
-3.75068e-07
7.83214e-07
-3.18e-07
6.44874e-07
-2.09549e-07
7.24022e-07
-2.94953e-07
6.63246e-07
-2.6317e-07
5.81522e-07
-1.16927e-07
5.89981e-07
-1.67567e-07
5.27099e-07
-1.87047e-08
5.31164e-07
-7.06264e-08
9.73853e-09
1.03931e-06
7.61374e-08
1.10493e-06
2.52933e-07
1.1285e-06
5.45651e-07
1.13204e-06
8.69734e-07
1.13029e-06
1.19663e-06
1.12678e-06
1.54576e-06
1.12456e-06
1.90643e-06
1.12357e-06
2.30971e-06
1.12118e-06
2.73336e-06
1.11806e-06
3.15819e-06
1.11168e-06
3.56289e-06
1.1005e-06
3.91741e-06
1.07823e-06
4.1605e-06
1.03311e-06
4.24472e-06
9.5579e-07
4.1726e-06
8.48418e-07
4.00768e-06
7.24162e-07
3.82353e-06
5.96725e-07
3.65798e-06
4.73825e-07
3.52084e-06
3.57786e-07
3.40596e-06
2.48582e-07
3.30658e-06
1.45141e-07
3.21881e-06
4.64687e-08
3.14048e-06
-4.93068e-08
3.0694e-06
-1.43941e-07
3.00213e-06
-2.407e-07
2.94451e-06
-3.32291e-07
2.88419e-06
-4.28798e-07
2.81571e-06
-5.08302e-07
2.75473e-06
-5.96956e-07
2.70406e-06
-7.102e-07
2.66243e-06
-4.10073e-07
-4.39397e-07
1.2466e-06
-4.36003e-07
1.30858e-06
-4.65758e-07
1.17898e-06
-4.54195e-07
1.24593e-06
-4.86236e-07
1.0991e-06
-4.55055e-07
1.16625e-06
-4.94366e-07
1.00831e-06
-4.43584e-07
1.07161e-06
-4.87375e-07
9.11825e-07
-4.15166e-07
9.65199e-07
-4.60791e-07
8.14593e-07
-3.65448e-07
8.56086e-07
-4.16483e-07
7.53152e-07
-3.47084e-07
6.02789e-07
-2.22324e-07
6.88325e-07
-3.19986e-07
6.22262e-07
-2.82599e-07
5.3738e-07
-1.23101e-07
5.45299e-07
-1.75447e-07
4.81787e-07
-1.97776e-08
4.85942e-07
-7.47357e-08
1.97735e-08
9.47782e-07
1.04325e-07
1.01071e-06
3.2915e-07
1.02826e-06
6.40612e-07
1.03324e-06
9.64793e-07
1.03667e-06
1.28823e-06
1.03829e-06
1.62951e-06
1.04265e-06
1.98397e-06
1.04669e-06
2.38081e-06
1.05187e-06
2.7991e-06
1.05508e-06
3.22021e-06
1.05577e-06
3.62311e-06
1.05126e-06
3.98146e-06
1.03623e-06
4.23803e-06
1.00058e-06
4.34362e-06
9.34117e-07
4.29111e-06
8.37202e-07
4.13571e-06
7.20304e-07
3.9504e-06
5.97245e-07
3.77821e-06
4.76488e-07
3.6333e-06
3.6129e-07
3.51161e-06
2.52044e-07
3.40687e-06
1.48234e-07
3.31472e-06
4.92284e-08
3.23317e-06
-4.62355e-08
3.16026e-06
-1.40212e-07
3.09263e-06
-2.34483e-07
3.02962e-06
-3.25846e-07
2.97672e-06
-4.24847e-07
2.91643e-06
-5.2951e-07
2.8711e-06
-6.24627e-07
2.8624e-06
-7.55145e-07
2.92335e-06
-4.61299e-07
-5.09406e-07
1.39027e-06
-4.91598e-07
1.48068e-06
-5.29611e-07
1.33061e-06
-5.20459e-07
1.42959e-06
-5.64466e-07
1.25391e-06
-5.41596e-07
1.35851e-06
-5.90502e-07
1.15672e-06
-5.39896e-07
1.26276e-06
-6.00033e-07
1.0418e-06
-5.19971e-07
1.14426e-06
-5.89456e-07
9.17221e-07
-4.76148e-07
1.00679e-06
-5.5007e-07
7.94175e-07
-4.06384e-07
8.61528e-07
-4.83647e-07
7.27209e-07
-3.85876e-07
5.57857e-07
-2.34838e-07
6.5574e-07
-3.53374e-07
5.82502e-07
-3.07159e-07
4.91404e-07
-1.28516e-07
4.97618e-07
-1.81614e-07
4.35713e-07
-2.11353e-08
4.39929e-07
-7.88987e-08
3.18507e-08
8.52981e-07
1.41847e-07
9.0977e-07
4.16463e-07
9.22972e-07
7.37647e-07
9.30768e-07
1.0585e-06
9.38916e-07
1.37728e-06
9.47273e-07
1.71058e-06
9.56826e-07
2.05954e-06
9.66752e-07
2.44838e-06
9.78652e-07
2.86253e-06
9.88043e-07
3.27966e-06
9.95482e-07
3.68083e-06
9.97768e-07
4.04199e-06
9.90564e-07
4.3099e-06
9.64177e-07
4.43523e-06
9.0883e-07
4.40298e-06
8.22289e-07
4.25986e-06
7.12974e-07
4.07581e-06
5.94863e-07
3.89904e-06
4.76397e-07
3.74757e-06
3.62285e-07
3.6199e-06
2.52914e-07
3.50974e-06
1.49067e-07
3.41301e-06
4.9841e-08
3.32745e-06
-4.50812e-08
3.25216e-06
-1.3816e-07
3.1841e-06
-2.31714e-07
3.12099e-06
-3.25876e-07
3.07288e-06
-4.22029e-07
3.02764e-06
-5.36048e-07
3.01529e-06
-6.7362e-07
3.08518e-06
-8.47198e-07
3.27004e-06
-5.40726e-07
-5.60597e-07
1.58886e-06
-5.69257e-07
1.70294e-06
-6.23236e-07
1.54013e-06
-6.01824e-07
1.65224e-06
-6.41392e-07
1.47255e-06
-6.34103e-07
1.58977e-06
-6.81251e-07
1.38081e-06
-6.59188e-07
1.50144e-06
-7.10606e-07
1.26226e-06
-6.57404e-07
1.38472e-06
-7.21912e-07
1.11984e-06
-6.3254e-07
1.24182e-06
-7.10841e-07
9.60148e-07
-5.74403e-07
1.07651e-06
-6.65871e-07
7.95716e-07
-4.74679e-07
8.97195e-07
-5.84683e-07
7.20563e-07
-4.50474e-07
5.11153e-07
-2.48295e-07
6.37612e-07
-4.08263e-07
5.50998e-07
-3.46796e-07
4.42989e-07
-1.31519e-07
4.46752e-07
-1.85303e-07
3.89155e-07
-2.30852e-08
3.92285e-07
-8.19666e-08
4.49651e-08
7.58461e-07
1.89004e-07
8.05353e-07
5.08044e-07
8.17857e-07
8.3106e-07
8.2913e-07
1.14754e-06
8.41258e-07
1.46017e-06
8.55507e-07
1.78762e-06
8.6972e-07
2.13108e-06
8.8485e-07
2.51225e-06
9.02477e-07
2.92252e-06
9.18303e-07
3.33546e-06
9.32009e-07
3.73508e-06
9.40955e-07
4.09807e-06
9.41465e-07
4.37623e-06
9.24067e-07
4.51982e-06
8.79489e-07
4.50789e-06
8.03616e-07
4.37855e-06
7.03516e-07
4.19813e-06
5.90423e-07
4.01921e-06
4.74634e-07
3.86292e-06
3.60906e-07
3.73043e-06
2.51683e-07
3.61522e-06
1.47326e-07
3.51365e-06
4.832e-08
3.42376e-06
-4.65511e-08
3.34515e-06
-1.38101e-07
3.27651e-06
-2.30601e-07
3.21613e-06
-3.26883e-07
3.17366e-06
-4.26658e-07
3.15592e-06
-5.5028e-07
3.20529e-06
-7.25912e-07
3.38674e-06
-9.74821e-07
3.69865e-06
-1.27516e-06
1.81466e-06
-6.52193e-07
1.95024e-06
-6.95914e-07
1.76889e-06
-6.85553e-07
1.88145e-06
-7.35436e-07
1.70424e-06
-7.15849e-07
1.81348e-06
-7.50174e-07
1.61796e-06
-7.50083e-07
1.72804e-06
-7.9077e-07
1.50399e-06
-7.77832e-07
1.61462e-06
-8.20581e-07
1.36071e-06
-7.75635e-07
1.47143e-06
-8.31928e-07
1.19386e-06
-7.49231e-07
1.30388e-06
-8.20136e-07
1.00983e-06
-6.86424e-07
1.11689e-06
-7.72229e-07
8.15769e-07
-5.69398e-07
9.19072e-07
-6.87333e-07
7.21066e-07
-5.33422e-07
4.66333e-07
-2.67688e-07
6.17614e-07
-4.74395e-07
5.11115e-07
-3.91093e-07
3.91403e-07
-1.30561e-07
3.91966e-07
-1.85707e-07
3.43192e-07
-2.6099e-08
3.42825e-07
-8.1521e-08
5.84368e-08
6.67018e-07
2.43712e-07
7.03337e-07
5.95937e-07
7.17194e-07
9.18316e-07
7.30253e-07
1.23027e-06
7.46086e-07
1.53705e-06
7.64244e-07
1.85926e-06
7.83635e-07
2.19729e-06
8.03322e-07
2.57104e-06
8.25686e-07
2.97716e-06
8.47422e-07
3.38661e-06
8.66838e-07
3.78454e-06
8.82269e-07
4.14896e-06
8.89851e-07
4.43574e-06
8.81787e-07
4.596e-06
8.47786e-07
4.60476e-06
7.82662e-07
4.49071e-06
6.91396e-07
4.31737e-06
5.84327e-07
4.13836e-06
4.71043e-07
3.97912e-06
3.58365e-07
3.84252e-06
2.4872e-07
3.72295e-06
1.43862e-07
3.61655e-06
4.43268e-08
3.52193e-06
-4.99649e-08
3.43893e-06
-1.40428e-07
3.36885e-06
-2.30494e-07
3.31213e-06
-3.26642e-07
3.28107e-06
-4.3432e-07
3.30723e-06
-5.77929e-07
3.44973e-06
-7.94514e-07
3.75971e-06
-1.0984e-06
4.16567e-06
-1.44104e-06
-2.0858e-06
4.42906e-06
-8.13707e-07
-8.53216e-07
1.98949e-06
-7.59884e-07
-7.91858e-07
1.91738e-06
-7.89002e-07
2.01388e-06
-8.31481e-07
1.82891e-06
-8.16155e-07
1.91982e-06
-8.40528e-07
1.71413e-06
-8.48937e-07
1.80284e-06
-8.78823e-07
1.5713e-06
-8.76973e-07
1.6588e-06
-9.0736e-07
1.40194e-06
-8.72953e-07
1.48734e-06
-9.16583e-07
1.21285e-06
-8.44451e-07
1.29482e-06
-9.01365e-07
1.01244e-06
-7.79072e-07
1.09064e-06
-8.49692e-07
8.07648e-07
-6.55307e-07
8.82037e-07
-7.60984e-07
6.85111e-07
-6.0019e-07
4.08818e-07
-2.8408e-07
5.57575e-07
-5.20083e-07
4.31419e-07
-4.12853e-07
3.32664e-07
-1.20261e-07
3.22126e-07
-1.74771e-07
2.92389e-07
-2.7553e-08
2.80763e-07
-6.9778e-08
7.19684e-08
5.79703e-07
3.01735e-07
6.08656e-07
6.74693e-07
6.24386e-07
9.97192e-07
6.38054e-07
1.30483e-06
6.55481e-07
1.60623e-06
6.76724e-07
1.92254e-06
7.00669e-07
2.25639e-06
7.24314e-07
2.62394e-06
7.50114e-07
3.02597e-06
7.76704e-07
3.43314e-06
8.00605e-07
3.82907e-06
8.22077e-07
4.19428e-06
8.36797e-07
4.48808e-06
8.37344e-07
4.66328e-06
8.14394e-07
4.6924e-06
7.60086e-07
4.59501e-06
6.7835e-07
4.43103e-06
5.77648e-07
4.25505e-06
4.67685e-07
4.09461e-06
3.55457e-07
3.95558e-06
2.45201e-07
3.83301e-06
1.38578e-07
3.72234e-06
3.79823e-08
3.62269e-06
-5.65333e-08
3.53463e-06