/*--------------------------------*- C++ -*----------------------------------*\
  =========                 |
  \\      /  F ield         | OpenFOAM: The Open Source CFD Toolbox
   \\    /   O peration     | Website:  https://openfoam.org
    \\  /    A nd           | Version:  dev
     \\/     M anipulation  |
\*---------------------------------------------------------------------------*/
FoamFile
{
    version     2.0;
    format      ascii;
    class       volScalarField;
    location    "2500";
    object      qr;
}
// * * * * * * * * * * * * * * * * * * * * * * * * * * * * * * * * * * * * * //

dimensions      [1 0 -3 0 0 0 0];

internalField   uniform 0;

boundaryField
{
    lowerOutlet
    {
        type            calculated;
        value           nonuniform List<scalar> 
144
(
1230.58
1234.63
1239.12
1244.01
1249.32
1255.05
1261.21
1267.82
1274.89
1282.44
1290.48
1299.05
1308.15
1317.83
1328.11
1339.03
1350.63
1362.97
1376.1
1390.08
1404.97
1420.88
1437.88
1456.1
1475.7
1496.82
1519.62
1544.31
1571.14
1600.42
1632.51
1667.87
1707.05
1740.22
1787.99
1841.97
1903.5
1974.2
2056.33
2152.97
2268.69
2409.9
2577.15
2784.83
3019.09
3379.8
3750.26
4145.75
-5931.64
3479.85
2809.43
2481.4
2275.26
2104.51
1988.56
1895.02
1817.89
1753.37
1698.31
1650.66
1608.86
1571.85
1538.81
1501.59
1475.28
1451.23
1429.13
1408.72
1389.8
1372.19
1355.75
1340.36
1325.93
1312.38
1299.61
1287.57
1276.18
1265.41
1255.21
1245.54
1236.37
1227.68
1219.43
1211.61
1204.19
1197.17
1190.51
1184.22
1178.27
1172.66
1167.38
1162.42
1157.78
1153.44
1149.41
1145.72
2102.6
2208.06
2335.73
2487.57
2685.89
2946.08
3284.24
3658.09
4042.77
3833.55
3657.53
2938.28
2546.86
2320.48
2174.03
2043.21
1939.47
1854.64
1784.28
1724.81
2013.66
3100.6
3474.28
3844.77
4250.15
4173.76
3318.31
2706.38
2422.64
2233.29
1673.66
2880.01
3189.87
3566.6
3942.28
4351.49
3875.54
3018.47
2620.72
2369.35
1763.4
1814.13
1871.7
1937.59
1629.1
1589.81
1554.88
1523.56
)
;
    }
    top
    {
        type            calculated;
        value           nonuniform List<scalar> 
100
(
1128.13
1127.73
1128.53
1129.99
1132.09
1134.12
1136.18
1138.14
1139.94
1141.66
1143.49
1145.49
1147.62
1149.89
1152.27
1154.71
1156.86
1157.6
1154.93
1148.74
1141.67
1136.94
1136.32
1137.92
1140.64
1144.34
1148.87
1154.88
1163.31
1173.76
1183.04
1190.17
1194.51
1197.16
1199.09
1200.56
1201.83
1202.93
1203.82
1204.49
1204.95
1205.22
1205.31
1205.24
1205.03
1204.74
1204.33
1203.81
1203.08
1202.21
1201.21
1200.03
1198.8
1197.44
1195.96
1194.38
1192.72
1190.95
1189.1
1187.17
1185.17
1183.09
1180.96
1178.75
1176.5
1174.14
1171.75
1169.21
1166.65
1164.03
1161.24
1158.45
1155.52
1152.58
1149.5
1146.37
1143.17
1139.84
1136.43
1132.93
1129.45
1126.16
1123.51
1135.62
1132.09
1128.57
1125.05
1121.53
1118.02
1114.52
1111.05
1107.59
1104.15
1100.72
1097.31
1093.92
1090.57
1087.25
1083.96
1080.79
)
;
    }
    sides
    {
        type            calculated;
        value           nonuniform List<scalar> 
100
(
1230.6
1233.89
1236.81
1239.33
1241.47
1243.23
1244.61
1245.64
1246.31
1246.63
1246.63
1246.31
1245.68
1244.77
1243.58
1242.13
1240.44
1238.52
1236.38
1234.05
1231.53
1228.84
1226
1223.02
1219.92
1216.71
1213.4
1210
1206.52
1202.99
1199.4
1195.76
1192.09
1188.39
1184.67
1180.94
1177.21
1173.48
1169.75
1166.04
1162.35
1158.67
1155.02
1151.4
1147.82
1144.26
1140.74
1137.26
1133.81
1130.45
1145.74
1148.87
1151.73
1154.3
1156.58
1158.58
1160.29
1161.73
1162.91
1163.82
1164.47
1164.88
1165.05
1164.99
1164.71
1164.22
1163.52
1162.64
1161.57
1160.32
1158.91
1157.35
1155.65
1153.8
1151.84
1149.75
1147.56
1145.26
1142.87
1140.4
1137.84
1135.21
1132.52
1129.77
1126.96
1124.1
1121.19
1118.25
1115.26
1112.25
1109.2
1106.12
1103.02
1099.9
1096.76
1093.6
1090.42
1087.23
1084.02
1080.83
)
;
    }
    front
    {
        type            empty;
    }
    back
    {
        type            empty;
    }
    roller
    {
        type            calculated;
        value           nonuniform List<scalar> 
144
(
4458.8
4175.57
3370.5
2848.98
1815.24
1515.3
1539.15
1470.21
1410.8
1385.1
4931.17
5277.97
5083.96
4337.43
4344.82
2852.06
2283.58
2317.9
1855.06
2125.47
1730.69
1644.25
1484.26
1559.5
1436.54
1430.74
1391.08
1406.21
4022.13
4626.57
2679.69
2182.03
2510.37
2443.56
1787.6
1684.3
1621.71
1601.73
1524.85
1382.5
1386.76
4802.48
5231.02
5188.53
3611.83
4173.27
3877.09
4570.51
3728.4
3004.1
2379.01
1897.21
2174.72
1660.98
1491.95
1430.08
1423.52
5050.01
5287.86
4950.87
2257.3
1733.57
1704.28
1626.64
1565.58
1710.85
1405.56
3742.79
3522.75
3338.37
3160.66
2582.41
2049.93
2075.16
1967.83
1644.61
1934.18
1842.13
1579.17
1814.86
1524.67
1502.88
1445.79
1480.99
1493.06
1415.98
1411.02
1383.91
5152.6
5257.85
4795.76
3941.71
3491.07
3225.47
2966.2
2738.58
1993.59
1943.3
2213.83
1683.38
1609.74
1553.12
1537.88
1464.88
1510.36
1456.93
1400.77
1397.09
1401.88
1395.04
1391.74
1389.54
1384.73
1383.75
1382.82
3091.5
2530.05
2398.72
2656.9
2111.62
1763.39
2038.34
2002.58
1663.53
1901.96
1871.33
1593.95
1789.49
1758.11
1474.02
1582.28
1456.11
1423.6
1438.7
1447.37
1417
1388.66
1393.82
1398.75
1386.04
1387.64
1382.68
1383.07
1383.24
)
;
    }
    burner
    {
        type            calculated;
        value           nonuniform List<scalar> 
16
(
-128304
-125988
-123947
-123126
-126466
-124387
-123112
-125715
-127644
-125547
-123603
-123447
-127021
-124969
-123297
-124219
)
;
    }
}


// ************************************************************************* //
