/*--------------------------------*- C++ -*----------------------------------*\
  =========                 |
  \\      /  F ield         | OpenFOAM: The Open Source CFD Toolbox
   \\    /   O peration     | Website:  https://openfoam.org
    \\  /    A nd           | Version:  dev
     \\/     M anipulation  |
\*---------------------------------------------------------------------------*/
FoamFile
{
    version     2.0;
    format      ascii;
    class       volScalarField;
    location    "2500";
    object      rAU;
}
// * * * * * * * * * * * * * * * * * * * * * * * * * * * * * * * * * * * * * //

dimensions      [-1 3 1 0 0 0 0];

internalField   nonuniform List<scalar> 
9851
(
0.00821203
0.00828083
0.00823167
0.00826592
0.00839678
0.00816766
0.00823929
0.00839064
0.00840217
0.00811357
0.00821569
0.00838844
0.00838605
0.00841491
0.0080633
0.00819996
0.00839276
0.00837769
0.00839646
0.00842412
0.00801739
0.00818617
0.00840217
0.00837789
0.00838068
0.00841188
0.00842813
0.00797575
0.00817176
0.0084126
0.0083833
0.00837123
0.00839506
0.00842245
0.00843042
0.0079377
0.00815485
0.00842152
0.00839397
0.00836678
0.00837941
0.00841163
0.00842756
0.00843169
0.00790299
0.00813658
0.00842481
0.00840728
0.00836896
0.00836777
0.00839655
0.00842221
0.00843033
0.00843252
0.00787143
0.00812123
0.00842582
0.00841754
0.00837659
0.00836084
0.0083804
0.008413
0.00842803
0.00843232
0.00843295
0.00784257
0.00810779
0.008427
0.00842471
0.00838881
0.00835832
0.00836699
0.00839932
0.0084231
0.00843137
0.00843368
0.00843333
0.00781625
0.00809365
0.00842927
0.00842914
0.00840367
0.00836172
0.00835798
0.00838381
0.00841523
0.00842886
0.00843345
0.00843455
0.00843355
0.00779239
0.00807857
0.00843082
0.00843284
0.00841441
0.00836957
0.00835261
0.00836907
0.00840328
0.00842469
0.00843229
0.00843496
0.00843536
0.00843369
0.00777091
0.00806446
0.00843145
0.00843411
0.00842169
0.00838298
0.00835078
0.00835778
0.00838915
0.0084179
0.0084298
0.00843434
0.00843583
0.0084359
0.00843376
0.00775155
0.00804957
0.00843232
0.00843489
0.00842788
0.00839797
0.00835382
0.00834989
0.00837409
0.00840834
0.00842654
0.00843324
0.00843604
0.00843671
0.00843637
0.00843381
0.00773436
0.00803519
0.00843312
0.00843582
0.00843076
0.0084096
0.00836195
0.00834446
0.00836026
0.00839569
0.00842145
0.00843135
0.0084353
0.00843724
0.00843737
0.00843668
0.00843378
0.00771923
0.00802236
0.00843427
0.00843603
0.00843324
0.00841811
0.00837491
0.00834231
0.00834959
0.00838084
0.00841351
0.00842914
0.00843442
0.00843689
0.0084382
0.00843799
0.00843692
0.00843375
0.00770616
0.0080072
0.0084365
0.00843639
0.00843493
0.00842439
0.00838933
0.0083451
0.00834172
0.00836583
0.0084026
0.00842529
0.00843364
0.00843651
0.00843817
0.00843887
0.0084384
0.00843703
0.00843367
0.00769505
0.00799161
0.00843699
0.00843693
0.00843587
0.00842764
0.00840244
0.00835181
0.00833681
0.00835243
0.00838881
0.00841869
0.00843206
0.00843635
0.00843793
0.00843913
0.00843941
0.00843885
0.0084372
0.00843357
0.0076859
0.0079748
0.00843726
0.00843752
0.00843626
0.00843069
0.00841189
0.00836303
0.00833384
0.00834243
0.00837419
0.00840921
0.00842883
0.00843619
0.00843807
0.008439
0.00843984
0.00843994
0.00843908
0.00843725
0.00843353
0.00767883
0.00795813
0.0084362
0.00843779
0.00843711
0.00843391
0.00841856
0.00837661
0.00833493
0.00833454
0.00835981
0.00839752
0.00842324
0.00843471
0.00843873
0.0084397
0.00844006
0.00844038
0.00844053
0.00843938
0.00843745
0.00843083
0.00758457
0.00794238
0.00843481
0.00843818
0.00843803
0.00843534
0.00842345
0.00839017
0.00833925
0.0083295
0.00834685
0.00838426
0.0084155
0.00843147
0.00843846
0.00844062
0.00844093
0.00844056
0.00844099
0.00844101
0.00843952
0.00843506
0.00828712
0.0076253
0.00792679
0.00843358
0.00843863
0.00843842
0.00843646
0.00842766
0.00840197
0.00834697
0.00832515
0.00833665
0.00837056
0.00840588
0.00842746
0.00843654
0.00844059
0.00844201
0.00844172
0.0084413
0.0084414
0.00844125
0.00843985
0.00839502
0.00834768
0.00767023
0.00791335
0.00843185
0.00843883
0.00843887
0.00843671
0.0084296
0.00840928
0.0083586
0.00832357
0.00832839
0.00835641
0.00839505
0.00842161
0.00843427
0.00843948
0.00844216
0.00844328
0.00844233
0.00844177
0.00844179
0.00844146
0.00843997
0.00840488
0.00843323
0.00767282
0.00790327
0.00843157
0.00843897
0.00843921
0.00843784
0.00843217
0.00841438
0.00837
0.00832603
0.0083218
0.00834343
0.0083822
0.00841441
0.00843156
0.00843865
0.00844187
0.00844378
0.00844409
0.00844291
0.00844217
0.00844196
0.00844175
0.00844013
0.00843788
0.00843339
0.00767815
0.00789434
0.00843386
0.00843922
0.00843956
0.00843852
0.00843319
0.00841851
0.00838103
0.00832994
0.00831839
0.00833217
0.00836881
0.0084049
0.00842733
0.00843733
0.00844118
0.00844347
0.00844482
0.00844487
0.00844359
0.0084425
0.00844221
0.0084419
0.00844024
0.00843815
0.00843341
0.0076862
0.00788291
0.00843595
0.00843974
0.00843979
0.00843845
0.00843421
0.0084217
0.00838996
0.00833565
0.00831463
0.00832455
0.00835603
0.00839437
0.00842146
0.00843505
0.00844071
0.00844308
0.00844457
0.00844563
0.00844541
0.00844401
0.00844269
0.00844236
0.00844207
0.00844054
0.00843815
0.00843351
0.00769709
0.00787162
0.00843442
0.00843983
0.00844011
0.008439
0.00843398
0.00842336
0.00839673
0.00834261
0.00831238
0.00831806
0.00834446
0.00838306
0.00841431
0.00843199
0.0084395
0.00844284
0.00844458
0.00844569
0.00844615
0.00844586
0.00844427
0.00844272
0.00844247
0.00844227
0.00844056
0.00843817
0.0084335
0.00771122
0.00786116
0.00843127
0.00843984
0.00844005
0.00843946
0.00843443
0.00842471
0.00840102
0.00834961
0.00831218
0.00831207
0.00833378
0.00837213
0.00840643
0.00842789
0.00843819
0.00844241
0.00844441
0.00844539
0.00844646
0.00844702
0.00844637
0.00844443
0.00844293
0.00844253
0.00844225
0.00844044
0.00843804
0.00843348
0.00772899
0.00784791
0.0084269
0.00843972
0.00844041
0.00843958
0.00843462
0.00842423
0.00840343
0.00835564
0.00831339
0.00830781
0.0083238
0.00836076
0.00839797
0.00842343
0.00843611
0.00844166
0.00844421
0.0084457
0.00844622
0.00844702
0.00844745
0.00844669
0.00844462
0.00844314
0.0084426
0.00844203
0.00844021
0.00843783
0.00843334
0.00775083
0.00782372
0.00841653
0.00843997
0.0084401
0.00843882
0.00843336
0.00842261
0.00840417
0.00836017
0.00826968
0.00830426
0.00831594
0.00834953
0.00838806
0.00841803
0.00843428
0.00844091
0.00844416
0.0084459
0.00844671
0.00844698
0.00844729
0.00844777
0.00844689
0.00844472
0.00844299
0.00844231
0.00844165
0.00843983
0.00843749
0.00843302
0.00777669
0.00778187
0.00838544
0.00843973
0.00843976
0.00843902
0.00843321
0.00842161
0.00840405
0.00836336
0.00825789
0.00830118
0.00830985
0.00833912
0.00837772
0.00841065
0.00843163
0.00844083
0.00844384
0.00844576
0.00844684
0.00844727
0.00844753
0.00844771
0.00844792
0.008447
0.00844467
0.00844269
0.00844186
0.00844108
0.00843928
0.00843695
0.00843295
0.00780187
0.00775492
0.00831975
0.00843361
0.0084406
0.00840031
0.00843105
0.00841842
0.0084021
0.00836584
0.00830518
0.00829868
0.00830472
0.00832992
0.00836818
0.00840242
0.0084265
0.0084397
0.00844474
0.00844566
0.00844699
0.00844742
0.00844774
0.00844769
0.00844779
0.00844809
0.00844697
0.00844435
0.0084422
0.00844111
0.00844026
0.00843823
0.00843728
0.00842421
0.00709044
0.00821096
0.00776393
0.00827691
0.00841549
0.00841979
0.00836263
0.00843012
0.00841577
0.00839939
0.00836692
0.00832119
0.00829692
0.00830042
0.00832196
0.00835892
0.0083945
0.00842072
0.00843656
0.00844435
0.00844711
0.00844726
0.00844774
0.00844793
0.00844803
0.00844776
0.00844798
0.00844813
0.00844666
0.0084438
0.00844132
0.00843997
0.00843894
0.00841903
0.00847252
0.00822228
0.00822686
0.00712807
0.00821409
0.00777721
0.00827352
0.00839976
0.00841838
0.0083915
0.00842709
0.00841168
0.00839558
0.00836687
0.00832357
0.00829594
0.00829674
0.00831516
0.00835066
0.00838677
0.0084154
0.00843309
0.00844249
0.0084475
0.00844893
0.00844869
0.0084481
0.00844818
0.00844813
0.00844788
0.00844806
0.00844778
0.00844608
0.0084428
0.00843987
0.00843897
0.00841853
0.00830576
0.00818282
0.00823281
0.00831708
0.00823561
0.00823084
0.00823928
0.00718149
0.00824049
0.00779438
0.00827295
0.00838331
0.00843005
0.00842608
0.00842263
0.00840766
0.00839213
0.00836646
0.00832549
0.00829581
0.00829383
0.00830943
0.00834343
0.00837954
0.00840956
0.00842974
0.00844065
0.00844619
0.00844936
0.00845016
0.00844985
0.00844846
0.0084483
0.00844816
0.00844794
0.00844764
0.00844709
0.00844498
0.00844127
0.00843896
0.00841861
0.00818907
0.00819216
0.00819897
0.00824688
0.00823089
0.00824928
0.00825876
0.00826472
0.0072375
0.0082639
0.00781573
0.00826899
0.00837277
0.00841945
0.00842957
0.00841726
0.0084038
0.0083885
0.00836552
0.00832744
0.00829622
0.00829194
0.00830463
0.00833713
0.0083728
0.00840406
0.0084263
0.00843878
0.00844496
0.00844835
0.00845046
0.00845117
0.00845057
0.00844859
0.00844827
0.00844808
0.00844742
0.00844678
0.00844594
0.00844344
0.00844055
0.00841789
0.00819123
0.00819172
0.00820857
0.00821458
0.00823162
0.00826917
0.00825105
0.00826986
0.00828292
0.00828669
0.00729583
0.00828325
0.00784042
0.00826835
0.00836142
0.0084091
0.00842407
0.00841246
0.00839995
0.00838631
0.00836535
0.00832931
0.00829706
0.00829099
0.00830082
0.00833134
0.00836691
0.00839856
0.00842244
0.00843682
0.00844419
0.00844763
0.00844957
0.00845079
0.00845178
0.00845082
0.00844855
0.00844808
0.00844737
0.00844642
0.00844553
0.00844454
0.0084427
0.00841728
0.00818885
0.00818511
0.00821538
0.00821487
0.0082361
0.00823884
0.0082521
0.00828899
0.00827022
0.00828886
0.00830265
0.00830555
0.00735777
0.00829967
0.00786887
0.00827218
0.00835676
0.00840302
0.00841938
0.00840727
0.00839704
0.00838455
0.00836473
0.00833131
0.00829915
0.00829067
0.00829863
0.00832623
0.00836151
0.0083935
0.00841869
0.00843481
0.00844306
0.00844724
0.00844932
0.00845032
0.00845107
0.00845201
0.00845081
0.00844859
0.00844746
0.00844616
0.0084451
0.00844438
0.00844416
0.0084167
0.00817432
0.00816718
0.00820601
0.00818952
0.00823406
0.00821923
0.00825641
0.00825341
0.00827078
0.00830651
0.00828851
0.00830594
0.00831846
0.00832136
0.00742288
0.00831378
0.00790062
0.00827655
0.00835869
0.00839871
0.00841443
0.00840374
0.00839519
0.00838364
0.00836531
0.00833355
0.0083014
0.00829088
0.00829734
0.00832227
0.00835694
0.00838874
0.00841488
0.00843262
0.00844231
0.00844673
0.00844899
0.00845034
0.00845079
0.00845124
0.00845196
0.0084507
0.00844876
0.00844628
0.00844484
0.00844417
0.00844451
0.00841627
0.00816133
0.00816499
0.00817294
0.00817553
0.00819658
0.00817836
0.0082289
0.00819943
0.00826662
0.00823942
0.00827959
0.00832215
0.00829631
0.00831408
0.00833092
0.00833391
0.00748984
0.00832528
0.0079359
0.00827763
0.00836505
0.00839866
0.00841038
0.00840169
0.00839476
0.00838341
0.00836617
0.00833579
0.008304
0.00829173
0.00829694
0.00831918
0.00835309
0.00838482
0.00841118
0.00843019
0.00844108
0.00844624
0.00844888
0.00845018
0.00845083
0.0084509
0.00845108
0.00845146
0.00845061
0.0084483
0.00844503
0.0084439
0.00844386
0.00840842
0.00815519
0.00812935
0.00817454
0.00815412
0.00817228
0.0081573
0.00818092
0.0081644
0.00819921
0.00817802
0.008246
0.00820466
0.00825703
0.00833087
0.00827192
0.00828937
0.00834045
0.00834112
0.00756071
0.00833493
0.00797431
0.00828725
0.00836734
0.0084045
0.00840728
0.00840049
0.00839433
0.00838436
0.00836746
0.00833823
0.00830712
0.00829318
0.00829708
0.00831731
0.00834984
0.00838135
0.00840797
0.00842782
0.00843975
0.00844589
0.00844869
0.0084501
0.0084507
0.00845088
0.00845063
0.00845045
0.00845056
0.00844978
0.00844713
0.00844327
0.00843966
0.00839001
0.00808551
0.00801644
0.00810306
0.00802987
0.00811062
0.00803202
0.00812165
0.00804188
0.00814359
0.0080699
0.00817439
0.00811591
0.00820671
0.00816751
0.00821325
0.00831187
0.00822319
0.00823642
0.00834662
0.00832994
0.00763422
0.00834117
0.0080147
0.00830588
0.00836684
0.00841003
0.00840537
0.00840072
0.00839511
0.00838541
0.00836838
0.00834014
0.00831004
0.00829569
0.00829796
0.00831653
0.0083475
0.00837831
0.00840509
0.00842557
0.00843847
0.00844527
0.00844856
0.00845005
0.00845063
0.0084508
0.0084505
0.00844982
0.00844928
0.00844888
0.00844756
0.00844163
0.0084294
0.00836011
0.00794006
0.00785702
0.00794024
0.00783819
0.007931
0.00782445
0.00793732
0.00782113
0.00795627
0.00782899
0.0080036
0.0078642
0.00808515
0.00793657
0.00815595
0.00805216
0.00815313
0.00827093
0.00816081
0.00818264
0.00834174
0.00829459
0.00770978
0.00834069
0.00805552
0.00833098
0.00837539
0.00840744
0.0084048
0.00840152
0.00839622
0.00838672
0.00836947
0.00834231
0.00831291
0.00829817
0.00829965
0.00831646
0.0083464
0.00837617
0.00840259
0.00842347
0.00843724
0.00844478
0.00844842
0.00845007
0.00845068
0.00845068
0.00845034
0.0084495
0.00844818
0.00844703
0.00844366
0.00843408
0.00841216
0.00836937
0.00777104
0.00756338
0.00774035
0.00765294
0.00771814
0.00761814
0.00770415
0.0075927
0.00770636
0.00757269
0.00772018
0.00758472
0.00776988
0.00762133
0.00787749
0.00768846
0.00802145
0.00782905
0.00801046
0.00820995
0.00802356
0.00805566
0.00831096
0.00823572
0.00778749
0.00832382
0.0080989
0.00834526
0.00839153
0.00840585
0.00840516
0.00840303
0.0083985
0.00838862
0.00837062
0.00834414
0.00831533
0.00830066
0.00830161
0.00831692
0.00834593
0.00837483
0.00840046
0.00842178
0.00843632
0.00844449
0.00844836
0.00845009
0.00845066
0.00845063
0.00845012
0.00844914
0.00844756
0.0084447
0.00843722
0.00841811
0.00838663
0.00831696
0.00805418
0.00756624
0.00737335
0.00751844
0.00743358
0.00747576
0.00737716
0.00745589
0.00739923
0.00749006
0.0073811
0.00749341
0.00738465
0.00753032
0.00740795
0.00762721
0.00745744
0.00778938
0.00758067
0.00777595
0.00810091
0.00779382
0.00784445
0.00825494
0.00815199
0.0078658
0.0082996
0.00814144
0.00836116
0.00839828
0.00840483
0.00840572
0.0084043
0.00840031
0.00839006
0.00837191
0.00834527
0.00831714
0.00830287
0.00830364
0.00831792
0.00834569
0.00837409
0.00839903
0.0084203
0.00843555
0.00844432
0.00844851
0.00845015
0.00845061
0.00845049
0.0084498
0.00844871
0.00844679
0.00844213
0.00842789
0.00839758
0.008346
0.00824763
0.008117
0.007142
0.00725443
0.00734316
0.00727122
0.00730657
0.00728749
0.00730976
0.00723161
0.00728806
0.0072588
0.00731525
0.0072477
0.00730742
0.00723165
0.00732862
0.00723262
0.00740669
0.00726558
0.0075405
0.00736298
0.00752771
0.00792057
0.00754912
0.00760629
0.00820144
0.00800745
0.00793233
0.00825064
0.00818204
0.00836927
0.00840405
0.00840391
0.00840607
0.00840551
0.00840222
0.00839147
0.00837252
0.0083457
0.00831893
0.0083048
0.00830577
0.00831933
0.00834577
0.0083735
0.00839789
0.008419
0.0084348
0.0084442
0.00844869
0.00845034
0.00845061
0.00845027
0.00844934
0.00844799
0.00844567
0.00843827
0.00841657
0.00837517
0.00828969
0.00815305
0.00807893
0.00710515
0.00713645
0.00710313
0.00714006
0.00721267
0.00715861
0.00719201
0.00720278
0.00720978
0.00716345
0.00718676
0.00714024
0.00717093
0.00711602
0.00715182
0.00709028
0.00715974
0.00708019
0.00722274
0.00710374
0.00732339
0.00717516
0.00731194
0.00768877
0.00733384
0.00738254
0.00809385
0.00779459
0.00788186
0.00814999
0.00822527
0.00837644
0.0084018
0.008403
0.00840621
0.00840638
0.00840328
0.0083924
0.008373
0.00834599
0.00831939
0.00830592
0.00830749
0.00832103
0.00834652
0.00837315
0.00839704
0.00841781
0.00843415
0.00844407
0.00844873
0.0084504
0.00845058
0.00844999
0.0084488
0.00844701
0.00844389
0.00843318
0.00840313
0.00835293
0.00824282
0.00807908
0.00810939
0.00712461
0.0069269
0.00710669
0.00706345
0.00708821
0.00706661
0.00716138
0.00711943
0.00712994
0.00710749
0.00709694
0.00705961
0.00706441
0.00702562
0.00674858
0.00664545
0.00699445
0.00694175
0.00701126
0.00694163
0.00706294
0.00696311
0.00713824
0.00701446
0.00713111
0.0074589
0.00715278
0.00719057
0.0079429
0.0075789
0.00790795
0.00808808
0.00828587
0.00838236
0.00840074
0.00840245
0.00840646
0.00840702
0.00840384
0.00839276
0.00837286
0.00834588
0.00831957
0.00830656
0.00830877
0.00832309
0.00834809
0.00837379
0.00839675
0.00841733
0.00843382
0.0084445
0.00844942
0.00845062
0.00845037
0.00844953
0.00844812
0.00844587
0.00844139
0.00842643
0.00838883
0.00833057
0.0082027
0.00804057
0.00806422
0.00791973
0.00702252
0.00690425
0.00703474
0.00699723
0.00701794
0.00700462
0.0070741
0.00704012
0.00703514
0.00701962
0.00664061
0.00657063
0.00688301
0.00691467
0.00691489
0.00687719
0.0068832
0.00684525
0.00688298
0.00683302
0.00692645
0.00685332
0.00698564
0.00688718
0.00698764
0.00726302
0.00700584
0.00704015
0.00775118
0.00738107
0.00768924
0.00797213
0.00837867
0.00840103
0.00840263
0.00840689
0.0084076
0.00840405
0.00839272
0.008372
0.00834496
0.00831974
0.00830724
0.0083101
0.0083248
0.00835043
0.00837548
0.00839377
0.00841764
0.00843452
0.00844573
0.00845125
0.00845244
0.00845085
0.00844901
0.00844716
0.0084445
0.00843811
0.00841832
0.00837364
0.00829558
0.00816822
0.00804131
0.00804373
0.008069
0.00696008
0.00695366
0.00696592
0.00693971
0.00697895
0.00695408
0.00696063
0.00695996
0.00699369
0.00696959
0.00689812
0.00693767
0.00688792
0.00687385
0.00684602
0.00683711
0.00683281
0.00682794
0.0068145
0.00683054
0.00681947
0.00683989
0.00683847
0.00684227
0.00687496
0.00683614
0.00688548
0.00710861
0.00690175
0.00683301
0.00756273
0.00721588
0.007945
0.00782266
0.0083543
0.00840458
0.00840747
0.00840807
0.00840401
0.00839191
0.00837056
0.00834297
0.00831887
0.00830809
0.00831169
0.0083269
0.0083519
0.00837709
0.00837837
0.00841417
0.00843514
0.00844708
0.00845315
0.00845487
0.00845315
0.00844973
0.00844616
0.00844261
0.00843439
0.00840912
0.00835812
0.00826399
0.00811281
0.00812064
0.00805871
0.00813829
0.00649365
0.00643765
0.00693468
0.00693634
0.00694151
0.00693555
0.00695259
0.00695
0.00693487
0.00695247
0.00692353
0.00691906
0.00687748
0.00688412
0.00683681
0.00685079
0.00683667
0.00687982
0.00690003
0.00697383
0.00692948
0.00703535
0.00692577
0.00704249
0.00689311
0.00701943
0.00685535
0.00682035
0.00675875
0.00673285
0.00660941
0.0044216
0.00461731
0.00739421
0.00684509
0.00777775
0.00764705
0.00832466
0.00840986
0.00840845
0.00840357
0.00839016
0.00836787
0.00833999
0.00831576
0.00830724
0.00831255
0.00832881
0.00835309
0.00837708
0.0083559
0.00839689
0.00843444
0.0084473
0.00845401
0.00845601
0.00845489
0.0084513
0.00844622
0.00844071
0.00842996
0.00839889
0.00834214
0.00822071
0.00809343
0.0080829
0.00815252
0.00812572
0.00774305
0.00660684
0.00656997
0.0069784
0.0070013
0.00695516
0.00696351
0.00696241
0.00697728
0.00694773
0.00671369
0.00689247
0.00691461
0.0068795
0.00689979
0.0069283
0.0069755
0.00703834
0.00710472
0.00713715
0.00721902
0.00717022
0.00728515
0.00715951
0.00718609
0.0070003
0.00718154
0.00669097
0.00487783
0.00476057
0.00459122
0.00462249
0.00438349
0.0046995
0.00447848
0.00443986
0.00463855
0.00459551
0.00423978
0.00703011
0.00443093
0.00459807
0.00486344
0.0068651
0.00727982
0.00829971
0.00841081
0.00840272
0.00838768
0.00836379
0.00833507
0.00831099
0.00830301
0.00831143
0.00832908
0.00835379
0.00837638
0.00834537
0.00837233
0.00843248
0.00844628
0.00845385
0.0084562
0.00845491
0.0084516
0.00844618
0.00843959
0.00842528
0.00838767
0.00832396
0.00818385
0.00806306
0.0080773
0.00814143
0.00812916
0.00796695
0.0069356
0.0069217
0.00702898
0.00705666
0.00708574
0.00713939
0.00700224
0.00703813
0.00663041
0.0069181
0.00700222
0.00705396
0.00692091
0.00695589
0.00702352
0.00705306
0.00716168
0.0072133
0.0072879
0.00734684
0.00737632
0.00744085
0.00730598
0.00739355
0.0070934
0.00542843
0.00552673
0.00501901
0.00523191
0.00553615
0.00535009
0.00487097
0.00475561
0.00500865
0.00491356
0.00460259
0.00422921
0.00423797
0.00434238
0.00453226
0.00460049
0.00431411
0.00456665
0.00521178
0.00481101
0.0042703
0.00431984
0.00711706
0.00491465
0.00527511
0.0053281
0.00827354
0.00840417
0.00838482
0.00835891
0.00832896
0.0083045
0.00829704
0.00830765
0.00832803
0.00835327
0.00837555
0.00834466
0.00835139
0.00842944
0.0084446
0.0084535
0.00845626
0.00845487
0.00845127
0.00844581
0.00843844
0.00842092
0.0083764
0.00830452
0.00815011
0.00803626
0.00807057
0.00813152
0.00811457
0.00812775
0.0080253
0.00720081
0.00719973
0.00719101
0.00723526
0.00726768
0.00735087
0.00709857
0.00718494
0.00711794
0.00719912
0.00713539
0.00720682
0.00707622
0.00709903
0.00725861
0.00728304
0.0073895
0.00742373
0.00748492
0.00751039
0.00743329
0.00742614
0.00558615
0.00569654
0.00570473
0.0057345
0.0056239
0.00575199
0.00546717
0.00554079
0.00504627
0.00524931
0.00552131
0.00537303
0.00496577
0.00473465
0.00495748
0.00508969
0.00475012
0.00425796
0.00424868
0.00449672
0.00471627
0.00467938
0.00443051
0.00439088
0.00450272
0.00425817
0.00429465
0.0052944
0.00512387
0.00536568
0.00465457
0.00484732
0.00824205
0.00838516
0.0083541
0.00832199
0.00829724
0.00829037
0.00830211
0.00832608
0.00835228
0.00837417
0.00825511
0.00817527
0.00841673
0.00844181
0.00845288
0.00845648
0.00845527
0.00845111
0.00844494
0.0084366
0.00841633
0.0083654
0.00827939
0.00813908
0.00800965
0.00806089
0.00811835
0.00810033
0.00811189
0.00820056
0.00754537
0.00751919
0.00753843
0.00757562
0.00742585
0.00748871
0.00743357
0.00762007
0.00729484
0.00732314
0.00730025
0.00741093
0.00733526
0.00741809
0.0072969
0.00730398
0.00744332
0.00744404
0.00751383
0.00751314
0.0074106
0.00737833
0.00566986
0.0056569
0.00556061
0.00553601
0.00554876
0.00557391
0.00552988
0.00549623
0.00557501
0.00560612
0.0055889
0.0055822
0.00527458
0.00543886
0.00561053
0.00555647
0.00512721
0.00493545
0.00513409
0.00530592
0.00493375
0.0043584
0.00428913
0.00465097
0.0048855
0.00484543
0.00457285
0.00435363
0.00444366
0.00427441
0.00428953
0.00507865
0.00531175
0.00554428
0.00457721
0.00474921
0.00819991
0.00835312
0.00831511
0.0082889
0.00828249
0.00829644
0.0083222
0.00835093
0.00834201
0.00825706
0.00801706
0.00822685
0.00843795
0.00844238
0.00845629
0.00845573
0.00845156
0.00844486
0.00843487
0.0084115
0.00835428
0.00825445
0.00813198
0.00800114
0.00804906
0.00810266
0.00808347
0.00809792
0.00815696
0.00816411
0.0077722
0.00774105
0.00776095
0.00777775
0.0076973
0.00773252
0.00776117
0.00781493
0.00753325
0.00765799
0.00752381
0.00763612
0.00750154
0.00757596
0.00744537
0.0074558
0.00749814
0.00749367
0.00751469
0.00752953
0.00554425
0.00556913
0.0055664
0.00600033
0.00542891
0.00545827
0.00546
0.00547392
0.00553872
0.00547229
0.00544885
0.00546767
0.00559825
0.00554141
0.00552538
0.00551334
0.00547274
0.00559318
0.00557558
0.00562735
0.00534112
0.00513462
0.00533517
0.00550645
0.00512472
0.00447744
0.00437535
0.00480061
0.00505708
0.00501328
0.00470865
0.00433488
0.0044135
0.00430845
0.00430444
0.00496154
0.00518477
0.00574516
0.00452701
0.004664
0.00814355
0.00831215
0.00827951
0.00827362
0.00828885
0.00831782
0.00834776
0.0083374
0.0083161
0.00818813
0.00805724
0.00843116
0.00839629
0.00844608
0.00845554
0.00845192
0.00844462
0.00843377
0.00840727
0.00834402
0.00823071
0.00810585
0.00799983
0.00803447
0.00808745
0.00806746
0.00808659
0.00815387
0.0081739
0.00773078
0.00770959
0.00783505
0.00785462
0.00783766
0.00783686
0.00776231
0.00775447
0.00791122
0.00793555
0.00774468
0.00784144
0.0076629
0.00775303
0.00760925
0.00766779
0.0075243
0.00756126
0.0075407
0.0075559
0.00751117
0.00735151
0.0054826
0.00549393
0.00548455
0.00590408
0.00548574
0.00551167
0.0055187
0.00550724
0.00545867
0.00546438
0.00550181
0.00553153
0.00551049
0.00545745
0.00548369
0.00548339
0.005609
0.00562915
0.00549479
0.00556412
0.00553224
0.0053357
0.00551011
0.00563789
0.00529944
0.00459498
0.00447069
0.00493611
0.00522913
0.00517328
0.00483238
0.00433487
0.00439618
0.00435861
0.00433514
0.00493181
0.00520528
0.00597457
0.00448525
0.00459127
0.00807534
0.00827476
0.00826215
0.00828097
0.00831145
0.00834433
0.00834045
0.0083298
0.00833165
0.00823025
0.00839779
0.00839425
0.00838698
0.00845357
0.00845153
0.00844422
0.00843307
0.00840493
0.00833589
0.00821118
0.00807184
0.00808448
0.00786636
0.00807482
0.00805517
0.00808047
0.00815746
0.00821974
0.00810005
0.00790164
0.00787837
0.00785657
0.00787988
0.00785862
0.00784495
0.00795996
0.00790737
0.00797211
0.00801895
0.00783659
0.0079099
0.00773451
0.00780211
0.00762431
0.00766318
0.00757794
0.00759632
0.00732041
0.00754143
0.00545206
0.00543225
0.00534732
0.0053947
0.00548882
0.00547674
0.00544474
0.00540662
0.00554134
0.00553731
0.00551817
0.00548445
0.00550275
0.00553063
0.00555681
0.00555919
0.00550641
0.00549733
0.00553982
0.00554814
0.00561946
0.00554865
0.00552393
0.00550151
0.00564108
0.00550601
0.00561879
0.00563432
0.00545694
0.00470782
0.00456231
0.00507445
0.00539383
0.00532983
0.00495827
0.00435027
0.00438776
0.00441088
0.00437866
0.00505371
0.00538168
0.00616035
0.00444708
0.00448858
0.0080075
0.00822704
0.00826921
0.00830521
0.00833932
0.00834619
0.00833028
0.00834404
0.00839459
0.00838805
0.00840252
0.00838111
0.00843458
0.00845015
0.00844377
0.00843234
0.00840472
0.00833154
0.00819284
0.00805589
0.00805758
0.00745831
0.00806549
0.00804763
0.00808077
0.00816808
0.00825107
0.00826954
0.00777452
0.00775385
0.00801407
0.00803219
0.00795737
0.00798227
0.00795814
0.00793859
0.00804696
0.0080008
0.00798631
0.00803067
0.00786627
0.00792859
0.00771205
0.00776747
0.00755107
0.00757776
0.00753703
0.00753622
0.00529776
0.00565444
0.00730844
0.0053162
0.00529236
0.00521366
0.00525545
0.00544894
0.00542395
0.00538315
0.00533996
0.00554437
0.00552093
0.00548825
0.00544543
0.00556581
0.00556625
0.00556837
0.00555382
0.00558138
0.00557121
0.00560931
0.00559892
0.0055338
0.00550283
0.00560625
0.00554281
0.00562465
0.00562098
0.00562034
0.00554888
0.00557742
0.00481671
0.00464542
0.0052147
0.00553485
0.00545738
0.00507768
0.00437396
0.00438389
0.00446608
0.00442433
0.00538104
0.00554095
0.00606653
0.00416424
0.00456305
0.00792612
0.00820183
0.00829411
0.00833353
0.00834839
0.00834619
0.00835551
0.00838403
0.00840329
0.00835908
0.00835831
0.00842137
0.00844644
0.00844355
0.00843218
0.00840552
0.00833082
0.00817735
0.00804117
0.0080456
0.00708978
0.00805646
0.00804239
0.00808813
0.00818328
0.00827424
0.00835696
0.00826493
0.00808389
0.00806827
0.00808599
0.00808542
0.00776839
0.00805898
0.0080742
0.00806803
0.00805739
0.00806891
0.0079627
0.00801488
0.00782948
0.00789761
0.00761966
0.00767685
0.00744859
0.00746468
0.00718482
0.00744428
0.00517559
0.00554663
0.00512947
0.00508548
0.00527238
0.00524244
0.00516334
0.00520284
0.00540483
0.0053781
0.00533713
0.00529566
0.00552933
0.00550058
0.00546647
0.00542417
0.00559146
0.0055747
0.00556956
0.00555277
0.00564575
0.00561732
0.00565548
0.00562308
0.00550734
0.00555502
0.0056744
0.00562831
0.0055395
0.00563851
0.00555755
0.00553002
0.00561423
0.00492237
0.00473108
0.00533602
0.00559835
0.00553548
0.00519699
0.00440119
0.00438286
0.00454347
0.00447624
0.00565265
0.00601977
0.00610459
0.00411636
0.00500759
0.00786315
0.00819858
0.00832106
0.00834792
0.00834849
0.00835784
0.00837432
0.00833909
0.00816401
0.00795068
0.00831618
0.0084401
0.00844375
0.00843285
0.00840601
0.00833101
0.00817016
0.00802862
0.00803452
0.00703936
0.00798504
0.00803508
0.00809515
0.00797535
0.00829007
0.00837484
0.00842521
0.00802311
0.00800533
0.00808909
0.00808654
0.00809553
0.00809215
0.00778925
0.00776929
0.00808741
0.00809421
0.00805143
0.00807421
0.00790895
0.00798103
0.00774908
0.00782979
0.00750226
0.00756244
0.00706864
0.0073748
0.00505125
0.00537291
0.00714964
0.0051253
0.00511344
0.00508337
0.00504004
0.00526493
0.00523269
0.0051522
0.00519054
0.00538546
0.00536161
0.00532336
0.0052854
0.0055302
0.0055052
0.00547563
0.00543782
0.00560773
0.00559209
0.00559155
0.00558149
0.00569312
0.0056536
0.00570532
0.00565701
0.00558024
0.00564528
0.00573712
0.00570413
0.00551949
0.00556767
0.00553721
0.00559719
0.00557623
0.00503385
0.00485086
0.00545687
0.00560618
0.00562929
0.00533959
0.00443054
0.00441926
0.00468266
0.00456885
0.00577236
0.00667359
0.00624856
0.00465568
0.00538352
0.007823
0.00820206
0.00833555
0.00834503
0.00834917
0.00833476
0.00832927
0.00796817
0.00757367
0.00808632
0.00843162
0.00843843
0.00843248
0.00840483
0.00833006
0.00816585
0.00802231
0.0080249
0.00733175
0.00789893
0.00760727
0.00809753
0.00797427
0.00830734
0.00838485
0.0084302
0.00833025
0.0080923
0.00807364
0.00809622
0.00809373
0.0081051
0.00810003
0.00811486
0.00780527
0.00781399
0.00811454
0.00804126
0.0077414
0.00782487
0.00792575
0.00764031
0.00772864
0.00740189
0.00745336
0.00492175
0.00522368
0.00705052
0.00500662
0.00534017
0.00495621
0.00497298
0.00511697
0.00510391
0.00509417
0.00504737
0.00529442
0.00525938
0.00517607
0.00521394
0.0054034
0.00538333
0.00534778
0.00531312
0.0055653
0.00554715
0.00552394
0.00549078
0.00564954
0.00564632
0.00565458
0.00565329
0.00576169
0.00571818
0.0057932
0.00572839
0.00568253
0.00573577
0.00583472
0.00578526
0.00559085
0.0055305
0.00560967
0.00569215
0.0055906
0.00519319
0.00504186
0.00561292
0.00569598
0.00576326
0.00554089
0.00451877
0.00469538
0.00488852
0.00477549
0.00586004
0.00746948
0.00665449
0.00509909
0.0055628
0.00779449
0.00814615
0.00833427
0.00833013
0.00833143
0.00823109
0.00812808
0.00773992
0.00786462
0.00831666
0.00840348
0.00841469
0.00839731
0.00832637
0.00815963
0.00801817
0.00801705
0.00784313
0.00794246
0.00739421
0.00809361
0.00821575
0.00832258
0.00839536
0.00842924
0.00843434
0.00803051
0.00800191
0.00810611
0.0081029
0.00809578
0.00810935
0.00799415
0.00797124
0.00814122
0.0081331
0.00776833
0.00814136
0.0080191
0.00774781
0.0077167
0.00784446
0.00752144
0.0076069
0.00701904
0.00738122
0.00492984
0.00524769
0.00486934
0.00486033
0.00500837
0.00498255
0.00496808
0.00499908
0.00514634
0.00513017
0.00512185
0.00507369
0.00535598
0.00531701
0.00522657
0.00526802
0.00546027
0.00544319
0.00540916
0.0053765
0.00564586
0.00563508
0.00561681
0.00558631
0.00573617
0.00575212
0.00576926
0.0057763
0.00588605
0.0058289
0.00594085
0.00585235
0.00578005
0.00584075
0.00598944
0.00590852
0.00571201
0.0056159
0.00574359
0.00580484
0.00573943
0.00544242
0.00530899
0.00579332
0.00569085
0.00566453
0.00579236
0.00482199
0.00503858
0.00516126
0.00512202
0.00605019
0.00670534
0.00710837
0.00534223
0.00573469
0.00773086
0.00822634
0.00831393
0.00824346
0.00821296
0.00821882
0.00808352
0.0080105
0.00823434
0.00833034
0.00836086
0.00836582
0.0083148
0.00815199
0.00801188
0.0080102
0.00803549
0.00800004
0.00773635
0.0080863