/*--------------------------------*- C++ -*----------------------------------*\
  =========                 |
  \\      /  F ield         | OpenFOAM: The Open Source CFD Toolbox
   \\    /   O peration     | Website:  https://openfoam.org
    \\  /    A nd           | Version:  dev
     \\/     M anipulation  |
\*---------------------------------------------------------------------------*/
FoamFile
{
    version     2.0;
    format      ascii;
    class       volScalarField;
    location    "2500";
    object      rDeltaT;
}
// * * * * * * * * * * * * * * * * * * * * * * * * * * * * * * * * * * * * * //

dimensions      [0 0 -1 0 0 0 0];

internalField   nonuniform List<scalar> 
9851
(
100
100
100
100
100
100
100
100
100
100
100
100
100
100
100
100
100
100
100
100
100
100
100
100
100
100
100
100
100
100
100
100
100
100
100
100
100
100
100
100
100
100
100
100
100
100
100
100
100
100
100
100
100
100
100
100
100
100
100
100
100
100
100
100
100
100
100
100
100
100
100
100
100
100
100
100
100
100
100
100
100
100
100
100
100
100
100
100
100
100
100
100
100
100
100
100
100
100
100
100
100
100
100
100
100
100
100
100
100
100
100
100
100
100
100
100
100
100
100
100
100
100
100
100
100
100
100
100
100
100
100
100
100
100
100
100
100
100
100
100
100
100
100
100
100
100
100
100
100
100
100
100
100
100
100
100
100
100
100
100
100
100
100
100
100
100
100
100
100
100
100
100
100
100
100
100
100
100
100
100
100
100
100
100
100
100
100
100
100
100
100
100
100
100
100
100
100
100
100
100
100
100
100
100
100
100
100
100
100
100
100
100
100
100
100
100
100
100
100
100
100
100
100
100
100
100
100
100
100
100
100
100
100
100
100
100
100
100
100
100
100
100
100
100
100
100
100
100
100
100
100
100
100
100
100
100
100
100
100
100
100
100
100
100
100
100
100
100
100
100
100
100
100
100
100
100
100
100
100
100
100
100
100
100
100
100
100
100
100
100
100
100
100
100
100
100
100
100
100
100
100
100
100
100
100
100
100
100
100
100
100
100
100
100
100
100
100
100
100
100
100
100
100
100
100
100
100
100
100
100
100
100
100
100
100
100
100
100
100
100
100
100
100
100
100
100
100
100
100
100
100
100
100
100
100
100
100
100
100
100
100
100
100
100
100
100
100
100
100
100
100
100
100
100
100
100
100
100
100
100
100
100
100
100
100
100
100
100
100
100
100
100
100
100
100
100
100
100
100
100
100
100
100
100
100
100
100
100
100
100
100
100
100
100
100
100
100
100
100
100
100
100
100
100
100
100
100
100
100
100
100
100
100
100
100
100
100
100
100
100
100
100
100
100
100
100
100
100
100
100
100
100
100
100
100
100
100
100
100
100
100
100
100
100
100
100
100
100
100
100
100
100
100
100
100
100
100
100
100
100
100
100
100
100
100
100
100
100
100
100
100
100
100
100
100
100
100
100
100
100
100
100
100
100
100
100
100
100
100
100
100
100
100
100
100
100
100
100
100
100
100
100
100
100
100
100
100
100
100
100
100
100
100
100
100
100
100
100
100
100
100
100
100
100
100
100
100
100
100
100
100
100
100
100
100
100
100
100
100
100
100
100
100
100
100
100
100
100
100
100
100
100
100
100
100
100
100
100
100
100
100
100
100
100
100
100
100
100
100
100
100
100
100
100
100
100
100
100
100
100
100
100
100
100
100
100
100
100
100
100
100
100
100
100
100
100
100
100
100
100
100
100
100
100
100
100
100
100
100
100
100
100
100
100
100
100
100
100
100
100
100
100
100
100
100
100
100
100
100
100
100
100
100
100
100
100
100
100
100
100
100
100
100
100
100
100
100
100
100
100
100
100
100
100
100
100
100
100
100
100
100
100
100
100
100
100
100
100
100
100
100
100
100
100
100
100
100
100
100
100
100
100
100
100
100
100
100
100
100
100
100
100
100
100
100
100
100
100
100
100
100
100
100
100
100
100
100
100
100
100
100
100
100
100
100
100
100
100
100
100
100
100
100
100
100
100
100
100
100
100
100
100
100
100
100
100
100
100
100
100
100
100
100
100
100
100
100
100
100
100
100
100
100
100
100
100
100
100
100
100
100
100
100
100
100
100
100
100
100
100
100
100
100
100
100
100
100
100
100
100
100
100
100
100
100
100
100
100
100
100
100
100
100
100
100
100
100
100
100
100
100
100
100
100
100
100
100
100
100
100
100
100
100
100
100
100
100
100
100
100
100
100
100
100
100
100
100
100
100
100
100
100
100
100
100
100
100
100
100
100
100
100
100
100
100
100
100
100
100
100
100
100
100
100
100
100
100
100
100
100
100
100
100
100
100
100
100
100
100
100
100
100
100
100
100
100
100
100
100
100
100
100
100
100
100
100
100
100
100
100
100
100
100
100
100
100
100
100
100
100
100
100
100
100
100
100
100
100
100
100
100
100
100
100
100
100
100
100
100
100
100
100
100
100
100
100
100
100
100
100
100
100
100
100
100
100
100
100
100
100
100
100
100
100
100
100
100
100
100
100
100
100
100
100
100
100
100
100
100
100
100
100
100
100
100
100
100
100
100
100
100
100
100
100
100
100
100
100
100
100
100
100
100
100
100
100
100
100
100
100
100
100
100
100
100
100
100
100
100
100
100
100
100
100
100
100
100
100
100
100
100
100
100
100
100
100
100
100
100
100
100
100
100
100
100
100
100
100
100
100
100
100
100
100
100
100
100
100
100
100
100
100
100
100
100
100
100
100
100
100
100
100
100
100
100
100
100
100
100
100
100
100
100
100
100
100
100
100
100
100
100
100
100
100
100
100
100
100
100
100
100
100
100
100
100
100
100
100
100
100
100
100
100
100
100
100
100
100
100
100
100
100
100
100
100
100
100
100
100
100
100
100
100
100
100
100
100
100
100
100
100
100
100
100
100
100
100
100
100
100
100
100
100
100
100
100
100
100
100
100
100
100
100
100
100
100
100
100
100
100
100
100
100
100
100
100
100
100
100
100
100
100
100
100
100
100
100
100
100
100
100
100
100
100
100
100
100
100
100
100
100
100
100
100
100
100
100
100
100
100
100
100
100
100
100
100
100
100
100
100
100
100
100
100
100
100
100
100
100
100
100
100
100
100
100
100
100
100
100
100
100
100
100
100
100
100
100
100
100
100
100
100
100
100
100
100
100
100
100
100
100
100
100
100
100
100
100
100
100
100
100
100
100
100
100
100
100
100
100
100
100
100
100
100
100
100
100
100
100
100
100
100
100
100
100
100
100
100
100
100
100
100
100
100
100
100
100
100
100
100
100
100
100
100
100
100
100
100
100
100
100
100
100
100
100
100
100
100
100
100
100
100
100
100
100
100
100
100
100
100
100
100
100
100
100
100
100
100
100
100
100
100
100
100
100
100
100
100
100
100
100
100
100
100
100
100
100
100
100
100
100
100
100
100
100
100
100
100
100
100
100
100
100
100
100
100
100
100
100
100
100
100
100
100
100
100
100
100
100
100
100
100
100
100
100
100
100
100
100
100
100
100
100
100
100
100
100
100
100
100
100
100
100
100
100
100
100
100
100
100
100
100
100
100
100
100
100
100
100
100
100
100
100
100
100
100
100
100
100
100
100
100
100
100
100
100
100
100
100
100
100
100
100
100
100
100
100
100
100
100
100
100
100
100
100
100
100
100
100
100
100
100
100
100
100
100
100
100
100
100
100
100
100
100
100
100
100
100
100
100
100
100
100
100
100
100
100
100
100
100
100
100
100
100
100
100
100
100
100
100
100
100
100
100
100
100
100
100
100
100
100
100
100
100
100
100
100
100
100
100
100
100
100
100
100
100
100
100
100
100
100
100
100
100
100
100
100
100
100
100
100
100
100
100
100
100
100
100
100
100
100
100
100
100
100
100
100
100
100
100
100
100
100
100
100
100
100
100
100
100
100
100
100
100
100
100
100
100
100
100
100
100
100
100
100
100
100
100
100
100
100
100
100
100
100
100
100
100
100
100
100
100
100
100
100
100
100
100
100
100
100
100
100
100
100
100
100
100
100
100
100
100
100
100
100
100
100
100
100
100
100
100
100
100
100
100
100
100
100
100
100
100
100
100
100
100
100
100
100
100
100
100
100
100
100
100
100
100
100
100
100
100
100
100
100
100
100
100
100
100
100
100
100
100
100
100
100
100
100
100
100
100
100
100
100
100
100
100
100
100
100
100
100
100
100
100
100
100
100
100
100
100
100
100
100
100
100
100
100
100
100
100
100
100
100
100
100
100
100
100
100
100
100
100
100
100
100
100
100
100
100
100
100
100
100
100
100
100
100
100
100
100
100
100
100
100
100
100
100
100
100
100
100
100
100
100
100
100
100
100
100
100
100
100
100
100
100
100
100
100
100
100
100
100
100
100
100
100
100
100
100
100
100
100
100
100
100
100
100
100
100
100
100
100
100
100
100
100
100
100
100
100
100
100
100
100
100
100
100
100
100
100
100
100
100
100
100
100
100
100
100
100
100
100
100
100
100
100
100
100
100
100
100
100
100
100
100
100
100
100
100
100
100
100
100
100
100
100
100
100
100
100
100
100
100
100
100
100
100
100
100
100
100
100
100
100
100
100
100
100
100
100
100
100
100
100
100
100
100
100
100
100
100
100
100
100
100
100
100
100
100
100
100
100
100
100
100
100
100
100
100
100
100
100
100
100
100
100
100
100
100
100
100
100
100
100
100
100
100
100
100
100
100
100
100
100
100
100
100
100
100
100
100
100
100
100
100
100
100
100
100
100
100
100
100
100
100
100
100
100
100
100
100
100
100
100
100
100
100
100
100
100
100
100
100
100
100
100
100
100
100
100
100
100
100
100
100
100
100
100
100
100
100
100
100
100
100
100
100
100
100
100
100
100
100
100
100
100
100
100
100
100
100
100
100
100
100
100
100
100
100
100
100
100
100
100
100
100
100
100
100
100
100
100
100
100
100
100
100
100
100
100
100
100
100
100
100
100
100
100
100
100
100
100
100
100
100
100
100
100
100
100
100
100
100
100
100
100
100
100
100
100
100
100
100
100
100
100
100
100
100
100
100
100
100
100
100
100
100
100
100
100
100
100
100
100
100
100
100
100
100
100
100
100
100
100
100
100
100
100
100
100
100
100
100
100
100
100
100
100
100
100
100
100
100
100
100
100
100
100
100
100
100
100
100
100
100
100
100
100
100
100
100
100
100
100
100
100
100
100
100
100
100
100
100
100
100
100
100
100
100
100
100
100
100
100
100
100
100
100
100
100
100
100
100
100
100
100
100
100
100
100
100
100
100
100
100
100
100
100
100
100
100
100
100
100
100
100
100
100
100
100
100
100
100
100
100
100
100
100
100
100
100
100
100
100
100
100
100
100
100
100
100
100
100
100
100
100
100
100
100
100
100
100
100
100
100
100
100
100
100
100
100
100
100
100
100
100
100
100
100
100
100
100
100
100
100
100
100
100
100
100
100
100
100
100
100
100
100
100
100
100
100
100
100
100
100
100
100
100
100
100
100
100
100
100
100
100
100
100
100
100
100
100
100
100
100
100
100
100
100
100
100
100
100
100
100
100
100
100
100
100
100
100
100
100
100
100
100
100
100
100
100
100
100
100
100
100
100
100
100
100
100
100
100
100
100
100
100
100
100
100
100
100
100
100
100
100
100
100
100
100
100
100
100
100
100
100
100
100
100
100
100
100
100
100
100
100
100
100
100
100
100
100
100
100
100
100
100
100
100
100
100
100
100
100
100
100
100
100
100
100
100
100
100
100
100
100
100
100
100
100
100
100
100
100
100
100
100
100
100
100
100
100
100
100
100
100
100
100
100
100
100
100
100
100
100
100
100
100
100
100
100
100
100
100
100
100
100
100
100
100
100
100
100
100
100
100
100
100
100
100
100
100
100
100
100
100
100
100
100
100
100
100
100
100
100
100
100
100
100
100
100
100
100
100
100
100
100
100
100
100
100
100
100
100
100
100
100
100
100
100
100
100
100
100
100
100
100
100
100
100
100
100
100
100
100
100
100
100
100
100
100
100
100
100
100
100
100
100
100
100
100
100
100
100
100
100
100
100
100
100
100
100
100
100
100
100
100
100
100
100
100
100
100
100
100
100
100
100
100
100
100
100
100
100
100
100
100
100
100
100
100
100
100
100
100
100
100
100
100
100
100
100
100
100
100
100
100
100
100
100
100
100
100
100
100
100
100
100
100
100
100
100
100
100
100
100
100
100
100
100
100
100
100
100
100
100
100
100
100
100
100
100
100
100
100
100
100
100
100
100
100
100
100
100
100
100
100
100
100
100
100
100
100
100
100
100
100
100
100
100
100
100
100
100
100
100.33
103.355
106.247
100.314
100
100
100
100
100
100
100
100
100
100
100
100
100
100
100
100
100
100
100
100
100
100
100
100
100
100
100
100
100
100
100
100
100
100
100
100
100
100
100
100
100
100
100
100
100
100
100
100
100
100
100
100
100
100
100
100
100
100
100
100
100
100
100
100
100
100
100
100
100
100
100
100
100
100
100
100
100
100
100
100
100
100
100
100
100
100
100
100
100
100
100
100
100
101.795
104.347
100.417
106.251
100
100
107.685
110.616
113.739
108.335
100
100
100
100
100
100
100
100
100
100
100
100
100
100
100
100
100
100
100
100
100
100
100
100
100
100
100
100
100
100
100
100
100
100
100
100
100
100
100
100
100
100
100
100
100
100
100
100
100
100
100
100
100
100
100
100
100
100
100
100
100
100
100
100
100
100
100
100
100
100
100
100
100
100
100
100
100
100
100
100
100
100
100
100
100
100
100
100
100
102.465
104.653
109.676
107.203
105.884
108.501
111.545
108.082
113.524
107.418
104.577
115.625
117.954
120.871
117.169
100
100
100
100
100
100
100
100
100
100
100
100
100
100
100
100
100
100
100
100
100
100
100
100
100
100
100
100
100
100
100
100
100
100
100
100
100
100
100
100
100
100
100
100
100
100
100
100
100
100
100
100
100
100
100
100
100
100
100
100
100.459
100
100
100
100.107
101.159
100
100
102.58
103.229
100
100
100
100
100
100
100
100
100
100
100
100
100
100
100
100
111.877
101.683
114.651
103.621
111.649
115.201
123.423
118.92
114.481
116.172
120.226
117.599
121.439
116.303
112.967
124.182
125.863
130.471
126.085
100
100
107.093
100
100
100
100
100
100
100
100
100
100
100
100
100
100
100
100
100
100
100
100
100
100
100
100
100
100
100
100
100
100
100
100
100
100
100
100
100
100
100
100
100
100
100
100
100
100
100
100
100
100
100
100
100
100
100
100
105.737
103.563
107.211
103.512
102.648
101.527
106.966
108.075
100.019
101.534
109.368
109.613
103.083
104.61
106.699
105.802
100
100
100
100.929
100
100
100
101.395
103.933
103.313
102.173
100.679
127.361
118.476
132.029
121.724
123.451
131.84
154.657
142.257
126.57
126.863
136.478
136.113
134.278
124.786
121.595
134.769
141.282
146.562
135.402
100
100
115.895
104.438
100
100
100
100
100
100
100
100
100
100
100
100
100
100
100
100
100
100
100
100
100
100
100
100
100
100
100
100
100
100
100
100
100
100
100
100
100
100
100
100
100
100
100
100
100
100
100
100
100
100
100
100
100
100
100
100
112.837
110.496
113.572
109.872
108.622
108.192
114.009
115.052
106.74
108.482
116.546
116.235
112.027
113.385
114.364
114.204
104.779
107.659
109.651
110.517
102.152
106.238
110.151
113.931
123.16
122.381
120.696
118.887
161.433
139.101
166.529
146.327
150.728
169.536
196.098
185.975
152.381
150.011
171.62
173.682
159.784
134.841
132.089
148.831
165.01
167.984
149.229
100
100
123.37
113.823
100
100
100
100
100
100
100
100
100
100
100
100
100
100
100
100
100
100
100
100
100
100
100
100
100
100
100
100
100
100
100
100
100
100
100
100
100
100
100
100
100
100
100
100
100
100
100
100
100
100
100
100
100
100
106.23
102.647
100
104.672
119.708
117.145
120.591
117.395
115.448
115.66
121.319
122.391
114.321
115.726
124.496
123.282
123.57
124.39
124.02
124.668
117.682
120.944
123.144
123.186
118.091
122.036
126.241
130.601
148.417
146.224
144.216
141.698
188.092
177.175
194.704
184.591
190.574
204.141
217.394
208.063
193.238
185.385
212.12
210.189
191.235
147.741
142.169
168.243
193.844
195.184
166.484
100.356
100
135.468
124.005
104.241
122.742
120.724
100
103
100
100
100
100
100
100
100
100
100
100
100
100
100
100
100
100
100
100
100
100
100
100
100
100
100
100
100
100
100
100
100
100
100
100
100
100
100
100
100
100
100
100
100
100
100
100
100
100
100
100
114.334
110.228
104.584
110.957
127.023
124.455
128.649
125.986
122.942
123.228
128.57
129.905
123.851
124.333
133.354
131.854
138.792
138.456
136.072
137.679
135.416
139.236
140.946
140.127
140.478
142.821
146.749
151.525
181.726
179.408
175.429
170.78
235.548
206.722
250.287
216.772
212.627
224.61
147.132
258.936
215.401
220.754
227.111
230.012
222.756
163.31
158.735
193.792
226.33
228.02
191.591
110.584
100
148.604
138.19
118.633
150.316
135.289
100
115.233
100
100
100
100
100
100
100
100
100
100
100
100
100
100
100
100
100
100
100
100
100
100
100
100
100
100
100
100
100
100
100
100
100
100
100
100
100
100
100
100
100
100
100
100
100
100
100
104.286
100
100
122.451
117.188
111.405
117.859
135.219
132.351
136.602
133.952
131.668
130.998
136.86
138.373
135.288
134.513
143.925
142.233
158.731
156.666
151.863
154.576
158.78
165.338
164.613
162.607
168.399
167.903
170.44
172.669
233.598
232.625
226.597
222.89
285.152
259.945
301.685
145.213
263.314
150.137
179.334
316.337
269.09
233.383
149.775
155.165
236.774
187.237
175.339
227.502
241.596
243.335
224.603
123.779
111.765
166.842
154.35
121.843
244.642
124.168
115.627
119.408
100
100
100
100
100
100
100
100
100
100
100
100
100
100
100
100
100
100
100
100
100
100
100
100
100
100
100
100
100
100
100
100
100
100
100
100
100
100
100
100
100
100
100
100
100
100
100
110.742
102.796
100
129.7
123.946
118.319
125.261
142.672
139.486
145.362
141.832
141.393
139.558
145.282
147.041
149.811
147.378
159.172
155.695
184.463
179.275
172.536
175.799
181.371
190.312
193.991
189.698
221.111
220.093
223.761
223.878
279.58
276.879
270.995
266.447
338.76
316.706
357.085
173.97
320.465
183.061
212.607
376.679
326.9
151.716
183.229
187.813
153.787
207.718
197.917
237.022
155.744
156.377
236.842
143.599
133.683
186.805
178.472
121.645
101.611
100
131.568
139.625
100
100
100
100
100
100
100
100
100
100
100
100
100
100
100
100
100
100
100
100
100
100
100
100
100
100
100
100
100
100
100
100
100
100
100
100
100
100
100
100
100
100
100
100
100
100
100
100
100
117.185
108.248
106.023
136.978
131.277
125.424
132.71
150.428
147.649
154.261
149.627
153.035
149.28
154.204
157.232
169.042
164.694
179.905
172.882
208.174
202.686
197.427
200.466
234.636
247.179
230.849
220.195
264.155
262.907
267.542
267.341
331.406
327.669
320.611
314.756
387.991
375.501
406.412
204.879
381.421
217.834
241.871
430.351
387.501
183.795
218.142
221.548
185.791
231.052
221.504
151.676
188.066
186.985
258.332
283.268
165.597
160.614
213.317
199.553
137.945
100
100
159.694
157.838
100
100
100
100
100
100
100
100
100
100
100
100
100
100
100
100
100
100
100
100
100
100
100
100
100
100
100
100
100
100
100
100
100
100
100
100
100
100
100
100
100
100
100
100
100
101.928
100
100
100
123.785
114.865
112.58
144.58
138.966
132.936
141.086
159.931
157.088
162.649
157.523
167.922
162.214
163.929
169.663
192.594
186.17
206.846
196.181
267.547
235.867
218.929
228.897
278.848
289.477
151.813
269.774
311.524
311.028
315.805
315.965
379.874
375.334
366.438
359.464
425.703
233.895
435.376
248.709
441.308
218.84
247.853
251.278
220.521
249.528
245.92
181.185
222.599
221.039
165.035
335.621
191.581
183.866
236.347
224.397
134.866
100
100
176.851
160.468
100
100
100
100
100
100
100
100
100
100
100
100
100
100
100
100
100
100
100
100
100
100
100
100
100
100
100
100
100
100
100
100
100
100
100
100
100
100
100
100
100
100
100
100
100
100
100
100
107.454
101.423
100
100
130.961
122.322
118.436
152.683
147.431
139.838
148.533
171.562
166.762
172.253
166.499
187.05
178.973
176.918
186.773
217.73
213.634
236.646
222.177
155.65
311.397
281.413
276.794
328.893
336.9
179.528
320.691
355.556
355.67
360.245
361.014
249.484
250.464
277.146
284.818
264.994
215.057
252.536
250.592
189.398
398.631
212.221
200.371
257.273
244.01
135.282
100
102.998
183.497
160.751
100
100
100
100
100
100
100
100
100
100
100
100
100
100
100
100
100
100
100
100
100
100
100
100
100
100
100
100
100
100
100
100
100
100
100
100
100
100
100
100
100
100
100
100
100
100
100
100
113.171
105.619
100
100
138.636
129.189
124.994
161.24
155.73
147.262
155.275
185.337
177.881
182.775
175.773
208.522
198.867
194.947
209.262
240.871
236.324
247.972
248.051
183.522
358.382
323.378
160.442
326.778
376.429
382.946
209.417
375.189
175.714
333.041
292.581
295.868
244.122
221.531
452.388
228.33
208.349
267.496
257.3
135.183
107.201
124.048
184.998
159.42
100
100
100
100
100
100
100
100
100
100
100
100
100
100
100
100
100
100
100
100
100
100
100
100
100
100
100
100
100
100
100
100
100
100
100
100
100
100
100
100
100
100
100
100
100
100
100
100
100
118.06
111.002
100
100
146.673
136.344
130.982
169.218
162.775
156.288
164.225
203.702
191.449
194.861
185.441
231.533
221.005
218.294
232.46
285.162
161.186
262.15
212.169
405.335
368.756
187.62
381.121
237.347
428.821
197.457
393.737
185.816
341.272
249.63
234.951
209.768
289.972
301.32
261.057
136.972
115.867
132.707
182.366
159.359
100
100
100
100
100
100
100
100
100
100
100
100
100
100
100
100
100
100
100
100
100
100
100
100
100
100
100
100
100
100
100
100
100
100
100
100
100
100
100
100
100
100
100
100
100
100
100
100
100
100
100
123.634
116.318
103.232
100
153.958
143.103
136.642
177.071
171.041
164.147
172.536
227.259
208.446
209.385
196.069
253.408
244.076
244.773
257.153
335.899
165.367
187.654
238.946
414.558
215.724
435.104
226.582
445.734
204.686
398.596
237.029
205.396
305.162
317.053
338.955
257.555
143.187
133.76
152.253
179.392
161.768
100
100
100
100
100
100
100
100
100
100
100
100
100
100
100
100
100
100
100
100
100
100
100
100
100
100
100
100
100
100
100
100
100
100
100
100
100
100
100
100
100
100
100
100
100
100
100
100
100
100
100
100
130.171
119.844
105.888
100
161.126
149.141
143.557
186.064
180.007
172.129
180.58
249.984
228.592
227.514
210.202
272.006
259.911
267.727
264.128
391.511
171.274
192.953
216.161
242.441
250.969
229.555
444.787
228.554
199.435
183.397
354.235
386.045
246.696
292.956
151.766
146.946
178.515
178.322
159.814
100
100
100
100
100
100
100
100
100
100
100
100
100
100
100
100
100
100
100
100
100
100
100
100
100
100
100
100
100
100
100
100
100
100
100
100
100
100
100
100
100
100
100
100
100
100
100
100
100
100
100
100
100
135.226
124.29
110.607
101.583
167.688
155.738
150.104
197.07
188.859
178.949
187.783
267.365
249.723
245.899
226.076
307.129
265.235
168.925
444.685
200.2
222.598
243.935
248.995
218.752
195.082
202.678
403.22
422.508
236.931
275.106
325.336
172.308
145.654
189.121
175.223
170.215
100
100
100
100
100
100
100
100
100
100
100
100
100
100
100
100
100
100
100
100
100
100
100
100
100
100
100
100
100
100
100
100
100
100
100
100
100
100
100
100
100
100
100
100
100
100
100
100
100
100
100
100
100
100
139.221
129.667
114.625
102.902
175.72
163.393
154.41
208.609
197.23
186.385
194.889
276.323
267.731
265.061
244.615
353.647
165.279
195.252
230.71
251.292
211.974
191.086
226.576
444.319
230.435
270.51
310.195
364.502
180.276
138.729
190.762
176.104
177.36
100
100
100
100
100
100
100
100
100
100
100
100
100
100
100
100
100
100
100
100
100
100
100
100
100
100
100
100
100
100
100
100
100
100
100
100
100
100
100
100
100
100
100
100
100
100
100
100
100
100
100
100
100
100
100
145.088
132.737
116.371
106.089
183.308
169.155
159.596
222.393
206.633
194.704
203.171
287.813
328.951
279.574
276.801
261.244
404.056
191.572
222.553
260.26
208.041
188.626
244.708
226.879
264.981
304.128
352.979
394.793
184.894
141.175
202.801
181.817
180.816
100
100
100
100
100
100
100
100
100
100
100
100
100
100
100
100
100
100
100
100
100
100
100
100
100
100
100
100
100
100
100
100
100
100
100
100
100
100
100
100
100
100
100
100
108.528
100
100
100
100
100
100
100
100
100
100
100
149.827
134.935
119.069
188.26
173.547
165.844
237.246
217.361
200.891
211.341
181.747
376.142
280.993
281.588
274.82
453.114
218.45
248.397
205.103
191.682
224.65
261.077
297.944
343.402
386.29
191.971
142.441
214.608
183.553
185.886
100
100
100
100
100
100
100
100
100
100
100
100
100
100
100
100
100
100
100
100
100
100
100
100
100
100
100
100
100
100
100
100
100
100
100
100
100
100
100
100
100
100
100
100
121.998
108.884
100
100
100
100
100
100
100
100
100
100
100
100
152.187
138.047
194.078
180.125
169.362
252.325
229.357
205.513
218.647
209.037
174.232
422.015
291.521
328.942
283.66
244.269
205.823
192.741
224.875
260.754
294.568
336.087
375.414
198.412
141.576
221.407
185.966
188.483
100
100
100
100
100
100
100
100
100
100
100
100
100
100
100
100
100
100
100
100
100
100
100
100
100
100
100
100
100
100
100
100
100
100
100
100
100
100
100
100
100
100
100
100
100
122.886
109.121
100
100
100
100
100
100
100
100
100
100
100
100
100
155.29
139.91
201.485
185.464
172.711
268.408
242.427
213.783
230.677
235.298
197.19
466.153
180.585
368.677
289.753
207.061
193.966
226.245
261.086
293.807
332.329
367.392
201.841
145.734
221.787
186.939
186.61
100
100
100
100
100
100
100
100
100
100
100
100
100
100
100
100
100
100
100
100
100
100
100
100
100
100
100
100
100
100
100
100
100
100
100
100
100
100
100
100
100
100
100
100
123.27
109.411
100
100
100
100
100
100
100
100
100
100
100
100
100
100
158.343
140.793
206.53
189.494
176.459
280.165
257.745
220.083
242.671
259.496
221.283
326.494
204.029
409.376
299.789
207.514
194.277
228.91
259.834
294.258
330.862
362.972
200.384
193.957
247.734
184.692
180.468
100
100
100
100
100
100
100
100
100
100
100
100
100
100
100
100
100
100
100
100
100
100
100
100
100
100
100
100
100
100
100
100
100
100
100
100
100
100
100
100
100
100
100
100
100
123.44
109.274
100
100
100
100
100
100
100
100
100
100
100
100
100
100
100
159.779
140.829
210.116
193.133
178.335
286.639
271.89
225.441
253.736
244.145
364.061
184.117
227.338
448.969
208.943
192.732
232.839
267.007
294.018
331.19
360.918
205.912
344.311
297.444
179.462
172.193
100
100
100
100
100
100
100
100
100
100
100
100
100
100
100
100
100
100
100
100
100
100
100
100
100
100
100
100
100
100
100
100
100
100
100
100
100
100
100
100
100
100
100
100
100
123.203
107.398
100
100
100
100
100
100
100
100
100
100
100
100
100
100
100
106.202
159.95
140.497
213.814
195.898
179.066
295.247
282.981
231.03
261.86
404.276
205.4
330.033
248.86
208.465
189.324
235.717
268.967
300.768
331.887
360.907
199.01
765.51
225.244
169.306
159.6
100
100
100
100
100
100
100
100
100
100
100
100
100
100
100
100
100
100
100
100
100
100
100
100
100
100
100
100
100
100
100
100
100
100
100
100
100
100
100
100
100
100
100
100
100
121.173
100
100
100
100
100
100
100
100
100
100
100
100
100
100
104.299
101.46
119.899
159.694
138.813
216.513
197.678
179.369
305.404
285.469
234.685
264.479
441.855
228.273
366.765
182.944
208.542
181.718
235.095
279.867
304.065
338.095
362.498
153.546
174.844
100
155.336
146.722
100
100
100
100
100
100
100
100
100
100
100
100
100
100
100
100
100
100
100
100
100
100
100
100
100
100
100
100
100
100
100
100
100
100
100
100
100
100
100
100
100
100
100
100
100
100
100
100
100
100
100
100
100
100
100
100
100
100
100
100
100
116.951
113.415
137.858
158.66
219.089
199.052
179.267
277.327
238.711
266.727
249.017
405.563
202.79
299.147
201.026
168.439
233.676
273.471
314.124
342.936
367.566
128.499
100
100
142.165
125.532
100
100
100
100
100
100
100
100
100
100
100
100
100
100
100
100
100
100
100
100
100
100
100
100
100
100
100
100
100
100
100
100
100
100
100
100
100
100
100
100
100
100
100
100
100
100
100
100
100
100
100
100
100
100
100
100
100
100
100
100
100
109.808
105.921
134.316
130.181
158.314
222.388
200.325
179.63
284.813
244.868
274.753
441.342
224.278
332.94
308.458
186.711
153.236
221.563
259.781
167.773
310.173
351.64
373.927
100
100
100
126.196
100
100
100
100
100
100
100
100
100
100
100
100
100
100
100
100
100
100
100
100
100
100
100
100
100
100
100
100
100
100
100
100
100
100
100
100
100
100
100
100
100
100
100
100
100
100
100
100
100
100
100
100
100
100
100
100
100
100
100
100
100
100
101.991
100
125.803
120.95
154.64
150.162
224.176
201.352
176.169
303.401
251.042
280.886
243.382
369.699
342.067
335.145
171.196
139.613
247.664
206.671
309.989
191.775
351.034
381.996
100
100
100
109.763
100
100
100
100
100
100
100
100
100
100
100
100
100
100
100
100
100
100
100
100
100
100
100
100
100
100
100
100
100
100
100
100
100
100
100
100
100
100
100
100
100
100
100
100
100
100
100
100
100
100
100
100
100
100
100
100
100
100
100
100
100
100
100
115.825
110.459
145.271
139.734
171.477
222.09
198.413
318.731
249.333
274.943
402.19
380.016
369.143
185.002
156.976
128.852
224.494
191.482
271.393
350.352
216.546
384.94
100
100
100
108.144
100
100
100
100
100
100
100
100
100
100
100
100
100
100
100
100
100
100
100
100
100
100
100
100
100
100
100
100
100
100
100
100
100
100
100
100
100
100
100
100
100
100
100
100
100
100
100
100
100
100
100
100
100
100
100
100
100
100
100
100
100
100
100
104.947
101.963
133.693
127.617
166.264
160.19
193.614
217.033
242.283
268.89
298.046
412.927
403.848
204.996
143.027
123.732
217.74
174.477
316.008
161.861
391.086
237.259
100
130.877
100
105.368
100
100
100
100
100
100
100
100
100
100
100
100
100
100
100
100
100
100
100
100
100
100
100
100
100
100
100
100
100
100
100
100
100
100
100
100
100
100
100
100
100
100
100
100
100
100
100
100
100
100
100
100
100
100
100
100
100
100
100
100
100
100
101.029
100
124.353
123.104
153.487
150.959
187.955
181.329
210.478
234.65
260.452
296.108
327.84
434.428
225.008
135.049
120.568
233.727
207.715
160.237
363.157
186.725
279.771
430.545
100
100
100
100.089
100
100
100
100
100
100
100
100
100
100
100
100
100
100
100
100
100
100
100
100
100
100
100
100
100
100
100
100
100
100
100
100
100
100
100
100
100
100
100
100
100
100
100
100
100
100
100
100
100
100
100
100
100
100
100
100
100.692
100.975
100
100
100
100
100.165
121.773
118.058
151.202
150.612
175.709
178.409
203.067
225.636
250.029
288.215
325.031
362.215
241.909
129.395
115.699
223.556
192.566
146.405
405.508
212.302
327.997
157.091
100
100
100
100
100
100
100
100
100
100
100
100
100
100
100
100
100
100
100
100
100
100
100
100
100
100
100
100
100
100
100
100
100
100
100
100
100
100
100
100
100
100
100
100
100
100
100
100
100
100
100
102.416
100
100
100
100
100
100
101.741
102.347
100.67
101.481
104.747
104.972
103.964
101.174
102.496
115.702
113.698
148.751
143.559
180.236
180.645
199.95
205.698
224.038
248.272
282.738
317.096
358.863
391.959
124.387
109.162
213.827
176.126
136.519
237.462
378.453
184.505
228.462
273.337
100
100
100
100
100
100
100
100
100
100
100
100
100
100
100
100
100
100
100
100
100
100
100
100
100
100
100
100
100
100
100
100
100
100
100
100
100
100
100
100
100
100
100
100
100
100
100
100
100
100
100
100
100
107.037
100.043
100
100
100
100
101.212
100.073
105.692
105.54
104.447
104.993
108.575
111.394
111.127
112.599
111.831
139.047
134.755
178.961
173.396
210.112
212.046
232.805
257.213
282.395
311.171
350.867
387.339
119.661
101.932
204.714
160.065
129.248
428.761
213.008
324.444
222.081
155.518
100
100
100
100
100
100
100
100
100
100
100
100
100
100
100
100
100
100
100
100
100
100
100
100
100
100
100
100
100
100
100
100
100
100
100
100
100
100
100
100
100
100
100
100
100
100
100
100
100
100
100
100
100
100
112.853
103.279
100
100
100
102.449
103.839
103.314
109.308
108.559
108.388
108.117
113.036
121.955
123.791
130.932
127.401
167.456
161.569
210.55