/*--------------------------------*- C++ -*----------------------------------*\
  =========                 |
  \\      /  F ield         | OpenFOAM: The Open Source CFD Toolbox
   \\    /   O peration     | Website:  https://openfoam.org
    \\  /    A nd           | Version:  dev
     \\/     M anipulation  |
\*---------------------------------------------------------------------------*/
FoamFile
{
    version     2.0;
    format      ascii;
    class       volScalarField;
    location    "2500";
    object      rho;
}
// * * * * * * * * * * * * * * * * * * * * * * * * * * * * * * * * * * * * * //

dimensions      [1 -3 0 0 0 0 0];

internalField   nonuniform List<scalar> 
9851
(
1.17169
1.17151
1.17159
1.17149
1.17118
1.17168
1.17149
1.17097
1.17113
1.17174
1.17158
1.17092
1.17081
1.17122
1.17178
1.17156
1.17086
1.17058
1.17084
1.17135
1.1718
1.17159
1.17096
1.17046
1.17051
1.17093
1.17148
1.17184
1.17163
1.17106
1.17045
1.17028
1.17057
1.17107
1.17151
1.17185
1.17165
1.17112
1.17053
1.17014
1.17027
1.17068
1.17121
1.17156
1.17186
1.17172
1.1712
1.17057
1.17005
1.17003
1.17035
1.17084
1.17129
1.1716
1.17187
1.1717
1.17117
1.1706
1.17005
1.16988
1.17004
1.17048
1.17094
1.17134
1.17164
1.1719
1.17173
1.17123
1.17076
1.17019
1.1698
1.16984
1.17017
1.17064
1.17102
1.17137
1.17166
1.1719
1.17172
1.17134
1.17087
1.17018
1.16975
1.16967
1.16987
1.17029
1.17073
1.17109
1.17142
1.17167
1.1719
1.17176
1.17135
1.17082
1.17024
1.16983
1.16955
1.16965
1.17001
1.17043
1.17082
1.17114
1.17143
1.17169
1.17192
1.17175
1.17134
1.17095
1.17045
1.16985
1.16948
1.16948
1.16972
1.17013
1.17058
1.17091
1.17121
1.17145
1.1717
1.17192
1.17178
1.17141
1.17103
1.17043
1.16986
1.16949
1.16934
1.1695
1.16985
1.17026
1.17064
1.17095
1.17124
1.17146
1.1717
1.17192
1.17176
1.17144
1.17102
1.17057
1.16996
1.1695
1.16928
1.16932
1.1696
1.16999
1.17038
1.17072
1.171
1.17126
1.17148
1.17171
1.17192
1.17176
1.17142
1.17107
1.17061
1.17003
1.16955
1.16924
1.16918
1.16936
1.16974
1.17011
1.17047
1.17078
1.17103
1.17128
1.17149
1.17171
1.17192
1.17177
1.17147
1.17111
1.17063
1.17014
1.1696
1.16925
1.16907
1.16918
1.16946
1.16986
1.17022
1.17055
1.17081
1.17107
1.17131
1.17152
1.17172
1.17192
1.17178
1.17149
1.17111
1.1707
1.17034
1.16968
1.16925
1.16901
1.16902
1.16925
1.16961
1.16999
1.17033
1.17062
1.17084
1.17111
1.17131
1.17152
1.17172
1.17193
1.17179
1.17149
1.17112
1.17081
1.1704
1.16972
1.16929
1.16898
1.1689
1.16904
1.16935
1.16973
1.17007
1.17042
1.17067
1.17088
1.17113
1.17133
1.17154
1.17172
1.17192
1.17181
1.17148
1.17116
1.17082
1.17033
1.16983
1.16932
1.16898
1.16883
1.16889
1.16914
1.16949
1.16984
1.17017
1.17046
1.17067
1.17091
1.17112
1.17133
1.17153
1.17173
1.17192
1.17179
1.17149
1.17118
1.17079
1.1704
1.17
1.16936
1.16899
1.16877
1.16876
1.16895
1.16929
1.16965
1.16992
1.17023
1.17048
1.17073
1.17091
1.17111
1.17134
1.17153
1.17172
1.17192
1.1718
1.1715
1.17117
1.17081
1.17043
1.16999
1.16939
1.16904
1.16875
1.16866
1.16877
1.16908
1.16939
1.16974
1.17002
1.17029
1.17052
1.17072
1.17092
1.17112
1.17133
1.17153
1.17172
1.17192
1.17179
1.17151
1.1712
1.17083
1.17054
1.17011
1.16949
1.16904
1.16871
1.16858
1.16863
1.16885
1.1692
1.16954
1.16985
1.17011
1.1703
1.17055
1.17073
1.17092
1.17113
1.17133
1.17153
1.17171
1.17191
1.17181
1.17151
1.17123
1.17084
1.1705
1.17004
1.16956
1.16911
1.16873
1.16852
1.16851
1.16868
1.16896
1.16929
1.16961
1.16988
1.17012
1.17034
1.17057
1.17074
1.17094
1.17112
1.17132
1.17152
1.17171
1.17192
1.1718
1.17151
1.17124
1.17085
1.1705
1.17012
1.16959
1.1691
1.16873
1.16848
1.16842
1.16854
1.16879
1.16909
1.16938
1.16969
1.16992
1.17015
1.17035
1.17055
1.17074
1.17093
1.17112
1.17132
1.17151
1.17171
1.17191
1.17182
1.17154
1.1712
1.17087
1.17058
1.17012
1.16961
1.16915
1.16874
1.16849
1.16835
1.16838
1.16858
1.16891
1.16921
1.16948
1.16974
1.16998
1.17018
1.17037
1.17055
1.17074
1.17093
1.17111
1.17131
1.1715
1.17169
1.1719
1.17183
1.17154
1.17121
1.17086
1.17055
1.17024
1.16965
1.16917
1.16876
1.16846
1.16826
1.16827
1.16842
1.1687
1.16901
1.16933
1.16956
1.16976
1.16998
1.17021
1.17038
1.17055
1.17075
1.17092
1.17111
1.1713
1.17149
1.17169
1.17189
1.17181
1.17155
1.17122
1.17089
1.1705
1.1702
1.1696
1.16919
1.16877
1.16844
1.16822
1.16817
1.16828
1.16848
1.16881
1.1691
1.16939
1.16961
1.16983
1.16999
1.17018
1.17037
1.17056
1.17073
1.17093
1.17109
1.17129
1.17148
1.17167
1.1719
1.17181
1.17152
1.17124
1.17085
1.17049
1.17015
1.16967
1.16917
1.16879
1.16842
1.16818
1.16809
1.16817
1.16833
1.16862
1.16891
1.1692
1.16946
1.16963
1.16984
1.17
1.17019
1.17036
1.17054
1.17072
1.1709
1.17108
1.17127
1.17146
1.17166
1.17189
1.17181
1.17154
1.17119
1.17089
1.17056
1.17022
1.16976
1.16917
1.16879
1.1684
1.16815
1.16803
1.16803
1.16821
1.16844
1.16875
1.16899
1.16924
1.16946
1.16964
1.16983
1.17003
1.17018
1.17036
1.17054
1.17071
1.17089
1.17106
1.17125
1.17144
1.17165
1.17188
1.17179
1.1715
1.17119
1.17091
1.17046
1.17008
1.16959
1.16909
1.16878
1.16835
1.1681
1.16797
1.16793
1.16807
1.16829
1.16855
1.16882
1.16905
1.16929
1.16949
1.16967
1.16983
1.17002
1.17019
1.17036
1.17053
1.1707
1.17086
1.17103
1.17121
1.17141
1.17162
1.17187
1.1718
1.17145
1.17112
1.17075
1.17054
1.17013
1.16962
1.16908
1.16869
1.16834
1.16806
1.16791
1.16784
1.16791
1.16813
1.16839
1.16865
1.16889
1.16912
1.1693
1.16952
1.16968
1.16985
1.17004
1.17019
1.17035
1.17051
1.17066
1.17083
1.17099
1.17117
1.17138
1.17161
1.17199
1.17184
1.1718
1.17144
1.17107
1.17068
1.17045
1.16989
1.16947
1.16897
1.16865
1.16834
1.168
1.16783
1.16777
1.16782
1.16797
1.16825
1.16848
1.16875
1.16894
1.16915
1.16932
1.16952
1.16969
1.16987
1.17002
1.17018
1.17032
1.17047
1.17063
1.17078
1.17095
1.17114
1.1714
1.1717
1.17156
1.17198
1.17183
1.17174
1.17142
1.17104
1.1706
1.17031
1.16977
1.1694
1.16894
1.16859
1.16824
1.16794
1.16775
1.16768
1.16773
1.16784
1.16805
1.16834
1.16857
1.16878
1.16896
1.16918
1.16936
1.16954
1.1697
1.16986
1.17001
1.17015
1.17029
1.17043
1.17058
1.17073
1.1709
1.17118
1.17106
1.17142
1.17124
1.17128
1.17169
1.17155
1.17198
1.17182
1.17175
1.17135
1.17109
1.1706
1.17017
1.16967
1.16927
1.16884
1.16849
1.16817
1.16789
1.16769
1.16759
1.1676
1.16772
1.16792
1.16817
1.1684
1.16861
1.16881
1.16902
1.16921
1.16937
1.16954
1.16969
1.16984
1.16998
1.17011
1.17025
1.17038
1.17053
1.17068
1.17095
1.17082
1.17109
1.1714
1.17114
1.17125
1.17167
1.17152
1.17197
1.17181
1.17172
1.17127
1.171
1.17038
1.16994
1.16956
1.16911
1.16879
1.16842
1.16807
1.16784
1.16763
1.1675
1.16748
1.1676
1.16777
1.16799
1.16825
1.16848
1.16866
1.16883
1.16905
1.16921
1.16938
1.16953
1.16968
1.16981
1.16994
1.17007
1.1702
1.17033
1.17048
1.17071
1.17059
1.17095
1.17081
1.171
1.17137
1.1711
1.17121
1.17165
1.17149
1.17197
1.17179
1.17169
1.17126
1.17088
1.17039
1.16988
1.16935
1.16899
1.16862
1.16826
1.16799
1.16777
1.16756
1.16744
1.1674
1.16748
1.16764
1.16786
1.1681
1.16831
1.16852
1.16871
1.16889
1.16906
1.16922
1.16936
1.16951
1.16965
1.16977
1.1699
1.17002
1.17014
1.17028
1.17049
1.17038
1.17068
1.17056
1.17086
1.17073
1.17095
1.17133
1.17105
1.17116
1.17163
1.17146
1.17196
1.17178
1.17166
1.17123
1.1707
1.17018
1.16962
1.1693
1.16883
1.16849
1.1682
1.16789
1.16762
1.16747
1.16734
1.16731
1.16738
1.16751
1.1677
1.16793
1.16819
1.16838
1.16856
1.16874
1.16891
1.16906
1.1692
1.16934
1.16948
1.16961
1.16973
1.16984
1.16996
1.17008
1.17027
1.17015
1.17044
1.17031
1.1706
1.17047
1.17081
1.17066
1.17089
1.17128
1.17099
1.1711
1.1716
1.17142
1.17195
1.17176
1.17169
1.17113
1.17065
1.17014
1.16945
1.16914
1.16868
1.16837
1.16803
1.16776
1.16752
1.16737
1.16724
1.16721
1.16726
1.1674
1.16757
1.16777
1.16799
1.16825
1.16844
1.16858
1.16874
1.1689
1.16904
1.16918
1.16932
1.16944
1.16956
1.16967
1.16976
1.16984
1.17002
1.16984
1.17017
1.17
1.17033
1.17016
1.17051
1.17035
1.17073
1.17056
1.17081
1.17123
1.17091
1.17102
1.17157
1.17137
1.17194
1.17174
1.17167
1.17126
1.17047
1.17003
1.16928
1.16893
1.16847
1.16825
1.16787
1.16765
1.16744
1.16727
1.16715
1.16712
1.16716
1.16726
1.16746
1.16765
1.16786
1.1681
1.16829
1.16846
1.16859
1.16874
1.16888
1.16902
1.16915
1.16928
1.16939
1.16948
1.16954
1.16948
1.1696
1.16919
1.16974
1.16932
1.16991
1.1695
1.17011
1.16974
1.17035
1.17004
1.17062
1.17036
1.17069
1.17116
1.17078
1.1709
1.17154
1.17132
1.17193
1.17171
1.17165
1.17117
1.17016
1.16986
1.16913
1.16878
1.16837
1.16807
1.1677
1.1675
1.1673
1.16721
1.16706
1.16703
1.16706
1.16716
1.16732
1.16752
1.16774
1.16794
1.16814
1.16832
1.16847
1.16859
1.16872
1.16886
1.16899
1.1691
1.16921
1.16926
1.16921
1.16887
1.16871
1.16789
1.16869
1.16781
1.16881
1.1678
1.16907
1.16798
1.16946
1.16841
1.16993
1.16908
1.17038
1.16981
1.17042
1.17106
1.17051
1.17066
1.1715
1.17124
1.17191
1.17169
1.17162
1.17102
1.16996
1.16962
1.16899
1.16857
1.16823
1.16792
1.16758
1.1674
1.16719
1.16706
1.16697
1.16693
1.16697
1.16706
1.16719
1.1674
1.16761
1.16781
1.16799
1.16817
1.16832
1.16846
1.16858
1.1687
1.16882
1.16894
1.16901
1.169
1.16872
1.16786
1.16706
1.1659
1.16673
1.16552
1.16656
1.16516
1.16656
1.16496
1.16685
1.16503
1.16753
1.16551
1.16863
1.16653
1.16971
1.16819
1.16969
1.17087
1.16979
1.17003
1.17145
1.17111
1.1719
1.17165
1.17159
1.17085
1.16979
1.16944
1.16885
1.16843
1.16812
1.16778
1.16745
1.16723
1.16705
1.16694
1.16684
1.16684
1.16685
1.16695
1.16708
1.16728
1.16749
1.16768
1.16785
1.16801
1.16816
1.16831
1.16844
1.16856
1.16868
1.16877
1.1688
1.16862
1.16791
1.16613
1.16476
1.16392
1.16427
1.1629
1.16373
1.16231
1.16333
1.16173
1.16316
1.16134
1.16335
1.16127
1.16409
1.16167
1.16556
1.16275
1.16786
1.16477
1.16775
1.17039
1.16793
1.16841
1.17137
1.17081
1.17188
1.17161
1.17155
1.1707
1.16965
1.16927
1.1687
1.16825
1.16789
1.16758
1.16732
1.16707
1.16694
1.16681
1.16674
1.16672
1.16676
1.16683
1.16698
1.16715
1.16735
1.16754
1.16771
1.16786
1.16801
1.16815
1.16829
1.16841
1.16852
1.16859
1.16853
1.16808
1.16677
1.16418
1.16021
1.16179
1.15995
1.16094
1.1596
1.16022
1.15881
1.15964
1.15807
1.15932
1.15754
1.1594
1.15736
1.16009
1.15767
1.16161
1.1587
1.16426
1.16076
1.16413
1.16919
1.16447
1.16535
1.1712
1.17004
1.17185
1.17151
1.17152
1.17057
1.16955
1.16914
1.16857
1.16812
1.16775
1.16746
1.16718
1.16695
1.16684
1.1667
1.16665
1.16662
1.16666
1.16674
1.16687
1.16703
1.16722
1.1674
1.16757
1.16773
1.16787
1.168
1.16813
1.16826
1.16836
1.16839
1.1682
1.1674
1.16547
1.16222
1.15801
1.15614
1.15503
1.15835
1.15713
1.15749
1.15624
1.15664
1.15535
1.15595
1.15454
1.15554
1.15395
1.15554
1.15372
1.15614
1.15396
1.15759
1.15488
1.16028
1.15683
1.1602
1.16677
1.1606
1.16159
1.17075
1.16822
1.1718
1.17125
1.17147
1.17046
1.16947
1.16903
1.16847
1.16801
1.16759
1.16734
1.16708
1.16684
1.16665
1.16658
1.16653
1.16653
1.16657
1.16665
1.16677
1.16692
1.1671
1.16727
1.16743
1.16759
1.16773
1.16786
1.16798
1.16809
1.16818
1.16816
1.16778
1.16657
1.16408
1.16045
1.15617
1.15418
1.1533
1.15315
1.15232
1.1551
1.15407
1.15418
1.1531
1.15329
1.1522
1.15259
1.15142
1.15218
1.15089
1.15216
1.1507
1.15268
1.15093
1.15395
1.1517
1.15643
1.15338
1.15643
1.16319
1.15692
1.15795
1.16954
1.16512
1.17172
1.17066
1.17138
1.17036
1.16941
1.16895
1.16839
1.16793
1.16751
1.16723
1.16696
1.1667
1.16654
1.16647
1.16643
1.16643
1.16647
1.16654
1.16666
1.1668
1.16697
1.16714
1.16729
1.16745
1.16759
1.16772
1.16784
1.16795
1.168
1.1679
1.16731
1.16567
1.16271
1.15868
1.15458
1.15265
1.15216
1.15161
1.15102
1.15062
1.15001
1.15215
1.15133
1.15124
1.1504
1.15043
1.14958
1.14984
1.149
1.14959
1.14878
1.14967
1.14885
1.1501
1.14912
1.15108
1.14963
1.15313
1.15077
1.15325
1.15949
1.15376
1.15472
1.16728
1.16159
1.17155
1.16951
1.17125
1.17025
1.16937
1.16888
1.16834
1.16788
1.16746
1.16713
1.16685
1.16658
1.16642
1.16635
1.16633
1.16632
1.16637
1.16644
1.16655
1.16669
1.16685
1.16701
1.16717
1.16731
1.16746
1.16758
1.1677
1.1678
1.16783
1.16761
1.16678
1.16475
1.16143
1.15715
1.15338
1.15098
1.15061
1.1502
1.14957
1.14927
1.14864
1.14835
1.14967
1.14908
1.14887
1.1483
1.14834
1.14785
1.14819
1.14776
1.1483
1.14793
1.14855
1.14822
1.14888
1.14852
1.14943
1.14884
1.15072
1.14939
1.15091
1.15617
1.15138
1.15216
1.16442
1.15835
1.17125
1.16781
1.17008
1.16933
1.16883
1.16832
1.16785
1.16743
1.16705
1.16675
1.16647
1.16632
1.16625
1.16622
1.16622
1.16626
1.16634
1.16644
1.16658
1.16673
1.16689
1.16704
1.16718
1.16732
1.16746
1.16757
1.16766
1.16766
1.16731
1.16618
1.16383
1.16023
1.156
1.15308
1.1513
1.14979
1.15041
1.14927
1.14942
1.14832
1.14845
1.14759
1.14768
1.14789
1.14765
1.14749
1.14727
1.14744
1.14723
1.14765
1.14745
1.14799
1.14786
1.14835
1.14834
1.14864
1.14873
1.1489
1.14892
1.14947
1.14904
1.14968
1.15345
1.15001
1.15054
1.16153
1.1556
1.1703
1.16561
1.16927
1.16876
1.16831
1.16784
1.16742
1.16701
1.16668
1.16639
1.16623
1.16614
1.16612
1.16612
1.16616
1.16623
1.16634
1.16646
1.16661
1.16677
1.16693
1.16706
1.16719
1.16732
1.16744
1.16752
1.16748
1.16698
1.16555
1.1629
1.15917
1.15524
1.15315
1.15207
1.15107
1.15186
1.15004
1.151
1.14878
1.1493
1.14791
1.14835
1.14736
1.14769
1.14718
1.14721
1.1471
1.14709
1.14732
1.14732
1.14783
1.14791
1.14847
1.14871
1.14903
1.14948
1.14932
1.14998
1.14928
1.15004
1.14922
1.14961
1.14942
1.15156
1.14962
1.14986
1.15031
1.1588
1.15338
1.16928
1.16343
1.16868
1.1683
1.16785
1.16742
1.167
1.16663
1.16632
1.16614
1.16605
1.16601
1.16602
1.16606
1.16613
1.16623
1.16636
1.1665
1.16666
1.16681
1.16695
1.16707
1.16719
1.1673
1.16738
1.16728
1.16663
1.16487
1.16199
1.15819
1.15473
1.15329
1.15288
1.15396
1.15211
1.15353
1.15118
1.1526
1.14903
1.14998
1.14827
1.14911
1.148
1.14873
1.14719
1.14748
1.14745
1.14774
1.1481
1.14844
1.14905
1.14952
1.15006
1.15078
1.15083
1.15182
1.15111
1.15233
1.15074
1.1523
1.14991
1.15131
1.15049
1.14967
1.15011
1.15006
1.1513
1.15037
1.14976
1.15009
1.15012
1.14984
1.15641
1.15083
1.15155
1.15316
1.1693
1.16137
1.1683
1.16787
1.16745
1.167
1.1666
1.16627
1.16607
1.16596
1.16592
1.16592
1.16596
1.16603
1.16613
1.16625
1.16639
1.16654
1.16669
1.16683
1.16696
1.16708
1.16719
1.16721
1.16708
1.16626
1.16419
1.16109
1.15731
1.15433
1.1533
1.15346
1.15552
1.15697
1.15803
1.15413
1.15566
1.15326
1.15507
1.15022
1.15162
1.14969
1.15091
1.14983
1.15092
1.14822
1.14892
1.14895
1.14966
1.15015
1.15096
1.15162
1.15264
1.15296
1.15425
1.15373
1.15512
1.15399
1.15422
1.15509
1.15216
1.15311
1.15493
1.15403
1.15157
1.15076
1.15169
1.15251
1.1508
1.14998
1.15018
1.15002
1.15064
1.15076
1.15
1.15252
1.15635
1.15391
1.15052
1.15106
1.16658
1.15559
1.15785
1.16104
1.16791
1.16749
1.16704
1.16659
1.16624
1.16601
1.16588
1.16583
1.16583
1.16587
1.16594
1.16603
1.16615
1.16628
1.16643
1.16658
1.16672
1.16685
1.16694
1.16703
1.16707
1.16689
1.16589
1.16354
1.1602
1.15649
1.15395
1.15326
1.15379
1.15639
1.1606
1.15999
1.1613
1.15691
1.15861
1.15617
1.15826
1.15241
1.15418
1.15222
1.15375
1.15294
1.15431
1.15057
1.15167
1.15193
1.15312
1.15383
1.15506
1.15546
1.1564
1.15634
1.15712
1.15574
1.15631
1.15673
1.157
1.15572
1.15637
1.15593
1.1564
1.1535
1.15451
1.15618
1.1554
1.15275
1.15173
1.15286
1.15381
1.15171
1.15004
1.15016
1.15049
1.15159
1.1514
1.15035
1.15192
1.15315
1.15038
1.15078
1.15985
1.16491
1.16223
1.15473
1.15663
1.16754
1.16709
1.16662
1.16623
1.16597
1.16581
1.16575
1.16574
1.16578
1.16584
1.16593
1.16605
1.16618
1.16632
1.16647
1.16661
1.16674
1.16685
1.16696
1.167
1.16672
1.16554
1.16291
1.15941
1.15572
1.15365
1.15313
1.15394
1.15677
1.16101
1.16436
1.16448
1.16312
1.16393
1.16023
1.16189
1.15969
1.16182
1.15552
1.15753
1.15583
1.15752
1.15728
1.15875
1.15445
1.15585
1.15629
1.15748
1.15707
1.15768
1.15742
1.15742
1.1571
1.15706
1.15692
1.1566
1.15683
1.15703
1.15704
1.15687
1.15665
1.15681
1.15681
1.15694
1.15485
1.15577
1.15666
1.15642
1.15401
1.15286
1.15408
1.15509
1.15278
1.15026
1.15027
1.15116
1.15259
1.15233
1.1509
1.15145
1.15249
1.1504
1.15066
1.15852
1.16327
1.16043
1.1539
1.15555
1.16716
1.16667
1.16623
1.16594
1.16575
1.16567
1.16566
1.16569
1.16575
1.16584
1.16595
1.16608
1.16622
1.16636
1.1665
1.16663
1.16675
1.16683
1.16693
1.16662
1.16524
1.16234
1.15863
1.15513
1.15336
1.15305
1.15403
1.15689
1.16107
1.16553
1.16649
1.16663
1.16588
1.1663
1.16368
1.16505
1.16343
1.16521
1.15937
1.16139
1.16029
1.16189
1.16085
1.16204
1.15861
1.15972
1.15831
1.159
1.15723
1.15709
1.15623
1.15573
1.1552
1.15449
1.15649
1.15597
1.15532
1.15456
1.1569
1.15661
1.15609
1.15536
1.15665
1.15676
1.15633
1.15641
1.15599
1.15644
1.15634
1.15654
1.15522
1.15405
1.15523
1.15604
1.15391
1.15067
1.15051
1.15199
1.15366
1.15333
1.15161
1.15115
1.15196
1.15051
1.15067
1.1573
1.16197
1.15903
1.15316
1.15465
1.16674
1.16626
1.16592
1.1657
1.1656
1.16558
1.16561
1.16567
1.16575
1.16586
1.16598
1.16611
1.16625
1.16639
1.16651
1.16664
1.16676
1.16682
1.16658
1.16505
1.16187
1.15798
1.15468
1.15322
1.15305
1.15417
1.15703
1.16112
1.16548
1.16754
1.16751
1.16756
1.16759
1.16736
1.1675
1.16639
1.16703
1.16625
1.16712
1.1635
1.165
1.16325
1.16445
1.16155
1.1626
1.15975
1.16061
1.15704
1.15715
1.15242
1.15108
1.15375
1.15296
1.15226
1.15192
1.15446
1.15341
1.15227
1.15108
1.15579
1.15493
1.15382
1.15256
1.15577
1.1557
1.15482
1.15474
1.15635
1.15634
1.15511
1.15594
1.15597
1.15513
1.15582
1.1562
1.15493
1.15123
1.15092
1.1529
1.15464
1.15427
1.15242
1.15099
1.15159
1.15074
1.15076
1.15628
1.16166
1.15842
1.15256
1.15395
1.16631
1.16592
1.16567
1.16554
1.16551
1.16553
1.16559
1.16567
1.16577
1.16589
1.16602
1.16615
1.16627
1.16639
1.16652
1.16665
1.1667
1.16652
1.16499
1.16154
1.1575
1.15438
1.15322
1.15312
1.15446
1.15737
1.16137
1.16553
1.16764
1.16805
1.16805
1.16807
1.16806
1.16803
1.16807
1.16764
1.16791
1.1673
1.16782
1.16557
1.16654
1.1637
1.16481
1.15886
1.15999
1.15742
1.15802
1.15042
1.15023
1.14592
1.14519
1.14419
1.14466
1.14991
1.14879
1.14774
1.1468
1.15117
1.14973
1.14829
1.14691
1.15349
1.15203
1.15045
1.14881
1.1538
1.15349
1.15214
1.15189
1.15608
1.15549
1.15276
1.15437
1.15601
1.15562
1.15579
1.1558
1.15539
1.15191
1.15145
1.15379
1.15511
1.15479
1.15324
1.15096
1.15137
1.1511
1.15093
1.15565
1.16273
1.15887
1.15214
1.15345
1.16594
1.16564
1.16549
1.16544
1.16545
1.16551
1.16559
1.16569
1.1658
1.16592
1.16603
1.16615
1.16627
1.16639
1.16653
1.16662
1.16643
1.16497
1.16141
1.15715
1.15433
1.15328
1.15334
1.15502
1.15805
1.16203
1.16576
1.16758
1.16825
1.16822
1.16832
1.16829
1.16838
1.16834
1.16838
1.1684
1.16813
1.1683
1.16747
1.16798
1.16585
1.16675
1.16129
1.16274
1.15206
1.15361
1.15026
1.15098
1.14386
1.14345
1.14175
1.14175
1.14116
1.14048
1.14072
1.14562
1.14445
1.1434
1.1425
1.14717
1.14559
1.1441
1.14274
1.15013
1.14831
1.14649
1.14474
1.15082
1.15026
1.14869
1.14826
1.15503
1.15364
1.14958
1.15176
1.15554
1.15557
1.15529
1.1546
1.15534
1.15264
1.15205
1.15442
1.15511
1.15487
1.15396
1.151
1.15127
1.15155
1.15119
1.1555
1.16476
1.16055
1.15188
1.15311
1.16564
1.16543
1.16537
1.16539
1.16544
1.16552
1.16561
1.1657
1.1658
1.1659
1.16601
1.16613
1.16626
1.16639
1.16653
1.16636
1.16497
1.1614
1.15704
1.15438
1.15345
1.15383
1.15582
1.15899
1.16295
1.1661
1.16759
1.16822
1.16845
1.16841
1.16854
1.1685
1.16862
1.16859
1.16856
1.1686
1.16829
1.16848
1.16676
1.16765
1.1642
1.16558
1.15548
1.15766
1.14477
1.14672
1.14218
1.14332
1.14039
1.14043
1.13737
1.13765
1.13821
1.13775
1.13727
1.13743
1.14153
1.14048
1.13957
1.13881
1.14309
1.14159
1.14023
1.13904
1.14626
1.14434
1.14254
1.14089
1.14725
1.14651
1.14494
1.1444
1.15298
1.15088
1.146
1.14849
1.15426
1.1551
1.154
1.15244
1.15493
1.15336
1.15268
1.15462
1.15482
1.1547
1.1543
1.15108
1.15125
1.15204
1.15151
1.15602
1.16714
1.16279
1.15174
1.15309
1.1654
1.1653
1.1653
1.16536
1.16543
1.16552
1.16558
1.16565
1.16572
1.16582
1.16594
1.16608
1.16623
1.1664
1.16629
1.165
1.16143
1.15706
1.15454
1.15379
1.15446
1.15675
1.16009
1.16394
1.16644
1.16763
1.16817
1.16852
1.16847
1.16865
1.1686
1.16876
1.16871
1.16877
1.16879
1.1687
1.16875
1.16822
1.16853
1.16453
1.16634
1.15999
1.16234
1.14902
1.1517
1.13996
1.14206
1.13799
1.13829
1.13825
1.1372
1.13722
1.13526
1.13562
1.13541
1.1351
1.13486
1.13494
1.13801
1.13715
1.13642
1.13585
1.1394
1.13809
1.13696
1.13599
1.14242
1.14061
1.13899
1.13757
1.14358
1.14275
1.14136
1.14076
1.15015
1.14757
1.14245
1.14494
1.15206
1.15387
1.15185
1.14961
1.15389
1.15389
1.15326
1.15455
1.15403
1.15419
1.15437
1.15121
1.15126
1.15252
1.15184
1.15737
1.16941
1.16532
1.15167
1.15339
1.16524
1.16522
1.16527
1.16534
1.16539
1.16541
1.16539
1.16539
1.16546
1.1656
1.1658
1.16601
1.16621
1.16622
1.16502
1.16156
1.15716
1.15481
1.15417
1.15511
1.15764
1.16111
1.1647
1.16672
1.16766
1.16811
1.16846
1.16871
1.16864
1.16882
1.16877
1.1689
1.16887
1.16889
1.16889
1.1687
1.16886
1.16761
1.16835
1.16095
1.16386
1.15464
1.15778
1.14451
1.14727
1.13741
1.13847
1.13939
1.1361
1.13669
1.13662
1.13574
1.13486
1.135
1.13357
1.13396
1.13328
1.13312
1.13299
1.13302
1.13518
1.13452
1.13398
1.13357
1.13633
1.13527
1.13438
1.13363
1.13897
1.13741
1.13607
1.13492
1.14019
1.13936
1.13823
1.13763
1.14686
1.1441
1.13926
1.14153
1.14928
1.15189
1.14923
1.1464
1.15216
1.15411
1.15368
1.15431
1.15264
1.15322
1.15428
1.15137
1.15128
1.15299
1.15217
1.15932
1.17109
1.16797
1.15172
1.15413
1.16514
1.16519
1.16522
1.16521
1.16509
1.16483
1.16464
1.16461
1.16482
1.16518
1.16559
1.16593
1.16608
1.16501
1.16173
1.1574
1.15511
1.15456
1.1557
1.15839
1.16188
1.1652
1.1669
1.16765
1.16806
1.16837
1.16875
1.16867
1.16885
1.1688
1.16893
1.16889
1.16896
1.16896
1.16898
1.16898
1.16853
1.16887
1.16619
1.16773
1.1572
1.16075
1.15034
1.15368
1.14195
1.14476
1.13616
1.13721
1.13694
1.13834
1.13447
1.13506
1.13524
1.13442
1.13307
1.13327
1.13219
1.13259
1.13172
1.1316
1.13154
1.13153
1.13303
1.13255
1.13216
1.13189
1.13395
1.13315
1.13248
1.13193
1.13615
1.1349
1.13387
1.13301
1.13733
1.13656
1.13575
1.13518
1.1435
1.14084
1.13665
1.13854
1.14619
1.14945
1.14627
1.14315
1.14996
1.15413
1.15386
1.15371
1.15077
1.15173
1.15402
1.15153
1.15132
1.15337
1.15253
1.16174
1.17186
1.17021
1.15188
1.1554
1.16509
1.16512
1.16499
1.1646
1.16402
1.16347
1.16331
1.16353
1.16406
1.16472
1.16537
1.16578
1.16494
1.16181
1.15766
1.15541
1.15492
1.15618
1.15893
1.16238
1.16547
1.16699
1.16763
1.168
1.16829
1.16864
1.16884
1.16879
1.16893
1.16889
1.16899
1.16896
1.16905
1.16901
1.16903
1.16907
1.16807
1.16877
1.16402
1.16655
1.15461
1.15817
1.14785
1.15115
1.13953
1.14115
1.14284
1.13483
1.13584
1.13567
1.13691
1.1331
1.13371
1.13392
1.13312
1.13167
1.13188
1.131
1.13137
1.13056
1.13042
1.13041
1.13039
1.13148
1.13113
1.13086
1.13069
1.13229
1.1317
1.13121
1.1308
1.13406
1.13315
1.13242
1.13183
1.13515
1.13448
1.13401
1.13349
1.14038
1.13803
1.13475
1.13616
1.14305
1.14668
1.14334
1.14017
1.14745
1.15405
1.15391
1.15267
1.14852
1.14984
1.15344
1.15172
1.15139
1.15357
1.1529
1.16456
1.17201
1.17139
1.15223
1.15711
1.16499
1.16476
1.16408
1.16307
1.16224
1.16188
1.16209
1.16276
1.16366
1.16454
1.16516
1.16473
1.1618
1.15786
1.15569
1.15524
1.15654
1.15925
1.16262
1.16559
1.167
1.1676
1.16794
1.16821
1.16852
1.16883
1.16891
1.16886
1.16899
1.16895
1.16905
1.16901
1.16915
1.16911
1.16902
1.16915
1.16731
1.16854
1.16174
1.16499
1.15329
1.15684
1.14619
1.14971
1.1383
1.13981
1.142
1.13996
1.13353
1.13454
1.13431
1.13554
1.13185
1.13243
1.13265
1.13188
1.13052
1.13072
1.12995
1.13028
1.12967
1.12955
1.1295
1.12951
1.13045
1.13016
1.12997
1.12985
1.13134
1.13094
1.13058
1.13027
1.13272
1.13213
1.13166
1.13129
1.13376
1.13316
1.13308
1.13253
1.13779
1.13595
1.13385
1.13466
1.14031
1.14393
1.14077
1.13786
1.14488
1.15386
1.15387
1.15126
1.14623
1.1479
1.15256
1.15191
1.15153
1.15368
1.15316
1.16748
1.17204
1.17182
1.15274
1.15937
1.16448
1.16355
1.16215
1.16097
1.16044
1.16058
1.16138
1.16251
1.16362
1.1644
1.16421
1.16171
1.15793
1.15592
1.1555
1.15678
1.15942
1.16266
1.16561
1.16699
1.16755
1.16787
1.16814
1.16842
1.16874
1.16894
1.16893
1.16889
1.16897
1.16904
1.169
1.16916
1.1691
1.16925
1.16922
1.16895
1.16921
1.16639
1.16816
1.16033
1.1636
1.15224
1.15614
1.14413
1.14815
1.1369
1.13839
1.1405
1.13868
1.13225
1.13321
1.13299
1.13418
1.1307
1.13124
1.13142
1.13071
1.12957
1.12972
1.12906
1.12932
1.12913
1.12895
1.12881
1.12885
1.12998
1.12971
1.12946
1.12927
1.13097
1.13067
1.13039
1.13012
1.13207
1.13172
1.13143
1.13119
1.13338
1.13263
1.13305
1.13231
1.13604
1.13487
1.13392
1.13429
1.13816
1.14147
1.13859
1.13632
1.14258
1.15343
1.15377
1.14971
1.14408
1.14591
1.1514
1.15214
1.1517
1.15369
1.1533
1.16959
1.17206
1.17195
1.15348
1.16197
1.16298
1.16132
1.15979
1.159
1.15907
1.15994
1.16126
1.16258
1.16353
1.16348
1.16147
1.15791
1.15607
1.15571
1.15694
1.15946
1.16262
1.16558
1.16693
1.16748
1.16779
1.16805
1.16832
1.16863
1.16884
1.16898
1.16899
1.16895
1.16902
1.16915
1.16908
1.16928
1.16921
1.16934
1.16933
1.16885
1.16925
1.16581
1.16781
1.15974
1.16302
1.15062
1.15523
1.14088
1.14334
1.14589
1.13553
1.13703
1.13902
1.13726
1.13105
1.13195
1.13176
1.13289
1.12967
1.13014
1.13029
1.12966
1.12881
1.1289
1.12835
1.12851
1.12887
1.12872
1.12841
1.12851
1.12985
1.12959
1.12933
1.12908
1.13096
1.13074
1.13051
1.13027
1.13205
1.13184
1.13165
1.1315
1.13376
1.13279
1.13374
1.13265
1.13543
1.13496
1.13504
1.13481
1.13688
1.13926
1.13762
1.13614
1.14023
1.1528
1.15358
1.14798
1.14162
1.14354
1.15014
1.15229
1.15191
1.15366
1.15333
1.17077
1.17207
1.172
1.15444
1.16447
1.16048
1.15878
1.1577
1.15761
1.15846
1.15986
1.16136
1.16249
1.16255
1.16094
1.15782
1.15616
1.15587
1.15704
1.15945
1.16252
1.16551
1.16688
1.16742
1.16772
1.16797
1.16822
1.16851
1.16875
1.16894
1.16905
1.16907
1.169
1.16912
1.16925
1.16918
1.16939
1.16932
1.16941
1.16942
1.16883
1.16928
1.16571
1.16773
1.15937
1.16286
1.14846
1.15368
1.1397
1.1418
1.14551
1.14265
1.13419
1.13565
1.13776
1.13598
1.12996
1.13079
1.13066
1.13173
1.12878
1.12916
1.12928
1.12874
1.12831
1.12828
1.12794
1.12794
1.12887
1.12863
1.12833
1.12843
1.13001
1.12974
1.12945
1.12917
1.13134
1.13114
1.13092
1.13067
1.13263
1.13257
1.13245
1.13235
1.13559
1.13394
1.1358
1.13404
1.13583
1.13585
1.13691
1.13664
1.13697
1.13846
1.13775
1.13674
1.13943
1.15201
1.15318
1.14593
1.14054
1.14195
1.14854
1.15242
1.15216
1.15355
1.1533
1.17135
1.17208
1.17201
1.15565
1.16659
1.15778
1.15656
1.15636
1.15703
1.15833
1.15991
1.16115
1.16137
1.16002
1.1576
1.15619
1.15598
1.15712
1.15942
1.16238
1.16538
1.16681
1.16734
1.16764
1.16788
1.16813
1.16839
1.16865
1.16883
1.1691
1.1691
1.16902
1.16914
1.16916
1.16921
1.16935
1.16928
1.16948
1.16942
1.16948
1.1695
1.16886
1.16932
1.1658
1.16778
1.15862
1.16273
1.14409
1.14548
1.1485
1.15184
1.13846
1.14052
1.14176
1.13297
1.13439
1.13654
1.1348
1.12902
1.12976
1.12973
1.13071
1.12806
1.12833
1.12843
1.12803
1.12813
1.128
1.12781
1.12774
1.12908
1.12877
1.12836
1.12857
1.13039
1.1301
1.12977
1.12945
1.13223
1.13212
1.13197
1.13176
1.13413
1.1342
1.13444
1.13454
1.13741
1.13594
1.13778
1.13647
1.13722
1.13757
1.13816
1.13776
1.13756
1.13869
1.13852
1.13802
1.13955
1.15084
1.15266
1.14381
1.1405
1.14161
1.14659
1.1525
1.15248
1.15339
1.15324
1.17154
1.17206
1.17198
1.15708
1.1677
1.1558
1.15541
1.15583
1.15684
1.15825
1.15948
1.15981
1.15877
1.15714
1.15617
1.15606
1.15718
1.15941
1.16231
1.16531
1.16674
1.16727
1.16756
1.16779
1.16803
1.16828
1.16853
1.16872
1.16892
1.16916
1.16913
1.16906
1.16923
1.16922
1.1693
1.16943
1.16936
1.16954
1.1695
1.16952
1.16955
1.16894
1.16936
1.16584
1.16793
1.15731
1.16222
1.1432
1.14505
1.14748
1.15236
1.14932
1.13744
1.13953
1.14089
1.13189
1.13326
1.13552
1.13379
1.12832
1.12892
1.12903
1.12989
1.12773
1.12781
1.12795
1.12775
1.12815
1.12796
1.1279
1.12773
1.12958
1.12914
1.1285
1.1288
1.13145
1.13102
1.1305
1.13002
1.13458
1.13461
1.13455
1.13442
1.13819
1.13807
1.13868
1.13869
1.14825
1.13809
1.14816
1.13862
1.13817
1.13833
1.14759
1.14777
1.13897
1.13923
1.13977
1.13883
1.14004
1.14959
1.15201
1.14302
1.14096
1.14207
1.14502
1.15254
1.15286
1.15315
1.15316
1.17142
1.17159
1.17162
1.15802
1.16745
1.15499
1.15503
1.15564
1.15668
1.15767
1.15799
1.1574
1.15658
1.15613
1.15612
1.15726
1.15943
1.16231
1.16529
1.1667
1.16721
1.16748
1.1677
1.16792
1.16816
1.16841
1.16861
1.1688
1.16903
1.1692
1.16916
1.16909
1.16929
1.16926
1.16935
1.16948
1.16942
1.16957
1.16954
1.16956
1.16958
1.16904
1.16942
1.16564
1.16798
1.15583
1.16121
1.14263
1.14465
1.14704
1.15177
1.14933
1.13656
1.13866
1.14027
1.13098
1.13228
1.13465
1.13295
1.12806
1.12844
1.12876
1.12939
1.12766
1.12767
1.12782
1.12771
1.12837
1.12812
1.12814
1.12791
1.13122
1.13034
1.12908
1.12981
1.13409
1.13359
1.13265
1.13184
1.13867
1.13864
1.1384
1.13827
1.14895
1.14896
1.14891
1.149
1.15561
1.14802
1.1557
1.14826
1.14752
1.14719
1.15542
1.15533
1.14745
1.14044
1.1476
1.14689
1.14124
1.1483
1.15117
1.14343
1.14227
1.14338
1.14523
1.15259
1.15297
1.15282
1.15301
1.17061
0.985461
1.16756
1.15781
1.16595
1.1548
1.15495
1.15549
1.15612
1.15641
1.15633
1.15611
1.15595
1.15619
1.15739
1.15953
1.16238
1.1653
1.16666
1.16715
1.1674
1.16762
1.16782
1.16804
1.16828
1.16849
1.16867
1.1689
1.16911
1.16915
1.16922
1.1692
1.16932
1.16928
1.16938
1.16951
1.16944
1.16962
1.16957
1.16961
1.16963
1.16909
1.16949
1.16512
1.16796
1.15528
1.1603
1.14225
1.14458
1.14696
1.15169
1.14935
1.13587
1.138
1.13985
1.13029
1.13149
1.13396
1.13231
1.12803
1.12831
1.12872
1.12925
1.12775
1.1277
1.12787
1.12782
1.12869
1.12845
1.1288
1.12847
1.13442
1.13283
1.13105
1.13209
1.13797
1.13778
1.1369
1.1348
1.149
1.14916
1.14921
1.14923
1.15601
1.1561
1.15614
1.15623
1.16281
1.1557
1.16286
1.15589
1.15514
1.15519
1.1627
1.16264
1.15486
1.14779
1.15492
1.15485
1.14775
1.14741
1.15048
1.14465
1.14822
1.14852
1.14593
1.15262
1.15296
1.15238
1.15289
1.16721
0.582433
1.13786
1.15651
1.16065
1.15493
1.15503
1.1553
1.15554
1.15566
1.15569
1.15585
1.15633
1.15763
1.15977
1.16262
1.16538
1.16663
1.16709
1.16733
1.16753
1.16773
1.16793
1.16815
1.16837
1.16854
1.16874
1.16897
1.16917
1.16919
1.16924
1.16927
1.16926
1.16935
1.16934
1.16942
1.16956
1.16949
1.16967
1.16962
1.16968
1.1697
1.16915
1.16957
1.16473
1.16786
1.15415
1.15179
1.15685
1.16015
1.14214
1.14466
1.14704
1.14962
1.13536
1.13751
1.13962
1.12998
1.13098
1.13347
1.13196
1.12815
1.12836
1.12885
1.12928
1.128
1.12787
1.12808
1.1282
1.13009
1.12933
1.13035
1.12947
1.13863
1.13727
1.13475
1.13544
1.14925
1.14941
1.14086
1.13831