/*--------------------------------*- C++ -*----------------------------------*\
  =========                 |
  \\      /  F ield         | OpenFOAM: The Open Source CFD Toolbox
   \\    /   O peration     | Website:  https://openfoam.org
    \\  /    A nd           | Version:  dev
     \\/     M anipulation  |
\*---------------------------------------------------------------------------*/
FoamFile
{
    version     2.0;
    format      ascii;
    class       volScalarField;
    location    "2500";
    object      T;
}
// * * * * * * * * * * * * * * * * * * * * * * * * * * * * * * * * * * * * * //

dimensions      [0 0 0 1 0 0 0];

internalField   nonuniform List<scalar> 
9851
(
300.106
300.152
300.13
300.156
300.235
300.109
300.156
300.29
300.249
300.092
300.132
300.302
300.331
300.226
300.083
300.134
300.316
300.387
300.322
300.191
300.077
300.126
300.29
300.417
300.407
300.3
300.16
300.067
300.117
300.264
300.419
300.464
300.39
300.262
300.152
300.066
300.11
300.247
300.399
300.499
300.468
300.363
300.228
300.139
300.062
300.093
300.226
300.387
300.522
300.529
300.446
300.321
300.206
300.129
300.058
300.096
300.233
300.379
300.52
300.566
300.525
300.412
300.297
300.195
300.118
300.052
300.088
300.217
300.337
300.486
300.586
300.577
300.492
300.371
300.276
300.185
300.114
300.053
300.089
300.188
300.31
300.487
300.599
300.619
300.569
300.461
300.348
300.256
300.174
300.109
300.052
300.079
300.184
300.321
300.47
300.578
300.649
300.624
300.532
300.426
300.326
300.245
300.172
300.106
300.047
300.08
300.187
300.288
300.416
300.572
300.666
300.666
300.606
300.5
300.387
300.302
300.227
300.166
300.103
300.047
300.073
300.169
300.267
300.42
300.567
300.663
300.701
300.662
300.572
300.469
300.372
300.292
300.22
300.162
300.102
300.046
300.076
300.16
300.268
300.383
300.541
300.66
300.717
300.707
300.635
300.538
300.437
300.35
300.281
300.213
300.158
300.1
300.047
300.075
300.164
300.253
300.374
300.522
300.646
300.727
300.744
300.696
300.6
300.505
300.414
300.335
300.273
300.208
300.155
300.099
300.047
300.073
300.15
300.245
300.368
300.493
300.633
300.724
300.77
300.743
300.671
300.571
300.477
300.395
300.326
300.262
300.201
300.148
300.097
300.046
300.071
300.146
300.242
300.349
300.442
300.612
300.722
300.786
300.783
300.725
300.632
300.537
300.451
300.376
300.319
300.252
300.202
300.146
300.096
300.044
300.067
300.144
300.24
300.319
300.424
300.602
300.713
300.791
300.813
300.778
300.699
300.602
300.514
300.426
300.363
300.311
300.247
300.197
300.142
300.098
300.046
300.061
300.145
300.228
300.316
300.442
300.571
300.705
300.792
300.832
300.816
300.754
300.664
300.573
300.491
300.417
300.362
300.303
300.25
300.196
300.144
300.095
300.047
300.065
300.142
300.224
300.324
300.424
300.526
300.692
300.789
300.846
300.85
300.802
300.715
300.623
300.554
300.473
300.412
300.349
300.302
300.252
300.192
300.146
300.096
300.046
300.062
300.139
300.224
300.317
300.416
300.529
300.684
300.775
300.851
300.873
300.847
300.768
300.688
300.598
300.527
300.46
300.401
300.349
300.299
300.248
300.197
300.146
300.098
300.046
300.063
300.135
300.215
300.313
300.387
300.499
300.657
300.773
300.86
300.895
300.881
300.827
300.736
300.651
300.57
300.505
300.457
300.392
300.347
300.3
300.246
300.196
300.144
300.099
300.048
300.057
300.136
300.207
300.307
300.395
300.515
300.64
300.755
300.855
300.908
300.911
300.87
300.797
300.713
300.633
300.563
300.503
300.447
300.387
300.345
300.295
300.249
300.198
300.148
300.1
300.047
300.059
300.134
300.205
300.304
300.395
300.495
300.63
300.757
300.854
300.919
300.935
300.905
300.84
300.764
300.689
300.61
300.552
300.495
300.443
300.393
300.346
300.297
300.249
300.198
300.151
300.1
300.048
300.053
300.126
300.214
300.301
300.375
300.492
300.626
300.744
300.85
300.916
300.952
300.946
300.895
300.809
300.732
300.665
300.599
300.538
300.487
300.438
300.393
300.345
300.298
300.251
300.201
300.152
300.104
300.051
300.05
300.124
300.21
300.302
300.383
300.461
300.613
300.737
300.844
300.922
300.974
300.973
300.936
300.862
300.785
300.703
300.645
300.593
300.538
300.478
300.435
300.393
300.342
300.299
300.251
300.204
300.156
300.106
300.053
300.055
300.123
300.208
300.294
300.393
300.471
300.627
300.732
300.841
300.927
300.983
300.998
300.971
300.919
300.835
300.762
300.686
300.632
300.576
300.534
300.486
300.439
300.392
300.348
300.296
300.256
300.207
300.159
300.109
300.053
300.054
300.129
300.201
300.302
300.396
300.484
300.607
300.738
300.836
300.931
300.992
301.018
300.998
300.957
300.884
300.81
300.736
300.67
300.626
300.572
300.531
300.485
300.442
300.396
300.351
300.305
300.259
300.211
300.162
300.112
300.055
300.054
300.124
300.215
300.292
300.378
300.465
300.582
300.737
300.834
300.936
301
301.033
301.033
300.987
300.928
300.85
300.789
300.724
300.67
300.623
300.574
300.524
300.485
300.442
300.395
300.352
300.308
300.263
300.216
300.168
300.116
300.058
300.059
300.134
300.212
300.285
300.403
300.5
300.627
300.755
300.837
300.948
301.013
301.048
301.058
301.024
300.966
300.902
300.83
300.772
300.712
300.661
300.616
300.576
300.526
300.484
300.44
300.399
300.356
300.315
300.271
300.225
300.176
300.122
300.06
300.055
300.144
300.231
300.327
300.38
300.485
300.619
300.759
300.859
300.95
301.021
301.063
301.082
301.062
301.008
300.94
300.874
300.814
300.755
300.709
300.655
300.614
300.569
300.522
300.484
300.444
300.404
300.364
300.324
300.281
300.236
300.183
300.126
300.03
300.067
300.054
300.148
300.243
300.344
300.403
300.547
300.656
300.784
300.869
300.95
301.036
301.082
301.099
301.085
301.047
300.975
300.917
300.849
300.8
300.748
300.703
300.654
300.61
300.564
300.526
300.488
300.45
300.413
300.374
300.335
300.294
300.245
300.179
300.103
300.138
300.031
300.069
300.07
300.152
300.249
300.364
300.438
300.578
300.672
300.792
300.883
300.974
301.053
301.101
301.119
301.109
301.08
301.026
300.954
300.894
300.842
300.794
300.739
300.693
300.649
300.607
300.568
300.531
300.495
300.459
300.423
300.386
300.348
300.305
300.235
300.264
300.173
300.218
300.209
300.105
300.142
300.032
300.072
300.065
300.168
300.237
300.364
300.473
300.604
300.707
300.817
300.909
300.991
301.064
301.118
301.143
301.14
301.111
301.06
300.997
300.938
300.885
300.835
300.779
300.732
300.691
300.648
300.61
300.573
300.538
300.504
300.47
300.436
300.4
300.361
300.293
300.326
300.256
300.179
300.244
300.216
300.11
300.148
300.033
300.075
300.072
300.189
300.259
300.418
300.532
300.631
300.747
300.831
300.925
301.016
301.077
301.133
301.165
301.171
301.141
301.099
301.041
300.976
300.918
300.871
300.827
300.772
300.731
300.69
300.651
300.614
300.58
300.547
300.515
300.483
300.449
300.413
300.355
300.383
300.293
300.328
300.279
300.187
300.255
300.227
300.115
300.155
300.035
300.079
300.079
300.191
300.288
300.416
300.547
300.683
300.777
300.874
300.966
301.036
301.093
301.15
301.181
301.192
301.173
301.132
301.075
301.014
300.961
300.906
300.859
300.813
300.77
300.73
300.693
300.656
300.622
300.589
300.559
300.528
300.497
300.462
300.41
300.438
300.361
300.393
300.315
300.349
300.293
300.197
300.268
300.24
300.121
300.164
300.037
300.083
300.087
300.197
300.333
300.467
300.612
300.697
300.817
300.906
300.981
301.062
301.132
301.17
301.205
301.213
301.197
301.165
301.114
301.058
300.992
300.943
300.897
300.852
300.809
300.77
300.734
300.698
300.664
300.631
300.601
300.573
300.544
300.514
300.465
300.495
300.423
300.455
300.382
300.415
300.33
300.366
300.308
300.209
300.283
300.255
300.128
300.174
300.04
300.088
300.078
300.223
300.345
300.477
300.655
300.736
300.856
300.937
301.023
301.094
301.156
301.196
301.23
301.238
301.228
301.191
301.147
301.096
301.04
300.976
300.927
300.891
300.85
300.811
300.774
300.739
300.705
300.674
300.644
300.617
300.594
300.573
300.528
300.573
300.49
300.535
300.451
300.494
300.404
300.447
300.348
300.391
300.328
300.223
300.304
300.275
300.135
300.186
300.042
300.093
300.082
300.189
300.391
300.504
300.698
300.789
300.908
300.966
301.064
301.122
301.178
301.22
301.252
301.262
301.253
301.227
301.177
301.128
301.074
301.012
300.965
300.923
300.889
300.852
300.815
300.78
300.747
300.716
300.688
300.664
300.65
300.665
300.634
300.739
300.6
300.705
300.558
300.661
300.505
300.601
300.444
300.525
300.377
300.442
300.359
300.241
300.337
300.306
300.144
300.2
300.045
300.099
300.086
300.211
300.47
300.548
300.738
300.826
300.933
301.012
301.109
301.159
301.212
301.237
301.276
301.284
301.277
301.253
301.212
301.161
301.105
301.054
301.001
300.958
300.92
300.888
300.855
300.822
300.788
300.759
300.733
300.719
300.732
300.821
300.86
301.07
300.865
301.089
300.836
301.091
300.769
301.046
300.672
300.938
300.553
300.768
300.438
300.584
300.428
300.267
300.405
300.368
300.154
300.219
300.049
300.106
300.093
300.249
300.522
300.61
300.772
300.88
300.97
301.05
301.138
301.185
301.241
301.275
301.299
301.31
301.298
301.277
301.243
301.192
301.138
301.087
301.04
300.996
300.956
300.923
300.892
300.86
300.83
300.801
300.783
300.787
300.856
301.075
301.28
301.574
301.363
301.672
301.408
301.763
301.407
301.815
301.334
301.796
301.162
301.676
300.882
301.416
300.609
300.993
300.614
300.315
300.589
300.528
300.167
300.252
300.053
300.115
300.101
300.29
300.565
300.656
300.808
300.917
300.998
301.086
301.172
301.229
301.275
301.305
301.33
301.332
301.329
301.305
301.272
301.221
301.166
301.12
301.076
301.035
300.997
300.958
300.926
300.896
300.867
300.844
300.836
300.881
301.064
301.515
301.866
302.08
301.991
302.34
302.129
302.492
302.232
302.64
302.275
302.742
302.225
302.76
302.037
302.657
301.663
302.379
301.077
301.865
301.104
300.435
301.06
300.938
300.188
300.329
300.058
300.127
300.11
300.329
300.6
300.698
300.846
300.963
301.056
301.137
301.203
301.27
301.304
301.337
301.355
301.361
301.352
301.334
301.297
301.254
301.202
301.154
301.111
301.073
301.035
300.999
300.964
300.933
300.906
300.889
300.904
301.018
301.353
302.013
303.03
302.625
303.096
302.843
303.188
303.028
303.392
303.177
303.582
303.26
303.719
303.239
303.766
303.063
303.686
302.672
303.419
301.994
302.889
302.028
300.741
301.941
301.715
300.231
300.524
300.065
300.151
300.119
300.362
300.626
300.732
300.878
300.995
301.09
301.165
301.24
301.3
301.327
301.365
301.379
301.387
301.377
301.358
301.325
301.285
301.235
301.189
301.147
301.107
301.072
301.038
301.004
300.973
300.948
300.94
300.989
301.193
301.684
302.515
303.595
304.08
304.366
303.51
303.822
303.732
304.054
303.95
304.284
304.128
304.495
304.235
304.646
304.235
304.708
304.08
304.645
303.706
304.406
303.014
303.902
303.035
301.355
302.932
302.677
300.345
300.985
300.078
300.217
300.13
300.389
300.644
300.758
300.904
301.023
301.131
301.196
301.264
301.328
301.376
301.397
301.409
301.41
301.4
301.381
301.351
301.311
301.267
301.223
301.182
301.142
301.107
301.074
301.043
301.014
300.992
300.997
301.095
301.401
302.037
302.967
304.072
304.586
304.815
304.854
305.07
304.348
304.616
304.587
304.866
304.817
305.101
305
305.304
305.106
305.442
305.111
305.491
304.977
305.433
304.647
305.233
304.005
304.796
304.004
302.268
303.88
303.612
300.65
301.774
300.099
300.367
300.151
300.414
300.658
300.779
300.922
301.042
301.151
301.223
301.296
301.363
301.405
301.423
301.434
301.434
301.427
301.407
301.379
301.341
301.299
301.256
301.216
301.177
301.142
301.11
301.079
301.051
301.039
301.063
301.215
301.631
302.388
303.421
304.483
304.984
305.111
305.254
305.409
305.512
305.67
305.113
305.328
305.351
305.571
305.562
305.784
305.716
305.935
305.782
305.993
305.76
305.975
305.651
305.905
305.393
305.772
304.859
305.474
304.831
303.216
304.696
304.449
301.223
302.677
300.141
300.657
300.184
300.441
300.669
300.796
300.934
301.054
301.164
301.25
301.322
301.394
301.435
301.453
301.46
301.462
301.452
301.433
301.406
301.37
301.33
301.288
301.249
301.212
301.175
301.143
301.114
301.088
301.082
301.137
301.35
301.865
302.714
303.816
304.794
305.418
305.516
305.623
305.787
305.865
306.03
306.106
305.76
305.915
305.968
306.119
306.107
306.237
306.147
306.261
306.118
306.217
306.054
306.14
305.968
306.063
305.824
305.977
305.488
305.835
305.437
304.072
305.316
305.113
301.954
303.509
300.216
301.09
300.484
300.678
300.809
300.94
301.061
301.171
301.27
301.347
301.42
301.461
301.48
301.487
301.487
301.477
301.459
301.433
301.399
301.359
301.319
301.28
301.245
301.209
301.175
301.148
301.125
301.123
301.213
301.502
302.099
303.022
304.114
304.873
305.336
305.727
305.565
305.864
305.824
306.113
306.078
306.304
306.281
306.226
306.287
306.329
306.388
306.344
306.399
306.288
306.342
306.201
306.234
306.107
306.108
306.032
306.008
305.963
305.959
305.814
305.926
305.76
304.779
305.672
305.535
302.691
304.22
300.458
301.648
300.693
300.825
300.942
301.063
301.173
301.28
301.366
301.441
301.484
301.506
301.513
301.513
301.503
301.485
301.459
301.427
301.389
301.348
301.31
301.275
301.243
301.21
301.179
301.159
301.17
301.297
301.662
302.338
303.295
304.311
304.854
305.134
305.396
305.189
305.664
305.411
305.992
305.856
306.22
306.104
306.363
306.276
306.411
306.403
306.434
306.436
306.374
306.375
306.242
306.221
306.074
306.012
305.927
305.809
305.852
305.681
305.864
305.665
305.879
305.776
305.828
305.27
305.776
305.713
305.595
303.394
304.794
300.715
302.206
300.845
300.943
301.061
301.171
301.282
301.378
301.458
301.504
301.53
301.539
301.538
301.528
301.511
301.486
301.454
301.417
301.378
301.339
301.304
301.273
301.243
301.214
301.195
301.22
301.387
301.833
302.57
303.547
304.441
304.817
304.923
304.641
305.123
304.755
305.364
304.996
305.927
305.679
306.124
305.905
306.197
306.005
306.408
306.333
306.341
306.265
306.171
306.082
305.922
305.799
305.658
305.471
305.459
305.201
305.385
305.068
305.483
305.077
305.699
305.335
305.549
305.761
305.647
305.66
305.338
305.578
305.737
305.651
305.643
305.716
304.01
305.459
305.272
304.852
300.71
302.731
300.943
301.054
301.164
301.279
301.384
301.47
301.522
301.552
301.563
301.563
301.553
301.536
301.511
301.481
301.445
301.406
301.368
301.333
301.301
301.269
301.244
301.237
301.272
301.48
302.007
302.801
303.775
304.545
304.813
304.774
304.238
303.862
303.589
304.599
304.201
304.824
304.353
305.614
305.251
305.753
305.434
305.718
305.431
306.137
305.955
305.948
305.762
305.633
305.424
305.251
304.986
304.904
304.568
304.704
304.343
304.637
304.577
304.352
305.113
304.866
304.394
304.627
305.267
305.478
305.236
305.021
305.466
305.682
305.629
305.669
305.508
305.478
305.676
305.019
304.025
304.657
305.541
305.399
301.402
304.222
303.636
302.816
301.044
301.153
301.27
301.385
301.478
301.536
301.571
301.586
301.586
301.577
301.56
301.536
301.507
301.472
301.434
301.397
301.361
301.329
301.305
301.283
301.273
301.321
301.574
302.173
303.028
303.985
304.644
304.824
304.686
304.012
302.928
303.086
302.75
303.878
303.441
304.069
303.531
305.045
304.585
305.094
304.697
304.907
304.55
305.524
305.236
305.169
304.86
304.677
304.357
304.255
304.01
304.026
303.826
304.184
304.035
303.926
303.856
304.189
304.021
304.134
304.012
304.765
304.502
304.07
304.271
304.958
305.225
304.931
304.683
305.23
305.665
305.634
305.547
305.261
305.31
305.584
305.175
304.855
305.575
305.471
303.121
301.826
302.511
304.444
303.953
301.139
301.255
301.377
301.479
301.547
301.588
301.606
301.608
301.6
301.583
301.561
301.532
301.498
301.462
301.425
301.389
301.357
301.328
301.3
301.29
301.362
301.664
302.334
303.232
304.186
304.723
304.857
304.648
303.916
302.823
301.968
301.936
302.284
302.076
303.023
302.597
303.162
302.617
304.237
303.719
304.157
303.722
303.782
303.402
304.515
304.151
304.038
303.73
303.837
303.681
303.747
303.745
303.831
303.839
303.877
303.958
303.9
303.85
303.846
303.889
303.947
303.906
303.905
303.873
304.414
304.176
303.946
304.008
304.632
304.93
304.613
304.353
304.952
305.608
305.606
305.372
305
305.068
305.44
305.297
305.025
305.571
305.503
303.465
302.246
302.973
304.66
304.23
301.238
301.364
301.479
301.555
301.603
301.625
301.629
301.622
301.606
301.584
301.556
301.524
301.489
301.453
301.417
301.385
301.354
301.333
301.307
301.387
301.739
302.479
303.432
304.338
304.797
304.878
304.625
303.885
302.808
301.669
301.425
301.389
301.58
301.471
302.139
301.791
302.204
301.751
303.244
302.727
303.008
302.598
302.863
302.558
303.441
303.155
303.516
303.338
303.794
303.83
304.053
304.182
304.317
304.501
303.985
304.12
304.288
304.484
303.882
303.956
304.09
304.276
303.946
303.918
304.028
304.008
304.118
304.003
304.027
303.975
304.319
304.621
304.316
304.105
304.659
305.501
305.541
305.157
304.722
304.809
305.256
305.375
305.164
305.543
305.499
303.779
302.577
303.332
304.852
304.464
301.346
301.47
301.558
301.615
301.642
301.648
301.642
301.627
301.606
301.579
301.548
301.514
301.479
301.445
301.414
301.382
301.352
301.335
301.398
301.787
302.6
303.6
304.455
304.832
304.879
304.589
303.848
302.795
301.68
301.157
301.165
301.151
301.145
301.204
301.166
301.45
301.287
301.486
301.263
302.186
301.802
302.249
301.942
302.683
302.415
303.145
302.926
303.844
303.814
305.038
305.385
304.692
304.899
305.08
305.168
304.509
304.78
305.077
305.386
304.166
304.39
304.674
305.002
304.173
304.191
304.418
304.438
304.026
304.027
304.344
304.13
304.124
304.341
304.162
304.064
304.392
305.354
305.435
304.92
304.468
304.565
305.046
305.416
305.262
305.483
305.478
304.041
302.657
303.489
305.006
304.645
301.456
301.558
301.624
301.657
301.667
301.662
301.648
301.626
301.601
301.571
301.539
301.506
301.474
301.444
301.413
301.378
301.366
301.412
301.803
302.684
303.722
304.532
304.833
304.86
304.512
303.759
302.731
301.667
301.129
301.027
301.027
301.021
301.023
301.032
301.021
301.131
301.063
301.218
301.085
301.657
301.412
302.135
301.851
303.372
303.082
303.743
303.589
305.557
305.606
306.734
306.925
307.189
307.066
305.691
305.982
306.256
306.504
305.362
305.737
306.113
306.475
304.761
305.139
305.551
305.978
304.68
304.761
305.111
305.176
304.094
304.244
304.95
304.534
304.113
304.213
304.169
304.165
304.274
305.178
305.298
304.688
304.346
304.428
304.832
305.425
305.318
305.388
305.433
304.205
302.382
303.373
305.117
304.777
301.552
301.629
301.671
301.684
301.681
301.666
301.647
301.621
301.594
301.564
301.536
301.506
301.475
301.444
301.41
301.387
301.434
301.807
302.716
303.814
304.543
304.818
304.801
304.367
303.584
302.562
301.61
301.146
300.975
300.981
300.958
300.965
300.942
300.951
300.943
300.937
301.005
300.963
301.173
301.044
301.586
301.357
302.748
302.377
305.13
304.727
305.598
305.411
307.276
307.384
307.834
307.832
307.99
308.168
308.106
306.814
307.121
307.398
307.635
306.406
306.821
307.212
307.57
305.632
306.108
306.584
307.043
305.455
305.6
306.009
306.121
304.364
304.723
305.775
305.209
304.233
304.225
304.298
304.474
304.285
304.988
305.14
304.524
304.346
304.409
304.644
305.414
305.344
305.272
305.364
304.243
301.864
302.942
305.185
304.864
301.629
301.683
301.7
301.698
301.685
301.664
301.643
301.618
301.594
301.569
301.54
301.51
301.478
301.444
301.409
301.453
301.806
302.719
303.841
304.53
304.772
304.675
304.16
303.341
302.326
301.521
301.142
300.982
300.924
300.933
300.902
300.912
300.88
300.889
300.897
300.885
300.964
300.918
301.352
301.126
302.004
301.652
304.243
303.678
307.036
306.525
307.72
307.419
308.193
308.182
308.996
308.923
308.771
308.895
309.023
308.98
307.89
308.169
308.411
308.611
307.476
307.875
308.234
308.551
306.643
307.148
307.623
308.059
306.384
306.578
306.99
307.133
304.894
305.438
306.712
306.061
304.564
304.348
304.631
305.034
304.39
304.8
304.977
304.473
304.419
304.45
304.556
305.393
305.349
305.144
305.282
304.108
301.257
302.367
305.222
304.871
301.691
301.718
301.718
301.703
301.686
301.665
301.648
301.632
301.614
301.589
301.558
301.522
301.484
301.442
301.47
301.798
302.712
303.836
304.489
304.685
304.512
303.919
303.057
302.072
301.434
301.132
300.994
300.904
300.917
300.873
300.885
300.844
300.858
300.842
300.836
300.861
300.847
300.982
300.904
301.919
301.459
303.08
302.477
305.92
305.222
308.308
307.753
308.832
308.752
308.763
309.041
309.035
309.561
309.464
309.519
309.601
309.667
309.645
308.823
309.053
309.247
309.401
308.452
308.801
309.103
309.361
307.654
308.131
308.561
308.94
307.346
307.565
307.933
308.092
305.629
306.299
307.645
306.989
305.132
304.663
305.187
305.768
304.659
304.663
304.825
304.49
304.624
304.582
304.538
305.358
305.345
305.018
305.194
303.761
300.68
301.719
305.238
304.792
301.734
301.738
301.727
301.71
301.696
301.693
301.698
301.699
301.681
301.645
301.595
301.541
301.489
301.486
301.792
302.677
303.81
304.419
304.586
304.341
303.687
302.796
301.877
301.362
301.124
301.008
300.92
300.856
300.872
300.828
300.841
300.808
300.815
300.811
300.811
300.858
300.819
301.136
300.948
302.833
302.089
304.458
303.647
307.105
306.378
308.986
308.705
308.459
309.336
309.179
309.197
309.432
309.667
309.63
310.014
309.907
310.087
310.132
310.167
310.158
309.577
309.754
309.898
310.01
309.27
309.552
309.791
309.99
308.565
308.979
309.338
309.643
308.24
308.461
308.76
308.92
306.484
307.208
308.486
307.886
305.853
305.176
305.867
306.606
305.106
304.605
304.718
304.551
304.983
304.832
304.56
305.318
305.341
304.897
305.109
303.257
300.257
301.045
305.226
304.599
301.76
301.748
301.739
301.743
301.774
301.839
301.889
301.897
301.844
301.752
301.648
301.56
301.522
301.795
302.633
303.747
304.341
304.485
304.188
303.494
302.597
301.751
301.317
301.125
301.022
300.941
300.845
300.866
300.821
300.832
300.799
300.809
300.792
300.793
300.787
300.787
300.902
300.817
301.495
301.105
303.795
302.882
305.576
304.707
307.782
307.04
309.32
309.042
309.114
308.739
309.773
309.614
309.568
309.786
310.147
310.093
310.384
310.275
310.506
310.537
310.555
310.557
310.152
310.282
310.386
310.461
309.903
310.119
310.299
310.447
309.315
309.647
309.924
310.154
308.998
309.204
309.419
309.571
307.367
308.068
309.179
308.676
306.66
305.81
306.639
307.458
305.677
304.6
304.669
304.705
305.466
305.217
304.625
305.276
305.33
304.797
305.015
302.636
300.063
300.479
305.184
304.269
301.773
301.765
301.798
301.899
302.047
302.188
302.229
302.174
302.038
301.868
301.702
301.599
301.813
302.613
303.679
304.262
304.39
304.064
303.356
302.469
301.679
301.294
301.129
301.036
300.961
300.873
300.821
300.835
300.799
300.81
300.786
300.791
300.77
300.78
300.775
300.764
301.017
300.84
302.047
301.404
304.465
303.545
306.228
305.364
308.424
307.993
307.546
309.676
309.406
309.452
309.12
310.14
309.977
309.92
310.134
310.523
310.465
310.704
310.602
310.817
310.855
310.86
310.864
310.567
310.663
310.735
310.782
310.346
310.505
310.638
310.749
309.873
310.115
310.311
310.47
309.577
309.759
309.882
310.023
308.189
308.81
309.682
309.308
307.484
306.531
307.408
308.242
306.329
304.618
304.657
304.973
306.051
305.707
304.774
305.226
305.311
304.744
304.92
301.915
300.025
300.182
305.093
303.826
301.798
301.855
302.031
302.289
302.501
302.594
302.54
302.37
302.14
301.913
301.756
301.867
302.616
303.628
304.189
304.308
303.971
303.273
302.408
301.648
301.29
301.137
301.052
300.981
300.903
300.823
300.803
300.816
300.784
300.793
300.768
300.778
300.744
300.755
300.777
300.744
301.21
300.899
302.63
301.799
304.809
303.888
306.663
305.74
308.751
308.348
307.768
308.308
310.025
309.755
309.817
309.487
310.475
310.318
310.262
310.467
310.831
310.779
310.984
310.897
311.057
311.09
311.103
311.101
310.842
310.922
310.974
311.007
310.6
310.71
310.805
310.891
310.229
310.387
310.512
310.613
309.947
310.11
310.127
310.277
308.874
309.362
309.92
309.706
308.205
307.251
308.084
308.854
307.003
304.668
304.665
305.338
306.647
306.211
305.002
305.177
305.276
304.716
304.851
301.171
300.015
300.072
304.959
303.244
301.926
302.164
302.524
302.826
302.963
302.926
302.722
302.434
302.15
301.949
301.998
302.636
303.611
304.13
304.238
303.908
303.228
302.397
301.644
301.292
301.15
301.069
301
300.928
300.847
300.795
300.798
300.808
300.788
300.77
300.78
300.74
300.756
300.718
300.725
300.794
300.728
301.443
300.993
302.991
302.154
305.081
304.069
307.205
306.148
309.123
308.727
308.166
308.648
310.369
310.111
310.171
309.851
310.783
310.64
310.592
310.781
311.085
311.046
311.223
311.155
311.2
311.248
311.288
311.278
310.969
311.042
311.109
311.162
310.7
310.779
310.855
310.928
310.401
310.493
310.57
310.637
310.043
310.247
310.132
310.333
309.336
309.645
309.895
309.796
308.772
307.898
308.656
309.257
307.605
304.778
304.692
305.738
307.208
306.729
305.302
305.116
305.231
304.713
304.814
300.636
300.012
300.038
304.768
302.576
302.311
302.735
303.129
303.333
303.316
303.09
302.753
302.415
302.171
302.185
302.697
303.615
304.089
304.183
303.867
303.217
302.407
301.651
301.306
301.166
301.087
301.021
300.952
300.875
300.82
300.785
300.782
300.793
300.775
300.743
300.76
300.709
300.726
300.695
300.697
300.817
300.718
301.591
301.081
303.141
302.3
305.503
304.306
308.066
307.414
306.74
309.49
309.089
308.558
309.026
310.691
310.45
310.499
310.196
311.06
310.936
310.895
311.064
311.289
311.266
311.414
311.373
311.27
311.31
311.394
311.367
311.001
311.073
311.143
311.211
310.697
310.757
310.82
310.885
310.401
310.46
310.508
310.549
309.937
310.201
309.941
310.237
309.491
309.615
309.588
309.656
309.107
308.475
308.905
309.299
308.217
304.939
304.738
306.189
307.849
307.343
305.626
305.077
305.177
304.72
304.805
300.337
300.009
300.027
304.519
301.936
302.951
303.389
303.668
303.69
303.471
303.111
302.726
302.436
302.42
302.835
303.636
304.066
304.141
303.839
303.221
302.433
301.669
301.318
301.183
301.106
301.042
300.977
300.904
300.843
300.794
300.767
300.762
300.778
300.751
300.716
300.734
300.682
300.699
300.676
300.674
300.823
300.708
301.614
301.102
303.237
302.341
306.068
304.707
308.377
307.82
306.841
307.594
309.849
309.458
308.895
309.368
310.984
310.762
310.795
310.508
311.3
311.199
311.168
311.312
311.424
311.433
311.524
311.525
311.267
311.333
311.415
311.388
310.955
311.029
311.109
311.186
310.593
310.646
310.707
310.773
310.241
310.257
310.29
310.316
309.437
309.886
309.38
309.858
309.381
309.372
309.081
309.154
309.073
308.679
308.865
309.136
308.422
305.141
304.84
306.719
308.127
307.756
306.038
305.043
305.11
304.747
304.812
300.189
300.007
300.024
304.204
301.396
303.644
303.962
304.012
303.839
303.505
303.099
302.779
302.722
303.07
303.694
304.059
304.112
303.819
303.228
302.468
301.7
301.336
301.202
301.126
301.063
301.001
300.933
300.869
300.821
300.754
300.754
300.774
300.744
300.739
300.727
300.692
300.709
300.658
300.674
300.659
300.653
300.815
300.698
301.591
301.088
303.43
302.375
307.214
306.848
306.056
305.184
308.706
308.159
307.83
310.174
309.794
309.218
309.682
311.237
311.039
311.045
310.781
311.492
311.421
311.394
311.502
311.472
311.508
311.557
311.578
311.209
311.293
311.405
311.349
310.85
310.93
311.019
311.106
310.349
310.376
310.418
310.475
309.832
309.811
309.747
309.718
308.944
309.342
308.844
309.196
309.001
308.902
308.742
308.852
308.913
308.611
308.655
308.785
308.384
305.442
304.974
307.267
308.131
307.837
306.541
305.02
305.027
304.788
304.826
300.143
300.01
300.031
303.832
301.113
304.157
304.258
304.15
303.888
303.523
303.209
303.122
303.39
303.811
304.063
304.093
303.803
303.229
302.486
301.718
301.355
301.219
301.145
301.086
301.026
300.963
300.898
300.85
300.798
300.739
300.745
300.762
300.722
300.722
300.704
300.67
300.687
300.643
300.653
300.649
300.641
300.794
300.688
301.582
301.052
303.767
302.506
307.451
306.962
306.323
305.05
305.84
308.979
308.422
308.061
310.464
310.098
309.492
309.953
311.424
311.264
311.234
311.002
311.582
311.559
311.524
311.578
311.463
311.515
311.531
311.58
311.07
311.192
311.368
311.285
310.559
310.678
310.818
310.949
309.707
309.698
309.714
309.75
308.73
308.763
308.598
308.592
306.035
308.76
306.059
308.616
308.742
308.697
306.213
306.166
308.53
308.465
308.317
308.567
308.251
305.764
305.14
307.466
308.007
307.713
306.946
305.01
304.927
304.849
304.848
300.173
300.128
300.121
303.591
301.178
304.367
304.356
304.198
303.93
303.674
303.592
303.743
303.955
304.074
304.077
303.783
303.222
302.485
301.723
301.365
301.233
301.165
301.108
301.052
300.991
300.929
300.879
300.83
300.77
300.729
300.739
300.756
300.706
300.713
300.69
300.658
300.674
300.635
300.643
300.639
300.633
300.77
300.673
301.633
301.037
304.149
302.764
307.599
307.066
306.439
305.203
305.838
309.213
308.653
308.224
310.708
310.36
309.724
310.179
311.494
311.393
311.306
311.134
311.599
311.598
311.557
311.587
311.402
311.471
311.465
311.53
310.62
310.861
311.207
311.006
309.838
309.973
310.23
310.451
308.599
308.606
308.672
308.705
305.849
305.847
305.862
305.837
304.094
306.097
304.069
306.033
306.231
306.32
304.144
304.166
306.251
308.138
306.212
306.4
307.927
306.092
305.352
307.357
307.657
307.366
306.881
304.996
304.896
304.931
304.884
300.378
355.739
301.147
303.644
301.559
304.414
304.376
304.235
304.073
303.997
304.02
304.076
304.119
304.057
303.748
303.197
302.465
301.72
301.374
301.248
301.184
301.13
301.077
301.021
300.961
300.908
300.863
300.805
300.749
300.741
300.723
300.727
300.698
300.707
300.683
300.651
300.667
300.623
300.635
300.625
300.62
300.757
300.655
301.764
301.043
304.291
302.997
307.701
307.084
306.459
305.224
305.833
309.396
308.828
308.336
310.894
310.57
309.907
310.351
311.501
311.426
311.314
311.171
311.574
311.589
311.542
311.556
311.315
311.381
311.283
311.376
309.75
310.182
310.666
310.383
308.788
308.839
309.075
309.646
305.838
305.794
305.782
305.777
303.988
303.966
303.956
303.93
302.215
304.07
302.202
304.02
304.217
304.202
302.243
302.257
304.29
306.164
304.275
304.292
306.175
306.318
305.526
307.03
306.052
305.976
306.7
304.987
304.9
305.042
304.914
301.236
593.774
308.878
303.978
302.912
304.382
304.356
304.286
304.225
304.194
304.186
304.144
304.021
303.686
303.134
302.403
301.7
301.38
301.265
301.203
301.152
301.102
301.05
300.994
300.938
300.894
300.844
300.784
300.734
300.729
300.718
300.71
300.712
300.69
300.693
300.673
300.638
300.656
300.608
300.621
300.607
300.603
300.74
300.634
301.865
301.068
304.582
305.196
303.885
303.036
307.729
307.063
306.438
305.762
309.533
308.958
308.396
310.976
310.708
310.037
310.443
311.468
311.411
311.277
311.162
311.505
311.541
311.485
311.451
310.931
311.138
310.861
311.1
308.61
308.977
309.66
309.471
305.772
305.73
308.009
308.696
303.919
303.887
303.865