/*--------------------------------*- C++ -*----------------------------------*\
  =========                 |
  \\      /  F ield         | OpenFOAM: The Open Source CFD Toolbox
   \\    /   O peration     | Website:  https://openfoam.org
    \\  /    A nd           | Version:  dev
     \\/     M anipulation  |
\*---------------------------------------------------------------------------*/
FoamFile
{
    version     2.0;
    format      ascii;
    class       volVectorField;
    location    "2500";
    object      U;
}
// * * * * * * * * * * * * * * * * * * * * * * * * * * * * * * * * * * * * * //

dimensions      [0 1 -1 0 0 0 0];

internalField   nonuniform List<vector> 
9851
(
(0.0047155 0.00737582 0)
(0.0112266 0.00665578 0)
(0.00470611 0.0193914 4.19415e-27)
(0.0155663 0.00557374 -4.96647e-28)
(0.0124407 0.0197369 -3.63723e-27)
(0.00404626 0.0279382 5.24572e-27)
(0.0190332 0.00459095 -4.79681e-28)
(0.0175222 0.0191432 0)
(0.0119804 0.0290721 -9.56919e-27)
(0.00334688 0.0350165 0)
(0.0217593 0.00382157 0)
(0.0209333 0.0172973 -1.43742e-27)
(0.0182741 0.0299422 0)
(0.0105255 0.036108 -5.52248e-27)
(0.00292288 0.0412401 -7.79718e-29)
(0.0240387 0.00319084 0)
(0.0233333 0.0147721 -1.49215e-27)
(0.0229383 0.0296444 0)
(0.0173656 0.0377864 0)
(0.00903682 0.0420615 -1.11303e-27)
(0.00262126 0.0468533 3.05219e-27)
(0.0261878 0.00270727 0)
(0.0253082 0.0122925 0)
(0.0261438 0.0280894 1.7699e-27)
(0.0231319 0.0390448 0)
(0.0154683 0.0437126 -3.82034e-27)
(0.00800111 0.047452 -3.8345e-27)
(0.00237042 0.0519255 2.95378e-27)
(0.0282728 0.00234903 0)
(0.0271615 0.0102562 6.54956e-30)
(0.0282537 0.0256274 1.81656e-27)
(0.0276153 0.0392489 0)
(0.0217049 0.0457528 0)
(0.0136069 0.0487649 -3.74879e-27)
(0.00722014 0.0524294 -2.3184e-27)
(0.00214785 0.0565813 -1.43898e-28)
(0.0302862 0.00210145 0)
(0.0289624 0.00879309 1.73338e-28)
(0.0296434 0.022669 -1.77251e-27)
(0.0307886 0.0381925 0)
(0.0271876 0.0474462 1.02181e-27)
(0.0194524 0.0507643 -5.99857e-28)
(0.0121828 0.0534711 1.21153e-27)
(0.00653818 0.0570158 1.58369e-28)
(0.00194928 0.0608232 0)
(0.0322195 0.00193037 2.5222e-29)
(0.0307617 0.00787067 1.7449e-28)
(0.0308544 0.0196985 -1.82762e-27)
(0.0328186 0.0360614 -9.47493e-29)
(0.0315817 0.0482165 1.13535e-27)
(0.0252419 0.0531286 -2.19015e-27)
(0.0173274 0.0550981 -1.12758e-27)
(0.0110269 0.0579249 7.39489e-28)
(0.00592491 0.0612179 1.35805e-28)
(0.00177064 0.0646879 0)
(0.0340766 0.00180182 0)
(0.0325614 0.00727828 1.5206e-29)
(0.0321603 0.0171296 2.76083e-36)
(0.0340807 0.0331714 0)
(0.0348266 0.0477931 -1.21351e-27)
(0.0305158 0.0552877 -1.80907e-27)
(0.022668 0.0573724 -1.32059e-27)
(0.0155848 0.0592945 -8.96713e-28)
(0.0099893 0.062054 2.17222e-27)
(0.00536526 0.0650399 0)
(0.00160453 0.0682075 -1.33283e-27)
(0.0359367 0.00169178 3.12301e-29)
(0.0343954 0.00678386 0)
(0.0335731 0.0151253 1.71625e-27)
(0.0349499 0.0298775 -1.03778e-27)
(0.0370274 0.0461907 -1.15978e-27)
(0.0349205 0.0566902 -2.66872e-28)
(0.0280597 0.0600517 -7.78456e-29)
(0.0202928 0.0612141 -1.70672e-28)
(0.0141062 0.063275 -2.04002e-27)
(0.0090368 0.0658085 1.04885e-28)
(0.00485468 0.0685343 0)
(0.00144811 0.071439 -5.66135e-32)
(0.0377999 0.00160357 0)
(0.0362084 0.0063155 2.31512e-29)
(0.0351764 0.013753 1.67325e-27)
(0.035838 0.0266227 -1.07662e-27)
(0.0384034 0.0436679 0)
(0.0383168 0.0570172 0)
(0.0331621 0.062697 -2.85993e-28)
(0.0252041 0.0637046 0)
(0.0182924 0.0649407 -1.08638e-27)
(0.0127615 0.0669416 -2.52074e-27)
(0.00816503 0.0692426 -4.86408e-28)
(0.00437866 0.0717395 9.45567e-28)
(0.0012953 0.0743648 3.18627e-27)
(0.0396257 0.00153336 0)
(0.0379913 0.00596204 0)
(0.0368575 0.0128328 0)
(0.0368932 0.0237352 1.07125e-29)
(0.0392601 0.0405992 0)
(0.0407458 0.0561895 1.48121e-27)
(0.0375996 0.0647869 5.20619e-28)
(0.0302339 0.0666499 0)
(0.0226215 0.0671066 0)
(0.016533 0.0684584 0)
(0.01152 0.0702841 -1.66873e-27)
(0.00735531 0.072412 -3.74501e-28)
(0.00391949 0.074656 1.02103e-27)
(0.00114931 0.0769744 1.05433e-28)
(0.0414619 0.00147739 0)
(0.0397834 0.005696 2.91694e-29)
(0.0385037 0.0121554 0)
(0.0380816 0.0214613 -2.10082e-27)
(0.0398736 0.0373036 0)
(0.0423206 0.0543484 1.70997e-27)
(0.0411582 0.0659402 4.69391e-28)
(0.0351359 0.0697121 5.4563e-28)
(0.0271528 0.0698097 7.74061e-28)
(0.0203939 0.0703659 0)
(0.0149336 0.0716795 0)
(0.0103723 0.0733826 -2.8701e-28)
(0.00659284 0.0753062 -1.42207e-28)
(0.00347552 0.0772436 5.73511e-30)
(0.00101129 0.0793275 0)
(0.0433327 0.00143635 0)
(0.0415752 0.00546962 0)
(0.0402253 0.0116092 4.16008e-29)
(0.0394081 0.0198261 -2.0718e-27)
(0.0404895 0.0341157 0)
(0.0432722 0.0517793 2.72078e-27)
(0.0438045 0.0660146 4.20313e-28)
(0.0395731 0.0724537 4.96389e-28)
(0.0318236 0.0729765 9.42009e-28)
(0.024394 0.0727398 -2.95896e-28)
(0.0183986 0.0734444 0)
(0.0134421 0.074688 0)
(0.00929107 0.0762258 2.01532e-28)
(0.00585792 0.077886 5.25601e-28)
(0.00304919 0.0795846 4.97844e-28)
(0.000874214 0.0814085 0)
(0.0451713 0.00140356 0)
(0.0433999 0.00530582 3.24887e-29)
(0.0420133 0.0111076 0)
(0.0408872 0.0186838 1.01426e-29)
(0.0412965 0.031198 0)
(0.043858 0.0488182 5.5278e-27)
(0.0456313 0.0650347 0)
(0.0432762 0.0744732 0)
(0.0364686 0.0764113 2.55189e-28)
(0.0285507 0.0756325 0)
(0.0219336 0.07562 -7.20092e-36)
(0.0165314 0.0763516 0)
(0.0120254 0.0774574 5.31343e-28)
(0.00825929 0.0787857 1.27177e-28)
(0.00514429 0.0802112 4.67132e-28)
(0.0026293 0.081656 0)
(0.000737333 0.0832252 1.30045e-27)
(0.0469803 0.00136488 0)
(0.0452427 0.00517589 0)
(0.0437625 0.0105915 5.11697e-29)
(0.0425387 0.0179504 1.47512e-29)
(0.042321 0.0287477 0)
(0.0443234 0.0456907 2.79904e-27)
(0.0467928 0.0631966 0)
(0.0461507 0.0755362 -3.08954e-27)
(0.0408063 0.0797312 0)
(0.032836 0.0790388 -7.3546e-28)
(0.0255883 0.0782496 -3.58788e-28)
(0.0196712 0.078378 7.71633e-28)
(0.014776 0.0790183 -6.46896e-28)
(0.0106808 0.0799734 1.29052e-27)
(0.00725785 0.0810865 0)
(0.00445488 0.08227 4.06155e-28)
(0.00221542 0.0834651 9.0405e-29)
(0.000604165 0.0847772 1.48729e-28)
(0.0487941 0.00132988 2.00302e-27)
(0.0470872 0.0050058 -1.25278e-28)
(0.0455548 0.0101291 5.21022e-29)
(0.0442771 0.0174921 1.71913e-29)
(0.0435451 0.0267676 2.46958e-27)
(0.0448811 0.0425962 2.81841e-27)
(0.0475298 0.0607878 -3.82103e-29)
(0.0482317 0.0755958 -1.35398e-42)
(0.0445853 0.0825756 -2.07492e-28)
(0.0371494 0.082794 -6.86419e-28)
(0.0293657 0.0813617 1.36146e-27)
(0.0229042 0.0807849 -1.87542e-28)
(0.0175754 0.0809117 -1.32962e-27)
(0.0131291 0.0814597 2.29633e-28)
(0.00938137 0.0822404 -6.54401e-33)
(0.00629869 0.0831032 0)
(0.00377652 0.084077 -1.99718e-28)
(0.00181373 0.085002 7.28483e-29)
(0.00047521 0.0860671 1.70171e-27)
(0.0505783 0.0012785 2.86083e-27)
(0.0489038 0.00479843 9.32634e-28)
(0.0473699 0.00980841 -3.57449e-27)
(0.046093 0.0170037 4.25067e-27)
(0.0450291 0.0252439 2.43115e-27)
(0.0456797 0.0397018 2.91287e-27)
(0.0480979 0.0580616 -6.8476e-29)
(0.0496757 0.074736 3.19043e-27)
(0.0476634 0.0846521 4.62786e-29)
(0.0412838 0.0866311 0)
(0.0332514 0.0849495 1.05305e-27)
(0.0262344 0.0835991 -3.92484e-28)
(0.0204504 0.0831465 -5.72729e-28)
(0.0156081 0.0832454 0)
(0.0115485 0.0836784 1.99558e-28)
(0.00813016 0.084205 -1.81009e-28)
(0.00536052 0.0849166 -8.90994e-29)
(0.00309603 0.0856207 8.58929e-28)
(0.00141438 0.0862877 1.23384e-27)
(0.000341096 0.0871012 0)
(0.052307 0.00123295 -4.70571e-28)
(0.0506728 0.00466342 1.65876e-27)
(0.0491669 0.00954754 -3.54407e-27)
(0.0478631 0.0163949 4.22323e-27)
(0.0466969 0.0242049 6.44299e-29)
(0.0467485 0.0371313 3.77543e-29)
(0.0486623 0.055243 0)
(0.0506921 0.0731504 -7.44621e-29)
(0.0500356 0.08584 0)
(0.0450494 0.090205 4.72674e-29)
(0.0371921 0.0889364 0)
(0.0296395 0.0868623 -4.49523e-28)
(0.0233825 0.0857621 4.48133e-28)
(0.0181351 0.0853693 -8.33978e-28)
(0.0137287 0.0853971 -7.17193e-28)
(0.0100002 0.0856153 2.34599e-28)
(0.00692401 0.0860042 1.02882e-28)
(0.00441064 0.0864756 9.45424e-28)
(0.00241028 0.0869171 4.01855e-28)
(0.000999941 0.0873269 4.96532e-29)
(0.000204063 0.0878732 1.93522e-27)
(0.0539884 0.00118949 -4.69597e-28)
(0.0524072 0.00454378 6.87168e-28)
(0.0509121 0.00922196 0)
(0.0495916 0.0158056 0)
(0.0484602 0.023527 -1.6083e-28)
(0.0479701 0.0349664 -4.81675e-29)
(0.0493348 0.0524542 4.92158e-29)
(0.0514659 0.0711086 0)
(0.0518043 0.0861362 -3.71279e-29)
(0.0482866 0.0932582 0)
(0.0410632 0.093141 -2.77333e-27)
(0.033135 0.0905802 2.09136e-28)
(0.0263494 0.0887883 0)
(0.0207041 0.0878615 4.01371e-28)
(0.0159301 0.0874159 -1.89406e-27)
(0.0118982 0.087325 -3.09902e-28)
(0.00849526 0.0873552 3.92583e-33)
(0.00571954 0.0875845 5.05253e-29)
(0.00345023 0.0877788 8.16166e-28)
(0.00172374 0.0879689 -4.6795e-32)
(0.000576427 0.0880908 1.53445e-27)
(7.1389e-05 0.0883808 0)
(0.0556135 0.00115133 8.48602e-28)
(0.054085 0.00440142 0)
(0.0526299 0.00887167 5.51571e-28)
(0.0513099 0.0153129 -4.44745e-27)
(0.0501945 0.0229426 -5.19593e-27)
(0.0493922 0.0332549 -5.95115e-27)
(0.0501737 0.0498359 -1.64086e-28)
(0.0521449 0.0688622 3.58752e-27)
(0.0531197 0.0856696 3.66989e-27)
(0.0509325 0.0955863 -7.1891e-29)
(0.0447086 0.0973151 -2.99613e-27)
(0.0366826 0.0947229 -9.57482e-29)
(0.0293857 0.0922159 1.93789e-28)
(0.0233135 0.090688 0)
(0.0181678 0.0897671 0)
(0.0138198 0.0893146 -5.8178e-28)
(0.0100973 0.0890112 0)
(0.00701942 0.0889541 7.39158e-37)
(0.00449343 0.0888972 -2.49451e-28)
(0.00248712 0.0888289 5.29496e-28)
(0.00102318 0.0887593 -5.17003e-28)
(0.000153446 0.0886216 1.63865e-27)
(-8.66958e-05 0.0886258 2.36967e-27)
(0.0571578 0.00110863 0)
(0.0557083 0.00427438 5.93138e-28)
(0.0543139 0.00855671 0)
(0.0529961 0.0148557 -9.52739e-27)
(0.0519158 0.0223028 -3.66053e-32)
(0.0509738 0.0319802 -6.08202e-27)
(0.0511817 0.0474883 7.3238e-27)
(0.0528061 0.0665717 3.70266e-27)
(0.054126 0.0846579 3.71414e-27)
(0.0530058 0.0971543 0)
(0.0479885 0.101211 -7.13805e-29)
(0.040211 0.0991931 1.68473e-28)
(0.0324988 0.0960534 -9.07781e-29)
(0.0259646 0.0938354 -1.78644e-28)
(0.0204667 0.092447 0)
(0.0157663 0.0915839 0)
(0.0117428 0.0909807 4.39723e-28)
(0.00833301 0.0905919 -1.56854e-28)
(0.00553781 0.0902733 -4.93535e-29)
(0.00325631 0.0899554 4.63564e-30)
(0.00151354 0.0896542 -4.55743e-28)
(0.000289022 0.0892732 1.20618e-27)
(-0.000284332 0.0888612 1.84084e-27)
(-0.000229751 0.0885437 0)
(0.0585979 0.00104956 2.27667e-28)
(0.0572839 0.00413199 0)
(0.0559374 0.00822434 0)
(0.054691 0.0143667 -4.88871e-27)
(0.0536261 0.0216161 5.24982e-27)
(0.0526412 0.0310074 6.39378e-30)
(0.052383 0.0454537 -2.28544e-28)
(0.0535115 0.0643885 0)
(0.0549106 0.0833071 0)
(0.0545864 0.0980167 -3.98716e-27)
(0.0507898 0.104635 3.84332e-27)
(0.0436153 0.103836 3.08146e-27)
(0.0356341 0.100304 1.67118e-28)
(0.0286545 0.0973628 0)
(0.0227927 0.0954356 1.5911e-27)
(0.0177508 0.0941382 0)
(0.0134309 0.0932337 2.05819e-28)
(0.00970109 0.0925044 2.80276e-28)
(0.0065998 0.0919053 -1.43364e-35)
(0.00403893 0.0913625 4.9388e-30)
(0.00200486 0.0908014 -1.30893e-28)
(0.00050894 0.0902243 -4.10214e-28)
(-0.000447172 0.0895068 3.15927e-28)
(-0.000758854 0.0887917 4.89083e-28)
(-0.000397403 0.0881807 -2.58107e-28)
(0.0599123 0.000976151 -7.44034e-28)
(0.0587658 0.0039156 0)
(0.0575246 0.00787425 0)
(0.0563344 0.0138775 -2.31095e-29)
(0.0552782 0.0209907 -3.16845e-29)
(0.0542981 0.0302382 0)
(0.0537157 0.0438075 -1.46678e-26)
(0.0543218 0.062372 -2.27319e-28)
(0.0555851 0.0818468 -9.65321e-28)
(0.0557621 0.0982892 -8.60833e-32)
(0.0530747 0.107493 8.22404e-27)
(0.0467678 0.10843 3.83856e-27)
(0.0387639 0.10495 -2.99703e-28)
(0.0313494 0.101316 7.65974e-29)
(0.0251027 0.0987453 2.15976e-27)
(0.0197616 0.096989 2.51462e-28)
(0.0151356 0.0957365 0)
(0.0111295 0.0946943 1.27928e-28)
(0.00770791 0.0938055 0)
(0.00485201 0.0930293 -2.16414e-29)
(0.002512 0.0922292 7.26086e-30)
(0.000725712 0.0913958 -5.32367e-28)
(-0.000522224 0.090501 -4.94036e-28)
(-0.00121278 0.089497 -6.026e-28)
(-0.00125095 0.0884285 7.07321e-28)
(-0.000581204 0.0874676 -3.54538e-28)
(0.0611143 0.000899286 0)
(0.06011 0.00362512 -2.05213e-27)
(0.0590522 0.00756216 0)
(0.0579216 0.0134064 2.32921e-28)
(0.0568565 0.0204768 1.70913e-30)
(0.0558792 0.029591 -6.58399e-27)
(0.0550875 0.0425727 -7.61218e-27)
(0.055211 0.060616 -8.13463e-27)
(0.056213 0.0804209 -9.16762e-27)
(0.0566431 0.0981923 3.62289e-27)
(0.0548507 0.109747 8.5629e-27)
(0.0495427 0.112811 1.00406e-28)
(0.0418114 0.109887 3.65423e-27)
(0.0340581 0.105688 -2.85443e-28)
(0.0274039 0.102412 0)
(0.0217599 0.100139 1.16266e-28)
(0.0168546 0.0984901 -2.35745e-35)
(0.0125833 0.0971462 0)
(0.00886348 0.0959855 0)
(0.00571152 0.0949532 -1.61816e-28)
(0.00306244 0.0939243 1.25144e-28)
(0.000958624 0.0928455 0)
(-0.000582288 0.0917182 0)
(-0.00159024 0.0905194 -4.29022e-27)
(-0.00201152 0.0891947 0)
(-0.00177178 0.0877093 9.36184e-28)
(-0.000768374 0.086413 0)
(0.0621803 0.000824529 -1.31903e-27)
(0.0613245 0.0033249 -1.42134e-27)
(0.0604463 0.00727169 0)
(0.0594299 0.0129105 0)
(0.0583857 0.0200747 -2.51005e-27)
(0.0574066 0.0289987 -7.16392e-27)
(0.0564767 0.041709 0)
(0.0561572 0.0591891 -8.53321e-27)
(0.0568073 0.0791346 -8.88076e-27)
(0.0573246 0.0978371 -4.59942e-31)
(0.0561635 0.111509 3.98744e-27)
(0.0518749 0.11684 4.24371e-27)
(0.0446604 0.114985 7.52325e-27)
(0.0367609 0.110433 3.9888e-32)
(0.0297099 0.106449 -1.32335e-28)
(0.0237356 0.103593 0)
(0.0185706 0.101516 0)
(0.0140374 0.0998469 -1.16087e-28)
(0.0100685 0.0984206 0)
(0.00661935 0.0971271 -2.28249e-28)
(0.00367964 0.0958861 0)
(0.00124255 0.0945691 3.81521e-28)
(-0.000626443 0.0932255 0)
(-0.00194745 0.0917983 0)
(-0.00271773 0.09025 -3.81322e-27)
(-0.00285743 0.0885473 2.15549e-27)
(-0.00232896 0.0866831 1.36032e-27)
(-0.000970938 0.0849923 0)
(0.0630787 0.000743308 0)
(0.062408 0.00305651 -2.18196e-27)
(0.0616688 0.00690802 0)
(0.0608019 0.0123921 8.53663e-28)
(0.0599178 0.0197122 -3.00326e-27)
(0.0588359 0.028472 -3.42394e-27)
(0.0578619 0.0411403 -7.98429e-27)
(0.057171 0.0581428 -8.80113e-27)
(0.0573996 0.078075 0)
(0.0578335 0.0974083 -9.62306e-27)
(0.0571196 0.112823 2.46897e-28)
(0.0537279 0.12048 4.57297e-27)
(0.0472285 0.120073 4.11338e-27)
(0.039367 0.115515 7.12014e-27)
(0.0320223 0.110856 1.21855e-28)
(0.0257012 0.107356 0)
(0.0202623 0.104817 2.15313e-27)
(0.0154853 0.102804 -5.71612e-29)
(0.0112735 0.101087 -1.49411e-27)
(0.00757196 0.0995436 0)
(0.00436249 0.0981065 -1.37101e-28)
(0.00160924 0.0965775 7.64095e-28)
(-0.000613433 0.0950029 6.70841e-28)
(-0.00227918 0.0933821 4.32944e-28)
(-0.00340234 0.091603 2.1002e-27)
(-0.00392114 0.0896812 9.53443e-29)
(-0.00379913 0.0876219 5.47132e-27)
(-0.00295744 0.0852933 0)
(-0.00120189 0.0831562 -1.34399e-27)
(0.0637469 0.000652562 -2.33e-27)
(0.0633367 0.00276905 1.32176e-27)
(0.0626959 0.00652726 -9.85311e-28)
(0.0620238 0.0119162 2.56037e-27)
(0.0613256 0.0193075 -3.09252e-27)
(0.060216 0.02815 -4.33315e-27)
(0.0591606 0.0408411 -8.24362e-27)
(0.058201 0.0575342 -9.55286e-27)
(0.0579654 0.0772931 -5.13585e-28)
(0.0581965 0.0970718 -1.99985e-26)
(0.057734 0.113836 -1.01194e-26)
(0.0551361 0.123677 -9.76264e-27)
(0.0494396 0.125031 -8.56449e-27)
(0.0418301 0.120865 7.84767e-27)
(0.0342626 0.115642 0)
(0.0276517 0.111447 7.18762e-32)
(0.0219389 0.108382 2.43917e-27)
(0.0169276 0.106008 0)
(0.0124702 0.103986 -1.81908e-27)
(0.00853774 0.102198 -4.35476e-29)
(0.00507168 0.100562 -2.78803e-28)
(0.00205052 0.0988584 -1.09944e-34)
(-0.000509043 0.0970624 1.47058e-27)
(-0.00254661 0.0952586 1.29956e-28)
(-0.00403961 0.0932967 -5.61288e-28)
(-0.00496212 0.0911587 2.686e-27)
(-0.00524334 0.0888398 5.99213e-27)
(-0.0048434 0.0863069 -1.29731e-31)
(-0.0036439 0.0835023 2.27995e-28)
(-0.00146462 0.0808521 -1.57589e-27)
(0.0641311 0.000554832 -1.36876e-28)
(0.0640022 0.00244999 -6.30786e-27)
(0.0636035 0.00621817 -9.73571e-28)
(0.0631173 0.0113784 5.18594e-27)
(0.0625604 0.0188357 -3.1659e-27)
(0.0616025 0.0280549 -1.14854e-27)
(0.0603141 0.0407761 -1.00337e-27)
(0.0591548 0.0573781 -9.38123e-27)
(0.0584996 0.0769462 -5.15988e-28)
(0.0584443 0.0969355 -3.9179e-28)
(0.058064 0.11469 -1.04356e-26)
(0.0560951 0.126453 -2.06119e-26)
(0.0512572 0.129747 -9.63458e-27)
(0.0440654 0.126378 -8.3926e-28)
(0.0364153 0.12078 0)
(0.0295416 0.115878 -6.42205e-27)
(0.0235815 0.112235 -1.81299e-28)
(0.0183498 0.109448 2.46537e-27)
(0.013678 0.10712 -3.03715e-29)
(0.00951419 0.105074 1.76191e-29)
(0.00581366 0.103231 -1.36039e-28)
(0.00253667 0.101371 -9.75496e-28)
(-0.000319029 0.0994067 3.75932e-28)
(-0.0027058 0.0974196 1.23974e-27)
(-0.00458676 0.095276 0)
(-0.00591771 0.0929801 -1.39412e-27)
(-0.00663762 0.0904237 6.9622e-29)
(-0.00668354 0.087639 6.84341e-27)
(-0.00597548 0.0846024 -3.51353e-27)
(-0.00440408 0.0812552 -2.50525e-28)
(-0.001768 0.0780317 -1.8112e-27)
(0.0642076 0.000446719 -1.0513e-28)
(0.0643916 0.00212075 -6.0255e-28)
(0.0644052 0.00580124 -2.62261e-27)
(0.0640204 0.0107475 4.01721e-28)
(0.0636923 0.0183882 0)
(0.0628701 0.0280984 0)
(0.0614142 0.0409962 0)
(0.0600344 0.0575773 1.17182e-31)
(0.0589759 0.0769749 0)
(0.0586055 0.0970334 1.02822e-26)
(0.058195 0.115484 0)
(0.0566502 0.128878 5.07759e-31)
(0.0526392 0.134145 -1.02907e-26)
(0.0460287 0.131916 0)
(0.0384425 0.126197 -1.12827e-27)
(0.0313556 0.12064 -1.98785e-26)
(0.0251915 0.116379 3.1038e-27)
(0.019725 0.113132 2.69988e-27)
(0.0148793 0.110476 2.41448e-27)
(0.010498 0.108163 2.31314e-29)
(0.00658703 0.106098 -5.91942e-29)
(0.00307195 0.10408 0)
(-5.60652e-05 0.101995 -3.2554e-27)
(-0.00275219 0.0998379 9.45188e-28)
(-0.00499014 0.0975176 -2.44528e-27)
(-0.00673168 0.0950729 -2.90227e-27)
(-0.00791415 0.0923786 0)
(-0.00844972 0.0893882 -8.01116e-29)
(-0.00827308 0.0860791 -8.03849e-27)
(-0.00724536 0.0824642 4.00326e-27)
(-0.00524237 0.0784992 0)
(-0.00211506 0.0746493 -2.03475e-27)
(0.0639137 0.000327599 0)
(0.0644922 0.00178814 5.52629e-28)
(0.0648453 0.00520271 9.43535e-28)
(0.0647834 0.0102676 0)
(0.0646157 0.018039 0)
(0.063854 0.0283106 0)
(0.0623894 0.0416169 0)
(0.0607634 0.0581288 1.01063e-26)
(0.059434 0.0773237 0)
(0.0587164 0.0973741 1.10781e-26)
(0.0581758 0.116317 -1.13725e-30)
(0.0568941 0.131053 1.12656e-26)
(0.0535731 0.13821 -2.17835e-26)
(0.0476477 0.137354 -1.5074e-30)
(0.0402893 0.131821 0)
(0.0330944 0.125703 -1.5629e-26)
(0.0267142 0.120795 4.7359e-27)
(0.0211011 0.117061 5.34853e-28)
(0.0160412 0.114036 2.61222e-27)
(0.0114998 0.111458 0)
(0.00737241 0.109155 -2.62247e-32)
(0.00364395 0.106978 -1.06214e-28)
(0.000283595 0.104762 6.69867e-32)
(-0.00269723 0.102461 -9.29759e-28)
(-0.00525194 0.100019 5.44305e-28)
(-0.00737272 0.0974411 -5.90861e-27)
(-0.00901464 0.0946367 -3.50092e-27)
(-0.0100838 0.0915469 1.96812e-27)
(-0.0104664 0.0880296 4.29794e-27)
(-0.0100619 0.0841397 -8.47666e-27)
(-0.00868929 0.0798617 6.42759e-27)
(-0.00618207 0.0751662 0)
(-0.00253354 0.0705733 -1.12878e-27)
(0.0632446 0.0001607 0)
(0.0642099 0.00146361 4.8554e-27)
(0.0648496 0.00466159 9.20452e-28)
(0.0652533 0.0100315 -1.32063e-27)
(0.0651436 0.0178417 3.27176e-27)
(0.0645026 0.0288453 -6.36384e-27)
(0.0630404 0.0426561 0)
(0.0612692 0.059108 -5.23097e-27)
(0.0597603 0.0781354 -6.76238e-27)
(0.0587391 0.09811 2.30235e-26)
(0.0580292 0.117305 0)
(0.0568711 0.133088 -8.7546e-29)
(0.0541048 0.141964 -1.15593e-26)
(0.0488725 0.142612 -1.07059e-26)
(0.0418981 0.13757 -9.66048e-27)
(0.03469 0.131031 8.65388e-27)
(0.0281485 0.125482 -7.51276e-27)
(0.0223928 0.121225 0)
(0.017191 0.117813 6.54574e-28)
(0.0124752 0.114947 -1.02421e-29)
(0.00817315 0.112404 4.80188e-27)
(0.00425581 0.110055 -1.89044e-28)
(0.000675854 0.107682 1.70195e-27)
(-0.00253654 0.105247 0)
(-0.00538435 0.102738 5.86682e-28)
(-0.00785496 0.100089 -1.2535e-28)
(-0.00991506 0.0971973 -3.61705e-27)
(-0.011496 0.0940224 0)
(-0.0124959 0.0904428 2.35175e-27)
(-0.0127282 0.0863333 1.01276e-26)
(-0.012092 0.0817939 1.35437e-27)
(-0.0103528 0.0767513 5.10874e-27)
(-0.00719869 0.0712229 -6.23798e-28)
(-0.00143647 0.0671336 -1.11908e-27)
(-0.00418561 0.0667307 0)
(0.0622465 1.42898e-05 1.15068e-29)
(0.0635391 0.00122494 5.03094e-27)
(0.0644646 0.00430769 8.07225e-27)
(0.0652192 0.00991144 -1.31447e-27)
(0.0652285 0.0180208 -3.38442e-27)
(0.0646703 0.0298367 -4.15048e-27)
(0.0632523 0.044103 -2.09669e-27)
(0.0614762 0.0605154 -5.39048e-27)
(0.0598267 0.0793913 1.32835e-27)
(0.0586104 0.0992524 1.09562e-26)
(0.0577225 0.118537 -1.22422e-26)
(0.0566061 0.135088 1.22599e-26)
(0.0542814 0.145456 0)
(0.0497022 0.147645 -2.25728e-26)
(0.0432183 0.143357 -2.07088e-26)
(0.0361121 0.136588 -1.54387e-32)
(0.0294717 0.130427 -8.21059e-27)
(0.0235771 0.125608 5.3206e-28)
(0.0182843 0.121828 -6.58327e-27)
(0.013406 0.118628 -1.18304e-26)
(0.00896189 0.115843 5.30638e-27)
(0.00487593 0.11329 0)
(0.00112593 0.11076 2.04161e-27)
(-0.00230885 0.108199 -4.14148e-28)
(-0.00539968 0.10562 0)
(-0.00818125 0.102957 8.06063e-28)
(-0.0106279 0.100045 -2.21495e-28)
(-0.0126658 0.0968188 4.1773e-27)
(-0.014222 0.093171 -4.73144e-27)
(-0.0151947 0.0890758 -5.14203e-27)
(-0.0153065 0.08427 -4.91398e-27)
(-0.0143712 0.0789305 -1.34766e-27)
(-0.0121902 0.0729623 3.80406e-27)
(-0.00692019 0.0672713 2.37471e-27)
(-0.00947012 0.068128 2.37929e-27)
(-0.00151645 0.0644304 -3.28475e-27)
(-0.00437508 0.0641777 -2.95789e-27)
(0.0608552 -0.000123372 -1.68194e-29)
(0.0625045 0.00107443 3.98969e-28)
(0.0636961 0.00412545 9.42168e-27)
(0.0646953 0.00991056 4.5728e-27)
(0.0648478 0.018778 -3.31207e-27)
(0.0642503 0.0312997 1.07094e-27)
(0.0629278 0.0459523 7.29192e-27)
(0.06126 0.0623605 1.81627e-27)
(0.0595965 0.0810481 4.46458e-27)
(0.0582612 0.100797 -5.18539e-27)
(0.0572237 0.120046 -1.2639e-26)
(0.0561209 0.137126 -1.8203e-28)
(0.0541216 0.148744 1.92024e-28)
(0.050153 0.152455 -1.20719e-26)
(0.0441968 0.149096 -1.10149e-26)
(0.037328 0.142328 -1.98516e-26)
(0.0306455 0.135617 0)
(0.0246483 0.130209 -8.08631e-27)
(0.0192745 0.126028 -1.43217e-26)
(0.014304 0.12251 -6.26629e-27)
(0.00972579 0.119452 -2.39254e-26)
(0.00550721 0.116676 2.53189e-28)
(0.00160033 0.113996 5.00119e-27)
(-0.00201194 0.111313 0)
(-0.00533841 0.108661 1.73738e-27)
(-0.00837139 0.105974 4.32006e-28)
(-0.0111418 0.103103 -3.54643e-28)
(-0.0136025 0.0999043 3.90561e-28)
(-0.0156765 0.0962847 1.52753e-28)
(-0.0172622 0.092098 -5.37906e-27)
(-0.0182428 0.0873779 -5.47817e-27)
(-0.0182532 0.0817409 -8.76543e-27)
(-0.0152372 0.0751534 -1.83387e-27)
(-0.0175168 0.0767967 3.7828e-28)
(-0.0122049 0.068961 1.11713e-31)
(-0.0163296 0.0740113 -9.80344e-28)
(-0.0149876 0.0700593 1.21862e-27)
(-0.00737786 0.0648079 2.52849e-27)
(-0.0101959 0.0656202 2.53109e-27)
(-0.00150837 0.0616359 0)
(-0.00462983 0.0614303 0)
(0.0590308 -0.000239701 -6.66201e-27)
(0.0610802 0.00100682 3.43753e-28)
(0.0624979 0.00411376 0)
(0.0636595 0.0102251 5.13184e-27)
(0.0638731 0.020218 4.44756e-27)
(0.0632402 0.0332287 1.21435e-26)
(0.0620611 0.0482137 2.71264e-27)
(0.060555 0.0646337 -3.62005e-27)
(0.0589859 0.083122 3.04124e-27)
(0.0576224 0.102707 -7.30127e-27)
(0.0565295 0.121851 0)
(0.0554134 0.139257 -1.28896e-26)
(0.0536631 0.151894 -4.67812e-28)
(0.0502364 0.157049 1.27119e-26)
(0.0448241 0.15474 -1.18019e-26)
(0.0382804 0.148172 -2.1274e-26)
(0.0316603 0.141026 -9.56788e-27)
(0.0255903 0.135035 -1.72761e-26)
(0.0201324 0.130389 -1.58394e-26)
(0.0151273 0.126567 -5.20914e-28)
(0.0104509 0.12322 -3.94404e-26)
(0.00612552 0.120229 0)
(0.00209828 0.117374 6.41608e-27)
(-0.00167115 0.114583 0)
(-0.00519544 0.11186 4.71396e-27)
(-0.00846723 0.109136 5.28579e-28)
(-0.011493 0.106296 2.07693e-32)
(-0.0142927 0.103189 8.32999e-28)
(-0.0168217 0.0996698 1.38603e-32)
(-0.0190252 0.0956378 -5.57619e-27)
(-0.0206938 0.0907762 1.58582e-29)
(-0.021732 0.0851962 -2.16499e-27)
(-0.0196551 0.0783116 6.66597e-27)
(-0.0218186 0.0803033 3.03812e-27)
(-0.0188155 0.0752603 6.15782e-28)
(-0.0132621 0.0665024 1.45901e-27)
(-0.0177792 0.0714431 -1.29209e-27)
(-0.0162069 0.067644 1.45934e-27)
(-0.00784312 0.0621281 -5.22541e-29)
(-0.0110201 0.062954 -6.17023e-27)
(-0.00158292 0.0586606 -3.22382e-27)
(-0.00491711 0.0584622 -7.44913e-31)
(0.0568208 -0.000282996 0)
(0.0591826 0.00103654 -6.93238e-27)
(0.0608914 0.00437004 -6.9554e-27)
(0.0621174 0.0110824 4.35665e-27)
(0.0622864 0.0222122 -3.17067e-27)
(0.0616294 0.035657 8.38158e-27)
(0.0606149 0.0508706 -4.98765e-27)
(0.0593202 0.0672786 1.18251e-30)
(0.0579323 0.0855643 0)
(0.0566575 0.104944 9.76014e-28)
(0.0555861 0.123929 6.64699e-27)
(0.0544921 0.141516 0)
(0.0529393 0.154964 -1.00427e-30)
(0.0499823 0.161429 6.15828e-32)
(0.0451151 0.160236 -2.44676e-26)
(0.0389497 0.154041 -1.12898e-26)
(0.0324968 0.146598 -1.02208e-26)
(0.0263994 0.140068 -1.85591e-26)
(0.0208789 0.134927 -8.46701e-27)
(0.0158348 0.130758 -1.57124e-26)
(0.0111134 0.12715 -1.45448e-26)
(0.00670025 0.123922 -3.41037e-28)
(0.00257548 0.120899 -3.12196e-27)
(-0.00129707 0.117989 0)
(-0.00498981 0.115204 2.70547e-27)
(-0.00847806 0.112446 -5.8805e-28)
(-0.0117304 0.109611 1.34069e-27)
(-0.0147819 0.106599 9.76532e-28)
(-0.0176895 0.103251 1.60228e-27)
(-0.0203316 0.0993343 -7.74334e-28)
(-0.0227547 0.094818 3.06609e-28)
(-0.0246297 0.089149 -6.52547e-29)
(-0.0237436 0.0820711 -1.60021e-27)
(-0.0256462 0.0844202 0)
(-0.0213376 0.0768578 1.25947e-26)
(-0.0236293 0.0787408 0)
(-0.0205018 0.0730287 -6.88741e-32)
(-0.014269 0.063856 1.68396e-27)
(-0.0192037 0.0690761 -1.37721e-27)
(-0.0175203 0.0650544 1.94442e-32)
(-0.00837093 0.0592254 3.73395e-27)
(-0.0118281 0.0600793 -3.63478e-27)
(-0.00167084 0.0554935 -1.46137e-64)
(-0.00521 0.0552857 5.43856e-27)
(0.0542823 -0.000245593 -7.7873e-27)
(0.0568311 0.00120724 2.25931e-28)
(0.0588554 0.00494698 -1.26671e-27)
(0.0600049 0.0126264 -5.94813e-27)
(0.0600713 0.0247569 1.63575e-27)
(0.0594836 0.0385595 -9.16606e-29)
(0.0585785 0.0538713 -3.24736e-27)
(0.0575583 0.0702453 3.23078e-27)
(0.0564221 0.0882964 -9.54743e-27)
(0.0553229 0.107432 0)
(0.0543401 0.126256 6.7771e-27)
(0.053344 0.14391 -6.56899e-27)
(0.051965 0.157984 0)
(0.0494283 0.1656 -1.42032e-26)
(0.0450946 0.165547 -6.09566e-32)
(0.0393509 0.15987 8.70348e-29)
(0.0331182 0.152268 -5.96276e-30)
(0.027075 0.145276 -1.96973e-26)
(0.0215145 0.139629 -9.03677e-27)
(0.0164249 0.135085 -1.66708e-26)
(0.0116894 0.131208 -7.76333e-27)
(0.00722185 0.127732 0)
(0.00302669 0.124552 -1.44498e-26)
(-0.00094993 0.12154 0)
(-0.00473794 0.118677 6.08937e-27)
(-0.00840792 0.115885 0)
(-0.0118811 0.113065 1.33349e-31)
(-0.0151316 0.110096 9.11077e-28)
(-0.0182902 0.106947 1.67279e-27)
(-0.0214024 0.103314 1.38208e-27)
(-0.0241621 0.0988453 0)
(-0.0269293 0.0936423 -1.72941e-27)
(-0.0272497 0.086448 -1.69854e-27)
(-0.0287816 0.0891256 -8.31051e-31)
(-0.0258775 0.0808435 -1.63141e-27)
(-0.0278443 0.0831485 2.02213e-29)
(-0.0231815 0.074858 5.87174e-27)
(-0.0257562 0.0769412 -1.49706e-28)
(-0.0221962 0.0707749 -8.53091e-28)
(-0.0153429 0.0609875 -9.158e-31)
(-0.0207889 0.0665681 -1.58384e-27)
(-0.0188862 0.0622313 0)
(-0.00891016 0.0561054 2.44332e-27)
(-0.0126441 0.0569726 -3.51771e-27)
(-0.00176363 0.0521348 2.9308e-27)
(-0.00551299 0.0519064 2.51526e-27)
(0.0513814 -0.000160384 0)
(0.0541533 0.00155845 -1.52741e-26)
(0.0563296 0.00589567 -6.02999e-28)
(0.0573429 0.0149051 -3.16809e-35)
(0.0572502 0.0278593 5.40925e-27)
(0.056786 0.0418806 -8.00437e-31)
(0.0560494 0.0571834 1.39285e-27)
(0.0553003 0.0734361 2.54192e-27)
(0.0544466 0.0912405 -6.15679e-27)
(0.0535967 0.110121 -8.63153e-28)
(0.0527948 0.128793 0)
(0.051933 0.146424 -7.01725e-27)
(0.0507557 0.160973 7.12657e-28)
(0.0485924 0.169571 0)
(0.0447834 0.170646 1.50697e-31)
(0.0394852 0.165606 1.24776e-28)
(0.0335235 0.157985 -1.1414e-26)
(0.0275963 0.15062 -1.04592e-26)
(0.0220353 0.144479 -9.59936e-27)
(0.0169126 0.139545 -8.86312e-27)
(0.012157 0.135376 -8.80647e-29)
(0.00768055 0.131653 -7.80729e-27)
(0.00343487 0.128309 -1.48302e-26)
(-0.000621561 0.125216 -5.84048e-27)
(-0.00451306 0.12228 6.75311e-27)
(-0.00827816 0.119458 -1.28589e-26)
(-0.0119366 0.116632 0)
(-0.0154015 0.113738 -1.83971e-28)
(-0.0187234 0.110682 -1.05192e-27)
(-0.0220563 0.107343 0)
(-0.0254502 0.103409 3.16855e-27)
(-0.0285856 0.0983724 1.11493e-28)
(-0.0300192 0.0913866 -3.53875e-27)
(-0.0312227 0.0944103 1.82939e-27)
(-0.0297047 0.0856354 1.10188e-29)
(-0.0312926 0.0883072 4.18077e-33)
(-0.0281704 0.0792732 -1.67695e-27)
(-0.0303999 0.0818258 4.11663e-29)
(-0.0251365 0.0727701 7.52107e-28)
(-0.0279828 0.0750813 1.23869e-27)
(-0.0240612 0.0683823 1.75541e-27)
(-0.01644 0.0578772 -3.38885e-27)
(-0.0224728 0.0638344 -1.0217e-27)
(-0.0203011 0.0591699 -2.65451e-28)
(-0.00945541 0.0527755 4.33449e-27)
(-0.0134426 0.0536319 -4.07423e-27)
(-0.0018528 0.048586 -2.63872e-27)
(-0.00581711 0.0483354 -6.68173e-27)
(0.0481435 -7.27034e-06 -1.1986e-28)
(0.0511585 0.00208544 -1.02048e-31)
(0.0533524 0.0073182 -1.55541e-26)
(0.0542069 0.0178481 -2.07045e-27)
(0.0539436 0.031409 -5.61932e-27)
(0.0535892 0.0455187 9.27904e-27)
(0.0530855 0.0607484 3.82013e-31)
(0.0525927 0.0767369 -5.2183e-27)
(0.0520714 0.0943256 1.20826e-30)
(0.0514966 0.112953 -6.56544e-27)
(0.050933 0.131469 0)
(0.0502644 0.149019 -7.10434e-27)
(0.0493102 0.163927 7.99494e-27)
(0.0475058 0.173367 -9.78854e-28)
(0.0441952 0.17552 -1.37603e-26)
(0.0393637 0.17121 0)
(0.0337117 0.163702 -1.1963e-26)
(0.0279425 0.156044 0)
(0.0224368 0.149457 1.01606e-26)
(0.0173168 0.144131 0)
(0.0125318 0.139635 -2.1698e-32)
(0.00804317 0.135696 -1.67381e-26)
(0.00378086 0.132177 -7.96523e-27)
(-0.000333346 0.128988 -7.84137e-27)
(-0.00430795 0.126002 3.48012e-27)
(-0.00815883 0.123129 -3.82628e-30)
(-0.0119339 0.120334 0)
(-0.0155626 0.117468 -3.12112e-27)
(-0.0190485 0.114558 2.02185e-27)
(-0.0225888 0.111478 1.61068e-34)
(-0.0261313 0.107796 -1.51775e-27)
(-0.0299859 0.103816 8.86662e-28)
(-0.0320797 0.0969663 3.48569e-29)
(-0.0333116 0.100667 -8.56931e-29)
(-0.0327353 0.0912228 -7.3542e-27)
(-0.03405 0.0944981 7.44394e-34)
(-0.0323964 0.0846483 -1.72996e-27)
(-0.0342084 0.0878238 1.78567e-27)
(-0.0307209 0.0776879 -1.18203e-28)
(-0.0331785 0.0806353 -8.03582e-29)
(-0.0273288 0.0705615 1.5052e-27)
(-0.0305909 0.0731674 0)
(-0.0261196 0.0657953 1.07978e-27)
(-0.0175251 0.0545347 2.8638e-27)
(-0.0243039 0.060875 -1.612e-27)
(-0.0217972 0.0558697 -1.01159e-27)
(-0.0099871 0.0492502 -3.23202e-28)