/*--------------------------------*- C++ -*----------------------------------*\
  =========                 |
  \\      /  F ield         | OpenFOAM: The Open Source CFD Toolbox
   \\    /   O peration     | Website:  https://openfoam.org
    \\  /    A nd           | Version:  dev
     \\/     M anipulation  |
\*---------------------------------------------------------------------------*/
FoamFile
{
    version     2.0;
    format      ascii;
    class       volScalarField;
    location    "2500";
    object      a;
}
// * * * * * * * * * * * * * * * * * * * * * * * * * * * * * * * * * * * * * //

dimensions      [0 -1 0 0 0 0 0];

internalField   nonuniform List<scalar> 
9836
(
0.100011
0.100011
0.100011
0.100011
0.100011
0.100011
0.100011
0.100011
0.100011
0.100011
0.10001
0.100011
0.100011
0.100011
0.100011
0.10001
0.10001
0.100011
0.100011
0.100011
0.100011
0.10001
0.10001
0.10001
0.100011
0.100011
0.100011
0.100011
0.10001
0.10001
0.10001
0.10001
0.100011
0.100011
0.100011
0.100011
0.100009
0.10001
0.10001
0.10001
0.10001
0.100011
0.100011
0.100011
0.100011
0.100009
0.100009
0.10001
0.10001
0.10001
0.10001
0.100011
0.100011
0.100011
0.100011
0.100009
0.100009
0.100009
0.10001
0.10001
0.10001
0.10001
0.100011
0.100011
0.100011
0.100011
0.100009
0.100009
0.100009
0.100009
0.10001
0.10001
0.10001
0.10001
0.100011
0.100011
0.100011
0.100011
0.100009
0.100009
0.100009
0.100009
0.100009
0.10001
0.10001
0.10001
0.10001
0.100011
0.100011
0.100011
0.100011
0.100008
0.100009
0.100009
0.100009
0.100009
0.100009
0.10001
0.10001
0.10001
0.10001
0.100011
0.100011
0.100011
0.100011
0.100008
0.100008
0.100009
0.100009
0.100009
0.100009
0.100009
0.10001
0.10001
0.10001
0.10001
0.100011
0.100011
0.100011
0.100011
0.100008
0.100008
0.100008
0.100009
0.100009
0.100009
0.100009
0.100009
0.10001
0.10001
0.10001
0.10001
0.100011
0.100011
0.100011
0.100011
0.100008
0.100008
0.100008
0.100008
0.100009
0.100009
0.100009
0.100009
0.100009
0.10001
0.10001
0.10001
0.10001
0.100011
0.100011
0.100011
0.100011
0.100007
0.100008
0.100008
0.100008
0.100008
0.100009
0.100009
0.100009
0.100009
0.100009
0.10001
0.10001
0.10001
0.10001
0.100011
0.100011
0.100011
0.100011
0.100007
0.100007
0.100008
0.100008
0.100008
0.100008
0.100009
0.100009
0.100009
0.100009
0.100009
0.10001
0.10001
0.10001
0.10001
0.100011
0.100011
0.100011
0.100011
0.100007
0.100007
0.100007
0.100008
0.100008
0.100008
0.100008
0.100009
0.100009
0.100009
0.100009
0.100009
0.10001
0.10001
0.10001
0.10001
0.100011
0.100011
0.100011
0.100011
0.100007
0.100007
0.100007
0.100007
0.100008
0.100008
0.100008
0.100008
0.100008
0.100009
0.100009
0.100009
0.100009
0.10001
0.10001
0.10001
0.10001
0.100011
0.100011
0.100011
0.100011
0.100006
0.100007
0.100007
0.100007
0.100007
0.100008
0.100008
0.100008
0.100008
0.100008
0.100009
0.100009
0.100009
0.100009
0.10001
0.10001
0.10001
0.10001
0.100011
0.100011
0.100011
0.100011
0.100006
0.100006
0.100007
0.100007
0.100007
0.100007
0.100008
0.100008
0.100008
0.100008
0.100008
0.100009
0.100009
0.100009
0.100009
0.10001
0.10001
0.10001
0.10001
0.100011
0.100011
0.100011
0.100011
0.100006
0.100006
0.100006
0.100007
0.100007
0.100007
0.100007
0.100008
0.100008
0.100008
0.100008
0.100008
0.100009
0.100009
0.100009
0.100009
0.10001
0.10001
0.10001
0.10001
0.100011
0.100011
0.100011
0.100011
0.100006
0.100006
0.100006
0.100006
0.100007
0.100007
0.100007
0.100007
0.100008
0.100008
0.100008
0.100008
0.100008
0.100009
0.100009
0.100009
0.100009
0.10001
0.10001
0.10001
0.10001
0.100011
0.100011
0.100011
0.100011
0.100006
0.100006
0.100006
0.100006
0.100006
0.100007
0.100007
0.100007
0.100007
0.100008
0.100008
0.100008
0.100008
0.100008
0.100009
0.100009
0.100009
0.100009
0.10001
0.10001
0.10001
0.10001
0.100011
0.100011
0.100011
0.100011
0.100005
0.100006
0.100006
0.100006
0.100006
0.100006
0.100007
0.100007
0.100007
0.100007
0.100008
0.100008
0.100008
0.100008
0.100008
0.100009
0.100009
0.100009
0.100009
0.10001
0.10001
0.10001
0.10001
0.100011
0.100011
0.100011
0.100011
0.100005
0.100005
0.100006
0.100006
0.100006
0.100006
0.100006
0.100007
0.100007
0.100007
0.100007
0.100008
0.100008
0.100008
0.100008
0.100008
0.100009
0.100009
0.100009
0.100009
0.10001
0.10001
0.10001
0.10001
0.100011
0.100011
0.100011
0.100011
0.100005
0.100005
0.100005
0.100006
0.100006
0.100006
0.100006
0.100006
0.100007
0.100007
0.100007
0.100007
0.100008
0.100008
0.100008
0.100008
0.100008
0.100009
0.100009
0.100009
0.100009
0.10001
0.10001
0.10001
0.10001
0.100011
0.100011
0.100011
0.100011
0.100005
0.100005
0.100005
0.100005
0.100006
0.100006
0.100006
0.100006
0.100006
0.100007
0.100007
0.100007
0.100007
0.100008
0.100008
0.100008
0.100008
0.100008
0.100009
0.100009
0.100009
0.100009
0.10001
0.10001
0.10001
0.10001
0.100011
0.100011
0.100011
0.100011
0.100004
0.100005
0.100005
0.100005
0.100005
0.100006
0.100006
0.100006
0.100006
0.100006
0.100007
0.100007
0.100007
0.100007
0.100008
0.100008
0.100008
0.100008
0.100008
0.100009
0.100009
0.100009
0.100009
0.10001
0.10001
0.10001
0.10001
0.100011
0.100011
0.100011
0.100011
0.100004
0.100004
0.100005
0.100005
0.100005
0.100005
0.100006
0.100006
0.100006
0.100006
0.100006
0.100007
0.100007
0.100007
0.100007
0.100008
0.100008
0.100008
0.100008
0.100008
0.100009
0.100009
0.100009
0.100009
0.10001
0.10001
0.10001
0.10001
0.100011
0.100011
0.100011
0.100011
0.100004
0.100004
0.100004
0.100005
0.100005
0.100005
0.100005
0.100006
0.100006
0.100006
0.100006
0.100006
0.100007
0.100007
0.100007
0.100007
0.100008
0.100008
0.100008
0.100008
0.100008
0.100009
0.100009
0.100009
0.100009
0.10001
0.10001
0.10001
0.10001
0.100011
0.100011
0.100011
0.100011
0.100004
0.100004
0.100004
0.100004
0.100005
0.100005
0.100005
0.100005
0.100006
0.100006
0.100006
0.100006
0.100006
0.100007
0.100007
0.100007
0.100007
0.100008
0.100008
0.100008
0.100008
0.100008
0.100009
0.100009
0.100009
0.100009
0.10001
0.10001
0.10001
0.10001
0.100011
0.100011
0.100011
0.100011
0.100011
0.100004
0.100004
0.100004
0.100004
0.100004
0.100005
0.100005
0.100005
0.100005
0.100006
0.100006
0.100006
0.100006
0.100006
0.100007
0.100007
0.100007
0.100007
0.100008
0.100008
0.100008
0.100008
0.100008
0.100009
0.100009
0.100009
0.100009
0.10001
0.10001
0.10001
0.10001
0.100011
0.100011
0.100011
0.100011
0.100011
0.100011
0.100003
0.100004
0.100004
0.100004
0.100004
0.100004
0.100005
0.100005
0.100005
0.100005
0.100006
0.100006
0.100006
0.100006
0.100006
0.100007
0.100007
0.100007
0.100007
0.100008
0.100008
0.100008
0.100008
0.100008
0.100009
0.100009
0.100009
0.100009
0.10001
0.10001
0.10001
0.10001
0.100011
0.10001
0.100011
0.100011
0.100011
0.100011
0.100011
0.100011
0.100011
0.100003
0.100003
0.100004
0.100004
0.100004
0.100004
0.100004
0.100005
0.100005
0.100005
0.100005
0.100006
0.100006
0.100006
0.100006
0.100006
0.100007
0.100007
0.100007
0.100007
0.100008
0.100008
0.100008
0.100008
0.100008
0.100009
0.100009
0.100009
0.100009
0.10001
0.10001
0.10001
0.10001
0.10001
0.10001
0.100011
0.100011
0.100011
0.100011
0.100011
0.100011
0.100011
0.100003
0.100003
0.100003
0.100004
0.100004
0.100004
0.100004
0.100004
0.100005
0.100005
0.100005
0.100005
0.100006
0.100006
0.100006
0.100006
0.100006
0.100007
0.100007
0.100007
0.100007
0.100008
0.100008
0.100008
0.100008
0.100008
0.100009
0.100009
0.100009
0.100009
0.10001
0.10001
0.10001
0.10001
0.10001
0.10001
0.100011
0.100011
0.100011
0.100011
0.100011
0.100011
0.100011
0.100011
0.100003
0.100003
0.100003
0.100003
0.100004
0.100004
0.100004
0.100004
0.100004
0.100005
0.100005
0.100005
0.100005
0.100006
0.100006
0.100006
0.100006
0.100006
0.100007
0.100007
0.100007
0.100007
0.100008
0.100008
0.100008
0.100008
0.100008
0.100009
0.100009
0.100009
0.10001
0.10001
0.100011
0.100013
0.100011
0.100013
0.100011
0.100012
0.100011
0.100011
0.100011
0.100012
0.100011
0.100011
0.100011
0.100011
0.100002
0.100003
0.100003
0.100003
0.100003
0.100004
0.100004
0.100004
0.100004
0.100004
0.100005
0.100005
0.100005
0.100005
0.100006
0.100006
0.100006
0.100006
0.100006
0.100007
0.100007
0.100007
0.100007
0.100008
0.100008
0.100008
0.100008
0.100008
0.100009
0.100009
0.10001
0.100013
0.100018
0.10003
0.10002
0.10004
0.100018
0.100039
0.100014
0.100027
0.100016
0.100012
0.100018
0.100018
0.100011
0.100011
0.100011
0.100011
0.100002
0.100002
0.100003
0.100003
0.100003
0.100003
0.100004
0.100004
0.100004
0.100004
0.100004
0.100005
0.100005
0.100005
0.100005
0.100006
0.100006
0.100006
0.100006
0.100006
0.100007
0.100007
0.100007
0.100007
0.100008
0.100008
0.100008
0.100008
0.100008
0.100009
0.10001
0.100022
0.100055
0.100107
0.100089
0.100203
0.100102
0.100272
0.100079
0.100249
0.10004
0.100148
0.100056
0.100017
0.100068
0.100071
0.100011
0.100015
0.100011
0.100011
0.100002
0.100002
0.100002
0.100003
0.100003
0.100003
0.100003
0.100004
0.100004
0.100004
0.100004
0.100004
0.100005
0.100005
0.100005
0.100005
0.100006
0.100006
0.100006
0.100006
0.100006
0.100007
0.100007
0.100007
0.100007
0.100008
0.100008
0.100008
0.100008
0.100008
0.100009
0.100031
0.100172
0.10026
0.100428
0.100809
0.100664
0.101506
0.100723
0.101867
0.100531
0.101649
0.100246
0.10097
0.100351
0.100062
0.100423
0.10043
0.100013
0.100044
0.100011
0.100012
0.100002
0.100002
0.100002
0.100002
0.100003
0.100003
0.100003
0.100003
0.100004
0.100004
0.100004
0.100004
0.100004
0.100005
0.100005
0.100005
0.100005
0.100006
0.100006
0.100006
0.100006
0.100006
0.100007
0.100007
0.100007
0.100007
0.100008
0.100008
0.100008
0.100008
0.100009
0.100029
0.10033
0.10039
0.101279
0.101828
0.102924
0.104921
0.10429
0.108569
0.104407
0.110281
0.10321
0.108865
0.101531
0.105341
0.102064
0.100357
0.10238
0.102337
0.100028
0.100237
0.100011
0.100018
0.100001
0.100002
0.100002
0.100002
0.100002
0.100003
0.100003
0.100003
0.100003
0.100004
0.100004
0.100004
0.100004
0.100004
0.100005
0.100005
0.100005
0.100005
0.100006
0.100006
0.100006
0.100006
0.100006
0.100007
0.100007
0.100007
0.100007
0.100008
0.100008
0.100008
0.100008
0.10002
0.100392
0.100372
0.102271
0.102668
0.107228
0.109651
0.114524
0.121784
0.120514
0.134363
0.120992
0.140902
0.115428
0.136645
0.107769
0.123287
0.10982
0.101902
0.110826
0.110274
0.100125
0.101239
0.100013
0.100055
0.100001
0.100001
0.100002
0.100002
0.100002
0.100002
0.100003
0.100003
0.100003
0.100003
0.100004
0.100004
0.100004
0.100004
0.100004
0.100005
0.100005
0.100005
0.100005
0.100006
0.100006
0.100006
0.100006
0.100006
0.100007
0.100007
0.100007
0.100007
0.100008
0.100008
0.100008
0.100018
0.100326
0.100163
0.102709
0.102584
0.111576
0.113237
0.129352
0.136543
0.150494
0.167125
0.165957
0.193059
0.168933
0.205696
0.155762
0.200211
0.131055
0.17465
0.13663
0.108215
0.138503
0.135671
0.100638
0.105357
0.100021
0.100251
0.100001
0.100001
0.100001
0.100002
0.100002
0.100002
0.100002
0.100003
0.100003
0.100003
0.100003
0.100004
0.100004
0.100004
0.100004
0.100004
0.100005
0.100005
0.100005
0.100005
0.100006
0.100006
0.100006
0.100006
0.100006
0.100007
0.100007
0.100007
0.100007
0.100008
0.100008
0.100014
0.100552
0.10234
0.102158
0.113631
0.113391
0.142042
0.146431
0.182508
0.195471
0.21961
0.243641
0.243021
0.277884
0.247314
0.292636
0.229812
0.285362
0.190053
0.253831
0.198881
0.128298
0.199646
0.19086
0.10278
0.118535
0.100066
0.101043
0.100001
0.100001
0.100001
0.100001
0.100002
0.100002
0.100002
0.100002
0.100003
0.100003
0.100003
0.100003
0.100004
0.100004
0.100004
0.100004
0.100004
0.100005
0.100005
0.100005
0.100005
0.100006
0.100006
0.100006
0.100006
0.100006
0.100007
0.100007
0.100007
0.100007
0.100008
0.100011
0.10027
0.108715
0.106655
0.112569
0.110852
0.147779
0.147345
0.204819
0.211606
0.263938
0.279529
0.309332
0.336022
0.335281
0.371982
0.338296
0.38599
0.31674
0.376434
0.270394
0.339875
0.278428
0.172379
0.277587
0.26646
0.10956
0.14955
0.100233
0.103515
0.100001
0.100001
0.100001
0.100001
0.100001
0.100002
0.100002
0.100002
0.100002
0.100003
0.100003
0.100003
0.100003
0.100004
0.100004
0.100004
0.100004
0.100004
0.100005
0.100005
0.100005
0.100005
0.100006
0.100006
0.100006
0.100006
0.100006
0.100007
0.100007
0.100007
0.100007
0.100009
0.1001
0.104704
0.103218
0.135572
0.129127
0.145465
0.141327
0.213195
0.212295
0.2904
0.297292
0.357087
0.372556
0.40518
0.430064
0.430264
0.463273
0.431675
0.476292
0.405748
0.466728
0.354163
0.425794
0.359407
0.242365
0.355521
0.340585
0.126914
0.20496
0.100634
0.109716
0.1
0.100001
0.100001
0.100001
0.100001
0.100001
0.100002
0.100002
0.100002
0.100002
0.100003
0.100003
0.100003
0.100003
0.100004
0.100004
0.100004
0.100004
0.100004
0.100005
0.100005
0.100005
0.100005
0.100006
0.100006
0.100006
0.100006
0.100006
0.100007
0.100007
0.100007
0.100009
0.10007
0.102142
0.100989
0.12246
0.116442
0.192311
0.180769
0.20901
0.201982
0.297562
0.295803
0.383214
0.387614
0.446818
0.45565
0.480015
0.487202
0.497231
0.504132
0.504899
0.517501
0.491434
0.523721
0.436661
0.50697
0.438254
0.314196
0.430997
0.41404
0.159663
0.273776
0.101502
0.123759
0.1
0.1
0.100001
0.100001
0.100001
0.100001
0.100001
0.100002
0.100002
0.100002
0.100002
0.100003
0.100003
0.100003
0.100003
0.100004
0.100004
0.100004
0.100004
0.100004
0.100005
0.100005
0.100005
0.100005
0.100006
0.100006
0.100006
0.100006
0.100006
0.100007
0.100007
0.100009
0.100047
0.102136
0.111184
0.107791
0.167853
0.15452
0.268184
0.253058
0.290668
0.280938
0.386743
0.383486
0.459227
0.458562
0.4878
0.485992
0.502389
0.498317
0.515433
0.508829
0.528829
0.523481
0.537752
0.538732
0.514484
0.549056
0.513151
0.385447
0.503109
0.484625
0.214807
0.343091
0.103293
0.148516
0.1
0.1
0.100001
0.100001
0.100001
0.100001
0.100001
0.100002
0.100002
0.100002
0.100002
0.100003
0.100003
0.100003
0.100003
0.100003
0.100004
0.100004
0.100004
0.100004
0.100005
0.100005
0.100005
0.100005
0.100006
0.100006
0.100006
0.100006
0.100007
0.100008
0.100011
0.100047
0.100819
0.121861
0.115537
0.141685
0.13104
0.236082
0.218161
0.349185
0.331857
0.375766
0.36391
0.45667
0.452673
0.483381
0.480222
0.491172
0.482611
0.495046
0.474019
0.506385
0.474883
0.527708
0.496372
0.548451
0.530934
0.558282
0.558879
0.564556
0.455604
0.563018
0.547031
0.280879
0.413184
0.107491
0.190029
0.1
0.1
0.100001
0.100001
0.100001
0.100001
0.100001
0.100002
0.100002
0.100002
0.100002
0.100003
0.100003
0.100003
0.100003
0.100004
0.100004
0.100004
0.100004
0.100004
0.100005
0.100005
0.100005
0.100005
0.100006
0.100006
0.100007
0.100009
0.100013
0.100018
0.100059
0.100663
0.111136
0.105534
0.163554
0.147652
0.199645
0.181652
0.312187
0.290989
0.42152
0.405231
0.445669
0.434974
0.477124
0.474283
0.474202
0.467709
0.453387
0.436148
0.439953
0.410142
0.44983
0.406228
0.486591
0.430163
0.536761
0.483268
0.570425
0.547059
0.582204
0.52246
0.590655
0.592569
0.564847
0.352982
0.485098
0.116584
0.256791
0.1
0.1
0.100001
0.100001
0.100001
0.100001
0.100001
0.100002
0.100002
0.100002
0.100002
0.100003
0.100003
0.100003
0.100003
0.100004
0.100004
0.100004
0.100004
0.100005
0.100005
0.100005
0.100005
0.100006
0.100007
0.100011
0.100021
0.100031
0.100054
0.100113
0.100666
0.110357
0.135063
0.126824
0.224861
0.20478
0.268855
0.246679
0.385999
0.364424
0.462591
0.453814
0.471491
0.468231
0.464009
0.462828
0.425547
0.420229
0.39301
0.387473
0.378
0.369265
0.384036
0.359865
0.421069
0.371746
0.489155
0.42186
0.562323
0.497885
0.530873
0.587244
0.57385
0.586615
0.542163
0.582947
0.598938
0.591348
0.581937
0.602478
0.43999
0.571191
0.56299
0.512716
0.16434
0.425515
0.1
0.1
0.100001
0.100001
0.100001
0.100001
0.100001
0.100002
0.100002
0.100002
0.100002
0.100003
0.100003
0.100003
0.100003
0.100004
0.100004
0.100004
0.100005
0.100005
0.100006
0.100007
0.100008
0.100012
0.100031
0.100072
0.100134
0.10021
0.100304
0.100896
0.108848
0.155051
0.139832
0.185295
0.170388
0.292063
0.268681
0.340964
0.316583
0.441313
0.425125
0.466294
0.466103
0.463404
0.46492
0.420667
0.423121
0.387954
0.390449
0.37004
0.373755
0.356374
0.361018
0.348418
0.347931
0.393777
0.367854
0.352289
0.341984
0.467119
0.429378
0.366854
0.366848
0.398511
0.507998
0.552339
0.518875
0.474014
0.561653
0.603288
0.600813
0.5999
0.584354
0.572968
0.606163
0.55027
0.499371
0.54925
0.596689
0.590829
0.337287
0.555773
0.566735
0.51686
0.1
0.100001
0.100001
0.100001
0.100001
0.100001
0.100001
0.100002
0.100002
0.100002
0.100002
0.100003
0.100003
0.100003
0.100004
0.100005
0.100006
0.100008
0.10001
0.100011
0.100012
0.100015
0.100032
0.100115
0.100359
0.100736
0.100975
0.101092
0.101809
0.109412
0.159534
0.208109
0.200914
0.246139
0.22768
0.358762
0.334504
0.405317
0.382866
0.464143
0.45859
0.444829
0.45335
0.428581
0.436034
0.395344
0.401337
0.37922
0.384996
0.369451
0.378897
0.358547
0.375883
0.341021
0.344561
0.35226
0.364161
0.348389
0.339119
0.337956
0.438544
0.402787
0.346652
0.346979
0.371603
0.485111
0.532858
0.498279
0.448399
0.545708
0.610698
0.613022
0.595021
0.559048
0.572389
0.604597
0.586895
0.589382
0.61359
0.613581
0.531664
0.105049
0.256697
0.599155
0.595564
0.100001
0.100001
0.100001
0.100001
0.100001
0.100001
0.100001
0.100002
0.100002
0.100002
0.100003
0.100003
0.100004
0.100007
0.100011
0.100018
0.100025
0.100031
0.100034
0.100036
0.100043
0.1001
0.100481
0.101876
0.104
0.104706
0.10431
0.104749
0.112464
0.158641
0.245396
0.224686
0.270393
0.255373
0.310867
0.289879
0.413791
0.393069
0.447624
0.432498
0.459421
0.461721
0.425394
0.43572
0.408328
0.416354
0.390913
0.39733
0.387496
0.393559
0.392445
0.404604
0.376118
0.389641
0.40081
0.412541
0.342741
0.353476
0.367397
0.382915
0.336698
0.33591
0.341802
0.411063
0.376703
0.335402
0.335419
0.34956
0.460711
0.512494
0.474927
0.421583
0.52708
0.6125
0.618727
0.585518
0.5421
0.557324
0.597984
0.614648
0.618555
0.623488
0.627646
0.462422
0.109631
0.218775
0.620676
0.586114
0.100005
0.100002
0.100001
0.100001
0.100001
0.100001
0.100001
0.100002
0.100002
0.100003
0.100005
0.10001
0.100021
0.100045
0.100081
0.100113
0.100127
0.100125
0.100118
0.100126
0.100302
0.101878
0.108168
0.116814
0.119539
0.115907
0.113574
0.121042
0.164068
0.265437
0.303094
0.304764
0.332381
0.31722
0.371673
0.351287
0.448747
0.435191
0.461135
0.457613
0.446771
0.455463
0.420558
0.430106
0.40425
0.411967
0.397914
0.402761
0.411325
0.411671
0.420863
0.428732
0.432793
0.436093
0.39841
0.413285
0.426849
0.438761
0.354948
0.371604
0.389924
0.408383
0.334221
0.341356
0.356771
0.384558
0.354126
0.333528
0.333689
0.336855
0.43467
0.490284
0.449933
0.395163
0.506414
0.609427
0.619557
0.572714
0.523083
0.540186
0.587843
0.632187
0.635306
0.628253
0.635686
0.431079
0.119755
0.253544
0.627234
0.571618
0.100015
0.100005
0.100002
0.100001
0.100001
0.100001
0.100002
0.100002
0.100004
0.100011
0.100031
0.100082
0.100186
0.100326
0.100436
0.100461
0.100429
0.100372
0.100356
0.100856
0.106007
0.124868
0.148295
0.156641
0.147703
0.135595
0.140941
0.180463
0.273593
0.354357
0.347003
0.361896
0.356343
0.386854
0.373558
0.419357
0.402827
0.462299
0.458449
0.461267
0.463312
0.440423
0.450472
0.423492
0.432948
0.407975
0.414932
0.408746
0.40666
0.443979
0.432583
0.44834
0.455275
0.458397
0.458254
0.426225
0.442849
0.457737
0.470396
0.3762
0.397404
0.418977
0.439964
0.341445
0.35857
0.380904
0.361349
0.340101
0.341423
0.341948
0.335166
0.40879
0.46655
0.424711
0.371791
0.484268
0.602486
0.616235
0.557753
0.502732
0.521926
0.575505
0.641467
0.643172
0.628773
0.639786
0.432244
0.12949
0.270652
0.628024
0.566146
0.100037
0.10001
0.100003
0.100001
0.100001
0.100002
0.100003
0.100011
0.100037
0.100113
0.100308
0.100721
0.101301
0.10175
0.101818
0.10158
0.101254
0.101038
0.101994
0.112712
0.144415
0.18335
0.200675
0.19494
0.179815
0.177917
0.213982
0.29658
0.387395
0.403334
0.407201
0.410388
0.40457
0.428401
0.418487
0.450015
0.439481
0.468199
0.468186
0.459243
0.465158
0.442655
0.452243
0.424711
0.435313
0.409112
0.415454
0.416066
0.404798
0.483169
0.473594
0.445124
0.461197
0.480183
0.486645
0.489079
0.488338
0.459689
0.477536
0.49297
0.505715
0.405215
0.43005
0.454324
0.477177
0.360231
0.385227
0.41303
0.345564
0.338386
0.361101
0.361493
0.342168
0.385153
0.442451
0.401217
0.354052
0.461687
0.593303
0.61061
0.541811
0.482122
0.503679
0.562433
0.646895
0.647215
0.626941
0.641213
0.433979
0.128693
0.273036
0.629274
0.565359
0.100074
0.100016
0.100004
0.100001
0.100002
0.100006
0.100029
0.100122
0.100401
0.101132
0.102697
0.104977
0.106572
0.106744
0.1057
0.104195
0.10302
0.104298
0.119395
0.163533
0.214417
0.244503
0.2476
0.237663
0.23815
0.270903
0.334268
0.390327
0.430038
0.421598
0.43602
0.433831
0.444039
0.439459
0.455686
0.449534
0.466411
0.461843
0.472733
0.475102
0.460851
0.467916
0.445924
0.455641
0.416095
0.428912
0.401387
0.405712
0.430026
0.413579
0.394923
0.509509
0.495986
0.457758
0.478244
0.515052
0.520182
0.520974
0.518389
0.49789
0.515996
0.530757
0.542581
0.441318
0.46906
0.495045
0.518529
0.388884
0.420015
0.452223
0.342275
0.343744
0.391043
0.391078
0.360537
0.366025
0.419701
0.381652
0.348017
0.440386
0.583511
0.604528
0.52628
0.462872
0.487027
0.550105
0.650221
0.65049
0.624602
0.642004
0.438794
0.120217
0.261603
0.632428
0.570577
0.100117
0.10002
0.100004
0.100002
0.100009
0.100062
0.100305
0.101203
0.103553
0.108647
0.115485
0.120086
0.120405
0.117301
0.112545
0.108311
0.108884
0.127692
0.178169
0.242732
0.281066
0.292471
0.292979
0.299128
0.322979
0.358622
0.388257
0.405276
0.430481
0.414364
0.448388
0.44017
0.461416
0.455352
0.47114
0.466707
0.475213
0.474138
0.475406
0.477907
0.463998
0.470686
0.44144
0.452341
0.391743
0.40704
0.381758
0.381277
0.436151
0.415261
0.394473
0.37511
0.535253
0.517463
0.468827
0.494832
0.550845
0.554048
0.553461
0.547508
0.538927
0.556384
0.570881
0.581689
0.483604
0.512948
0.539217
0.561972
0.425623
0.461786
0.497229
0.346462
0.358706
0.428907
0.428949
0.388853
0.356431
0.400682
0.368975
0.350762
0.422522
0.57479
0.599593
0.512683
0.447088
0.473757
0.540095
0.652902
0.654029
0.62302
0.642927
0.446469
0.107701
0.227744
0.637682
0.581156
0.100145
0.100021
0.100004
0.100012
0.100096
0.10059
0.102468
0.108096
0.118628
0.130587
0.137497
0.137837
0.133028
0.125607
0.11855
0.117279
0.136123
0.190075
0.260092
0.299976
0.314378
0.320625
0.329031
0.34298
0.360504
0.380864
0.377231
0.36507
0.345216
0.407179
0.387229
0.438704
0.424159
0.46024
0.450642
0.473813
0.467928
0.478154
0.47713
0.471679
0.473157
0.461098
0.467541
0.42226
0.435078
0.353781
0.369303
0.364867
0.357112
0.346652
0.441742
0.416112
0.386423
0.364997
0.559743
0.537513
0.478356
0.509868
0.587948
0.588863
0.58603
0.576408
0.581783
0.598558
0.611542
0.620259
0.53005
0.559393
0.584443
0.606008
0.469299
0.508888
0.54561
0.357664
0.383539
0.473411
0.472823
0.4249
0.356951
0.387345
0.366428
0.357847
0.41042
0.568593
0.59683
0.502775
0.436587
0.465777
0.533963
0.655745
0.65788
0.622825
0.644832
0.459025
0.109059
0.234656
0.644509
0.597415
0.100147
0.100019
0.100016
0.100132
0.100846
0.10413
0.113229
0.129626
0.145566
0.154483
0.155117
0.14934
0.139985
0.130845
0.128472
0.146138
0.200282
0.270688
0.305902
0.318178
0.324427
0.330813
0.341527
0.354481
0.362321
0.337699
0.27787
0.313153
0.280275
0.363327
0.339043
0.406714
0.385898
0.441221
0.425285
0.463293
0.453903
0.472454
0.469537
0.454207
0.453518
0.444769
0.451277
0.386357
0.401042
0.319483
0.321777
0.320631
0.350581
0.345027
0.317895
0.319114
0.445294
0.413571
0.378784
0.35331
0.581648
0.554944
0.486482
0.522769
0.623489
0.622663
0.615582
0.602058
0.624561
0.639283
0.649732
0.655085
0.577991
0.605704
0.628333
0.648194
0.517784
0.55858
0.594378
0.377587
0.415049
0.522083
0.519228
0.465028
0.362038
0.382223
0.370774
0.371852
0.405295
0.566
0.596796
0.498389
0.432945
0.464762
0.532832
0.65885
0.661936
0.624514
0.64731
0.486075
0.21151
0.348783
0.65244
0.616923
0.100128
0.100027
0.100143
0.101106
0.10546
0.118684
0.139915
0.159774
0.170389
0.171835
0.165841
0.155487
0.145178
0.141681
0.158746
0.209735
0.274531
0.304704
0.316155
0.320073
0.322602
0.327394
0.331525
0.321081
0.279468
0.215948
0.184193
0.164544
0.246313
0.213972
0.302904
0.27529
0.353444
0.329049
0.396235
0.375825
0.429847
0.414517
0.449589
0.441647
0.415699
0.410686
0.410749
0.415408
0.336503
0.352653
0.298835
0.303099
0.280255
0.285562
0.335386
0.324227
0.29804
0.299902
0.448477
0.411498
0.372851
0.342859
0.600034
0.569376
0.492818
0.533175
0.6555
0.652345
0.641145
0.623911
0.664035
0.675872
0.683126
0.684971
0.62431
0.648713
0.668855
0.685582
0.568189
0.607806
0.640635
0.401418
0.447369
0.571519
0.562843
0.504133
0.371505
0.385228
0.379978
0.390241
0.407142
0.56727
0.599527
0.49969
0.435541
0.46998
0.536528
0.662415
0.666439
0.62803
0.651672
0.557086
0.260768
0.496601
0.660234
0.638359
0.100108
0.100153
0.101178
0.106676
0.122761
0.149171
0.172235
0.18504
0.187523
0.18222
0.17207
0.161667
0.15833
0.172858
0.219541
0.273455
0.299694
0.308703
0.304073
0.293064
0.284226
0.272391
0.247864
0.209772
0.161681
0.121032
0.133528
0.119698
0.177449
0.152474
0.233153
0.204701
0.287529
0.26116
0.33364
0.31171
0.372175
0.353769
0.401323
0.388254
0.364958
0.356383
0.362737
0.366558
0.2917
0.29577
0.295689
0.276075
0.277069
0.256349
0.260221
0.320959
0.307062
0.277043
0.281785
0.450642
0.409724
0.369542
0.336352
0.615372
0.581789
0.498558
0.542275
0.683499
0.67619
0.662598
0.642071
0.698153
0.706814
0.710341
0.710368
0.666536
0.686757
0.703647
0.716538
0.617135
0.653487
0.681704
0.42813
0.481307
0.616278
0.602833
0.542765
0.38892
0.395332
0.396255
0.416928
0.417395
0.573127
0.606759
0.508774
0.448781
0.490005
0.549862
0.666843
0.671074
0.635164
0.658081
0.612536
0.456543
0.605716
0.667258
0.656516
0.100188
0.101193
0.107027
0.125952
0.155946
0.183111
0.198035
0.201546
0.19753
0.189004
0.180209
0.177671
0.191898
0.230336
0.270617
0.290807
0.294428
0.274129
0.243622
0.217002
0.196517
0.176269
0.152523
0.125396
0.1077
0.106103
0.122885
0.113971
0.150745
0.134996
0.188724
0.16878
0.230782
0.209761
0.270878
0.251178
0.308616
0.289957
0.343079
0.326624
0.317468
0.310998
0.30976
0.316136
0.266064
0.273712
0.251676
0.248156
0.255923
0.254754
0.234385
0.235201
0.310687
0.292866
0.260828
0.271206
0.452895
0.408799
0.369367
0.334808
0.62942
0.59402
0.506029
0.552291
0.705945
0.695909
0.680213
0.658077
0.725795
0.730957
0.731891
0.730604
0.702394
0.718311
0.731096
0.739792
0.659788
0.691869
0.715142
0.462427
0.520423
0.654391
0.640344
0.582796
0.412425
0.412873
0.418683
0.445596
0.440736
0.589026
0.620455
0.537362
0.483985
0.533732
0.579523
0.671996
0.675733
0.647071
0.666204
0.649465
0.321608
0.621106
0.674333
0.670379
0.101065
0.107032
0.127009
0.160818
0.191207
0.208023
0.212329
0.210279
0.204613
0.198904
0.198564
0.211443
0.240524
0.265934
0.28086
0.278969
0.247822
0.202999
0.165464
0.145692
0.131853
0.119292
0.108198
0.102441
0.101904
0.105757
0.113993
0.102639
0.124458
0.159359
0.13946
0.20237
0.181826
0.229009
0.217914
0.248693
0.238632
0.27211
0.259731
0.299642
0.285787
0.27495
0.277644
0.25073
0.266735
0.23834
0.242872
0.229557
0.222123
0.244359
0.237013
0.220323
0.215273
0.307447
0.286539
0.255437
0.268973
0.457609
0.410791
0.375013
0.338123
0.644448
0.608615
0.518265
0.566001
0.724255
0.712439
0.696081
0.673592
0.744808
0.746445
0.746492
0.744169
0.730589
0.741774
0.749292
0.75355
0.693682
0.720994
0.739222
0.494484
0.554653
0.68718
0.678014
0.61876
0.44
0.4414
0.456404
0.481117
0.485458
0.611506
0.639591
0.577206
0.534613
0.579487
0.609086
0.677129
0.68058
0.659123
0.674181
0.665353
0.259361
0.612926
0.680093
0.679078
0.106338
0.12707
0.162691
0.196762
0.214068
0.219266
0.218883
0.216077
0.21391
0.216404
0.227804
0.244005
0.259829
0.270345
0.262865
0.226971
0.177461
0.139437
0.120769
0.111359
0.105794
0.102226
0.100715
0.100582
0.10057
0.110893
0.102007
0.100866
0.120645
0.158475
0.136329
0.210678
0.184741
0.246396
0.231833
0.260164
0.255169
0.268069
0.263973
0.277048
0.272758
0.218182
0.22987
0.199798
0.202116
0.199353
0.214431
0.217356
0.196354
0.194267
0.242592
0.230591
0.216739
0.204752
0.309107
0.286558
0.256871
0.274663
0.467911
0.418889
0.391298
0.352518
0.662628
0.627808
0.538404
0.586118
0.738091
0.727463
0.711746
0.690505
0.755203
0.755565
0.755211
0.753162
0.749919
0.756336
0.759763
0.761304
0.721182
0.743937
0.757954
0.541205
0.616421
0.725687
0.738189
0.686498
0.494154
0.500475
0.534806
0.557781
0.545762
0.63817
0.65619
0.610333
0.588246
0.617986
0.641437
0.682604
0.684717
0.671219
0.680854
0.668962
0.435571
0.643442
0.685132
0.683524
0.125144
0.162819
0.19898
0.217043
0.222395
0.222744
0.221563
0.221893
0.22537
0.23253
0.242714
0.253288
0.25893
0.246552
0.209489
0.162187
0.127081
0.110773
0.104035
0.101606
0.100555
0.100219
0.10019
0.100159
0.100068
0.104372
0.100529
0.100255
0.109428
0.1353
0.119123
0.18325
0.157821
0.223864
0.206231
0.240904
0.235231
0.242389
0.242548
0.237387
0.240994
0.145299
0.15704
0.176442
0.182291
0.15067
0.151621
0.196567
0.193924
0.17451
0.17531
0.250472
0.231764
0.221317
0.202569
0.321629
0.296016
0.271953
0.295541
0.487476
0.437044
0.421991
0.381467
0.685698
0.653496
0.569018
0.614725
0.749094
0.741804
0.729083
0.710492
0.761799
0.761784
0.761021
0.759203
0.764627
0.768552
0.770923
0.772631
0.754054
0.767188
0.775036
0.637107
0.703799
0.761192
0.755772
0.733637
0.588897
0.571687
0.613211
0.650188
0.601453
0.656227
0.667539
0.643299
0.628298
0.645266
0.656342
0.68575
0.689319
0.67838
0.68582
0.675558
0.214848
0.627043
0.689626
0.687613
0.160408
0.199234
0.217444
0.222858
0.223718
0.22247
0.222245
0.224983
0.230803
0.238433
0.245106
0.244514
0.22799
0.193285
0.150611
0.120161
0.106388
0.1018
0.100452
0.100153
0.100098
0.100104
0.100085
0.10003
0.10001
0.100064
0.101161
0.100115
0.102487
0.110334
0.105221
0.130981
0.118841
0.159906
0.145693
0.177798
0.171049
0.177976
0.179403
0.165653
0.173798
0.138558
0.121307
0.119055
0.115868
0.153428
0.15213
0.137974
0.18937
0.179327
0.156997
0.163728
0.274012
0.245788
0.238113
0.208825
0.348826
0.320705
0.304129
0.334212
0.519413
0.468775
0.469505
0.427559
0.715058
0.686723
0.611104
0.652786
0.756182
0.752798
0.746105
0.734579
0.772951
0.772742
0.771814
0.770216
0.779728
0.783511
0.786123
0.787408
0.772622
0.783304
0.798066
0.700654
0.716456
0.76637
0.753023
0.737285
0.655186
0.636659
0.656041
0.683212
0.640836
0.668294
0.678512
0.658034
0.649685
0.661922
0.666849
0.691357
0.695703
0.686301
0.692603
0.676179
0.12323
0.559731
0.692584
0.689708