/*--------------------------------*- C++ -*----------------------------------*\
  =========                 |
  \\      /  F ield         | OpenFOAM: The Open Source CFD Toolbox
   \\    /   O peration     | Website:  https://openfoam.org
    \\  /    A nd           | Version:  dev
     \\/     M anipulation  |
\*---------------------------------------------------------------------------*/
FoamFile
{
    version     2.0;
    format      ascii;
    class       volScalarField;
    location    "2500";
    object      alphat;
}
// * * * * * * * * * * * * * * * * * * * * * * * * * * * * * * * * * * * * * //

dimensions      [1 -1 -1 0 0 0 0];

internalField   nonuniform List<scalar> 
9836
(
0.000150806
0.000154962
0.000146602
0.00014179
0.00018609
0.000130627
0.000131016
0.000196518
0.000176027
0.000124558
0.00012614
0.000189468
0.000202995
0.000150892
0.000122349
0.000122607
0.000169936
0.00021809
0.000188208
0.000136943
0.000121173
0.000120613
0.00015177
0.000216832
0.000214154
0.000160703
0.000131034
0.000120308
0.000119966
0.000139936
0.000205961
0.000229522
0.000193431
0.000144473
0.000127488
0.000119718
0.000119698
0.000131654
0.000182066
0.000236032
0.000220704
0.000165832
0.000136474
0.000125123
0.000119267
0.000119533
0.000126931
0.000160071
0.000231004
0.000236031
0.000194071
0.000148946
0.00013166
0.000123507
0.000118901
0.000119364
0.000124148
0.000146418
0.000215058
0.000247645
0.000222886
0.000167688
0.000139953
0.000128451
0.000122276
0.000118621
0.000118945
0.000122627
0.000136711
0.000188211
0.000248168
0.000242589
0.000191615
0.00015156
0.000134484
0.000126084
0.000121478
0.000118364
0.000118537
0.000121963
0.000130895
0.000164887
0.000241237
0.000252752
0.000220859
0.000166914
0.000142406
0.000130847
0.000124358
0.000120762
0.000118176
0.000118188
0.000121538
0.000127581
0.000150905
0.000221968
0.000261299
0.000243215
0.000188849
0.000152224
0.000136574
0.000127995
0.000123245
0.000120135
0.000118016
0.000117926
0.000121217
0.000125691
0.000140842
0.000192907
0.000259692
0.000258488
0.00021486
0.000165798
0.0001436
0.000132494
0.000125923
0.00012222
0.000119633
0.000117878
0.000117759
0.000120929
0.000124438
0.000134814
0.00016915
0.000250085
0.000267684
0.000241944
0.000184443
0.000152208
0.000137932
0.000129325
0.000124476
0.000121355
0.000119221
0.000117744
0.00011766
0.000120515
0.00012356
0.000131066
0.000155311
0.000227648
0.000273738
0.000260291
0.000208135
0.000163588
0.00014406
0.000133748
0.00012703
0.000123173
0.00012063
0.000118899
0.000117676
0.000117589
0.000120093
0.000122955
0.000128599
0.00014518
0.000197741
0.000270473
0.000272542
0.000234547
0.000179603
0.000151584
0.000138412
0.000130417
0.000125343
0.000122121
0.000120094
0.000118508
0.000117565
0.000117486
0.000119732
0.00012246
0.000126877
0.000138736
0.00017369
0.00025886
0.000281304
0.0002593
0.000200875
0.000161142
0.000144138
0.000134222
0.000127873
0.000123871
0.000121326
0.000119497
0.000118304
0.00011748
0.000117392
0.00011949
0.000122064
0.000125602
0.000134442
0.000160251
0.000233901
0.000285383
0.000275388
0.000225408
0.000174756
0.000150383
0.000138744
0.00013089
0.000125956
0.00012267
0.000120639
0.000118963
0.000118044
0.000117412
0.000117338
0.000119285
0.000121728
0.000124614
0.000131574
0.000149899
0.000203657
0.000280796
0.000285427
0.00025199
0.000193192
0.000158515
0.000143389
0.000134593
0.000128355
0.000124331
0.000121805
0.000119884
0.000118644
0.000117799
0.000117339
0.000117326
0.000119103
0.000121273
0.000123859
0.000129486
0.000143195
0.000178988
0.00026778
0.000293661
0.000274088
0.000215877
0.000169886
0.000149079
0.000138308
0.000131272
0.00012635
0.000123064
0.00012098
0.000119216
0.000118279
0.000117608
0.000117277
0.000117313
0.00011887
0.0001208
0.000123338
0.000127816
0.00013853
0.000166429
0.000241855
0.000296657
0.000288654
0.000241606
0.000185586
0.000155733
0.000142736
0.000134464
0.000128685
0.000124662
0.000122083
0.000120154
0.000118779
0.000117919
0.000117422
0.000117224
0.000117259
0.000118624
0.000120369
0.000122865
0.000126549
0.000135078
0.000156005
0.000212099
0.000291653
0.000297518
0.000267161
0.000206415
0.00016524
0.000147329
0.000137941
0.000131314
0.000126607
0.000123305
0.000121186
0.00011937
0.000118385
0.000117627
0.000117253
0.000117175
0.000117182
0.000118449
0.000119982
0.0001224
0.00012551
0.000132498
0.000148691
0.000186345
0.000278466
0.000305433
0.000287466
0.000229564
0.00017879
0.000153312
0.00014158
0.000134193
0.000128776
0.000124904
0.000122249
0.000120356
0.000118799
0.000117976
0.000117381
0.000117114
0.000117143
0.000117118
0.000118369
0.000119653
0.000121938
0.000124617
0.000130578
0.000143461
0.000173528
0.000253546
0.000308658
0.000300838
0.000255753
0.000196344
0.000160997
0.000145886
0.000137178
0.000131173
0.000126744
0.000123497
0.000121328
0.00011958
0.000118361
0.000117619
0.000117174
0.000117009
0.000117112
0.000117064
0.000118276
0.000119269
0.000121456
0.000123905
0.000128939
0.000139728
0.00016342
0.000224045
0.000303758
0.000309747
0.000279877
0.000218188
0.000172344
0.000150656
0.00014054
0.000133714
0.000128769
0.000125097
0.000122381
0.000120528
0.000118931
0.000117995
0.000117328
0.000116999
0.00011695
0.000117105
0.000117022
0.0001182
0.000118899
0.00012085
0.000123298
0.000127577
0.000137241
0.000155806
0.000198036
0.000291598
0.000316609
0.000299893
0.00024142
0.000187241
0.000157405
0.000144153
0.000136435
0.000130959
0.000126866
0.000123765
0.000121504
0.000119854
0.000118418
0.000117697
0.000117124
0.000116928
0.000116994
0.000117137
0.000116983
0.000118089
0.000118536
0.000120208
0.000122723
0.000126376
0.000135063
0.000150451
0.000182742
0.000270212
0.00032112
0.000312034
0.000267072
0.000206217
0.000166255
0.00014844
0.00013939
0.000133252
0.000128767
0.000125364
0.000122711
0.00012077
0.000119315
0.000118042
0.000117485
0.000117062
0.000117015
0.000117154
0.000117219
0.000116938
0.000117979
0.000118298
0.0001196
0.000122151
0.000125337
0.000132812
0.000146621
0.000173611
0.00024348
0.000317168
0.00032155
0.00029011
0.000227625
0.000179015
0.000153675
0.000142563
0.000135719
0.000130753
0.00012705
0.00012416
0.000121855
0.000120195
0.000118926
0.000117861
0.000117409
0.000117201
0.000117296
0.00011751
0.000117361
0.000116891
0.000117897
0.000118103
0.000118946
0.000121583
0.000124426
0.000130825
0.000144108
0.000165668
0.000217313
0.000308793
0.00032694
0.000310517
0.000250985
0.00019449
0.000161125
0.000146051
0.000138192
0.000132843
0.000128784
0.000125694
0.000123201
0.000121207
0.000119798
0.000118741
0.000117909
0.000117538
0.000117633
0.000117933
0.000118196
0.000117776
0.000116851
0.000117819
0.000117892
0.000118321
0.000120988
0.00012358
0.000129335
0.000141982
0.000159948
0.000196865
0.000292251
0.000332775
0.000321971
0.000273869
0.000213752
0.000170955
0.000150334
0.000140985
0.000134859
0.000130575
0.00012725
0.000124635
0.000122513
0.000120788
0.000119622
0.000118793
0.0001183
0.000118208
0.000118571
0.000119234
0.000119266
0.000118006
0.00011682
0.000117764
0.000117653
0.000117756
0.000120394
0.000122836
0.000128142
0.000140033
0.000155985
0.00018593
0.000270918
0.000333522
0.000331511
0.000297408
0.000233615
0.000184041
0.00015617
0.000143664
0.000137073
0.000132325
0.000128806
0.000126053
0.000123894
0.000122093
0.00012068
0.00011971
0.000119193
0.000119131
0.000119559
0.000120359
0.000121285
0.000121447
0.000118654
0.000116814
0.000117741
0.000117354
0.000117269
0.000119871
0.000122182
0.000127094
0.000138369
0.000153735
0.000179172
0.000246389
0.000328547
0.000337508
0.000316945
0.000256
0.000199346
0.000163939
0.00014706
0.00013914
0.00013408
0.000130315
0.000127436
0.000125218
0.000123453
0.000122021
0.000120891
0.000120194
0.000120166
0.000120649
0.000121731
0.000123083
0.00012416
0.000110244
9.45528e-05
9.29298e-05
0.000116839
0.000117725
0.000117017
0.000116837
0.000119433
0.000121619
0.000126245
0.000136709
0.000152338
0.000174321
0.000225212
0.000318253
0.000343491
0.000331017
0.000276974
0.000217212
0.000173962
0.00015154
0.000141548
0.000135737
0.000131758
0.000128763
0.000126485
0.000124749
0.000123397
0.00012229
0.000121617
0.000121485
0.000122082
0.000123322
0.00012522
0.00012112
0.000106125
9.0021e-05
8.97588e-05
7.93827e-05
8.18259e-05
0.000116914
0.000117709
0.000116663
0.000116465
0.000119076
0.000121149
0.000125616
0.000135424
0.000151852
0.000170775
0.000208978
0.000302186
0.000347252
0.000340124
0.000300279
0.000236475
0.000186384
0.00015751
0.000143983
0.00013744
0.000133078
0.000129951
0.000127662
0.000125946
0.000124734
0.000123713
0.000123129
0.000123099
0.000123795
0.000125333
0.000121867
0.000107919
0.00011014
0.000104165
9.08381e-05
9.51495e-05
8.54784e-05
8.21424e-05
8.2158e-05
7.14771e-05
7.30893e-05
0.000117028
0.000117626
0.00011629
0.000116196
0.000118782
0.000120776
0.000125214
0.00013468
0.000151608
0.000169317
0.000198976
0.000285816
0.000346688
0.000347216
0.000319515
0.000256608
0.000201115
0.00016514
0.000147287
0.000139123
0.000134311
0.000130955
0.000128568
0.000126888
0.000125885
0.000125123
0.000124723
0.000124804
0.000125716
0.000123681
0.000109696
9.75077e-05
9.67565e-05
9.16858e-05
8.91091e-05
8.17965e-05
7.90099e-05
7.97809e-05
7.42924e-05
7.46787e-05
6.39581e-05
6.59463e-05
0.000117159
0.000117471
0.0001159
0.000116099
0.000118594
0.000120512
0.000125021
0.000134317
0.000151613
0.000169471
0.000194082
0.000268976
0.000343207
0.000351816
0.000335004
0.000276848
0.000217298
0.000174689
0.00015175
0.000141202
0.000135504
0.000131904
0.000129379
0.000127596
0.000126676
0.000126197
0.000126226
0.000126551
0.000127536
0.000113801
0.000100645
9.01123e-05
8.66734e-05
8.33309e-05
8.66395e-05
8.31581e-05
7.80901e-05
7.4758e-05
7.79473e-05
7.3593e-05
6.79127e-05
6.91447e-05
5.81385e-05
6.04936e-05
0.000117303
0.000117238
0.00011552
0.000116159
0.000118509
0.000120426
0.000125092
0.000134376
0.000152201
0.000170501
0.000191975
0.00025422
0.000336375
0.000356596
0.000345723
0.000294948
0.000234633
0.000186088
0.000157417
0.000143455
0.000136891
0.000132817
0.000130234
0.00012837
0.000127335
0.000126879
0.000127174
0.000128253
0.000127324
0.000109148
9.36526e-05
8.39487e-05
8.07259e-05
7.86421e-05
8.05994e-05
7.83712e-05
7.71141e-05
7.57161e-05
7.58202e-05
6.95221e-05
7.22602e-05
6.93924e-05
6.32011e-05
6.50004e-05
5.3776e-05
5.65423e-05
0.000117445
0.000116959
0.000115249
0.000116447
0.000118586
0.000120616
0.00012554
0.000134934
0.000153428
0.000171896
0.000191588
0.00024301
0.000327209
0.000360281
0.000353149
0.000314045
0.00025205
0.000199083
0.000164482
0.000146596
0.0001383
0.000133656
0.000130868
0.000129082
0.000127973
0.000127538
0.000127761
0.000129107
0.000126127
0.000105951
9.07611e-05
8.00093e-05
7.61584e-05
7.44266e-05
7.63046e-05
7.55202e-05
7.43833e-05
7.36402e-05
7.40233e-05
7.22441e-05
7.10447e-05
6.57343e-05
6.86003e-05
6.63111e-05
5.98273e-05
6.20887e-05
5.08212e-05
5.39485e-05
0.000117563
0.000116673
0.000115277
0.000117018
0.000118808
0.000121115
0.000126664
0.000136501
0.000155201
0.000174927
0.000192635
0.000235509
0.000318288
0.00036181
0.00035902
0.000330356
0.000269255
0.000213227
0.000173053
0.000150792
0.000140092
0.000134706
0.000131271
0.000129382
0.000128331
0.000128121
0.000128415
0.000129589
0.000127983
0.000105303
8.85286e-05
7.78455e-05
7.45148e-05
7.47028e-05
7.42181e-05
7.8244e-05
7.41282e-05
7.88251e-05
7.17199e-05
7.60404e-05
7.0258e-05
7.17508e-05
6.82345e-05
6.3325e-05
6.62103e-05
6.41901e-05
5.76826e-05
6.05261e-05
4.92605e-05
5.26519e-05
0.00011757
0.000116426
0.000115603
0.000117721
0.000119201
0.000121968
0.000128243
0.000139348
0.000158548
0.000179273
0.000194636
0.000231921
0.000310432
0.000361938
0.000363541
0.000343245
0.000285988
0.000228001
0.000182934
0.000156003
0.000142245
0.000135774
0.000131699
0.000129457
0.000128318
0.000128311
0.000128846
0.000130211
0.000131414
0.000107303
8.89011e-05
7.68242e-05
7.79459e-05
7.90783e-05
8.42202e-05
0.00010046
9.12049e-05
0.000119076
9.02858e-05
0.000116042
8.25818e-05
0.000113221
7.31629e-05
9.42742e-05
7.41745e-05
6.15144e-05
7.39036e-05
7.20265e-05
5.69871e-05
5.89168e-05
4.90851e-05
5.30621e-05
0.000117467
0.000116307
0.00011629
0.00011854
0.000119842
0.000123397
0.00013076
0.000143483
0.000163396
0.000184285
0.000198164
0.000230767
0.000304476
0.000361082
0.000366708
0.000353535
0.000301269
0.000242918
0.000194018
0.000162245
0.00014525
0.000136944
0.000132412
0.000129534
0.000128086
0.000127992
0.000128687
0.000130481
0.00013315
0.000110592
9.08321e-05
7.6747e-05
8.63377e-05
8.59077e-05
0.000118761
0.000126842
0.000125978
0.000136894
0.000123898
0.000143505
0.000118841
0.000138327
0.000113074
0.00012621
0.000106975
0.00011399
0.00010429
6.79364e-05
0.000101039
9.73005e-05
5.61517e-05
6.30007e-05
5.14228e-05
5.46487e-05
0.000117342
0.000116477
0.000117422
0.000119454
0.000120852
0.000125568
0.000134683
0.000149308
0.000169354
0.000190338
0.000203855
0.000232871
0.000300514
0.00035961
0.000369793
0.000360611
0.000314865
0.000257328
0.000205858
0.000169553
0.000149078
0.000138594
0.000133397
0.000129804
0.000127958
0.000127387
0.000128159
0.000129868
0.000133366
0.00011532
9.41555e-05
7.86061e-05
9.41973e-05
8.76599e-05
0.000129123
0.000131656
0.000150084
0.00016273
0.000169432
0.000199019
0.000176269
0.000219816
0.000162439
0.000219331
0.00013652
0.00019191
0.000115961
0.000145668
0.000116124
9.36094e-05
0.000113435
0.000107863
5.86228e-05
8.36384e-05
5.76017e-05
5.90605e-05
0.000117362
0.000117228
0.000118967
0.000120449
0.000122539
0.000128772
0.000140555
0.000156869
0.000176492
0.000197026
0.000210441
0.000236276
0.000298828
0.000358299
0.000372703
0.000365559
0.000327777
0.000270732
0.000217964
0.000177738
0.000153584
0.000140784
0.000134356
0.000130397
0.00012789
0.000126816
0.000127425
0.00012903
0.000132423
0.000122324
9.91567e-05
7.91472e-05
9.85229e-05
6.99965e-05
0.000131259
0.000129332
0.00017404
0.000182182
0.000228085
0.000254815
0.000268886
0.000317867
0.000286294
0.000359693
0.000274584
0.000366948
0.000227574
0.000334433
0.000154584
0.000263424
0.000158432
9.78975e-05
0.000155067
0.000143651
6.8483e-05
8.80295e-05
7.01548e-05
6.48018e-05
0.000117737
0.000118471
0.000120564
0.000121671
0.000125067
0.000133363
0.000148213
0.000165417
0.000184547
0.000204224
0.000217982
0.000242016
0.00030019
0.00035776
0.000375157
0.000369627
0.000338613
0.00028309
0.000229827
0.00018658
0.00015887
0.000143576
0.000135601
0.0001313
0.000128136
0.000126455
0.000126587
0.000127992
0.000131015
0.000130868
0.000104906
8.57804e-05
0.000115528
0.000125835
0.000122627
0.000187763
0.000185657
0.000278813
0.000296747
0.000366559
0.0004109
0.000429444
0.000486805
0.000447299
0.000503904
0.000429009
0.000490354
0.000378218
0.000459282
0.000287877
0.000401251
0.000294911
0.000124893
0.0002837
0.000253818
8.37608e-05
0.000104214
0.000113969
8.75911e-05
0.000118708
0.000120111
0.000122161
0.000123443
0.000128786
0.0001403
0.000157161
0.000174462
0.000193098
0.000211767
0.000226233
0.000249981
0.000302595
0.000358696
0.00037754
0.000372963
0.000347078
0.000294073
0.000241127
0.000195813
0.000164761
0.000146824
0.000137326
0.000132212
0.0001288
0.000126487
0.000125887
0.000126869
0.000129434
0.000134528
0.000113454
9.27958e-05
0.000104283
0.000160955
0.000148207
0.000182673
0.000175029
0.000310706
0.000315881
0.000447367
0.000474809
0.000530499
0.000561578
0.000539946
0.000563828
0.000524319
0.000545685
0.000502136
0.000524136
0.000468827
0.000501745
0.000406236
0.000469208
0.000399376
0.000204375
0.000382682
0.000355279
8.86135e-05
0.000145398
0.000107641
7.76727e-05
0.000121646
0.000122201
0.000123868
0.000126261
0.000134332
0.000149567
0.000166605
0.000183604
0.0002017
0.000219596
0.00023473
0.000258765
0.000306742
0.000360395
0.00038002
0.00037601
0.000353697
0.000303505
0.00025144
0.000205141
0.000170992
0.000150463
0.000139238
0.00013324
0.00012976
0.00012727
0.000125949
0.000126149
0.000128064
0.000132657
0.000123453
9.99096e-05
9.23605e-05
0.000135506
0.000124392
0.00029049
0.000263951
0.000314072
0.00030707
0.000493581
0.000505416
0.000585147
0.000603632
0.000581618
0.000595056
0.000558905
0.000567965
0.000534342
0.000538395
0.000512731
0.000511576
0.000493967
0.00049386
0.000461885
0.000480205
0.000450451
0.00031044
0.000435677
0.000415093
0.000106001
0.000239954
9.51087e-05
7.96485e-05
0.000131826
0.00012568
0.000126521
0.000130767
0.000142909
0.000160178
0.000175959
0.000192189
0.000209876
0.000227165
0.000243615
0.000268072
0.000313348
0.000363144
0.000382717
0.000378616
0.000358881
0.000311564
0.000260729
0.000213974
0.000177591
0.000154815
0.000141781
0.000134984
0.000130549
0.000128077
0.000126838
0.000126401
0.000127467
0.000131146
0.000125728
0.000107787
9.68129e-05
0.00011748
0.000108306
0.00023466
0.000202001
0.000485733
0.000462992
0.000505008
0.000499201
0.000618477
0.000631024
0.000606803
0.000618985
0.000574949
0.000580993
0.000541873
0.000548295
0.000512684
0.000522365
0.000488937
0.0004932
0.000474067
0.000470697
0.000467052
0.00045687
0.000456564
0.000382869
0.000447811
0.000439452
0.000147429
0.00032941
7.73659e-05
9.02088e-05
0.000145167
0.000137865
0.000131836
0.000137966
0.000154225
0.00017077
0.000185165
0.000200316
0.000217039
0.000234676
0.000252147
0.000278258
0.000321424
0.000367806
0.000385868
0.000381399
0.000362811
0.000318353
0.000269141
0.00022232
0.000184273
0.000159277
0.000144999
0.000137106
0.000132221
0.000128948
0.000127594
0.000127276
0.000128087
0.000130996
0.000128613
0.000117855
0.000106208
0.00011737
0.00017676
0.000148289
0.000432578
0.000387604
0.000639775
0.000631655
0.000639279
0.000641125
0.000631248
0.000643002
0.00058849
0.000596978
0.000557892
0.000568984
0.000538916
0.000564977
0.000518628
0.000557392
0.000486773
0.000529733
0.000457268
0.000487017
0.000444998
0.000445726
0.000437776
0.000425784
0.000434622
0.000436583
0.000237941
0.000395752
6.19333e-05
0.000124833
0.000162371
0.000143895
0.000148052
0.000166458
0.000180904
0.000193818
0.000207423
0.000223719
0.000241304
0.000261406
0.000288462
0.000330936
0.000374186
0.000390012
0.000384427
0.000366009
0.000323884
0.000276914
0.000230381
0.000190809
0.000163971
0.00014806
0.000138964
0.000134094
0.000131223
0.000128949
0.000128059
0.000128778
0.000131609
0.000136031
0.000126403
0.00011018
0.00010574
0.000235164
0.000205444
0.000337338
0.00027891
0.000615086
0.000588438
0.000682132
0.000689638
0.000655923
0.000669891
0.000605679
0.00061396
0.000581453
0.000594708
0.00059329
0.00062163
0.000606375
0.000661181
0.000593516
0.000667874
0.000545468
0.000628001
0.00048591
0.000558529
0.000435549
0.000480368
0.00042778
0.000440352
0.000421768
0.000423347
0.000330905
0.000436692
6.19921e-05
0.000211393
0.000167624
0.000161186
0.000178139
0.000190585
0.000202169
0.000214322
0.000229396
0.000248484
0.000269515
0.00029997
0.000341243
0.000382277
0.000395574
0.000388188
0.00036878
0.000328797
0.000284098
0.000238634
0.000197904
0.000168427
0.000150683
0.000141077
0.000136943
0.000134609
0.000132295
0.000130669
0.000130463
0.000132304
0.000136246
0.000121717
0.000118583
0.000108404
0.00018891
0.000144236
0.000454705
0.000386467
0.000554931
0.000510783
0.000693214
0.000692131
0.000648134
0.000667121
0.00062256
0.000633169
0.000601561
0.000608281
0.000647879
0.00066981
0.000713241
0.000755634
0.000730946
0.00077699
0.000697964
0.000745607
0.000640445
0.000696142
0.000556002
0.00063439
0.000468111
0.000544208
0.000451121
0.00043408
0.00043157
0.000421394
0.000421948
0.000407382
0.000449862
8.0459e-05
0.00033365
0.000189621
0.000190335
0.000201589
0.000209269
0.000221564
0.000235075
0.000254423
0.000279068
0.000310754
0.000353129
0.000391494
0.000403269
0.00039301
0.000371899
0.000333526
0.000291242
0.00024747
0.000206221
0.000172732
0.000153714
0.000143708
0.000140524
0.00013873
0.000138247
0.000137128
0.000136019
0.000135542
0.000119105
0.000118367
0.000131283
0.000111624
0.00018467
0.000326878
0.000256234
0.000628679
0.000586466
0.00068266
0.000659855
0.00068288
0.000692173
0.000626266
0.000634815
0.000614664
0.000617933
0.000678843
0.00068642
0.000788608
0.000813366
0.000813182
0.00084231
0.000780117
0.00080908
0.000732923
0.000757447
0.000680687
0.000702902
0.000617546
0.000638739
0.000521897
0.000574033
0.000565022
0.000465484
0.000502656
0.000419179
0.000432565
0.000417253
0.00043842
0.000470911
0.000487771
0.000429039
0.000423537
0.000421034
0.000426013
0.00044767
0.00021054
0.000342433
0.000222644
0.000212424
0.000220702
0.000226931
0.000242251
0.000261606
0.000287575
0.000323046
0.000365484
0.00040267
0.000412514
0.000399871
0.000375711
0.000338882
0.000299257
0.000258431
0.000215123
0.000179251
0.000158655
0.000147269
0.000144007
0.000143033
0.000143991
0.000145619
0.000144875
0.000141275
0.000137834
0.000135903
0.000131834
0.000114723
0.000175206
0.000425757
0.000351276
0.000538714
0.000492068
0.000697382
0.000685439
0.000696956
0.000699528
0.000645601
0.000659947
0.000670039
0.000658982
0.000688309
0.000682382
0.00082561
0.000831985
0.000865151
0.000882924
0.00083249
0.000852555
0.00077584
0.000789848
0.000709621
0.000721827
0.000672619
0.000621834
0.000657766
0.000608463
0.000622112
0.000559374
0.000562788
0.000542727
0.000601449
0.000548973
0.000535306
0.000533879
0.000580995
0.000522904
0.000420088
0.000414558
0.000453906
0.000487128
0.000505161
0.000439083
0.000430394
0.000386031
0.000429491
0.00041162
0.000410608
0.000386588
0.000352085
0.000245714
0.000310757
0.00024458
0.00023042
0.00023748
0.000247829
0.000269551
0.000297441
0.00033487
0.000378859
0.000415328
0.000424088
0.00040839
0.000381643
0.000345606
0.000308928
0.000270674
0.000228202
0.000194171
0.000167935
0.000152974
0.000147815
0.000146833
0.000149129
0.000151288
0.000148185
0.000138495
0.000134837
0.00013412
0.000131326
0.000125177
0.000179266
0.00042921
0.000584761
0.000580564
0.000659334
0.000635745
0.000692628
0.00069214
0.000673628
0.000685689
0.000653694
0.000654131
0.000794193
0.000766745
0.000828748
0.000815129
0.00089817
0.000909498
0.000869754
0.000886641
0.000801202
0.000810555
0.00071823
0.000713618
0.00063755
0.000617168
0.00064425
0.000646582
0.000594033
0.000574774
0.000583819
0.000556746
0.000549417
0.000550235
0.000527706
0.000524834
0.000566562
0.000542276
0.000539926
0.000536897
0.000529742
0.000425794
0.000414196
0.000468689
0.000519942
0.000501799
0.000450634
0.000408522
0.000399755
0.000404121
0.000393658
0.000271583
3.53774e-05
0.000280322
0.000301384
0.000215994
0.000261757
0.000247582
0.000259281
0.000278213
0.00030781
0.000347628
0.000392933
0.000429384
0.000437441
0.000419163
0.000389231
0.00035442
0.000321294
0.000288284
0.00025204
0.0002148
0.000183014
0.000162975
0.000153863
0.000151769
0.00015418
0.00015459
0.000141748
0.000145004
0.000157997
0.00015714
0.000152487
0.00015121
0.000200896
0.000433531
0.000622062
0.000587128
0.000657502
0.00063843
0.000684726
0.000674124
0.000670251
0.000678601
0.000660418
0.000664183
0.000734995
0.000703917
0.000905848
0.000885424
0.000916171
0.000915716
0.000903805
0.00092036
0.000820033
0.000834749
0.000710861
0.000711177
0.000641549
0.00063485
0.000629715
0.000625673
0.000579451
0.000600546
0.000605531
0.000596509
0.000538282
0.000541686
0.000552963
0.000517059
0.000504278
0.000515933
0.000491687
0.000491074
0.000523337
0.000520873
0.000503254
0.000498687
0.000508424
0.000433236
0.000416355
0.000481845
0.000499912
0.000496092
0.000461449
0.000381741
0.000370903
0.000398926
0.000379902
0.000261207
4.82104e-05
0.000205587
0.00036658
0.000218349
0.000278256
0.000270579
0.000291328
0.00032108
0.000360993
0.000408126
0.000445269
0.000453242
0.000432223
0.000399874
0.000365877
0.000338631
0.000314807
0.000277677
0.000234892
0.000201132
0.000177205
0.000162789
0.000158803
0.000160615
0.00015642
0.000157154
0.000207589
0.000253884
0.000260538
0.000232387
0.000214526
0.000254867
0.000455359
0.000601587
0.000644033
0.000640503
0.000669525
0.000660911
0.00068175
0.000680099
0.000674942
0.000676331
0.000685849
0.000677639
0.000858009
0.000825094
0.000953703
0.000952601
0.000935715
0.000947432
0.000854549
0.000878499
0.00071531
0.000730367
0.000624166
0.000622995
0.000623781
0.000623788
0.000588024
0.00058115
0.000576091
0.000573043
0.000561462
0.000565907
0.000554795
0.000545036
0.000512496
0.000524714
0.000536218
0.000482131
0.000470844
0.000489749
0.000469514
0.000466541
0.000483377
0.000491602
0.000472493
0.000468584
0.000485156
0.000440913
0.00041968
0.000491969
0.000482811
0.000485051
0.000470091
0.000360562
0.000355392
0.000397049
0.000372969
0.000227165
5.30678e-05
0.000217739
0.000370823
0.000249524
0.000300645
0.000303494
0.000335717
0.000376413
0.000425162
0.000462452
0.000471302
0.000448737
0.000413646
0.000381766
0.000359342
0.000331738
0.000291494
0.00024967
0.000215281
0.000189378
0.00017314
0.000167175
0.000167776
0.00017221
0.000237969
0.000405049
0.000565298
0.000603416
0.000528823
0.000455951
0.00043547
0.000514084
0.000625799
0.000665011
0.000653243
0.000664203
0.000664825
0.000674477
0.000671689
0.000677789
0.000678687
0.000724038
0.000711752
0.000786446
0.000750892
0.000941463
0.000922262
0.00095476
0.000970397
0.000905853
0.000932395
0.000754743
0.000787305
0.000611188
0.000623388
0.000573372
0.000574636
0.000577421
0.000582562
0.000537524
0.000532388
0.000530168
0.000530241
0.000529397
0.000516595
0.000505916
0.00049816
0.00049802
0.000511883
0.000496488
0.000454791
0.000449082
0.000476895
0.000459883
0.000450869
0.000456315
0.000466071
0.000451026
0.000445117
0.000463882
0.00044713
0.000423213
0.000488778
0.000468161
0.000475798
0.000475987
0.000353172
0.000358102
0.00039815
0.000373318
0.000253406
5.78495e-05
0.000253318
0.000362756
0.00028858
0.000332971
0.000348889
0.00039177
0.000441508
0.000483455
0.000491109
0.00046788
0.000431088
0.000399609
0.000375281
0.000336097
0.000289876
0.00025428
0.000227346
0.000204514
0.000187994
0.000180384
0.000181119
0.000203004
0.000354628
0.000643626
0.000852347
0.000855563
0.000803628
0.0007057
0.000633701
0.000609769
0.000653133
0.000764923
0.000737763
0.000784619
0.000712501
0.000724337
0.000704326
0.000706962
0.000706859
0.000705255
0.000841944
0.000816286
0.000895983
0.000867443
0.000977454
0.000976986
0.000911522
0.000946258
0.000828141
0.000871251
0.000643392
0.000678572
0.000549205
0.000555757
0.000571481
0.000563666
0.000532835
0.000535638
0.000538576
0.000543377
0.000493616
0.000492134
0.00049277
0.00049454
0.000482083
0.000470419
0.000462601
0.000458534
0.000484561
0.000467387
0.000451313
0.000437517
0.000438173
0.000461578
0.000443108
0.000446072
0.000439143
0.000449055
0.000438103
0.000431467
0.000452181
0.000451429
0.000425915
0.000487816
0.000460066
0.000472844
0.000478439
0.000357495
0.000367207
0.000400668
0.000377768
0.000272035
5.54472e-05
0.000231625
0.000330512
0.000289434
0.000377505
0.000406517
0.000456775
0.000502336
0.000516813
0.000488633
0.000452193
0.000418783
0.000383214
0.000330669
0.000290266
0.000281433
0.0002737
0.000259528
0.000236131
0.000214626
0.000207616
0.000259234
0.000476751
0.000844831
0.000984292
0.000991642
0.00090919
0.000812913
0.000719932
0.000670111
0.000706206
0.000867563
0.00101
0.00105948
0.000888192
0.000944756
0.000826178
0.000848788
0.000794112
0.00080837
0.000798855
0.00079166
0.00094757
0.000937376
0.000970461
0.000959139
0.000972715
0.000990765
0.000837426
0.000889005
0.000724446
0.000781692
0.000580731
0.000587859
0.0005945
0.000522141
0.000529996
0.000546972
0.000538768
0.000498943
0.000503699
0.000508008
0.00051457
0.000457286
0.000457912
0.000460742
0.000465778
0.000438864
0.000430866
0.00042657
0.000424876
0.000442617
0.000424815
0.00041121
0.000430999
0.000436535
0.00042231
0.000406676
0.00042935
0.000430368
0.000441585
0.00043438
0.000427927
0.00044938
0.000453343
0.000426916
0.000486495
0.000462004
0.000476273
0.000474899
0.00036579
0.000359962
0.000402732
0.000382526
0.000260253
5.22644e-05
0.000179724
0.000307398
0.000276426
0.000434624
0.000473536
0.00052086
0.000539234
0.000519033
0.000473136
0.000438156
0.000401657
0.000365431
0.000389354
0.000461737
0.000518435
0.000520959
0.000471276
0.000400039
0.000346123
0.000397927
0.000647226
0.000957689
0.00106384
0.00101616
0.000913615
0.000834682
0.000766215
0.000741682
0.000810555
0.000992565
0.00123697
0.00119601
0.00125727
0.00108789
0.00114644
0.00100007
0.00103909
0.000950855
0.000970979
0.000931752
0.000935216
0.000998871
0.000993172
0.00100141
0.00100792
0.000932605
0.000968009
0.000744142
0.00080611
0.000627734
0.000681533
0.000556002
0.000561524
0.00055144
0.000559493
0.000503422
0.000512323
0.000529944
0.000521332
0.000473165
0.000479937
0.000485908
0.000494461
0.000425823
0.000429539
0.000435181
0.000442491
0.000402488
0.000397113
0.000394935
0.000395938
0.000402619
0.00038722
0.000376946
0.000433312
0.000421032
0.000384749
0.000371612
0.000395941
0.000431643
0.000443137
0.000441006
0.000434797
0.00045709
0.0004514
0.000425549
0.00048504
0.000471431
0.000481769
0.000466263
0.000372223
0.000331004
0.000403066
0.000384932
0.000236913
2.14094e-05
0.000122357
0.000290777
0.000259817
0.000502699
0.000541044
0.00056671
0.000544178
0.00050612
0.000459315
0.00043122
0.000471829
0.000593573
0.000759357
0.000867087
0.000873562
0.000817213
0.000725395
0.000637719
0.000625283
0.000805738
0.00103869
0.00108148
0.00101403
0.000919739
0.000868953
0.000833248
0.000867371
0.000989128
0.00111353
0.00125088
0.00131459
0.00129415
0.00131421
0.00132274
0.00124309
0.00128403
0.00115491
0.00119845
0.00107999
0.00111612
0.00100471
0.00103688
0.000956558
0.000955408
0.000962952
0.000958014
0.000859858
0.000875943
0.000638375
0.000699118
0.000569545
0.000579234
0.000592341
0.000538049
0.000545596
0.000537665
0.000541762
0.000488295
0.000498578
0.000517961
0.000508701
0.000452061
0.000460026
0.00046776
0.000478141
0.000399492
0.000405263
0.000412903
0.000422544
0.000370404
0.000367439
0.000367769
0.000370576
0.000366735
0.000354401
0.000346567
0.000417575
0.000391092
0.000350168
0.000339031
0.000364207
0.000442621
0.000455338
0.000455148
0.000420633
0.000471018
0.000444097
0.000421072
0.000475301
0.000482141
0.000479915
0.000454194
0.000363683
0.000314649
0.00040015
0.000384038
0.000187262
1.59136e-05
0.000130421