/*--------------------------------*- C++ -*----------------------------------*\
  =========                 |
  \\      /  F ield         | OpenFOAM: The Open Source CFD Toolbox
   \\    /   O peration     | Website:  https://openfoam.org
    \\  /    A nd           | Version:  dev
     \\/     M anipulation  |
\*---------------------------------------------------------------------------*/
FoamFile
{
    version     2.0;
    format      ascii;
    class       volScalarField;
    location    "2500";
    object      CO2;
}
// * * * * * * * * * * * * * * * * * * * * * * * * * * * * * * * * * * * * * //

dimensions      [0 0 0 0 0 0 0];

internalField   nonuniform List<scalar> 
9836
(
1.10199e-32
3.42109e-32
1.7634e-32
6.04526e-32
8.70576e-32
1.77864e-32
6.6896e-32
1.57635e-31
7.86069e-32
1.23332e-32
1.19081e-31
3.61247e-31
1.94417e-31
6.75176e-32
2.93911e-33
1.41199e-31
4.92701e-31
4.96242e-31
2.12864e-31
3.928e-32
1.20276e-33
2.04273e-31
6.66619e-31
7.44214e-31
4.85201e-31
1.64354e-31
1.72281e-32
1.40388e-33
2.46815e-31
7.4205e-31
1.33742e-30
8.71112e-31
3.40954e-31
1.10923e-31
1.206e-32
2.54893e-34
1.94282e-31
1.0872e-30
1.97267e-30
1.59188e-30
9.17346e-31
2.9361e-31
5.8762e-32
3.91577e-33
6.29984e-35
9.10843e-32
9.08868e-31
2.53068e-30
2.70368e-30
1.48992e-30
7.42874e-31
1.6876e-31
2.61818e-32
1.54037e-33
1.73647e-35
2.19548e-31
1.13941e-30
2.77499e-30
3.74954e-30
2.93074e-30
1.23846e-30
5.83639e-31
8.08351e-32
8.00993e-33
5.00094e-34
9.0615e-36
2.63169e-31
1.39596e-30
2.62239e-30
5.33271e-30
4.8099e-30
2.83081e-30
1.11034e-30
2.60715e-31
4.94286e-32
2.71114e-33
1.29538e-34
1.44152e-36
4.07546e-31
1.31145e-30
4.32481e-30
7.03629e-30
6.663e-30
4.42093e-30
1.95491e-30
7.23144e-31
1.47467e-31
1.45812e-32
6.53546e-34
3.17239e-35
8.42531e-37
5.63793e-31
3.25882e-30
6.3345e-30
9.35915e-30
1.00033e-29
8.04025e-30
3.73226e-30
1.5745e-30
4.35419e-31
5.56065e-32
6.20649e-33
2.68837e-34
9.3744e-36
3.75986e-37
1.28131e-30
5.32299e-30
9.19205e-30
1.27775e-29
1.45872e-29
1.18961e-29
7.90616e-30
3.09116e-30
1.11348e-30
1.50856e-31
2.44869e-32
1.69354e-33
5.48867e-35
8.02784e-36
3.03551e-36
1.75678e-30
6.06669e-30
1.67722e-29
2.11562e-29
2.14862e-29
1.83695e-29
1.19963e-29
6.67517e-30
2.47903e-30
6.16013e-31
7.94164e-32
8.42939e-33
5.82372e-34
4.94934e-35
3.05733e-35
1.533e-35
3.90026e-30
2.11916e-29
3.36001e-29
3.90771e-29
3.65067e-29
3.02717e-29
1.99137e-29
1.09147e-29
5.12729e-30
1.73093e-30
2.69861e-31
2.55311e-32
2.86292e-33
2.92239e-34
1.88753e-34
2.91757e-34
2.63477e-34
7.58024e-30
5.48667e-29
4.80456e-29
7.33856e-29
5.6792e-29
5.00761e-29
3.2838e-29
1.86283e-29
9.53533e-30
3.77546e-30
9.24588e-31
1.37053e-31
9.99494e-33
1.64693e-33
1.18754e-33
1.90132e-33
2.35694e-33
1.48096e-33
4.54229e-29
1.25275e-28
1.6929e-28
1.24809e-28
1.37833e-28
9.11478e-29
5.70804e-29
2.92451e-29
1.445e-29
7.05679e-30
1.75824e-30
4.5732e-31
6.39312e-32
6.43977e-33
5.12523e-33
9.05766e-33
1.53346e-32
1.52304e-32
8.24749e-33
1.44381e-28
2.98831e-28
3.5756e-28
3.50543e-28
3.43757e-28
1.99172e-28
1.09068e-28
5.87295e-29
2.62942e-29
1.23043e-29
4.94481e-30
9.26504e-31
1.9072e-31
2.77463e-32
2.153e-32
3.84293e-32
5.5375e-32
1.11519e-31
1.18744e-31
1.45508e-31
1.51625e-28
8.99578e-28
9.11582e-28
1.13356e-27
8.36173e-28
4.74551e-28
2.08733e-28
1.11196e-28
4.5939e-29
1.92179e-29
9.09259e-30
3.15021e-30
5.59117e-31
1.05356e-31
8.66194e-32
1.75956e-31
3.37398e-31
6.69677e-31
1.14331e-30
1.39787e-30
1.17279e-30
1.46365e-28
1.23165e-27
2.94393e-27
2.23416e-27
1.9614e-27
1.18801e-27
6.18904e-28
2.16186e-28
1.07315e-28
3.85502e-29
1.58973e-29
6.24737e-30
1.39608e-30
3.27904e-31
2.87784e-31
7.06777e-31
1.54637e-30
2.50573e-30
5.9298e-30
1.10377e-29
1.21176e-29
7.07806e-30
7.36017e-28
1.8055e-27
5.90173e-27
7.77742e-27
6.13146e-27
2.64606e-27
1.38339e-27
5.89584e-28
2.15715e-28
9.42298e-29
2.83354e-29
1.15319e-29
3.90988e-30
9.03368e-31
7.36627e-31
2.46068e-30
5.80804e-30
1.34791e-29
2.66302e-29
5.46648e-29
1.07225e-28
1.15381e-28
4.86758e-29
1.05275e-27
5.29931e-27
1.56863e-26
1.35985e-26
1.27669e-26
9.0373e-27
3.97535e-27
1.40023e-27
5.24474e-28
1.85812e-28
6.78817e-29
2.18068e-29
7.56242e-30
2.97717e-30
3.40546e-30
5.59581e-30
2.26307e-29
5.4829e-29
1.11805e-28
2.53361e-28
5.29151e-28
1.03956e-27
1.22943e-27
1.20611e-27
3.02093e-27
8.70946e-27
3.54347e-26
3.36878e-26
2.8398e-26
2.64402e-26
9.84897e-27
4.09214e-27
1.33599e-27
4.21949e-28
1.3582e-28
4.74861e-29
1.49908e-29
5.74633e-30
9.69182e-30
2.81571e-29
7.32212e-29
2.30158e-28
4.44065e-28
9.86838e-28
2.73181e-27
7.67926e-27
1.05252e-26
1.03391e-26
9.31521e-27
1.31243e-26
2.30221e-26
6.01176e-26
1.08372e-25
7.50326e-26
7.25221e-26
2.91904e-26
1.18089e-26
3.78905e-27
1.1336e-27
3.28133e-28
1.00649e-28
3.44276e-29
1.61172e-29
2.24525e-29
7.83246e-29
2.27581e-28
7.58786e-28
2.34062e-27
5.63225e-27
1.39486e-26
5.14438e-26
9.09445e-26
1.04537e-25
8.60236e-26
1.08245e-25
2.81307e-26
1.13297e-25
2.08988e-25
2.1724e-25
2.35052e-25
1.68663e-25
1.01575e-25
3.51797e-26
9.90089e-27
3.0324e-27
8.60624e-28
1.90869e-28
7.31709e-29
3.7221e-29
6.06717e-29
1.791e-28
7.41396e-28
2.30235e-27
8.16403e-27
2.20406e-26
6.80954e-26
2.24849e-25
5.77055e-25
1.16174e-24
1.29918e-24
1.82808e-24
9.3852e-25
7.61955e-26
1.99018e-25
4.60406e-25
6.34375e-25
4.73967e-25
3.88335e-25
2.39518e-25
9.97174e-26
3.58322e-26
8.95675e-27
2.4804e-27
5.55878e-28
1.27218e-28
8.42381e-29
1.36938e-28
5.34864e-28
1.66365e-27
7.87123e-27
2.86883e-26
8.56859e-26
2.58206e-25
7.41107e-25
2.2498e-24
7.58136e-24
1.66588e-23
2.98603e-23
3.24375e-23
1.27591e-23
1.08229e-25
4.73095e-25
1.04882e-24
1.36451e-24
1.10594e-24
1.09729e-24
6.37462e-25
3.02832e-25
1.04431e-25
3.21905e-26
7.3787e-27
1.90158e-27
4.47465e-28
1.64025e-28
3.50232e-28
1.49277e-27
5.60621e-27
2.33882e-26
1.24631e-25
3.57704e-25
8.94748e-25
2.77051e-24
1.13105e-23
4.16958e-23
1.36194e-22
4.75948e-22
7.29072e-22
8.0797e-22
4.04979e-22
1.47455e-25
5.2299e-25
1.5889e-24
2.90702e-24
3.24063e-24
3.00877e-24
1.5858e-24
9.2306e-25
2.7866e-25
9.14451e-26
2.08315e-26
5.57811e-27
1.41316e-27
4.86657e-28
1.17109e-27
3.92095e-27
1.49416e-26
5.33224e-26
2.91855e-25
1.07848e-24
4.41805e-24
8.90497e-24
3.49914e-23
1.7664e-22
1.18705e-21
5.27023e-21
1.96231e-20
2.66275e-20
1.83058e-20
6.83966e-21
8.01095e-25
9.0807e-25
3.46393e-24
4.60772e-24
8.97389e-24
5.41523e-24
4.8234e-24
1.88138e-24
9.96132e-25
2.13691e-25
7.21866e-26
1.73052e-26
4.21402e-27
1.95869e-27
2.40012e-27
1.1963e-26
3.61161e-26
2.00959e-25
5.9736e-25
3.05649e-24
1.31256e-23
3.76084e-23
1.01101e-22
6.8243e-22
6.14769e-21
5.72937e-20
2.70926e-19
7.08635e-19
6.35984e-19
4.9665e-19
1.28178e-19
1.58359e-24
6.78089e-24
4.05307e-24
9.95169e-24
1.68174e-23
1.83904e-23
1.24397e-23
6.55066e-24
2.07815e-24
9.42521e-25
2.01789e-25
5.89743e-26
1.70704e-26
7.2073e-27
7.44594e-27
2.75634e-26
1.15164e-25
4.80215e-25
1.94468e-24
1.18183e-23
4.00315e-23
1.02977e-22
5.01518e-22
1.93336e-21
2.7043e-20
3.25892e-19
3.10264e-18
1.0259e-17
1.96314e-17
1.61872e-17
9.58421e-18
1.79123e-18
1.93017e-23
3.00262e-23
1.50861e-23
2.34475e-23
3.07279e-23
3.87103e-23
2.88843e-23
1.66498e-23
6.22853e-24
2.39731e-24
7.72579e-25
1.84972e-25
6.2215e-26
2.91805e-26
2.99527e-26
1.00192e-25
3.38253e-25
1.35533e-24
5.83496e-24
2.76144e-23
1.41843e-22
5.40196e-22
1.66622e-21
9.74274e-21
7.5029e-20
1.58959e-18
1.80746e-17
1.22793e-16
3.25885e-16
4.01694e-16
3.88879e-16
9.17977e-17
9.96567e-18
7.29177e-23
1.10139e-22
7.33138e-23
4.05957e-23
5.48583e-23
7.48329e-23
6.71065e-23
4.25494e-23
1.91645e-23
6.54239e-24
2.45956e-24
5.67618e-25
2.21127e-25
1.35301e-25
8.86367e-26
2.60803e-25
1.27077e-24
6.31135e-24
2.15222e-23
7.61437e-23
3.94432e-22
1.87052e-21
5.32379e-21
2.7662e-20
3.06606e-19
4.74734e-18
9.51405e-17
8.60662e-16
4.39881e-15
9.27185e-15
1.05036e-14
4.45437e-15
5.34353e-16
6.18071e-18
2.24332e-16
2.61456e-22
4.47557e-22
2.32273e-22
1.59287e-22
1.66798e-22
1.14305e-22
1.36262e-22
1.02207e-22
5.36815e-23
2.14502e-23
7.96557e-24
2.52808e-24
1.06269e-24
6.64616e-25
4.81685e-25
8.04996e-25
4.77283e-24
1.9126e-23
7.91834e-23
2.3052e-22
1.02565e-21
5.2205e-21
2.11323e-20
6.6826e-20
5.66247e-19
1.47865e-17
2.91763e-16
5.59557e-15
3.9553e-14
1.513e-13
2.69489e-13
2.25735e-13
1.39411e-14
2.94547e-15
5.41699e-14
6.70692e-17
1.52895e-15
9.42159e-22
1.6834e-21
1.34241e-21
6.06746e-22
6.15362e-22
3.0556e-22
3.5743e-22
2.61039e-22
1.37146e-22
6.09412e-23
2.39584e-23
1.48739e-23
3.94231e-24
3.48308e-24
2.67967e-24
2.72452e-24
9.107e-24
5.06458e-23
1.97451e-22
1.06412e-21
3.61429e-21
1.80105e-20
7.11686e-20
2.56542e-19
1.33096e-18
2.89228e-17
8.47036e-16
1.8386e-14
2.47849e-13
1.57222e-12
4.65109e-12
6.48342e-12
1.13229e-12
7.06072e-12
7.25306e-13
7.73098e-12
8.74449e-12
3.23553e-14
5.79557e-13
4.32682e-16
1.57377e-14
1.66326e-21
8.042e-21
4.18084e-21
2.82496e-21
2.28642e-21
1.06798e-21
8.97236e-22
7.68413e-22
5.02815e-22
3.09117e-22
1.08401e-22
5.03098e-23
2.63677e-23
1.61245e-23
1.75067e-23
1.12193e-23
3.44783e-23
1.3788e-22
5.1848e-22
2.87105e-21
1.08766e-20
4.46913e-20
2.41094e-19
6.289e-19
3.33716e-18
3.94383e-17
1.61742e-15
5.48713e-14
1.01065e-12
1.03217e-11
5.04087e-11
1.18657e-10
4.25251e-11
1.87768e-10
5.42639e-11
8.3487e-12
8.04145e-11
9.48035e-11
3.45117e-13
6.21314e-12
4.22157e-15
1.56499e-13
2.16421e-20
2.68471e-20
3.21586e-20
1.87272e-20
7.45761e-21
3.71766e-21
2.93089e-21
2.33247e-21
1.77644e-21
9.8982e-22
7.57859e-22
3.41232e-22
1.40665e-22
5.63223e-23
9.91317e-23
9.53897e-23
1.17427e-22
5.27766e-22
1.80108e-21
7.66619e-21
2.67141e-20
1.58069e-19
6.06321e-19
2.36587e-18
6.25649e-18
5.11105e-17
1.77158e-15
8.88668e-14
3.3307e-12
4.43522e-11
3.46736e-10
1.34496e-09
8.23262e-10
3.32697e-09
3.45383e-10
1.92807e-09
6.20432e-10
8.86037e-11
8.7075e-10
9.78816e-10
3.59466e-12
6.39635e-11
4.14761e-14
1.5732e-12
2.53848e-20
1.71708e-19
1.90831e-19
8.44597e-20
4.03734e-20
2.00031e-20
1.05577e-20
8.72582e-21
5.67766e-21
4.15125e-21
4.2465e-21
1.50926e-21
1.04045e-21
2.85762e-22
4.67955e-22
6.5437e-22
6.58168e-22
1.43005e-21
7.87916e-21
3.17179e-20
8.68411e-20
3.06707e-19
1.43841e-18
6.64651e-18
2.42359e-17
7.88556e-17
1.57559e-15
8.56458e-14
4.57644e-12
1.46715e-10
1.58918e-09
9.55726e-09
1.14011e-08
3.50103e-08
8.82236e-09
3.42524e-08
3.82043e-09
1.98314e-08
6.39044e-09
8.86409e-10
8.54627e-09
9.38903e-09
3.5963e-11
6.22093e-10
4.02048e-13
1.52338e-11
3.37322e-19
4.26814e-19
8.69474e-19
5.12377e-19
2.20251e-19
8.40741e-20
3.53592e-20
4.24425e-20
3.06552e-20
2.39442e-20
1.811e-20
1.00692e-20
4.38317e-21
2.28168e-21
1.64411e-21
3.62777e-21
3.79256e-21
7.72906e-21
2.06025e-20
1.04051e-19
2.56179e-19
1.22051e-18
2.7422e-18
1.15317e-17
5.4807e-17
1.96683e-16
1.35849e-15
6.69499e-14
4.0702e-12
2.25599e-10
5.20601e-09
4.62538e-08
9.35928e-08
2.34145e-07
1.15262e-07
3.41313e-07
8.62128e-08
3.19978e-07
3.74309e-08
1.83286e-07
5.94677e-08
8.23064e-09
7.67186e-08
8.21177e-08
3.40831e-10
5.64926e-09
3.79047e-12
1.41184e-10
4.36581e-18
4.69558e-18
2.85596e-18
2.62873e-18
9.78411e-19
3.74074e-19
2.02415e-19
1.48291e-19
1.32863e-19
1.10165e-19
7.10534e-20
4.14627e-20
3.28225e-20
1.79449e-20
1.11971e-20
1.89826e-20
2.80649e-20
3.38612e-20
1.04716e-19
3.94605e-19
1.25346e-18
3.72544e-18
1.1308e-17
2.54457e-17
1.0614e-16
3.92585e-16
1.58965e-15
4.05199e-14
2.60538e-12
1.85983e-10
8.81528e-09
1.45946e-07
5.1973e-07
1.11874e-06
8.98376e-07
2.1892e-06
1.02938e-06
2.92394e-06
7.53379e-07
2.63735e-06
3.29199e-07
1.50229e-06
4.98812e-07
7.01952e-08
6.21341e-07
6.48155e-07
3.01954e-09
4.715e-08
3.41744e-11
1.22776e-09
2.34546e-17
3.44057e-17
2.11756e-17
1.32402e-17
5.08462e-18
1.93393e-18
9.83715e-19
7.39986e-19
4.5209e-19
2.77736e-19
3.26177e-19
2.43114e-19
1.27206e-19
1.03599e-19
9.35436e-20
8.97648e-20
1.24216e-19
2.08607e-19
4.08316e-19
1.04824e-18
3.92903e-18
1.23176e-17
2.90104e-17
8.49091e-17
2.5275e-16
1.17046e-15
4.45506e-15
3.64984e-14
1.45008e-12
9.75031e-11
7.72885e-09
2.59551e-07
1.87429e-06
2.90931e-06
4.74284e-06
9.06513e-06
7.31077e-06
1.67275e-05
7.8732e-06
2.05201e-05
5.69711e-06
1.79362e-05
2.5588e-06
1.03977e-05
3.66876e-06
5.42342e-07
4.40019e-06
4.44539e-06
2.46142e-08
3.57186e-07
2.92074e-10
9.89129e-09
6.01585e-17
1.67799e-16
1.345e-16
5.82461e-17
2.41881e-17
8.27948e-18
4.49117e-18
2.92785e-18
2.54544e-18
1.2447e-18
1.44343e-18
8.38808e-19
4.91376e-19
4.65265e-19
4.75979e-19
7.04306e-19
9.2483e-19
1.2223e-18
2.63788e-18
4.33887e-18
2.12257e-17
3.88771e-17
8.56352e-17
1.67316e-16
4.48147e-16
1.9915e-15
1.17234e-14
6.19124e-14
9.89952e-13
5.4496e-11
3.84345e-09
2.46345e-07
3.73471e-06
4.46087e-06
1.44425e-05
2.07562e-05
3.25933e-05
5.50126e-05
4.73325e-05
9.46917e-05
4.81501e-05
0.000112689
3.46969e-05
9.63037e-05
1.63526e-05
5.7379e-05
2.1902e-05
3.65759e-06
2.50858e-05
2.44622e-05
1.83311e-07
2.38355e-06
2.31148e-09
7.20392e-08
2.00555e-16
7.17267e-16
6.50628e-16
3.17297e-16
1.26821e-16
4.36149e-17
1.6277e-17
1.38275e-17
8.33796e-18
7.3086e-18
4.83099e-18
3.21307e-18
1.7164e-18
1.59976e-18
2.61645e-18
3.55375e-18
4.74265e-18
8.68673e-18
1.66675e-17
2.44192e-17
6.86681e-17
1.69794e-16
2.22428e-16
6.1569e-16
1.28309e-15
4.59451e-15
2.20584e-14
1.47688e-13
1.17235e-12
3.57565e-11
2.38539e-09
1.36191e-07
4.50922e-06
4.29443e-06
2.58545e-05
3.05119e-05
8.09768e-05
0.000108419
0.000160862
0.000241736
0.000225398
0.000378356
0.000229062
0.000447889
0.000166703
0.000398689
8.29755e-05
0.00025044
0.000104234
1.97593e-05
0.000114133
0.000107498
1.20353e-06
1.27681e-05
1.65775e-08
4.59775e-07
9.75277e-16
2.82337e-15
2.44241e-15
1.64001e-15
5.96433e-16
2.17216e-16
8.35543e-17
4.23224e-17
3.17677e-17
2.28949e-17
1.89394e-17
8.65504e-18
6.7422e-18
7.06743e-18
9.04824e-18
1.70374e-17
2.1134e-17
2.99006e-17
5.87623e-17
1.46011e-16
3.74886e-16
4.6037e-16
8.78636e-16
1.98827e-15
4.57756e-15
1.39405e-14
5.188e-14
2.75582e-13
1.97201e-12
2.78875e-11
1.55353e-09
1.18682e-07
3.71145e-06
1.92593e-06
3.11802e-05
2.9842e-05
0.000130391
0.000149452
0.000326369
0.000407243
0.000557563
0.000743596
0.000725469
0.00102904
0.00075469
0.00116641
0.00060554
0.00109953
0.000332477
0.000810111
0.000390236
8.52282e-05
0.000407718
0.00037483
6.503e-06
5.50764e-05
1.05738e-07
2.49882e-06
5.40628e-15
1.47307e-14
1.45116e-14
8.88003e-15
2.47238e-15
8.53734e-16
3.22316e-16
1.9736e-16
9.89262e-17
7.93633e-17
5.05865e-17
3.86136e-17
2.2933e-17
2.8043e-17
3.21155e-17
6.15412e-17
1.03853e-16
1.9713e-16
2.61233e-16
5.93496e-16
9.88503e-16
1.99498e-15
4.55625e-15
9.40756e-15
2.05566e-14
5.14829e-14
1.63297e-13
6.25099e-13
3.48069e-12
3.2519e-11
9.33727e-10
7.8141e-08
6.41438e-06
2.71124e-05
2.52309e-05
0.000154762
0.000152342
0.000469567
0.00051945
0.000917115
0.00106468
0.00133109
0.00160871
0.00159419
0.00200208
0.0016379
0.00217075
0.00142941
0.00207713
0.000976321
0.0017
0.00106938
0.000294405
0.00107226
0.000969237
2.83565e-05
0.000190612
5.7918e-07
1.05699e-05
3.2073e-14
8.42346e-14
8.76962e-14
4.61372e-14
1.17788e-14
3.03762e-15
1.2774e-15
5.86006e-16
3.76175e-16
2.88617e-16
1.80451e-16
1.07746e-16
7.19604e-17
8.97074e-17
1.66422e-16
2.82071e-16
5.66047e-16
7.69931e-16
1.16681e-15
2.2518e-15
5.25294e-15
1.18054e-14
2.45836e-14
5.11087e-14
1.03954e-13
2.2128e-13
5.72053e-13
1.95749e-12
7.73694e-12
4.52792e-11
7.16996e-10
3.59598e-08
3.12431e-06
0.000100701
7.73335e-05
0.000143493
0.000124653
0.000536304
0.000532016
0.00117207
0.00125058
0.00184645
0.00203234
0.00238006
0.00270625
0.00268949
0.00314979
0.00272119
0.00332204
0.00244727
0.00318964
0.00188701
0.00272441
0.00197506
0.000761485
0.00195867
0.00182199
9.71246e-05
0.000513519
2.23292e-06
3.52871e-05
1.78207e-13
4.41404e-13
4.6639e-13
2.09884e-13
5.42907e-14
1.40837e-14
4.73034e-15
2.70253e-15
1.48019e-15
9.62215e-16
5.46808e-16
3.23642e-16
2.96392e-16
3.68643e-16
6.83904e-16
1.3702e-15
2.34474e-15
4.41191e-15
7.61026e-15
1.44996e-14
3.17771e-14
6.95184e-14
1.4789e-13
2.98049e-13
5.68195e-13
1.07805e-12
2.33377e-12
6.79477e-12
2.43081e-11
9.45485e-11
7.42763e-10
2.12194e-08
1.14909e-06
5.48753e-05
3.76563e-05
0.000402962
0.000331064
0.000511811
0.000466785
0.00127078
0.00126111
0.00216302
0.00224723
0.00296831
0.00316718
0.0035731
0.00389215
0.0038911
0.00431527
0.00390913
0.00448789
0.00355828
0.00436436
0.00289604
0.0038141
0.00295564
0.00153641
0.00290028
0.00270855
0.000273818
0.00110822
6.14017e-06
9.70392e-05
8.20722e-13
2.08887e-12
2.17675e-12
8.56829e-13
2.33613e-13
6.51634e-14
2.41179e-14
1.31842e-14
7.9937e-15
4.32432e-15
2.19024e-15
1.18042e-15
8.8674e-16
1.29382e-15
3.08887e-15
6.96004e-15
1.43862e-14
2.9311e-14
5.85584e-14
9.83126e-14
2.07724e-13
4.4108e-13
9.06437e-13
1.75949e-12
3.1966e-12
5.61508e-12
1.07447e-11
2.70391e-11
8.83166e-11
2.97695e-10
1.19568e-09
1.78905e-08
7.36513e-07
2.51529e-05
1.14301e-05
0.000256352
0.000188428
0.00103695
0.000907448
0.00122454
0.00114587
0.0022523
0.0022318
0.00330179
0.00335865
0.00410401
0.00421071
0.00452089
0.00460529
0.00474787
0.00482141
0.00485053
0.00500287
0.00469023
0.00509859
0.00395319
0.00489705
0.00397029
0.00237939
0.00386669
0.00363816
0.000612866
0.00188752
1.45095e-05
0.000237496
2.20269e-12
7.72456e-12
8.3602e-12
3.11781e-12
9.60518e-13
3.06592e-13
1.34074e-13
7.5714e-14
4.44136e-14
2.39252e-14
1.16475e-14
5.77734e-15
3.48171e-15
5.7538e-15
1.47492e-14
3.72881e-14
8.75495e-14
1.92371e-13
4.13398e-13
6.5732e-13
1.36509e-12
2.79724e-12
5.52873e-12
1.03081e-11
1.79812e-11
2.99112e-11
5.32312e-11
1.21615e-10
3.67829e-10
1.17468e-09
3.42287e-09
1.97959e-08
4.30668e-07
2.46937e-05
0.000128646
8.95878e-05
0.00076301
0.000613962
0.00190588
0.00172888
0.00217139
0.00205616
0.00334789
0.00330724
0.00425101
0.00424182
0.0046023
0.00458003
0.00479491
0.00472994
0.00497044
0.00486426
0.00514835
0.00506247
0.00528628
0.00528052
0.00499847
0.00543879
0.00498186
0.0032624
0.00483764
0.00457479
0.00120416
0.00272165
3.15949e-05
0.000488118
1.57822e-11
2.57799e-11
1.10843e-11
3.99971e-12
1.56291e-12
7.84139e-13
4.53377e-13
2.58265e-13
1.35121e-13
6.43615e-14
2.8892e-14
1.67353e-14
2.65731e-14
7.34412e-14
2.02484e-13
5.11914e-13
1.20675e-12
2.74449e-12
4.36833e-12
8.90829e-12
1.76064e-11
3.33396e-11
5.94549e-11
9.91619e-11
1.57692e-10
2.67669e-10
5.98559e-10
1.7472e-09
5.12425e-09
1.48133e-08
3.91266e-08
4.25683e-07
9.00439e-06
0.000246001
0.000174792
0.000469237
0.000349375
0.00153172
0.00132539
0.00287812
0.00266498
0.00321094
0.00306145
0.00421705
0.00416688
0.00454136
0.00449845
0.00462216
0.0044989
0.00465045
0.00435981
0.00480348
0.00435499
0.00510439
0.00464214
0.00541107
0.00513452
0.00556974
0.00555305
0.00566181
0.00417711
0.00565074
0.00542873
0.00195608
0.00360834
7.18667e-05
0.000919087
5.08968e-11
3.87306e-11
1.85959e-11
9.18694e-12
4.95618e-12
2.79071e-12
1.5205e-12
7.702e-13
3.57123e-13
1.5544e-13
8.15378e-14
1.20307e-13
3.5318e-13
1.04873e-12
2.85444e-12
7.2136e-12
1.73021e-11
2.84292e-11
5.7384e-11
1.09748e-10
1.98073e-10
3.35286e-10
5.29865e-10
8.0283e-10
1.30903e-09
3.01787e-09
8.98359e-09
2.72377e-08
6.02373e-08
1.11556e-07
5.3149e-07
7.0415e-06
0.000124085
6.26743e-05
0.000708979
0.000530148
0.00111494
0.000911864
0.00242558
0.00217032
0.00378009
0.00357406
0.00408222
0.00394986
0.00445826
0.00442322
0.0043847
0.00429801
0.00407649
0.00386084
0.00388519
0.00352636
0.00401301
0.00346295
0.00449294
0.00375451
0.00520488
0.00443863
0.00571694
0.00534398
0.00588571
0.00508385
0.00601187
0.00605147
0.00567185
0.00283229
0.00456549
0.000163436
0.00167462
1.22079e-10
9.85811e-11
6.20651e-11
3.43878e-11
1.80017e-11
9.11887e-12
4.37934e-12
1.96107e-12
8.25701e-13
3.95463e-13
5.25507e-13
1.61982e-12
5.15967e-12
1.5077e-11
4.08631e-11
1.03862e-10
1.79537e-10
3.62989e-10
6.75088e-10
1.15882e-09
1.83693e-09
2.71895e-09
3.86184e-09
6.16244e-09
1.44016e-08
5.03552e-08
1.40053e-07
2.34559e-07
4.51129e-07
1.02931e-06
6.84885e-06
0.000111909
0.000387438
0.000294632
0.0013927
0.00116155
0.00190709
0.00164642
0.00333146
0.00306094
0.00428591
0.00417876
0.00438953
0.00435237
0.00425097
0.00424041
0.00373588
0.00367754
0.00334951
0.0033006
0.00316706
0.00309249
0.00319738
0.00296771
0.00363232
0.00305124
0.00451185
0.00363032
0.00555971
0.00462873
0.00509805
0.00594283
0.00572434
0.00597021
0.00535364
0.0059209
0.00612247
0.00598892
0.00584546
0.0061772
0.00395161
0.00575591
0.00564412
0.00494189
0.000664494
0.00377272
4.87102e-10
4.36254e-10
2.5699e-10
1.24834e-10
5.69498e-11
2.52246e-11
1.07134e-11
4.3334e-12
1.88263e-12
2.17991e-12
6.99372e-12
2.3963e-11
7.52427e-11
2.18371e-10
5.89626e-10
1.09172e-09
2.23818e-09
4.07852e-09
6.64258e-09
9.78234e-09
1.3262e-08
1.74883e-08
2.632e-08
6.8825e-08
2.46708e-07
6.31319e-07
1.18341e-06
1.87328e-06
2.76576e-06
8.79529e-06
9.1807e-05
0.000596417
0.00042836
0.000939889
0.000771748
0.00217249
0.00189243
0.00276964
0.00247026
0.0040227
0.00381846
0.00430506
0.00430731
0.00425089
0.004277
0.00368775
0.00372462
0.0033142
0.0033488
0.00311743
0.00316486
0.00295811
0.00303316
0.0028456
0.00287995
0.0032955
0.00300261
0.0028485
0.00277596
0.00420744
0.00371519
0.0029828
0.00297529
0.00333509
0.00476568
0.00540075
0.00491541
0.00429523
0.00553418
0.00619638
0.00616803
0.00611957
0.0058689
0.00569997
0.00621667
0.00546529
0.00476239
0.00545834
0.00611529
0.00603847
0.00266916
0.00556358
0.00574208
0.00502807
2.62236e-09
1.92463e-09
9.31645e-10
3.8214e-10
1.50802e-10
5.91432e-11
2.24816e-11
8.86585e-12
8.64926e-12
2.83802e-11
1.04804e-10
3.50971e-10
1.09795e-09
3.15208e-09
6.30163e-09
1.32316e-08
2.39358e-08
3.70732e-08
5.02864e-08
6.18447e-08
7.37667e-08
1.02588e-07
2.7497e-07
1.08431e-06
3.36072e-06
6.73854e-06
8.83134e-06
9.91585e-06
1.70761e-05
9.58776e-05
0.000628583
0.00118189
0.00109383
0.00162531
0.00140902
0.00297973
0.00267707
0.00356762
0.00328348
0.0042894
0.00423165
0.00401004
0.00412585
0.00379699
0.00389429
0.00340913
0.00348163
0.00323364
0.00330204
0.00314934
0.00327506
0.00305556
0.0032979
0.00279428
0.00287548
0.00300578
0.00317951
0.002801
0.00274662
0.00276846
0.00382613
0.00337827
0.00277822
0.00277711
0.00301962
0.00444101
0.00511187
0.00461927
0.0039477
0.00529452
0.0062884
0.00633169
0.00602882
0.00548659
0.00568047
0.00617488
0.00599246
0.00604154
0.00634806
0.00635783
0.00522642
1.47463e-05
0.00168981
0.00620303
0.00615941
1.26094e-08
7.07549e-09
2.78137e-09
9.68946e-10
3.38292e-10
1.16984e-10
4.14054e-11
3.34593e-11
1.09066e-10
4.33906e-10
1.54543e-09
5.0508e-09
1.58089e-08
3.45281e-08
7.3841e-08
1.32613e-07
1.98038e-07
2.45825e-07
2.71508e-07
2.92014e-07
3.73187e-07
9.75558e-07
4.78253e-06
1.80175e-05
3.71328e-05
4.29705e-05
3.92356e-05
4.41009e-05
0.000123465
0.000609812
0.00158748
0.00134066
0.00189212
0.00170984
0.00238488
0.00212832
0.00366634
0.00340061
0.0040972
0.00390589
0.00421417
0.00425498
0.00377697
0.00390589
0.00356662
0.00366507
0.0033701
0.00344457
0.00337572
0.0034369
0.00351355
0.00365701
0.00334481
0.00352992
0.0036801
0.00383557
0.00287793
0.00304823
0.0032504
0.00346672
0.00272273
0.00275359
0.00288813
0.00347303
0.00307162
0.00270964
0.00270808
0.00279523
0.00410464
0.00481573
0.00429115
0.00359765
0.00501981
0.00629938
0.00639869
0.00587341
0.0052328
0.00545054
0.00605983
0.00639027
0.0064657
0.00647996
0.00654982
0.00424442
9.49525e-05
0.00123382
0.00651524
0.00600928
4.89284e-08
2.09574e-08
6.78789e-09
2.0627e-09
6.26201e-10
1.95424e-10
1.19591e-10
4.04688e-10
1.71139e-09
6.49842e-09
2.19326e-08
6.81119e-08
1.77089e-07
3.99589e-07
7.21714e-07
1.01318e-06
1.13744e-06
1.13104e-06
1.07425e-06
1.17986e-06
3.10089e-06
1.92863e-05
8.08443e-05
0.000160932
0.000182464
0.000147339
0.000126688
0.000204491
0.000661714
0.0017978
0.00225638
0.0022695
0.00262868
0.0024389
0.00312701
0.00286838
0.00410643
0.00393292
0.00425148
0.00421158
0.00404754
0.00416619
0.00372664
0.00384575
0.00352712
0.00362082
0.00347389
0.00352074
0.00371262
0.00368276
0.00394032
0.00403389
0.00407268
0.00409903
0.0036795
0.00388281
0.00406552
0.00422156
0.00309296
0.00333346
0.00358956
0.00384561
0.0027426
0.00290082
0.00313946
0.00315539
0.00283589
0.00273837
0.00273945
0.00271857
0.00375824
0.00449796
0.00395196
0.00327377
0.00471974
0.00623395
0.00639237
0.0056724
0.00495294
0.00519373
0.00589357
0.00663096
0.0066958
0.006533
0.00665624
0.0038237
0.000193252
0.00162522
0.00659616
0.00578933
1.49507e-07
5.01252e-08
1.36794e-08
3.55114e-09
9.50751e-10
4.11858e-10
1.25926e-09
6.53495e-09
2.59709e-08
9.094e-08
2.80026e-07
7.75451e-07
1.75466e-06
3.0419e-06
4.02476e-06
4.24067e-06
3.95514e-06
3.45906e-06
3.39947e-06
9.09969e-06
6.3591e-05
0.000256549
0.000486901
0.000558599
0.000457632
0.000337067
0.000398103
0.000826439
0.00188049
0.00286564
0.00276169
0.00297426
0.00289654
0.00330249
0.00312853
0.00372717
0.00351182
0.0042706
0.00422481
0.004246
0.00428055
0.00397666
0.00410632
0.00376773
0.00388827
0.0035767
0.00366013
0.00361079
0.00356244
0.00416183
0.00395152
0.0043409
0.00441529
0.00443448
0.00441049
0.00409215
0.0043189
0.00451753
0.0046803
0.00341909
0.00371704
0.0040185
0.00431053
0.00291368
0.00318201
0.00350313
0.00290503
0.0027463
0.00292062
0.00292408
0.00275115
0.0034325
0.00416925
0.00362623
0.00300936
0.00440683
0.00611224
0.0063222
0.00544226
0.00465911
0.00492462
0.00569675
0.00675762
0.00679651
0.00651794
0.00669681
0.00384138
0.000284631
0.00182197
0.00659679
0.00570731
3.64712e-07
9.79176e-08
2.20324e-08
4.90825e-09
1.46251e-09
3.38245e-09
2.0682e-08
9.92766e-08
3.5748e-07
1.10045e-06
2.99798e-06
6.88595e-06
1.21731e-05
1.61547e-05
1.66799e-05
1.44923e-05
1.1595e-05
9.87111e-06
2.13223e-05
0.000138946
0.000473124
0.000874371
0.00103913
0.000958057
0.000788041
0.00077459
0.00117257
0.00213014
0.0032732
0.0034852
0.00353454
0.00358877
0.00350797
0.00383284
0.00369924
0.00411964
0.00398082
0.004348
0.00434974
0.00422248
0.00430316
0.00401269
0.00413625
0.00377937
0.0039175
0.00358408
0.00366062
0.00368696
0.00351744
0.00469734
0.00451731
0.00405524
0.00431243
0.00479736
0.00485637
0.0048633
0.0048127
0.00458187
0.00482307
0.00502529
0.00518353
0.00384587
0.00419509
0.00453403
0.00485014
0.00321732
0.00357855
0.00397098
0.00279565
0.0027756
0.00323743
0.00324121
0.00291735
0.0031551
0.00385037
0.00334527
0.00286697
0.0040991
0.00595811
0.00621796
0.00520089
0.00437008
0.00466112
0.00549136
0.0068245
0.00684414
0.00647044
0.00669904
0.00386395
0.000276397
0.00184384
0.00660657
0.00569486
7.2164e-07
1.52375e-07
2.83097e-08
5.99732e-09
7.14212e-09
5.39276e-08
2.92583e-07
1.24435e-06
4.02211e-06
1.11649e-05
2.61569e-05
4.73098e-05
6.14798e-05
6.24959e-05
5.25964e-05
3.88273e-05
2.85772e-05
4.5222e-05
0.00021366
0.0006892
0.00122807
0.00153605
0.00154639
0.00141827
0.00141927
0.00180571
0.00258791
0.00332712
0.00385244
0.00374434
0.00392333
0.00389761
0.00403165
0.00396918
0.0041901
0.00410657
0.00432926
0.00427248
0.00441072
0.00444547
0.00424922
0.00434417
0.00405692
0.00418541
0.00365945
0.00382928
0.00346759
0.0035225
0.00383774
0.00360251
0.00334673
0.00502457
0.0047844
0.00418155
0.0044944
0.00528616
0.00531774
0.00529998
0.00520192
0.00513254
0.00537359
0.00556182
0.00570137
0.0043701
0.00475858
0.00511924
0.00544142
0.0036397
0.0040814
0.00453587
0.00280819
0.00291292
0.00367601
0.00367921
0.00321874
0.00297068
0.00356457
0.00312847
0.00286315
0.00382076
0.00579607
0.00610788
0.00496864
0.00410944
0.00442545
0.00529865
0.00686064
0.00688147
0.00641507
0.00669294
0.00392572
0.000195193
0.00170577
0.00664517
0.00576606
1.1279e-06
1.88957e-07
3.04352e-08
1.44227e-08
9.545e-08
6.82704e-07
3.24693e-06
1.24417e-05
3.57074e-05
8.56001e-05
0.000151539
0.000194766
0.00019598
0.000164527
0.000118
7.82382e-05
9.13764e-05
0.000303663
0.000857624
0.00156104
0.00197648
0.0020872
0.00207617
0.00214414
0.00244616
0.00291229
0.00330507
0.00355721
0.00388127
0.00367876
0.0041059
0.00400223
0.00427307
0.00419476
0.00439931
0.00434147
0.0044485
0.00443612
0.00445259
0.00448951
0.00429678
0.00438726
0.00399626
0.00414259
0.0033409
0.00354289
0.00319405
0.00319748
0.00387094
0.0035856
0.00328457
0.00305089
0.00533635
0.00502634
0.00426899
0.00466021
0.00577419
0.00577947
0.0057291
0.00557342
0.00571583
0.00594343
0.00612191
0.00623907
0.00497582
0.00538445
0.00574644
0.00605509
0.00416861
0.00467925
0.0051763
0.0029045
0.00317643
0.00422065
0.00422458
0.00364445
0.00293235
0.00333774
0.00303655
0.00292645
0.00360105
0.00565064
0.00601557
0.00476641
0.00390222
0.00424067
0.00514026
0.00688789
0.00692293
0.00637248
0.00669086
0.0040229
7.28619e-05
0.00130399
0.00671347
0.00591012
1.39198e-06
1.92624e-07
3.7859e-08
1.3988e-07
1.09218e-06
6.54409e-06
2.64207e-05
8.47526e-05
0.000191813
0.000311786
0.000378946
0.000378984
0.000327416
0.000251073
0.000181064
0.000175957
0.000393948
0.000995533
0.00177433
0.0022163
0.00237642
0.00244433
0.00254622
0.00272788
0.00295401
0.00322034
0.00320597
0.00307048
0.0028241
0.00359826
0.0033474
0.00399615
0.00381253
0.00427001
0.00414744
0.00444422
0.00436939
0.00449471
0.00448346
0.0044077
0.00443133
0.00426133
0.00434964
0.0037438
0.00391506
0.00285734
0.00306172
0.00294124
0.00286405
0.00274841
0.00388808
0.00355403
0.00313521
0.00289073
0.00562532
0.0052454
0.00433472
0.00480495
0.00627571
0.00625559
0.00613889
0.00593045
0.00631772
0.00653067
0.00668213
0.00675453
0.00563422
0.00604005
0.00638128
0.0066707
0.00479052
0.00534604
0.00585857
0.00312443
0.00356236
0.00485384
0.00485241
0.00416987
0.0029747
0.003205
0.00305411
0.00307986
0.00345705
0.0055425
0.00595571
0.00461735
0.00376985
0.00412794
0.00503719
0.00691771
0.00696971
0.00635265
0.00670214
0.00417601
8.42875e-05
0.00136284
0.00680328
0.00613426
1.39814e-06
1.77584e-07
1.76616e-07
1.54705e-06
9.5747e-06
4.53354e-05
0.000141348
0.000311084
0.000473388
0.00056163
0.000563371
0.000499302
0.000400426
0.000307193
0.000290893
0.000498242
0.0011123
0.00190195
0.00229919
0.00243809
0.00250892
0.00258742
0.00272101
0.00288965
0.00300437
0.00272714
0.00202423
0.00244465
0.00205356
0.00305683
0.00275835
0.00359917
0.00333783
0.00403484
0.00383353
0.00431374
0.0041951
0.00442454
0.00439035
0.00417963
0.00417495
0.00404645
0.00413619
0.0032816
0.0034722
0.00242149
0.00245694
0.00245562
0.00274553
0.0026953
0.00238792
0.00238924
0.0038745
0.00346557
0.00300361
0.00271915
0.00587832
0.00543151
0.00439203
0.00492617
0.00675564
0.006698
0.00651269
0.00624393
0.00691105
0.00708985
0.00719848
0.00722237