/*--------------------------------*- C++ -*----------------------------------*\
  =========                 |
  \\      /  F ield         | OpenFOAM: The Open Source CFD Toolbox
   \\    /   O peration     | Website:  https://openfoam.org
    \\  /    A nd           | Version:  dev
     \\/     M anipulation  |
\*---------------------------------------------------------------------------*/
FoamFile
{
    version     2.0;
    format      ascii;
    class       volScalarField;
    location    "2500";
    object      G;
}
// * * * * * * * * * * * * * * * * * * * * * * * * * * * * * * * * * * * * * //

dimensions      [1 0 -3 0 0 0 0];

internalField   nonuniform List<scalar> 
9836
(
3936.54
3942.15
3943.49
3947.1
3949.12
3951.14
3951.38
3954.08
3956.79
3959.5
3955
3958.37
3961.75
3965.16
3968.57
3957.97
3961.99
3966.04
3970.12
3974.24
3978.38
3960.3
3964.95
3969.65
3974.4
3979.21
3984.06
3988.93
3962.01
3967.28
3972.6
3978
3983.47
3989.02
3994.62
4000.26
3963.11
3968.98
3974.9
3980.92
3987.03
3993.25
3999.57
4005.95
4012.38
3963.63
3970.06
3976.57
3983.18
3989.91
3996.78
4003.77
4010.88
4018.07
4025.33
3963.58
3970.56
3977.62
3984.8
3992.12
3999.6
4007.24
4015.04
4022.98
4031.02
4039.14
3962.99
3970.49
3978.08
3985.8
3993.68
4001.74
4009.99
4018.45
4027.09
4035.9
4044.83
4053.85
3961.88
3969.87
3977.96
3986.2
3994.6
4003.21
4012.04
4021.11
4030.42
4039.95
4049.67
4059.54
4069.51
3960.27
3968.73
3977.29
3986.01
3994.91
4004.03
4013.41
4023.05
4032.97
4043.17
4053.64
4064.33
4075.2
4086.18
3958.2
3967.09
3976.1
3985.27
3994.63
4004.23
4014.11
4024.28
4034.78
4045.6
4056.75
4068.21
4079.93
4091.85
4103.92
3955.68
3964.99
3974.41
3983.99
3993.79
4003.84
4014.18
4024.84
4035.86
4047.25
4059.03
4071.18
4083.69
4096.51
4109.57
4122.79
3952.75
3962.44
3972.24
3982.22
3992.41
4002.87
4013.63
4024.75
4036.24
4048.15
4060.5
4073.29
4086.51
4100.14
4114.14
4128.41
4142.87
3949.42
3959.47
3969.63
3979.97
3990.53
4001.36
4012.51
4024.03
4035.96
4048.33
4061.19
4074.54
4088.41
4102.77
4117.62
4132.88
4148.46
4164.27
3945.74
3956.11
3966.6
3977.27
3988.16
3999.34
4010.84
4022.72
4035.03
4047.82
4061.13
4074.99
4089.42
4104.43
4120.03
4136.17
4152.8
4169.82
4187.09
3941.72
3952.39
3963.18
3974.15
3985.35
3996.83
4008.65
4020.86
4033.51
4046.66
4060.36
4074.65
4089.58
4105.16
4121.41
4138.33
4155.89
4174.01
4192.58
4211.46
3937.38
3948.33
3959.4
3970.64
3982.12
3993.87
4005.97
4018.47
4031.42
4044.89
4058.92
4073.59
4088.93
4104.99
4121.81
4139.4
4157.75
4176.84
4196.59
4216.87
4237.51
3932.76
3943.96
3955.28
3966.77
3978.49
3990.5
4002.84
4015.59
4028.8
4042.53
4056.86
4071.83
4087.52
4103.98
4121.27
4139.42
4158.45
4178.36
4199.12
4220.67
4242.84
4265.43
3927.88
3939.3
3950.84
3962.56
3974.5
3986.72
3999.29
4012.25
4025.69
4039.65
4054.21
4069.44
4085.41
4102.19
4119.84
4138.44
4158.03
4178.62
4200.24
4222.85
4246.37
4270.64
4295.41
3922.76
3934.38
3946.12
3958.04
3970.17
3982.59
3995.34
4008.5
4022.11
4036.26
4051.02
4066.45
4082.64
4099.66
4117.6
4136.54
4156.56
4177.7
4200
4223.49
4248.14
4273.86
4300.47
4327.69
3917.42
3929.22
3941.14
3953.23
3965.54
3978.12
3991.04
4004.35
4018.12
4032.42
4047.32
4062.91
4079.26
4096.46
4114.61
4133.79
4154.11
4175.65
4198.49
4222.67
4248.22
4275.14
4303.32
4332.57
4362.61
3911.88
3923.84
3935.92
3948.16
3960.62
3973.34
3986.4
3999.84
4013.73
4028.15
4043.16
4058.86
4075.32
4092.65
4110.93
4130.27
4150.78
4172.58
4195.79
4220.48
4246.72
4274.56
4304.01
4334.97
4367.26
4400.54
3906.18
3918.27
3930.48
3942.86
3955.44
3968.29
3981.45
3995
4008.99
4023.49
4038.59
4054.36
4070.89
4088.27
4106.62
4126.04
4146.65
4168.59
4192
4217.01
4243.73
4272.25
4302.65
4334.95
4369.1
4404.89
4441.81
3900.31
3912.53
3924.85
3937.34
3950.03
3962.98
3976.24
3989.86
4003.93
4018.49
4033.63
4049.43
4065.99
4083.39
4101.75
4121.18
4141.81
4163.78
4187.25
4212.4
4239.38
4268.34
4299.39
4332.65
4368.22
4406.04
4445.8
4486.95
3894.32
3906.63
3919.05
3931.63
3944.41
3957.44
3970.77
3984.46
3998.57
4013.17
4028.33
4044.14
4060.68
4078.05
4096.37
4115.75
4136.32
4158.24
4181.67
4206.79
4233.82
4262.96
4294.4
4328.28
4364.81
4404.12
4446.1
4490.45
4536.51
3888.2
3900.59
3913.1
3925.75
3938.6
3951.69
3965.08
3978.81
3992.95
4007.56
4022.72
4038.5
4055
4072.31
4090.55
4109.82
4130.27
4152.05
4175.34
4200.32
4227.22
4256.3
4287.82
4322
4359.09
4399.36
4442.91
4489.7
4539.42
4591.27
3881.98
3894.44
3907.01
3919.72
3932.62
3945.76
3959.18
3972.94
3987.09
4001.69
4016.83
4032.57
4049
4066.22
4084.33
4103.46
4123.73
4145.31
4168.37
4193.1
4219.75
4248.58
4279.89
4314.03
4351.3
4392.03
4436.51
4484.95
4537.35
4593.45
4652.19
3875.67
3888.19
3900.8
3913.56
3926.5
3939.66
3953.1
3966.87
3981.01
3995.6
4010.69
4026.37
4042.71
4059.81
4077.77
4096.71
4116.77
4138.09
4160.85
4185.25
4211.53
4239.96
4270.86
4304.62
4341.67
4382.43
4427.25
4476.56
4530.67
4589.72
4653.4
4720.38
3869.29
3881.84
3894.5
3907.28
3920.25
3933.43
3946.87
3960.63
3974.75
3989.3
4004.33
4019.93
4036.16
4053.12
4070.91
4089.64
4109.44
4130.46
4152.87
4176.87
4202.69
4230.6
4260.94
4294.09
4330.54
4370.86
4415.5
4464.96
4519.83
4580.59
4647.57
4720.42
4797.31
3862.85
3875.42
3888.1
3900.91
3913.88
3927.06
3940.5
3954.24
3968.32
3982.82
3997.77
4013.27
4029.39
4046.2
4063.8
4082.3
4101.82
4122.5
4144.52
4168.06
4193.34
4220.65
4250.3
4282.68
4318.26
4357.7
4401.63
4450.63
4505.4
4566.74
4635.34
4712.01
4795.9
4861.68
4863.18
3856.38
3868.94
3881.64
3894.46
3907.43
3920.6
3934.01
3947.72
3961.75
3976.18
3991.06
4006.44
4022.41
4039.05
4056.45
4074.71
4093.93
4114.27
4135.86
4158.9
4183.61
4210.24
4239.1
4270.58
4305.14
4343.39
4386.1
4434.03
4487.96
4548.84
4617.74
4695.65
4784.57
4861.75
4857.15
4908.65
4909.88
3849.88
3862.43
3875.12
3887.93
3900.89
3914.04
3927.43
3941.08
3955.06
3969.42
3984.19
3999.46
4015.29
4031.74
4048.92
4066.91
4085.83
4105.8
4126.96
4149.48
4173.57
4199.48
4227.5
4257.99
4291.39
4328.3
4369.46
4415.71
4468.09
4527.63
4595.57
4673.47
4752.16
4740.07
4849.84
4787.84
4839.32
4907.75
4902.25
4959.2
4960.07
3843.36
3855.89
3868.56
3881.35
3894.29
3907.42
3920.76
3934.36
3948.27
3962.54
3977.21
3992.35
4008.02
4024.29
4041.24
4058.96
4077.55
4097.14
4117.85
4139.85
4163.32
4188.48
4215.61
4245.06
4277.23
4312.68
4352.1
4396.33
4446.47
4503.83
4569.77
4645.98
4726.71
4711.53
4774.74
4893.53
4826.34
4881.61
4957.14
4950.52
5013.74
5014.16
3836.85
3849.34
3861.98
3874.74
3887.65
3900.73
3914.02
3927.56
3941.4
3955.57
3970.13
3985.13
4000.64
4016.71
4033.43
4050.88
4069.14
4088.34
4108.6
4130.06
4152.9
4177.32
4203.56
4231.93
4262.83
4296.74
4334.33
4376.38
4423.91
4478.3
4541.23
4614.55
4695.42
4677.9
4759.59
4742.7
4811.31
4940.31
4866.92
4926.65
5010.3
5002.35
5072.73
5072.68
3830.35
3842.79
3855.39
3868.1
3880.96
3893.99
3907.23
3920.7
3934.45
3948.53
3962.97
3977.83
3993.17
4009.05
4025.53
4042.7
4060.64
4079.46
4099.26
4120.18
4142.38
4166.05
4191.41
4218.72
4248.34
4280.7
4316.41
4356.19
4400.96
4452
4511.03
4580.23
4659.73
4640.42
4724.57
4705.26
4794.16
4775.23
4849.85
4990.45
4909.94
4974.77
5067.7
5058.16
5136.76
5136.15
3823.87
3836.26
3848.8
3861.46
3874.26
3887.22
3900.39
3913.79
3927.45
3941.42
3955.74
3970.46
3985.63
4001.31
4017.55
4034.44
4052.06
4070.5
4089.86
4110.26
4131.84
4154.76
4179.24
4205.5
4233.87
4264.72
4298.57
4336.06
4378.03
4425.6
4480.34
4544.4
4620.72
4600.27
4685.02
4663.88
4754.97
4733.53
4830.5
4809.26
4890.57
5044.27
4955.7
5026.25
5129.87
5118.42
5206.39
5205.24
3817.43
3829.74
3842.22
3854.82
3867.55
3880.44
3893.53
3906.84
3920.41
3934.27
3948.47
3963.04
3978.04
3993.51
4009.53
4026.14
4043.44
4061.5
4080.42
4100.31
4121.29
4143.52
4167.15
4192.39
4219.52
4248.89
4280.94
4316.21
4355.42
4399.55
4449.96
4508.51
4579.91
4559.31
4642.11
4619.88
4711.11
4687.84
4786.63
4762.81
4868.75
4844.92
4933.69
5102.16
5004.43
5081.35
5197.47
5183.72
5282.49
5280.69
3811.02
3823.26
3835.67
3848.19
3860.84
3873.65
3886.65
3899.86
3913.33
3927.08
3941.14
3955.57
3970.4
3985.68
4001.46
4017.81
4034.8
4052.49
4070.98
4090.38
4110.78
4132.32
4155.16
4179.45
4205.41
4233.35
4263.66
4296.81
4333.38
4374.19
4420.39
4473.54
4539.16
4519.16
4597.57
4575.32
4663.93
4639.68
4738.01
4712.44
4819.64
4793.22
4909.11
4882.43
4979.4
5164.61
5056.34
5140.5
5271.16
5254.65
5366
5363.34
3804.67
3816.83
3829.15
3841.59
3854.15
3866.87
3879.77
3892.88
3906.23
3919.86
3933.79
3948.07
3962.73
3977.81
3993.37
4009.46
4026.14
4043.48
4061.57
4080.48
4100.33
4121.22
4143.29
4166.69
4191.58
4218.2
4246.86
4277.99
4312.06
4349.75
4391.98
4440.01
4499.81
4480.77
4553.44
4532
4615.41
4591.36
4686.33
4660.04
4765.96
4738.13
4854.26
4825.26
4951.78
4922.09
5027.98
5232.16
5111.95
5204.33
5351.69
5332.01
5458.12
5454.39
3798.37
3810.44
3822.68
3835.02
3847.49
3860.11
3872.9
3885.9
3899.13
3912.63
3926.43
3940.55
3955.04
3969.93
3985.27
4001.1
4017.49
4034.49
4052.18
4070.64
4089.96
4110.24
4131.59
4154.13
4178.02
4203.44
4230.62
4259.9
4291.66
4326.44
4364.96
4408.25
4462.45
4444.53
4511.17
4490.92
4567.77
4544.78
4633.87
4608.08
4710
4681.89
4795.79
4766.06
4891.26
4860.2
4997.24
4964.98
5080.26
5305.6
5172.28
5273.92
5440.31
5416.91
5560.33
5555.28
3792.14
3804.12
3816.26
3828.51
3840.87
3853.38
3866.05
3878.93
3892.04
3905.4
3919.05
3933.02
3947.34
3962.04
3977.17
3992.75
4008.85
4025.53
4042.84
4060.86
4079.68
4099.38
4120.06
4141.82
4164.77
4189.08
4214.91
4242.54
4272.25
4304.42
4339.6
4378.51
4427.36
4410.84
4471.35
4452.41
4522.49
4500.9
4582.85
4558.33
4654.06
4626.72
4736.3
4706.85
4829.14
4798.2
4932.36
4900.24
5047
5013.37
5138.1
5386.16
5239.37
5351.5
5538.25
5510.62
5674.43
5667.63
3785.98
3797.86
3809.91
3822.04
3834.3
3846.69
3859.24
3871.99
3884.96
3898.18
3911.68
3925.49
3939.64
3954.15
3969.07
3984.42
4000.24
4016.6
4033.55
4051.16
4069.5
4088.65
4108.71
4129.74
4151.85
4175.15
4199.75
4225.89
4253.77
4283.68
4315.97
4351.15
4389.79
4434.25
4417.01
4480.05
4459.95
4534.6
4511.64
4600.04
4574.13
4677.82
4649.32
4767.63
4737.51
4868.76
4837.63
4980.45
4948.73
5103.93
5070.84
5204.83
5476.19
5316.93
5441.17
5646.99
5615.33
5802.74
5793.7
3779.9
3791.67
3803.62
3815.65
3827.78
3840.05
3852.48
3865.09
3877.91
3890.98
3904.32
3917.97
3931.94
3946.27
3960.98
3976.1
3991.67
4007.73
4024.33
4041.54
4059.42
4078.05
4097.52
4117.89
4139.23
4161.63
4185.16
4209.95
4236.2
4264.11
4293.92
4325.95
4360.62
4405.21
4388.77
4440.72
4422.52
4489.47
4468.1
4549.01
4524.67
4621.43
4594.21
4707.65
4678.07
4806.73
4775.96
4917.59
4886.37
5039.02
5008.01
5172.02
5140.59
5284.63
5579.78
5409.55
5547.99
5768.9
5734.97
5948.3
5936.41
3773.89
3785.57
3797.4
3809.32
3821.34
3833.48
3845.77
3858.23
3870.9
3883.81
3896.99
3910.47
3924.26
3938.4
3952.91
3967.81
3983.13
3998.91
4015.18
4032
4049.45
4067.59
4086.5
4106.25
4126.89
4148.48
4171.07
4194.72
4219.54
4245.69
4273.34
4302.66
4334.02
4373.44
4358.83
4410.2
4393.02
4447.7
4428.42
4501.1
4478.33
4567.65
4541.75
4648.84
4620.04
4745.06
4713.98
4854.91
4822.82
4977
4944.99
5109.77
5078.94
5254.01
5223.92
5380.05
5702.42
5519.85
5675.01
5907.59
5875.05
6114.84
6099.35
3767.96
3779.54
3791.27
3803.08
3814.97
3826.98
3839.12
3851.44
3863.95
3876.69
3889.7
3902.99
3916.61
3930.56
3944.87
3959.55
3974.64
3990.14
4006.11
4022.57
4039.61
4057.27
4075.65
4094.8
4114.8
4135.67
4157.43
4180.1
4203.73
4228.38
4254.17
4281.2
4309.6
4345.15
4332.12
4376.92
4361.81
4416.52
4398.22
4456.56
4435.96
4516.54
4492.08
4591.69
4563.84
4682.84
4651.81
4789.89
4756.2
4911.67
4876.74
5046.84
5012.2
5193.37
5160.91
5351.05
5321.37
5492.39
5848.3
5649.42
5824.25
6068.27
6041.53
6306.88
6287.52
3762.19
3773.59
3785.22
3796.92
3808.69
3820.56
3832.56
3844.71
3857.06
3869.62
3882.45
3895.56
3908.98
3922.74
3936.85
3951.33
3966.19
3981.44
3997.12
4013.25
4029.89
4047.1
4064.97
4083.56
4102.94
4123.14
4144.18
4166.02
4188.64
4212.07
4236.32
4261.43
4287.46
4314.37
4347.66
4334.31
4381.11
4365.13
4425.34
4405.58
4468.61
4446.36
4536.55
4509.96
4621.05
4590.65
4722.06
4687.82
4840.09
4802.22
4974.78
4934.9
5125.11
5085.22
5288.87
5251.59
5463.87
5431.98
5622.68
6020.03
5799.82
5998.35
6258.12
6238.81
6529.32
6507.01
3767.8
3779.26
3790.85
3802.5
3814.23
3826.08
3838.08
3850.25
3862.63
3875.26
3888.17
3901.39
3914.95
3928.86
3943.13
3957.78
3972.8
3988.21
4004.04
4020.31
4037.1
4054.47
4072.51
4091.3
4110.88
4131.26
4152.39
4174.19
4196.61
4219.61
4243.17
4267.3
4291.94
4323.11
4310.83
4350.22
4336.22
4387.1
4369.88
4437.16
4415.57
4484.4
4460.12
4560.75
4531.61
4653.77
4620.12
4763.67
4725.08
4892.67
4848.96
5041.42
4994.36
5209.21
5161.45
5393.87
5348.79
5592
5553.5
5771.21
6221.61
5972.92
6199.45
6484.85
6472.55
6788.38
6765.48
3773.46
3784.87
3796.4
3808
3819.7
3831.53
3843.52
3855.71
3868.14
3880.84
3893.85
3907.2
3920.9
3934.97
3949.41
3964.22
3979.39
3994.93
4010.87
4027.26
4044.16
4061.67
4079.87
4098.84
4118.61
4139.12
4160.26
4181.88
4203.88
4226.2
4248.79
4271.6
4299.54
4288.94
4325.16
4312.51
4353.83
4338.92
4395.39
4376.59
4451.77
4428.06
4503.62
4476.98
4587.12
4555.18
4686.9
4649.41
4804.71
4760.81
4944.71
4893.79
5108.86
5052.79
5296.77
5238.63
5506.54
5450.45
5733.63
5684.18
5936.97
6458.35
6169.69
6363.92
6382.82
6754.48
6749.86
7094.42
7076.33
3779.07
3790.41
3801.88
3813.43
3825.09
3836.9
3848.89
3861.1
3873.58
3886.37
3899.49
3912.98
3926.84
3941.08
3955.68
3970.63
3985.92
4001.57
4017.59
4034.05
4051.04
4068.67
4087.03
4106.2
4126.14
4146.75
4167.77
4189.01
4210.34
4231.7
4253.06
4274.32
4300.9
4290.06
4328.39
4314.99
4359.14
4343.07
4405.89
4385.24
4468.1
4442.22
4524.64
4495.6
4612.99
4578.13
4717.83
4676.13
4843.04
4793.38
4994.71
4936.15
5175.7
5109.99
5385.87
5316.31
5625.13
5555.7
5888.78
5772.45
5806.62
6089.17
6060.28
6506.24
6671.61
6656.75
6345.19
6317.27
6184.5
6486.69
7081.74
6820.32
6993.68
7001.13
7497.13
7490.38
3784.6
3795.86
3807.27
3818.77
3830.39
3842.18
3854.17
3866.42
3878.96
3891.85
3905.1
3918.74
3932.77
3947.18
3961.93
3977.01
3992.39
4008.1
4024.16
4040.66
4057.72
4075.46
4094
4113.38
4133.52
4154.13
4174.87
4195.46
4215.83
4235.99
4255.98
4281.09
4271.46
4302.78
4291.51
4332.9
4318.54
4366.16
4348.73
4417.97
4395.37
4484.19
4456.37
4545.05
4513.74
4636.17
4598.4
4745.3
4699.2
4878.38
4822.5
5042.94
4976.09
5242.54
5166.56
5474.28
5435.82
5395.73
5355.62
5737.33
5698.86
5521.13
5615.36
5658.08
5878.69
6030.76
5994.38
5842.22
6153.69
6640.15
6805.57
6461.71
6430.3
6286.68
6616.54
7184.85
7396.24
7394.36
6983.6
7177.54
8175.88
7638.28
7933.86
7970.95
3790.04
3801.22
3812.56
3824
3835.59
3847.35
3859.36
3871.65
3884.28
3897.28
3910.68
3924.49
3938.7
3953.27
3968.16
3983.34
3998.77
4014.48
4030.54
4047.04
4064.15
4082.02
4100.79
4120.45
4140.77
4161.27
4181.43
4201.05
4220.22
4239.04
4258.05
4282.72
4272.55
4305.52
4293.61
4338.49
4323.01
4374.56
4355.63
4430.27
4405.94
4498.29
4468.86
4562.92
4529.59
4655.65
4615.03
4769.07
4718.49
4910.87
4848.35
5089.82
5013.99
5313.76
5272.61
5229.65
5187.79
5480.23
5437.51
5393.79
5802.84
5760.47
5570.87
5669.04
5715.68
5955.76
6118.53
6078.46
5914.17
6250.71
6783.89
6964.77
6585.8
6393.7
6548.38
6754.34
7390.68
7633.63
7161.63
7377.65
8302.29
8666.28
8656.56
7917.45
8255.91
3795.4
3806.48
3817.75
3829.13
3840.67
3852.42
3864.44
3876.79
3889.52
3902.67
3916.24
3930.24
3944.63
3959.37
3974.37
3989.6
4005.03
4020.69
4036.68
4053.15
4070.31
4088.36
4107.45
4127.5
4147.97
4168.03
4187.19
4205.56
4223.37
4241
4264.46
4255.29
4284.82
4274.24
4309.04
4296.36
4344.72
4328.07
4383.56
4363.17
4441.25
4415.59
4509.33
4478.62
4577.27
4542.12
4671.36
4627.98
4789.13
4733.82
4940.49
4870.55
5144.68
5103.07
5060.76
5020.2
5349.36
5304.66
5259.24
5213.92
5525.86
5479.71
5432.57
5870.15
5823.56
5621.14
5724.16
5774.66
6034.73
6210.1
6165.04
5988.07
6351.77
6936.74
7135.48
6716.92
6505.19
6672.04
6899.73
7619.6
7897.03
7353.7
7595.44
8625.85
8938.05
8937.61
8216.54
8575.81
3800.66
3811.64
3822.81
3834.12
3845.62
3857.36
3869.41
3881.84
3894.7
3908.01
3921.78
3935.99
3950.58
3965.46
3980.54
3995.76
4011.11
4026.65
4042.52
4058.94
4076.17
4094.52
4114.19
4134.63
4154.83
4173.93
4191.78
4208.77
4225.19
4242.31
4265.74
4255.97
4287.26
4276.06
4313.07
4299.53
4350.85
4333.14
4392
4370.43
4449.93
4423.35
4517.18
4485.38
4588.11
4551.32
4683.06
4637.03
4804.85
4744.49
4979.62
4940.86
4902.65
4866.28
5168.51
5123.68
5079.2
5035.7
5384.95
5336.94
5288.44
5239.95
5572.31
5522.5
5471.77
5939.36
5888.3
5672.39
5780.6
5835.16
6116.04
6305.21
6254.52
6064.31
6456.67
7099.09
7318.11
6854.39
6621.17
6801.16
7052.94
7868.67
8177.47
7559.99
7829.91
8923.26
9233.07
9230.62
8522.91
8885.13
3805.81
3816.67
3827.75
3838.99
3850.43
3862.17
3874.26
3886.8
3899.81
3913.33
3927.33
3941.78
3956.56
3971.56
3986.66
4001.79
4016.97
4032.29
4047.97
4064.31
4081.79
4100.77
4120.9
4141.22
4160.59
4178.39
4194.86
4210.36
4225.76
4247.33
4238.28
4266.93
4256.77
4289.74
4277.86
4317.17
4302.77
4356.06
4337.54
4398.87
4376.46
4455.89
4428.69
4521.82
4489.2
4595.27
4557.08
4690.12
4641.62
4815.53
4749.99
4993.1
4951.79
4911.74
4873.59
5191.66
5143.89
5096.75
5050.59
5420.65
5369.17
5317.33
5265.56
5619.58
5565.86
5511.28
6010.67
5955.01
5724.67
5838.62
5897.6
6200.19
6403.65
6346.95
6143.26
6565.47
7271.38
7512.74
6998.24
6741.81
6935.94
7214.38
8133.15
8468.62
7780.12
8079.25
9225.52
9562.72
9560.15
8831.3
9196.27
3810.82
3821.56
3832.54
3843.69
3855.1
3866.84
3879.01
3891.68
3904.89
3918.65
3932.93
3947.63
3962.6
3977.67
3992.69
4007.61
4022.47
4037.47
4052.93
4069.39
4087.36
4106.75
4126.87
4146.49
4164.63
4181.02
4195.98
4210.17
4224.85
4247.27
4237.74
4267.82
4257.2
4291.87
4279.33
4320.78
4305.62
4359.75
4340.69
4403.65
4380.69
4459.17
4431.53
4523.08
4489.99
4598.32
4559.08
4692.07
4641.21
4839.03
4801.8
4734.06
4766.98
5005.56
4961.8
4919.45
4878.6
5214.17
5163.39
5113.46
5064.65
5456.38
5401.22
5345.8
5290.58
5667.64
5609.73
5550.98
6084.49
6024.13
5778.09
5898.25
5962.11
6287.2
6505.61
6442.56
6224.99
6678.23
7453.78
7719
7148.96
6867.46
7076.63
7384.52
8409.43
8768.52
8014.01
8341.39
9549.98
9914.47
9909.86
9145.32
9521
3815.69
3826.29
3837.15
3848.22
3859.59
3871.36
3883.64
3896.49
3909.96
3924.04
3938.64
3953.62
3968.73
3983.73
3998.51
4013.05
4027.49
4042.14
4057.55
4074.31
4092.7
4112.11
4131.49
4149.83
4166.5
4181.32
4194.87
4208.23
4227.88
4218.98
4246.88
4237.1
4268.24
4257.2
4293.29
4280.21
4323.38
4307.63
4361.66
4342.28
4406.14
4382.89
4459.66
4431.82
4520.7
4487.6
4596.7
4556.87
4704.17
4675.78
4635.65
4841.74
4802.88
4732.61
4766.5
5017.06
4970.79
4926.11
4883.03
5235.9
5182
5129.15
5077.64
5492
5432.88
5373.64
5314.79
5716.46
5653.96
5590.67
6160.96
6095.63
5832.61
5959.24
6028.51
6377.16
6611.09
6541.45
6309.53
6795.07
7646.48
7937.48
7307.24
6998.39
7223.7
7564.02
8697.29
9079.08
8261.68
8616.17
9891.68
10265.3
10262.9
9471.55
9861.79
3820.39
3830.83
3841.57
3852.55
3863.9
3875.74
3888.17
3901.28
3915.11
3929.59
3944.55
3959.7
3974.76
3989.52
4003.89
4017.94
4031.93
4046.38
4061.96
4079.21
4097.56
4116.14
4134.16
4150.87
4165.86
4179.39
4192.37
4205.58
4226.56
4217.57
4246.04
4236.02
4268.05
4256.68
4293.76
4280.34
4324.61
4308.49
4361.66
4342.16
4406.31
4382.99
4457.28
4429.51
4514.64
4481.9
4590.59
4550.53
4701.62
4673.33
4642.05
4616.41
4843.31
4802.82
4729.96
4765.01
5027.45
4978.67
4931.67
4886.45
5256.68
5199.54
5143.67
5089.36
5527.28
5463.92
5400.63
5337.96
5765.89
5698.33
5630.07
6240.23
6169.4
5888.06
6021.45
6096.66
6470.07
6720.14
6643.63
6397.07
6916.61
7850.25
8169.75
7473.98
7135.15
7378.16
7753.73
8999.2
9403.88
8523.1
8906.08
10243.2
10594.4
10598.3
9814.75
10219.4
3824.9
3835.17
3845.76
3856.66
3868.01
3879.96
3892.65
3906.16
3920.46
3935.33
3950.51
3965.65
3980.48
3994.83
4008.68
4022.22
4035.88
4050.45
4066.55
4083.79
4101.31
4118.5
4134.84
4149.93
4163.8
4176.92
4189.88
4208.06
4200.16
4225.27
4216.38
4244.82
4234.73
4267.2
4255.62
4293.22
4279.66
4324.33
4308.06
4359.72
4340.3
4404.13
4380.95
4451.96
4424.58
4505.33
4473.08
4594.4
4572.77
4540.54
4697.97
4668.85
4636.17
4611.02
4843.76
4801.66
4726.33
4762.5
5036.54
4985.27
4936
4888.74
5276.27
5215.8
5156.82
5099.65
5561.91
5494.03
5426.47
5359.82
5815.72
5742.51
5668.82
6322.19
6245.45
5944.24
6084.59
6166.4
6566.07
6833.51
6749.72
6487.35
7043.65
8066.99
8416.95
7649.9
7278.41
7540.77
7955.34
9318.23
9747.15
8799.82
9215
10598.5
10909.3
10928.2
10179.3
10596.9
3829.19
3839.25
3849.69
3860.52
3871.94
3884.12
3897.23
3911.25
3926
3941.16
3956.37
3971.3
3985.72
3999.53
4012.83
4025.98
4039.74
4054.85
4071.09
4087.6
4103.81
4119.44
4134.32
4148.39
4161.81
4175.03
4188.55
4207.11
4199.47
4224.06
4215.31
4243.43
4233.42
4265.76
4254.19
4291.72
4278.23
4322.58
4306.44
4355.9
4336.86
4399.6
4376.78
4443.83
4417.16
4504.98
4488.06
4461.34
4588.44
4567.31
4521.91
4541.23
4693.42
4663.56
4629.86
4604.69
4843.13
4799.45
4721.88
4759.03
5044.23
4990.55
4939.08
4889.86
5294.42
5230.52
5168.39
5108.36
5595.54
5522.85
5450.83
5380.03
5865.69
5786.14
5706.49
6406.59
6323.39
6000.67
6148.1
6237.29
6665.6
6951.59
6859.87
6580.39
7176.53
8298.58
8680.02
7836.68
7428.86
7713.32
8170.83
9657.75
10114.2
9095.51
9546.4
10973.2
11301
11339
10571.5
11009.6
3833.22
3843.04
3853.32
3864.14
3875.75
3888.37
3902.06
3916.63
3931.72
3946.95
3961.95
3976.48
3990.36
4003.61
4016.49
4029.69
4044.01
4059.45
4075.15
4090.47
4105.26
4119.6
4133.56
4147.26
4161
4174.98
4192.32
4185.9
4206.57
4199.19
4223.1
4214.54
4242.11
4232.28
4264
4252.66
4289.46
4276.23
4319.56
4303.84
4350.53
4332.25
4392.85
4370.7
4433.33
4407.6
4498.06
4481.4
4458.88
4444.08
4581.93
4560.83
4515.38
4533.95
4688.15
4657.64
4623.03
4597.79
4841.5
4796.37
4716.75
4754.77
5050.39
4994.43
4940.9
4889.86
5310.82
5243.44
5178.15
5115.27
5627.74
5550.01
5473.31
5398.23
5915.12
5828.65
5742.65
6492.98
6402.51
6056.56
6211.35
6308.65
6768.21
7074.58
6973.98
6675.58
7315.94
8546.7
8961.54
8036.36
7588.24
7897.88
8402.75
10022.4
10511.3
9414.93
9904.19
11430.8
11888.5
11925.8
11001.8
11490.2
3836.93
3846.49
3856.65
3867.59
3879.64
3892.92
3907.27
3922.26
3937.43
3952.46
3967.08
3981.09
3994.42
4007.24
4020.13
4033.88
4048.68
4063.81
4078.49
4092.54
4106.24
4119.93
4133.8
4147.97
4162.37
4176.93
4192.87
4186.68
4206.52
4199.44
4222.53
4214.21
4241.09
4231.49
4262.3
4251.34
4286.81
4274.08
4315.69
4300.62
4344.21
4327.03
4384.33
4363.25
4430.7
4417.64
4396.29
4490.73
4474.24
4451.46
4437.18
4574.91
4553.69
4508.11
4526.49
4682.29
4651.13
4615.89
4590.54
4838.92
4792.53
4711.06
4749.86
5054.87
4996.8
4941.36
4888.68
5325.16
5254.33
5185.96
5120.32
5658.1
5575.06
5493.52
5414.08
5963.3
5869.57
5776.96
6580.43
6481.73
6111.34
6272.9
6379.22
6873.74
7203.3
7092.25
6772.4
7462.89
8813.8
9266.62
8251.93
7758.29
8097.64
8654.83
10417.3
10946.2
9762.02
10292.5
12017.5
12680.3
12690.5
11487
12059.2
3840.27
3849.55
3859.72
3871.08
3883.89
3897.98
3912.82
3927.9
3942.89
3957.55
3971.68
3985.16
3998.08
4010.85
4024.25
4038.58
4053.32
4067.7
4081.34
4094.57
4107.97
4121.79
4136.03
4150.59
4165.25
4179.49
4193.68
4187.66
4206.93
4200.06
4222.48
4214.38
4240.52
4231.2
4260.92
4250.42
4284.16
4272.12
4311.44
4297.21
4337.39
4321.54
4374.5
4354.95
4423.83
4411.11
4381.83
4392.77
4483.01
4466.66
4443.75
4429.74
4567.47
4546.17
4500.41
4518.78
4675.99
4644.29
4608.67
4583.15
4835.37
4787.97
4704.93
4744.4
5057.57
4997.56
4940.34
4886.23
5337.14
5262.91
5191.6
5123.37
5686.29
5597.63
5511.07
5427.18
6009.74
5908.51
5809.08
6668.29
6560.16
6163.72
6331.22
6447.67
6981.96
7337.97
7214.51
6870.45
7618.76
9104.55
9600.35
8488.35
7942.41
8317.48
8931.05
10848.5
11427.9
10140.3
10714.9
12717.6
13596
13542.1
12038.5
12709.7
3843.13
3852.22
3862.75
3874.98
3888.76
3903.45
3918.43
3933.34
3947.97
3962.16
3975.79
3988.86
4001.69
4014.92
4028.93
4043.4
4057.67
4071.22
4084.26
4097.39
4110.96
4125.01
4139.44
4153.95
4168.18
4184.45
4188.72
4178.93
4194.64
4207.52
4200.85
4222.73
4214.8
4240.34
4231.28
4259.9
4249.88
4281.73
4270.47
4307.09
4293.87
4330.12
4315.76
4363.75
4345.98
4416.61
4404.28
4375.57
4386.03
4474.92
4458.75
4435.68
4421.91
4559.85
4538.45
4492.31
4510.84
4669.36
4637.28
4601.26
4575.59
4830.73
4782.6
4698.34
4738.39
5058.43
4996.63
4937.84
4882.48
5346.37
5268.84
5194.72
5124.08
5711.88
5617.23
5525.44
5437.08
6053.47
5944.51
5837.96
6755.83
6636.65
6212.37
6385.46
6512.82
7092.24
7479.8
7342.24
6968.78
7787.25
9423.44
9965.59
8748.99
8144.85
8560.6
9233.97
11321.9
11963.7
10551.5
11176.6
13487.8
14375.8
14356.4
12655.4
13422.6
3845.4
3854.68
3866.18
3879.61
3894.16
3909.07
3923.9
3938.44
3952.62
3966.33
3979.57
3992.54
4005.76
4019.54
4033.79
4048
4061.6
4074.64
4087.59
4100.87
4114.61
4128.7
4142.94
4157.09
4171.15
4190.11
4185.98
4180.34
4195.93
4208.48
4202
4223.15
4215.5
4240.13
4231.39
4258.84
4249.29
4279.29
4268.8
4302.59
4290.48
4322.52
4309.65
4360.04
4351.26
4336.66
4409.09
4397.16
4369.24
4379.17
4466.56
4450.52
4427.3
4413.78
4552.13
4530.63
4483.88
4502.53
4662.28
4629.95
4593.52
4567.67
4824.77
4776.15
4691.14
4731.58
5057.11
4993.75
4933.71
4877.3
5352.44
5271.69
5194.86
5121.97
5733.97
5633.11
5536.01
5443.14
6093.31
5976.33
5862.35
6841.8
6709.79
6256.65
6434.46
6573.33
7205.55
7632.56
7478.31
7067.47
7971.84
9772.81
10362.5
9034.11
8367.95
8825.53
9564.58
11842.4
12554.7
10998.4
11680.9
14279.1
15307.5
15222.8
13327.8
14176.4
3847.14
3857.43
3870.43
3884.92
3899.85
3914.65
3929.12
3943.21
3956.92
3970.27
3983.41
3996.66
4010.3
4024.36
4038.48
4052.14
4065.24
4078.12
4091.16
4104.55
4118.27
4132.2
4146.17
4160.13
4174.14
4191.68
4187.52
4181.86
4197.49
4209.83
4203.5
4223.87
4216.59
4239.93
4231.66
4257.57
4248.58
4276.61
4266.89
4297.81
4286.85
4315.24
4303.87
4354.14
4345.85
4326.7
4333.54
4401.34
4389.84
4362.89
4372.31
4457.89
4441.98
4418.59
4405.45
4544.1
4522.52
4475.14
4493.86
4654.72
4622.26
4585.26
4559.25
4817.25
4768.32
4683.07
4723.64
5053.19
4988.51
4927.57
4870.38
5354.69
5270.72
5191.27
5116.32
5751.46
5644.38
5541.91
5444.51
6128.64
6003.12
5881.44
6925.55
6778.09
6295.33
6473.28
6627.73
7323.22
7798.22
7623.72
7166.09
8173.41
10151.2
10791.7
9342.71
8608.9
9109.74
9920.9
12411.3
13196.1
11485
12229.6
15097.9
16226
16103.5
14047
14961.9
3848.85
3861.08
3875.59
3890.71
3905.62
3920.07
3934.07
3947.72
3961.1
3974.33
3987.6
4001.15
4015.04
4029.03
4042.67
4055.86
4068.73
4081.62
4094.72
4108.1
4121.71
4135.45
4149.25
4163.08
4176.99
4183.29
4193.27
4189
4199.13
4211.4
4205.15
4224.87
4217.95
4239.91
4232.19
4256.35
4247.98
4273.99
4265.01
4293.27
4283.38
4322.47
4313.07
4307.69
4298.48
4348.34
4340.65
4328.89
4393.45
4382.45
4356.57
4365.42
4448.77
4433
4409.53
4396.87
4535.64
4514.01
4465.94
4484.62
4646.53
4614.09
4576.06
4550.03
4807.81
4758.8
4673.73
4714.18
5045.98
4980.27
4918.75
4861.2
5352.23
5265.08
5183.07
5106.15
5763.52
5650.05
5542.13
5440.28
6158.61
6019.39
5888.6
6998.87
6835.55
6324.93
6534.42
6679.72
7445.96
7975.93
7770.61
7267.63
8388.01
10558.4
11256.1
9673.08
8863.06
9415.03
10300.8
13027.5
13885.1
12011.9
12822
15928.7
16825.8
16806.3
14804.8
15771.6
3851.48
3865.92
3881.49
3896.75
3911.32
3925.28
3938.84
3952.16
3965.37
3978.63
3992.1
4005.83
4019.64
4033.24
4046.47
4059.36
4072.15
4085.04
4098.14
4111.46
4124.94
4138.53
4152.18
4165.89
4181.82
4184.74
4186.08
4176.35
4194.77
4190.42
4200.65
4212.86
4206.66
4225.96
4219.28
4240.15
4232.92
4255.42
4247.66
4271.68
4263.42
4289.13
4280.24
4318.56
4309.55
4304.48
4293.55
4342.73
4335.6
4324.42
4385.42
4374.99
4350.35
4358.57
4439
4423.53
4400.09
4388.04
4526.47
4504.79
4455.97
4474.46
4637.33
4604.97
4565.42
4539.53
4795.53
4746.76
4662.41
4702.45
5034.38
4967.81
4906.12
4848.7
5344.26
5253.97
5169.45
5090.69
5765.93
5648.12
5536.4
5431.46
6186.99
6058.41
5874.89
7091.07
6847.17
6323.95
6511.34
6698.98
7568.39
8161.85
7934.25
7387.36
8612.73
10996.2
11758.8
10024
9123.2
9736.75
10708.2
13689.9
14618.9
12580.2
13458.4
16726.1
17315.7
17461.6
15597.2
16601.8
3855.82
3871.92
3887.91
3902.84
3916.85
3930.32
3943.53
3956.66
3969.85
3983.21
3996.76
4010.38
4023.91
4037.11
4050.01
4062.74
4075.48
4088.36
4101.42
4114.64
4127.99
4141.45
4154.98
4168.57
4187.42
4183.12
4191.77
4177.57
4196.18
4202.04
4214.12
4208.01
4226.87
4220.4
4240.36
4233.52
4254.59
4247.39
4269.51
4261.96
4285.25
4277.27
4314.7
4306.16
4301.63
4298.46
4291.82
4288.09
4337.18
4330.61
4320.08
4377.25
4367.5
4344.18
4351.73
4428.47
4413.52
4390.22
4378.96
4516.12
4494.5
4445.02
4463.11
4626.44
4594.29
4552.77
4527.24
4779.04
4731
4648.23
4687.51
5017.72
4950.52
4888.88
4831.75
5332.59
5239.91
5153.59
5073.67
5755.78
5639.86
5528.64
5423.58
6195.07
6037.17
5869.78
7064.11
6841.36
6318.52
6505.21
6693.91
7624.14
8362.91
7913.61
7367.4
8849.96
11470.8
12302.6
10397.4
9252.31
10076.4
9586.7
11150.6
14399.9
15391.9
13190.5
14141.9
17558.5
17980.3
18514.1
16427.2
17485.6
3861.88
3878.84
3894.52
3908.77
3922.23
3935.34
3948.34
3961.38
3974.57
3987.92
4001.36
4014.73
4027.86
4040.72
4053.4
4066.03
4078.73
4091.56
4104.53
4117.64
4130.88
4144.22
4157.66
4171.2
4193.07
4188.71
4184.41
4197.51
4178.87
4203.32
4215.22
4209.22
4227.58
4221.34
4240.43
4233.94
4253.72
4247.03
4267.38
4260.5
4281.42
4274.36
4310.9
4302.8
4295.63
4289.24
4285.67
4331.74
4325.75
4315.82
4368.95
4359.95
4338.1
4344.96
4417.08
4402.88
4379.98
4369.71
4504.07
4482.77
4432.92
4450.33
4612.95
4581.24
4537.56
4512.64
4757.7
4710.63
4630.44
4668.53
4999.91
4930.86
4867.36
4810.22
5324.19
5231.08
5144.64
5064.92
5750.89
5635.08
5523.99
5419.03
6190.53
6031.33
5865.36
7058.55
6836.1
6313.77
6499.92
6689.12
7619.23
8348.88
7908.26
7361.72
8835.61
12001.5
12887.3
10798.5
9247.19
10084.4
9580.75
11625.6
15150.8
16206.5
13845.5
14870.1
18600.9
21358
20232.9
17310.2
18483.3
3869.42
3886.15
3900.92
3914.52
3927.59
3940.46
3953.32
3966.29
3979.4
3992.61
4005.78
4018.78
4031.56
4044.17
4056.7
4069.24
4081.86
4094.61
4107.48
4120.49
4133.63
4146.88
4160.25
4173.75
4180.13
4198.78
4194.34
4189.98
4185.68
4204.53
4216.22
4210.35
4228.18
4222.17
4240.4
4234.26
4252.77
4246.57
4265.23
4259
4277.75
4271.48
4307.16
4299.56
4292.78
4286.76
4283.57
4326.39
4320.97
4311.64
4360.59
4352.41
4332.14
4338.3
4404.84
4391.63
4369.56
4360.41
4490
4469.3
4419.7
4436.16
4596.2
4565.31
4519.5
4495.6
4734.53
4687.61
4608.63
4645.47
4991.3
4897.65
4841.89
4786.57
5319.75
5226.74
5140.43
5060.85
5746.65
5630.98
5519.97
5415.13