/*--------------------------------*- C++ -*----------------------------------*\
  =========                 |
  \\      /  F ield         | OpenFOAM: The Open Source CFD Toolbox
   \\    /   O peration     | Website:  https://openfoam.org
    \\  /    A nd           | Version:  dev
     \\/     M anipulation  |
\*---------------------------------------------------------------------------*/
FoamFile
{
    version     2.0;
    format      ascii;
    class       volScalarField;
    location    "2500";
    object      H2O;
}
// * * * * * * * * * * * * * * * * * * * * * * * * * * * * * * * * * * * * * //

dimensions      [0 0 0 0 0 0 0];

internalField   nonuniform List<scalar> 
9836
(
1.05028e-32
3.26056e-32
1.68065e-32
5.76159e-32
8.29725e-32
1.69518e-32
6.37571e-32
1.50238e-31
7.49184e-32
1.17545e-32
1.13493e-31
3.44296e-31
1.85294e-31
6.43494e-32
2.8012e-33
1.34573e-31
4.69582e-31
4.72957e-31
2.02876e-31
3.74369e-32
1.14632e-33
1.94688e-31
6.35339e-31
7.09293e-31
4.62433e-31
1.56642e-31
1.64197e-32
1.338e-33
2.35234e-31
7.07231e-31
1.27466e-30
8.30237e-31
3.24955e-31
1.05718e-31
1.14941e-32
2.42932e-34
1.85165e-31
1.03618e-30
1.88011e-30
1.51718e-30
8.74301e-31
2.79833e-31
5.60047e-32
3.73203e-33
6.00423e-35
8.68103e-32
8.66221e-31
2.41193e-30
2.57681e-30
1.42001e-30
7.08016e-31
1.60841e-31
2.49533e-32
1.46809e-33
1.65499e-35
2.09246e-31
1.08594e-30
2.64477e-30
3.5736e-30
2.79322e-30
1.18035e-30
5.56253e-31
7.70421e-32
7.63408e-33
4.76628e-34
8.63631e-36
2.5082e-31
1.33046e-30
2.49934e-30
5.08248e-30
4.5842e-30
2.69798e-30
1.05824e-30
2.48481e-31
4.71093e-32
2.58392e-33
1.2346e-34
1.37388e-36
3.88422e-31
1.24991e-30
4.12188e-30
6.70612e-30
6.35035e-30
4.21348e-30
1.86318e-30
6.89211e-31
1.40547e-31
1.3897e-32
6.22879e-34
3.02354e-35
8.02997e-37
5.37338e-31
3.1059e-30
6.03726e-30
8.91999e-30
9.53394e-30
7.66297e-30
3.55713e-30
1.50062e-30
4.14988e-31
5.29973e-32
5.91526e-33
2.56222e-34
8.93452e-36
3.58343e-37
1.22119e-30
5.07322e-30
8.76073e-30
1.2178e-29
1.39028e-29
1.13379e-29
7.53518e-30
2.94612e-30
1.06123e-30
1.43777e-31
2.33379e-32
1.61407e-33
5.23112e-35
7.65115e-36
2.89308e-36
1.67435e-30
5.78202e-30
1.59852e-29
2.01635e-29
2.0478e-29
1.75076e-29
1.14334e-29
6.36195e-30
2.3627e-30
5.87108e-31
7.569e-32
8.03386e-33
5.55045e-34
4.7171e-35
2.91387e-35
1.46107e-35
3.71725e-30
2.01972e-29
3.20235e-29
3.72435e-29
3.47936e-29
2.88512e-29
1.89793e-29
1.04025e-29
4.8867e-30
1.64971e-30
2.57198e-31
2.43331e-32
2.72858e-33
2.78526e-34
1.79896e-34
2.78067e-34
2.51114e-34
7.22455e-30
5.22922e-29
4.57911e-29
6.99421e-29
5.41272e-29
4.77263e-29
3.12972e-29
1.77542e-29
9.08791e-30
3.5983e-30
8.81204e-31
1.30622e-31
9.52595e-33
1.56965e-33
1.13182e-33
1.8121e-33
2.24634e-33
1.41147e-33
4.32915e-29
1.19397e-28
1.61347e-28
1.18952e-28
1.31366e-28
8.68709e-29
5.4402e-29
2.78728e-29
1.37719e-29
6.72566e-30
1.67574e-30
4.35861e-31
6.09313e-32
6.1376e-33
4.88474e-33
8.63265e-33
1.46151e-32
1.45158e-32
7.86049e-33
1.37607e-28
2.84809e-28
3.40782e-28
3.34095e-28
3.27627e-28
1.89827e-28
1.0395e-28
5.59737e-29
2.50604e-29
1.17269e-29
4.71278e-30
8.8303e-31
1.8177e-31
2.64444e-32
2.05198e-32
3.66261e-32
5.27766e-32
1.06286e-31
1.13172e-31
1.3868e-31
1.44511e-28
8.57367e-28
8.68808e-28
1.08037e-27
7.96937e-28
4.52284e-28
1.98938e-28
1.05978e-28
4.37834e-29
1.83161e-29
8.66594e-30
3.00239e-30
5.32881e-31
1.00412e-31
8.2555e-32
1.677e-31
3.21566e-31
6.38253e-31
1.08966e-30
1.33228e-30
1.11776e-30
1.39497e-28
1.17385e-27
2.80579e-27
2.12933e-27
1.86937e-27
1.13227e-27
5.89864e-28
2.06041e-28
1.02279e-28
3.67413e-29
1.51513e-29
5.95422e-30
1.33057e-30
3.12517e-31
2.7428e-31
6.73613e-31
1.47381e-30
2.38815e-30
5.65156e-30
1.05198e-29
1.1549e-29
6.74594e-30
7.01481e-28
1.72078e-27
5.6248e-27
7.41248e-27
5.84376e-27
2.5219e-27
1.31848e-27
5.61919e-28
2.05593e-28
8.98082e-29
2.70058e-29
1.09908e-29
3.72642e-30
8.60979e-31
7.02062e-31
2.34522e-30
5.53551e-30
1.28466e-29
2.53807e-29
5.20998e-29
1.02194e-28
1.09967e-28
4.63918e-29
1.00336e-27
5.05065e-27
1.49502e-26
1.29604e-26
1.21678e-26
8.61324e-27
3.78882e-27
1.33452e-27
4.99864e-28
1.77093e-28
6.46965e-29
2.07836e-29
7.20757e-30
2.83747e-30
3.24566e-30
5.33324e-30
2.15688e-29
5.22562e-29
1.06559e-28
2.41472e-28
5.04322e-28
9.90781e-28
1.17174e-27
1.14951e-27
2.87918e-27
8.30078e-27
3.3772e-26
3.2107e-26
2.70655e-26
2.51996e-26
9.38682e-27
3.90012e-27
1.27331e-27
4.0215e-28
1.29447e-28
4.52579e-29
1.42874e-29
5.47669e-30
9.23705e-30
2.68358e-29
6.97855e-29
2.19359e-28
4.23228e-28
9.40532e-28
2.60362e-27
7.31893e-27
1.00313e-26
9.85395e-27
8.87811e-27
1.25085e-26
2.19419e-26
5.72967e-26
1.03287e-25
7.15119e-26
6.91191e-26
2.78207e-26
1.12548e-26
3.61126e-27
1.0804e-27
3.12736e-28
9.5926e-29
3.28121e-29
1.53609e-29
2.13989e-29
7.46494e-29
2.16902e-28
7.23182e-28
2.23079e-27
5.36797e-27
1.32941e-26
4.90299e-26
8.66771e-26
9.9632e-26
8.19871e-26
1.03166e-25
2.68107e-26
1.07981e-25
1.99181e-25
2.07046e-25
2.24023e-25
1.60749e-25
9.68088e-26
3.35289e-26
9.43631e-27
2.89011e-27
8.20241e-28
1.81913e-28
6.97375e-29
3.54744e-29
5.78248e-29
1.70696e-28
7.06607e-28
2.19432e-27
7.78095e-27
2.10064e-26
6.49002e-26
2.14299e-25
5.49977e-25
1.10722e-24
1.23822e-24
1.7423e-24
8.94481e-25
7.26202e-26
1.89679e-25
4.38802e-25
6.04609e-25
4.51727e-25
3.70113e-25
2.28279e-25
9.50383e-26
3.41508e-26
8.53647e-27
2.36401e-27
5.29794e-28
1.21248e-28
8.02854e-29
1.30513e-28
5.09766e-28
1.58559e-27
7.50188e-27
2.73422e-26
8.16653e-26
2.4609e-25
7.06332e-25
2.14423e-24
7.22562e-24
1.58771e-23
2.84591e-23
3.09154e-23
1.21604e-23
1.0315e-25
4.50896e-25
9.99609e-25
1.30049e-24
1.05405e-24
1.0458e-24
6.0755e-25
2.88623e-25
9.95306e-26
3.068e-26
7.03247e-27
1.81235e-27
4.26468e-28
1.56329e-28
3.33798e-28
1.42273e-27
5.34315e-27
2.22908e-26
1.18783e-25
3.4092e-25
8.52763e-25
2.64051e-24
1.07798e-23
3.97393e-23
1.29804e-22
4.53615e-22
6.94862e-22
7.70057e-22
3.85976e-22
1.40536e-25
4.9845e-25
1.51435e-24
2.77061e-24
3.08857e-24
2.86759e-24
1.51139e-24
8.79747e-25
2.65585e-25
8.71542e-26
1.9854e-26
5.31637e-27
1.34685e-27
4.63822e-28
1.11614e-27
3.73697e-27
1.42405e-26
5.08203e-26
2.7816e-25
1.02788e-24
4.21074e-24
8.48712e-24
3.33495e-23
1.68352e-22
1.13135e-21
5.02293e-21
1.87023e-20
2.5378e-20
1.74469e-20
6.51872e-21
7.63505e-25
8.6546e-25
3.3014e-24
4.39151e-24
8.55281e-24
5.16113e-24
4.59708e-24
1.7931e-24
9.4939e-25
2.03664e-25
6.87994e-26
1.64932e-26
4.01628e-27
1.86678e-27
2.2875e-27
1.14016e-26
3.44215e-26
1.91529e-25
5.6933e-25
2.91307e-24
1.25097e-23
3.58437e-23
9.63568e-23
6.50408e-22
5.85922e-21
5.46053e-20
2.58214e-19
6.75383e-19
6.06142e-19
4.73346e-19
1.22164e-19
1.50929e-24
6.46271e-24
3.86289e-24
9.48473e-24
1.60283e-23
1.75274e-23
1.1856e-23
6.24329e-24
1.98064e-24
8.98295e-25
1.9232e-25
5.62071e-26
1.62694e-26
6.86911e-27
7.09656e-27
2.627e-26
1.0976e-25
4.57682e-25
1.85343e-24
1.12637e-23
3.81531e-23
9.81447e-23
4.77985e-22
1.84264e-21
2.5774e-20
3.106e-19
2.95705e-18
9.77764e-18
1.87103e-17
1.54276e-17
9.13449e-18
1.70718e-18
1.8396e-23
2.86173e-23
1.43782e-23
2.23472e-23
2.9286e-23
3.68938e-23
2.7529e-23
1.58685e-23
5.93627e-24
2.28482e-24
7.36327e-25
1.76292e-25
5.92957e-26
2.78112e-26
2.85472e-26
9.54911e-26
3.22381e-25
1.29173e-24
5.56116e-24
2.63186e-23
1.35188e-22
5.14848e-22
1.58804e-21
9.28558e-21
7.15084e-20
1.515e-18
1.72265e-17
1.17031e-16
3.10593e-16
3.82845e-16
3.70632e-16
8.74902e-17
9.49805e-18
6.94962e-23
1.04971e-22
6.98737e-23
3.86908e-23
5.22842e-23
7.13215e-23
6.39577e-23
4.05529e-23
1.82652e-23
6.23541e-24
2.34415e-24
5.40984e-25
2.10751e-25
1.28953e-25
8.44776e-26
2.48566e-25
1.21115e-24
6.0152e-24
2.05123e-23
7.25708e-23
3.75924e-22
1.78275e-21
5.07398e-21
2.63641e-20
2.92219e-19
4.52458e-18
9.06762e-17
8.20277e-16
4.1924e-15
8.83679e-15
1.00107e-14
4.24536e-15
5.0928e-16
5.89069e-18
2.13806e-16
2.49188e-22
4.26556e-22
2.21374e-22
1.51812e-22
1.58972e-22
1.08941e-22
1.29868e-22
9.7411e-23
5.11626e-23
2.04437e-23
7.5918e-24
2.40946e-24
1.01282e-24
6.3343e-25
4.59083e-25
7.67223e-25
4.54887e-24
1.82285e-23
7.54678e-23
2.19703e-22
9.77528e-22
4.97554e-21
2.01407e-20
6.36903e-20
5.39677e-19
1.40927e-17
2.78073e-16
5.33301e-15
3.76971e-14
1.442e-13
2.56843e-13
2.15143e-13
1.3287e-14
2.80726e-15
5.16281e-14
6.39221e-17
1.45721e-15
8.9795e-22
1.60441e-21
1.27942e-21
5.78275e-22
5.86487e-22
2.91222e-22
3.40658e-22
2.4879e-22
1.3071e-22
5.80816e-23
2.28342e-23
1.4176e-23
3.75732e-24
3.31965e-24
2.55393e-24
2.59668e-24
8.67967e-24
4.82694e-23
1.88186e-22
1.01419e-21
3.4447e-21
1.71654e-20
6.78292e-20
2.44505e-19
1.26851e-18
2.75657e-17
8.0729e-16
1.75233e-14
2.36219e-13
1.49845e-12
4.43285e-12
6.1792e-12
1.07916e-12
6.7294e-12
6.91272e-13
7.36822e-12
8.33417e-12
3.08371e-14
5.52362e-13
4.12379e-16
1.49992e-14
1.58521e-21
7.66464e-21
3.98467e-21
2.69241e-21
2.17913e-21
1.01786e-21
8.55135e-22
7.32357e-22
4.79221e-22
2.94612e-22
1.03315e-22
4.79491e-23
2.51304e-23
1.53679e-23
1.66852e-23
1.06928e-23
3.28605e-23
1.3141e-22
4.94152e-22
2.73633e-21
1.03663e-20
4.25943e-20
2.29781e-19
5.9939e-19
3.18057e-18
3.75877e-17
1.54153e-15
5.22966e-14
9.63224e-13
9.83737e-12
4.80433e-11
1.13089e-10
4.05297e-11
1.78958e-10
5.17177e-11
7.95695e-12
7.66412e-11
9.0355e-11
3.28923e-13
5.9216e-12
4.02348e-15
1.49156e-13
2.06266e-20
2.55874e-20
3.06496e-20
1.78484e-20
7.10767e-21
3.54322e-21
2.79336e-21
2.22303e-21
1.69308e-21
9.43375e-22
7.22298e-22
3.25221e-22
1.34064e-22
5.36795e-23
9.44801e-23
9.09138e-23
1.11917e-22
5.03002e-22
1.71656e-21
7.30647e-21
2.54606e-20
1.50652e-19
5.77871e-19
2.25485e-18
5.96292e-18
4.87122e-17
1.68846e-15
8.46969e-14
3.17442e-12
4.2271e-11
3.30466e-10
1.28185e-09
7.84632e-10
3.17086e-09
3.29176e-10
1.8376e-09
5.9132e-10
8.44461e-11
8.29892e-10
9.32887e-10
3.42599e-12
6.09621e-11
3.95299e-14
1.49938e-12
2.41936e-20
1.63651e-19
1.81876e-19
8.04966e-20
3.84789e-20
1.90645e-20
1.00623e-20
8.31638e-21
5.41124e-21
3.95646e-21
4.04724e-21
1.43844e-21
9.91628e-22
2.72353e-22
4.45997e-22
6.23665e-22
6.27285e-22
1.36294e-21
7.50945e-21
3.02296e-20
8.27663e-20
2.92316e-19
1.37091e-18
6.33464e-18
2.30987e-17
7.51555e-17
1.50166e-15
8.16271e-14
4.3617e-12
1.39831e-10
1.51461e-09
9.10881e-09
1.08661e-08
3.33675e-08
8.40839e-09
3.26452e-08
3.64116e-09
1.89009e-08
6.09059e-09
8.44816e-10
8.14525e-09
8.94847e-09
3.42755e-11
5.92903e-10
3.83183e-13
1.45189e-11
3.21494e-19
4.06787e-19
8.28676e-19
4.88335e-19
2.09917e-19
8.01291e-20
3.37e-20
4.0451e-20
2.92167e-20
2.28207e-20
1.72602e-20
9.59673e-21
4.17749e-21
2.17462e-21
1.56696e-21
3.45755e-21
3.6146e-21
7.36639e-21
1.96358e-20
9.91689e-20
2.44158e-19
1.16324e-18
2.61353e-18
1.09906e-17
5.22353e-17
1.87454e-16
1.29474e-15
6.38084e-14
3.87921e-12
2.15013e-10
4.96173e-09
4.40835e-08
8.92011e-08
2.23158e-07
1.09853e-07
3.25298e-07
8.21674e-08
3.04964e-07
3.56746e-08
1.74686e-07
5.66773e-08
7.84444e-09
7.31187e-08
7.82645e-08
3.24838e-10
5.38418e-09
3.61261e-12
1.34559e-10
4.16095e-18
4.47525e-18
2.72195e-18
2.50538e-18
9.32501e-19
3.56521e-19
1.92917e-19
1.41332e-19
1.26628e-19
1.04996e-19
6.77193e-20
3.95172e-20
3.12824e-20
1.71029e-20
1.06717e-20
1.80919e-20
2.6748e-20
3.22723e-20
9.98028e-20
3.76089e-19
1.19464e-18
3.55063e-18
1.07774e-17
2.42517e-17
1.01159e-16
3.74163e-16
1.51506e-15
3.86186e-14
2.48313e-12
1.77256e-10
8.40164e-09
1.39098e-07
4.95343e-07
1.06625e-06
8.56221e-07
2.08648e-06
9.81081e-07
2.78674e-06
7.18028e-07
2.51359e-06
3.13752e-07
1.4318e-06
4.75407e-07
6.69014e-08
5.92186e-07
6.17742e-07
2.87785e-09
4.49375e-08
3.25708e-11
1.17015e-09
2.2354e-17
3.27913e-17
2.0182e-17
1.26189e-17
4.84604e-18
1.84318e-18
9.37556e-19
7.05264e-19
4.30877e-19
2.64704e-19
3.10872e-19
2.31707e-19
1.21237e-19
9.8738e-20
8.91543e-20
8.55527e-20
1.18387e-19
1.98819e-19
3.89157e-19
9.9905e-19
3.74467e-18
1.17397e-17
2.76491e-17
8.09249e-17
2.40891e-16
1.11554e-15
4.24602e-15
3.47858e-14
1.38204e-12
9.29279e-11
7.36619e-09
2.47372e-07
1.78634e-06
2.7728e-06
4.52029e-06
8.63976e-06
6.96772e-06
1.59426e-05
7.50377e-06
1.95573e-05
5.42978e-06
1.70946e-05
2.43873e-06
9.90981e-06
3.49661e-06
5.16894e-07
4.19372e-06
4.2368e-06
2.34592e-08
3.40425e-07
2.78369e-10
9.42716e-09
5.73357e-17
1.59925e-16
1.28189e-16
5.5513e-17
2.30531e-17
7.89098e-18
4.28043e-18
2.79046e-18
2.426e-18
1.18629e-18
1.3757e-18
7.99449e-19
4.68319e-19
4.43433e-19
4.53645e-19
6.71258e-19
8.81435e-19
1.16495e-18
2.5141e-18
4.13528e-18
2.02297e-17
3.70529e-17
8.1617e-17
1.59465e-16
4.27118e-16
1.89805e-15
1.11733e-14
5.90072e-14
9.435e-13
5.19389e-11
3.66311e-09
2.34785e-07
3.55947e-06
4.25155e-06
1.37648e-05
1.97823e-05
3.10639e-05
5.24313e-05
4.51115e-05
9.02485e-05
4.58908e-05
0.000107401
3.30688e-05
9.17848e-05
1.55853e-05
5.46866e-05
2.08743e-05
3.48597e-06
2.39087e-05
2.33144e-05
1.7471e-07
2.27171e-06
2.20302e-09
6.86589e-08
1.91144e-16
6.83611e-16
6.20099e-16
3.02408e-16
1.2087e-16
4.15684e-17
1.55132e-17
1.31787e-17
7.94672e-18
6.96566e-18
4.60431e-18
3.0623e-18
1.63586e-18
1.52469e-18
2.49368e-18
3.387e-18
4.52011e-18
8.27912e-18
1.58854e-17
2.32734e-17
6.5446e-17
1.61827e-16
2.11991e-16
5.868e-16
1.22288e-15
4.37892e-15
2.10233e-14
1.40758e-13
1.11734e-12
3.40787e-11
2.27346e-09
1.298e-07
4.29763e-06
4.09292e-06
2.46413e-05
2.90802e-05
7.71771e-05
0.000103332
0.000153314
0.000230393
0.000214822
0.000360603
0.000218313
0.000426873
0.000158881
0.000379981
7.9082e-05
0.000238689
9.93427e-05
1.88322e-05
0.000108778
0.000102454
1.14706e-06
1.2169e-05
1.57997e-08
4.38201e-07
9.29514e-16
2.69089e-15
2.32781e-15
1.56306e-15
5.68446e-16
2.07023e-16
7.96337e-17
4.03365e-17
3.0277e-17
2.18206e-17
1.80507e-17
8.24892e-18
6.42583e-18
6.73581e-18
8.62367e-18
1.6238e-17
2.01424e-17
2.84975e-17
5.6005e-17
1.3916e-16
3.57295e-16
4.38768e-16
8.37407e-16
1.89497e-15
4.36276e-15
1.32864e-14
4.94457e-14
2.62651e-13
1.87948e-12
2.6579e-11
1.48063e-09
1.13113e-07
3.5373e-06
1.83556e-06
2.97172e-05
2.84417e-05
0.000124273
0.00014244
0.000311055
0.000388134
0.0005314
0.000708704
0.000691428
0.000980757
0.000719278
0.00111168
0.000577127
0.00104793
0.000316876
0.000772098
0.000371925
8.12291e-05
0.000388587
0.000357242
6.19786e-06
5.2492e-05
1.00776e-07
2.38157e-06
5.1526e-15
1.40395e-14
1.38307e-14
8.46335e-15
2.35637e-15
8.13674e-16
3.07192e-16
1.88099e-16
9.42843e-17
7.56393e-17
4.82129e-17
3.68017e-17
2.18569e-17
2.67271e-17
3.06085e-17
5.86535e-17
9.89802e-17
1.8788e-16
2.48975e-16
5.65647e-16
9.42119e-16
1.90137e-15
4.34245e-15
8.96613e-15
1.9592e-14
4.90672e-14
1.55635e-13
5.95768e-13
3.31736e-12
3.09931e-11
8.89913e-10
7.44744e-08
6.1134e-06
2.58402e-05
2.4047e-05
0.0001475
0.000145193
0.000447533
0.000495076
0.000874082
0.00101472
0.00126863
0.00153322
0.00151939
0.00190814
0.00156105
0.00206889
0.00136234
0.00197967
0.000930509
0.00162023
0.0010192
0.000280591
0.00102195
0.000923757
2.70259e-05
0.000181667
5.52003e-07
1.00739e-05
3.0568e-14
8.02821e-14
8.35812e-14
4.39723e-14
1.12261e-14
2.89509e-15
1.21746e-15
5.58508e-16
3.58524e-16
2.75074e-16
1.71984e-16
1.02691e-16
6.85838e-17
8.5498e-17
1.58613e-16
2.68835e-16
5.39486e-16
7.33803e-16
1.11206e-15
2.14614e-15
5.00646e-15
1.12514e-14
2.343e-14
4.87106e-14
9.90758e-14
2.10897e-13
5.45211e-13
1.86564e-12
7.3739e-12
4.31545e-11
6.83352e-10
3.42725e-08
2.9777e-06
9.59756e-05
7.37048e-05
0.00013676
0.000118804
0.000511139
0.000507052
0.00111707
0.0011919
0.00175981
0.00193698
0.00226838
0.00257927
0.00256329
0.003002
0.0025935
0.00316616
0.00233244
0.00303997
0.00179847
0.00259657
0.00188239
0.000725753
0.00186676
0.0017365
9.25672e-05
0.000489423
2.12815e-06
3.36313e-05
1.69845e-13
4.20692e-13
4.44506e-13
2.00036e-13
5.17432e-14
1.34229e-14
4.50838e-15
2.57571e-15
1.41073e-15
9.17065e-16
5.2115e-16
3.08456e-16
2.82485e-16
3.51345e-16
6.51813e-16
1.30591e-15
2.23472e-15
4.20489e-15
7.25317e-15
1.38192e-14
3.0286e-14
6.62564e-14
1.4095e-13
2.84064e-13
5.41534e-13
1.02746e-12
2.22426e-12
6.47594e-12
2.31675e-11
9.0112e-11
7.0791e-10
2.02237e-08
1.09517e-06
5.23003e-05
3.58894e-05
0.000384054
0.00031553
0.000487795
0.000444882
0.00121115
0.00120193
0.00206152
0.00214178
0.00282903
0.00301856
0.00340544
0.00370951
0.00370852
0.00411278
0.0037257
0.0042773
0.00339132
0.00415957
0.00276015
0.00363513
0.00281695
0.00146431
0.00276419
0.00258146
0.000260969
0.00105622
5.85206e-06
9.24858e-05
7.82211e-13
1.99085e-12
2.07461e-12
8.16624e-13
2.22651e-13
6.21057e-14
2.29862e-14
1.25655e-14
7.61861e-15
4.12141e-15
2.08746e-15
1.12503e-15
8.45131e-16
1.23311e-15
2.94393e-15
6.63346e-15
1.37111e-14
2.79356e-14
5.58106e-14
9.36994e-14
1.97977e-13
4.20383e-13
8.63904e-13
1.67693e-12
3.04661e-12
5.3516e-12
1.02406e-11
2.57704e-11
8.41725e-11
2.83726e-10
1.13958e-09
1.70511e-08
7.01954e-07
2.39726e-05
1.08938e-05
0.000244323
0.000179587
0.000988296
0.000864868
0.00116708
0.00109211
0.00214661
0.00212707
0.00314686
0.00320105
0.00391144
0.00401313
0.00430875
0.00438919
0.00452508
0.00459518
0.00462292
0.00476812
0.00447015
0.00485935
0.00376769
0.00466727
0.00378399
0.00226774
0.00368526
0.00346744
0.000584109
0.00179895
1.38287e-05
0.000226352
2.09933e-12
7.3621e-12
7.96791e-12
2.97151e-12
9.15448e-13
2.92206e-13
1.27783e-13
7.21612e-14
4.23296e-14
2.28025e-14
1.11009e-14
5.50625e-15
3.31834e-15
5.48381e-15
1.40571e-14
3.55384e-14
8.34414e-14
1.83344e-13
3.94e-13
6.26476e-13
1.30103e-12
2.66598e-12
5.26931e-12
9.82443e-12
1.71374e-11
2.85077e-11
5.07334e-11
1.15908e-10
3.50569e-10
1.11956e-09
3.26226e-09
1.8867e-08
4.1046e-07
2.3535e-05
0.00012261
8.5384e-05
0.000727207
0.000585153
0.00181645
0.00164776
0.0020695
0.00195967
0.0031908
0.00315205
0.00405154
0.00404278
0.00438635
0.00436512
0.00456992
0.00450799
0.00473721
0.00463601
0.00490677
0.00482492
0.00503823
0.00503274
0.00476393
0.00518359
0.00474809
0.00310932
0.00461064
0.00436012
0.00114766
0.00259394
3.01124e-05
0.000465214
1.50416e-11
2.45702e-11
1.05642e-11
3.81203e-12
1.48957e-12
7.47345e-13
4.32103e-13
2.46147e-13
1.28781e-13
6.13415e-14
2.75363e-14
1.595e-14
2.53262e-14
6.99951e-14
1.92983e-13
4.87894e-13
1.15013e-12
2.61571e-12
4.16335e-12
8.49028e-12
1.67803e-11
3.17752e-11
5.66651e-11
9.45089e-11
1.50292e-10
2.55109e-10
5.70473e-10
1.66522e-09
4.8838e-09
1.41182e-08
3.72906e-08
4.05709e-07
8.58188e-06
0.000234458
0.00016659
0.000447219
0.000332981
0.00145985
0.0012632
0.00274307
0.00253993
0.00306027
0.0029178
0.00401918
0.00397136
0.00432827
0.00428737
0.00440527
0.0042878
0.00443223
0.00415524
0.00457809
0.00415064
0.00486488
0.00442432
0.00515717
0.00489359
0.00530839
0.00529248
0.00539614
0.00398111
0.00538559
0.00517399
0.0018643
0.00343902
6.84945e-05
0.00087596
4.85085e-11
3.69132e-11
1.77233e-11
8.75586e-12
4.72362e-12
2.65976e-12
1.44915e-12
7.3406e-13
3.40366e-13
1.48147e-13
7.77118e-14
1.14662e-13
3.36608e-13
9.99521e-13
2.7205e-12
6.87512e-12
1.64903e-11
2.70952e-11
5.46914e-11
1.04598e-10
1.88779e-10
3.19553e-10
5.05002e-10
7.65159e-10
1.24761e-09
2.87626e-09
8.56205e-09
2.59597e-08
5.74108e-08
1.06321e-07
5.06551e-07
6.71109e-06
0.000118262
5.97334e-05
0.000675711
0.000505271
0.00106262
0.000869077
0.00231176
0.00206848
0.00360272
0.00340635
0.00389067
0.00376452
0.00424907
0.00421567
0.00417896
0.00409634
0.0038852
0.00367968
0.00370288
0.00336089
0.0038247
0.00330046
0.00428212
0.00357834
0.00496065
0.00423036
0.00544868
0.00509322
0.00560954
0.0048453
0.00572978
0.00576751
0.00540571
0.00269939
0.00435126
0.000155767
0.00159604
1.16351e-10
9.39553e-11
5.91528e-11
3.27742e-11
1.7157e-11
8.69098e-12
4.17385e-12
1.86905e-12
7.86956e-13
3.76906e-13
5.00848e-13
1.54381e-12
4.91756e-12
1.43695e-11
3.89457e-11
9.89888e-11
1.71112e-10
3.45957e-10
6.4341e-10
1.10444e-09
1.75074e-09
2.59137e-09
3.68063e-09
5.87328e-09
1.37258e-08
4.79924e-08
1.33481e-07
2.23552e-07
4.29961e-07
9.81008e-07
6.52748e-06
0.000106658
0.000369259
0.000280807
0.00132735
0.00110705
0.00181761
0.00156917
0.00317513
0.00291731
0.0040848
0.00398268
0.00418356
0.00414814
0.0040515
0.00404144
0.00356059
0.00350498
0.00319234
0.00314572
0.00301845
0.00294738
0.00304735
0.00282845
0.00346188
0.00290806
0.00430014
0.00345997
0.00529883
0.00441154
0.00485883
0.00566397
0.00545574
0.00569007
0.00510243
0.00564308
0.00583518
0.0057079
0.00557117
0.00588735
0.00376619
0.00548583
0.00537928
0.00471
0.000633314
0.0035957
4.64246e-10
4.15784e-10
2.44932e-10
1.18977e-10
5.42775e-11
2.4041e-11
1.02107e-11
4.13007e-12
1.7943e-12
2.07762e-12
6.66555e-12
2.28386e-11
7.17121e-11
2.08124e-10
5.61959e-10
1.04049e-09
2.13316e-09
3.88714e-09
6.33089e-09
9.32332e-09
1.26397e-08
1.66677e-08
2.50849e-08
6.55955e-08
2.35131e-07
6.01695e-07
1.12788e-06
1.78538e-06
2.63598e-06
8.38259e-06
8.74991e-05
0.000568431
0.00040826
0.000895787
0.000735535
0.00207055
0.00180363
0.00263968
0.00235434
0.00383395
0.00363929
0.00410306
0.00410519
0.00405143
0.00407631
0.00351471
0.00354985
0.00315869
0.00319166
0.00297115
0.00301636
0.00281931
0.00289083
0.00271207
0.00274481
0.00314086
0.00286172
0.00271484
0.0026457
0.00401001
0.00354086
0.00284284
0.00283568
0.0031786
0.00454205
0.00514733
0.00468476
0.00409368
0.0052745
0.00590563
0.00587861
0.00583242
0.00559352
0.00543251
0.00592497
0.00520885
0.00453892
0.00520222
0.00582834
0.00575513
0.00254391
0.00530252
0.00547264
0.00479214
2.49931e-09
1.83432e-09
8.87929e-10
3.64208e-10
1.43726e-10
5.6368e-11
2.14267e-11
8.44984e-12
8.24341e-12
2.70485e-11
9.98858e-11
3.34503e-10
1.04643e-09
3.00418e-09
6.00594e-09
1.26107e-08
2.28126e-08
3.53336e-08
4.79268e-08
5.89428e-08
7.03054e-08
9.77738e-08
2.62067e-07
1.03344e-06
3.20302e-06
6.42235e-06
8.41694e-06
9.45056e-06
1.62749e-05
9.13787e-05
0.000599088
0.00112644
0.00104251
0.00154905
0.0013429
0.00283991
0.00255145
0.00340022
0.00312941
0.00408813
0.00403309
0.00382188
0.00393225
0.00361882
0.00371156
0.00324916
0.00331826
0.00308191
0.0031471
0.00300156
0.00312139
0.00291219
0.00314315
0.00266316
0.00274055
0.00286474
0.00303032
0.00266957
0.00261774
0.00263855
0.00364659
0.00321975
0.00264786
0.0026468
0.00287793
0.00423263
0.004872
0.00440252
0.00376247
0.00504609
0.00599333
0.00603459
0.00574593
0.00522914
0.00541393
0.00588513
0.00571127
0.00575805
0.00605019
0.0060595
0.00498118
1.40543e-05
0.00161052
0.00591197
0.00587039
1.20177e-08
6.74349e-09
2.65086e-09
9.2348e-10
3.22419e-10
1.11495e-10
3.94625e-11
3.18892e-11
1.03948e-10
4.13545e-10
1.47292e-09
4.8138e-09
1.50671e-08
3.2908e-08
7.03761e-08
1.2639e-07
1.88745e-07
2.3429e-07
2.58768e-07
2.78312e-07
3.55676e-07
9.29781e-07
4.55812e-06
1.71721e-05
3.53904e-05
4.09541e-05
3.73946e-05
4.20316e-05
0.000117671
0.000581197
0.00151299
0.00127775
0.00180334
0.0016296
0.00227297
0.00202845
0.0034943
0.00324104
0.00390495
0.00372261
0.00401643
0.00405532
0.00359974
0.00372261
0.00339927
0.0034931
0.00321197
0.00328294
0.00321732
0.00327563
0.00334869
0.00348541
0.00318787
0.00336428
0.00350742
0.00365559
0.00274289
0.0029052
0.00309789
0.00330405
0.00259497
0.00262438
0.00275261
0.00331007
0.00292749
0.00258249
0.00258101
0.00266407
0.00391203
0.00458976
0.00408979
0.00342883
0.00478426
0.00600379
0.00609845
0.00559781
0.00498726
0.00519478
0.00577549
0.00609042
0.00616231
0.0061759
0.00624249
0.00404526
9.0497e-05
0.00117593
0.00620952
0.00572731
4.66325e-08
1.9974e-08
6.46938e-09
1.96591e-09
5.96818e-10
1.86254e-10
1.13979e-10
3.85699e-10
1.63109e-09
6.19349e-09
2.09035e-08
6.49158e-08
1.6878e-07
3.80839e-07
6.87849e-07
9.65641e-07
1.08407e-06
1.07797e-06
1.02384e-06
1.12449e-06
2.95539e-06
1.83813e-05
7.70509e-05
0.00015338
0.000173902
0.000140425
0.000120743
0.000194896
0.000630664
0.00171345
0.0021505
0.00216301
0.00250533
0.00232446
0.00298028
0.00273379
0.00391375
0.00374837
0.00405198
0.00401396
0.00385761
0.0039707
0.00355178
0.0036653
0.00336161
0.00345092
0.00331088
0.00335553
0.00353841
0.00350995
0.00375543
0.00384461
0.00388158
0.00390669
0.00350685
0.00370062
0.00387475
0.00402347
0.00294783
0.00317705
0.00342113
0.00366517
0.00261391
0.0027647
0.00299215
0.00300733
0.00270282
0.00260988
0.00261091
0.00259101
0.0035819
0.0042869
0.00376652
0.00312015
0.00449828
0.00594143
0.00609242
0.00540623
0.00472053
0.00495002
0.00561703
0.00631982
0.00638161
0.00622645
0.00634391
0.00364428
0.000184184
0.00154896
0.00628665
0.00551767
1.42492e-07
4.77732e-08
1.30375e-08
3.38451e-09
9.06139e-10
3.92532e-10
1.20017e-09
6.22831e-09
2.47522e-08
8.66728e-08
2.66886e-07
7.39065e-07
1.67233e-06
2.89917e-06
3.83591e-06
4.04169e-06
3.76955e-06
3.29675e-06
3.23996e-06
8.6727e-06
6.06071e-05
0.000244511
0.000464054
0.000532388
0.000436158
0.000321251
0.000379422
0.00078766
0.00179225
0.00273118
0.00263211
0.0028347
0.00276063
0.00314753
0.00298173
0.00355228
0.00334703
0.00407021
0.00402657
0.00404676
0.0040797
0.00379006
0.00391364
0.00359094
0.00370582
0.00340887
0.00348838
0.00344136
0.00339528
0.00396654
0.0037661
0.00413721
0.00420811
0.0042264
0.00420353
0.00390013
0.00411624
0.00430556
0.00446069
0.00325865
0.00354262
0.00382994
0.00410826
0.00277696
0.0030327
0.00333875
0.00276872
0.00261744
0.00278358
0.00278688
0.00262206
0.00327144
0.00397362
0.00345607
0.00286815
0.00420005
0.00582543
0.00602554
0.00518689
0.00444049
0.00469354
0.00542944
0.00644053
0.0064776
0.0062121
0.00638257
0.00366113
0.000271275
0.00173648
0.00628725
0.0054395
3.47598e-07
9.3323e-08
2.09986e-08
4.67794e-09
1.39388e-09
3.22373e-09
1.97115e-08
9.46182e-08
3.40706e-07
1.04881e-06
2.85731e-06
6.56284e-06
1.16019e-05
1.53967e-05
1.58972e-05
1.38122e-05
1.10509e-05
9.40793e-06
2.03218e-05
0.000132426
0.000450923
0.000833343
0.000990375
0.000913102
0.000751063
0.000738244
0.00111755
0.00203019
0.00311961
0.00332167
0.00336869
0.00342037
0.00334337
0.00365299
0.00352566
0.00392633
0.00379403
0.00414398
0.00414563
0.00402435
0.00410124
0.0038244
0.00394216
0.00360203
0.00373368
0.00341591
0.00348885
0.00351395
0.0033524
0.00447692
0.00430535
0.00386495
0.00411008
0.00457226
0.00462849
0.0046351
0.00458688
0.00436687
0.00459676
0.00478949
0.00494031
0.00366541
0.00399824
0.00432128
0.00462256
0.00306636
0.00341063
0.00378465
0.00266447
0.00264536
0.00308552
0.00308913
0.00278046
0.00300705
0.00366969
0.0031883
0.00273245
0.00390675
0.00567853
0.00592619
0.00495684
0.00416502
0.00444241
0.00523369
0.00650427
0.00652299
0.00616682
0.0063847
0.00368264
0.000263428
0.00175732
0.00629657
0.00542764
6.87778e-07
1.45225e-07
2.69814e-08
5.71591e-09
6.80699e-09
5.13972e-08
2.78854e-07
1.18596e-06
3.83338e-06
1.0641e-05
2.49295e-05
4.50899e-05
5.85949e-05
5.95634e-05
5.01284e-05
3.70054e-05
2.72363e-05
4.31e-05
0.000203635
0.000656861
0.00117045
0.00146397
0.00147383
0.00135172
0.00135268
0.00172098
0.00246648
0.003171
0.00367167
0.00356865
0.00373924
0.00371472
0.00384247
0.00378294
0.00399349
0.00391387
0.00412611
0.004072
0.00420375
0.00423687
0.00404983
0.00414032
0.00386656
0.00398901
0.00348774
0.0036496
0.00330488
0.00335722
0.00365766
0.00343347
0.00318969
0.00478881
0.0045599
0.00398534
0.00428351
0.00503811
0.00506821
0.00505129
0.00495783
0.00489171
0.00512145
0.00530084
0.00543384
0.00416504
0.00453529
0.00487903
0.00518609
0.00346891
0.00388989
0.00432304
0.00267642
0.00277624
0.00350352
0.00350657
0.00306771
0.00283129
0.00339731
0.00298167
0.00272881
0.00364148
0.0055241
0.00582128
0.0047355
0.00391661
0.00421779
0.00505002
0.00653872
0.00655857
0.00611405
0.00637889
0.00374152
0.000186034
0.00162573
0.00633336
0.00549549
1.07497e-06
1.8009e-07
2.90071e-08
1.37459e-08
9.09712e-08
6.50669e-07
3.09458e-06
1.18579e-05
3.40319e-05
8.15835e-05
0.000144429
0.000185627
0.000186784
0.000156807
0.000112464
7.4567e-05
8.70887e-05
0.000289414
0.000817382
0.0014878
0.00188374
0.00198926
0.00197875
0.00204353
0.00233138
0.00277563
0.00314998
0.00339029
0.00369915
0.00350614
0.00391323
0.00381443
0.00407257
0.00399792
0.00419288
0.00413776
0.00423977
0.00422797
0.00424366
0.00427885
0.00409517
0.00418139
0.00380874
0.00394821
0.00318413
0.00337664
0.00304418
0.00304745
0.0036893
0.00341735
0.00313045
0.00290773
0.00508595
0.00479049
0.00406868
0.00444154
0.00550325
0.00550828
0.00546027
0.0053119
0.00544762
0.00566454
0.00583465
0.00594631
0.00474234
0.00513179
0.0054768
0.00577096
0.003973
0.00445969
0.00493341
0.00276821
0.00302738
0.00402261
0.00402635
0.00347344
0.00279475
0.00318112
0.00289407
0.00278913
0.00343208
0.0053855
0.0057333
0.00454275
0.00371912
0.00404169
0.00489907
0.00656469
0.00659808
0.00607347
0.0063769
0.00383413
6.9443e-05
0.0012428
0.00639845
0.0056328
1.32667e-06
1.83585e-07
3.60825e-08
1.33317e-07
1.04093e-06
6.23702e-06
2.5181e-05
8.07757e-05
0.000182813
0.000297156
0.000361165
0.000361201
0.000312053
0.000239292
0.000172567
0.0001677
0.000375463
0.00094882
0.00169107
0.0021123
0.00226491
0.00232963
0.00242674
0.00259988
0.0028154
0.00306923
0.00305554
0.00292641
0.00269159
0.00342941
0.00319033
0.00380864
0.00363364
0.00406965
0.00395283
0.00423568
0.00416437
0.00428381
0.00427308
0.00420087
0.0042234
0.00406137
0.00414554
0.00356813
0.00373135
0.00272326
0.00291806
0.00280323
0.00272966
0.00261945
0.00370564
0.00338726
0.00298809
0.00275509
0.00536136
0.00499927
0.00413132
0.00457949
0.00598123
0.00596206
0.00585083
0.00565218
0.00602127
0.00622423
0.00636858
0.00643759
0.00536984
0.00575663
0.00608185
0.00635769
0.00456573
0.00509519
0.00558367
0.00297782
0.00339521
0.00462608
0.00462472
0.0039742
0.00283512
0.00305461
0.0029108
0.00293534
0.00329484
0.00528243
0.00567625
0.00440069
0.00359296
0.00393424
0.00480083
0.00659311
0.00664267
0.00605457
0.00638765
0.00398006
8.03325e-05
0.0012989
0.00648405
0.00584643
1.33253e-06
1.69251e-07
1.68329e-07
1.47446e-06
9.12543e-06
4.32081e-05
0.000134716
0.000296487
0.000451176
0.000535277
0.000536936
0.000475874
0.000381637
0.000292779
0.000277244
0.000474863
0.00106011
0.0018127
0.00219131
0.00232368
0.0023912
0.00246601
0.00259333
0.00275406
0.0028634
0.00259917
0.00192925
0.00232994
0.00195721
0.00291339
0.00262892
0.00343029
0.00318121
0.00384552
0.00365365
0.00411133
0.00399825
0.00421692
0.00418434
0.00398351
0.00397904
0.00385658
0.00394211
0.00312761
0.00330928
0.00230787
0.00234165
0.0023404
0.0026167
0.00256883
0.00227587
0.00227713
0.0036927
0.00330296
0.00286267
0.00259156
0.00560249
0.00517665
0.00418594
0.00469502
0.00643864
0.00638371
0.00620709
0.00595095
0.00658677