/*--------------------------------*- C++ -*----------------------------------*\
  =========                 |
  \\      /  F ield         | OpenFOAM: The Open Source CFD Toolbox
   \\    /   O peration     | Website:  https://openfoam.org
    \\  /    A nd           | Version:  dev
     \\/     M anipulation  |
\*---------------------------------------------------------------------------*/
FoamFile
{
    version     2.0;
    format      ascii;
    class       volScalarField;
    location    "2500";
    object      k;
}
// * * * * * * * * * * * * * * * * * * * * * * * * * * * * * * * * * * * * * //

dimensions      [0 2 -2 0 0 0 0];

internalField   nonuniform List<scalar> 
9836
(
0.000160513
0.000167447
0.000151891
0.000143395
0.00021651
0.000123105
0.000121008
0.00023077
0.00019576
0.00010993
0.000111324
0.000216405
0.000238344
0.000151055
0.000106134
0.000105806
0.000180146
0.000260846
0.00021056
0.00012608
0.000104529
0.000102997
0.00014618
0.000256915
0.000251974
0.000162046
0.000116323
0.000103328
0.000101502
0.000126834
0.000235839
0.000274994
0.000213585
0.000134494
0.000111238
0.000102521
0.000100725
0.000114853
0.000193509
0.000282993
0.000257313
0.000165781
0.000122022
0.000107982
0.000101922
0.000100286
0.000108258
0.000155786
0.000273167
0.000281112
0.000209805
0.000138359
0.000115178
0.000105883
0.000101447
0.000100019
0.000104578
0.000133452
0.000245113
0.000297483
0.000255469
0.000164993
0.000124978
0.000110769
0.000104374
0.000101072
9.9714e-05
0.000102562
0.000119386
0.000200273
0.00029757
0.000286516
0.000201459
0.000139639
0.00011736
0.00010779
0.00010322
0.000100772
9.94892e-05
0.00010145
0.000111426
0.000161102
0.000284945
0.00030219
0.000246858
0.000160879
0.000126512
0.000112349
0.000105634
0.000102303
0.000100528
9.93341e-05
0.000100729
0.000107073
0.000137698
0.000252678
0.000314551
0.000282681
0.000192913
0.000138593
0.000118482
0.000108848
0.000104008
0.000101551
0.000100326
9.92273e-05
0.000100198
0.000104602
0.000123128
0.000205496
0.000311922
0.000307156
0.000232721
0.000156544
0.000126415
0.000113091
0.000106221
0.000102719
0.00010093
0.000100156
9.91142e-05
9.98116e-05
0.000102986
0.000114802
0.000165839
0.000295973
0.000321134
0.000275112
0.000182941
0.000136624
0.000118745
0.000109203
0.000104205
0.000101652
0.00010042
9.99951e-05
9.90176e-05
9.94957e-05
0.000101818
0.000109859
0.000142306
0.000260136
0.000330944
0.000305014
0.000218057
0.000151152
0.000125467
0.000113289
0.000106291
0.000102594
0.000100765
0.000100017
9.98975e-05
9.895e-05
9.92373e-05
0.00010093
0.000106747
0.000127349
0.000212071
0.000326479
0.000325805
0.000258471
0.000172908
0.000134081
0.000118057
0.000109221
0.000104006
0.000101291
0.000100092
9.95706e-05
9.97666e-05
9.88933e-05
9.90397e-05
0.000100246
0.000104622
0.000118387
0.000171826
0.000308185
0.000339433
0.000297989
0.000203283
0.000145812
0.000124098
0.000112701
0.000106041
0.000102191
0.000100296
9.93974e-05
9.92924e-05
9.96614e-05
9.88773e-05
9.8867e-05
9.97444e-05
0.000103073
0.000112844
0.000147894
0.000269156
0.00034729
0.000325255
0.000239975
0.000163598
0.000131031
0.00011716
0.000108627
0.000103565
0.000100732
9.94418e-05
9.878e-05
9.89801e-05
9.95743e-05
9.89018e-05
9.86407e-05
9.93649e-05
0.000101916
0.000109248
0.000132516
0.000220584
0.000341184
0.000343781
0.000280966
0.000188928
0.000140675
0.000121962
0.000111954
0.000105464
0.000101609
9.96332e-05
9.85732e-05
9.83647e-05
9.86849e-05
9.94828e-05
9.89429e-05
9.8411e-05
9.9028e-05
0.000101019
0.000106693
0.000123075
0.000179839
0.000321135
0.000356859
0.000317988
0.000221802
0.000154829
0.000128032
0.000115579
0.000107939
0.000102959
0.000100062
9.8626e-05
9.78107e-05
9.79198e-05
9.84412e-05
9.94024e-05
9.8964e-05
9.8184e-05
9.86939e-05
0.000100288
0.000104741
0.000116876
0.000155859
0.000281046
0.00036377
0.00034372
0.000260362
0.000175662
0.0001356
0.000119951
0.000110786
0.000104773
0.000100931
9.88355e-05
9.76703e-05
9.72613e-05
9.74912e-05
9.82069e-05
9.93331e-05
9.89383e-05
9.79684e-05
9.83505e-05
9.96548e-05
0.000103193
0.000112549
0.000139856
0.000233655
0.000357364
0.000361211
0.000300818
0.000204353
0.000146951
0.000124701
0.000114056
0.000106973
0.000102242
9.92987e-05
9.77492e-05
9.67873e-05
9.67708e-05
9.71286e-05
9.79931e-05
9.92702e-05
9.88863e-05
9.78146e-05
9.80168e-05
9.90718e-05
0.000101939
0.000109385
0.000129398
0.000191477
0.000337679
0.000374351
0.000336298
0.000238549
0.000163866
0.00013112
0.000117527
0.000109478
0.000103909
0.000100219
9.80051e-05
9.67723e-05
9.6114e-05
9.62848e-05
9.6819e-05
9.7815e-05
9.92303e-05
9.88429e-05
9.77294e-05
9.77043e-05
9.85259e-05
0.000100884
0.00010702
0.000122334
0.000166422
0.000299342
0.000382007
0.000361327
0.000277933
0.000187386
0.000139827
0.000121704
0.000112166
0.000105862
0.000101484
9.85658e-05
9.68993e-05
9.58931e-05
9.55825e-05
9.58628e-05
9.65576e-05
9.76783e-05
9.919e-05
9.88072e-05
9.76346e-05
9.73036e-05
9.80321e-05
9.99859e-05
0.000105049
0.000117425
0.000149681
0.000252851
0.000376512
0.000379314
0.000317597
0.000217793
0.000153308
0.000126557
0.000115178
0.000107983
0.000103002
9.95442e-05
9.72508e-05
9.59667e-05
9.51671e-05
9.51408e-05
9.55198e-05
9.63384e-05
9.76063e-05
9.91806e-05
9.87803e-05
9.75576e-05
9.68691e-05
9.75104e-05
9.91631e-05
0.000103422
0.00011406
0.000138344
0.000210393
0.000358854
0.00039215
0.000353164
0.000252619
0.000172252
0.000133669
0.000118465
0.000110281
0.000104701
0.000100765
9.80033e-05
9.62266e-05
9.51933e-05
9.45904e-05
9.47863e-05
9.52742e-05
9.62579e-05
9.76769e-05
9.923e-05
9.87507e-05
9.74492e-05
9.64395e-05
9.69806e-05
9.83679e-05
0.000101986
0.000111281
0.000130623
0.000182665
0.000325961
0.000401483
0.000377852
0.000291763
0.000197784
0.000143743
0.000122503
0.000112746
0.000106528
0.000102142
9.90271e-05
9.6807e-05
9.53856e-05
9.45885e-05
9.418e-05
9.45549e-05
9.52171e-05
9.63991e-05
9.79076e-05
9.93548e-05
9.87067e-05
9.73273e-05
9.61349e-05
9.64425e-05
9.7615e-05
0.000100693
0.000108627
0.000125269
0.000164483
0.000283572
0.000398629
0.000396967
0.000330541
0.000228307
0.000159041
0.000127743
0.000115415
0.000108434
0.000103621
0.000100171
9.76736e-05
9.5855e-05
9.47462e-05
9.4174e-05
9.39996e-05
9.45128e-05
9.54248e-05
9.68063e-05
9.84223e-05
9.95761e-05
9.86549e-05
9.7213e-05
9.59035e-05
9.58179e-05
9.6889e-05
9.9539e-05
0.000106287
0.000121664
0.000151766
0.000242248
0.000386806
0.000409437
0.000366736
0.000263142
0.000179141
0.00013566
0.000118463
0.000110332
0.000105107
0.000101366
9.86549e-05
9.66298e-05
9.5169e-05
9.43387e-05
9.40239e-05
9.41019e-05
9.47599e-05
9.60465e-05
9.77131e-05
9.94242e-05
0.000100091
9.86041e-05
9.70896e-05
9.57007e-05
9.51921e-05
9.61573e-05
9.84946e-05
0.000104463
0.000118724
0.000143076
0.000208253
0.000362217
0.000420378
0.00039201
0.000299349
0.000205101
0.000146997
0.000122431
0.000112335
0.000106518
0.000102562
9.96605e-05
9.75072e-05
9.5929e-05
9.47786e-05
9.42416e-05
9.41841e-05
9.46355e-05
9.56933e-05
9.73695e-05
9.95417e-05
0.00010108
0.000100666
9.85566e-05
9.69807e-05
9.54973e-05
9.4608e-05
9.54366e-05
9.75366e-05
0.000102968
0.000116183
0.000137093
0.000187241
0.000328499
0.000424472
0.000411941
0.000337949
0.000233968
0.000162942
0.000128212
0.000114497
0.000107919
0.00010367
0.000100633
9.83783e-05
9.67715e-05
9.55702e-05
9.4779e-05
9.45002e-05
9.48213e-05
9.5838e-05
9.75496e-05
9.99166e-05
0.000102587
0.000104111
0.000101592
9.85226e-05
9.69089e-05
9.52549e-05
9.40764e-05
9.47613e-05
9.66658e-05
0.000101664
0.000114068
0.000133464
0.000173257
0.000289706
0.000419102
0.000425776
0.000373507
0.000267119
0.000182907
0.00013662
0.000117397
0.000109261
0.000104665
0.000101482
9.91805e-05
9.75565e-05
9.64409e-05
9.56422e-05
9.52082e-05
9.53184e-05
9.62853e-05
9.80815e-05
0.000100713
0.000104134
0.000107315
0.000106564
0.000100741
0.000103098
9.85068e-05
9.68615e-05
9.49999e-05
9.35758e-05
9.41526e-05
9.59e-05
0.000100571
0.000112067
0.000131262
0.000163803
0.000255605
0.000404427
0.00043789
0.000402419
0.000300569
0.00020717
0.000148282
0.000121514
0.000110793
0.0001055
0.000102176
9.98461e-05
9.82462e-05
9.72261e-05
9.65697e-05
9.6193e-05
9.63388e-05
9.71913e-05
9.90933e-05
0.000102092
0.000106171
0.000110021
0.000111158
0.000106293
0.000109781
0.000100891
0.000103579
9.85234e-05
9.68468e-05
9.47584e-05
9.30895e-05
9.35997e-05
9.52529e-05
9.9739e-05
0.000110488
0.000130216
0.000157543
0.000228695
0.000380191
0.000445868
0.000423411
0.000337793
0.000234524
0.000163526
0.000127484
0.000112722
0.000106257
0.000102649
0.000100298
9.87656e-05
9.785e-05
9.74169e-05
9.72384e-05
9.75408e-05
9.85404e-05
0.000100576
0.000103972
0.000108398
0.000112403
0.000112794
0.000114183
0.000112574
0.000114267
0.000115111
0.000107224
0.000110965
0.000100911
0.000103982
9.85668e-05
9.68239e-05
9.45072e-05
9.26681e-05
9.30814e-05
9.47108e-05
9.91538e-05
0.000109537
0.000129775
0.000154322
0.000210443
0.000353614
0.000447454
0.000438966
0.000372231
0.000264385
0.000182427
0.000135779
0.000115512
0.000107095
0.000102931
0.000100459
9.89569e-05
9.81553e-05
9.80176e-05
9.82054e-05
9.88117e-05
0.000100038
0.000102378
0.000106075
0.000110514
0.000114949
0.000115485
0.000117285
0.000116341
0.000114385
0.000117748
0.000117374
0.000108208
0.000112546
0.000100941
0.000104535
9.86346e-05
9.67937e-05
9.42336e-05
9.23519e-05
9.26459e-05
9.42755e-05
9.87928e-05
0.000109063
0.00012978
0.00015339
0.000199568
0.000326196
0.000443475
0.000450125
0.000401983
0.000295636
0.000204241
0.000146821
0.000119564
0.000108301
0.000103138
0.00010045
9.89362e-05
9.81655e-05
9.81864e-05
9.87847e-05
9.99578e-05
0.000101554
0.000104223
0.000107975
0.000112253
0.000117661
0.000119057
0.000121258
0.0001186
0.000120944
0.000120512
0.000116482
0.00012031
0.000120018
0.000109433
0.000114374
0.000100971
0.000105188
9.87351e-05
9.67557e-05
9.3945e-05
9.21356e-05
9.23573e-05
9.40114e-05
9.87023e-05
0.000109055
0.00013042
0.000153806
0.000193323
0.000301855
0.000433807
0.00045979
0.000425392
0.000325363
0.000228479
0.000160671
0.000125215
0.00011005
0.000103504
0.000100321
9.87847e-05
9.80486e-05
9.81305e-05
9.88574e-05
0.000100514
0.000102937
0.000106014
0.000109432
0.000114118
0.000120229
0.000123127
0.000125412
0.00012357
0.000126048
0.000123471
0.000126532
0.000123527
0.000118812
0.000123763
0.00012321
0.000110836
0.0001164
0.000101047
0.000105922
9.88747e-05
9.67102e-05
9.36835e-05
9.20124e-05
9.22179e-05
9.40613e-05
9.90246e-05
0.000109622
0.000131913
0.000155126
0.000190229
0.00028281
0.000419827
0.000466396
0.000443026
0.000356553
0.00025377
0.00017709
0.000132859
0.000112659
0.00010406
0.000100094
9.83439e-05
9.77122e-05
9.78689e-05
9.87458e-05
0.000100528
0.000103514
0.000107438
0.000110725
0.000115599
0.000122442
0.000127206
0.000130103
0.000128919
0.000132247
0.000129608
0.000133368
0.000127142
0.000131213
0.000127929
0.000121564
0.00012802
0.000127088
0.000112423
0.000118674
0.000101143
0.000106789
9.90456e-05
9.66486e-05
9.3494e-05
9.20297e-05
9.2248e-05
9.43914e-05
0.00010015
0.000111425
0.000134297
0.000158252
0.00018974
0.000269334
0.000405092
0.000469784
0.000456064
0.000385403
0.000279522
0.000195647
0.000142585
0.000116416
0.000105085
0.000100088
9.76908e-05
9.69361e-05
9.7201e-05
9.83659e-05
0.00010032
0.000103488
0.000108132
0.000111752
0.000116847
0.000125079
0.00013281
0.000138293
0.000137331
0.000146858
0.000139262
0.00015165
0.000136885
0.000149413
0.000132926
0.000142324
0.000133816
0.000124874
0.0001339
0.000132421
0.00011414
0.000121323
0.000101259
0.000107728
9.91478e-05
9.65633e-05
9.34196e-05
9.22058e-05
9.25282e-05
9.51252e-05
0.000101758
0.000114822
0.000138438
0.000163148
0.000191063
0.000261588
0.000391477
0.000470389
0.000465645
0.000410143
0.000305187
0.000215672
0.000154326
0.000121609
0.000106734
0.000100206
9.70449e-05
9.59454e-05
9.61129e-05
9.74538e-05
9.97124e-05
0.000103187
0.000108126
0.000112234
0.000117449
0.000127206
0.000143906
0.000152733
0.000163808
0.000191163
0.000177645
0.000232273
0.000178825
0.00024633
0.000165995
0.000228121
0.000147679
0.000187569
0.000152171
0.00012901
0.000153696
0.000150947
0.000116145
0.000123704
0.00010138
0.000108941
9.92012e-05
9.64811e-05
9.35366e-05
9.25565e-05
9.31282e-05
9.65504e-05
0.000104462
0.000119724
0.00014435
0.000169459
0.000194826
0.000257596
0.000380396
0.00046895
0.000472147
0.000430602
0.000329511
0.000236377
0.000167935
0.00012822
0.000109213
0.000100631
9.66641e-05
9.49188e-05
9.47543e-05
9.60452e-05
9.84089e-05
0.000102321
0.000107739
0.000112206
0.000117489
0.000127425
0.000159337
0.000166878
0.000228573
0.000272821
0.000325221
0.000458465
0.000387234
0.000638579
0.000375724
0.000688287
0.000301092
0.000582121
0.000211558
0.000390324
0.000230395
0.000143622
0.000236621
0.000226194
0.000116808
0.000133363
0.000101537
0.000109369
9.92568e-05
9.65254e-05
9.39269e-05
9.31612e-05
9.41384e-05
9.88389e-05
0.000108944
0.000126736
0.000151684
0.000177305
0.000201371
0.000258319
0.000372211
0.000466084
0.000477395
0.0004457
0.000351752
0.000256872
0.000182831
0.000136271
0.000112667
0.000101672
9.66386e-05
9.40386e-05
9.34584e-05
9.43401e-05
9.66746e-05
0.000100498
0.000106608
0.00011192
0.000117289
0.000126545
0.000169692
0.000169263
0.000314723
0.000351573
0.000625225
0.000802127
0.00100215
0.00145934
0.00124431
0.0020063
0.00118422
0.00217463
0.000858651
0.00184244
0.000480838
0.00115538
0.000543804
0.000201349
0.000555535
0.0005052
0.000121347
0.000167759
0.000101747
0.000109546
9.9421e-05
9.68377e-05
9.46269e-05
9.40149e-05
9.58005e-05
0.000102299
0.000115919
0.000135967
0.000160507
0.000186121
0.000209787
0.00026138
0.000367481
0.000462791
0.000481313
0.000456405
0.000372638
0.00027626
0.000198468
0.000145634
0.000117088
0.000103358
9.68275e-05
9.35557e-05
9.22375e-05
9.2569e-05
9.47008e-05
9.83313e-05
0.000104332
0.000111152
0.000116683
0.000125922
0.00016649
0.000147694
0.000373786
0.00037396
0.000975413
0.00111287
0.00196576
0.00246603
0.00291795
0.0038678
0.00340998
0.00474417
0.00329199
0.00490758
0.00255771
0.00435297
0.00140959
0.00316818
0.00154546
0.000405301
0.00152155
0.00133421
0.000137283
0.000289016
0.000101509
0.000114699
9.98173e-05
9.75277e-05
9.5656e-05
9.53093e-05
9.84417e-05
0.000107476
0.000125058
0.000146294
0.000170464
0.000195632
0.000219707
0.000268017
0.000367113
0.000460333
0.000484027
0.000464134
0.000390466
0.000294248
0.000214083
0.00015602
0.000122416
0.000105668
9.7499e-05
9.34991e-05
9.12992e-05
9.09612e-05
9.25977e-05
9.59049e-05
0.000101539
0.000109568
0.00011557
0.000124194
0.000204606
0.000355827
0.000357962
0.00121863
0.00123757
0.00292314
0.00328442
0.00479624
0.00563504
0.00602822
0.00712206
0.0063694
0.00748082
0.00602451
0.00722423
0.00509796
0.00659053
0.00356117
0.00547697
0.00366696
0.00101508
0.00347745
0.00300618
0.000193999
0.000649374
0.000102179
0.0001326
0.000100808
9.87303e-05
9.70276e-05
9.73234e-05
0.000102486
0.000115509
0.000135653
0.000157108
0.00018096
0.00020555
0.000230656
0.000277638
0.000368745
0.000459718
0.000485998
0.000469655
0.000404766
0.000310293
0.000229042
0.00016705
0.000128574
0.000108621
9.87545e-05
9.36591e-05
9.09515e-05
8.98209e-05
9.06656e-05
9.33929e-05
9.85126e-05
0.000106916
0.000113893
0.000121502
0.000166103
0.00097282
0.000815929
0.00121189
0.00113209
0.00355269
0.00368063
0.00633011
0.00685981
0.00798321
0.00861864
0.0082563
0.00881214
0.00800008
0.00854131
0.00752406
0.0081212
0.00678201
0.00758801
0.00555576
0.00679294
0.00542598
0.00227193
0.0051235
0.0046506
0.000358085
0.00142322
0.000105081
0.000184502
0.000103967
0.000100699
9.88242e-05
0.000100372
0.000108507
0.000126027
0.000146372
0.000167733
0.000191297
0.000215708
0.000242063
0.000288939
0.000373185
0.000460246
0.000487679
0.00047357
0.000415672
0.000323993
0.00024276
0.000178277
0.000135349
0.000112016
0.000100254
9.42148e-05
9.09991e-05
8.94111e-05
8.94366e-05
9.12734e-05
9.55008e-05
0.000103139
0.000111566
0.000118999
0.000141642
0.000641566
0.000497129
0.00323694
0.00282372
0.00365028
0.00352405
0.00722178
0.00745379
0.00910166
0.00946937
0.00922576
0.00953349
0.00892978
0.00922631
0.00854669
0.00889443
0.00811392
0.00849957
0.0075485
0.00805475
0.00667794
0.0074332
0.00648747
0.00390952
0.0062193
0.00582936
0.000759074
0.00280132
0.000112132
0.000310696
0.000118347
0.000104929
0.000101638
0.000105074
0.000117735
0.000137804
0.00015672
0.000177307
0.000200865
0.000225438
0.000254093
0.000301407
0.000381469
0.000462635
0.000489512
0.000476321
0.000423593
0.000335392
0.000255106
0.000189043
0.000142586
0.000116033
0.000102394
9.55281e-05
9.14548e-05
8.94742e-05
8.90979e-05
9.00605e-05
9.31876e-05
9.98165e-05
0.000109052
0.0001161
0.000134768
0.000399382
0.000249201
0.00232944
0.00183495
0.00704903
0.0066088
0.00744401
0.00732488
0.00974888
0.00997596
0.00977242
0.00997907
0.00944914
0.00963134
0.00922762
0.0095954
0.00899212
0.00968208
0.00860086
0.00937123
0.00802464
0.00882506
0.00731233
0.00799592
0.00718925
0.00524067
0.00702395
0.00680449
0.00149793
0.00435015
0.000129392
0.000624163
0.000141759
0.000121151
0.000106974
0.000112298
0.000129753
0.000149155
0.00016646
0.00018597
0.000208957
0.000234912
0.00026585
0.000315514
0.000392135
0.000468316
0.000492212
0.00047854
0.000428884
0.00034459
0.000266106
0.000199343
0.000149969
0.000120364
0.000105174
9.72865e-05
9.27536e-05
9.01001e-05
8.93028e-05
8.99074e-05
9.23765e-05
9.79043e-05
0.000106387
0.000112972
0.000126932
0.000406208
0.00136026
0.00101751
0.00599281
0.0052088
0.0100485
0.00985005
0.0101058
0.0101131
0.0101679
0.0103338
0.00977199
0.00989515
0.00997299
0.0103278
0.0104619
0.0113946
0.0106535
0.0121915
0.0101056
0.0120337
0.0090985
0.0109164
0.0079919
0.00928365
0.00795382
0.00645991
0.00786069
0.00774447
0.00292608
0.00586875
0.000176877
0.00131491
0.000160737
0.000120064
0.000122155
0.000142654
0.000159792
0.000175392
0.000193274
0.000216158
0.000243167
0.000278574
0.000330091
0.000405539
0.000476723
0.00049685
0.0004809
0.000432341
0.000351722
0.000276077
0.000209329
0.00015736
0.000124969
0.000107836
9.89119e-05
9.44353e-05
9.19927e-05
9.03956e-05
9.04467e-05
9.25789e-05
9.74432e-05
0.000104857
0.000111142
0.000122831
0.000233518
0.00247652
0.00186606
0.00427964
0.00335414
0.00947239
0.00893265
0.0108213
0.0108905
0.0104911
0.0106694
0.00999071
0.0100361
0.0106035
0.0108169
0.0122728
0.0130222
0.0137836
0.0152733
0.0142712
0.0163249
0.0133651
0.0159465
0.011556
0.0144217
0.00935035
0.0119099
0.00930815
0.00759823
0.00911148
0.00889123
0.00484711
0.0073862
0.000361344
0.00314452
0.000154893
0.000136523
0.000155261
0.000170017
0.000184084
0.000200156
0.000222133
0.000251819
0.000289987
0.000346828
0.000420956
0.000488242
0.000503967
0.000484503
0.000434728
0.0003578
0.000285411
0.000219802
0.000165541
0.00012932
0.000110078
0.000100819
9.72874e-05
9.51919e-05
9.34983e-05
9.28448e-05
9.4082e-05
9.80617e-05
0.000105055
0.000111261
0.000122173
0.000199051
0.00139691
0.000794202
0.00631396
0.00514721
0.00822975
0.00740439
0.0108772
0.0107769
0.0101735
0.0104127
0.0100117
0.0100248
0.0108615
0.0108131
0.0135614
0.0139354
0.0164413
0.0172834
0.017832
0.0187726
0.0177929
0.0188301
0.0169101
0.0183084
0.0149044
0.0173201
0.0119158
0.0150167
0.0115914
0.00875151
0.0110228
0.0106423
0.00954829
0.00715566
0.00883487
0.00112621
0.00743395
0.000175617
0.00016991
0.000182771
0.000191548
0.000207568
0.000228083
0.000259147
0.000303109
0.000363031
0.000439331
0.000502968
0.000514629
0.000490056
0.000437411
0.000363561
0.000294801
0.000231191
0.00017499
0.000134116
0.000112805
0.000103233
0.000100853
9.98688e-05
9.99769e-05
9.96326e-05
0.000100123
0.000102626
0.000108
0.000113949
0.000124484
0.000190327
0.0012777
0.00393443
0.00309621
0.00934432
0.00854847
0.0105035
0.0100208
0.0105921
0.0106825
0.010289
0.0101493
0.0106872
0.0104534
0.0139489
0.0138221
0.0178097
0.018063
0.0194
0.0198107
0.019468
0.0199154
0.0190338
0.0194503
0.0184088
0.0189086
0.0173525
0.0183502
0.0147272
0.0173103
0.0160556
0.0126495
0.0143812
0.0103651
0.00935675
0.010126
0.0118814
0.0136098
0.0139983
0.0115918
0.00971134
0.00992865
0.00983037
0.00960986
0.00450009
0.018552
0.000217267
0.00019618
0.000205017
0.00021335
0.000235834
0.00026789
0.000315189
0.000381607
0.000459228
0.000521604
0.000529111
0.000498967
0.000441564
0.000370304
0.000305344
0.000245606
0.000187009
0.000142481
0.000117596
0.00010667
0.000104401
0.00010489
0.000107298
0.000110657
0.000113722
0.000116776
0.000120668
0.000125473
0.000136583
0.000201093
0.000993131
0.0055235
0.00414713
0.00755444
0.00672582
0.0104335
0.0100914
0.0106864
0.0106273
0.0100738
0.010079
0.0122471
0.0114977
0.0134958
0.0129586
0.0180034
0.0177796
0.0200141
0.0200304
0.0202328
0.0204339
0.0197629
0.020003
0.0190997
0.0191173
0.0185024
0.0186034
0.0185114
0.0183985
0.0178422
0.0182806
0.0184259
0.0181573
0.0182917
0.0171832
0.0155903
0.0170039
0.0178648
0.0154099
0.0111976
0.0108337
0.01306
0.0145684
0.0150064
0.0125888
0.00986762
0.0119728
0.0102506
0.0104838
0.0101706
0.0182493
0.0115766
0.0145831
0.0258359
0.000244107
0.00021739
0.000225863
0.000242221
0.000277851
0.000329141
0.0003998
0.000481573
0.000543719
0.000548818
0.000511578
0.000449219
0.00037957
0.000319761
0.000264666
0.000206735
0.000159946
0.000127604
0.000112653
0.000108656
0.000109834
0.000115066
0.000123625
0.000137145
0.000154299
0.000170721
0.00017842
0.000188331
0.000262168
0.000999551
0.00503358
0.00792658
0.00781136
0.00946504
0.0089543
0.0101348
0.0100291
0.0101008
0.0101449
0.0108561
0.0104047
0.0157875
0.0147501
0.0173313
0.0166512
0.0199361
0.0197365
0.020468
0.0203776
0.020157
0.0201535
0.019085
0.0190583
0.0182039
0.0180494
0.0179058
0.0178222
0.0181624
0.0178594
0.0175232
0.0181676
0.0181991
0.0177557
0.017347
0.0179034
0.0177266
0.0166251
0.0175382
0.0180802
0.0162961
0.0121046
0.0115951
0.0140724
0.0158962
0.0154606
0.0135448
0.00990144
0.00990303
0.0110543
0.0104274
0.0222816
0.000899134
0.0176764
0.0105306
0.0130647
0.000264151
0.000239054
0.000255895
0.000288967
0.000343901
0.000419942
0.000505514
0.000569442
0.000573126
0.000529767
0.00046105
0.000393753
0.000341856
0.000294733
0.00024051
0.00018736
0.000147282
0.000124934
0.000116722
0.000117937
0.000126611
0.000146823
0.000196003
0.0003081
0.000428998
0.000449509
0.000424673
0.000492913
0.00120457
0.00467187
0.00800616
0.00732196
0.00895585
0.00853245
0.00976752
0.00946054
0.00974107
0.00965076
0.0101309
0.00990131
0.0135762
0.0123623
0.0184746
0.0176981
0.0194479
0.0190415
0.0202157
0.0200148
0.0199578
0.0196756
0.0189855
0.018785
0.0177801
0.0177706
0.017785
0.0178085
0.0172618
0.0170482
0.0169378
0.0168954
0.0172853
0.0168094
0.0164305
0.0180918
0.0177169
0.0167136
0.0162284
0.0170387
0.0179551
0.0172763
0.0178083
0.0179896
0.0169661
0.0129783
0.0123473
0.0149515
0.0165956
0.0161659
0.0143883
0.00977006
0.00943376
0.011597
0.0107023
0.0181231
0.000813361
0.00891799
0.0101039
0.013078
0.000284538
0.000271071
0.000305684
0.000362711
0.000441266
0.000531959
0.000599412
0.000603244
0.000553318
0.000479615
0.000414685
0.000374295
0.000338337
0.000285731
0.000227262
0.000181942
0.00015104
0.000135761
0.000135827
0.000150372
0.000200376
0.000405301
0.000976781
0.00155033
0.00164906
0.00139087
0.00131011
0.00192862
0.0048369
0.00714516
0.00817704
0.00795916
0.00893432
0.00862649
0.00948516
0.00928479
0.0101556
0.00982635
0.0113727
0.0106414
0.0167565
0.0156361
0.0193705
0.0190521
0.0198159
0.0196084
0.019368
0.0191116
0.0184013
0.0179434
0.0178309
0.0177836
0.0177194
0.0175075
0.0169087
0.0169723
0.01708
0.0172003
0.0161831
0.0160654
0.0160408
0.016091
0.0161133
0.0156393
0.0153506
0.0175843
0.0168035
0.0154836
0.0149573
0.015847
0.0178868
0.0176067
0.0177587
0.0175
0.0173562
0.0137665
0.0130341
0.015655
0.0170427
0.0166495
0.0150845
0.00976564
0.00946048
0.0121442
0.0111108
0.0136589
0.00106382
0.00724925
0.0106864
0.0128655
0.000316252
0.000323383
0.000383143
0.000465942
0.000562453
0.000632586
0.000639802
0.000584152
0.000505316
0.000444934
0.000415533
0.000387003
0.000344899
0.000296666
0.000251602
0.000212257
0.000187952
0.000183246
0.000206682
0.000339369
0.00106261
0.00303123
0.00498871
0.00541383
0.00462617
0.00398911
0.00411136
0.00554348
0.00713735
0.00820515
0.00785577
0.00848398
0.00831061
0.00903445
0.00878591
0.00955464
0.00932895
0.0119268
0.011114
0.0143592
0.0130512
0.0185597
0.0179009
0.0189817
0.0190153
0.0189761
0.0189472
0.0174835
0.0171514
0.0170328
0.0162851
0.0173245
0.0173889
0.01738
0.0172702
0.0162275
0.0164253
0.0166797
0.0169437
0.0152392
0.0152276
0.0153263
0.0155337
0.0149164
0.014587
0.0144709
0.0166619
0.0155869
0.0142802
0.0137568
0.0145495
0.0174467
0.0175961
0.0174043
0.0166163
0.0173934
0.0144268
0.0136472
0.0161694
0.0171493
0.0168329
0.0156031
0.0101926
0.0102187
0.0127139
0.011715
0.0118822
0.00108194
0.00670969
0.0115018
0.0126106
0.000371029
0.000404585
0.000490278
0.000592738
0.000674161
0.000681068
0.000622803
0.000540906
0.000486017
0.000471969
0.000462399
0.000458144
0.000458134
0.000440883
0.000400403
0.000351261
0.000324915
0.000354522
0.00064347
0.00226142
0.00595708
0.00874402
0.00890343
0.00831587
0.00729318
0.00669283
0.00669261
0.00738102
0.00979094
0.00969684
0.0105007
0.00950991
0.00953086
0.00983387
0.00963626
0.0105412
0.0101504
0.0151265
0.0141414
0.0170614
0.0160913
0.0189792
0.0188283
0.0174961
0.0178714
0.0170661
0.0172083
0.0154155
0.0148905
0.0169673
0.0165075
0.0154305
0.0161113
0.0171676
0.0172897
0.0173008
0.017196
0.0158356
0.0162056
0.0165889
0.0169294
0.0144689
0.0146022
0.0148773
0.0152697
0.013903
0.0137691
0.0137697
0.0154556
0.0142874
0.0133149
0.0128434
0.0133643
0.0166444
0.017337
0.0167068
0.0154588
0.0172066
0.0149542
0.0141864
0.0164393
0.0170113
0.0167502
0.0159486
0.0110276
0.0112676
0.0133065
0.0124661
0.0112436
0.00103132
0.00661848
0.0121786
0.0126361
0.000456894
0.000518269
0.000620499
0.000715057
0.000734412
0.000668979
0.000587778
0.000547969
0.000568133
0.000630776
0.00076657
0.000971804
0.00107019
0.00103715
0.000904189
0.000773584
0.000760737
0.00126233
0.00376335
0.00857618
0.0107012
0.0109054
0.00981348
0.00870571
0.00777678
0.00740223
0.00808897
0.0113839
0.0155209
0.0163611
0.0133007
0.0143111
0.0123649
0.0126694
0.0123361
0.0122754
0.0132959
0.0126883
0.0176413
0.0171446
0.0185345
0.0181085
0.0182487
0.018574
0.0153574
0.0159587
0.0147174
0.0149099
0.0149285
0.014143
0.0132884
0.0170665
0.0166446
0.0154349
0.0160897
0.0172133
0.0173937
0.0174189
0.0173176
0.0157288
0.0162018
0.0166734
0.0171356
0.0139373
0.01427
0.0147201
0.0152332
0.0131584
0.0131551
0.0133469
0.0141784
0.0131236
0.0126516
0.0122616
0.0124987
0.0155741
0.0167619
0.0157496
0.014234
0.0167763
0.0153598
0.0146549
0.0164534
0.0167104
0.016555
0.0160831
0.0120245
0.0122172
0.013903
0.0132685
0.0112638
0.00104361
0.00681438
0.0127192
0.0128832
0.000578217
0.00065775
0.000752209
0.00078934
0.00073109
0.000644467
0.000627956
0.000761319
0.0010554
0.00166779
0.00246165
0.00296872
0.00298519
0.00262021
0.00214186
0.00185953
0.00252589
0.00568236
0.0101468
0.0118164
0.0112148
0.00983473
0.00894157
0.00826411
0.00829714
0.00956985
0.0134973
0.0202224
0.0201054
0.0213198
0.0181913
0.0192252
0.0167865
0.0173783
0.016358
0.0164622
0.0166809
0.0163883
0.0190012
0.0190396
0.018782
0.018914
0.0166301
0.017315
0.0129937
0.0136115
0.0126257
0.0126418
0.0147435
0.0139849
0.0131555
0.0123481
0.0174742
0.0169867
0.0155598
0.0163326
0.0175254
0.0177766
0.0178296
0.0177513
0.0157913
0.0163947
0.0169971
0.0175537
0.0137177
0.0141948
0.0147518
0.0153792
0.0126405
0.0128351
0.0132204
0.0130504
0.0122977
0.0122334
0.011946
0.0120005
0.0144333
0.015946
0.0147331
0.0131675
0.0161216
0.0156377
0.0150656
0.0163215
0.0162341
0.0162571
0.0160812
0.0129772
0.0129873
0.014488
0.0140633
0.0116556
0.00052881
0.00698598
0.0132143
0.0132779
0.000732192
0.000801875
0.000848734
0.000797469
0.000717514
0.000740135
0.00102488
0.00186902
0.00336216
0.00500809
0.00594426
0.00596761
0.00546474
0.00473423
0.00418577
0.00457745
0.00745695
0.0110473
0.0119928
0.0109637
0.00965081
0.00913895
0.00905931
0.0099577
0.0123565
0.0160158
0.0203193
0.0227492
0.0220815
0.0231015
0.0231247
0.0219684
0.022637
0.0205358
0.0212295
0.0195573
0.0199721
0.0190997
0.0192532
0.0189854
0.0194608
0.0179678
0.0185149
0.0143535
0.0151609
0.0108016
0.0111847
0.0119095
0.0113391
0.0108245
0.0147388
0.0139312
0.013105
0.0123008
0.0180138
0.017492
0.0159075
0.0167769
0.0180241
0.0183165
0.0183808
0.0183205
0.0160596
0.0167675
0.0174607
0.0181001
0.0137184
0.0143102
0.0149694
0.0156821
0.0124091
0.0127893
0.0133083
0.0122588
0.0118922
0.0120824
0.0119054
0.0118086
0.0134513
0.0150952
0.0138876
0.0124278
0.0154496
0.0157886
0.0154329
0.0161653
0.0157365
0.0159388
0.0160384
0.0137901
0.0136331
0.0150894
0.0147844
0.0126294
0.000565106
0.00799816
0.013665
0.013737
0.000901184
0.00091355
0.000885917
0.000798591
0.000859526
0.00142244
0.0028435
0.00531435
0.00762892
0.00867623
0.00864244
0.00802929
0.00721493
0.00657768
0.00683616
0.00889055
0.0111721
0.0117583
0.0103607
0.0094578
0.00936264
0.0103188
0.0123348
0.014604
0.0172074
0.0199069
0.0183474
0.0208609
0.0185127
0.0230198
0.022274
0.0231974
0.0232513
0.0222667
0.0228243
0.0210448
0.021646
0.0199589
0.020481
0.0176823
0.0184367
0.015998
0.0168536
0.0117324
0.0123865
0.00961168
0.00937564
0.00905889
0.0116022
0.011085
0.00978684
0.0102638
0.0149528
0.0139966
0.0133196
0.0123679
0.0186478
0.0180976
0.0164372
0.0173473
0.0186351
0.0189576
0.0190303
0.0189698
0.0164416
0.0172124
0.0179626
0.018658
0.0139187
0.0145837
0.0152761
0.0160274
0.0124575
0.0129711
0.0135731
0.0119476
0.0118257
0.0122312
0.0121165
0.0118547
0.0128185
0.0144085
0.0133836
0.0121873
0.0149099
0.0159339
0.0158425
0.0160314
0.0153586
0.015735
0.0160717
0.0144957
0.0141673
0.0156817
0.0155053
0.0141665
0.00546926
0.011448
0.0139177
0.0139286
0.00104826
0.00096363
0.000908772
0.00101106
0.00175828
0.00397303
0.00725993
0.0099076
0.0107528
0.0105609
0.0098662
0.00908629
0.00850074
0.00855333
0.00977609
0.010991
0.0111751
0.0095953
0.00924313
0.00960636
0.0114168
0.0134061
0.0151747
0.0171039
0.0182875
0.0123922
0.0090668
0.00706208
0.0152204
0.012197
0.0193751
0.0175448
0.0212979
0.0206521
0.0213207
0.0214721
0.020396
0.0209183
0.0191401
0.0197946