/*--------------------------------*- C++ -*----------------------------------*\
  =========                 |
  \\      /  F ield         | OpenFOAM: The Open Source CFD Toolbox
   \\    /   O peration     | Website:  https://openfoam.org
    \\  /    A nd           | Version:  dev
     \\/     M anipulation  |
\*---------------------------------------------------------------------------*/
FoamFile
{
    version     2.0;
    format      ascii;
    class       volScalarField;
    location    "2500";
    object      N2;
}
// * * * * * * * * * * * * * * * * * * * * * * * * * * * * * * * * * * * * * //

dimensions      [0 0 0 0 0 0 0];

internalField   nonuniform List<scalar> 
9836
(
0.76699
0.76699
0.76699
0.76699
0.76699
0.76699
0.76699
0.76699
0.76699
0.76699
0.76699
0.76699
0.76699
0.76699
0.76699
0.76699
0.76699
0.76699
0.76699
0.76699
0.76699
0.76699
0.76699
0.76699
0.76699
0.76699
0.76699
0.76699
0.76699
0.76699
0.76699
0.76699
0.76699
0.76699
0.76699
0.76699
0.76699
0.76699
0.76699
0.76699
0.76699
0.76699
0.76699
0.76699
0.76699
0.76699
0.76699
0.76699
0.76699
0.76699
0.76699
0.76699
0.76699
0.76699
0.76699
0.76699
0.76699
0.76699
0.76699
0.76699
0.76699
0.76699
0.76699
0.76699
0.76699
0.76699
0.76699
0.76699
0.76699
0.76699
0.76699
0.76699
0.76699
0.76699
0.76699
0.76699
0.76699
0.76699
0.76699
0.76699
0.76699
0.76699
0.76699
0.76699
0.76699
0.76699
0.76699
0.76699
0.76699
0.76699
0.76699
0.76699
0.76699
0.76699
0.76699
0.76699
0.76699
0.76699
0.76699
0.76699
0.76699
0.76699
0.76699
0.76699
0.76699
0.76699
0.76699
0.76699
0.76699
0.76699
0.76699
0.76699
0.76699
0.76699
0.76699
0.76699
0.76699
0.76699
0.76699
0.76699
0.76699
0.76699
0.76699
0.76699
0.76699
0.76699
0.76699
0.76699
0.76699
0.76699
0.76699
0.76699
0.76699
0.76699
0.76699
0.76699
0.76699
0.76699
0.76699
0.76699
0.76699
0.76699
0.76699
0.76699
0.76699
0.76699
0.76699
0.76699
0.76699
0.76699
0.76699
0.76699
0.76699
0.76699
0.76699
0.76699
0.76699
0.76699
0.76699
0.76699
0.76699
0.76699
0.76699
0.76699
0.76699
0.76699
0.76699
0.76699
0.76699
0.76699
0.76699
0.76699
0.76699
0.76699
0.76699
0.76699
0.76699
0.76699
0.76699
0.76699
0.76699
0.76699
0.76699
0.76699
0.76699
0.76699
0.76699
0.76699
0.76699
0.76699
0.76699
0.76699
0.76699
0.76699
0.76699
0.76699
0.76699
0.76699
0.76699
0.76699
0.76699
0.76699
0.76699
0.76699
0.76699
0.76699
0.76699
0.76699
0.76699
0.76699
0.76699
0.76699
0.76699
0.76699
0.76699
0.76699
0.76699
0.76699
0.76699
0.76699
0.76699
0.76699
0.76699
0.76699
0.76699
0.76699
0.76699
0.76699
0.76699
0.76699
0.76699
0.76699
0.76699
0.76699
0.76699
0.76699
0.76699
0.76699
0.76699
0.76699
0.76699
0.76699
0.76699
0.76699
0.76699
0.76699
0.76699
0.76699
0.76699
0.76699
0.76699
0.76699
0.76699
0.76699
0.76699
0.76699
0.76699
0.76699
0.76699
0.76699
0.76699
0.76699
0.76699
0.76699
0.76699
0.76699
0.76699
0.76699
0.76699
0.76699
0.76699
0.76699
0.76699
0.76699
0.76699
0.76699
0.76699
0.76699
0.76699
0.76699
0.76699
0.76699
0.76699
0.76699
0.76699
0.76699
0.76699
0.76699
0.76699
0.76699
0.76699
0.76699
0.76699
0.76699
0.76699
0.76699
0.76699
0.76699
0.76699
0.76699
0.76699
0.76699
0.76699
0.76699
0.76699
0.76699
0.76699
0.76699
0.76699
0.76699
0.76699
0.76699
0.76699
0.76699
0.76699
0.76699
0.76699
0.76699
0.76699
0.76699
0.76699
0.76699
0.76699
0.76699
0.76699
0.76699
0.76699
0.76699
0.76699
0.76699
0.76699
0.76699
0.76699
0.76699
0.76699
0.76699
0.76699
0.76699
0.76699
0.76699
0.76699
0.76699
0.76699
0.76699
0.76699
0.76699
0.76699
0.76699
0.76699
0.76699
0.76699
0.76699
0.76699
0.76699
0.76699
0.76699
0.76699
0.76699
0.76699
0.76699
0.76699
0.76699
0.76699
0.76699
0.76699
0.76699
0.76699
0.76699
0.76699
0.76699
0.76699
0.76699
0.76699
0.76699
0.76699
0.76699
0.76699
0.76699
0.76699
0.76699
0.76699
0.76699
0.76699
0.76699
0.76699
0.76699
0.76699
0.76699
0.76699
0.76699
0.76699
0.76699
0.76699
0.76699
0.76699
0.76699
0.76699
0.76699
0.76699
0.76699
0.76699
0.76699
0.76699
0.76699
0.76699
0.76699
0.76699
0.76699
0.76699
0.76699
0.76699
0.76699
0.76699
0.76699
0.76699
0.76699
0.76699
0.76699
0.76699
0.76699
0.76699
0.76699
0.76699
0.76699
0.76699
0.76699
0.76699
0.76699
0.76699
0.76699
0.76699
0.76699
0.76699
0.76699
0.76699
0.76699
0.76699
0.76699
0.76699
0.76699
0.76699
0.76699
0.76699
0.76699
0.76699
0.76699
0.76699
0.76699
0.76699
0.76699
0.76699
0.76699
0.76699
0.76699
0.76699
0.76699
0.76699
0.76699
0.76699
0.76699
0.76699
0.76699
0.76699
0.76699
0.76699
0.76699
0.76699
0.76699
0.76699
0.76699
0.76699
0.76699
0.76699
0.76699
0.76699
0.76699
0.76699
0.76699
0.76699
0.76699
0.76699
0.76699
0.76699
0.76699
0.76699
0.76699
0.76699
0.76699
0.76699
0.76699
0.76699
0.76699
0.76699
0.76699
0.76699
0.76699
0.76699
0.76699
0.76699
0.76699
0.76699
0.76699
0.76699
0.76699
0.76699
0.76699
0.76699
0.76699
0.76699
0.76699
0.76699
0.76699
0.76699
0.76699
0.76699
0.76699
0.76699
0.76699
0.76699
0.76699
0.76699
0.76699
0.76699
0.76699
0.76699
0.76699
0.76699
0.76699
0.76699
0.76699
0.76699
0.76699
0.76699
0.76699
0.76699
0.76699
0.76699
0.76699
0.76699
0.76699
0.76699
0.76699
0.76699
0.76699
0.76699
0.76699
0.76699
0.76699
0.76699
0.76699
0.76699
0.76699
0.76699
0.76699
0.76699
0.76699
0.76699
0.76699
0.76699
0.76699
0.76699
0.76699
0.76699
0.76699
0.76699
0.76699
0.76699
0.76699
0.76699
0.76699
0.76699
0.76699
0.76699
0.76699
0.76699
0.76699
0.76699
0.76699
0.76699
0.76699
0.76699
0.76699
0.76699
0.76699
0.76699
0.76699
0.76699
0.76699
0.76699
0.76699
0.76699
0.76699
0.76699
0.76699
0.76699
0.76699
0.76699
0.76699
0.76699
0.76699
0.76699
0.76699
0.76699
0.76699
0.76699
0.76699
0.76699
0.76699
0.76699
0.76699
0.76699
0.76699
0.76699
0.76699
0.76699
0.76699
0.76699
0.76699
0.76699
0.76699
0.76699
0.76699
0.76699
0.76699
0.76699
0.76699
0.76699
0.76699
0.76699
0.76699
0.76699
0.76699
0.76699
0.76699
0.76699
0.76699
0.76699
0.76699
0.76699
0.76699
0.76699
0.76699
0.76699
0.76699
0.76699
0.76699
0.76699
0.76699
0.76699
0.76699
0.76699
0.76699
0.76699
0.76699
0.76699
0.76699
0.76699
0.76699
0.76699
0.76699
0.76699
0.76699
0.76699
0.76699
0.76699
0.76699
0.76699
0.76699
0.76699
0.76699
0.76699
0.76699
0.76699
0.76699
0.76699
0.76699
0.76699
0.76699
0.76699
0.76699
0.76699
0.76699
0.76699
0.76699
0.76699
0.76699
0.76699
0.76699
0.76699
0.76699
0.76699
0.76699
0.76699
0.76699
0.76699
0.76699
0.76699
0.76699
0.76699
0.76699
0.76699
0.76699
0.76699
0.76699
0.76699
0.76699
0.76699
0.76699
0.76699
0.76699
0.76699
0.76699
0.76699
0.76699
0.76699
0.76699
0.76699
0.76699
0.76699
0.76699
0.76699
0.76699
0.76699
0.76699
0.76699
0.76699
0.76699
0.76699
0.76699
0.76699
0.76699
0.76699
0.76699
0.76699
0.76699
0.76699
0.76699
0.76699
0.76699
0.76699
0.76699
0.76699
0.76699
0.76699
0.76699
0.76699
0.76699
0.76699
0.76699
0.76699
0.76699
0.76699
0.76699
0.76699
0.76699
0.76699
0.76699
0.76699
0.76699
0.76699
0.76699
0.76699
0.76699
0.76699
0.76699
0.76699
0.76699
0.76699
0.76699
0.76699
0.76699
0.76699
0.76699
0.76699
0.76699
0.76699
0.76699
0.76699
0.76699
0.76699
0.76699
0.76699
0.76699
0.76699
0.76699
0.76699
0.76699
0.76699
0.76699
0.76699
0.76699
0.76699
0.76699
0.76699
0.76699
0.76699
0.76699
0.76699
0.76699
0.76699
0.76699
0.76699
0.76699
0.76699
0.76699
0.76699
0.76699
0.76699
0.76699
0.76699
0.76699
0.76699
0.76699
0.76699
0.76699
0.76699
0.76699
0.76699
0.76699
0.76699
0.76699
0.76699
0.76699
0.76699
0.76699
0.76699
0.76699
0.76699
0.76699
0.76699
0.76699
0.76699
0.76699
0.76699
0.76699
0.76699
0.76699
0.76699
0.76699
0.76699
0.76699
0.76699
0.76699
0.76699
0.76699
0.76699
0.76699
0.76699
0.76699
0.76699
0.76699
0.76699
0.76699
0.76699
0.76699
0.76699
0.76699
0.76699
0.76699
0.76699
0.76699
0.76699
0.76699
0.76699
0.76699
0.76699
0.76699
0.76699
0.76699
0.76699
0.76699
0.76699
0.76699
0.76699
0.76699
0.76699
0.76699
0.76699
0.76699
0.76699
0.76699
0.76699
0.76699
0.76699
0.76699
0.76699
0.76699
0.76699
0.76699
0.766989
0.76699
0.766989
0.76699
0.766989
0.76699
0.766989
0.76699
0.76699
0.76699
0.76699
0.76699
0.76699
0.76699
0.76699
0.76699
0.76699
0.76699
0.76699
0.76699
0.76699
0.76699
0.76699
0.76699
0.76699
0.76699
0.76699
0.76699
0.76699
0.76699
0.76699
0.76699
0.76699
0.76699
0.76699
0.76699
0.76699
0.76699
0.76699
0.76699
0.76699
0.76699
0.76699
0.76699
0.76699
0.76699
0.76699
0.766989
0.766989
0.766988
0.766986
0.766987
0.766983
0.766987
0.766982
0.766988
0.766983
0.766989
0.766986
0.766989
0.76699
0.766988
0.766988
0.76699
0.76699
0.76699
0.76699
0.76699
0.76699
0.76699
0.76699
0.76699
0.76699
0.76699
0.76699
0.76699
0.76699
0.76699
0.76699
0.76699
0.76699
0.76699
0.76699
0.76699
0.76699
0.76699
0.76699
0.76699
0.76699
0.76699
0.76699
0.76699
0.76699
0.76699
0.76699
0.76699
0.76699
0.76699
0.76699
0.766988
0.766988
0.766984
0.766982
0.766977
0.766968
0.766971
0.766951
0.76697
0.766944
0.766976
0.766951
0.766983
0.766967
0.766981
0.766989
0.76698
0.76698
0.76699
0.766989
0.76699
0.76699
0.76699
0.76699
0.76699
0.76699
0.76699
0.76699
0.76699
0.76699
0.76699
0.76699
0.76699
0.76699
0.76699
0.76699
0.76699
0.76699
0.76699
0.76699
0.76699
0.76699
0.76699
0.76699
0.76699
0.76699
0.76699
0.76699
0.76699
0.76699
0.76699
0.76699
0.76699
0.76699
0.766988
0.766988
0.766979
0.766978
0.766957
0.766946
0.766925
0.766892
0.766898
0.766836
0.766897
0.766808
0.766922
0.766828
0.766956
0.766888
0.766948
0.766982
0.766944
0.766946
0.76699
0.766985
0.76699
0.76699
0.76699
0.76699
0.76699
0.76699
0.76699
0.76699
0.76699
0.76699
0.76699
0.76699
0.76699
0.76699
0.76699
0.76699
0.76699
0.76699
0.76699
0.76699
0.76699
0.76699
0.76699
0.76699
0.76699
0.76699
0.76699
0.76699
0.76699
0.76699
0.76699
0.76699
0.76699
0.76699
0.766988
0.766989
0.766977
0.766978
0.766937
0.766929
0.766857
0.766824
0.766763
0.766687
0.766695
0.766571
0.766683
0.766515
0.766744
0.766543
0.766855
0.76666
0.766831
0.766955
0.766824
0.766838
0.766987
0.766968
0.76699
0.766989
0.76699
0.76699
0.76699
0.76699
0.76699
0.76699
0.76699
0.76699
0.76699
0.76699
0.76699
0.76699
0.76699
0.76699
0.76699
0.76699
0.76699
0.76699
0.76699
0.76699
0.76699
0.76699
0.76699
0.76699
0.76699
0.76699
0.76699
0.76699
0.76699
0.76699
0.76699
0.76699
0.766987
0.766979
0.76698
0.766927
0.766928
0.766799
0.766779
0.766617
0.766557
0.766448
0.766336
0.766341
0.766175
0.766324
0.766107
0.766408
0.766145
0.766593
0.766298
0.766555
0.76687
0.766554
0.766596
0.766978
0.766912
0.76699
0.766986
0.76699
0.76699
0.76699
0.76699
0.76699
0.76699
0.76699
0.76699
0.76699
0.76699
0.76699
0.76699
0.76699
0.76699
0.76699
0.76699
0.76699
0.76699
0.76699
0.76699
0.76699
0.76699
0.76699
0.76699
0.76699
0.76699
0.76699
0.76699
0.76699
0.76699
0.76699
0.76699
0.766989
0.766949
0.766959
0.766932
0.766939
0.766772
0.766774
0.766513
0.766481
0.766239
0.766163
0.766022
0.765889
0.765896
0.765709
0.765883
0.765638
0.765994
0.765692
0.766222
0.765882
0.766186
0.76668
0.766193
0.766249
0.76695
0.766781
0.766989
0.766976
0.76699
0.76699
0.76699
0.76699
0.76699
0.76699
0.76699
0.76699
0.76699
0.76699
0.76699
0.76699
0.76699
0.76699
0.76699
0.76699
0.76699
0.76699
0.76699
0.76699
0.76699
0.76699
0.76699
0.76699
0.76699
0.76699
0.76699
0.76699
0.76699
0.76699
0.76699
0.76699
0.76699
0.766968
0.766975
0.766826
0.766855
0.766782
0.7668
0.766473
0.766477
0.76611
0.766076
0.765782
0.765701
0.765536
0.765406
0.765407
0.765234
0.7654
0.765164
0.765542
0.765214
0.765812
0.765438
0.765788
0.766365
0.76581
0.765888
0.766879
0.766539
0.766988
0.766951
0.76699
0.76699
0.76699
0.76699
0.76699
0.76699
0.76699
0.76699
0.76699
0.76699
0.76699
0.76699
0.76699
0.76699
0.76699
0.76699
0.76699
0.76699
0.76699
0.76699
0.76699
0.76699
0.76699
0.76699
0.76699
0.76699
0.76699
0.76699
0.76699
0.76699
0.76699
0.76699
0.76699
0.76698
0.766985
0.766886
0.766913
0.766568
0.766621
0.766492
0.766524
0.766074
0.766082
0.765647
0.765624
0.76532
0.765277
0.765151
0.765116
0.765058
0.765028
0.765017
0.764955
0.765082
0.764916
0.765382
0.764998
0.765375
0.766022
0.765417
0.76551
0.766741
0.766222
0.766984
0.766893
0.76699
0.76699
0.76699
0.76699
0.76699
0.76699
0.76699
0.76699
0.76699
0.76699
0.76699
0.76699
0.76699
0.76699
0.76699
0.76699
0.76699
0.76699
0.76699
0.76699
0.76699
0.76699
0.76699
0.76699
0.76699
0.76699
0.76699
0.76699
0.76699
0.76699
0.76699
0.76699
0.76699
0.76698
0.766938
0.766954
0.76668
0.76674
0.766215
0.766287
0.766107
0.766153
0.765628
0.765644
0.76526
0.765264
0.765118
0.765127
0.765039
0.765066
0.764968
0.765011
0.764895
0.76493
0.764839
0.764842
0.764956
0.764777
0.764963
0.765663
0.765022
0.765129
0.7665
0.765883
0.766977
0.766791
0.76699
0.76699
0.76699
0.76699
0.76699
0.76699
0.76699
0.76699
0.76699
0.76699
0.76699
0.76699
0.76699
0.76699
0.76699
0.76699
0.76699
0.76699
0.76699
0.76699
0.76699
0.76699
0.76699
0.76699
0.76699
0.76699
0.76699
0.76699
0.76699
0.76699
0.76699
0.76699
0.766986
0.76689
0.766919
0.766799
0.766848
0.766367
0.766451
0.765819
0.765906
0.765684
0.765744
0.765274
0.765295
0.765142
0.76516
0.765109
0.76516
0.765098
0.765216
0.765036
0.765218
0.764913
0.765101
0.764789
0.764901
0.764724
0.764731
0.764687
0.765291
0.764691
0.764781
0.766194
0.765522
0.766961
0.766616
0.76699
0.76699
0.76699
0.76699
0.76699
0.76699
0.76699
0.76699
0.76699
0.76699
0.76699
0.76699
0.76699
0.76699
0.76699
0.76699
0.76699
0.76699
0.76699
0.76699
0.76699
0.76699
0.76699
0.76699
0.76699
0.76699
0.76699
0.76699
0.76699
0.76699
0.76699
0.766987
0.76694
0.766965
0.766702
0.766774
0.766536
0.766619
0.766003
0.766107
0.765452
0.765536
0.765329
0.765383
0.765176
0.76519
0.765206
0.765241
0.765331
0.765419
0.765409
0.765555
0.765357
0.765581
0.765162
0.765462
0.764872
0.765184
0.764664
0.764816
0.764595
0.764922
0.764544
0.764528
0.764682
0.765838
0.765133
0.766924
0.766309
0.76699
0.76699
0.76699
0.76699
0.76699
0.76699
0.76699
0.76699
0.76699
0.76699
0.76699
0.76699
0.76699
0.76699
0.76699
0.76699
0.76699
0.76699
0.76699
0.76699
0.76699
0.76699
0.76699
0.76699
0.76699
0.76699
0.76699
0.76699
0.76699
0.76699
0.766987
0.766944
0.766832
0.76687
0.766423
0.766517
0.766214
0.76632
0.765635
0.765745
0.765246
0.76529
0.765204
0.765219
0.765261
0.765265
0.76547
0.765494
0.765627
0.765647
0.765701
0.765732
0.765689
0.765783
0.765512
0.765749
0.765154
0.765513
0.764728
0.765107
0.764916
0.764572
0.764661
0.764561
0.764812
0.764581
0.764499
0.764553
0.764612
0.764477
0.765382
0.764648
0.764694
0.764979
0.76672
0.765455
0.76699
0.76699
0.76699
0.76699
0.76699
0.76699
0.76699
0.76699
0.76699
0.76699
0.76699
0.76699
0.76699
0.76699
0.76699
0.76699
0.76699
0.76699
0.76699
0.76699
0.76699
0.76699
0.76699
0.76699
0.76699
0.76699
0.76699
0.766989
0.766989
0.766986
0.766953
0.766747
0.766816
0.766608
0.766676
0.766106
0.76622
0.765863
0.765985
0.765353
0.765436
0.765238
0.765238
0.765261
0.76525
0.76549
0.765475
0.765642
0.765628
0.765722
0.765702
0.765787
0.765756
0.765832
0.765818
0.765649
0.765768
0.765831
0.765861
0.765278
0.765478
0.765776
0.76578
0.765633
0.765051
0.764793
0.76499
0.765242
0.764738
0.764469
0.764481
0.7645
0.764602
0.764671
0.764461
0.764766
0.765052
0.764769
0.764502
0.764533
0.765903
0.764726
0.764654
0.764944
0.76699
0.76699
0.76699
0.76699
0.76699
0.76699
0.76699
0.76699
0.76699
0.76699
0.76699
0.76699
0.76699
0.76699
0.76699
0.76699
0.76699
0.76699
0.76699
0.76699
0.76699
0.76699
0.76699
0.76699
0.766989
0.766987
0.766986
0.766986
0.766983
0.766951
0.766734
0.766509
0.766545
0.766329
0.766417
0.765778
0.765901
0.765539
0.765654
0.765245
0.765268
0.765359
0.765311
0.765445
0.765406
0.765603
0.765574
0.765674
0.765647
0.765709
0.765658
0.765747
0.765648
0.765853
0.76582
0.765767
0.765696
0.76585
0.765873
0.765864
0.765433
0.765616
0.76586
0.76586
0.765761
0.765183
0.76491
0.765111
0.765384
0.764836
0.764432
0.764414
0.764537
0.764758
0.764679
0.764478
0.764552
0.764532
0.764407
0.764403
0.764864
0.766981
0.766302
0.764466
0.764484
0.76699
0.76699
0.76699
0.76699
0.76699
0.76699
0.76699
0.76699
0.76699
0.76699
0.76699
0.76699
0.76699
0.76699
0.76699
0.76699
0.76699
0.76699
0.76699
0.76699
0.76699
0.76699
0.766988
0.766983
0.766975
0.766972
0.766974
0.766972
0.76694
0.766742
0.766344
0.766445
0.76622
0.766294
0.76602
0.766124
0.765498
0.765606
0.765323
0.765401
0.765275
0.765259
0.765453
0.765401
0.765539
0.765499
0.765619
0.765589
0.765617
0.765592
0.765561
0.765502
0.765629
0.765554
0.765493
0.76543
0.765819
0.76575
0.765668
0.76558
0.765882
0.76587
0.765815
0.765577
0.76574
0.765888
0.765888
0.765853
0.76532
0.765031
0.765244
0.765526
0.764948
0.764427
0.764387
0.7646
0.764861
0.764772
0.764525
0.76439
0.764359
0.764354
0.764325
0.765263
0.766952
0.766488
0.764339
0.764545
0.76699
0.76699
0.76699
0.76699
0.76699
0.76699
0.76699
0.76699
0.76699
0.76699
0.76699
0.76699
0.76699
0.76699
0.76699
0.76699
0.76699
0.76699
0.76699
0.76699
0.766989
0.766982
0.766957
0.766924
0.766916
0.76693
0.766938
0.766907
0.766721
0.766259
0.766072
0.766067
0.765921
0.765998
0.765718
0.765823
0.765319
0.76539
0.76526
0.765277
0.765343
0.765295
0.765474
0.765425
0.765555
0.765517
0.765577
0.765558
0.76548
0.765492
0.765387
0.765349
0.765333
0.765322
0.765493
0.76541
0.765336
0.765272
0.765732
0.765634
0.76553
0.765425
0.765874
0.76581
0.765713
0.765706
0.765836
0.765876
0.765875
0.765884
0.765461
0.76516
0.765382
0.765658
0.76507
0.764454
0.764389
0.764682
0.764975
0.764877
0.764592
0.764292
0.764266
0.764332
0.764282
0.765434
0.766911
0.766329
0.764306
0.764635
0.76699
0.76699
0.76699
0.76699
0.76699
0.76699
0.76699
0.76699
0.76699
0.76699
0.76699
0.76699
0.766989
0.766989
0.766988
0.766988
0.766988
0.766989
0.766989
0.766986
0.766964
0.766886
0.766792
0.766763
0.766804
0.766853
0.766828
0.766654
0.766225
0.765824
0.765866
0.76578
0.765812
0.765646
0.765717
0.765474
0.765561
0.765253
0.765271
0.765263
0.765248
0.765372
0.765319
0.765457
0.765408
0.765535
0.765501
0.765521
0.765541
0.765297
0.765382
0.765224
0.765194
0.765186
0.765196
0.765325
0.765233
0.765152
0.765086
0.765599
0.765478
0.765355
0.765236
0.765805
0.765695
0.765565
0.765808
0.765873
0.765802
0.7658
0.765871
0.765593
0.765294
0.765515
0.765766
0.765197
0.764503
0.764418
0.764776
0.765094
0.764986
0.764672
0.764241
0.764225
0.764338
0.764265
0.765427
0.766874
0.766249
0.764306
0.764668
0.76699
0.76699
0.76699
0.76699
0.76699
0.76699
0.76699
0.76699
0.76699
0.76699
0.766989
0.766987
0.766985
0.766983
0.766983
0.766984
0.766985
0.766986
0.766981
0.766933
0.766797
0.766634
0.766567
0.7666
0.766669
0.766675
0.766513
0.766123
0.765658
0.765572
0.765552
0.76553
0.765563
0.765431
0.765485
0.765314
0.76537
0.765221
0.76522
0.765272
0.765239
0.765357
0.765307
0.765452
0.765396
0.765532
0.765501
0.76549
0.765559
0.765079
0.765152
0.76534
0.765236
0.765038
0.765014
0.765011
0.765032
0.765126
0.765028
0.764945
0.764881
0.765425
0.765283
0.765145
0.765017
0.765681
0.765534
0.765374
0.765853
0.765861
0.765673
0.765671
0.765803
0.765706
0.765423
0.765629
0.765824
0.765322
0.764566
0.76446
0.764874
0.765212
0.765094
0.764756
0.764213
0.764205
0.764358
0.764265
0.765418
0.766878
0.76624
0.764302
0.764673
0.76699
0.76699
0.76699
0.76699
0.76699
0.76699
0.76699
0.766989
0.766988
0.766985
0.766979
0.766971
0.766965
0.766965
0.766969
0.766974
0.766978
0.766972
0.766903
0.766709
0.76649
0.766365
0.766361
0.766413
0.766412
0.766255
0.765937
0.765636
0.765423
0.765467
0.765394
0.765404
0.76535
0.765375
0.765285
0.765319
0.765229
0.765252
0.765196
0.765181
0.765261
0.765223
0.765339
0.765287
0.765501
0.765432
0.765579
0.765557
0.765429
0.765524
0.765628
0.764946
0.765043
0.765289
0.765161
0.764839
0.764826
0.764834
0.764874
0.764902
0.764804
0.764727
0.76467
0.765212
0.765054
0.764907
0.764776
0.765509
0.765329
0.765145
0.765847
0.765805
0.765494
0.765493
0.76568
0.765781
0.76554
0.765717
0.765825
0.765436
0.764632
0.764505
0.764969
0.765318
0.76519
0.764834
0.764199
0.76419
0.76438
0.764267
0.765393
0.766911
0.766296
0.764286
0.764644
0.76699
0.76699
0.76699
0.76699
0.76699
0.76699
0.766989
0.766985
0.766975
0.766955
0.766928
0.766911
0.76691
0.766923
0.766942
0.766958
0.766953
0.766866
0.766641
0.766355
0.766186
0.766141
0.766145
0.766118
0.765995
0.765805
0.765645
0.765543
0.765411
0.765493
0.76532
0.765362
0.765252
0.765283
0.7652
0.765224
0.76518
0.765185
0.765178
0.765163
0.765242
0.765205
0.765364
0.765305
0.765631
0.765549
0.765691
0.765689
0.765415
0.765531
0.765654
0.765749
0.764819
0.764945
0.765253
0.765094
0.764641
0.764639
0.764659
0.764722
0.764665
0.764572
0.764499
0.764452
0.764966
0.764799
0.764652
0.764527
0.765294
0.765086
0.764884
0.765808
0.765698
0.765273
0.765271
0.765507
0.765797
0.765632
0.765755
0.765799
0.765525
0.764691
0.764543
0.765051
0.765402
0.765265
0.764899
0.764188
0.764173
0.764397
0.764268
0.765353
0.76696
0.766459
0.764259
0.764585
0.766989
0.76699
0.76699
0.76699
0.76699
0.766987
0.766979
0.766956
0.766912
0.766863
0.766836
0.766836
0.766857
0.766888
0.766916
0.766918
0.76683
0.766585
0.766268
0.766088
0.766023
0.765995
0.765954
0.76588
0.765788
0.76568
0.765686
0.765741
0.765841
0.765526
0.765628
0.765364
0.765439
0.765253
0.765303
0.765182
0.765212
0.765161
0.765166
0.765197
0.765187
0.765256
0.76522
0.765467
0.765397
0.765828
0.765744
0.765793
0.765825
0.765872
0.765408
0.765544
0.765714
0.765814
0.764701
0.764856
0.765226
0.765035
0.764437
0.764445
0.764492
0.764577
0.76442
0.764333
0.764271
0.764242
0.764698
0.764533
0.764394
0.764276
0.765041
0.764815
0.764606
0.765719
0.765541
0.765015
0.765016
0.765294
0.76578
0.765686
0.765747
0.765737
0.765584
0.764735
0.764567
0.765111
0.765456
0.765311
0.764941
0.764176
0.764154
0.764405
0.764263
0.765291
0.766956
0.766436
0.764222
0.764494
0.766989
0.76699
0.76699
0.766989
0.766986
0.766972
0.766932
0.766863
0.766797
0.766761
0.766761
0.766787
0.766827
0.766865
0.766872
0.766787
0.766537
0.766216
0.766054
0.765998
0.765969
0.765937
0.765883
0.765814
0.765768
0.76588
0.766166
0.765995
0.766155
0.765746
0.765868
0.765526
0.765632
0.765348
0.76543
0.765235
0.765283
0.76519
0.765204
0.76529
0.765291
0.765344
0.765307
0.765655
0.765577
0.766005
0.76599
0.765991
0.765873
0.765893
0.766018
0.766018
0.765414
0.76558
0.765768
0.765884
0.764598
0.76478
0.765203
0.764986
0.764241
0.764265
0.76434
0.76445
0.764178
0.764106
0.764061
0.764052
0.764424
0.764269
0.764146
0.764039
0.764762
0.764531
0.764329
0.765587
0.765349
0.764735
0.764744
0.765055
0.765744
0.765695
0.765721
0.76564
0.765603
0.764758
0.764574
0.765141
0.765475
0.765319
0.764953
0.764161
0.764133
0.764402
0.764252
0.765154
0.76654
0.765922
0.764179
0.764384
0.76699
0.76699
0.766989
0.766985
0.766965
0.766908
0.766817
0.766734
0.766691
0.766687
0.766715
0.766761
0.766804
0.766816
0.766734
0.766496
0.766197
0.766059
0.766006
0.765987
0.765972
0.765943
0.765918
0.765959
0.766156
0.766455
0.766598
0.766689
0.766311
0.766461
0.766042
0.766175
0.765795
0.765915
0.76558
0.765683
0.765409
0.765487
0.76531
0.765349
0.765495
0.765519
0.765525
0.765499
0.765909
0.765826
0.766109
0.766084
0.766194
0.766164
0.765961
0.766003
0.76612
0.766116
0.765416
0.765609
0.765807
0.765943
0.764512
0.764717
0.765184
0.764946
0.764064
0.764115
0.764209
0.764342
0.763958
0.763903
0.763882
0.763884
0.764162
0.764028
0.763919
0.763832
0.764474
0.764252
0.76407
0.765437
0.765152
0.764449
0.764483
0.764818
0.765677
0.765669
0.765668
0.765529
0.765586
0.764757
0.764564
0.765138
0.765461
0.765296
0.764939
0.764144
0.764108
0.764387
0.764234
0.76476
0.766324
0.765121
0.764136
0.764262
0.76699
0.766989
0.766984
0.766959
0.766888
0.766775
0.766678
0.766625
0.766617
0.766643
0.766689
0.766734
0.766745
0.766674
0.766453
0.766202
0.76608
0.766039
0.766058
0.766102
0.766135
0.766184
0.766299
0.766479
0.766704
0.766891
0.766833
0.766898
0.766629
0.766744
0.766371
0.766503
0.766116
0.766241
0.765895
0.766001
0.765707
0.765797
0.765564
0.765628
0.76576
0.7658
0.765774
0.765754
0.766132
0.766111
0.766109
0.766223
0.766213
0.76631
0.766288
0.766037
0.766093
0.766223
0.766207
0.765418
0.765629
0.765822
0.765973
0.764437
0.764659
0.765162
0.764906
0.763919
0.763989
0.764099
0.76425
0.763771
0.763739
0.763734
0.763747
0.763927
0.763818
0.763729
0.763665
0.764197
0.763997
0.763844
0.765281
0.764956
0.764188
0.764259
0.764597
0.765577
0.765616
0.765579
0.765381
0.765528
0.764731
0.764531
0.765097
0.765392
0.765195
0.764876
0.764123
0.764084
0.764353
0.764202
0.764418
0.765293
0.764444
0.764097
0.764153
0.766989
0.766984
0.766957
0.766873
0.766743
0.766628
0.766565
0.766553
0.766573
0.766613
0.766653
0.766662
0.766592
0.766407
0.766216
0.766122
0.766108
0.766204
0.766339
0.766451
0.766539
0.766632
0.766743
0.76687
0.766953
0.766963
0.766888
0.766928
0.766762
0.766833
0.766586
0.766679
0.76639
0.766488
0.766201
0.766294
0.766024
0.766111
0.765862
0.76594
0.766002
0.766031
0.76604
0.766009
0.766257
0.766218
0.766322
0.766339
0.766319
0.766322
0.766416
0.766408
0.766084
0.766162
0.766298
0.766253
0.765411
0.765636
0.76582
0.765976
0.76436
0.764593
0.765122
0.764852
0.7638
0.763884
0.764004
0.764163
0.763623
0.763611
0.763614
0.763642
0.763734
0.76365
0.763586
0.763548
0.763955
0.763786
0.763666
0.765093
0.764742
0.76398
0.764058
0.76438
0.76545
0.76553
0.765464
0.765225
0.765419
0.76465
0.764457
0.764951
0.765223
0.76497
0.764708
0.764094
0.764058
0.764287
0.764154
0.764185
0.765901
0.764323
0.764057
0.764071
0.766985
0.766957
0.766867
0.766719
0.766589
0.766518
0.766502
0.766514
0.766541
0.766568
0.766568
0.766505
0.766362
0.766239
0.766169
0.766183
0.766332
0.766533
0.766694
0.766778
0.76684
0.766898
0.76695
0.766978
0.766981
0.766965
0.766928
0.766978
0.766882
0.766729
0.766816
0.766539
0.76663
0.766415
0.766468
0.76632
0.766369
0.76621
0.766268
0.766083
0.766147
0.766212
0.766199
0.766325
0.766249
0.76639
0.766366
0.766425
0.766462
0.766373
0.766406
0.766486
0.766504
0.766096
0.766185
0.766321
0.766259
0.765385
0.765623
0.765778
0.765946
0.764269
0.764503
0.765045
0.764767
0.7637
0.763791
0.763912
0.764071
0.763533
0.763531
0.763537
0.763566
0.763589
0.763534
0.763501
0.763486
0.763774
0.763636
0.763546
0.764915
0.764549
0.763806
0.763842
0.764174
0.765306
0.765394
0.765278
0.765036
0.765201
0.764516
0.764338
0.764722
0.764959
0.764706
0.764533
0.764063
0.764028
0.764209
0.764103
0.764087
0.766197
0.764357
0.764023
0.764022
0.76696
0.766866
0.766709
0.766562
0.766489
0.766468
0.766471
0.766486
0.766497
0.766485
0.766428
0.766346
0.766269
0.76622
0.76626
0.766432
0.766655
0.766817
0.766896
0.766936
0.766962
0.766979
0.766987
0.766987
0.766988
0.766942
0.766981
0.766986
0.7669
0.766735
0.766831
0.766505
0.766619
0.766344
0.76641
0.76628
0.766304
0.766243
0.766262
0.766201
0.766221
0.76648
0.766428
0.766564
0.766554
0.766566
0.766504
0.766487
0.766582
0.766593
0.76638
0.766439
0.766507
0.766561
0.766076
0.766179
0.766308
0.76622
0.76532
0.765569
0.765674
0.765853
0.764148
0.764375
0.764914
0.764634
0.763617
0.763698
0.763811
0.76396
0.763482
0.763483
0.763492
0.763511
0.763496
0.763468
0.763454
0.763449
0.76363
0.763515
0.763455
0.764664
0.764216
0.763608
0.763587
0.763827
0.765032
0.765096
0.764872
0.764637
0.764874
0.76435
0.764235
0.764523
0.764665
0.764478
0.764336
0.764027
0.764004
0.764138
0.764061
0.764061
0.76534
0.764184
0.763995
0.763994
0.766873
0.766707
0.76655
0.766474
0.766452
0.766452
0.766457
0.766455
0.766437
0.766402
0.766352
0.766301
0.766274
0.766336
0.766512
0.766725
0.766875
0.766943
0.766971
0.766982
0.766987
0.766989
0.766989
0.766989
0.76699
0.766971
0.766988
0.766989
0.76695
0.766839
0.766908
0.766633
0.766743
0.766454
0.766532
0.766378
0.766404
0.766372
0.766371
0.766395
0.766378
0.766808
0.766759
0.76667
0.766643
0.766785
0.766782
0.76659
0.766598
0.766684
0.766683
0.766341
0.766436
0.766494
0.766576
0.765996
0.766117
0.766229
0.766105
0.765194
0.765453
0.765487
0.76568
0.763989
0.764199
0.764713
0.764441
0.763544
0.763601
0.763693
0.763822
0.763448
0.763451
0.763461
0.763476
0.763425
0.763408
0.763398
0.763394
0.763486
0.763422
0.76339
0.764164
0.763802
0.763488
0.763537
0.763646
0.764529
0.764702
0.764434
0.76415
0.764544
0.764245
0.76416
0.76434
0.7644
0.764303
0.764247
0.764005
0.763983
0.764086
0.76402
0.764019
0.766441
0.764271
0.763967
0.763968
0.766716
0.766548
0.766471
0.766449
0.766446
0.766451
0.766451
0.766438
0.766409
0.766371
0.766339
0.766341
0.76642
0.766583
0.766775
0.766905
0.766963
0.766982
0.766988
0.766989
0.76699
0.76699
0.76699
0.76699
0.76699
0.76699
0.766985
0.76699
0.766979
0.766947
0.766968
0.766861
0.766911
0.766742
0.766801
0.766667
0.766695
0.766668
0.766661
0.766723
0.766687
0.766837
0.766909
0.766918
0.76693
0.766778
0.766781
0.766842
0.766634
0.766669
0.766767
0.766741
0.766231
0.766376
0.766429
0.76656
0.765835
0.765974
0.766069
0.765901
0.76499
0.765256
0.765204
0.765412
0.763785
0.763967
0.764434
0.764182
0.763499
0.763523
0.763573
0.763654
0.763393
0.763397
0.763406
0.763421
0.763368
0.763352
0.763338
0.763338
0.763429
0.763378
0.763312
0.763866
0.763774
0.763487
0.763575
0.76366
0.764165
0.764342
0.764191
0.763995
0.764318
0.764163
0.764099
0.764241
0.764277
0.764223
0.764198
0.763987
0.763943
0.764038
0.763997
0.764014
0.76687
0.764582
0.763946
0.763956
0.766556
0.766474
0.766451
0.766449
0.766459
0.766463
0.766454
0.766434
0.766412
0.766403
0.76643
0.766517
0.766661
0.766826
0.766927
0.766973
0.766986
0.766989
0.76699
0.76699
0.76699
0.76699
0.76699
0.76699
0.76699
0.76699
0.76699
0.76699
0.766989
0.76699
0.766988
0.766981
0.766986
0.766962
0.766974
0.766929
0.766946
0.766905
0.766915
0.766908
0.766904
0.766927
0.766916
0.766905
0.766934
0.766935
0.766969
0.766829
0.766839
0.766895
0.766646
0.766702
0.766804
0.766764
0.766054
0.766258
0.766321
0.766502
0.765584
0.765742
0.765836
0.765624
0.7647
0.764964
0.764827
0.765055
0.763598
0.763703
0.764081
0.763866
0.763451
0.763482
0.763505
0.763542
0.763339
0.763348
0.76336
0.763378
0.763304
0.763298
0.763292
0.763294
0.763433
0.763399
0.76325
0.763913
0.763452
0.763321
0.763363
0.763413
0.764121
0.764246
0.764183
0.764014
0.764256
0.76413
0.764062
0.764187
0.764215
0.764213
0.764127
0.76394
0.763925
0.764
0.763945
0.76405
0.766878
0.764642
0.763932
0.763952
0.76649
0.766459
0.766467
0.766487
0.766504
0.766506
0.766501
0.7665
0.766511
0.766546
0.766625
0.766749
0.766873
0.766947
0.766979
0.766988
0.76699
0.76699
0.76699
0.76699
0.76699
0.76699
0.76699
0.76699
0.76699