/*--------------------------------*- C++ -*----------------------------------*\
  =========                 |
  \\      /  F ield         | OpenFOAM: The Open Source CFD Toolbox
   \\    /   O peration     | Website:  https://openfoam.org
    \\  /    A nd           | Version:  dev
     \\/     M anipulation  |
\*---------------------------------------------------------------------------*/
FoamFile
{
    version     2.0;
    format      ascii;
    class       volScalarField;
    location    "2500";
    object      nut;
}
// * * * * * * * * * * * * * * * * * * * * * * * * * * * * * * * * * * * * * //

dimensions      [0 2 -1 0 0 0 0];

internalField   nonuniform List<scalar> 
9836
(
0.000128705
0.00013227
0.000125123
0.00012103
0.000158886
0.000111487
0.000111826
0.000167812
0.000150291
0.000106301
0.000107666
0.00016181
0.000173367
0.000128822
0.00010441
0.000104647
0.000145122
0.000186293
0.000160736
0.000116904
0.000103404
0.000102943
0.0001296
0.000185226
0.000182939
0.000137235
0.000111851
0.000102665
0.000102389
0.000119484
0.000175946
0.000196099
0.000165225
0.000123363
0.00010882
0.000102158
0.000102158
0.000112411
0.000155533
0.000201684
0.000188573
0.00014164
0.000116521
0.000106796
0.000101772
0.000102012
0.000108369
0.000136732
0.000197392
0.000201698
0.000165805
0.000127202
0.000112404
0.000105414
0.000101459
0.00010187
0.000105993
0.000125058
0.000183758
0.000211649
0.00019046
0.000143253
0.00011951
0.000109655
0.00010436
0.00010122
0.000101511
0.000104689
0.000116753
0.000160819
0.00021211
0.000207339
0.00016373
0.000129453
0.000114835
0.000107631
0.000103678
0.000101
0.00010116
0.000104115
0.000111786
0.000140883
0.000206177
0.000216049
0.000188753
0.000142606
0.000121625
0.000111719
0.000106153
0.000103065
0.000100839
0.000100862
0.000103754
0.000108951
0.000128923
0.000189708
0.000223373
0.000207901
0.000161384
0.000130041
0.000116633
0.00010928
0.000105203
0.000102528
0.000100701
0.000100638
0.000103479
0.00010733
0.000120312
0.00016486
0.000221998
0.000220993
0.000183652
0.000141671
0.000122657
0.000113143
0.000107507
0.000104325
0.000102099
0.000100584
0.000100493
0.000103226
0.000106257
0.000115156
0.000144542
0.000213784
0.000228871
0.000206844
0.000157639
0.000130042
0.000117809
0.000110432
0.000106269
0.000103585
0.000101746
0.000100468
0.000100408
0.000102874
0.000105504
0.000111949
0.000132709
0.000194604
0.000234053
0.000222559
0.000177927
0.0001398
0.000123067
0.000114227
0.000108467
0.000105153
0.000102965
0.00010147
0.000100411
0.000100347
0.000102513
0.000104979
0.000109837
0.000124033
0.000169022
0.000231264
0.000233055
0.000200544
0.00015352
0.000129524
0.000118234
0.000111377
0.000107024
0.000104253
0.000102506
0.000101136
0.000100316
0.00010026
0.000102202
0.000104556
0.000108353
0.000118525
0.000148451
0.000221329
0.00024056
0.000221733
0.000171736
0.000137716
0.000123149
0.000114649
0.000109202
0.000105765
0.000103574
0.000101995
0.000100961
0.000100242
0.000100179
0.000101992
0.000104214
0.000107261
0.000114856
0.000136945
0.000199982
0.000244055
0.000235518
0.000192744
0.00014939
0.000128508
0.000118531
0.000111796
0.000107561
0.000104736
0.000102984
0.000101538
0.000100738
0.000100185
0.000100133
0.000101818
0.000103925
0.000106419
0.000112399
0.000128088
0.000174114
0.000240135
0.00024412
0.000215503
0.000165181
0.000135491
0.000122522
0.000114977
0.000109627
0.000106171
0.000103996
0.000102339
0.000101266
0.000100529
0.000100123
0.000100121
0.00010166
0.000103535
0.000105768
0.000110606
0.000122358
0.000153012
0.000228997
0.000251175
0.000234432
0.000184609
0.00014524
0.000127407
0.000118171
0.000112136
0.000107911
0.000105087
0.00010329
0.000101768
0.000100954
0.000100366
0.000100069
0.000100111
0.000101461
0.00010313
0.000105323
0.000109177
0.000118354
0.000142253
0.000206807
0.00025374
0.000246913
0.000206642
0.00015869
0.000133125
0.000121974
0.00011488
0.000109921
0.000106466
0.000104247
0.000102584
0.000101394
0.000100646
0.000100207
0.000100024
0.000100065
0.000101249
0.000102763
0.000104912
0.000108084
0.000115402
0.000133339
0.000181359
0.000249461
0.000254507
0.000228532
0.000176531
0.000141277
0.000125926
0.000117871
0.000112183
0.000108143
0.000105305
0.000103479
0.000101913
0.000101057
0.000100396
0.000100063
9.99822e-05
9.99982e-05
0.0001011
0.00010243
0.000104513
0.000107193
0.000113197
0.000127074
0.000159325
0.000238169
0.000261286
0.000245924
0.000196361
0.000152889
0.000131061
0.000121001
0.000114662
0.000110011
0.000106685
0.0001044
0.000102769
0.000101424
0.000100708
0.000100186
9.99441e-05
9.99547e-05
9.99441e-05
0.00010103
0.000102147
0.00010412
0.000106426
0.000111555
0.000122593
0.000148356
0.000216844
0.000264044
0.00025738
0.000218791
0.000167932
0.00013766
0.000124702
0.000117231
0.000112074
0.000108272
0.000105482
0.000103613
0.000102105
0.000101051
0.000100403
0.000100009
9.98542e-05
9.99288e-05
9.98976e-05
0.000100951
0.000101819
0.000103707
0.000105819
0.000110152
0.000119393
0.000139702
0.000191597
0.000259848
0.000265011
0.000239451
0.000186643
0.000147388
0.000128801
0.000120123
0.000114264
0.000110015
0.000106862
0.000104526
0.000102929
0.000101551
0.000100738
0.000100155
9.98599e-05
9.98047e-05
9.99226e-05
9.98619e-05
0.000100884
0.000101501
0.000103187
0.000105298
0.000108975
0.000117265
0.000133182
0.000169347
0.000249441
0.000270887
0.000256599
0.000206541
0.000160155
0.000134595
0.00012323
0.000116605
0.000111903
0.000108386
0.000105722
0.000103776
0.000102352
0.000101111
0.000100484
9.99811e-05
9.97999e-05
9.98429e-05
9.99499e-05
9.98287e-05
0.00010079
0.000101191
0.000102637
0.000104803
0.000107952
0.000115392
0.000128596
0.000156259
0.000231128
0.000274747
0.000267003
0.000228517
0.00017641
0.000142189
0.000126918
0.000119151
0.000113877
0.000110027
0.000107101
0.00010482
0.000103147
0.000101892
0.000100791
0.000100302
9.99284e-05
9.98749e-05
9.99795e-05
0.000100021
9.97898e-05
0.000100695
0.000100985
0.000102115
0.000104315
0.000107062
0.000113464
0.00012532
0.000148433
0.000208253
0.000271358
0.000275157
0.000248253
0.000194755
0.000153126
0.000131415
0.00012188
0.000116005
0.000111739
0.000108556
0.000106072
0.000104087
0.000102655
0.000101559
0.000100637
0.000100238
0.000100047
0.000100116
0.000100284
0.000100142
9.97499e-05
0.000100623
0.000100819
0.000101555
0.00010383
0.000106274
0.000111766
0.000123158
0.000141639
0.000185854
0.000264186
0.000279779
0.000265734
0.00021477
0.00016639
0.00013781
0.000124884
0.000118138
0.000113538
0.000110052
0.000107396
0.00010525
0.000103532
0.000102316
0.0001014
0.000100678
0.000100349
0.000100418
0.00010066
0.00010087
0.000100497
9.97145e-05
0.000100559
0.000100637
0.000101021
0.00010332
0.000105555
0.000110498
0.000121331
0.000136739
0.000168353
0.000250034
0.000284769
0.000275553
0.000234375
0.000182896
0.000146238
0.000128568
0.000120541
0.000115282
0.000111598
0.000108738
0.000106488
0.000104661
0.000103174
0.000102165
0.000101445
0.000101012
0.000100921
0.00010122
0.000101771
0.000101785
0.000100694
9.96895e-05
0.000100513
0.000100429
0.00010054
0.000102811
0.00010492
0.000109474
0.000119662
0.000133344
0.000159003
0.00023177
0.000285409
0.000283727
0.000254541
0.00019992
0.00015746
0.000133577
0.000122852
0.000117189
0.000113109
0.000110083
0.000107714
0.000105853
0.000104301
0.000103081
0.000102241
0.000101788
0.000101724
0.000102077
0.000102747
0.000103524
0.000103648
0.000101248
9.96847e-05
0.000100492
0.000100176
0.00010012
0.000102362
0.00010436
0.000108581
0.000118242
0.000131415
0.000153221
0.000210774
0.000281147
0.000288866
0.00027128
0.000219099
0.000170578
0.000140245
0.000125776
0.000118974
0.000114624
0.000111386
0.000108909
0.000106998
0.000105476
0.00010424
0.000103262
0.000102655
0.00010262
0.000103021
0.000103933
0.000105075
0.000105981
9.40886e-05
8.06755e-05
7.9299e-05
9.97061e-05
0.000100479
9.98877e-05
9.97498e-05
0.00010199
0.000103874
0.000107853
0.000116826
0.000130223
0.000149072
0.000192653
0.000272333
0.00029399
0.000283338
0.000237071
0.000185891
0.000148845
0.000129626
0.000121052
0.000116056
0.000112633
0.000110056
0.000108095
0.000106594
0.000105426
0.000104469
0.000103882
0.000103758
0.000104257
0.000105305
0.000106915
0.000103402
9.05859e-05
7.68243e-05
7.66083e-05
6.77323e-05
6.98241e-05
9.97706e-05
0.000100465
9.95886e-05
9.94328e-05
0.000101686
0.000103474
0.000107322
0.000115731
0.0001298
0.00014603
0.000178762
0.000258577
0.000297206
0.000291145
0.000257038
0.0002024
0.000159495
0.000134754
0.000123151
0.000117531
0.000113779
0.000111087
0.000109114
0.000107631
0.000106582
0.000105698
0.000105186
0.000105148
0.000105731
0.000107035
0.000104066
9.21453e-05
9.40269e-05
8.89324e-05
7.75369e-05
8.12254e-05
7.29689e-05
7.01016e-05
7.01223e-05
6.09871e-05
6.23697e-05
9.98664e-05
0.000100394
9.92679e-05
9.92033e-05
0.000101437
0.000103158
0.000106978
0.000115096
0.000129596
0.000144781
0.000170198
0.000244561
0.000296716
0.000297223
0.000273522
0.000219654
0.000172123
0.000141302
0.000125997
0.000118986
0.000114849
0.000111958
0.000109901
0.000108449
0.000107579
0.000106914
0.000106559
0.000106614
0.000107385
0.000105636
9.36835e-05
8.3267e-05
8.26125e-05
7.82891e-05
7.60761e-05
6.98209e-05
6.74532e-05
6.81072e-05
6.34035e-05
6.37403e-05
5.45718e-05
5.62751e-05
9.99799e-05
0.000100261
9.89376e-05
9.91258e-05
0.000101272
0.000102935
0.000106814
0.000114787
0.000129603
0.000144909
0.000166008
0.000230148
0.000293738
0.00030117
0.000286797
0.000236999
0.000185994
0.000149492
0.000129832
0.000120781
0.000115884
0.000112786
0.000110608
0.000109067
0.000108265
0.000107844
0.000107858
0.000108125
0.000108947
9.72087e-05
8.59633e-05
7.69609e-05
7.40139e-05
7.11644e-05
7.39743e-05
7.10076e-05
6.66737e-05
6.38149e-05
6.65483e-05
6.28271e-05
5.79601e-05
5.90187e-05
4.96066e-05
5.16229e-05
0.000100102
0.000100064
9.86157e-05
9.91744e-05
0.000101204
0.000102869
0.000106877
0.000114838
0.000130105
0.000145791
0.000164208
0.000217513
0.000287893
0.000305263
0.000295987
0.000252514
0.000200854
0.000159268
0.0001347
0.000122727
0.000117086
0.00011358
0.000111353
0.000109743
0.000108842
0.000108438
0.000108678
0.000109589
0.000108785
9.32403e-05
7.99994e-05
7.17045e-05
6.8944e-05
6.71682e-05
6.88282e-05
6.69303e-05
6.58459e-05
6.46574e-05
6.4738e-05
5.93478e-05
6.16955e-05
5.92437e-05
5.39405e-05
5.54835e-05
4.58846e-05
4.8252e-05
0.000100222
9.98247e-05
9.83847e-05
9.94244e-05
0.000101272
0.00010303
0.000107261
0.00011532
0.000131159
0.000146989
0.000163879
0.000207919
0.000280051
0.00030842
0.000302354
0.000268881
0.000215785
0.000170412
0.000140763
0.00012543
0.000118307
0.000114314
0.000111908
0.000110364
0.000109401
0.000109014
0.000109191
0.000110327
0.00010777
9.05246e-05
7.75343e-05
6.83466e-05
6.5051e-05
6.35755e-05
6.51701e-05
6.45045e-05
6.35242e-05
6.28943e-05
6.32094e-05
6.16954e-05
6.06636e-05
5.6117e-05
5.85739e-05
5.66163e-05
5.10628e-05
5.30005e-05
4.33638e-05
4.60396e-05
0.000100325
9.95818e-05
9.84059e-05
9.99154e-05
0.000101463
0.000103456
0.000108226
0.000116666
0.000132682
0.000149588
0.000164777
0.000201509
0.000272419
0.00030974
0.000307392
0.000282863
0.000230536
0.000182539
0.000148118
0.000129036
0.000119856
0.000115227
0.000112269
0.000110635
0.000109719
0.000109522
0.00010976
0.000110754
0.000109367
8.99758e-05
7.56392e-05
6.65026e-05
6.36542e-05
6.38195e-05
6.3397e-05
6.68412e-05
6.33162e-05
6.73346e-05
6.12532e-05
6.49504e-05
5.99978e-05
6.12794e-05
5.82681e-05
5.40633e-05
5.65375e-05
5.48099e-05
4.92343e-05
5.16696e-05
4.20327e-05
4.49346e-05
0.000100332
9.93728e-05
9.86854e-05
0.000100518
0.000101805
0.000104192
0.000109581
0.000119103
0.000135552
0.000153307
0.000166493
0.000198449
0.000265697
0.000309857
0.000311273
0.000293913
0.00024488
0.000195207
0.000156594
0.000133512
0.000121714
0.000116155
0.000112649
0.000110715
0.000109723
0.000109698
0.00011014
0.000111296
0.000112314
9.16943e-05
7.59622e-05
6.56401e-05
6.65932e-05
6.7566e-05
7.19536e-05
8.58401e-05
7.79208e-05
0.000101755
7.7131e-05
9.91639e-05
7.05412e-05
9.67427e-05
6.24853e-05
8.05351e-05
6.33491e-05
5.25218e-05
6.31166e-05
6.15109e-05
4.86433e-05
5.02996e-05
4.18836e-05
4.52864e-05
0.000100244
9.92724e-05
9.92761e-05
0.000101213
0.000102353
0.00010542
0.000111738
0.000122646
0.000139706
0.000157604
0.000169523
0.000197468
0.000260605
0.000309128
0.000313994
0.000302741
0.000257983
0.000207997
0.000166102
0.000138871
0.0001243
0.00011717
0.000113272
0.000110792
0.000109536
0.000109439
0.000110017
0.000111536
0.00011381
9.45178e-05
7.76181e-05
6.55782e-05
7.37714e-05
7.34096e-05
0.000101491
0.000108415
0.00010769
0.000117075
0.000105935
0.000122811
0.000101608
0.000118414
9.6647e-05
0.000108004
9.13942e-05
9.74706e-05
8.91082e-05
5.80137e-05
8.63329e-05
8.31348e-05
4.79334e-05
5.37931e-05
4.38791e-05
4.66429e-05
0.000100138
9.94186e-05
0.000100243
0.000101995
0.000103224
0.000107284
0.000115101
0.000127637
0.00014481
0.000162795
0.000174402
0.000199277
0.000257222
0.000307875
0.000316646
0.000308815
0.000269643
0.000220356
0.000176256
0.000145145
0.000127591
0.000118597
0.000114128
0.000111036
0.00010944
0.000108936
0.00010958
0.000111026
0.000114003
9.85697e-05
8.04687e-05
6.71718e-05
8.04968e-05
7.49111e-05
0.000110377
0.000112557
0.000128419
0.000139315
0.000145179
0.000170784
0.000151207
0.000189085
0.000139348
0.000188899
0.000116977
0.000165134
9.92023e-05
0.000125006
9.93793e-05
7.99698e-05
9.70946e-05
9.23116e-05
5.00478e-05
7.14363e-05
4.91526e-05
5.04118e-05
0.000100156
0.000100061
0.000101559
0.000102843
0.000104675
0.000110038
0.000120135
0.000134111
0.000150926
0.000168531
0.00018005
0.000202202
0.000255793
0.000306767
0.000319151
0.000313066
0.000280718
0.000231851
0.000186638
0.00015217
0.000131464
0.000120484
0.000114963
0.000111557
0.000109396
0.00010846
0.000108965
0.000110323
0.000113208
0.000104566
8.47528e-05
6.76438e-05
8.41973e-05
5.98179e-05
0.000112225
0.000110578
0.000149059
0.00015609
0.000196026
0.00021932
0.000232036
0.000275207
0.000247787
0.000312969
0.000237774
0.000320044
0.000196548
0.000291355
0.000132855
0.000228338
0.000136305
8.3745e-05
0.000133452
0.000123553
5.84773e-05
7.52553e-05
5.98659e-05
5.53185e-05
0.000100478
0.000101122
0.000102923
0.000103889
0.000106837
0.00011397
0.000126695
0.000141439
0.000157825
0.000174703
0.000186519
0.000207132
0.000256975
0.000306319
0.000321266
0.000316564
0.000290015
0.000242454
0.000196816
0.000159757
0.000136003
0.000122889
0.000116042
0.000112343
0.000109619
0.000108165
0.000108262
0.000109448
0.000112018
0.000111878
8.9676e-05
7.33163e-05
9.87454e-05
0.000107584
0.000104841
0.000160896
0.000159088
0.000240245
0.000255927
0.000318329
0.000357757
0.000375611
0.000427804
0.000392992
0.000445775
0.000377215
0.00043502
0.00033139
0.00040684
0.000250271
0.000353211
0.000256809
0.00010726
0.000247064
0.000220644
7.15602e-05
8.93242e-05
9.72576e-05
7.47898e-05
0.000101308
0.000102526
0.000104292
0.000105412
0.000110028
0.000119915
0.00013436
0.000149189
0.00016516
0.000181179
0.000193597
0.000213963
0.000259052
0.000307136
0.000323324
0.000319437
0.000297282
0.000251876
0.00020651
0.000167677
0.000141063
0.000125683
0.000117532
0.000113137
0.000110201
0.000108206
0.000107677
0.000108501
0.000110679
0.00011502
9.69922e-05
7.93201e-05
8.91331e-05
0.000137804
0.00012684
0.000156509
0.000149913
0.000268057
0.000272506
0.000390235
0.000414738
0.000468079
0.000497058
0.000480666
0.000504623
0.000469131
0.000491892
0.000449527
0.000473761
0.000417863
0.000452577
0.000358747
0.000420114
0.000353225
0.000177011
0.000338374
0.000313425
7.58108e-05
0.000125366
9.18609e-05
6.63558e-05
0.000103819
0.000104314
0.000105761
0.000107838
0.000114797
0.000127869
0.000142459
0.000157027
0.000172541
0.000187896
0.000200885
0.000221502
0.000262628
0.000308612
0.000325465
0.000322065
0.000302967
0.000259972
0.00021536
0.000175682
0.000146413
0.000128812
0.000119182
0.00011403
0.000111035
0.000108889
0.000107743
0.000107899
0.000109521
0.000113433
0.00010555
8.54124e-05
7.89489e-05
0.000115927
0.000106389
0.000250049
0.000226922
0.000270854
0.000264612
0.0004313
0.000441577
0.000519055
0.000536219
0.000522776
0.000536591
0.000507226
0.000518062
0.000487329
0.000494281
0.000467723
0.000470836
0.000448159
0.000453629
0.00041472
0.000437403
0.000404852
0.000272536
0.000391227
0.00037159
9.0987e-05
0.000209089
8.1172e-05
6.81236e-05
0.000112512
0.000107293
0.000108045
0.000111712
0.000122161
0.000136967
0.000150485
0.000164396
0.000179563
0.000194394
0.000208511
0.000229492
0.000268305
0.000310989
0.000327796
0.000324316
0.000307426
0.000266893
0.000223333
0.000183263
0.000152078
0.000132552
0.000121372
0.000115535
0.000111723
0.000109592
0.000108517
0.000108128
0.000109024
0.000112156
0.000107507
9.21555e-05
8.27634e-05
0.000100462
9.25965e-05
0.000201479
0.000173232
0.000422772
0.000402085
0.000440951
0.000435301
0.000549474
0.000560439
0.000548388
0.000559943
0.000526209
0.000532657
0.00049908
0.000505683
0.000473744
0.000483286
0.000452413
0.00045744
0.000437543
0.000437075
0.000426326
0.000422917
0.000416855
0.000340896
0.000408206
0.000399173
0.000127325
0.000290883
6.60395e-05
7.73551e-05
0.0001239
0.000117713
0.000112613
0.000117897
0.000131861
0.000146046
0.000158386
0.000171377
0.000185719
0.00020085
0.000215844
0.000238241
0.000275248
0.000315009
0.000330518
0.00032672
0.000310812
0.000272727
0.000230556
0.000190428
0.000157816
0.000136387
0.000124141
0.000117364
0.000113166
0.00011035
0.000109176
0.00010889
0.000109568
0.000112041
0.000109988
0.000100773
9.08065e-05
0.000100378
0.000151432
0.000126956
0.000374739
0.000334911
0.000565166
0.000556343
0.000567213
0.000567772
0.000570956
0.000581225
0.000539922
0.000547664
0.00051459
0.00052468
0.000498452
0.000522122
0.000480852
0.000516067
0.000452398
0.000491777
0.000425704
0.000453435
0.000412494
0.000415806
0.000405666
0.000384482
0.000401878
0.000402125
0.000207636
0.000354264
5.2883e-05
0.00010753
0.000138637
0.000122951
0.000126559
0.000142347
0.000154736
0.000165814
0.000177486
0.000191465
0.000206553
0.0002238
0.000247007
0.000283424
0.000320505
0.000334094
0.000329337
0.000313573
0.000277483
0.000237231
0.000197349
0.000163429
0.00014042
0.000126774
0.000118968
0.000114782
0.000112309
0.000110349
0.000109572
0.000110173
0.000112579
0.000116346
0.000108095
9.42103e-05
9.04189e-05
0.000201904
0.000176169
0.000290749
0.000239887
0.000539954
0.000514756
0.000612385
0.000616983
0.000592006
0.000603173
0.000555459
0.000562644
0.000535922
0.000547838
0.000547504
0.000572712
0.000559789
0.000607938
0.000549042
0.000613973
0.000506654
0.000579585
0.000453181
0.000518956
0.000406997
0.000448842
0.000400189
0.000403185
0.000394451
0.00039467
0.000292454
0.000396355
5.29712e-05
0.000183474
0.000143235
0.000137824
0.000152358
0.000163043
0.000172987
0.000183419
0.000196354
0.000212729
0.000230774
0.000256894
0.000292285
0.000327469
0.000338889
0.000332584
0.000315968
0.000281712
0.000243403
0.000204435
0.000169521
0.00014425
0.000129033
0.000120789
0.000117233
0.000115219
0.000113224
0.000111818
0.000111628
0.000113188
0.000116545
0.000104103
0.000101407
9.27018e-05
0.000161857
0.000123451
0.000393583
0.00033348
0.000483705
0.000443671
0.000617756
0.000614193
0.000590418
0.000605738
0.000569798
0.000578322
0.000553862
0.00055979
0.000595993
0.000615467
0.000653236
0.000690017
0.000667524
0.000706015
0.000638464
0.000676731
0.00058977
0.000634375
0.000517058
0.000583683
0.000438311
0.000507002
0.000423306
0.00040267
0.000405583
0.000396184
0.000394654
0.000365194
0.000414156
6.8861e-05
0.000293329
0.00016217
0.000162816
0.000172481
0.000179091
0.000189647
0.000201245
0.000217845
0.000238986
0.000266162
0.000302501
0.000335399
0.000345513
0.000336742
0.000318664
0.000285784
0.000249542
0.000212021
0.00017666
0.000147951
0.000131641
0.000123054
0.000120311
0.000118759
0.000118331
0.000117359
0.000116396
0.000115973
0.000101896
0.000101251
0.000112284
9.54642e-05
0.000158212
0.000281368
0.000220205
0.000550644
0.000511648
0.000603137
0.000580438
0.000617651
0.000623336
0.000575173
0.000582049
0.000565403
0.000568102
0.000623397
0.000630301
0.000718929
0.000740981
0.000737148
0.000763157
0.000705139
0.000730699
0.000662584
0.000682583
0.000619118
0.000633981
0.000568711
0.000580856
0.000487588
0.000529459
0.000524567
0.000437084
0.00047061
0.000393633
0.000402752
0.000391546
0.000412596
0.000442393
0.000457384
0.000404027
0.000386309
0.00039417
0.000398211
0.000414343
0.000181804
0.000311547
0.000190488
0.00018178
0.000188904
0.000194271
0.00020742
0.000224027
0.000246305
0.000276725
0.00031312
0.00034501
0.000353467
0.00034265
0.000321955
0.000290394
0.000256428
0.000221428
0.000184301
0.000153549
0.000135886
0.000126115
0.000123305
0.000122455
0.00012326
0.000124638
0.000123988
0.000120894
0.000117936
0.000116269
0.000112773
9.81305e-05
0.000150068
0.000367858
0.000302625
0.000468207
0.000426429
0.000618942
0.000605503
0.00062468
0.000623913
0.000590487
0.00060166
0.000615833
0.000605669
0.000632144
0.000626942
0.000752313
0.000758574
0.000784134
0.00080075
0.000752301
0.00077112
0.000699251
0.000712892
0.000638227
0.00064973
0.000608711
0.000560355
0.00059143
0.000546574
0.000570386
0.00050924
0.000506939
0.00048876
0.000544516
0.000507281
0.000498986
0.000494333
0.000533317
0.000488273
0.000395673
0.000390289
0.000427128
0.000456856
0.000472729
0.000413682
0.000401275
0.000356388
0.000400414
0.00038723
0.000385859
0.000345016
0.000328761
0.000230014
0.000287931
0.000209331
0.000197253
0.000203335
0.000212229
0.000230865
0.000254789
0.000286889
0.000324614
0.000355893
0.000363419
0.00034998
0.000327063
0.000296177
0.000264734
0.000231935
0.000195521
0.000166343
0.000143847
0.000131014
0.000126577
0.00012572
0.000127669
0.000129504
0.000126836
0.000118534
0.000115396
0.000114772
0.000112368
0.000107102
0.000153567
0.000371096
0.000510394
0.000505976
0.000579831
0.000557041
0.000623005
0.000619497
0.000611684
0.000619803
0.000600618
0.00060043
0.000727145
0.000703157
0.00075645
0.000745081
0.000815397
0.00082663
0.000787638
0.000803874
0.000724624
0.000734705
0.000648479
0.00064695
0.000572944
0.000555421
0.000581061
0.000584839
0.000533679
0.000516014
0.000524382
0.000507622
0.000497677
0.000494099
0.000473799
0.000472904
0.000521107
0.000503438
0.00049782
0.000490346
0.000493001
0.000401512
0.000390774
0.000440469
0.000485113
0.000469379
0.000424294
0.000383652
0.000375677
0.000381329
0.000371486
0.000252247
3.01913e-05
0.000246172
0.000283847
0.00020331
0.000224115
0.000212018
0.000222072
0.000238319
0.000263706
0.000297856
0.00033671
0.000367975
0.000374898
0.000359242
0.000333592
0.000303753
0.00027535
0.000247043
0.000215962
0.000184031
0.000156777
0.000139592
0.000131769
0.000129958
0.000132007
0.000132344
0.000121346
0.000124149
0.000135305
0.000134569
0.000130557
0.000129454
0.0001722
0.000374736
0.000546784
0.00051392
0.000580887
0.000562313
0.000609919
0.000597924
0.000609675
0.000614642
0.000604886
0.000606474
0.000674861
0.00064665
0.00082693
0.000809772
0.000833777
0.000834582
0.000820359
0.000836377
0.000744601
0.000758777
0.000646783
0.000648652
0.000581855
0.000577522
0.000574255
0.000572024
0.000521431
0.00054193
0.000548225
0.000541945
0.000483011
0.000486357
0.000497598
0.000468974
0.000454683
0.000462799
0.000440977
0.000440972
0.000479002
0.000481539
0.000461811
0.000453095
0.000471327
0.000408557
0.000393124
0.000451849
0.000464761
0.000462546
0.000433768
0.000360379
0.00035048
0.000377045
0.000359366
0.000238948
4.12026e-05
0.000179197
0.000346597
0.000205007
0.000238323
0.000231784
0.000249591
0.000275113
0.000309346
0.000349767
0.000381627
0.000388474
0.000370467
0.00034274
0.000313594
0.000290228
0.00026979
0.000237947
0.000201262
0.000172315
0.000151797
0.000139429
0.000135997
0.000137532
0.000133928
0.00013458
0.000177947
0.00021792
0.00022369
0.000199368
0.000183947
0.000218798
0.000393983
0.000530742
0.000572549
0.000569554
0.000598863
0.000589311
0.000614771
0.000610707
0.000618418
0.000617954
0.000629958
0.00062197
0.000786247
0.000757298
0.000870348
0.000870836
0.000851416
0.000863288
0.000777267
0.000799646
0.000653082
0.00066658
0.000571637
0.000571464
0.000572581
0.000572884
0.000536068
0.000531536
0.000528464
0.000527002
0.000506928
0.000512917
0.000504905
0.000498045
0.000460001
0.000472193
0.000484395
0.000435209
0.000423012
0.000439486
0.000421269
0.000418433
0.000440173
0.000452406
0.000431431
0.000423679
0.00044783
0.000415392
0.000396186
0.000460045
0.000447078
0.000450608
0.00044086
0.000341403
0.000336757
0.000375483
0.000353241
0.000206467
4.54341e-05
0.000191071
0.000350896
0.000233487
0.000257582
0.000260054
0.000287694
0.000322599
0.000364407
0.000396393
0.00040399
0.00038465
0.00035457
0.000327235
0.000308001
0.000284321
0.00024981
0.00021395
0.000184463
0.000162248
0.000148316
0.000143187
0.000143683
0.000147475
0.000203963
0.000348324
0.000488063
0.000521565
0.000456201
0.000392434
0.000375142
0.000446103
0.000552917
0.000597328
0.000585746
0.000597582
0.000597413
0.000610049
0.000605826
0.000617243
0.000615926
0.000665357
0.00065354
0.000722644
0.000690205
0.000862246
0.000846187
0.000872224
0.000888053
0.000825225
0.000850446
0.000688069
0.000717176
0.000561925
0.00057134
0.000528345
0.000530186
0.000532963
0.000537564
0.000493106
0.000490157
0.000489662
0.000491018
0.000480363
0.000470956
0.00046341
0.000458397
0.000448182
0.000462626
0.000450987
0.000408965
0.000402888
0.000429141
0.000413783
0.00040455
0.000413512
0.000426859
0.000409841
0.000400846
0.000426255
0.000420518
0.000399098
0.000455577
0.00043168
0.000440309
0.000445151
0.000334889
0.000339688
0.000376388
0.000353688
0.000230402
4.96083e-05
0.000223031
0.000343172
0.00026968
0.000285356
0.000299025
0.000335802
0.000378458
0.000414435
0.000421006
0.000401092
0.000369546
0.000342552
0.000321685
0.000288085
0.000248462
0.00021795
0.000194856
0.000175269
0.000161085
0.000154537
0.00015514
0.000173898
0.000304377
0.000555643
0.000740962
0.00074578
0.000699386
0.000612216
0.000549527
0.000532341
0.000579577
0.000691872
0.000669543
0.000712684
0.000647578
0.000657527
0.000642633
0.000643675
0.000647924
0.000645006
0.00077492
0.000751255
0.000823369
0.00079799
0.000896072
0.000897164
0.00083301
0.000866538
0.000754596
0.000794786
0.000587248
0.000617682
0.000509067
0.000513788
0.000524612
0.00051949
0.000494376
0.000497493
0.00050033
0.000504478
0.000456148
0.000456503
0.000458558
0.000461378
0.000440255
0.000431939
0.000426992
0.000425305
0.000438086
0.00042495
0.000412837
0.000392756
0.000393248
0.000417354
0.000400601
0.000401245
0.000396283
0.000409342
0.000396418
0.000387694
0.000413631
0.000423633
0.000401035
0.000453116
0.00042243
0.000435904
0.000446136
0.000339205
0.000348454
0.000378469
0.000357838
0.000247423
4.75417e-05
0.000204006
0.000312635
0.000270387
0.0003236
0.000348487
0.000391588
0.00043066
0.000443081
0.000418919
0.000387669
0.000359016
0.00032852
0.000283488
0.000248894
0.000241386
0.000234789
0.000222612
0.000202483
0.000183974
0.000177907
0.000222172
0.000409758
0.000732159
0.000860995
0.000871906
0.000799369
0.000712983
0.000631323
0.00059146
0.000631585
0.000785619
0.000922481
0.000966083
0.000811973
0.000863417
0.00075646
0.000776443
0.000728897
0.000741012
0.000734926
0.000727612
0.000873367
0.000864307
0.000892527
0.000883266
0.000892585
0.000910809
0.000763902
0.000813069
0.000658897
0.000711553
0.000531287
0.000535799
0.000539608
0.000486374
0.00049196
0.000503077
0.000497925
0.000466287
0.000471024
0.000474991
0.000480515
0.000425999
0.000428179
0.000432103
0.000437812
0.000403918
0.000398914
0.000397105
0.000397464
0.000402715
0.000389149
0.000379299
0.000386947
0.000392579
0.000384367
0.000370077
0.00038796
0.000387266
0.000400817
0.000391754
0.000384464
0.000409371
0.000424444
0.000401329
0.000450373
0.000422577
0.000437543
0.000441605
0.000347155
0.00034166
0.000380069
0.000362231
0.000236918
4.47482e-05
0.000157923
0.000290849
0.000258453
0.000372635
0.000406002
0.000446583
0.000462344
0.000445017
0.000405657
0.000375665
0.000344403
0.000313442
0.000334223
0.000396781
0.000445803
0.000447939
0.000404949
0.00034341
0.000296873
0.000341331
0.000557188
0.000832465
0.000936002
0.000900291
0.000810766
0.000740412
0.000680347
0.000661873
0.00072901
0.000898587
0.00112475
0.00109316
0.00114549
0.000997776
0.00104982
0.000919546
0.000954297
0.000875976
0.000893713
0.000859103
0.00086209
0.000921626
0.000916764
0.000922027
0.00092917
0.0008551
0.000889478
0.000675313
0.000733892
0.000568356
0.000617086
0.000508896
0.00051162
0.000499949
0.000505317
0.000471102
0.000477273
0.000488041
0.000483006
0.000445318
0.000451797
0.000457159
0.000464254
0.000400014
0.000404915
0.000411377
0.000419088
0.000373723
0.000370992
0.00037095
0.000373604
0.000369208
0.000357829
0.000350923
0.00038957
0.000380133
0.000353008
0.000340893
0.000360048
0.000388159
0.000400847
0.000397153
0.000390981
0.000415018
0.000421735
0.000399481
0.000447695
0.000429857
0.000441366
0.00043257
0.000353294
0.000314258
0.000380082
0.000364402
0.000215967
1.82904e-05
0.000106775
0.000275303
0.000243365
0.000431062
0.000463936
0.000485941
0.000466613
0.000433972
0.000393854
0.000369866
0.000405073
0.000510501
0.000654401
0.000748061
0.000753578
0.000704254
0.000624207
0.000548002
0.00053718
0.000694788
0.00090509
0.000955091
0.000902143
0.000820306
0.000775742
0.00074505
0.00077788
0.000890405
0.00100682
0.00113101
0.00118602
0.00116281
0.00119592
0.0011988
0.0011384
0.00117248
0.0010622
0.00110013
0.000996048
0.00102814
0.000927423
0.000956911
0.000882194
0.000881346
0.000886335
0.000882869
0.000785286
0.000802079
0.000574696
0.000631477
0.000513472
0.000521542
0.0005323
0.000492552
0.00049681
0.000486209
0.000487955
0.000458854
0.00046595
0.000477441
0.000472298
0.000428453
0.000435948
0.000442651
0.000451223
0.000378438
0.000385141
0.000393327
0.000403006
0.000347168
0.000346438
0.000348476
0.000352617
0.000339358
0.000330641
0.000325751
0.000376654
0.00035513
0.000324237
0.00031383
0.000333751
0.000398253
0.000411036
0.000409957
0.000379096
0.000426712
0.000414237
0.000394871
0.000437731
0.000438719
0.000438909
0.000420716
0.000345216
0.000298821
0.000377121
0.000363476