/*--------------------------------*- C++ -*----------------------------------*\
  =========                 |
  \\      /  F ield         | OpenFOAM: The Open Source CFD Toolbox
   \\    /   O peration     | Website:  https://openfoam.org
    \\  /    A nd           | Version:  dev
     \\/     M anipulation  |
\*---------------------------------------------------------------------------*/
FoamFile
{
    version     2.0;
    format      ascii;
    class       volScalarField;
    location    "2500";
    object      O2;
}
// * * * * * * * * * * * * * * * * * * * * * * * * * * * * * * * * * * * * * //

dimensions      [0 0 0 0 0 0 0];

internalField   nonuniform List<scalar> 
9836
(
0.23301
0.23301
0.23301
0.23301
0.23301
0.23301
0.23301
0.23301
0.23301
0.23301
0.23301
0.23301
0.23301
0.23301
0.23301
0.23301
0.23301
0.23301
0.23301
0.23301
0.23301
0.23301
0.23301
0.23301
0.23301
0.23301
0.23301
0.23301
0.23301
0.23301
0.23301
0.23301
0.23301
0.23301
0.23301
0.23301
0.23301
0.23301
0.23301
0.23301
0.23301
0.23301
0.23301
0.23301
0.23301
0.23301
0.23301
0.23301
0.23301
0.23301
0.23301
0.23301
0.23301
0.23301
0.23301
0.23301
0.23301
0.23301
0.23301
0.23301
0.23301
0.23301
0.23301
0.23301
0.23301
0.23301
0.23301
0.23301
0.23301
0.23301
0.23301
0.23301
0.23301
0.23301
0.23301
0.23301
0.23301
0.23301
0.23301
0.23301
0.23301
0.23301
0.23301
0.23301
0.23301
0.23301
0.23301
0.23301
0.23301
0.23301
0.23301
0.23301
0.23301
0.23301
0.23301
0.23301
0.23301
0.23301
0.23301
0.23301
0.23301
0.23301
0.23301
0.23301
0.23301
0.23301
0.23301
0.23301
0.23301
0.23301
0.23301
0.23301
0.23301
0.23301
0.23301
0.23301
0.23301
0.23301
0.23301
0.23301
0.23301
0.23301
0.23301
0.23301
0.23301
0.23301
0.23301
0.23301
0.23301
0.23301
0.23301
0.23301
0.23301
0.23301
0.23301
0.23301
0.23301
0.23301
0.23301
0.23301
0.23301
0.23301
0.23301
0.23301
0.23301
0.23301
0.23301
0.23301
0.23301
0.23301
0.23301
0.23301
0.23301
0.23301
0.23301
0.23301
0.23301
0.23301
0.23301
0.23301
0.23301
0.23301
0.23301
0.23301
0.23301
0.23301
0.23301
0.23301
0.23301
0.23301
0.23301
0.23301
0.23301
0.23301
0.23301
0.23301
0.23301
0.23301
0.23301
0.23301
0.23301
0.23301
0.23301
0.23301
0.23301
0.23301
0.23301
0.23301
0.23301
0.23301
0.23301
0.23301
0.23301
0.23301
0.23301
0.23301
0.23301
0.23301
0.23301
0.23301
0.23301
0.23301
0.23301
0.23301
0.23301
0.23301
0.23301
0.23301
0.23301
0.23301
0.23301
0.23301
0.23301
0.23301
0.23301
0.23301
0.23301
0.23301
0.23301
0.23301
0.23301
0.23301
0.23301
0.23301
0.23301
0.23301
0.23301
0.23301
0.23301
0.23301
0.23301
0.23301
0.23301
0.23301
0.23301
0.23301
0.23301
0.23301
0.23301
0.23301
0.23301
0.23301
0.23301
0.23301
0.23301
0.23301
0.23301
0.23301
0.23301
0.23301
0.23301
0.23301
0.23301
0.23301
0.23301
0.23301
0.23301
0.23301
0.23301
0.23301
0.23301
0.23301
0.23301
0.23301
0.23301
0.23301
0.23301
0.23301
0.23301
0.23301
0.23301
0.23301
0.23301
0.23301
0.23301
0.23301
0.23301
0.23301
0.23301
0.23301
0.23301
0.23301
0.23301
0.23301
0.23301
0.23301
0.23301
0.23301
0.23301
0.23301
0.23301
0.23301
0.23301
0.23301
0.23301
0.23301
0.23301
0.23301
0.23301
0.23301
0.23301
0.23301
0.23301
0.23301
0.23301
0.23301
0.23301
0.23301
0.23301
0.23301
0.23301
0.23301
0.23301
0.23301
0.23301
0.23301
0.23301
0.23301
0.23301
0.23301
0.23301
0.23301
0.23301
0.23301
0.23301
0.23301
0.23301
0.23301
0.23301
0.23301
0.23301
0.23301
0.23301
0.23301
0.23301
0.23301
0.23301
0.23301
0.23301
0.23301
0.23301
0.23301
0.23301
0.23301
0.23301
0.23301
0.23301
0.23301
0.23301
0.23301
0.23301
0.23301
0.23301
0.23301
0.23301
0.23301
0.23301
0.23301
0.23301
0.23301
0.23301
0.23301
0.23301
0.23301
0.23301
0.23301
0.23301
0.23301
0.23301
0.23301
0.23301
0.23301
0.23301
0.23301
0.23301
0.23301
0.23301
0.23301
0.23301
0.23301
0.23301
0.23301
0.23301
0.23301
0.23301
0.23301
0.23301
0.23301
0.23301
0.23301
0.23301
0.23301
0.23301
0.23301
0.23301
0.23301
0.23301
0.23301
0.23301
0.23301
0.23301
0.23301
0.23301
0.23301
0.23301
0.23301
0.23301
0.23301
0.23301
0.23301
0.23301
0.23301
0.23301
0.23301
0.23301
0.23301
0.23301
0.23301
0.23301
0.23301
0.23301
0.23301
0.23301
0.23301
0.23301
0.23301
0.23301
0.23301
0.23301
0.23301
0.23301
0.23301
0.23301
0.23301
0.23301
0.23301
0.23301
0.23301
0.23301
0.23301
0.23301
0.23301
0.23301
0.23301
0.23301
0.23301
0.23301
0.23301
0.23301
0.23301
0.23301
0.23301
0.23301
0.23301
0.23301
0.23301
0.23301
0.23301
0.23301
0.23301
0.23301
0.23301
0.23301
0.23301
0.23301
0.23301
0.23301
0.23301
0.23301
0.23301
0.23301
0.23301
0.23301
0.23301
0.23301
0.23301
0.23301
0.23301
0.23301
0.23301
0.23301
0.23301
0.23301
0.23301
0.23301
0.23301
0.23301
0.23301
0.23301
0.23301
0.23301
0.23301
0.23301
0.23301
0.23301
0.23301
0.23301
0.23301
0.23301
0.23301
0.23301
0.23301
0.23301
0.23301
0.23301
0.23301
0.23301
0.23301
0.23301
0.23301
0.23301
0.23301
0.23301
0.23301
0.23301
0.23301
0.23301
0.23301
0.23301
0.23301
0.23301
0.23301
0.23301
0.23301
0.23301
0.23301
0.23301
0.23301
0.23301
0.23301
0.23301
0.23301
0.23301
0.23301
0.23301
0.23301
0.23301
0.23301
0.23301
0.23301
0.23301
0.23301
0.23301
0.23301
0.23301
0.23301
0.23301
0.23301
0.23301
0.23301
0.23301
0.23301
0.23301
0.23301
0.23301
0.23301
0.23301
0.23301
0.23301
0.23301
0.23301
0.23301
0.23301
0.23301
0.23301
0.23301
0.23301
0.23301
0.23301
0.23301
0.23301
0.23301
0.23301
0.23301
0.23301
0.23301
0.23301
0.23301
0.23301
0.23301
0.23301
0.23301
0.23301
0.23301
0.23301
0.23301
0.23301
0.23301
0.23301
0.23301
0.23301
0.23301
0.23301
0.23301
0.23301
0.23301
0.23301
0.23301
0.23301
0.23301
0.23301
0.23301
0.23301
0.23301
0.23301
0.23301
0.23301
0.23301
0.23301
0.23301
0.23301
0.23301
0.23301
0.23301
0.23301
0.23301
0.23301
0.23301
0.23301
0.23301
0.23301
0.23301
0.23301
0.23301
0.23301
0.23301
0.23301
0.23301
0.23301
0.23301
0.23301
0.23301
0.23301
0.23301
0.23301
0.23301
0.23301
0.23301
0.23301
0.23301
0.23301
0.23301
0.23301
0.23301
0.23301
0.23301
0.23301
0.23301
0.23301
0.23301
0.23301
0.23301
0.23301
0.23301
0.23301
0.23301
0.23301
0.23301
0.23301
0.23301
0.23301
0.23301
0.23301
0.23301
0.23301
0.23301
0.23301
0.23301
0.23301
0.23301
0.23301
0.23301
0.23301
0.23301
0.23301
0.23301
0.23301
0.23301
0.23301
0.23301
0.23301
0.23301
0.23301
0.23301
0.23301
0.23301
0.23301
0.23301
0.23301
0.23301
0.23301
0.23301
0.23301
0.23301
0.23301
0.23301
0.23301
0.23301
0.23301
0.23301
0.23301
0.23301
0.23301
0.23301
0.23301
0.23301
0.23301
0.23301
0.23301
0.23301
0.23301
0.23301
0.23301
0.23301
0.23301
0.23301
0.23301
0.23301
0.23301
0.23301
0.23301
0.23301
0.23301
0.23301
0.23301
0.23301
0.23301
0.23301
0.23301
0.23301
0.23301
0.23301
0.23301
0.23301
0.23301
0.23301
0.23301
0.23301
0.23301
0.23301
0.23301
0.23301
0.23301
0.23301
0.23301
0.23301
0.23301
0.23301
0.23301
0.23301
0.23301
0.23301
0.23301
0.23301
0.23301
0.23301
0.23301
0.23301
0.23301
0.23301
0.23301
0.23301
0.23301
0.23301
0.23301
0.23301
0.23301
0.23301
0.23301
0.23301
0.23301
0.23301
0.23301
0.23301
0.23301
0.23301
0.23301
0.23301
0.23301
0.23301
0.23301
0.23301
0.23301
0.23301
0.23301
0.23301
0.23301
0.23301
0.23301
0.23301
0.23301
0.23301
0.23301
0.23301
0.23301
0.23301
0.23301
0.23301
0.23301
0.23301
0.23301
0.23301
0.23301
0.23301
0.23301
0.23301
0.23301
0.23301
0.23301
0.23301
0.23301
0.23301
0.23301
0.23301
0.23301
0.23301
0.23301
0.23301
0.23301
0.23301
0.23301
0.23301
0.23301
0.23301
0.23301
0.23301
0.23301
0.23301
0.23301
0.23301
0.23301
0.23301
0.23301
0.23301
0.23301
0.23301
0.23301
0.23301
0.23301
0.23301
0.23301
0.233009
0.23301
0.23301
0.23301
0.23301
0.23301
0.23301
0.23301
0.23301
0.23301
0.23301
0.23301
0.23301
0.23301
0.23301
0.23301
0.23301
0.23301
0.23301
0.23301
0.23301
0.23301
0.23301
0.23301
0.23301
0.23301
0.23301
0.23301
0.23301
0.23301
0.23301
0.23301
0.23301
0.23301
0.23301
0.23301
0.23301
0.23301
0.23301
0.23301
0.23301
0.23301
0.23301
0.23301
0.23301
0.233009
0.233008
0.233009
0.233007
0.233008
0.233005
0.233009
0.233006
0.233009
0.233008
0.233009
0.23301
0.233009
0.233009
0.23301
0.23301
0.23301
0.23301
0.23301
0.23301
0.23301
0.23301
0.23301
0.23301
0.23301
0.23301
0.23301
0.23301
0.23301
0.23301
0.23301
0.23301
0.23301
0.23301
0.23301
0.23301
0.23301
0.23301
0.23301
0.23301
0.23301
0.23301
0.23301
0.23301
0.23301
0.23301
0.23301
0.23301
0.23301
0.23301
0.233007
0.233006
0.233003
0.232996
0.232999
0.232984
0.232998
0.232978
0.233001
0.232982
0.233006
0.232994
0.233004
0.233009
0.233003
0.233003
0.23301
0.233009
0.23301
0.23301
0.23301
0.23301
0.23301
0.23301
0.23301
0.23301
0.23301
0.23301
0.23301
0.23301
0.23301
0.23301
0.23301
0.23301
0.23301
0.23301
0.23301
0.23301
0.23301
0.23301
0.23301
0.23301
0.23301
0.23301
0.23301
0.23301
0.23301
0.23301
0.23301
0.23301
0.23301
0.23301
0.233004
0.233003
0.232988
0.232978
0.23296
0.232925
0.232937
0.232864
0.232936
0.232836
0.232956
0.232861
0.232985
0.232921
0.232976
0.233004
0.232971
0.232972
0.23301
0.233006
0.23301
0.23301
0.23301
0.23301
0.23301
0.23301
0.23301
0.23301
0.23301
0.23301
0.23301
0.23301
0.23301
0.23301
0.23301
0.23301
0.23301
0.23301
0.23301
0.23301
0.23301
0.23301
0.23301
0.23301
0.23301
0.23301
0.23301
0.23301
0.23301
0.23301
0.23301
0.23301
0.23301
0.23301
0.233003
0.233003
0.23297
0.232963
0.232885
0.232842
0.232761
0.232636
0.232661
0.232425
0.232656
0.232317
0.232752
0.232394
0.232882
0.232623
0.232849
0.232979
0.232834
0.232844
0.233008
0.23299
0.23301
0.233009
0.23301
0.23301
0.23301
0.23301
0.23301
0.23301
0.23301
0.23301
0.23301
0.23301
0.23301
0.23301
0.23301
0.23301
0.23301
0.23301
0.23301
0.23301
0.23301
0.23301
0.23301
0.23301
0.23301
0.23301
0.23301
0.23301
0.23301
0.23301
0.23301
0.23301
0.23301
0.23301
0.233004
0.233007
0.232962
0.232964
0.232808
0.232779
0.232505
0.23238
0.232148
0.23186
0.231888
0.231419
0.231843
0.231206
0.232074
0.23131
0.232496
0.231757
0.232407
0.232878
0.23238
0.23243
0.233
0.232925
0.23301
0.233006
0.23301
0.23301
0.23301
0.23301
0.23301
0.23301
0.23301
0.23301
0.23301
0.23301
0.23301
0.23301
0.23301
0.23301
0.23301
0.23301
0.23301
0.23301
0.23301
0.23301
0.23301
0.23301
0.23301
0.23301
0.23301
0.23301
0.23301
0.23301
0.23301
0.23301
0.23301
0.23301
0.233
0.232968
0.232971
0.232771
0.232774
0.232284
0.232207
0.231592
0.231364
0.230952
0.230523
0.230545
0.229914
0.230477
0.229654
0.2308
0.229798
0.2315
0.230381
0.231356
0.232555
0.231352
0.231511
0.232966
0.232715
0.233009
0.232994
0.23301
0.23301
0.23301
0.23301
0.23301
0.23301
0.23301
0.23301
0.23301
0.23301
0.23301
0.23301
0.23301
0.23301
0.23301
0.23301
0.23301
0.23301
0.23301
0.23301
0.23301
0.23301
0.23301
0.23301
0.23301
0.23301
0.23301
0.23301
0.23301
0.23301
0.23301
0.23301
0.233005
0.232854
0.23289
0.232788
0.232817
0.232181
0.232187
0.231198
0.231076
0.230155
0.229868
0.22933
0.228826
0.228851
0.22814
0.228802
0.227873
0.229226
0.228078
0.230092
0.228797
0.229956
0.231833
0.229981
0.230193
0.23286
0.232216
0.233007
0.232955
0.23301
0.23301
0.23301
0.23301
0.23301
0.23301
0.23301
0.23301
0.23301
0.23301
0.23301
0.23301
0.23301
0.23301
0.23301
0.23301
0.23301
0.23301
0.23301
0.23301
0.23301
0.23301
0.23301
0.23301
0.23301
0.23301
0.23301
0.23301
0.23301
0.23301
0.23301
0.23301
0.233008
0.232925
0.232952
0.232387
0.232498
0.232219
0.232288
0.231045
0.23106
0.229665
0.229535
0.22842
0.228113
0.227485
0.226992
0.226993
0.226338
0.226966
0.226071
0.227508
0.226262
0.228532
0.227113
0.22844
0.230634
0.228526
0.228822
0.232587
0.231296
0.233001
0.23286
0.23301
0.23301
0.23301
0.23301
0.23301
0.23301
0.23301
0.23301
0.23301
0.23301
0.23301
0.23301
0.23301
0.23301
0.23301
0.23301
0.23301
0.23301
0.23301
0.23301
0.23301
0.23301
0.23301
0.23301
0.23301
0.23301
0.23301
0.23301
0.23301
0.23301
0.23301
0.23301
0.233009
0.232971
0.232992
0.232614
0.232719
0.231407
0.231607
0.231117
0.231238
0.229527
0.229559
0.227905
0.227817
0.226664
0.226499
0.22602
0.225889
0.225669
0.225555
0.22551
0.225274
0.225758
0.225126
0.226897
0.225438
0.226871
0.229331
0.227031
0.227385
0.232062
0.230091
0.232988
0.232643
0.23301
0.23301
0.23301
0.23301
0.23301
0.23301
0.23301
0.23301
0.23301
0.23301
0.23301
0.23301
0.23301
0.23301
0.23301
0.23301
0.23301
0.23301
0.23301
0.23301
0.23301
0.23301
0.23301
0.23301
0.23301
0.23301
0.23301
0.23301
0.23301
0.23301
0.23301
0.23301
0.233009
0.232972
0.232811
0.232871
0.23183
0.232061
0.230063
0.230337
0.229653
0.229831
0.227833
0.227896
0.226437
0.226451
0.225894
0.225928
0.225596
0.225696
0.225325
0.225489
0.225049
0.225182
0.224836
0.224845
0.225281
0.2246
0.225307
0.227966
0.22553
0.225936
0.231148
0.228802
0.232961
0.232255
0.23301
0.23301
0.23301
0.23301
0.23301
0.23301
0.23301
0.23301
0.23301
0.23301
0.23301
0.23301
0.23301
0.23301
0.23301
0.23301
0.23301
0.23301
0.23301
0.23301
0.23301
0.23301
0.23301
0.23301
0.23301
0.23301
0.23301
0.23301
0.23301
0.23301
0.23301
0.233009
0.232996
0.23263
0.23274
0.232284
0.23247
0.230642
0.230961
0.22856
0.228889
0.228045
0.228276
0.226489
0.226567
0.225988
0.226054
0.225863
0.226054
0.225819
0.226269
0.225583
0.226276
0.225117
0.225832
0.224643
0.225071
0.224398
0.224424
0.224256
0.226551
0.224273
0.224616
0.229985
0.227431
0.232899
0.231589
0.23301
0.23301
0.23301
0.23301
0.23301
0.23301
0.23301
0.23301
0.23301
0.23301
0.23301
0.23301
0.23301
0.23301
0.23301
0.23301
0.23301
0.23301
0.23301
0.23301
0.23301
0.23301
0.23301
0.23301
0.23301
0.23301
0.23301
0.23301
0.23301
0.23301
0.233009
0.232999
0.232818
0.232913
0.231914
0.23219
0.231286
0.2316
0.229259
0.229654
0.227165
0.227484
0.226698
0.226903
0.226116
0.226171
0.22623
0.226364
0.226707
0.22704
0.227003
0.227557
0.226805
0.227655
0.226063
0.227205
0.224962
0.226147
0.22417
0.224747
0.223909
0.225149
0.223714
0.223653
0.22424
0.228631
0.225951
0.232757
0.230421
0.23301
0.23301
0.23301
0.23301
0.23301
0.23301
0.23301
0.23301
0.23301
0.23301
0.23301
0.23301
0.23301
0.23301
0.23301
0.23301
0.23301
0.23301
0.23301
0.23301
0.23301
0.23301
0.23301
0.23301
0.23301
0.23301
0.23301
0.23301
0.233009
0.233008
0.232999
0.232837
0.232411
0.232554
0.230857
0.231214
0.230061
0.230464
0.227859
0.228277
0.226383
0.226549
0.226223
0.22628
0.226437
0.226453
0.227233
0.227324
0.227831
0.227907
0.228113
0.228228
0.228066
0.228421
0.227394
0.228292
0.226034
0.227397
0.224413
0.225853
0.225127
0.223821
0.224159
0.223779
0.224732
0.223855
0.223543
0.22375
0.223972
0.223459
0.2269
0.22411
0.224283
0.225369
0.231982
0.227176
0.23301
0.23301
0.23301
0.23301
0.23301
0.23301
0.23301
0.23301
0.23301
0.23301
0.23301
0.23301
0.23301
0.23301
0.23301
0.23301
0.23301
0.23301
0.23301
0.23301
0.23301
0.23301
0.23301
0.23301
0.23301
0.233009
0.233008
0.233007
0.233006
0.232997
0.232868
0.232088
0.232348
0.231557
0.231817
0.229651
0.230084
0.228728
0.22919
0.22679
0.227106
0.226353
0.22635
0.226437
0.226397
0.227308
0.227251
0.227885
0.227832
0.22819
0.228116
0.228436
0.22832
0.22861
0.228557
0.227914
0.228367
0.228606
0.228718
0.226504
0.227265
0.228398
0.22841
0.227853
0.225641
0.224659
0.22541
0.226369
0.224453
0.223429
0.223473
0.223548
0.223935
0.224197
0.223398
0.224559
0.225646
0.22457
0.223554
0.223673
0.228884
0.224407
0.224131
0.225235
0.23301
0.23301
0.23301
0.23301
0.23301
0.23301
0.23301
0.23301
0.23301
0.23301
0.23301
0.23301
0.23301
0.23301
0.23301
0.23301
0.23301
0.23301
0.23301
0.23301
0.23301
0.23301
0.23301
0.233008
0.233005
0.233
0.232996
0.232995
0.232984
0.232862
0.232038
0.231183
0.231319
0.230497
0.230831
0.228403
0.228871
0.227494
0.227933
0.226378
0.226467
0.22681
0.22663
0.227139
0.226989
0.227739
0.227627
0.22801
0.227904
0.22814
0.227946
0.228285
0.227911
0.228689
0.228564
0.228362
0.228094
0.228679
0.228763
0.228729
0.227094
0.227786
0.228714
0.228716
0.228341
0.226143
0.225106
0.225868
0.226906
0.224823
0.223287
0.22322
0.223688
0.224526
0.224227
0.223462
0.223744
0.223668
0.223194
0.223179
0.224929
0.23299
0.230398
0.223419
0.223486
0.23301
0.23301
0.23301
0.23301
0.23301
0.23301
0.23301
0.23301
0.23301
0.23301
0.23301
0.23301
0.23301
0.23301
0.23301
0.23301
0.23301
0.23301
0.23301
0.23301
0.233009
0.233008
0.233003
0.232982
0.232953
0.232944
0.232949
0.232942
0.232819
0.232067
0.230555
0.230937
0.230084
0.230366
0.229322
0.229719
0.227341
0.227752
0.226675
0.226971
0.226494
0.226431
0.22717
0.226971
0.227495
0.227343
0.227799
0.227684
0.22779
0.227696
0.227577
0.227355
0.227838
0.227552
0.22732
0.227079
0.22856
0.228297
0.227984
0.22765
0.2288
0.228752
0.228544
0.22764
0.228261
0.22882
0.228823
0.228688
0.226663
0.225564
0.226375
0.227447
0.225248
0.22327
0.223116
0.223928
0.224919
0.224582
0.22364
0.223129
0.223013
0.22299
0.222882
0.226447
0.232863
0.231102
0.222936
0.223718
0.23301
0.23301
0.23301
0.23301
0.23301
0.23301
0.23301
0.23301
0.23301
0.23301
0.23301
0.23301
0.23301
0.233009
0.233009
0.233008
0.233008
0.233008
0.233008
0.233008
0.233005
0.23298
0.232885
0.232761
0.232728
0.232782
0.232814
0.232694
0.231987
0.23023
0.229521
0.229501
0.228945
0.229239
0.228175
0.228575
0.226661
0.226929
0.226436
0.226498
0.226752
0.226568
0.227248
0.227064
0.227556
0.227411
0.227639
0.227566
0.227269
0.227316
0.226917
0.226773
0.226713
0.226672
0.227321
0.227006
0.226724
0.226482
0.228228
0.227856
0.22746
0.227064
0.228769
0.228525
0.228156
0.228131
0.228625
0.228776
0.228774
0.228806
0.227199
0.226055
0.226899
0.227948
0.225712
0.223371
0.223126
0.224239
0.225352
0.224979
0.223897
0.222757
0.222657
0.222908
0.222718
0.227098
0.232711
0.230497
0.222811
0.224058
0.23301
0.23301
0.23301
0.23301
0.23301
0.23301
0.23301
0.23301
0.23301
0.23301
0.23301
0.233009
0.233007
0.233005
0.233004
0.233003
0.233004
0.233005
0.233005
0.232996
0.232912
0.232613
0.232257
0.232146
0.232303
0.232489
0.232395
0.231732
0.230102
0.228579
0.22874
0.228411
0.228531
0.227904
0.228173
0.227247
0.22758
0.226407
0.226477
0.226445
0.226391
0.226861
0.226661
0.227184
0.226998
0.22748
0.227351
0.227427
0.227502
0.226575
0.2269
0.226298
0.226183
0.226153
0.22619
0.226683
0.226332
0.226025
0.225773
0.227723
0.227263
0.226796
0.226345
0.228505
0.22809
0.227593
0.228518
0.228764
0.228494
0.228489
0.228756
0.227703
0.226563
0.227403
0.228357
0.226196
0.223559
0.223234
0.224595
0.225806
0.225395
0.224202
0.222561
0.222501
0.222932
0.222655
0.22707
0.23257
0.230193
0.22281
0.224185
0.233009
0.23301
0.23301
0.23301
0.23301
0.23301
0.23301
0.23301
0.233009
0.233008
0.233005
0.232999
0.232991
0.232985
0.232984
0.232988
0.232992
0.232995
0.232977
0.232795
0.232279
0.231658
0.231403
0.231529
0.231792
0.231813
0.231197
0.229716
0.227949
0.227621
0.227545
0.227461
0.227586
0.227084
0.22729
0.22664
0.226855
0.226287
0.226284
0.226481
0.226356
0.226805
0.226614
0.227166
0.226953
0.227468
0.22735
0.227309
0.227571
0.225747
0.226025
0.22674
0.226342
0.225592
0.225501
0.22549
0.225568
0.225925
0.225552
0.22524
0.224995
0.227063
0.226523
0.225999
0.225511
0.228035
0.227477
0.22687
0.228687
0.228718
0.228004
0.227998
0.228499
0.228131
0.227056
0.227837
0.228577
0.226672
0.223797
0.223396
0.224968
0.226253
0.225803
0.224519
0.222458
0.222427
0.223005
0.222652
0.227035
0.232583
0.230159
0.222795
0.224204
0.233009
0.23301
0.23301
0.23301
0.23301
0.23301
0.23301
0.233008
0.233004
0.232993
0.23297
0.232937
0.232915
0.232913
0.232929
0.23295
0.232966
0.23294
0.23268
0.231944
0.231111
0.230635
0.230619
0.230817
0.230816
0.230218
0.229009
0.227866
0.227053
0.22722
0.226944
0.226983
0.226776
0.226873
0.226531
0.22666
0.226316
0.226404
0.22619
0.226136
0.22644
0.226293
0.226737
0.226538
0.227352
0.227089
0.227648
0.227563
0.227076
0.22744
0.227835
0.225241
0.225612
0.226544
0.226061
0.224836
0.224788
0.224815
0.224967
0.225074
0.224701
0.22441
0.224194
0.226253
0.225652
0.225094
0.224596
0.227382
0.226699
0.225996
0.228668
0.228506
0.227326
0.227321
0.228033
0.228417
0.227498
0.228173
0.228583
0.227102
0.224048
0.223566
0.225327
0.226656
0.226167
0.224817
0.222402
0.22237
0.223091
0.222661
0.22694
0.232708
0.230372
0.222735
0.224094
0.233008
0.23301
0.23301
0.23301
0.23301
0.233009
0.233005
0.232991
0.232955
0.232878
0.232776
0.232709
0.232707
0.232756
0.232828
0.232889
0.232869
0.232541
0.231684
0.230596
0.229954
0.229783
0.2298
0.229695
0.229228
0.228507
0.2279
0.22751
0.227009
0.227322
0.226661
0.226822
0.226403
0.226524
0.226208
0.226297
0.226132
0.226151
0.226125
0.226068
0.226366
0.226226
0.226831
0.226605
0.227844
0.227532
0.228071
0.228066
0.227025
0.227466
0.227931
0.228293
0.224759
0.225238
0.226409
0.225804
0.224082
0.224074
0.224151
0.224392
0.224172
0.22382
0.223544
0.223363
0.225316
0.224684
0.224125
0.223647
0.226564
0.225775
0.225006
0.228519
0.228099
0.226484
0.226478
0.227375
0.228476
0.227849
0.228315
0.228485
0.227442
0.224273
0.223709
0.22564
0.226976
0.226453
0.225062
0.22236
0.222306
0.223157
0.222664
0.22679
0.232897
0.230994
0.222629
0.223872
0.233008
0.23301
0.23301
0.23301
0.233008
0.233
0.232969
0.232879
0.232713
0.232528
0.232424
0.232424
0.232504
0.232622
0.23273
0.232738
0.232401
0.231471
0.230267
0.229583
0.229336
0.229231
0.229073
0.228792
0.228442
0.228031
0.228053
0.228262
0.228643
0.227446
0.227834
0.226831
0.227115
0.226408
0.226597
0.226138
0.226254
0.22606
0.226078
0.226195
0.226158
0.226421
0.226284
0.227221
0.226956
0.228592
0.228276
0.228462
0.228582
0.22876
0.226998
0.227515
0.228162
0.22854
0.224312
0.224899
0.226308
0.22558
0.223306
0.223337
0.223518
0.22384
0.223241
0.222912
0.222678
0.222566
0.224298
0.223671
0.223143
0.222696
0.225603
0.224744
0.223951
0.228179
0.227502
0.225505
0.225507
0.226562
0.22841
0.228054
0.228288
0.228248
0.227665
0.22444
0.223801
0.225871
0.227181
0.226627
0.225221
0.222314
0.222233
0.223187
0.222647
0.226553
0.23288
0.230903
0.222491
0.223525
0.233008
0.23301
0.23301
0.233008
0.232995
0.23294
0.232791
0.232529
0.232278
0.232142
0.232139
0.232238
0.232391
0.232535
0.23256
0.23224
0.23129
0.230069
0.229455
0.22924
0.229131
0.229009
0.228803
0.228542
0.228365
0.228793
0.22988
0.22923
0.229835
0.228283
0.228745
0.227445
0.227849
0.226771
0.227082
0.22634
0.226523
0.226169
0.226222
0.226547
0.226555
0.226753
0.226615
0.227936
0.227641
0.229266
0.229211
0.229213
0.228765
0.228842
0.229318
0.229316
0.227019
0.227651
0.228366
0.228806
0.223921
0.224612
0.226219
0.225393
0.222564
0.222653
0.22294
0.223355
0.222324
0.222047
0.221879
0.221843
0.223257
0.222671
0.2222
0.221795
0.224544
0.223665
0.222898
0.227677
0.226775
0.224438
0.224472
0.225655
0.228275
0.228087
0.228188
0.227879
0.227738
0.224527
0.223828
0.225984
0.227253
0.226659
0.22527
0.22226
0.222153
0.223174
0.222605
0.226031
0.231299
0.228951
0.222326
0.223105
0.233008
0.23301
0.233007
0.23299
0.232916
0.232697
0.232354
0.232038
0.231873
0.231859
0.231965
0.232139
0.232305
0.23235
0.232037
0.231132
0.229996
0.22947
0.229271
0.229198
0.22914
0.229032
0.228937
0.22909
0.22984
0.230976
0.231521
0.231866
0.230431
0.231
0.229409
0.229912
0.228467
0.228925
0.22765
0.228042
0.227001
0.227298
0.226625
0.226774
0.227329
0.227418
0.227441
0.227344
0.228902
0.228587
0.229663
0.229566
0.229983
0.229872
0.229098
0.229259
0.229702
0.229687
0.227027
0.227762
0.228514
0.229032
0.223593
0.224372
0.226148
0.22524
0.221888
0.222084
0.222442
0.222945
0.221487
0.221278
0.221199
0.221207
0.222263
0.221754
0.221339
0.221008
0.22345
0.222605
0.221911
0.227108
0.226024
0.223354
0.223482
0.224754
0.22802
0.227989
0.227986
0.227456
0.227673
0.224522
0.223789
0.225972
0.227199
0.226571
0.225214
0.222195
0.222059
0.223116
0.222535
0.224533
0.230478
0.225908
0.222162
0.222641
0.233008
0.233007
0.232989
0.232893
0.232624
0.232193
0.231823
0.231623
0.231592
0.23169
0.231865
0.232037
0.232081
0.23181
0.230971
0.230015
0.229552
0.229396
0.229469
0.229636
0.229762
0.229946
0.230383
0.231068
0.231922
0.232634
0.232412
0.232659
0.231638
0.232076
0.230659
0.231159
0.229689
0.230162
0.228848
0.22925
0.228134
0.228476
0.22759
0.227834
0.228336
0.228488
0.22839
0.228314
0.22975
0.22967
0.229663
0.230095
0.230058
0.230426
0.230341
0.22939
0.229601
0.230094
0.230033
0.227034
0.227838
0.228573
0.229143
0.223306
0.224151
0.226062
0.225088
0.221338
0.221606
0.222023
0.222595
0.220774
0.220653
0.220635
0.220683
0.22137
0.220956
0.220617
0.220372
0.222394
0.221635
0.221053
0.226513
0.225279
0.222361
0.22263
0.223916
0.227638
0.22779
0.227648
0.226896
0.227453
0.224424
0.223665
0.225817
0.226935
0.226187
0.224977
0.222116
0.221965
0.222987
0.222414
0.223235
0.226562
0.223335
0.222016
0.222229
0.233007
0.232988
0.232885
0.232564
0.232072
0.231633
0.231397
0.231348
0.231426
0.231578
0.231728
0.231762
0.231497
0.230795
0.230069
0.22971
0.229659
0.230023
0.230534
0.23096
0.231296
0.23165
0.232072
0.232552
0.232871
0.232906
0.232621
0.232773
0.232143
0.232414
0.231476
0.231828
0.230729
0.231102
0.230012
0.230364
0.229339
0.229671
0.228725
0.229018
0.229254
0.229365
0.2294
0.22928
0.230225
0.230076
0.230471
0.230536
0.230461
0.230473
0.230829
0.230797
0.229568
0.229864
0.230381
0.230208
0.22701
0.227862
0.228563
0.229157
0.223016
0.223899
0.225909
0.224883
0.220886
0.221206
0.221662
0.222266
0.220214
0.220168
0.220178
0.220286
0.220634
0.220315
0.220074
0.21993
0.221474
0.220832
0.220378
0.225799
0.224468
0.221569
0.221866
0.223091
0.227156
0.227462
0.227212
0.226301
0.227041
0.224118
0.223385
0.225262
0.226295
0.225334
0.224337
0.222002
0.221865
0.222738
0.222231
0.22235
0.228871
0.222875
0.221862
0.221916
0.23299
0.232884
0.232542
0.231982
0.231487
0.231218
0.231155
0.2312
0.231305
0.231407
0.231408
0.231166
0.230625
0.230158
0.229891
0.229943
0.230511
0.231274
0.231885
0.232206
0.232439
0.232659
0.232859
0.232965
0.232977
0.232914
0.232775
0.232966
0.2326
0.232019
0.23235
0.231296
0.231643
0.230826
0.231027
0.230464
0.230648
0.230045
0.230265
0.229563
0.229805
0.230052
0.230004
0.230483
0.230196
0.230731
0.230639
0.230863
0.231005
0.230664
0.23079
0.231093
0.231164
0.229611
0.22995
0.230469
0.230231
0.226911
0.227813
0.228404
0.229044
0.222667
0.223557
0.225619
0.22456
0.220508
0.220851
0.22131
0.221914
0.219873
0.219863
0.219885
0.219996
0.220083
0.219875
0.219749
0.219694
0.220788
0.220261
0.219921
0.225122
0.223733
0.220909
0.221044
0.222307
0.226609
0.226945
0.226504
0.225584
0.226211
0.223609
0.22293
0.22439
0.22529
0.22433
0.223673
0.221886
0.221753
0.222442
0.222037
0.221976
0.229997
0.223004
0.221735
0.221729
0.232894
0.232538
0.231943
0.231384
0.231106
0.231026
0.231039
0.231094
0.231136
0.23109
0.230873
0.230564
0.230272
0.230082
0.230235
0.230888
0.231735
0.232354
0.232652
0.232806
0.232903
0.232968
0.232997
0.233
0.233001
0.232829
0.232977
0.232996
0.232667
0.232039
0.232407
0.231165
0.231601
0.230556
0.230806
0.230312
0.230403
0.23017
0.230243
0.230013
0.230088
0.231073
0.230875
0.231391
0.231351
0.231397
0.231163
0.231097
0.231459
0.231503
0.230693
0.230914
0.231174
0.231379
0.229538
0.229928
0.23042
0.230085
0.226662
0.227609
0.228008
0.22869
0.22221
0.223072
0.225121
0.224056
0.220191
0.2205
0.22093
0.221494
0.219678
0.219682
0.219716
0.219789
0.219732
0.219624
0.219571
0.219553
0.22024
0.219802
0.219577
0.22417
0.222468
0.220155
0.220077
0.220991
0.225569
0.225812
0.224959
0.224069
0.224968
0.222976
0.22254
0.223634
0.224174
0.223462
0.222925
0.22175
0.221662
0.22217
0.22188
0.221878
0.226738
0.222345
0.221628
0.221623
0.232566
0.231936
0.231339
0.231049
0.230965
0.230965
0.230986
0.230977
0.23091
0.230774
0.230585
0.230391
0.230288
0.230524
0.231192
0.232002
0.232572
0.232831
0.232939
0.232981
0.233
0.233006
0.233007
0.233007
0.233009
0.232939
0.233001
0.233006
0.232856
0.232436
0.232699
0.231651
0.232069
0.230974
0.231269
0.230685
0.230781
0.230661
0.230658
0.230748
0.230686
0.232318
0.232131
0.231796
0.231689
0.232231
0.23222
0.231491
0.23152
0.231846
0.231842
0.230544
0.230904
0.231123
0.231438
0.229231
0.229691
0.230117
0.229645
0.226185
0.227169
0.227298
0.22803
0.221605
0.222401
0.224355
0.223322
0.219912
0.220129
0.220481
0.220971
0.21955
0.219562
0.219596
0.219656
0.219461
0.219398
0.21936
0.219342
0.219692
0.219451
0.219328
0.222268
0.220893
0.2197
0.219887
0.220301
0.223657
0.224313
0.223295
0.222215
0.223713
0.222577
0.222254
0.22294
0.223165
0.222798
0.222584
0.221667
0.221582
0.221974
0.221723
0.221717
0.230923
0.222676
0.22152
0.221525
0.231968
0.23133
0.231038
0.230953
0.230941
0.230963
0.230963
0.230912
0.230801
0.230657
0.230535
0.230542
0.230845
0.231465
0.232191
0.232688
0.232907
0.23298
0.233002
0.233007
0.233008
0.233008
0.233009
0.23301
0.23301
0.233009
0.232991
0.233008
0.23297
0.232845
0.232926
0.232522
0.232711
0.232068
0.232292
0.231783
0.231891
0.231787
0.23176
0.231994
0.231858
0.232429
0.232704
0.232735
0.232781
0.232203
0.232216
0.232446
0.231656
0.23179
0.232162
0.232065
0.230125
0.230677
0.230879
0.231374
0.228621
0.229149
0.229509
0.228872
0.22541
0.226418
0.226222
0.227014
0.220829
0.221523
0.223296
0.22234
0.219742
0.219834
0.220023
0.220332
0.21934
0.219355
0.219388
0.219447
0.219244
0.219183
0.219129
0.219129
0.219474
0.219284
0.219033
0.221138
0.220786
0.219698
0.220029
0.220354
0.222273
0.222945
0.222374
0.221627
0.222857
0.222267
0.222022
0.222563
0.2227
0.222494
0.222397
0.221596
0.221429
0.221791
0.221635
0.2217
0.232555
0.223857
0.22144
0.221481
0.231362
0.231048
0.230962
0.230955
0.230991
0.231007
0.230972
0.230899
0.230814
0.23078
0.230883
0.231213
0.23176
0.232386
0.23277
0.232944
0.232997
0.233006
0.233009
0.233009
0.233009
0.23301
0.23301
0.23301
0.23301
0.23301
0.23301
0.23301
0.233006
0.23301
0.233002
0.232976
0.232993
0.232902
0.232947
0.23278
0.232843
0.232687
0.232724
0.232697
0.232682
0.232769
0.232729
0.232686
0.232798
0.232802
0.232932
0.232398
0.232436
0.23265
0.231703
0.231916
0.232301
0.232151
0.229451
0.230226
0.230467
0.231156
0.227667
0.228268
0.228625
0.227817
0.224309
0.225311
0.22479
0.225657
0.220119
0.220519
0.221955
0.221138
0.21956
0.219677
0.219764
0.219904
0.219134
0.219168
0.219214
0.219281
0.218999
0.218977
0.218957
0.218964
0.219492
0.219364
0.218795
0.221314
0.219564
0.219067
0.219227
0.219416
0.222106
0.222582
0.222344
0.221698
0.222621
0.222142
0.221881
0.222359
0.222463
0.222456
0.222128
0.22142
0.221362
0.221645
0.221437
0.221836
0.232586
0.224087
0.221389
0.221462
0.231109
0.230991
0.231024
0.2311
0.231162
0.231172
0.231152
0.231148
0.231188
0.231322
0.231622
0.232096
0.232567
0.232847
0.232968
0.233002
0.233008
0.23301
0.23301
0.23301
0.23301
0.23301
0.23301
0.23301
0.23301