/*--------------------------------*- C++ -*----------------------------------*\
  =========                 |
  \\      /  F ield         | OpenFOAM: The Open Source CFD Toolbox
   \\    /   O peration     | Website:  https://openfoam.org
    \\  /    A nd           | Version:  dev
     \\/     M anipulation  |
\*---------------------------------------------------------------------------*/
FoamFile
{
    version     2.0;
    format      ascii;
    class       volScalarField;
    location    "2500";
    object      omega;
}
// * * * * * * * * * * * * * * * * * * * * * * * * * * * * * * * * * * * * * //

dimensions      [0 0 -1 0 0 0 0];

internalField   nonuniform List<scalar> 
9836
(
1.24714
1.26595
1.21394
1.18478
1.36268
1.10421
1.08211
1.37517
1.30254
1.03414
1.03398
1.33741
1.3748
1.17258
1.01651
1.01108
1.24134
1.40019
1.30997
1.07849
1.01088
1.00052
1.12793
1.38704
1.37736
1.18079
1.03998
1.00645
0.991337
1.06151
1.34041
1.40232
1.29269
1.09023
1.02222
1.00355
0.985971
1.02172
1.24417
1.40315
1.36453
1.17044
1.04721
1.01111
1.00147
0.983077
0.998977
1.13935
1.38388
1.39373
1.26537
1.08771
1.02468
1.00445
0.99988
0.981833
0.98665
1.06712
1.33389
1.40555
1.34132
1.15176
1.04575
1.01016
1.00013
0.998538
0.982302
0.979682
1.02255
1.24533
1.40291
1.38187
1.23043
1.07868
1.02199
1.00147
0.995584
0.997751
0.98348
0.974406
0.996781
1.14352
1.38204
1.39871
1.30783
1.12814
1.04018
1.00564
0.995103
0.992609
0.99691
0.984856
0.970843
0.982759
1.06806
1.33193
1.40819
1.35969
1.19536
1.06576
1.01585
0.996045
0.988643
0.990472
0.996273
0.985983
0.968297
0.974588
1.02341
1.24649
1.40507
1.38989
1.26719
1.10499
1.03064
0.999547
0.988034
0.984611
0.988551
0.995752
0.986276
0.96692
0.96921
0.996925
1.14735
1.38445
1.40312
1.33004
1.16051
1.05062
1.00794
0.98887
0.980577
0.981337
0.986972
0.995293
0.986153
0.967157
0.965058
0.981335
1.07232
1.33675
1.41397
1.37049
1.22554
1.0812
1.0195
0.991786
0.979938
0.975663
0.978639
0.985676
0.994886
0.98608
0.96805
0.961427
0.971869
1.02674
1.2547
1.41172
1.39797
1.28885
1.12629
1.03518
0.998498
0.980636
0.971802
0.971588
0.976445
0.984521
0.994525
0.98637
0.969056
0.958775
0.965565
0.998835
1.15745
1.39243
1.41101
1.34391
1.18369
1.05879
1.00771
0.983014
0.971051
0.966206
0.968351
0.974531
0.983474
0.994209
0.987002
0.969363
0.957115
0.960951
0.982485
1.07996
1.3459
1.423
1.38102
1.24504
1.09511
1.01964
0.988434
0.971652
0.962849
0.96177
0.965601
0.972835
0.982546
0.993902
0.987709
0.968797
0.956126
0.957685
0.971962
1.03457
1.2669
1.4208
1.40825
1.30377
1.14376
1.03826
0.995427
0.973708
0.962027
0.957035
0.958044
0.963198
0.97135
0.981656
0.993607
0.98823
0.968042
0.956465
0.955103
0.964621
1.00586
1.17533
1.40236
1.42076
1.35642
1.20147
1.06603
1.00491
0.97807
0.96258
0.954113
0.952185
0.954846
0.961112
0.969945
0.980822
0.993336
0.988542
0.967706
0.956982
0.952197
0.95937
0.987507
1.09564
1.35898
1.43363
1.39207
1.25996
1.10695
1.01859
0.983411
0.964365
0.953167
0.948012
0.948089
0.9521
0.95924
0.968656
0.980037
0.993097
0.988745
0.967596
0.957063
0.949886
0.954744
0.975285
1.04888
1.28836
1.43254
1.41926
1.3163
1.1576
1.04016
0.990278
0.967633
0.953555
0.945436
0.942959
0.944625
0.949701
0.957587
0.967456
0.979316
0.992879
0.988881
0.967508
0.956918
0.94794
0.950978
0.966327
1.01829
1.2018
1.41781
1.43273
1.36749
1.21485
1.07179
1.00045
0.971294
0.954793
0.944534
0.939386
0.938742
0.941652
0.947646
0.956077
0.96639
0.978697
0.992752
0.988982
0.967334
0.956509
0.946271
0.947929
0.959343
0.99789
1.12177
1.38044
1.44675
1.40387
1.27032
1.11585
1.01574
0.975959
0.956797
0.944579
0.937306
0.934434
0.935202
0.939163
0.945886
0.954784
0.965489
0.978208
0.992606
0.989085
0.967151
0.955654
0.945283
0.944877
0.953675
0.983514
1.07144
1.3197
1.44897
1.43131
1.32636
1.16689
1.04017
0.982574
0.958833
0.94503
0.936256
0.931518
0.930394
0.932359
0.937135
0.944435
0.953723
0.964736
0.977974
0.992574
0.989169
0.967024
0.954363
0.944985
0.941738
0.949049
0.97267
1.03876
1.24238
1.43863
1.44765
1.37633
1.22309
1.07553
0.993117
0.961327
0.94576
0.935644
0.929688
0.92699
0.927256
0.930061
0.935509
0.943301
0.952922
0.964509
0.978306
0.992797
0.989202
0.966855
0.953043
0.944885
0.938602
0.944734
0.964378
1.01577
1.16899
1.41031
1.46128
1.41516
1.27677
1.12116
1.01092
0.965219
0.94624
0.93546
0.928336
0.924613
0.923554
0.924751
0.928325
0.934406
0.942703
0.952853
0.965199
0.979277
0.99334
0.989146
0.966559
0.95197
0.944446
0.935771
0.940516
0.957374
0.99959
1.10812
1.36167
1.46902
1.44269
1.33147
1.17228
1.03863
0.972058
0.946955
0.934735
0.927352
0.922765
0.920827
0.920913
0.922954
0.927286
0.934049
0.942883
0.953796
0.966946
0.981435
0.994352
0.989022
0.966114
0.951243
0.943505
0.933152
0.936629
0.950976
0.987867
1.0715
1.30343
1.46415
1.46343
1.38008
1.22523
1.07663
0.984402
0.948583
0.93392
0.925747
0.921073
0.918612
0.918095
0.91922
0.92203
0.927256
0.934686
0.944307
0.956471
0.970726
0.985664
0.995965
0.988864
0.965503
0.950946
0.942299
0.930676
0.933109
0.94538
0.978514
1.04635
1.237
1.44867
1.47621
1.42263
1.27722
1.1214
1.00519
0.952264
0.931925
0.923978
0.91903
0.916518
0.915661
0.916573
0.918631
0.922441
0.928423
0.93687
0.948196
0.961962
0.978091
0.993076
0.999727
0.988636
0.964862
0.95089
0.940997
0.928269
0.929625
0.940571
0.970931
1.02812
1.17759
1.41735
1.48724
1.45189
1.32768
1.17031
1.03482
0.959835
0.931988
0.920894
0.916548
0.914158
0.913325
0.914205
0.916289
0.919458
0.924293
0.931558
0.94214
0.955647
0.972449
0.990943
1.00447
1.0034
0.988342
0.964344
0.950875
0.939635
0.925749
0.926269
0.936297
0.964694
1.01559
1.13076
1.37449
1.49069
1.47395
1.37683
1.21917
1.07228
0.974153
0.933385
0.918359
0.913117
0.911085
0.910673
0.911764
0.914342
0.917518
0.922008
0.928527
0.93827
0.95205
0.969021
0.99104
1.01259
1.02534
1.00265
1.01467
0.987972
0.964001
0.951067
0.938104
0.923152
0.923233
0.932484
0.959272
1.00798
1.09882
1.32676
1.48505
1.48947
1.42028
1.26785
1.11446
0.996216
0.937421
0.915251
0.909038
0.907157
0.907233
0.908892
0.912113
0.915997
0.920777
0.927391
0.936712
0.950473
0.969492
0.993049
1.02137
1.04973
1.03748
1.06228
1.00453
1.02395
0.987499
0.963984
0.951498
0.936204
0.920481
0.920549
0.929341
0.9547
1.00321
1.07884
1.27933
1.47032
1.5002
1.4543
1.31417
1.15872
1.02528
0.94605
0.915311
0.904075
0.902173
0.902881
0.905161
0.909123
0.914009
0.919968
0.927318
0.937161
0.951246
0.971378
0.997901
1.03224
1.05463
1.0603
1.08276
1.07169
1.10028
1.05369
1.08473
1.00587
1.03234
0.986986
0.964434
0.952042
0.934123
0.917629
0.918111
0.926857
0.951698
1.00138
1.0659
1.23646
1.44591
1.50802
1.47689
1.36088
1.20364
1.05987
0.960915
0.91679
0.900063
0.896229
0.897296
0.900417
0.90508
0.911121
0.918549
0.927295
0.938325
0.953365
0.975043
1.00752
1.04823
1.06759
1.07987
1.08798
1.11361
1.12264
1.14006
1.07333
1.11551
1.00771
1.04431
0.986545
0.965419
0.952455
0.931664
0.914819
0.91587
0.924905
0.950133
1.00136
1.05852
1.20216
1.41733
1.50976
1.49459
1.40163
1.24741
1.0981
0.982131
0.920914
0.896676
0.890007
0.890625
0.894476
0.900045
0.906904
0.915997
0.926755
0.939229
0.956637
0.98173
1.01734
1.06909
1.09506
1.11439
1.10735
1.12814
1.14821
1.15457
1.16765
1.19055
1.09927
1.15375
1.00983
1.05953
0.986349
0.966943
0.952638
0.929026
0.912583
0.913896
0.923512
0.949641
1.00242
1.05498
1.17731
1.38775
1.50683
1.50621
1.4372
1.28849
1.13754
1.00881
0.929579
0.896706
0.883993
0.883264
0.887133
0.893441
0.901583
0.911646
0.924875
0.939301
0.958764
0.987722
1.03056
1.09168
1.13363
1.15656
1.15498
1.17916
1.17648
1.20744
1.20061
1.20391
1.23112
1.25395
1.13092
1.19964
1.01233
1.07846
0.986554
0.9688
0.952216
0.925451
0.910593
0.912952
0.923212
0.950589
1.00575
1.05536
1.16079
1.36019
1.49911
1.51221
1.46526
1.32606
1.17603
1.03919
0.943849
0.898179
0.879574
0.875605
0.878795
0.885364
0.894586
0.905812
0.92066
0.938253
0.959147
0.991374
1.04203
1.11535
1.17765
1.20987
1.21319
1.24846
1.24159
1.28429
1.23973
1.2865
1.27952
1.26405
1.31206
1.33381
1.16923
1.25377
1.01531
1.10164
0.98725
0.970544
0.950086
0.921076
0.909178
0.912379
0.925382
0.955077
1.01217
1.05792
1.15149
1.33659
1.48702
1.51671
1.48366
1.3625
1.21249
1.07181
0.962648
0.902193
0.876764
0.868616
0.870148
0.876177
0.88591
0.898135
0.913994
0.934394
0.95838
0.991835
1.04823
1.14376
1.24159
1.30023
1.31089
1.41196
1.35254
1.48963
1.35375
1.49638
1.34039
1.45036
1.38477
1.33765
1.4218
1.43964
1.21334
1.31757
1.01883
1.12807
0.988195
0.971728
0.946641
0.917307
0.908876
0.912976
0.92861
0.964052
1.02129
1.06419
1.14758
1.31816
1.4734
1.51809
1.49594
1.39546
1.24627
1.10484
0.98552
0.910848
0.876923
0.862696
0.861482
0.866601
0.875963
0.888384
0.905325
0.927142
0.954879
0.990721
1.04807
1.16341
1.35685
1.44461
1.58893
1.84105
1.76964
2.28266
1.81344
2.48407
1.71589
2.35802
1.55181
1.99896
1.6479
1.42807
1.71391
1.72821
1.26435
1.38117
1.02282
1.16059
0.989594
0.971882
0.942186
0.914469
0.909874
0.915861
0.934883
0.976171
1.03324
1.07522
1.14926
1.3045
1.45966
1.51701
1.50368
1.42235
1.27726
1.13644
1.01103
0.923304
0.878622
0.858847
0.853378
0.856732
0.865054
0.87761
0.894486
0.917378
0.94666
0.986458
1.04536
1.16381
1.50919
1.58296
2.16644
2.51644
3.01998
3.916
3.65537
5.19969
3.69777
5.81257
3.11538
5.38982
2.31204
4.00453
2.58557
1.67663
2.74079
2.72081
1.29695
1.5651
1.02754
1.17905
0.991197
0.970898
0.936987
0.913387
0.911979
0.921281
0.946505
0.992944
1.04747
1.08913
1.15464
1.29628
1.44704
1.51387
1.50766
1.44326
1.30451
1.16571
1.03731
0.938862
0.883027
0.857296
0.846754
0.84692
0.85397
0.866015
0.882232
0.905174
0.935137
0.976041
1.03775
1.15102
1.6186
1.61923
2.85134
3.12349
4.86864
5.75764
6.90288
8.54498
8.22919
10.6105
8.49825
11.5121
7.34035
11.1573
4.84704
9.24257
5.47201
2.51781
5.72159
5.47276
1.395
2.15113
1.03334
1.18791
0.992664
0.967791
0.931745
0.914161
0.915221
0.929673
0.964903
1.01383
1.06348
1.10438
1.16516
1.29267
1.43664
1.5086
1.5081
1.45786
1.32745
1.19154
1.06338
0.957045
0.89065
0.857858
0.84225
0.838633
0.843155
0.853484
0.869096
0.891306
0.921596
0.961848
1.02112
1.14052
1.59734
1.40973
3.33069
3.38188
6.54379
7.12963
10.028
11.244
12.5754
14.0541
13.7618
15.1586
13.845
15.3341
13.0132
14.9405
10.61
13.875
11.3383
4.83971
11.4015
10.7987
1.71895
3.84048
1.02859
1.31311
0.993426
0.964453
0.929389
0.917418
0.921415
0.943019
0.987077
1.03433
1.08008
1.1198
1.17794
1.29394
1.42859
1.50279
1.50663
1.46616
1.34637
1.21363
1.08773
0.976611
0.900093
0.859872
0.840203
0.832261
0.832875
0.840947
0.85531
0.876261
0.906458
0.946559
1.00247
1.11163
2.07206
3.30742
3.41432
7.57404
7.77916
12.1674
12.8334
15.0669
15.751
16.0491
16.648
16.2075
16.7816
15.971
16.6066
15.3836
16.1993
14.2293
15.5062
14.2789
9.46371
14.0751
13.6246
2.71099
7.26985
1.0506
1.73586
0.995063
0.962982
0.930343
0.923263
0.931453
0.963253
1.00963
1.05308
1.09566
1.13451
1.19143
1.2976
1.42344
1.49679
1.50313
1.47026
1.36156
1.23193
1.10911
0.996258
0.911469
0.864253
0.840235
0.827839
0.825325
0.830091
0.842016
0.860759
0.890075
0.92955
0.981758
1.07086
1.67749
7.05946
6.43275
7.74326
7.55169
13.2535
13.5066
16.2213
16.5401
17.0552
17.3393
17.1768
17.4628
17.053
17.3642
16.7377
17.142
16.2302
16.7662
15.4866
16.1693
15.3613
12.8349
15.1416
14.838
4.7234
11.3525
1.14391
2.7805
1.00143
0.965347
0.934412
0.930765
0.94521
0.985591
1.02747
1.06818
1.10871
1.14802
1.20498
1.30445
1.42097
1.49134
1.49841
1.47042
1.372
1.24626
1.12723
1.01477
0.924436
0.869608
0.841181
0.82623
0.819553
0.821123
0.830092
0.845916
0.871983
0.909244
0.960554
1.03787
1.33827
5.5342
4.67276
12.9452
12.4436
13.4769
13.3178
16.7442
16.88
17.5351
17.6595
17.6476
17.7668
17.6051
17.8093
17.5378
17.9947
17.3477
18.0521
16.8433
17.7563
16.1023
16.994
16.0243
14.345
15.8969
15.6876
8.34267
13.3977
1.38141
4.56077
1.05186
0.977968
0.940699
0.940573
0.963773
1.00611
1.04144
1.07854
1.11863
1.1597
1.21861
1.31337
1.42177
1.48762
1.49334
1.4687
1.37787
1.25665
1.14227
1.03154
0.93758
0.875374
0.843632
0.82683
0.818582
0.816427
0.821052
0.832909
0.85474
0.889982
0.940296
1.00563
1.24922
3.97547
2.69126
11.5617
10.5924
16.6734
16.4363
16.8817
16.8272
17.7422
17.8003
17.8203
17.8216
17.957
18.0817
18.4893
18.9751
18.981
20.0339
19.0111
20.4863
18.3402
20.1912
17.152
18.9066
17.2464
15.3732
17.2069
17.0465
11.7646
14.955
1.9593
8.0688
1.14414
1.02921
0.949929
0.952512
0.984013
1.02129
1.05097
1.08515
1.12512
1.16959
1.23167
1.32434
1.42466
1.48667
1.48921
1.46468
1.37988
1.2635
1.15419
1.04682
0.950274
0.882518
0.847217
0.828927
0.819623
0.81649
0.817968
0.825673
0.843096
0.873826
0.917045
0.974453
1.14134
4.04679
8.98261
8.01467
15.9919
15.5528
17.7797
17.705
17.8166
17.812
17.8086
17.7793
18.0989
18.0679
19.3805
19.684
20.9887
21.8236
22.1554
23.624
22.3379
24.4697
21.3728
24.075
19.3746
22.3269
19.6068
16.8016
19.5599
19.2589
14.0924
16.566
3.34469
12.2284
1.15941
0.976515
0.965204
1.00216
1.03267
1.05776
1.08895
1.12897
1.17726
1.24475
1.33636
1.43086
1.48741
1.48716
1.46021
1.37876
1.26754
1.16375
1.06071
0.962865
0.889966
0.85061
0.831418
0.822734
0.8191
0.819179
0.825453
0.840302
0.865551
0.901251
0.954929
1.08695
2.58263
12.2658
10.5924
14.7193
13.9821
17.5429
17.3532
17.6708
17.6512
17.7213
17.6888
17.9864
17.8374
19.7856
19.7446
22.4159
22.7378
24.6229
25.1231
25.9929
26.5889
26.3792
27.5137
25.4997
27.7898
22.974
26.5347
23.2594
18.8455
23.0991
22.5283
16.5739
18.6353
6.82153
17.1388
1.08139
0.990565
1.01906
1.04277
1.06415
1.09125
1.13129
1.18375
1.25658
1.35009
1.44022
1.49096
1.48711
1.45678
1.37586
1.27009
1.17258
1.07517
0.976521
0.896502
0.853102
0.834671
0.829861
0.826182
0.825781
0.830318
0.842814
0.86636
0.901415
0.954114
1.07417
2.14722
8.63051
6.43334
16.0423
15.4349
17.014
16.6889
17.6076
17.5464
17.2311
17.1901
17.5707
17.3344
19.6104
19.3164
22.7543
22.642
25.169
25.0478
26.7137
26.5896
27.8683
27.8251
28.6723
28.8605
28.8254
29.6738
27.1858
29.6187
27.383
21.7337
27.1775
26.862
24.194
19.5941
21.3322
13.7994
25.3434
1.08292
1.04357
1.05966
1.06956
1.0945
1.13336
1.18959
1.26831
1.36395
1.45233
1.49961
1.48947
1.45529
1.37264
1.27216
1.18137
1.09042
0.990543
0.906489
0.856914
0.838926
0.838271
0.840934
0.844894
0.848958
0.860191
0.884915
0.922391
0.97416
1.09355
1.9937
8.07591
13.9832
14.0606
16.9698
16.7077
17.4148
17.2642
17.149
17.1375
17.8886
17.4371
18.902
18.4006
22.3756
21.9293
24.7725
24.3771
26.3177
25.9589
27.6087
27.2553
28.7266
28.4952
29.7339
29.6132
30.512
30.712
30.2041
31.1959
30.6073
28.9407
30.5586
26.332
23.232
25.8616
28.7968
30.7641
30.6052
28.6907
23.6671
25.1888
24.6863
23.193
24.7523
42.3753
1.14058
1.07922
1.0853
1.09821
1.13699
1.19579
1.27967
1.37901
1.46662
1.51185
1.49692
1.4562
1.37151
1.27518
1.19076
1.10919
1.01469
0.927919
0.865403
0.84581
0.846691
0.856559
0.870499
0.887828
0.9172
0.965937
1.02317
1.07916
1.21113
2.04924
6.61789
15.0153
13.7039
16.1348
15.7725
16.857
16.6662
17.107
17.0332
17.0601
16.752
19.887
18.9835
21.3492
20.6695
23.9308
23.4382
25.5238
25.0146
26.8946
26.4989
28.263
28.0589
29.4843
29.4235
30.3959
30.4095
30.2959
30.286
31.2809
31.4962
31.0154
31.4173
31.4074
31.6414
31.2439
31.9978
31.8115
31.56
28.3001
27.7582
30.5764
31.8885
31.7443
30.431
24.5907
28.9232
25.6001
27.0738
26.3584
50.9108
29.5893
38.7474
59.4009
1.16613
1.10209
1.11079
1.14132
1.20352
1.29182
1.39357
1.48352
1.52776
1.51015
1.46174
1.37349
1.28156
1.20786
1.14112
1.05735
0.961543
0.88708
0.859856
0.858415
0.873641
0.901279
0.954605
1.08128
1.30173
1.47943
1.55456
1.67603
2.44783
6.50887
13.5641
15.5303
15.4382
16.3238
16.0748
16.2675
16.1891
16.5131
16.3679
18.075
17.3287
21.7117
20.977
22.9114
22.3481
24.4496
23.8759
25.9866
25.3493
27.8172
27.4308
29.4304
29.4587
30.2198
30.2502
30.2779
30.411
30.7986
30.675
30.5879
31.9363
31.9398
31.2135
31.5435
31.8179
32.2262
32.2053
32.6267
32.4165
32.4835
30.1475
29.6722
31.9488
32.721
32.9383
31.9231
25.8084
26.3605
28.9889
28.0696
56.7348
29.7812
58.7287
29.1612
36.9541
1.17864
1.12752
1.15231
1.21252
1.30411
1.40988
1.50133
1.5475
1.52875
1.47468
1.38208
1.2963
1.24153
1.19305
1.11367
1.01809
0.939436
0.894996
0.885812
0.907497
0.959123
1.10941
1.61524
2.48169
3.17059
3.34037
3.25278
3.80763
6.99522
12.4671
14.6423
14.2473
15.4175
15.1738
16.0145
15.8223
15.9775
15.7014
16.7484
16.326
20.1171
19.1175
22.3412
21.8556
23.3251
22.8156
24.6425
23.9304
26.8033
25.9306
29.3537
28.96
30.5575
30.7705
30.9705
31.1324
30.5991
30.6832
30.8957
31.1754
31.0128
30.874
30.8604
32.4438
32.2728
31.2823
31.5512
31.9404
32.8496
32.9785
33.273
32.907
33.2881
31.7662
31.4082
33.0895
33.5599
33.8103
33.1705
27.1105
26.9167
30.7576
29.781
49.8811
19.7405
40.3667
29.1518
36.3061
1.19392
1.1695
1.22474
1.31841
1.42645
1.5209
1.57067
1.55286
1.49357
1.39936
1.32236
1.28966
1.25408
1.20082
1.12918
1.05587
0.995016
0.973694
0.998752
1.09336
1.49614
3.01159
5.48918
7.1142
7.37211
6.97643
7.12223
8.81461
12.2769
13.4626
14.2818
13.9744
14.9188
14.6383
15.4288
15.2033
16.422
15.9014
18.0532
17.1092
21.312
20.6473
22.2561
21.878
23.274
22.7137
24.9181
23.9
28.1761
26.9186
31.1926
31.1194
30.9465
30.5603
31.5421
31.9307
32.3201
32.638
31.0139
31.3215
31.7699
32.3083
31.1046
31.0861
31.2875
32.7341
32.3351
31.3105
31.5051
31.844
33.3438
33.634
33.7401
33.1739
33.9505
33.1411
32.8989
34.0292
34.2324
34.4977
34.216
28.6044
28.0929
32.3428
31.4539
40.0018
23.4146
32.9523
30.4546
34.1502
1.22777
1.24353
1.33177
1.44434
1.54347
1.59586
1.58371
1.51866
1.42515
1.35968
1.34913
1.36115
1.38065
1.38661
1.36397
1.30822
1.26724
1.27977
1.43846
2.30119
5.20985
8.70233
10.2215
10.38
10.1406
10.165
10.9595
12.4264
12.9085
13.7364
13.4116
14.1972
13.911
14.8094
14.5024
15.4795
15.1462
17.9254
17.0059
19.8704
18.9091
21.5249
21.1548
21.7624
21.4124
22.9951
22.2792
25.4096
23.9152
30.3116
28.5033
32.7901
32.7978
32.6101
32.1268
32.9088
33.5103
34.0637
34.5073
31.7243
32.3334
33.0728
33.8871
31.2875
31.5309
32.0872
32.7317
32.1458
31.4603
31.6164
31.6985
33.6052
34.0865
33.989
33.1262
34.3982
34.3073
34.1951
34.7691
34.6834
34.9854
35.0513
30.4359
30.0826
33.7787
33.1223
34.4515
21.8096
30.0841
31.5323
33.1523
1.30023
1.35302
1.46002
1.56619
1.6267
1.61772
1.55277
1.4637
1.41881
1.46718
1.60508
1.84392
2.10202
2.2626
2.28451
2.18059
2.10251
2.28517
3.70028
7.42967
10.7211
11.8009
11.9384
11.8902
11.9127
12.1792
12.572
12.7352
14.1514
14.4828
14.734
14.6854
14.495
15.3025
14.9707
16.2692
15.7369
19.5201
18.8238
20.7214
20.1647
21.1804
20.9865
21.0035
20.6239
22.6162
21.6514
26.2504
24.107
33.3301
32.1291
29.4132
31.0138
34.7259
34.7537
34.5789
34.0867
34.716
35.4995
36.1762
36.6932
32.8648
33.8062
34.8421
35.903
31.7358
32.4018
33.3539
32.479
31.9106
31.9033
32.0603
31.7888
33.527
34.3428
33.9138
32.8453
34.6694
35.2999
35.3744
35.3283
34.9933
35.3611
35.7482
32.51
32.336
35.1588
34.8371
32.5922
21.6929
30.1384
32.7912
33.2611
1.41191
1.4872
1.58457
1.66037
1.65751
1.59692
1.51618
1.52631
1.72937
2.22505
3.07991
4.02593
4.5581
4.65903
4.46549
4.20486
4.27603
5.68179
9.18433
11.7135
12.4288
12.5075
12.2765
12.2103
12.3182
12.5152
12.8074
14.4903
16.8251
16.9355
16.3808
16.5749
16.3457
16.3172
16.9243
16.5657
18.0915
17.4383
20.1992
19.8362
20.7663
20.5018
20.4448
20.3929
20.1039
19.6277
22.3365
20.954
28.0987
26.3961
24.6261
35.0893
33.8332
30.6809
32.3136
36.9157
36.9275
36.672
36.0396
36.9222
37.8389
38.5867
39.1392
34.5053
35.7721
37.0686
38.3259
32.6741
33.8049
35.1883
32.1543
31.9797
32.9155
33.1327
32.2166
33.2374
34.2922
33.6376
32.4583
34.6764
36.188
36.516
35.8347
35.0965
35.6328
36.4196
34.6373
34.4736
36.5801
36.63
32.8354
23.3219
32.3636
34.3731
34.1904
1.5517
1.62007
1.68436
1.70726
1.64283
1.5887
1.67158
2.21055
3.36714
4.99006
6.20404
6.65927
6.66428
6.47046
6.23703
6.26374
7.40013
10.1983
12.1889
12.6243
12.4569
12.1302
12.0765
12.1469
12.5359
13.1272
15.0206
17.9794
18.3919
18.6119
18.2319
18.3129
18.2551
18.2106
18.674
18.42
19.4167
19.01
20.1866
20.064
20.3703
20.3018
19.4482
19.4586
19.241
18.5471
22.2144
20.4862
28.9715
27.3346
26.3137
24.4364
37.0922
35.5912
31.8821
33.8145
39.3549
39.3465
39.0009
38.2361
39.477
40.4893
41.3175
41.8855
36.7055
38.2617
39.7676
41.1645
34.2369
35.8692
37.6733
32.2138
32.3509
34.6548
35.0432
33.3304
32.8116
34.0577
33.2279
32.4694
34.5159
37.0794
37.713
36.3507
35.0988
35.8955
37.176
36.7321
36.5218
38.118
38.5927
34.3158
17.5618
38.4194
36.0828
35.7106
1.69858
1.72842
1.74658
1.70906
1.65337
1.87921
2.77095
4.61404
6.586
7.65293
7.94623
7.91903
7.75961
7.58439
7.63825
8.52126
10.7327
12.2058
12.5567
12.1529
11.7649
11.7809
12.1593
12.8011
13.8774
15.9073
17.9655
19.1812
18.9898
19.3169
19.2898
19.2976
19.307
19.3333
19.2973
19.5625
19.4255
19.9104
19.732
19.8166
19.8741
19.5586
19.6986
18.2781
18.2657
18.7953
17.7119
23.1941
21.7416
20.3354
29.9233
28.0413
26.9535
25.2089
39.2583
37.5406
33.3183
35.5219
42.0678
42.0153
41.5243
40.6018
42.4366
43.5361
44.3922
44.9128
39.5152
41.3065
42.9567
44.4733
36.5664
38.6802
40.8542
32.5466
33.487
37.2641
37.9358
35.3814
32.7798
33.7344
33.1925
32.7827
34.3864
38.115
39.0834
36.9297
35.194
36.3147
38.1218
38.7769
38.551
40.0121
40.675
38.1609
16.0139
50.6292
37.8794
37.542
1.82642
1.79795
1.77302
1.75043
2.04956
3.4171
5.71755
7.73492
8.50633
8.70309
8.66509
8.53412
8.4216
8.50919
9.23446
10.9054
12.0874
12.2872
11.6356
11.4415
11.6624
12.37
13.5288
14.9295
16.4365
17.8025
18.6241
19.3591
18.956
19.6638
19.5646
19.7227
19.7054
19.7555
19.7318
19.8296
19.7929
19.8761
19.859
18.9531
19.209
18.4232
18.6718
17.0944
16.902
19.2227
18.2388
17.3549
23.6292
22.289
20.0755
21.4284
31.0725
28.922
28.0471
26.0854
41.6249
39.6905
35.0488
37.4567
45.0369
44.9161
44.2752
43.1753
45.8322
46.953
47.7931
48.2175
42.9591
44.9155
46.6494
48.2633
39.7381
42.2655
44.7346
33.635
35.6084
40.7991
41.836
38.5
33.1016
33.7522
33.5719
33.7778
34.5052
39.4022
41.0023
37.7524
35.5936
37.1145
39.3838
40.9591
40.6192
42.2437
43.2007
44.5016
33.1269
48.6754
39.5028
39.4262
1.91403
1.82995
1.84097
2.2648
3.87474
6.64631
8.43148
9.02273
9.16217
9.1136
9.00402
8.93899
9.06589
9.72699
10.8294
11.746
11.7615
11.1538
11.178
11.6264
12.9156
14.2422
15.3569
16.4148
17.3389
17.3512
16.5358
15.7027
18.7973
18.0986
19.4056
19.1673
19.5716
19.5249
19.5943
19.5856
19.575
19.5973
19.3964
19.5131
17.5123
17.849
16.9563
17.1984
16.3791
15.7672
19.5263
18.5574
17.8779
16.9695
24.3315
22.7895
20.7174
22.0887
32.6126
30.2461
29.7103
27.5484
44.2523
42.1191
37.1001
39.6921
48.2932
48.032
47.2539
45.9897
49.634
50.7315
51.51
51.8102
47.0182
49.0586
50.8867
52.5203
43.7736
46.6428
49.3359
35.6707
38.7419
45.3127
46.7347
42.5711
34.0878
34.2671
34.6608
35.7134
35.2934
41.5334
43.5517
39.1457
36.8319
39.0225
41.8
43.4198
42.4967
45.4058
46.285
41.9431
36.7926
45.5872
40.3199
38.8159
1.95812
1.89987
2.37239
4.3128
7.2395
8.86714
9.31459
9.39501
9.35471
9.25388
9.20719
9.35361
9.79541
10.5963
11.212
11.0492
10.6857
10.8712
11.6305
12.9531
14.1621
15.2267
16.0449
16.289
14.2406
9.23924
11.1313
8.82069
15.645
13.6652
17.8714
16.9881
18.5777
18.3556
18.6738
18.6606
18.5589
18.6402
18.1657
18.4085
15.5205
15.7494
15.4616
15.4047
16.4416
15.816
15.2956
20.0555
18.8498
18.0955
17.1693
25.5318
23.7223
21.5581
23.3375
34.5094
32.0267
31.9892
29.7607
47.2429
44.9583
39.6454
42.384
51.8306
51.4501
50.5211
49.1181
53.8683
54.9158
55.5786
55.7839
51.7373
53.8307
55.7164
57.323
48.7288
51.8841
54.7576
38.8724
43.0558
50.8443
52.8421
47.8756
36.1895
35.5264
36.7472
39.1762
36.955
44.7539
47.7465
42.2199
39.423
43.5136
46.2753
45.6409
43.6602
49.3792
48.839
38.3769
60.2577
61.1328
40.4757
37.4864
2.01215
2.47094
4.47538
7.68068
9.1009
9.46485
9.51515
9.43726
9.30046
9.22292
9.32719
9.67499
10.1693
10.4817
10.359
10.3504
10.5348
11.4747
12.578
13.6723
14.4646
14.6927
13.3713
9.90091
6.17671
4.53456
6.67607
5.58899
9.7264
8.08131
13.0134
11.4077
15.1463
14.2774
16.1074
15.7423
16.2715
16.2644
15.9864
16.1725
13.9947
13.745
14.7375
14.3188
16.4393
15.8698
14.8665
15.2942
20.9708
19.3467
18.5221
17.3006
27.5467
25.3999
23.0658
25.4793
36.9255
34.3606
35.0259
32.7998
50.7124
48.3492
42.8699
45.6991
55.7527
55.2025
54.1634
52.6738
58.6306
59.6115
60.1058
60.2468
57.241
59.4235
61.3334
62.9154
54.7062
58.1768
61.3004
43.3639
48.5236
57.5802
60.047
54.2496
39.2404
37.9735
40.1426
43.1796
40.5168
50.5035
52.7565
48.7142
45.9208
51.9229
53.9603
47.0936
44.5005
52.146
50.7127
39.2628
64.0741
78.5108
41.0017
37.537
2.46782
4.62256
7.83381
9.24126
9.51588
9.52248
9.39062
9.2074
9.09583
9.14329
9.33533
9.59588
9.82506
9.92259
9.98737
10.4492
11.2191
11.9252
12.4266
12.2482
10.9013
8.53263
6.18265
4.27751
3.69144
4.43391
5.0605
3.95142
5.89341
7.68239
6.75287
9.53077
8.60446
11.3425
10.4795
12.5562
12.0383
13.1877
12.9255
13.5552
13.3848
13.8847
13.576
14.5753
14.2063
16.4133
15.7684
14.783
15.085
22.6628
20.2936
19.3919
17.6128
30.4664
28.0668
25.6569
28.7689
40.061
37.4487
39.0128
36.8343
54.8272
52.4708
47.0079
49.8429
60.1588
59.4551
58.3272
56.7896
64.1711
65.0293
65.377
65.4717
63.964
66.3003
68.2716
69.8589
61.9516
65.9952
69.7434
48.7349
55.8099
65.6681
72.0979
63.7512
44.1322
42.9223
47.2576
50.5216
49.7943
56.5362
55.8829
57.9514
55.9405
62.8526
60.9827
48.7564
46.2176
55.218
53.9107
41.7493
42.5882
65.1357
41.9828
38.7223
4.47742
7.93583
9.26048
9.52776
9.46705
9.21294
8.88641
8.70983
8.75457
8.93722
9.15699
9.38136
9.58424
9.90164
10.5096
11.087
11.3818
10.8099
9.05922
6.69155
5.09145
3.90658
3.27977
3.15272
3.35025
4.99209
4.18076
3.73984
5.78641
7.52852
6.64447
9.05142
8.33179
10.3648
9.71616
11.5798
11.0031
12.4944
12.0692
13.2475
12.8825
13.6876
13.591
14.0142
13.7711
13.6244
16.4093
15.595
14.2174
14.6761
25.4575
22.0515
21.0548
18.358
34.4157
31.8434
29.4198
33.2301
44.1417
41.5182
44.1478
41.9924
59.7645
57.4933
52.2975
55.0007
65.2245
64.4205
63.2229
61.6579
71.0421
71.6972
71.9587
71.9656
72.907
75.5433
77.6621
79.3103
71.1535
76.629
81.842
59.7725
71.5698
80.4294
98.0405
84.3722
54.6754
55.7737
65.1614
66.2604
61.6402
60.9187
61.833
66.7195
70.0858
75.0428
67.4584
51.5451
47.5128
60.9068
57.9552
41.3784
68.3782
68.266
44.2697
40.2886
7.76989
9.27534
9.48446
9.34913
8.85408
8.45113
8.35371
8.45862
8.64889
8.89736
9.23553
9.5808
10.028
10.7193
11.0899
10.9825
9.5335
6.73319
4.32445
3.31109
2.86386
2.75027
2.79077
2.92127
2.99329
4.73663
3.83121
3.50731
5.45068
7.28636
6.32999
9.00491
8.20067
10.384
9.7157
11.6852
11.0667
12.6838
12.2176
13.4076
13.0963
11.3486
11.6855
13.4217
13.3998
11.5547
11.8645
16.6047
15.4367
13.6944
14.4615
29.298
24.8033
23.5548
19.8285
39.4554
36.7686
34.2264
38.6795
49.4057
46.8227
50.6612
48.378
65.7409
63.6066
58.9489
61.3031
71.4289
70.5344
69.2039
67.5171
80.4348
81.0031
81.1997
80.7957
86.2669
89.7265
92.3872
94.2408
88.2364
96.2575
106.041
82.4564
105.558
115.15
165.952
130.646
79.6847
71.2513
87.7407
103.782
81.8671
71.8752
70.2921
76.6086
87.5721
90.4264
86.9189
53.3206
50.2342
66.025
60.5827
43.0429
90.5415
96.8836
46.1779
42.3228
9.16802
9.45069
9.12587
8.54152
8.13258
8.11585
8.24427
8.51146
8.90991
9.3111
9.7417
10.4122
10.9218
11.0869
10.5239
8.48176
5.09867
3.20778
2.54684
2.40128
2.42527
2.52254
2.59548
2.64678
2.65388
3.18205
4.26721
3.48125
4.8328
6.37023
5.53089
8.16695
7.27728
9.71199
8.98055
10.9248
10.3662
11.7259
11.3692
11.8893
11.9628
11.0581
9.60087
9.19173
8.89753
12.628
12.0833
11.161
17.2982
15.5775
13.4384
14.6365
33.7808
28.303
26.4638
21.9236
45.5192
42.6593
39.5631
44.6676
56.0717
53.6325
58.7683
56.1645
73.0207
71.1025
67.0127
68.8037
79.7496
78.4864
76.9213
74.8128
95.4387
96.0635
96.2561
94.6841
112.586
118.025
120.904
123.161
134.88
165.806
205.089
148.328
199.115
205.92
225.035
201.316
116.428
101.878
144.426
159.845
108.733
81.4723
75.8982
109.636
116.282
151.516
95.204
57.1942
52.2016
70.0781
66.8688
48.4169
118.354
90.8323
49.4465
45.2371
9.30411
9.01276
8.22127
7.81948
7.93004
8.10417
8.49024
9.04664
9.62473
10.1809
10.6606
10.9937
10.999
9.99637
7.46189
4.09139
2.64275
2.19929
2.15078
2.20211
2.28908
2.3306
2.37263
2.37558
2.58189
2.99611
2.80102
2.43573
3.78482
3.1935
4.17661
5.19955
4.64576
6.48502
5.82669
7.70961
7.12432
8.61431
8.21324
8.88033
8.87616
8.655
8.78934
10.1023
9.42562
9.08369
8.42732
12.4621
11.5958
10.7316
18.6044
16.2577
13.7821
15.4662
38.2372
31.8964
29.1879
24.2207
52.6418
49.2867
44.8898
50.9731
64.1778
62.0587
68.4398
65.4574
82.0559
80.4128
76.3927
77.6988
92.4062
89.3279
87.4796
84.6876
124.356
125.103
125.134
121.267
202.917
208.449
209.34
203.697
207.485
216.275
448.702
208.095
483.699
481.12
475.423
494.138
194.813
150.588
198.935
210.69
158.707
89.0017
83.1857
117.67
188.672
133.582
111.77
59.978
56.4726
81.6051
71.2182
48.5071
48.4545
115.555
51.8364
47.0798
8.75018
8.04985
7.47635
7.62151
7.9823
8.47678
9.10122
9.69266
10.1998
10.6367
10.8932
10.6407
9.27808
6.1671
3.42398
2.3074
2.00816
1.97867
2.03151
2.08256
2.11198
2.14438
2.14629
2.1898
2.69335
2.45364
3.01236
2.31619
3.42456
3.69918
4.35802
4.00917
5.1404
4.73834
5.9129
5.54215
6.54102
6.24918
6.90837
6.7484
7.5829
7.13832
10.0707
9.7369
9.01304
9.52708
9.5112
8.53405
13.0727
11.6801
11.1805
20.406
17.5169
14.8435
16.7969
42.2735
35.007
31.3045
26.2869
61
56.6863
50.1598
57.813
73.599
71.8862
79.2909
76.1994
94.4296
92.2232
86.9244
88.4472
116.004
107.331
102.211
99.8812
201.885
190.813
188.459
176.064
452.968
434.009
441.472
432.548
491.537
436.618
841.36
476.052
904.496
889.488
874.199
908.942
477.804
209.949
470.444
479.959
212.274
104.748
107.861
157.599
489.208
244.033
481.703
153.807
66.5305
58.9643
88.6366
82.5522
50.2658
217.478
157.292
54.7959
48.0363
7.69718
7.15847
7.19658
7.63355
8.23734
8.87187
9.47172
9.98469
10.3658
10.4404
9.83185
7.78462
4.76804
2.87253
2.08223
1.87971
1.84834
1.88957
1.90665
1.93269
1.95291
1.961
1.99266
2.04646
2.86323
2.60132
2.35154
3.19521
2.25036
3.41102
3.90058
3.6461
4.48875
4.18475
5.11965
4.80208
5.77371
5.44491
6.43696
6.08184
7.84795
6.90072
10.9109
10.6951
10.7997
10.3704
9.29416
14.3553
12.6165
12.3865
22.2803
19.1296
16.3428
18.3985
45.9307
37.3535
32.7161
27.9469
70.8084
65.2479
55.6897
65.7303
84.0325
82.6238
90.1738
87.4976
114.13
109.499
99.34
101.785
168.704
152.395
126.757
125.65
434.527
425.772
427.811
426.252
850.34
806.106
819.102
807.786
907.416
807.823
2472.28
886.162
2522.96
2512.31
2478.45
2501.24
904.825
473.608
896.519