/*--------------------------------*- C++ -*----------------------------------*\
  =========                 |
  \\      /  F ield         | OpenFOAM: The Open Source CFD Toolbox
   \\    /   O peration     | Website:  https://openfoam.org
    \\  /    A nd           | Version:  dev
     \\/     M anipulation  |
\*---------------------------------------------------------------------------*/
FoamFile
{
    version     2.0;
    format      ascii;
    class       volScalarField;
    location    "2500";
    object      p_rgh;
}
// * * * * * * * * * * * * * * * * * * * * * * * * * * * * * * * * * * * * * //

dimensions      [1 -1 -2 0 0 0 0];

internalField   nonuniform List<scalar> 
9836
(
0.00450849
0.0059397
0.00497178
0.00604718
0.00905275
0.00452195
0.00516264
0.0102977
0.00858851
0.00367819
0.00512294
0.0111904
0.0115748
0.00765951
0.00267755
0.00457382
0.010447
0.0133093
0.0112375
0.00645117
0.00209449
0.00429932
0.00945972
0.0133887
0.0135398
0.0100461
0.00526357
0.00173252
0.00393871
0.00825695
0.0134198
0.0149527
0.0124981
0.00873507
0.00450128
0.00105967
0.003508
0.00788789
0.0130243
0.0157203
0.015106
0.0114552
0.0072983
0.00362811
0.000586392
0.00292213
0.00681609
0.0119143
0.0155773
0.0162495
0.0140235
0.00986906
0.00622616
0.00301771
0.000155961
0.00286603
0.00656594
0.0107195
0.0147022
0.0170818
0.0156805
0.0128302
0.00845739
0.00509521
0.00241618
-0.000193002
0.00257959
0.00587364
0.00924604
0.0143763
0.0172686
0.0173348
0.0148597
0.0107705
0.00760334
0.00438943
0.00182121
-0.000661321
0.00225303
0.00502177
0.0088154
0.013514
0.0164317
0.0179345
0.0163145
0.0132022
0.00963633
0.00633405
0.00362119
0.00130172
-0.000987838
0.00196843
0.0048981
0.00819906
0.0120961
0.0159245
0.0182674
0.0178267
0.0152135
0.0118156
0.00828429
0.00565036
0.00313791
0.000817345
-0.00147059
0.00184798
0.00452635
0.00723282
0.0106933
0.0149384
0.0177044
0.0189309
0.0169069
0.013828
0.0100375
0.00737165
0.00483078
0.00245255
0.000391783
-0.00178168
0.00146983
0.00378456
0.00678638
0.00991334
0.0135078
0.0171627
0.0190786
0.0184156
0.0157174
0.0122008
0.00910443
0.00655802
0.00425243
0.00203997
-0.000113562
-0.00221697
0.00126171
0.00369073
0.00621125
0.00904536
0.0126273
0.016643
0.0187784
0.0191504
0.0173548
0.0142977
0.0107274
0.00797291
0.00581029
0.00359169
0.00149973
-0.0004764
-0.00243698
0.00103158
0.00331389
0.00525789
0.00832997
0.0107985
0.0153265
0.0183411
0.0194304
0.0186748
0.0160588
0.0126478
0.00974198
0.00720183
0.00516766
0.00307929
0.00108026
-0.000859294
-0.00277049
0.000899277
0.00290157
0.00495847
0.00703804
0.0102349
0.014117
0.0175957
0.0193343
0.0191785
0.0174065
0.0140085
0.0112903
0.00882466
0.00655501
0.00454035
0.00255904
0.000653551
-0.00124438
-0.00314593
0.000726658
0.00237983
0.00432844
0.00642496
0.00981114
0.0124188
0.0167299
0.0189731
0.0196514
0.0184887
0.0160173
0.012633
0.010126
0.00786346
0.00589179
0.00393685
0.00197071
0.000202976
-0.00157098
-0.00331896
0.000480781
0.00219586
0.00385942
0.00620322
0.00893356
0.0112621
0.0157389
0.0184861
0.0196201
0.0191102
0.0172764
0.0146036
0.0115833
0.00916783
0.00716534
0.00528179
0.00350991
0.0016918
-4.63325e-05
-0.00186123
-0.00355142
0.000180114
0.00179781
0.003534
0.00541438
0.00784158
0.0107029
0.0145963
0.0176442
0.0194201
0.0196435
0.0182581
0.0159405
0.0128516
0.0104469
0.00837833
0.00653436
0.00474814
0.00294911
0.00132102
-0.000375139
-0.00211367
-0.00379739
6.99909e-05
0.00151119
0.00315778
0.00501727
0.0072341
0.00912548
0.0128249
0.0163063
0.0188616
0.0197838
0.0189578
0.0170508
0.0145543
0.0116196
0.0094959
0.00768826
0.00588852
0.00423062
0.00259958
0.000942676
-0.000647428
-0.00232573
-0.00403624
-0.000174855
0.00119607
0.0028466
0.00423814
0.00616551
0.00845766
0.0119885
0.0154753
0.0182531
0.0194791
0.0195436
0.0179941
0.0156289
0.0130662
0.0107449
0.00865566
0.00696296
0.00536781
0.00378249
0.00219849
0.0005665
-0.000909384
-0.00246081
-0.00405664
-0.000361828
0.000891868
0.00239827
0.00373162
0.00555496
0.00798469
0.0106769
0.0143088
0.0171797
0.0190397
0.0196348
0.018741
0.0166762
0.0140407
0.0118691
0.00987849
0.00801012
0.00644349
0.00478752
0.0032608
0.00176554
0.000377826
-0.00110475
-0.00264099
-0.004154
-0.00055301
0.000550579
0.00193489
0.00348891
0.00487052
0.00740522
0.00952339
0.0131976
0.0161283
0.018354
0.0194448
0.0191594
0.0176385
0.0153911
0.0129153
0.0108782
0.00888768
0.00739271
0.00593629
0.00443052
0.00289524
0.00161105
0.000177287
-0.00126439
-0.00275681
-0.00414145
-0.000743608
0.000349675
0.00164215
0.00300926
0.00451708
0.00673013
0.00840596
0.0119269
0.0148651
0.0175295
0.0189989
0.0192153
0.0182659
0.0163176
0.0138937
0.0118396
0.00997777
0.00809346
0.00680517
0.0054386
0.00407702
0.00269498
0.00139022
5.25532e-05
-0.00136041
-0.00270734
-0.00412213
-0.000912239
3.99284e-05
0.00126324
0.0025781
0.00396185
0.00548663
0.00773988
0.0107958
0.0138676
0.0166554
0.0184034
0.0191757
0.0185302
0.0170848
0.0148546
0.0127101
0.0107411
0.009046
0.00753296
0.00628924
0.00500326
0.0036093
0.00234258
0.00121967
-3.8924e-05
-0.00131674
-0.00262349
-0.00402422
-0.0010947
-0.000171146
0.00091144
0.00211023
0.00329401
0.00516808
0.00656947
0.00975803
0.0127948
0.0153701
0.0176632
0.018888
0.0188269
0.0175201
0.0157534
0.0136316
0.0117606
0.00982337
0.00851298
0.00703341
0.00580424
0.00457436
0.00346504
0.00224403
0.00106762
-5.14395e-05
-0.00124583
-0.00245251
-0.00376518
-0.00129833
-0.000485677
0.000501515
0.00159416
0.00292471
0.00456756
0.00578193
0.00900729
0.0113276
0.0143366
0.0166853
0.0183934
0.0187724
0.0180236
0.016389
0.0144232
0.0124158
0.0107438
0.00921506
0.00776518
0.00664995
0.00537751
0.00426076
0.00317059
0.00212635
0.00104949
2.95882e-05
-0.00105456
-0.00223462
-0.00348551
-0.00143084
-0.000796973
0.000232848
0.00114773
0.00250298
0.00357907
0.00524307
0.00773602
0.0104982
0.0129913
0.0157528
0.0178352
0.0184973
0.0182704
0.0169211
0.0151697
0.01321
0.0116115
0.00971241
0.00852844
0.00733359
0.00609087
0.00495057
0.00396767
0.0029636
0.00202171
0.00110108
0.000191078
-0.000846973
-0.0018644
-0.00305333
-0.00162687
-0.000911129
-0.000137143
0.000802714
0.0020207
0.00333906
0.0049692
0.00661339
0.00941555
0.0117797
0.0149807
0.0169381
0.0181165
0.0182163
0.0173476
0.0156276
0.0140169
0.0120963
0.0106495
0.00920891
0.00787552
0.00677273
0.00568127
0.00465708
0.00376207
0.00287328
0.00205363
0.00123047
0.000457498
-0.000424546
-0.00133265
-0.00247638
-0.00170532
-0.00108061
-0.000559103
0.000529646
0.00154311
0.00289167
0.00416164
0.00583572
0.00840947
0.0110802
0.0138462
0.0161048
0.0174931
0.0179921
0.017604
0.0162478
0.0143852
0.0127769
0.0111738
0.00973347
0.00852392
0.00744815
0.00624689
0.00534955
0.00440323
0.00361
0.00287904
0.00218373
0.00151591
0.000837318
0.000153172
-0.00071572
-0.00179532
-0.00181787
-0.00129238
-0.000733281
-3.67055e-06
0.00100561
0.0023465
0.00375937
0.0053454
0.0074917
0.0102263
0.0127028
0.0151472
0.016779
0.0175863
0.0175202
0.0165125
0.0149279
0.0133683
0.0117128
0.010296
0.00903341
0.00792629
0.0068303
0.00588304
0.00509971
0.00422248
0.0035369
0.00290094
0.00236228
0.00186086
0.00137245
0.000776319
2.05745e-07
-0.00224464
-0.00110001
-0.00191617
-0.00145698
-0.00103904
-0.000360707
0.00072973
0.00164187
0.00309536
0.00482311
0.00688374
0.00943237
0.0117308
0.0141651
0.0159494
0.0170434
0.0173123
0.0167291
0.0154966
0.013849
0.0122818
0.0107226
0.00938847
0.00830649
0.00735659
0.00623965
0.00536662
0.00476445
0.00394058
0.0034323
0.00294761
0.00264139
0.00235423
0.00200792
0.00122063
-0.000131924
0.00084226
-0.00179166
-0.000720666
-0.00199926
-0.00161742
-0.00112806
-0.000662243
0.00035632
0.00125112
0.00284208
0.00434599
0.00588832
0.00830478
0.010777
0.0131167
0.0149942
0.0163746
0.0169483
0.0166793
0.0156618
0.0142787
0.0127474
0.0113607
0.010051
0.00884446
0.00781925
0.00680201
0.00589751
0.00516174
0.00442551
0.00378741
0.00335023
0.00319899
0.00306665
0.00295389
0.00231263
0.00279079
0.00169893
0.00206894
0.00251793
0.000343067
0.00134919
-0.00139558
-0.000227677
-0.00209973
-0.00175352
-0.00141717
-0.000943461
8.09104e-05
0.000901464
0.00228207
0.00377565
0.00536984
0.00744192
0.00965621
0.0120298
0.0139178
0.0156293
0.0164524
0.0165084
0.0158283
0.0145524
0.0131578
0.0117241
0.0104662
0.0091285
0.00817463
0.00715986
0.0063417
0.00548949
0.00470871
0.0039271
0.00379693
0.00350211
0.0035156
0.00359058
0.00315855
0.00361216
0.00278103
0.00227059
0.00321737
0.00311306
0.000894111
0.00195529
-0.000948706
0.000280205
-0.00208939
-0.00189996
-0.00153647
-0.0010042
-0.000446223
0.0005712
0.00176682
0.00316105
0.00476996
0.00652754
0.00868534
0.0110535
0.0130186
0.0148461
0.0158625
0.0161887
0.0157736
0.0147609
0.0134495
0.0120745
0.0107882
0.00962775
0.00848945
0.00748307
0.00651771
0.00579113
0.00522236
0.00471699
0.00364558
0.00376849
0.00366709
0.00391503
0.00388657
0.00412291
0.00338601
0.00386664
0.00383946
0.00292915
0.00386063
0.00381709
0.00148128
0.00261823
-0.000488357
0.000824634
-0.00213535
-0.00194412
-0.00163164
-0.00134015
-0.00063147
0.000388624
0.00133309
0.00261099
0.00403926
0.00577761
0.00789611
0.00991836
0.0120949
0.0138834
0.0151843
0.0157767
0.0156178
0.0148319
0.0137317
0.0124526
0.0111545
0.00988448
0.00881675
0.00781445
0.00686979
0.00599106
0.00533545
0.00471932
0.00436887
0.00345377
0.00371578
0.00391698
0.0042539
0.00427821
0.0042455
0.00451174
0.00436966
0.00479913
0.00450847
0.00366095
0.00461633
0.00461511
0.00211678
0.00334011
-1.52954e-05
0.00139787
-0.00212933
-0.00204582
-0.00176449
-0.00143167
-0.000860939
-9.57122e-05
0.000847781
0.0021559
0.00348854
0.00515414
0.00709269
0.00893125
0.0111721
0.012934
0.0143941
0.0152348
0.0153881
0.0148704
0.0138245
0.0126866
0.0114381
0.0102845
0.00903329
0.0079938
0.00712785
0.00619962
0.00545108
0.00458185
0.00411042
0.00399338
0.00322402
0.00369839
0.00430118
0.00419269
0.00469825
0.0047521
0.00512997
0.00537975
0.00506247
0.00553041
0.00532347
0.00446726
0.00549362
0.0055208
0.0028016
0.00413429
0.000466682
0.00200142
-0.00205959
-0.00206013
-0.00194657
-0.00154512
-0.00113664
-0.0004666
0.000496564
0.00173576
0.0030063
0.00453594
0.00627102
0.00816201
0.0102467
0.0121119
0.0135782
0.0146149
0.0150393
0.0147447
0.0139448
0.012848
0.0116904
0.0105408
0.00945441
0.00835952
0.0072669
0.00620352
0.00545968
0.00496454
0.00408329
0.0034882
0.00356321
0.00301022
0.00400638
0.00395608
0.00481441
0.00484358
0.00560195
0.00590002
0.00595973
0.00651331
0.00596979
0.0066761
0.00634444
0.00538183
0.00658936
0.00665782
0.00354312
0.00501945
0.000953527
0.00264102
-0.00197057
-0.00201753
-0.00201597
-0.00166085
-0.00123688
-0.000635959
0.000210276
0.00129127
0.00254076
0.00382628
0.00549303
0.00743723
0.00927222
0.0111941
0.0127298
0.0138889
0.0145322
0.0145542
0.0139558
0.0129245
0.0119206
0.0107819
0.00965609
0.00865305
0.0075665
0.00644286
0.00551988
0.00487894
0.00433509
0.00341152
0.00296911
0.00307411
0.00362056
0.0035654
0.00500404
0.00545297
0.00652325
0.00788337
0.0075298
0.0097094
0.00781225
0.0102744
0.00740434
0.00943296
0.00806009
0.00649824
0.00850018
0.00861137
0.00435569
0.00606316
0.00144217
0.00332807
-0.00188296
-0.00198314
-0.0019901
-0.0019249
-0.0014702
-0.000776698
-5.85221e-05
0.000951138
0.00212182
0.00331653
0.00489573
0.00660908
0.00836791
0.0102071
0.0118251
0.0131547
0.0139736
0.014238
0.0139123
0.0130244
0.0120642
0.0109759
0.00986537
0.00872124
0.00764811
0.00666643
0.00568646
0.00479986
0.00435674
0.00358343
0.00252479
0.00230588
0.00314585
0.00304582
0.0057936
0.00648186
0.0101952
0.0134782
0.0141763
0.0219232
0.0157469
0.0269862
0.014326
0.0257208
0.0112514
0.0195671
0.0129103
0.00830311
0.0139371
0.0139858
0.005285
0.00760352
0.0019244
0.00407612
-0.0017546
-0.00192413
-0.002008
-0.00200282
-0.00148259
-0.000889215
-0.000240849
0.000703208
0.00167839
0.00287384
0.00427213
0.00584021
0.00747354
0.00925528
0.0109129
0.0123489
0.0133433
0.0138404
0.0137311
0.013108
0.0121724
0.0111607
0.0100345
0.00895753
0.00788716
0.00687056
0.00585122
0.00492007
0.00410694
0.00363356
0.00259902
0.00170236
0.00269277
0.0020524
0.00657548
0.00687707
0.0170307
0.0208333
0.0324569
0.0449831
0.0460639
0.0711078
0.049274
0.0867715
0.0400135
0.0815953
0.0253782
0.0570477
0.0303259
0.0129153
0.032924
0.0320131
0.00649525
0.011011
0.00239153
0.00494423
-0.00158305
-0.00183934
-0.00206627
-0.00212826
-0.00148577
-0.000833561
-0.000292239
0.000430723
0.00134171
0.00245492
0.00371206
0.00511329
0.00666715
0.00838008
0.00998718
0.0114756
0.012625
0.0133065
0.0134387
0.0131313
0.0123247
0.0112996
0.0102739
0.00917665
0.00808231
0.00703954
0.00598892
0.0050415
0.00409096
0.00343339
0.00257606
0.00174845
0.00165806
0.000860872
0.00653477
0.00568989
0.0233737
0.0254551
0.0575405
0.0690805
0.0993815
0.127544
0.132436
0.180143
0.142783
0.210128
0.121126
0.205945
0.073986
0.160752
0.0864743
0.0276312
0.0912273
0.0859863
0.0087153
0.0210579
0.00284595
0.00621071
-0.00136959
-0.00170471
-0.00201134
-0.00212877
-0.00160438
-0.000958038
-0.000379724
0.000328143
0.000975449
0.00205358
0.00320583
0.00450685
0.00591484
0.00749087
0.00905589
0.0105671
0.0118429
0.0127396
0.0131098
0.0129981
0.012364
0.0115198
0.0105126
0.00942575
0.00831366
0.00722547
0.00616016
0.00512706
0.00418354
0.0032445
0.00250173
0.00111991
0.00100223
0.00462223
0.00385107
0.0255148
0.0241164
0.0771775
0.0830119
0.152455
0.172356
0.225181
0.264208
0.276307
0.335636
0.293162
0.374117
0.266986
0.371037
0.193853
0.31827
0.213898
0.0708262
0.217322
0.200686
0.0144293
0.0499032
0.00329437
0.00870684
-0.00111184
-0.00152145
-0.00187318
-0.00199277
-0.0015392
-0.000954502
-0.000479429
0.000161474
0.000816779
0.0018049
0.00277367
0.00388134
0.00521174
0.00662722
0.00816409
0.00965053
0.011003
0.0120261
0.0126412
0.0127329
0.0123882
0.0116945
0.0107644
0.00970037
0.00856403
0.00742753
0.0063177
0.00526321
0.00425734
0.00327777
0.00244895
0.00102663
-5.0701e-05
0.0138941
0.00989293
0.0218221
0.0181558
0.083847
0.0812462
0.185276
0.193379
0.295237
0.317234
0.386977
0.427786
0.447684
0.508035
0.467435
0.550785
0.43778
0.547779
0.355518
0.489723
0.375773
0.163023
0.37753
0.357478
0.0297086
0.115342
0.00371557
0.0144439
-0.000808118
-0.00128606
-0.00165104
-0.00176344
-0.00128335
-0.000750946
-0.0004376
7.19347e-05
0.000692526
0.00151052
0.00233865
0.0033726
0.00463082
0.00585674
0.00727992
0.00873447
0.0100925
0.0112644
0.0120817
0.0124266
0.0123223
0.0118347
0.0110401
0.010019
0.00887008
0.00766314
0.00648197
0.00537912
0.0043615
0.00337876
0.002359
0.00133966
-0.000226555
0.00633024
0.00350738
0.0573951
0.0458534
0.0764029
0.0681082
0.192773
0.18766
0.330156
0.336122
0.457232
0.476396
0.559465
0.593268
0.624105
0.672475
0.646631
0.718828
0.612859
0.722682
0.524678
0.66072
0.541267
0.308961
0.538342
0.511654
0.0664999
0.230816
0.00437246
0.0274456
-0.000460138
-0.000984796
-0.0013608
-0.00149265
-0.00107597
-0.000709556
-0.000405487
4.39766e-05
0.00062499
0.00129255
0.00203653
0.00296815
0.00403448
0.00515555
0.00644416
0.00782125
0.00917966
0.0104215
0.0113988
0.0119997
0.0121674
0.0119297
0.0113227
0.0103952
0.00923596
0.00795208
0.00666958
0.00547417
0.00442633
0.00346569
0.00246349
0.001429
-5.00987e-05
0.00194533
-0.000144354
0.0343696
0.0240841
0.146538
0.126112
0.178946
0.164627
0.330787
0.321979
0.485826
0.484659
0.61065
0.612808
0.68802
0.685674
0.742979
0.740206
0.781003
0.790625
0.779969
0.827501
0.690699
0.819984
0.701675
0.459469
0.693117
0.66364
0.13457
0.374976
0.00578874
0.0561192
-0.000137648
-0.000617359
-0.00103268
-0.001214
-0.000991078
-0.00072892
-0.00039621
3.1447e-05
0.000571285
0.00118143
0.00187574
0.00268275
0.00359319
0.00456166
0.00568367
0.00694289
0.00825485
0.00951704
0.0106136
0.0114333
0.0118814
0.0119385
0.0115888
0.0108246
0.00969848
0.0083506
0.0069049
0.00556806
0.00441966
0.00347174
0.00260314
0.00151478
0.000411045
0.00162759
0.0154887
0.00988928
0.104232
0.0822406
0.262916
0.23551
0.308171
0.28753
0.474314
0.460607
0.606269
0.593106
0.671622
0.654205
0.722207
0.698468
0.773489
0.745512
0.82417
0.800788
0.86533
0.85585
0.844471
0.89796
0.851355
0.608141
0.838833
0.807258
0.248946
0.521075
0.00869516
0.106327
-0.000270844
-0.00070983
-0.00095022
-0.000917829
-0.000733001
-0.000416558
1.13253e-05
0.000529958
0.00111372
0.00175316
0.00246147
0.00325235
0.00408199
0.00503123
0.00613516
0.00734415
0.00857394
0.00972689
0.0107142
0.0114309
0.0118168
0.0117928
0.0112836
0.0102876
0.00889456
0.00728076
0.00568724
0.00437261
0.00337299
0.0025351
0.00165525
0.000635775
0.000306887
0.0304072
0.0205115
0.0614882
0.044534
0.206169
0.176277
0.384866
0.352667
0.440469
0.41432
0.578414
0.561505
0.635166
0.61602
0.669061
0.637853
0.702844
0.649779
0.754059
0.681685
0.822289
0.750044
0.886524
0.84121
0.926256
0.917826
0.94788
0.752735
0.954232
0.930528
0.387681
0.667377
0.01527
0.190341
-0.000429904
-0.000730424
-0.000828713
-0.000714848
-0.000431657
-2.07149e-05
0.000493405
0.00106682
0.00168088
0.00232838
0.00302196
0.00371928
0.00450286
0.00542742
0.00648257
0.00761823
0.00875787
0.00984046
0.0107845
0.0115075
0.0118718
0.0117307
0.0109791
0.0096283
0.00785663
0.00594559
0.00429831
0.00312094
0.00236678
0.00184736
0.00101433
0.000536286
0.0141818
0.00612102
0.0906036
0.0664645
0.146497
0.118245
0.318032
0.282154
0.489131
0.458155
0.541488
0.516902
0.597942
0.581678
0.60834
0.582755
0.597584
0.554236
0.605409
0.543109
0.654442
0.567749
0.746445
0.636609
0.864096
0.753343
0.950071
0.894392
0.980991
0.88731
1.00476
1.01448
0.965632
0.540672
0.815624
0.0286563
0.331454
-0.00043881
-0.000649771
-0.000654943
-0.000438851
-5.24548e-05
0.000450311
0.00102955
0.00163893
0.00225785
0.0028855
0.003481
0.00411359
0.00485261
0.00571342
0.00668435
0.00772899
0.00882786
0.009922
0.0109585
0.0117511
0.0120825
0.0117267
0.010582
0.00870973
0.00645669
0.00429644
0.00272967
0.00197893
0.00165528
0.00135486
0.00107188
0.0129998
0.0476936
0.0357492
0.176833
0.146228
0.245979
0.210707
0.423744
0.38685
0.538789
0.520106
0.56715
0.553991
0.562907
0.548909
0.522676
0.500142
0.504306
0.481782
0.513975
0.488974
0.549286
0.505413
0.634294
0.544312
0.775843
0.646701
0.932777
0.79955
0.865923
0.991501
0.960202
1.00646
0.926545
1.0027
1.02162
1.00121
0.979867
1.03139
0.723943
0.982605
0.969935
0.871563
0.113854
0.695482
-0.0003339
-0.000513376
-0.000412726
-8.66787e-05
0.000400821
0.000984369
0.00161237
0.00223342
0.00282985
0.00336163
0.00387178
0.00443484
0.00508269
0.00583422
0.00669299
0.00769343
0.00884786
0.0101318
0.0113456
0.0122274
0.0124468
0.0117047
0.0099303
0.00732468
0.00450899
0.00236297
0.00132649
0.00118902
0.00142299
0.00187814
0.0109398
0.0736113
0.0516628
0.11731
0.0956857
0.270918
0.235082
0.348269
0.30928
0.496865
0.469057
0.528357
0.523144
0.538942
0.532713
0.486691
0.477977
0.46695
0.454879
0.476121
0.464976
0.490251
0.485176
0.505214
0.498039
0.591491
0.547012
0.52046
0.506063
0.738661
0.666609
0.550902
0.554562
0.609206
0.823276
0.915309
0.847006
0.75541
0.936056
1.03678
1.03572
1.02126
0.985559
0.96077
1.03657
0.946894
0.84857
0.948134
1.03147
1.02366
0.325678
0.96532
0.984751
0.84838
-0.000250733
-0.000332432
-0.000109853
0.000336611
0.000921045
0.001576
0.00222957
0.00283252
0.0033466
0.00377813
0.00419137
0.0046285
0.00512136
0.00572358
0.0064843
0.00758784
0.00900918
0.0105626
0.0120497
0.0129779
0.0128975
0.0114913
0.00876696
0.00529714
0.00238546
0.000955109
0.000848962
0.00139638
0.00294614
0.0118892
0.0762952
0.144946
0.133856
0.201104
0.173706
0.363739
0.3266
0.436762
0.401238
0.517296
0.50776
0.483374
0.49109
0.4753
0.477394
0.44701
0.442046
0.456386
0.447563
0.484187
0.483324
0.50915
0.526969
0.503182
0.509982
0.522082
0.540459
0.520139
0.507822
0.506332
0.686784
0.620003
0.522209
0.526294
0.564971
0.779466
0.877084
0.807312
0.707713
0.904254
1.04855
1.05688
1.00897
0.932238
0.960085
1.03049
1.01967
1.02838
1.06166
1.06527
0.876058
-0.023957
0.294954
1.05047
1.04129
-0.000165531
-0.000105424
0.000251501
0.000827023
0.00150791
0.00221311
0.00286273
0.00340738
0.00382102
0.00413088
0.00437866
0.00459537
0.00486337
0.00531956
0.00618842
0.00752173
0.00934494
0.0114124
0.0131574
0.0139812
0.0133207
0.0108843
0.00718233
0.00374926
0.0026828
0.0025244
0.00285461
0.00496577
0.0152801
0.07292
0.192089
0.161411
0.230225
0.207504
0.290811
0.259319
0.438844
0.407712
0.490265
0.467096
0.497587
0.500555
0.448182
0.457841
0.440439
0.442477
0.439362
0.433564
0.477766
0.466394
0.53843
0.537914
0.55581
0.57398
0.58571
0.597978
0.517074
0.535883
0.558076
0.581414
0.509807
0.509707
0.524486
0.637295
0.576225
0.51245
0.515864
0.532418
0.733018
0.836884
0.761712
0.658199
0.866768
1.04923
1.06462
0.987608
0.897345
0.928185
1.01423
1.07144
1.08248
1.07757
1.08866
0.742296
0.0120955
0.232683
1.08935
1.02197
-6.18844e-05
0.000165026
0.000674606
0.00138412
0.00214873
0.00288107
0.0035053
0.0039601
0.00424659
0.00435672
0.00430838
0.0041856
0.00424247
0.00471526
0.00581712
0.00774411
0.0102477
0.0128708
0.0147786
0.0152427
0.0136503
0.0107887
0.0106079
0.0132346
0.0136478
0.0115106
0.0118993
0.0232848
0.0776304
0.212689
0.271306
0.271181
0.31666
0.293579
0.375596
0.345123
0.484841
0.46582
0.49993
0.49592
0.470753
0.482752
0.436684
0.445414
0.430904
0.431892
0.45245
0.441715
0.523879
0.498367
0.602287
0.604724
0.599478
0.592344
0.603231
0.622848
0.638686
0.650082
0.548497
0.576624
0.605837
0.633948
0.512814
0.531271
0.560456
0.591334
0.541288
0.516005
0.519129
0.520282
0.683595
0.792416
0.71295
0.610816
0.824553
1.03925
1.06219
0.959415
0.857724
0.891613
0.990567
1.10067
1.11056
1.08261
1.10043
0.688676
0.0401722
0.314975
1.10139
0.994323
6.184e-05
0.000480852
0.00116213
0.00200088
0.0028324
0.00358646
0.00415369
0.00449203
0.00455737
0.00430729
0.0038068
0.00332047
0.00332517
0.0041937
0.00587822
0.00853636
0.0119562
0.0150298
0.0168674
0.016892
0.0177746
0.0285277
0.0432093
0.0472973
0.0391364
0.0309515
0.0420863
0.0937626
0.218054
0.339462
0.32528
0.355513
0.345117
0.39469
0.374254
0.442775
0.418557
0.499045
0.496271
0.492676
0.497667
0.457651
0.471719
0.438243
0.447139
0.434466
0.433462
0.468364
0.443714
0.582183
0.531446
0.655941
0.655128
0.646356
0.631159
0.659627
0.681528
0.698675
0.710214
0.594458
0.629897
0.664514
0.696499
0.537169
0.570937
0.611134
0.553629
0.526573
0.541355
0.544287
0.52311
0.6355
0.744913
0.664538
0.570517
0.779121
1.02143
1.05104
0.926442
0.814894
0.852242
0.962188
1.11548
1.12374
1.07856
1.10395
0.699198
0.0603587
0.354195
1.10341
0.985048
0.000206789
0.0008456
0.00170344
0.00267061
0.0035714
0.00433248
0.00481806
0.00494419
0.00461298
0.00382435
0.00281702
0.00215514
0.00258185
0.00412428
0.00667416
0.0104256
0.0145712
0.0179091
0.0201038
0.0272588
0.0497152
0.0784807
0.0898695
0.0837928
0.0726652
0.0779978
0.127235
0.240281
0.377289
0.412389
0.413823
0.427841
0.417188
0.456471
0.441355
0.486386
0.472318
0.504911
0.508765
0.485721
0.497089
0.458739
0.472268
0.436196
0.447837
0.431567
0.429707
0.475159
0.434036
0.655874
0.620122
0.536305
0.581941
0.715082
0.711698
0.700904
0.682512
0.724421
0.747193
0.763843
0.773949
0.653088
0.694465
0.732857
0.766707
0.579486
0.625673
0.674774
0.535393
0.52833
0.585046
0.587611
0.545015
0.592888
0.697288
0.621151
0.546914
0.733005
0.998912
1.03535
0.891081
0.771484
0.812619
0.932046
1.1235
1.13056
1.07071
1.10313
0.705377
0.0588928
0.358543
1.10553
0.983658
0.000381497
0.00125096
0.00229869
0.00340409
0.00438972
0.00513958
0.00545777
0.00520784
0.00430683
0.00297012
0.00191203
0.00185858
0.00344887
0.00603093
0.00955586
0.0140379
0.0184306
0.022921
0.0356761
0.0697577
0.109504
0.132962
0.134877
0.128778
0.137625
0.187273
0.280821
0.375881
0.450187
0.43625
0.465352
0.459112
0.481244
0.472833
0.498654
0.490047
0.509941
0.506191
0.511311
0.519395
0.486321
0.500046
0.461991
0.476745
0.418601
0.435214
0.412746
0.408812
0.497241
0.45609
0.406409
0.695349
0.652281
0.550132
0.602796
0.776257
0.768682
0.754285
0.729882
0.794783
0.816353
0.830191
0.837099
0.723074
0.768134
0.807765
0.840829
0.637363
0.693518
0.74941
0.534153
0.545486
0.644784
0.646887
0.585712
0.562704
0.653045
0.585878
0.542932
0.689834
0.975068
1.01895
0.85618
0.731002
0.776011
0.903161
1.12789
1.1355
1.06203
1.10137
0.715129
0.0408127
0.330636
1.11001
0.9924
0.000599829
0.00168244
0.00296465
0.00423841
0.00529674
0.00597209
0.00600622
0.00529498
0.00413036
0.00355758
0.00461089
0.00648326
0.0091004
0.0119898
0.0153712
0.019399
0.0255785
0.0432192
0.0838593
0.135912
0.168233
0.179931
0.185038
0.201695
0.243938
0.30608
0.365347
0.413507
0.460361
0.434693
0.490783
0.476674
0.512306
0.502612
0.524731
0.51965
0.524162
0.526395
0.516605
0.525466
0.491291
0.504911
0.453686
0.471484
0.375839
0.398375
0.372705
0.363411
0.497969
0.449319
0.397805
0.358831
0.731622
0.680117
0.558407
0.621076
0.834927
0.823458
0.804754
0.773469
0.866443
0.885056
0.896638
0.900002
0.801254
0.846996
0.884914
0.914529
0.708237
0.771831
0.831128
0.544724
0.580278
0.717391
0.719256
0.642961
0.553174
0.616237
0.568216
0.548083
0.65412
0.953285
1.00486
0.824847
0.697265
0.745961
0.87871
1.1307
1.13974
1.0548
1.0996
0.727689
0.00521529
0.24569
1.11675
1.00918
0.000864413
0.00217435
0.00374245
0.00518461
0.00630056
0.00681655
0.00660708
0.00631007
0.00715234
0.00949288
0.0116963
0.013908
0.0160669
0.0185049
0.0219821
0.0286934
0.0482088
0.0925866
0.149614
0.184571
0.2014
0.214651
0.234364
0.265001
0.303885
0.348828
0.369678
0.374794
0.347685
0.436691
0.407102
0.484034
0.462159
0.515913
0.501944
0.532666
0.526282
0.530994
0.533948
0.512631
0.520377
0.487564
0.501402
0.422776
0.445129
0.311232
0.336576
0.338325
0.32326
0.300598
0.497103
0.442555
0.374282
0.334059
0.763709
0.703922
0.563366
0.635878
0.892567
0.877455
0.851158
0.813538
0.937169
0.952668
0.959883
0.956942
0.882984
0.926136
0.959393
0.984829
0.789134
0.856072
0.914649
0.572926
0.631598
0.799293
0.800046
0.712289
0.554871
0.592368
0.566015
0.566122
0.628584
0.936367
0.994607
0.800714
0.673662
0.726074
0.861769
1.13267
1.14298
1.04978
1.09811
0.743921
-0.0251848
0.236263
1.12419
1.03378
0.0011747
0.00275998
0.00466395
0.00627351
0.0074225
0.00795672
0.00866802
0.0110706
0.0143527
0.0170348
0.0184566
0.0197719
0.021359
0.0242545
0.0314748
0.0513768
0.0965639
0.153747
0.1863
0.202322
0.216124
0.234015
0.259572
0.291593
0.321066
0.314673
0.262145
0.314742
0.270063
0.384445
0.350505
0.445756
0.416338
0.493428
0.471751
0.520392
0.509713
0.524782
0.52541
0.489004
0.494009
0.463962
0.478855
0.36583
0.392784
0.25227
0.256839
0.256921
0.308539
0.29693
0.248343
0.250355
0.491888
0.427399
0.353176
0.30757
0.789655
0.722286
0.566655
0.646735
0.944536
0.924763
0.890894
0.846385
1.00316
1.01315
1.01425
1.00455
0.962773
1.00022
1.02689
1.04715
0.874922
0.940416
0.993904
0.615197
0.692932
0.885086
0.882551
0.787183
0.562751
0.584279
0.570138
0.595517
0.616357
0.925869
0.989175
0.787345
0.662598
0.719963
0.854438
1.13374
1.14489
1.04736
1.09694
0.784573
0.0704695
0.425646
1.13102
1.06085
0.00152374
0.00348962
0.00575267
0.0075736
0.00897151
0.0108239
0.0144965
0.0188818
0.0219718
0.0233786
0.0237434
0.0243264
0.0266568
0.0337184
0.0539111
0.096655
0.150009
0.178759
0.19475
0.207167
0.222242
0.242467
0.263857
0.272506
0.244118
0.184933
0.156192
0.131205
0.235656
0.19418
0.309968
0.273463
0.377346
0.344814
0.433708
0.406963
0.475471
0.457002
0.494175
0.488001
0.433719
0.433115
0.413223
0.426496
0.286894
0.318287
0.215554
0.224104
0.188031
0.199928
0.276307
0.257973
0.212644
0.215176
0.487463
0.414362
0.336551
0.284234
0.808642
0.735129
0.567496
0.653489
0.988036
0.960793
0.921763
0.87114
1.05884
1.06238
1.05558
1.04162
1.03458
1.06352
1.08378
1.09648
0.959504
1.01877
1.0634
0.661944
0.75395
0.967941
0.95687
0.857948
0.581399
0.587853
0.582532
0.629056
0.617598
0.922942
0.988217
0.785651
0.664135
0.725358
0.855718
1.13383
1.14572
1.04688
1.09621
0.912589
0.249517
0.747062
1.13472
1.08639
0.00197443
0.00441367
0.00708721
0.00930547
0.0122136
0.0170119
0.0223877
0.0263064
0.0281657
0.0283762
0.028302
0.0301237
0.0371612
0.0555774
0.0952295
0.140561
0.166968
0.181551
0.188214
0.192451
0.20082
0.205437
0.19465
0.165418
0.119562
0.0758332
0.0944305
0.0754638
0.152276
0.119772
0.223709
0.187374
0.292415
0.259259
0.349481
0.322493
0.395374
0.373847
0.426009
0.413087
0.360211
0.355589
0.34105
0.354541
0.21357
0.223725
0.230367
0.175646
0.179717
0.14753
0.157824
0.247402
0.225112
0.175695
0.181928
0.48248
0.403792
0.327712
0.271095
0.822206
0.744653
0.56834
0.658619
1.01905
0.986819
0.943667
0.888596
1.10094
1.09671
1.08426
1.06669
1.09404
1.11347
1.12597
1.13036
1.03622
1.08526
1.11825
0.70934
0.811675
1.03833
1.0154
0.919637
0.609021
0.600494
0.607328
0.670781
0.634159
0.926031
0.991427
0.795145
0.686266
0.754838
0.868625
1.13205
1.14352
1.04897
1.09591
1.02001
0.433931
0.971917
1.13504
1.10981
0.00258098
0.00556727
0.0088294
0.012456
0.0181564
0.0245478
0.029525
0.0321009
0.033076
0.0332988
0.0351605
0.0420181
0.0596619
0.093765
0.129555
0.152141
0.162538
0.156448
0.14476
0.136738
0.130593
0.120251
0.102001
0.0765691
0.0575031
0.0548861
0.0787433
0.0666114
0.115946
0.0950538
0.165582
0.139682
0.218404
0.19235
0.266239
0.243095
0.308483
0.287984
0.344004
0.327581
0.292351
0.292025
0.261543
0.280914
0.171482
0.188222
0.163959
0.152935
0.140928
0.141181
0.109819
0.116047
0.228553
0.198923
0.147787
0.163991
0.479133
0.397416
0.324229
0.266371
0.833354
0.754247
0.573118
0.66604
1.03929
1.00359
0.957961
0.901362
1.12773
1.11668
1.10108
1.07906
1.13717
1.14749
1.15102
1.14682
1.09711
1.13396
1.1548
0.76198
0.869642
1.0882
1.06392
0.975885
0.646751
0.626965
0.645186
0.719217
0.670562
0.939438
1.001
0.832903
0.736947
0.815174
0.905042
1.13142
1.14099
1.05295
1.09705
1.092
0.44124
1.06127
1.13722
1.12976
0.00337914
0.00697955
0.0115574
0.0175821
0.0249149
0.0307866
0.0344095
0.036543
0.0380964
0.0409797
0.0483266
0.0647126
0.0922082
0.118145
0.137302
0.143564
0.128898
0.105208
0.0869809
0.0795301
0.0732674
0.0647856
0.055059
0.049166
0.0481574
0.0527994
0.0652269
0.0483335
0.0791452
0.124544
0.0987597
0.179839
0.153491
0.213482
0.199605
0.235729
0.224765
0.259094
0.247012
0.284128
0.271926
0.231606
0.245509
0.171991
0.208467
0.125977
0.138711
0.129747
0.111219
0.120997
0.11101
0.0844194
0.0815899
0.221799
0.188693
0.13822
0.15983
0.480838