/*--------------------------------*- C++ -*----------------------------------*\
  =========                 |
  \\      /  F ield         | OpenFOAM: The Open Source CFD Toolbox
   \\    /   O peration     | Website:  https://openfoam.org
    \\  /    A nd           | Version:  dev
     \\/     M anipulation  |
\*---------------------------------------------------------------------------*/
FoamFile
{
    version     2.0;
    format      ascii;
    class       surfaceScalarField;
    location    "2500";
    object      phi;
}
// * * * * * * * * * * * * * * * * * * * * * * * * * * * * * * * * * * * * * //

dimensions      [1 0 -1 0 0 0 0];

internalField   nonuniform List<scalar> 
19503
(
1.6371e-07
1.13378e-07
1.42429e-07
2.82153e-07
4.5377e-07
1.03265e-07
1.16661e-07
3.90228e-07
4.48417e-07
2.87509e-07
6.57221e-07
8.81504e-08
9.57254e-08
4.69841e-07
4.16066e-07
4.22572e-07
6.76547e-07
2.68114e-07
8.2171e-07
7.61436e-08
8.02798e-08
5.32678e-07
3.65493e-07
5.20427e-07
6.76998e-07
4.22144e-07
8.5093e-07
2.38933e-07
9.66693e-07
6.86197e-08
6.80333e-08
5.88604e-07
3.08396e-07
5.89771e-07
6.50668e-07
5.46771e-07
8.77566e-07
3.95544e-07
9.93189e-07
2.12418e-07
1.10359e-06
6.30973e-08
5.88006e-08
6.4161e-07
2.56512e-07
6.40643e-07
6.0067e-07
6.39782e-07
8.86254e-07
5.38122e-07
1.02966e-06
3.59029e-07
1.12289e-06
1.93116e-07
1.23245e-06
5.83792e-08
5.20805e-08
6.92529e-07
2.1784e-07
6.80224e-07
5.37159e-07
7.04041e-07
8.68583e-07
6.57437e-07
1.06385e-06
5.03934e-07
1.15661e-06
3.25303e-07
1.24706e-06
1.78485e-07
1.35139e-06
5.44774e-08
4.71718e-08
7.42274e-07
1.9259e-07
7.17775e-07
4.69006e-07
7.48433e-07
8.238e-07
7.48886e-07
1.0821e-06
6.39178e-07
1.19866e-06
4.61881e-07
1.27302e-06
2.99348e-07
1.3643e-06
1.65601e-07
1.46406e-06
5.11298e-08
4.36367e-08
7.90986e-07
1.76944e-07
7.57861e-07
4.04817e-07
7.81969e-07
7.57999e-07
8.14263e-07
1.07415e-06
7.5687e-07
1.23907e-06
5.98769e-07
1.31226e-06
4.22697e-07
1.3858e-06
2.77804e-07
1.47442e-06
1.55232e-07
1.57049e-06
4.8004e-08
4.10399e-08
8.38226e-07
1.64912e-07
8.03019e-07
3.5221e-07
8.1056e-07
6.82217e-07
8.57733e-07
1.03829e-06
8.5005e-07
1.26672e-06
7.2921e-07
1.36052e-06
5.50462e-07
1.41596e-06
3.92446e-07
1.49328e-06
2.58917e-07
1.58007e-06
1.45642e-07
1.67138e-06
4.51709e-08
3.87216e-08
8.854e-07
1.52509e-07
8.50633e-07
3.16821e-07
8.38416e-07
6.06451e-07
8.86282e-07
9.77407e-07
9.18671e-07
1.2704e-06
8.46378e-07
1.40742e-06
6.82292e-07
1.45758e-06
5.08961e-07
1.52095e-06
3.64775e-07
1.59583e-06
2.43151e-07
1.67987e-06
1.37138e-07
1.76661e-06
4.25005e-08
3.69934e-08
9.31279e-07
1.4392e-07
8.93987e-07
2.96333e-07
8.71131e-07
5.37588e-07
9.07323e-07
9.01033e-07
9.62676e-07
1.24485e-06
9.44206e-07
1.44382e-06
8.10006e-07
1.50989e-06
6.30013e-07
1.55682e-06
4.73126e-07
1.61893e-06
3.41683e-07
1.69443e-06
2.28577e-07
1.7749e-06
1.28788e-07
1.85727e-06
3.98752e-08
3.59363e-08
9.75205e-07
1.3823e-07
9.36942e-07
2.79312e-07
9.10898e-07
4.82281e-07
9.26429e-07
8.18939e-07
9.89434e-07
1.193e-06
1.0146e-06
1.46002e-06
9.28043e-07
1.56434e-06
7.55523e-07
1.60258e-06
5.84226e-07
1.64981e-06
4.42182e-07
1.71558e-06
3.20532e-07
1.78866e-06
2.14842e-07
1.86477e-06
1.21278e-07
1.94241e-06
3.74485e-08
3.47981e-08
1.01953e-06
1.32288e-07
9.81189e-07
2.63353e-07
9.52955e-07
4.4367e-07
9.49739e-07
7.37015e-07
1.00837e-06
1.12231e-06
1.06009e-06
1.44897e-06
1.02556e-06
1.611e-06
8.81338e-07
1.65754e-06
7.00555e-07
1.68976e-06
5.4432e-07
1.74339e-06
4.1427e-07
1.8078e-06
3.01389e-07
1.87787e-06
2.01722e-07
1.95035e-06
1.13333e-07
2.02333e-06
3.50921e-08
3.34047e-08
1.06386e-06
1.28614e-07
1.02321e-06
2.50401e-07
9.94156e-07
4.17442e-07
9.79192e-07
6.64009e-07
1.02263e-06
1.04145e-06
1.08924e-06
1.41045e-06
1.09863e-06
1.64064e-06
9.95923e-07
1.71739e-06
8.21479e-07
1.73953e-06
6.50814e-07
1.77798e-06
5.09829e-07
1.83319e-06
3.88858e-07
1.89637e-06
2.82884e-07
1.96299e-06
1.89062e-07
2.03051e-06
1.06081e-07
2.09948e-06
3.26417e-08
3.22978e-08
1.10726e-06
1.25586e-07
1.0669e-06
2.38548e-07
1.03508e-06
3.94967e-07
1.01664e-06
6.04398e-07
1.03879e-06
9.5528e-07
1.10885e-06
1.3492e-06
1.1505e-06
1.64539e-06
1.09388e-06
1.77325e-06
9.40098e-07
1.7979e-06
7.63106e-07
1.82073e-06
6.08115e-07
1.86495e-06
4.78104e-07
1.92014e-06
3.65086e-07
1.98074e-06
2.65133e-07
2.04301e-06
1.76607e-07
2.10676e-06
9.87954e-08
2.17148e-06
3.02289e-08
3.14499e-08
1.1505e-06
1.21084e-07
1.11178e-06
2.29399e-07
1.07606e-06
3.7138e-07
1.05868e-06
5.61848e-07
1.05919e-06
8.70587e-07
1.12351e-06
1.27278e-06
1.18526e-06
1.62243e-06
1.17344e-06
1.81479e-06
1.05229e-06
1.86216e-06
8.75828e-07
1.87256e-06
7.11211e-07
1.90332e-06
5.69714e-07
1.94992e-06
4.48349e-07
2.00383e-06
3.41978e-07
2.06054e-06
2.47581e-07
2.1191e-06
1.64255e-07
2.17906e-06
9.12011e-08
2.23828e-06
2.78676e-08
3.07222e-08
1.19331e-06
1.17939e-07
1.15366e-06
2.22257e-07
1.11895e-06
3.50561e-07
1.09692e-06
5.33661e-07
1.08675e-06
7.93437e-07
1.13646e-06
1.18824e-06
1.20801e-06
1.57454e-06
1.23315e-06
1.8346e-06
1.15359e-06
1.92546e-06
9.89013e-07
1.93334e-06
8.14973e-07
1.94888e-06
6.65666e-07
1.98514e-06
5.34465e-07
2.03161e-06
4.2057e-07
2.08267e-06
3.19839e-07
2.13609e-06
2.30574e-07
2.19111e-06
1.52186e-07
2.24581e-06
8.36632e-08
2.30078e-06
2.53269e-08
2.99091e-08
1.23507e-06
1.15173e-07
1.196e-06
2.143e-07
1.16159e-06
3.3636e-07
1.13309e-06
5.08587e-07
1.12198e-06
7.31033e-07
1.14945e-06
1.10148e-06
1.22301e-06
1.50808e-06
1.27446e-06
1.82881e-06
1.23898e-06
1.9792e-06
1.09987e-06
2.00188e-06
9.20503e-07
2.00331e-06
7.60488e-07
2.02644e-06
6.244e-07
2.06477e-06
5.01304e-07
2.10992e-06
3.93315e-07
2.15824e-06
2.97684e-07
2.20837e-06
2.13287e-07
2.25864e-06
1.39346e-07
2.30871e-06
7.57109e-08
2.35853e-06
2.2513e-08
2.90989e-08
1.27588e-06
1.11882e-07
1.23836e-06
2.0672e-07
1.20359e-06
3.25013e-07
1.17298e-06
4.84435e-07
1.15729e-06
6.85954e-07
1.167e-06
1.01696e-06
1.2338e-06
1.42948e-06
1.3017e-06
1.79734e-06
1.30591e-06
2.01501e-06
1.20315e-06
2.07188e-06
1.02983e-06
2.06669e-06
8.5711e-07
2.07513e-06
7.11773e-07
2.10355e-06
5.85627e-07
2.14188e-06
4.69348e-07
2.18513e-06
3.6642e-07
2.23046e-06
2.75588e-07
2.27625e-06
1.95641e-07
2.32209e-06
1.25974e-07
2.36684e-06
6.73458e-08
2.41072e-06
1.96159e-08
2.8484e-08
1.31587e-06
1.08224e-07
1.27956e-06
1.99912e-07
1.24507e-06
3.15673e-07
1.21298e-06
4.6338e-07
1.19409e-06
6.47994e-07
1.19525e-06
9.39407e-07
1.24458e-06
1.34403e-06
1.31926e-06
1.74441e-06
1.35461e-06
2.0276e-06
1.29328e-06
2.1361e-06
1.13891e-06
2.13753e-06
9.5898e-07
2.13134e-06
8.00802e-07
2.14779e-06
6.67549e-07
2.17899e-06
5.48512e-07
2.21669e-06
4.37774e-07
2.2571e-06
3.39779e-07
2.29871e-06
2.5313e-07
2.34052e-06
1.77194e-07
2.38077e-06
1.12059e-07
2.41976e-06
5.83014e-08
2.4574e-06
1.63413e-08
2.78905e-08
1.35509e-06
1.0408e-07
1.32002e-06
1.94001e-07
1.28547e-06
3.07754e-07
1.25309e-06
4.42349e-07
1.23407e-06
6.14877e-07
1.22719e-06
8.76209e-07
1.25857e-06
1.25706e-06
1.33145e-06
1.67571e-06
1.38797e-06
2.01521e-06
1.36702e-06
2.18704e-06
1.24241e-06
2.21256e-06
1.06389e-06
2.19611e-06
8.94279e-07
2.19854e-06
7.50082e-07
2.22154e-06
6.24952e-07
2.25276e-06
5.12444e-07
2.28816e-06
4.06722e-07
2.32588e-06
3.12598e-07
2.36391e-06
2.29721e-07
2.40029e-06
1.5766e-07
2.43491e-06
9.68751e-08
2.46724e-06
4.84436e-08
2.49773e-06
1.2983e-08
2.7017e-08
1.39347e-06
1.00031e-07
1.35916e-06
1.88084e-07
1.32595e-06
2.98647e-07
1.29452e-06
4.22404e-07
1.27302e-06
5.89156e-07
1.25977e-06
8.25193e-07
1.27804e-06
1.17327e-06
1.34219e-06
1.59719e-06
1.41e-06
1.97996e-06
1.42319e-06
2.21843e-06
1.33556e-06
2.28587e-06
1.16911e-06
2.26856e-06
9.91272e-07
2.25671e-06
8.3606e-07
2.26896e-06
7.02687e-07
2.29356e-06
5.84134e-07
2.32326e-06
4.77358e-07
2.3574e-06
3.75188e-07
2.39173e-06
2.84769e-07
2.42464e-06
2.05355e-07
2.45524e-06
1.37334e-07
2.48367e-06
8.04221e-08
2.50893e-06
3.72289e-08
2.53176e-06
9.20803e-09
2.58508e-08
1.43063e-06
9.59017e-08
1.39757e-06
1.8183e-07
1.36541e-06
2.88684e-07
1.33589e-06
4.05682e-07
1.31128e-06
5.66952e-07
1.29528e-06
7.81805e-07
1.30304e-06
1.09754e-06
1.35395e-06
1.5143e-06
1.42508e-06
1.92595e-06
1.46401e-06
2.22686e-06
1.41473e-06
2.35022e-06
1.27119e-06
2.34703e-06
1.09073e-06
2.32278e-06
9.25188e-07
2.32241e-06
7.82618e-07
2.33941e-06
6.5684e-07
2.36341e-06
5.43975e-07
2.39312e-06
4.41627e-07
2.42366e-06
3.43232e-07
2.45371e-06
2.55724e-07
2.48106e-06
1.79518e-07
2.50665e-06
1.14332e-07
2.52734e-06
6.19996e-08
2.54452e-06
2.44174e-08
2.56794e-06
4.79262e-09
2.47794e-08
1.46558e-06
9.2588e-08
1.43395e-06
1.75719e-07
1.40374e-06
2.77751e-07
1.37634e-06
3.93237e-07
1.34833e-06
5.46023e-07
1.33222e-06
7.4479e-07
1.33225e-06
1.03265e-06
1.36796e-06
1.43104e-06
1.43718e-06
1.85893e-06
1.49208e-06
2.21241e-06
1.47848e-06
2.3994e-06
1.36553e-06
2.42692e-06
1.19133e-06
2.39652e-06
1.017e-06
2.38167e-06
8.65924e-07
2.3895e-06
7.32516e-07
2.40746e-06
6.12708e-07
2.43214e-06
5.0496e-07
2.45936e-06
4.05832e-07
2.48712e-06
3.09785e-07
2.51235e-06
2.24448e-07
2.53506e-06
1.51085e-07
2.55218e-06
8.94101e-08
2.56508e-06
4.14525e-08
2.58176e-06
1.05668e-08
2.58888e-06
1.37479e-09
2.37318e-08
1.49846e-06
8.90789e-08
1.46909e-06
1.68637e-07
1.44103e-06
2.68017e-07
1.41347e-06
3.81871e-07
1.38772e-06
5.24262e-07
1.37014e-06
7.11741e-07
1.36542e-06
9.79209e-07
1.38568e-06
1.35124e-06
1.44773e-06
1.78472e-06
1.51135e-06
2.17749e-06
1.527e-06
2.42883e-06
1.44902e-06
2.50231e-06
1.29014e-06
2.47664e-06
1.11121e-06
2.44764e-06
9.51054e-07
2.44452e-06
8.10896e-07
2.45548e-06
6.8457e-07
2.47468e-06
5.70131e-07
2.49933e-06
4.65119e-07
2.52456e-06
3.68375e-07
2.54785e-06
2.7423e-07
2.56818e-06
1.91319e-07
2.58349e-06
1.1981e-07
2.59311e-06
6.13576e-08
2.60371e-06
1.94637e-08
2.60168e-06
-2.24799e-09
2.59526e-06
-2.61864e-09
2.2586e-08
1.52901e-06
8.46972e-08
1.50286e-06
1.61073e-07
1.47665e-06
2.57143e-07
1.45191e-06
3.65934e-07
1.42931e-06
5.05234e-07
1.40673e-06
6.81763e-07
1.40019e-06
9.3585e-07
1.40863e-06
1.27731e-06
1.4595e-06
1.70742e-06
1.52502e-06
2.12705e-06
1.56177e-06
2.43745e-06
1.51833e-06
2.56774e-06
1.38358e-06
2.56062e-06
1.20615e-06
2.52135e-06
1.03753e-06
2.50473e-06
8.90679e-07
2.50807e-06
7.58347e-07
2.52105e-06
6.38168e-07
2.54235e-06
5.27058e-07
2.56516e-06
4.2445e-07
2.58717e-06
3.29059e-07
2.60613e-06
2.363e-07
2.62057e-06
1.54196e-07
2.62814e-06
8.47566e-08
2.63473e-06
3.0335e-08
2.62738e-06
-6.26514e-09
2.61254e-06
-1.95504e-08
2.59059e-06
-7.77999e-09
2.10301e-08
1.55724e-06
7.88388e-08
1.53487e-06
1.53084e-07
1.51083e-06
2.43273e-07
1.49041e-06
3.52118e-07
1.46573e-06
4.89232e-07
1.44538e-06
6.53538e-07
1.43491e-06
8.9809e-07
1.4378e-06
1.21224e-06
1.47359e-06
1.63066e-06
1.5362e-06
2.06588e-06
1.58616e-06
2.42597e-06
1.57321e-06
2.61802e-06
1.46803e-06
2.64471e-06
1.29948e-06
2.60231e-06
1.12518e-06
2.571e-06
9.71399e-07
2.56467e-06
8.33996e-07
2.57132e-06
7.08213e-07
2.58805e-06
5.92483e-07
2.60842e-06
4.83779e-07
2.62998e-06
3.81579e-07
2.6482e-06
2.86975e-07
2.662e-06
1.94889e-07
2.66922e-06
1.13107e-07
2.67361e-06
4.5826e-08
2.66412e-06
-6.42521e-09
2.64353e-06
-3.72923e-08
2.61164e-06
-4.0619e-08
2.57447e-06
-1.53806e-08
1.88163e-08
1.5833e-06
7.21071e-08
1.56396e-06
1.44845e-07
1.54314e-06
2.28625e-07
1.52543e-06
3.39683e-07
1.50289e-06
4.67126e-07
1.48783e-06
6.28352e-07
1.47053e-06
8.62473e-07
1.47047e-06
1.15858e-06
1.49135e-06
1.55616e-06
1.54805e-06
1.9996e-06
1.60248e-06
2.39791e-06
1.61415e-06
2.65041e-06
1.54079e-06
2.72336e-06
1.38933e-06
2.68821e-06
1.21356e-06
2.64358e-06
1.05261e-06
2.62574e-06
9.10379e-07
2.62514e-06
7.80027e-07
2.63605e-06
6.60199e-07
2.65402e-06
5.46972e-07
2.67505e-06
4.38739e-07
2.69341e-06
3.36364e-07
2.70759e-06
2.41397e-07
2.71566e-06
1.48447e-07
2.71933e-06
6.7413e-08
2.71015e-06
-2.52629e-10
2.68574e-06
-4.86427e-08
2.6471e-06
-7.27776e-08
2.59774e-06
-6.38988e-08
2.54365e-06
-2.47016e-08
1.71791e-08
1.60708e-06
6.69692e-08
1.58852e-06
1.36217e-07
1.5726e-06
2.15301e-07
1.5565e-06
3.24659e-07
1.54052e-06
4.4515e-07
1.52496e-06
6.07348e-07
1.50871e-06
8.27522e-07
1.50554e-06
1.1129e-06
1.51605e-06
1.48634e-06
1.56111e-06
1.93243e-06
1.61514e-06
2.35662e-06
1.64368e-06
2.66438e-06
1.60016e-06
2.79178e-06
1.4724e-06
2.77701e-06
1.30045e-06
2.72301e-06
1.1341e-06
2.69173e-06
9.86577e-07
2.68244e-06
8.53085e-07
2.68674e-06
7.29319e-07
2.70169e-06
6.12539e-07
2.72139e-06
5.00619e-07
2.74017e-06
3.91854e-07
2.7562e-06
2.87714e-07
2.76568e-06
1.9138e-07
2.77068e-06
9.71014e-08
2.76385e-06
1.37481e-08
2.73833e-06
-5.28857e-08
2.69654e-06
-9.81051e-08
2.63905e-06
-1.14118e-07
2.57022e-06
-9.04869e-08
2.49259e-06
-3.6469e-08
1.49392e-08
1.62766e-06
6.16566e-08
1.61239e-06
1.26065e-07
1.59867e-06
2.03778e-07
1.58416e-06
3.08076e-07
1.57304e-06
4.28236e-07
1.55739e-06
5.85185e-07
1.54705e-06
7.96232e-07
1.54016e-06
1.0735e-06
1.54485e-06
1.42582e-06
1.57644e-06
1.86649e-06
1.62701e-06
2.30714e-06
1.66454e-06
2.6615e-06
1.64649e-06
2.84654e-06
1.54537e-06
2.8648e-06
1.3846e-06
2.80878e-06
1.21473e-06
2.76301e-06
1.06275e-06
2.74271e-06
9.26364e-07
2.7404e-06
7.99417e-07
2.75062e-06
6.80328e-07
2.76853e-06
5.65427e-07
2.7885e-06
4.52349e-07
2.80623e-06
3.41863e-07
2.81877e-06
2.34567e-07
2.8263e-06
1.35757e-07
2.82395e-06
3.69865e-08
2.80022e-06
-4.81201e-08
2.75834e-06
-1.14714e-07
2.69702e-06
-1.56093e-07
2.61768e-06
-1.61614e-07
2.52547e-06
-1.23389e-07
2.42211e-06
-4.94043e-08
1.28992e-08
1.64262e-06
5.56618e-08
1.63365e-06
1.16918e-07
1.62162e-06
1.90485e-07
1.61196e-06
2.8954e-07
1.60266e-06
4.09658e-07
1.59156e-06
5.6148e-07
1.58112e-06
7.71782e-07
1.57127e-06
1.04039e-06
1.57308e-06
1.3765e-06
1.59395e-06
1.80402e-06
1.63887e-06
2.25382e-06
1.68021e-06
2.64374e-06
1.68225e-06
2.88523e-06
1.60778e-06
2.94699e-06
1.46319e-06
2.89933e-06
1.29398e-06
2.83991e-06
1.1378e-06
2.80731e-06
9.98121e-07
2.79689e-06
8.69886e-07
2.80132e-06
7.48604e-07
2.8169e-06
6.31917e-07
2.83689e-06
5.17036e-07
2.85637e-06
4.02212e-07
2.8731e-06
2.87563e-07
2.88397e-06
1.76824e-07
2.88912e-06
7.0583e-08
2.86987e-06
-3.26825e-08
2.83117e-06
-1.20945e-07
2.76947e-06
-1.87188e-07
2.68535e-06
-2.23786e-07
2.58082e-06
-2.16983e-07
2.4612e-06
-1.6252e-07
2.32776e-06
-1.6382e-08
-4.53382e-08
1.11355e-08
1.65226e-06
4.94242e-08
1.64885e-06
1.07694e-07
1.64282e-06
1.75987e-07
1.63604e-06
2.71761e-07
1.62979e-06
3.88301e-07
1.62395e-06
5.39245e-07
1.61371e-06
7.49865e-07
1.60262e-06
1.01324e-06
1.59829e-06
1.33771e-06
1.61162e-06
1.75051e-06
1.64711e-06
2.20218e-06
1.69039e-06
2.61589e-06
1.708e-06
2.90834e-06
1.6591e-06
3.01954e-06
1.5352e-06
2.99138e-06
1.37119e-06
2.92289e-06
1.21096e-06
2.87646e-06
1.0686e-06
2.85577e-06
9.3923e-07
2.85399e-06
8.17322e-07
2.86542e-06
7.00066e-07
2.88472e-06
5.84081e-07
2.90625e-06
4.6705e-07
2.92709e-06
3.48212e-07
2.94214e-06
2.29413e-07
2.95703e-06
1.08908e-07
2.94512e-06
-4.66574e-09
2.91277e-06
-1.14324e-07
2.85496e-06
-2.06453e-07
2.77009e-06
-2.71934e-07
2.65895e-06
-3.01934e-07
2.52936e-06
-2.85162e-07
2.37369e-06
-8.97321e-08
-1.18759e-07
1.11215e-06
-1.53255e-08
1.12105e-06
-5.4251e-08
9.33451e-09
1.65719e-06
4.31386e-08
1.65854e-06
9.8037e-08
1.65848e-06
1.62939e-07
1.65592e-06
2.54447e-07
1.65332e-06
3.68458e-07
1.64952e-06
5.19868e-07
1.64332e-06
7.28905e-07
1.63453e-06
9.90731e-07
1.62512e-06
1.30571e-06
1.63011e-06
1.70497e-06
1.65689e-06
2.15487e-06
1.69448e-06
2.58566e-06
1.72054e-06
2.91979e-06
1.69651e-06
3.08085e-06
1.59781e-06
3.08224e-06
1.4443e-06
3.01116e-06
1.28294e-06
2.95016e-06
1.13723e-06
2.91755e-06
1.00678e-06
2.90808e-06
8.85061e-07
2.91485e-06
7.67825e-07
2.93194e-06
6.52765e-07
2.95497e-06
5.35293e-07
2.9793e-06
4.14799e-07
3.00051e-06
2.89796e-07
3.0237e-06
1.62726e-07
3.02335e-06
3.07207e-08
3.00114e-06
-9.30741e-08
2.95116e-06
-2.10528e-07
2.87105e-06
-3.07418e-07
2.75714e-06
-3.70136e-07
2.60959e-06
-1.77812e-07
-2.04366e-07
1.2199e-06
-1.6041e-07
1.21528e-06
-1.86258e-07
1.12452e-06
-9.32107e-08
1.13983e-06
-1.34078e-07
1.08029e-06
-1.48194e-08
1.08471e-06
-5.86784e-08
6.98411e-09
1.6577e-06
3.65162e-08
1.66381e-06
8.59206e-08
1.67064e-06
1.48753e-07
1.67267e-06
2.36125e-07
1.6742e-06
3.50247e-07
1.6714e-06
5.0244e-07
1.66678e-06
7.12156e-07
1.65981e-06
9.74972e-07
1.65012e-06
1.28276e-06
1.64792e-06
1.66782e-06
1.66712e-06
2.11289e-06
1.6988e-06
2.55221e-06
1.72786e-06
2.92134e-06
1.71894e-06
3.13355e-06
1.64377e-06
3.17083e-06
1.50916e-06
3.10342e-06
1.35201e-06
3.02909e-06
1.204e-06
2.98241e-06
1.07235e-06
2.96388e-06
9.50968e-07
2.96468e-06
8.3521e-07
2.97829e-06
7.21497e-07
3.00193e-06
6.05882e-07
3.02901e-06
4.85597e-07
3.05648e-06
3.58896e-07
3.08632e-06
2.27164e-07
3.10001e-06
8.58777e-08
3.09194e-06
-6.00339e-08
3.05543e-06
-1.97351e-07
2.98523e-06
-3.24713e-07
2.87585e-06
-4.2612e-07
2.72499e-06
-2.32029e-07
-2.53504e-07
1.24659e-06
-2.04512e-07
1.27554e-06
-2.33312e-07
1.15227e-06
-1.72857e-07
1.23731e-06
-2.26547e-07
1.17589e-06
-2.09891e-07
1.09358e-06
-1.021e-07
1.10563e-06
-1.46132e-07
1.046e-06
-1.31695e-08
1.04925e-06
-6.19485e-08
4.05256e-09
1.65312e-06
2.7937e-08
1.66627e-06
7.20278e-08
1.67769e-06
1.35589e-07
1.68376e-06
2.17553e-07
1.69115e-06
3.31811e-07
1.69246e-06
4.85744e-07
1.688e-06
6.98698e-07
1.68008e-06
9.65102e-07
1.66948e-06
1.26879e-06
1.6637e-06
1.64093e-06
1.67458e-06
2.07908e-06
1.70082e-06
2.522e-06
1.7289e-06
2.91536e-06
1.73375e-06
3.17301e-06
1.67943e-06
3.25294e-06
1.5617e-06
3.20117e-06
1.41145e-06
3.11482e-06
1.26619e-06
3.0515e-06
1.1349e-06
3.02117e-06
1.01487e-06
3.01394e-06
9.01674e-07
3.02329e-06
7.90195e-07
3.04601e-06
6.77392e-07
3.07542e-06
5.59457e-07
3.10819e-06
4.33823e-07
3.14432e-06
3.00891e-07
3.17288e-06
1.54266e-07
3.18115e-06
-3.43361e-09
3.1629e-06
-1.67502e-07
3.10829e-06
-3.20412e-07
3.01264e-06
-4.61495e-07
2.86761e-06
-2.76233e-07
-2.92488e-07
1.30487e-06
-2.61358e-07
1.34079e-06
-2.89419e-07
1.26371e-06
-2.59715e-07
1.1216e-06
-1.88833e-07
1.19992e-06
-2.5057e-07
1.14324e-06
-2.3154e-07
1.05777e-06
-1.10632e-07
1.06968e-06
-1.58053e-07
1.00824e-06
-1.33281e-08
1.01107e-06
-6.47918e-08
3.44696e-10
1.64245e-06
1.85942e-08
1.66244e-06
5.96897e-08
1.67861e-06
1.21645e-07
1.69159e-06
1.97991e-07
1.70317e-06
3.14102e-07
1.7087e-06
4.72669e-07
1.70545e-06
6.89217e-07
1.6973e-06
9.59515e-07
1.68545e-06
1.26264e-06
1.67538e-06
1.62538e-06
1.67929e-06
2.05384e-06
1.69972e-06
2.49763e-06
1.72505e-06
2.90781e-06
1.73636e-06
3.20449e-06
1.70223e-06
3.32708e-06
1.60526e-06
3.29749e-06
1.46534e-06
3.20625e-06
1.3201e-06
3.12796e-06
1.18962e-06
3.08252e-06
1.07373e-06
3.06377e-06
9.64908e-07
3.06793e-06
8.56988e-07
3.08737e-06
7.48802e-07
3.11802e-06
6.34766e-07
3.1546e-06
5.1302e-07
3.19627e-06
3.81844e-07
3.24027e-06
2.33601e-07
3.26465e-06
7.08108e-08
3.26704e-06
-1.07585e-07
3.23648e-06
-2.95677e-07
3.16163e-06
-4.69375e-07
3.03266e-06
-3.08019e-07
-3.18506e-07
1.37852e-06
-3.13958e-07
1.42165e-06
-3.35611e-07
1.2946e-06
-2.9225e-07
1.33023e-06
-3.25044e-07
1.22994e-06
-2.89737e-07
1.08647e-06
-2.05624e-07
1.16933e-06
-2.76657e-07
1.10793e-06
-2.53007e-07
1.01889e-06
-1.1847e-07
1.03087e-06
-1.70042e-07
9.69222e-07
-1.5544e-08
9.71238e-07
-6.68242e-08
-4.14528e-09
1.62564e-06
9.18775e-09
1.65184e-06
4.58434e-08
1.67628e-06
1.04925e-07
1.69534e-06
1.8104e-07
1.70846e-06
2.99106e-07
1.71807e-06
4.64362e-07
1.7169e-06
6.85468e-07
1.70899e-06
9.59497e-07
1.69707e-06
1.26502e-06
1.68278e-06
1.61945e-06
1.68107e-06
2.03732e-06
1.69553e-06
2.4794e-06
1.71777e-06
2.89935e-06
1.73338e-06
3.2279e-06
1.71288e-06
3.39387e-06
1.63543e-06
3.39345e-06
1.50936e-06
3.30193e-06
1.36964e-06
3.20819e-06
1.23993e-06
3.14702e-06
1.12505e-06
3.1176e-06
1.01997e-06
3.11268e-06
9.20105e-07
3.12639e-06
8.17924e-07
3.15663e-06
7.10128e-07
3.19591e-06
5.93447e-07
3.24167e-06
4.67615e-07
3.29901e-06
3.22994e-07
3.34042e-06
1.57855e-07
3.36474e-06
-2.69003e-08
3.36026e-06
-2.31354e-07
3.31695e-06
-4.5097e-07
3.21635e-06
-3.23861e-07
-3.29154e-07
1.46724e-06
-3.53595e-07
1.51616e-06
-3.67412e-07
1.37052e-06
-3.54234e-07
1.41536e-06
-3.80443e-07
1.26508e-06
-3.27385e-07
1.30518e-06
-3.65131e-07
1.20041e-06
-3.20816e-07
1.04724e-06
-2.22004e-07
1.13435e-06
-3.0307e-07
1.0688e-06
-2.74571e-07
9.77551e-07
-1.24801e-07
9.88482e-07
-1.80986e-07
9.24845e-07
-1.75752e-08
9.2841e-07
-7.04091e-08
-9.63315e-09
1.60175e-06
2.73301e-10
1.63454e-06
3.19403e-08
1.6657e-06
8.94851e-08
1.69168e-06
1.67043e-07
1.70917e-06
2.86488e-07
1.72093e-06
4.61279e-07
1.72099e-06
6.89011e-07
1.7131e-06
9.66826e-07
1.70142e-06
1.27498e-06
1.68667e-06
1.6222e-06
1.6798e-06
2.03092e-06
1.6872e-06
2.46909e-06
1.7056e-06
2.89311e-06
1.72385e-06
3.24587e-06
1.71534e-06
3.45095e-06
1.65577e-06
3.48398e-06
1.54482e-06
3.40127e-06
1.41005e-06
3.29576e-06
1.28206e-06
3.21593e-06
1.17102e-06
3.17212e-06
1.07051e-06
3.15677e-06
9.75842e-07
3.16502e-06
8.81408e-07
3.19137e-06
7.83053e-07
3.23069e-06
6.75198e-07
3.28114e-06
5.53943e-07
3.34788e-06
4.18855e-07
3.40538e-06
2.57924e-07
3.45117e-06
7.14383e-08
3.47575e-06
-1.42396e-07
3.46701e-06
-3.81387e-07
3.40698e-06
-3.22935e-07
-3.18607e-07
1.56967e-06
-3.77367e-07
1.62348e-06
-3.82934e-07
1.46512e-06
-4.03339e-07
1.51979e-06
-4.22053e-07
1.35049e-06
-3.99527e-07
1.40156e-06
-4.31492e-07
1.2378e-06
-3.64761e-07
1.28094e-06
-4.08254e-07
1.1667e-06
-3.53164e-07
1.00375e-06
-2.37277e-07
1.09494e-06
-3.29206e-07
1.02413e-06
-2.94956e-07
9.33793e-07
-1.30204e-07
9.43178e-07
-1.90387e-07
8.81026e-07
-1.9678e-08
8.85446e-07
-7.48537e-08
-1.53446e-08
1.56887e-06
-8.73132e-09
1.61077e-06
1.83664e-08
1.64816e-06
7.41016e-08
1.68101e-06
1.54444e-07
1.70401e-06
2.78383e-07
1.71702e-06
4.65153e-07
1.71685e-06
7.01239e-07
1.7085e-06
9.83106e-07
1.69653e-06
1.29188e-06
1.68417e-06
1.63392e-06
1.67474e-06
2.0349e-06
1.67553e-06
2.46681e-06
1.68931e-06
2.89152e-06
1.70702e-06
3.26135e-06
1.70827e-06
3.50053e-06
1.66568e-06
3.56795e-06
1.57178e-06
3.50012e-06
1.44598e-06
3.38646e-06
1.31939e-06
3.29043e-06
1.20756e-06
3.23188e-06
1.11124e-06
3.20172e-06
1.02553e-06
3.20081e-06
9.40008e-07
3.22214e-06
8.50639e-07
3.26104e-06
7.52797e-07
3.31353e-06
6.42767e-07
3.38395e-06
5.17868e-07
3.45724e-06
3.66919e-07
3.52339e-06
1.85571e-07
3.57612e-06
-2.89274e-08
3.60549e-06
-2.80877e-07
3.59274e-06
-2.92541e-07
-2.74539e-07
1.68255e-06
-3.81984e-07
1.73802e-06
-3.74033e-07
1.57931e-06
-4.36852e-07
1.64343e-06
-4.46989e-07
1.45899e-06
-4.60737e-07
1.5243e-06
-4.87293e-07
1.33151e-06
-4.5007e-07
1.39123e-06
-4.91146e-07
1.2061e-06
-4.04137e-07
1.25454e-06
-4.56656e-07
1.12858e-06
-3.86782e-07
9.56724e-07
-2.5083e-07
1.05128e-06
-3.5634e-07
9.76322e-07
-3.14548e-07
8.88653e-07
-1.33437e-07
8.95577e-07
-1.97328e-07
8.36279e-07
-2.04616e-08
8.38671e-07
-7.7276e-08
-2.22422e-08
1.52646e-06
-1.81854e-08
1.57838e-06
6.78231e-09
1.62235e-06
6.01712e-08
1.66192e-06
1.45037e-07
1.69026e-06
2.78603e-07
1.70373e-06
4.78502e-07
1.70351e-06
7.24197e-07
1.69357e-06
1.01008e-06
1.6812e-06
1.31885e-06
1.66924e-06
1.65807e-06
1.65976e-06
2.05052e-06
1.6589e-06
2.47421e-06
1.66789e-06
2.8963e-06
1.6843e-06
3.27692e-06
1.69134e-06
3.54509e-06
1.66363e-06
3.64675e-06
1.58687e-06
3.59831e-06
1.47356e-06
3.48034e-06
1.35206e-06
3.36776e-06
1.2421e-06
3.29201e-06
1.1474e-06
3.24951e-06
1.06341e-06
3.23644e-06
9.89866e-07
3.25014e-06
9.11961e-07
3.28452e-06
8.27058e-07
3.33723e-06
7.28954e-07
3.40903e-06
6.17647e-07
3.49649e-06
4.78793e-07
3.58001e-06
3.10195e-07
3.65861e-06
1.02968e-07
3.72289e-06
-1.46269e-07
3.75815e-06
-2.36033e-07
-2.10205e-07
1.79908e-06
-3.53537e-07
1.85127e-06
-3.26632e-07
1.71168e-06
-4.50119e-07
1.78274e-06
-4.44901e-07
1.59908e-06
-5.11482e-07
1.68414e-06
-5.31764e-07
1.46428e-06
-5.33656e-07
1.55571e-06
-5.78422e-07
1.31648e-06
-5.11926e-07
1.40022e-06
-5.74657e-07
1.17281e-06
-4.48327e-07
1.23596e-06
-5.19675e-07
1.0893e-06
-4.24755e-07
9.06952e-07
-2.62209e-07
1.00682e-06
-3.86799e-07
9.2749e-07
-3.3506e-07
8.4135e-07
-1.36146e-07
8.45879e-07
-2.01875e-07
7.93971e-07
-2.02285e-08
7.94249e-07
-7.75935e-08
-2.99484e-08
1.47367e-06
-2.86533e-08
1.5369e-06
-3.26913e-09
1.58825e-06
4.81341e-08
1.63406e-06
1.39681e-07
1.66719e-06
2.88955e-07
1.67964e-06
5.04283e-07
1.67748e-06
7.59916e-07
1.66743e-06
1.04849e-06
1.65479e-06
1.35723e-06
1.64237e-06
1.69381e-06
1.63314e-06
2.0777e-06
1.63222e-06
2.49258e-06
1.64028e-06
2.90861e-06
1.65539e-06
3.29471e-06
1.66638e-06
3.58583e-06
1.6505e-06
3.71991e-06
1.5904e-06
3.69493e-06
1.49019e-06
3.5784e-06
1.3755e-06
3.45121e-06
1.26855e-06
3.35623e-06
1.17787e-06
3.29776e-06
1.09914e-06
3.27168e-06
1.02815e-06
3.27804e-06
9.6193e-07
3.3042e-06
8.92215e-07
3.35395e-06
8.10339e-07
3.4232e-06
7.14691e-07
3.52126e-06
5.92859e-07
3.61916e-06
4.39769e-07
3.72048e-06
2.48198e-07
3.81524e-06
1.05119e-08
3.90038e-06
-1.59695e-07
-1.2868e-07
1.90803e-06
-2.92694e-07
1.95241e-06
-2.54487e-07
1.85502e-06
-4.25515e-07
1.92481e-06
-3.95995e-07
1.77935e-06
-5.44787e-07
1.88217e-06
-5.46838e-07
1.67021e-06
-6.25331e-07
1.81002e-06
-6.70325e-07
1.51879e-06
-6.51655e-07
1.68308e-06
-7.41442e-07
1.33548e-06
-6.11097e-07
1.49331e-06
-7.31563e-07
1.15155e-06
-5.1042e-07
1.26936e-06
-6.37024e-07
1.06575e-06
-4.83532e-07
8.56297e-07
-2.7262e-07
9.79621e-07
-4.38803e-07
8.96794e-07
-3.7548e-07
7.94901e-07
-1.36834e-07
7.95965e-07
-2.02954e-07
7.55586e-07
-1.93144e-08
7.54043e-07
-7.61024e-08
-3.83591e-08
1.40885e-06
-4.0397e-08
1.48538e-06
-1.39057e-08
1.54751e-06
3.89372e-08
1.59759e-06
1.40836e-07
1.63288e-06
3.12233e-07
1.64355e-06
5.4472e-07
1.63888e-06
8.09311e-07
1.62783e-06
1.09915e-06
1.61642e-06
1.4071e-06
1.60457e-06
1.7398e-06
1.59608e-06
2.11533e-06
1.59516e-06
2.52121e-06
1.60332e-06
2.93e-06
1.61867e-06
3.31671e-06
1.63322e-06
3.62426e-06
1.62784e-06
3.7878e-06
1.58253e-06
3.78905e-06
1.49628e-06
3.67924e-06
1.38935e-06
3.5407e-06
1.28598e-06
3.42655e-06
1.19824e-06
3.34952e-06
1.12609e-06
3.30724e-06
1.06348e-06
3.29956e-06
1.00657e-06
3.31978e-06
9.46349e-07
3.3675e-06
8.78614e-07
3.43242e-06
8.01064e-07
3.53285e-06
7.02993e-07
3.63963e-06
5.7246e-07
3.75723e-06
4.02969e-07
3.88074e-06
1.82572e-07
4.01002e-06
-7.2832e-08
-2.64745e-08
2.00166e-06
-2.08786e-07
2.03684e-06
-1.63711e-07
1.99063e-06
-3.57975e-07
2.04998e-06
-3.13231e-07
1.98843e-06
-5.30478e-07
2.0915e-06
-4.97345e-07
1.97124e-06
-7.03931e-07
2.14566e-06
-7.18219e-07
1.89281e-06
-8.32631e-07
2.13837e-06
-9.12067e-07
1.72343e-06
-8.79649e-07
2.01678e-06
-1.03099e-06
1.47425e-06
-8.14672e-07
1.77167e-06
-1.026e-06
1.19879e-06
-6.4293e-07
1.44842e-06
-8.85088e-07
1.12085e-06
-6.24262e-07
8.22848e-07
-2.99479e-07
1.0319e-06
-5.73546e-07
9.35328e-07
-4.87794e-07
7.49051e-07
-1.31883e-07
7.59549e-07
-2.13474e-07
7.22989e-07
-1.76422e-08
7.1506e-07
-6.82391e-08
-4.78324e-08
1.32952e-06
-5.28452e-08
1.42125e-06
-2.35436e-08
1.49503e-06
3.47745e-08
1.55154e-06
1.50875e-07
1.58711e-06
3.50544e-07
1.59405e-06
6.00375e-07
1.58745e-06
8.72277e-07
1.57549e-06
1.16251e-06
1.56411e-06
1.46927e-06
1.55383e-06
1.79725e-06
1.54675e-06
2.16408e-06
1.54698e-06
2.55981e-06
1.5562e-06
2.95982e-06
1.57325e-06
3.34336e-06
1.59179e-06
3.66204e-06
1.5953e-06
3.85074e-06
1.56479e-06
3.87841e-06
1.49312e-06
3.78064e-06
1.39482e-06
3.63535e-06
1.29469e-06
3.50412e-06
1.20837e-06
3.40758e-06
1.14013e-06
3.3465e-06
1.08681e-06
3.32077e-06
1.04223e-06
3.32873e-06
9.97519e-07
3.36816e-06
9.45619e-07
3.43365e-06
8.77296e-07
3.53053e-06
8.03309e-07
3.646e-06
6.96529e-07
3.77193e-06
5.57918e-07
3.91428e-06
3.69352e-07
4.06573e-06
1.26877e-07
2.07288e-06
-1.0876e-07
2.09382e-06
-4.73465e-08
2.10335e-06
-2.6145e-07
2.149e-06
-2.08662e-07
2.18632e-06
-4.50675e-07
2.26836e-06
-3.92843e-07
2.32107e-06
-7.01882e-07
2.486e-06
-6.57367e-07
2.40386e-06
-9.64147e-07
2.67007e-06
-9.77837e-07
2.34749e-06
-1.15785e-06
2.69038e-06
-1.24804e-06
2.13328e-06
-1.23642e-06
2.52288e-06
-1.41426e-06
1.79883e-06
-1.1616e-06
2.19668e-06
-1.41875e-06
1.3987e-06
-9.19219e-07
1.7774e-06
-1.26027e-06
1.3184e-06
-9.09476e-07
8.40339e-07
-3.80289e-07
1.20815e-06
-8.45605e-07
1.07905e-06
-7.26337e-07
7.14131e-07
-1.31014e-07
7.58965e-07
-2.58441e-07
6.995e-07
-1.44414e-08
6.89051e-07
-5.78803e-08
-5.87482e-08
1.23201e-06
-6.49998e-08
1.34164e-06
-3.09631e-08
1.42862e-06
3.67188e-08
1.49284e-06
1.74407e-07
1.52736e-06
4.05766e-07
1.53146e-06
6.70728e-07
1.52335e-06
9.48875e-07
1.51041e-06
1.23908e-06
1.49847e-06
1.54328e-06
1.48971e-06
1.86595e-06
1.48468e-06
2.22346e-06
1.48701e-06
2.60814e-06
1.49826e-06
2.99803e-06
1.51778e-06
3.37583e-06
1.54057e-06
3.70046e-06
1.55325e-06
3.90923e-06
1.53675e-06
3.96289e-06
1.48027e-06
3.8813e-06
1.3925e-06
3.73414e-06
1.29605e-06
3.58802e-06
1.21077e-06
3.47242e-06
1.14353e-06
3.3918e-06
1.0948e-06
3.34662e-06
1.06092e-06
3.33655e-06
1.03434e-06
3.36282e-06
1.00278e-06
3.42145e-06
9.57731e-07
3.51303e-06
8.94705e-07
3.64129e-06
8.07916e-07
3.77029e-06
6.98164e-07
3.92482e-06
5.47313e-07
4.09508e-06
3.4006e-07
-2.18937e-06
4.327e-06
1.88399e-08
6.49975e-08
2.17699e-06
-1.36105e-07
-5.90927e-08
2.33425e-06
-3.24635e-07
2.38355e-06
-2.552e-07
2.63241e-06
-5.91407e-07
2.75194e-06
-5.06125e-07
2.92124e-06
-9.45365e-07
3.14503e-06
-8.72581e-07
3.02667e-06
-1.29231e-06
3.34323e-06
-1.28534e-06
2.9069e-06
-1.5343e-06
3.27705e-06
-1.6098e-06
2.60027e-06
-1.63356e-06
2.9966e-06
-1.80325e-06
2.18014e-06
-1.55963e-06
2.57343e-06
-1.80625e-06
1.69781e-06
-1.29567e-06
2.08572e-06
-1.64422e-06
1.57249e-06
-1.27177e-06
9.42696e-07
-5.64368e-07
1.415e-06
-1.18066e-06
1.24226e-06
-1.02621e-06
7.0589e-07
-1.48012e-07
8.14823e-07
-3.67979e-07
6.87816e-07
-8.51109e-09
6.8256e-07
-5.27835e-08
-7.15221e-08
1.10991e-06
-7.64456e-08
1.24343e-06
-3.44492e-08
1.34498e-06
4.78339e-08
1.41715e-06
2.1783e-07
1.44866e-06
4.78847e-07
1.45387e-06
7.54428e-07
1.44729e-06
1.03718e-06
1.43464e-06
1.32726e-06
1.4217e-06
1.62779e-06
1.4135e-06
1.94522e-06
1.41005e-06
2.29344e-06
1.41434e-06
2.66651e-06
1.42835e-06
3.04441e-06
1.45158e-06
3.4138e-06
1.4796e-06
3.73968e-06
1.50117e-06
3.96377e-06
1.49863e-06
4.04159e-06
1.45798e-06
3.97856e-06
1.38296e-06
3.83499e-06
1.29165e-06
3.67847e-06
1.20563e-06
3.54518e-06
1.13801e-06
3.44435e-06
1.09095e-06
3.37696e-06
1.06442e-06
3.34655e-06
1.05087e-06
3.35577e-06
1.04133e-06
3.40198e-06
1.02218e-06
3.48606e-06
9.84602e-07
3.6149e-06
9.20986e-07
3.75542e-06