/*--------------------------------*- C++ -*----------------------------------*\
  =========                 |
  \\      /  F ield         | OpenFOAM: The Open Source CFD Toolbox
   \\    /   O peration     | Website:  https://openfoam.org
    \\  /    A nd           | Version:  dev
     \\/     M anipulation  |
\*---------------------------------------------------------------------------*/
FoamFile
{
    version     2.0;
    format      ascii;
    class       volScalarField;
    location    "2500";
    object      qr;
}
// * * * * * * * * * * * * * * * * * * * * * * * * * * * * * * * * * * * * * //

dimensions      [1 0 -3 0 0 0 0];

internalField   uniform 0;

boundaryField
{
    lowerOutlet
    {
        type            calculated;
        value           nonuniform List<scalar> 
144
(
1048.09
1051.56
1055.38
1059.56
1064.09
1068.98
1074.25
1079.91
1085.96
1092.43
1099.32
1106.67
1114.49
1122.82
1131.67
1141.09
1151.12
1161.81
1173.2
1185.37
1198.38
1212.32
1227.29
1243.4
1260.84
1279.77
1300.39
1322.92
1347.67
1375.02
1405.45
1439.5
1477.92
1511.19
1559.92
1616.66
1683.46
1763.21
1860.32
1981.44
2137.4
2344.47
2626.62
2985.88
3696.76
4377.36
5143.21
7189.75
-8012.15
3424.81
2905.68
2561.11
2314.21
2107.91
1968.4
1857.87
1767.91
1693.52
1630.82
1577.1
1530.43
1489.41
1453.11
1412.6
1384.17
1358.34
1334.74
1313.09
1293.14
1274.67
1257.52
1241.56
1226.68
1212.77
1199.73
1187.47
1175.93
1165.07
1154.82
1145.15
1136.01
1127.38
1119.23
1111.53
1104.25
1097.39
1090.91
1084.82
1079.08
1073.7
1068.65
1063.94
1059.56
1055.49
1051.74
1048.3
1917.33
2054.18
2233.35
2473.86
2826.96
3549.39
4212.69
5022.12
6491.22
6172.56
3606.03
3013.98
2636.06
2369.09
2191.03
2033.82
1910.16
1810.66
1729.04
1660.9
1721.49
1809.25
3861.43
4534.71
5874.17
7491.42
4069.27
3270.18
2807.55
2492.09
2263.22
1602.97
1552.98
3413.58
4037.26
4647.34
6264.68
7736.14
3821.64
3134.63
2717.93
2428.24
1534.66
1587.18
1648.66
1509.27
1470.72
1436.47
)
;
    }
    top
    {
        type            calculated;
        value           nonuniform List<scalar> 
100
(
961.082
963.883
966.709
960.998
962.307
963.662
964.975
966.306
967.697
969.155
970.681
972.306
974.018
975.787
977.592
979.329
980.914
981.961
980.234
969.498
946.178
919.819
908.865
910.552
926.204
957.949
986.523
999.416
1005.26
1007.59
1007.36
1007.31
1008.75
1010.98
1015.22
1020.71
1026.71
1031.87
1035.02
1037.13
1038.75
1040.17
1041.43
1042.55
1043.56
1044.47
1045.28
1046
1046.64
1047.19
1047.63
1047.97
1048.24
1048.41
1048.49
1048.51
1048.43
1048.35
1048.04
1047.67
1047.28
1046.64
1045.94
1045.09
1044.06
1042.97
1041.72
1040.32
1038.8
1037.19
1035.46
1033.71
1032.03
1030.34
1028.96
1028.15
1038.6
1036.22
1033.78
1031.29
1028.74
1026.14
1023.5
1020.82
1018.1
1015.35
1012.58
1009.77
1006.95
1004.11
998.802
995.017
991.099
987.214
983.315
979.952
977.126
974.995
973.71
973.064
)
;
    }
    sides
    {
        type            calculated;
        value           nonuniform List<scalar> 
100
(
1048.1
1050.9
1053.37
1055.51
1057.31
1058.8
1059.96
1060.81
1061.36
1061.62
1061.6
1061.3
1060.75
1059.94
1058.91
1057.65
1056.19
1054.53
1052.69
1050.68
1048.52
1046.21
1043.77
1041.22
1038.55
1035.79
1032.94
1030.01
1027.02
1023.96
1020.86
1017.71
1014.53
1011.32
1008.09
1004.85
1001.6
998.35
995.107
991.875
988.659
985.464
982.294
979.153
976.045
972.971
969.935
966.938
963.98
961.099
1048.31
1051.15
1053.69
1055.94
1057.88
1059.54
1060.91
1062
1062.81
1063.36
1063.65
1063.69
1063.49
1063.05
1062.4
1061.54
1060.48
1059.24
1057.82
1056.23
1054.49
1052.61
1050.6
1048.46
1046.22
1043.87
1041.43
1038.9
1036.3
1033.64
1030.91
1028.13
1025.3
1022.44
1019.54
1016.62
1013.67
1010.71
1007.74
1004.76
1001.77
998.787
995.801
992.82
989.845
986.878
983.921
980.974
978.039
975.151
)
;
    }
    front
    {
        type            empty;
    }
    back
    {
        type            empty;
    }
    roller
    {
        type            calculated;
        value           nonuniform List<scalar> 
144
(
5970.22
4473.22
3246.53
1672.66
1369.79
1261.9
1220.43
1185.28
1208.37
9385.84
9309.86
6773.86
7555.04
2823.21
2124.1
2328.21
1710.37
1463.01
1279.19
1292.1
1227.46
1248.36
1200.07
1217.25
6086.53
6535.21
5306.65
2589.23
2444.37
2022.05
2604.72
2496.14
1647.4
1405.33
1405.75
1332.53
1182.58
9002.47
7411.76
5649.19
7037.75
4219.53
3863.83
3488.95
3697.63
2422.86
1829.88
1781.67
1750.06
2091.8
1489.59
1378.79
1354.15
1356.53
1344.6
1333.08
1196.39
1214.71
8135.79
9829.03
8627.77
2235.29
1563.04
1483.46
1422.3
1437.14
1179.82
1185.43
1196.93
10419.6
10362.9
3782.26
2755.99
2011.38
1585.24
1952.13
1786.58
1501.69
1737.07
1607.97
1435.91
1571.41
1526.77
1380.29
1280.14
1239.19
1187.84
1192.07
1206.25
1211.45
1179.94
1183.19
1193.99
8576.93
8045.98
4705.75
4892.76
4111.81
3028.9
1897.4
2171.71
1541.54
1466.4
1322.39
1311.84
1247.7
1268.86
1216.04
1227.6
1221.37
1180.33
1188.1
1199.72
1203.17
10178.6
10352.1
10176.4
9868.02
5265.36
3437.91
3130
2242.71
2351.95
2884.9
1955.29
1615.8
1894.35
1838.93
1521.02
1690.68
1647.63
1450.56
1390.79
1312.59
1295.18
1302.04
1236.36
1258.26
1211.63
1205.45
1232.88
1180.72
1181.47
1191
)
;
    }
    burner
    {
        type            calculated;
        value           nonuniform List<scalar> 
16
(
-123331
-117086
-114569
-116243
-118252
-114874
-115276
-123550
-121442
-116139
-114507
-117756
-119672
-115401
-114725
-120040
)
;
    }
}


// ************************************************************************* //
