/*--------------------------------*- C++ -*----------------------------------*\
  =========                 |
  \\      /  F ield         | OpenFOAM: The Open Source CFD Toolbox
   \\    /   O peration     | Website:  https://openfoam.org
    \\  /    A nd           | Version:  dev
     \\/     M anipulation  |
\*---------------------------------------------------------------------------*/
FoamFile
{
    version     2.0;
    format      ascii;
    class       volScalarField;
    location    "2500";
    object      rAU;
}
// * * * * * * * * * * * * * * * * * * * * * * * * * * * * * * * * * * * * * //

dimensions      [-1 3 1 0 0 0 0];

internalField   nonuniform List<scalar> 
9836
(
0.00821909
0.0082851
0.00823641
0.00826789
0.00839716
0.0081727
0.00823858
0.00839053
0.0084008
0.00811792
0.00821463
0.00838927
0.00838416
0.00841313
0.00806656
0.00819688
0.00839426
0.00837646
0.00839374
0.00842278
0.00801827
0.00818161
0.00840461
0.00837722
0.00837768
0.00840861
0.00842728
0.00797344
0.00816539
0.00841576
0.00838461
0.0083685
0.00839039
0.00841975
0.00842968
0.00793198
0.00814664
0.00842435
0.00839742
0.00836581
0.00837497
0.00840671
0.00842545
0.00843099
0.00789313
0.00812724
0.00842705
0.00841013
0.00836974
0.00836426
0.00839044
0.00841803
0.00842863
0.00843194
0.00785673
0.00811108
0.00842802
0.00841987
0.00837979
0.00835859
0.0083742
0.00840715
0.00842426
0.00843044
0.00843256
0.00782245
0.00809618
0.00842982
0.00842634
0.00839466
0.00835921
0.00836198
0.00839239
0.00841764
0.00842803
0.00843188
0.00843292
0.00779021
0.00808083
0.00843198
0.00843081
0.00840858
0.00836466
0.00835508
0.00837586
0.00840839
0.00842402
0.00843009
0.00843281
0.00843321
0.00775983
0.00806677
0.00843365
0.00843336
0.00841863
0.00837657
0.00835145
0.00836286
0.00839513
0.00841857
0.00842758
0.00843187
0.00843359
0.00843344
0.00773123
0.0080514
0.00843561
0.00843438
0.00842542
0.00839206
0.00835272
0.00835322
0.00838014
0.00841043
0.00842401
0.00843017
0.00843301
0.00843406
0.00843363
0.00770431
0.00803385
0.00843538
0.00843531
0.00842984
0.00840622
0.00835993
0.00834701
0.0083653
0.00839951
0.00841955
0.00842775
0.00843205
0.00843395
0.00843463
0.0084337
0.00767906
0.00801752
0.00843361
0.00843577
0.00843246
0.0084169
0.00837356
0.00834406
0.00835314
0.00838554
0.00841347
0.00842476
0.0084302
0.0084334
0.00843462
0.00843498
0.0084338
0.00765534
0.00800272
0.0084325
0.00843563
0.00843414
0.00842342
0.00838967
0.00834688
0.00834417
0.00836986
0.00840429
0.00842151
0.00842836
0.00843222
0.00843445
0.00843524
0.00843531
0.00843389
0.00763326
0.00798816
0.00843289
0.00843604
0.00843456
0.0084283
0.00840443
0.00835547
0.00833888
0.00835478
0.00839105
0.0084163
0.0084263
0.00843092
0.00843379
0.00843526
0.00843568
0.00843563
0.00843389
0.00761275
0.00797445
0.00843298
0.00843602
0.00843529
0.00843172
0.00841426
0.00837011
0.00833741
0.00834381
0.00837541
0.00840835
0.00842367
0.00842955
0.00843275
0.00843493
0.0084359
0.00843598
0.00843586
0.00843392
0.00759396
0.00796218
0.00843389
0.0084361
0.00843618
0.00843355
0.00842166
0.00838701
0.00834134
0.00833641
0.00835951
0.00839659
0.00841944
0.00842836
0.00843205
0.00843427
0.00843584
0.00843648
0.00843651
0.00843616
0.00843396
0.00757683
0.00794844
0.00843588
0.00843638
0.00843628
0.00843446
0.00842667
0.00840211
0.00835069
0.00833194
0.00834607
0.00838218
0.00841223
0.00842552
0.00843147
0.00843402
0.00843545
0.00843656
0.00843687
0.00843688
0.00843635
0.00843396
0.0075616
0.00793516
0.00843617
0.00843659
0.00843667
0.00843552
0.00842914
0.00841161
0.00836535
0.00833103
0.00833605
0.00836629
0.00840228
0.00842182
0.00842952
0.00843385
0.00843559
0.00843635
0.00843711
0.0084374
0.00843715
0.00843657
0.00843397
0.00754826
0.00792215
0.00843624
0.00843687
0.00843656
0.00843574
0.0084316
0.00841951
0.00838238
0.00833526
0.00832932
0.00835116
0.00838941
0.00841603
0.00842724
0.00843263
0.00843576
0.00843675
0.0084371
0.00843762
0.00843781
0.00843733
0.00843673
0.00843401
0.00753722
0.00790971
0.00843631
0.00843696
0.00843674
0.00843626
0.00843354
0.00842406
0.00839773
0.00834431
0.00832503
0.00833835
0.00837464
0.00840772
0.00842392
0.00843078
0.00843497
0.00843741
0.00843781
0.00843761
0.008438
0.00843808
0.00843763
0.00843689
0.008434
0.00752118
0.00789789
0.00843625
0.00843698
0.00843723
0.00843658
0.00843492
0.0084273
0.00840816
0.008359
0.00832399
0.00832885
0.00835865
0.00839684
0.00841977
0.00842885
0.00843344
0.00843667
0.00843871
0.00843865
0.00843817
0.00843842
0.00843846
0.00843787
0.00843705
0.00842486
0.00734362
0.00788688
0.0084364
0.00843727
0.00843741
0.0084372
0.00843584
0.00842945
0.00841559
0.00837531
0.00832789
0.00832223
0.00834374
0.00838317
0.00841304
0.00842654
0.0084321
0.00843547
0.00843806
0.00843973
0.00843926
0.00843863
0.00843887
0.0084387
0.0084381
0.00843744
0.00818305
0.00748739
0.00787671
0.00843638
0.00843742
0.00843772
0.00843752
0.00843586
0.00843131
0.00842074
0.00839082
0.00833636
0.0083182
0.00833129
0.008368
0.00840374
0.00842302
0.00843076
0.00843438
0.00843699
0.00843931
0.00844063
0.00843977
0.00843887
0.00843909
0.00843894
0.0084385
0.00840411
0.00839651
0.00751712
0.00786747
0.00843651
0.0084376
0.008438
0.00843758
0.00843693
0.00843212
0.00842416
0.00840192
0.00834913
0.00831661
0.00832237
0.00835241
0.00839177
0.00841786
0.00842894
0.0084337
0.00843615
0.00843843
0.00844035
0.00844132
0.00844015
0.00843927
0.00843941
0.00843929
0.00843864
0.0084379
0.00843395
0.0075204
0.00785906
0.00843645
0.00843764
0.0084382
0.0084381
0.00843757
0.00843329
0.00842692
0.00840901
0.0083643
0.00831941
0.00831569
0.00833799
0.00837817
0.00841013
0.00842634
0.00843255
0.00843578
0.00843777
0.00843932
0.00844124
0.00844187
0.0084405
0.00843942
0.00843974
0.00843944
0.00843864
0.00843802
0.00843352
0.0075265
0.00785113
0.00843637
0.00843787
0.00843849
0.00843857
0.00843755
0.00843465
0.00842814
0.00841509
0.0083791
0.00832562
0.00831209
0.0083256
0.00836343
0.0084004
0.00842226
0.00843132
0.00843532
0.00843721
0.00843889
0.00844027
0.00844183
0.0084423
0.00844072
0.00843964
0.00843979
0.00843936
0.00843843
0.00843784
0.00843262
0.00753797
0.00784381
0.00843665
0.0084379
0.00843891
0.00843897
0.00843859
0.0084362
0.00842923
0.00841889
0.00839164
0.00833615
0.00830926
0.00831694
0.00834857
0.00838848
0.00841624
0.00842954
0.00843441
0.00843718
0.00843874
0.00843975
0.00844084
0.00844228
0.00844266
0.00844097
0.00843971
0.0084396
0.00843895
0.00843791
0.00843743
0.00843123
0.0075571
0.00783755
0.00843676
0.00843787
0.00843942
0.00843927
0.00843918
0.00843663
0.00843049
0.0084216
0.00840089
0.00834925
0.00831004
0.00831019
0.00833427
0.00837549
0.00840838
0.00842626
0.00843369
0.00843673
0.00843855
0.00843972
0.00844055
0.00844125
0.00844264
0.00844293
0.00844101
0.00843948
0.00843909
0.00843816
0.00843705
0.00843631
0.00843065
0.00758063
0.00782952
0.00843663
0.00843842
0.00843945
0.00843946
0.00843958
0.00843763
0.00843178
0.00842314
0.00840693
0.00836318
0.00831433
0.00830618
0.00832231
0.00836119
0.00839853
0.00842173
0.00843235
0.00843636
0.00843839
0.00843969
0.0084405
0.00844094
0.00844155
0.00844289
0.00844302
0.00844068
0.00843878
0.00843806
0.00843679
0.00843619
0.00843641
0.00842513
0.00673246
0.00822303
0.00782007
0.00843293
0.00843859
0.00843972
0.00844003
0.00843963
0.00843816
0.00843291
0.0084244
0.00841114
0.00837591
0.00832129
0.0083035
0.00831357
0.00834781
0.0083874
0.00841578
0.00843002
0.00843576
0.00843822
0.00843958
0.0084405
0.00844101
0.00844106
0.00844147
0.00844291
0.00844251
0.00843979
0.00843741
0.00843676
0.00843728
0.0084209
0.00849507
0.00824252
0.00824058
0.00678082
0.00823384
0.00781058
0.0084258
0.00843912
0.00844
0.00844032
0.00844003
0.00843913
0.00843405
0.00842471
0.0084135
0.00838619
0.00833065
0.00830169
0.00830679
0.0083345
0.00837591
0.00840854
0.00842696
0.00843485
0.00843806
0.00843977
0.0084407
0.00844118
0.00844123
0.00844108
0.0084416
0.00844234
0.00844149
0.00843847
0.00843742
0.00844053
0.00842664
0.00836216
0.00820326
0.00823793
0.00838513
0.00824771
0.00825133
0.00825138
0.00683373
0.00825815
0.00779947
0.00841724
0.00843916
0.00844021
0.00844075
0.00844043
0.00843927
0.00843448
0.00842528
0.0084149
0.00839322
0.008341
0.00830281
0.00830152
0.00832216
0.00836296
0.00840007
0.00842341
0.00843407
0.00843798
0.00843975
0.0084406
0.00844131
0.00844143
0.00844122
0.00844099
0.00844086
0.00844096
0.00844127
0.00844126
0.00844675
0.00843137
0.00821909
0.00822922
0.00823244
0.00825295
0.00825718
0.0082616
0.00827337
0.00827162
0.0068864
0.00827797
0.00776729
0.00840442
0.00843955
0.0084408
0.00844056
0.00844083
0.00843939
0.00843452
0.00842516
0.0084147
0.00839714
0.00835087
0.00830613
0.00829889
0.00831273
0.00834978
0.00838944
0.00841781
0.00843269
0.00843844
0.0084405
0.00844117
0.00844142
0.00844151
0.00844123
0.00844098
0.00844038
0.00844003
0.0084412
0.0084488
0.00845424
0.00843548
0.00823652
0.00824155
0.00824534
0.00825539
0.00826241
0.0082724
0.00826901
0.00827777
0.00829201
0.00828789
0.0069376
0.00829296
0.00771083
0.00836315
0.00843993
0.00844057
0.00844097
0.00844142
0.00843953
0.0084345
0.00842454
0.00841402
0.00839916
0.00835887
0.00831024
0.0082504
0.00830604
0.00833864
0.00837859
0.00841044
0.00842937
0.00843812
0.00844142
0.00844256
0.00844253
0.00844206
0.00844141
0.00844088
0.00844032
0.00843934
0.00844142
0.00845222
0.00846206
0.00844149
0.00824683
0.00825138
0.00826109
0.00826606
0.00826953
0.00827575
0.00827271
0.00828699
0.00828259
0.00828942
0.00830666
0.00830058
0.00698801
0.00830329
0.00771939
0.00826838
0.00843854
0.00844082
0.00844116
0.00844111
0.0083981
0.00837509
0.00838828
0.00840325
0.00825838
0.00836523
0.00831523
0.00824782
0.00830001
0.00832748
0.0083684
0.00840319
0.0084254
0.0084364
0.00844103
0.00844337
0.00844408
0.00844369
0.00844271
0.00844099
0.0084402
0.00843888
0.00844146
0.00845407
0.00846517
0.00844802
0.00825978
0.00826383
0.00827043
0.00827279
0.00827743
0.00827715
0.00828051
0.00828575
0.00828493
0.00829783
0.0082932
0.00829758
0.00831709
0.00830995
0.00704118
0.00831009
0.00774327
0.00825705
0.00841165
0.00844078
0.00844102
0.00841718
0.0083565
0.00834665
0.00837443
0.0083953
0.00819198
0.0083087
0.0083205
0.00829306
0.0082949
0.00831656
0.00835687
0.00839478
0.00842134
0.00843521
0.00844094
0.00844288
0.00844444
0.00844501
0.00844449
0.00844275
0.00844055
0.008439
0.00844063
0.00845403
0.00846649
0.00845187
0.0082658
0.00826185
0.00827368
0.00826188
0.00827136
0.00825364
0.00828097
0.00826028
0.00828773
0.0082791
0.00828997
0.00830564
0.00829465
0.00829766
0.00832337
0.00831664
0.00709433
0.00831338
0.00786565
0.00825231
0.00838567
0.00844056
0.00844111
0.00841078
0.00838815
0.00840377
0.00840802
0.0084027
0.00833016
0.00828961
0.00832522
0.00829348
0.00829145
0.00830766
0.00834513
0.00838463
0.00841513
0.00843298
0.00844145
0.00844408
0.0084444
0.008445
0.00844508
0.00844451
0.00844271
0.00843995
0.00843988
0.00845304
0.00846584
0.00845449
0.00825575
0.0082475
0.00824781
0.00821943
0.0082296
0.00818379
0.0082296
0.00818148
0.00824699
0.00819513
0.00826808
0.00823342
0.00826403
0.00830603
0.00826734
0.00827171
0.00832619
0.00831737
0.00714632
0.00831422
0.00788312
0.00835105
0.0083475
0.00842019
0.0084349
0.00843381
0.00842813
0.00842943
0.00841825
0.00840624
0.00839667
0.0083517
0.0083289
0.00829433
0.00828925
0.00830106
0.00833499
0.00837442
0.00840743
0.00842874
0.00844006
0.00844508
0.00844631
0.00844603
0.00844531
0.00844442
0.00844389
0.00844192
0.00844089
0.00845255
0.00846476
0.00845773
0.00824082
0.00823847
0.00818412
0.00815589
0.00815368
0.0081234
0.00814775
0.00809971
0.00815744
0.00810245
0.00818744
0.008131
0.00821246
0.00817636
0.00821435
0.00828243
0.00822034
0.00821406
0.00832538
0.0082929
0.00719048
0.00831067
0.00790494
0.00831326
0.00830369
0.0083863
0.00841864
0.00843327
0.00843416
0.00842623
0.00841464
0.00840277
0.00839355
0.00837326
0.0083314
0.00829543
0.00828759
0.00829626
0.00832628
0.00836505
0.00839964
0.00842385
0.00843732
0.00844398
0.00844717
0.00844829
0.00844773
0.00844611
0.00844378
0.00844255
0.00844133
0.00845189
0.00846513
0.00846518
0.00823567
0.0082431
0.00814091
0.00813453
0.00808838
0.00805382
0.00804507
0.00798569
0.00803025
0.00794528
0.00805167
0.00794717
0.00810941
0.00799685
0.00816416
0.0080862
0.00814729
0.00823775
0.00812517
0.00812466
0.00830799
0.00824663
0.00721938
0.00829913
0.00793208
0.00831115
0.00824032
0.00835241
0.00839573
0.00842349
0.00843115
0.00842193
0.00841047
0.00839886
0.0083897
0.00837125
0.00833252
0.00829651
0.0082862
0.00829272
0.00831852
0.00835641
0.00839196
0.00841887
0.00843463
0.0084425
0.00844633
0.00844867
0.00844965
0.0084491
0.00844657
0.00844318
0.00844052
0.00844785
0.00846357
0.00847196
0.0082546
0.008073
0.0081304
0.00814131
0.00802596
0.0080057
0.00792477
0.00786622
0.00785487
0.00776697
0.00782845
0.00771243
0.00785422
0.00771668
0.00794508
0.00777584
0.00804414
0.0079013
0.00802475
0.0081303
0.00801063
0.00802713
0.00823963
0.0081573
0.00721596
0.00825344
0.00796591
0.00831736
0.00822861
0.00831794
0.00838343
0.00841465
0.00842699
0.00841731
0.00840553
0.00839444
0.00838519
0.00836817
0.00833217
0.008297
0.00828505
0.00828997
0.00831199
0.00834854
0.00838454
0.00841347
0.0084317
0.00844131
0.00844578
0.00844803
0.00844955
0.00845021
0.00844953
0.00844664
0.00844226
0.00844246
0.00845841
0.00846975
0.0083145
0.00815088
0.00796053
0.00799451
0.00800428
0.00781506
0.00777683
0.0076819
0.00760225
0.00760823
0.00752223
0.0075995
0.00751906
0.0076375
0.00756145
0.0077329
0.00761374
0.00787375
0.00771696
0.00787581
0.00802188
0.00789627
0.00790948
0.00812246
0.00802118
0.00716133
0.0081502
0.00800869
0.00832507
0.00823941
0.00830211
0.00838376
0.00841158
0.00842205
0.00841204
0.00840075
0.00839013
0.00838028
0.0083637
0.0083308
0.00829667
0.00828403
0.00828784
0.00830684
0.0083415
0.00837745
0.00840776
0.00842842
0.0084399
0.00844542
0.0084479
0.00844922
0.00844999
0.00844992
0.00844912
0.0084462
0.00844241
0.00845257
0.00846572
0.00845613
0.0080796
0.00810919
0.00801636
0.00802756
0.00775066
0.0077516
0.0075351
0.00748531
0.00745084
0.00739225
0.00747528
0.00737833
0.00749462
0.00738857
0.00756901
0.00745412
0.00763146
0.00754832
0.00771799
0.00765882
0.00774093
0.00794062
0.00777324
0.00782898
0.00806667
0.00800716
0.00696184
0.00786479
0.00806423
0.00833464
0.00825846
0.00831629
0.00838508
0.00841817
0.00841724
0.00840691
0.008396
0.00838538
0.00837506
0.00835863
0.00832847
0.00829589
0.00828289
0.0082861
0.00830283
0.00833559
0.00837097
0.00840212
0.00842479
0.0084381
0.00844487
0.00844797
0.00836159
0.00820783
0.00844985
0.00844917
0.0084479
0.00844544
0.00845029
0.00846246
0.00846462
0.00812461
0.00816549
0.00778522
0.00782572
0.00775587
0.00776061
0.00745096
0.00744464
0.00734636
0.00731053
0.00730037
0.00724828
0.00731682
0.0072396
0.00751442
0.00750113
0.00764907
0.00757825
0.00767634
0.00766648
0.00768687
0.00772755
0.00771919
0.0079033
0.00774483
0.00778158
0.00795374
0.00787181
0.00699324
0.00786062
0.00813936
0.00834608
0.00828179
0.00833926
0.00839211
0.00842201
0.00841232
0.0084023
0.00839161
0.00838089
0.0083698
0.00835316
0.00832465
0.00829438
0.0082816
0.00828461
0.00829978
0.00833063
0.00836514
0.00839672
0.00842095
0.00843592
0.00844392
0.00844768
0.00834869
0.00799437
0.0083608
0.00844922
0.00844785
0.00844578
0.00844975
0.00845981
0.00846381
0.00817443
0.00797663
0.00787481
0.00792531
0.00744353
0.00747692
0.0074391
0.0074315
0.00728281
0.00727532
0.00720683
0.00717834
0.00728726
0.00736018
0.0074271
0.00740251
0.00766051
0.00770864
0.00777961
0.00778868
0.00781455
0.00784867
0.00776809
0.00786441
0.00779368
0.00782743
0.00780504
0.00781458
0.00786303
0.00784534
0.00689406
0.00776354
0.00817572
0.00835751
0.00830897
0.00837048
0.00840005
0.00841617
0.00840743
0.00839811
0.0083878
0.0083767
0.00836487
0.00834736
0.00831999
0.00829177
0.00827997
0.00828316
0.0082975
0.0083265
0.00835989
0.0083916
0.00841704
0.00843356
0.00844264
0.00844714
0.00843591
0.00818534
0.00834339
0.00844125
0.00844793
0.00844507
0.00844672
0.00845517
0.00846381
0.00825739
0.00797369
0.00780825
0.00752737
0.00759646
0.00721061
0.00721222
0.00725482
0.00722554
0.00717798
0.00719925
0.00731833
0.00729201
0.00748665
0.00757317
0.00767357
0.00761622
0.00751843
0.00743291
0.0071237
0.00684828
0.00732112
0.00716548
0.00790457
0.00763396
0.00791851
0.00781519
0.00791757
0.00790118
0.00776164
0.0078322
0.00680872
0.00779069
0.0082629
0.00834251
0.00838704
0.00841395
0.00841039
0.00840267
0.0083944
0.00838434
0.00837303
0.0083597
0.00834132
0.00831447
0.0082881
0.0082777
0.00828159
0.00829567
0.00832311
0.00835506
0.00838657
0.00841312
0.00843112
0.00844135
0.00844647
0.00844865
0.00839696
0.00845012
0.0084352
0.00844823
0.00844551
0.00844411
0.00845053
0.00845901
0.00842986
0.0077908
0.00791154
0.0076706
0.00779374
0.00722724
0.0072636
0.00719241
0.00715954
0.00723349
0.00723624
0.00730316
0.00732388
0.00753283
0.00750479
0.0075423
0.0074623
0.00753162
0.00740501
0.00733624
0.0074004
0.00758545
0.00750795
0.00752395
0.00764987
0.00783868
0.00774928
0.0078965
0.00786379
0.00792225
0.00772763
0.00780314
0.00782587
0.0066295
0.0076954
0.00827338
0.00840068
0.00841156
0.00840469
0.00839817
0.00839081
0.00838145
0.00836927
0.00835489
0.00833476
0.00830838
0.00828336
0.00827445
0.00827956
0.00829401
0.00832013
0.0083425
0.00838134
0.00840889
0.00842868
0.00844008
0.00844561
0.0084475
0.00844803
0.0084483
0.00844828
0.00844751
0.00844748
0.00844604
0.00845065
0.00845335
0.00837593
0.007874
0.00783403
0.0074721
0.00755189
0.00732482
0.00740803
0.00713384
0.00712733
0.00731458
0.00726294
0.00728795
0.00736753
0.00749952
0.0074841
0.0073936
0.00735322
0.00727876
0.00716828
0.00724336
0.0071146
0.00731218
0.00716221
0.00747153
0.00728696
0.00770277
0.00748531
0.0078307
0.00749181
0.00765429
0.0077062
0.00768545
0.00568714
0.00590972
0.0077864
0.00766534
0.00619401
0.00766256
0.00841395
0.00840278
0.00839816
0.00839389
0.00838714
0.00837836
0.00836594
0.00834959
0.00832827
0.00830136
0.00827775
0.00826996
0.00827676
0.00829209
0.00831715
0.00824479
0.00834943
0.00840378
0.00842577
0.00843836
0.00844445
0.00844597
0.008446
0.00844517
0.00844474
0.00844466
0.00843816
0.00845034
0.00845092
0.00844876
0.00835812
0.00811706
0.00766164
0.00750699
0.00720585
0.00725973
0.00714479
0.0071707
0.00721749
0.00719117
0.00732917
0.00722239
0.00737966
0.00743008
0.00733952
0.00731777
0.0070926
0.00705379
0.00701471
0.00694068
0.00706077
0.00674643
0.00715562
0.00708175
0.00705445
0.00696353
0.00730559
0.00699638
0.00748877
0.00499092
0.00530491
0.00573678
0.00537861
0.00589918
0.00591064
0.00576087
0.00566482
0.00554166
0.00558309
0.00566865
0.0077226
0.00586627
0.00574209
0.00586172
0.00597223
0.00775478
0.00837938
0.00839055
0.00838784
0.00838387
0.00837474
0.00836199
0.00834451
0.00832111
0.00829385
0.00827082
0.00826432
0.00827267
0.00828949
0.00831363
0.00824631
0.00816911
0.00837874
0.00842059
0.00843517
0.00844252
0.00844434
0.00844385
0.00844226
0.00844084
0.0084341
0.00844336
0.00843949
0.00842789
0.00841822
0.00831026
0.00784226
0.00742505
0.00741503
0.00732524
0.00740942
0.0071208
0.00711763
0.00717036
0.00714266
0.0071291
0.00705314
0.00724435
0.00715269
0.00730089
0.0073071
0.00703293
0.00701087
0.00689691
0.00687442
0.0066432
0.00683699
0.00703728
0.00700738
0.0069225
0.00689295
0.00482078
0.00473577
0.00472633
0.00478854
0.00492458
0.00498635
0.00493243
0.00504843
0.00496266
0.00518342
0.00525867
0.00519505
0.00492538
0.00522128
0.00569844
0.00571448
0.00554936
0.00538471
0.00530532
0.0056287
0.00579841
0.00613724
0.00583878
0.0057196
0.00571277
0.00492315
0.00595718
0.00646543
0.00582339
0.00833686
0.00838175
0.00837857
0.00837136
0.00835748
0.00833886
0.00831404
0.00828577
0.00826296
0.00825708
0.00826732
0.00828554
0.00823688
0.00824874
0.0082173
0.00810489
0.00841085
0.00842889
0.00843883
0.00844197
0.00844177
0.0084397
0.00843877
0.00843986
0.00831497
0.00829192
0.0080894
0.00813391
0.00813696
0.00762897
0.00803115
0.00722928
0.00702879
0.00713635
0.00717231
0.00718194
0.00714846
0.00727807
0.00722814
0.00700314
0.00685361
0.00707449
0.00710622
0.00700937
0.00703526
0.00684958
0.00682323
0.00686542
0.00684817
0.00698324
0.00696517
0.00686204
0.00686028
0.00476722
0.00479135
0.00475622
0.00473628
0.00483029
0.00484846
0.0048743
0.00492925
0.00499871
0.00498022
0.00508288
0.00503383
0.00501329
0.00510327
0.00508617
0.00502405
0.00517404
0.00568058
0.00572878
0.00548944
0.0052512
0.00532817
0.0055698
0.00572944
0.00569785
0.00577343
0.00581647
0.00546965
0.0034007
0.00514211
0.00561718
0.00608296
0.00829487
0.00837379
0.00836624
0.00835283
0.00833309
0.00830706
0.00827789
0.00825505
0.00824901
0.00826032
0.00828024
0.00824585
0.00818055
0.00824853
0.00808139
0.00804742
0.00839277
0.008432
0.00843805
0.00843874
0.00843695
0.00843567
0.00842496
0.00830803
0.00804718
0.0076893
0.00782654
0.00812763
0.00791018
0.00824601
0.00734661
0.00707618
0.00715196
0.007165
0.00713455
0.00713426
0.00689538
0.00685125
0.00703152
0.00696025
0.00707263
0.006996
0.00685914
0.00692242
0.00681291
0.00682401
0.00681796
0.00678383
0.00695883
0.00694119
0.00685599
0.0068517
0.00469422
0.00469775
0.00470462
0.0047058
0.00486135
0.0048517
0.00482544
0.00481106
0.00499488
0.00501949
0.00499756
0.0050847
0.00514477
0.00510935
0.00521757
0.00519964
0.00511071
0.00514133
0.00519006
0.00516825
0.00520128
0.00564814
0.00572893
0.00542609
0.00524779
0.00529948
0.00551031
0.00589205
0.00564186
0.00581295
0.00591015
0.00603773
0.00404639
0.00625208
0.00569679
0.00654104
0.00825026
0.00836208
0.00834688
0.00832668
0.00830019
0.00827007
0.00824697
0.00824129
0.0082527
0.00827336
0.00825667
0.00821475
0.00825682
0.00828222
0.00789467
0.00830184
0.008365
0.00843226
0.00843436
0.00843232
0.00842634
0.00837177
0.00817829
0.00799509
0.00773012
0.00782579
0.00817595
0.00818757
0.00822709
0.0080675
0.00719916
0.0069353
0.00717991
0.0071846
0.00719982
0.00718314
0.00655057
0.00578985
0.00691969
0.00683606
0.00699315
0.00703869
0.0067636
0.00679463
0.00675909
0.00675025
0.0069026
0.00685548
0.00717452
0.00714542
0.00469834
0.00469695
0.00445286
0.00436909
0.0048199
0.00484886
0.00486932
0.00487711
0.00497608
0.00495534
0.00496385
0.00499044
0.00513071
0.00512193
0.00509032
0.00522772
0.00528724
0.00523805
0.00533018
0.00532231
0.00525843
0.00523284
0.00530399
0.0053022
0.00526927
0.00561384
0.00571937
0.00537316
0.00528523
0.00530921
0.00546488
0.00601762
0.00597805
0.0058311
0.0059696
0.00659706
0.00502847
0.00660653
0.00606848
0.00660484
0.00819935
0.00834245
0.00831904
0.00829203
0.0082608
0.00823708
0.00823166
0.00824464
0.00826562
0.00827089
0.00825676
0.00828244
0.00834732
0.00812337
0.00795828
0.00825357
0.0083788
0.00842879
0.00842601
0.00840947
0.00833249
0.00814207
0.00809598
0.00798446
0.00800242
0.00817823
0.00825285
0.00822148
0.00835829
0.00724391
0.00693165
0.00699379
0.00704087
0.00689698
0.00693762
0.00599063
0.00665196
0.00696899
0.00676583
0.0070519
0.00704879
0.00682571
0.00686498
0.00676891
0.00675975
0.00681082
0.00678057
0.0070901
0.00702281
0.0068969
0.00705289
0.00487561
0.0048759
0.00486405
0.00518619
0.00502843
0.00505778
0.00507454
0.00507552
0.00507487
0.005108
0.00515828
0.00520464
0.00522675
0.00520686
0.00519839
0.00534944
0.0053957
0.0053257
0.0054047
0.00541332
0.00537262
0.0053275
0.00538926
0.0054121
0.00534177
0.0055812
0.00570167
0.0053341
0.00533259
0.00532379
0.00543035
0.00606305
0.00603859
0.00583448
0.00597893
0.00653179
0.00531126
0.00643931
0.00611151
0.00643968
0.00813983
0.00831407
0.00828234
0.00825024
0.00822374
0.00821822
0.00823283
0.00825596
0.00827748
0.00828188
0.00831362
0.00834874
0.0081608
0.00755561
0.00790917
0.0083475
0.0084044
0.00841319
0.00838546
0.0082939
0.00817796
0.0081199
0.00812772
0.0081492
0.00818516
0.00819602
0.00816956
0.00824991
0.00802701
0.0068495
0.00665562
0.00673634
0.00679434
0.00669157
0.00669562
0.00669099
0.00668022
0.00699915
0.00695336
0.00691658
0.00696323
0.00675241
0.00675956
0.00684706
0.00679627
0.0069537
0.00689453
0.00700154
0.00723784
0.00498524
0.00494867
0.00488597
0.00492435
0.00506986
0.0050627
0.00505011
0.00504258
0.00523958
0.00526031
0.00526407
0.00525575
0.00524021
0.00531673
0.00537642
0.00541627
0.00530639
0.00532742
0.00538321
0.00544199
0.00546529
0.00539982
0.00547363
0.00546301
0.00544572
0.00539965
0.00544292
0.00548312
0.00538357
0.00555681
0.00568193
0.00530905
0.00536349
0.00531627
0.00541483
0.00604318
0.00602648
0.00583101
0.00594945
0.00641989
0.00530573
0.00651404
0.00620394
0.00641591
0.00807197
0.00827711
0.00823911
0.00821044
0.00820105
0.00821714
0.00824226
0.00826549
0.00827549
0.00831218
0.00828718
0.00805864
0.00765921
0.0075977
0.00825647
0.00836849
0.00837903
0.00833763
0.00822956
0.00810017
0.00807757
0.00810861
0.00810909
0.00811412
0.00805921
0.0080883
0.00811186
0.00828739
0.00677896
0.00648543
0.00672896
0.00670897
0.00674849
0.0067359
0.00686274
0.00679554
0.00696143
0.00694551
0.00681552
0.00683798
0.00677503
0.0067926
0.00675751
0.00673249
0.00697261
0.00688951
0.00714794
0.00705843
0.00484697
0.00513521
0.00713472
0.00515141
0.00510502
0.00501034
0.00506375
0.00524883
0.00523149
0.00521238
0.0051981
0.00544093
0.0054491
0.00534891
0.00524676
0.00545804
0.00553658
0.00558693
0.00561618
0.00542934
0.00551771
0.00560468
0.00549488
0.00549003
0.0055298
0.00560476
0.00551795
0.00548352
0.00542846
0.00545319
0.00551448
0.00539239
0.00553942
0.00567719
0.00531129
0.00535377
0.00530185
0.00541681
0.00600845
0.00608151
0.00581929
0.00591589
0.00649711
0.00505836
0.00686278
0.00633632
0.00649743
0.0079956
0.00823423
0.00819731
0.00818537
0.0081976
0.00822591
0.00825092
0.00826857
0.00826303
0.00825384
0.00804608
0.00790502
0.00780498
0.00809593
0.00824942
0.00828162
0.00825401
0.00814895
0.00805138
0.00804851
0.00802649
0.00801174
0.00786527
0.00790849
0.00789104
0.00814783
0.00814671
0.00780407
0.00634623
0.00615553
0.00653432
0.00644286
0.00666993
0.00660119
0.00681322
0.00674984
0.0068497
0.00684287
0.00672961
0.00674595
0.00671859
0.00671504
0.00682234
0.006774
0.00712317
0.00702406
0.0070512
0.00722868
0.00494993
0.00524466
0.00497376
0.00494163
0.00509157
0.00510317
0.00509525
0.00515609
0.00518965
0.00513267
0.00509235
0.00510597
0.00555646
0.00542296
0.00528535
0.00515956
0.00567625
0.00574745
0.00578841
0.00570017
0.00562322
0.00573944
0.00582307
0.00551108
0.00553067
0.00572527
0.00579323
0.00564303
0.00547909
0.00541652
0.00542488
0.00550268
0.0053616
0.00554375
0.00568825
0.00533347
0.00531854
0.00529403
0.00544322
0.00600232
0.00620425
0.00580543
0.00590611
0.00669685
0.00412483
0.00698041
0.00644456
0.00661679
0.00791265
0.00815556
0.00816786
0.00817991
0.00820577
0.00823307
0.00824375
0.00821614
0.00814851
0.00803195
0.00801112
0.00794401
0.00800052
0.00808274
0.00812498
0.00812995
0.00806748
0.00801657
0.0079693
0.00790158
0.00774943
0.00770817
0.00762083
0.00798356
0.00785395
0.00810727
0.00814502
0.00627848
0.00628259
0.00616284
0.00612732
0.00630636
0.00622681
0.00645529
0.00638056
0.00661272
0.00653272
0.00673504
0.00668811
0.00679374
0.00680057
0.00676416
0.00677515
0.00693991
0.00688946
0.00705402
0.0071909
0.00489613
0.005241
0.00718967
0.00503075
0.00499637
0.00503208
0.00498266
0.00490733
0.00490418
0.00500035
0.00494971
0.00508373
0.00500261
0.00494256
0.00493545
0.00553781
0.00537591
0.00521128
0.00506006
0.00588798
0.0059517
0.00589729
0.0057017
0.00584773
0.00596192
0.00603711
0.00554419
0.00565266
0.00594459
0.00599906
0.00582408
0.00544913
0.00536487
0.00538821
0.005515
0.00531363
0.00557374
0.00570888
0.00537643
0.00528875
0.00533326
0.00549518
0.00605339
0.00630429
0.00580918
0.00593108
0.0069959
0.00289151
0.00561253
0.00652129
0.00674386
0.00779364
0.00810459
0.00815724
0.0081865
0.00821295
0.00821169
0.00815248
0.00803996
0.00792765
0.00787258
0.00786785
0.00789475
0.00793646
0.00798087
0.00800545
0.00799481
0.00795377
0.00790802
0.00772636
0.00762542
0.00787526
0.00714209
0.00752927
0.00779913
0.00805058
0.00811043
0.00786808
0.0062801
0.00636992
0.00616443
0.00619839
0.0062124
0.00617226
0.00639095
0.00628011
0.00660798
0.00650456
0.00676817
0.00670138
0.00690518
0.00688465
0.00688629
0.00689836
0.0070986
0.00704526
0.00496058
0.00533567
0.00724079
0.00494809
0.00531334
0.00499914
0.0050299
0.00506036
0.00505649
0.00507077
0.00502624
0.00471391
0.00469843
0.00475683
0.0047185
0.00496003
0.00485763
0.00477665
0.0047531
0.00550988
0.00532116
0.00513204
0.00495678
0.00609427
0.00613756
0.00592396
0.00569915
0.00607867
0.00618185
0.00624762
0.00564954
0.00582074
0.00616458
0.00621755
0.0060213
0.00545966
0.00532478
0.00540425
0.0055908
0.00530803
0.0056251
0.00574196
0.00544368
0.00533546
0.00541542
0.00556582
0.00612401
0.00635519
0.00584631
0.00599005
0.0069987
0.00379602
0.00518491
0.0065116
0.00667149
0.0076986
0.00807643
0.00816152
0.00819167
0.00818222
0.00809131
0.00794395
0.00782067
0.00777515
0.00777833
0.00780795
0.00784752
0.00788864
0.00792627
0.00794873
0.00786284
0.00779269
0.00767774
0.00787465
0.00711622
0.0067974
0.00764168
0.00787756
0.00812032
0.0080711
0.00813827
0.00722298
0.00735839
0.00670232
0.00691064
0.00641306
0.00653499
0.00630854
0.00633663
0.00643605
0.00633488
0.00665749
0.00655058
0.00682883
0.00675059
0.00701612
0.00696468
0.00703649
0.00703525
0.00708587
0.00722253
0.00503746
0.00540014
0.00515341
0.00510467
0.00501488
0.00501845
0.00505348
0.00506536
0.00481442
0.00494713
0.00481676
0.00492395
0.00451533
0.00448644
0.0045138
0.00448269
0.00482807
0.00470688
0.00460918
0.00456786
0.00547966
0.00526682
0.00505879
0.00486174
0.00629914
0.0061944
0.00595088
0.00569884
0.00630704
0.00640312
0.00646654
0.00572109
0.00590189
0.00639195
0.00639654
0.00613562
0.00537237
0.00531955
0.00521837
0.00544224
0.00531529
0.00569819
0.00580189
0.00553379
0.00534155
0.0054562
0.0056737
0.00618552
0.00631966
0.00592915
0.00607781
0.00589841
0.00357368
0.00501189
0.0063514
0.00569323
0.00762272
0.00806193
0.0081693
0.00815305
0.00804446
0.00786588
0.00775155
0.00771987
0.00773404
0.00776882
0.00781172
0.00785343
0.00789312
0.00787621
0.00781047
0.00768951
0.00763871
0.00787454
0.00692666
0.00721334