/*--------------------------------*- C++ -*----------------------------------*\
  =========                 |
  \\      /  F ield         | OpenFOAM: The Open Source CFD Toolbox
   \\    /   O peration     | Website:  https://openfoam.org
    \\  /    A nd           | Version:  dev
     \\/     M anipulation  |
\*---------------------------------------------------------------------------*/
FoamFile
{
    version     2.0;
    format      ascii;
    class       volScalarField;
    location    "2500";
    object      rDeltaT;
}
// * * * * * * * * * * * * * * * * * * * * * * * * * * * * * * * * * * * * * //

dimensions      [0 0 -1 0 0 0 0];

internalField   nonuniform List<scalar> 
9836
(
100
100
100
100
100
100
100
100
100
100
100
100
100
100
100
100
100
100
100
100
100
100
100
100
100
100
100
100
100
100
100
100
100
100
100
100
100
100
100
100
100
100
100
100
100
100
100
100
100
100
100
100
100
100
100
100
100
100
100
100
100
100
100
100
100
100
100
100
100
100
100
100
100
100
100
100
100
100
100
100
100
100
100
100
100
100
100
100
100
100
100
100
100
100
100
100
100
100
100
100
100
100
100
100
100
100
100
100
100
100
100
100
100
100
100
100
100
100
100
100
100
100
100
100
100
100
100
100
100
100
100
100
100
100
100
100
100
100
100
100
100
100
100
100
100
100
100
100
100
100
100
100
100
100
100
100
100
100
100
100
100
100
100
100
100
100
100
100
100
100
100
100
100
100
100
100
100
100
100
100
100
100
100
100
100
100
100
100
100
100
100
100
100
100
100
100
100
100
100
100
100
100
100
100
100
100
100
100
100
100
100
100
100
100
100
100
100
100
100
100
100
100
100
100
100
100
100
100
100
100
100
100
100
100
100
100
100
100
100
100
100
100
100
100
100
100
100
100
100
100
100
100
100
100
100
100
100
100
100
100
100
100
100
100
100
100
100
100
100
100
100
100
100
100
100
100
100
100
100
100
100
100
100
100
100
100
100
100
100
100
100
100
100
100
100
100
100
100
100
100
100
100
100
100
100
100
100
100
100
100
100
100
100
100
100
100
100
100
100
100
100
100
100
100
100
100
100
100
100
100
100
100
100
100
100
100
100
100
100
100
100
100
100
100
100
100
100
100
100
100
100
100
100
100
100
100
100
100
100
100
100
100
100
100
100
100
100
100
100
100
100
100
100
100
100
100
100
100
100
100
100
100
100
100
100
100
100
100
100
100
100
100
100
100
100
100
100
100
100
100
100
100
100
100
100
100
100
100
100
100
100
100
100
100
100
100
100
100
100
100
100
100
100
100
100
100
100
100
100
100
100
100
100
100
100
100
100
100
100
100
100
100
100
100
100
100
100
100
100
100
100
100
100
100
100
100
100
100
100
100
100
100
100
100
100
100
100
100
100
100
100
100
100
100
100
100
100
100
100
100
100
100
100
100
100
100
100
100
100
100
100
100
100
100
100
100
100
100
100
100
100
100
100
100
100
100
100
100
100
100
100
100
100
100
100
100
100
100
100
100
100
100
100
100
100
100
100
100
100
100
100
100
100
100
100
100
100
100
100
100
100
100
100
100
100
100
100
100
100
100
100
100
100
100
100
100
100
100
100
100
100
100
100
100
100
100
100
100
100
100
100
100
100
100
100
100
100
100
100
100
100
100
100
100
100
100
100
100
100
100
100
100
100
100
100
100
100
100
100
100
100
100
100
100
100
100
100
100
100
100
100
100
100
100
100
100
100
100
100
100
100
100
100
100
100
100
100
100
100
100
100
100
100
100
100
100
100
100
100
100
100
100
100
100
100
100
100
100
100
100
100
100
100
100
100
100
100
100
100
100
100
100
100
100
100
100
100
100
100
100
100
100
100
100
100
100
100
100
100
100
100
100
100
100
100
100
100
100
100
100
100
100
100
100
100
100
100
100
100
100
100
100
100
100
100
100
100
100
100
100
100
100
100
100
100
100
100
100
100
100
100
100
100
100
100
100
100
100
100
100
100
100
100
100
100
100
100
100
100
100
100
100
100
100
100
100
100
100
100
100
100
100
100
100
100
100
100
100
100
100
100
100
100
100
100
100
100
100
100
100
100
100
100
100
100
100
100
100
100
100
100
100
100
100
100
100
100
100
100
100
100
100
100
100
100
100
100
100
100
100
100
100
100
100
100
100
100
100
100
100
100
100
100
100
100
100
100
100
100
100
100
100
100
100
100
100
100
100
100
100
100
100
100
100
100
100
100
100
100
100
100
100
100
100
100
100
100
100
100
100
100
100
100
100
100
100
100
100
100
100
100
100
100
100
100
100
100
100
100
100
100
100
100
100
100
100
100
100
100
100
100
100
100
100
100
100
100
100
100
100
100
100
100
100
100
100
100
100
100
100
100
100
100
100
100
100
100
100
100
100
100
100
100
100
100
100
100
100
100
100
100
100
100
100
100
100
100
100
100
100
100
100
100
100
100
100
100
100
100
100
100
100
100
100
100
100
100
100
100
100
100
100
100
100
100
100
100
100
100
100
100
100
100
100
100
100
100
100
100
100
100
100
100
100
100
100
100
100
100
100
100
100
100
100
100
100
100
100
100
100
100
100
100
100
100
100
100
100
100
100
100
100
100
100
100
100
100
100
100
100
100
100
100
100
100
100
100
100
100
100
100
100
100
100
100
100
100
100
100
100
100
100
100
100
100
100
100
100
100
100
100
100
100
100
100
100
100
100
100
100
100
100
100
100
100
100
100
100
100
100
100
100
100
100
100
100
100
100
100
100
100
100
100
100
100
100
100
100
100
100
100
100
100
100
100
100
100
100
100
100
100
100
100
100
100
100
100
100
100
100
100
100
100
100
100
100
100
100
100
100
100
100
100
100
100
100
100
100
100
100
100
100
100
100
100
100
100
100
100
100
100
100
100
100
100
100
100
100
100
100
100
100
100
100
100
100
100
100
100
100
100
100
100
100
100
100
100
100
100
100
100
100
100
100
100
100
100
100
100
100
100
100
100
100
100
100
100
100
100
100
100
100
100
100
100
100
100
100
100
100
100
100
100
100
100
100
100
100
100
100
100
100
100
100
100
100
100
100
100
100
100
100
100
100
100
100
100
100
100
100
100
100
100
100
100
100
100
100
100
100
100
100
100
100
100
100
100
100
100
100
100
100
100
100
100
100
100
100
100
100
100
100
100
100
100
100
100
100
100
100
100
100
100
100
100
100
100
100
100
100
100
100
100
100
100
100
100
100
100
100
100
100
100
100
100
100
100
100
100
100
100
100
100
100
100
100
100
100
100
100
100
100
100
100
100
100
100
100
100
100
100
100
100
100
100
100
100
100
100
100
100
100
100
100
100
100
100
100
100
100
100
100
100
100
100
100
100
100
100
100
100
100
100
100
100
100
100
100
100
100
100
100
100
100
100
100
100
100
100
100
100
100
100
100
100
100
100
100
100
100
100
100
100
100
100
100
100
100
100
100
100
100
100
100
100
100
100
100
100
100
100
100
100
100
100
100
100
100
100
100
100
100
100
100
100
100
100
100
100
100
100
100
100
100
100
100
100
100
100
100
100
100
100
100
100
100
100
100
100
100
100
100
100
100
100
100
100
100
100
100
100
100
100
100
100
100
100
100
100
100
100
100
100
100
100
100
100
100
100
100
100
100
100
100
100
100
100
100
100
100
100
100
100
100
100
100
100
100
100
100
100
100
100
100
100
100
100
100
100
100
100
100
100
100
100
100
100
100
100
100
100
100
100
100
100
100
100
100
100
100
100
100
100
100
100
100
100
100
100
100
100
100
100
100
100
100
100
100
100
100
100
100
100
100
100
100
100
100
100
100
100
100
100
100
100
100
100
100
100
100
100
100
100
100
100
100
100
100
100
100
100
100
100
100
100
100
100
100
100
100
100
100
100
100
100
100
100
100
100
100
100
100
100
100
100
100
100
100
100
100
100
100
100
100
100
100
100
100
100
100
100
100
100
100
100
100
100
100
100
100
100
100
100
100
100
100
100
100
100
100
100
100
100
100
100
100
100
100
100
100
100
100
100
100
100
100
100
100
100
100
100
100
100
100
100
100
100
100
100
100
100
100
100
100
100
100
100
100
100
100
100
100
100
100
100
100
100
100
100
100
100
100
100
100
100
100
100
100
100
100
100
100
100
100
100
100
100
100
100
100
100
100
100
100
100
100
100
100
100
100
100
100
100
100
100
100
100
100
100
100
100
100
100
100
100
100
100
100
100
100
100
100
100
100
100
100
100
100
100
100
100
100
100
100
100
100
100
100
100
100
100
100
100
100
100
100
100
100
100
100
100
100
100
100
100
100
100
100
100
100
100
100
100
100
100
100
100
100
100
100
100
100
100
100
100
100
100
100
100
100
100
100
100
100
100
100
100
100
100
100
100
100
100
100
100
100
100
100
100
100
100
100
100
100
100
100
100
100
100
100
100
100
100
100
100
100
100
100
100
100
100
100
100
100
100
100
100
100
100
100
100
100
100
100
100
100
100
100
100
100
100
100
100
100
100
100
100
100
100
100
100
100
100
100
100
100
100
100
100
100
100
100
100
100
100
100
100
100
100
100
100
100
100
100
100
100
100
100
100
100
100
100
100
100
100
100
100
100
100
100
100
100
100
100
100
100
100
100
100
100
100
100
100
100
100
100
100
100
100
100
100
100
100
100
100
100
100
100
100
100
100
100
100
100
100
100
100
100
100
100
100
100
100
100
100
100
100
100
100
100
100
100
100
100
100
100
100
100
100
100
100
100
100
100
100
100
100
100
100
100
100
100
100
100
100
100
100
100
100
100
100
100
100
100
100
100
100
100
100
100
100
100
100
100
100
100
100
100
100
100
100
100
100
100
100
100
100
100
100
100
100
100
100
100
100
100
100
100
100
100
100
100
100
100
100
100
100
100
100
100
100
100
100
100
100
100
100
100
100
100
100
100
100
100
100
100
100
100
100
100
100
100
100
100
100
100
100
100
100
100
100
100
100
100
100
100
100
100
100
100
100
100
100
100
100
100
100
100
100
100
100
100
100
100
100
100
100
100
100
100
100
100
100
100
100
100
100
100
100
100
100
100
100
100
100
100
100
100
100
100
100
100
100
100
100
100
100
100
100
100
100
100
100
100
100
100
100
100
100
100
100
100
100
100
100
100
100
100
100
100
100
100
100
100
100
100
100
100
100
100
100
100
100
100
100
100
100
100
100
100
100
100
100
100
100
100
100
100
100
100
100
100
100
100
100
100
100
100
100
100
100
100
100
100
100
100
100
100
100
100
100
100
100
100
100
100
100
100
100
100
100
100
100
100
100
100
100
100
100
100
100
100
100
100
100
100
100
100
100
100
100
100
100
100
100
100
100
100
100
100
100
100
100
100
100
100
100
100
100
100
100
100
100
100
100
100
100
100
100
100
100
100
102.927
105.839
100
100
100
100
100
100
100
100
100
100
100
100
100
100
100
100
100
100
100
100
100
100
100
100
100
100
100
100
100
100
100
100
100
100
100
100
100
100
100
100
100
100
100
100
100
100
100
100
100
100
100
100
100
100
100
100
100
100
100
100
100
100
100
100
100
100
100
100
100
100
100
100
100
100
100
100
100
100
100
100
100
100
100
100
105.9
103.536
100
100
107.378
108.284
108.748
107.39
102.208
106.276
110.129
113.652
100
100
100
103.033
100
100
100
100
100
100
100
100
100
100
100
100
100
100
100
100
100
100
100
100
100
100
100
100
100
100
100
100
100
100
100
100
100
100
100
100
100
100
100
100
100
100
100
100
100
100
100
100
100
100
100
100
100
100
100
100
100
100
100
100
100
100
100
100
100
100
100
100
100
100
100
100
100
100
100
100
100
100
100
100
100
100
115.929
113.734
105.587
109.909
115.602
117.127
118.121
117.153
107.965
112.677
117.224
121.498
100
100
102.255
107.963
100
100
100
100
100
100
100
100
100
100
100
100
100
100
100
100
100
100
100
100
100
100
100
100
100
100
100
100
100
100
100
100
100
100
100
100
100
100
100
100
100
100
100
100
100
100
100
100
100
100
100
100
100
100
100
100
100
100
100
100
100
100
100
100
100
100
100
100
100
100
100
100
100
100
100
100
100
100
100
100
101.047
100
100
100
126.553
124.503
116.709
121.028
124.094
126.375
128.058
127.514
113.561
119.002
124.337
129.404
100
100.298
106.395
112.77
100
100
100
100
100
100
100
100
100
100
100
100.381
100
100
100
100
100
100
100
100
100
100
100
100
102.861
100
100
100
100
100
100
100
100
100
100
100
100
100
100
100
100
100
100
100
100
100
100
100
100
100
100
100
100
100
100
100
100
100
100
100
100
100
100
100
100
100
100
100
100
100
100
100
100
100
100
100
100
100
100
100
100
100
111.953
105.653
110.22
105.052
137.944
136.156
128.701
133.14
132.964
136.076
138.432
138.449
119.129
125.397
131.536
137.398
100
103.778
110.533
117.648
100
100
100
101.931
102.475
100
100.991
102.162
105.056
101.591
108.702
108.334
102.348
100
100
100
102.93
102.269
100
100
100
100
100
100
100
100
100
100
100
100
100
100
100
100
100
100
100
100
100
100
100
100
100
100
100
100
100
100
100
100
100
100
100
100
100
100
100
100
100
100
100
100
100
100
100
100
100
100
100
100
100
100
100
100
100
100
100
100
100
100
100
100
100
123.366
116.313
122.823
116.545
150.116
148.603
141.594
145.801
142.359
146.201
149.183
150.121
124.869
132.027
139.052
145.984
100.25
107.38
114.883
122.801
100
100
100
109.752
110.397
100.342
110.531
110.733
113.828
110.495
118.005
117.36
111.806
100
100
102.168
112.338
113.967
102.649
100
100
100
100
100
248.845
104.808
100
100
100
100
100
100
100
100
100
100
100
100
100
100
100
100
100
100
100
100
100
100
100
100
100
100
100
100
100
100
100
100
100
100
100
100
100
100
100
100
100
100
100
100
100
100
100
100
100
100
100
100
100
100
108.81
102.485
100.294
107.568
135.823
128.412
135.997
128.763
163.2
161.981
155.523
159.447
152.369
156.763
160.231
162.592
130.866
138.932
146.942
154.887
103.508
111.392
119.744
128.418
100
100.938
102.463
119.279
120.452
111.182
123.018
121.517
123.217
119.574
127.177
126.768
121.485
103.744
102.327
115.675
126.031
129.937
118.307
100
100
100
100
100
100
100
100
100
100
100
100
100
100
100
100
100
100
100
100
100
100
100
100
100
100
100
100
100
100
100
100
100
100
100
100
100
100
100
100
100
100
100
100
100
100
100
100
100
100
100
100
100
100
100
100
100
100
101.561
100
100
100
120.196
113.882
108.662
117.252
149.034
141.452
149.67
141.365
177.078
176.245
169.707
173.902
162.475
167.891
172.186
176.043
137.242
146.214
155.173
164.028
107.358
116.309
125.605
135.003
112.906
116.053
117.356
129.074
130.925
125.659
136.95
133.182
133.351
130.26
139.589
138.301
138.321
117.471
113.647
134.122
145.35
150.922
133.37
100
100
110.262
106.453
100
100
100
100
100
100
100
100
100
100
100
100
100
100
100
100
100
100
100
100
100
100
100
100
100
100
100
100
100
100
100
100
100
100
100
100
100
100
100
100
100
100
100
100
100
100
100
100
100
100
100
100
100
100
100
110.263
103.494
102.643
100
132.489
125.574
117.946
127.163
162.512
155.477
163.944
154.25
191.177
191.361
184.674
189.31
172.663
179.689
184.675
189.329
144.473
154.29
164.18
174.052
118.202
123.215
133.571
143.528
129.933
135.129
137.753
143.373
149.034
142.466
166.904
156.815
149.889
151.751
166.619
161.835
161.707
129.288
125.314
150.635
168.746
169.213
147.103
103.211
100
121.34
116.144
100
217.941
100
100
100
100
100
100
100
100
100
100
100
100
100
100
100
100
100
100
100
100
100
100
100
100
100
100
100
100
100
100
100
100
100
100
100
100
100
100
100
100
100
100
100
100
100
100
100
100
100
100
100
100
100
100
118.967
110.033
108.064
101.9
145.711
137.537
128.709
138.744
177.565
171.22
178.696
168.545
206.56
207.768
201.028
206.135
183.819
192.556
198.185
203.426
153.361
163.738
174.619
185.615
138.402
138.125
144.979
155.174
150.3
160.016
164.843
175.363
186.019
179.337
203.995
195.924
183.742
180.063
198.943
202.789
188.283
143.612
138.569
168.185
190.709
192.154
165.626
109.787
103.836
131.728
123.179
100
100
100
100
100
100
100
100
100
100
100
100
100
100
100
100
100
100
100
100
100
100
100
100
100
100
100
100
100
100
100
100
100
100
100
100
100
100
100
100
100
100
100
100
100
100
100
100
100
100
100
100
100
100
100
100
100
127.211
116.442
113.849
106.57
160.407
150.443
139.65
151.382
194.345
187.889
194.305
184.384
222.883
225.248
219.707
224.594
196.337
206.113
212.785
218.591
164.88
175.283
187.186
199.823
162.95
161.556
163.39
171.009
190.728
203.277
200.643
219.317
214.669
208.995
234.282
227.38
218.213
210.013
230.691
232.876
213.473
158.581
149.677
189.889
216.215
218.774
180.409
116.223
106.619
139.739
131.298
100
100
100
100
100
100
100
100
100
100
100
100
100
100
100
100
100
100
100
100
100
100
100
100
100
100
100
100
100
100
100
100
100
100
100
100
100
100
100
100
100
100
100
100
100
100
100
100
100
100
100
100
100
100
100
101.595
100
100
100
136.409
123.828
119.804
111.449
175.27
163.381
151.264
165.708
213.405
205.501
213.278
203.19
240.202
243.844
240.362
244.024
211.352
220.999
229.278
235.019
180.35
189.546
202.286
217.731
198.591
192.137
193.322
195.196
224.656
236.947
249.281
234.102
258.278
256.735
155.49
284.472
238.774
235.747
237.877
252.165
233.964
170.079
159.974
204.854
228.348
218.97
193.456
120.163
109.298
150.313
136.342
100
118.7
100
100
100
100
100
100
100
100
100
100
100
100
100
100
100
100
100
100
100
100
100
100
100
100
100
100
100
100
100
100
100
100
100
100
100
100
100
100
100
100
100
100
100
100
100
100
100
100
100
100
100
100
100
100
106.26
102.085
100.569
103.41
146.94
131.824
126.516
117.31
191.562
178.178
163.94
181.076
234.526
224.941
236.172
224.39
258.876
264.194
263.888
265.802
232.282
239.252
247.814
252.314
203.036
209.376
220.195
234.818
259.317
240.956
247.243
245.033
292.948
158.802
293.132
151.881
309.069
306.439
185.542
337.683
283.534
244.786
150.153
160.288
244.07
184.359
173.234
217.986
287.361
235.557
268.434
211.451
124.815
111.951
157.368
143.668
100
451.043
151.072
100
100
100
100
100
100
100
100
100
100
100
100
100
100
100
100
100
100
100
100
100
100
100
100
100
100
100
100
100
100
100
100
100
100
100
100
100
100
100
100
100
100
100
100
100
100
100
100
100
101.859
100
100
111.493
106.743
105.831
108.985
158.51
140.192
134.827
124.881
209.769
195.256
178.648
199.202
258.283
247.155
264.202
250.435
280.78
287.265
289.644
291.167
251.624
257.803
266.148
269.864
252.445
256.314
265.951
276.948
296.76
280.146
283.056
280.102
342.295
188.152
337.84
181.759
366.7
357.153
215.389
392.483
337.596
155.88
179.578
191.217
158.835
201.088
182.823
226.27
340.366
156.126
324.017
212.612
128.087
113.49
166.798
148.674
100
215.714
100
100
100
100
100
100
100
100
100
100
100
100
100
100
100
100
100
100
100
100
100
100
100
100
100
100
100
100
100
100
100
100
100
100
100
100
100
100
100
100
100
100
100
100
100
100
100
100
100
100
107.02
102.118
102.47
117.947
112.523
111.475
115.421
172.106
149.905
144.822
133.962
233.938
217.133
197.231
222.76
284.154
273.856
294.037
280.676
295.216
310.95
315.538
318.502
308.084
301.451
298.04
288.094
285.257
289.361
298.413
310.023
336.819
321.696
321.346
317.84
389.729
215.741
382.733
214.1
419.276
406.436
242.141
443.882
398.281
186.234
213.248
226.604
191.142
203.532
190.787
149.169
398.654
187.669
388.131
145.123
132.558
114.867
174.35
156.232
100
100
100
100
100
100
100
100
100
100
100
100
100
100
100
100
100
100
100
100
100
100
100
100
100
100
100
100
100
100
100
100
100
100
100
100
100
100
100
100
100
100
100
100
100
100
100
100
100
100
101.708
100
100
100
112.899
107.427
108.038
125.64
119.565
117.942
122.454
189.32
161.947
156.372
144.19
264.68
244.861
221.129
252.73
310.073
302.383
325.551
313.512
338.475
343.631
338.294
339.757
334.86
182.102
333.208
329.281
319.642
323.769
332.068
343.082
378.12
362.442
361.377
357.243
435.702
240.572
242.665
452.625
220.655
243.612
258.477
225.664
209.253
261.529
196.276
180.027
456.143
223.477
447.707
174.909
135.595
114.214
181.729
162.759
100
100
100
100
100
100
100
100
100
100
100
100
100
100
100
100
100
100
100
100
100
100
100
100
100
100
100
100
100
100
100
100
100
100
100
100
100
100
100
100
100
100
100
100
100
100
100
100
100
100
105.782
103.309
100
100
119.242
113.294
112.98
134.964
127.763
125.202
130.152
212.727
177.721
169.438
155.716
299.352
278.064
251.743
287.41
337.141
332.292
355.133
345.544
203.396
360.755
369.211
381.807
359.159
203.447
364.459
360.842
356.608
360.293
367.808
378.132
251.745
257.904
143.468
316.54
202.821
258.003
215.836
257.977
209.12
136.571
112.75
186.509
165.028
100
100
100
100
100
100
100
100
100
100
100
100
100
100
100
100
100
100
100
100
100
100
100
100
100
100
100
100
100
100
100
100
100
100
100
100
100
100
100
100
100
100
100
100
100
100
100
100
100
100
100
100
100
110.105
107.097
101.411
100
125.958
119.017
117.086
145.886
136.774
132.692
138.427
243.662
198.189
184.734
168.71
334.031
313.312
288.366
324.027
357.995
356.216
372.604
376.971
220.867
381.786
216.844
408.309
386.955
221.552
394.809
386.442
175.134
381.219
140.337
312.836
249.82
242.096
136.43
109.147
190.319
246.733
160.144
100
100
102.184
100
100
100
100
100
100
100
100
100
100
100
100
100
100
100
100
100
100
100
100
100
100
100
100
100
100
100
100
100
100
100
100
100
100
100
100
100
100
100
100
100
100
100
100
100
100
100
100
100
100
115.018
108.966
102.791
100
132.676
123.852
122.112
157.798
146.726
140.386
147.802
279.636
223.336
203.335
183.489
366.551
348.051
327.052
359.217
400.808
381.103
414.532
389.246
234.68
404.572
233.179
428.576
238.488
426.86
408.763
211.296
443.633
172.685
376.651
133.207
105.669
137.525
304.327
157.027
229.644
100
100
122.53
100
100
100
100
100
100
100
100
100
100
100
100
100
100
100
100
100
100
100
100
100
100
100
100
100
100
100
100
100
100
100
100
100
100
100
100
100
100
100
100
100
100
100
100
100
100
100
100
100
100
100
100
117.978
111.075
102.368
100
138.995
129.424
126.24
170.929
158.444
147.135
157.332
316.376
253.26
225.273
199.122
397.239
380.855
363.461
391.524
425.777
223.291
228.073
439.545
247.545
246.203
445.71
245.72
209.682
438.078
130.838
106.16
169.861
370.904
157.01
213.684
279.785
100
100
137.548
100
100
100
100
100
100
100
100
100
100
100
100
100
100
100
100
100
100
100
100
100
100
100
100
100
100
100
100
100
100
100
100
100
100
100
100
100
100
100
100
100
100
100
100
100
100
100
100
100
100
100
100
100
100
120.374
111.825
100.611
100
146.383
135.946
129.156
184.269
170.966
154.636
167.013
351.465
287.647
251.674
215.265
405.083
406.325
393.071
415.553
442.904
240.072
230.864
244.795
455.803
257.021
244.897
135.225
110.098
205.579
434.003
170.77
216.071
266.883
335.782
119.654
100
146.584
100
100
100
100
100
100
100
100
100
100
100
100
100
100
100
100
100
100
100
100
100
100
100
100
100
100
100
100
100
100
100
100
100
100
100
100
100
100
100
100
100
100
100
100
100
100
100
100
100
100
100
100
100
100
121.946
110.871
100
100
152.283
140.854
131.827
197.302
183.053
162.545
176.882
381.384
324.058
281.286
231.041
412.348
413.345
420.276
454.967
252.782
247.256
230.44
256.577
463.331
146.615
116.807
238.467
192.102
230.126
270.225
327.994
388.798
142.064
100
151.917
100
108.507
100
100
100
100
100
100
100
100
100
100
100
100
100
100
100
100
100
100
100
100
100
100
100
100
100
100
100
100
100
100
100
100
100
100
100
100
100
100
100
100
100
100
100
100
100
100
100
100
100
100
100
100
100
100
121.542
108.366
100
100
155.317
144.205
132.885
207.57
192.756
168.717
185.936
401.369
354.877
308.374
246.938
418.489
232.229
260.869
260.448
247.549
260.719
152.075
115.908
136.395
290.062
331.947
386.202
162.43
100
153.314
100.594
127.78
100
100
100
100
100
100
100
100
100
100
100
100
100
100
100
100
100
100
100
100
100
100
100
100
100
100
100
100
100
100
100
100
100
100
100
100
100
100
100
100
100
100
100
100
100
100
100
100
100
100
100
100
100
119.212
106.557
100
100
157.218
145.825
131.783
216.619
201.388
172.912
190.556
400.686
376.215
331.69
265.522
235.101
247.518
264.871
262.374
150.653
219.396
115.699
167.87
353.532
390.789
176.982
100
152.53
113.446
145.858
100
100
100
100
100
100
100
100
100
100
100
100
100
100
100
100
100
100
100
100
100
100
100
100
100
100
100
100
100
100
100
100
100
100
100
100
100
100
100
100
100
100
100
100
100
100
100
100
100
100
100
100
100
100
100
117.032
104.386
100
100
157.936
145.241
129.112
225.221
206.155
175.698
192.22
230.778
376.185
347.529
287.915
247.922
264.017
266.603
147.083
221.824
271.722
124.875
203.016
413.069
186.458
100
150.801
126.266
162.622
100
100
100
100
100
100
100
100
100
100
100
100
100
100
100
100
100
100
100
100
100
100
100
100
100
100
100
100
100
100
100
100
100
100
100
100
100
100
100
100
100
100
100
100
100
100
100
100
100
100
100
100
100
100
100
100
116.255
101.603
100
157.037
142.575
129.227
233.898
208.12
176.333
192.047
240.518
396.89
400.845
340.198
309.735
262.32
269.979
155.84
214.919
272.365
330.303
134.487
235.612
190.568
100
146.24
137.715
172.706
100
100
100
100
100
100
100
100
100
100
100
100
100
100
100
100
100
100
100
100
100
100
100
100
100
100
100
100
100
100
100
100
100
100
100
100
100
100
100
100
100
100
100
100
100
100
100
100
100
100
100
100
100
100
100
100
100
100
100
114.703
100
158.249
143.308
129.147
247.77
210.829
177.029
192.442
253.502
419.737
232.618
195.281
299.71
268.106
164.441
218.397
264.961
329.686
385.702
143.311
185.906
100
140.906
145.066
175.767
100
100
100
100
100
100
100
100
100
100
100
100
100
100
100
100
100
100
100
100
100
100
100
100
100
100
100
100
100
100
100
100
100
100
100
100
100
100
100
100
100
100
100
100
100
100
100
100
100
100.617
100
100
100
100
100
100
100
100
100
100
114.179
162.359
145.101
129.865
264.446
217.771
181.86
197.424
260.409
455.043
243.553
327.458
209.587
308.547
169.73
224.879
267.591
322.084
383.404
146.424
170.519
137.544
151.373
148.686
164.571
100
100
100
100
100
100
100
100
100
100
100
100
100
100
100
100
100
100
100
100
100
100
100
100
100
100
100
100
100
100
100
100
100
100
100
100
100
100
100
100
100
100
100
100
100
102.179
100
100
100
105.991
114.873
100
100
100
100
100
100
100
100
100
100
100
100
166.221
147.077
131.708
274.739
230.373
187.9
207.431
480.805
260.06
356.827
331.962
230.428
313.576
170.059
228.682
275.595
323.806
374.375
144.044
164.959
330.582
190.786
142.512
148.274
100
100
100
100
100
100
100
100
100
100
100
100
100
100
100
100
100
100
100
100
100
100
100
100
100
100
100
100
100
100
100
100
100
100
100
100
100
100
100
100
100
100
100
100
100
112.302
106.731
100
100
117.446
100
100
100
100
100
100
100
100
100
100
100
100
100
170.861
150.119
133.594
280.968
247.745
194.528
218.527
271.632
395.199
371.055
184.928
248.553
209.568
160.128
142.555
280.728
332.78
374.858
137.918
175.29
780.652
275.321
131.58
132.36
100
100
100
100
100
100
100
100
100
100
100
100
100
100
100
100
100
100
100
100
100
100
100
100
100
100
100
100
100
100
100
100
100
100
100
100
100
100
100
100
100
100
100
100
100
122.059
118.158
110.478
100
100
100
100
100
100
100
100
100
100
100
100
100
100
100
100
175.84
153.01
135.805
283.81
262.703
202.137
231.371
431.089
416.379
204.775
308.554
191.465
149.617
174.966
252.822
337.254
384.393
131.955
132.741
169.455
100
118.83
100
100
100
100
100
100
100
100
100
100
100
100
100
100
100
100
100
100
100
100
100
100
100
100
100
100
100
100
100
100
100
100
100
100
100
100
100
100
100
100
100
100
100
100
100
100
129.584
123.9
111.888
100
100
100
100
100
100
100
100
100
100
100
100
100
100
100
100
109.23
181.751
156.451
141.119
300.852
275.129
210.706
244.193
454.21
224.619
340.919
337.864
174.95
143.393
209
309.517
228.981
388.088
126.925
100
102.703
100
103.255
100
100
100
100
100
100
100
100
100
100
100
100
100
100
100
100
100
100
100
100
100
100
100
100
100
100
100
100
100
100
100
100
100
100
100
100
100
100
100
100
100
100
100
100
100
100
137.29
128.008
100
100
100
100
100
100
100
100
100
100
100
100
100
100
100
100
103.237
100
127.613
185.313
159.297
150.777
312.563
282.478
214.694
248.143
243.539
375.961
367.962
185.605
168.803
140.354
238.592
368.559
283.931
229.603
119.914
100
100
100
100
100
100
100
100
100
100
100
100
100
100
100
100
100
100
100
100
100
100
100
100
100
100
100
100
100
100
100
100
100
100
100
100
100
100
100
100
100
100
100
100
100
100
100
100
100
100
143.998
100
100
100
100
100
100
100
100
100
100
100
100
100
100
100
100
100
123.498
115.576
146.648
187.775
165.887
159.569
278.511
216.225
246.051
411.439
400.026
202.565
308.322
164.164
135.879
420.406
343.841
281.767
223.039
114.006
100
100
100
100
100
100
100
100
100
100
100
100
100
100
100
100
100
100
100
100
100
100
100
100
100
100
100
100
100
100
100
100
100
100
100
100
100
100
100
100
100
100
100
100
100
100
100
100
100
100
100
100
100
100
100
100
100
100
100
100
100
100
100
100
100
100.158
104.005
102.908
145.51
140.247
165.639
192.552
175.325
277.533
215.978
245.232
435.689
220.876
332.466
312.408
166.716
130.016
396.866
338.785
276.727
140.338
123.256
100
100
100
100
100
100
100
100
100
100
100
100
100
100
100
100
100
100
100
100
100
100
100
100
100
100
100
100
100
100
100
100
100
100
100
100
100
100
100
100
100
100
100
100
100
100
100
100
100
100
100
100
100
100
100
100
100
100
100
100
100
100
100
100
100.15
100
106.77
108.808
129.789
118.864
168.389
166.96
184.64
204.462
276
225.006
246.766
239.184
358.037
333.792
309.458
190.384
158.57
129.189
390.111
336.162
171.695
246.839
124.654
100
100
100
100
100
100
100
100
100
100
100
100
100
100
100
100
100
100
100
100
100
100
100
100
100
100
100
100
100
100
100
100
100
100
100
100
100
100
100
100
100
100
100
100
100
100
100
100
100
100
100
100
100
100
100
100
100
100
100
100
100
100
100
100
100
108.317
107.093
117.194
118.251
160.125
147.243
191.39
194.484
214.519
273.744
237.185
258.405
386.131
355.826
330.481
311.843
183.608
148.194
139.178
388.89
206.375
305.799
139.448
112.379
100
100
100
100
100
100
100
100
100
100
100
100
100
100
100
100
100
100
100
100
100
100
100
100
100
100
100
100
100
100
100
100
100
100
100
100
100
100
100
100
100
100
100
100
100
100
100
100
100
100
100
100
100
100
100
100
100
100
100
100
100
100
100
100
100
102.659
100
117.373
115.684
135.636
130.697
192.339
184.332
221.39
281.324
246.398
268.504
381.179
350.649
330.537
315.43
177.546
144.352
141.205
238.057
372.663
172.894
199.865
250.081
100
100
100
100
100
100
100
100
100
100
100
100
100
100
100
100
100
100
100
100
100
100
100
100
100
100
100
100
100
100
100
100
100
100
100
100
100
100
100
100
100
100
100
100
100
100
100
100
100
100
100
100
101.341
100
100
100
100
100
100
100
100
100
100
100
100
103.861
100.738
105.136
110.687
100.792
128.332
124.754
169.89
155.638
224.248
222.068
288.495
253.076
277.025
372.824
347.701
333.863
315.657
168.449
154.369
132.361
434.188
210.111
310.24
192.742
144.685
100
100
100
100
100
100
100
100
100
100
100
100
100
100
100
100
100
100
100
100
100
100
100
100
100
100
100
100
100
100
100
100
100
100
100
100
100
100
100
100
100
100
100
100
100
100
100
100
100
100
100
100
100
100
110.226
104.491
100
100
100
100
100
100
100
100
104.075
103.972
103.991
111.128
108.738
114.239
117.122
105.225
142.564
133.664
214.428
200.352
256.262
297.356
284.04
366.144
349.639
332.768
323.304
162.508
156.719
108.444
244.853
377.018
176.292
188.961
210.395
256.968
100
100
100
100
100
100
100
100
100
100
100
100
100
100
100
100
100
100
100
100
100
100
100
100
100
100
100
100
100
100
100
100
100
100
100
100
100
100
100
100
100
100
100
100
100
100
100
100
100
100
100
100
100
100
100
119.824
110.72
100
100
100
100