/*--------------------------------*- C++ -*----------------------------------*\
  =========                 |
  \\      /  F ield         | OpenFOAM: The Open Source CFD Toolbox
   \\    /   O peration     | Website:  https://openfoam.org
    \\  /    A nd           | Version:  dev
     \\/     M anipulation  |
\*---------------------------------------------------------------------------*/
FoamFile
{
    version     2.0;
    format      ascii;
    class       volScalarField;
    location    "2500";
    object      rho;
}
// * * * * * * * * * * * * * * * * * * * * * * * * * * * * * * * * * * * * * //

dimensions      [1 -3 0 0 0 0 0];

internalField   nonuniform List<scalar> 
9836
(
1.17172
1.17156
1.17166
1.17153
1.17122
1.17168
1.17161
1.17106
1.17124
1.17174
1.17159
1.17093
1.1709
1.17132
1.17182
1.17163
1.17099
1.17068
1.17091
1.17141
1.17185
1.17165
1.17107
1.17064
1.17063
1.17101
1.17151
1.17185
1.17167
1.17117
1.17059
1.17044
1.17072
1.17112
1.17155
1.17189
1.1717
1.17119
1.1706
1.17031
1.17039
1.1708
1.17124
1.17161
1.1719
1.17175
1.17129
1.17069
1.17028
1.17022
1.17048
1.17094
1.17132
1.17164
1.17191
1.17174
1.17129
1.17079
1.17033
1.17007
1.17025
1.17058
1.17105
1.1714
1.17167
1.17191
1.17175
1.17134
1.17094
1.17032
1.17
1.17001
1.17031
1.17077
1.17111
1.17144
1.17169
1.17193
1.17177
1.17142
1.17095
1.17038
1.17005
1.16988
1.17009
1.17046
1.17086
1.17121
1.17149
1.17171
1.17193
1.17179
1.17141
1.17099
1.17051
1.17005
1.16979
1.16986
1.17018
1.17058
1.17097
1.17125
1.1715
1.17173
1.17194
1.17178
1.17142
1.17108
1.17064
1.17012
1.1698
1.16967
1.16993
1.17031
1.17074
1.17103
1.1713
1.17154
1.17174
1.17194
1.17181
1.17149
1.1711
1.1707
1.17025
1.1698
1.16959
1.16969
1.17003
1.17046
1.17081
1.17109
1.17133
1.17155
1.17176
1.17195
1.17182
1.17147
1.17114
1.17077
1.17031
1.1698
1.16956
1.16954
1.16978
1.17016
1.17059
1.1709
1.17113
1.17136
1.17157
1.17176
1.17195
1.17182
1.17149
1.17123
1.17082
1.1705
1.16991
1.16954
1.16943
1.16955
1.1699
1.17032
1.17066
1.17095
1.17116
1.17138
1.17158
1.17177
1.17195
1.17182
1.17152
1.17123
1.17095
1.17052
1.17001
1.16957
1.16937
1.16942
1.16967
1.1701
1.17044
1.17073
1.17098
1.1712
1.1714
1.1716
1.17178
1.17196
1.17181
1.17156
1.17128
1.17099
1.17052
1.17019
1.16961
1.16934
1.16928
1.16946
1.1698
1.17023
1.17053
1.1708
1.17102
1.17123
1.17143
1.17161
1.17179
1.17195
1.17182
1.17155
1.17131
1.17097
1.17059
1.17029
1.16968
1.16933
1.16921
1.16931
1.16957
1.16993
1.17031
1.1706
1.17084
1.17105
1.17124
1.17143
1.17161
1.17179
1.17195
1.17184
1.17158
1.17131
1.17104
1.1707
1.1703
1.16976
1.16936
1.16915
1.16916
1.16937
1.1697
1.1701
1.17041
1.17066
1.17087
1.17107
1.17127
1.17144
1.17162
1.17179
1.17196
1.17183
1.17159
1.17133
1.17105
1.17073
1.17047
1.16995
1.16947
1.16914
1.16905
1.1692
1.16948
1.16983
1.17021
1.17048
1.1707
1.17091
1.1711
1.17128
1.17145
1.17162
1.17179
1.17197
1.17184
1.1716
1.17133
1.17112
1.17084
1.1705
1.16999
1.1695
1.16913
1.169
1.16903
1.16928
1.16962
1.16997
1.17027
1.17054
1.17074
1.17093
1.17111
1.17129
1.17147
1.17163
1.17179
1.17196
1.17184
1.17161
1.17136
1.17115
1.17087
1.17051
1.17012
1.16959
1.16919
1.16896
1.16892
1.16909
1.16941
1.16978
1.17007
1.17034
1.17057
1.17077
1.17096
1.17114
1.17131
1.17147
1.17163
1.1718
1.17196
1.17184
1.17163
1.17139
1.17113
1.17092
1.17053
1.17022
1.16967
1.16926
1.16896
1.16885
1.16894
1.16919
1.16953
1.16988
1.17015
1.17042
1.17061
1.17079
1.17097
1.17115
1.1713
1.17147
1.17163
1.1718
1.17195
1.17184
1.17162
1.17138
1.17115
1.17091
1.17056
1.17032
1.16978
1.16935
1.16898
1.16881
1.16883
1.16901
1.16932
1.16968
1.16997
1.17022
1.17047
1.17064
1.17081
1.17098
1.17115
1.17131
1.17147
1.17163
1.17179
1.17195
1.17184
1.17164
1.1714
1.17117
1.17094
1.1707
1.17035
1.16987
1.16941
1.16901
1.16879
1.16872
1.16887
1.16912
1.16947
1.16978
1.17006
1.1703
1.1705
1.17066
1.17083
1.17101
1.17117
1.17131
1.17147
1.17162
1.17179
1.17195
1.17184
1.17163
1.17141
1.17119
1.17099
1.17068
1.17047
1.16995
1.16948
1.1691
1.16879
1.16865
1.16872
1.16896
1.16925
1.16958
1.16986
1.17013
1.17032
1.17052
1.17068
1.17085
1.171
1.17116
1.17131
1.17146
1.17162
1.17178
1.17195
1.17185
1.17165
1.17144
1.17122
1.17098
1.1707
1.17052
1.16998
1.16962
1.16916
1.16882
1.16861
1.16861
1.16878
1.16907
1.16938
1.16969
1.16994
1.17016
1.17037
1.17053
1.1707
1.17086
1.17101
1.17115
1.17131
1.17145
1.17161
1.17177
1.17195
1.17184
1.17167
1.17143
1.17125
1.17099
1.17081
1.17052
1.1701
1.16965
1.16927
1.16885
1.16856
1.16853
1.16862
1.16888
1.16918
1.1695
1.16975
1.17003
1.17021
1.17038
1.17056
1.17072
1.17086
1.17101
1.17115
1.1713
1.17144
1.1716
1.17176
1.17194
1.17185
1.17165
1.17146
1.17125
1.171
1.17076
1.17047
1.17021
1.16973
1.16936
1.16885
1.16858
1.16845
1.16851
1.1687
1.16902
1.16929
1.1696
1.16982
1.17004
1.17024
1.17041
1.17057
1.17072
1.17086
1.17101
1.17114
1.17129
1.17143
1.17158
1.17174
1.17193
1.17184
1.17164
1.17149
1.17123
1.17102
1.17075
1.17053
1.17024
1.1698
1.16935
1.16891
1.16858
1.16842
1.16841
1.16854
1.16881
1.16914
1.16941
1.16967
1.1699
1.17008
1.17025
1.17043
1.17058
1.17073
1.17086
1.17099
1.17113
1.17126
1.17141
1.17156
1.17173
1.17192
1.17183
1.17164
1.17147
1.17128
1.17105
1.17077
1.1705
1.17022
1.16984
1.16937
1.16897
1.1686
1.16839
1.16833
1.16842
1.16865
1.16895
1.16923
1.1695
1.16973
1.16994
1.17011
1.17028
1.17044
1.17057
1.17072
1.17085
1.17098
1.17111
1.17124
1.17138
1.17153
1.17171
1.17201
1.17189
1.17183
1.17164
1.17149
1.1713
1.17102
1.17083
1.17053
1.1702
1.16983
1.16938
1.169
1.16862
1.16838
1.16827
1.16832
1.16849
1.16874
1.16905
1.16932
1.16958
1.1698
1.16998
1.17014
1.17032
1.17046
1.17058
1.17073
1.17085
1.17098
1.17109
1.17121
1.17135
1.17154
1.17178
1.17166
1.17201
1.17189
1.17183
1.17164
1.17145
1.1713
1.17102
1.17081
1.17046
1.17017
1.16989
1.16945
1.16903
1.16865
1.16839
1.16823
1.16823
1.16836
1.16859
1.16887
1.16915
1.16939
1.16962
1.16982
1.16999
1.17016
1.17031
1.17045
1.17059
1.17073
1.17085
1.17095
1.17106
1.17118
1.17137
1.17129
1.17155
1.17142
1.17144
1.17176
1.17164
1.172
1.17187
1.17185
1.17164
1.17147
1.1713
1.17099
1.17078
1.17046
1.17015
1.16985
1.16947
1.16909
1.16869
1.16842
1.1682
1.16815
1.16824
1.16843
1.16871
1.16898
1.16924
1.16946
1.16968
1.16985
1.17002
1.17017
1.17032
1.17046
1.17062
1.1707
1.17082
1.17092
1.17103
1.17121
1.17112
1.17132
1.17152
1.17133
1.1714
1.17174
1.17161
1.172
1.17186
1.17183
1.17165
1.17145
1.17123
1.17104
1.17075
1.17046
1.17015
1.16983
1.1695
1.16911
1.16871
1.16841
1.16816
1.16809
1.16814
1.1683
1.16855
1.16882
1.16908
1.16931
1.16951
1.16971
1.16988
1.17005
1.17018
1.1703
1.17042
1.17062
1.17068
1.1708
1.17088
1.17104
1.17096
1.17121
1.17111
1.17123
1.17148
1.17129
1.17136
1.17171
1.17157
1.17199
1.17184
1.17184
1.17163
1.17142
1.17126
1.17099
1.17067
1.17043
1.17013
1.16983
1.16949
1.1691
1.16876
1.1684
1.16816
1.16803
1.16805
1.16818
1.1684
1.16865
1.1689
1.16915
1.16937
1.16956
1.16974
1.1699
1.17006
1.17019
1.17031
1.17042
1.17061
1.17067
1.17076
1.17089
1.17082
1.17102
1.17094
1.17113
1.17104
1.17118
1.17144
1.17124
1.1713
1.17168
1.17153
1.17198
1.17181
1.17184
1.17165
1.17141
1.17121
1.17096
1.17069
1.17042
1.17008
1.16979
1.16945
1.16908
1.16877
1.16839
1.16815
1.168
1.16797
1.16806
1.16825
1.1685
1.16875
1.16899
1.1692
1.16942
1.16961
1.16976
1.16993
1.17007
1.17022
1.17034
1.17041
1.17059
1.17064
1.17075
1.17068
1.17085
1.17077
1.17095
1.17086
1.17108
1.17098
1.17113
1.17138
1.17118
1.17124
1.17164
1.17147
1.17197
1.17178
1.17182
1.17163
1.17144
1.17117
1.17095
1.17068
1.17037
1.17002
1.16972
1.1694
1.16906
1.16873
1.16838
1.16811
1.16796
1.1679
1.16795
1.16812
1.16835
1.1686
1.16884
1.16905
1.16925
1.16945
1.16964
1.16982
1.16996
1.17006
1.17022
1.17035
1.17041
1.17056
1.17062
1.17053
1.17069
1.17059
1.17076
1.17065
1.17088
1.17075
1.17101
1.17088
1.17104
1.17131
1.17109
1.17114
1.17159
1.17141
1.17196
1.17175
1.1718
1.1716
1.17143
1.17114
1.17088
1.17061
1.1703
1.16998
1.16965
1.16937
1.16903
1.16867
1.16837
1.16808
1.16792
1.16784
1.16787
1.168
1.16821
1.16846
1.16868
1.1689
1.16911
1.16929
1.16948
1.16967
1.16983
1.16995
1.17006
1.17023
1.17033
1.17039
1.17048
1.17039
1.17048
1.17032
1.17048
1.17022
1.17055
1.1702
1.17069
1.17033
1.17088
1.1706
1.17089
1.17122
1.17091
1.17095
1.17153
1.17132
1.17194
1.1717
1.1718
1.17159
1.17138
1.17119
1.17087
1.17052
1.17023
1.1699
1.16957
1.16929
1.16895
1.16863
1.16834
1.16807
1.16788
1.16778
1.16779
1.16789
1.16807
1.16832
1.16854
1.16876
1.16897
1.16917
1.16936
1.16953
1.1697
1.16985
1.16993
1.17007
1.17024
1.17031
1.17034
1.17025
1.17017
1.16997
1.16982
1.16929
1.16956
1.1685
1.1696
1.16817
1.16997
1.16857
1.17048
1.16948
1.17038
1.17104
1.17034
1.17039
1.17145
1.17117
1.17192
1.17164
1.1718
1.17158
1.17137
1.17118
1.17077
1.17043
1.17013
1.16979
1.1695
1.16919
1.16888
1.16858
1.1683
1.16804
1.16784
1.16772
1.16771
1.16778
1.16795
1.16817
1.1684
1.16862
1.16883
1.16902
1.16921
1.16938
1.16955
1.16971
1.16985
1.16993
1.17009
1.17022
1.1702
1.17019
1.16984
1.16968
1.1687
1.16807
1.16706
1.16533
1.16574
1.16252
1.1657
1.16111
1.16707
1.16215
1.16894
1.16529
1.16849
1.17056
1.16829
1.16846
1.17134
1.17081
1.1719
1.17156
1.17179
1.17157
1.17141
1.1712
1.17067
1.17025
1.16998
1.16969
1.16939
1.16908
1.16879
1.16851
1.16824
1.16798
1.1678
1.16767
1.16764
1.1677
1.16784
1.16802
1.16826
1.16849
1.16869
1.16888
1.16906
1.16924
1.16941
1.16957
1.16973
1.16983
1.16995
1.17006
1.17014
1.17016
1.16961
1.1696
1.16759
1.16716
1.16354
1.16184
1.15881
1.15501
1.1554
1.14929
1.15481
1.14655
1.15786
1.14785
1.16356
1.15365
1.16234
1.169
1.16197
1.16267
1.1711
1.16975
1.17187
1.17143
1.17178
1.17156
1.17139
1.17116
1.17063
1.17016
1.16984
1.16953
1.16931
1.16898
1.16869
1.16842
1.16817
1.16793
1.16775
1.16762
1.16757
1.16761
1.16773
1.1679
1.16813
1.16835
1.16855
1.16874
1.16892
1.16909
1.16926
1.16944
1.16959
1.16974
1.16983
1.17
1.16996
1.16964
1.16965
1.16699
1.16701
1.16054
1.1595
1.15151
1.14855
1.14332
1.13792
1.13819
1.1304
1.13731
1.1272
1.14131
1.1289
1.15026
1.13601
1.14836
1.1644
1.14829
1.15035
1.17049
1.16669
1.17183
1.17116
1.17175
1.17152
1.17134
1.17104
1.17048
1.16999
1.16971
1.1694
1.16916
1.16883
1.16858
1.16834
1.16809
1.16787
1.16768
1.16756
1.1675
1.16753
1.16763
1.1678
1.168
1.16821
1.16841
1.1686
1.16878
1.16895
1.16912
1.16929
1.16946
1.16961
1.16972
1.16989
1.16997
1.168
1.16846
1.16717
1.16754
1.1591
1.15917
1.1464
1.14484
1.13335
1.1298
1.12333
1.11733
1.11764
1.10936
1.11703
1.10633
1.12196
1.10864
1.13237
1.11686
1.13066
1.15459
1.13095
1.13354
1.16888
1.15979
1.17178
1.17055
1.17171
1.17147
1.17121
1.17084
1.17017
1.16969
1.16949
1.16925
1.169
1.16871
1.16848
1.16823
1.16797
1.16779
1.16762
1.1675
1.16744
1.16745
1.16753
1.16768
1.16788
1.16808
1.16828
1.16847
1.16864
1.16881
1.16897
1.16914
1.16931
1.16947
1.16962
1.16973
1.16988
1.16889
1.16922
1.16173
1.16318
1.15956
1.16045
1.1444
1.14457
1.12733
1.12572
1.11256
1.10895
1.10189
1.09633
1.09647
1.08925
1.09623
1.08653
1.10221
1.08869
1.11373
1.09785
1.11263
1.13908
1.11362
1.11707
1.16501
1.14762
1.17169
1.16918
1.17166
1.17138
1.171
1.17057
1.16984
1.16947
1.16928
1.16906
1.16882
1.16858
1.16836
1.16811
1.16788
1.16771
1.16755
1.16743
1.16737
1.16737
1.16744
1.16758
1.16776
1.16796
1.16815
1.16833
1.16851
1.16867
1.16883
1.169
1.16916
1.16932
1.16949
1.16962
1.16975
1.1694
1.16965
1.16469
1.16607
1.14892
1.15148
1.14527
1.14679
1.12558
1.12595
1.10652
1.10544
1.09262
1.09075
1.08574
1.08427
1.0822
1.08086
1.08073
1.07817
1.08347
1.07692
1.09553
1.08028
1.09526
1.12313
1.09702
1.10091
1.15789
1.13245
1.17151
1.16617
1.17165
1.1712
1.1707
1.17023
1.1696
1.1693
1.16907
1.16886
1.16864
1.16842
1.16819
1.16797
1.16776
1.1676
1.16747
1.16736
1.1673
1.1673
1.16736
1.16748
1.16764
1.16783
1.16803
1.16821
1.16838
1.16854
1.16869
1.16885
1.16902
1.16918
1.16934
1.16951
1.16961
1.16928
1.16726
1.16804
1.15434
1.15733
1.13201
1.13537
1.12705
1.12919
1.1056
1.10629
1.08995
1.09004
1.08415
1.08444
1.08118
1.08208
1.07856
1.08008
1.07599
1.07718
1.07415
1.07406
1.0788
1.07195
1.07915
1.10742
1.08148
1.08569
1.14595
1.11711
1.17114
1.16092
1.1712
1.17034
1.16983
1.16938
1.16911
1.16888
1.16867
1.16846
1.16825
1.16804
1.16783
1.16764
1.16749
1.16737
1.16728
1.16722
1.16722
1.16727
1.16738
1.16754
1.16772
1.1679
1.16808
1.16825
1.16841
1.16856
1.16871
1.16887
1.16903
1.1692
1.16937
1.16951
1.16945
1.16473
1.16618
1.16024
1.16267
1.13914
1.14314
1.11389
1.11776
1.10797
1.11061
1.09041
1.0912
1.08496
1.08555
1.08363
1.08541
1.08322
1.08758
1.081
1.08779
1.07661
1.08354
1.07222
1.07625
1.07015
1.07024
1.06894
1.09218
1.06925
1.07266
1.13148
1.10177
1.1703
1.15217
1.17027
1.16951
1.16922
1.16893
1.1687
1.16848
1.16828
1.16808
1.16788
1.16768
1.1675
1.16737
1.16727
1.16719
1.16714
1.16714
1.16719
1.16729
1.16743
1.1676
1.16779
1.16796
1.16813
1.16828
1.16843
1.16858
1.16873
1.16888
1.16905
1.1692
1.16938
1.16939
1.16714
1.16837
1.1553
1.15889
1.14725
1.15127
1.12215
1.1269
1.09775
1.10134
1.0926
1.09484
1.08612
1.08662
1.08706
1.0883
1.09186
1.0951
1.09501
1.10053
1.09319
1.10178
1.08592
1.09737
1.07532
1.08688
1.06799
1.07338
1.06571
1.078
1.06407
1.06363
1.06916
1.11552
1.08621
1.16843
1.13746
1.16928
1.16902
1.16876
1.16851
1.1683
1.1681
1.16791
1.16772
1.16754
1.16737
1.16725
1.16716
1.16709
1.16706
1.16706
1.16711
1.1672
1.16733
1.1675
1.16767
1.16784
1.16801
1.16816
1.16831
1.16845
1.16859
1.16874
1.16888
1.16905
1.16921
1.16927
1.16723
1.16175
1.16361
1.14172
1.14623
1.13185
1.13682
1.10561
1.11043
1.08883
1.09066
1.08713
1.08772
1.08894
1.08903
1.09692
1.09769
1.10315
1.10372
1.10633
1.10727
1.10616
1.10968
1.09945
1.10871
1.08587
1.09965
1.07036
1.08419
1.07712
1.06498
1.06809
1.0649
1.07402
1.06566
1.06259
1.06446
1.06644
1.06191
1.09637
1.06815
1.06982
1.08043
1.15806
1.09914
1.16881
1.16858
1.16833
1.16811
1.16792
1.16774
1.16756
1.16739
1.16723
1.16712
1.16705
1.167
1.16697
1.16698
1.16702
1.16711
1.16724
1.16739
1.16756
1.16773
1.16789
1.16805
1.16819
1.16833
1.16846
1.16858
1.16872
1.16886
1.16901
1.16909
1.16752
1.1574
1.16076
1.15059
1.15393
1.12673
1.13202
1.1157
1.12119
1.09334
1.09688
1.08802
1.08802
1.08885
1.08843
1.09743
1.09677
1.10332
1.10262
1.10659
1.10561
1.10953
1.10795
1.11186
1.11096
1.10499
1.10971
1.11216
1.11323
1.09069
1.09845
1.11017
1.11042
1.10456
1.08219
1.07279
1.08
1.0894
1.07093
1.0617
1.06218
1.06269
1.06626
1.0686
1.0614
1.07257
1.08317
1.07262
1.06299
1.06414
1.12049
1.07095
1.06826
1.07928
1.16839
1.16815
1.16793
1.16774
1.16757
1.1674
1.16724
1.16711
1.167
1.16694
1.1669
1.16688
1.16689
1.16694
1.16703
1.16715
1.16729
1.16745
1.16762
1.16778
1.16794
1.16808
1.16822
1.16832
1.1684
1.16847
1.16857
1.16872
1.16876
1.16734
1.1566
1.1457
1.14741
1.13711
1.14129
1.11175
1.11726
1.10127
1.1063
1.08837
1.08944
1.09221
1.09043
1.09558
1.09401
1.10151
1.10025
1.10426
1.10296
1.10568
1.10324
1.10756
1.10305
1.11276
1.11117
1.10875
1.10557
1.11309
1.11387
1.11335
1.09677
1.10396
1.11361
1.11378
1.10981
1.08723
1.07714
1.08458
1.09494
1.07452
1.06048
1.05994
1.06407
1.0718
1.06907
1.06208
1.06482
1.06409
1.05977
1.05969
1.07666
1.17177
1.13873
1.06178
1.06239
1.16796
1.16774
1.16756
1.1674
1.16724
1.1671
1.16698
1.16688
1.16683
1.1668
1.16679
1.1668
1.16686
1.16694
1.16706
1.1672
1.16735
1.16751
1.16767
1.16783
1.16797
1.16809
1.16814
1.16798
1.16771
1.16773
1.16797
1.16806
1.16665
1.15689
1.13767
1.14245
1.13189
1.13536
1.12265
1.12744
1.09936
1.10406
1.09181
1.09515
1.08911
1.08856
1.09543
1.09342
1.09882
1.09722
1.10172
1.10041
1.1013
1.10012
1.09907
1.09639
1.10259
1.09927
1.09658
1.09379
1.11127
1.10816
1.10453
1.10068
1.11443
1.11376
1.11126
1.10253
1.10908
1.11481
1.11499
1.11362
1.09256
1.08168
1.08974
1.10062
1.07871
1.0604
1.05909
1.06638
1.07563
1.07252
1.06381
1.05928
1.05827
1.05803
1.05714
1.09316
1.17008
1.14727
1.05766
1.06508
1.16755
1.16737
1.16722
1.16708
1.16696
1.16685
1.16677
1.16672
1.1667
1.1667
1.16672
1.16677
1.16686
1.16697
1.1671
1.16724
1.16739
1.16754
1.1677
1.16784
1.16794
1.16773
1.16658
1.16503
1.16473
1.16562
1.16624
1.16485
1.15578
1.13348
1.12485
1.12457
1.11799
1.1215
1.10895
1.11363
1.0914
1.09447
1.08872
1.0895
1.09127
1.08952
1.09577
1.09389
1.09901
1.09747
1.09943
1.09861
1.09528
1.09569
1.09189
1.09017
1.08942
1.08885
1.09692
1.09334
1.09012
1.08736
1.10758
1.10331
1.09881
1.09435
1.11412
1.11123
1.10698
1.10782
1.11308
1.11437
1.11452
1.11497
1.09815
1.08664
1.09518
1.10599
1.08335
1.06144
1.0593
1.06939
1.07993
1.07644
1.0663
1.05612
1.05534
1.05744
1.05585
1.10025
1.16802
1.13957
1.05679
1.06868
1.16719
1.16704
1.16692
1.16681
1.16672
1.16665
1.16662
1.16661
1.16661
1.16664
1.16669
1.16677
1.16686
1.16696
1.16707
1.16721
1.16737
1.16753
1.16768
1.16772
1.16673
1.16285
1.15825
1.15693
1.15919
1.16185
1.16081
1.15239
1.13181
1.11331
1.11523
1.11149
1.11284
1.10561
1.10872
1.09809
1.1019
1.08819
1.08907
1.08829
1.08793
1.09187
1.0899
1.09463
1.09272
1.09771
1.09636
1.0969
1.09778
1.08767
1.0911
1.08522
1.08384
1.08341
1.08371
1.09008
1.08616
1.08272
1.07988
1.10208
1.09691
1.09172
1.08674
1.1112
1.10647
1.10089
1.11205
1.11466
1.11128
1.11141
1.1145
1.10351
1.09186
1.10049
1.11044
1.08827
1.06328
1.06043
1.07288
1.08451
1.0806
1.06927
1.0546
1.05421
1.05782
1.0555
1.09984
1.16612
1.1358
1.05707
1.07008
1.16686
1.16676
1.16667
1.1666
1.16654
1.16651
1.16652
1.16654
1.16657
1.16661
1.16666
1.16668
1.16669
1.16673
1.16686
1.16705
1.16726
1.16746
1.16738
1.16509
1.15834
1.15032
1.14721
1.14905
1.1527
1.15318
1.14545
1.12691
1.10558
1.10189
1.10094
1.10026
1.10161
1.096
1.09832
1.09096
1.09341
1.08649
1.08656
1.08819
1.08703
1.09082
1.08897
1.09425
1.092
1.09746
1.09621
1.0956
1.09858
1.07885
1.08168
1.08934
1.08504
1.07779
1.07667
1.07644
1.07711
1.08214
1.07805
1.07461
1.07187
1.09501
1.08909
1.0834
1.07813
1.10609
1.09986
1.0932
1.11397
1.11424
1.10596
1.10611
1.11172
1.10816
1.09702
1.10515
1.11291
1.0932
1.06561
1.06204
1.07658
1.08909
1.08474
1.0724
1.05392
1.05382
1.05865
1.05569
1.09948
1.16629
1.13539
1.05718
1.07044
1.16658
1.16652
1.16647
1.16643
1.16641
1.16641
1.16644
1.16647
1.16649
1.16643
1.16623
1.1659
1.16573
1.16583
1.16618
1.16661
1.16699
1.16682
1.16349
1.15389
1.1432
1.13733
1.13738
1.14016
1.14036
1.13298
1.11815
1.10431
1.09487
1.09668
1.09387
1.09421
1.09216
1.09317
1.08947
1.0909
1.08699
1.08803
1.08496
1.08454
1.08732
1.0859
1.08977
1.08779
1.09625
1.09339
1.09948
1.09857
1.09307
1.09716
1.10172
1.07354
1.07732
1.08725
1.08203
1.07003
1.06937
1.06951
1.07087
1.07344
1.06944
1.06628
1.06388
1.08652
1.0801
1.0742
1.06897
1.09908
1.09165
1.08413
1.11384
1.11197
1.09872
1.09889
1.10669
1.1113
1.10171
1.10881
1.11305
1.09773
1.06808
1.06376
1.0802
1.0933
1.08852
1.07539
1.05368
1.05357
1.05963
1.05603
1.09849
1.16797
1.13805
1.0569
1.06954
1.16635
1.16634
1.16632
1.16631
1.16632
1.16634
1.16635
1.16624
1.16586
1.16495
1.16371
1.16292
1.16301
1.16379
1.1649
1.1659
1.16581
1.16159
1.15043
1.13658
1.12871
1.12685
1.12732
1.12621
1.12058
1.11186
1.10459
1.09977
1.09408
1.09758
1.09031
1.09204
1.08757
1.08885
1.08548
1.08646
1.08456
1.08482
1.08381
1.08335
1.0861
1.08475
1.09064
1.08829
1.10192
1.09841
1.10447
1.10444
1.09256
1.09754
1.10299
1.10721
1.06861
1.07344
1.08586
1.07935
1.06253
1.06229
1.06289
1.06506
1.06452
1.06081
1.05786
1.05584
1.07697
1.07041
1.06466
1.05978
1.09049
1.08214
1.07416
1.11228
1.10759
1.08991
1.09011
1.09969
1.11203
1.1055
1.11042
1.11207
1.10138
1.07034
1.06525
1.08342
1.09671
1.09154
1.07789
1.05358
1.05329
1.06047
1.05634
1.09699
1.17053
1.14593
1.05621
1.0676
1.16619
1.1662
1.16621
1.16623
1.16625
1.16621
1.16588
1.1648
1.16273
1.16038
1.15911
1.15922
1.16039
1.16211
1.16372
1.16401
1.15969
1.14761
1.13233
1.12402
1.12121
1.12016
1.11838
1.11504
1.11088
1.10599
1.10599
1.1084
1.11295
1.09891
1.10338
1.09196
1.09514
1.08729
1.08937
1.08428
1.08557
1.08333
1.08357
1.08429
1.08403
1.08644
1.08511
1.09496
1.09209
1.1108
1.10712
1.1092
1.11062
1.11279
1.09237
1.0982
1.10583
1.11027
1.06416
1.07003
1.08487
1.07708
1.0551
1.05523
1.05672
1.05966
1.05564
1.05225
1.04977
1.04848
1.06693
1.06062
1.05537
1.05093
1.08067
1.07186
1.0639
1.10864
1.10127
1.07997
1.0803
1.09125
1.11141
1.10778
1.11023
1.10957
1.10383
1.07208
1.06635
1.08583
1.09897
1.09343
1.07957
1.05349
1.05297
1.06107
1.05657
1.09471
1.17034
1.14498
1.05525
1.06456
1.16607
1.16611
1.16613
1.16617
1.16607
1.16543
1.1636
1.16026
1.15707
1.15537
1.15544
1.15686
1.15902
1.16109
1.1616
1.15751
1.14521
1.1298
1.12232
1.1199
1.11877
1.11746
1.11507
1.11197
1.10979
1.11473
1.12803
1.11999
1.12746
1.10859
1.1141
1.0988
1.10348
1.09113
1.09465
1.08625
1.08833
1.08423
1.08488
1.08796
1.08817
1.08995
1.08856
1.1032
1.09986
1.11907
1.1184
1.11848
1.11292
1.11384
1.11971
1.11969
1.09274
1.09992
1.10838
1.11359
1.06043
1.06724
1.08405
1.07525
1.04829
1.04893
1.05134
1.05509
1.04725
1.04446
1.04269
1.04217
1.05706
1.05136
1.04683
1.04296
1.07022
1.06151
1.05409
1.10335
1.09374
1.06953
1.07023
1.08212
1.11004
1.10825
1.10927
1.10572
1.10477
1.07314
1.06692
1.08706
1.09982
1.09379
1.08021
1.05339
1.05262
1.06135
1.05669
1.08941
1.15018
1.12184
1.05413
1.06096
1.166
1.16605
1.16608
1.16592
1.16506
1.16231
1.15793
1.1539
1.15185
1.15177
1.15327
1.15568
1.15802
1.15878
1.15478
1.1431
1.12877
1.12244
1.12019
1.11952
1.11899
1.11775
1.11661
1.1184
1.12752
1.14191
1.14899
1.15357
1.13488
1.14218
1.12209
1.12833
1.11067
1.11618
1.10102
1.10562
1.09347
1.09691
1.08906
1.09083
1.09661
1.09777
1.09766
1.09665
1.11473
1.111
1.12407
1.12286
1.12819
1.12678
1.11708
1.11902
1.12457
1.1244
1.09297
1.10134
1.11029
1.11648
1.05748
1.06505
1.08346
1.07386
1.04242
1.04395
1.04696
1.05144
1.04
1.03794
1.03708
1.03702
1.04806
1.04331
1.03947
1.03642
1.05985
1.0518
1.04535
1.09749
1.0862
1.05935
1.06103
1.07339
1.10741
1.10738
1.10734
1.10136
1.10418
1.07337
1.067
1.08699
1.09925
1.09285
1.0799
1.05326
1.05221
1.06136
1.05667
1.0744
1.14037
1.08843
1.05311
1.0571
1.16596
1.16599
1.16584
1.16471
1.16132
1.15581
1.1511
1.14858
1.14829
1.14967
1.15208
1.15447
1.15519
1.15176
1.14096
1.12893
1.12335
1.12164
1.12277
1.12498
1.12661
1.12892
1.13435
1.14307
1.15428
1.16392
1.16082
1.16423
1.15038
1.15625
1.13761
1.14409
1.12538
1.1313
1.11506
1.11996
1.10643
1.11055
1.09988
1.10283
1.10822
1.11014
1.10869
1.10784
1.12526
1.12426
1.12419
1.12961
1.12913
1.13392
1.13283
1.12081
1.12336
1.12961
1.12887
1.09319
1.10236
1.11109
1.11796
1.05507
1.06315
1.08274
1.07254
1.03795
1.04008
1.04356
1.04856
1.03427
1.0331
1.03286
1.03316
1.04043
1.03672
1.03372
1.03159
1.05032
1.04339
1.03822
1.0915
1.07898
1.05053
1.05357
1.06565
1.1037
1.10542
1.10396
1.09601
1.10185
1.07294
1.06658
1.0857
1.09634
1.08923
1.07833
1.05319
1.05195
1.06105
1.05648
1.06219
1.09635
1.06268
1.05227
1.05389
1.16592
1.16578
1.16457
1.16052
1.15422
1.14862
1.14566
1.14513
1.14625
1.14833
1.15041
1.15097
1.14761
1.13862
1.12952
1.12518
1.12474
1.12948
1.13605
1.14156
1.14595
1.15059
1.1562
1.16272
1.16716
1.16773
1.16363
1.16579
1.15691
1.16069
1.1479
1.15261
1.13818
1.143
1.12912
1.13355
1.12072
1.12486
1.11309
1.11673
1.11915
1.12056
1.12093
1.11946
1.13133
1.12944
1.13457
1.13542
1.13441
1.13454
1.13926
1.13883
1.12315
1.12679
1.13341
1.13122
1.09308
1.10274
1.11108
1.11822
1.05277
1.06106
1.08134
1.07075
1.03465
1.03715
1.04089
1.04606
1.03022
1.0298
1.02985
1.03062
1.03458
1.03186
1.02984
1.02866
1.04252
1.03693
1.03308
1.08484
1.07163
1.04399
1.04717
1.05843
1.09877
1.10187
1.09902
1.08977
1.09723
1.07137
1.06545
1.0813
1.09024
1.08222
1.07418
1.05289
1.05164
1.06043
1.05605
1.05485
1.12319
1.05951
1.05146
1.05173
1.16575
1.16451
1.16019
1.15303
1.14672
1.14336
1.14264
1.14332
1.14478
1.14619
1.1463
1.14323
1.13637
1.13052
1.12729
1.12811
1.13544
1.14535
1.15342
1.15779
1.16099
1.16405
1.16687
1.16844
1.16873
1.1679
1.16585
1.16864
1.16333
1.15508
1.15976
1.14514
1.14986
1.13899
1.14157
1.13441
1.13674
1.12913
1.13191
1.12305
1.12611
1.12911
1.12846
1.13474
1.131
1.13796
1.13676
1.13975
1.14163
1.13715
1.13876
1.14284
1.14376
1.12379
1.128
1.13464
1.13163
1.09217
1.10234
1.10939
1.11701
1.05008
1.0582
1.07856
1.06785
1.03225
1.03487
1.03853
1.04354
1.0282
1.02813
1.02832
1.02916
1.03066
1.02897
1.02796
1.02752
1.03723
1.03286
1.03015
1.07763
1.064
1.03884
1.04123
1.05113
1.09236
1.09589
1.0911
1.08171
1.08939
1.06853
1.06351
1.07527
1.08212
1.07564
1.06984
1.0526
1.05134
1.05927
1.05552
1.05198
1.13598
1.06118
1.05089
1.05064
1.1646
1.16012
1.1525
1.14539
1.14191
1.14098
1.14125
1.14204
1.14264
1.14211
1.13938
1.13546
1.13185
1.12957
1.13162
1.14007
1.1512
1.15953
1.16367
1.16591
1.16735
1.16835
1.16884
1.16901
1.16914
1.16667
1.16887
1.16913
1.16433
1.1554
1.16061
1.14333
1.14929
1.13525
1.13852
1.13218
1.13329
1.13045
1.13134
1.12852
1.12944
1.14259
1.13988
1.14687
1.14633
1.14697
1.14374
1.14286
1.14779
1.14837
1.13762
1.14048
1.14398
1.14672
1.12304
1.12784
1.13415
1.12999
1.08965
1.10018
1.10497
1.11298
1.04659
1.05415
1.07372
1.06329
1.03059
1.03287
1.03615
1.04064
1.02741
1.02746
1.02778
1.02839
1.0287
1.02786
1.02746
1.0273
1.03355
1.03065
1.02919
1.0684
1.05469
1.03573
1.04019
1.04498
1.08225
1.0859
1.079
1.06994
1.08011
1.06527
1.06178
1.07083
1.07533
1.07154
1.06672
1.05235
1.05115
1.05837
1.0552
1.05151
1.09964
1.05496
1.05047
1.05018
1.16044
1.1524
1.14479
1.14117
1.14019
1.14026
1.14061
1.14056
1.13973
1.13803
1.13567
1.13326
1.13204
1.13515
1.14386
1.15459
1.16236
1.16606
1.16766
1.16836
1.16873
1.16893
1.16907
1.16919
1.16932
1.16832
1.16926
1.1693
1.16713
1.16108
1.16485
1.15007
1.15589
1.14087
1.14484
1.1371
1.13833
1.13689
1.1368
1.13813
1.13726
1.15974
1.15712
1.15242
1.15097
1.15852
1.15837
1.14821
1.14861
1.15312
1.15306
1.13589
1.14047
1.14345
1.14758
1.11951
1.12511
1.13054
1.12473
1.08474
1.09543
1.0971
1.10543
1.0421
1.04866
1.06643
1.05679
1.02938
1.03099
1.03352
1.03716
1.02729
1.02742
1.02769
1.02814
1.02846
1.02812
1.02803
1.02805
1.03301
1.03119
1.03068
1.05741
1.04958
1.03787
1.04332
1.04547
1.06976
1.07591
1.07016
1.06077
1.0736
1.0643
1.06052
1.06832
1.07152
1.0696
1.06622
1.05226
1.05112
1.05775
1.05502
1.05061
1.14696
1.05847
1.05017
1.04985
1.15279
1.14468
1.14102
1.14001
1.13994
1.14031
1.14037
1.13974
1.13835
1.13654
1.13502
1.13518
1.13916
1.14731
1.15705
1.16386
1.16701
1.16818
1.16858
1.16879
1.16893
1.16906
1.16917
1.16927
1.16937
1.16938
1.16913
1.16938
1.16883
1.16703
1.1682
1.16238
1.16509
1.15599
1.15912
1.1521
1.15355
1.15223
1.15184
1.15517
1.15325
1.16133
1.1653
1.16575
1.16641
1.15813
1.1583
1.16159
1.15052
1.15235
1.15755
1.1562
1.13075
1.13771
1.14041
1.14686
1.11241
1.1187
1.12316
1.11552
1.07689
1.08743
1.08552
1.09409
1.03668
1.04181
1.05679
1.04848
1.02881
1.02969
1.03105
1.03319
1.0281
1.02821
1.02831
1.02846
1.0306
1.03071
1.03098
1.03104
1.03713
1.03693
1.03962
1.05484
1.05246
1.04296
1.04755
1.04977
1.06467
1.07067
1.06789
1.06026
1.07113
1.0632
1.06051
1.06784
1.07064
1.0701
1.06569
1.05247
1.05121
1.05782
1.05548
1.05075
1.16642
1.07013
1.04996
1.04981
1.14507
1.14114
1.1401
1.14011
1.14068
1.14093
1.14051
1.13959
1.13853
1.13813
1.13951
1.14388
1.15115
1.15962
1.16495
1.16745
1.16829
1.16859
1.16876
1.16888
1.16901
1.16911
1.1692
1.16931
1.16943
1.16941
1.16944
1.16939
1.16938
1.16944
1.16934
1.169
1.16923
1.16795
1.16859
1.1662
1.1671
1.16491
1.16542
1.16513
1.16489
1.16622
1.16561
1.16505
1.16672
1.16677
1.16872
1.16091
1.16145
1.16455
1.15122
1.15414
1.15956
1.15746
1.1225
1.1321
1.13523
1.14408
1.10148
1.10839
1.11259
1.10319
1.06616
1.07607
1.07094
1.07963
1.03228
1.0347
1.04547
1.03908
1.02877
1.02928
1.02998
1.03087
1.03109
1.03096
1.0308
1.03047
1.04026
1.04007
1.04031
1.03994
1.04267
1.04242
1.07329
1.05817
1.07399
1.07224
1.06962
1.07188
1.06627
1.07048
1.06959
1.06366
1.0715
1.06299
1.0603
1.06741
1.07146
1.06839
1.0657
1.05295
1.05115
1.05811
1.05548
1.05226
1.16626
1.07312
1.04994
1.05007
1.14191
1.14047
1.14101
1.14209
1.14296
1.14311
1.14287
1.14285
1.14342
1.14521
1.14921
1.1556
1.16203
1.16596
1.16772
1.16828
1.16854
1.16868
1.1688
1.16892
1.16903
1.16912
1.16922
1.16934
1.16947
1.16946
1.16948
1.16941
1.16947
1.16948
1.16947
1.16949
1.16935
1.16943
1.16913
1.16925
1.16897
1.16903
1.16906
1.169
1.16899
1.16908
1.16642
1.16773
1.16816
1.16847
1.16905
1.16934
1.16235
1.16367
1.16569
1.15052
1.15474
1.16039
1.15789
1.11241
1.12447
1.129
1.13985
1.08745
1.09507
1.10047
1.0895
1.05338
1.06208
1.05472
1.0634
1.0309
1.03169
1.03605
1.03313
1.03016
1.02985
1.02978
1.0303
1.039
1.03767
1.03701
1.0359
1.07318
1.07203
1.072
1.07115
1.07204
1.0692
1.09884
1.07599
1.09782
1.09795
1.09676
1.09748
1.08128
1.07176
1.08316
1.07625
1.07206
1.0637
1.06146
1.06816
1.08758
1.07224
1.08887
1.06614
1.05331
1.05127
1.05863
1.05702
1.0524
0.879791
1.06385
1.05006
1.05041
1.14176
1.14236
1.14543
1.14765
1.14883
1.14939
1.14967
1.15024
1.15179
1.15526
1.16009
1.16422
1.1668
1.16789
1.16825
1.16843
1.16857
1.1687
1.16882
1.16893
1.16904
1.16914
1.16924
1.16938
1.16951
1.1695
1.16949
1.16951
1.16943
1.16954
1.16959
1.16957
1.16964
1.16962
1.16968
1.16966
1.16971
1.1697
1.16972
1.16973
1.1695
1.16968
1.16708
1.16799
1.16869
1.16918
1.16939
1.1629
1.16457
1.1662
1.14827
1.15422
1.16067
1.15742
1.10247
1.11644
1.12311
1.13504
1.07168
1.08035
1.08895
1.07641
1.04034
1.04715
1.04217
1.04841
1.031
1.0313
1.03294
1.03159
1.03513
1.03342
1.03108
1.03119
1.07118
1.07
1.07021
1.06934
1.0993
1.09807
1.09852
1.09801
1.0986
1.09744
1.12833
1.09831
1.12745
1.12777
1.12711
1.12729
1.10103
1.08486
1.1025
1.09921
1.08442
1.06483
1.06166
1.06992
1.10658
1.08918
1.10758
1.06679
1.05395
1.05174
1.06066
1.05767
1.05182
0.463871
1.00369
1.05056
1.05069
1.14544
1.14877
1.15288
1.15531
1.15629
1.15671
1.15723
1.15846
1.16078
1.16355
1.16593
1.16735
1.16795
1.16818
1.16832
1.16845
1.16859
1.16871
1.16883
1.16893
1.16904
1.16915
1.16926
1.16941
1.16945
1.16954
1.16954
1.16953
1.16952
1.16958
1.16965
1.16961
1.16972
1.16968
1.1698
1.16976
1.16987
1.16985
1.16988
1.16988
1.16973
1.16985
1.16738
1.16817
1.16882
1.16923
1.16952
1.16308
1.16493
1.16641
1.14498
1.15245
1.16026
1.15599
1.09452
1.10975
1.1198
1.13101
1.05614
1.06602
1.07971
1.06636
1.03458
1.03805
1.03812
1.04274
1.03293
1.03285
1.03265
1.03186
1.06892
1.04061
1.03461
1.03502