/*--------------------------------*- C++ -*----------------------------------*\
  =========                 |
  \\      /  F ield         | OpenFOAM: The Open Source CFD Toolbox
   \\    /   O peration     | Website:  https://openfoam.org
    \\  /    A nd           | Version:  dev
     \\/     M anipulation  |
\*---------------------------------------------------------------------------*/
FoamFile
{
    version     2.0;
    format      ascii;
    class       volScalarField;
    location    "2500";
    object      T;
}
// * * * * * * * * * * * * * * * * * * * * * * * * * * * * * * * * * * * * * //

dimensions      [0 0 0 1 0 0 0];

internalField   nonuniform List<scalar> 
9836
(
300.097
300.138
300.113
300.145
300.226
300.107
300.125
300.266
300.219
300.092
300.128
300.297
300.306
300.201
300.073
300.117
300.283
300.362
300.304
300.176
300.066
300.113
300.262
300.373
300.375
300.278
300.152
300.064
300.107
300.234
300.383
300.424
300.353
300.251
300.14
300.055
300.098
300.23
300.381
300.457
300.436
300.332
300.22
300.125
300.051
300.084
300.204
300.357
300.464
300.48
300.414
300.297
300.199
300.118
300.049
300.087
300.203
300.33
300.449
300.517
300.472
300.388
300.266
300.178
300.111
300.049
300.082
300.188
300.293
300.45
300.535
300.533
300.457
300.339
300.252
300.168
300.104
300.045
300.076
300.167
300.288
300.435
300.522
300.564
300.511
300.418
300.316
300.226
300.156
300.099
300.045
300.071
300.17
300.277
300.401
300.519
300.588
300.57
300.488
300.387
300.287
300.216
300.152
300.095
300.041
300.073
300.165
300.254
300.366
300.501
300.585
300.619
300.552
300.456
300.345
300.271
300.203
300.143
300.093
300.041
300.064
300.146
300.249
300.352
300.467
300.583
300.639
300.613
300.525
300.418
300.328
300.257
300.197
300.14
300.088
300.038
300.063
300.151
300.238
300.333
300.451
300.582
300.646
300.652
300.59
300.493
300.384
300.305
300.246
300.188
300.135
300.087
300.04
300.06
300.145
300.213
300.32
300.401
300.553
300.649
300.678
300.647
300.56
300.453
300.366
300.293
300.237
300.182
300.132
300.084
300.039
300.061
300.138
300.212
300.284
300.395
300.527
300.642
300.693
300.681
300.618
300.507
300.422
300.349
300.284
300.229
300.177
300.129
300.082
300.036
300.061
300.126
300.198
300.273
300.394
300.482
300.63
300.7
300.716
300.67
300.585
300.475
300.398
300.33
300.275
300.221
300.169
300.124
300.08
300.038
300.058
300.128
300.191
300.278
300.376
300.456
300.613
300.704
300.735
300.709
300.642
300.551
300.454
300.379
300.32
300.267
300.218
300.17
300.125
300.079
300.038
300.052
300.12
300.189
300.259
300.349
300.451
300.59
300.694
300.749
300.748
300.693
300.61
300.507
300.429
300.366
300.311
300.26
300.211
300.167
300.123
300.079
300.037
300.055
300.118
300.185
300.257
300.34
300.407
300.542
300.666
300.751
300.775
300.736
300.664
300.577
300.479
300.411
300.355
300.302
300.254
300.209
300.164
300.122
300.078
300.035
300.052
300.114
300.184
300.238
300.312
300.397
300.53
300.656
300.752
300.787
300.779
300.716
300.629
300.54
300.463
300.396
300.343
300.296
300.25
300.205
300.16
300.12
300.079
300.037
300.052
300.11
300.176
300.23
300.302
300.396
300.497
300.633
300.735
300.795
300.806
300.764
300.684
300.588
300.513
300.447
300.386
300.338
300.288
300.243
300.2
300.161
300.12
300.078
300.037
300.051
300.105
300.168
300.234
300.288
300.391
300.47
300.611
300.719
300.795
300.825
300.803
300.738
300.653
300.563
300.493
300.426
300.378
300.332
300.286
300.24
300.202
300.16
300.119
300.077
300.038
300.05
300.106
300.168
300.228
300.29
300.381
300.443
300.583
300.693
300.789
300.834
300.83
300.784
300.705
300.614
300.54
300.475
300.412
300.37
300.326
300.283
300.241
300.201
300.161
300.119
300.079
300.038
300.05
300.102
300.163
300.223
300.282
300.344
300.435
300.559
300.678
300.782
300.839
300.856
300.819
300.755
300.667
300.587
300.516
300.456
300.405
300.364
300.321
300.277
300.237
300.201
300.161
300.121
300.08
300.038
300.049
300.102
300.159
300.217
300.268
300.35
300.404
300.538
300.659
300.757
300.839
300.874
300.858
300.796
300.721
300.638
300.568
300.497
300.451
300.4
300.358
300.316
300.279
300.239
300.2
300.162
300.122
300.082
300.04
300.046
300.097
300.152
300.207
300.27
300.343
300.39
300.53
300.622
300.742
300.829
300.885
300.885
300.842
300.769
300.688
300.609
300.546
300.489
300.438
300.398
300.354
300.314
300.276
300.24
300.201
300.164
300.125
300.084
300.04
300.047
300.09
300.152
300.201
300.268
300.315
300.388
300.497
300.613
300.713
300.822
300.895
300.906
300.881
300.815
300.738
300.658
300.595
300.524
300.479
300.435
300.39
300.349
300.312
300.275
300.24
300.204
300.167
300.127
300.087
300.042
300.043
300.096
300.146
300.2
300.264
300.326
300.4
300.47
300.592
300.689
300.821
300.891
300.924
300.911
300.861
300.781
300.711
300.633
300.575
300.52
300.469
300.428
300.387
300.348
300.312
300.277
300.242
300.206
300.171
300.132
300.091
300.045
300.046
300.098
300.135
300.203
300.258
300.327
300.385
300.46
300.575
300.69
300.805
300.891
300.933
300.935
300.902
300.833
300.75
300.68
300.614
300.557
300.509
300.467
300.421
300.385
300.347
300.313
300.28
300.246
300.212
300.176
300.139
300.096
300.048
300.046
300.096
300.14
300.189
300.249
300.322
300.392
300.465
300.562
300.684
300.788
300.885
300.939
300.954
300.932
300.874
300.798
300.727
300.657
300.598
300.547
300.502
300.458
300.42
300.386
300.348
300.315
300.282
300.251
300.217
300.183
300.144
300.1
300.023
300.054
300.046
300.096
300.135
300.186
300.256
300.307
300.384
300.47
300.566
300.682
300.779
300.879
300.941
300.969
300.959
300.915
300.85
300.772
300.702
300.636
300.58
300.535
300.496
300.451
300.413
300.384
300.346
300.316
300.285
300.256
300.225
300.191
300.142
300.083
300.112
300.025
300.055
300.045
300.095
300.145
300.185
300.256
300.31
300.401
300.477
300.548
300.662
300.772
300.869
300.938
300.979
300.981
300.948
300.888
300.817
300.746
300.684
300.627
300.576
300.533
300.49
300.451
300.417
300.382
300.347
300.316
300.292
300.264
300.234
300.186
300.207
300.141
300.172
300.169
300.087
300.118
300.025
300.059
300.041
300.095
300.138
300.184
300.263
300.317
300.4
300.48
300.558
300.657
300.756
300.858
300.93
300.987
300.999
300.978
300.928
300.859
300.79
300.724
300.667
300.61
300.568
300.525
300.488
300.45
300.413
300.374
300.353
300.323
300.299
300.273
300.226
300.249
300.199
300.148
300.196
300.178
300.092
300.126
300.027
300.063
300.045
300.091
300.144
300.201
300.25
300.324
300.401
300.48
300.564
300.648
300.748
300.854
300.931
300.995
301.015
301.003
300.961
300.899
300.831
300.764
300.705
300.653
300.604
300.56
300.517
300.483
300.454
300.425
300.374
300.358
300.33
300.308
300.268
300.288
300.226
300.25
300.222
300.158
300.206
300.189
300.099
300.135
300.029
300.068
300.041
300.095
300.15
300.192
300.262
300.343
300.407
300.485
300.562
300.65
300.752
300.841
300.932
300.995
301.028
301.026
300.993
300.937
300.873
300.808
300.746
300.689
300.641
300.596
300.555
300.515
300.483
300.451
300.425
300.377
300.362
300.339
300.307
300.324
300.273
300.295
300.247
300.27
300.233
300.17
300.219
300.203
300.108
300.146
300.031
300.074
300.04
300.091
300.151
300.205
300.269
300.338
300.409
300.496
300.572
300.661
300.756
300.836
300.934
300.997
301.038
301.045
301.023
300.974
300.909
300.847
300.785
300.731
300.675
300.629
300.59
300.548
300.513
300.473
300.445
300.426
300.381
300.369
300.343
300.359
300.316
300.336
300.293
300.316
300.259
300.285
300.248
300.184
300.236
300.22
300.118
300.16
300.034
300.081
300.044
300.094
300.144
300.214
300.271
300.34
300.421
300.51
300.588
300.673
300.759
300.847
300.937
301.007
301.047
301.063
301.049
301.007
300.949
300.885
300.825
300.769
300.719
300.67
300.622
300.575
300.541
300.515
300.475
300.442
300.428
300.388
300.375
300.397
300.358
300.381
300.34
300.368
300.311
300.344
300.277
300.31
300.269
300.202
300.258
300.245
300.13
300.178
300.037
300.091
300.048
300.1
300.146
300.221
300.288
300.359
300.437
300.522
300.606
300.679
300.766
300.861
300.939
301.013
301.057
301.076
301.07
301.038
300.985
300.919
300.864
300.807
300.755
300.709
300.661
300.612
300.571
300.541
300.514
300.473
300.446
300.433
300.41
300.433
300.41
300.45
300.41
300.477
300.393
300.48
300.358
300.448
300.31
300.382
300.309
300.226
300.304
300.292
300.146
300.201
300.041
300.103
300.048
300.103
300.158
300.207
300.29
300.38
300.455
300.541
300.627
300.699
300.787
300.87
300.945
301.017
301.065
301.092
301.09
301.065
301.02
300.957
300.899
300.843
300.791
300.739
300.692
300.649
300.606
300.568
300.546
300.513
300.468
300.451
300.444
300.467
300.489
300.539
300.576
300.71
300.641
300.909
300.631
300.994
300.539
300.893
300.411
300.662
300.437
300.27
300.448
300.434
300.166
300.239
300.047
300.118
300.048
300.105
300.159
300.21
300.315
300.404
300.48
300.569
300.644
300.724
300.805
300.884
300.954
301.024
301.075
301.106
301.11
301.091
301.05
300.994
300.934
300.879
300.825
300.777
300.73
300.686
300.642
300.602
300.568
300.548
300.507
300.473
300.48
300.483
300.572
300.611
300.857
301.016
301.273
301.711
301.607
302.425
301.618
302.787
301.272
302.522
300.8
301.723
300.914
300.392
300.964
300.921
300.196
300.329
300.053
300.138
300.05
300.106
300.149
300.204
300.341
300.447
300.519
300.593
300.67
300.751
300.827
300.899
300.969
301.037
301.086
301.118
301.127
301.113
301.077
301.031
300.971
300.912
300.861
300.813
300.766
300.722
300.678
300.637
300.598
300.572
300.542
300.515
300.494
300.49
300.63
300.63
301.138
301.248
302.164
302.598
303.373
304.35
304.25
305.833
304.403
306.549
303.62
306.21
302.164
304.703
302.475
300.787
302.569
302.391
300.255
300.597
300.061
300.172
300.053
300.11
300.152
300.212
300.349
300.47
300.554
300.634
300.69
300.777
300.852
300.923
300.988
301.05
301.097
301.131
301.144
301.136
301.106
301.061
301.003
300.948
300.896
300.848
300.803
300.759
300.715
300.672
300.632
300.596
300.572
300.528
300.539
300.621
300.618
301.291
301.284
302.931
303.195
305.256
306.026
307.395
308.823
308.752
310.833
308.987
311.697
307.929
311.239
305.583
309.335
306.078
301.952
306.099
305.562
300.409
301.369
300.07
300.239
300.059
300.117
300.166
300.242
300.386
300.512
300.588
300.665
300.729
300.815
300.881
300.943
301.009
301.064
301.113
301.145
301.161
301.154
301.13
301.087
301.036
300.982
300.931
300.883
300.839
300.795
300.752
300.709
300.667
300.628
300.6
300.557
300.538
301.033
300.918
301.243
301.151
303.297
303.28
306.585
306.994
310.04
310.992
312.745
314.388
314.303
316.594
314.471
317.441
313.121
316.797
310.307
314.52
310.768
304.464
310.691
309.997
300.817
303.128
300.082
300.394
300.067
300.13
300.197
300.293
300.466
300.591
300.641
300.705
300.77
300.844
300.905
300.97
301.037
301.084
301.129
301.161
301.176
301.175
301.154
301.116
301.067
301.015
300.964
300.917
300.873
300.831
300.789
300.746
300.704
300.663
300.625
300.597
300.56
300.81
300.725
302.624
302.254
303.18
302.951
307.11
307.065
311.658
312.095
315.704
316.706
318.691
320.27
320.229
322.301
320.298
323.089
318.601
322.463
315.385
319.836
315.689
308.522
315.417
314.463
301.795
306.274
300.104
300.74
300.081
300.154
300.251
300.362
300.549
300.646
300.696
300.753
300.816
300.878
300.936
301
301.06
301.106
301.147
301.178
301.194
301.194
301.176
301.143
301.097
301.047
300.997
300.95
300.907
300.866
300.825
300.783
300.741
300.7
300.659
300.625
300.591
300.68
300.617
301.872
301.521
305.926
305.262
306.882
306.483
312.132
312.033
317.386
317.69
321.329
321.87
323.317
323.747
324.35
324.742
324.778
325.53
323.976
325.897
320.499
324.909
320.577
312.807
320.074
318.971
303.613
310.288
300.151
301.501
300.083
300.199
300.327
300.449
300.611
300.69
300.748
300.803
300.861
300.919
300.977
301.036
301.09
301.131
301.168
301.196
301.212
301.213
301.198
301.168
301.126
301.077
301.029
300.983
300.94
300.899
300.859
300.819
300.778
300.737
300.696
300.653
300.627
300.709
301.221
301.023
304.52
303.75
310.397
309.499
311.733
311.155
317.646
317.452
322.099
322.073
323.782
323.697
324.649
324.387
325.417
324.973
326.175
325.823
326.718
326.744
325.344
327.368
325.24
317.139
324.558
323.331
306.709
314.452
300.243
302.835
300.198
300.419
300.551
300.666
300.737
300.796
300.851
300.907
300.962
301.017
301.071
301.122
301.16
301.191
301.216
301.231
301.232
301.219
301.192
301.153
301.107
301.059
301.014
300.972
300.932
300.893
300.854
300.815
300.774
300.731
300.687
300.652
300.668
301.86
301.494
303.005
302.384
308.496
307.441
315.333
314.267
316.982
316.244
321.966
321.738
323.547
323.374
323.936
323.416
324.054
322.789
324.702
322.728
325.992
323.962
327.29
326.096
327.904
327.879
328.264
321.456
328.171
327.155
310.547
318.726
300.454
305.087
300.436
300.632
300.709
300.783
300.844
300.899
300.953
301.006
301.058
301.108
301.156
301.19
301.217
301.238
301.251
301.252
301.24
301.216
301.179
301.135
301.089
301.044
301.002
300.963
300.925
300.888
300.85
300.811
300.77
300.73
300.686
300.684
301.25
300.941
304.274
303.349
306.362
305.316
313.065
311.775
319.863
318.846
321.337
320.695
323.21
323.064
322.941
322.583
321.558
320.632
320.656
319.09
321.175
318.736
323.268
319.984
326.371
322.992
328.551
326.944
329.233
325.576
329.724
329.856
328.198
314.887
323.177
300.926
308.946
300.692
300.759
300.826
300.891
300.946
300.998
301.048
301.098
301.145
301.19
301.221
301.244
301.262
301.272
301.273
301.261
301.238
301.204
301.163
301.118
301.074
301.032
300.993
300.956
300.921
300.884
300.848
300.811
300.77
300.729
300.712
301.226
302.62
302.144
307.815
306.629
310.44
309.112
317.643
316.293
322.424
321.897
322.918
322.747
322.397
322.371
320.113
319.896
318.353
318.193
317.459
317.198
317.505
316.525
319.394
316.792
323.283
319.334
327.84
323.771
325.839
329.453
328.518
329.475
326.75
329.246
330.171
329.607
329.014
330.377
320.256
328.496
327.999
324.86
303.565
319.47
300.811
300.872
300.937
300.993
301.043
301.091
301.138
301.182
301.223
301.252
301.272
301.287
301.295
301.293
301.282
301.26
301.228
301.189
301.146
301.103
301.061
301.022
300.985
300.95
300.918
300.886
300.852
300.816
300.778
300.758
301.155
303.733
302.87
305.492
304.626
311.819
310.395
314.834
313.325
321.126
320.113
322.662
322.661
322.424
322.545
319.97
320.156
318.306
318.503
317.389
317.666
316.568
317.01
315.917
316.168
317.831
316.511
315.833
315.537
321.892
319.674
316.384
316.315
317.951
324.353
327.119
324.992
322.261
327.672
330.438
330.294
330.14
329.065
328.363
330.529
327.18
324.06
327.166
330.05
329.701
313.51
327.664
328.467
325.2
300.921
300.983
301.041
301.089
301.134
301.178
301.219
301.256
301.283
301.3
301.312
301.317
301.315
301.303
301.281
301.251
301.214
301.173
301.13
301.089
301.05
301.013
300.98
300.953
300.933
300.916
300.889
300.852
300.841
301.198
303.937
306.766
306.318
309.034
307.927
315.926
314.403
318.866
317.448
322.56
322.25
321.46
321.969
320.498
320.943
318.817
319.174
318.046
318.411
317.647
318.334
317.119
318.387
315.668
316.11
316.786
317.675
315.575
315.359
315.505
320.15
318.117
315.429
315.383
316.482
322.888
325.831
323.655
320.673
326.603
330.81
330.973
329.724
327.412
328.223
330.324
329.496
329.716
331.023
331.048
325.966
300.083
308.601
330.414
330.231
301.03
301.087
301.136
301.177
301.218
301.256
301.288
301.313
301.328
301.336
301.34
301.336
301.323
301.302
301.273
301.238
301.198
301.157
301.117
301.077
301.041
301.011
300.999
301.039
301.107
301.101
301.041
301.019
301.375
303.861
308.884
307.621
310.428
309.499
312.928
311.627
319.408
318.078
321.566
320.606
322.35
322.507
320.541
321.114
319.578
320.034
318.761
319.13
318.881
319.216
319.514
320.277
318.514
319.456
320.221
321.02
316.082
316.949
317.967
319.053
315.204
315.39
316.083
318.519
316.686
315.099
315.047
315.427
321.352
324.499
322.161
319.057
325.37
330.831
331.228
329.027
326.275
327.194
329.799
331.173
331.478
331.55
331.821
321.162
300.508
306.354
331.665
329.414
301.135
301.182
301.222
301.258
301.292
301.32
301.343
301.354
301.361
301.362
301.357
301.344
301.323
301.295
301.263
301.227
301.189
301.149
301.11
301.074
301.049
301.101
301.393
301.785
301.861
301.635
301.478
301.83
304.147
310.002
312.328
312.405
314.202
313.242
316.707
315.407
321.684
320.803
322.459
322.232
321.731
322.232
320.448
320.984
319.528
319.965
319.413
319.645
320.594
320.478
321.564
322.06
322.278
322.442
320.122
321.146
322.071
322.87
317.111
318.309
319.581
320.854
315.29
316.091
317.276
317.037
315.576
315.221
315.177
315.052
319.756
323.056
320.602
317.547
324.012
330.516
331.164
328.125
325.011
326.036
329.049
332.133
332.371
331.731
332.215
319.142
301.028
308.38
331.927
328.331
301.23
301.267
301.3
301.328
301.352
301.371
301.381
301.383
301.383
301.377
301.364
301.345
301.322
301.298
301.269
301.233
301.194
301.152
301.113
301.105
301.355
302.338
303.515
303.853
303.274
302.592
302.857
305.024
310.449
315.495
314.963
316.001
315.625
317.642
316.773
319.768
318.688
322.612
322.358
322.588
322.691
321.562
322.127
320.778
321.322
319.902
320.284
320.133
319.881
322.785
321.796
323.493
323.896
324.021
323.936
322.082
323.217
324.219
325.052
318.655
320.122
321.606
323.045
316.098
317.418
318.989
315.858
315.139
316.076
316.038
315.183
318.241
321.55
319.092
316.304
322.583
329.958
330.821
327.088
323.672
324.812
328.16
332.597
332.715
331.612
332.32
319.258
301.507
309.381
331.839
327.911
301.314
301.342
301.365
301.384
301.399
301.407
301.407
301.403
301.396
301.385
301.373
301.367
301.365
301.354
301.322
301.274
301.221
301.171
301.191
301.769
303.49
305.562
306.374
305.893
304.944
304.82
306.832
311.77
317.651
318.692
318.962
319.154
318.771
320.365
319.703
321.812
321.107
323.109
323.087
322.62
322.953
321.868
322.399
320.887
321.532
319.971
320.328
320.503
319.655
325.361
324.529
322.303
323.551
325.668
325.999
326.069
325.873
324.387
325.588
326.607
327.42
320.662
322.364
324.016
325.561
317.524
319.278
321.178
315.328
315.253
317.557
317.516
315.951
316.94
320.077
317.779
315.621
321.165
329.255
330.331
325.991
322.344
323.602
327.226
332.803
332.833
331.357
332.258
319.361
301.465
309.491
331.803
327.803
301.387
301.403
301.416
301.427
301.434
301.433
301.427
301.418
301.416
301.43
301.482
301.564
301.608
301.582
301.495
301.384
301.289
301.332
302.175
304.637
307.424
308.978
308.962
308.226
308.173
310.136
314.16
318.012
320.69
320.176
320.977
320.881
321.466
321.176
322.242
321.83
322.963
322.661
323.557
323.678
322.876
323.285
322.172
322.745
320.316
321.132
319.397
319.655
321.23
320.058
318.762
326.931
325.813
322.906
324.429
327.971
328.17
328.129
327.723
326.948
328.143
329.093
329.818
323.106
324.979
326.72
328.28
319.498
321.62
323.797
315.362
315.881
319.601
319.549
317.352
316.066
318.746
316.757
315.581
319.872
328.513
329.812
324.926
321.134
322.508
326.34
332.874
332.906
331.059
332.155
319.64
301.041
308.782
331.887
328.069
301.445
301.45
301.455
301.46
301.456
301.451
301.451
301.477
301.573
301.805
302.121
302.32
302.297
302.099
301.817
301.565
301.587
302.658
305.535
309.177
311.287
311.787
311.66
311.959
313.492
315.899
317.933
319.296
320.919
319.921
322.002
321.505
322.796
322.424
323.402
323.119
323.67
323.594
323.895
324.03
323.232
323.623
321.923
322.6
318.704
319.701
317.987
317.996
321.373
319.95
318.403
317.217
328.402
326.96
323.31
325.214
330.227
330.302
330.121
329.465
329.618
330.741
331.642
332.262
325.897
327.845
329.572
331.051
321.952
324.377
326.727
315.793
317.099
322.117
322.058
319.321
315.863
317.679
316.308
315.852
318.839
327.838
329.359
323.986
320.159
321.637
325.602
332.902
332.99
330.801
332.056
320.067
300.396
306.703
332.096
328.649
301.488
301.484
301.483
301.479
301.474
301.486
301.568
301.843
302.369
302.967
303.293
303.266
302.965
302.528
302.117
302.042
303.144
306.269
310.313
312.555
313.321
313.609
314.097
315.016
316.173
317.539
317.542
316.867
315.601
319.543
318.277
321.529
320.616
322.88
322.275
323.756
323.378
324.033
323.963
323.757
323.832
323.135
323.519
320.682
321.504
316.212
317.241
316.66
316.265
315.66
321.428
319.761
317.603
316.362
329.738
327.977
323.597
325.883
332.492
332.453
331.997
331.104
332.319
333.362
334.13
334.532
328.884
330.792
332.396
333.763
324.804
327.407
329.794
316.804
318.875
325.006
324.908
321.728
316.034
317.041
316.359
316.545
318.147
327.317
329.027
323.284
319.516
321.096
325.107
332.926
333.086
330.618
331.982
320.716
300.444
306.953
332.386
329.559
301.519
301.508
301.504
301.494
301.52
301.682
302.147
302.998
303.817
304.253
304.236
303.87
303.317
302.786
302.655
303.703
306.897
310.993
313.02
313.68
313.991
314.351
315.01
315.868
316.476
315.105
311.474
313.662
311.627
316.815
315.282
319.576
318.249
321.772
320.759
323.185
322.581
323.774
323.584
322.692
322.632
322.119
322.521
318.342
319.286
313.928
314.11
314.089
315.624
315.371
313.753
313.757
321.321
319.271
316.889
315.439
330.868
328.812
323.836
326.421
334.593
334.394
333.653
332.499
334.908
335.778
336.337
336.498
331.874
333.625
335.031
336.243
327.893
330.513
332.78
318.287
321.013
328.097
327.885
324.375
316.414
316.909
316.626
317.618
317.882
327.003
328.853
322.928
319.276
320.992
324.92
332.954
333.189
330.529
331.943
322.234
305.593
313.139
332.726
330.645
301.536
301.525
301.517
301.558
301.775
302.474
303.593
304.632
305.164
305.186
304.795
304.173
303.571
303.378
304.405
307.45
311.27
312.987
313.6
313.784
313.93
314.27
314.584
314.093
311.608
307.766
305.911
304.72
309.633
307.697
313.088
311.392
316.237
314.711
318.947
317.648
321.101
320.115
322.373
321.861
320.206
319.874
319.91
320.198
315.122
316.156
312.56
312.89
311.444
311.823
314.473
313.942
312.426
312.47
321.254
318.869
316.354
314.639
331.766
329.467
324.007
326.833
336.423
335.946
335.008
333.621
337.173
337.825
338.1
338.119
334.644
336.128
337.335
338.299
331.015
333.48
335.484
319.942
323.184
331.163
330.651
326.94
317.146
317.153
317.162
318.844
318.046
326.932
328.827
322.945
319.437
321.262
325.007
332.989
333.313
330.521
331.943
326.621
308.161
322.515
333.035
331.815
301.548
301.539
301.576
301.865
302.726
304.138
305.358
306.012
306.09
305.729
305.103
304.485
304.299
305.188
308.013
311.226
312.738
313.205
312.896
312.293
311.851
311.229
309.772
307.46
304.537
302.065
302.858
301.988
305.549
304.03
308.907
307.196
312.194
310.596
315.021
313.671
317.424
316.272
319.273
318.44
316.929
316.391
316.8
317.034
312.237
312.507
312.525
311.06
311.188
309.901
310.193
313.451
312.754
311.058
311.258
321.19
318.579
316.13
314.231
332.5
330.038
324.215
327.222
337.826
337.158
336.067
334.509
338.985
339.359
339.436
339.341
337.027
338.2
339.152
339.833
333.935
336.091
337.719
321.651
325.288
333.865
332.924
329.249
318.181
317.698
318.109
320.359
318.702
327.054
328.947
323.32
320.264
322.298
325.463
333.005
333.386
330.607
331.991
330.272
320.237
330.129
333.288
332.793
301.557
301.592
301.9
302.931
304.549
306.003
306.775
306.914
306.622
306.077
305.536
305.39
306.265
308.633
311.067
312.24
312.361
311.078
309.315
307.855
306.701
305.492
304.041
302.371
301.245
301.1
302.142
301.591
303.861
302.89
306.199
304.973
308.758
307.484
311.184
309.994
313.467
312.339
315.569
314.562
313.902
313.514
313.414
313.818
310.595
311.105
309.726
309.499
309.769
309.734
308.477
308.592
312.809
311.821
310.038
310.624
321.219
318.471
316.134
314.158
333.203
330.669
324.621
327.753
338.87
338.076
336.898
335.282
340.271
340.405
340.391
340.145
338.871
339.741
340.385
340.766
336.359
338.122
339.344
323.573
327.455
335.894
334.898
331.43
319.573
318.696
319.504
322.146
320.013
327.51
329.273
324.591
322.009
324.322
326.671
333.093
333.477
330.782
332.112
332.502
312.757
331.082
333.535
333.452
301.6
301.914
303.014
304.856
306.497
307.38
307.568
307.39
307.007
306.637
306.607
307.415
309.231
310.797
311.668
311.447
309.48
306.858
304.755
303.631
302.809
302.031
301.316
300.921
300.845
301.055
301.576
300.869
302.217
304.333
303.129
306.924
305.688
308.548
307.863
309.765
309.145
311.184
310.438
312.833
312.003
311.192
311.367
309.679
310.684
308.823
309.143
308.346
307.849
309.04
308.61
307.532
307.289
312.634
311.492
309.709
310.515
321.48
318.583
316.603
314.491
334.03
331.535
325.438
328.619
339.625
338.794
337.636
336.062
340.914
340.934
340.874
340.605
340.118
340.657
340.981
341.123
338.02
339.406
340.271
325.683
329.748
337.507
336.743
333.671
321.405
320.397
321.771
324.49
322.253
328.342
329.837
326.343
324.347
326.226
327.943
333.175
333.563
331.12
332.265
333.377
309.318
330.57
333.706
333.783
301.891
303.031
304.992
306.846
307.76
308.005
307.936
307.726
307.568
307.709
308.431
309.473
310.439
311.055
310.503
308.249
305.332
303.184
302.126
301.559
301.194
300.943
300.818
300.774
300.741
301.367
300.811
300.746
301.961
304.252
302.912
307.4
305.837
309.544
308.671
310.366
310.068
310.83
310.591
311.352
311.102
307.596
308.313
306.472
306.613
306.445
307.293
307.527
306.232
306.079
308.913
308.156
307.23
306.511
312.839
311.535
309.837
310.955
322.205
319.193
317.84
315.602
335.106
332.772
326.864
329.987
340.148
339.42
338.379
336.966
341.158
341.141
341.039
340.843
340.737
341.005
341.135
341.187
339.178
340.096
340.561
328.422
332.556
338.458
337.003
335.53
324.328
323.258
325.257
327.944
324.925
329.298
330.344
327.636
326.308
327.408
328.843
333.242
333.615
331.381
332.352
333.518
319.29
332.465
333.829
333.923
302.948
305.018
307.001
307.955
308.216
308.197
308.104
308.118
308.337
308.789
309.417
310.061
310.389
309.558
307.251
304.453
302.46
301.521
301.116
300.938
300.845
300.795
300.759
300.73
300.697
300.95
300.714
300.703
301.252
302.791
301.83
305.635
304.126
308.05
307.003
309.051
308.722
309.105
309.129
308.775
309.008
303.136
303.809
305.024
305.402
303.451
303.49
306.121
306.016
304.845
304.859
309.373
308.156
307.369
306.286
313.803
312.275
310.807
312.375
323.628
320.543
320.066
317.707
336.502
334.462
329.04
331.959
340.523
340.009
339.206
338.054
341.188
341.147
341.059
340.914
340.795
340.9
340.926
340.92
339.311
339.891
340.049
331.686
334.052
337.724
335.975
335.317
327.967
326.142
327.817
330.632
326.796
329.566
330.714
328.353
327.391
327.948
328.973
333.266
333.619
331.56
332.399
333.794
306.425
331.389
333.915
334.02
304.915
307.031
307.995
308.263
308.281
308.184
308.167
308.336
308.705
309.185
309.591
309.548
308.49
306.345
303.82
302.077
301.28
300.983
300.883
300.83
300.795
300.761
300.734
300.708
300.683
300.683
300.746
300.681
300.823
301.278
300.981
302.46
301.769
304.1
303.293
305.107
304.73
305.073
305.175
304.311
304.808
302.73
301.719
301.605
301.436
303.552
303.507
302.665
305.52
305.043
303.7
304.049
310.748
308.888
308.171
306.475
315.76
314.022
312.802
314.898
325.927
322.843
323.395
320.924
338.198
336.589
331.959
334.512
340.697
340.414
339.982
339.3
340.901
340.866
340.836
340.792
340.067
340.029
339.932
339.912
337.945
337.997
337.101
332.404
333.13
336.075
334.628
333.948
329.425
327.633
328.44
330.744
327.484
329.882
330.7
328.47
327.624
327.771
329.12
333.192
333.579
331.523
332.244
333.747
301.428
327.872
333.978
334.028
306.927
307.963
308.236
308.234
308.085
308.018
308.129
308.373
308.655
308.763
308.396
307.244
305.344
303.159
301.8
301.168
300.956
300.88
300.836
300.807
300.774
300.749
300.726
300.7
300.669
300.673
300.666
300.678
300.682
300.666
300.693
300.779
300.721
301.045
300.883
301.488
301.259
301.815
301.686
301.761
301.821
301.484
301.639
301.782
301.358
301.345
300.852
302.838
302.7
301.91
305.336
304.58
303.183
303.724
312.982
310.385
309.547
307.202
318.818
316.877
315.708
318.336
329.12
326.166
327.688
325.118
339.584
338.82
335.446
337.441
340.696
340.538
340.313
340.029
339.896
339.942
339.999
340.112
336.891
336.949
336.87
336.991
336.153
336.223
326.508
331.374
326.355
326.85
327.661
326.986
328.918
327.662
327.916
329.693
327.352
329.936
330.754
328.587
327.353
328.293
329.097
333.025
333.591
331.419
332.23
333.279
301.472
326.976
333.981
333.945
307.759
308.138
307.997
307.71
307.483
307.444
307.506
307.512
307.364
306.893
305.847
304.192
302.543
301.544
301.099
300.957
300.893
300.858
300.827
300.796
300.769
300.746
300.72
300.69
300.659
300.661
300.657
300.673
300.66
300.657
300.659
300.656
300.69
300.67
300.747
300.717
300.786
300.772
300.765
300.779
300.784
300.76
301.434
301.103
300.993
300.915
300.767
300.695
302.469
302.133
301.618
305.517
304.424
302.97
303.613
315.756
312.444
311.217
308.319
322.834
320.642
319.105
322.242
333
330.348
332.59
329.949
340.011
339.766
338.395
339.314
340.222
340.331
340.361
340.202
337.297
337.734
337.953
338.319
326.538
326.889
326.9
327.162
326.901
327.765
318.907
325.776
319.233
319.176
319.526
319.323
324.228
327.26
323.682
325.722
327.171
329.696
330.372
328.344
322.391
327.077
322.01
328.943
332.905
333.547
331.245
331.735
333.233
397.375
329.759
333.936
333.833
307.797
307.639
306.832
306.251
305.944
305.799
305.726
305.577
305.175
304.279
303.038
301.984
301.331
301.056
300.965
300.921
300.885
300.852
300.82
300.793
300.767
300.742
300.715
300.681
300.649
300.652
300.654
300.65
300.669
300.642
300.629
300.635
300.618
300.623
300.608
300.613
300.6
300.603
300.597
300.596
300.653
300.609
301.267
301.036
300.859
300.735
300.681
302.33
301.904
301.489
306.103
304.559
302.899
303.733
318.541
314.643
312.813
309.595
327.468
324.905
322.403
326.068
337.048
334.922
336.473
334.535
339.959
339.876
339.367
339.793
338.575
339.142
339.917
339.892
327.154
327.52
327.459
327.731
318.774
319.13
319.003
319.154
318.983
319.318
310.569
319.105
310.824
310.726
310.91
310.863
318.343
323.187
317.933
318.857
323.333
329.327
330.298
327.776
316.788
321.917
316.508
328.725
332.693
333.391
330.592
331.518
333.406
738.29
349.104
333.772
333.744
306.828
305.959
304.889
304.264
304.01
303.904
303.77
303.454
302.859
302.154
301.55
301.192
301.041
300.981
300.948
300.915
300.88
300.848
300.82
300.793
300.765
300.738
300.711
300.673
300.664
300.641
300.641
300.644
300.646
300.632
300.615
300.623
300.597
300.606
300.577
300.587
300.559
300.564
300.557
300.557
300.595
300.565
301.19
300.991
300.826
300.72
300.648
302.282
301.812
301.436
306.966
305.015
303.002
304.101
320.803
316.499
313.718
310.677
332.157
329.162
325.094
329.06
338.858
337.763
337.736
336.29
339.32
339.352
339.445
339.687
327.865
336.792
338.757
338.625
319.126
319.346
319.289
319.397
310.492