/*--------------------------------*- C++ -*----------------------------------*\
  =========                 |
  \\      /  F ield         | OpenFOAM: The Open Source CFD Toolbox
   \\    /   O peration     | Website:  https://openfoam.org
    \\  /    A nd           | Version:  dev
     \\/     M anipulation  |
\*---------------------------------------------------------------------------*/
FoamFile
{
    version     2.0;
    format      ascii;
    class       volVectorField;
    location    "2500";
    object      U;
}
// * * * * * * * * * * * * * * * * * * * * * * * * * * * * * * * * * * * * * //

dimensions      [0 1 -1 0 0 0 0];

internalField   nonuniform List<vector> 
9836
(
(0.00465775 0.00723369 -5.80211e-28)
(0.0111555 0.00652356 -9.20142e-28)
(0.00465025 0.0190292 -6.5392e-29)
(0.0155703 0.00544501 0)
(0.0123317 0.0193178 -6.17313e-29)
(0.00404698 0.0275246 9.93941e-37)
(0.0191688 0.00447395 0)
(0.0174697 0.018686 0)
(0.0119892 0.0284771 0)
(0.00342295 0.0347012 -3.12841e-28)
(0.022078 0.00373211 9.43674e-28)
(0.0209886 0.0168295 0)
(0.0182943 0.0291379 0)
(0.0107525 0.0356261 -9.64408e-28)
(0.0030557 0.0410913 5.60559e-28)
(0.0246031 0.00312776 9.39337e-28)
(0.0235853 0.0143331 0)
(0.0230318 0.0286442 1.63985e-27)
(0.0176238 0.0370253 0)
(0.00945893 0.041786 8.38044e-28)
(0.00279771 0.0470394 2.06149e-28)
(0.0269863 0.00266379 0)
(0.0258347 0.0119274 0)
(0.0263755 0.0269451 1.84932e-27)
(0.0234726 0.037965 1.66741e-27)
(0.0160505 0.0431883 0)
(0.00853968 0.0475529 -1.09226e-28)
(0.00258316 0.0525902 0)
(0.029264 0.0023371 0)
(0.0279053 0.00999043 0)
(0.0286377 0.0244273 0)
(0.0280642 0.0378419 3.96401e-27)
(0.0224184 0.0448872 0)
(0.0144507 0.0486784 0)
(0.00785403 0.0530086 -1.13147e-28)
(0.00240442 0.0577176 2.15648e-28)
(0.0314622 0.0021183 0)
(0.029896 0.00867942 -5.88784e-29)
(0.0302462 0.0215135 -1.02398e-27)
(0.0313211 0.0364596 2.12453e-27)
(0.0280116 0.0461719 0)
(0.0205538 0.0503667 1.53224e-27)
(0.0132234 0.0538752 1.03569e-27)
(0.00728463 0.0580744 6.59106e-28)
(0.00225096 0.0625618 2.17961e-28)
(0.0335978 0.00195998 0)
(0.0319016 0.00788155 2.62711e-29)
(0.0316922 0.0186005 -1.05271e-27)
(0.0334793 0.0340398 -7.69551e-29)
(0.0325363 0.0464721 9.38118e-29)
(0.0265762 0.0522802 3.72969e-27)
(0.0187465 0.055274 1.38656e-27)
(0.0122417 0.0588055 9.5379e-28)
(0.00680171 0.0628707 0)
(0.00211289 0.0671314 0)
(0.0356516 0.00183083 0)
(0.0339514 0.00732499 0)
(0.0332117 0.0160684 9.72409e-28)
(0.0348655 0.0309343 1.38568e-28)
(0.0358931 0.0455325 0)
(0.0320523 0.0538782 2.25343e-27)
(0.0244546 0.0571914 0)
(0.0173008 0.0599434 0)
(0.0113933 0.0634899 0)
(0.00638062 0.0674158 0)
(0.00198412 0.0714602 0)
(0.0376764 0.00172052 0)
(0.0359716 0.00681574 0)
(0.0348793 0.0142114 1.8076e-27)
(0.0359144 0.0275858 2.72924e-28)
(0.0381223 0.0433922 1.5284e-28)
(0.0366012 0.0546466 -1.59776e-27)
(0.0302194 0.0593484 -1.117e-28)
(0.0224951 0.0614987 1.44258e-27)
(0.0160859 0.0645002 1.06102e-27)
(0.0106697 0.0679508 8.60051e-28)
(0.00599463 0.0717252 -6.15068e-28)
(0.00186563 0.0755483 -4.3197e-28)
(0.0396583 0.00163817 4.56619e-28)
(0.0379158 0.00636185 0)
(0.0366989 0.0130748 8.88311e-28)
(0.0369671 0.0243759 -1.11799e-27)
(0.0395064 0.0403971 1.55038e-28)
(0.0401017 0.054219 -1.11629e-27)
(0.0356072 0.0612848 -4.41624e-28)
(0.0279265 0.0635308 1.76516e-27)
(0.0208715 0.0658719 2.83336e-27)
(0.0150252 0.0688079 2.3329e-27)
(0.0100261 0.0722112 -8.39641e-28)
(0.00563834 0.0757992 -6.15741e-28)
(0.00175266 0.0794288 1.35219e-35)
(0.0415623 0.00158482 9.20543e-28)
(0.0398188 0.00603958 -2.30706e-29)
(0.038528 0.0123328 1.75551e-27)
(0.0381588 0.0216881 -1.09616e-27)
(0.0403647 0.0369345 -1.24227e-27)
(0.0425071 0.0525313 -2.88259e-29)
(0.0402595 0.0625234 -4.37734e-28)
(0.0334445 0.0658951 0)
(0.025806 0.0676332 1.76811e-27)
(0.0194741 0.0699818 1.36455e-27)
(0.0140904 0.0729966 2.4241e-28)
(0.00942427 0.0762575 -1.65018e-27)
(0.00529722 0.079673 4.67172e-28)
(0.0016428 0.0830824 8.31524e-28)
(0.0434474 0.00154087 9.32881e-28)
(0.0417004 0.00580711 0)
(0.0403356 0.011652 1.69445e-27)
(0.0395776 0.0197434 0)
(0.0410297 0.0333405 -1.23857e-27)
(0.0439762 0.0498296 0)
(0.0439129 0.0626913 4.31098e-28)
(0.0387511 0.0682113 6.18697e-28)
(0.0309517 0.0698155 -1.03253e-27)
(0.0240078 0.0715034 0)
(0.0182296 0.0740618 0)
(0.0132326 0.0769943 -1.06184e-27)
(0.00885497 0.0801012 0)
(0.00496431 0.0833272 4.59703e-28)
(0.00153623 0.0865499 4.03667e-28)
(0.0453284 0.0014835 9.38233e-28)
(0.0435799 0.00562966 0)
(0.0421313 0.0110015 8.21669e-28)
(0.0411889 0.0184356 1.04208e-27)
(0.0418093 0.0299265 0)
(0.0448496 0.0465155 0)
(0.0465112 0.0616232 0)
(0.0434569 0.0699843 6.30343e-28)
(0.0362219 0.0723568 -5.87092e-29)
(0.0286958 0.0734241 -4.971e-28)
(0.0224412 0.075406 0)
(0.0171001 0.0779769 0)
(0.0124296 0.0808061 0)
(0.00830206 0.0837495 4.66069e-28)
(0.00464209 0.0867891 -4.48598e-28)
(0.00143066 0.0898071 0)
(0.0471918 0.00143187 4.53814e-28)
(0.0454623 0.00547457 0)
(0.0439002 0.0104659 8.13705e-28)
(0.0429275 0.0174279 9.45121e-28)
(0.0428521 0.0270403 -6.07546e-29)
(0.045388 0.0428729 0)
(0.0481952 0.0594275 1.48393e-27)
(0.0472685 0.0708001 0)
(0.0414004 0.0749665 1.64708e-28)
(0.033569 0.0757817 1.38556e-28)
(0.0267472 0.0770717 -1.69286e-35)
(0.0210405 0.0791998 1.24236e-28)
(0.0160536 0.0817417 2.42492e-28)
(0.0116596 0.0844356 0)
(0.00776392 0.0871866 9.08525e-28)
(0.00432834 0.090052 4.33309e-28)
(0.0013233 0.0928871 -4.7299e-28)
(0.0490472 0.00139086 4.80396e-28)
(0.0473094 0.00529707 6.32259e-28)
(0.0457299 0.0100585 8.3434e-28)
(0.0446811 0.0164359 9.25054e-28)
(0.0441757 0.0248943 -1.11769e-28)
(0.0459062 0.0391292 1.29443e-27)
(0.0492152 0.0564011 -1.01631e-28)
(0.050113 0.0704307 0)
(0.0461572 0.077195 1.44153e-27)
(0.0386162 0.0784914 1.56766e-28)
(0.031207 0.0791171 1.29346e-28)
(0.0250358 0.0807094 -3.67349e-28)
(0.0197381 0.0828871 -1.58484e-27)
(0.0150555 0.0853437 9.98441e-28)
(0.0109064 0.0878566 1.49798e-27)
(0.00724102 0.0904473 8.4356e-28)
(0.00400658 0.0931397 1.57094e-28)
(0.00121586 0.0957541 0)
(0.0508783 0.00135912 4.67518e-28)
(0.0491222 0.00513838 1.36233e-27)
(0.047599 0.00972014 7.65619e-28)
(0.0463599 0.0154766 9.45577e-28)
(0.0457445 0.0234463 -5.20931e-29)
(0.0465959 0.035571 2.55556e-27)
(0.0498433 0.0528885 1.10615e-42)
(0.0520954 0.0688716 -1.10787e-28)
(0.0501687 0.0785943 1.65563e-27)
(0.0436826 0.0813368 5.03668e-28)
(0.035866 0.081561 1.465e-28)
(0.0291506 0.0825349 2.69235e-29)
(0.0234698 0.0842921 -1.6888e-27)
(0.0185049 0.0864351 1.43948e-27)
(0.0140906 0.0887504 2.0001e-27)
(0.0101699 0.0911014 1.49128e-27)
(0.00671455 0.0935358 -8.39783e-28)
(0.00368436 0.0960088 0)
(0.00110523 0.0984189 -4.95918e-28)
(0.0526569 0.00132651 0)
(0.0509324 0.00501631 1.30612e-27)
(0.049396 0.00938832 -3.2047e-29)
(0.0480815 0.0147212 1.01804e-27)
(0.047354 0.0223265 -5.08066e-29)
(0.0475323 0.0325625 1.33098e-27)
(0.0502622 0.0491524 2.85511e-27)
(0.0533698 0.0663349 0)
(0.0533128 0.0789205 0)
(0.0484417 0.0839552 1.24949e-28)
(0.040699 0.0843929 2.35281e-27)
(0.0334136 0.0847033 0)
(0.0273061 0.0859567 1.1328e-27)
(0.0220108 0.0877494 8.25423e-28)
(0.0173328 0.0898089 1.42963e-27)
(0.0131489 0.091985 0)
(0.00944012 0.0941911 4.28876e-28)
(0.00617633 0.0964116 -3.98906e-28)
(0.00335081 0.0986921 -6.98657e-28)
(0.000986772 0.100879 0)
(0.0543976 0.00129152 4.98546e-28)
(0.0527184 0.00488781 6.52513e-28)
(0.0511925 0.00905159 -6.60484e-29)
(0.0498575 0.0141661 9.07434e-28)
(0.0488981 0.0212822 1.93463e-28)
(0.0487378 0.0302811 1.18914e-27)
(0.0506471 0.0454161 1.52991e-27)
(0.0541365 0.0631511 -1.08673e-28)
(0.0556131 0.0781059 0)
(0.0526246 0.0859636 0)
(0.0455659 0.0874505 1.45217e-27)
(0.0378331 0.0872524 -7.3425e-28)
(0.0312398 0.0879113 1.16324e-27)
(0.0256042 0.0893069 4.95025e-29)
(0.0206254 0.0910765 -9.69636e-28)
(0.0161854 0.0930394 -2.31978e-28)
(0.0122099 0.0950809 0)
(0.00869296 0.0970888 -2.70344e-37)
(0.0056169 0.0991187 8.91152e-28)
(0.00299294 0.10117 0)
(0.000860202 0.103111 -5.29993e-28)
(0.0561123 0.00126206 4.7034e-28)
(0.0544656 0.00474088 0)
(0.0529843 0.00873507 7.98314e-28)
(0.0516169 0.0137316 3.95378e-29)
(0.0505215 0.0203323 1.06473e-27)
(0.0501336 0.0285633 2.72244e-27)
(0.0512365 0.0418881 1.35502e-27)
(0.0545833 0.059591 0)
(0.0571766 0.0762493 1.7414e-27)
(0.0560539 0.087055 1.9595e-27)
(0.050275 0.0904335 2.59879e-28)
(0.0424175 0.090161 2.66961e-28)
(0.0352946 0.090181 0)
(0.0292762 0.0911233 1.30814e-28)
(0.0239863 0.0925798 -9.88618e-28)
(0.0192704 0.0942895 -9.46678e-28)
(0.0150416 0.0961332 4.48119e-28)
(0.0112586 0.098004 8.54971e-28)
(0.00791886 0.099819 1.83533e-27)
(0.00502991 0.101617 -9.06542e-28)
(0.00261469 0.103423 0)
(0.000723641 0.105093 -4.53185e-28)
(0.0577858 0.00123916 0)
(0.0561821 0.00458264 -6.94237e-29)
(0.0547233 0.00844557 1.64749e-27)
(0.0533601 0.0133918 -4.08256e-29)
(0.0522111 0.019438 1.43447e-27)
(0.0516374 0.0270892 1.10797e-27)
(0.0521837 0.0388407 3.00938e-27)
(0.0549121 0.0558556 -3.10234e-27)
(0.0581614 0.0735712 3.31819e-27)
(0.0586742 0.0870714 1.7907e-27)
(0.0545744 0.0929953 2.58247e-28)
(0.0470856 0.0933604 1.79417e-27)
(0.0395005 0.0927902 2.69093e-28)
(0.0330357 0.093184 1.69267e-27)
(0.0274321 0.0943259 2.32362e-29)
(0.0224211 0.0957596 -1.9353e-27)
(0.0179301 0.0973671 0)
(0.0138924 0.099079 1.88961e-27)
(0.0102791 0.100771 9.18289e-28)
(0.00711194 0.102349 -1.48349e-27)
(0.00440582 0.103903 0)
(0.00220187 0.105434 0)
(0.000575051 0.106813 3.62978e-28)
(0.0594118 0.00121146 -4.98979e-28)
(0.0578558 0.00439701 -7.28659e-28)
(0.0564416 0.00818711 8.08145e-28)
(0.0550929 0.013057 -4.2199e-29)
(0.0538983 0.0185564 9.84872e-28)
(0.0532189 0.0258288 1.50652e-27)
(0.0533452 0.0363778 1.63879e-27)
(0.0553393 0.0521342 -1.66545e-27)
(0.0587683 0.0703507 2.02803e-27)
(0.0605498 0.0860228 1.59949e-27)
(0.0582587 0.0948238 0)
(0.0516874 0.0966313 1.65211e-27)
(0.0438344 0.0957634 -2.72581e-28)
(0.0368968 0.0955301 1.29014e-27)
(0.0309532 0.0962774 2.1885e-27)
(0.0256562 0.0974523 9.95396e-28)
(0.0208986 0.0988067 -1.88924e-27)
(0.0165962 0.100327 0)
(0.012719 0.101885 0)
(0.00925955 0.103347 1.34613e-27)
(0.00625504 0.104684 -3.15274e-28)
(0.00372533 0.105966 -9.65449e-28)
(0.00174518 0.107185 -4.095e-28)
(0.000406959 0.108247 2.57469e-28)
(0.0609842 0.00116594 -4.96743e-28)
(0.0594817 0.00420838 -7.27333e-28)
(0.0581281 0.00795462 -4.24522e-29)
(0.0568124 0.0126331 8.87556e-29)
(0.0556124 0.0177819 1.11653e-27)
(0.0548155 0.0247799 1.29453e-27)
(0.0546419 0.0344064 1.18517e-27)
(0.0559902 0.0486525 4.11267e-27)
(0.0591894 0.066832 0)
(0.0618316 0.0840477 4.26674e-27)
(0.061198 0.0957105 0)
(0.0560238 0.0996791 3.55334e-27)
(0.0482746 0.0990424 1.58641e-27)
(0.0408723 0.0982047 1.98348e-42)
(0.0345392 0.0984536 5.285e-28)
(0.0289708 0.0993313 1.64952e-27)
(0.0239454 0.100454 2.00503e-27)
(0.0193902 0.101774 1.17374e-28)
(0.0152444 0.10316 8.42882e-28)
(0.0115033 0.104517 1.54138e-27)
(0.00818751 0.105744 0)
(0.00532727 0.106818 -1.21305e-27)
(0.0029764 0.107779 -1.00725e-27)
(0.00122648 0.108661 7.89793e-28)
(0.000220506 0.109364 -1.21339e-28)
(0.062479 0.00111336 -4.8834e-28)
(0.0610628 0.00405891 4.55583e-29)
(0.059755 0.00769925 -8.89277e-28)
(0.0584918 0.0121513 0)
(0.0573241 0.0171748 -1.02603e-27)
(0.0564176 0.0238336 1.54388e-27)
(0.0560682 0.0327377 1.87636e-27)
(0.0568656 0.0456035 1.31767e-27)
(0.0595617 0.0632331 4.51448e-28)
(0.0626658 0.0813833 3.84532e-27)
(0.0634181 0.0955722 2.9791e-27)
(0.0598756 0.102187 3.76863e-27)
(0.0527118 0.102514 4.00707e-27)
(0.0449702 0.101223 1.5383e-27)
(0.0382213 0.10088 1.93995e-42)
(0.0323384 0.101402 2.03111e-27)
(0.0270615 0.102282 2.12704e-27)
(0.0222664 0.10342 -8.08643e-28)
(0.0178677 0.104623 -1.63632e-27)
(0.013847 0.10585 7.081e-28)
(0.0102252 0.106982 0)
(0.0070288 0.107979 2.88962e-28)
(0.00430636 0.108724 -1.26434e-27)
(0.00213367 0.109337 1.05238e-27)
(0.000659637 0.109831 -5.0829e-29)
(5.9751e-06 0.110245 8.99354e-30)
(0.0638827 0.00106953 -4.77445e-28)
(0.0625641 0.00392081 -6.72523e-28)
(0.0612962 0.00740061 -1.53818e-27)
(0.0601312 0.0117172 -2.06232e-28)
(0.05902 0.0166359 -2.38713e-27)
(0.0580234 0.0229371 2.62181e-27)
(0.0575923 0.0312527 2.75293e-28)
(0.0579122 0.0430758 6.98924e-28)
(0.0599893 0.0596978 0)
(0.0632124 0.0782965 3.89139e-27)
(0.0650077 0.0944792 2.00596e-27)
(0.0631104 0.103917 3.04408e-27)
(0.0569901 0.105927 3.70314e-27)
(0.0491638 0.104561 4.46993e-27)
(0.0419952 0.103587 0)
(0.0357968 0.103671 -2.70313e-28)
(0.0302462 0.104278 2.00903e-27)
(0.0252179 0.105208 9.75599e-28)
(0.0205913 0.106283 -7.8491e-28)
(0.016309 0.107368 -4.30829e-27)
(0.0123817 0.108396 7.33192e-28)
(0.00885727 0.109334 -3.08648e-28)
(0.00575807 0.109998 2.45867e-28)
(0.00316491 0.110395 0)
(0.00119253 0.110588 -1.38995e-28)
(5.85834e-05 0.110607 -9.05823e-30)
(-0.000253817 0.110426 2.37693e-27)
(0.065182 0.00102976 0)
(0.0639657 0.0037519 -6.6308e-28)
(0.0627797 0.00709291 -8.35005e-28)
(0.0617558 0.0112923 -8.89894e-28)
(0.0606575 0.0160223 -1.36e-27)
(0.0596744 0.0221332 -1.17621e-28)
(0.059129 0.0298835 2.75888e-28)
(0.0591551 0.0410319 -1.66194e-27)
(0.0605802 0.0563681 4.57077e-32)
(0.0636113 0.0750117 1.95836e-27)
(0.0660959 0.0925915 -5.13959e-28)
(0.0656632 0.104742 0)
(0.0609193 0.109028 2.51197e-27)
(0.0533863 0.108135 1.79523e-27)
(0.0458542 0.106596 5.69303e-28)
(0.0393224 0.106156 0)
(0.0335107 0.106444 2.70624e-27)
(0.0282463 0.107123 1.02317e-27)
(0.0234054 0.108088 -9.5757e-28)
(0.0188925 0.109078 -8.84301e-28)
(0.0146821 0.110003 -1.43362e-27)
(0.0108212 0.110854 0)
(0.00736037 0.111489 -2.69288e-28)
(0.00434486 0.111816 -1.61536e-27)
(0.00187255 0.111763 -1.77963e-28)
(0.000188486 0.111461 0)
(-0.000613786 0.11098 3.87482e-27)
(-0.000512713 0.110204 0)
(0.0663683 0.000981521 1.17235e-28)
(0.0652818 0.00353901 -1.17699e-27)
(0.0642148 0.0067775 0)
(0.0633123 0.010754 -9.894e-28)
(0.0622576 0.0154165 -2.37836e-28)
(0.0613729 0.0213849 -1.30113e-27)
(0.0606397 0.028634 -1.15695e-27)
(0.0605585 0.0393279 -2.9965e-27)
(0.0613904 0.053358 0)
(0.0639859 0.0716747 9.94309e-28)
(0.0668229 0.0901387 5.15344e-28)
(0.0675596 0.104666 -5.32025e-28)
(0.0643407 0.111556 0)
(0.0574995 0.111808 1.91681e-27)
(0.049776 0.109931 0)
(0.0428911 0.10888 1.56994e-27)
(0.036839 0.108798 2.90653e-27)
(0.0313348 0.109196 0)
(0.0262939 0.110004 1.0008e-27)
(0.0215783 0.110916 -5.92848e-32)
(0.017125 0.111807 4.45282e-28)
(0.0129536 0.112565 1.33504e-28)
(0.00912896 0.113167 -1.00371e-27)
(0.00570131 0.113485 -1.87672e-27)
(0.00273602 0.113356 4.3055e-28)
(0.000441713 0.112843 1.91537e-28)
(-0.00103164 0.112042 0)
(-0.00153997 0.110881 4.61042e-28)
(-0.000848465 0.109442 0)
(0.067455 0.000915123 -6.43568e-29)
(0.0664905 0.00330223 -1.12113e-27)
(0.0655726 0.00644507 1.29183e-28)
(0.0647493 0.0101537 1.93632e-27)
(0.06387 0.0149074 5.07497e-28)
(0.0629742 0.0205411 -2.67115e-28)
(0.0622428 0.027539 -1.99262e-27)
(0.0620076 0.0377631 -1.33127e-27)
(0.0624362 0.0508055 3.28137e-27)
(0.0644461 0.0683962 2.93267e-27)
(0.0673227 0.0873486 -2.62471e-27)
(0.0689059 0.103782 1.65261e-27)
(0.0671473 0.113363 1.05029e-27)
(0.0613651 0.115367 4.05741e-27)
(0.0537071 0.11355 1.86693e-27)
(0.0464979 0.111874 2.21283e-27)
(0.0401988 0.111342 3.10348e-27)
(0.0344839 0.111445 2.01221e-27)
(0.0292444 0.112033 5.25071e-28)
(0.0243548 0.112842 9.82036e-28)
(0.0197006 0.113732 2.14482e-27)
(0.0152677 0.114471 1.49401e-28)
(0.0111024 0.115028 -9.89445e-28)
(0.00726621 0.115351 0)
(0.00382883 0.115251 5.02826e-28)
(0.000913098 0.114675 7.48071e-28)
(-0.00125483 0.113618 0)
(-0.00250084 0.112063 6.81515e-28)
(-0.00253161 0.110212 9.86719e-28)
(-0.00122354 0.108004 0)
(0.0684131 0.000833643 2.25418e-27)
(0.0675836 0.00307412 -7.13625e-29)
(0.0668073 0.00610385 3.15411e-27)
(0.0660681 0.00959952 5.73829e-27)
(0.0653769 0.0143499 4.01888e-27)
(0.0644988 0.0196441 5.64437e-28)
(0.063914 0.0265753 5.794e-27)
(0.0634861 0.0362584 -6.45152e-28)
(0.0636983 0.0486989 3.68855e-27)
(0.0650384 0.0652823 -4.69627e-28)
(0.0677401 0.0844508 -2.13731e-27)
(0.069826 0.102244 2.23389e-27)
(0.069315 0.114354 1.14217e-27)
(0.0648275 0.118594 1.00203e-27)
(0.0575678 0.117358 3.95881e-27)
(0.0501267 0.115149 3.61401e-27)
(0.0435618 0.114084 4.76771e-28)
(0.0376829 0.113854 1.54349e-27)
(0.0322556 0.114166 5.47013e-28)
(0.0272126 0.11485 1.92474e-27)
(0.0223995 0.115712 1.34475e-27)
(0.0177536 0.116486 8.63568e-28)
(0.0132937 0.117081 -5.87625e-28)
(0.00908336 0.117415 1.50808e-28)
(0.00517596 0.117377 0)
(0.00168627 0.116843 2.73192e-28)
(-0.00118671 0.115714 -1.67523e-29)
(-0.00322219 0.113898 0)
(-0.00414787 0.111567 -3.41243e-28)
(-0.00366439 0.108883 -4.30514e-27)
(-0.00164943 0.1058 -8.28267e-27)
(0.0692129 0.000740949 3.18173e-27)
(0.0685573 0.00283711 3.12352e-27)
(0.0678965 0.0057491 3.04489e-27)
(0.0672894 0.00908876 3.79603e-27)
(0.0666881 0.0136748 4.54732e-27)
(0.0660142 0.0188507 4.63898e-27)
(0.0654636 0.0256399 5.87827e-27)
(0.0650206 0.0349025 1.32916e-27)
(0.0650402 0.0469071 -7.46728e-27)
(0.0658533 0.0624979 1.83166e-27)
(0.0681345 0.0815934 0)
(0.0704493 0.100251 -1.04644e-27)
(0.070899 0.114588 -4.57564e-27)
(0.0677706 0.121274 0)
(0.0612549 0.121205 3.23495e-27)
(0.053737 0.11872 1.91166e-27)
(0.0469203 0.117038 0)
(0.0408789 0.116398 0)
(0.035323 0.116415 0)
(0.0301447 0.116932 1.5006e-27)
(0.0252021 0.117733 1.95848e-27)
(0.0203978 0.118546 -2.34443e-27)
(0.015705 0.119239 6.84871e-32)
(0.0111603 0.119665 -5.79107e-28)
(0.00682568 0.119715 0)
(0.00278035 0.119283 0)
(-0.000767228 0.11822 2.04829e-28)
(-0.00361853 0.116353 0)
(-0.00551527 0.113691 5.0674e-28)
(-0.00608006 0.11046 -1.1424e-26)
(-0.00494494 0.10679 0)
(-0.00214564 0.102773 -1.79739e-26)
(0.069837 0.000644293 1.31558e-27)
(0.0693722 0.00259025 5.44847e-27)
(0.0688767 0.00535861 7.51284e-28)
(0.068406 0.0085693 0)
(0.0678985 0.0129405 -1.29818e-27)
(0.0674419 0.0180887 5.26035e-27)
(0.0669171 0.0246756 0)
(0.0665317 0.0337518 0)
(0.0663466 0.0453773 1.56353e-27)
(0.0668416 0.060166 1.82577e-26)
(0.0685591 0.0788736 2.02083e-27)
(0.0708851 0.0980323 2.07636e-27)
(0.0720048 0.114134 4.68624e-27)
(0.0701344 0.123315 0)
(0.0646201 0.124921 0)
(0.0572817 0.122541 1.19713e-27)
(0.0502448 0.12023 0)
(0.0440421 0.119088 0)
(0.0384018 0.118784 0)
(0.0331117 0.119086 1.56458e-27)
(0.0280871 0.11979 1.53068e-27)
(0.0231705 0.120627 -9.89357e-28)
(0.018316 0.12142 -1.47721e-27)
(0.0135092 0.122014 -1.34034e-28)
(0.008803 0.12225 1.55542e-28)
(0.00425253 0.121952 0)
(3.46624e-05 0.121033 9.25572e-28)
(-0.00361424 0.119292 -1.1415e-34)
(-0.00649213 0.116565 -1.00554e-27)
(-0.00819879 0.11294 -2.27411e-27)
(-0.00834252 0.108635 7.50216e-27)
(-0.00638329 0.10383 -5.40715e-27)
(-0.00254026 0.0988106 -9.00963e-27)
(0.07027 0.000553411 3.41478e-27)
(0.0700075 0.00232818 -2.93537e-27)
(0.0696983 0.00493785 4.33134e-27)
(0.0694099 0.00801918 -6.30692e-28)
(0.0690371 0.012182 0)
(0.0687367 0.0172547 -1.18379e-26)
(0.0683435 0.0237206 0)
(0.0679622 0.0327462 0)
(0.0676329 0.0441077 1.52438e-26)
(0.0678497 0.0582918 1.67725e-26)
(0.0690615 0.0763896 1.96638e-27)
(0.0711957 0.095764 0)
(0.0727297 0.113183 1.16543e-26)
(0.0719336 0.124671 0)
(0.0675561 0.128323 0)
(0.0606661 0.126524 -8.41793e-27)
(0.0535074 0.123688 0)
(0.0471449 0.12196 0)
(0.0414289 0.121275 1.7207e-27)
(0.0360869 0.12132 3.30111e-27)
(0.0310046 0.121884 1.60586e-27)
(0.0260404 0.122709 0)
(0.0210918 0.12358 -2.06807e-27)
(0.0161069 0.124362 3.91193e-32)
(0.0111147 0.124852 8.01317e-28)
(0.00613319 0.124835 2.7221e-28)
(0.00130775 0.124123 0)
(-0.00314855 0.122598 4.88559e-28)
(-0.00698142 0.120008 3.67769e-28)
(-0.00986088 0.116311 -3.49671e-28)
(-0.0113219 0.111529 1.38751e-26)
(-0.0108735 0.106024 1.03648e-26)
(-0.00803583 0.0998527 -1.52209e-26)
(-0.00138236 0.0949285 0)
(-0.00464355 0.0952759 -1.81429e-27)
(0.0704998 0.000468932 -1.20477e-28)
(0.0704346 0.00204192 4.07469e-27)
(0.0703415 0.00450934 -5.74085e-27)
(0.0702758 0.00742763 2.55588e-31)
(0.0700508 0.011418 -5.44662e-32)
(0.0698982 0.0163933 -2.05538e-26)
(0.0696472 0.0228337 0)
(0.0693108 0.0318398 0)
(0.068911 0.0430687 -4.54874e-27)
(0.0688396 0.0567906 0)
(0.0696351 0.0742303 -1.42741e-26)
(0.0714569 0.0936179 -4.07018e-27)
(0.0731736 0.111899 1.9611e-26)
(0.0731875 0.125422 0)
(0.0699882 0.13129 1.45369e-26)
(0.0637884 0.13054 -2.86058e-26)
(0.0566724 0.127419 -1.05542e-26)
(0.0501532 0.125047 -7.54762e-27)
(0.0443665 0.123889 -1.78396e-27)
(0.0390204 0.123636 5.1861e-27)
(0.0339179 0.123999 0)
(0.0289645 0.124772 0)
(0.023989 0.125703 1.64241e-27)
(0.0189309 0.126658 -5.02917e-28)
(0.0137378 0.127424 -8.9585e-28)
(0.00844455 0.127774 1.63195e-28)
(0.00308286 0.127439 6.89354e-29)
(-0.00211174 0.126214 0)
(-0.00691387 0.123924 0)
(-0.0109692 0.120329 2.41097e-27)
(-0.0137387 0.115467 0)
(-0.0148263 0.109267 2.24804e-27)
(-0.0136522 0.102251 -6.0912e-27)
(-0.00751798 0.0956118 -1.82854e-28)
(-0.0112819 0.0965983 1.4707e-27)
(-0.00172604 0.0920129 3.37081e-27)
(-0.00499115 0.0924452 0)
(0.0705126 0.000375384 -3.26855e-27)
(0.0706635 0.00175066 8.26244e-28)
(0.0707983 0.004026 -2.45119e-27)
(0.0709443 0.00679297 -3.25313e-27)
(0.0709469 0.0106466 2.60577e-27)
(0.0709165 0.0155553 -9.73124e-27)
(0.070775 0.0220298 0)
(0.0705085 0.0310346 0)
(0.0701022 0.0422615 -3.09394e-26)
(0.0698244 0.0556219 4.73702e-30)
(0.0702556 0.0724472 -1.46597e-26)
(0.0716895 0.0916773 8.03341e-27)
(0.0734048 0.110442 3.60126e-26)
(0.0739926 0.125674 0)
(0.0718657 0.133747 1.9396e-26)
(0.0665529 0.134457 -2.26064e-26)
(0.0596695 0.131383 -1.07992e-26)
(0.0530499 0.128376 -5.31513e-27)
(0.0471891 0.126644 -1.8386e-26)
(0.0418564 0.126015 -3.55052e-27)
(0.0368007 0.126146 -2.5402e-27)
(0.0318924 0.126803 0)
(0.0269702 0.127776 2.90845e-27)
(0.0219112 0.128858 1.72669e-27)
(0.0166458 0.129888 1.75854e-27)
(0.0111415 0.130647 -9.06818e-28)
(0.00541487 0.130811 -5.66957e-28)
(-0.000454292 0.130094 -2.41381e-28)
(-0.00614495 0.128185 0)
(-0.011337 0.124986 9.92149e-28)
(-0.0155994 0.120107 0)
(-0.0182851 0.113683 9.75567e-28)
(-0.0164882 0.105099 -2.69549e-27)
(-0.0192284 0.107838 2.58781e-27)
(-0.0141326 0.0976959 -5.7485e-28)
(-0.0180912 0.104595 0)
(-0.0174877 0.0994358 -6.68564e-28)
(-0.00855014 0.0928671 0)
(-0.0120763 0.0937311 1.9727e-27)
(-0.00176591 0.0889755 3.4167e-27)
(-0.00538305 0.0894344 0)
(0.0703005 0.000267975 0)
(0.0707064 0.00141782 -3.52922e-27)
(0.0710511 0.00346994 -2.4187e-27)
(0.0714278 0.0061835 -3.08463e-27)
(0.0716686 0.00983557 4.10521e-27)
(0.0718059 0.0147355 0)
(0.0717671 0.0212792 -6.50001e-28)
(0.071514 0.03035 0)
(0.0711351 0.0416947 -1.73296e-26)
(0.0707568 0.0548097 -3.47749e-27)
(0.0708648 0.0710529 1.49838e-26)
(0.07192 0.0900331 2.36346e-26)
(0.0734873 0.109044 2.4144e-26)
(0.0744371 0.125491 3.68885e-27)
(0.0732143 0.13568 0)
(0.0688657 0.138141 0)
(0.0624304 0.1355 -4.554e-27)
(0.0557995 0.131949 4.93977e-27)
(0.0498731 0.129578 -9.94697e-27)
(0.0445637 0.128476 -7.22732e-27)
(0.0396038 0.128313 1.42718e-26)
(0.0347878 0.128779 4.4791e-27)
(0.0299736 0.129752 0)
(0.0249991 0.130944 1.80312e-27)
(0.0197684 0.132217 -1.83566e-27)
(0.0142001 0.133348 0)
(0.00823867 0.134074 -9.31815e-28)
(0.0019124 0.134018 -4.07443e-28)
(-0.00456994 0.132762 -2.49329e-28)
(-0.0108712 0.130003 0)
(-0.016605 0.125598 -2.29782e-27)
(-0.0211137 0.119181 3.65802e-28)
(-0.0211161 0.109907 0)
(-0.0235882 0.113293 3.15819e-27)
(-0.0208699 0.106704 2.83396e-27)
(-0.0156363 0.0950414 7.05666e-32)
(-0.0206837 0.101378 3.84424e-27)
(-0.0191779 0.0966977 -1.0622e-27)
(-0.00921313 0.0898308 0)
(-0.013093 0.0906682 -2.81204e-28)
(-0.0018792 0.0856972 -1.00904e-26)
(-0.005773 0.086197 -3.57862e-27)
(0.0698213 0.000122352 3.31388e-29)
(0.0705357 0.00102423 0)
(0.0711451 0.00289594 1.02068e-27)
(0.0717376 0.00558444 -7.20514e-31)
(0.0721498 0.00899099 3.91134e-27)
(0.0725196 0.0139404 -6.81561e-27)
(0.0726035 0.0206134 0)
(0.0723613 0.029809 -7.21215e-27)
(0.071995 0.0413303 6.9683e-27)
(0.0715268 0.054354 -1.80231e-27)
(0.0713702 0.0701049 1.35344e-26)
(0.0720864 0.0887305 2.00569e-26)
(0.0734257 0.107823 -1.70198e-26)
(0.0744766 0.125172 0)
(0.0740528 0.137154 -3.46129e-27)
(0.0706859 0.141497 0)
(0.0648593 0.139666 0)
(0.058346 0.135759 1.66114e-26)
(0.0523955 0.132708 2.05942e-26)
(0.0471144 0.13104 9.34387e-27)
(0.0422658 0.130494 1.43901e-26)
(0.0375969 0.130729 2.70604e-26)
(0.0329488 0.13162 -1.7235e-26)
(0.0281347 0.13288 0)
(0.023042 0.134346 -5.05617e-27)
(0.0175335 0.135845 1.95921e-27)
(0.0115127 0.137107 2.13862e-27)
(0.00491813 0.137791 -2.49974e-27)
(-0.00213117 0.137364 1.5608e-27)
(-0.00940087 0.135428 -2.61236e-28)
(-0.0165073 0.131667 -2.626e-27)
(-0.0230528 0.125765 0)
(-0.0251184 0.115847 1.83613e-27)
(-0.0270947 0.119983 -4.95522e-28)
(-0.0236231 0.109267 -1.93017e-27)
(-0.0261305 0.112064 -3.30243e-27)
(-0.0237869 0.103732 -2.02243e-27)
(-0.0170176 0.0920041 -9.89788e-28)
(-0.0227026 0.0987104 2.27273e-27)
(-0.0209555 0.0936775 -7.46901e-28)
(-0.00994725 0.0865363 -2.59615e-28)
(-0.0141383 0.0873409 -2.61713e-27)
(-0.00197566 0.0822248 -7.07857e-27)
(-0.00612922 0.0827441 0)
(0.0690791 -4.1825e-05 -3.45175e-27)
(0.0701027 0.00062277 2.19978e-28)
(0.0710265 0.00229914 -3.93544e-27)
(0.0718447 0.00492519 4.02124e-27)
(0.0724391 0.00819528 7.4546e-27)
(0.0729835 0.0132199 -2.80304e-27)
(0.0732021 0.0201416 -1.98927e-27)
(0.0729924 0.0295117 -7.43912e-27)
(0.0726247 0.0411916 8.12994e-27)
(0.072067 0.0542576 7.86509e-27)
(0.0717148 0.0696307 1.06101e-26)
(0.0721096 0.0878067 -1.3098e-26)
(0.0732148 0.106867 -2.1174e-26)
(0.0743396 0.124788 -1.81512e-26)
(0.074367 0.138277 0)
(0.0719691 0.144508 -1.36229e-26)
(0.0668878 0.143782 0)
(0.0606381 0.139778 1.7093e-26)
(0.0547009 0.136043 3.65679e-26)
(0.0494627 0.133738 1.49687e-26)
(0.0447396 0.132718 -2.00651e-26)
(0.0402705 0.132658 8.83475e-27)
(0.0358315 0.133378 -9.0434e-27)
(0.0312545 0.134644 -1.77995e-26)
(0.0263721 0.136256 0)
(0.0210635 0.138061 6.01732e-27)
(0.0151404 0.139855 0)
(0.00847032 0.141226 2.33782e-27)
(0.0011491 0.141767 2.81822e-28)
(-0.00682404 0.140923 2.66629e-27)
(-0.0152741 0.138242 0)
(-0.0235117 0.133213 1.01386e-28)
(-0.0281256 0.123074 -1.4339e-27)
(-0.0293744 0.127887 -6.74707e-28)
(-0.0284856 0.115404 -6.24246e-28)
(-0.030524 0.118975 7.0357e-28)
(-0.0267662 0.106537 5.20344e-28)
(-0.0296313 0.109782 -5.17329e-32)
(-0.0261847 0.101163 -3.47459e-27)
(-0.0184184 0.0886707 -7.04743e-28)
(-0.024919 0.0957299 0)
(-0.0227497 0.09031 3.11943e-27)
(-0.010618 0.0830152 -6.91299e-27)
(-0.0151202 0.0837694 -1.60273e-27)
(-0.00205801 0.0786091 0)
(-0.00644498 0.0791264 1.88114e-27)
(0.0680232 -0.000276567 2.50859e-34)
(0.0693837 0.000235724 -7.59725e-27)
(0.0706073 0.00167719 0)
(0.0717176 0.00423399 -2.97375e-27)
(0.0725299 0.00750848 1.20015e-26)
(0.0731606 0.0125996 -4.22479e-27)
(0.0735037 0.0198915 2.10006e-27)
(0.0733268 0.0294975 0)
(0.0729373 0.0413363 -5.03701e-28)
(0.0723866 0.0545029 1.75465e-26)
(0.0718887 0.0695859 1.04962e-26)
(0.0719861 0.0873018 9.31871e-28)
(0.0728371 0.106235 -8.87921e-28)
(0.07395 0.12443 -2.03053e-26)
(0.0743014 0.139146 0)
(0.0726904 0.147149 -2.96607e-27)
(0.0684543 0.147774 1.14172e-29)
(0.0626073 0.143958 8.28306e-27)
(0.0567461 0.139613 2.54857e-26)
(0.0515744 0.136588 1.05179e-26)
(0.0469769 0.135008 -1.45457e-26)
(0.0427242 0.134568 0)
(0.0385601 0.135045 -5.89693e-27)
(0.0342772 0.136232 -1.50935e-26)
(0.0297129 0.137922 -5.86837e-27)
(0.0246713 0.139971 -1.73286e-27)
(0.0190359 0.142181 -4.25885e-27)
(0.012541 0.144285 1.14065e-27)
(0.00508604 0.145763 2.6048e-27)
(-0.00324746 0.146136 -1.02413e-27)
(-0.0124654 0.144881 0)
(-0.0225411 0.141284 8.17291e-28)
(-0.0296872 0.131524 4.72089e-30)
(-0.0300154 0.136884 0)
(-0.0322412 0.123125 -1.44242e-27)
(-0.033572 0.127524 -1.55013e-27)
(-0.0322932 0.113435 -1.35574e-27)
(-0.0346909 0.11758 -7.70994e-28)
(-0.0296371 0.104129 -6.30673e-27)
(-0.0329914 0.107576 -2.6856e-27)
(-0.0288997 0.0982559 1.96726e-27)
(-0.0197559 0.0850399 0)
(-0.0271852 0.092371 -4.25672e-30)
(-0.0244864 0.0866012 0)
(-0.0112097 0.0793003 -1.32594e-26)
(-0.0160187 0.0799804 -1.12117e-27)
(-0.00212304 0.0749222 0)
(-0.00669862 0.0754122 1.31477e-26)
(0.0666178 -0.000525872 5.38496e-29)
(0.0683865 -0.000148301 7.84441e-29)
(0.0698783 0.0010821 6.06608e-28)
(0.0712547 0.00356337 6.56734e-27)
(0.0723691 0.00692116 4.40975e-27)
(0.0731166 0.0121097 8.66781e-31)
(0.0735069 0.0198765 5.45262e-27)
(0.0733363 0.0297939 2.16175e-27)
(0.0729148 0.0417964 8.8782e-27)
(0.0724161 0.0550457 8.89259e-27)
(0.0718911 0.0698244 -4.67236e-28)
(0.0717187 0.0872517 1.1338e-26)
(0.0722896 0.105951 0)
(0.0732642 0.124228 1.05024e-26)
(0.0738714 0.13984 1.23774e-26)
(0.0729207 0.149425 -1.25436e-27)
(0.069512 0.151558 1.98312e-26)
(0.0642011 0.148228 7.30586e-27)
(0.0585013 0.143416 8.78537e-27)
(0.0533887 0.139633 5.14589e-27)
(0.0489337 0.137405 2.21958e-26)
(0.0449026 0.136482 0)
(0.0410462 0.136631 -6.13982e-27)
(0.0371365 0.137641 0)
(0.0329538 0.139327 0)
(0.0283341 0.141514 -6.22234e-27)
(0.0230572 0.14411 -1.05282e-26)
(0.016896 0.146808 0)
(0.00965984 0.149218 0)
(0.0012511 0.150832 1.61216e-27)
(-0.00844808 0.151172 -3.18488e-27)
(-0.0194875 0.149353 -3.63971e-28)
(-0.0293998 0.141012 3.41556e-34)
(-0.0286931 0.146573 -2.03922e-27)
(-0.0343857 0.132462 -4.31868e-29)
(-0.0348244 0.137755 0)
(-0.0367858 0.122195 -3.48114e-31)
(-0.0385211 0.127441 -5.91544e-28)
(-0.0361932 0.111583 -1.18879e-27)
(-0.0391899 0.116247 0)
(-0.0328776 0.101353 -3.58881e-27)
(-0.0368189 0.105057 -3.22733e-30)
(-0.0316713 0.0949768 -8.23954e-27)
(-0.020982 0.081135 3.52698e-35)
(-0.0294284 0.0886764 0)
(-0.0261446 0.0826135 -4.30539e-28)
(-0.0116965 0.0754529 0)
(-0.0167714 0.0760226 0)
(-0.00215789 0.0712534 0)
(-0.00685793 0.0716953 1.6478e-27)
(0.0647596 -0.000799476 0)
(0.0670138 -0.000538727 0)
(0.0688559 0.000580595 -4.29176e-27)
(0.0704753 0.00287852 6.41622e-27)
(0.0718706 0.00644449 1.06157e-26)
(0.0727739 0.0119139 4.56993e-27)
(0.0731827 0.0201748 8.30779e-27)
(0.0729557 0.0305277 -4.22068e-27)
(0.072474 0.0427213 9.88757e-27)
(0.0719902 0.0559836 9.81804e-27)
(0.0715346 0.0705716 0)
(0.0712804 0.0876093 0)
(0.0715675 0.10604 1.11484e-26)