/*--------------------------------*- C++ -*----------------------------------*\
  =========                 |
  \\      /  F ield         | OpenFOAM: The Open Source CFD Toolbox
   \\    /   O peration     | Website:  https://openfoam.org
    \\  /    A nd           | Version:  dev
     \\/     M anipulation  |
\*---------------------------------------------------------------------------*/
FoamFile
{
    version     2.0;
    format      ascii;
    class       volScalarField;
    location    "2500";
    object      a;
}
// * * * * * * * * * * * * * * * * * * * * * * * * * * * * * * * * * * * * * //

dimensions      [0 -1 0 0 0 0 0];

internalField   nonuniform List<scalar> 
9978
(
0.100011
0.100011
0.100011
0.100011
0.100011
0.100011
0.100011
0.100011
0.100011
0.100011
0.10001
0.100011
0.100011
0.100011
0.100011
0.10001
0.10001
0.100011
0.100011
0.100011
0.100011
0.10001
0.10001
0.10001
0.100011
0.100011
0.100011
0.100011
0.10001
0.10001
0.10001
0.10001
0.100011
0.100011
0.100011
0.100011
0.100009
0.10001
0.10001
0.10001
0.10001
0.100011
0.100011
0.100011
0.100011
0.100009
0.100009
0.10001
0.10001
0.10001
0.10001
0.100011
0.100011
0.100011
0.100011
0.100009
0.100009
0.100009
0.10001
0.10001
0.10001
0.10001
0.100011
0.100011
0.100011
0.100011
0.100009
0.100009
0.100009
0.100009
0.10001
0.10001
0.10001
0.10001
0.100011
0.100011
0.100011
0.100011
0.100009
0.100009
0.100009
0.100009
0.100009
0.10001
0.10001
0.10001
0.10001
0.100011
0.100011
0.100011
0.100011
0.100008
0.100009
0.100009
0.100009
0.100009
0.100009
0.10001
0.10001
0.10001
0.10001
0.100011
0.100011
0.100011
0.100011
0.100008
0.100008
0.100009
0.100009
0.100009
0.100009
0.100009
0.10001
0.10001
0.10001
0.10001
0.100011
0.100011
0.100011
0.100011
0.100008
0.100008
0.100008
0.100009
0.100009
0.100009
0.100009
0.100009
0.10001
0.10001
0.10001
0.10001
0.100011
0.100011
0.100011
0.100011
0.100008
0.100008
0.100008
0.100008
0.100009
0.100009
0.100009
0.100009
0.100009
0.10001
0.10001
0.10001
0.10001
0.100011
0.100011
0.100011
0.100011
0.100007
0.100008
0.100008
0.100008
0.100008
0.100009
0.100009
0.100009
0.100009
0.100009
0.10001
0.10001
0.10001
0.10001
0.100011
0.100011
0.100011
0.100011
0.100007
0.100007
0.100008
0.100008
0.100008
0.100008
0.100009
0.100009
0.100009
0.100009
0.100009
0.10001
0.10001
0.10001
0.10001
0.100011
0.100011
0.100011
0.100011
0.100007
0.100007
0.100007
0.100008
0.100008
0.100008
0.100008
0.100009
0.100009
0.100009
0.100009
0.100009
0.10001
0.10001
0.10001
0.10001
0.100011
0.100011
0.100011
0.100011
0.100007
0.100007
0.100007
0.100007
0.100008
0.100008
0.100008
0.100008
0.100009
0.100009
0.100009
0.100009
0.100009
0.10001
0.10001
0.10001
0.10001
0.100011
0.100011
0.100011
0.100011
0.100006
0.100007
0.100007
0.100007
0.100007
0.100008
0.100008
0.100008
0.100008
0.100009
0.100009
0.100009
0.100009
0.100009
0.10001
0.10001
0.10001
0.10001
0.100011
0.100011
0.100011
0.100011
0.100006
0.100006
0.100007
0.100007
0.100007
0.100007
0.100008
0.100008
0.100008
0.100008
0.100009
0.100009
0.100009
0.100009
0.100009
0.10001
0.10001
0.10001
0.10001
0.100011
0.100011
0.100011
0.100011
0.100006
0.100006
0.100006
0.100007
0.100007
0.100007
0.100007
0.100008
0.100008
0.100008
0.100008
0.100009
0.100009
0.100009
0.100009
0.100009
0.10001
0.10001
0.10001
0.10001
0.100011
0.100011
0.100011
0.100011
0.100006
0.100006
0.100006
0.100006
0.100007
0.100007
0.100007
0.100007
0.100008
0.100008
0.100008
0.100008
0.100009
0.100009
0.100009
0.100009
0.100009
0.10001
0.10001
0.10001
0.10001
0.100011
0.100011
0.100011
0.100011
0.100006
0.100006
0.100006
0.100006
0.100006
0.100007
0.100007
0.100007
0.100007
0.100008
0.100008
0.100008
0.100008
0.100009
0.100009
0.100009
0.100009
0.100009
0.10001
0.10001
0.10001
0.10001
0.100011
0.100011
0.100011
0.100011
0.100005
0.100006
0.100006
0.100006
0.100006
0.100006
0.100007
0.100007
0.100007
0.100007
0.100008
0.100008
0.100008
0.100008
0.100009
0.100009
0.100009
0.100009
0.100009
0.10001
0.10001
0.10001
0.10001
0.100011
0.100011
0.100011
0.100011
0.100005
0.100005
0.100006
0.100006
0.100006
0.100006
0.100006
0.100007
0.100007
0.100007
0.100007
0.100008
0.100008
0.100008
0.100008
0.100009
0.100009
0.100009
0.100009
0.100009
0.10001
0.10001
0.10001
0.10001
0.100011
0.100011
0.100011
0.100011
0.100005
0.100005
0.100005
0.100006
0.100006
0.100006
0.100006
0.100006
0.100007
0.100007
0.100007
0.100007
0.100008
0.100008
0.100008
0.100008
0.100009
0.100009
0.100009
0.100009
0.100009
0.10001
0.10001
0.10001
0.10001
0.100011
0.100011
0.100011
0.100011
0.100005
0.100005
0.100005
0.100005
0.100006
0.100006
0.100006
0.100006
0.100006
0.100007
0.100007
0.100007
0.100007
0.100008
0.100008
0.100008
0.100008
0.100009
0.100009
0.100009
0.100009
0.100009
0.10001
0.10001
0.10001
0.10001
0.100011
0.100011
0.100011
0.100011
0.100004
0.100005
0.100005
0.100005
0.100005
0.100006
0.100006
0.100006
0.100006
0.100006
0.100007
0.100007
0.100007
0.100007
0.100008
0.100008
0.100008
0.100008
0.100009
0.100009
0.100009
0.100009
0.100009
0.10001
0.10001
0.10001
0.10001
0.100011
0.100011
0.100011
0.100011
0.100004
0.100004
0.100005
0.100005
0.100005
0.100005
0.100006
0.100006
0.100006
0.100006
0.100006
0.100007
0.100007
0.100007
0.100007
0.100008
0.100008
0.100008
0.100008
0.100009
0.100009
0.100009
0.100009
0.100009
0.10001
0.10001
0.10001
0.10001
0.100011
0.100011
0.100011
0.100011
0.100004
0.100004
0.100004
0.100005
0.100005
0.100005
0.100005
0.100006
0.100006
0.100006
0.100006
0.100006
0.100007
0.100007
0.100007
0.100007
0.100008
0.100008
0.100008
0.100008
0.100009
0.100009
0.100009
0.100009
0.100009
0.10001
0.10001
0.10001
0.10001
0.100011
0.100011
0.100011
0.100011
0.100004
0.100004
0.100004
0.100004
0.100005
0.100005
0.100005
0.100005
0.100006
0.100006
0.100006
0.100006
0.100006
0.100007
0.100007
0.100007
0.100007
0.100008
0.100008
0.100008
0.100008
0.100009
0.100009
0.100009
0.100009
0.10001
0.10001
0.10001
0.10001
0.10001
0.100011
0.100011
0.100011
0.100011
0.100004
0.100004
0.100004
0.100004
0.100004
0.100005
0.100005
0.100005
0.100005
0.100006
0.100006
0.100006
0.100006
0.100006
0.100007
0.100007
0.100007
0.100007
0.100008
0.100008
0.100008
0.100009
0.100009
0.100009
0.10001
0.10001
0.10001
0.100011
0.100011
0.100011
0.100011
0.100011
0.100011
0.100011
0.100011
0.100011
0.100011
0.100011
0.100003
0.100004
0.100004
0.100004
0.100004
0.100004
0.100005
0.100005
0.100005
0.100005
0.100006
0.100006
0.100006
0.100006
0.100006
0.100007
0.100007
0.100007
0.100008
0.100008
0.100009
0.10001
0.100012
0.100013
0.100014
0.100014
0.100014
0.100015
0.100015
0.100015
0.100014
0.100012
0.100011
0.100011
0.100011
0.100011
0.100011
0.100011
0.100011
0.100003
0.100003
0.100004
0.100004
0.100004
0.100004
0.100004
0.100005
0.100005
0.100005
0.100005
0.100006
0.100006
0.100006
0.100006
0.100006
0.100007
0.100007
0.100008
0.10001
0.100014
0.10002
0.100028
0.100034
0.100035
0.100035
0.100034
0.100036
0.100041
0.100047
0.100042
0.100027
0.100012
0.100017
0.100011
0.100015
0.100015
0.100011
0.100011
0.100011
0.100011
0.100011
0.100011
0.100003
0.100003
0.100003
0.100004
0.100004
0.100004
0.100004
0.100004
0.100005
0.100005
0.100005
0.100005
0.100006
0.100006
0.100006
0.100006
0.100007
0.100007
0.10001
0.100017
0.100035
0.100068
0.10011
0.100144
0.100152
0.10014
0.100127
0.100129
0.100164
0.100234
0.100282
0.100201
0.100034
0.1001
0.100031
0.100014
0.10003
0.100027
0.100011
0.100013
0.100011
0.100011
0.100011
0.100011
0.100003
0.100003
0.100003
0.100003
0.100004
0.100004
0.100004
0.100004
0.100004
0.100005
0.100005
0.100005
0.100005
0.100006
0.100006
0.100006
0.100006
0.100008
0.100016
0.100042
0.100119
0.100268
0.100475
0.100656
0.100708
0.10063
0.100519
0.100492
0.100667
0.101165
0.101838
0.102087
0.100331
0.10126
0.100096
0.100343
0.100093
0.100023
0.100084
0.10007
0.100012
0.10002
0.100012
0.100011
0.100012
0.100011
0.100002
0.100003
0.100003
0.100003
0.100003
0.100004
0.100004
0.100004
0.100004
0.100004
0.100005
0.100005
0.100005
0.100005
0.100006
0.100006
0.100006
0.100009
0.100033
0.100113
0.100381
0.100962
0.101837
0.102711
0.103026
0.102674
0.102077
0.101795
0.102409
0.104625
0.108505
0.112661
0.104527
0.114469
0.101307
0.104988
0.100344
0.101335
0.100316
0.100056
0.100271
0.100218
0.100017
0.100042
0.100014
0.100011
0.100013
0.100012
0.100002
0.100002
0.100003
0.100003
0.100003
0.100003
0.100004
0.100004
0.100004
0.100004
0.100004
0.100005
0.100005
0.100005
0.100005
0.100006
0.100006
0.10001
0.100055
0.10025
0.101014
0.102814
0.105791
0.109067
0.110807
0.109681
0.107358
0.105973
0.107434
0.113489
0.125372
0.139661
0.130629
0.152607
0.115547
0.135184
0.105162
0.116467
0.101263
0.10497
0.101102
0.100166
0.10091
0.100711
0.100031
0.100117
0.100022
0.100011
0.100016
0.100013
0.100002
0.100002
0.100002
0.100003
0.100003
0.100003
0.100003
0.100004
0.100004
0.100004
0.100004
0.100004
0.100005
0.100005
0.100005
0.100005
0.100006
0.10001
0.100076
0.10043
0.102066
0.10633
0.113581
0.12202
0.127642
0.127364
0.121678
0.116809
0.118902
0.131123
0.15227
0.176426
0.171502
0.193852
0.156992
0.179226
0.137403
0.160707
0.116215
0.13826
0.104457
0.115031
0.103744
0.100523
0.103002
0.102293
0.100077
0.100355
0.100047
0.100012
0.100027
0.100017
0.100002
0.100002
0.100002
0.100002
0.100003
0.100003
0.100003
0.100003
0.100004
0.100004
0.100004
0.100004
0.100004
0.100005
0.100005
0.100005
0.100005
0.10001
0.100082
0.100595
0.103353
0.111073
0.124256
0.138354
0.147885
0.149311
0.143306
0.136434
0.137965
0.153357
0.179161
0.208697
0.210753
0.229177
0.20078
0.220455
0.184248
0.206891
0.162902
0.187816
0.137778
0.163804
0.113285
0.135966
0.111235
0.101656
0.109108
0.107047
0.100223
0.10111
0.100125
0.100012
0.100062
0.100028
0.100001
0.100002
0.100002
0.100002
0.100002
0.100003
0.100003
0.100003
0.100003
0.100004
0.100004
0.100004
0.100004
0.100005
0.100005
0.100005
0.100005
0.100008
0.100083
0.100684
0.104475
0.116146
0.136245
0.156806
0.169968
0.17304
0.166683
0.158137
0.15944
0.176954
0.206204
0.236267
0.241181
0.25256
0.237573
0.251179
0.227504
0.245088
0.211471
0.232866
0.190062
0.214875
0.163577
0.191307
0.132819
0.162273
0.12869
0.105137
0.12387
0.119026
0.100683
0.103457
0.100367
0.100014
0.100166
0.100062
0.100001
0.100001
0.100002
0.100002
0.100002
0.100002
0.100003
0.100003
0.100003
0.100004
0.100004
0.100004
0.100004
0.100004
0.100005
0.100005
0.100005
0.100007
0.10007
0.100681
0.105071
0.120243
0.147481
0.175928
0.193811
0.198678
0.192763
0.183088
0.182348
0.200343
0.227234
0.247591
0.257945
0.259879
0.260865
0.26626
0.259015
0.268795
0.251103
0.265575
0.237041
0.25594
0.217347
0.240529
0.191739
0.219239
0.159715
0.19138
0.156239
0.114552
0.151549
0.144973
0.102109
0.110218
0.101104
0.100018
0.100475
0.100148
0.100001
0.100001
0.100002
0.100002
0.100002
0.100002
0.100002
0.100003
0.100003
0.100004
0.100004
0.100004
0.100005
0.100005
0.100005
0.100005
0.100005
0.100006
0.100044
0.100623
0.105087
0.122427
0.156159
0.192348
0.21814
0.22777
0.223904
0.214421
0.212146
0.224701
0.238093
0.246683
0.25854
0.254727
0.267294
0.264629
0.274143
0.274717
0.276036
0.282092
0.271245
0.282755
0.260207
0.276363
0.243622
0.264391
0.220741
0.246651
0.190142
0.221883
0.188242
0.136392
0.18523
0.180257
0.106337
0.126248
0.103281
0.100027
0.101326
0.100355
0.100001
0.100002
0.100002
0.100002
0.100002
0.100002
0.100002
0.100003
0.100004
0.100006
0.100006
0.100007
0.100006
0.100006
0.100007
0.100007
0.100006
0.100006
0.100023
0.100452
0.104763
0.122631
0.16089
0.205494
0.236905
0.24918
0.250215
0.245609
0.242273
0.24376
0.245188
0.246454
0.245213
0.259002
0.250456
0.272013
0.264667
0.283402
0.281366
0.290242
0.29306
0.289119
0.298346
0.2815
0.295355
0.268716
0.287039
0.249763
0.273419
0.222669
0.252909
0.222849
0.171994
0.221987
0.218843
0.11719
0.158318
0.109224
0.100034
0.103657
0.100843
0.100001
0.100003
0.100003
0.100002
0.100002
0.100002
0.100003
0.100005
0.100008
0.100011
0.100014
0.100015
0.100014
0.100011
0.10001
0.100013
0.10001
0.100008
0.100015
0.100259
0.103825
0.121785
0.161393
0.212
0.245307
0.258456
0.261953
0.260741
0.257742
0.255047
0.252882
0.246613
0.233309
0.229453
0.216042
0.253784
0.24145
0.273943
0.261065
0.292185
0.286887
0.303492
0.304156
0.306242
0.31385
0.301949
0.314073
0.293027
0.309081
0.278476
0.299445
0.255955
0.28339
0.258167
0.211398
0.259197
0.257258
0.140449
0.198891
0.12272
0.100061
0.109521
0.102085
0.100003
0.100007
0.100008
0.100005
0.100002
0.100002
0.100004
0.100008
0.100017
0.100027
0.100037
0.100041
0.100038
0.100031
0.100023
0.100022
0.100023
0.100016
0.100015
0.100129
0.102384
0.118747
0.159904
0.212703
0.245559
0.258849
0.263656
0.264555
0.263205
0.260175
0.254431
0.243959
0.221804
0.205316
0.193276
0.212535
0.196679
0.245553
0.229032
0.274448
0.257709
0.301508
0.29227
0.31722
0.316779
0.323664
0.330047
0.322112
0.332899
0.316376
0.330068
0.30577
0.323141
0.2881
0.310823
0.291204
0.250832
0.29134
0.288337
0.177803
0.238325
0.148711
0.100109
0.120954
0.104326
0.100006
0.100018
0.100017
0.100015
0.100005
0.100003
0.100006
0.100018
0.100039
0.100071
0.100102
0.10012
0.100116
0.100095
0.100069
0.100046
0.100057
0.100038
0.100021
0.100068
0.101252
0.113421
0.15436
0.209523
0.241535
0.255663
0.260762
0.261071
0.259467
0.256225
0.249219
0.234513
0.20703
0.183727
0.172819
0.18151
0.166909
0.199865
0.181622
0.238563
0.218953
0.276177
0.256967
0.312151
0.299503
0.332106
0.330757
0.341398
0.346492
0.341251
0.350812
0.336656
0.347628
0.326725
0.338633
0.312433
0.326231
0.311115
0.282054
0.307296
0.302278
0.218148
0.271308
0.184262
0.100163
0.137548
0.107042
0.100037
0.100043
0.100032
0.100014
0.100005
0.100011
0.100035
0.100089
0.100173
0.10027
0.100339
0.100346
0.100295
0.100218
0.100142
0.100097
0.100088
0.100044
0.100057
0.100648
0.108292
0.143324
0.200665
0.230641
0.245566
0.249072
0.245444
0.240746
0.236589
0.228953
0.211722
0.177934
0.137265
0.153042
0.137795
0.164149
0.147454
0.195933
0.177171
0.236304
0.215682
0.280991
0.259861
0.324228
0.309183
0.347383
0.344856
0.357862
0.360644
0.356843
0.363954
0.348617
0.357267
0.336408
0.345205
0.322503
0.331338
0.317589
0.296441
0.310783
0.303663
0.25193
0.288785
0.218715
0.100416
0.156916
0.114101
0.100088
0.100063
0.100038
0.100012
0.100019
0.100066
0.100182
0.10039
0.100658
0.100891
0.100972
0.100874
0.100669
0.100452
0.100266
0.100176
0.100104
0.100078
0.100351
0.104352
0.131033
0.186941
0.218562
0.230502
0.225045
0.208518
0.192003
0.182382
0.175984
0.161759
0.140492
0.119184
0.114345
0.106688
0.132545
0.120267
0.159191
0.141997
0.198225
0.179544
0.238345
0.217718
0.289735
0.268653
0.335355
0.318269
0.359028
0.352516
0.367347
0.366505
0.364284
0.368683
0.353411
0.360699
0.339128
0.346841
0.323802
0.329199
0.313114
0.297593
0.301121
0.289995
0.275423
0.292733
0.248812
0.103352
0.195167
0.141354
0.100143
0.100091
0.100026
0.100031
0.100112
0.100338
0.100782
0.101449
0.102146
0.102535
0.102441
0.101973
0.101384
0.100835
0.100461
0.100265
0.100162
0.100242
0.101989
0.119422
0.170061
0.207296
0.217307
0.202507
0.174844
0.151082
0.137542
0.130277
0.123986
0.115653
0.107209
0.102385
0.107901
0.103706
0.126647
0.114942
0.161187
0.14302
0.210003
0.19089
0.248069
0.228686
0.298156
0.277093
0.33892
0.320495
0.36208
0.351354
0.368885
0.364557
0.365781
0.366333
0.354025
0.358793
0.335784
0.343013
0.315504
0.321191
0.299663
0.282378
0.282571
0.27056
0.276694
0.287765
0.287653
0.279234
0.277442
0.149241
0.254651
0.234578
0.10016
0.10006
0.100045
0.100175
0.100564
0.101412
0.102814
0.104583
0.105996
0.106315
0.105497
0.10404
0.102515
0.101366
0.100715
0.100384
0.100282
0.101054
0.110509
0.151266
0.196267
0.207068
0.188315
0.155915
0.135439
0.121434
0.112159
0.107386
0.104406
0.102045
0.100719
0.101604
0.100574
0.106867
0.103095
0.126573
0.114277
0.170369
0.148795
0.215991
0.194997
0.256435
0.236243
0.299708
0.278274
0.334249
0.313823
0.353841
0.337044
0.360716
0.348353
0.358542
0.351094
0.3472
0.345434
0.327956
0.330404
0.303063
0.31464
0.311739
0.287364
0.289138
0.26285
0.268046
0.257479
0.268567
0.269098
0.278661
0.259636
0.286513
0.280729
0.278827
0.266695
0.282137
0.280062
0.280723
0.255233
0.270513
0.276588
0.280496
0.276861
0.269672
0.274832
0.100139
0.100069
0.100248
0.100863
0.102289
0.104899
0.108506
0.112159
0.114463
0.114114
0.111019
0.107015
0.103905
0.101967
0.100966
0.10052
0.100806
0.10507
0.133449
0.18266
0.199558
0.181118
0.151382
0.133995
0.12037
0.109695
0.103458
0.101274
0.100502
0.100187
0.100345
0.100167
0.10119
0.100587
0.106569
0.102811
0.128805
0.114582
0.172706
0.149573
0.214815
0.192324
0.257126
0.236174
0.291967
0.269794
0.316596
0.294798
0.330743
0.312472
0.336636
0.321651
0.336312
0.323161
0.334749
0.331631
0.328033
0.323633
0.316742
0.317299
0.32231
0.314942
0.316726
0.304938
0.292273
0.295566
0.307576
0.282243
0.251513
0.25398
0.245022
0.259402
0.261494
0.271747
0.250232
0.270341
0.267514
0.253008
0.273583
0.276589
0.176864
0.277272
0.282134
0.2773
0.278159
0.278791
0.279998
0.100115
0.100311
0.101171
0.103381
0.10761
0.11397
0.120898
0.126028
0.127257
0.124241
0.11788
0.110499
0.105272
0.102496
0.101202
0.100841
0.102543
0.11923
0.164853
0.192606
0.180861
0.153447
0.138341
0.125927
0.113286
0.104342
0.100985
0.100231
0.100071
0.100069
0.100274
0.10017
0.100997
0.100487
0.105682
0.102284
0.12851
0.113654
0.168448
0.14414
0.202206
0.178319
0.247593
0.225205
0.273382
0.252676
0.29594
0.280201
0.310942
0.30293
0.315894
0.317045
0.320051
0.318527
0.319311
0.323936
0.319816
0.316998
0.316044
0.308488
0.308553
0.31322
0.308824
0.308341
0.298338
0.285894
0.289012
0.299906
0.275791
0.242029
0.240791
0.235275
0.251443
0.265424
0.255048
0.242084
0.254381
0.257838
0.239779
0.262295
0.266875
0.251085
0.285222
0.284823
0.270796
0.27343
0.275869
0.277868
0.10036
0.101458
0.104442
0.110695
0.120288
0.131209
0.139535
0.142806
0.140561
0.133735
0.124015
0.113774
0.106356
0.102914
0.101317
0.101859
0.110031
0.145614
0.183361
0.18204
0.158782
0.147176
0.137339
0.124508
0.110168
0.101599
0.100269
0.100051
0.100023
0.100082
0.10004
0.100241
0.100157
0.100902
0.100453
0.104279
0.101883
0.123273
0.110235
0.154337
0.132938
0.190238
0.168356
0.232339
0.211644
0.264367
0.248145
0.296498
0.290747
0.325465
0.338457
0.331195
0.342338
0.354204
0.368485
0.317528
0.323054
0.332956
0.346326
0.313393
0.315451
0.321863
0.301141
0.302868
0.312168
0.313108
0.306516
0.291619
0.279586
0.28331
0.294296
0.269869
0.2342
0.230822
0.228135
0.244924
0.259888
0.249715
0.235685
0.241617
0.245638
0.229429
0.251084
0.256996
0.289121
0.285283
0.292044
0.262395
0.26669
0.270532
0.274808
0.101623
0.105379
0.11355
0.126822
0.14177
0.15358
0.15907
0.158019
0.151331
0.140737
0.128086
0.115943
0.107022
0.102854
0.10194
0.105313
0.128512
0.169812
0.182227
0.165817
0.155531
0.148648
0.137362
0.119943
0.103632
0.100532
0.100075
0.100017
0.100017
0.100073
0.100037
0.100229
0.100144
0.100947
0.100468
0.103963
0.101866
0.11754
0.108537
0.147537
0.129885
0.192574
0.172672
0.230997
0.212423
0.284265
0.275293
0.349085
0.355602
0.381199
0.394502
0.430115
0.362402
0.380248
0.398167
0.414973
0.332274
0.347266
0.365974
0.386909
0.318638
0.329018
0.344412
0.29861
0.305215
0.322923
0.327903
0.314369
0.287781
0.274642
0.280773
0.294493
0.265514
0.228378
0.224502
0.223714
0.239993
0.255857
0.246053
0.231619
0.231396
0.23624
0.22391
0.243012
0.249832
0.290655
0.283799
0.294097
0.256231
0.262152
0.267864
0.273914
0.105953
0.115936
0.132562
0.151845
0.166967
0.174643
0.174374
0.168242
0.157612
0.144138
0.129501
0.116281
0.106722
0.102863
0.103708
0.116325
0.153113
0.179663
0.171721
0.163053
0.158632
0.14933
0.13156
0.108587
0.101195
0.100156
0.100022
0.10001
0.100019
0.100012
0.100068
0.100033
0.100231
0.100123
0.101142
0.100586
0.105031
0.102457
0.117231
0.109494
0.154057
0.138382
0.228525
0.208682
0.263211
0.247298
0.357272
0.351631
0.44054
0.438071
0.429276
0.437439
0.479337
0.48156
0.408575
0.429342
0.447618
0.462511
0.364416
0.387506
0.412025
0.436022
0.33758
0.357791
0.382238
0.303546
0.315723
0.347181
0.357068
0.333378
0.289561
0.272703
0.282897
0.300571
0.263745
0.225637
0.221946
0.222426
0.23736
0.254528
0.245665
0.23054
0.226284
0.231775
0.222623
0.238981
0.246591
0.278262
0.285682
0.295646
0.254128
0.261501
0.268236
0.276066
0.117387
0.137123
0.160275
0.178932
0.187538
0.187491
0.181759
0.172227
0.159295
0.144016
0.128586
0.115306
0.105829
0.103761
0.109423
0.136496
0.170804
0.173984
0.169154
0.166781
0.159957
0.14408
0.118137
0.102688
0.100336
0.10004
0.100009
0.100008
0.100016
0.100011
0.10006
0.100029
0.10025
0.100113
0.101825
0.100771
0.109469
0.104503
0.126282
0.116807
0.188731
0.169441
0.301347
0.277143
0.340383
0.323016
0.42715
0.414827
0.474405
0.466158
0.450182
0.459702
0.47358
0.480259
0.485204
0.493294
0.457722
0.475783
0.489339
0.498252
0.408891
0.435649
0.460528
0.481858
0.371741
0.39982
0.428887
0.31608
0.338069
0.385501
0.398151
0.366133
0.295596
0.274764
0.288688
0.313663
0.265742
0.225937
0.222062
0.22374
0.237971
0.256647
0.248113
0.231915
0.226102
0.232048
0.22423
0.239613
0.247918
0.216962
0.2944
0.289785
0.256343
0.264518
0.272492
0.282867
0.139952
0.166935
0.18836
0.196848
0.196536
0.191583
0.183175
0.171692
0.157343
0.141436
0.125894
0.11281
0.104992
0.106622
0.123322
0.15747
0.173381
0.172986
0.172882
0.168797
0.155839
0.130408
0.105924
0.100733
0.10008
0.100012
0.100007
0.100008
0.100007
0.100015
0.10001
0.100052
0.100025
0.100287
0.100117
0.10323
0.101077
0.118853
0.108636
0.151018
0.133594
0.250444
0.221461
0.360529
0.335602
0.400469
0.382138
0.436798
0.422405
0.47547
0.464623
0.443479
0.453562
0.501329
0.499408
0.477101
0.491627
0.498594
0.510242
0.515986
0.516165
0.456718
0.481348
0.501532
0.51644
0.416297
0.446809
0.474743
0.339184
0.371772
0.431045
0.443428
0.407956
0.308496
0.280218
0.301153
0.336382
0.271229
0.228556
0.224777
0.228756
0.241171
0.262556
0.254932
0.236865
0.229168
0.236456
0.229315
0.245161
0.254363
0.139549
0.299305
0.261368
0.263362
0.271645
0.280755
0.293267
0.171478
0.195077
0.203087
0.202478
0.197866
0.190166
0.179597
0.166889
0.152321
0.136641
0.121572
0.109157
0.106439
0.114975
0.143576
0.170024
0.174061
0.176661
0.175629
0.16591
0.142768
0.112617
0.101603
0.100165
0.100019
0.100007
0.100006
0.100008
0.100007
0.100013
0.100009
0.100049
0.100021
0.100351
0.100131
0.10539
0.10164
0.134031
0.115273
0.190893
0.160508
0.30604
0.271159
0.372784
0.349421
0.408927
0.392258
0.406746
0.398236
0.393349
0.388768
0.460814
0.444322
0.416428
0.429122
0.511111
0.502831
0.456651
0.478077
0.525839
0.528866
0.527678
0.521024
0.498529
0.517144
0.530284
0.537404
0.462309
0.489826
0.51236
0.372143
0.411885
0.475329
0.485215
0.451035
0.330653
0.292424
0.322757
0.368141
0.28358
0.236303
0.233183
0.24095
0.249746
0.275184
0.269354
0.248738
0.237085
0.246519
0.241598
0.256145
0.265211
0.131749
0.299844
0.229625
0.273258
0.280607
0.28948
0.301492
0.19969
0.206982
0.206336
0.201363
0.19236
0.181915
0.170729
0.158498
0.144864
0.130201
0.116229
0.107432
0.110906
0.131245
0.161288
0.173578
0.178266
0.180358
0.173884
0.1541
0.12279
0.103379
0.100346
0.100032
0.100007
0.100006
0.100006
0.100006
0.100007
0.100007
0.100011
0.100008
0.10005
0.100019
0.100462
0.100141
0.107299
0.101944
0.151628
0.122442
0.231727
0.19027
0.320429
0.284967
0.350251
0.329971
0.385758
0.381479
0.364295
0.369934
0.363722
0.360152
0.358702
0.434005
0.412331
0.379606
0.393703
0.510916
0.496503
0.431986
0.46018
0.539014
0.537204
0.530508
0.519934
0.529389
0.540843
0.546173
0.547222
0.502216
0.523477
0.538961
0.410427
0.452304
0.512225
0.518206
0.489113
0.361439
0.313754
0.352398
0.404782
0.3048
0.252804
0.249574
0.260909
0.267256
0.297433
0.293068
0.26966
0.2516
0.261594
0.259967
0.270819
0.278586
0.125221
0.293842
0.201374
0.284525
0.289831
0.2976
0.30551
0.209988
0.20849
0.201724
0.191752
0.181336
0.17068
0.159611
0.148119
0.135797
0.122729
0.111297
0.110031
0.122382
0.150411
0.171236
0.1784
0.183039
0.179699
0.163489
0.133991
0.106522
0.100712
0.100061
0.100009
0.100006
0.100006
0.100006
0.100006
0.100007
0.100007
0.100011
0.100008
0.100055
0.100019
0.100573
0.100161
0.107607
0.102044
0.157112
0.12413
0.243999
0.199769
0.30345
0.270675
0.290975
0.272816
0.35838
0.358725
0.313731
0.319071
0.328143
0.322996
0.321038
0.320792
0.402704
0.375651
0.338179
0.35377
0.504793
0.484794
0.41032
0.445117
0.54544
0.539206
0.530138
0.516753
0.548987
0.553099
0.553865
0.552341
0.532408
0.546579
0.555379
0.448901
0.488053
0.539207
0.541967
0.519275
0.396841
0.342509
0.386473
0.441968
0.333663
0.276439
0.27145
0.286238
0.292953
0.326804
0.323169
0.297092
0.270586
0.280311
0.282745
0.287924
0.293062
0.107632
0.280715
0.160517
0.295992
0.298431
0.305027
0.306806
0.210315
0.201112
0.189013
0.17807
0.168513
0.158621
0.148047
0.137043
0.125959
0.115187
0.110373
0.117677
0.140089
0.164897
0.177773
0.184039
0.183497
0.170697
0.143956
0.111309
0.101391
0.100117
0.100012
0.100006
0.100006
0.100006
0.100006
0.100006
0.100007
0.100006
0.100011
0.100008
0.100061
0.100021
0.100605
0.100192
0.10659
0.101865
0.151607
0.120942
0.233037
0.192122
0.251051
0.224529
0.283155
0.229284
0.22354
0.216336
0.205111
0.321109
0.320857
0.282309
0.28488
0.280427
0.27908
0.279084
0.373596
0.340308
0.295987
0.314328
0.498619
0.474911
0.392975
0.432146
0.547041
0.539345
0.52817
0.512698
0.55866
0.559253
0.558038
0.553722
0.552859
0.560423
0.563245
0.483423
0.517299
0.556792
0.558996
0.542249
0.433012
0.376853
0.422901
0.476299
0.367384
0.304991
0.297744
0.315861
0.323813
0.360007
0.356338
0.328406
0.293311
0.301159
0.309282
0.305591
0.307224
0.101273
0.258051
0.125857
0.306651
0.306275
0.310895
0.305028
0.200193
0.185082
0.172335
0.162482
0.154363
0.146
0.136443
0.126159
0.117046
0.111992
0.116523
0.133177
0.157046
0.175166
0.184036
0.185598
0.175744
0.151802
0.117657
0.102497
0.100218
0.100018
0.100006
0.100005
0.100006
0.100006
0.100006
0.100006
0.100006
0.100007
0.100006
0.100011
0.100008
0.100065
0.100023
0.100578
0.100204
0.104319
0.101418
0.132643
0.112668
0.19482
0.163373
0.178079
0.162296
0.232082
0.186045
0.183363
0.180095
0.178228
0.279991
0.28099
0.233565
0.245964
0.240151
0.237512
0.236207
0.351148
0.311864
0.258722
0.280565
0.492168
0.465532
0.376395
0.419828
0.547388
0.538225
0.525623
0.508574
0.563799
0.56296
0.559488
0.554288
0.564189
0.567023
0.567651
0.512963
0.541119
0.567104
0.569494
0.560254
0.467661
0.412009
0.456458
0.50702
0.401394
0.33747
0.327654
0.348384
0.356911
0.393796
0.390799
0.363237
0.317758
0.321985
0.336867
0.32279
0.320495
0.100258
0.224151
0.1115
0.316088
0.313402
0.315591
0.299441
0.183155
0.168781
0.158762
0.150473
0.142453
0.134319
0.126249
0.118467
0.113795
0.116822
0.131306
0.15227
0.171227
0.183271
0.186338
0.178791
0.157569
0.12416
0.104023
0.100378
0.100029
0.100006
0.100005
0.100005
0.100006
0.100006
0.100006
0.100006
0.100006
0.100007
0.100006
0.100012
0.100008
0.100064
0.100024
0.100496
0.1002
0.102184
0.100874
0.113252
0.105548
0.145854
0.128438
0.149178
0.143825
0.139483
0.18833
0.157274
0.155944
0.154361
0.152223
0.235415
0.234344
0.190693
0.216161
0.207521
0.202581
0.198837
0.330362
0.287531
0.230775
0.25407
0.486031
0.456668
0.363673
0.411365
0.546847
0.536763
0.523294
0.505355
0.567086
0.564286
0.560047
0.554032
0.570385
0.571327
0.570933
0.538608
0.560949
0.573451
0.576277
0.571985
0.49792
0.445043
0.489542
0.535297
0.436043
0.372226
0.358135
0.38269
0.394828
0.432287
0.436461
0.402398
0.341914
0.342906
0.364977
0.339081
0.332378
0.100078
0.194657
0.105589
0.324166
0.32012
0.319146
0.292317
0.169888
0.159423
0.151158
0.143184
0.135363
0.127822
0.121062
0.116504
0.118514
0.131881
0.151701
0.169636
0.181951
0.186266
0.180073
0.161123
0.129334
0.105758
0.100591
0.100045
0.100007
0.100005
0.100005
0.100005
0.100006
0.100006
0.100006
0.100006
0.100006
0.100007
0.100006
0.100013
0.100009
0.100061
0.100024
0.100394
0.100181
0.101563
0.100655
0.108602
0.103797
0.130627
0.118461
0.149333
0.145164
0.158651
0.151523
0.158846
0.152052
0.152393
0.152376
0.151375
0.195807
0.193226
0.160701
0.191963
0.182162
0.175372
0.170071
0.311959
0.26503
0.206457
0.229763
0.481617
0.450738
0.358431
0.408428
0.546014
0.535523
0.521812
0.503914
0.56837
0.564843
0.559912
0.553477
0.574619
0.574399
0.572294
0.560894
0.574651
0.577321
0.579612
0.57808
0.533302
0.48383
0.534225
0.562493
0.483279
0.414483
0.391841
0.425115
0.443836
0.488478
0.493694
0.457159
0.367438
0.362695
0.396125
0.35398
0.342554
0.100074
0.174712
0.105188
0.332037
0.326589
0.321829
0.289092
0.163651
0.155407
0.147817
0.139966
0.132688
0.126681
0.122425
0.123603
0.135107
0.153058
0.169866
0.181276
0.185691
0.180069
0.162469
0.13246
0.107327
0.100824
0.100065
0.100008
0.100005
0.100005
0.100005
0.100005
0.100006
0.100006
0.100005
0.100006
0.100006
0.100006
0.100007
0.100007
0.100012
0.100009
0.100052
0.100022
0.100313
0.100139
0.101865
0.100679
0.114062
0.10548
0.147823
0.129706
0.16949
0.165907
0.195559
0.182162
0.152306
0.161811
0.16467
0.167677
0.169291
0.166135
0.163007
0.152196
0.172466
0.163765
0.158212
0.154745
0.302638
0.249333
0.185448
0.208642
0.480226
0.44892
0.357906
0.408594
0.545312
0.534936
0.521567
0.503955
0.568885
0.564673
0.559551
0.553111
0.577408
0.575938
0.572731
0.575353
0.578444
0.580184
0.582478
0.581758
0.564098
0.534713
0.563712
0.574717
0.534515
0.466748
0.429775
0.470171
0.502415
0.535225
0.537799
0.505018
0.391401
0.381582
0.425695
0.366953
0.352898
0.101257
0.178353
0.116424
0.339805
0.333251
0.325416
0.292816
0.161088
0.15521
0.149486
0.144227
0.139778
0.136604
0.137414
0.145482
0.158454
0.171607
0.180681
0.184305
0.178958
0.16208
0.133226
0.108272
0.101017
0.100086
0.100009
0.100005
0.100005
0.100005
0.100005
0.100005
0.100006
0.100006
0.100005
0.100006
0.100006
0.100006
0.100007
0.100007
0.100012
0.100009
0.100038
0.100019
0.100295
0.100098
0.104434
0.101056
0.138649
0.114971
0.210338
0.190293
0.174771
0.205626
0.203875
0.2407
0.227522
0.158013
0.189889
0.196102
0.201339
0.204565
0.153045
0.152175
0.155521
0.162324
0.156676
0.153933
0.152272
0.300457
0.244035
0.173899
0.198668
0.480811
0.449656
0.366615
0.416365
0.54521
0.535411
0.522877
0.506642
0.568698
0.564251
0.559301
0.553393
0.579151
0.576114
0.572145
0.57936
0.584431
0.581083
0.58542
0.585396
0.573331
0.56088
0.569555
0.578726
0.556603