/*--------------------------------*- C++ -*----------------------------------*\
  =========                 |
  \\      /  F ield         | OpenFOAM: The Open Source CFD Toolbox
   \\    /   O peration     | Website:  https://openfoam.org
    \\  /    A nd           | Version:  dev
     \\/     M anipulation  |
\*---------------------------------------------------------------------------*/
FoamFile
{
    version     2.0;
    format      ascii;
    class       volScalarField;
    location    "2500";
    object      alphat;
}
// * * * * * * * * * * * * * * * * * * * * * * * * * * * * * * * * * * * * * //

dimensions      [1 -1 -1 0 0 0 0];

internalField   nonuniform List<scalar> 
9978
(
0.000152836
0.000157501
0.000148379
0.000143948
0.000186408
0.000131291
0.000131194
0.000197345
0.000173636
0.000124109
0.000127097
0.00019244
0.000197067
0.000148117
0.00012168
0.000123303
0.000177649
0.000211417
0.000177965
0.000134158
0.000120151
0.00012105
0.000158584
0.000215111
0.000201971
0.000151873
0.000127955
0.000119077
0.000120416
0.000146938
0.000212237
0.000214312
0.000174196
0.000137473
0.000124535
0.000118596
0.000120125
0.000138317
0.000201297
0.000223687
0.000197277
0.000150379
0.000130747
0.000122143
0.000118255
0.000119866
0.000132071
0.000183713
0.000226357
0.000214729
0.000167527
0.000137865
0.000126557
0.000120674
0.000118057
0.000119515
0.000128148
0.000165383
0.000224837
0.000224207
0.000188296
0.00014689
0.000131353
0.00012364
0.000119832
0.000117723
0.000119248
0.000125772
0.000153226
0.000217485
0.000230975
0.000208009
0.000161385
0.000136381
0.000127269
0.000121706
0.000119235
0.000117595
0.000119092
0.000124277
0.000144869
0.000201089
0.000235282
0.000222896
0.000178584
0.000143913
0.000131051
0.000124285
0.00012069
0.000118516
0.000117509
0.00011898
0.000123418
0.000138978
0.000182845
0.000234391
0.000232314
0.000198661
0.000155113
0.000135063
0.000127407
0.000122248
0.000119774
0.000118112
0.000117436
0.00011895
0.0001231
0.000135394
0.000167659
0.000227986
0.000237459
0.000217048
0.000171348
0.000140992
0.000130745
0.000124531
0.000121048
0.000118885
0.000117846
0.000117376
0.000119014
0.000122977
0.000133948
0.000157604
0.000213308
0.000242709
0.000230978
0.00018897
0.000150673
0.000134022
0.000127384
0.000122531
0.00011997
0.000118314
0.000117649
0.000117326
0.000119111
0.000122939
0.000133121
0.000151549
0.000195282
0.000241966
0.000239667
0.000209089
0.000164315
0.000138696
0.000130383
0.000124647
0.000121222
0.000119046
0.000117904
0.000117502
0.000117284
0.000119176
0.000122913
0.000132207
0.000148087
0.000179231
0.000236137
0.000245573
0.000226401
0.000181916
0.000146984
0.000132974
0.000127309
0.000122722
0.000120114
0.00011835
0.000117586
0.000117403
0.000117249
0.000119165
0.000122905
0.00013149
0.000146118
0.000168393
0.000222229
0.000250799
0.000240295
0.00020026
0.000159084
0.000137231
0.000129885
0.000124737
0.000121422
0.000119203
0.000117811
0.000117345
0.000117331
0.000117216
0.000119131
0.000122963
0.000131051
0.000144668
0.000161404
0.000203939
0.000249847
0.00024832
0.000220599
0.000175239
0.000143768
0.000132302
0.000127166
0.000122909
0.000120306
0.00011841
0.000117415
0.000117175
0.000117269
0.000117192
0.000119083
0.000123079
0.000130825
0.000143477
0.000157471
0.000188217
0.000243855
0.000255221
0.000237433
0.000193759
0.000155433
0.000135769
0.000129399
0.000124757
0.00012155
0.000119421
0.000117765
0.000117135
0.000117068
0.00011721
0.000117174
0.000119023
0.000123233
0.000130796
0.000142332
0.000155349
0.000177013
0.000229643
0.000259928
0.000250988
0.00021311
0.00016936
0.000142272
0.000131491
0.000126867
0.00012298
0.000120405
0.000118625
0.000117255
0.000116944
0.000117011
0.000117148
0.000117164
0.000118962
0.0001232
0.000130954
0.000141191
0.00015401
0.000169624
0.000210888
0.000258316
0.000258469
0.000233591
0.000187853
0.00015181
0.000135143
0.000128673
0.00012473
0.000121613
0.00011948
0.000117928
0.000116894
0.000116788
0.000116957
0.000117089
0.000117166
0.000118888
0.000122979
0.000131149
0.000140348
0.000152953
0.0001653
0.000194951
0.000251811
0.000266312
0.000250045
0.000206926
0.000165882
0.000140941
0.000131016
0.000126495
0.000123074
0.000120471
0.000118654
0.000117355
0.000116687
0.00011671
0.000116883
0.000117016
0.000117169
0.000118289
0.000122238
0.000130949
0.000140032
0.000151394
0.000163394
0.000183971
0.000236539
0.00027011
0.000263023
0.000227415
0.000181737
0.000150129
0.000134749
0.000128213
0.000124711
0.000121749
0.000119531
0.000117952
0.000116876
0.000116538
0.000116708
0.000116839
0.000116942
0.000117156
0.000117949
0.000120398
0.000129566
0.000139513
0.000149712
0.000162885
0.000176942
0.000216715
0.000267432
0.000269956
0.000247872
0.000201737
0.000161858
0.000140537
0.000130972
0.000126199
0.000123266
0.000120691
0.000118762
0.000117383
0.000116568
0.000116482
0.000116714
0.000116783
0.00011688
0.000117133
0.000118892
0.000121893
0.00012593
0.000137782
0.000149043
0.000161905
0.000173322
0.000201032
0.000260457
0.000278618
0.00026365
0.000221167
0.000177658
0.000148485
0.000135021
0.000128229
0.000124634
0.000122144
0.000119897
0.000118124
0.000116936
0.000116406
0.000116522
0.000116767
0.000116775
0.000116855
0.000117125
0.000119509
0.000134354
0.000135163
0.000136273
0.000147587
0.00016128
0.000172511
0.000191127
0.000244613
0.000282002
0.000276079
0.000242639
0.000194988
0.000159306
0.000140561
0.000131538
0.000126158
0.00012342
0.000121306
0.000119338
0.000117707
0.000116676
0.00011634
0.000116536
0.000116741
0.000116749
0.000116854
0.000117141
0.000118962
0.000131251
0.000172496
0.000152331
0.000146542
0.000161103
0.000172662
0.000184996
0.000223533
0.000278119
0.000283206
0.000262803
0.000216102
0.00017309
0.000147735
0.000136028
0.000129006
0.000124686
0.000122483
0.00012068
0.000118969
0.000117582
0.000116709
0.000116435
0.000116562
0.000116632
0.000116598
0.00011677
0.000117142
0.000118382
0.000123991
0.000161341
0.000208649
0.000163831
0.000161025
0.000173715
0.000182936
0.000208628
0.000271235
0.000292904
0.00027852
0.000236051
0.00019031
0.000157663
0.000141142
0.000133054
0.000127087
0.000123637
0.000121746
0.000120174
0.000118823
0.000117769
0.000117064
0.000116798
0.000116713
0.000116606
0.000116514
0.000116655
0.000117073
0.000117898
0.000121417
0.000135257
0.000206637
0.000232293
0.000174208
0.000175317
0.000183586
0.000199985
0.00025579
0.000296813
0.000291177
0.000258644
0.000209222
0.00017024
0.000148379
0.000137555
0.000131121
0.000125878
0.000122935
0.000121186
0.000119852
0.000118896
0.000118256
0.000117833
0.000117554
0.000117304
0.000117033
0.000116752
0.000116679
0.000116926
0.000117842
0.000118968
0.000124642
0.000158866
0.000244946
0.000234145
0.00018427
0.000185509
0.000196346
0.000232314
0.000292028
0.000299552
0.000279105
0.000231405
0.000185892
0.000157568
0.000143473
0.000135824
0.000130152
0.000125397
0.000122609
0.000120871
0.000119762
0.000119213
0.000119005
0.000118823
0.00011852
0.000118182
0.000117776
0.00011735
0.000116993
0.000116869
0.000117552
0.000118198
0.0001221
0.000132955
0.000209588
0.000277631
0.000228758
0.000191697
0.000196663
0.000219927
0.000285381
0.000310803
0.000295874
0.000252263
0.000204836
0.000169637
0.000150909
0.000141399
0.000135266
0.000129996
0.000125602
0.000122799
0.00012098
0.000120062
0.000119841
0.000119822
0.000119567
0.000119096
0.000118707
0.000118477
0.000118173
0.000117621
0.000117085
0.000117303
0.000117993
0.000119368
0.000124606
0.000153256
0.000263522
0.000298476
0.000215942
0.000200446
0.000214295
0.000269418
0.000315697
0.000309693
0.000276462
0.000225739
0.000184595
0.000160732
0.000148893
0.000141345
0.00013593
0.000131117
0.000127011
0.000123796
0.000121856
0.000121089
0.000120926
0.000120798
0.000120536
0.00011991
0.00011931
0.000119105
0.00011879
0.000118083
0.000117186
0.000117155
0.000117795
0.000117838
0.000122702
0.000132207
0.00019094
0.000306854
0.000292858
0.000213899
0.000213996
0.000248227
0.000310512
0.000320819
0.00029863
0.000249208
0.000203183
0.000172954
0.000158339
0.000149493
0.000143049
0.000137916
0.000133302
0.000129493
0.000125836
0.00012381
0.000123103
0.000123272
0.000123774
0.000123552
0.000121963
0.000120385
0.000119667
0.000119043
0.000117766
0.00011821
0.000117133
0.000117749
0.000117294
0.000117114
0.000117544
0.00011726
0.000121374
0.000125905
0.000152306
0.000277784
0.000338776
0.000269098
0.000219951
0.000237582
0.000304687
0.00033402
0.000317715
0.000271973
0.000224197
0.000188685
0.000170045
0.000159569
0.000153055
0.000147208
0.000141776
0.000136839
0.000132968
0.000129193
0.000126973
0.000126464
0.00012674
0.000126855
0.000125808
0.000123369
0.000121655
0.000121026
0.000119032
0.00012034
0.000118148
0.00011713
0.000117653
0.00011731
0.000117149
0.00011734
0.000116994
0.000119806
0.000124022
0.000135107
0.000196055
0.000336404
0.000334118
0.000237773
0.000235674
0.000290859
0.00034074
0.000334054
0.000298549
0.000247587
0.000207644
0.000185563
0.000173826
0.000166939
0.000161482
0.000155388
0.000148695
0.000142503
0.000137242
0.000133212
0.000131158
0.000130534
0.000130268
0.000129444
0.000127131
0.000124647
0.000122725
0.000124104
0.000121343
0.000122897
0.000121975
0.000119269
0.000120564
0.000118131
0.000117133
0.000117582
0.000117323
0.000117239
0.000117261
0.000116838
0.000118929
0.000123192
0.000128941
0.000162528
0.000303479
0.00036912
0.000307018
0.000242845
0.000268964
0.000336707
0.000348768
0.000324788
0.000272441
0.000229207
0.000204781
0.000192786
0.000187052
0.000182166
0.000175145
0.000165114
0.000155468
0.000147548
0.000141663
0.000137776
0.000135652
0.000133829
0.000131416
0.000127502
0.00012232
0.000124988
0.000123731
0.000123661
0.000121204
0.000122422
0.00012153
0.00011951
0.000120409
0.000118168
0.000117141
0.000117542
0.000117333
0.00011731
0.00011728
0.000116834
0.000118789
0.000122565
0.000126652
0.000145699
0.000228974
0.000366699
0.000362954
0.000263846
0.000265421
0.000330828
0.000364341
0.000346728
0.000298978
0.000252337
0.000224388
0.000214512
0.000211405
0.000207924
0.000199099
0.000184415
0.000169615
0.000157586
0.000149659
0.000144698
0.00014165
0.000138746
0.000136666
0.000134353
0.000125488
0.000116077
0.000103435
0.000122353
0.000113831
0.000120986
0.000120696
0.000120303
0.000119845
0.000119456
0.000119907
0.000118198
0.00011716
0.000117527
0.000117346
0.000117382
0.000117285
0.000117114
0.000119283
0.000122189
0.000125632
0.000139226
0.000187707
0.000343493
0.000392425
0.000330447
0.000272483
0.000316248
0.000372988
0.000366202
0.000328916
0.000278167
0.000242683
0.000234289
0.000237142
0.000236992
0.000225055
0.00020853
0.000189059
0.000174346
0.00016276
0.00015552
0.000154484
0.00016194
0.00017263
0.00018251
0.00018556
0.000110172
0.000172478
9.93065e-05
0.00010284
0.00011272
9.84254e-05
0.000112918
0.000119501
0.000113774
0.00011497
0.000119045
0.000119049
0.000118045
0.000117194
0.000117527
0.000117377
0.000117475
0.0001174
0.000117974
0.000120282
0.000122205
0.000125534
0.0001376
0.000172803
0.000297223
0.000394169
0.00038198
0.00029302
0.000304161
0.000370208
0.000384839
0.000359486
0.000305959
0.000260419
0.000249989
0.000261367
0.000269678
0.000270387
0.000263195
0.000258762
0.000237749
0.000210285
0.000191599
0.000191913
0.000210368
0.000243256
0.000319421
0.000383555
0.000285426
0.000418061
0.000169521
0.000297181
0.000100901
0.000168888
9.84357e-05
9.84528e-05
9.95075e-05
0.000115967
0.000101779
0.000104701
0.000118461
0.000116714
0.000117837
0.000117254
0.000117527
0.000117367
0.00011756
0.000117806
0.000119412
0.000121606
0.000122828
0.00012663
0.000138537
0.000169083
0.000263371
0.000387323
0.000406706
0.000345921
0.000309023
0.000364777
0.000400826
0.000383963
0.000336634
0.000279047
0.000262976
0.000283201
0.000308861
0.000332885
0.000369847
0.000400466
0.0004202
0.000398335
0.000355666
0.00033253
0.000354937
0.000443521
0.00053705
0.000574424
0.000490339
0.000578824
0.00041115
0.000496725
0.000296558
0.000403932
0.000161503
0.00028857
9.60867e-05
0.000148045
9.54099e-05
0.000107777
9.69385e-05
9.72653e-05
0.000117044
0.000110682
0.000117261
0.000117298
0.000117306
0.000117317
0.000117541
0.000118686
0.00012134
0.000123079
0.00012452
0.00013001
0.000143052
0.000170528
0.000252752
0.000369797
0.000416162
0.00039257
0.000328018
0.000353507
0.000410976
0.000405666
0.000369043
0.000300973
0.000274079
0.000301783
0.000350412
0.000413174
0.000482422
0.000562464
0.000615453
0.000621917
0.000593747
0.00057152
0.000591707
0.000648604
0.000689961
0.000695715
0.0006159
0.00067689
0.000558831
0.000606677
0.000485434
0.000544596
0.000393569
0.000472583
0.000275222
0.000379871
0.000131559
0.000256516
0.00011759
9.81492e-05
0.000107741
0.000100983
0.000113189
0.000100702
0.000115034
0.000117286
0.000116388
0.000117023
0.000117699
0.000120228
0.000123423
0.000124748
0.000127776
0.00013667
0.000153663
0.000179866
0.000256015
0.000361757
0.000421511
0.000416818
0.000362282
0.000351954
0.000410616
0.000427208
0.00040009
0.000328395
0.000286252
0.000314906
0.000388059
0.000486593
0.000612259
0.000720298
0.000757485
0.000749797
0.000729416
0.000720797
0.00073572
0.00076956
0.000791343
0.000786538
0.000714733
0.000766745
0.000650971
0.000697009
0.000588215
0.000629866
0.000528973
0.000571304
0.000458626
0.00051535
0.000364435
0.000445363
0.000231807
0.00034748
0.000203961
9.84707e-05
0.000173991
0.0001427
0.000104611
9.81135e-05
0.000109137
0.00011713
0.000113178
0.000115777
0.000118301
0.000121992
0.000125261
0.000127166
0.000132928
0.000147294
0.000168921
0.000206088
0.000274685
0.000364252
0.000424394
0.000431686
0.000400359
0.000364369
0.000406957
0.000443497
0.000426814
0.000363099
0.000301311
0.000323503
0.000416374
0.000550246
0.000728231
0.000814853
0.000815655
0.000813222
0.000781362
0.000769603
0.000772166
0.00080038
0.000829788
0.000861814
0.00080831
0.000856839
0.000742944
0.000789221
0.000672368
0.00071469
0.000609733
0.000646706
0.000556715
0.000591476
0.000503544
0.00054465
0.000433113
0.000493807
0.000327895
0.000420954
0.000305927
0.000121417
0.000280986
0.000246056
9.66839e-05
0.000108231
9.86919e-05
0.000116969
0.000105142
0.000112042
0.000119169
0.000123594
0.000127231
0.000130804
0.000140364
0.000162538
0.00019262
0.000249831
0.00031483
0.000374254
0.000430527
0.000446242
0.000427641
0.000391607
0.00040317
0.000451673
0.000452006
0.000402129
0.000317707
0.000325967
0.000429829
0.000599612
0.000806709
0.000863536
0.000857857
0.000812206
0.000776574
0.00076541
0.000778076
0.000818998
0.000880877
0.000918192
0.000884375
0.000922268
0.000828489
0.000863211
0.000755718
0.000791833
0.000681844
0.000716038
0.000622107
0.000648982
0.000576243
0.000600918
0.000535678
0.000564708
0.000486084
0.000529278
0.000407616
0.000479209
0.000393439
0.000204924
0.000376074
0.000353422
0.000101394
0.000157597
9.56705e-05
0.000116483
9.36715e-05
8.97353e-05
0.000119806
0.000125034
0.000129967
0.000135885
0.000150281
0.000181435
0.000230168
0.000302852
0.000359801
0.000404868
0.000440201
0.000459121
0.000449091
0.000420495
0.000406666
0.000455965
0.000471879
0.000436723
0.000347965
0.000329711
0.00043121
0.000619652
0.000848407
0.000893032
0.000857173
0.000796251
0.00076181
0.000756104
0.000782882
0.000840632
0.000915424
0.000957078
0.000950219
0.000892961
0.000918783
0.000826112
0.000857598
0.000747754
0.000781558
0.000676004
0.000703001
0.000621211
0.000640106
0.000584845
0.000599502
0.000557139
0.000574194
0.000525363
0.000553323
0.000472756
0.000523456
0.000466213
0.000320893
0.000457813
0.000445905
0.000127211
0.000268795
0.000106678
3.94728e-05
9.42458e-05
4.5672e-05
0.000119759
0.000125758
0.000133355
0.000142095
0.000162188
0.000203675
0.000276938
0.000357915
0.00041045
0.000445321
0.000465758
0.000475001
0.000468959
0.000449262
0.000425008
0.000454701
0.000486464
0.000466311
0.000389583
0.000337731
0.000426527
0.000618978
0.000866648
0.000906958
0.000848954
0.000761796
0.000743689
0.000749287
0.000791817
0.000864618
0.000957208
0.000973943
0.000955818
0.000858507
0.00082934
0.000874709
0.000872401
0.000808602
0.000814542
0.000731776
0.000752226
0.000659845
0.000681498
0.000611564
0.000623558
0.000584217
0.000590933
0.000568622
0.000575944
0.000553099
0.000568502
0.000523108
0.000555895
0.000523589
0.000423441
0.000524007
0.000522092
0.000203775
0.000389648
0.00014638
1.45147e-05
0.000110074
4.87066e-05
0.000119233
0.000125696
0.000136213
0.000148793
0.000175277
0.000229992
0.000328713
0.000415047
0.000465198
0.000491419
0.000504186
0.000502357
0.000491776
0.000474803
0.000453564
0.000457023
0.000498277
0.000497624
0.000434721
0.000353009
0.000409588
0.000605101
0.000867418
0.000914308
0.000820696
0.00073872
0.000729776
0.00075047
0.000817339
0.000914794
0.000973816
0.000994233
0.000944665
0.000791307
0.000742151
0.000727344
0.000666028
0.000806292
0.00077672
0.000755818
0.000745144
0.00069727
0.00070135
0.00063755
0.000651086
0.000596368
0.00060311
0.000579516
0.000581783
0.000575993
0.000580186
0.000574351
0.000586138
0.000561592
0.000586814
0.000570741
0.000514197
0.000581058
0.000590625
0.000327743
0.000493715
0.000240342
7.44795e-06
0.000151764
7.22839e-05
0.000119895
0.000124887
0.000136664
0.000154121
0.000188739
0.000259112
0.00038121
0.000474512
0.000523841
0.00054361
0.00054621
0.000539862
0.000524176
0.000504693
0.000485268
0.00047276
0.000510987
0.000530053
0.000486796
0.00039385
0.000397906
0.000561162
0.000858405
0.000916227
0.000802244
0.000712898
0.000716898
0.000753981
0.000838803
0.000916032
0.000965817
0.000987599
0.000900659
0.000688923
0.000632803
0.000593295
0.000515095
0.00056322
0.000479662
0.000706774
0.00064179
0.00069456
0.000661215
0.000657548
0.000656152
0.00061367
0.000624296
0.000584153
0.000589643
0.000583333
0.000585955
0.000595506
0.000604636
0.000606926
0.000626735
0.000604986
0.000637132
0.000627102
0.000595308
0.000649134
0.00066742
0.000452965
0.00058927
0.000370633
5.50524e-06
0.000236029
9.73324e-05
0.000127844
0.000134966
0.000155826
0.000200766
0.00028966
0.000432378
0.000535443
0.000586058
0.000600883
0.000594702
0.000580078
0.000563024
0.000541641
0.000522281
0.000508794
0.000529088
0.000561229
0.000545024
0.000464668
0.000410196
0.000515768
0.000827512
0.000917286
0.000801077
0.000689218
0.000694753
0.000742138
0.000820709
0.000899494
0.000942516
0.000931762
0.000768901
0.000401207
0.000440877
0.000360625
0.000405236
0.000337893
0.000455606
0.000386594
0.000598876
0.000528298
0.000639735
0.000597238
0.000628386
0.000628636
0.000599413
0.000605536
0.000590249
0.000598724
0.000612695
0.000620224
0.000646216
0.000663216
0.000670497
0.000701959
0.000671586
0.000718269
0.000705128
0.000676335
0.000728331
0.000740554
0.000561699
0.000672964
0.000496774
7.89341e-06
0.000341373
0.000170413
0.000138724
0.000155224
0.000208645
0.000318678
0.000480754
0.000597467
0.000651482
0.000661913
0.000647221
0.000622867
0.000597921
0.000574016
0.000551855
0.000537306
0.000550539
0.000585085
0.000596391
0.000544509
0.000446472
0.000484472
0.000746732
0.000915322
0.000808711
0.000688005
0.000670677
0.000707802
0.000765483
0.000836608
0.000851755
0.000757021
0.00050781
0.000320816
0.000221991
0.000196323
0.000280455
0.000234779
0.000323424
0.000266046
0.000416899
0.000358462
0.00054087
0.000478531
0.000611029
0.000571
0.000610424
0.000610678
0.000607236
0.000614299
0.000629587
0.000638785
0.000676445
0.000686546
0.000726789
0.000741283
0.00075896
0.000724222
0.000757946
0.000722479
0.000755884
0.000740051
0.000703749
0.000663616
0.000652943
0.000681738
0.000530789
2.95529e-05
0.000355492
0.000272195
0.000161435
0.000213626
0.000341699
0.00052656
0.000659979
0.000720189
0.000726621
0.000703821
0.000667936
0.000628344
0.00059258
0.000565606
0.000549482
0.000555963
0.000589885
0.000622233
0.000612003
0.000517321
0.000484287
0.000651738
0.000902098
0.000831258
0.000701834
0.000673498
0.000689954
0.000718511
0.000707536
0.000622108
0.000487562
0.000369455
0.000257023
0.000171578
0.000167439
0.000158735
0.000217472
0.000183319
0.00030267
0.000249867
0.000403543
0.000349379
0.000518899
0.000461159
0.000589434
0.000551765
0.000620215
0.000613653
0.000647169
0.000653345
0.00069421
0.000701922
0.000725776
0.000724471
0.000682792
0.000654203
0.000666294
0.000622781
0.000670133
0.000619652
0.000631819
0.000615213
0.000586682
0.000516015
0.000639959
0.000590225
0.000636252
0.000548192
0.000483762
0.000279488
0.000379893
0.00033159
0.000217349
0.000365648
0.000566095
0.000723877
0.000791332
0.000796293
0.000765917
0.000721642
0.000674465
0.000632116
0.000592517
0.000561793
0.000548735
0.000574207
0.000613559
0.000636425
0.000605222
0.0005242
0.000581408
0.00086284
0.000866736
0.000715135
0.000691157
0.000704757
0.000713076
0.000654726
0.000492774
0.000374028
0.000289823
0.000213608
0.000162857
0.000151473
0.000146981
0.000155051
0.000149849
0.000203578
0.000171131
0.000298139
0.00024535
0.000409039
0.0003613
0.00050551
0.000456687
0.000589871
0.000554894
0.000649918
0.000631669
0.000702591
0.000691768
0.000747954
0.000740163
0.000645823
0.000658595
0.00060231
0.000593583
0.000576642
0.000550614
0.000572025
0.000506899
0.000594235
0.000613088
0.000500454
0.000482972
0.000565401
0.000483059
0.000554812
0.000474455
0.000472764
0.000506425
0.000541014
0.000497768
0.000506982
0.00051912
0.000456442
0.000472533
0.000457129
0.0005551
0.000413642
0.000469584
0.000425318
0.000403549
0.000280136
0.000369839
0.000364588
0.000609412
0.00078317
0.000867573
0.000869938
0.000836849
0.000793544
0.000758223
0.000721893
0.000678018
0.00062657
0.000578208
0.000552969
0.000580259
0.000615774
0.000626914
0.00056911
0.000553497
0.000766487
0.000880962
0.000740487
0.000708154
0.000732671
0.000744179
0.000677187
0.000482691
0.000328401
0.000251138
0.000192137
0.000158295
0.000147048
0.000143694
0.000146102
0.000143694
0.000151293
0.00014769
0.000196317
0.000163991
0.000306542
0.000248135
0.000420536
0.000363595
0.000513716
0.00046952
0.000601619
0.000562725
0.000668906
0.000634538
0.000716509
0.000682833
0.000705353
0.000708683
0.000610632
0.000652122
0.00055771
0.000531221
0.000577822
0.000548625
0.000557284
0.000491153
0.000501805
0.000506878
0.0005474
0.000478141
0.000556724
0.00048191
0.000522312
0.000512826
0.000489491
0.000490318
0.000473689
0.000487485
0.000480981
0.000499519
0.000475217
0.000478888
0.000498359
0.000483265
0.000458332
0.000449539
0.000261543
0.000214224
0.000288133
0.000472636
0.00044285
0.0004359
0.000396778
0.000624318
0.000854644
0.000940312
0.000952841
0.000916544
0.000888851
0.000873173
0.000857551
0.000818408
0.000754309
0.000676797
0.00060123
0.000561415
0.000579432
0.000604326
0.000592908
0.000557642
0.000675503
0.000874475
0.000783062
0.000723764
0.000757816
0.000789248
0.000718841
0.000520511
0.000324855
0.000248544
0.000190679
0.000158901
0.000143329
0.000141566
0.000139982
0.000145023
0.000142313
0.000150961
0.000146998
0.000197205
0.000165158
0.000303056
0.000244152
0.000410526
0.000351489
0.000517243
0.000466046
0.000591687
0.000543997
0.000640782
0.000594229
0.000666531
0.00062149
0.000676601
0.000629922
0.000597748
0.000594283
0.00063202
0.000638291
0.000557777
0.000568161
0.000582794
0.000512852
0.00051565
0.000553971
0.000553559
0.000532106
0.000512618
0.000502391
0.000499301
0.000505053
0.000492945
0.000463431
0.00046026
0.000444065
0.000460695
0.000484529
0.000460215
0.000443994
0.000474058
0.000465341
0.000453951
0.000461396
0.000468669
0.000210037
0.000207932
0.000586377
0.000496102
0.000519501
0.000514734
0.000607705
0.000898357
0.00103455
0.00103162
0.00101148
0.000995088
0.00100823
0.00101042
0.000983752
0.000917325
0.000825831
0.000722782
0.000624868
0.000569008
0.000574951
0.0005884
0.000565718
0.000609169
0.000824652
0.000816665
0.000755845
0.000793741
0.00087959
0.000826027
0.00065424
0.00039253
0.000260314
0.000201895
0.000166652
0.000147806
0.000138349
0.000139765
0.000139679
0.000138468
0.000143159
0.000139234
0.000152808
0.000147407
0.000195056
0.000165554
0.000291243
0.00023507
0.000385031
0.000328947
0.000493205
0.00044017
0.000546985
0.00050052
0.000578757
0.000538916
0.000588773
0.000557046
0.000617079
0.000597103
0.000580661
0.000565253
0.000600203
0.000607676
0.000611355
0.000591734
0.000559543
0.000586558
0.000599295
0.0005077
0.000530016
0.000576203
0.000582996
0.000554664
0.000505613
0.000485414
0.000493205
0.000503148
0.000474166
0.000430143
0.000431319
0.000415944
0.000439381
0.0004632
0.000445061
0.000422603
0.000453058
0.000458089
0.000429734
0.00048148
0.000534218
0.000184814
0.000266164
0.000117084
0.000608987
0.000630215
0.000604109
0.000426798
0.00110696
0.00114017
0.00109764
0.00111113
0.00114042
0.00116354
0.00113431
0.00107418
0.000982409
0.000873513
0.000755548
0.000644708
0.000575687
0.000567181
0.000564686
0.000571758
0.000722477
0.000823802
0.000788196
0.000824031
0.000962492
0.000968799
0.000827663
0.000559042
0.000288186
0.000218753
0.000177922
0.000155625
0.000143233
0.000136218
0.000136753
0.000136379
0.000134999
0.000140072
0.000135059
0.000154311
0.000146638
0.00019128
0.000165953
0.000274492
0.000226355
0.000363722
0.000317664
0.000455007
0.000409734
0.000503093
0.000470286
0.000534303
0.000510608
0.000553187
0.000540723
0.000514838
0.000575089
0.000560945
0.000548948
0.000538148
0.00060161
0.000584395
0.00056653
0.000552097
0.000584757
0.000599534
0.000578261
0.000527091
0.000558232
0.000595652
0.000579642
0.000586793
0.000505461
0.000480336
0.000499571
0.00052727
0.000468887
0.000410495
0.000411229
0.000403472
0.000428626
0.000456496
0.000443191
0.000415743
0.000440627
0.000468628
0.000420215
0.000540585
0.000629929
0.000167995
0.000172924
0.000120107
0.000613093
0.000589181
0.000550084
0.0002551
0.00123372
0.00121554
0.00120956
0.00127462
0.00128048
0.00125027
0.00118918
0.00110922
0.00100771
0.000892377
0.000769978
0.000655697
0.000580506
0.000563438
0.00055586
0.000641112
0.000810938
0.000797142
0.000834246
0.00100329
0.00109608
0.000986291
0.000736718
0.000350914
0.000248754
0.00019275
0.00016504
0.000149775
0.000135899
0.000139824
0.000132381
0.000134574
0.000132198
0.000131744
0.000135222
0.000129726
0.000155886
0.000144026
0.000191552
0.000170402
0.000274063
0.000236487
0.000371754
0.000336419
0.000438486
0.000405913
0.000488403
0.000469318
0.000497129
0.000484159
0.00052976
0.000521462
0.000478733
0.000486997
0.000540249
0.00053033
0.000520819
0.000511932
0.000557378
0.000540873
0.000527783
0.00051717
0.00057564
0.000550786
0.000530462
0.000562929
0.000584083
0.000548976
0.000523085
0.000554656
0.000528458
0.000491419
0.000524799
0.000562821
0.000479888
0.000407651
0.000410099
0.000411763
0.000430181
0.00046723
0.000455288
0.000422057
0.000450424
0.000520448
0.000437652
0.000601107
0.000590123
0.000203849
0.000155277
0.000181003
0.000571395
0.000552932
0.000390103
0.000186168
0.00132195
0.00133044
0.00136605
0.0013703
0.00132377
0.00126202
0.00118454
0.00109594
0.000997667
0.00088766
0.000768829
0.000656938
0.000571849
0.000555018
0.000582927
0.000741152
0.000794994
0.000832593
0.0010053
0.00117951
0.00113507
0.000929846
0.000507204
0.000286348
0.000215767
0.000176681
0.000157537
0.000143396
0.000134147
0.000136222
0.000129418
0.00013104
0.000127619
0.000127839
0.000129102
0.000123697
0.000159372
0.0001409
0.00020686
0.000181949
0.000301328
0.000267494
0.000404731
0.000376727
0.000450252
0.000429467
0.000475724
0.000470357
0.000474037
0.000471902
0.000471308
0.000469376
0.00050264
0.000493379
0.000456765
0.000461409
0.000507706
0.000497882
0.000489097
0.000481068
0.000514448
0.000501781
0.000490841
0.000480649
0.000523666
0.000503498
0.000487656
0.000562108
0.000530815
0.000497523
0.000472702
0.000498662
0.000561682
0.000517922
0.000549408
0.000541867
0.000507678
0.000423311
0.000434569
0.000440786
0.000444814
0.00049483
0.000482596
0.000444406
0.000499394
0.000570473
0.000488535
0.000563766
0.000550255
0.000207196
0.000143692
0.000218522
0.000536331
0.000535901
0.000281613
0.000174483
0.00143723
0.00145828
0.00142096
0.00137461
0.00129535
0.00120738
0.00112718
0.00104785
0.000962308
0.000863338
0.000752082
0.000639791
0.000562933
0.000554875
0.000655923
0.000780536
0.00082658
0.000993487
0.00121287
0.00126598
0.0011161
0.000720952
0.000323561
0.000245841
0.000193542
0.000167299
0.000152402
0.00013586
0.000141077
0.00012988
0.000133395
0.000125195
0.00012753
0.000122392
0.000123412
0.000123989
0.000118036
0.00016768
0.000140381
0.000234511
0.000200691
0.000345339
0.000310254
0.000442008
0.00042162
0.000464574
0.000455887
0.000475543
0.000482962
0.000454767
0.000455562
0.000465466
0.000458625
0.000473759
0.000467065
0.000432192
0.000434458
0.000471276
0.000462724
0.000457384
0.000450551
0.000474357
0.000462507
0.000452009
0.000443203
0.000477051
0.000460899
0.000446794
0.00050886
0.000476479
0.000451962
0.000428183
0.000449727
0.000522473
0.000530313
0.000504758
0.00048989
0.000512371
0.000453935
0.000483341
0.000483485
0.000478151
0.000497344
0.000485613
0.000476946
0.000542056
0.000536529
0.000517479
0.000526969
0.000517097
0.000137663
0.000152425
0.000186839
0.000517312
0.000381828
0.000231751
0.000184408
0.0015297
0.00148253
0.00138892
0.0012902
0.00120045
0.00112357
0.00105268
0.00098486
0.000912338
0.000824382
0.000717974
0.000600088
0.000555269
0.00059047
0.000727347
0.000813562
0.000959843
0.00121125
0.00136178
0.00127621
0.000939796
0.000413019
0.000280793
0.000216908
0.000180357
0.000161617
0.000145381
0.000133693
0.000137028
0.000126218
0.000129373
0.000120701
0.00012313
0.000117317
0.000118526
0.000121537
0.000113983
0.00018239
0.000144746
0.000270579
0.000226581
0.000393546
0.000357694
0.000482454
0.000464388
0.000489662
0.000490474
0.000459115
0.000447688
0.000430436
0.000446932
0.000432972
0.000438197
0.000457532
0.000447757
0.000444664
0.000438703
0.000407795
0.000407272
0.000435326
0.000430002
0.000424334
0.000418711
0.000434221
0.000423307
0.000413872
0.000405955
0.000435086
0.000420021
0.000406234
0.000457521
0.000429578
0.0004102
0.00038641
0.000406436
0.00047363
0.000488904
0.000460262
0.000441995
0.00047658
0.000484289
0.000495027
0.000479792
0.000478865
0.000467916
0.000462487
0.000473801
0.000511136
0.000503797
0.000489108
0.00049817
0.000498036
0.000144824
0.000197362
0.000211395