/*--------------------------------*- C++ -*----------------------------------*\
  =========                 |
  \\      /  F ield         | OpenFOAM: The Open Source CFD Toolbox
   \\    /   O peration     | Website:  https://openfoam.org
    \\  /    A nd           | Version:  dev
     \\/     M anipulation  |
\*---------------------------------------------------------------------------*/
FoamFile
{
    version     2.0;
    format      ascii;
    class       volScalarField;
    location    "2500";
    object      CO2;
}
// * * * * * * * * * * * * * * * * * * * * * * * * * * * * * * * * * * * * * //

dimensions      [0 0 0 0 0 0 0];

internalField   nonuniform List<scalar> 
9978
(
5.1529e-25
1.94449e-24
1.18347e-24
2.81908e-24
4.16646e-24
1.1455e-24
5.43535e-24
8.93348e-24
4.82827e-24
4.69057e-25
7.00777e-24
1.35795e-23
1.21294e-23
3.96105e-24
4.62182e-25
8.43987e-24
1.79258e-23
2.52055e-23
1.1623e-23
2.99905e-24
1.46814e-25
9.80284e-24
2.56611e-23
4.29885e-23
2.41684e-23
8.98544e-24
1.39905e-24
8.9935e-26
5.30544e-24
4.57348e-23
6.8002e-23
5.16343e-23
2.32996e-23
5.63194e-24
7.0478e-25
4.1128e-26
5.58224e-24
5.41175e-23
9.79647e-23
7.76713e-23
4.81441e-23
1.68815e-23
2.92064e-24
3.37777e-25
6.44317e-27
6.46893e-24
6.71235e-23
1.35872e-22
1.36931e-22
8.19152e-23
3.18329e-23
9.65558e-24
1.64285e-24
1.38034e-25
3.148e-27
9.2648e-24
7.95095e-23
1.69241e-22
1.90567e-22
1.49614e-22
7.74908e-23
2.58196e-23
5.48803e-24
6.65278e-25
2.51975e-26
9.69908e-28
2.79021e-23
9.23566e-23
1.83224e-22
2.56765e-22
2.29963e-22
1.37142e-22
5.65417e-23
1.70044e-23
2.55016e-24
2.12717e-25
6.63385e-27
1.46944e-28
5.92746e-23
1.17426e-22
2.05176e-22
3.40025e-22
3.39798e-22
2.2332e-22
1.14747e-22
3.52688e-23
1.00108e-23
6.5892e-25
7.1937e-26
3.50236e-27
6.5317e-29
1.3099e-22
2.07538e-22
3.88233e-22
5.02772e-22
4.88863e-22
3.33852e-22
2.01916e-22
7.98575e-23
2.52281e-23
3.64935e-24
2.34559e-25
2.07336e-26
1.1808e-27
9.79877e-29
1.6861e-22
5.44465e-22
7.15297e-22
7.94668e-22
6.86898e-22
5.48786e-22
3.08641e-22
1.58006e-22
5.82436e-23
1.33219e-23
1.90654e-24
1.27639e-25
1.11376e-26
2.06489e-27
1.08896e-27
3.13327e-22
1.77609e-21
1.83695e-21
1.60098e-21
1.08968e-21
7.67409e-22
5.3746e-22
2.73163e-22
1.08412e-22
3.05955e-23
6.69849e-24
6.60005e-25
5.80217e-26
1.77699e-26
3.02271e-26
1.15323e-26
1.89543e-21
3.38456e-21
4.78437e-21
3.62204e-21
2.02815e-21
1.29237e-21
7.77641e-22
4.64333e-22
2.16823e-22
6.28105e-23
1.83011e-23
3.05267e-24
3.85564e-25
1.38776e-25
2.40073e-25
1.78224e-25
7.70118e-26
4.77778e-21
1.45557e-20
1.41627e-20
7.82228e-21
4.56118e-21
2.53609e-21
1.31945e-21
7.46938e-22
3.75424e-22
1.60247e-22
3.66298e-23
9.07446e-24
1.86221e-24
9.4576e-25
1.07962e-24
2.29844e-24
2.12091e-24
7.56885e-25
3.23098e-20
5.84553e-20
3.31435e-20
2.79328e-20
1.26616e-20
4.81878e-21
2.66139e-21
1.24781e-21
6.67465e-22
2.95774e-22
7.38708e-23
2.12532e-23
7.3284e-24
5.16265e-24
7.67098e-24
1.23274e-23
1.83006e-23
1.88442e-23
1.07834e-23
2.5229e-19
2.43533e-19
1.98629e-19
8.03899e-20
4.63521e-20
1.74042e-20
5.73842e-21
2.54753e-21
1.09498e-21
5.507e-22
2.04414e-22
4.06034e-23
2.73543e-23
2.99933e-23
6.9815e-23
7.49465e-23
1.26034e-22
9.05618e-23
1.51094e-22
5.44477e-23
1.54437e-18
1.42423e-18
1.09602e-18
3.38732e-19
1.5931e-19
5.25165e-20
1.55121e-20
6.03398e-21
2.32178e-21
9.95996e-22
4.08048e-22
1.5346e-22
9.65866e-23
1.37883e-22
2.64595e-22
7.05082e-22
6.1786e-22
8.32153e-22
1.04017e-21
1.46922e-21
6.49626e-22
6.56778e-18
1.06387e-17
5.34731e-18
2.3213e-18
8.31361e-19
2.18876e-19
5.89166e-20
1.69099e-20
5.50229e-21
1.98757e-21
8.4252e-22
4.05594e-22
2.74228e-22
5.43507e-22
1.08302e-21
3.21962e-21
5.7295e-21
6.67641e-21
6.46658e-21
1.201e-20
8.24005e-21
1.85899e-21
3.85633e-17
5.62982e-17
3.03991e-17
1.39297e-17
5.46705e-18
1.25975e-18
2.04442e-19
5.84553e-20
1.64357e-20
5.17739e-21
2.11193e-21
1.3546e-21
1.2739e-21
2.53363e-21
5.01028e-21
1.35897e-20
2.50006e-20
4.34502e-20
4.58615e-20
8.95824e-20
6.61512e-20
4.21837e-20
2.49401e-20
1.88577e-16
1.70488e-16
1.82458e-16
9.98427e-17
2.98935e-17
6.89878e-18
1.10423e-18
2.1963e-19
5.50396e-20
1.55003e-20
5.94302e-21
4.54889e-21
6.45781e-21
1.23426e-20
2.66177e-20
4.42263e-20
1.24304e-19
1.9588e-19
4.13446e-19
6.17752e-19
6.25912e-19
3.60955e-19
3.13599e-19
1.91032e-19
8.30852e-16
8.51688e-16
6.96933e-16
4.37952e-16
1.61547e-16
3.57519e-17
6.90714e-18
1.12214e-18
1.9339e-19
5.63975e-20
1.83779e-20
1.62532e-20
2.34218e-20
5.97752e-20
9.0781e-20
2.94128e-19
6.18028e-19
1.32743e-18
2.9829e-18
4.73631e-18
4.92259e-18
6.19698e-18
3.95732e-18
4.76986e-18
1.01632e-18
2.29728e-15
4.93298e-15
3.22817e-15
1.91335e-15
6.75566e-16
2.25037e-16
3.5287e-17
5.41059e-18
9.79862e-19
2.49061e-19
8.71827e-20
4.70601e-20
6.89085e-20
2.1783e-19
5.4701e-19
9.78839e-19
3.43194e-18
7.73938e-18
1.32671e-17
3.2052e-17
4.33629e-17
5.34023e-17
5.67255e-17
4.87711e-17
3.51046e-17
1.25676e-17
1.05151e-14
2.86887e-14
2.06019e-14
9.45533e-15
3.91528e-15
9.84012e-16
2.06297e-16
3.42135e-17
4.82002e-18
1.09446e-18
4.6503e-19
2.48455e-19
3.41198e-19
5.59738e-19
1.90759e-18
6.20852e-18
1.45603e-17
4.65602e-17
8.16997e-17
2.05029e-16
2.95736e-16
3.66384e-16
3.47691e-16
4.15409e-16
2.50363e-16
2.75274e-16
1.32471e-16
3.59951e-15
1.25484e-13
1.06448e-13
5.80309e-14
2.52286e-14
5.81676e-15
9.31149e-16
1.75189e-16
2.31103e-17
4.82547e-18
2.02225e-18
1.33514e-18
1.39593e-18
2.55391e-18
8.40417e-18
2.91709e-17
9.03856e-17
2.664e-16
5.39423e-16
9.42124e-16
2.22368e-15
2.45866e-15
2.92091e-15
3.46312e-15
2.85002e-15
2.41835e-15
1.43786e-15
5.2562e-16
7.71815e-16
5.52046e-14
4.07609e-13
2.37784e-13
1.33098e-13
3.53866e-14
5.55957e-15
8.06535e-16
1.32602e-16
2.04932e-17
7.82381e-18
4.8136e-18
5.37441e-18
9.59862e-18
2.60629e-17
1.35674e-16
4.78797e-16
1.19848e-15
3.3836e-15
7.71502e-15
1.32838e-14
2.1187e-14
2.77408e-14
3.24679e-14
3.2474e-14
2.78226e-14
2.03886e-14
1.11727e-14
2.61333e-15
2.93426e-16
1.27118e-14
2.47463e-13
7.68202e-13
3.99693e-13
2.04186e-13
3.40374e-14
4.46463e-15
5.1953e-16
9.8469e-17
2.49741e-17
1.58812e-17
1.39387e-17
3.8425e-17
1.4501e-16
5.91943e-16
2.38542e-15
7.94973e-15
2.27302e-14
5.34288e-14
1.07339e-13
1.79735e-13
2.47056e-13
3.07793e-13
3.30808e-13
3.10276e-13
2.48758e-13
1.63752e-13
7.96975e-14
1.52063e-14
1.09176e-16
2.48228e-15
7.55437e-14
6.95376e-13
1.22271e-12
5.05231e-13
2.11419e-13
2.80554e-14
2.75173e-15
3.1722e-16
1.16459e-16
8.41669e-17
6.93362e-17
1.17475e-16
5.49394e-16
2.94383e-15
1.43762e-14
5.51061e-14
1.66692e-13
4.02976e-13
8.29998e-13
1.47951e-12
2.05548e-12
2.64808e-12
3.00474e-12
3.02428e-12
2.67087e-12
1.97722e-12
1.15004e-12
4.83192e-13
7.86294e-14
5.6017e-17
1.06875e-15
1.79668e-14
3.10293e-13
1.37294e-12
1.36238e-12
5.13413e-13
1.68876e-13
1.57584e-14
1.25559e-15
3.16561e-16
3.0891e-16
2.11859e-16
4.16874e-16
2.3741e-15
1.48589e-14
8.42171e-14
3.68335e-13
1.19409e-12
2.98813e-12
6.16415e-12
1.11982e-11
1.60708e-11
2.10318e-11
2.44157e-11
2.58524e-11
2.47422e-11
2.0492e-11
1.35546e-11
6.79207e-12
2.40773e-12
3.28058e-13
2.00287e-17
4.52287e-16
4.51956e-15
8.70936e-14
9.30368e-13
2.15739e-12
1.27446e-12
5.13854e-13
8.88648e-14
6.75456e-15
1.126e-15
7.93299e-16
8.38935e-16
1.67057e-15
9.78533e-15
7.23496e-14
4.52942e-13
2.23499e-12
8.08781e-12
2.14076e-11
4.45742e-11
8.05397e-11
1.16112e-10
1.56182e-10
1.82076e-10
1.9605e-10
1.98604e-10
1.83138e-10
1.36973e-10
7.81275e-11
3.28013e-11
9.39613e-12
9.54134e-13
6.39706e-17
4.61822e-16
1.94211e-15
2.32002e-14
3.43364e-13
1.97948e-12
2.46607e-12
1.06879e-12
4.33895e-13
3.63295e-14
4.28893e-15
2.52788e-15
4.53213e-15
6.12801e-15
3.85972e-14
3.23688e-13
2.28185e-12
1.23768e-11
4.974e-11
1.43558e-10
3.11572e-10
5.59824e-10
7.9537e-10
1.06764e-09
1.26015e-09
1.35232e-09
1.39888e-09
1.39984e-09
1.20256e-09
7.81582e-10
3.7095e-10
1.24767e-10
2.34624e-11
0
7.06642e-17
4.35465e-16
1.37873e-15
1.00281e-14
1.08158e-13
1.09336e-12
3.03513e-12
2.22408e-12
8.12402e-13
1.78949e-13
1.87596e-14
8.25543e-15
1.35514e-14
2.25784e-14
1.34e-13
1.29036e-12
1.04822e-11
6.37506e-11
2.78101e-10
8.74082e-10
2.01044e-09
3.7444e-09
5.25845e-09
6.87277e-09
7.98088e-09
8.54869e-09
8.82363e-09
9.18306e-09
8.9857e-09
6.93086e-09
3.79248e-09
1.39424e-09
3.07518e-10
9.0392e-12
4.88115e-11
5.04566e-13
2.19871e-11
9.67261e-12
3.01805e-17
4.30646e-16
1.57203e-15
6.37681e-15
4.67408e-14
4.45636e-13
2.69348e-12
3.46847e-12
1.49216e-12
6.58871e-13
8.08204e-14
2.89611e-14
4.07253e-14
8.36441e-14
4.19625e-13
4.47851e-12
4.26899e-11
2.99441e-10
1.44239e-09
4.80338e-09
1.17451e-08
2.29703e-08
3.34936e-08
4.24072e-08
4.71493e-08
4.88848e-08
5.0043e-08
5.27779e-08
5.74928e-08
5.39511e-08
3.61623e-08
1.54031e-08
2.5991e-09
2.7105e-10
1.62094e-09
1.51138e-10
1.75437e-12
8.19893e-11
3.40658e-11
1.4293e-16
4.43809e-16
1.96416e-15
6.48594e-15
3.19187e-14
2.01693e-13
1.6099e-12
3.90083e-12
3.14139e-12
1.13689e-12
3.24213e-13
1.05736e-13
1.23396e-13
3.1303e-13
1.00012e-12
1.35013e-11
1.52647e-10
1.25873e-09
6.75917e-09
2.39736e-08
6.1502e-08
1.26963e-07
1.95296e-07
2.4981e-07
2.64992e-07
2.58372e-07
2.51902e-07
2.6817e-07
3.20533e-07
3.74455e-07
3.22785e-07
1.70191e-07
1.99175e-08
6.65756e-08
8.28991e-09
4.55345e-08
4.32035e-08
9.96767e-10
5.95907e-09
5.9668e-10
6.52928e-12
3.12245e-10
1.27866e-10
2.81158e-16
9.15704e-16
3.48722e-15
8.99625e-15
3.20576e-14
1.48854e-13
8.07872e-13
3.42327e-12
4.24264e-12
2.27101e-12
1.32298e-12
4.04919e-13
3.84154e-13
7.41358e-13
2.08066e-12
2.81528e-11
4.59559e-10
4.73575e-09
2.97021e-08
1.02471e-07
2.81926e-07
6.15566e-07
1.0183e-06
1.33871e-06
1.41161e-06
1.28964e-06
1.16015e-06
1.19596e-06
1.5741e-06
2.28598e-06
2.74119e-06
1.90054e-06
2.32979e-07
8.79105e-07
1.99614e-07
3.21099e-08
1.90831e-07
1.56496e-07
3.91174e-09
2.29595e-08
2.30883e-09
2.37111e-11
1.17543e-09
4.64347e-10
7.73322e-16
2.30175e-15
5.46059e-15
1.51841e-14
4.54047e-14
1.6124e-13
6.89097e-13
2.62329e-12
5.34646e-12
4.28665e-12
3.00891e-12
1.74617e-12
1.27741e-12
1.94827e-12
6.14706e-12
4.58037e-11
9.5194e-10
1.44848e-08
1.05317e-07
3.74616e-07
1.15355e-06
2.64452e-06
4.67828e-06
6.40752e-06
6.85309e-06
6.0709e-06
5.00295e-06
4.82729e-06
6.73367e-06
1.18994e-05
1.86806e-05
2.08321e-05
3.13244e-06
1.22265e-05
8.26247e-07
3.21667e-06
7.94033e-07
1.20022e-07
6.98546e-07
5.67038e-07
1.48965e-08
8.52445e-08
8.61476e-09
8.23371e-11
4.251e-09
1.61034e-09
7.10007e-15
1.26278e-14
1.27245e-14
2.86339e-14
8.5e-14
2.67205e-13
9.11642e-13
3.11667e-12
6.93404e-12
8.18535e-12
6.11464e-12
8.836e-12
4.77033e-12
5.55721e-12
1.21756e-11
6.38407e-11
1.45498e-09
3.07218e-08
2.90967e-07
1.13656e-06
3.92349e-06
9.80799e-06
1.84764e-05
2.68733e-05
2.96217e-05
2.59718e-05
2.0198e-05
1.77905e-05
2.46679e-05
4.80378e-05
8.80081e-05
0.00012981
4.45732e-05
0.000145019
1.25239e-05
4.84824e-05
3.19536e-06
1.26902e-05
2.91387e-06
4.30252e-07
2.47214e-06
1.96567e-06
5.42258e-08
2.99942e-07
3.0703e-08
2.72691e-10
1.46731e-08
5.34604e-09
6.47876e-14
1.07689e-13
6.3621e-14
6.82628e-14
1.91711e-13
6.3461e-13
2.03994e-12
5.85782e-12
1.48967e-11
1.8458e-11
1.69523e-11
2.09169e-11
2.09448e-11
1.73594e-11
2.69134e-11
9.08578e-11
1.72549e-09
4.77491e-08
5.62882e-07
2.68495e-06
1.07668e-05
2.93032e-05
5.92654e-05
9.12549e-05
0.000106953
9.48129e-05
7.18883e-05
5.93535e-05
7.6543e-05
0.000141429
0.000266285
0.000414497
0.000314194
0.000548926
0.000153909
0.000359088
4.96658e-05
0.000161402
1.1919e-05
4.7405e-05
1.03283e-05
1.4653e-06
8.4864e-06
6.58918e-06
1.88057e-07
1.00281e-06
1.04217e-07
8.73156e-10
4.86345e-08
1.71531e-08
5.53659e-13
9.23033e-13
4.79849e-13
2.59395e-13
5.25294e-13
1.87359e-12
6.16199e-12
1.69973e-11
3.48893e-11
5.33311e-11
5.40293e-11
5.36089e-11
1.10467e-10
6.19278e-11
6.66758e-11
1.90625e-10
1.77035e-09
5.42106e-08
7.9409e-07
4.76989e-06
2.24693e-05
6.73454e-05
0.000142151
0.00022744
0.000281633
0.000274137
0.000214294
0.000167345
0.000194936
0.000328806
0.000556307
0.000815701
0.000754653
0.00100254
0.000592353
0.000835362
0.000379521
0.000628818
0.000157176
0.00038579
4.21823e-05
0.000145012
3.52211e-05
4.81819e-06
2.81373e-05
2.14416e-05
6.23055e-07
3.24173e-06
3.40613e-07
2.73202e-09
1.55877e-07
5.35102e-08
4.20531e-12
7.21442e-12
3.79948e-12
1.50191e-12
1.75988e-12
6.28261e-12
2.1318e-11
5.74365e-11
1.17119e-10
1.73957e-10
1.88683e-10
1.74998e-10
2.47329e-10
2.53718e-10
1.96994e-10
2.84066e-10
1.62761e-09
5.13963e-08
8.7726e-07
6.80952e-06
3.71342e-05
0.000119582
0.000257387
0.000402283
0.000497283
0.000506074
0.000439394
0.000370191
0.000394884
0.000567258
0.000851647
0.00117783
0.00119384
0.00140591
0.0010759
0.00130014
0.000886667
0.00114047
0.00064905
0.000922248
0.00037743
0.000655531
0.000127464
0.000356054
0.000107116
1.54617e-05
8.63223e-05
6.65146e-05
2.00189e-06
1.0346e-05
1.08132e-06
8.35083e-09
4.85317e-07
1.62454e-07
2.78766e-11
4.95826e-11
2.83822e-11
1.01019e-11
7.06554e-12
2.21865e-11
7.76844e-11
2.06155e-10
4.12342e-10
6.12315e-10
6.86997e-10
6.2864e-10
6.23641e-10
1.17231e-09
6.65717e-10
6.87178e-10
1.65137e-09
3.77492e-08
8.99077e-07
8.00385e-06
5.04008e-05
0.000176566
0.000389243
0.000603068
0.000736306
0.000761013
0.000687421
0.000598741
0.000623177
0.000825601
0.00115416
0.00149423
0.00154651
0.00168075
0.00149925
0.00166055
0.00137688
0.00158311
0.00118825
0.00143481
0.000943558
0.00122319
0.000650135
0.000954191
0.000321821
0.000633653
0.000278498
4.83415e-05
0.000228921
0.000182898
6.34165e-06
3.2521e-05
3.36834e-06
2.48353e-08
1.46958e-06
4.81287e-07
1.57692e-10
2.95249e-10
1.82379e-10
6.61351e-11
3.2326e-11
7.88141e-11
2.79098e-10
7.4554e-10
1.46489e-09
2.17884e-09
2.51569e-09
2.34927e-09
2.01898e-09
2.94324e-09
2.53129e-09
1.90852e-09
3.64688e-09
2.2962e-08
8.22329e-07
8.05757e-06
5.80467e-05
0.000224132
0.000515366
0.000816123
0.00100035
0.00104221
0.000969204
0.000865075
0.000868494
0.00108119
0.00138709
0.00162286
0.0017452
0.00176927
0.00177746
0.00184362
0.00175003
0.00186992
0.00165001
0.00182472
0.00147959
0.00170353
0.001248
0.00151681
0.000956229
0.00126665
0.000604469
0.000950034
0.000566403
0.000139448
0.000513914
0.000444703
1.98122e-05
9.74325e-05
1.03286e-05
6.58891e-08
4.39386e-06
1.29606e-06
7.46156e-10
1.50165e-09
1.01189e-09
4.02119e-10
1.5566e-10
2.7319e-10
9.55651e-10
2.57582e-09
5.09683e-09
7.64924e-09
9.06586e-09
8.74308e-09
7.27966e-09
6.48681e-09
9.81269e-09
6.08916e-09
6.00811e-09
1.66443e-08
5.16693e-07
7.45448e-06
5.88092e-05
0.000251266
0.000616289
0.00100429
0.00127728
0.0013703
0.00131563
0.00120753
0.00119289
0.00134802
0.00150415
0.00160761
0.00175285
0.0017051
0.00185804
0.00182709
0.0019376
0.00194789
0.00195415
0.00203186
0.00188896
0.0020317
0.00175072
0.00194685
0.00154981
0.00179714
0.00128129
0.00158243
0.000934906
0.00129241
0.000912542
0.000355766
0.000878594
0.000824219
6.00771e-05
0.000255285
3.10031e-05
1.47703e-07
1.2461e-05
3.25641e-06
2.93598e-09
6.45043e-09
4.79927e-09
2.08076e-09
7.26393e-10
8.95249e-10
3.05017e-09
8.32416e-09
1.67582e-08
2.59387e-08
3.16967e-08
3.16195e-08
2.67521e-08
2.07094e-08
2.83173e-08
2.15975e-08
1.48137e-08
1.77919e-08
2.48631e-07
5.61547e-06
5.56891e-05
0.000255326
0.000674464
0.00116034
0.00149989
0.0016261
0.00162699
0.00156749
0.00153397
0.00155876
0.0015781
0.00159633
0.00158624
0.00175919
0.00165486
0.00191915
0.00183252
0.00205231
0.00203126
0.00212766
0.0021677
0.00210479
0.0022219
0.00200523
0.00217658
0.00184548
0.0020685
0.00161637
0.00189854
0.00129998
0.00165125
0.00130084
0.000731551
0.0012904
0.00125378
0.000165968
0.000585121
8.81403e-05
2.1105e-07
3.46115e-05
7.82096e-06
9.13485e-09
2.36693e-08
1.9319e-08
9.34137e-09
3.18337e-09
2.71393e-09
8.82847e-09
2.4776e-08
5.13878e-08
8.27908e-08
1.0583e-07
1.09777e-07
9.56551e-08
7.29248e-08
5.61071e-08
8.17748e-08
4.88116e-08
3.16037e-08
1.25355e-07
3.28573e-06
4.61838e-05
0.00024753
0.000683785
0.00123997
0.00160247
0.00174322
0.00177546
0.0017552
0.00171811
0.00168632
0.00166334
0.00159095
0.0014373
0.00140904
0.00124861
0.00170149
0.00155293
0.00194776
0.00179567
0.00216081
0.00210377
0.00229086
0.0023042
0.00231345
0.00241185
0.00225294
0.00240468
0.00213728
0.0023358
0.00195602
0.00221121
0.00168512
0.00201233
0.00170943
0.00116886
0.00171952
0.0016956
0.000396937
0.00102878
0.00022118
4.60044e-07
9.10782e-05
1.94801e-05
2.76453e-08
6.57087e-08
7.22167e-08
3.73979e-08
1.2477e-08
7.66503e-09
2.27542e-08
6.7138e-08
1.45803e-07
2.46341e-07
3.32035e-07
3.61858e-07
3.27287e-07
2.5478e-07
1.75994e-07
1.84196e-07
1.70123e-07
1.12609e-07
1.11487e-07
1.62727e-06
2.97044e-05
0.000217784
0.000671162
0.00125297
0.00161039
0.00175319
0.00180306
0.00180879
0.00178913
0.001751
0.00168254
0.00155818
0.00129843
0.00112181
0.000981399
0.00122195
0.00103738
0.00161151
0.00141592
0.00196049
0.00176503
0.0022774
0.00217611
0.00245987
0.0024584
0.00252638
0.00261031
0.00249873
0.00263469
0.00242049
0.00259162
0.00228398
0.00249836
0.00206595
0.00234246
0.00210043
0.00161946
0.0021002
0.00206209
0.000793642
0.00147318
0.000482974
9.00881e-07
0.000203567
4.08527e-05
6.44144e-08
1.8e-07
1.66785e-07
1.43614e-07
4.49989e-08
2.06562e-08
5.17271e-08
1.63795e-07
3.78816e-07
6.78553e-07
9.70472e-07
1.12041e-06
1.06195e-06
8.542e-07
5.99677e-07
3.90235e-07
5.16465e-07
2.98242e-07
1.65467e-07
7.95533e-07
1.60765e-05
0.000159557
0.000617902
0.00121989
0.00156924
0.00172143
0.00177367
0.00177333
0.00175117
0.00170993
0.00162518
0.00145034
0.00113213
0.000872698
0.000752193
0.000862909
0.000697799
0.00109389
0.000886807
0.00154117
0.00131337
0.00198767
0.00176148
0.00241016
0.00226804
0.00264168
0.00262926
0.00274328
0.00281183
0.00273259
0.00285375
0.00266749
0.00280601
0.00253963
0.00268893
0.00235972
0.00253216
0.00234234
0.00198481
0.00229492
0.00223175
0.00124228
0.00185526
0.000861728
1.37321e-06
0.000369643
6.63017e-05
3.82484e-07
4.33768e-07
3.28197e-07
1.39632e-07
4.69393e-08
1.04509e-07
3.54197e-07
8.93602e-07
1.71388e-06
2.62276e-06
3.23092e-06
3.23711e-06
2.71552e-06
1.96899e-06
1.26067e-06
8.85145e-07
8.28265e-07
3.69826e-07
5.97535e-07
7.94273e-06
0.000101277
0.000498423
0.00112547
0.00145104
0.00161527
0.00164955
0.00160324
0.00154825
0.00149719
0.00140325
0.00120043
0.000817316
0.000376741
0.000544616
0.00038216
0.000691195
0.00050676
0.00105688
0.000845551
0.0015206
0.00128242
0.0020501
0.0018017
0.00255918
0.00238566
0.00282731
0.00279934
0.00294453
0.00298095
0.00292269
0.00301229
0.00281506
0.00292448
0.00266098
0.00277261
0.00248541
0.00259721
0.00242396
0.00215846
0.00234121
0.00225361
0.00162558
0.00206252
0.00123906
3.37106e-06
0.000560336
0.000127888
9.06587e-07
6.47065e-07
3.8109e-07
1.18307e-07
1.91118e-07
6.84852e-07
1.87408e-06
3.93644e-06
6.49208e-06
8.61003e-06
9.21054e-06
8.13854e-06
6.13866e-06
4.08398e-06
2.38081e-06
1.61784e-06
9.27341e-07
7.43118e-07
4.43711e-06
5.47963e-05
0.000363347
0.000978617
0.00131273
0.00144144
0.00137393
0.00119385
0.00101737
0.000914068
0.000835997
0.000666774
0.000424597
0.000196165
0.000148502
6.83964e-05
0.000343638
0.000211559
0.000645689
0.000456734
0.0010891
0.000879606
0.00155038
0.00131184
0.00215446
0.00190474
0.00268919
0.0024843
0.00296237
0.00288581
0.00305554
0.00304652
0.00301257
0.00306761
0.00287589
0.00296675
0.00269719
0.0027954
0.00250635
0.00257942
0.00237974
0.00217693
0.00223815
0.00210474
0.0018972
0.00211298
0.00157217
2.4541e-05
0.000931985
0.000363333
1.47188e-06
9.29259e-07
2.68332e-07
3.29504e-07
1.19112e-06
3.53114e-06
8.01563e-06
1.45398e-05
2.10106e-05
2.4301e-05
2.29463e-05
1.824e-05
1.26177e-05
7.50433e-06
4.12854e-06
2.38084e-06
1.46352e-06
2.69748e-06
2.55666e-05
0.000232947
0.000797204
0.00118426
0.00128728
0.00111137
0.00080596
0.000549722
0.00040866
0.000332371
0.000260683
0.000166462
7.48777e-05
2.48278e-05
8.47418e-05
3.95707e-05
0.000289502
0.00016152
0.000674908
0.00047332
0.00121897
0.000999661
0.00166215
0.00143533
0.00224238
0.00198996
0.00272405
0.00250185
0.00299297
0.00286246
0.00306889
0.00301322
0.00302861
0.0030308
0.00288477
0.00294099
0.0026644
0.002753
0.00241865
0.00249398
0.00223404
0.00200995
0.00203648
0.0018986
0.00195639
0.00204531
0.00205578
0.00196766
0.00190614
0.000378079
0.00160417
0.00129791
1.64669e-06
6.16938e-07
4.93386e-07
1.89497e-06
5.97971e-06
1.46752e-05
2.86623e-05
4.57221e-05
5.84447e-05
6.00354e-05
5.13022e-05
3.71323e-05
2.27608e-05
1.22149e-05
6.40906e-06
3.45294e-06
2.86645e-06
1.24955e-05
0.000129401
0.000592192
0.00106357
0.00116865
0.000943329
0.000590579
0.000371105
0.000223874
0.000129109
8.00343e-05
4.7504e-05
2.16206e-05
7.50773e-06
1.71628e-05
6.05309e-06
7.45887e-05
3.34002e-05
0.000290987
0.000155817
0.000769269
0.000531107
0.00127448
0.00103703
0.00174425
0.00150756
0.00225143
0.00199465
0.0026542
0.00240769
0.00287989
0.00267565
0.00295707
0.00280187
0.00293164
0.00283202
0.00279924
0.00277136
0.00257422
0.0025999
0.00228393
0.00242051
0.00238627
0.00209878
0.00212437
0.00180775
0.00184934
0.00174165
0.001883
0.00189666
0.00200603
0.00178182
0.00203118
0.00197351
0.00195794
0.00182836
0.0019845
0.00193803
0.00196219
0.00155164
0.00179246
0.00189395
0.00195023
0.00189151
0.00174486
0.00184875
1.43062e-06
7.53674e-07
2.71567e-06
9.26529e-06
2.41012e-05
5.06119e-05
8.62809e-05
0.000121184
0.000141412
0.000134602
0.000102099
6.41218e-05
3.5245e-05
1.76161e-05
8.67285e-06
4.77272e-06
9.02124e-06
6.34237e-05
0.000393702
0.00092151
0.0010844
0.000857162
0.000533439
0.000347998
0.000205438
9.63029e-05
3.48431e-05
1.3382e-05
5.31565e-06
1.93143e-06
3.60356e-06
1.7276e-06
1.26967e-05
6.20321e-06
7.12926e-05
3.03246e-05
0.000313433
0.000158805
0.000789274
0.000535832
0.00125255
0.00099863
0.00174381
0.00149843
0.00214637
0.00188225
0.00243049
0.00217721
0.00259786
0.00239428
0.00266638
0.00251434
0.002662
0.00253211
0.0026476
0.0026107
0.00257426
0.00253439
0.0024442
0.00245094
0.0025084
0.00243424
0.0024465
0.00230944
0.00216411
0.0022036
0.00234126
0.00205121
0.00168779
0.00169464
0.00161002
0.0017855
0.00181818
0.00193367
0.00168065
0.00186012
0.00183212
0.00167612
0.00189216
0.00192084
0.000862979
0.0018987
0.00195511
0.00191637
0.00193047
0.00192673
0.00194022
1.23815e-06
3.48675e-06
1.27619e-05
3.60782e-05
7.96893e-05
0.000143988
0.000212531
0.00026146
0.000269796
0.000235071
0.000167657
9.50535e-05
4.75208e-05
2.23545e-05
1.08215e-05
8.79215e-06
3.10767e-05
0.000231406
0.000734182
0.00101066
0.00085338
0.000554314
0.000391537
0.000258524
0.000128989
4.07394e-05
9.43667e-06
2.23422e-06
6.7482e-07
6.76379e-07
2.82975e-06
1.76662e-06
1.06452e-05
5.15121e-06
6.08467e-05
2.44077e-05
0.000307333
0.000146972
0.000734286
0.000469202
0.00110525
0.000840411
0.00162232
0.00136491
0.00192983
0.00169402
0.00221282
0.00203043
0.00240521
0.00232544
0.002488
0.00253579
0.00251349
0.00251972
0.00255695
0.00264142
0.00248905
0.00247685
0.00248762
0.00235429
0.0023612
0.00243256
0.00240217
0.00237063
0.00223826
0.00209659
0.00213699
0.00226289
0.00198493
0.00158649
0.00155391
0.00150663
0.00170427
0.00187032
0.00175462
0.00159625
0.00168568
0.00171929
0.00153086
0.00176558
0.0018151
0.001604
0.00199381
0.00199014
0.00185596
0.00188045
0.0019058
0.00192718
4.05162e-06
1.611e-05
4.80164e-05
0.000113489
0.000212177
0.000322768
0.000405062
0.000434173
0.00040578
0.000330706
0.00022847
0.000125204
5.71146e-05
2.61407e-05
1.24622e-05
2.04094e-05
0.00012237
0.000525645
0.00091667
0.000868882
0.000610642
0.000485937
0.000378121
0.000240184
9.44155e-05
1.46853e-05
2.48262e-06
4.35283e-07
1.72652e-07
8.14137e-07
3.59484e-07
2.49778e-06
1.61005e-06
9.79247e-06
4.85425e-06
4.64384e-05
2.0535e-05
0.000246588
0.000109276
0.000580017
0.000353279
0.000987298
0.000745299
0.00146282
0.00122859
0.00184848
0.00166224
0.00225975
0.00220031
0.0026664
0.00282942
0.00275367
0.00290915
0.00306665
0.00324894
0.00253985
0.00264017
0.00278771
0.00297444
0.0024533
0.00251379
0.00262145
0.00228738
0.00232718
0.00246779
0.00249515
0.00239338
0.00217598
0.0020352
0.00208942
0.00222295
0.0019297
0.00150242
0.00144807
0.00142836
0.00163999
0.00182017
0.00170632
0.00153222
0.00154202
0.00158127
0.00142092
0.00163625
0.00169942
0.00205662
0.00199833
0.00207473
0.00175816
0.00180522
0.00184842
0.00188721
1.81965e-05
5.88636e-05
0.000145501
0.000283915
0.000437851
0.00055761
0.000610126
0.000593555
0.000517863
0.000402757
0.000269668
0.000146099
6.2897e-05
2.57711e-05
2.00919e-05
6.38478e-05
0.000334925
0.000777401
0.000877944
0.000687085
0.000576927
0.000500154
0.000376651
0.000193176
3.31341e-05
4.82224e-06
6.4125e-07
1.02283e-07
1.13556e-07
7.19e-07
3.23135e-07
2.38926e-06
1.4522e-06
1.04605e-05
5.12969e-06
4.39098e-05
2.06911e-05
0.000190558
9.35953e-05
0.000518261
0.000327892
0.00103229
0.000811118
0.00146598
0.00125462
0.00212434
0.00201647
0.00295667
0.00303067
0.00340456
0.00356266
0.00399145
0.00318963
0.00342064
0.00364474
0.00384827
0.00278233
0.00299452
0.0032461
0.00352011
0.00257349
0.00273515
0.00295841
0.00229278
0.0023906
0.00264674
0.0027301
0.00252798
0.00216026
0.00199785
0.00208938
0.00225652
0.00189904
0.00144183
0.00137881
0.00137737
0.00159394
0.0017913
0.0016774
0.00149226
0.00142845
0.0014722
0.0013596
0.00154224
0.00161644
0.00210008
0.00196853
0.00210325
0.00168753
0.00175279
0.00181644
0.00187467
6.59524e-05
0.000172932
0.000348313
0.000549503
0.000705556
0.000782319
0.000774421
0.000703498
0.000585109
0.000438845
0.000284758
0.000150285
5.99644e-05
2.72993e-05
4.09498e-05
0.000193756
0.000600382
0.000859161
0.000755529
0.000659635
0.000609827
0.000505676
0.000312787
7.81573e-05
1.08977e-05
1.3738e-06
1.51966e-07
3.47913e-08
1.33875e-07
6.06339e-08
6.5673e-07
2.82017e-07
2.44687e-06
1.22034e-06
1.28876e-05
6.5468e-06
5.8141e-05
2.85254e-05
0.000191751
0.000108003
0.000606708
0.000435338
0.00146525
0.00123755
0.00187178
0.00168377
0.00303027
0.00294847
0.00406748
0.00399162
0.00401483
0.00410822
0.00448787
0.00456114
0.00379585
0.00405172
0.0042686
0.00443581
0.00323141
0.00353726
0.00385413
0.00415553
0.00286474
0.00314677
0.00347431
0.00238323
0.00256315
0.00300342
0.00314233
0.00281615
0.00220837
0.00200328
0.00213809
0.00236312
0.00190147
0.0014126
0.00134487
0.0013619
0.00157236
0.00179296
0.00168366
0.00148288
0.00137302
0.0014203
0.00134216
0.00149508
0.00157774
0.00195633
0.0019691
0.00213412
0.00166176
0.00174478
0.00182085
0.00190321
0.000190788
0.000400757
0.000644788
0.000840025
0.000928302
0.000923738
0.00085695
0.000748406
0.000604241
0.000438401
0.000276396
0.000141509
5.25111e-05
3.93832e-05
0.000110783
0.000418922
0.000780384
0.000788363
0.000728574
0.000700863
0.000622269
0.000445979
0.000172088
2.46766e-05
3.02939e-06
3.18049e-07
3.29246e-08
2.00308e-08
1.0084e-07
4.8916e-08
5.7083e-07
2.40272e-07
2.69859e-06
1.1461e-06
2.1438e-05
8.59859e-06
0.000110977
5.30694e-05
0.000301848
0.000195208
0.00101132
0.000793588
0.00231984
0.00203216
0.00279977
0.00258303
0.00382858
0.00366537
0.00440865
0.00429387
0.00407919
0.00419763
0.00454915
0.00458599
0.0045129
0.00464449
0.00441889
0.00462696
0.00477152
0.00483854
0.00382317
0.00416501
0.00447416
0.00472881
0.00333807
0.00370971
0.00408664
0.00258834
0.00289205
0.00352223
0.00368971
0.00326883
0.00231579
0.00204651
0.00223962
0.00257445
0.00193981
0.00141582
0.00134297
0.00137394
0.00158382
0.00182792
0.00171922
0.00149958
0.00136748
0.00142264
0.00135312
0.00150017
0.00159016
0.00121486
0.0020905
0.00207593
0.00168562
0.00178063
0.00187263
0.00199488
0.000435573
0.000721975
0.00094793
0.00103548
0.00102869
0.000970617
0.000874303
0.0007444
0.000585059
0.000413133
0.000250415
0.00011796
4.86919e-05
7.30239e-05
0.00026997
0.000639389
0.000785668
0.000774635
0.00077034
0.000720846
0.000574068
0.000299764
5.48047e-05
6.68094e-06
6.82214e-07
5.78129e-08
8.52903e-09
2.28968e-08
1.05961e-08
8.46291e-08
4.06839e-08
4.95931e-07
2.04995e-07
3.1573e-06
1.20636e-06
3.78389e-05
1.25922e-05
0.000218884
0.000100922
0.000585268
0.000387444
0.00172053
0.00138641
0.00298674
0.00268195
0.00348377
0.00325454
0.00389156
0.00371753
0.00436592
0.00420476
0.00393391
0.00405615
0.00482551
0.00475109
0.00431147
0.00453649
0.0049153
0.00502384
0.00504001
0.00499474
0.00443954
0.00474245
0.00497876
0.00513863
0.00392622
0.00431964
0.00467189
0.00292682
0.00335864
0.00411747
0.00427885
0.00382512
0.0025176
0.00213857
0.00242853
0.0029007
0.00202731
0.00144313
0.00136803
0.00142332
0.00162431
0.00191427
0.00180898
0.00155515
0.00139544
0.0014659
0.00140012
0.00155767
0.00166183
0.000435089
0.0021836
0.00179087
0.00176834
0.00186803
0.00197765
0.00211007
0.000777841
0.00102508
0.00110788
0.00109826
0.00104464
0.00095734
0.000838612
0.000695966
0.000534482
0.000365055
0.000207803
8.39811e-05
6.81354e-05
0.000171935
0.000489383
0.000756389
0.000790736
0.000815182
0.000798354
0.000685945
0.000431363
0.000117848
1.47427e-05
1.46453e-06
1.19691e-07
9.42019e-09
3.87286e-09
1.52297e-08
8.78089e-09
6.42462e-08
2.99315e-08
4.8101e-07
1.57385e-07
3.94838e-06
1.36429e-06
6.23295e-05
1.86148e-05
0.000390271
0.000176099
0.00103674
0.000691125
0.0023274
0.00191762
0.0031029
0.00281236
0.00355361
0.0033467
0.00343357
0.0033481
0.00330069
0.00325648
0.00408032
0.00386385
0.00353625
0.00367887
0.00488258
0.00473306
0.00395773
0.00426742
0.00520509
0.00520349
0.005127
0.00499602
0.00496171
0.00517507
0.00530805
0.00534693
0.00451851
0.00486395
0.00513635
0.00337515
0.0038926
0.00468402
0.00481407
0.00439063
0.00283003
0.00231622
0.0027251
0.00332578
0.00219865
0.00152352
0.0014473
0.00154575
0.00172628
0.00208127
0.00198633
0.00168507
0.00147159
0.00157137
0.0015234
0.00168184
0.00179115
0.0003646
0.00220271
0.00147786
0.0018924
0.00198168
0.00208771
0.00221951
0.00108019
0.00115281
0.00114319
0.00108688
0.000986761
0.000870943
0.000746737
0.000609829
0.000458824
0.000300523
0.000155181
7.51097e-05
0.000121083
0.000353211
0.000672396
0.000787619
0.000835733
0.000853281
0.000776088
0.000554919
0.000220903
3.14899e-05
3.14721e-06
2.48727e-07
1.65354e-08
1.85602e-09
3.78831e-09
1.4922e-09
1.0838e-08
5.92896e-09
5.0432e-08
2.13743e-08
4.98934e-07
1.42259e-07
5.23547e-06
1.50054e-06
7.9917e-05
2.14307e-05
0.000567347
0.00024577
0.00146414
0.000996646
0.00245972
0.00203981
0.00276982
0.00251841
0.00322471
0.00317291
0.00294613
0.00295421
0.00290168
0.00287524
0.00286855
0.00365727
0.00339439
0.00304568
0.00318955
0.00480383
0.00455652
0.00356556
0.00395702
0.00533532