/*--------------------------------*- C++ -*----------------------------------*\
  =========                 |
  \\      /  F ield         | OpenFOAM: The Open Source CFD Toolbox
   \\    /   O peration     | Website:  https://openfoam.org
    \\  /    A nd           | Version:  dev
     \\/     M anipulation  |
\*---------------------------------------------------------------------------*/
FoamFile
{
    version     2.0;
    format      ascii;
    class       volScalarField;
    location    "2500";
    object      G;
}
// * * * * * * * * * * * * * * * * * * * * * * * * * * * * * * * * * * * * * //

dimensions      [1 0 -3 0 0 0 0];

internalField   nonuniform List<scalar> 
9978
(
4191.2
4197.42
4199.04
4202.81
4205.28
4207.81
4207.36
4210.7
4214.06
4217.45
4211.08
4215.27
4219.48
4223.72
4227.99
4213.99
4219
4224.04
4229.14
4234.27
4239.44
4216.09
4221.9
4227.75
4233.68
4239.68
4245.73
4251.83
4217.42
4223.99
4230.63
4237.36
4244.19
4251.12
4258.12
4265.18
4218
4225.3
4232.68
4240.19
4247.83
4255.6
4263.49
4271.48
4279.54
4217.85
4225.85
4233.95
4242.19
4250.6
4259.18
4267.93
4276.82
4285.83
4294.93
4217
4225.67
4234.45
4243.39
4252.52
4261.86
4271.42
4281.19
4291.14
4301.22
4311.41
4215.49
4224.79
4234.22
4243.82
4253.63
4263.69
4274.01
4284.6
4295.44
4306.49
4317.69
4329.03
4213.34
4223.24
4233.27
4243.5
4253.95
4264.69
4275.72
4287.07
4298.73
4310.69
4322.9
4335.3
4347.85
4210.58
4221.05
4231.65
4242.45
4253.51
4264.87
4276.57
4288.62
4301.06
4313.86
4327
4340.45
4354.1
4367.93
4207.26
4218.24
4229.39
4240.73
4252.34
4264.28
4276.58
4289.3
4302.43
4316.01
4330.01
4344.42
4359.17
4374.17
4389.36
4203.4
4214.86
4226.51
4238.35
4250.48
4262.94
4275.81
4289.11
4302.9
4317.18
4331.96
4347.25
4362.99
4379.14
4395.57
4412.23
4199.05
4210.94
4223.04
4235.36
4247.96
4260.91
4274.27
4288.12
4302.48
4317.4
4332.89
4348.96
4365.61
4382.79
4400.43
4418.4
4436.64
4194.25
4206.54
4219.05
4231.78
4244.81
4258.2
4272.02
4286.34
4301.22
4316.7
4332.83
4349.61
4367.06
4385.16
4403.88
4423.13
4442.77
4462.7
4189.03
4201.67
4214.55
4227.67
4241.08
4254.86
4269.09
4283.84
4299.17
4315.14
4331.82
4349.22
4367.38
4386.3
4405.97
4426.34
4447.33
4468.77
4490.56
4183.43
4196.39
4209.6
4223.05
4236.8
4250.94
4265.52
4280.64
4296.37
4312.77
4329.91
4347.84
4366.62
4386.25
4406.75
4428.11
4450.28
4473.15
4496.56
4520.36
4177.48
4190.72
4204.23
4217.98
4232.03
4246.46
4261.36
4276.8
4292.86
4309.62
4327.15
4345.54
4364.82
4385.06
4406.28
4428.48
4451.66
4475.78
4500.71
4526.27
4552.28
4171.21
4184.71
4198.48
4212.48
4226.79
4241.48
4256.64
4272.35
4288.69
4305.75
4323.61
4342.36
4362.06
4382.79
4404.6
4427.52
4451.56
4476.72
4502.97
4530.16
4558.09
4586.54
4164.67
4178.39
4192.38
4206.61
4221.13
4236.04
4251.42
4267.35
4283.92
4301.22
4319.33
4338.36
4358.39
4379.51
4401.78
4425.28
4450.04
4476.08
4503.41
4531.99
4561.67
4592.21
4623.36
4157.88
4171.79
4185.98
4200.39
4215.1
4230.19
4245.74
4261.84
4278.58
4296.06
4314.37
4333.62
4353.89
4375.29
4397.91
4421.85
4447.17
4473.92
4502.14
4531.83
4562.99
4595.42
4628.87
4663.05
4150.87
4164.94
4179.29
4193.86
4208.73
4223.96
4239.64
4255.87
4272.74
4290.34
4308.79
4328.18
4348.62
4370.21
4393.07
4417.31
4443.03
4470.33
4499.24
4529.84
4562.14
4596.14
4631.65
4668.35
4706
4143.68
4157.88
4172.37
4187.07
4202.05
4217.39
4233.18
4249.49
4266.44
4284.12
4302.63
4322.1
4342.63
4364.34
4387.35
4411.77
4437.74
4465.39
4494.82
4526.1
4559.3
4594.5
4631.66
4670.6
4711.05
4752.6
4136.31
4150.63
4165.23
4180.03
4195.11
4210.53
4226.38
4242.75
4259.73
4277.44
4295.97
4315.45
4336
4357.75
4380.81
4405.32
4431.41
4459.24
4488.97
4520.72
4554.58
4590.67
4629.07
4669.78
4712.65
4757.34
4803.24
4128.81
4143.22
4157.9
4172.79
4187.93
4203.4
4219.29
4235.68
4252.66
4270.35
4288.86
4308.3
4328.8
4350.51
4373.54
4398.03
4424.14
4452.02
4481.85
4513.83
4548.1
4584.81
4624.09
4666.07
4710.83
4758.19
4807.6
4858.47
4121.2
4135.67
4150.42
4165.36
4180.55
4196.06
4211.95
4228.33
4245.29
4262.92
4281.35
4300.7
4321.1
4342.68
4365.61
4390
4416.02
4443.83
4473.62
4505.61
4540.03
4577.07
4616.91
4659.75
4705.8
4755.17
4807.54
4862.37
4918.94
4113.48
4128
4142.8
4157.78
4173
4188.51
4204.4
4220.74
4237.64
4255.19
4273.5
4292.71
4312.95
4334.36
4357.09
4381.3
4407.15
4434.79
4464.42
4496.25
4530.56
4567.62
4607.7
4651.02
4697.88
4748.57
4803.12
4861.23
4922.28
4985.43
4105.69
4120.24
4135.07
4150.08
4165.3
4180.81
4196.67
4212.95
4229.76
4247.2
4265.37
4284.4
4304.43
4325.6
4348.08
4372.02
4397.6
4424.98
4454.34
4485.9
4519.92
4556.72
4596.67
4640.09
4687.32
4738.75
4794.67
4855.14
4919.82
4988.06
5058.86
4097.84
4112.41
4127.26
4142.27
4157.49
4172.97
4188.78
4205
4221.7
4239
4256.99
4275.81
4295.59
4316.48
4338.65
4362.25
4387.47
4414.49
4443.49
4474.67
4508.28
4544.63
4584.13
4627.23
4674.38
4726.03
4782.6
4844.48
4911.75
4984.01
5060.61
5140.41
4089.94
4104.51
4119.36
4134.37
4149.57
4165.02
4180.77
4196.9
4213.49
4230.63
4248.42
4267
4286.5
4307.06
4328.86
4352.07
4376.86
4403.43
4431.97
4462.69
4495.78
4531.55
4570.39
4612.8
4659.37
4710.71
4767.32
4829.72
4898.43
4973.52
5054.62
5141.01
5231.64
4082.01
4096.57
4111.42
4126.41
4141.58
4156.98
4172.67
4188.7
4205.16
4222.13
4239.71
4258.03
4277.21
4297.41
4318.79
4341.54
4365.85
4391.9
4419.89
4450.03
4482.53
4517.64
4555.69
4597.17
4642.74
4693.19
4749.21
4811.4
4880.46
4957
5041.19
5132.65
5230.49
5334.77
4074.07
4088.61
4103.43
4118.39
4133.53
4148.88
4164.49
4180.42
4196.74
4213.53
4230.89
4248.93
4267.78
4287.58
4308.52
4330.76
4354.52
4379.98
4407.35
4436.84
4468.65
4503.01
4540.21
4580.65
4624.94
4673.98
4728.73
4789.98
4858.55
4935.24
5020.79
5115.71
5219.32
5308.3
5303.56
5419.32
5361.15
5420.92
4066.12
4080.62
4095.41
4110.34
4125.43
4140.72
4156.25
4172.08
4188.26
4204.87
4222
4239.75
4258.25
4277.65
4298.1
4319.8
4342.94
4367.75
4394.44
4423.21
4454.27
4487.8
4524.07
4563.42
4606.33
4653.66
4706.51
4766
4833.2
4909.07
4994.55
5090.45
5198.45
5296.33
5286.27
5356.36
5480.61
5418.55
5482.04
4058.17
4072.63
4087.38
4102.26
4117.3
4132.52
4147.97
4163.69
4179.73
4196.16
4213.06
4230.53
4248.68
4267.65
4287.6
4308.72
4331.21
4355.31
4381.23
4409.22
4439.47
4472.15
4507.45
4545.66
4587.16
4632.65
4683.22
4740.22
4805.08
4879.09
4963.37
5058.94
5156.64
5139.6
5273.74
5196.89
5258.32
5348.07
5336.72
5412.65
5546.18
5479.31
5547.35
4050.24
4064.65
4079.34
4094.17
4109.15
4124.3
4139.67
4155.28
4171.19
4187.44
4204.12
4221.3
4239.1
4257.65
4277.09
4297.6
4319.41
4342.73
4367.83
4394.95
4424.31
4456.1
4490.46
4527.53
4567.62
4611.26
4659.42
4713.46
4775.09
4846.05
4927.93
5021.89
5121.24
5101.32
5178.86
5322.54
5240.36
5305.52
5403.09
5390.17
5472.48
5616.45
5544.01
5617.28
4042.34
4056.68
4071.31
4086.07
4100.98
4116.07
4131.35
4146.86
4162.63
4178.72
4195.18
4212.09
4229.55
4247.67
4266.61
4286.52
4307.61
4330.11
4354.31
4380.48
4408.89
4439.72
4473.13
4509.17
4547.93
4589.76
4635.49
4686.38
4744.22
4811.12
4889.13
4980.18
5080.25
5057.76
5158.71
5137.02
5220.19
5374.22
5285.81
5355.32
5461.54
5446.86
5536.11
5691.95
5613.12
5692.32
4034.49
4048.74
4063.3
4077.98
4092.82
4107.83
4123.03
4138.43
4154.08
4170
4186.26
4202.91
4220.05
4237.77
4256.21
4275.51
4295.89
4317.55
4340.8
4365.93
4393.27
4423.07
4455.5
4490.56
4528.21
4568.42
4611.78
4659.49
4713.29
4775.52
4848.66
4934.91
5034.32
5009.86
5113.95
5089.59
5198.01
5174.29
5263.55
5428.93
5333.57
5407.91
5523.65
5507.07
5604
5773.21
5687.17
5773.02
4026.69
4040.85
4055.31
4069.91
4084.67
4099.59
4114.7
4130.01
4145.54
4161.32
4177.38
4193.8
4210.63
4227.96
4245.93
4264.65
4284.31
4305.14
4327.39
4351.41
4377.58
4406.26
4437.64
4471.73
4508.37
4547.29
4588.56
4633.18
4682.97
4740.29
4807.91
4888.32
4984.8
4958.9
5064.23
5038.11
5149.2
5122.96
5239.2
5213.35
5309.11
5486.92
5383.91
5463.51
5589.91
5571.21
5676.63
5860.83
5766.67
5860.05
4018.96
4033.01
4047.37
4061.87
4076.53
4091.36
4106.38
4121.6
4137.01
4152.66
4168.55
4184.74
4201.29
4218.27
4235.79
4253.96
4272.95
4292.94
4314.2
4337.06
4361.97
4389.41
4419.68
4452.73
4488.37
4526.18
4565.8
4607.71
4653.62
4706.04
4767.59
4841.36
4932.95
4906.68
5011.28
4983.82
5095.84
5067.96
5186.28
5158.29
5282.5
5254.5
5357.16
5548.5
5437.07
5522.4
5660.69
5639.54
5754.42
5955.53
5852.29
5954.09
4011.32
4025.24
4039.48
4053.86
4068.41
4083.15
4098.07
4113.19
4128.51
4144.03
4159.77
4175.76
4192.06
4208.72
4225.82
4243.48
4261.82
4281.03
4301.32
4323.01
4346.59
4372.68
4401.72
4433.66
4468.22
4504.94
4543.22
4582.96
4625.39
4672.97
4728.46
4795
4880.53
4854.3
4955.9
4927.74
5039.31
5009.85
5129.38
5099.55
5225.63
5195.86
5328.31
5298.32
5408.03
5613.95
5493.4
5585
5736.28
5712.4
5837.99
6058.03
5944.7
6055.91
4003.78
4017.56
4031.65
4045.9
4060.33
4074.95
4089.77
4104.8
4120.02
4135.43
4151.03
4166.86
4182.93
4199.29
4216.03
4233.22
4250.97
4269.44
4288.81
4309.37
4331.59
4356.25
4383.92
4414.68
4448.09
4483.63
4520.61
4558.61
4598.23
4641.49
4691.12
4750.02
4828.28
4802.71
4899.39
4871.01
4979.76
4949.29
5068.78
5036.99
5164.96
5132.91
5267.65
5235.89
5377.16
5345.36
5462.27
5683.79
5553.66
5652.16
5817.31
5790.55
5928.06
6169.37
6044.8
6166.56
3996.37
4009.98
4023.91
4038
4052.29
4066.78
4081.49
4096.41
4111.53
4126.85
4142.34
4158.02
4173.9
4190.01
4206.41
4223.18
4240.4
4258.2
4276.73
4296.23
4317.14
4340.29
4366.51
4395.96
4428.15
4462.4
4498.05
4534.54
4571.94
4611.66
4655.9
4707.39
4777.46
4753.03
4842.84
4815.12
4918.53
4887.71
5004.41
4971.33
5099.68
5065.24
5202.72
5168.12
5312.69
5278.66
5429.78
5396.09
5521.06
5759.08
5619.33
5725.64
5904.53
5874.92
6025.46
6290.66
6153.59
6287.11
3989.1
4002.53
4016.28
4030.19
4044.3
4058.64
4073.21
4088.03
4103.05
4118.28
4133.68
4149.24
4164.96
4180.85
4196.97
4213.37
4230.12
4247.31
4265.08
4283.61
4303.3
4324.98
4349.67
4377.75
4408.62
4441.43
4475.61
4510.64
4546.26
4583.16
4623.07
4668.19
4729.37
4707.23
4787.96
4761.62
4857.16
4827.14
4937.91
4904.43
5029.87
4993.91
5132.11
5094.68
5242.89
5205.37
5361.2
5324.57
5486.97
5451.24
5585.58
5841.49
5692.12
5807.78
5998.78
5966.93
6131.29
6423.15
6272.13
6418.78
3981.99
3995.22
4008.77
4022.47
4036.38
4050.54
4064.96
4079.65
4094.57
4109.72
4125.04
4140.51
4156.11
4171.83
4187.7
4203.78
4220.12
4236.79
4253.88
4271.54
4290.11
4310.42
4333.61
4360.3
4389.77
4421.05
4453.55
4486.95
4520.92
4555.65
4592.41
4632.54
4677.8
4736.5
4713.16
4797.86
4769.55
4871.32
4838.84
4957.59
4921.27
5056.21
5017.11
5166.2
5125.45
5285.78
5244.93
5413.79
5374.1
5549.83
5511.75
5657.25
5933.79
5773.72
5900.64
6101.7
6069.63
6246.88
6568.14
6401.69
6563
3975.06
3988.08
4001.4
4014.88
4028.56
4042.51
4056.75
4071.28
4086.1
4101.17
4116.43
4131.84
4147.35
4162.94
4178.62
4194.43
4210.41
4226.63
4243.15
4260.05
4277.6
4296.63
4318.43
4343.75
4371.92
4401.71
4432.43
4463.93
4496.14
4529.07
4563.34
4599.75
4639.28
4694.08
4672.3
4742.73
4717.69
4807.28
4776.97
4885.43
4850.36
4977.69
4938.38
5083.58
5041.1
5202.19
5157.74
5331.81
5287.13
5471.22
5427.89
5619.7
5578.76
5737.6
6038.63
5866.02
6006.34
6215.94
6186.63
6374.34
6726.98
6544.16
6721.36
3968.31
3981.11
3994.2
4007.43
4020.87
4034.57
4048.59
4062.94
4077.63
4092.61
4107.82
4123.2
4138.66
4154.17
4169.71
4185.3
4200.99
4216.82
4232.86
4249.15
4265.82
4283.61
4304.11
4328.2
4355.21
4383.71
4412.79
4442.31
4472.5
4503.54
4535.64
4569.26
4604.72
4651.97
4633.02
4697.37
4674.67
4748.43
4721.95
4816.46
4784.15
4899.66
4861.92
4998.39
4955.9
5112.14
5066
5240.35
5191.75
5381.5
5332.35
5534.37
5486.56
5697.78
5653.09
5828.01
6158.08
5970.53
6126.19
6345.4
6320.13
6517.05
6900.76
6701.89
6895.14
3961.85
3974.34
3987.19
4000.17
4013.33
4026.75
4040.5
4054.63
4069.14
4084.02
4099.18
4114.54
4130.01
4145.49
4160.94
4176.38
4191.82
4207.34
4222.96
4238.74
4254.74
4271.44
4290.55
4313.56
4339.61
4367.09
4394.84
4422.56
4450.58
4479.47
4509.47
4540.79
4573.44
4615.37
4598.93
4653.69
4634.28
4700.4
4676.82
4753.94
4726.07
4825.63
4791.36
4914.21
4873.76
5019.77
4973.96
5142
5091.86
5280.89
5227.54
5435.22
5380.77
5603.66
5550.2
5784.64
5734.74
5928.99
6293.61
6087.4
6259.91
6493.34
6471.47
6678.57
7089.68
6876.77
7083.67
3967.88
3980.39
3993.1
4005.97
4019.08
4032.52
4046.37
4060.66
4075.38
4090.48
4105.84
4121.34
4136.85
4152.29
4167.63
4182.89
4198.14
4213.42
4228.78
4244.25
4260.08
4277.8
4299.6
4324.89
4351.66
4378.5
4404.81
4430.86
4457.45
4485.26
4514.45
4545.05
4576.85
4616.51
4600.46
4655.19
4635.41
4703.55
4679.05
4759.57
4730.35
4835.08
4798.86
4929.22
4886.1
5041.84
4992.53
5173.13
5118.54
5323.78
5264.92
5492.82
5432.02
5678.87
5618.29
5880.1
5823.23
6039.96
6444.6
6215.53
6405.94
6660.6
6640.47
6860.15
7293.69
7068.38
7286.93
3973.91
3986.25
3998.81
4011.58
4024.67
4038.18
4052.19
4066.71
4081.7
4097.05
4112.62
4128.22
4143.71
4159.03
4174.18
4189.22
4204.21
4219.21
4234.24
4249.44
4265.9
4286.22
4310.77
4337.08
4363.4
4388.87
4413.59
4438.3
4463.92
4491.06
4519.81
4549.87
4586.62
4572.86
4617.55
4601.52
4656.76
4636.57
4706.92
4681.44
4765.5
4734.91
4845.08
4806.88
4944.67
4898.84
5064.39
5011.36
5205.21
5145.7
5368.57
5303.41
5553.55
5485.33
5759.39
5690.18
5983.29
5917.56
6159.61
6609.99
6353.36
6562.49
6847.17
6825.68
7061.98
7516.51
7281.25
7515.29
3979.74
3991.9
4004.31
4017.01
4030.12
4043.76
4058
4072.83
4088.14
4103.78
4119.51
4135.15
4150.54
4165.66
4180.55
4195.3
4209.99
4224.66
4239.39
4254.81
4273.48
4297
4322.93
4349.02
4374.06
4398.22
4421.83
4445.7
4470.81
4497.51
4525.55
4554.05
4587.99
4574.41
4618.58
4602.59
4658.4
4637.73
4710.5
4683.93
4771.85
4739.78
4855.47
4815.19
4960.3
4911.67
5087.1
5030.17
5237.77
5172.82
5414.53
5342.3
5616.67
5539.94
5844.26
5765.07
6093.06
6016.25
6286.25
6788.63
6499.52
6670.44
6703.67
7053.83
6985.38
6966.81
7289.91
7794.04
7535.52
7813.39
3985.34
3997.31
4009.58
4022.22
4035.42
4049.29
4063.87
4079.09
4094.76
4110.66
4126.51
4142.09
4157.29
4172.12
4186.68
4201.1
4215.45
4229.81
4244.48
4261.49
4283.52
4308.93
4334.84
4359.76
4383.74
4406.85
4429.58
4452.88
4477.51
4503.43
4530.08
4562.46
4550.05
4589.02
4575.47
4619.54
4603.53
4660.04
4638.82
4714.05
4686.38
4778.34
4744.69
4865.87
4823.48
4975.72
4924.13
5109.45
5048.49
5270.12
5199.38
5460.87
5380.88
5681.17
5595
5932.16
5841.83
6208.5
6070.94
6115.94
6407
6365.45
6788.43
6942.67
6912.63
6633.09
6591.76
6474.96
6752.82
7228.36
7217.57
7089.85
7068.72
7349.38
7484.9
7485.95
8211.74
7767.87
7781.53
7630.17
7950.64
8125.39
8134.84
3990.7
4002.44
4014.57
4027.24
4040.64
4054.86
4069.89
4085.55
4101.58
4117.67
4133.53
4148.95
4163.85
4178.32
4192.52
4206.59
4220.61
4234.76
4250.34
4270.43
4294.95
4320.65
4345.53
4369.44
4392.45
4414.57
4436.49
4459.21
4483.11
4507.81
4538.11
4526.7
4563.4
4551
4589.84
4576.31
4620.38
4604.32
4661.67
4639.94
4717.46
4688.67
4784.76
4749.47
4875.86
4831.39
4990.6
4936
5131.09
5066.09
5301.77
5225.18
5506.91
5418.79
5753.62
5707.09
5659.76
5612.46
6023.57
5974.97
5787.71
5873.76
5924.62
6168.99
6320.55
6273.6
6121.07
6431.06
6877.09
7040.52
7006.29
6712.23
6667.1
6546.23
6837.19
7335.37
7199.3
7173.72
7477.36
7627.04
8577.26
8585.85
8353.94
7958.74
7786.13
8148.94
8361.66
3995.76
4007.25
4019.29
4032.09
4045.85
4060.58
4076.14
4092.24
4108.54
4124.71
4140.46
4155.61
4170.15
4184.22
4198.03
4211.75
4225.52
4240.03
4258.02
4281.1
4306.37
4331.12
4355.02
4378.13
4400.12
4421.14
4442.24
4464.3
4487.22
4510.52
4539.07
4527.62
4563.92
4551.49
4590.46
4576.88
4621.23
4605.03
4663.15
4640.99
4720.55
4690.68
4790.82
4753.92
4885.26
4838.82
5004.78
4947.26
5151.92
5082.56
5332.61
5249.75
5564.94
5517.49
5470.17
5423.33
5738.32
5688.34
5638.44
6070.52
6018.35
5821.8
5910.74
5964.97
6223.78
6382.99
6332.03
6171.91
6498.1
6967.06
7140.85
7102.04
6792.73
6618.1
6743.81
6923.15
7312.46
7458.26
7281.68
7612.37
7776.69
8831.2
8852.33
8598.41
7954.1
8148.06
8361.82
8598.29
4000.44
4011.68
4023.75
4036.88
4051.2
4066.56
4082.64
4099.09
4115.53
4131.64
4147.17
4161.97
4176.1
4189.76
4203.2
4216.63
4230.42
4246.51
4267.59
4292.04
4316.6
4340.41
4363.63
4385.79
4406.48
4426.36
4446.82
4468.1
4489.88
4517
4506.47
4539.54
4528.07
4563.98
4551.51
4590.84
4577.05
4622.05
4605.63
4664.49
4642
4723.45
4692.59
4796.51
4758.09
4894.12
4845.71
5017.58
4957.21
5170.97
5096.72
5377.22
5331.83
5287.69
5244.39
5588.6
5538.8
5489.22
5440.13
5769.46
5716.78
5664.29
6117.78
6062.14
5855.84
5947.96
6005.51
6278.81
6446.33
6391.56
6223.28
6566.19
7058.65
7243.85
7200.44
6874.75
6691.11
6822.09
7010.76
7429.65
7586.48
7393.05
7754.15
7935.18
9138.39
8858.76
9146.38
8132.35
8348.44
8585.5
8847.54
4004.67
4015.74
4028.05
4041.79
4056.84
4072.83
4089.35
4105.98
4122.4
4138.33
4153.55
4167.96
4181.66
4194.91
4208.04
4221.36
4235.99
4254.77
4277.89
4302.05
4325.66
4348.89
4371.28
4392.13
4411.34
4430.45
4450.28
4470.66
4491.2
4517.26
4506.73
4539.61
4528.21
4563.5
4551.06
4590.73
4576.68
4622.74
4605.91
4665.73
4642.71
4725.97
4694.19
4801.71
4761.84
4901.92
4851.74
5027.75
4964.52
5202.46
5161.79
5104.96
5391.72
5344.19
5297.85
5252.63
5611.92
5559.56
5507.44
5455.8
5800.59
5745.08
5689.81
6165.62
6106.55
5889.9
5985.41
6046.46
6334.6
6510.87
6452.38
6275.45
6635.44
7152.48
7350.1
7301.99
6958.47
6765.58
6901.97
7100.28
7551.18
7720.57
7508.39
7903.51
8102.79
9472.48
9137.21
9462.96
8320.87
8559.22
8821.54
9111.43
4008.36
4019.49
4032.43
4047.03
4062.85
4079.37
4096.12
4112.76
4129.02
4144.67
4159.52
4173.52
4186.81
4199.71
4212.66
4226.33
4242.94
4264.19
4287.6
4310.93
4334.02
4356.56
4377.75
4396.91
4415.01
4433.59
4452.71
4472.05
4496.31
4486.58
4517.06
4506.53
4539.25
4527.95
4562.43
4550.11
4589.88
4575.61
4622.89
4605.49
4666.58
4642.8
4727.97
4695.23
4806.21
4765
4907.34
4855.81
5032.26
4966.84
5208.75
5166.99
5085.88
5126.32
5404.85
5354.87
5306.16
5258.72
5634.64
5579.42
5524.43
5469.93
5831.59
5773.04
5714.66
6214.29
6151.7
5923.95
6022.91
6087.83
6391.47
6576.57
6514.26
6328.56
6705.88
7249.09
7460.01
7406.86
7043.87
6841.48
6983.36
7192.13
7678.06
7861.6
7628.87
8061.63
8280.47
9832.67
9432.89
9800.79
8520.15
8782.37
9071.87
9390.55
4011.52
4023.19
4037.16
4052.74
4069.21
4086.02
4102.81
4119.32
4135.33
4150.63
4165.07
4178.66
4191.57
4204.23
4217.29
4232.19
4251.23
4273.5
4296.34
4319.16
4341.69
4363.2
4382.7
4400.28
4417.82
4435.86
4454.15
4472.35
4495.98
4486.33
4516.45
4506.02
4538.44
4527.25
4560.72
4548.62
4588.07
4573.74
4622.17
4604.09
4666.7
4641.9
4729.11
4695.52
4809.17
4766.98
4908.63
4856.83
5048.53
5012.71
4949.14
4980.28
5212.73
5168.67
5083.77
5124.95
5416.2
5363.55
5312.34
5262.6
5656.34
5597.93
5539.78
5482.22
5862.25
5800.23
5738.36
6263.8
6197.32
5957.62
6060.07
6129.26
6449.34
6643.17
6577.04
6382.61
6777.62
7348.88
7574.58
7515.78
7131.38
6918.93
7066.74
7286.86
7811.64
8011.14
7755.67
8229.75
8469.58
10202.3
9746.73
10153.3
8732.04
9020.46
9337.63
9685.8
4014.33
4027.21
4042.46
4058.88
4075.75
4092.64
4109.31
4125.58
4141.26
4156.18
4170.21
4183.4
4195.98
4208.64
4222.36
4239.27
4259.98
4282.06
4304.45
4326.81
4348.48
4368.43
4386.02
4402.79
4419.9
4437.29
4454.65
4476.49
4467.59
4495.31
4485.77
4515.44
4505.19
4537.12
4526.08
4558.34
4546.55
4585.25
4571.05
4620.31
4601.53
4665.96
4640.03
4729.24
4695.01
4810.02
4767.52
4905.31
4854.58
5045.45
5009.71
4946.4
4976.82
5214.5
5168.59
5079.68
5121.79
5425.57
5370.18
5316.45
5264.45
5676.57
5614.74
5553.29
5492.61
5892.09
5826.22
5760.56
6313.91
6243.07
5990.51
6096.54
6170.39
6508.16
6710.88
6640.93
6437.29
6850.95
7452.55
7694.96
7630.06
7221.45
6998.23
7152.33
7385.36
7953.37
8170.84
7890.05
8409.58
8671.92
10527.8
10076
10495.2
8959.35
9275.26
9619.85
9996.28
4017.29
4031.92
4048.34
4065.32
4082.33
4099.12
4115.55
4131.51
4146.81
4161.32
4174.95
4187.76
4200.2
4213.21
4228.37
4247.21
4268.28
4290.04
4312.06
4333.7
4354.01
4371.97
4388.29
4404.66
4421.28
4437.91
4454.27
4475.87
4467.03
4494.38
4484.99
4514.1
4504.08
4535.32
4524.51
4555.41
4544.01
4581.68
4567.73
4617.45
4598.07
4664.49
4637.52
4728.11
4693.47
4808.65
4766.43
4914.47
4887.28
4863.09
4839.05
5040.76
5004.93
4942.09
4972.11
5214.36
5166.76
5073.97
5117.03
5433.03
5374.96
5318.83
5264.65
5695.1
5629.75
5564.99
5501.24
5920.72
5850.7
5781.08
6364.12
6288.41
6022.31
6132.08
6210.79
6567.86
6779.91
6705.77
6492.14
6925.86
7561.27
7822.45
7751.18
7314.83
7079.42
7240.89
7488.82
8105.2
8342.37
8034.27
8603.41
8890.01
10838
10411.1
10822.1
9204.52
9547.19
9917.03
10318
4021.11
4037.46
4054.68
4071.89
4088.81
4105.38
4121.51
4137.1
4152
4166.09
4179.32
4191.84
4204.46
4218.38
4235.33
4255.16
4276.1
4297.58
4319.01
4339.49
4357.91
4374.16
4389.97
4405.95
4421.97
4437.76
4457.67
4449.44
4474.97
4466.23
4493.19
4483.95
4512.49
4502.69
4533.12
4522.62
4552.19
4541.19
4577.81
4564.12
4614.1
4594.26
4662.27
4634.63
4725.68
4690.97
4817.26
4795.73
4763.62
4909.5
4883.61
4859.43
4836.42
5034.57
4998.76
4936.72
4966.26
5212.61
5163.33
5067
5111.02
5438.88
5378.28
5319.83
5263.53
5711.89
5643.05
5575.09
5508.45
5947.92
5873.57
5799.95
6413.85
6332.87
6052.91
6166.29
6250.04
6627.86
6850.11
6771.04
6546.67
7002.61
7676.4
7959.36
7881.22
7412.84
7163.32
7333.47
7598.29
8269.08
8528.01
8190.58
8813.18
9126.06
11158.9
10745.9
11149.4
9467.28
9834.25
10226.2
10646.7
4026.2
4043.7
4061.29
4078.43
4095.13
4111.4
4127.2
4142.39
4156.87
4170.53
4183.38
4195.89
4209.07
4224.43
4242.74
4262.76
4283.52
4304.54
4324.98
4343.77
4360.24
4375.71
4391.18
4406.68
4422
4436.88
4456.85
4448.69
4473.84
4465.24
4491.73
4482.67
4510.64
4501.05
4530.67
4520.5
4549.05
4538.33
4574.18
4560.69
4610.73
4590.64
4659.51
4631.67
4722.24
4687.94
4814.53
4793.01
4751.52
4770.57
4904.07
4879.04
4855.45
4833.09
5027.16
4991.49
4930.61
4959.49
5209.58
5158.66
5059.21
5104.13
5443.42
5380.38
5319.72
5261.4
5727.05
5654.85
5583.84
5514.39
5973.64
5894.92
5817.32
6462.79
6376.23
6082.02
6198.91
6287.95
6687.81
6921.8
6837.07
6600.8
7081.61
7799.85
8108.13
8022.58
7516.52
7250.49
7431.08
7715.4
8446.84
8729.78
8360.57
9040.51
9380.12
11466.1
11080
11464.2
9745.7
10134
10545.3
10978
4032.39
4050.43
4067.96
4084.84
4101.25
4117.21
4132.64
4147.41
4161.43
4174.68
4187.33
4200.17
4214.4
4231.16
4250.07
4270.02
4290.45
4310.64
4329.6
4346.42
4361.76
4376.87
4391.95
4406.87
4421.44
4435.46
4455.81
4447.75
4472.49
4464.06
4490.03
4481.15
4508.55
4499.16
4528.1
4518.19
4546.08
4535.49
4571
4557.61
4607.64
4587.45
4656.59
4628.88
4748.89
4728.62
4711.09
4693.84
4677.99
4811.52
4790.55
4768.05
4898.1
4873.88
4851.07
4829.33
5018.98
4983.48
4923.92
4952.07
5205.61
5153.07
5050.99
5096.67
5446.81
5381.44
5318.66
5258.43
5740.78
5665.32
5591.31
5519.14
5997.89
5914.9
5833.43
6510.94
6418.6
6109.46
6229.94
6324.6
6748.03
6995.15
6904.05
6654.76
7163.07
7933.91
8270.31
8177.04
7627.38
7341.8
7535.11
7842.16
8640.57
8948.97
8546.17
9286.14
9650.86
11751
11407.4
11754.7
10038.1
10444.7
10870.8
11307.5
4039.37
4057.33
4074.53
4091.11
4107.22
4122.82
4137.84
4152.17
4165.76
4178.67
4191.42
4204.99
4220.45
4238.09
4257.13
4276.85
4296.62
4315.53
4332.65
4348.04
4362.93
4377.7
4392.3
4406.58
4420.36
4437.68
4446.67
4430.25
4454.58
4470.93
4462.67
4488.09
4479.4
4506.21
4497.03
4525.42
4515.67
4543.21
4532.57
4568.35
4554.87
4604.91
4584.76
4653.93
4626.4
4746.85
4726.87
4709.42
4692.46
4676.19
4808.19
4787.71
4765.53
4891.89
4868.48
4846.47
4825.34
5010.43
4975.09
4916.97
4944.3
5200.89
5146.81
5042.53
5088.78
5449.1
5381.5
5316.7
5254.69
5753.23
5674.45
5597.49
5522.68
6020.66
5933.59
5848.17
6558.36
6459.73
6135.35
6259.34
6359.67
6808.47
7070.33
6972.06
6708.32
7247.67
8080.38
8447.58
8345.57
7746.68
7438.12
7646.22
7979.94
8851.92
9186.23
8749.16
9549.47
9936.8
12026.6
11718.1
12031.7
10342.3
10764.5
11198.4
11631
4046.67
4064.15
4080.96
4097.23
4113
4128.23
4142.83
4156.71
4169.9
4182.71
4195.93
4210.47
4226.89
4244.9
4263.82
4283.01
4301.69
4318.95
4334.49
4349.29
4363.83
4378.18
4392.24
4405.85
4418.75
4445.33
4436.44
4429.14
4453.11
4469.14
4461.05
4485.91
4477.42
4503.62
4494.64
4522.53
4512.91
4540.1
4529.33
4565.81
4552.05
4602.46
4582.32
4659.35
4645.36
4623.43
4744.78
4725.09
4707.8
4691
4674.84
4804.7
4784.73
4763.08
4885.77
4863.18
4841.89
4821.28
5001.8
4966.69
4910.04
4936.56
5195.55
5139.99
5034.05
5080.78
5450.27
5380.53
5313.81
5250.23
5764.26
5682.16
5602.28
5524.88
6042.08
5950.84
5861.31
6604.82
6499.38
6159.74
6287.17
6393.12
6868.99
7147.61
7041.13
6761.54
7335.66
8239.85
8641.36
8529.4
7875.12
7539.84
7764.67
8129.49
9080.84
9441.88
8969.38
9828.9
10235.1
12299.1
12012.9
12307
10656.8
11089.9
11526.3
11946.9
4053.83
4070.75
4087.21
4103.16
4118.58
4133.41
4147.58
4161.05
4174
4187.03
4200.97
4216.4
4233.34
4251.39
4269.91
4288.19
4305.4
4321.09
4335.88
4350.3
4364.46
4378.33
4391.81
4404.71
4416.91
4443.88
4435.1
4427.95
4451.48
4467.1
4459.22
4483.45
4475.17
4500.73
4491.96
4519.31
4509.83
4536.21
4525.47
4562.21
4548.26
4599.22
4578.92
4657.82
4643.15
4626.25
4613.71
4742.75
4723.19
4706.06
4689.4
4673.31
4801.21
4781.83
4760.77
4879.85
4858.14
4837.52
4817.46
4993.24
4958.46
4903.27
4929
5189.76
5132.94
5025.81
5072.97
5450.2
5378.49
5310.03
5245.08
5773.62
5688.23
5605.44
5525.49
6061.97
5966.32
5872.53
6650.6
6537.92
6182.52
6313.56
6425.23
6929.58
7226.87
7111.12
6814.08
7427.21
8413.22
8852.14
8729.57
8013.61
7646.98
7890.69
8291.78
9327.75
9713.92
9206.81
10121.4
10544.3
12569.4
12300.8
12588.5
10979.8
11419.6
11855.8
12261.5
4060.63
4077.09
4093.22
4108.84
4123.9
4138.34
4152.11
4165.27
4178.25
4191.78
4206.44
4222.43
4239.56
4257.34
4275.1
4292.11
4307.87
4322.69
4337.04
4351.07
4364.8
4378.15
4391.03
4403.27
4418.65
4426.74
4412.01
4442.36
4433.7
4449.74
4464.88
4457.24
4480.73
4472.71
4497.48
4488.97
4515.6
4506.33
4531.23
4520.8
4556.84
4543.03
4593.79
4573.52
4655.63
4640.62
4623.26
4610.21
4740.7
4720.91
4703.91
4687.35
4671.25
4797.98
4779.14
4758.54
4874.37
4853.51
4833.49
4813.98
4984.9
4950.47
4896.87
4921.75
5183.62
5125.9
5017.94
5065.44
5448.67
5375.17
5305.22
5239.13
5781.04
5692.31
5606.58
5524.1
6080
5979.64
5881.46
6695.35
6575.35
6203.79
6338.16
6455.97
6990
7307.74
7181.59
6865.88
7521.88
8601.65
9079.74
8946.37
8162.83
7759.37
8024.52
8466.46
9591.37
9999.68
9461.03
10425.2
10864.4
12830.3
12598
12893.9
11309.9
11755.9
12191.2
12590.3
4067.09
4083.17
4098.97
4114.24
4128.93
4142.98
4156.41
4169.48
4182.76
4196.86
4212.05
4228.3
4245.3
4262.48
4279.16
4294.89
4309.73
4324.03
4337.97
4351.58
4364.84
4377.67
4389.95
4401.51
4425.4
4417.43
4410.9
4440.77
4432.21
4447.92
4462.57
4455.19
4477.8
4470.11
4493.87
4485.71
4511.26
4502.35
4525.04
4515.25
4549.47
4536.19
4593.48
4582.88
4565.74
4652.57
4637.52
4619.17
4605.94
4738.32
4717.81
4700.89
4684.35
4668.22
4795.06
4776.64
4756.02
4869.31
4849.14
4829.58
4810.55
4976.99
4942.91
4890.89
4914.89
5176.99
5118.81
5010.62
5058.22
5445.21
5370.09
5298.95
5232.07
5786.08
5693.91
5605.15
5520.09
6096.18
5990.66
5887.76
6739.4
6606.75
6222.91
6358.72
6478.77
7050.68
7390.57
7249.39
6915.09
7620.23
8804.62
9323.53
9177.98
8321.88
7874.09
8166
8652.33
9869.41
10297.5
9730.13
10741.3
11194
13195
12940.2
13347.9
11648.8
12102.4
12543.6
12965.5
4073.25
4088.99
4104.44
4119.33
4133.63
4147.33
4160.58
4173.81
4187.52
4202.09
4217.56
4233.78
4250.33
4266.6
4282.19
4297.01
4311.28
4325.15
4338.66
4351.83
4364.6
4376.89
4388.6
4399.65
4424.02
4416.14
4409.72
4439.09
4430.66
4446.04
4460.17
4453.06
4474.73
4467.39
4489.96
4482.24
4506.31
4497.94
4517.79
4508.94
4540.3
4527.97
4588.91
4578.24
4562.72
4554.27
4648.28
4633.35
4613.94
4600.92
4735.16
4713.31
4696.42
4679.92
4663.84
4792.04
4773.91
4752.8
4864.22
4844.55
4825.43
4806.82
4969.65
4935.8
4885.04
4908.29
5169.64
5111.56
5003.61
5050.83
5439.15
5362.56
5290.49
5223.23
5788.29
5692.57
5600.65
5512.81
6105.5
5993.2
5887.89
6782.5
6658.17
6244.75
6360.87
6476.59
7110.25
7477.76
7333.1
6980.63
7718.63
9020.86
9581.93
9422.52
8488.59
8001.02
8316.43
8848.97
10160.4
10608.5
10013
11069.2
11533.4
15183.1
13423
14268
12000
12465.9
12933.6
13437.7
4079.21
4094.62
4109.7
4124.19
4138.11
4151.56
4164.85
4178.36
4192.44
4207.26
4222.77
4238.66
4254.47
4269.85
4284.58
4298.79
4312.59
4326.02
4339.09
4351.8
4364.09
4375.88
4387.11
4397.72
4408.59
4422.58
4414.84
4437.35
4429.06
4444.09
4457.7
4450.86
4471.56
4464.59
4485.83
4478.63
4500.85
4493.2
4509.89
4502.17
4535.74
4549.02
4529.44
4518.8
4583.19
4572.57
4557.12
4642.55
4627.86
4607.49
4594.85
4730.59
4706.94
4690.16
4673.78
4657.89
4788.59
4770.6
4748.2
4858.71
4839.32
4820.5
4802.14
4962.84
4929.05
4879.05
4901.77
5160.98
5103.52
4995.63
5041.84
5429.67
5351.55
5278.62
5211.1
5786.26
5688.28
5593.85
5503.5
6139.76
5982.73
5880.06
6795.77
6638.53
6254.04
6357.1
6472.48
7131.67
7577.21
7315.36
6962.47
7763.97
9254.16
9853.29
9678.83
8665.14
7988.16
8308.8
9058.29
10464.9
10933.5
10309.2
11408
11886
17403
14139
15472.6
12367.4
12858.1
13385.2
14032.9
4085.07
4100.17
4114.87
4128.96
4142.57
4155.92
4169.31
4183.04
4197.34
4212.22
4227.48
4242.82
4257.9
4272.48
4286.6
4300.3
4313.65
4326.64
4339.27
4351.53
4363.37
4374.72
4385.53
4399.24
4407.41
4406.31
4393.32
4421.13
4413.56
4435.56
4427.44
4442.08
4455.16
4448.61
4468.32
4461.73
4481.58
4474.93
4495.09
4488.28
4501.86
4495.35
4542.93
4530.07
4524.32
4509.4
4576.55
4566.34
4550.76
4635.31
4621.02
4599.89
4587.75
4724.11
4698.47
4681.96
4665.88
4650.31
4784
4766.01
4741.64
4851.97
4832.67
4814.02
4795.71
4955.57
4922.03
4872.2
4894.76
5149.45
5093.29
4984.5
5029.23
5418.45
5339.23
5266
5198.74
5780.22
5682.87
5588.22
5497.26
6122.65
5979.12
5876.59
6791.98
6633.97
6251.02
6353.88
6469.05
7127.63
7563.49
7310.78
6957.78
7759.91
9497.64
10137.3
9945.36
8662.04
7983.58
8304.15
9060.63
10784.5
11270.1
10619.9
11759.4
12253.9
19684.2
14962.5
16660.1
12756.7
13290.3
13905.6
14692.9
4090.98
4105.73
4120.01
4133.74
4147.11
4160.41
4173.89
4187.77
4202.1
4216.8
4231.66
4246.39
4260.75
4274.72
4288.31
4301.55
4314.45
4327
4339.21
4351.05
4362.48
4373.45
4383.91
4405.16
4398.23
4412.31
4392.39
4419.7
4433.74
4425.83
4440.04
4452.6
4446.33
4465.05
4458.85
4477.31
4471.21
4489.31
4483.34
4494.07
4488.8
4536.62
4524.21
4518.86
4500.73
4513.58
4504.33
4569.14
4559.47
4543.9
4626.67
4612.89
4591.3
4579.76
4715.41
4687.89
4671.84
4656.26
4641.16
4777.53
4759.48
4732.8
4842.98
4823.66
4805.05
4786.75
4945.84
4913.25
4863.35
4886.01
5136.49
5079.35
4970.43
5012.62
5411.87
5332.74
5259.96