/*--------------------------------*- C++ -*----------------------------------*\
  =========                 |
  \\      /  F ield         | OpenFOAM: The Open Source CFD Toolbox
   \\    /   O peration     | Website:  https://openfoam.org
    \\  /    A nd           | Version:  dev
     \\/     M anipulation  |
\*---------------------------------------------------------------------------*/
FoamFile
{
    version     2.0;
    format      ascii;
    class       volScalarField;
    location    "2500";
    object      H2O;
}
// * * * * * * * * * * * * * * * * * * * * * * * * * * * * * * * * * * * * * //

dimensions      [0 0 0 0 0 0 0];

internalField   nonuniform List<scalar> 
9978
(
4.91111e-25
1.85325e-24
1.12794e-24
2.6868e-24
3.97096e-24
1.09175e-24
5.1803e-24
8.51429e-24
4.60171e-24
4.47047e-25
6.67895e-24
1.29424e-23
1.15602e-23
3.77518e-24
4.40495e-25
8.04385e-24
1.70846e-23
2.40228e-23
1.10776e-23
2.85832e-24
1.39925e-25
9.34286e-24
2.4457e-23
4.09713e-23
2.30343e-23
8.56382e-24
1.33341e-24
8.5715e-26
5.05649e-24
4.35888e-23
6.48111e-23
4.92114e-23
2.22063e-23
5.36767e-24
6.71709e-25
3.91982e-26
5.3203e-24
5.15781e-23
9.33679e-23
7.40267e-23
4.58851e-23
1.60893e-23
2.78359e-24
3.21927e-25
6.14084e-27
6.16539e-24
6.39739e-23
1.29496e-22
1.30506e-22
7.80715e-23
3.03392e-23
9.20251e-24
1.56576e-24
1.31557e-25
3.00029e-27
8.83007e-24
7.57787e-23
1.613e-22
1.81625e-22
1.42594e-22
7.38547e-23
2.4608e-23
5.23051e-24
6.34061e-25
2.40151e-26
9.24397e-28
2.65929e-23
8.80229e-23
1.74626e-22
2.44717e-22
2.19172e-22
1.30707e-22
5.38886e-23
1.62065e-23
2.4305e-24
2.02736e-25
6.32257e-27
1.40049e-28
5.64933e-23
1.11916e-22
1.95548e-22
3.2407e-22
3.23854e-22
2.12841e-22
1.09362e-22
3.36139e-23
9.54103e-24
6.28002e-25
6.85615e-26
3.33802e-27
6.22521e-29
1.24844e-22
1.978e-22
3.70016e-22
4.7918e-22
4.65924e-22
3.18186e-22
1.92441e-22
7.61103e-23
2.40444e-23
3.47811e-24
2.23552e-25
1.97607e-26
1.12539e-27
9.33898e-29
1.60699e-22
5.18917e-22
6.81733e-22
7.57379e-22
6.54666e-22
5.23036e-22
2.94159e-22
1.50592e-22
5.55106e-23
1.26968e-23
1.81708e-24
1.2165e-25
1.0615e-26
1.96799e-27
1.03787e-27
2.98625e-22
1.69275e-21
1.75076e-21
1.52586e-21
1.03855e-21
7.314e-22
5.12241e-22
2.60346e-22
1.03325e-22
2.91599e-23
6.38418e-24
6.29036e-25
5.52992e-26
1.69361e-26
2.88087e-26
1.09912e-26
1.80649e-21
3.22575e-21
4.55987e-21
3.45208e-21
1.93298e-21
1.23172e-21
7.41152e-22
4.42545e-22
2.06649e-22
5.98633e-23
1.74424e-23
2.90943e-24
3.67472e-25
1.32264e-25
2.28808e-25
1.69861e-25
7.33982e-26
4.55359e-21
1.38727e-20
1.34982e-20
7.45524e-21
4.34715e-21
2.41709e-21
1.25753e-21
7.1189e-22
3.57808e-22
1.52728e-22
3.4911e-23
8.64866e-24
1.77483e-24
9.01382e-25
1.02896e-24
2.19059e-24
2.02139e-24
7.21369e-25
3.07937e-20
5.57124e-20
3.15883e-20
2.66221e-20
1.20675e-20
4.59267e-21
2.53651e-21
1.18926e-21
6.36146e-22
2.81896e-22
7.04046e-23
2.02559e-23
6.98453e-24
4.92041e-24
7.31103e-24
1.17489e-23
1.74419e-23
1.796e-23
1.02774e-23
2.40452e-19
2.32106e-19
1.89309e-19
7.66178e-20
4.41772e-20
1.65875e-20
5.46916e-21
2.42799e-21
1.0436e-21
5.24859e-22
1.94822e-22
3.86982e-23
2.60707e-23
2.8586e-23
6.6539e-23
7.14298e-23
1.2012e-22
8.63124e-23
1.44004e-22
5.18928e-23
1.47191e-18
1.3574e-18
1.04459e-18
3.22837e-19
1.51835e-19
5.00523e-20
1.47842e-20
5.75084e-21
2.21284e-21
9.49261e-22
3.88901e-22
1.4626e-22
9.20545e-23
1.31413e-22
2.5218e-22
6.71997e-22
5.88868e-22
7.93106e-22
9.91367e-22
1.40028e-21
6.19144e-22
6.2596e-18
1.01395e-17
5.0964e-18
2.21238e-18
7.92351e-19
2.08605e-19
5.61521e-20
1.61165e-20
5.24411e-21
1.89431e-21
8.02987e-22
3.86562e-22
2.6136e-22
5.18004e-22
1.0322e-21
3.06854e-21
5.46065e-21
6.36313e-21
6.16315e-21
1.14464e-20
7.8534e-21
1.77176e-21
3.67538e-17
5.36565e-17
2.89727e-17
1.32761e-17
5.21052e-18
1.20064e-18
1.94849e-19
5.57124e-20
1.56645e-20
4.93445e-21
2.01283e-21
1.29104e-21
1.21413e-21
2.41475e-21
4.77518e-21
1.2952e-20
2.38275e-20
4.14114e-20
4.37096e-20
8.53789e-20
6.30472e-20
4.02043e-20
2.37698e-20
1.79728e-16
1.62488e-16
1.73897e-16
9.51578e-17
2.84908e-17
6.57507e-18
1.05242e-18
2.09324e-19
5.2457e-20
1.47729e-20
5.66415e-21
4.33544e-21
6.15479e-21
1.17635e-20
2.53687e-20
4.21511e-20
1.18471e-19
1.86689e-19
3.94046e-19
5.88766e-19
5.96542e-19
3.44018e-19
2.98884e-19
1.82068e-19
7.91866e-16
8.11724e-16
6.64231e-16
4.17402e-16
1.53967e-16
3.40743e-17
6.58303e-18
1.06948e-18
1.84315e-19
5.37512e-20
1.75156e-20
1.54905e-20
2.23228e-20
5.69704e-20
8.65212e-20
2.80326e-19
5.89028e-19
1.26515e-18
2.84293e-18
4.51407e-18
4.69161e-18
5.9062e-18
3.77163e-18
4.54605e-18
9.68636e-19
2.18949e-15
4.70151e-15
3.07669e-15
1.82357e-15
6.43866e-16
2.14478e-16
3.36312e-17
5.15671e-18
9.33883e-19
2.37374e-19
8.30918e-20
4.48519e-20
6.56751e-20
2.07609e-19
5.21343e-19
9.32909e-19
3.2709e-18
7.37623e-18
1.26446e-17
3.0548e-17
4.13282e-17
5.08965e-17
5.40637e-17
4.64826e-17
3.34573e-17
1.19778e-17
1.00217e-14
2.73425e-14
1.96352e-14
9.01166e-15
3.73156e-15
9.37839e-16
1.96617e-16
3.26081e-17
4.59385e-18
1.04311e-18
4.4321e-19
2.36797e-19
3.25188e-19
5.33474e-19
1.81808e-18
5.9172e-18
1.38771e-17
4.43755e-17
7.78661e-17
1.95409e-16
2.81859e-16
3.49193e-16
3.31376e-16
3.95917e-16
2.38615e-16
2.62357e-16
1.26255e-16
3.43061e-15
1.19596e-13
1.01453e-13
5.53079e-14
2.40448e-14
5.54382e-15
8.87457e-16
1.66969e-16
2.20259e-17
4.59904e-18
1.92736e-18
1.27249e-18
1.33043e-18
2.43408e-18
8.00982e-18
2.78022e-17
8.61444e-17
2.53899e-16
5.14112e-16
8.97917e-16
2.11934e-15
2.34329e-15
2.78385e-15
3.30062e-15
2.71629e-15
2.30488e-15
1.37039e-15
5.00956e-16
7.35599e-16
5.26142e-14
3.88483e-13
2.26627e-13
1.26852e-13
3.37262e-14
5.29869e-15
7.6869e-16
1.2638e-16
1.95316e-17
7.45669e-18
4.58773e-18
5.12222e-18
9.14823e-18
2.48399e-17
1.29308e-16
4.5633e-16
1.14224e-15
3.22483e-15
7.353e-15
1.26605e-14
2.01929e-14
2.64391e-14
3.09444e-14
3.09502e-14
2.65171e-14
1.94319e-14
1.06485e-14
2.4907e-15
2.79658e-16
1.21153e-14
2.35851e-13
7.32155e-13
3.80939e-13
1.94605e-13
3.24403e-14
4.25514e-15
4.95152e-16
9.38485e-17
2.38022e-17
1.5136e-17
1.32847e-17
3.6622e-17
1.38206e-16
5.64167e-16
2.27349e-15
7.5767e-15
2.16636e-14
5.09217e-14
1.02302e-13
1.71301e-13
2.35463e-13
2.93351e-13
3.15286e-13
2.95717e-13
2.37085e-13
1.56069e-13
7.59578e-14
1.44928e-14
1.04053e-16
2.36581e-15
7.19989e-14
6.62747e-13
1.16533e-12
4.81524e-13
2.01499e-13
2.6739e-14
2.62261e-15
3.02335e-16
1.10995e-16
8.02175e-17
6.60827e-17
1.11962e-16
5.23615e-16
2.8057e-15
1.37016e-14
5.25203e-14
1.5887e-13
3.84067e-13
7.91052e-13
1.41008e-12
1.95904e-12
2.52382e-12
2.86375e-12
2.88237e-12
2.54554e-12
1.88444e-12
1.09608e-12
4.60519e-13
7.49399e-14
5.33885e-17
1.0186e-15
1.71237e-14
2.95733e-13
1.30851e-12
1.29845e-12
4.89322e-13
1.60952e-13
1.5019e-14
1.19667e-15
3.01707e-16
2.94415e-16
2.01917e-16
3.97313e-16
2.2627e-15
1.41617e-14
8.02654e-14
3.51052e-13
1.13806e-12
2.84792e-12
5.87491e-12
1.06728e-11
1.53167e-11
2.00449e-11
2.327e-11
2.46393e-11
2.35813e-11
1.95305e-11
1.29186e-11
6.47337e-12
2.29475e-12
3.12664e-13
1.90889e-17
4.31064e-16
4.30749e-15
8.30069e-14
8.86712e-13
2.05616e-12
1.21466e-12
4.89742e-13
8.46949e-14
6.43761e-15
1.07317e-15
7.56075e-16
7.9957e-16
1.59218e-15
9.32618e-15
6.89548e-14
4.31688e-13
2.13011e-12
7.7083e-12
2.04031e-11
4.24826e-11
7.67606e-11
1.10664e-10
1.48854e-10
1.73532e-10
1.8685e-10
1.89285e-10
1.74545e-10
1.30545e-10
7.44615e-11
3.12622e-11
8.95524e-12
9.09363e-13
6.09689e-17
4.40152e-16
1.85098e-15
2.21116e-14
3.27252e-13
1.8866e-12
2.35035e-12
1.01864e-12
4.13535e-13
3.46248e-14
4.08768e-15
2.40926e-15
4.31947e-15
5.84046e-15
3.67861e-14
3.08499e-13
2.17478e-12
1.17961e-11
4.74061e-11
1.36822e-10
2.96952e-10
5.33555e-10
7.58049e-10
1.01754e-09
1.20102e-09
1.28887e-09
1.33324e-09
1.33415e-09
1.14613e-09
7.44908e-10
3.53544e-10
1.18912e-10
2.23615e-11
0
6.73484e-17
4.15031e-16
1.31404e-15
9.55751e-15
1.03083e-13
1.04206e-12
2.89272e-12
2.11972e-12
7.74282e-13
1.70552e-13
1.78793e-14
7.86806e-15
1.29156e-14
2.15189e-14
1.27712e-13
1.22982e-12
9.99036e-12
6.07593e-11
2.65052e-10
8.33067e-10
1.91611e-09
3.5687e-09
5.01171e-09
6.55028e-09
7.60639e-09
8.14756e-09
8.4096e-09
8.75216e-09
8.56407e-09
6.60565e-09
3.61453e-09
1.32882e-09
2.93088e-10
8.61505e-12
4.65211e-11
4.8089e-13
2.09554e-11
9.21874e-12
2.87643e-17
4.10438e-16
1.49826e-15
6.07759e-15
4.45476e-14
4.24725e-13
2.5671e-12
3.30572e-12
1.42214e-12
6.27955e-13
7.70281e-14
2.76021e-14
3.88143e-14
7.97193e-14
3.99935e-13
4.26836e-12
4.06868e-11
2.85391e-10
1.37471e-09
4.57799e-09
1.1194e-08
2.18924e-08
3.19219e-08
4.04173e-08
4.49369e-08
4.65909e-08
4.76948e-08
5.03014e-08
5.4795e-08
5.14196e-08
3.44655e-08
1.46803e-08
2.47714e-09
2.58332e-10
1.54488e-09
1.44046e-10
1.67205e-12
7.81421e-11
3.24673e-11
1.36223e-16
4.22984e-16
1.87199e-15
6.1816e-15
3.0421e-14
1.92229e-13
1.53436e-12
3.71779e-12
2.99399e-12
1.08354e-12
3.09e-13
1.00775e-13
1.17606e-13
2.98342e-13
9.53194e-13
1.28677e-11
1.45485e-10
1.19967e-09
6.44201e-09
2.28487e-08
5.86161e-08
1.21005e-07
1.86132e-07
2.38088e-07
2.52558e-07
2.46249e-07
2.40082e-07
2.55587e-07
3.05493e-07
3.56884e-07
3.07639e-07
1.62205e-07
1.8983e-08
6.34517e-08
7.90092e-09
4.33979e-08
4.11763e-08
9.49996e-10
5.67945e-09
5.68681e-10
6.2229e-12
2.97594e-10
1.21866e-10
2.67965e-16
8.72736e-16
3.32359e-15
8.57411e-15
3.05533e-14
1.41869e-13
7.69964e-13
3.26264e-12
4.04356e-12
2.16444e-12
1.2609e-12
3.85919e-13
3.66129e-13
7.06571e-13
1.98303e-12
2.68317e-11
4.37995e-10
4.51353e-09
2.83084e-08
9.76624e-08
2.68697e-07
5.86681e-07
9.70514e-07
1.27589e-06
1.34537e-06
1.22913e-06
1.10571e-06
1.13984e-06
1.50024e-06
2.17872e-06
2.61257e-06
1.81136e-06
2.22047e-07
8.37855e-07
1.90247e-07
3.06032e-08
1.81877e-07
1.49153e-07
3.72819e-09
2.18821e-08
2.20049e-09
2.25985e-11
1.12027e-09
4.42558e-10
7.37036e-16
2.19374e-15
5.20436e-15
1.44716e-14
4.32741e-14
1.53674e-13
6.56762e-13
2.50019e-12
5.09559e-12
4.08551e-12
2.86772e-12
1.66424e-12
1.21747e-12
1.85685e-12
5.85862e-12
4.36545e-11
9.07272e-10
1.38051e-08
1.00375e-07
3.57038e-07
1.09942e-06
2.52043e-06
4.45876e-06
6.10686e-06
6.53153e-06
5.78604e-06
4.76819e-06
4.60078e-06
6.4177e-06
1.1341e-05
1.7804e-05
1.98546e-05
2.98546e-06
1.16528e-05
7.87477e-07
3.06573e-06
7.56775e-07
1.1439e-07
6.65768e-07
5.40431e-07
1.41975e-08
8.12445e-08
8.21053e-09
7.84736e-11
4.05153e-09
1.53478e-09
6.76691e-15
1.20352e-14
1.21274e-14
2.72903e-14
8.10115e-14
2.54667e-13
8.68865e-13
2.97043e-12
6.60868e-12
7.80127e-12
5.82773e-12
8.42139e-12
4.54649e-12
5.29645e-12
1.16043e-11
6.08451e-11
1.38671e-09
2.92802e-08
2.77314e-07
1.08323e-06
3.73939e-06
9.34777e-06
1.76095e-05
2.56123e-05
2.82317e-05
2.47531e-05
1.92503e-05
1.69557e-05
2.35104e-05
4.57837e-05
8.38785e-05
0.000123719
4.24817e-05
0.000138214
1.19362e-05
4.62074e-05
3.04542e-06
1.20947e-05
2.77714e-06
4.10063e-07
2.35614e-06
1.87343e-06
5.16813e-08
2.85868e-07
2.92623e-08
2.59895e-10
1.39846e-08
5.09519e-09
6.17476e-14
1.02636e-13
6.06358e-14
6.50597e-14
1.82715e-13
6.04833e-13
1.94422e-12
5.58296e-12
1.41977e-11
1.75919e-11
1.61569e-11
1.99354e-11
1.9962e-11
1.65448e-11
2.56505e-11
8.65945e-11
1.64453e-09
4.55085e-08
5.3647e-07
2.55896e-06
1.02615e-05
2.79282e-05
5.64845e-05
8.69729e-05
0.000101934
9.0364e-05
6.85151e-05
5.65685e-05
7.29513e-05
0.000134793
0.00025379
0.000395048
0.000299451
0.000523168
0.000146687
0.000342238
4.73354e-05
0.000153829
1.13597e-05
4.51806e-05
9.84371e-06
1.39655e-06
8.08819e-06
6.28e-06
1.79232e-07
9.55753e-07
9.93272e-08
8.32185e-10
4.63524e-08
1.63482e-08
5.2768e-13
8.79722e-13
4.57333e-13
2.47224e-13
5.00646e-13
1.78568e-12
5.87285e-12
1.61997e-11
3.32522e-11
5.08286e-11
5.14941e-11
5.10934e-11
1.05284e-10
5.90219e-11
6.35472e-11
1.8168e-10
1.68728e-09
5.16669e-08
7.56829e-07
4.54607e-06
2.1415e-05
6.41854e-05
0.000135481
0.000216768
0.000268418
0.000261274
0.000204238
0.000159493
0.000185789
0.000313377
0.000530203
0.000777426
0.000719242
0.000955493
0.000564558
0.000796165
0.000361713
0.000599312
0.000149801
0.000367688
4.02029e-05
0.000138207
3.35684e-05
4.5921e-06
2.6817e-05
2.04355e-05
5.9382e-07
3.08962e-06
3.2463e-07
2.60383e-09
1.48563e-07
5.09993e-08
4.00798e-12
6.8759e-12
3.6212e-12
1.43143e-12
1.6773e-12
5.98781e-12
2.03177e-11
5.47414e-11
1.11624e-10
1.65795e-10
1.7983e-10
1.66786e-10
2.35724e-10
2.41813e-10
1.87751e-10
2.70737e-10
1.55124e-09
4.89846e-08
8.36096e-07
6.49e-06
3.53917e-05
0.000113971
0.00024531
0.000383407
0.000473949
0.000482328
0.000418776
0.000352821
0.000376355
0.00054064
0.000811685
0.00112256
0.00113782
0.00133994
0.00102542
0.00123913
0.000845062
0.00108696
0.000618594
0.000878974
0.00035972
0.000624771
0.000121483
0.000339347
0.00010209
1.47362e-05
8.22718e-05
6.33936e-05
1.90796e-06
9.86056e-06
1.03058e-06
7.95898e-09
4.62544e-07
1.54832e-07
2.65685e-11
4.7256e-11
2.70504e-11
9.62784e-12
6.734e-12
2.11454e-11
7.40392e-11
1.96482e-10
3.92994e-10
5.83583e-10
6.54761e-10
5.99142e-10
5.94378e-10
1.1173e-09
6.34479e-10
6.54934e-10
1.57388e-09
3.59778e-08
8.56889e-07
7.62829e-06
4.80358e-05
0.000168281
0.000370978
0.00057477
0.000701756
0.000725304
0.000655165
0.000570647
0.000593935
0.000786861
0.0011
0.00142411
0.00147394
0.00160189
0.0014289
0.00158263
0.00131227
0.00150883
0.00113249
0.00136748
0.000899283
0.00116579
0.000619629
0.000909418
0.00030672
0.00060392
0.00026543
4.60732e-05
0.000218179
0.000174316
6.04408e-06
3.0995e-05
3.21028e-06
2.36699e-08
1.40063e-06
4.58703e-07
1.50293e-10
2.81395e-10
1.73821e-10
6.30318e-11
3.08092e-11
7.51159e-11
2.66002e-10
7.10557e-10
1.39616e-09
2.0766e-09
2.39765e-09
2.23904e-09
1.92424e-09
2.80514e-09
2.41251e-09
1.81897e-09
3.47576e-09
2.18845e-08
7.83743e-07
7.67948e-06
5.5323e-05
0.000213615
0.000491183
0.000777828
0.000953411
0.00099331
0.000923726
0.000824483
0.000827742
0.00103045
0.001322
0.00154671
0.00166331
0.00168625
0.00169405
0.00175712
0.00166791
0.00178218
0.00157259
0.0017391
0.00141017
0.00162359
0.00118944
0.00144564
0.00091136
0.00120722
0.000576106
0.000905456
0.000539826
0.000132905
0.0004898
0.000423836
1.88825e-05
9.28607e-05
9.84393e-06
6.27974e-08
4.18768e-06
1.23524e-06
7.11144e-10
1.43119e-09
9.64406e-10
3.8325e-10
1.48356e-10
2.60371e-10
9.10809e-10
2.45495e-09
4.85767e-09
7.29032e-09
8.64046e-09
8.33283e-09
6.93808e-09
6.18242e-09
9.35225e-09
5.80343e-09
5.72619e-09
1.58633e-08
4.92448e-07
7.10469e-06
5.60497e-05
0.000239476
0.000587371
0.000957164
0.00121735
0.001306
0.0012539
0.00115087
0.00113692
0.00128476
0.00143357
0.00153217
0.0016706
0.00162509
0.00177085
0.00174136
0.00184668
0.00185649
0.00186245
0.00193652
0.00180032
0.00193637
0.00166857
0.0018555
0.00147709
0.00171282
0.00122117
0.00150818
0.000891038
0.00123176
0.000869723
0.000339072
0.000837367
0.000785545
5.72581e-05
0.000243306
2.95483e-05
1.40773e-07
1.18763e-05
3.10361e-06
2.79822e-09
6.14776e-09
4.57407e-09
1.98313e-09
6.92308e-10
8.53241e-10
2.90705e-09
7.93356e-09
1.59719e-08
2.47216e-08
3.02094e-08
3.01358e-08
2.54968e-08
1.97376e-08
2.69885e-08
2.05841e-08
1.41186e-08
1.69571e-08
2.36964e-07
5.35197e-06
5.3076e-05
0.000243345
0.000642816
0.00110589
0.00142951
0.00154979
0.00155064
0.00149394
0.00146199
0.00148562
0.00150405
0.00152142
0.00151181
0.00167664
0.00157721
0.0018291
0.00174653
0.00195601
0.00193595
0.00202783
0.00206599
0.00200603
0.00211764
0.00191114
0.00207445
0.00175888
0.00197144
0.00154053
0.00180945
0.00123898
0.00157377
0.0012398
0.000697224
0.00122985
0.00119494
0.00015818
0.000557665
8.40045e-05
2.01147e-07
3.29875e-05
7.45398e-06
8.70621e-09
2.25586e-08
1.84125e-08
8.90304e-09
3.034e-09
2.58659e-09
8.41421e-09
2.36134e-08
4.89766e-08
7.8906e-08
1.00864e-07
1.04626e-07
9.11667e-08
6.95029e-08
5.34744e-08
7.79377e-08
4.65212e-08
3.01207e-08
1.19473e-07
3.13155e-06
4.40167e-05
0.000235915
0.0006517
0.00118178
0.00152728
0.00166142
0.00169215
0.00167284
0.00163749
0.00160719
0.00158529
0.00151629
0.00136986
0.00134293
0.00119002
0.00162165
0.00148006
0.00185636
0.00171141
0.00205942
0.00200505
0.00218337
0.00219608
0.0022049
0.00229868
0.00214722
0.00229184
0.00203699
0.00222619
0.00186424
0.00210745
0.00160604
0.0019179
0.00162922
0.00111401
0.00163884
0.00161604
0.000378312
0.000980506
0.000210802
4.38457e-07
8.68045e-05
1.8566e-05
2.63481e-08
6.26255e-08
6.8828e-08
3.56431e-08
1.18915e-08
7.30536e-09
2.16865e-08
6.39877e-08
1.38961e-07
2.34782e-07
3.16455e-07
3.44878e-07
3.1193e-07
2.42824e-07
1.67735e-07
1.75553e-07
1.62141e-07
1.07325e-07
1.06255e-07
1.55092e-06
2.83105e-05
0.000207565
0.000639669
0.00119418
0.00153483
0.00167093
0.00171846
0.00172392
0.00170518
0.00166884
0.00160359
0.00148506
0.0012375
0.00106917
0.000935349
0.00116461
0.000988708
0.00153589
0.00134948
0.0018685
0.00168221
0.00217054
0.002074
0.00234444
0.00234305
0.00240783
0.00248782
0.00238149
0.00251106
0.00230692
0.00247001
0.00217681
0.00238113
0.00196901
0.00223255
0.00200187
0.00154347
0.00200165
0.00196533
0.000756402
0.00140405
0.000460311
8.58609e-07
0.000194015
3.89358e-05
6.13918e-08
1.71553e-07
1.58959e-07
1.36875e-07
4.28874e-08
1.96869e-08
4.92999e-08
1.56109e-07
3.61041e-07
6.46714e-07
9.24934e-07
1.06783e-06
1.01212e-06
8.14118e-07
5.71538e-07
3.71924e-07
4.9223e-07
2.84247e-07
1.57703e-07
7.58204e-07
1.53221e-05
0.00015207
0.000588908
0.00116264
0.00149561
0.00164066
0.00169045
0.00169012
0.001669
0.00162969
0.00154892
0.00138229
0.00107901
0.000831748
0.000716897
0.000822419
0.000665057
0.00104256
0.000845195
0.00146886
0.00125174
0.0018944
0.00167882
0.00229707
0.00216162
0.00251772
0.00250589
0.00261455
0.00267989
0.00260437
0.00271984
0.00254233
0.00267434
0.00242046
0.00256276
0.002249
0.00241334
0.00223243
0.00189168
0.00218724
0.00212703
0.00118399
0.00176821
0.000821293
1.30877e-06
0.000352299
6.31906e-05
3.64537e-07
4.13414e-07
3.12797e-07
1.33081e-07
4.47368e-08
9.96055e-08
3.37577e-07
8.51671e-07
1.63346e-06
2.4997e-06
3.07932e-06
3.08522e-06
2.5881e-06
1.8766e-06
1.20152e-06
8.43611e-07
7.894e-07
3.52473e-07
5.69497e-07
7.57003e-06
9.65249e-05
0.000475036
0.00107266
0.00138295
0.00153948
0.00157214
0.00152801
0.0014756
0.00142694
0.00133741
0.0011441
0.000778965
0.000359063
0.000519061
0.000364227
0.000658762
0.000482981
0.00100729
0.000805875
0.00144925
0.00122225
0.0019539
0.00171716
0.00243909
0.00227372
0.00269465
0.00266799
0.00280636
0.00284107
0.00278555
0.00287095
0.00268297
0.00278725
0.00253612
0.00264251
0.00236879
0.00247534
0.00231022
0.00205718
0.00223136
0.00214786
0.00154931
0.00196574
0.00118092
3.21288e-06
0.000534043
0.000121888
8.64047e-07
6.16703e-07
3.63208e-07
1.12755e-07
1.8215e-07
6.52717e-07
1.78614e-06
3.75173e-06
6.18745e-06
8.20602e-06
8.77835e-06
7.75665e-06
5.85062e-06
3.89234e-06
2.2691e-06
1.54193e-06
8.83828e-07
7.08249e-07
4.2289e-06
5.22251e-05
0.000346298
0.000932697
0.00125113
0.0013738
0.00130946
0.00113783
0.000969631
0.000871177
0.000796769
0.000635487
0.000404674
0.000186961
0.000141534
6.51871e-05
0.000327513
0.000201632
0.000615391
0.000435303
0.00103799
0.000838333
0.00147763
0.00125028
0.00205337
0.00181536
0.002563
0.00236773
0.00282337
0.0027504
0.00291216
0.00290357
0.00287121
0.00292367
0.00274094
0.00282754
0.00257062
0.00266423
0.00238874
0.00245838
0.00226808
0.00207478
0.00213312
0.00200598
0.00180818
0.00201384
0.0014984
2.33894e-05
0.000888253
0.000346285
1.40282e-06
8.85656e-07
2.55741e-07
3.14043e-07
1.13523e-06
3.36545e-06
7.63952e-06
1.38576e-05
2.00247e-05
2.31607e-05
2.18696e-05
1.73842e-05
1.20257e-05
7.1522e-06
3.93482e-06
2.26912e-06
1.39485e-06
2.57091e-06
2.4367e-05
0.000222016
0.000759797
0.00112869
0.00122687
0.00105922
0.000768142
0.000523927
0.000389484
0.000316775
0.000248451
0.000158651
7.13642e-05
2.36628e-05
8.07655e-05
3.77139e-05
0.000275918
0.000153941
0.000643239
0.00045111
0.00116178
0.000952754
0.00158416
0.00136798
0.00213716
0.00189658
0.00259623
0.00238446
0.00285253
0.00272814
0.00292489
0.00287183
0.00288649
0.00288858
0.00274941
0.00280299
0.00253938
0.00262382
0.00230516
0.00237696
0.00212921
0.00191563
0.00194092
0.00180951
0.00186459
0.00194934
0.00195932
0.00187533
0.0018167
0.000360339
0.0015289
0.00123701
1.56943e-06
5.8799e-07
4.70234e-07
1.80605e-06
5.69913e-06
1.39866e-05
2.73174e-05
4.35767e-05
5.57023e-05
5.72184e-05
4.88949e-05
3.53899e-05
2.16928e-05
1.16417e-05
6.10833e-06
3.29091e-06
2.73194e-06
1.19091e-05
0.000123329
0.000564404
0.00101366
0.00111381
0.000899065
0.000562867
0.000353692
0.000213369
0.000123051
7.62788e-05
4.5275e-05
2.06061e-05
7.15544e-06
1.63575e-05
5.76906e-06
7.10888e-05
3.18329e-05
0.000277333
0.000148505
0.000733173
0.000506186
0.00121468
0.000988371
0.0016624
0.00143682
0.00214579
0.00190105
0.00252965
0.00229471
0.00274476
0.0025501
0.00281831
0.00267039
0.00279408
0.00269913
0.00266789
0.00264131
0.00245343
0.0024779
0.00217676
0.00230693
0.0022743
0.0020003
0.00202469
0.00172293
0.00176256
0.00165993
0.00179464
0.00180766
0.0019119
0.00169821
0.00193587
0.00188091
0.00186607
0.00174257
0.00189138
0.00184709
0.00187012
0.00147883
0.00170835
0.00180508
0.00185872
0.00180275
0.00166298
0.001762
1.36349e-06
7.18309e-07
2.58824e-06
8.83054e-06
2.29703e-05
4.8237e-05
8.22324e-05
0.000115497
0.000134776
0.000128286
9.7308e-05
6.1113e-05
3.35912e-05
1.67895e-05
8.26589e-06
4.54877e-06
8.59794e-06
6.04477e-05
0.000375229
0.00087827
0.00103352
0.000816941
0.000508408
0.000331669
0.000195798
9.17841e-05
3.32081e-05
1.27541e-05
5.06622e-06
1.8408e-06
3.43447e-06
1.64654e-06
1.21009e-05
5.91213e-06
6.79473e-05
2.89016e-05
0.000298726
0.000151353
0.000752238
0.00051069
0.00119378
0.000951772
0.00166198
0.00142812
0.00204566
0.00179393
0.00231645
0.00207505
0.00247596
0.00228194
0.00254127
0.00239636
0.00253709
0.0024133
0.00252337
0.0024882
0.00245347
0.00241547
0.00232951
0.00233594
0.0023907
0.00232002
0.00233171
0.00220107
0.00206256
0.0021002
0.0022314
0.00195496
0.0016086
0.00161512
0.00153447
0.00170172
0.00173287
0.00184293
0.00160179
0.00177284
0.00174615
0.00159747
0.00180338
0.00183071
0.000822485
0.00180961
0.00186337
0.00182645
0.00183988
0.00183632
0.00184918
1.18005e-06
3.32314e-06
1.2163e-05
3.43853e-05
7.59501e-05
0.000137232
0.000202558
0.000249191
0.000257136
0.00022404
0.00015979
9.05933e-05
4.5291e-05
2.13055e-05
1.03137e-05
8.3796e-06
2.96185e-05
0.000220548
0.000699732
0.000963239
0.000813336
0.000528303
0.000373165
0.000246393
0.000122936
3.88278e-05
8.99388e-06
2.12938e-06
6.43155e-07
6.44642e-07
2.69696e-06
1.68372e-06
1.01457e-05
4.9095e-06
5.79916e-05
2.32624e-05
0.000292912
0.000140076
0.000699831
0.000447185
0.00105339
0.000800976
0.0015462
0.00130087
0.00183928
0.00161453
0.00210899
0.00193516
0.00229235
0.00221632
0.00237126
0.0024168
0.00239555
0.00240149
0.00243697
0.00251747
0.00237226
0.00236062
0.00237089
0.00224381
0.00225041
0.00231841
0.00228945
0.00225939
0.00213323
0.00199821
0.00203672
0.00215671
0.00189179
0.00151204
0.00148099
0.00143593
0.0016243
0.00178256
0.00167229
0.00152135
0.00160658
0.00163862
0.00145902
0.00168273
0.00172993
0.00152874
0.00190025
0.00189676
0.00176888
0.00179221
0.00181637
0.00183675
3.8615e-06
1.53541e-05
4.57633e-05
0.000108164
0.000202221
0.000307623
0.000386055
0.0004138
0.00038674
0.000315188
0.00021775
0.000119329
5.44346e-05
2.49141e-05
1.18774e-05
1.94517e-05
0.000116628
0.00050098
0.000873657
0.000828112
0.000581989
0.000463135
0.000360378
0.000228914
8.99852e-05
1.39962e-05
2.36613e-06
4.14859e-07
1.64551e-07
7.75935e-07
3.42616e-07
2.38057e-06
1.5345e-06
9.33297e-06
4.62647e-06
4.42594e-05
1.95715e-05
0.000235017
0.000104149
0.0005528
0.000336702
0.000940971
0.000710327
0.00139418
0.00117094
0.00176174
0.00158424
0.00215371
0.00209706
0.00254129
0.00269665
0.00262446
0.00277265
0.00292275
0.00309649
0.00242068
0.00251629
0.00265691
0.00283487
0.00233819
0.00239583
0.00249844
0.00218005
0.00221798
0.002352
0.00237807
0.00228108
0.00207388
0.0019397
0.00199138
0.00211864
0.00183915
0.00143192
0.00138012
0.00136134
0.00156303
0.00173477
0.00162626
0.00146032
0.00146967
0.00150707
0.00135425
0.00155948
0.00161968
0.00196012
0.00190456
0.00197738
0.00167566
0.00172052
0.00176169
0.00179866
1.73427e-05
5.61015e-05
0.000138673
0.000270593
0.000417306
0.000531445
0.000581497
0.000565703
0.000493563
0.000383858
0.000257014
0.000139243
5.99456e-05
2.45618e-05
1.91491e-05
6.08519e-05
0.000319209
0.000740923
0.000836748
0.000654845
0.000549856
0.000476685
0.000358978
0.000184111
3.15794e-05
4.59596e-06
6.11161e-07
9.74834e-08
1.08228e-07
6.85262e-07
3.07972e-07
2.27715e-06
1.38406e-06
9.96962e-06
4.88899e-06
4.18494e-05
1.97202e-05
0.000181616
8.92035e-05
0.000493943
0.000312506
0.00098385
0.000773058
0.0013972
0.00119575
0.00202466
0.00192185
0.00281793
0.00288846
0.00324481
0.00339549
0.00380416
0.00303997
0.00326014
0.00347372
0.0036677
0.00265177
0.00285401
0.00309379
0.00335494
0.00245274
0.0026068
0.00281959
0.0021852
0.00227842
0.00252255
0.002602
0.00240936
0.00205889
0.0019041
0.00199134
0.00215064
0.00180994
0.00137418
0.00131411
0.00131274
0.00151915
0.00170724
0.00159869
0.00142224
0.00136143
0.00140312
0.0012958
0.00146987
0.00154059
0.00200154
0.00187616
0.00200456
0.00160834
0.00167054
0.00173121
0.0017867
6.28577e-05
0.000164817
0.000331969
0.000523718
0.000672449
0.000745611
0.000738083
0.000670488
0.000557654
0.000418253
0.000271396
0.000143234
5.71507e-05
2.60183e-05
3.90283e-05
0.000184665
0.00057221
0.000818846
0.000720077
0.000628683
0.000581212
0.000481948
0.00029811
7.44899e-05
1.03863e-05
1.30933e-06
1.44835e-07
3.31587e-08
1.27593e-07
5.77887e-08
6.25915e-07
2.68784e-07
2.33205e-06
1.16308e-06
1.22828e-05
6.23961e-06
5.54129e-05
2.71869e-05
0.000182754
0.000102935
0.000578239
0.00041491
0.0013965
0.00117948
0.00178395
0.00160476
0.00288808
0.00281012
0.00387662
0.00380432
0.00382645
0.00391545
0.00427729
0.00434711
0.00361774
0.0038616
0.0040683
0.00422767
0.00307979
0.00337128
0.00367329
0.00396054
0.00273032
0.00299911
0.00331128
0.0022714
0.00244288
0.00286249
0.00299488
0.00268401
0.00210475
0.00190928
0.00203776
0.00225224
0.00181224
0.00134631
0.00128177
0.001298
0.00149858
0.00170883
0.00160465
0.0014133
0.00130859
0.00135365
0.00127918
0.00142493
0.00150371
0.00186453
0.00187671
0.00203398
0.00158378
0.00166291
0.00173541
0.0018139
0.000181835
0.000381952
0.000614533
0.000800608
0.000884743
0.000880393
0.000816739
0.000713289
0.000575888
0.00041783
0.000263427
0.000134869
5.00471e-05
3.75352e-05
0.000105585
0.000399265
0.000743766
0.000751371
0.000694387
0.000667976
0.00059307
0.000425052
0.000164013
2.35187e-05
2.88725e-06
3.03125e-07
3.13797e-08
1.90909e-08
9.61083e-08
4.66207e-08
5.44045e-07
2.28998e-07
2.57197e-06
1.09232e-06
2.0432e-05
8.19512e-06
0.00010577
5.05792e-05
0.000287684
0.000186048
0.000963867
0.000756351
0.00221098
0.00193681
0.0026684
0.00246183
0.00364893
0.00349338
0.00420179
0.00409239
0.00388778
0.00400066
0.00433569
0.0043708
0.00430114
0.00442656
0.00421154
0.00440985
0.00454762
0.0046115
0.00364377
0.00396957
0.00426422
0.00450692
0.00318144
0.00353564
0.00389488
0.00246689
0.00275634
0.00335695
0.00351658
0.00311545
0.00220712
0.00195049
0.00213453
0.00245365
0.00184879
0.00134939
0.00127995
0.00130947
0.0015095
0.00174215
0.00163855
0.00142921
0.00130331
0.00135588
0.00128962
0.00142978
0.00151555
0.00115785
0.00199241
0.00197852
0.00160652
0.00169708
0.00178476
0.00190127
0.000415134
0.000688098
0.00090345
0.000986897
0.000980424
0.000925073
0.000833278
0.00070947
0.000557606
0.000393748
0.000238664
0.000112425
4.64071e-05
6.95974e-05
0.000257302
0.000609387
0.000748802
0.000738287
0.000734193
0.000687021
0.000547131
0.000285698
5.22331e-05
6.36745e-06
6.50202e-07
5.51002e-08
8.12882e-09
2.18224e-08
1.00989e-08
8.06581e-08
3.87749e-08
4.7266e-07
1.95376e-07
3.00915e-06
1.14975e-06
3.60634e-05
1.20014e-05
0.000208613
9.61863e-05
0.000557805
0.000369264
0.0016398
0.00132136
0.00284659
0.0025561
0.0033203
0.00310183
0.00370896
0.00354309
0.00416105
0.00400746
0.00374932
0.00386583
0.00459909
0.00452816
0.00410917
0.00432363
0.00468466
0.0047881
0.00480352
0.00476038
0.00423122
0.00451992
0.00474514
0.00489751
0.00374199
0.00411695
0.00445267
0.00278949
0.00320104
0.00392426
0.00407807
0.00364564
0.00239947
0.00203822
0.00231458
0.00276459
0.00193218
0.00137541
0.00130384
0.00135653
0.00154809
0.00182445
0.0017241
0.00148218
0.00132996
0.00139711
0.00133442
0.00148458
0.00158385
0.000414674
0.00208113
0.00170684
0.00168536
0.00178038
0.00188485
0.00201106
0.000741342
0.000976977
0.0010559
0.00104673
0.000995624
0.000912419
0.000799261
0.00066331
0.000509402
0.000347926
0.000198052
8.00405e-05
6.49383e-05
0.000163867
0.000466419
0.000720897
0.000753632
0.000776931
0.000760893
0.000653759
0.000411122
0.000112319
1.40509e-05
1.39581e-06
1.14075e-07
8.97817e-09
3.69113e-09
1.4515e-08
8.36886e-09
6.12316e-08
2.85271e-08
4.5844e-07
1.5e-07
3.76311e-06
1.30027e-06
5.94048e-05
1.77414e-05
0.000371959
0.000167836
0.00098809
0.000658696
0.00221819
0.00182764
0.0029573
0.0026804
0.00338686
0.00318966
0.00327245
0.00319099
0.00314581
0.00310368
0.00388886
0.00368255
0.00337032
0.00350625
0.00465347
0.00451097
0.00377202
0.00406718
0.00496085
0.00495932
0.00488643
0.00476159
0.00472889
0.00493224
0.00505898
0.00509604
0.00430649
0.00463572
0.00489534
0.00321678
0.00370995
0.00446423
0.00458817
0.00418461
0.00269723
0.00220753
0.00259723
0.00316973
0.00209548
0.00145203
0.00137939
0.00147322
0.00164528
0.00198361
0.00189312
0.001606
0.00140253
0.00149764
0.00145192
0.00160292
0.00170711
0.000347491
0.00209936
0.00140852
0.0018036
0.0018887
0.00198975
0.00211536
0.00102951
0.00109872
0.00108955
0.00103588
0.000940459
0.000830076
0.000711697
0.000581214
0.000437294
0.000286421
0.0001479
7.15854e-05
0.000115401
0.000336637
0.000640845
0.000750662
0.000796518
0.000813243
0.000739671
0.00052888
0.000210538
3.00123e-05
2.99954e-06
2.37056e-07
1.57595e-08
1.76893e-09
3.61055e-09
1.42218e-09
1.03295e-08
5.65075e-09
4.80656e-08
2.03714e-08
4.75522e-07
1.35584e-07
4.98981e-06
1.43013e-06
7.6167e-05
2.04251e-05
0.000540726
0.000234237
0.00139544
0.00094988
0.00234431
0.00194409
0.00263985
0.00240024
0.00307339
0.00302403
0.00280789
0.00281559
0.00276552
0.00274033
0.00273395
0.00348566
0.00323511
0.00290277
0.00303988
0.00457842
0.00434272