/*--------------------------------*- C++ -*----------------------------------*\
  =========                 |
  \\      /  F ield         | OpenFOAM: The Open Source CFD Toolbox
   \\    /   O peration     | Website:  https://openfoam.org
    \\  /    A nd           | Version:  dev
     \\/     M anipulation  |
\*---------------------------------------------------------------------------*/
FoamFile
{
    version     2.0;
    format      ascii;
    class       volScalarField;
    location    "2500";
    object      k;
}
// * * * * * * * * * * * * * * * * * * * * * * * * * * * * * * * * * * * * * //

dimensions      [0 2 -2 0 0 0 0];

internalField   nonuniform List<scalar> 
9978
(
0.000163717
0.000170533
0.000153926
0.000145668
0.000215375
0.000122859
0.000121822
0.000229481
0.000189363
0.000109263
0.000112525
0.000218748
0.000226509
0.000143882
0.000105117
0.000106644
0.000190189
0.00024648
0.000189757
0.000120745
0.000102926
0.000103288
0.000157027
0.000249664
0.00022713
0.000144929
0.000111301
0.000101578
0.000101427
0.000135951
0.000241964
0.000245587
0.000177692
0.000122386
0.000106487
0.00010076
0.000100342
0.000122889
0.000220352
0.000256258
0.00021266
0.000138863
0.000112568
0.000103385
0.000100275
9.96687e-05
0.000114002
0.00019007
0.000258022
0.00023824
0.000162432
0.000120284
0.000107087
0.000101408
0.000100001
9.91644e-05
0.000108478
0.000161138
0.000252917
0.000251386
0.000192078
0.000131128
0.000111369
0.00010346
0.000100239
9.96527e-05
9.88745e-05
0.000105264
0.00014105
0.000238479
0.000258833
0.000220415
0.000149339
0.000116317
0.000106047
0.000101001
9.94447e-05
9.95021e-05
9.87725e-05
0.000103362
0.00012849
0.000212596
0.000262857
0.000241601
0.000172577
0.000124336
0.00010886
0.000102542
9.95619e-05
9.86589e-05
9.94035e-05
9.88094e-05
0.000102359
0.000120283
0.000183712
0.000260044
0.000254621
0.000199774
0.000137245
0.000112418
0.000104326
0.000100053
9.83852e-05
9.82004e-05
9.93282e-05
9.89616e-05
0.000101976
0.000115432
0.000159503
0.000249143
0.000261045
0.000225284
0.000157552
0.000118212
0.000106315
0.000101144
9.84555e-05
9.7352e-05
9.79113e-05
9.9267e-05
9.92346e-05
0.000101924
0.000113263
0.000143548
0.000226009
0.000266592
0.000245117
0.000181257
0.000128486
0.000109027
0.000102425
9.87921e-05
9.71092e-05
9.66774e-05
9.77192e-05
9.92153e-05
9.95585e-05
0.000102082
0.000112154
0.000134267
0.000198012
0.000264925
0.000257911
0.000207788
0.000144802
0.00011334
0.000103939
9.95459e-05
9.7159e-05
9.60062e-05
9.62142e-05
9.75803e-05
9.91744e-05
9.98607e-05
0.000102388
0.000111289
0.000129203
0.000172658
0.00025602
0.000266244
0.000231705
0.000167325
0.000121695
0.000105942
0.000100498
9.74028e-05
9.58429e-05
9.51789e-05
9.5873e-05
9.7497e-05
9.91428e-05
0.000100112
0.000102778
0.000110799
0.000126542
0.000155569
0.000235379
0.000272788
0.000251886
0.000191783
0.000135439
0.000109701
0.00010169
9.79368e-05
9.58789e-05
9.47534e-05
9.45389e-05
9.56386e-05
9.74465e-05
9.91134e-05
0.000100357
0.000103258
0.000110712
0.000124988
0.000145291
0.00020759
0.000271637
0.000264933
0.000218529
0.000155469
0.000116185
0.000103533
9.86656e-05
9.60249e-05
9.46318e-05
9.3824e-05
9.40813e-05
9.54884e-05
9.74078e-05
9.90913e-05
0.000100585
0.000103784
0.000110882
0.000124007
0.000139695
0.000182566
0.0002634
0.000275065
0.000242202
0.000179648
0.000128616
0.000106571
9.9731e-05
9.63325e-05
9.45411e-05
9.36061e-05
9.30708e-05
9.37705e-05
9.54125e-05
9.73751e-05
9.90793e-05
0.000100758
0.000104299
0.000111273
0.000123199
0.000136887
0.000165201
0.000243413
0.00028223
0.000262625
0.000205238
0.000145927
0.000112759
0.000101346
9.68779e-05
9.45907e-05
9.33427e-05
9.26901e-05
9.24797e-05
9.35827e-05
9.53926e-05
9.73296e-05
9.9074e-05
0.000100811
0.000104592
0.000111874
0.000122498
0.000135708
0.000154601
0.000215539
0.000280996
0.000275972
0.000232466
0.000169164
0.000122961
0.000104486
9.78093e-05
9.47881e-05
9.32048e-05
9.23597e-05
9.18882e-05
9.20704e-05
9.34556e-05
9.53763e-05
9.72843e-05
9.90808e-05
0.000100558
0.000104538
0.000112594
0.000122156
0.000135041
0.000148901
0.000190421
0.000272626
0.000287639
0.000256412
0.000194521
0.000139444
0.000109987
9.96471e-05
9.52846e-05
9.32454e-05
9.20416e-05
9.14585e-05
9.12373e-05
9.18326e-05
9.34097e-05
9.53372e-05
9.72325e-05
9.90902e-05
9.93945e-05
0.00010367
0.000112801
0.000122505
0.000134233
0.000146792
0.000173662
0.000252203
0.000294876
0.000276991
0.000221592
0.000159904
0.000119572
0.000102854
9.63888e-05
9.3469e-05
9.19878e-05
9.10831e-05
9.06761e-05
9.07222e-05
9.16919e-05
9.34389e-05
9.53136e-05
9.71782e-05
9.90868e-05
9.92227e-05
0.00010121
0.000111418
0.000122923
0.000133295
0.000146742
0.000164003
0.000223647
0.000293336
0.000290612
0.000249544
0.00018546
0.000133451
0.000108304
9.85796e-05
9.41072e-05
9.20755e-05
9.09706e-05
9.0311e-05
9.00271e-05
9.03732e-05
9.16679e-05
9.34905e-05
9.52877e-05
9.7145e-05
9.90799e-05
0.000101504
0.000103896
0.000107379
0.000121455
0.00013379
0.000146762
0.000159583
0.000199105
0.000284818
0.000303929
0.000273744
0.000211827
0.000152963
0.000116779
0.000102094
9.5619e-05
9.24505e-05
9.10092e-05
9.01966e-05
8.96891e-05
8.95712e-05
9.02261e-05
9.17293e-05
9.35306e-05
9.52545e-05
9.71375e-05
9.91035e-05
0.000102589
0.000123211
0.000123064
0.000120545
0.000133098
0.000147985
0.000159082
0.000184107
0.000264522
0.000311902
0.000294566
0.000240565
0.000175899
0.000129353
0.000107504
9.82957e-05
9.34668e-05
9.12521e-05
9.02192e-05
8.96098e-05
8.92399e-05
8.93534e-05
9.02672e-05
9.18391e-05
9.35203e-05
9.5182e-05
9.71178e-05
9.91273e-05
0.000101705
0.000118854
0.00018766
0.000152324
0.000134154
0.00014971
0.000160479
0.000175608
0.000235664
0.000310575
0.000309486
0.000269231
0.000203499
0.000146431
0.00011539
0.000102332
9.56826e-05
9.20002e-05
9.04159e-05
8.96446e-05
8.91927e-05
8.9031e-05
8.9406e-05
9.04831e-05
9.1989e-05
9.34634e-05
9.50266e-05
9.70579e-05
9.91373e-05
0.000100863
0.00010724
0.000172058
0.000254766
0.000171389
0.000153392
0.000164227
0.000173611
0.000211664
0.000302704
0.000325591
0.000294681
0.000231354
0.000168658
0.000126821
0.000107792
9.91266e-05
9.38372e-05
9.10796e-05
8.98726e-05
8.92655e-05
8.90238e-05
8.91472e-05
8.97667e-05
9.09252e-05
9.2231e-05
9.34688e-05
9.49587e-05
9.69895e-05
9.90959e-05
0.000100274
0.000102108
0.000124239
0.000256155
0.000299503
0.000184241
0.000170692
0.00017576
0.000198015
0.000283434
0.000335911
0.000317389
0.00026232
0.00019441
0.000142305
0.000115828
0.000103688
9.71861e-05
9.27925e-05
9.06177e-05
8.96159e-05
8.91691e-05
8.91818e-05
8.96547e-05
9.0568e-05
9.17199e-05
9.28035e-05
9.38139e-05
9.51436e-05
9.70158e-05
9.89787e-05
9.98684e-05
9.9731e-05
0.000105459
0.000170806
0.000330076
0.000304267
0.000194812
0.000181861
0.000193763
0.000252005
0.000335473
0.000335365
0.000292957
0.000224396
0.000162697
0.000126651
0.00011034
0.000101783
9.63364e-05
9.25272e-05
9.06224e-05
8.97231e-05
8.94506e-05
8.97755e-05
9.06194e-05
9.17294e-05
9.27688e-05
9.36095e-05
9.4468e-05
9.56755e-05
9.72682e-05
9.88897e-05
9.94176e-05
9.8913e-05
0.000100019
0.000117486
0.000266398
0.000392961
0.000293648
0.00020015
0.000196029
0.000231162
0.000328475
0.000355727
0.000321521
0.000254623
0.000188381
0.000141586
0.000119202
0.000108247
0.000101334
9.64522e-05
9.30222e-05
9.12032e-05
9.03367e-05
9.02957e-05
9.09603e-05
9.20108e-05
9.30521e-05
9.38525e-05
9.45369e-05
9.54363e-05
9.66264e-05
9.78407e-05
9.89264e-05
9.91143e-05
9.83873e-05
9.74394e-05
0.000102564
0.000152843
0.000368406
0.000430474
0.000267465
0.000207037
0.000222824
0.00030893
0.000369781
0.000348203
0.000289183
0.000217885
0.000161443
0.00013123
0.000117266
0.00010856
0.000102509
9.79833e-05
9.47493e-05
9.26358e-05
9.17587e-05
9.19781e-05
9.28805e-05
9.40063e-05
9.49933e-05
9.54533e-05
9.58562e-05
9.67225e-05
9.77933e-05
9.85619e-05
9.90451e-05
9.89714e-05
9.79641e-05
9.62043e-05
9.82587e-05
0.00011258
0.000236655
0.000451874
0.000418404
0.000245345
0.000224876
0.000280549
0.000370769
0.000372357
0.000324289
0.000251361
0.000187145
0.000147199
0.00012917
0.000118708
0.000111345
0.000105567
0.000100922
9.77768e-05
9.52984e-05
9.44294e-05
9.48591e-05
9.62049e-05
9.78384e-05
9.86398e-05
9.81878e-05
9.77976e-05
9.83497e-05
9.90745e-05
9.8721e-05
9.88602e-05
9.95366e-05
9.88092e-05
9.88679e-05
9.90011e-05
9.76542e-05
9.54771e-05
9.60857e-05
0.000101361
0.000145132
0.000393968
0.000512303
0.000370432
0.000241774
0.000262901
0.000365984
0.000398531
0.000359063
0.000286057
0.000217733
0.00016877
0.000144811
0.000132283
0.000124469
0.000117631
0.000111181
0.000105926
0.000102465
9.97806e-05
9.88227e-05
9.95852e-05
0.000101128
0.000102337
0.000102352
0.000100988
0.000100346
0.000100873
9.95346e-05
0.000100715
9.90246e-05
9.95166e-05
9.884e-05
9.89214e-05
9.91456e-05
9.744e-05
9.47377e-05
9.40819e-05
9.72366e-05
0.000113183
0.000238207
0.000507706
0.00050169
0.000297048
0.000263465
0.000349058
0.000418109
0.000392793
0.00032678
0.000252734
0.000196283
0.000166655
0.000152457
0.000144629
0.00013795
0.00013041
0.000121881
0.00011502
0.000109824
0.00010659
0.000105786
0.000106864
0.000108536
0.00010964
0.000108318
0.000105479
0.000102579
0.000104524
0.000101832
0.000103501
0.000103061
0.000100044
0.000101417
9.92774e-05
9.94965e-05
9.8945e-05
9.89934e-05
9.93219e-05
9.72601e-05
9.38449e-05
9.23264e-05
9.46543e-05
0.000102462
0.000156816
0.00043725
0.000570206
0.000443552
0.000283673
0.000318832
0.000422548
0.000425303
0.000370857
0.000291278
0.00022904
0.000195481
0.00018106
0.000175946
0.00017165
0.000164187
0.000152582
0.000140854
0.00013062
0.000123235
0.000119587
0.000120412
0.000125137
0.000131926
0.000134792
0.000125003
0.000107655
0.0001145
0.00010627
0.000102605
0.000105358
0.000104513
0.00010077
0.000102232
9.9563e-05
9.94847e-05
9.90814e-05
9.90879e-05
9.94161e-05
9.69918e-05
9.28398e-05
9.09172e-05
9.25618e-05
9.78347e-05
0.000124968
0.000289215
0.000562262
0.000556359
0.000343944
0.000316868
0.000419062
0.000458846
0.000414265
0.000334318
0.000266143
0.000226988
0.000216112
0.000218662
0.000223662
0.000224258
0.000216234
0.000201671
0.000183188
0.00016638
0.000156508
0.000160019
0.000183329
0.000228337
0.000274411
0.000279067
0.000132385
0.000196891
0.000112432
0.000129824
0.000110691
0.000103948
0.000108964
0.000107657
0.000101187
0.000102898
9.98713e-05
9.9495e-05
9.92501e-05
9.92154e-05
9.94362e-05
9.64892e-05
9.19109e-05
9.00053e-05
9.10058e-05
9.51929e-05
0.000113007
0.000201695
0.000503676
0.000609584
0.000485107
0.000336704
0.000400798
0.000484018
0.000456695
0.000384441
0.000308718
0.000257119
0.000250697
0.000271674
0.000304103
0.00033613
0.000366954
0.000372526
0.0003479
0.000305933
0.00027541
0.000289708
0.000386608
0.000599458
0.000871083
0.00108361
0.00042601
0.00115375
0.000190964
0.000428808
0.000126839
0.000185438
0.000122761
0.000106165
0.000118828
0.000115147
0.00010154
0.000104374
0.000100156
9.95318e-05
9.94787e-05
9.94039e-05
9.94278e-05
9.58178e-05
9.14009e-05
8.97348e-05
9.02341e-05
9.39382e-05
0.000108946
0.000166622
0.000397754
0.000607192
0.000586417
0.000391473
0.000387619
0.000491383
0.00049813
0.000439692
0.000356169
0.000286062
0.000279321
0.000332614
0.000429527
0.000570191
0.000724355
0.000860259
0.000876029
0.000784018
0.000694458
0.000727079
0.00100832
0.00155709
0.00243988
0.00316649
0.00225899
0.003619
0.00115365
0.00241311
0.000415912
0.00114054
0.000174847
0.000383704
0.000161444
0.000111568
0.00014872
0.000137248
0.000102422
0.000108
0.000100739
9.96111e-05
9.98594e-05
9.96175e-05
9.93078e-05
9.51847e-05
9.14955e-05
9.016e-05
9.04748e-05
9.44046e-05
0.00010896
0.000157002
0.000324975
0.000574846
0.000627612
0.000502736
0.000403922
0.000490718
0.000536733
0.000491507
0.000409808
0.000317289
0.000303301
0.000398573
0.000615199
0.000968491
0.0014452
0.00189645
0.00219493
0.00215709
0.00196949
0.00197482
0.00248318
0.0036464
0.00472222
0.00512953
0.00432751
0.00518656
0.00355095
0.00438581
0.00239326
0.00346917
0.00106603
0.00230576
0.000338277
0.000941752
0.000288825
0.000127062
0.000244496
0.000206372
0.000104584
0.000117903
0.000102028
9.97196e-05
0.000100496
9.98749e-05
9.88391e-05
9.49257e-05
9.23327e-05
9.12523e-05
9.20364e-05
9.75911e-05
0.000113794
0.000158823
0.000298951
0.000519279
0.000636935
0.000595125
0.000450719
0.000478872
0.000566033
0.00054101
0.000468432
0.000355078
0.000323775
0.000460921
0.00084797
0.00154622
0.00244057
0.00331397
0.00387352
0.0040451
0.00399192
0.00412368
0.00481989
0.00577555
0.00633326
0.00635579
0.00552552
0.00611693
0.00496177
0.00539703
0.00425549
0.0047961
0.00336397
0.00413098
0.00217308
0.00324044
0.00079206
0.00199499
0.000650452
0.000174274
0.000525276
0.000414499
0.00011056
0.000147988
0.000105153
9.98163e-05
0.000101923
0.000100352
9.8363e-05
9.55331e-05
9.3818e-05
9.30039e-05
9.53231e-05
0.000104917
0.000127477
0.000174276
0.000300697
0.000488921
0.000627204
0.000634544
0.00052252
0.000485887
0.00057839
0.000590061
0.000529321
0.000403247
0.000345191
0.000505091
0.00108314
0.00219994
0.0036509
0.00477331
0.00527303
0.00535401
0.00539005
0.00565962
0.00624389
0.00694066
0.00734313
0.00731277
0.00652091
0.00712376
0.00582761
0.00632057
0.00519801
0.00560279
0.00464884
0.00503669
0.00401792
0.00454445
0.00310712
0.00392632
0.00176326
0.00296077
0.00150293
0.000319163
0.00122625
0.000941965
0.00012812
0.000241236
0.00011411
9.98388e-05
0.00010569
0.000101436
9.83606e-05
9.68085e-05
9.57399e-05
9.58343e-05
0.000101028
0.000117947
0.00015263
0.000217392
0.000326529
0.000484193
0.000612334
0.000652163
0.000593623
0.000517482
0.000578836
0.000631475
0.000587551
0.000466031
0.000372363
0.000525994
0.00126206
0.00281602
0.00477215
0.00576574
0.00592551
0.00602201
0.00591345
0.00607227
0.0065213
0.00716973
0.00769396
0.00817755
0.00766875
0.00832679
0.00690169
0.00754646
0.00607307
0.00664755
0.00541426
0.0058403
0.00493049
0.0052823
0.00448657
0.00488681
0.00385716
0.00447736
0.00279335
0.00380274
0.00260575
0.000712262
0.00238505
0.00206271
0.000182467
0.000514141
0.000141373
0.0001
0.000116889
0.000104555
9.87708e-05
9.84753e-05
9.8368e-05
0.000100049
0.000109871
0.000138758
0.00019398
0.000286634
0.000389737
0.000497257
0.000609307
0.000661701
0.000639929
0.000570052
0.000580098
0.000658271
0.00064401
0.000540868
0.000410264
0.000527021
0.00133806
0.00328783
0.00556856
0.00630583
0.00635929
0.0060111
0.00582703
0.00595972
0.00640046
0.00715408
0.00808547
0.00881688
0.00874428
0.00925996
0.00814404
0.00864187
0.00725882
0.00782342
0.00635253
0.00689753
0.00565662
0.00607632
0.00522391
0.00554913
0.00491069
0.0052501
0.00451451
0.00500622
0.00375037
0.00458864
0.00369678
0.00165466
0.00361015
0.00345219
0.00034875
0.00118114
0.000226039
0.00010057
0.000150652
0.000114663
9.91147e-05
0.00010057
0.000102171
0.000105983
0.000122532
0.000169161
0.000258509
0.000374741
0.000467475
0.000544254
0.000618833
0.000670153
0.000669924
0.000623829
0.000595305
0.00067411
0.000692987
0.000614506
0.00046326
0.000518708
0.00133507
0.00347911
0.00602491
0.0066409
0.0063429
0.00575912
0.00554096
0.00565745
0.00621798
0.00721339
0.00843798
0.00939388
0.00959808
0.00901604
0.00931425
0.0083119
0.0086783
0.00741299
0.00788886
0.00653558
0.00699446
0.0058886
0.00624662
0.00554358
0.00582027
0.00537116
0.00566164
0.00517333
0.0055999
0.00469463
0.00541374
0.00482217
0.00315521
0.00494011
0.00500663
0.00079786
0.00259764
0.000477474
0.000101778
0.000258923
0.000146781
9.93261e-05
0.000102745
0.000107145
0.000113688
0.000139089
0.000210077
0.000342464
0.000474653
0.000559311
0.000616265
0.000656693
0.000688987
0.000695802
0.000672131
0.000633515
0.000679352
0.000731395
0.000683152
0.000535805
0.000507604
0.0012679
0.00346534
0.00622837
0.00680471
0.00619038
0.00536224
0.00524881
0.00551328
0.00631169
0.00749304
0.0089709
0.00969382
0.00963562
0.00856571
0.00817294
0.00885973
0.00878841
0.00820593
0.00823787
0.00742384
0.00768255
0.00661823
0.00697614
0.00609672
0.00637562
0.00590573
0.00612983
0.00592365
0.00618262
0.00594875
0.0063623
0.00572627
0.00641969
0.00609377
0.0049014
0.00648532
0.00684041
0.00185243
0.00457676
0.00112808
0.0001056
0.000591378
0.000255177
9.98599e-05
0.000104671
0.000112202
0.000122923
0.00015902
0.000260917
0.000440614
0.000586202
0.000665031
0.000704066
0.000722762
0.000730781
0.000729931
0.000714332
0.000685
0.000692031
0.000763412
0.000755796
0.000628904
0.000518926
0.00107943
0.0033054
0.00623369
0.00687715
0.00587407
0.00510148
0.00510223
0.00557434
0.00664219
0.00814891
0.00939928
0.00994148
0.00950009
0.00767623
0.00708733
0.00691601
0.00613991
0.00805648
0.00758745
0.00767988
0.00743428
0.00720299
0.00722292
0.00665413
0.00687342
0.00633617
0.00653511
0.00640345
0.00659356
0.00670594
0.00700895
0.00700717
0.00754535
0.00701505
0.0078824
0.00772931
0.00704972
0.00849228
0.00921318
0.00380635
0.00696444
0.00263254
0.000112618
0.00140303
0.000540273
0.000102875
0.000108192
0.00011736
0.000132631
0.000181845
0.000320066
0.000549348
0.000711143
0.000786894
0.000811805
0.000811679
0.000801017
0.000786976
0.000768795
0.000744443
0.000728111
0.00079702
0.000829339
0.000738897
0.000583254
0.000886018
0.00284855
0.00612394
0.00688272
0.00565173
0.0048633
0.0049743
0.00575158
0.007152
0.00846693
0.00939963
0.00986905
0.00888874
0.00641597
0.00582276
0.00529138
0.00440226
0.00491631
0.00395051
0.00680466
0.00590516
0.00703354
0.00643612
0.0069396
0.00684948
0.00673376
0.00686379
0.00675028
0.00689846
0.00726385
0.00745407
0.00803857
0.0084758
0.0087281
0.00955125
0.0089594
0.0102274
0.0101683
0.00975423
0.0113801
0.0124284
0.00643661
0.00994656
0.00518223
0.000123527
0.0031031
0.0011391
0.000121535
0.000127049
0.000142467
0.000206001
0.000385642
0.000665758
0.000850371
0.000928647
0.000944927
0.000931558
0.0009059
0.000878324
0.00085128
0.000825729
0.000805521
0.000844614
0.000901663
0.000864232
0.000715953
0.000785373
0.00224103
0.00577628
0.0068674
0.00559747
0.00461501
0.00478762
0.00565146
0.00694648
0.0082153
0.0090612
0.00910824
0.0071687
0.00314274
0.00359697
0.00271614
0.00313289
0.00243612
0.00369784
0.00294741
0.00551746
0.00457194
0.00647845
0.00575568
0.00686341
0.00671559
0.00703186
0.00706906
0.00760022
0.00772304
0.00880149
0.00901734
0.0102821
0.0108306
0.0114886
0.0125723
0.0118997
0.0136189
0.0135684
0.013124
0.0149475
0.0159545
0.00956183
0.0133517
0.0084498
0.000175086
0.00591481
0.00286363
0.000147447
0.000158319
0.00022852
0.000453605
0.000787225
0.00100585
0.00109492
0.00111163
0.00109341
0.00105877
0.00101589
0.000970576
0.000928453
0.000896443
0.000913894
0.000970546
0.00098305
0.000879525
0.000788081
0.0016919
0.00496411
0.00680584
0.00564315
0.00447648
0.00448201
0.00514498
0.00612151
0.00723176
0.00772679
0.00682323
0.00416238
0.00204723
0.00123751
0.000935104
0.00187273
0.00141506
0.0023183
0.00178542
0.00332606
0.00269868
0.00490324
0.00406443
0.00625797
0.00554
0.00700975
0.00678066
0.00778928
0.00775521
0.00915214
0.00921374
0.0111607
0.0113043
0.0133353
0.0137634
0.0150434
0.0159597
0.0156079
0.017278
0.0172773
0.0165172
0.0182837
0.0187895
0.01305
0.0166735
0.0121045
0.000790062
0.010901
0.00927451
0.000189395
0.000255988
0.000513592
0.000915587
0.00117825
0.00129203
0.00132155
0.0013153
0.00128516
0.00123415
0.00116306
0.00108505
0.0010169
0.00099329
0.00102975
0.00106724
0.00103605
0.000905153
0.00133876
0.00385442
0.00661313
0.00584214
0.0044673
0.00428744
0.00462816
0.00508469
0.00526125
0.00474922
0.00353866
0.0022355
0.00121069
0.000684073
0.000823723
0.000681436
0.00134754
0.00102063
0.00215459
0.00167479
0.00330974
0.00274118
0.00474291
0.00397871
0.00626292
0.00557611
0.00760401
0.00724574
0.00916582
0.00899508
0.0113074
0.0111999
0.0138621
0.0137325
0.0163436
0.0162561
0.0182817
0.0184613
0.0189436
0.0198636
0.0199352
0.018956
0.0201813
0.0199379
0.0194908
0.0165546
0.0179088
0.0188245
0.0163604
0.0152593
0.0171363
0.0199979
0.00029173
0.000586472
0.00103682
0.00137442
0.00152162
0.0015874
0.00161744
0.00163004
0.00160211
0.00152314
0.00139366
0.00125505
0.00113676
0.00110367
0.0011222
0.00113343
0.00108555
0.00121704
0.00280498
0.00613848
0.00615344
0.00451762
0.00424021
0.00442338
0.00452422
0.00403499
0.00283981
0.00185739
0.00120757
0.000770105
0.000548041
0.000582295
0.00050299
0.000751273
0.000633644
0.00126181
0.000949237
0.00223943
0.00175419
0.00360131
0.00305428
0.00485904
0.0041924
0.00667307
0.00600146
0.00863641
0.00806455
0.0109105
0.0103922
0.013417
0.012886
0.0157792
0.0150894
0.0180722
0.0172874
0.0199689
0.0190738
0.0206448
0.0202989
0.0204696
0.0204677
0.020649
0.019778
0.0193082
0.0194553
0.0200833
0.020103
0.0205233
0.0197859
0.0179152
0.0187635
0.0189008
0.0192263
0.0188369
0.017907
0.0185449
0.0204915
0.0184912
0.0182272
0.0185937
0.0184975
0.0220156
0.0191534
0.000617051
0.00119513
0.00157248
0.00179734
0.00190936
0.00202347
0.00212736
0.00219551
0.00214845
0.00197596
0.00172182
0.00146491
0.00126467
0.00120026
0.00118893
0.0011896
0.00122409
0.00208045
0.00511655
0.0062621
0.0046907
0.0042521
0.00441117
0.00444505
0.00377115
0.00235036
0.00126621
0.000805902
0.000569513
0.00046609
0.000481161
0.000432644
0.000552624
0.000498934
0.000743837
0.000625395
0.0012988
0.000951573
0.00247732
0.00188126
0.00396157
0.00325242
0.00531154
0.00463872
0.00735585
0.00657471
0.00967654
0.00881037
0.0121575
0.0112647
0.0143238
0.0135507
0.0162248
0.0152122
0.0182089
0.0175487
0.0168666
0.0162892
0.0197505
0.0191558
0.0175472
0.0173961
0.018221
0.0203988
0.0204687
0.0201726
0.0197316
0.0202591
0.0194043
0.0192344
0.0189419
0.0196193
0.0192092
0.0198509
0.0190253
0.0190397
0.0191373
0.0190272
0.0189341
0.0186671
0.0148019
0.0216713
0.020681
0.0179033
0.0184526
0.0175481
0.0169054
0.00128479
0.00184351
0.00208303
0.00230986
0.00252114
0.00279894
0.00300981
0.00306314
0.0028726
0.00250288
0.00206373
0.00165603
0.00137543
0.00127245
0.00124681
0.00126958
0.00168384
0.00386088
0.00615142
0.00503513
0.00432076
0.00448106
0.00461596
0.00396496
0.00250178
0.00121211
0.000706858
0.000502539
0.000423226
0.000406027
0.000458939
0.000426613
0.000550855
0.000496373
0.000751589
0.000626989
0.00135167
0.000976026
0.00254973
0.0018957
0.00409024
0.00327975
0.00575872
0.00492248
0.00785911
0.00689144
0.010254
0.00919302
0.0127069
0.0118221
0.0145089
0.0140534
0.0157429
0.0153974
0.0151915
0.0151582
0.0167357
0.0160851
0.0155995
0.0189089
0.0179024
0.0164009
0.0159694
0.0168673
0.0194921
0.0197652
0.0189713
0.0184682
0.0191815
0.0183451
0.0185517
0.0177029
0.0184205
0.0184285
0.0175951
0.0175844
0.0188509
0.0186993
0.0181938
0.0185181
0.0181474
0.0240762
0.0189456
0.0163086
0.0175702
0.0166353
0.0155236
0.0145647
0.00204519
0.00248489
0.00271806
0.00313745
0.0035805
0.00401144
0.00414893
0.00398532
0.00353634
0.00295108
0.00234372
0.00181112
0.0014606
0.0013344
0.00131041
0.00150435
0.00280144
0.00559744
0.00534205
0.00452014
0.004671
0.00516722
0.00464837
0.00329709
0.00155365
0.00073267
0.000496292
0.000410433
0.000385047
0.000406452
0.000387454
0.000454816
0.000424035
0.00055465
0.000496718
0.000765287
0.000637559
0.0013513
0.000983104
0.00251646
0.00184947
0.00409771
0.00325327
0.00593366
0.00499867
0.00814556
0.00714887
0.0109286
0.0100119
0.0137
0.0133
0.0151855
0.0153027
0.0154095
0.0154983
0.0153491
0.0153117
0.0154222
0.015679
0.0157573
0.0153513
0.0152447
0.0173598
0.0162793
0.0153235
0.0148891
0.0154118
0.0178635
0.0182753
0.0171619
0.0167215
0.0174889
0.0167635
0.0171446
0.0160248
0.0166992
0.0166109
0.0156951
0.0157882
0.0179111
0.0176675
0.0167109
0.017325
0.0167641
0.0225504
0.0146734
0.0171401
0.0159077
0.0147627
0.0137417
0.0133008
0.00281467
0.00329327
0.00373183
0.00448603
0.00504994
0.00529838
0.00507481
0.00461185
0.00395366
0.00323404
0.00252848
0.00192263
0.00152983
0.00139495
0.00145522
0.00211037
0.00442614
0.00539884
0.00476014
0.00484704
0.00571822
0.00569388
0.00456612
0.00261676
0.000896099
0.000520567
0.000410376
0.000374888
0.000374412
0.00040467
0.000390086
0.000454283
0.000424482
0.000563573
0.000499976
0.000790903
0.00065613
0.00133427
0.000995813
0.00249602
0.00186777
0.00441654
0.00359574
0.00620559
0.00529583
0.00910206
0.00822511
0.0127983
0.012023
0.01549
0.0153871
0.0154004
0.0159813
0.016283
0.016508
0.0165986
0.0153275
0.015622
0.0160374
0.0165077
0.0150686
0.0150435
0.0152592
0.0156442
0.0148305
0.0147269
0.0143266
0.0144326
0.0160046
0.0163743
0.0152486
0.0149826
0.0155318
0.014933
0.0154236
0.0142053
0.0147679
0.0146397
0.0137418
0.0138842
0.0163771
0.0160806
0.0149777
0.015723
0.015073
0.0251995
0.014379
0.0194723
0.0141135
0.0131374
0.0126923
0.0131372
0.00378048
0.00452972
0.0052977
0.00613211
0.00623109
0.005983
0.00546722
0.00483492
0.00409659
0.00333478
0.00260442
0.00198502
0.00159376
0.00147753
0.00176073
0.0032785
0.00523501
0.00487774
0.00490375
0.00603242
0.00669513
0.00582623
0.00389514
0.00133893
0.00060048
0.000422918
0.000370672
0.000359725
0.000379115
0.000365799
0.000406847
0.000390534
0.000456255
0.000426835
0.000576117
0.0005019
0.00086066
0.000691974
0.00140588
0.00108872
0.0028639
0.00225213
0.00556255
0.0046984
0.00735843
0.00646458
0.0111109
0.0101861
0.0144404
0.01327
0.0165612
0.0163325
0.0154491
0.016222
0.0169464
0.017293
0.0174578
0.0174274
0.0156695
0.0162034
0.0167757
0.0173071
0.0147646
0.0150759
0.015569
0.014259
0.0139548
0.0144289
0.0140466
0.0138892
0.0142922
0.0144515
0.0135674
0.0136944
0.0136287
0.0131118
0.0136563
0.0125128
0.012892
0.0128043
0.012034
0.0121581
0.0146648
0.0144559
0.0132973
0.014087
0.0134281
0.0289901
0.0152252
0.0281463
0.01264
0.0121372
0.0123852
0.0136329
0.00521504
0.00628832
0.00691222
0.00702002
0.00659672
0.00606181
0.00540376
0.00471849
0.00401479
0.00329726
0.00259782
0.00200916
0.00161097
0.0016558
0.00244963
0.00452952
0.00486531
0.00488691
0.0060705
0.00739837
0.00708562
0.00540504
0.00232943
0.000762616
0.000461565
0.000373792
0.000351338
0.000352188
0.000376134
0.000364582
0.000407233
0.000390649
0.000456345
0.000427599
0.00059634
0.000504192
0.00101954
0.000762206
0.00176379
0.00135815
0.00389284
0.00315565
0.00730575
0.00633279
0.00925351
0.00829381
0.0121899
0.0112831
0.014839
0.0141211
0.013055
0.0135879
0.0171737
0.0167313
0.0151127
0.0159358
0.0177136
0.0179089
0.0179089
0.0176913
0.0161636
0.0167818
0.0173355
0.017755
0.0147954
0.0153296
0.0159471
0.0134554
0.0134262
0.0144479
0.014055
0.0136372
0.0130793
0.0128247
0.0124272
0.012907
0.0120996
0.0115853
0.0121343
0.0112262
0.0113673
0.0114257
0.010856
0.0108609
0.0131325
0.0129766
0.0119759
0.0126348
0.0121375
0.0241334
0.0172057
0.0307465
0.0117332
0.0118685
0.0125089
0.0146742
0.00713761
0.0077552
0.00749827
0.00708704
0.00634745
0.00562424
0.00497322
0.00437543
0.00378175
0.00315357
0.00252069
0.00196677
0.00168024
0.00199642
0.00350065
0.0047162
0.00484362
0.00599603
0.00773276
0.00824806
0.00697506
0.0038434
0.00108647
0.000533546
0.000390462
0.000349403
0.000341442
0.000352626
0.000342428
0.000373672
0.000361217
0.000405443
0.000388087
0.000454547
0.000425812
0.000637116
0.000511869
0.00130877
0.000891777
0.00248346
0.00185754
0.00537385
0.00442747
0.00870185
0.0077594
0.0104373
0.00959269
0.0125309
0.0119416
0.0143459
0.0137132
0.0129328
0.0132323
0.0172788
0.0166712
0.0142715
0.0152171
0.0180112
0.0180697
0.0179748
0.0176126
0.0165571
0.0170928
0.0175279
0.0178477
0.0149829
0.0155898
0.0161662
0.0129147
0.0131978
0.014575
0.0141251
0.0136306
0.0123009
0.0117742
0.0116812
0.0123536
0.0111562
0.0105508
0.0110779
0.0104286
0.0104257
0.0106389
0.0102504
0.0101709
0.01191
0.0117877
0.0110461
0.0115669
0.0113604
0.0112357
0.0208468
0.0270184
0.0114305
0.0119431
0.0130767
0.0159389
0.00844064
0.00810801
0.0072702
0.0064052
0.00560351
0.00497058
0.0044316
0.003953
0.00347783
0.00294669
0.00237921
0.00185241
0.00183821
0.00269018
0.00423608
0.00475541
0.00576156
0.00778745
0.00913382
0.00841548
0.00560187
0.00176651
0.00065517
0.000428112
0.000355347
0.000336653
0.000331882
0.000346731
0.000338699
0.000369024
0.000357135
0.000401663
0.000383901
0.000453489
0.000422375
0.000706991
0.000528963
0.0017434
0.00109865
0.00349212
0.00257374
0.00674119
0.00566648
0.0100258
0.00903735
0.0114399
0.0108317
0.0123263
0.0122923
0.0122661
0.0121506
0.0134713
0.012908
0.0124421
0.0125914
0.0169961
0.016161
0.0131381
0.0141817
0.0179879
0.017953
0.017682
0.0171258
0.0166767
0.0171042
0.0174265
0.0176149
0.0151424
0.0156696
0.0161176
0.0126926
0.0131622
0.0146309
0.0140825
0.0136502
0.0117867
0.0110914
0.0112469
0.0121641
0.0105974
0.0100674
0.0104242
0.010075
0.0100299
0.0102275
0.0100215
0.00993849
0.0110329
0.0109935
0.0104687
0.0109722
0.0110983
0.00858398
0.0231992
0.0195271
0.0114868
0.0122949
0.0139536
0.0173443
0.00858856
0.0075521
0.0063134
0.00546565
0.00482338
0.00435669
0.00394039
0.00354713
0.00315753
0.00270174
0.00218024
0.00184728
0.00219792
0.00350197
0.00452999
0.00555079
0.00773246
0.00968059
0.00964602
0.00739915
0.00303902
0.000872262
0.000487367
0.000374621
0.000338135
0.000326919
0.000327643
0.000321905
0.000341627
0.000333287
0.000363464
0.000351524
0.000396551
0.000378237
0.000454933
0.000419402
0.000788375
0.000552799
0.00222954
0.00131846
0.00452864
0.00335587
0.00786736
0.00652119
0.0107195
0.00965939
0.01205
0.0118631
0.0115714
0.0118471
0.0119574
0.0120173
0.0120278
0.0123469
0.0119059
0.0117734
0.0117752
0.0163148
0.0152935
0.0119545
0.0131156
0.0176378
0.0174999
0.0171216
0.0164699
0.016476
0.0167542
0.0169533
0.0170413
0.0150749
0.0154323
0.0156953
0.0126617
0.0131476
0.0144281
0.0138165
0.0135449
0.0116637
0.0107979
0.0112202
0.012173
0.010452
0.00995396
0.0101566
0.0100449
0.00993473
0.0102205
0.0100784
0.00994217
0.0105281
0.0106347
0.0102741
0.0108229
0.0111485
0.00588163
0.0217849
0.0154469
0.0117457
0.0129154
0.0149093
0.0189986
0.0076435
0.00624178
0.00513024
0.00448781
0.00407805
0.0037994
0.00351006
0.00318028
0.00284057
0.00242423
0.00197521
0.00199932
0.00284685
0.00406343
0.00529612
0.00754496
0.00995303
0.0106482
0.00903845
0.00469885
0.00125559
0.00056987
0.000409005
0.000348123
0.000327769
0.000316717
0.000321026
0.000316711
0.000335445
0.000327458
0.000357162
0.000345159
0.00039269
0.000372344
0.000460994
0.000419171
0.000815496
0.000575066
0.00239416
0.00137321
0.0050955
0.0036856
0.00826076
0.00670344
0.00994056
0.00884038