/*--------------------------------*- C++ -*----------------------------------*\
  =========                 |
  \\      /  F ield         | OpenFOAM: The Open Source CFD Toolbox
   \\    /   O peration     | Website:  https://openfoam.org
    \\  /    A nd           | Version:  dev
     \\/     M anipulation  |
\*---------------------------------------------------------------------------*/
FoamFile
{
    version     2.0;
    format      ascii;
    class       volScalarField;
    location    "2500";
    object      N2;
}
// * * * * * * * * * * * * * * * * * * * * * * * * * * * * * * * * * * * * * //

dimensions      [0 0 0 0 0 0 0];

internalField   nonuniform List<scalar> 
9978
(
0.76699
0.76699
0.76699
0.76699
0.76699
0.76699
0.76699
0.76699
0.76699
0.76699
0.76699
0.76699
0.76699
0.76699
0.76699
0.76699
0.76699
0.76699
0.76699
0.76699
0.76699
0.76699
0.76699
0.76699
0.76699
0.76699
0.76699
0.76699
0.76699
0.76699
0.76699
0.76699
0.76699
0.76699
0.76699
0.76699
0.76699
0.76699
0.76699
0.76699
0.76699
0.76699
0.76699
0.76699
0.76699
0.76699
0.76699
0.76699
0.76699
0.76699
0.76699
0.76699
0.76699
0.76699
0.76699
0.76699
0.76699
0.76699
0.76699
0.76699
0.76699
0.76699
0.76699
0.76699
0.76699
0.76699
0.76699
0.76699
0.76699
0.76699
0.76699
0.76699
0.76699
0.76699
0.76699
0.76699
0.76699
0.76699
0.76699
0.76699
0.76699
0.76699
0.76699
0.76699
0.76699
0.76699
0.76699
0.76699
0.76699
0.76699
0.76699
0.76699
0.76699
0.76699
0.76699
0.76699
0.76699
0.76699
0.76699
0.76699
0.76699
0.76699
0.76699
0.76699
0.76699
0.76699
0.76699
0.76699
0.76699
0.76699
0.76699
0.76699
0.76699
0.76699
0.76699
0.76699
0.76699
0.76699
0.76699
0.76699
0.76699
0.76699
0.76699
0.76699
0.76699
0.76699
0.76699
0.76699
0.76699
0.76699
0.76699
0.76699
0.76699
0.76699
0.76699
0.76699
0.76699
0.76699
0.76699
0.76699
0.76699
0.76699
0.76699
0.76699
0.76699
0.76699
0.76699
0.76699
0.76699
0.76699
0.76699
0.76699
0.76699
0.76699
0.76699
0.76699
0.76699
0.76699
0.76699
0.76699
0.76699
0.76699
0.76699
0.76699
0.76699
0.76699
0.76699
0.76699
0.76699
0.76699
0.76699
0.76699
0.76699
0.76699
0.76699
0.76699
0.76699
0.76699
0.76699
0.76699
0.76699
0.76699
0.76699
0.76699
0.76699
0.76699
0.76699
0.76699
0.76699
0.76699
0.76699
0.76699
0.76699
0.76699
0.76699
0.76699
0.76699
0.76699
0.76699
0.76699
0.76699
0.76699
0.76699
0.76699
0.76699
0.76699
0.76699
0.76699
0.76699
0.76699
0.76699
0.76699
0.76699
0.76699
0.76699
0.76699
0.76699
0.76699
0.76699
0.76699
0.76699
0.76699
0.76699
0.76699
0.76699
0.76699
0.76699
0.76699
0.76699
0.76699
0.76699
0.76699
0.76699
0.76699
0.76699
0.76699
0.76699
0.76699
0.76699
0.76699
0.76699
0.76699
0.76699
0.76699
0.76699
0.76699
0.76699
0.76699
0.76699
0.76699
0.76699
0.76699
0.76699
0.76699
0.76699
0.76699
0.76699
0.76699
0.76699
0.76699
0.76699
0.76699
0.76699
0.76699
0.76699
0.76699
0.76699
0.76699
0.76699
0.76699
0.76699
0.76699
0.76699
0.76699
0.76699
0.76699
0.76699
0.76699
0.76699
0.76699
0.76699
0.76699
0.76699
0.76699
0.76699
0.76699
0.76699
0.76699
0.76699
0.76699
0.76699
0.76699
0.76699
0.76699
0.76699
0.76699
0.76699
0.76699
0.76699
0.76699
0.76699
0.76699
0.76699
0.76699
0.76699
0.76699
0.76699
0.76699
0.76699
0.76699
0.76699
0.76699
0.76699
0.76699
0.76699
0.76699
0.76699
0.76699
0.76699
0.76699
0.76699
0.76699
0.76699
0.76699
0.76699
0.76699
0.76699
0.76699
0.76699
0.76699
0.76699
0.76699
0.76699
0.76699
0.76699
0.76699
0.76699
0.76699
0.76699
0.76699
0.76699
0.76699
0.76699
0.76699
0.76699
0.76699
0.76699
0.76699
0.76699
0.76699
0.76699
0.76699
0.76699
0.76699
0.76699
0.76699
0.76699
0.76699
0.76699
0.76699
0.76699
0.76699
0.76699
0.76699
0.76699
0.76699
0.76699
0.76699
0.76699
0.76699
0.76699
0.76699
0.76699
0.76699
0.76699
0.76699
0.76699
0.76699
0.76699
0.76699
0.76699
0.76699
0.76699
0.76699
0.76699
0.76699
0.76699
0.76699
0.76699
0.76699
0.76699
0.76699
0.76699
0.76699
0.76699
0.76699
0.76699
0.76699
0.76699
0.76699
0.76699
0.76699
0.76699
0.76699
0.76699
0.76699
0.76699
0.76699
0.76699
0.76699
0.76699
0.76699
0.76699
0.76699
0.76699
0.76699
0.76699
0.76699
0.76699
0.76699
0.76699
0.76699
0.76699
0.76699
0.76699
0.76699
0.76699
0.76699
0.76699
0.76699
0.76699
0.76699
0.76699
0.76699
0.76699
0.76699
0.76699
0.76699
0.76699
0.76699
0.76699
0.76699
0.76699
0.76699
0.76699
0.76699
0.76699
0.76699
0.76699
0.76699
0.76699
0.76699
0.76699
0.76699
0.76699
0.76699
0.76699
0.76699
0.76699
0.76699
0.76699
0.76699
0.76699
0.76699
0.76699
0.76699
0.76699
0.76699
0.76699
0.76699
0.76699
0.76699
0.76699
0.76699
0.76699
0.76699
0.76699
0.76699
0.76699
0.76699
0.76699
0.76699
0.76699
0.76699
0.76699
0.76699
0.76699
0.76699
0.76699
0.76699
0.76699
0.76699
0.76699
0.76699
0.76699
0.76699
0.76699
0.76699
0.76699
0.76699
0.76699
0.76699
0.76699
0.76699
0.76699
0.76699
0.76699
0.76699
0.76699
0.76699
0.76699
0.76699
0.76699
0.76699
0.76699
0.76699
0.76699
0.76699
0.76699
0.76699
0.76699
0.76699
0.76699
0.76699
0.76699
0.76699
0.76699
0.76699
0.76699
0.76699
0.76699
0.76699
0.76699
0.76699
0.76699
0.76699
0.76699
0.76699
0.76699
0.76699
0.76699
0.76699
0.76699
0.76699
0.76699
0.76699
0.76699
0.76699
0.76699
0.76699
0.76699
0.76699
0.76699
0.76699
0.76699
0.76699
0.76699
0.76699
0.76699
0.76699
0.76699
0.76699
0.76699
0.76699
0.76699
0.76699
0.76699
0.76699
0.76699
0.76699
0.76699
0.76699
0.76699
0.76699
0.76699
0.76699
0.76699
0.76699
0.76699
0.76699
0.76699
0.76699
0.76699
0.76699
0.76699
0.76699
0.76699
0.76699
0.76699
0.76699
0.76699
0.76699
0.76699
0.76699
0.76699
0.76699
0.76699
0.76699
0.76699
0.76699
0.76699
0.76699
0.76699
0.76699
0.76699
0.76699
0.76699
0.76699
0.76699
0.76699
0.76699
0.76699
0.76699
0.76699
0.76699
0.76699
0.76699
0.76699
0.76699
0.76699
0.76699
0.76699
0.76699
0.76699
0.76699
0.76699
0.76699
0.76699
0.76699
0.76699
0.76699
0.76699
0.76699
0.76699
0.76699
0.76699
0.76699
0.76699
0.76699
0.76699
0.76699
0.76699
0.76699
0.76699
0.76699
0.76699
0.76699
0.76699
0.76699
0.76699
0.76699
0.76699
0.76699
0.76699
0.76699
0.76699
0.76699
0.76699
0.76699
0.76699
0.76699
0.76699
0.76699
0.76699
0.76699
0.76699
0.76699
0.76699
0.76699
0.76699
0.76699
0.76699
0.76699
0.76699
0.76699
0.76699
0.76699
0.76699
0.76699
0.76699
0.76699
0.76699
0.76699
0.76699
0.76699
0.76699
0.76699
0.76699
0.76699
0.76699
0.76699
0.76699
0.76699
0.76699
0.76699
0.76699
0.76699
0.76699
0.76699
0.76699
0.76699
0.76699
0.76699
0.76699
0.76699
0.76699
0.76699
0.76699
0.76699
0.76699
0.76699
0.76699
0.76699
0.76699
0.76699
0.76699
0.76699
0.76699
0.76699
0.76699
0.76699
0.76699
0.76699
0.76699
0.76699
0.76699
0.76699
0.76699
0.76699
0.76699
0.76699
0.76699
0.76699
0.76699
0.76699
0.76699
0.76699
0.76699
0.766989
0.766989
0.766989
0.76699
0.76699
0.766989
0.766989
0.766989
0.766989
0.76699
0.76699
0.76699
0.76699
0.76699
0.76699
0.76699
0.76699
0.76699
0.76699
0.76699
0.76699
0.76699
0.76699
0.76699
0.76699
0.76699
0.76699
0.76699
0.76699
0.76699
0.76699
0.76699
0.76699
0.76699
0.76699
0.76699
0.76699
0.76699
0.76699
0.76699
0.76699
0.76699
0.766989
0.766988
0.766987
0.766987
0.766988
0.766988
0.766988
0.766987
0.766985
0.766982
0.766982
0.766989
0.766985
0.76699
0.766989
0.76699
0.76699
0.76699
0.76699
0.76699
0.76699
0.76699
0.76699
0.76699
0.76699
0.76699
0.76699
0.76699
0.76699
0.76699
0.76699
0.76699
0.76699
0.76699
0.76699
0.76699
0.76699
0.76699
0.76699
0.76699
0.76699
0.76699
0.76699
0.76699
0.76699
0.766988
0.766986
0.766982
0.766979
0.766978
0.766979
0.766982
0.766983
0.76698
0.76697
0.766954
0.766937
0.766972
0.766931
0.766985
0.76697
0.766989
0.766985
0.766989
0.76699
0.766989
0.766989
0.76699
0.76699
0.76699
0.76699
0.76699
0.76699
0.76699
0.76699
0.76699
0.76699
0.76699
0.76699
0.76699
0.76699
0.76699
0.76699
0.76699
0.76699
0.76699
0.76699
0.76699
0.76699
0.76699
0.76699
0.76699
0.766989
0.766986
0.766978
0.766966
0.766953
0.766946
0.766951
0.766961
0.766966
0.766959
0.766932
0.766882
0.766821
0.766862
0.766767
0.766927
0.766844
0.76697
0.766924
0.766985
0.766971
0.766986
0.766989
0.766987
0.766987
0.76699
0.76699
0.76699
0.76699
0.76699
0.76699
0.76699
0.76699
0.76699
0.76699
0.76699
0.76699
0.76699
0.76699
0.76699
0.76699
0.76699
0.76699
0.76699
0.76699
0.76699
0.76699
0.76699
0.76699
0.76699
0.766988
0.766981
0.766963
0.766932
0.766897
0.766875
0.766878
0.766903
0.766922
0.766911
0.766856
0.766764
0.766658
0.766683
0.766582
0.766749
0.76665
0.766836
0.766734
0.766926
0.766833
0.766973
0.766931
0.766976
0.766988
0.766979
0.766981
0.76699
0.766989
0.76699
0.76699
0.76699
0.76699
0.76699
0.76699
0.76699
0.76699
0.76699
0.76699
0.76699
0.76699
0.76699
0.76699
0.76699
0.76699
0.76699
0.76699
0.76699
0.76699
0.76699
0.76699
0.76699
0.766987
0.766975
0.766941
0.766885
0.766826
0.766788
0.766784
0.766811
0.766839
0.766829
0.766759
0.766644
0.766511
0.766504
0.766418
0.766552
0.766461
0.766629
0.766526
0.766726
0.766615
0.766836
0.766723
0.766938
0.766845
0.766946
0.766984
0.766955
0.766963
0.766989
0.766986
0.76699
0.76699
0.76699
0.76699
0.76699
0.76699
0.76699
0.76699
0.76699
0.76699
0.76699
0.76699
0.76699
0.76699
0.76699
0.76699
0.76699
0.76699
0.76699
0.76699
0.76699
0.76699
0.76699
0.766987
0.766969
0.766918
0.766832
0.766745
0.76669
0.76668
0.76671
0.766746
0.766736
0.766654
0.76652
0.766382
0.766361
0.766306
0.76638
0.766314
0.76643
0.766346
0.766507
0.766406
0.766606
0.766492
0.766725
0.766602
0.766859
0.766732
0.766877
0.76697
0.766897
0.766916
0.766987
0.766977
0.766989
0.76699
0.766989
0.76699
0.76699
0.76699
0.76699
0.76699
0.76699
0.76699
0.76699
0.76699
0.76699
0.76699
0.76699
0.76699
0.76699
0.76699
0.76699
0.76699
0.76699
0.76699
0.76699
0.766987
0.766966
0.766899
0.76678
0.766658
0.766583
0.766566
0.766596
0.766638
0.766637
0.76655
0.766426
0.76633
0.76628
0.76627
0.766267
0.76624
0.766278
0.766229
0.766319
0.766248
0.766388
0.766297
0.766482
0.766373
0.766601
0.766475
0.766744
0.766603
0.76676
0.766933
0.766781
0.766809
0.766982
0.76695
0.766986
0.76699
0.766988
0.766989
0.76699
0.76699
0.76699
0.76699
0.76699
0.76699
0.76699
0.76699
0.76699
0.76699
0.76699
0.76699
0.76699
0.76699
0.76699
0.76699
0.76699
0.76699
0.76699
0.766987
0.766966
0.766888
0.766739
0.766581
0.76647
0.766432
0.766455
0.766499
0.766505
0.766442
0.766378
0.766336
0.766277
0.766296
0.766234
0.766247
0.766202
0.766198
0.766195
0.766163
0.766221
0.766163
0.766278
0.766198
0.766359
0.766259
0.766469
0.766346
0.76661
0.766464
0.766619
0.766845
0.766633
0.766655
0.766966
0.766886
0.766977
0.76699
0.766985
0.766989
0.76699
0.76699
0.76699
0.76699
0.76699
0.76699
0.76699
0.76699
0.76699
0.76699
0.76699
0.76699
0.76699
0.76699
0.76699
0.76699
0.76699
0.76699
0.76699
0.766988
0.766967
0.766886
0.766716
0.766518
0.76638
0.766328
0.766328
0.766352
0.766366
0.766356
0.766348
0.766341
0.766345
0.766274
0.766317
0.766209
0.766244
0.766155
0.766164
0.766124
0.766108
0.766134
0.766086
0.766174
0.766104
0.766239
0.766148
0.766332
0.766218
0.766461
0.766318
0.766461
0.766692
0.766465
0.76648
0.766922
0.766752
0.766954
0.76699
0.766976
0.766987
0.76699
0.76699
0.76699
0.76699
0.76699
0.76699
0.76699
0.76699
0.76699
0.76699
0.76699
0.76699
0.76699
0.76699
0.76699
0.76699
0.76699
0.76699
0.76699
0.766989
0.766971
0.766889
0.766712
0.766486
0.766338
0.766281
0.766268
0.766276
0.766291
0.766304
0.766313
0.766343
0.766405
0.766417
0.766482
0.766298
0.766358
0.766198
0.766259
0.766111
0.766134
0.766058
0.766053
0.766049
0.766009
0.766073
0.766012
0.76612
0.76604
0.766194
0.76609
0.766304
0.766171
0.766295
0.766514
0.76629
0.7663
0.766829
0.766571
0.7669
0.76699
0.766953
0.766982
0.76699
0.76699
0.76699
0.76699
0.76699
0.76699
0.76699
0.76699
0.76699
0.76699
0.76699
0.76699
0.76699
0.76699
0.76699
0.76699
0.76699
0.76699
0.76699
0.766989
0.766978
0.766901
0.766717
0.76648
0.766335
0.766277
0.766256
0.766254
0.766262
0.766278
0.766305
0.766356
0.766462
0.766534
0.766591
0.766493
0.766568
0.766334
0.766414
0.766192
0.766272
0.766063
0.766105
0.765989
0.76599
0.765962
0.765928
0.765973
0.765918
0.766005
0.765936
0.766061
0.765974
0.766149
0.766037
0.766135
0.766331
0.766136
0.766151
0.766667
0.766391
0.766794
0.76699
0.766907
0.766973
0.76699
0.76699
0.76699
0.76699
0.76699
0.76699
0.76699
0.76699
0.76699
0.76699
0.76699
0.76699
0.76699
0.76699
0.76699
0.76699
0.76699
0.76699
0.76699
0.76699
0.766983
0.766925
0.766739
0.766494
0.766352
0.76629
0.766268
0.766269
0.766278
0.766294
0.766329
0.7664
0.766529
0.766635
0.766684
0.766639
0.766706
0.766545
0.766629
0.766363
0.766456
0.766181
0.766273
0.766009
0.766067
0.765915
0.76592
0.765874
0.765846
0.765878
0.765829
0.765905
0.765848
0.765957
0.765896
0.76603
0.76596
0.766037
0.766182
0.766056
0.766082
0.766485
0.766235
0.766639
0.766989
0.76684
0.766963
0.76699
0.76699
0.76699
0.76699
0.76699
0.76699
0.76699
0.76699
0.766989
0.766989
0.766989
0.766989
0.766989
0.766989
0.766989
0.76699
0.76699
0.76699
0.76699
0.766987
0.766949
0.766787
0.766532
0.7664
0.766333
0.766319
0.766338
0.76636
0.766381
0.766419
0.766502
0.766657
0.766837
0.766768
0.766835
0.766709
0.766784
0.76656
0.766646
0.766371
0.766468
0.766156
0.766257
0.765949
0.766019
0.76584
0.765851
0.765792
0.765777
0.765801
0.765764
0.765845
0.7658
0.765907
0.765862
0.765979
0.765933
0.766004
0.766112
0.766037
0.766073
0.766329
0.766151
0.766486
0.766989
0.766762
0.766938
0.76699
0.76699
0.76699
0.76699
0.76699
0.76699
0.766989
0.766988
0.766987
0.766986
0.766986
0.766987
0.766988
0.766988
0.766989
0.766989
0.76699
0.76699
0.766988
0.766968
0.766842
0.766592
0.766456
0.766404
0.766431
0.766504
0.766576
0.766618
0.76665
0.766719
0.766817
0.76691
0.76693
0.766962
0.76685
0.766904
0.766727
0.766804
0.766547
0.766632
0.766359
0.766456
0.766113
0.766215
0.765896
0.765979
0.765785
0.765816
0.765747
0.765751
0.765764
0.765742
0.76582
0.765783
0.765893
0.765853
0.76597
0.765941
0.766022
0.766104
0.766079
0.766134
0.766218
0.76613
0.76635
0.76698
0.766611
0.766842
0.766989
0.76699
0.76699
0.76699
0.76699
0.766989
0.766987
0.766984
0.766981
0.76698
0.766981
0.766983
0.766985
0.766987
0.766988
0.766989
0.766989
0.766989
0.76698
0.766895
0.766666
0.766508
0.766466
0.766538
0.766662
0.766766
0.766824
0.766855
0.766884
0.766922
0.76696
0.76698
0.766956
0.766974
0.766872
0.766924
0.766715
0.766797
0.766494
0.766583
0.766314
0.766406
0.766078
0.76618
0.765882
0.765972
0.765772
0.765825
0.765741
0.765764
0.765758
0.765757
0.765816
0.765793
0.765906
0.76587
0.766006
0.765975
0.766081
0.766172
0.766161
0.766218
0.766194
0.766158
0.766154
0.766189
0.766214
0.766836
0.766337
0.766462
0.766989
0.76699
0.76699
0.766989
0.766988
0.766984
0.766978
0.766971
0.766966
0.766966
0.766969
0.766975
0.766981
0.766985
0.766987
0.766989
0.766989
0.766985
0.766937
0.766749
0.766557
0.766515
0.766606
0.76675
0.766839
0.766899
0.766937
0.766957
0.766971
0.766981
0.766987
0.766983
0.766988
0.76696
0.766976
0.766872
0.766927
0.766677
0.766774
0.766471
0.766568
0.76628
0.766377
0.766074
0.766178
0.76591
0.76601
0.765818
0.765901
0.765787
0.76585
0.765797
0.765838
0.765851
0.765862
0.765943
0.765932
0.766061
0.766005
0.766019
0.766136
0.766126
0.766255
0.766238
0.766281
0.766224
0.766218
0.766174
0.766265
0.766164
0.766187
0.766193
0.766246
0.766183
0.766202
0.766192
0.766359
0.766261
0.766219
0.766197
0.76622
0.76628
0.766238
0.766989
0.76699
0.766989
0.766986
0.76698
0.766969
0.766955
0.766941
0.766932
0.766935
0.766948
0.766964
0.766976
0.766983
0.766986
0.766988
0.766986
0.766964
0.76683
0.766615
0.766549
0.766641
0.766773
0.766848
0.766906
0.766951
0.766976
0.766985
0.766988
0.766989
0.766989
0.766989
0.766985
0.766987
0.766961
0.766978
0.766862
0.766925
0.766669
0.766772
0.76648
0.766584
0.766281
0.76638
0.766117
0.766224
0.766001
0.766104
0.765933
0.766016
0.765905
0.765967
0.765907
0.76596
0.765913
0.765928
0.765943
0.765959
0.765996
0.765993
0.765969
0.766
0.765995
0.76605
0.76611
0.766093
0.766037
0.766155
0.766303
0.766301
0.766335
0.766264
0.76625
0.766203
0.766306
0.766233
0.766245
0.766308
0.76622
0.766209
0.766639
0.766218
0.766195
0.76621
0.766205
0.766206
0.766201
0.766989
0.766989
0.766985
0.766975
0.766958
0.766931
0.766904
0.766884
0.76688
0.766894
0.766922
0.766951
0.766971
0.766981
0.766986
0.766986
0.766977
0.766896
0.766691
0.766579
0.766643
0.766764
0.766831
0.766885
0.766938
0.766973
0.766986
0.766989
0.76699
0.76699
0.766989
0.766989
0.766986
0.766988
0.766965
0.76698
0.766865
0.76693
0.766691
0.766799
0.76654
0.766648
0.76633
0.766435
0.766205
0.766301
0.76609
0.766164
0.766011
0.766044
0.765978
0.765958
0.765967
0.765965
0.76595
0.765915
0.765977
0.765982
0.765978
0.766032
0.766029
0.766
0.766013
0.766026
0.766079
0.766137
0.766121
0.766069
0.766182
0.766345
0.766358
0.766377
0.766297
0.766229
0.766276
0.766341
0.766304
0.766291
0.766367
0.766272
0.766252
0.766337
0.766179
0.76618
0.766235
0.766225
0.766215
0.766206
0.766988
0.766983
0.76697
0.766944
0.766904
0.766859
0.766825
0.766813
0.766825
0.766855
0.766897
0.766939
0.766967
0.766979
0.766985
0.766982
0.76694
0.766776
0.766617
0.766636
0.766742
0.766792
0.766836
0.766892
0.766952
0.766984
0.766989
0.76699
0.76699
0.76699
0.76699
0.766989
0.766989
0.766986
0.766988
0.766971
0.766982
0.76689
0.766946
0.766754
0.766846
0.766588
0.766687
0.766395
0.76649
0.766238
0.766314
0.766071
0.766095
0.765905
0.765839
0.76587
0.765806
0.765742
0.765668
0.765957
0.765916
0.765856
0.76578
0.765992
0.765967
0.765923
0.766059
0.766043
0.765986
0.765975
0.766016
0.766105
0.766162
0.76614
0.766086
0.766205
0.766379
0.766401
0.766409
0.766323
0.766249
0.766296
0.766367
0.766363
0.766347
0.766412
0.766324
0.766299
0.766153
0.766177
0.766146
0.766275
0.766256
0.766238
0.766222
0.766983
0.766966
0.766931
0.766874
0.766812
0.766763
0.766742
0.766749
0.766779
0.766826
0.76688
0.766931
0.766964
0.76698
0.766982
0.766964
0.766854
0.766674
0.766633
0.76671
0.766755
0.766787
0.766837
0.766911
0.766977
0.766988
0.76699
0.76699
0.76699
0.76699
0.76699
0.766989
0.766989
0.766986
0.766988
0.766972
0.766982
0.766912
0.766952
0.766779
0.766857
0.76657
0.76666
0.766394
0.76648
0.766126
0.76617
0.765787
0.765757
0.765605
0.765541
0.765366
0.765692
0.765598
0.765507
0.765424
0.765858
0.765772
0.765669
0.765558
0.765943
0.765877
0.765786
0.766057
0.766017
0.765913
0.765879
0.765961
0.766111
0.766177
0.76614
0.766072
0.766217
0.766403
0.766429
0.76643
0.766342
0.766261
0.766308
0.766383
0.766409
0.766391
0.766437
0.766363
0.766332
0.766136
0.766189
0.766134
0.766303
0.766277
0.766251
0.766227
0.766963
0.76692
0.766848
0.766766
0.766703
0.766672
0.766675
0.766704
0.766752
0.766811
0.766874
0.766929
0.766966
0.766979
0.766973
0.766911
0.766746
0.76664
0.766683
0.766722
0.766742
0.766784
0.766863
0.766958
0.766986
0.766989
0.76699
0.76699
0.76699
0.76699
0.76699
0.76699
0.766989
0.76699
0.766985
0.766987
0.766966
0.766978
0.766912
0.766946
0.766743
0.766813
0.766394
0.766487
0.766228
0.766305
0.765757
0.76579
0.765335
0.765366
0.765357
0.765319
0.765164
0.765134
0.765446
0.765342
0.765253
0.765185
0.765675
0.765551
0.765422
0.765299
0.765824
0.76571
0.765576
0.76602
0.765947
0.765768
0.765712
0.765844
0.766092
0.766175
0.76612
0.766029
0.766216
0.766415
0.766443
0.766436
0.76635
0.766261
0.766305
0.766387
0.766431
0.766412
0.766444
0.766382
0.766348
0.766194
0.766189
0.766122
0.766314
0.76628
0.766249
0.766216
0.766912
0.766827
0.766728
0.766648
0.766612
0.766614
0.766641
0.766686
0.766744
0.766812
0.766878
0.766932
0.766969
0.766974
0.766945
0.76682
0.766673
0.766669
0.766694
0.766705
0.766737
0.766809
0.76692
0.76698
0.766989
0.76699
0.76699
0.76699
0.76699
0.76699
0.76699
0.76699
0.766989
0.76699
0.766981
0.766987
0.766945
0.766968
0.766867
0.766911
0.766579
0.766667
0.766046
0.766163
0.765851
0.765939
0.765432
0.765499
0.765196
0.765243
0.76533
0.765282
0.765139
0.765124
0.765154
0.7651
0.765192
0.765108
0.765049
0.765021
0.765435
0.765295
0.76517
0.765066
0.765632
0.765481
0.765327
0.765937
0.765813
0.765557
0.765489
0.76566
0.766048
0.766157
0.766079
0.765943
0.766201
0.766414
0.766444
0.766431
0.766346
0.766246
0.766291
0.76638
0.766434
0.766411
0.766439
0.76638
0.766343
0.766496
0.766139
0.766145
0.766304
0.766266
0.766228
0.766178
0.766813
0.766696
0.766604
0.766569
0.766571
0.766595
0.766634
0.766687
0.766752
0.766822
0.766888
0.766942
0.76697
0.76696
0.76688
0.76673
0.76667
0.766675
0.766677
0.766697
0.766756
0.766868
0.766968
0.766987
0.76699
0.76699
0.76699
0.76699
0.76699
0.76699
0.76699
0.76699
0.76699
0.766989
0.76699
0.766975
0.766985
0.766901
0.766949
0.766752
0.766832
0.76629
0.766426
0.765775
0.765899
0.765573
0.765666
0.765407
0.765478
0.765214
0.765279
0.765389
0.76534
0.765027
0.765057
0.765236
0.765144
0.76499
0.764946
0.764939
0.764958
0.765184
0.765061
0.764964
0.764899
0.765393
0.765233
0.765089
0.765799
0.765624
0.765315
0.765249
0.765434
0.765966
0.76612
0.766002
0.76581
0.766165
0.766403
0.766433
0.766411
0.766329
0.766211
0.766254
0.766357
0.766422
0.766394
0.76642
0.766356
0.766314
0.766813
0.766102
0.766261
0.766271
0.76623
0.766185
0.766132
0.766674
0.766573
0.766539
0.766543
0.766565
0.766601
0.766649
0.766707
0.766773
0.766841
0.766905
0.766956
0.766962
0.76692
0.766791
0.766682
0.766668
0.766658
0.766665
0.766711
0.766815
0.766942
0.766984
0.766989
0.76699
0.76699
0.76699
0.76699
0.76699
0.76699
0.76699
0.76699
0.76699
0.766988
0.766989
0.766965
0.766982
0.766831
0.766918
0.766568
0.766709
0.766043
0.76621
0.765728
0.765846
0.765544
0.765628
0.765593
0.765628
0.765647
0.765665
0.76533
0.765418
0.765551
0.765493
0.765004
0.765064
0.76538
0.765254
0.764872
0.764873
0.764904
0.764957
0.764971
0.764885
0.76483
0.764815
0.765152
0.765011
0.7649
0.765617
0.765406
0.765084
0.765031
0.765204
0.765839
0.766048
0.765881
0.765637
0.766095
0.76637
0.766401
0.766361
0.766288
0.766143
0.766182
0.766304
0.766391
0.766351
0.76637
0.766306
0.766261
0.766842
0.766094
0.766389
0.76622
0.766184
0.766141
0.766087
0.766551
0.766521
0.766525
0.766548
0.766589
0.766636
0.766686
0.766742
0.766803
0.766868
0.766927
0.766959
0.766941
0.766846
0.766716
0.76667
0.76665
0.766643
0.766674
0.766764
0.7669
0.766977
0.766989
0.76699
0.76699
0.76699
0.76699
0.76699
0.76699
0.76699
0.76699
0.76699
0.76699
0.76699
0.766988
0.766989
0.766957
0.766981
0.766759
0.76689
0.766394
0.766585
0.765989
0.76616
0.765863
0.765965
0.765678
0.765699
0.765791
0.765788
0.765809
0.76582
0.765823
0.765502
0.765609
0.765751
0.765692
0.765036
0.765136
0.765539
0.76538
0.764819
0.764853
0.764908
0.76499
0.764822
0.76478
0.764769
0.764774
0.764948
0.764844
0.764774
0.765412
0.765194
0.764897
0.764863
0.765006
0.765674
0.765932
0.765725
0.765443
0.765985
0.766299
0.766331
0.766273
0.766206
0.766032
0.766069
0.76621
0.766327
0.766281
0.766288
0.766235
0.766194
0.76684
0.766112
0.766505
0.766161
0.766134
0.766099
0.766064
0.766507
0.766515
0.766546
0.766591
0.766637
0.766685
0.766734
0.766786
0.766841
0.766898
0.766946
0.766947
0.766888
0.766764
0.766678
0.766649
0.76663
0.766647
0.766722
0.766852
0.766965
0.766987
0.76699
0.76699
0.76699
0.76699
0.76699
0.76699
0.76699
0.76699
0.76699
0.76699
0.76699
0.76699
0.766987
0.766989
0.766957
0.766981
0.766742
0.766886
0.766352
0.766553
0.766095
0.766249
0.766177
0.766265
0.765823
0.76582
0.76606
0.76603
0.766002
0.766016
0.76602
0.766019
0.765689
0.765814
0.765967
0.765905
0.765097
0.765229
0.765678
0.765485
0.764805
0.764855
0.764926
0.765023
0.76474
0.764732
0.764737
0.764763
0.764799
0.764736
0.764708
0.765211
0.76501
0.764764
0.764746
0.764854
0.765489
0.765784
0.765549
0.765251
0.765839
0.766193
0.766233
0.766158
0.766086
0.765888
0.765924
0.766083
0.76624
0.766192
0.766183
0.766151
0.76612
0.766939
0.766166
0.766679
0.7661
0.766088
0.766063
0.766055
0.766507
0.766549
0.766602
0.76665
0.766693
0.766738
0.766785
0.766833
0.766882
0.766928
0.766946
0.766911
0.76681
0.766703
0.766651
0.766624
0.766629
0.766689
0.766808
0.766946
0.766985
0.76699
0.76699
0.76699
0.76699
0.76699
0.76699
0.76699
0.76699
0.76699
0.76699
0.76699
0.76699
0.76699
0.766987
0.766989
0.766963
0.766982
0.766775
0.766903
0.76642
0.766601
0.766365
0.766485
0.766213
0.766475
0.766502
0.766534
0.766582
0.766017
0.766019
0.766215
0.766211
0.766224
0.766228
0.766227
0.76586
0.766004
0.766178
0.766109
0.765148
0.765303
0.765783
0.765569
0.764806
0.764866
0.764949
0.765058
0.764702
0.764706
0.764728
0.764764
0.764705
0.764682
0.764677
0.765035
0.764863
0.764686
0.764673
0.764742
0.765302
0.765609
0.765363
0.765075
0.76567
0.76606
0.76611
0.766018
0.765939
0.765724
0.765761
0.765934
0.766132
0.766089
0.766057
0.76606
0.766045
0.766981
0.766258
0.766849
0.766042
0.766047
0.766032
0.766061
0.766555
0.766622
0.766676
0.766718
0.766754
0.766792
0.766835
0.76688
0.766919
0.76694
0.766918
0.766843
0.766738
0.76666
0.766624
0.766618
0.766665
0.766773
0.76692
0.76698
0.766989
0.76699
0.76699
0.76699
0.76699
0.76699
0.76699
0.76699
0.76699
0.76699
0.76699
0.76699
0.76699
0.76699
0.76699
0.766988
0.766989
0.766973
0.766984
0.766864
0.766941
0.766611
0.766741
0.766692
0.766746
0.76646
0.766659
0.766669
0.766681
0.766688
0.766223
0.76622
0.766451
0.766393
0.766414
0.766425
0.766432
0.765988
0.766156
0.766354
0.766276
0.765197
0.765368
0.76588
0.765646
0.764814
0.764882
0.764972
0.76509
0.76468
0.764698
0.764728
0.764769
0.764662
0.764656
0.764658
0.764886
0.764745
0.764645
0.764632
0.764666
0.765125
0.76543
0.765189
0.764917
0.765498
0.765904
0.765967
0.765861
0.765777
0.765554
0.765589
0.765764
0.766011
0.765982
0.76592
0.765969
0.765973
0.766988
0.766401
0.766929
0.765991
0.766011
0.766009
0.766085
0.766632
0.766694
0.766738
0.766773
0.766808
0.766844
0.76688
0.766913
0.766933
0.766918
0.766854
0.766761
0.766678
0.766626
0.766614
0.76665
0.766746
0.766892
0.766974
0.766989
0.76699
0.76699
0.76699
0.76699
0.76699
0.76699
0.76699
0.76699
0.76699
0.76699
0.76699
0.76699
0.76699
0.76699
0.76699
0.766988
0.766989
0.766981
0.766987
0.766939
0.766968
0.76681
0.76688
0.766769
0.766792
0.766806
0.76665
0.766741
0.766743
0.766747
0.766755
0.766438
0.766445
0.76664
0.766531
0.766562
0.766582
0.766599
0.766099
0.766277
0.766482
0.766401
0.765242
0.765428
0.765954
0.765697
0.764825
0.764897
0.764991
0.765113
0.764673
0.764698
0.764732
0.764777
0.764637
0.764638
0.764652
0.764755
0.764662
0.764621
0.764608
0.764619
0.764966
0.765259
0.765015
0.764771
0.765319
0.765735
0.765815
0.76569
0.765591
0.765358
0.765362
0.765573
0.765887
0.765872
0.765776
0.765882
0.765909
0.76699
0.766538
0.766963
0.765949
0.765979
0.765992
0.76612
0.766691
0.766737
0.766773
0.766807
0.766841
0.766874
0.766903
0.766922
0.766912
0.766853
0.766766
0.766687
0.766633
0.766614
0.766643
0.766729
0.766869
0.766967
0.766988
0.76699
0.76699
0.76699
0.76699
0.76699
0.76699
0.76699
0.76699
0.76699
0.76699
0.76699
0.76699
0.76699
0.76699
0.76699
0.76699
0.766988
0.766989
0.766983
0.766987
0.766951
0.766973
0.76685
0.766907
0.766741
0.766759
0.76667
0.766711
0.766739
0.766739
0.766734
0.76673
0.766732
0.766614
0.766628
0.766736
0.766636
0.766671
0.766696
0.766714
0.766198
0.766386
0.766588
0.76651
0.765269
0.765464
0.765984
0.765714
0.764835
0.764908
0.765001
0.765121
0.764675
0.764703
0.76474
0.764785
0.76462
0.764631
0.764654
0.764659
0.764612
0.764607
0.764598
0.764601
0.764789
0.765052
0.764807
0.764663
0.765073
0.765524
0.765642
0.765473
0.765347
0.765073
0.765062
0.765295
0.765754
0.765766
0.765614
0.765801
0.765854
0.76699
0.766656
0.766969
0.76591
0.765949
0.765981
0.766147
0.76672
0.766757
0.76679
0.766824
0.766855
0.766881
0.766899
0.766893
0.766841
0.766761
0.766687
0.766636
0.766617
0.766643
0.766722
0.766854
0.76696
0.766987
0.76699
0.76699
0.76699
0.76699
0.76699
0.76699
0.76699
0.76699
0.76699
0.76699
0.76699
0.76699
0.76699
0.76699
0.76699
0.76699
0.76699
0.76699
0.766989
0.766989
0.766981
0.766987
0.766916
0.766962
0.766734
0.766834
0.766607
0.76663
0.76648
0.766551
0.766745
0.766654
0.766634
0.766615
0.766607
0.766724
0.766732
0.766749
0.766709
0.766733
0.766747
0.766753
0.766248
0.766463
0.766669
0.766601
0.765277
0.765475
0.765985
0.765711
0.764842
0.764912
0.765003
0.765118
0.76468
0.764711
0.764748
0.764792
0.764615
0.764635
0.764661
0.764617
0.764602
0.764601
0.764602
0.764595
0.764665
0.76482
0.764679
0.764628
0.764833
0.765253
0.765446
0.765237
0.765039
0.764835
0.764846
0.765035
0.765625
0.765664
0.765454
0.765731
0.765802
0.766988
0.766662
0.766945
0.765874
0.765919
0.765968
0.766139
0.76673
0.766757
0.766784
0.766808
0.766829
0.766843
0.76684
0.766802
0.766741
0.76668
0.766639
0.766622
0.766647
0.766723
0.76685
0.766956
0.766986
0.76699
0.76699
0.76699
0.76699
0.76699
0.76699
0.76699
0.76699
0.76699
0.76699
0.76699
0.76699
0.76699
0.76699
0.76699
0.76699
0.76699
0.76699
0.76699
0.766989
0.76699
0.766967
0.766985
0.766791
0.766912
0.766419
0.766524
0.766607
0.766417
0.766433
0.766263
0.766333
0.766678
0.766493
0.76646
0.766434
0.76642
0.766753
0.766753
0.766699
0.766731
0.766745
0.766747
0.766746
0.766259
0.766488
0.7667
0.766637
0.765274
0.76547
0.765928
0.765653
0.764844
0.764908
0.764989
0.765093
0.764691
0.764722
0.764755
0.764794
0.76462
0.764646
0.764678
0.764606
0.764594
0.764622
0.764606
0.764595
0.76464
0.764707
0.764666
0.764615
0.764736
0.765047
0.765246
0.765066
0.764876
0.76477
0.764814
0.764904
0.765493
0.765573
0.76529
0.765659
0.765752
0.762128
0.766557
0.766621
0.765835
0.765886
0.765947
0.766093
0.766739
0.766754
0.766766
0.766775
0.766778
0.766771
0.766746
0.766709
0.766673
0.766644
0.766634
0.76666
0.766732
0.766854
0.766955
0.766985
0.76699
0.76699
0.76699
0.76699
0.76699
0.76699
0.76699
0.76699
0.76699
0.76699
0.76699
0.76699
0.76699
0.76699
0.76699
0.76699
0.76699
0.76699
0.76699
0.76699
0.766988
0.76699
0.766935
0.766978
0.766582
0.766812
0.766235
0.766348
0.766299
0.766448
0.766203
0.766217
0.766062
0.766138
0.766527
0.766276
0.766242
0.766217
0.766204
0.766734
0.766719
0.766565
0.766709
0.766707
0.766691
0.766668
0.76622
0.766473
0.766689
0.766632
0.765237
0.765423
0.765763
0.765506
0.764837
0.764887
0.764951
0.765034
0.764708
0.764738
0.764766
0.764798
0.764654
0.764687
0.764716
0.764602
0.764597
0.764624
0.764659
0.764648
0.764645
0.764697
0.764677
0.76462
0.764738
0.764935
0.765103
0.764977
0.764859
0.764779
0.76481
0.764889
0.765378
0.765473
0.765158
0.765587
0.7657
0.742426
0.766219
0.765398
0.765791