/*--------------------------------*- C++ -*----------------------------------*\
  =========                 |
  \\      /  F ield         | OpenFOAM: The Open Source CFD Toolbox
   \\    /   O peration     | Website:  https://openfoam.org
    \\  /    A nd           | Version:  dev
     \\/     M anipulation  |
\*---------------------------------------------------------------------------*/
FoamFile
{
    version     2.0;
    format      ascii;
    class       volScalarField;
    location    "2500";
    object      nut;
}
// * * * * * * * * * * * * * * * * * * * * * * * * * * * * * * * * * * * * * //

dimensions      [0 2 -1 0 0 0 0];

internalField   nonuniform List<scalar> 
9978
(
0.000130437
0.00013444
0.000126645
0.00012287
0.000159155
0.000112055
0.000111987
0.000168527
0.000148253
0.000105918
0.000108488
0.00016434
0.00016831
0.000126456
0.000103843
0.000105246
0.000151705
0.000180604
0.000151993
0.00011453
0.000102534
0.000103321
0.00013542
0.000183784
0.000172541
0.000129697
0.000109227
0.000101616
0.000102774
0.000125483
0.00018134
0.000183129
0.000148807
0.000117387
0.000106302
0.000101204
0.000102525
0.000118117
0.000171991
0.000191164
0.000168571
0.000128448
0.000111633
0.000104256
0.000100911
0.000102303
0.000112783
0.000156968
0.000193464
0.000183521
0.000143133
0.000117745
0.000108051
0.000103
0.000100742
0.000102004
0.000109432
0.000141303
0.00019217
0.000191657
0.000160928
0.000125491
0.000112174
0.000105555
0.000102277
0.000100456
0.000101779
0.000107401
0.000130908
0.000185889
0.000197468
0.000177815
0.000137913
0.000116501
0.000108679
0.000103901
0.000101766
0.000100346
0.000101646
0.000106117
0.000123756
0.000171875
0.000201168
0.000190575
0.000152652
0.000122966
0.000111939
0.000106124
0.000103031
0.000101153
0.000100272
0.000101549
0.000105376
0.000118725
0.000156286
0.000200417
0.000198655
0.000169853
0.000132573
0.000115395
0.000108816
0.000104381
0.000102246
0.000100806
0.000100209
0.000101519
0.000105102
0.000115656
0.000143298
0.000194938
0.000203079
0.000185606
0.000146488
0.000120492
0.000111696
0.000106356
0.000103355
0.000101487
0.000100578
0.000100158
0.000101572
0.000105001
0.000114416
0.000134702
0.000182382
0.00020758
0.000197552
0.000161588
0.000128796
0.000114521
0.000108817
0.000104642
0.000102432
0.000100996
0.000100411
0.000100115
0.000101656
0.000104962
0.000113709
0.000129519
0.000166956
0.000206951
0.000205005
0.000178827
0.000140493
0.000118545
0.000111405
0.000106473
0.000103522
0.000101642
0.000100647
0.000100283
0.000100079
0.000101709
0.000104939
0.000112924
0.000126541
0.000153222
0.000201973
0.000210075
0.000193665
0.000155576
0.000125664
0.000113642
0.00010877
0.000104824
0.000102573
0.000101045
0.000100375
0.000100199
0.000100048
0.000101699
0.000104931
0.000112299
0.00012485
0.000143948
0.000190074
0.000214557
0.000205576
0.000171298
0.000136038
0.000117307
0.000110995
0.000106567
0.000103709
0.000101792
0.000100583
0.000100168
0.000100137
0.000100021
0.00010167
0.000104975
0.000111922
0.00012361
0.000137968
0.000174421
0.000213747
0.000212462
0.000188726
0.000149885
0.000122927
0.000113081
0.000108665
0.000105002
0.000102754
0.000101113
0.000100246
0.000100021
0.000100084
9.99995e-05
0.000101627
0.000105068
0.000111726
0.000122576
0.000134597
0.000160953
0.000208617
0.00021838
0.000203156
0.000165756
0.000132931
0.000116075
0.000110596
0.000106602
0.000103835
0.000101997
0.000100561
0.000100005
9.99296e-05
0.000100034
9.99854e-05
0.000101574
0.000105199
0.000111695
0.000121587
0.000132771
0.000151353
0.000196447
0.000222413
0.000214774
0.000182339
0.000144872
0.000121661
0.000112405
0.000108426
0.000105077
0.000102855
0.000101315
0.000100126
9.98411e-05
9.98815e-05
9.99805e-05
9.9976e-05
0.000101521
0.00010517
0.00011182
0.000120609
0.000131619
0.000145023
0.00018039
0.000221036
0.00022119
0.00019989
0.00016072
0.000129846
0.000115554
0.00010999
0.000106594
0.000103907
0.000102063
0.000100718
9.98166e-05
9.97084e-05
9.98349e-05
9.99311e-05
9.99783e-05
0.000101458
0.000104974
0.000111984
0.000119885
0.000130704
0.000141308
0.000166737
0.00021546
0.000227911
0.000213991
0.000177065
0.000141909
0.000120537
0.000112017
0.000108124
0.000105173
0.000102929
0.000101355
0.000100228
9.96398e-05
9.96423e-05
9.9772e-05
9.9867e-05
9.99801e-05
0.000100945
0.000104337
0.000111806
0.000119603
0.00012936
0.000139667
0.000157334
0.000202378
0.000231162
0.000225114
0.000194622
0.0001555
0.00012842
0.000115231
0.000109612
0.000106594
0.000104038
0.000102125
0.000100757
9.98183e-05
9.95121e-05
9.96402e-05
9.97343e-05
9.98048e-05
9.99694e-05
0.000100653
0.000102763
0.000110615
0.00011915
0.000127904
0.00013922
0.000151302
0.000185396
0.000228863
0.000231057
0.000212151
0.000172637
0.000138476
0.000120202
0.000111992
0.000107884
0.000105355
0.000103133
0.000101464
0.000100269
9.95555e-05
9.94647e-05
9.96464e-05
9.96878e-05
9.97529e-05
9.99496e-05
0.000101459
0.000104041
0.000107508
0.000117664
0.000127315
0.000138372
0.000148185
0.000171962
0.000222881
0.000238474
0.000225673
0.000189291
0.000152022
0.00012702
0.000115475
0.000109641
0.000106542
0.000104394
0.000102453
0.000100919
9.98862e-05
9.94165e-05
9.94989e-05
9.96908e-05
9.968e-05
9.97314e-05
9.99434e-05
0.000101985
0.000114688
0.000115398
0.000116371
0.000126061
0.000137828
0.000147479
0.00016347
0.000209301
0.000241366
0.000236324
0.000207691
0.000166875
0.000136305
0.000120234
0.000112489
0.000107865
0.000105502
0.000103675
0.000101973
0.000100562
9.96641e-05
9.93604e-05
9.95111e-05
9.96691e-05
9.96587e-05
9.97301e-05
9.99569e-05
0.000101517
0.000112033
0.000147308
0.000130096
0.000125166
0.000137664
0.000147594
0.000158198
0.000191246
0.000238036
0.000242429
0.000224967
0.000184968
0.000148122
0.00012639
0.000116348
0.000110317
0.000106601
0.000104698
0.000103137
0.000101657
0.000100455
9.96919e-05
9.94414e-05
9.95342e-05
9.95768e-05
9.95306e-05
9.96587e-05
9.9958e-05
0.000101023
0.00010583
0.000137765
0.000178241
0.000139944
0.000137582
0.000148478
0.000156414
0.000178475
0.000232124
0.000250731
0.000238434
0.000202064
0.000162881
0.000134908
0.000120739
0.000113795
0.00010867
0.000105701
0.000104066
0.000102704
0.000101532
0.000100615
9.9996e-05
9.97532e-05
9.96637e-05
9.95558e-05
9.94595e-05
9.95613e-05
9.98988e-05
0.00010061
0.000103632
0.000115476
0.000176512
0.000198484
0.000148853
0.000149844
0.00015695
0.000171049
0.00021889
0.000254065
0.000249277
0.000221424
0.000179088
0.00014569
0.000126949
0.000117663
0.000112137
0.000107633
0.000105098
0.000103586
0.000102429
0.000101595
0.000101032
0.000100654
0.0001004
0.000100171
9.99222e-05
9.9664e-05
9.95824e-05
9.97738e-05
0.000100562
0.000101543
0.000106408
0.000135678
0.000209309
0.000200117
0.000157497
0.000158581
0.000167907
0.000198787
0.000249959
0.000256449
0.000238954
0.000198098
0.000159105
0.000134831
0.000122742
0.000116175
0.000111304
0.00010722
0.000104819
0.000103316
0.000102353
0.000101866
0.000101673
0.000101502
0.000101227
0.000100922
0.000100558
0.000100175
9.98511e-05
9.97262e-05
0.000100314
0.000100886
0.000104237
0.000113535
0.000179067
0.000237313
0.000195538
0.000163871
0.000168154
0.000188158
0.000244253
0.000266076
0.00025332
0.000215973
0.00017534
0.000145178
0.000129121
0.00012096
0.000115693
0.000111168
0.000107394
0.000104981
0.00010341
0.000102609
0.000102405
0.000102373
0.00010214
0.000101722
0.000101373
0.000101159
0.00010088
0.000100389
9.99101e-05
0.000100103
0.000100713
0.000101907
0.000106403
0.000130911
0.000225238
0.00025519
0.000184605
0.000171377
0.000183308
0.000230579
0.000270255
0.000265155
0.000236707
0.000193254
0.000157999
0.000137544
0.000127387
0.000120909
0.000116258
0.000112126
0.000108598
0.000105834
0.00010416
0.000103489
0.000103334
0.00010321
0.00010297
0.00010242
0.000101892
0.000101698
0.000101409
0.000100784
9.99955e-05
9.99775e-05
0.000100545
0.000100602
0.000104778
0.000112925
0.000163163
0.00026236
0.0002504
0.00018288
0.00018302
0.000212423
0.000265802
0.000274681
0.000255701
0.000213367
0.000173929
0.00014802
0.000135485
0.000127894
0.000122363
0.000117956
0.000113994
0.000110722
0.000107579
0.000105832
0.000105213
0.000105342
0.000105756
0.000105551
0.000104178
0.000102814
0.000102181
0.000101627
0.000100506
0.000100896
9.99418e-05
0.000100487
0.00010009
9.99408e-05
0.00010033
0.00010011
0.000103648
0.000107541
0.000130133
0.00023748
0.000289718
0.000230095
0.000188098
0.000203288
0.000260796
0.000285978
0.000272049
0.000232877
0.00019194
0.000161502
0.000145517
0.00013653
0.000130936
0.000125918
0.000121257
0.00011702
0.000113694
0.000110451
0.000108538
0.000108088
0.00010831
0.000108393
0.000107484
0.000105385
0.000103903
0.000103342
0.00010161
0.000102738
0.000100839
9.99389e-05
0.000100408
0.000100104
9.99734e-05
0.000100158
9.98858e-05
0.000102311
0.000105938
0.000115435
0.000167569
0.000287691
0.000285746
0.000203345
0.000201631
0.000248934
0.000291717
0.000286042
0.000255649
0.000211987
0.000177752
0.000158815
0.000148743
0.000142829
0.000138143
0.000132915
0.000127176
0.000121866
0.000117352
0.000113891
0.00011212
0.000111572
0.000111331
0.000110613
0.000108622
0.000106484
0.000104813
0.000106003
0.000103608
0.000104954
0.000104162
0.000101809
0.000102929
0.000100828
9.9942e-05
0.000100348
0.000100115
0.000100051
0.000100093
9.97589e-05
0.000101568
0.000105234
0.000110171
0.000138906
0.000259514
0.000315729
0.000262591
0.000207735
0.000230167
0.000288242
0.000298638
0.000278128
0.000233289
0.000196234
0.000175284
0.000164984
0.000160054
0.000155855
0.000149832
0.000141238
0.000132974
0.000126187
0.000121138
0.000117799
0.000115969
0.000114398
0.000112324
0.000108967
0.000104523
0.000106772
0.000105713
0.000105621
0.00010349
0.000104557
0.000103783
0.000102018
0.000102799
0.000100861
9.99485e-05
0.000100314
0.000100124
0.000100111
0.000100111
9.976e-05
0.000101457
0.000104708
0.000108223
0.000124529
0.000195783
0.000313678
0.000310483
0.0002257
0.000227112
0.000283182
0.000311963
0.000296921
0.000256029
0.00021606
0.000192088
0.000183597
0.000180913
0.000177914
0.00017035
0.000157777
0.000145107
0.000134804
0.000128007
0.000123747
0.000121125
0.000118633
0.000116855
0.000114881
0.000107294
9.919e-05
8.84147e-05
0.000104521
9.726e-05
0.000103347
0.000103059
0.000102752
0.00010235
0.000101975
0.000102375
0.000100888
9.99654e-05
0.000100303
0.000100136
0.000100173
0.000100119
0.000100006
0.000101889
0.000104398
0.000107364
0.000119006
0.000160499
0.000293824
0.000335736
0.000282692
0.000233133
0.000270673
0.000319346
0.000313598
0.000281681
0.000238198
0.000207776
0.000200549
0.000202962
0.000202821
0.000192608
0.000178479
0.000161827
0.000149228
0.000139288
0.000133062
0.000132154
0.000138537
0.000147737
0.000156305
0.000159039
9.42472e-05
0.000147865
8.48787e-05
8.79754e-05
9.63054e-05
8.41213e-05
9.64639e-05
0.000102044
9.71842e-05
9.8194e-05
0.000101626
0.000101645
0.000100759
9.99945e-05
0.000100303
0.000100163
0.000100255
0.00010022
0.000100748
0.000102755
0.000104425
0.000107294
0.000117631
0.000147762
0.000254239
0.000337248
0.000326816
0.000250706
0.000260308
0.000316942
0.000329553
0.00030787
0.000262017
0.000222985
0.000214011
0.000223726
0.000230849
0.000231518
0.000225477
0.000221805
0.00020384
0.000180233
0.000164124
0.000164333
0.000180179
0.0002086
0.000274577
0.000330669
0.000245554
0.000361377
0.000145349
0.000255888
8.63147e-05
0.000144821
8.41215e-05
8.42105e-05
8.50264e-05
9.90323e-05
8.69544e-05
8.94373e-05
0.00010113
9.96569e-05
0.000100584
0.000100046
0.000100305
0.000100156
0.000100329
0.000100573
0.000101983
0.0001039
0.000104973
0.000108247
0.000118451
0.000144598
0.00022529
0.000331402
0.000348007
0.000295986
0.000264448
0.000312268
0.000343228
0.000328836
0.000288303
0.000238953
0.000225151
0.000242444
0.000264471
0.000285274
0.000317401
0.000344245
0.000361576
0.00034268
0.000305572
0.000285391
0.000304757
0.000381799
0.000464372
0.000499214
0.000425602
0.00050487
0.000355698
0.00043182
0.000255446
0.000349694
0.000138468
0.000248583
8.21709e-05
0.000126888
8.15723e-05
9.20492e-05
8.28578e-05
8.31157e-05
9.99243e-05
9.45144e-05
0.000100095
0.000100084
0.000100118
0.000100114
0.000100316
0.000101332
0.000103638
0.000105172
0.000106435
0.000111154
0.000122332
0.000145857
0.000216227
0.000316422
0.000356129
0.00033593
0.000280705
0.000302599
0.0003519
0.000347422
0.000316071
0.000257742
0.000234675
0.000258381
0.000300157
0.000354468
0.000414988
0.000485215
0.000531903
0.000537546
0.000512463
0.000492535
0.000510121
0.000561026
0.000600099
0.000608938
0.000539218
0.000595047
0.000488115
0.000532219
0.000422415
0.000476263
0.000340843
0.000411501
0.00023703
0.000329003
0.000112709
0.000220807
0.000100689
8.38498e-05
9.22062e-05
8.63773e-05
9.66396e-05
8.60095e-05
9.81978e-05
0.000100073
9.93375e-05
9.98642e-05
0.000100454
0.000102657
0.00010543
0.000106609
0.000109235
0.000116867
0.000131429
0.000153871
0.000219051
0.000309572
0.000360738
0.000356715
0.000310039
0.000301249
0.000351571
0.000365866
0.000342671
0.000281248
0.000245111
0.000269643
0.000332509
0.000417944
0.000528071
0.000623856
0.000657766
0.000651371
0.000632687
0.000624037
0.000637177
0.000669065
0.000692371
0.000692652
0.000630006
0.00067758
0.000573259
0.000615678
0.000516764
0.000555531
0.000463008
0.000502439
0.000399493
0.000451363
0.000315579
0.000387996
0.000199383
0.000300775
0.000175261
8.41861e-05
0.000149342
0.000122356
8.93273e-05
8.38413e-05
9.31711e-05
9.99408e-05
9.6602e-05
9.88025e-05
0.000100971
0.00010417
0.000107012
0.000108684
0.000113655
0.000125972
0.000144504
0.000176337
0.000235067
0.000311749
0.000363244
0.000369478
0.00034265
0.000311874
0.000348419
0.000379801
0.000365564
0.000310989
0.000258024
0.000277015
0.000356841
0.000473078
0.000629672
0.000708703
0.000711929
0.000710355
0.000681496
0.000669798
0.000671992
0.000699362
0.000729305
0.000760839
0.000715181
0.000758472
0.000657694
0.000699525
0.00059487
0.000633713
0.00053842
0.000572917
0.000489995
0.000522784
0.000441202
0.000479676
0.00037731
0.000432789
0.000283634
0.00036664
0.000264405
0.000104002
0.00024257
0.000212098
8.2585e-05
9.26153e-05
8.42694e-05
9.98035e-05
8.97498e-05
9.56175e-05
0.000101716
0.000105546
0.000108706
0.000111803
0.000120025
0.000139029
0.000164807
0.000213807
0.000269475
0.000320363
0.000368541
0.00038198
0.000366035
0.000335197
0.000345157
0.000386784
0.00038714
0.000344432
0.000272093
0.000279138
0.00036839
0.000515813
0.000698922
0.000753794
0.00075275
0.000713925
0.000681831
0.000670557
0.000681395
0.000719328
0.000775972
0.00081041
0.000782624
0.000815456
0.000734528
0.000764891
0.00067092
0.000703116
0.000605462
0.000636703
0.000551729
0.000577029
0.000509721
0.000533444
0.00047202
0.000499887
0.000426096
0.000466609
0.000354882
0.00042011
0.000342353
0.000176307
0.000326989
0.000306932
8.6684e-05
0.000135297
8.17274e-05
9.93891e-05
7.99738e-05
7.65846e-05
0.000102263
0.000106781
0.000111051
0.000116154
0.000128513
0.000155212
0.000196966
0.000259233
0.000308028
0.000346632
0.00037688
0.000393056
0.000384438
0.000359944
0.000348146
0.000390444
0.000404157
0.000374074
0.00029803
0.000282362
0.000369566
0.000533104
0.000735899
0.000781891
0.000755337
0.000703275
0.000672796
0.000666925
0.000690057
0.000741295
0.000807547
0.000844578
0.000838328
0.000790288
0.000811584
0.00073317
0.000759932
0.000665137
0.000694943
0.000602054
0.000626513
0.000552994
0.000570952
0.000519656
0.000534273
0.000493553
0.00051069
0.000463385
0.000490564
0.000414458
0.00046193
0.000408674
0.000278143
0.000401176
0.000390419
0.000108997
0.000232284
9.12414e-05
3.36807e-05
8.05033e-05
3.89831e-05
0.000102225
0.000107405
0.00011395
0.000121467
0.0001387
0.000174257
0.000237025
0.00030642
0.000351457
0.000381337
0.000398827
0.00040671
0.000401496
0.000384603
0.000363856
0.000389346
0.000416638
0.000399428
0.000333697
0.000289249
0.000365511
0.000532452
0.000751868
0.000795311
0.00074955
0.000674322
0.000658622
0.000663256
0.000700366
0.000764289
0.000845767
0.000859373
0.000840922
0.000754854
0.000727024
0.00077325
0.000769114
0.00071792
0.000721213
0.000652068
0.000669616
0.000589225
0.000608677
0.000546282
0.000557892
0.000521261
0.000528591
0.000506258
0.000514517
0.000490785
0.000506704
0.000461834
0.000493671
0.00046239
0.000370104
0.000462774
0.000460817
0.000175414
0.000339613
0.000125542
1.23849e-05
9.41354e-05
4.15834e-05
0.000101782
0.000107358
0.000116395
0.000127195
0.000149899
0.00019679
0.000281375
0.00035539
0.000398408
0.000420888
0.000431807
0.0004302
0.00042109
0.000406515
0.000388322
0.000391333
0.000426746
0.000426254
0.000372375
0.000302355
0.00035092
0.000520233
0.00075236
0.000801969
0.000724717
0.000654023
0.00064665
0.000664989
0.000723918
0.00080962
0.000860734
0.000876723
0.000828919
0.000692022
0.000647298
0.000637262
0.000581516
0.00071153
0.00068298
0.000671128
0.000659339
0.000622468
0.000625016
0.000570842
0.000582935
0.00053451
0.00054128
0.000519106
0.00052228
0.000515199
0.000520407
0.000512461
0.000524854
0.000499112
0.000524012
0.000507468
0.000453157
0.00051657
0.000524665
0.000284324
0.000433879
0.000207204
6.35506e-06
0.000130085
6.17381e-05
0.000102356
0.000106678
0.000116786
0.000131756
0.000161419
0.000221719
0.000326347
0.000406369
0.000448706
0.000465669
0.000467878
0.000462395
0.000448904
0.000432166
0.000415505
0.000404816
0.000437623
0.000454033
0.000416997
0.000337359
0.000340859
0.000481942
0.000743786
0.000803156
0.000707882
0.000630798
0.000634895
0.00066765
0.000742393
0.000810081
0.000852737
0.000869088
0.000787798
0.00059962
0.000549499
0.000516293
0.000446821
0.000492263
0.000417593
0.00062286
0.000563233
0.000616945
0.000584993
0.000588239
0.000585578
0.000551031
0.000560458
0.000525322
0.000530852
0.000524415
0.00052779
0.000534712
0.000544117
0.000543753
0.000562866
0.000540317
0.000570671
0.000559836
0.000528044
0.000578982
0.000594596
0.000396297
0.00052142
0.000321867
4.69738e-06
0.000202972
8.31716e-05
0.00010922
0.000115344
0.000133213
0.000171698
0.000247858
0.000370179
0.000458607
0.000502076
0.000514816
0.000509506
0.000496933
0.000482264
0.000463887
0.00044726
0.000435703
0.000453131
0.000480738
0.000466893
0.000398041
0.000351368
0.000442491
0.000715376
0.000802655
0.000705297
0.000608644
0.000613853
0.000655067
0.000723615
0.000792279
0.000828689
0.000816076
0.000668516
0.00034587
0.000381307
0.000310914
0.000351477
0.000292022
0.00039792
0.000336297
0.000527551
0.000463352
0.000568799
0.000528717
0.000563486
0.000562092
0.000539798
0.000545083
0.00053245
0.00054045
0.000552401
0.000560014
0.000581546
0.000597906
0.000601827
0.00063122
0.000600998
0.000643972
0.000630306
0.00060172
0.000650087
0.000659968
0.000494885
0.000597654
0.000434469
6.7353e-06
0.000294641
0.000145799
0.000118568
0.000132704
0.000178441
0.000272688
0.000411616
0.000511784
0.000558202
0.000567201
0.000554614
0.000533717
0.000512288
0.00049174
0.000472689
0.000460188
0.00047153
0.000501178
0.00051091
0.000466453
0.000382448
0.00041531
0.000643874
0.000798702
0.000710181
0.000605609
0.000589525
0.000619975
0.000668218
0.000728834
0.000740897
0.000656336
0.000438202
0.000275597
0.000190511
0.000168218
0.000241611
0.000201736
0.000280267
0.0002297
0.000364317
0.000312012
0.000476676
0.000419909
0.000544221
0.000506382
0.000548526
0.000546927
0.000548004
0.000553736
0.000568929
0.000577206
0.000610728
0.000620454
0.000654666
0.000668744
0.000681588
0.000651471
0.000678453
0.00064752
0.000675134
0.000658607
0.000627042
0.000589917
0.000578086
0.000605986
0.00046707
2.52281e-05
0.000309018
0.000233983
0.000138022
0.000182701
0.00029238
0.000450851
0.000565378
0.000617151
0.000622764
0.000603277
0.000572543
0.000538588
0.000507869
0.000484658
0.000470756
0.000476256
0.000505321
0.000533069
0.000524306
0.000443165
0.000414967
0.000560573
0.000784428
0.000728223
0.000616011
0.000589102
0.000599949
0.000621704
0.000610526
0.000535984
0.000419449
0.000317236
0.00022028
0.000146886
0.000143507
0.000135924
0.000187145
0.000157355
0.000262416
0.000215788
0.000353481
0.000304779
0.000458211
0.000405563
0.000525771
0.000490047
0.000557643
0.000549751
0.00058433
0.000588716
0.00062748
0.000633941
0.000655473
0.000654407
0.000615155
0.000590012
0.000598069
0.000559907
0.000598986
0.000554648
0.000562987
0.000545961
0.000521002
0.000457159
0.000567466
0.000523953
0.000564994
0.000486101
0.000428303
0.00024027
0.000334429
0.000290202
0.000185886
0.000312863
0.000484704
0.000620155
0.000678199
0.000682626
0.000656746
0.000618948
0.00057859
0.000542237
0.000508136
0.00048161
0.000470258
0.000491993
0.000525689
0.000545273
0.000518493
0.000449102
0.000499118
0.000747331
0.000757578
0.000626302
0.000602664
0.00061036
0.000614968
0.000563027
0.000422939
0.000320677
0.000248297
0.000182886
0.000139375
0.000129638
0.000125763
0.000132854
0.000128289
0.000175184
0.000146869
0.000258939
0.00021211
0.000358653
0.000315389
0.000447036
0.000402148
0.000526235
0.000492853
0.000583671
0.000564971
0.000633227
0.000621417
0.000674883
0.000666202
0.000582435
0.000593039
0.000541984
0.000533935
0.000516935
0.000493853
0.000510237
0.000453253
0.000530998
0.000545095
0.000445193
0.000427207
0.00050039
0.000426774
0.000491441
0.000420407
0.000419711
0.000447793
0.00048015
0.000441378
0.000449458
0.000459239
0.00040478
0.000418614
0.000405208
0.000488032
0.000365422
0.000415672
0.000376896
0.000357184
0.000247224
0.000327077
0.00031194
0.000521784
0.000670977
0.00074363
0.000745949
0.000717935
0.000681229
0.000651333
0.000620351
0.000582533
0.000537934
0.000495995
0.000474056
0.000497288
0.000527652
0.00053713
0.000487581
0.000474604
0.000661346
0.000767927
0.000647493
0.000616508
0.000633907
0.000641563
0.000582182
0.000414058
0.000281333
0.000215025
0.000164458
0.000135461
0.000125819
0.000122943
0.000125014
0.000122942
0.000129613
0.000126419
0.000168998
0.000140741
0.000266329
0.000214529
0.000368555
0.000317135
0.000454269
0.000413353
0.000535705
0.000498763
0.000598429
0.000565227
0.000642742
0.000610425
0.000633414
0.000634756
0.000548297
0.000584239
0.000500624
0.000476555
0.000518038
0.000491513
0.000498527
0.000439423
0.000449389
0.000453338
0.000489705
0.000426739
0.000495628
0.000429334
0.000466434
0.000455666
0.0004321
0.000432808
0.000417563
0.000431105
0.000425633
0.00044294
0.000419476
0.000423827
0.000440873
0.000426415
0.000405834
0.000398221
0.000226916
0.00018958
0.00025529
0.000418593
0.000392326
0.000386105
0.000351543
0.00053451
0.000732218
0.000806061
0.000817277
0.000786812
0.000763986
0.000751523
0.000738793
0.00070517
0.000649451
0.000581877
0.000516111
0.000481461
0.000496667
0.000517872
0.000508002
0.000477916
0.000581044
0.000759528
0.000683778
0.000630089
0.000655952
0.000681026
0.000618663
0.00044682
0.000278347
0.000212799
0.000163208
0.000135981
0.000122633
0.000121112
0.000119758
0.000124075
0.000121743
0.00012929
0.000125801
0.000169733
0.000141697
0.000262998
0.000210791
0.000358731
0.000305606
0.000456322
0.000409222
0.000524778
0.000480453
0.000571039
0.000527867
0.000595863
0.000554796
0.000605645
0.000564226
0.000535304
0.000532218
0.000566313
0.000572679
0.000499328
0.000508483
0.000521633
0.000458085
0.000460622
0.000495413
0.000494746
0.000475369
0.000456973
0.000446762
0.000444323
0.000450409
0.000437512
0.000408382
0.000405302
0.000390748
0.000406853
0.000429176
0.0004068
0.000391342
0.00041833
0.000410851
0.000399553
0.000407672
0.000414432
0.000184817
0.000184341
0.000519908
0.000438974
0.000459851
0.000455807
0.000538336
0.000769643
0.000886913
0.000885099
0.000868944
0.000856518
0.000869746
0.000873078
0.000850526
0.000792624
0.000712453
0.000622223
0.000536772
0.000488103
0.00049288
0.000504214
0.00048478
0.00052293
0.000713379
0.000711845
0.000658234
0.000687821
0.000760411
0.000712632
0.000562898
0.000336726
0.000222917
0.000172819
0.000142621
0.00012647
0.00011835
0.000119566
0.000119486
0.000118451
0.000122473
0.000119105
0.000130823
0.000126134
0.000167665
0.000141915
0.00025196
0.000202466
0.000335651
0.000285449
0.000433767
0.000385454
0.000484327
0.000441697
0.000516021
0.000479958
0.000528435
0.00050126
0.000554622
0.000538
0.000524506
0.000512088
0.000537628
0.000545168
0.000549748
0.00053369
0.000500528
0.000525165
0.000537465
0.000452931
0.00047311
0.000515493
0.000521753
0.00049561
0.000450222
0.000431197
0.000438499
0.000448345
0.00042042
0.000378484
0.000379114
0.000365485
0.000387581
0.000409894
0.000393033
0.000372049
0.000398813
0.000403491
0.000377511
0.000424477
0.000471466
0.000163997
0.000236038
0.000103951
0.000537973
0.000557155
0.000534445
0.00037783
0.000949026
0.000978476
0.000943605
0.000957817
0.000986095
0.0010085
0.00098422
0.000931737
0.000850822
0.000754723
0.00065101
0.000554083
0.000493907
0.000486199
0.000483923
0.000490312
0.000622709
0.000716144
0.000686544
0.000715148
0.000833579
0.000837852
0.00071406
0.000480554
0.000246904
0.000187276
0.000152276
0.000133169
0.000122539
0.000116522
0.000116982
0.000116658
0.000115478
0.000119826
0.000115528
0.000132098
0.000125471
0.000164223
0.000142205
0.000237159
0.000194847
0.000317268
0.00027594
0.000400098
0.000358889
0.000447434
0.000417452
0.000481802
0.000461024
0.000502416
0.000492356
0.000472029
0.000520464
0.000509544
0.000500436
0.00049219
0.000540915
0.000527213
0.00051315
0.000502263
0.000524007
0.000538622
0.000521356
0.000470184
0.000498729
0.000534358
0.000520655
0.000525389
0.000449891
0.00042636
0.000444075
0.000470018
0.000415458
0.000360783
0.000360998
0.000354177
0.000377746
0.000403691
0.000391114
0.000365701
0.000387104
0.000411994
0.000368735
0.00047581
0.000555138
0.000149181
0.000153288
0.000106683
0.000540943
0.000520408
0.000486379
0.000225775
0.00105893
0.00104557
0.00104404
0.00110462
0.00111317
0.00108859
0.00103526
0.00096429
0.000873945
0.000771613
0.00066367
0.000563589
0.000498
0.000482961
0.000476517
0.000551108
0.000702558
0.000694092
0.000724985
0.000870324
0.000949979
0.0008531
0.000634826
0.000300946
0.00021301
0.000164985
0.000141234
0.000128148
0.000116246
0.000119611
0.000113233
0.000115111
0.000113077
0.000112685
0.000115677
0.000110958
0.000133474
0.000123247
0.000164448
0.000146048
0.00023714
0.000203954
0.000326753
0.000294473
0.000388226
0.000358184
0.000441015
0.000423243
0.00045643
0.000444085
0.000485813
0.000478926
0.000442334
0.000450436
0.000493639
0.000486539
0.000479448
0.000472509
0.000504715
0.000492152
0.000482649
0.000475183
0.000518197
0.000498051
0.000482169
0.00050282
0.000523217
0.00049526
0.000472919
0.000498867
0.000470653
0.000436148
0.000466795
0.000502511
0.000425128
0.000358046
0.000359762
0.000361319
0.000378894
0.000413103
0.000401754
0.000371135
0.000395315
0.000457125
0.000383897
0.000528635
0.000519698
0.000180502
0.000137647
0.000160828
0.000503915
0.00048831
0.000344946
0.000164843
0.00113754
0.00114962
0.00118611
0.00119444
0.00115593
0.00110194
0.00103295
0.000953621
0.000865597
0.000767549
0.000662576
0.000564547
0.000490462
0.000475807
0.000500333
0.000639861
0.000691173
0.000724011
0.000873247
0.00102411
0.000984047
0.000803377
0.000435835
0.000245297
0.000184714
0.000151212
0.0001348
0.000122676
0.000114745
0.000116524
0.000110691
0.000112083
0.000109153
0.00010934
0.000110452
0.0001058
0.000136586
0.000120619
0.000177943
0.000156191
0.000262663
0.00023223
0.000361177
0.00033451
0.000405072
0.000384976
0.000435295
0.000429335
0.000437503
0.00043481
0.000432911
0.000431885
0.000464764
0.000456483
0.000422139
0.000427254
0.000468403
0.000460817
0.00045369
0.000446701
0.000470189
0.000461066
0.000453173
0.000445493
0.000474941
0.000459333
0.000447505
0.000503693
0.00047797
0.000452518
0.000431048
0.000451717
0.000501049
0.00045992
0.000489427
0.000485396
0.000449966
0.000371787
0.000381193
0.00038684
0.000391813
0.000437705
0.000426057
0.000390862
0.000438231
0.000501066
0.000428591
0.000495823
0.000484675
0.000180919
0.000127623
0.000193919
0.00047317
0.000473544
0.000249225
0.000154731
0.00124277
0.00126814
0.00124123
0.00120284
0.00113337
0.00105523
0.000983284
0.000911727
0.000834611
0.000746144
0.000647794
0.000549515
0.000482712
0.000475953
0.000564673
0.000676757
0.000718745
0.000863753
0.00105449
0.00109965
0.000966738
0.000621114
0.000277373
0.000210501
0.000165662
0.000143166
0.000130394
0.000116211
0.000120682
0.000111087
0.000114099
0.000107072
0.000109072
0.000104676
0.000105547
0.000106103
0.00010096
0.000143996
0.000120278
0.0002028
0.000172904
0.000304953
0.000272326
0.000399101
0.000378742
0.000422873
0.000413448
0.000435577
0.00044125
0.000419382
0.000419105
0.000426509
0.000420993
0.000439838
0.000433155
0.000398062
0.000401513
0.000438034
0.000430773
0.000425893
0.000419244
0.000437676
0.000428712
0.000420463
0.000413234
0.000436652
0.000424441
0.000413662
0.000458415
0.000432203
0.000414885
0.000394002
0.000410936
0.000467538
0.00047157
0.000450976
0.000441095
0.00045472
0.000398837
0.000424129
0.000424633
0.000421422
0.000440504
0.000429315
0.000419837
0.000475876
0.000471583
0.00045432
0.000463897
0.000456008
0.00011844
0.000135562
0.000164912
0.000457014
0.000337885
0.000205452
0.000163843
0.00133171
0.00129694
0.00121705
0.00113037
0.00105066
0.000981713
0.00091763
0.000856077
0.000790456
0.000711767
0.000617848
0.000514987
0.000476269
0.000507394
0.000628819
0.000707025
0.000834757
0.00105399
0.00118465
0.00110785
0.000811783
0.000354541
0.000240497
0.000185687
0.000154358
0.00013829
0.000124372
0.000114353
0.00011721
0.000107948
0.000110652
0.000103224
0.000105302
0.00010033
0.000101364
0.000104046
9.7497e-05
0.000157138
0.00012419
0.000235981
0.000196334
0.000351365
0.00031705
0.00043655
0.000418163
0.000446279
0.000445568
0.000417326
0.000406448
0.000390539
0.000405273
0.000397387
0.000400869
0.000416509
0.000408474
0.000413087
0.000406643
0.000373399
0.000374688
0.000406265
0.000401261
0.000395509
0.000389509
0.000403764
0.000394842
0.000386762
0.000379547
0.000401851
0.000389953
0.00037866
0.000415076
0.000392902
0.000379777
0.000358408
0.000374594
0.000425921
0.000435955
0.000413149
0.000400632
0.000424094
0.000426042
0.00043493
0.00042222
0.000422728
0.000415538
0.000410028
0.000417931
0.00044928
0.000443571
0.000430268
0.000439438
0.000440129
0.000124437
0.000175558
0.000185495
0.000439522