/*--------------------------------*- C++ -*----------------------------------*\
  =========                 |
  \\      /  F ield         | OpenFOAM: The Open Source CFD Toolbox
   \\    /   O peration     | Website:  https://openfoam.org
    \\  /    A nd           | Version:  dev
     \\/     M anipulation  |
\*---------------------------------------------------------------------------*/
FoamFile
{
    version     2.0;
    format      ascii;
    class       volScalarField;
    location    "2500";
    object      O2;
}
// * * * * * * * * * * * * * * * * * * * * * * * * * * * * * * * * * * * * * //

dimensions      [0 0 0 0 0 0 0];

internalField   nonuniform List<scalar> 
9978
(
0.23301
0.23301
0.23301
0.23301
0.23301
0.23301
0.23301
0.23301
0.23301
0.23301
0.23301
0.23301
0.23301
0.23301
0.23301
0.23301
0.23301
0.23301
0.23301
0.23301
0.23301
0.23301
0.23301
0.23301
0.23301
0.23301
0.23301
0.23301
0.23301
0.23301
0.23301
0.23301
0.23301
0.23301
0.23301
0.23301
0.23301
0.23301
0.23301
0.23301
0.23301
0.23301
0.23301
0.23301
0.23301
0.23301
0.23301
0.23301
0.23301
0.23301
0.23301
0.23301
0.23301
0.23301
0.23301
0.23301
0.23301
0.23301
0.23301
0.23301
0.23301
0.23301
0.23301
0.23301
0.23301
0.23301
0.23301
0.23301
0.23301
0.23301
0.23301
0.23301
0.23301
0.23301
0.23301
0.23301
0.23301
0.23301
0.23301
0.23301
0.23301
0.23301
0.23301
0.23301
0.23301
0.23301
0.23301
0.23301
0.23301
0.23301
0.23301
0.23301
0.23301
0.23301
0.23301
0.23301
0.23301
0.23301
0.23301
0.23301
0.23301
0.23301
0.23301
0.23301
0.23301
0.23301
0.23301
0.23301
0.23301
0.23301
0.23301
0.23301
0.23301
0.23301
0.23301
0.23301
0.23301
0.23301
0.23301
0.23301
0.23301
0.23301
0.23301
0.23301
0.23301
0.23301
0.23301
0.23301
0.23301
0.23301
0.23301
0.23301
0.23301
0.23301
0.23301
0.23301
0.23301
0.23301
0.23301
0.23301
0.23301
0.23301
0.23301
0.23301
0.23301
0.23301
0.23301
0.23301
0.23301
0.23301
0.23301
0.23301
0.23301
0.23301
0.23301
0.23301
0.23301
0.23301
0.23301
0.23301
0.23301
0.23301
0.23301
0.23301
0.23301
0.23301
0.23301
0.23301
0.23301
0.23301
0.23301
0.23301
0.23301
0.23301
0.23301
0.23301
0.23301
0.23301
0.23301
0.23301
0.23301
0.23301
0.23301
0.23301
0.23301
0.23301
0.23301
0.23301
0.23301
0.23301
0.23301
0.23301
0.23301
0.23301
0.23301
0.23301
0.23301
0.23301
0.23301
0.23301
0.23301
0.23301
0.23301
0.23301
0.23301
0.23301
0.23301
0.23301
0.23301
0.23301
0.23301
0.23301
0.23301
0.23301
0.23301
0.23301
0.23301
0.23301
0.23301
0.23301
0.23301
0.23301
0.23301
0.23301
0.23301
0.23301
0.23301
0.23301
0.23301
0.23301
0.23301
0.23301
0.23301
0.23301
0.23301
0.23301
0.23301
0.23301
0.23301
0.23301
0.23301
0.23301
0.23301
0.23301
0.23301
0.23301
0.23301
0.23301
0.23301
0.23301
0.23301
0.23301
0.23301
0.23301
0.23301
0.23301
0.23301
0.23301
0.23301
0.23301
0.23301
0.23301
0.23301
0.23301
0.23301
0.23301
0.23301
0.23301
0.23301
0.23301
0.23301
0.23301
0.23301
0.23301
0.23301
0.23301
0.23301
0.23301
0.23301
0.23301
0.23301
0.23301
0.23301
0.23301
0.23301
0.23301
0.23301
0.23301
0.23301
0.23301
0.23301
0.23301
0.23301
0.23301
0.23301
0.23301
0.23301
0.23301
0.23301
0.23301
0.23301
0.23301
0.23301
0.23301
0.23301
0.23301
0.23301
0.23301
0.23301
0.23301
0.23301
0.23301
0.23301
0.23301
0.23301
0.23301
0.23301
0.23301
0.23301
0.23301
0.23301
0.23301
0.23301
0.23301
0.23301
0.23301
0.23301
0.23301
0.23301
0.23301
0.23301
0.23301
0.23301
0.23301
0.23301
0.23301
0.23301
0.23301
0.23301
0.23301
0.23301
0.23301
0.23301
0.23301
0.23301
0.23301
0.23301
0.23301
0.23301
0.23301
0.23301
0.23301
0.23301
0.23301
0.23301
0.23301
0.23301
0.23301
0.23301
0.23301
0.23301
0.23301
0.23301
0.23301
0.23301
0.23301
0.23301
0.23301
0.23301
0.23301
0.23301
0.23301
0.23301
0.23301
0.23301
0.23301
0.23301
0.23301
0.23301
0.23301
0.23301
0.23301
0.23301
0.23301
0.23301
0.23301
0.23301
0.23301
0.23301
0.23301
0.23301
0.23301
0.23301
0.23301
0.23301
0.23301
0.23301
0.23301
0.23301
0.23301
0.23301
0.23301
0.23301
0.23301
0.23301
0.23301
0.23301
0.23301
0.23301
0.23301
0.23301
0.23301
0.23301
0.23301
0.23301
0.23301
0.23301
0.23301
0.23301
0.23301
0.23301
0.23301
0.23301
0.23301
0.23301
0.23301
0.23301
0.23301
0.23301
0.23301
0.23301
0.23301
0.23301
0.23301
0.23301
0.23301
0.23301
0.23301
0.23301
0.23301
0.23301
0.23301
0.23301
0.23301
0.23301
0.23301
0.23301
0.23301
0.23301
0.23301
0.23301
0.23301
0.23301
0.23301
0.23301
0.23301
0.23301
0.23301
0.23301
0.23301
0.23301
0.23301
0.23301
0.23301
0.23301
0.23301
0.23301
0.23301
0.23301
0.23301
0.23301
0.23301
0.23301
0.23301
0.23301
0.23301
0.23301
0.23301
0.23301
0.23301
0.23301
0.23301
0.23301
0.23301
0.23301
0.23301
0.23301
0.23301
0.23301
0.23301
0.23301
0.23301
0.23301
0.23301
0.23301
0.23301
0.23301
0.23301
0.23301
0.23301
0.23301
0.23301
0.23301
0.23301
0.23301
0.23301
0.23301
0.23301
0.23301
0.23301
0.23301
0.23301
0.23301
0.23301
0.23301
0.23301
0.23301
0.23301
0.23301
0.23301
0.23301
0.23301
0.23301
0.23301
0.23301
0.23301
0.23301
0.23301
0.23301
0.23301
0.23301
0.23301
0.23301
0.23301
0.23301
0.23301
0.23301
0.23301
0.23301
0.23301
0.23301
0.23301
0.23301
0.23301
0.23301
0.23301
0.23301
0.23301
0.23301
0.23301
0.23301
0.23301
0.23301
0.23301
0.23301
0.23301
0.23301
0.23301
0.23301
0.23301
0.23301
0.23301
0.23301
0.23301
0.23301
0.23301
0.23301
0.23301
0.23301
0.23301
0.23301
0.23301
0.23301
0.23301
0.23301
0.23301
0.23301
0.23301
0.23301
0.23301
0.23301
0.23301
0.23301
0.23301
0.23301
0.23301
0.23301
0.23301
0.23301
0.23301
0.23301
0.23301
0.23301
0.23301
0.23301
0.23301
0.23301
0.23301
0.23301
0.23301
0.23301
0.23301
0.23301
0.23301
0.23301
0.23301
0.23301
0.23301
0.23301
0.23301
0.23301
0.23301
0.23301
0.23301
0.23301
0.23301
0.23301
0.23301
0.23301
0.23301
0.23301
0.23301
0.23301
0.23301
0.23301
0.23301
0.23301
0.23301
0.23301
0.23301
0.23301
0.23301
0.23301
0.23301
0.23301
0.23301
0.23301
0.23301
0.23301
0.23301
0.23301
0.23301
0.23301
0.23301
0.23301
0.23301
0.23301
0.23301
0.23301
0.23301
0.23301
0.23301
0.23301
0.23301
0.23301
0.23301
0.23301
0.23301
0.23301
0.23301
0.23301
0.23301
0.23301
0.23301
0.23301
0.23301
0.23301
0.23301
0.23301
0.23301
0.23301
0.23301
0.23301
0.23301
0.23301
0.23301
0.23301
0.23301
0.23301
0.23301
0.23301
0.23301
0.23301
0.23301
0.23301
0.23301
0.23301
0.23301
0.23301
0.23301
0.23301
0.23301
0.23301
0.23301
0.23301
0.23301
0.23301
0.23301
0.23301
0.23301
0.23301
0.233009
0.23301
0.23301
0.23301
0.23301
0.23301
0.23301
0.23301
0.23301
0.23301
0.23301
0.23301
0.23301
0.23301
0.23301
0.23301
0.23301
0.23301
0.23301
0.23301
0.23301
0.23301
0.23301
0.23301
0.23301
0.23301
0.23301
0.23301
0.23301
0.23301
0.23301
0.23301
0.23301
0.23301
0.23301
0.233009
0.233008
0.233008
0.233008
0.233008
0.233008
0.233008
0.233008
0.233006
0.233006
0.233007
0.23301
0.233009
0.23301
0.23301
0.23301
0.23301
0.23301
0.23301
0.23301
0.23301
0.23301
0.23301
0.23301
0.23301
0.23301
0.23301
0.23301
0.23301
0.23301
0.23301
0.23301
0.23301
0.23301
0.23301
0.23301
0.23301
0.23301
0.23301
0.23301
0.23301
0.23301
0.233009
0.233008
0.233006
0.233003
0.233
0.232999
0.233001
0.233002
0.233003
0.233
0.232992
0.232981
0.232978
0.233005
0.232991
0.233009
0.233005
0.233009
0.23301
0.233009
0.233009
0.23301
0.23301
0.23301
0.23301
0.23301
0.23301
0.23301
0.23301
0.23301
0.23301
0.23301
0.23301
0.23301
0.23301
0.23301
0.23301
0.23301
0.23301
0.23301
0.23301
0.23301
0.23301
0.23301
0.23301
0.23301
0.233008
0.233004
0.232995
0.232981
0.232968
0.232964
0.23297
0.232979
0.232982
0.232972
0.232936
0.232874
0.232809
0.232941
0.232786
0.232991
0.232935
0.233005
0.23299
0.233005
0.233009
0.233006
0.233007
0.23301
0.23301
0.23301
0.23301
0.23301
0.23301
0.23301
0.23301
0.23301
0.23301
0.23301
0.23301
0.23301
0.23301
0.23301
0.23301
0.23301
0.23301
0.23301
0.23301
0.23301
0.23301
0.23301
0.23301
0.233009
0.233006
0.232993
0.232965
0.232918
0.232869
0.232845
0.232863
0.232899
0.232918
0.232892
0.232791
0.232598
0.232369
0.232524
0.232161
0.232772
0.232455
0.232933
0.23276
0.232992
0.232937
0.232994
0.233008
0.232997
0.233
0.23301
0.233008
0.23301
0.23301
0.23301
0.23301
0.23301
0.23301
0.23301
0.23301
0.23301
0.23301
0.23301
0.23301
0.23301
0.23301
0.23301
0.23301
0.23301
0.23301
0.23301
0.23301
0.23301
0.23301
0.233009
0.233003
0.232975
0.232906
0.23279
0.232658
0.232575
0.232586
0.232679
0.232751
0.232709
0.232502
0.23215
0.231749
0.231843
0.23146
0.232094
0.231718
0.232423
0.232038
0.232767
0.232413
0.232945
0.232786
0.232956
0.233003
0.232966
0.232977
0.233009
0.233005
0.233009
0.23301
0.23301
0.23301
0.23301
0.23301
0.23301
0.23301
0.23301
0.23301
0.23301
0.23301
0.23301
0.23301
0.23301
0.23301
0.23301
0.23301
0.23301
0.23301
0.23301
0.23301
0.233009
0.232999
0.232953
0.232825
0.232612
0.232388
0.232241
0.232227
0.232331
0.232438
0.232399
0.232133
0.231693
0.231189
0.231164
0.230836
0.231346
0.231
0.231639
0.231247
0.232006
0.231584
0.232426
0.231996
0.232813
0.232459
0.232844
0.232986
0.232877
0.232907
0.233007
0.232994
0.233008
0.23301
0.233009
0.23301
0.23301
0.23301
0.23301
0.23301
0.23301
0.23301
0.23301
0.23301
0.23301
0.23301
0.23301
0.23301
0.23301
0.23301
0.23301
0.23301
0.23301
0.23301
0.233009
0.232998
0.232932
0.232737
0.232408
0.232078
0.231872
0.231833
0.231947
0.232084
0.232046
0.231733
0.231225
0.2307
0.230619
0.230411
0.230692
0.230442
0.230881
0.230562
0.231173
0.230791
0.231551
0.231119
0.232005
0.231535
0.232512
0.23203
0.232579
0.232935
0.232656
0.232727
0.233
0.23296
0.233005
0.23301
0.233008
0.233009
0.23301
0.23301
0.23301
0.23301
0.23301
0.23301
0.23301
0.23301
0.23301
0.23301
0.23301
0.23301
0.23301
0.23301
0.23301
0.23301
0.23301
0.23301
0.233009
0.232998
0.23292
0.232663
0.232213
0.231748
0.231463
0.231398
0.231511
0.231672
0.231667
0.231338
0.230865
0.230501
0.230312
0.230274
0.230262
0.230159
0.230304
0.230119
0.230459
0.230189
0.230722
0.230376
0.23108
0.230665
0.231531
0.231051
0.232075
0.231541
0.232134
0.232794
0.232215
0.232322
0.232979
0.232859
0.232994
0.23301
0.233003
0.233008
0.23301
0.23301
0.23301
0.23301
0.23301
0.23301
0.23301
0.23301
0.23301
0.23301
0.23301
0.23301
0.23301
0.23301
0.23301
0.23301
0.23301
0.23301
0.233009
0.232998
0.232919
0.232621
0.232057
0.231457
0.231035
0.230891
0.230976
0.231143
0.231166
0.230926
0.230684
0.230524
0.2303
0.230374
0.230137
0.230185
0.230014
0.229998
0.229988
0.229868
0.230089
0.229869
0.230303
0.23
0.230614
0.230231
0.231029
0.230563
0.231564
0.231012
0.231599
0.23246
0.231651
0.231736
0.232917
0.232615
0.232962
0.23301
0.232991
0.233005
0.23301
0.23301
0.23301
0.23301
0.23301
0.23301
0.23301
0.23301
0.23301
0.23301
0.23301
0.23301
0.23301
0.23301
0.23301
0.23301
0.23301
0.23301
0.23301
0.233001
0.232924
0.232615
0.231967
0.231216
0.230691
0.230496
0.230494
0.230586
0.230638
0.2306
0.23057
0.230542
0.230557
0.23029
0.230451
0.230043
0.230177
0.229837
0.229869
0.22972
0.229658
0.229756
0.229574
0.229909
0.229645
0.230156
0.229812
0.230511
0.230074
0.231
0.230457
0.230999
0.231879
0.231015
0.231071
0.232753
0.232105
0.232874
0.23301
0.232956
0.232998
0.23301
0.23301
0.23301
0.23301
0.23301
0.23301
0.23301
0.23301
0.23301
0.23301
0.23301
0.23301
0.23301
0.23301
0.23301
0.23301
0.23301
0.23301
0.23301
0.233005
0.232939
0.232627
0.231953
0.231093
0.230532
0.230315
0.230265
0.230296
0.230353
0.230403
0.230438
0.23055
0.230788
0.230831
0.231079
0.230379
0.230609
0.229998
0.230233
0.229669
0.229757
0.229468
0.229447
0.229433
0.229281
0.229526
0.229292
0.229705
0.229398
0.229986
0.229591
0.230404
0.229898
0.230367
0.231203
0.230351
0.230388
0.232396
0.231419
0.232668
0.233009
0.232869
0.23298
0.23301
0.23301
0.23301
0.23301
0.23301
0.23301
0.23301
0.23301
0.23301
0.23301
0.233009
0.233009
0.233009
0.23301
0.23301
0.23301
0.23301
0.23301
0.23301
0.233007
0.232964
0.232673
0.231972
0.231073
0.23052
0.230299
0.230222
0.230213
0.230244
0.230303
0.230408
0.230601
0.231002
0.231275
0.231493
0.231121
0.231406
0.230518
0.230821
0.229979
0.230281
0.229489
0.229645
0.229206
0.229209
0.229104
0.228974
0.229146
0.228936
0.229267
0.229003
0.229478
0.229147
0.229816
0.229388
0.229762
0.230506
0.229763
0.229822
0.231783
0.230732
0.232263
0.233009
0.232695
0.232947
0.23301
0.23301
0.23301
0.23301
0.23301
0.23301
0.23301
0.23301
0.233009
0.233009
0.233008
0.233008
0.233008
0.233009
0.233009
0.233009
0.233009
0.23301
0.23301
0.233009
0.232985
0.232763
0.232055
0.231124
0.230584
0.230348
0.230267
0.230268
0.230302
0.230366
0.230497
0.230767
0.231259
0.231661
0.231847
0.231676
0.231931
0.231319
0.231639
0.230627
0.230979
0.229937
0.230286
0.229283
0.229503
0.228925
0.228945
0.228768
0.228662
0.228785
0.228597
0.228885
0.228671
0.229083
0.228852
0.229361
0.229095
0.229388
0.229941
0.229462
0.229559
0.231089
0.230141
0.231678
0.233008
0.232438
0.232907
0.233009
0.233009
0.233009
0.23301
0.23301
0.23301
0.233009
0.233009
0.233007
0.233006
0.233005
0.233005
0.233006
0.233007
0.233008
0.233009
0.233009
0.233009
0.233009
0.232998
0.232853
0.232239
0.23127
0.230766
0.230512
0.230459
0.230531
0.230616
0.230695
0.23084
0.231154
0.231746
0.232427
0.232168
0.232419
0.231941
0.232226
0.231376
0.231703
0.230659
0.231027
0.22984
0.230224
0.229053
0.229321
0.228638
0.228682
0.228457
0.228401
0.228491
0.228352
0.228657
0.228488
0.228896
0.228723
0.229167
0.228994
0.229262
0.229673
0.22939
0.229525
0.230496
0.229821
0.231094
0.233005
0.232144
0.232812
0.233009
0.233009
0.233009
0.23301
0.23301
0.233009
0.233007
0.233004
0.233
0.232997
0.232996
0.232997
0.233001
0.233004
0.233006
0.233007
0.233009
0.233009
0.233003
0.232925
0.232448
0.231497
0.23098
0.230781
0.230886
0.231164
0.231437
0.231597
0.231717
0.231979
0.232353
0.232707
0.23278
0.232904
0.232479
0.232683
0.232012
0.232304
0.231326
0.23165
0.230613
0.230982
0.229679
0.230065
0.228852
0.229169
0.228429
0.228548
0.228285
0.228299
0.228352
0.228267
0.228563
0.228423
0.22884
0.228688
0.229135
0.229022
0.22933
0.229644
0.229549
0.229756
0.230076
0.229743
0.230579
0.232972
0.231569
0.232448
0.233008
0.233009
0.23301
0.233009
0.233008
0.233005
0.232998
0.232988
0.232978
0.232972
0.232975
0.232982
0.23299
0.232998
0.233004
0.233006
0.233008
0.233006
0.23297
0.23265
0.231777
0.231179
0.23102
0.231292
0.231764
0.23216
0.232378
0.232496
0.232607
0.232753
0.232894
0.232972
0.232879
0.232949
0.232562
0.23276
0.231966
0.232278
0.231125
0.231464
0.23044
0.230791
0.229543
0.229933
0.228798
0.229142
0.228382
0.228584
0.228265
0.228351
0.228327
0.228324
0.228549
0.228463
0.22889
0.228753
0.22927
0.229154
0.229556
0.229902
0.229861
0.230074
0.229985
0.229847
0.229831
0.229968
0.230063
0.232425
0.23053
0.231003
0.233007
0.233009
0.233009
0.233007
0.233001
0.232987
0.232966
0.232939
0.23292
0.232917
0.232931
0.232953
0.232975
0.232991
0.233
0.233005
0.233006
0.232991
0.23281
0.232094
0.231365
0.231203
0.231551
0.232097
0.232436
0.232664
0.23281
0.232886
0.232937
0.232977
0.232998
0.232983
0.233001
0.232895
0.232958
0.23256
0.232769
0.231821
0.232189
0.231039
0.231407
0.230313
0.230679
0.229529
0.229926
0.228906
0.229287
0.228557
0.228873
0.228438
0.228678
0.228477
0.228631
0.228682
0.228725
0.22903
0.22899
0.229479
0.229267
0.22932
0.229765
0.229725
0.230215
0.23015
0.230317
0.230098
0.230077
0.229908
0.230255
0.229869
0.229958
0.229983
0.230183
0.229942
0.230013
0.229976
0.230611
0.230238
0.230082
0.229994
0.230085
0.230312
0.230151
0.233008
0.233009
0.233006
0.232996
0.232973
0.232932
0.232877
0.232823
0.232791
0.232802
0.232852
0.232911
0.232956
0.232983
0.232997
0.233003
0.232996
0.232912
0.232401
0.231585
0.231333
0.231685
0.232185
0.232472
0.232692
0.232861
0.232956
0.232989
0.233002
0.233007
0.233004
0.233007
0.23299
0.233
0.2329
0.232963
0.232525
0.232764
0.23179
0.232181
0.231073
0.231466
0.230314
0.230693
0.229691
0.2301
0.229252
0.229644
0.228993
0.229308
0.228887
0.229122
0.228894
0.229095
0.228916
0.228973
0.22903
0.229091
0.229231
0.22922
0.229131
0.229246
0.229227
0.229439
0.229664
0.229603
0.22939
0.229838
0.2304
0.23039
0.230521
0.230249
0.230199
0.23002
0.230411
0.230134
0.230177
0.230418
0.230084
0.23004
0.231676
0.230074
0.229987
0.230047
0.230025
0.230031
0.23001
0.233008
0.233005
0.23299
0.232954
0.232887
0.232787
0.232681
0.232606
0.232593
0.232647
0.232751
0.232863
0.232937
0.232975
0.232993
0.232996
0.232962
0.232652
0.231875
0.231447
0.23169
0.232153
0.232405
0.23261
0.232811
0.232947
0.232995
0.233007
0.233009
0.233009
0.233006
0.233007
0.232994
0.233002
0.232916
0.232972
0.232535
0.232783
0.231875
0.232285
0.231301
0.231711
0.230502
0.2309
0.230026
0.230391
0.229588
0.22987
0.229291
0.229414
0.229163
0.229089
0.229124
0.229114
0.229056
0.228926
0.229161
0.22918
0.229164
0.22937
0.229359
0.229249
0.229296
0.229344
0.229549
0.229768
0.229706
0.229511
0.229941
0.230557
0.230607
0.23068
0.230375
0.230118
0.230297
0.230542
0.230404
0.230352
0.230643
0.23028
0.230203
0.23053
0.229927
0.229933
0.23014
0.230102
0.230063
0.23003
0.233004
0.232985
0.232936
0.232835
0.232682
0.232511
0.232384
0.232339
0.232383
0.232499
0.232657
0.232816
0.232922
0.23297
0.232991
0.232978
0.232821
0.232197
0.231593
0.231667
0.232066
0.232259
0.232425
0.232639
0.232864
0.232987
0.233006
0.233009
0.23301
0.233009
0.233009
0.233006
0.233008
0.232995
0.233002
0.232938
0.232978
0.232629
0.232841
0.232113
0.232464
0.231483
0.231858
0.230748
0.23111
0.230152
0.23044
0.229516
0.229608
0.228887
0.228635
0.228752
0.228512
0.228268
0.227986
0.229083
0.228928
0.2287
0.228411
0.229217
0.229123
0.228957
0.229473
0.229412
0.229194
0.229152
0.229309
0.229645
0.229863
0.229779
0.229573
0.230026
0.230687
0.230771
0.230801
0.230474
0.230196
0.230372
0.230641
0.230626
0.230565
0.230813
0.23048
0.230382
0.22983
0.22992
0.229802
0.230291
0.230219
0.230152
0.230092
0.232982
0.232919
0.232785
0.232571
0.232333
0.232148
0.232067
0.232092
0.232209
0.232387
0.232593
0.232784
0.232913
0.23297
0.232979
0.232911
0.232492
0.231808
0.231652
0.231948
0.232118
0.232237
0.232428
0.232711
0.232959
0.233003
0.233009
0.23301
0.23301
0.233009
0.23301
0.233006
0.233008
0.232994
0.233002
0.232942
0.232978
0.232715
0.232865
0.232209
0.232503
0.231414
0.231756
0.230743
0.23107
0.229725
0.229892
0.228438
0.228324
0.227746
0.227501
0.226838
0.228078
0.227721
0.227374
0.22706
0.228708
0.22838
0.227991
0.227567
0.229031
0.228781
0.228436
0.229465
0.229314
0.228918
0.228789
0.229101
0.22967
0.229921
0.229779
0.229521
0.230074
0.230781
0.230878
0.23088
0.230545
0.23024
0.230416
0.230703
0.230801
0.230734
0.230908
0.230625
0.230511
0.229763
0.229966
0.229758
0.230401
0.2303
0.230201
0.230111
0.232908
0.232743
0.232471
0.23216
0.231919
0.2318
0.231813
0.231922
0.232105
0.232331
0.23257
0.232778
0.232917
0.232968
0.232947
0.23271
0.232082
0.231682
0.231842
0.23199
0.232067
0.232228
0.232526
0.232889
0.232993
0.233008
0.23301
0.23301
0.23301
0.23301
0.233009
0.23301
0.233006
0.233008
0.23299
0.233
0.23292
0.232966
0.232714
0.232843
0.232072
0.232337
0.230744
0.231096
0.230116
0.230407
0.228325
0.228451
0.226721
0.226838
0.226802
0.226658
0.226071
0.225957
0.227141
0.226745
0.22641
0.226151
0.228013
0.227541
0.227051
0.226585
0.22858
0.228144
0.227638
0.229325
0.229047
0.228366
0.228151
0.228656
0.229595
0.229912
0.229704
0.229356
0.23007
0.230826
0.230931
0.230904
0.230579
0.230238
0.230407
0.230717
0.230887
0.230814
0.230935
0.230698
0.23057
0.229985
0.229965
0.22971
0.230441
0.230312
0.230195
0.230067
0.232715
0.23239
0.232013
0.231711
0.231575
0.231582
0.231685
0.231853
0.232076
0.232332
0.232583
0.232791
0.232929
0.232949
0.232839
0.232362
0.231803
0.231791
0.231883
0.231926
0.232048
0.23232
0.232744
0.232972
0.233005
0.23301
0.23301
0.23301
0.23301
0.23301
0.233009
0.23301
0.233006
0.233008
0.232977
0.232997
0.232838
0.232928
0.232543
0.232708
0.231446
0.231783
0.229423
0.229868
0.228681
0.229016
0.22709
0.227342
0.226193
0.226371
0.226703
0.22652
0.225976
0.225919
0.226032
0.225829
0.226177
0.225856
0.225632
0.225529
0.227099
0.22657
0.226092
0.225698
0.227849
0.227274
0.226691
0.229008
0.228538
0.227564
0.227305
0.227956
0.229429
0.229846
0.229547
0.229029
0.230011
0.230821
0.230933
0.230886
0.230561
0.230184
0.230352
0.230691
0.230896
0.23081
0.230918
0.23069
0.230551
0.231132
0.229778
0.2298
0.230404
0.230257
0.230114
0.229925
0.232337
0.231894
0.231544
0.231409
0.231419
0.231509
0.231658
0.231859
0.232105
0.232371
0.232623
0.232828
0.232935
0.232897
0.232593
0.232021
0.231795
0.231812
0.231819
0.231895
0.232122
0.232546
0.232925
0.233
0.233009
0.23301
0.23301
0.23301
0.23301
0.23301
0.23301
0.233009
0.23301
0.233005
0.233008
0.232951
0.232991
0.232672
0.232854
0.232105
0.232411
0.23035
0.230866
0.228392
0.228863
0.227623
0.227978
0.226993
0.227262
0.226259
0.226508
0.226927
0.226738
0.225549
0.225664
0.226343
0.225996
0.22541
0.225242
0.225217
0.225287
0.226145
0.225677
0.225312
0.225064
0.226939
0.226331
0.225786
0.228484
0.227817
0.226643
0.226394
0.227095
0.229117
0.229703
0.229255
0.228525
0.229875
0.230779
0.230895
0.230809
0.230498
0.23005
0.230213
0.230605
0.230852
0.230743
0.230845
0.230601
0.23044
0.232337
0.229634
0.230241
0.230276
0.230122
0.229952
0.229747
0.231807
0.231425
0.231297
0.231312
0.231395
0.23153
0.231713
0.231934
0.232184
0.232446
0.232689
0.23288
0.232905
0.232744
0.232253
0.23184
0.231787
0.23175
0.231776
0.231949
0.232343
0.232828
0.232987
0.233008
0.23301
0.23301
0.23301
0.23301
0.23301
0.23301
0.23301
0.233009
0.23301
0.233004
0.233008
0.232914
0.232981
0.232407
0.232738
0.231407
0.231941
0.229411
0.230045
0.228212
0.228661
0.227515
0.227835
0.227701
0.227833
0.227906
0.227975
0.226701
0.227036
0.227542
0.227322
0.22546
0.225692
0.22689
0.226412
0.224962
0.224964
0.225082
0.225285
0.225338
0.225008
0.224803
0.224742
0.226023
0.225489
0.225068
0.227791
0.226991
0.225767
0.225566
0.226221
0.228634
0.229429
0.228796
0.227868
0.22961
0.230654
0.230772
0.23062
0.230341
0.229792
0.229939
0.230405
0.230735
0.23058
0.230654
0.230409
0.23024
0.232446
0.229604
0.230725
0.230084
0.229946
0.229782
0.229578
0.23134
0.231227
0.231242
0.231329
0.231484
0.231663
0.231855
0.232067
0.232301
0.232545
0.23277
0.232894
0.232823
0.232464
0.23197
0.231792
0.231718
0.231691
0.23181
0.232152
0.232668
0.232961
0.233005
0.23301
0.23301
0.23301
0.23301
0.23301
0.23301
0.23301
0.23301
0.23301
0.233009
0.23301
0.233002
0.233008
0.232886
0.232977
0.232133
0.23263
0.230746
0.231469
0.229207
0.229856
0.228727
0.229116
0.228024
0.228104
0.228455
0.228442
0.228523
0.228564
0.228575
0.227355
0.227761
0.228301
0.228078
0.225582
0.225965
0.227497
0.226892
0.22476
0.224889
0.225097
0.225408
0.22477
0.22461
0.224568
0.224589
0.225249
0.224854
0.224587
0.227013
0.226182
0.225055
0.224926
0.22547
0.228008
0.228988
0.228204
0.227131
0.229189
0.230385
0.230504
0.230287
0.23003
0.229371
0.229508
0.230046
0.230492
0.230316
0.230343
0.230142
0.229986
0.232441
0.229675
0.231167
0.22986
0.229757
0.229624
0.22949
0.231174
0.231204
0.231323
0.231492
0.231669
0.231852
0.232039
0.232234
0.232443
0.232661
0.232842
0.232845
0.232621
0.23215
0.231825
0.231713
0.23164
0.231707
0.23199
0.232486
0.232915
0.233
0.233009
0.23301
0.23301
0.23301
0.23301
0.23301
0.23301
0.23301
0.23301
0.23301
0.233009
0.23301
0.233
0.233007
0.232884
0.232976
0.232068
0.232613
0.230585
0.231349
0.229607
0.230194
0.229919
0.230256
0.228574
0.228563
0.229476
0.229363
0.229255
0.229308
0.229324
0.22932
0.228067
0.22854
0.229123
0.228888
0.225816
0.226317
0.228024
0.227289
0.224707
0.224896
0.225165
0.225535
0.224458
0.224427
0.224447
0.224547
0.224685
0.224443
0.224338
0.22625
0.225485
0.22455
0.224483
0.224893
0.227304
0.228425
0.227535
0.226399
0.228637
0.22998
0.230132
0.229849
0.229574
0.228823
0.228957
0.229563
0.23016
0.229977
0.229944
0.22982
0.229702
0.232818
0.229879
0.231827
0.229627
0.229581
0.229486
0.229458
0.231174
0.231335
0.231536
0.231717
0.231881
0.232051
0.232231
0.232414
0.232598
0.232775
0.232842
0.23271
0.232325
0.231918
0.231721
0.23162
0.231637
0.231864
0.232318
0.232842
0.23299
0.233008
0.23301
0.23301
0.23301
0.23301
0.23301
0.23301
0.23301
0.23301
0.23301
0.23301
0.233009
0.23301
0.233
0.233007
0.232906
0.23298
0.232192
0.23268
0.230844
0.23153
0.230633
0.23109
0.230057
0.231052
0.231154
0.231276
0.231461
0.229312
0.229319
0.230065
0.23005
0.230099
0.230113
0.23011
0.228714
0.229264
0.229925
0.229663
0.22601
0.226598
0.228425
0.227608
0.22471
0.224939
0.225253
0.225667
0.224313
0.224329
0.224413
0.22455
0.224326
0.22424
0.224219
0.225579
0.224926
0.224253
0.224205
0.224465
0.226596
0.227761
0.226826
0.225731
0.227995
0.229476
0.229666
0.229317
0.229015
0.228197
0.228338
0.228997
0.229749
0.229585
0.229462
0.229475
0.229417
0.232977
0.230229
0.232475
0.229408
0.229425
0.22937
0.229481
0.231358
0.23161
0.231818
0.231977
0.232113
0.232256
0.23242
0.232591
0.232741
0.232821
0.232737
0.232451
0.232051
0.231757
0.231618
0.231598
0.231774
0.232184
0.232744
0.232973
0.233007
0.23301
0.23301
0.23301
0.23301
0.23301
0.23301
0.23301
0.23301
0.23301
0.23301
0.23301
0.23301
0.233009
0.23301
0.233001
0.233007
0.232946
0.232988
0.232531
0.232824
0.231569
0.232062
0.231877
0.232081
0.230997
0.231752
0.231789
0.231835
0.231864
0.230094
0.230082
0.230963
0.230743
0.230821
0.230863
0.230891
0.229201
0.229839
0.230592
0.230297
0.226196
0.226846
0.228793
0.227904
0.224739
0.224999
0.225342
0.225791
0.224231
0.224299
0.224413
0.224567
0.224162
0.224139
0.224147
0.225012
0.224476
0.224098
0.224048
0.224176
0.225921
0.22708
0.226167
0.225133
0.227339
0.228884
0.229121
0.22872
0.228401
0.227552
0.227684
0.228352
0.229289
0.22918
0.228942
0.22913
0.229146
0.233004
0.230773
0.232777
0.229215
0.229291
0.229282
0.229571
0.231651
0.231887
0.232051
0.232187
0.23232
0.232454
0.23259
0.232718
0.232792
0.232735
0.232493
0.232141
0.231825
0.231628
0.231583
0.231718
0.232083
0.232637
0.23295
0.233004
0.23301
0.23301
0.23301
0.23301
0.23301
0.23301
0.23301
0.23301
0.23301
0.23301
0.23301
0.23301
0.23301
0.233009
0.23301
0.233002
0.233007
0.232977
0.232997
0.232815
0.232927
0.232326
0.232591
0.232169
0.232257
0.23231
0.23172
0.232065
0.232071
0.232087
0.232116
0.230913
0.23094
0.231679
0.231267
0.231382
0.231459
0.231524
0.229625
0.230301
0.231079
0.230771
0.226365
0.227074
0.229073
0.228097
0.22478
0.225055
0.225414
0.225877
0.224205
0.2243
0.224428
0.2246
0.224066
0.22407
0.224123
0.224515
0.224163
0.224006
0.223956
0.223999
0.225318
0.22643
0.225506
0.224576
0.226661
0.228241
0.228543
0.228068
0.227693
0.226806
0.226824
0.227624
0.228819
0.228762
0.228394
0.228799
0.2289
0.233009
0.231294
0.232906
0.229054
0.229168
0.229218
0.229705
0.231875
0.232047
0.232184
0.232315
0.232444
0.232569
0.232679
0.232752
0.232712
0.232488
0.232159
0.231859
0.231651
0.231583
0.231693
0.232019
0.232549
0.232923
0.233001
0.233009
0.23301
0.23301
0.23301
0.23301
0.23301
0.23301
0.23301
0.23301
0.23301
0.23301
0.23301
0.23301
0.23301
0.233009
0.23301
0.233004
0.233007
0.232984
0.232999
0.232863
0.232946
0.232477
0.232694
0.232065
0.232132
0.231795
0.231948
0.232056
0.232058
0.232036
0.232023
0.23203
0.231582
0.231633
0.232044
0.231665
0.231799
0.231893
0.23196
0.229999
0.230715
0.231481
0.231186
0.226469
0.227211
0.229185
0.228162
0.224818
0.225097
0.225452
0.225907
0.224211
0.224317
0.224458
0.224631
0.224004
0.224046
0.224131
0.224151
0.223973
0.223952
0.223918
0.223932
0.224643
0.225643
0.224715
0.224165
0.225724
0.22744
0.227889
0.227245
0.226764
0.225725
0.225683
0.22657
0.228312
0.228359
0.227779
0.22849
0.228693
0.233009
0.231739
0.232931
0.228907
0.229053
0.229176
0.229806
0.231983
0.232123
0.232251
0.23238
0.232498
0.232596
0.232665
0.23264
0.232444
0.232141
0.231858
0.231664
0.231591
0.231691
0.231992
0.232494
0.232897
0.232998
0.233009
0.23301
0.23301
0.23301
0.23301
0.23301
0.23301
0.23301
0.23301
0.23301
0.23301
0.23301
0.23301
0.23301
0.23301
0.23301
0.233009
0.23301
0.233005
0.233008
0.232975
0.232998
0.232728
0.232902
0.232038
0.232415
0.231555
0.23164
0.231071
0.231342
0.232077
0.231733
0.231656
0.231584
0.231555
0.232001
0.232029
0.232096
0.231941
0.232034
0.232085
0.23211
0.230191
0.231006
0.231792
0.23153
0.226501
0.227252
0.22919
0.228151
0.224846
0.225114
0.225457
0.225896
0.224233
0.224349
0.224488
0.224655
0.223982
0.224059
0.224158
0.22399
0.223935
0.223932
0.223935
0.223907
0.224174
0.224763
0.224227
0.224032
0.224812
0.226408
0.22714
0.226349
0.225594
0.224819
0.224863
0.22558
0.227822
0.227969
0.227173
0.228225
0.228494
0.233002
0.231763
0.232838
0.228768
0.228939
0.229127
0.229776
0.232023
0.232125
0.232226
0.23232
0.232397
0.232453
0.232438
0.232294
0.232065
0.231834
0.231675
0.231613
0.231707
0.231995
0.232477
0.23288
0.232994
0.233009
0.23301
0.23301
0.23301
0.23301
0.23301
0.23301
0.23301
0.23301
0.23301
0.23301
0.23301
0.23301
0.23301
0.23301
0.23301
0.23301
0.23301
0.23301
0.233005
0.233009
0.232923
0.23299
0.232255
0.232715
0.23084
0.231239
0.231554
0.230832
0.230892
0.230247
0.230511
0.231825
0.23112
0.230996
0.230897
0.230845
0.232111
0.232111
0.231906
0.232026
0.232078
0.232088
0.232081
0.230233
0.231102
0.231908
0.231669
0.226487
0.227234
0.228975
0.227928
0.224854
0.225099
0.225406
0.225801
0.224272
0.22439
0.224517
0.224663
0.224002
0.2241
0.224223
0.223948
0.223903
0.22401
0.223951
0.22391
0.224078
0.224333
0.224179
0.223984
0.224445
0.225624
0.226383
0.225699
0.224976
0.224575
0.22474
0.22508
0.227322
0.227625
0.226547
0.22795
0.228306
0.214532
0.231364
0.231607
0.228619
0.228815
0.229047
0.229602
0.232057
0.232113
0.232158
0.232191
0.232205
0.232176
0.232083
0.231943
0.231806
0.231694
0.231656
0.231757
0.232031
0.232494
0.232878
0.232993
0.233009
0.23301
0.23301
0.23301
0.23301
0.23301
0.23301
0.23301
0.23301
0.23301
0.23301
0.23301
0.23301
0.23301
0.23301
0.23301
0.23301
0.23301
0.23301
0.23301
0.233004
0.233009
0.2328
0.232964
0.23146
0.232333
0.23014
0.230569
0.230382
0.230948
0.230018
0.230072
0.229483
0.229772
0.23125
0.230297
0.230166
0.23007
0.230025
0.232037
0.231978
0.231396
0.231941
0.231935
0.231872
0.231786
0.230083
0.231045
0.231866
0.231651
0.226348
0.227055
0.228346
0.227372
0.224826
0.225018
0.225261
0.225577
0.224337
0.224451
0.224559
0.224677
0.224132
0.224259
0.224369
0.223935
0.223914
0.224019
0.224149
0.224108
0.224099
0.224296
0.224219
0.224003
0.224452
0.225199
0.225837
0.225359
0.224912
0.224607
0.224726
0.225025
0.226883
0.227244