/*--------------------------------*- C++ -*----------------------------------*\
  =========                 |
  \\      /  F ield         | OpenFOAM: The Open Source CFD Toolbox
   \\    /   O peration     | Website:  https://openfoam.org
    \\  /    A nd           | Version:  dev
     \\/     M anipulation  |
\*---------------------------------------------------------------------------*/
FoamFile
{
    version     2.0;
    format      ascii;
    class       volScalarField;
    location    "2500";
    object      omega;
}
// * * * * * * * * * * * * * * * * * * * * * * * * * * * * * * * * * * * * * //

dimensions      [0 0 -1 0 0 0 0];

internalField   nonuniform List<scalar> 
9978
(
1.25514
1.26847
1.21542
1.18555
1.35323
1.09642
1.08782
1.36169
1.2773
1.03158
1.03721
1.33107
1.34578
1.1378
1.01227
1.01328
1.25367
1.36475
1.24846
1.05426
1.00382
0.999675
1.15956
1.35847
1.31638
1.11745
1.01899
0.999626
0.986888
1.08342
1.33431
1.34106
1.19411
1.04259
1.00175
0.995616
0.978709
1.0404
1.28118
1.34052
1.26154
1.08108
1.00837
0.991641
0.993697
0.974247
1.01081
1.21089
1.3337
1.29816
1.13483
1.02157
0.991085
0.984544
0.992641
0.972165
0.991287
1.14037
1.31611
1.31165
1.19356
1.04492
0.992823
0.980152
0.980078
0.992003
0.971458
0.980104
1.07747
1.28291
1.31076
1.23958
1.08285
0.998418
0.975789
0.972087
0.977191
0.991595
0.971733
0.974036
1.03825
1.23692
1.30665
1.26775
1.13053
1.01114
0.972495
0.966251
0.966331
0.975346
0.99134
0.973023
0.971365
1.01312
1.17549
1.29751
1.28172
1.17616
1.03524
0.974202
0.95874
0.958541
0.962239
0.974154
0.991212
0.974805
0.97026
0.998063
1.11309
1.27806
1.28543
1.21377
1.07553
0.981082
0.951823
0.950997
0.952593
0.959259
0.97349
0.991108
0.976985
0.970702
0.989926
1.06568
1.23921
1.28429
1.24077
1.12172
0.997596
0.952032
0.941263
0.944093
0.948034
0.957236
0.973197
0.991012
0.979362
0.972565
0.986325
1.03666
1.18602
1.28013
1.25807
1.16195
1.03067
0.956091
0.932988
0.934942
0.938532
0.944552
0.955959
0.973049
0.990964
0.981828
0.975687
0.985524
1.02104
1.12685
1.26759
1.26738
1.19642
1.07552
0.968414
0.932239
0.923948
0.929205
0.934385
0.941944
0.955151
0.973037
0.99095
0.984401
0.979482
0.986647
1.01356
1.08073
1.23836
1.2714
1.22527
1.11958
0.995595
0.93516
0.916169
0.919013
0.924503
0.930853
0.939907
0.954783
0.973128
0.990929
0.987085
0.983647
0.989184
1.01114
1.05308
1.19017
1.27083
1.24697
1.15792
1.03726
0.945151
0.915562
0.907981
0.914507
0.920954
0.927911
0.938506
0.954686
0.973263
0.990919
0.989744
0.987777
0.992445
1.01167
1.03787
1.13428
1.2626
1.25957
1.1922
1.08381
0.967539
0.918126
0.901763
0.903667
0.910495
0.917738
0.925513
0.937656
0.954797
0.973416
0.990938
0.991972
0.991452
0.996215
1.01326
1.031
1.09149
1.23908
1.26894
1.2228
1.12559
1.00728
0.926826
0.901617
0.893496
0.900207
0.907513
0.914872
0.923635
0.937316
0.955058
0.973486
0.990977
0.993005
0.994504
1.00048
1.01566
1.03106
1.06604
1.19485
1.27127
1.24767
1.16297
1.05254
0.946979
0.904218
0.889257
0.889245
0.897003
0.904924
0.912329
0.922395
0.937289
0.95534
0.973514
0.991023
0.991131
0.995844
1.00544
1.01894
1.03318
1.05373
1.14205
1.26532
1.26207
1.19823
1.09858
0.98263
0.912477
0.889571
0.881251
0.886587
0.894226
0.902358
0.910298
0.921646
0.93745
0.95555
0.97362
0.991098
0.984636
0.993609
1.0089
1.02426
1.03767
1.05102
1.10378
1.2462
1.27563
1.23045
1.13857
1.02832
0.931102
0.892591
0.87936
0.876867
0.884173
0.891883
0.899953
0.908873
0.921415
0.937763
0.955675
0.973683
0.991171
0.985785
0.984892
1.00726
1.03167
1.04214
1.05403
1.08395
1.20632
1.28171
1.25775
1.17626
1.07428
0.963711
0.901017
0.880237
0.872299
0.873955
0.882069
0.890076
0.897854
0.907767
0.921612
0.938223
0.955861
0.973857
0.991298
1.00044
0.998613
0.998805
1.03222
1.05086
1.06063
1.07692
1.15784
1.27789
1.27448
1.21301
1.11906
1.00619
0.919375
0.884128
0.872113
0.867737
0.871788
0.880368
0.888726
0.896733
0.907557
0.921913
0.938207
0.955603
0.973991
0.991596
1.00592
1.07431
1.06643
1.03587
1.05583
1.07369
1.07867
1.12624
1.26384
1.29224
1.24645
1.15828
1.05408
0.948995
0.894118
0.873825
0.866516
0.864929
0.870214
0.87876
0.887411
0.896546
0.908483
0.922903
0.938307
0.95508
0.973806
0.9917
1.00185
1.06089
1.27393
1.17086
1.07181
1.0875
1.0873
1.11005
1.23226
1.30474
1.2766
1.19676
1.10018
0.988588
0.91297
0.879534
0.867338
0.863033
0.863586
0.869177
0.877388
0.886281
0.896823
0.909913
0.924195
0.938606
0.954748
0.973903
0.991789
0.998411
1.01332
1.24892
1.42934
1.2247
1.11491
1.10607
1.10995
1.18596
1.30406
1.29857
1.2359
1.14496
1.03547
0.940061
0.892769
0.871097
0.863503
0.861671
0.863613
0.869155
0.876807
0.886028
0.897703
0.911502
0.925422
0.938858
0.954747
0.974168
0.991963
0.996661
0.985295
1.07589
1.4512
1.50896
1.23774
1.13913
1.11985
1.15765
1.29487
1.32214
1.27324
1.1847
1.08556
0.976766
0.912393
0.881233
0.866674
0.862116
0.862217
0.865133
0.870547
0.877815
0.887394
0.899792
0.913543
0.926455
0.938869
0.954643
0.974226
0.992031
0.993099
0.982151
0.991077
1.25891
1.57698
1.52044
1.23692
1.1468
1.15399
1.26772
1.34211
1.30773
1.226
1.13275
1.02257
0.939336
0.898953
0.876119
0.865524
0.862968
0.864557
0.868432
0.873946
0.881306
0.891285
0.903723
0.916443
0.927539
0.93944
0.955081
0.974132
0.991613
0.991064
0.980445
0.959534
1.0348
1.4877
1.65588
1.50174
1.22138
1.16577
1.22855
1.34481
1.33694
1.26923
1.17896
1.07437
0.975259
0.923178
0.894897
0.875882
0.867624
0.866178
0.868756
0.873575
0.879995
0.888243
0.898779
0.911029
0.92264
0.932562
0.943432
0.957837
0.974617
0.990154
0.990126
0.976906
0.956161
0.96392
1.16753
1.63563
1.68688
1.44885
1.20808
1.21557
1.3398
1.36827
1.3132
1.22169
1.12746
1.0218
0.954099
0.920545
0.897866
0.881731
0.873867
0.872474
0.875291
0.880943
0.888775
0.898838
0.910828
0.92253
0.931977
0.940767
0.951077
0.964349
0.977954
0.990495
0.989937
0.974334
0.95629
0.937781
0.99695
1.45042
1.72235
1.67094
1.34157
1.2287
1.32071
1.39491
1.3556
1.26824
1.17807
1.07598
0.994453
0.953392
0.928173
0.909955
0.894969
0.885325
0.883083
0.885844
0.892258
0.901591
0.913266
0.925137
0.934522
0.942497
0.951211
0.9625
0.974889
0.982243
0.979826
0.995946
0.983303
0.987793
0.990597
0.973327
0.953717
0.927041
0.942535
1.11526
1.65896
1.76828
1.60991
1.28536
1.29324
1.40333
1.39357
1.31985
1.22836
1.13438
1.045
0.995149
0.968897
0.95061
0.934183
0.916903
0.905191
0.901233
0.90339
0.910486
0.921331
0.933693
0.944126
0.952252
0.958278
0.965762
0.976107
0.979575
0.980305
0.982004
0.995774
0.984389
0.988189
0.991719
0.972861
0.94846
0.919567
0.917868
0.980491
1.42154
1.76476
1.75572
1.46081
1.30667
1.40221
1.43327
1.3732
1.27824
1.19222
1.10425
1.04936
1.02497
1.0126
0.998604
0.981159
0.958365
0.943822
0.935854
0.935898
0.943503
0.957799
0.974893
0.991208
0.997196
0.990564
0.978685
0.986047
0.982855
0.986154
0.989437
0.982662
0.985312
0.984622
0.995542
0.986021
0.988793
0.992717
0.9717
0.940716
0.909008
0.899462
0.930027
1.12894
1.68488
1.806
1.68914
1.36555
1.38522
1.46595
1.42414
1.3334
1.24857
1.16718
1.11522
1.09744
1.09929
1.10134
1.0958
1.08032
1.05926
1.03514
1.01731
1.01518
1.03831
1.09388
1.17452
1.237
1.19594
1.00827
1.08312
1.00614
0.991453
1.00766
1.00703
0.987767
0.994477
0.987131
0.99536
0.98771
0.989651
0.993063
0.968841
0.930632
0.896119
0.884004
0.904013
1.00353
1.47722
1.79248
1.79191
1.5239
1.3952
1.47983
1.47083
1.3952
1.30578
1.2318
1.18169
1.1771
1.20866
1.25714
1.31645
1.3705
1.38981
1.35892
1.29978
1.26474
1.32111
1.54534
1.95403
2.38865
2.60095
1.33466
2.2269
1.07568
1.33481
1.07107
1.00862
1.06045
1.05185
0.992274
1.00511
0.989923
0.995294
0.989505
0.990807
0.992642
0.963748
0.919051
0.88337
0.871719
0.886638
0.949588
1.25668
1.71421
1.81566
1.71602
1.44426
1.48074
1.51565
1.45631
1.36481
1.29606
1.23748
1.25005
1.33855
1.49937
1.74515
2.05601
2.302
2.33133
2.19641
2.06979
2.19219
2.79065
4.0576
5.57297
6.81349
4.52013
7.80272
2.24984
4.87418
1.31705
2.20441
1.27261
1.04039
1.22271
1.17265
0.999148
1.02685
0.994013
0.995372
0.991777
0.992425
0.991753
0.956077
0.907219
0.873288
0.8641
0.875517
0.926171
1.12764
1.56449
1.80043
1.79433
1.56148
1.48908
1.55039
1.51153
1.42817
1.35934
1.28288
1.30517
1.4867
1.86065
2.46283
3.21254
3.87846
4.29764
4.35003
4.23129
4.42442
5.59623
7.46451
8.88595
9.576
9.19957
10.0145
7.93711
9.43033
4.81855
7.87554
2.0785
4.55648
1.89875
1.12658
1.71033
1.53457
1.01277
1.08372
1.00154
0.995654
0.995553
0.994627
0.989816
0.946422
0.897168
0.867758
0.861888
0.872119
0.91988
1.08578
1.44247
1.73459
1.80345
1.69851
1.52741
1.57147
1.56378
1.49469
1.42145
1.32783
1.3471
1.64398
2.32615
3.39496
4.55322
5.50903
6.07045
6.29478
6.44527
6.91971
8.14808
9.55056
10.169
10.2752
10.168
10.2731
9.98305
10.1566
9.36892
9.92061
7.69878
9.27564
4.11675
7.42191
3.54072
1.38037
2.95079
2.48294
1.04664
1.24746
1.01931
0.996363
1.00377
0.997614
0.985275
0.93678
0.890917
0.867648
0.86472
0.877979
0.930207
1.0889
1.38258
1.64109
1.7885
1.77157
1.60567
1.58253
1.6085
1.55721
1.48205
1.37765
1.37968
1.78388
2.82509
4.36209
5.88107
6.8299
7.28238
7.52511
7.78968
8.37236
9.44853
10.2946
10.5537
10.4375
10.2473
10.2797
10.1652
10.1406
10.0742
10.0703
9.86955
10.0388
9.16799
9.84926
7.0275
9.03499
6.46004
2.07841
5.69676
4.79871
1.14405
1.7206
1.07082
0.99743
1.02603
1.00488
0.97918
0.930609
0.889864
0.872384
0.872645
0.897753
0.969936
1.13261
1.37272
1.57935
1.73867
1.77885
1.68534
1.61291
1.64516
1.61278
1.54469
1.43378
1.40831
1.87318
3.25748
5.26372
6.91365
7.65129
8.01658
8.2196
8.5193
9.06936
9.7993
10.3737
10.6058
10.5576
10.3506
10.5135
10.1657
10.266
10.0588
10.0855
10.0405
10.0245
10.0576
10.0683
9.84575
10.1195
8.84361
9.8438
8.57536
3.79116
8.21098
7.69855
1.43428
2.8773
1.22474
0.998979
1.09408
1.02665
0.974147
0.929327
0.894663
0.88177
0.888903
0.936299
1.05623
1.23282
1.38909
1.55315
1.68574
1.76509
1.73244
1.65927
1.66132
1.66265
1.60725
1.49855
1.44206
1.89879
3.53675
5.95255
7.57879
8.13563
8.32317
8.47746
8.67716
9.06582
9.70443
10.2518
10.5497
10.7481
10.7228
10.9784
10.4938
10.788
10.2091
10.4898
10.0558
10.194
10.0623
10.1042
10.169
10.1877
10.2228
10.3454
9.84844
10.3719
9.85514
6.84852
9.83243
9.72526
2.20944
5.55136
1.67763
1.00197
1.30238
1.09347
0.971049
0.933007
0.904902
0.894869
0.915401
0.998056
1.17702
1.34062
1.44628
1.55217
1.6533
1.73229
1.74827
1.70065
1.68068
1.70191
1.66351
1.57032
1.48275
1.88803
3.63219
6.37407
7.96736
8.36546
8.44807
8.4198
8.54616
8.88771
9.39318
9.94551
10.4198
10.8795
11.173
11.3556
11.0874
11.2982
10.8192
11.1268
10.492
10.8332
10.2525
10.5304
10.2486
10.4024
10.4036
10.5026
10.5951
10.7289
10.5679
10.9225
10.7981
9.38512
11.0406
11.2474
4.02323
8.72996
2.76577
1.01188
1.88377
1.30461
0.969217
0.941833
0.920043
0.912442
0.953459
1.08987
1.31245
1.44558
1.51764
1.57012
1.64199
1.70498
1.74261
1.73313
1.70993
1.72652
1.71465
1.64274
1.53503
1.83703
3.61253
6.52613
8.18715
8.49338
8.39744
8.189
8.23572
8.48288
9.01082
9.73079
10.4489
11.1226
11.4491
11.4085
11.4766
11.3369
11.4198
11.1451
11.3518
10.8555
11.1641
10.6486
10.9407
10.6678
10.8938
10.8826
11.0863
11.1642
11.4152
11.3271
11.7198
11.7996
11.3438
12.3141
12.8237
7.32005
11.183
5.23309
1.04494
3.2163
1.96159
0.971639
0.956609
0.940277
0.935957
1.00281
1.20556
1.44484
1.54903
1.59141
1.61606
1.64656
1.69405
1.73302
1.7476
1.74112
1.74486
1.75547
1.71032
1.60566
1.7549
3.46885
6.50826
8.28385
8.55604
8.2588
7.95204
7.96938
8.31244
9.01199
9.80393
10.6068
11.2801
11.4584
11.3475
11.2416
11.4578
11.4267
11.4301
11.4222
11.3851
11.4731
11.2321
11.4612
11.1604
11.428
11.3297
11.5966
11.7009
12.0163
12.1209
12.5562
12.399
13.004
13.1789
13.2433
14.014
14.8441
10.5604
13.4764
8.98572
1.22811
6.28221
3.51954
0.981115
0.974968
0.963972
0.966407
1.06085
1.32587
1.56593
1.64946
1.66922
1.67281
1.67381
1.6987
1.73343
1.75721
1.764
1.7684
1.78891
1.77311
1.6889
1.71628
3.076
6.3537
8.28552
8.57533
8.10534
7.80015
7.89025
8.3826
9.17534
10.0651
10.9201
11.3394
11.4608
11.0925
10.9491
10.8527
10.5585
11.3228
11.1093
11.4433
11.2754
11.5717
11.5564
11.6567
11.7911
11.8542
12.0734
12.3355
12.6246
13.0162
13.4682
13.6736
14.3761
14.0551
15.0424
15.2311
15.5569
16.4397
17.5601
13.3874
16.0516
12.705
1.67694
10.7855
6.47874
1.00506
1.01419
1.00492
1.00663
1.12654
1.44357
1.68332
1.75
1.75369
1.74331
1.73481
1.73232
1.75311
1.77893
1.79166
1.79862
1.82125
1.82661
1.77195
1.72889
2.59937
5.91057
8.23347
8.56959
7.984
7.70976
7.83484
8.61466
9.6337
10.452
11.0229
11.3556
11.283
10.7001
10.5965
10.2488
9.85239
9.98717
9.4602
10.9249
10.4844
11.4006
11.002
11.7973
11.697
12.2203
12.2467
12.8498
12.9951
13.8513
14.1232
15.0335
15.5772
16.0516
16.9689
16.5817
17.9216
18.1631
18.4724
19.6553
20.9023
16.2419
19.0759
16.1005
2.27102
15.2883
10.7185
1.11275
1.10148
1.06947
1.19979
1.5559
1.79848
1.85425
1.84961
1.83547
1.82836
1.82298
1.82125
1.8351
1.8462
1.84878
1.86395
1.87558
1.85103
1.79869
2.23519
5.06456
8.07446
8.55586
7.93633
7.58245
7.79929
8.62729
9.59969
10.3692
10.9344
11.161
10.7233
9.08648
9.43328
8.73597
8.91351
8.34224
9.29292
8.7643
10.4586
9.86709
11.3897
10.8861
12.1803
11.9475
13.0269
12.9688
14.2741
14.29
15.9331
16.102
17.6807
18.1141
19.0896
19.9175
19.7998
21.1483
21.5266
21.8107
22.993
24.1747
19.3213
22.3403
19.4486
3.71304
20.0746
19.2499
1.24356
1.19302
1.28065
1.66346
1.91252
1.96539
1.96151
1.95985
1.97148
1.98377
1.98304
1.97376
1.9642
1.94799
1.93815
1.93653
1.92412
1.88556
2.06062
4.07382
7.70976
8.52113
7.94607
7.39171
7.60274
8.29869
9.16095
9.92237
10.429
10.3959
9.49877
7.42835
6.49574
5.5589
7.75104
7.01441
8.27175
7.77283
9.12958
8.6493
10.2863
9.67932
11.499
10.9404
12.7793
12.3977
14.2139
14.0052
16.0866
15.9627
18.2744
18.2194
20.3696
20.5017
22.0711
22.5407
23.0052
24.026
24.6271
25.0789
26.0456
27.2476
22.5746
25.6843
23.1732
11.5193
26.4837
33.6141
1.37221
1.40113
1.75659
2.0308
2.08401
2.09353
2.12207
2.18026
2.24465
2.29146
2.29008
2.2388
2.16015
2.08562
2.03781
2.00207
1.97604
2.04248
3.22619
6.87585
8.43051
8.02246
7.25198
7.27792
7.71425
8.17863
8.61756
8.86075
8.43647
7.04681
5.49613
4.65718
5.73995
5.01336
7.20051
6.48617
8.21058
7.76127
9.36328
8.994
10.3509
9.81034
11.9119
11.3787
13.636
13.18
15.686
15.2792
18.0203
17.6671
20.4027
20.1267
22.6645
22.5501
24.6706
24.8289
25.8475
26.5522
27.4388
28.2762
28.6855
29.3605
28.6468
26.2375
27.4423
28.7703
27.2243
40.9415
31.4455
39.6806
1.5694
1.87453
2.13907
2.21625
2.24362
2.32543
2.46281
2.63356
2.76899
2.80899
2.7427
2.60594
2.41731
2.24327
2.13473
2.07865
2.09367
2.70993
5.61988
8.21387
8.12251
7.21317
7.03578
7.24717
7.35683
7.16661
6.71447
5.79208
4.86341
4.21085
3.93214
4.49169
3.99952
5.65489
4.9392
7.20275
6.46316
8.6485
8.2702
10.0412
9.68416
10.8695
10.425
12.6808
12.177
14.7967
14.2743
17.23
16.7234
19.7484
19.3425
22.2091
21.8143
24.5468
24.0865
26.7544
26.3171
28.1348
27.8028
27.7067
28.6152
28.9728
29.9517
29.5952
30.0954
29.5509
29.7207
29.5074
29.9015
28.119
29.3793
29.2652
29.9482
29.8445
29.1549
29.6406
41.988
32.1985
30.7666
30.1561
31.4276
41.723
35.3744
1.97811
2.29047
2.34357
2.41698
2.55964
2.81847
3.12283
3.3708
3.46329
3.39202
3.2008
2.95348
2.66776
2.41361
2.25324
2.21473
2.51054
4.38355
7.73658
8.15456
7.2444
6.89707
6.9587
6.92848
6.47762
5.67639
4.50073
3.74795
3.46296
3.44076
3.82422
3.51905
4.42049
4.05828
5.7389
4.947
7.6853
6.76117
9.30171
8.76925
10.7489
10.2556
11.6925
11.2222
13.7312
13.182
16.1699
15.5873
18.915
18.4538
21.4985
21.3478
23.5799
23.4902
25.455
25.1601
24.8054
24.7284
27.3378
27.0866
25.766
26.0905
26.3936
28.4356
28.779
28.7138
27.7604
29.0875
30.1561
30.2633
30.2511
29.7616
29.4315
29.3346
29.839
30.2951
30.1671
30.3998
30.3325
30.0609
49.118
46.6222
38.7511
29.7388
30.0096
29.7113
30.3494
2.40369
2.51771
2.58421
2.82628
3.20425
3.66361
4.00494
4.14614
4.07363
3.85385
3.54668
3.20866
2.85677
2.56198
2.40757
2.49916
3.52329
6.64472
8.09901
7.3637
6.85739
6.83138
6.77794
6.40892
5.59908
4.35467
3.32172
3.07913
3.11239
3.31092
3.78939
3.56228
4.43969
4.07721
5.81319
4.98398
7.96348
6.88813
9.69485
8.99326
11.402
10.732
12.6199
12.0289
14.9761
14.3436
17.9567
17.4154
21.3252
21.3088
23.9562
24.9074
24.7156
25.0738
25.6104
26.469
25.3004
25.2195
25.4272
27.2465
26.7189
25.6996
25.9556
26.1259
28.092
28.7059
28.2133
27.3964
28.7718
29.907
30.3113
29.8966
29.3843
28.7334
28.5864
29.2848
30.4505
30.3988
30.3288
30.2235
29.7365
60.1036
38.0205
31.3683
29.0977
28.1803
27.4103
27.055
2.65732
2.80172
3.07091
3.61065
4.1803
4.61219
4.75207
4.68571
4.46156
4.14214
3.76668
3.37409
2.9924
2.70734
2.59892
3.10316
5.3572
7.84638
7.50451
6.86706
6.791
6.79531
6.52281
5.85734
4.61399
3.28673
2.87174
2.87778
3.04458
3.43434
3.24051
3.80643
3.57983
4.52877
4.17041
5.84978
5.05463
8.05952
6.92741
9.98757
9.13469
12.2082
11.397
13.6794
12.9683
16.8183
16.185
21.1786
20.8599
25.9257
26.5332
27.38
28.4437
29.379
30.2649
25.9783
26.9017
28.0533
29.3785
25.6785
26.0571
26.9026
26.73
26.1954
26.0221
26.3196
26.0757
27.3505
28.115
27.2109
26.6292
27.9234
29.0983
29.845
28.8456
28.3335
27.5521
27.1404
27.9626
30.2503
30.0394
29.7121
29.5577
28.6307
52.0498
28.4299
37.9518
27.5556
26.4966
25.7121
25.8262
2.96585
3.36571
3.95487
4.6836
5.12115
5.2537
5.15618
4.94973
4.64687
4.28506
3.88393
3.46994
3.09741
2.86909
3.00713
4.30413
7.10787
7.53877
6.93348
6.77767
6.85984
6.79581
6.39459
5.44531
3.62934
2.77968
2.69495
2.81513
3.05545
3.47291
3.3346
3.89414
3.67587
4.70327
4.32776
5.98723
5.22935
8.12478
7.00264
10.5246
9.58586
13.9205
13.0309
15.5102
14.7562
20.3428
19.7031
26.5634
26.079
30.831
31.252
32.6261
30.7058
31.9561
32.9872
33.7241
28.1318
29.6313
31.2529
32.8666
26.6477
27.7445
29.2682
26.1811
26.1287
27.1196
27.5164
26.5327
26.3935
26.932
26.1307
26.0812
26.5402
27.5113
28.5842
27.1196
26.6644
26.0271
25.4747
26.1605
29.4284
28.9371
28.2496
28.127
27.1517
60.3106
28.5111
48.0469
26.0906
25.2443
25.1049
26.3511
3.5701
4.33228
5.07422
5.55132
5.5976
5.49611
5.28103
5.01397
4.68746
4.32183
3.92427
3.5221
3.20032
3.05931
3.695
5.94893
7.45136
7.02751
6.76394
6.93123
7.04765
6.82947
6.13576
4.44907
2.81902
2.56337
2.62452
2.80711
3.26132
3.05823
3.59302
3.39267
4.03493
3.78786
4.98041
4.52332
6.44816
5.61455
8.54906
7.45456
12.0768
11.0423
17.0237
15.9553
18.954
18.0482
25.1939
24.0668
31.6376
29.8817
34.0897
34.1023
34.9263
36.014
34.3296
35.5429
36.4123
36.8827
31.0462
32.9236
34.7576
36.4219
28.4922
30.2697
32.2895
26.1049
26.6712
29.1339
29.702
27.8415
25.8854
25.772
25.5439
25.9856
25.3391
25.6819
26.7754
25.3113
24.9383
24.8374
24.3592
24.5026
27.8301
27.3237
26.4658
26.6479
25.8382
80.8394
32.5607
70.2526
25.0836
24.8556
25.3193
28.3264
4.58447
5.46993
5.82763
5.87727
5.70685
5.50102
5.23139
4.94797
4.63818
4.29582
3.92078
3.55889
3.2846
3.47999
4.89601
7.07892
7.0392
6.74978
6.95164
7.22421
7.20049
6.7279
5.34475
3.10895
2.4988
2.47198
2.60636
2.87088
3.27801
3.12882
3.679
3.48536
4.1808
3.91073
5.3991
4.76552
7.46447
6.31914
9.91208
8.69546
14.8207
13.5885
20.2276
18.9316
22.8441
21.5437
28.0038
26.2804
33.9174
32.4766
30.1565
31.4619
36.9514
36.6527
35.8002
37.2981
37.817
38.8633
39.4739
39.6044
34.3769
36.3978
38.2535
39.8547
31.152
33.3737
35.6357
26.7135
28.09
31.9278
32.6065
30.1897
25.7575
25.1326
25.3912
26.5907
24.6626
24.199
25.1077
24.0751
23.9608
24.2065
23.8325
23.7106
26.1881
25.898
25.0246
25.4824
25.0426
86.2018
40.1051
80.727
24.7969
25.0632
26.5587
32.4365
5.7433
6.11542
6.04101
5.89192
5.60051
5.32987
5.05777
4.79905
4.53115
4.22649
3.8912
3.57911
3.48084
4.19457
6.19942
6.96882
6.739
6.94183
7.33318
7.50062
7.21504
6.18791
3.917
2.53465
2.35698
2.44054
2.61854
3.03437
2.83745
3.36377
3.16584
3.78663
3.55808
4.34243
4.03432
6.00471
5.07002
9.08893
7.41432
12.2458
10.7432
17.6219
16.258
21.8036
20.4873
24.6819
23.2017
28.7685
27.0631
34.2074
32.7202
30.3224
31.4312
39.2844
38.4879
35.8526
37.8993
41.1184
41.9471
42.2049
42.0105
37.8296
39.8702
41.6871
43.1903
34.3132
36.7303
39.0807
28.1726
30.536
35.1302
35.8504
33.1696
26.31
24.9681
25.902
28.0068
24.5343
23.6311
24.1157
23.7214
23.6056
24.1516
23.8762
23.543
25.0275
24.996
24.3134
24.9343
24.9128
71.7831
49.6533
79.4955
25.0114
26.0136
28.8017
36.1008
6.33822
6.25164
5.97363
5.66647
5.3333
5.06316
4.8294
4.61758
4.39978
4.13996
3.8508
3.597
3.85961
5.30196
6.73658
6.72595
6.90208
7.38854
7.71013
7.59626
6.9007
4.98253
2.72423
2.30556
2.3021
2.4344
2.66845
3.03211
2.88968
3.41854
3.22755
3.89117
3.64571
4.51995
4.16693
6.79496
5.42542
11.0947
8.8465
14.7983
13.109
19.1857
17.8725
22.9661
21.612
25.634
24.3099
28.8621
28.0746
27.5526
26.867
33.8998
32.2002
29.7617
30.8254
41.1442
39.7426
35.185
37.8494
44.2764
44.7415
44.707
43.9677
41.303
43.3191
45.0576
46.4103
37.6817
40.1833
42.5648
30.5789
33.5
38.5251
39.2918
36.4401
27.6735
25.4417
27.2225
30.3622
24.9883
23.6302
23.9676
23.862
23.7267
24.6126
24.4409
23.7802
24.5568
24.784
24.3307
24.9688
25.216
63.3117
51.5155
58.5432
25.9259
27.8103
31.5664
39.7654
6.43204
6.09522
5.67063
5.31585
5.02522
4.80674
4.61647
4.4428
4.26791
4.05238
3.81029
3.79462
4.61253
6.18941
6.66049
6.8599
7.39826
7.84887
7.89894
7.46154
5.937
3.19799
2.32422
2.20787
2.2848
2.44579
2.78855
2.61662
3.08809
2.91226
3.48023
3.26811
3.98111
3.71431
4.69466
4.28249
7.67095
5.8013
12.8815
10.3523
16.4641
14.8647
20.2118
18.7255
23.6398
22.2373
26.3868
25.7498
24.987
28.1957
27.7856
27.3765
26.9508
32.7995
30.9403
28.7699
29.6254
42.4791
40.3818
34.0885
37.4704
47.1937
47.3258
47.0087
45.6788
44.768
46.7146
48.3196
49.4784
41.1615
43.6994
46.0649
33.5277
36.7145
42.065
42.8581
39.836
30.0206
26.7192
29.5367
33.3452
26.2721
24.0575
24.2691
24.6792
24.4749
26.0597
26.097
24.7867
24.68
25.0511
24.7547
25.5153
26.3397
52.3609
50.522
51.0456
27.5256
29.8153
34.3256
42.3769
6.19868
5.695
5.25995
4.94827
4.72071
4.56397
4.4309
4.29207
4.1463
3.9628
3.82664
4.22545
5.5289
6.48312
6.80149
7.38586
7.9526
8.14235
7.88604
6.74292
4.0711
2.4216
2.16485
2.16868
2.28169
2.47189
2.77861
2.65093
3.1121
2.94296
3.528
3.31092
4.06051
3.77652
4.86356
4.3881
8.04377
6.05209
13.5232
10.9585
17.164
15.4874
20.6914
19.0278
23.7136
22.2633
26.4779
25.9916
24.4283
25.1322
27.3158
27.1475
26.9551
26.6893
31.2136
29.2547
27.5918
28.1464
43.5882
40.7695
33.3823
37.4916
49.9655
49.9732
49.2937
47.64
48.2091
50.0388
51.4776
52.4922
44.745
47.2813
49.6056
36.7675
40.1231
45.7592
46.5103
43.3799
33.0276
29.0564
32.7469
36.64
29.0142
25.5802
25.1487
26.0572
26.5279
28.9911
29.0718
27.1022
25.3356
26.0896
26.0552
27.0413
27.8335
38.758
48.8268
52.0869
29.3503
32.3142
36.5367
43.7699
5.72663
5.25613
4.91071
4.67233
4.50566
4.3844
4.28294
4.16936
4.03845
3.92247
4.1034
4.97921
6.08693
6.67998
7.3401
8.03087
8.3324
8.20792
7.37841
5.05895
2.62532
2.15694
2.09427
2.1532
2.28588
2.49453
2.80789
2.66259
3.14549
2.96448
3.57002
3.3439
4.12166
3.82641
5.00742
4.47508
8.02944
6.10939
13.5206
10.9372
17.3232
15.5398
20.7543
18.9966
24.6365
23.8001
23.036
22.4514
21.5835
26.2955
25.7816
25.1772
26.0782
26.0966
26.0995
26.023
29.7607
27.415
26.1352
26.4683
45.0614
41.5929
33.2148
38.0653
52.8359
52.7549
51.8436
49.833
51.6598
53.3726
54.7875
55.7782
48.4627
50.9947
53.2761
40.3206
43.8927
49.4997
50.555
47.3012
36.7583
32.8462
36.9811
40.856
32.5338
27.3924
27.1611
28.6236
29.219
32.2635
32.1051
29.368
27.0335
27.9516
28.1891
28.5802
29.6532
20.8549
49.758
50.332
31.8132
34.22
38.5302
45.2787
5.35065
4.97718
4.71389
4.52903
4.3985
4.29664
4.20077
4.09191
3.9962
4.10504
4.71612
5.71143
6.48622
7.32167
8.08936
8.48191
8.46363
7.86502
5.94629
2.97202
2.17742
2.04452
2.06384
2.14573
2.29236
2.57907
2.67837
2.42948
2.82091
3.16654
2.98591
3.60135
3.37093
4.16879
3.86412
5.11251
4.54366
7.70275
6.08636
12.9311
10.3363
17.1318
15.1371
20.8926
19.3064
24.4027
24.2398
23.8426
23.2109
22.4776
25.8323
25.5361
24.731
24.6004
24.7032
24.8643
24.9267
29.0873
26.1118
24.6191
24.9605
46.7972
42.8018
33.6414
39.1826
56.0254
55.8807
54.6972
52.4435
55.2788
57.0751
58.5586
59.4768
52.3138
54.9682
57.3782
44.8543
48.6213
53.712
55.6126
52.1526
41.2577
36.5527
40.8089
45.4208
36.1042
30.6477
29.5795
31.488
32.2687
35.9582
36.5425
33.7193
29.0425
29.6566
30.4452
31.0131
32.4471
10.7753
51.9926
47.6787
33.6603
36.5637
39.9974
47.128
5.22578
4.89007
4.65143
4.48667
4.36831
4.27407
4.17985
4.09402
4.15899
4.69624
5.59107
6.43579
7.34138
8.15647
8.60509
8.67298
8.23534
6.62782
3.46464
2.23724
2.01197
1.99286
2.04641
2.1379
2.2948
2.68827
2.5645
2.44984
2.83816
3.18736
3.00316
3.62689
3.39291
4.212
3.8969
5.19033
4.60608
7.48284
6.07031
12.4353
9.79494
17.2036
14.925
23.6018
22.6006
22.1256
24.4415
25.4913
25.4609
25.1559
24.5539
24.9489
24.8806
24.5132
23.7185
23.7754
23.9709
24.1581
28.8572
25.6371
23.7766
24.2599
48.9908
44.4952
34.954
41.1771
59.689
59.5062
58.1462
55.6482
59.5333
61.4644
63.0251
63.9138
56.783
59.7386
62.489
49.4148
53.3647
59.1014
61.6505
57.3878
45.3772
40.6733
46.3297
50.4292
41.1896
34.6644
32.5807
36.3628
38.5406
42.7229
46.2651
39.959
31.3725
33.2011
34.048
34.3967
34.4345
6.61876
54.1865
43.5966
36.336
38.0584
41.636
48.7464
5.22705
4.9637
4.77575
4.60322
4.48733
4.39108
4.30694
4.33735
4.78738
5.63543
6.4828
7.42368
8.26277
8.72482
8.84583
8.51902
7.16141
4.0546
2.33563
1.99446
1.93366
1.96342
2.02478
2.12758
2.29767
2.69795
2.56913
2.45234
2.84766
3.20196
3.01664
3.64976
3.41076
4.25991
3.92937
5.25566
4.67064
7.54773
6.12534
12.955
9.93134
19.5134
16.2489
27.0934
25.7309
29.0045
27.027
25.3986
28.0396
28.2686
28.323
28.0022
24.3545
24.4718
25.1729
23.5925
23.6912
23.8869
24.1568
29.4018
25.619
23.6268
24.1733
51.9084
46.9929
37.6535
44.4732
64.1318
63.9387
62.4563
59.8058
64.9432
67.0274
68.7361
69.651
62.6504
66.2048
69.5207
55.9155
61.8422
66.0881
74.2529
68.281
53.2038
48.4407
58.2501
61.3838
51.7891
43.2917
38.9916
47.6301
48.656
58.108
62.6816
55.2881
36.7638
37.2836
42.3195
36.9893
38.2457
18.5644
56.6426
51.3656
37.9475
39.8832
43.0979
50.8849
5.40557
5.28989
5.21431
5.0949
4.96777
4.85113
4.81536
5.13921
5.87432
6.68746
7.63441
8.42304
8.85416
8.98833
8.73336
7.55196
4.57072
2.46339
1.98764
1.88536
1.89164
1.92617
2.00682
2.11957
2.35976
2.4525
2.21969
2.70187
2.57043
2.85395
3.21282
3.02484
3.66954
3.42475
4.3077
3.96033
5.31737
4.73379
8.25055
6.3636
15.9649
11.5243
25.6451
20.9638
31.3894
30.4736
32.7164
30.8835
27.6692
31.4844
31.8151
31.9174
31.8824
24.4863
24.8626
27.132
24.2833
24.5064
24.8423
25.308
31.2073
26.5715
24.2893
24.8204
55.8842
50.6883
42.4555
49.6809
69.9085
69.7264
68.1422
65.4242
72.4538
74.9084
76.851
77.856
70.9228
75.9146
80.5396
70.8324
81.3442
80.2599
108.704
95.3148
71.1589
65.0779
83.4415
87.098
74.1423
59.8493
50.2299
60.9339
71.7824
82.4508
95.0941
75.0817
41.5478
41.0609
48.0412
42.3268
40.5377
19.825
64.2281
78.4791
40.7203
41.2557
44.7158
51.4221
5.77605
5.8473
5.89052
5.90182
5.89986
5.93416
6.12404
6.58978
7.25562
8.03671
8.63441
8.99147
9.10493
8.88135
7.80815
4.92013
2.59344
1.98468
1.84527
1.83039
1.83855
1.90153
1.98965
2.09849
2.44875
2.32856
2.22612
2.70378
2.56819
2.85672
3.2211
3.02943
3.68729
3.4373
4.35139
3.98819
5.39758
4.79119
10.0845
6.95501
21.7425
15.3354
32.9019
30.1103
27.8497
34.8352
34.0058
35.9055
34.5177
30.973
35.3629
35.5704
35.5753
35.3604
25.8714
26.5009
30.2749
26.276
26.6591
27.2508
27.958
35.0972
29.2114
26.2427
26.8196
61.4475
56.1246
50.3566
57.5737
78.1839
78.0278
76.1725
73.3252
84.5966
87.6863
89.9586
91.0637
87.2247
96.3747
103.412
111.474
148.952
125.258
181.994
182.837
111.387
98.0645
140.806
152.106
114.469
75.298
58.4082
73.0544
98.5531
139.396
144.11
98.2442
48.0923
48.907
60.2035
45.5879
45.0248
205.293
70.1057
152.334
42.4633
42.973
44.8675
49.9584
6.22059
6.44705
6.6076
6.75011
6.92254
7.15084
7.49757
7.94693
8.4475
8.85894
9.11951
9.19165
8.95617
7.92298
5.05485
2.67341
1.97718
1.80968
1.77709
1.76346
1.80724
1.8714
1.96712
2.07688
2.44282
2.31919
2.2087
2.70351
2.5613
2.85752
3.22556
3.03155
3.70471
3.44688
4.39594
4.01766
5.53723
4.85009
13.22
8.10807
26.7965
20.5134
34.6638
32.721
32.6361
29.4135
37.9621
37.0781
38.2156
36.5488
34.9542
39.2477
39.2716
39.0965
38.6545
28.7008
29.5008
34.2984
29.9406
30.3768
31.1253
31.9847
42.4732
34.8148
29.9634
30.9633
69.3437
64.0614
62.1988
69.1644
91.5303
91.3501
88.5656
85.0002
109.011
112.595
114.561
115.683
151.771
186.102
184.146
179.625
182.649
196.801
459.582
444.369
182.615
160.042
195.644
175.018
188.277
96.1628
78.2735
105.318
145.06
194.333
197.757
144.916
59.1548
53.5095
73.0358
52.1906
47.4578
345.262
66.7952
179.909
45.2821
44.0737
44.3963
46.428
6.63314
6.97751
7.27478
7.54605
7.81969
8.1174
8.43627
8.76435
9.03695
9.20668
9.2257
8.95568
7.89483
4.97726
2.68126
1.95783
1.77495
1.72865
1.69921
1.72469
1.76666
1.8418
1.93991
2.0389
2.18989
2.42728
2.30015
2.69883
2.54848
2.85582
3.228
3.03208
3.72022
3.4542
4.43415
4.04326
5.81309
4.9255
16.8259
9.82964
29.5548
30.9895
26.5438
23.2447
36.6245
34.5018
33.1119
40.7569
39.6013
40.4389
38.632
39.1079
43.0217
42.7809
42.3682
41.7083
32.8161
33.5998
38.7123
35.4946
35.5835
36.2192
36.9411
55.0474
45.2024
36.0275
39.0362
80.1304
75.4062
78.1079
85.8347
116.235
115.428
110.394
105.378
190.326
190.814
182.518
180.678
199.774
424.935
430.949
467.917
470.779
452.727
849.403
839.913
470.938
186.652
478.264
469.589
474.127
152.354
90.6997
116.27
205.281
472.133
467.626
195.998
65.2941
63.1762
81.5311
55.7385
52.3125
263.072
60.9123
133.895
47.1425
44.3978
42.8336
44.4765
6.95548
7.41848
7.78378
8.11717
8.41906
8.6899
8.92497
9.10657
9.21959
9.205
8.86899
7.63073
4.64505
2.60366
1.92188
1.73709
1.68253
1.643
1.65258
1.67689
1.73084
1.80877
1.9007
2.05599
2.17184
2.14633
1.96751
2.41348
2.28017
2.68722
2.53236
2.84752
3.22874
3.02895
3.72767
3.45765
4.44948
4.05398
6.26418
5.00614
18.1843
11.36
31.5298
29.2343
27.016
23.6123
37.9931
35.5759
34.0149
43.4534
42.0477
42.3834
40.261
43.2103
46.594
46.0276
45.4427
44.6327
37.69
38.2931
43.1706
43.2131
42.3498
42.2165
42.3859
73.3483
62.3302
45.873
54.1762
95.8213
90.5663
99.2981
108.6
167.225
165.449
149.998
146.415
415.901
422.405
409.821
410.195
437.542
819.423
826.158
852.657
854.315
834.252
2458.35
2445.55
872.165
465.264
872.758
850.544
890.99
144.497
105.102
154.052
471.994
877.839
876.011
456.495
79.8271
68.3187
106.646
63.2658
54.7984
199.195
65.0456
137.087
49.155
44.5206
42.3911
45.3236
7.1321
7.70136
8.07643
8.40865