/*--------------------------------*- C++ -*----------------------------------*\
  =========                 |
  \\      /  F ield         | OpenFOAM: The Open Source CFD Toolbox
   \\    /   O peration     | Website:  https://openfoam.org
    \\  /    A nd           | Version:  dev
     \\/     M anipulation  |
\*---------------------------------------------------------------------------*/
FoamFile
{
    version     2.0;
    format      ascii;
    class       volScalarField;
    location    "2500";
    object      p_rgh;
}
// * * * * * * * * * * * * * * * * * * * * * * * * * * * * * * * * * * * * * //

dimensions      [1 -1 -2 0 0 0 0];

internalField   nonuniform List<scalar> 
9978
(
0.00444688
0.00610076
0.00527291
0.0058317
0.00884687
0.00463063
0.00599
0.0108595
0.00889179
0.00351706
0.00561486
0.0107134
0.0120153
0.0079074
0.00304817
0.00519593
0.0102285
0.0140664
0.0117018
0.00686019
0.00233948
0.00482127
0.00966172
0.0151082
0.0142336
0.0103833
0.00575927
0.00200455
0.00411687
0.0100376
0.0154247
0.0165865
0.013647
0.00906019
0.0049927
0.00159835
0.0039463
0.00958495
0.0150361
0.0175454
0.0163261
0.0123968
0.00786773
0.00436932
0.00110221
0.00382476
0.0092657
0.0148161
0.018172
0.0181542
0.0149305
0.0108945
0.00711868
0.00392595
0.000939677
0.00369589
0.0090526
0.0142619
0.0180783
0.019666
0.0179546
0.0139676
0.00980785
0.00640894
0.00323057
0.000676289
0.00392171
0.00867152
0.0134463
0.0178769
0.0206007
0.0198228
0.0166291
0.0127281
0.00890091
0.005916
0.00292981
0.00030787
0.00379541
0.00786579
0.0123134
0.0175713
0.0210815
0.0212569
0.0191289
0.0151364
0.0117006
0.00805176
0.00544889
0.00281526
0.000136722
0.00362436
0.00716453
0.012228
0.0175148
0.0212197
0.0222139
0.0211225
0.0177963
0.0142173
0.0105465
0.00755406
0.004952
0.00243155
-9.63546e-05
0.00320385
0.00686994
0.0113973
0.0167383
0.0207288
0.0229825
0.0224794
0.0202425
0.0167141
0.0131939
0.010065
0.00728304
0.00473942
0.00212318
-0.000261939
0.00299032
0.00704021
0.0109088
0.0163258
0.0201378
0.023139
0.0237536
0.0220312
0.0188772
0.0152953
0.0123559
0.00943226
0.00684897
0.00431542
0.00209636
-0.000370973
0.00301694
0.00637906
0.0106999
0.0156298
0.019164
0.0230775
0.0243663
0.0235795
0.0211169
0.0177445
0.0146013
0.0116874
0.00905302
0.00660632
0.00421209
0.00180715
-0.000546022
0.00269782
0.00630222
0.0103003
0.0141583
0.0182878
0.0230551
0.0247838
0.02475
0.0228952
0.0202366
0.0165709
0.0138253
0.0111148
0.00867023
0.00617886
0.00404762
0.0016999
-0.000699322
0.00254487
0.00606219
0.00927686
0.0134246
0.0175893
0.0226042
0.0249468
0.0255729
0.024506
0.0220831
0.0186656
0.0158239
0.0131827
0.0105027
0.00824117
0.005964
0.00385511
0.00162409
-0.000729232
0.00241151
0.00557906
0.00901863
0.0131962
0.0170252
0.0218849
0.0247896
0.026094
0.0256298
0.0238295
0.0210736
0.0175765
0.0151956
0.0127296
0.0102688
0.00795973
0.00586671
0.00356961
0.00143817
-0.000875922
0.00214197
0.00502419
0.00865329
0.0120242
0.0163286
0.0205738
0.0243539
0.0262963
0.026564
0.0252865
0.0229299
0.0199977
0.0171299
0.0146875
0.0121258
0.0100093
0.00771201
0.00568217
0.00345123
0.00141023
-0.000880127
0.00181664
0.00477746
0.00816176
0.0112349
0.0154767
0.0193867
0.023631
0.0262225
0.0271109
0.0264417
0.024649
0.0219256
0.0189302
0.0165451
0.0139972
0.0119153
0.00981113
0.00768996
0.00544738
0.00349487
0.00130452
-0.00103742
0.00162145
0.00456771
0.00734011
0.0109277
0.0148571
0.0185827
0.0228166
0.026029
0.0273728
0.0273505
0.0260593
0.0237289
0.0209923
0.0183323
0.0160622
0.0137604
0.0116257
0.00959691
0.00749505
0.00551408
0.00340317
0.00129619
-0.00100449
0.00135613
0.00391705
0.00703606
0.0105364
0.0140976
0.0174258
0.02166
0.0254219
0.0274227
0.0279388
0.0271781
0.0252822
0.0228317
0.0203072
0.0178934
0.0154455
0.0134874
0.0112854
0.00945874
0.00745008
0.00544578
0.00331388
0.00109642
-0.00109536
0.00104024
0.00337653
0.00635472
0.00965121
0.0132461
0.0166977
0.02089
0.0246722
0.0272078
0.028286
0.0280293
0.0266466
0.0244234
0.0219549
0.019604
0.0174277
0.015177
0.0132972
0.0113328
0.00934582
0.00738327
0.00542446
0.0032823
0.00116915
-0.001173
0.000752841
0.00292224
0.00554972
0.00884224
0.0120507
0.0158909
0.0197146
0.0236407
0.0267594
0.0284011
0.0287008
0.0277185
0.0258244
0.0235197
0.021271
0.0189742
0.0169744
0.0150132
0.0129861
0.0111779
0.00929786
0.00740776
0.00547305
0.00336795
0.00118336
-0.00117962
0.000689188
0.00269465
0.00499781
0.00814008
0.0109256
0.0151876
0.0185118
0.0226877
0.0261479
0.0282767
0.0291406
0.0287269
0.0273062
0.0249131
0.0227836
0.0206851
0.0185091
0.0166798
0.0147955
0.0129076
0.0111011
0.00926569
0.00737357
0.00542684
0.00328166
0.00116454
-0.00112628
0.000363507
0.00301114
0.00498089
0.0074897
0.0100773
0.0144368
0.0177706
0.021709
0.0251862
0.0279791
0.0293527
0.0294857
0.0284305
0.0265858
0.0243326
0.0221784
0.0201775
0.0182362
0.0164004
0.0144965
0.0128284
0.0110568
0.00927691
0.00740786
0.00543624
0.00330878
0.00106219
-0.00120859
-7.96266e-06
0.00237268
0.00592931
0.00753576
0.00952485
0.0134972
0.0168654
0.0203062
0.0243488
0.0276062
0.029368
0.0299654
0.0293969
0.0278385
0.0256207
0.0236081
0.0215846
0.0196029
0.017884
0.0161366
0.014437
0.0128031
0.011138
0.00936546
0.00752364
0.00549687
0.00333509
0.00106578
-0.00125466
-0.000358973
0.00175091
0.00491365
0.00849963
0.00948679
0.0123966
0.0157865
0.0191047
0.023438
0.026828
0.0292153
0.0302727
0.0301499
0.0290317
0.0271764
0.0248958
0.0228548
0.0209775
0.01926
0.0176024
0.0160243
0.0144827
0.0129153
0.0112665
0.00953619
0.00763968
0.00558709
0.0033824
0.0010753
-0.00127909
-0.000755286
0.00121377
0.00376405
0.00774892
0.010529
0.0120547
0.0152335
0.0180052
0.0220165
0.0261286
0.0287757
0.0304163
0.0308234
0.0300042
0.028412
0.026245
0.0241712
0.0222603
0.0205456
0.0189597
0.0174697
0.0160443
0.0146084
0.0130944
0.011487
0.00971839
0.00778842
0.0056886
0.00342219
0.00107407
-0.00130541
-0.00115392
0.000750435
0.00296126
0.00615504
0.0102993
0.0127719
0.0146614
0.0170906
0.0206029
0.0254432
0.0283154
0.0303717
0.0312564
0.0309427
0.0295949
0.0275737
0.0254583
0.0234984
0.0217421
0.0201861
0.0187659
0.0174572
0.0161784
0.0148371
0.0133808
0.011748
0.00993835
0.00795862
0.00577443
0.00346163
0.00107621
-0.00133678
-0.00156951
0.000186643
0.00223641
0.00487387
0.00884335
0.0127327
0.0143975
0.0165141
0.0193422
0.0241765
0.0277026
0.0301619
0.0315322
0.0317062
0.0306938
0.0288856
0.0267579
0.0247231
0.0228893
0.0212881
0.0199114
0.0186997
0.0175833
0.0164497
0.0152004
0.0137379
0.0120613
0.0101863
0.00811817
0.00586865
0.00351458
0.0010915
-0.00136943
-0.0018352
-0.000290926
0.00157912
0.00393979
0.00705586
0.0115998
0.0147934
0.0160005
0.0183656
0.0227549
0.0270768
0.0297425
0.0316179
0.0323237
0.0317519
0.0301761
0.028076
0.0259667
0.0240142
0.0223084
0.0208948
0.0197598
0.0187855
0.017879
0.0168929
0.0156716
0.0141708
0.0124115
0.0104387
0.00828025
0.00598605
0.00359253
0.00110344
-0.00159732
-0.00211803
-0.000852845
0.000855692
0.00306273
0.00578075
0.00955231
0.013972
0.0159892
0.0176779
0.0211975
0.0261314
0.0291813
0.0315435
0.0328068
0.0327457
0.0314448
0.0294457
0.0272456
0.0251532
0.023276
0.0217294
0.0206045
0.0197581
0.0190724
0.0183945
0.0174983
0.0162577
0.0146577
0.0127715
0.0106866
0.00846409
0.00612679
0.00361935
0.00017299
0.0014313
-0.00257725
-0.000298552
-0.00132394
-0.00239387
-0.00138243
0.00011977
0.00219167
0.00464891
0.00781461
0.0123745
0.0159329
0.0172531
0.0200477
0.0248998
0.0283897
0.0312666
0.0330419
0.0335639
0.032746
0.0308921
0.0286286
0.0263587
0.0242408
0.022474
0.0212159
0.0204511
0.019981
0.0196362
0.0191475
0.0182819
0.016935
0.0151676
0.0131299
0.0109335
0.00865544
0.0059758
0.00277126
0.00404282
0.00107646
-0.00260412
-1.33076e-05
-0.00128767
-0.00245628
-0.00181947
-0.00058169
0.00123157
0.0035931
0.00638703
0.010018
0.0147161
0.0170856
0.0192605
0.0234953
0.0273182
0.030694
0.0330419
0.034219
0.0339763
0.0324437
0.0301784
0.0277098
0.025305
0.0232256
0.0217183
0.0208477
0.0205399
0.0205544
0.0205563
0.0201946
0.0192475
0.0176993
0.0157196
0.0134812
0.0111684
0.00795917
0.00918053
0.00540199
0.00722366
0.00669438
0.00249606
0.0039087
0.00136699
-0.00258446
9.71938e-05
-0.00121384
-0.00252766
-0.00219985
-0.00116521
0.000358845
0.00247672
0.00507799
0.00825512
0.0128849
0.0164406
0.0185762
0.0217464
0.0259572
0.02981
0.0328202
0.034614
0.0350414
0.0340007
0.0318934
0.029271
0.0266229
0.024178
0.0222267
0.0211147
0.0208107
0.0211288
0.0217068
0.0219861
0.0216219
0.0204908
0.0187695
0.0165396
0.0139488
0.0105112
0.0118341
0.00867426
0.00533457
0.00801865
0.00678995
0.00278885
0.00422776
0.00155937
-0.00254424
0.000237826
-0.00110466
-0.00255717
-0.00251568
-0.00177698
-0.000455685
0.00139985
0.00376554
0.00673683
0.0107338
0.0150753
0.0178599
0.0205134
0.0244696
0.0285966
0.0322457
0.0346623
0.0358097
0.0354574
0.0336758
0.0311326
0.0283425
0.0254861
0.0231073
0.0216737
0.0213236
0.0218083
0.0228338
0.0238245
0.0242444
0.0239944
0.023359
0.0224811
0.0202003
0.0135475
0.0165913
0.0102622
0.0121635
0.00950558
0.005703
0.00835916
0.00728464
0.00306736
0.00459909
0.00178132
-0.00248342
0.000428183
-0.000955977
-0.00246258
-0.00274818
-0.00226086
-0.00122779
0.000366238
0.00247673
0.00516916
0.00880527
0.0130933
0.0166408
0.0192876
0.0227428
0.0271233
0.0312632
0.0343928
0.0362815
0.0366652
0.0355721
0.0332906
0.030432
0.027532
0.0251004
0.0237786
0.0238648
0.0246352
0.0255945
0.0267596
0.02795
0.0295093
0.0326979
0.0383226
0.0442185
0.0243892
0.0455039
0.0154373
0.0240492
0.0114064
0.0147576
0.0103239
0.00621357
0.00923211
0.00813059
0.00338701
0.00505996
0.0020701
-0.00239048
0.000676675
-0.000761833
-0.00229252
-0.00286202
-0.00267102
-0.0018881
-0.00065283
0.001188
0.0036017
0.00680565
0.0108238
0.0147742
0.0178964
0.0211584
0.0254556
0.0299115
0.033749
0.0363503
0.037552
0.0372287
0.0354026
0.0329104
0.0304416
0.0291823
0.0301699
0.0329154
0.0352697
0.0352788
0.034595
0.0354763
0.0401357
0.0516579
0.073204
0.0996857
0.0792597
0.124366
0.0463352
0.0874255
0.0236399
0.0473282
0.0136985
0.0224425
0.0124729
0.00696889
0.0111745
0.00980427
0.00380448
0.00573099
0.00244455
-0.00225817
0.000993898
-0.000515018
-0.00206256
-0.00284348
-0.00301935
-0.00245568
-0.00160634
-0.000126892
0.00200892
0.00484674
0.00848052
0.0124914
0.0160586
0.0194106
0.023425
0.0282186
0.0325982
0.0359418
0.0380091
0.0384669
0.0373784
0.0354402
0.0342415
0.0361205
0.0425839
0.0522238
0.059904
0.0609199
0.0554822
0.0522933
0.0604074
0.0850726
0.125358
0.17212
0.162406
0.206854
0.132379
0.177539
0.0912044
0.139481
0.0459881
0.0924416
0.0206554
0.0431225
0.0184528
0.0083778
0.0161598
0.013843
0.0043871
0.00687615
0.00294452
-0.00209003
0.00139746
-0.000210057
-0.00179281
-0.00272149
-0.00320624
-0.00297019
-0.00247193
-0.00140969
0.000373302
0.0028861
0.00614319
0.00995994
0.01378
0.0173693
0.0213579
0.0261985
0.030997
0.0350624
0.0379366
0.0391938
0.0390061
0.0379488
0.0385395
0.0449803
0.0591158
0.0762085
0.0891417
0.0926067
0.0870496
0.0819821
0.0912949
0.123606
0.174271
0.232811
0.239233
0.274441
0.220699
0.259327
0.18765
0.233352
0.143822
0.195199
0.0909441
0.14577
0.0390975
0.0868481
0.0344013
0.0115443
0.0294672
0.0245415
0.0053044
0.0092581
0.00365114
-0.00188714
0.00192747
0.00016239
-0.00150682
-0.00252288
-0.00322354
-0.00342679
-0.00324601
-0.00261579
-0.00124853
0.000891859
0.00378673
0.00731876
0.0111464
0.0149456
0.0189863
0.0236969
0.0289285
0.0336533
0.0373105
0.0395821
0.0401268
0.0401111
0.0425746
0.0543502
0.0774174
0.102697
0.120266
0.125873
0.119727
0.11283
0.123159
0.161177
0.219565
0.280834
0.296163
0.316263
0.292161
0.31742
0.274271
0.308364
0.243358
0.286198
0.20039
0.251329
0.145577
0.203795
0.0800245
0.14322
0.0711402
0.0197197
0.0606539
0.050564
0.00702046
0.0151312
0.00481839
-0.00166284
0.00268442
0.000622598
-0.00122737
-0.00226955
-0.00315341
-0.00377592
-0.00391275
-0.003718
-0.00280073
-0.00108796
0.00139946
0.00457621
0.00825211
0.0121449
0.0162719
0.0210182
0.0264205
0.031631
0.0360506
0.0392913
0.0407815
0.0415206
0.0456302
0.0622472
0.0943658
0.129554
0.153012
0.160941
0.155318
0.146827
0.154804
0.194587
0.249638
0.295414
0.323922
0.32508
0.334634
0.342959
0.334581
0.352102
0.321861
0.349258
0.296066
0.333253
0.257699
0.304803
0.205697
0.263113
0.13826
0.20603
0.131343
0.040641
0.121156
0.107098
0.0109166
0.0305527
0.0071666
-0.00143886
0.00397091
0.00121924
-0.000968305
-0.00198726
-0.00300371
-0.00391861
-0.00444629
-0.00467521
-0.00423723
-0.0030053
-0.000985426
0.00176612
0.00515888
0.00900022
0.0131892
0.0179542
0.0233677
0.0290303
0.0341505
0.0382351
0.0408854
0.0423207
0.0473159
0.0671956
0.107319
0.151981
0.185299
0.199581
0.197402
0.18941
0.195441
0.226565
0.259503
0.2858
0.31935
0.309162
0.342543
0.334901
0.36065
0.359845
0.368149
0.378057
0.362301
0.383071
0.343715
0.374398
0.312963
0.354188
0.267841
0.321147
0.204593
0.271954
0.201607
0.088324
0.196076
0.186202
0.0209743
0.066263
0.0127803
-0.00123198
0.00653237
0.00215004
-0.000731753
-0.00169086
-0.00277121
-0.00390504
-0.00483232
-0.00543846
-0.00549816
-0.00480351
-0.00332329
-0.00107453
0.00191356
0.00556438
0.00974304
0.0145062
0.019995
0.0259151
0.0315875
0.0364274
0.0401245
0.0424509
0.0478881
0.06875
0.114239
0.16887
0.208864
0.226883
0.232291
0.231545
0.235658
0.248884
0.262149
0.276017
0.28546
0.321437
0.30159
0.352701
0.336737
0.378745
0.372982
0.395505
0.39891
0.397343
0.412762
0.386715
0.411521
0.365088
0.399968
0.3296
0.376848
0.275384
0.338347
0.277481
0.168072
0.277309
0.272024
0.0457445
0.137899
0.0268574
-0.00106341
0.0125254
0.00382655
-0.000517742
-0.00136872
-0.0024501
-0.00372939
-0.00498497
-0.00595216
-0.00651216
-0.00640467
-0.00554639
-0.00389319
-0.00140816
0.00190309
0.00595844
0.0106941
0.0161949
0.0222434
0.0283833
0.0339312
0.0384545
0.041722
0.0471423
0.0681665
0.11465
0.175268
0.21686
0.235889
0.244967
0.249776
0.253675
0.259099
0.26626
0.266261
0.255222
0.263445
0.236065
0.313839
0.288183
0.357716
0.331991
0.395191
0.383965
0.420144
0.419111
0.429716
0.441239
0.426587
0.446791
0.414212
0.442974
0.389498
0.42943
0.346895
0.402107
0.353745
0.256951
0.358091
0.356306
0.0975219
0.230249
0.0579544
-0.00137396
0.0265034
0.00697921
-0.000306312
-0.00101669
-0.00204183
-0.00337166
-0.00484264
-0.00614625
-0.00720319
-0.00771158
-0.00755374
-0.00660939
-0.00475027
-0.00191088
0.00187763
0.00652347
0.0119846
0.0181662
0.0246095
0.0307241
0.035921
0.0400965
0.0450091
0.064579
0.111758
0.173056
0.21289
0.23119
0.242297
0.25033
0.256797
0.261172
0.261323
0.253517
0.227427
0.213604
0.189334
0.237119
0.206373
0.301501
0.269239
0.360133
0.328199
0.412213
0.3945
0.444839
0.441308
0.461555
0.47011
0.464526
0.481113
0.459767
0.482516
0.444663
0.475637
0.414273
0.457725
0.42329
0.344619
0.4266
0.423549
0.182683
0.318925
0.116354
-0.00268193
0.0528947
0.0117588
-0.0001032
-0.000625478
-0.00153297
-0.00280323
-0.00439124
-0.00601541
-0.00751161
-0.00862383
-0.00921577
-0.00908973
-0.00801611
-0.00581246
-0.00243846
0.00201021
0.0074001
0.0136073
0.0202813
0.0268688
0.0326691
0.0376356
0.0422821
0.0576068
0.103933
0.165154
0.202464
0.221106
0.231786
0.239626
0.246103
0.250415
0.248064
0.232648
0.19732
0.170262
0.150119
0.177102
0.14939
0.219289
0.185222
0.292014
0.255117
0.364181
0.328218
0.431082
0.40751
0.470881
0.465441
0.493154
0.499027
0.499745
0.51336
0.498209
0.515278
0.48606
0.505973
0.464174
0.489079
0.464985
0.413275
0.461056
0.454556
0.275074
0.39277
0.19742
-0.00755987
0.0902199
0.0155383
-0.000210222
-0.000944013
-0.00212198
-0.00373902
-0.00555836
-0.00739737
-0.00906364
-0.0104013
-0.0111673
-0.0110279
-0.00965852
-0.00689258
-0.00279936
0.00242944
0.00860772
0.0154468
0.0224126
0.0287866
0.0343181
0.0391516
0.0501575
0.0892281
0.15072
0.183713
0.202457
0.210371
0.212858
0.216072
0.219468
0.21544
0.195445
0.149252
0.0931819
0.123798
0.0972339
0.152902
0.122436
0.214688
0.180043
0.289731
0.251369
0.373049
0.334007
0.451966
0.424041
0.497233
0.489294
0.522423
0.523594
0.528513
0.537571
0.521788
0.534705
0.506261
0.520514
0.485617
0.500661
0.47946
0.445986
0.469859
0.459471
0.351454
0.432659
0.275502
-0.0223278
0.131412
0.0223672
-0.000312281
-0.00129657
-0.00279325
-0.0047155
-0.00682621
-0.00896511
-0.0109979
-0.0126582
-0.0135447
-0.013211
-0.0112971
-0.00776657
-0.00286832
0.00318081
0.0100744
0.0173558
0.0242681
0.0302983
0.0355762
0.0433522
0.0731445
0.131334
0.163068
0.176695
0.172978
0.159753
0.148902
0.145248
0.14194
0.124258
0.0943081
0.0656322
0.0626203
0.049701
0.0954827
0.0735465
0.147145
0.116027
0.219927
0.185692
0.294233
0.256024
0.387834
0.348764
0.470144
0.43786
0.516656
0.501725
0.540036
0.534296
0.544196
0.548557
0.533482
0.544371
0.513756
0.526824
0.489873
0.499497
0.473109
0.450721
0.453571
0.435089
0.404657
0.443324
0.342494
-0.0467714
0.207901
0.060642
-0.000405657
-0.00168697
-0.00354498
-0.00579302
-0.00828773
-0.0109106
-0.013398
-0.0152899
-0.0160615
-0.0152748
-0.0125354
-0.00814914
-0.00250563
0.00421831
0.0116824
0.0191057
0.0257641
0.0315313
0.0376062
0.0578421
0.109291
0.143824
0.15332
0.137473
0.110038
0.0891408
0.0809071
0.0774072
0.0708931
0.0594145
0.0478009
0.0423797
0.0540843
0.0460523
0.0884237
0.0671257
0.152164
0.119178
0.239323
0.203832
0.310477
0.274237
0.400177
0.360791
0.475148
0.440089
0.522002
0.499005
0.544799
0.531864
0.550633
0.547648
0.538748
0.545496
0.511777
0.5248
0.477537
0.489202
0.450945
0.422596
0.421029
0.399705
0.410517
0.433501
0.433936
0.417493
0.406557
-0.0135544
0.338122
0.238856
-0.000479677
-0.00212897
-0.00434181
-0.00704125
-0.0100875
-0.0132567
-0.0160369
-0.0177831
-0.0180415
-0.0165879
-0.0129287
-0.00788234
-0.0016995
0.00553007
0.0133372
0.0206488
0.0268867
0.0326335
0.0452163
0.085957
0.126126
0.134159
0.112356
0.0794117
0.0619237
0.0532004
0.048903
0.0462229
0.0428299
0.0394991
0.0381682
0.0417504
0.0386605
0.053113
0.0453534
0.0893503
0.0669782
0.166618
0.128239
0.247477
0.209495
0.322167
0.284657
0.400917
0.360722
0.465149
0.425821
0.507502
0.472814
0.532414
0.504122
0.541663
0.523097
0.53079
0.524908
0.502159
0.505172
0.458698
0.479676
0.473641
0.429586
0.433875
0.386022
0.395225
0.374654
0.39595
0.396895
0.415805
0.379501
0.430141
0.419426
0.417016
0.392285
0.420646
0.40695
0.412873
0.149732
0.35846
0.383507
0.405198
0.368321
0.271334
0.32872
-0.000536328
-0.00259068
-0.00526107
-0.00854649
-0.0121823
-0.0156412
-0.0181419
-0.0190761
-0.0182986
-0.0160385
-0.01194
-0.00681979
-0.000307555
0.00722803
0.0149943
0.0218273
0.0277979
0.0358721
0.0642893
0.107638
0.119275
0.0961795
0.065531
0.0511044
0.0431741
0.0385008
0.0366375
0.036302
0.035761
0.0355526
0.0373634
0.035761
0.0405558
0.0384201
0.052694
0.0447541
0.0931456
0.0678989
0.169864
0.129319
0.24352
0.203185
0.321289
0.282509
0.384364
0.342528
0.432125
0.390401
0.467798
0.4311
0.492835
0.46297
0.505275
0.48026
0.509784
0.503725
0.496592
0.488898
0.483224
0.48346
0.490752
0.478803
0.481862
0.463563
0.440295
0.445855
0.467504
0.421995
0.363814
0.366931
0.350216
0.378392
0.382531
0.402462
0.360455
0.397027
0.392972
0.363407
0.400221
0.400428
0.131656
0.318598
0.310763
0.378197
0.393572
0.361083
0.335552
-0.000564163
-0.00310926
-0.00633636
-0.010227
-0.0141165
-0.0170956
-0.0184182
-0.0179932
-0.0162851
-0.0134799
-0.00934839
-0.00468716
0.00163356
0.00914973
0.0164642
0.022728
0.0290728
0.0467139
0.0865198
0.106565
0.0889021
0.059481
0.0465426
0.0398622
0.0339474
0.0310268
0.031659
0.0325808
0.0331407
0.0336857
0.0364459
0.0351074
0.0399413
0.0375828
0.051074
0.0437004
0.0925479
0.0661578
0.161158
0.118891
0.219769
0.177981
0.301409
0.260743
0.349876
0.311623
0.397764
0.365036
0.438539
0.41784
0.466231
0.464158
0.483166
0.481936
0.483922
0.493299
0.485186
0.481298
0.480863
0.468592
0.46844
0.477196
0.471602
0.46846
0.451002
0.428464
0.433756
0.453607
0.409507
0.343931
0.339882
0.329312
0.362615
0.38961
0.369098
0.343285
0.364067
0.367776
0.334512
0.372027
0.374335
0.0936671
0.273766
0.330567
0.371606
0.361454
0.346479
0.331232
-0.000570181
-0.0036836
-0.00748024
-0.0116222
-0.0148919
-0.0164618
-0.0163338
-0.0150388
-0.0129308
-0.00977968
-0.00599029
-0.00176824
0.00397211
0.0110705
0.0175238
0.0235707
0.0340966
0.065015
0.093385
0.084551
0.0579359
0.0470124
0.0423494
0.0368757
0.0294402
0.026799
0.0287838
0.0302042
0.0310844
0.0327125
0.0314029
0.0357535
0.0342165
0.0397466
0.0373897
0.0487242
0.0430458
0.0829868
0.0600984
0.136756
0.100566
0.199743
0.161895
0.274613
0.237579
0.33333
0.302368
0.39963
0.38337
0.472314
0.483896
0.505219
0.523391
0.540512
0.560508
0.48622
0.49842
0.516894
0.540518
0.478229
0.485349
0.499291
0.455984
0.46038
0.479863
0.482829
0.468835
0.438516
0.416133
0.422904
0.444048
0.397335
0.325922
0.317593
0.311401
0.348296
0.377532
0.356602
0.32825
0.334244
0.337667
0.310517
0.34215
0.345599
0.104841
0.31664
0.234017
0.345242
0.339433
0.331007
0.320898
-0.000540592
-0.00426685
-0.00831207
-0.0118586
-0.0136513
-0.0138072
-0.0128705
-0.0112951
-0.00914178
-0.00582994
-0.00255349
0.00137925
0.00642936
0.0125634
0.0185011
0.0256127
0.0463189
0.0778229
0.0810503
0.0596607
0.0480595
0.0447667
0.0407097
0.0315454
0.0223325
0.0244148
0.0266166
0.0281424
0.0290005
0.0321161
0.0305436
0.0353906
0.0336798
0.0395061
0.0370048
0.0483304
0.0430071
0.0740816
0.0576315
0.126235
0.0959879
0.203361
0.169146
0.27092
0.237815
0.36657
0.347056
0.491183
0.49285
0.575902
0.590796
0.636698
0.567087
0.594726
0.620087
0.641369
0.520829
0.549232
0.582349
0.617403
0.494088
0.516511
0.547581
0.453083
0.46652
0.504278
0.515306
0.486061
0.431927
0.406039
0.418048
0.445034
0.387617
0.310668
0.300466
0.297115
0.335546
0.36741
0.345876
0.315786
0.308603
0.311874
0.294128
0.318221
0.323132
0.125795
0.293876
0.244446
0.325227
0.325122
0.324525
0.31714
-0.000475825
-0.0046453
-0.00817241
-0.0103768
-0.0107892
-0.0102531
-0.00923855
-0.00777389
-0.00560344
-0.00235725
0.000675437
0.00417195
0.00847829
0.0138192
0.0197809
0.032377
0.0606873
0.0762637
0.0619899
0.050074
0.0467447
0.0433231
0.0343654
0.0198537
0.019658
0.0226672
0.0247651
0.0262053
0.0280389
0.0267419
0.0312856
0.0296753
0.0349371
0.0329491
0.0395964
0.0365045
0.0501785
0.0438659
0.0738397
0.059488
0.137426
0.110549
0.262602
0.228726
0.323791
0.295184
0.486659
0.47146
0.634245
0.614835
0.656456
0.660743
0.690526
0.708375
0.65115
0.6805
0.703045
0.717587
0.585102
0.626127
0.667166
0.704279
0.535379
0.575323
0.62087
0.462945
0.489037
0.554864
0.573664
0.526124
0.434602
0.401412
0.420327
0.456854
0.381891
0.299537
0.288751
0.288475
0.325395
0.36119
0.34037
0.307884
0.292713
0.296159
0.285172
0.303039
0.309845
0.124764
0.301255
0.298357
0.316204
0.323058
0.32926
0.333539
-0.000349711
-0.00443565
-0.00674182
-0.00772265
-0.00767656
-0.00741427
-0.0065779
-0.00499793
-0.00255921
0.000487678
0.0036002
0.00664428
0.0101185
0.0153131
0.0232651
0.0444814
0.0676968
0.0626222
0.0526421
0.0489495
0.0455181
0.0377535
0.0216801
0.0150788
0.0183643
0.0212133
0.023099
0.0242789
0.0273077
0.025748
0.0304222
0.0288274
0.0342992
0.0322911
0.0403454
0.0363078
0.05746
0.047003
0.0891911
0.0717099
0.194911
0.162056
0.38083
0.340078
0.44885
0.417921
0.586879
0.562215
0.673199
0.652181
0.616528
0.635106
0.724062
0.720082
0.687183
0.712968
0.73437
0.755332
0.766428
0.766269
0.667994
0.712369
0.750352
0.779104
0.602658
0.654479
0.705373
0.489937
0.534815
0.628023
0.650088
0.58989
0.446134
0.402459
0.430665
0.484412
0.382055
0.294197
0.282658
0.284629
0.321183
0.360737
0.33989
0.304564
0.285735
0.290496
0.28132
0.29821
0.307965
0.0841654
0.363386
0.365971
0.319655
0.333367
0.349392
0.376251
-6.31338e-05
-0.00346583
-0.00456108
-0.00550577
-0.00585051
-0.0056858
-0.00454975
-0.00255188
0.000162126
0.00320362
0.0061007
0.00846115
0.0115714
0.0177068
0.0317045
0.0553822
0.0616736
0.0549439
0.0512553
0.0480693
0.0412293
0.0258663
0.0118963
0.0139229
0.0174975
0.0198961
0.0215199
0.0231685
0.021999
0.026215
0.0247163
0.0294624
0.0277468
0.0336207
0.0315183
0.0421598
0.0362711
0.0729249
0.0535533
0.130229
0.0995627
0.295385
0.246772
0.470595
0.429162
0.536979
0.506348
0.585357
0.562274
0.660501
0.633246
0.589098
0.608956
0.755132
0.735916
0.652798
0.691336
0.797089
0.803387
0.796624
0.781223
0.75106
0.787993
0.814206
0.828791
0.684287
0.73719
0.782458
0.536668
0.59993
0.709452
0.729426
0.666665
0.472007
0.411067
0.454378
0.52911
0.38979
0.292659
0.281025
0.286865
0.321513
0.368197
0.348037
0.307449
0.284834
0.292705
0.283579
0.304419
0.319518
0.0618136
0.423773
0.362697
0.337158
0.357831
0.385851
0.425907
0.000426073
-0.00215116
-0.00315613
-0.00444552
-0.00478813
-0.00441245
-0.0029735
-0.000519697
0.00258876
0.0056609
0.00801837
0.00943282
0.0141617
0.0231573
0.0436224
0.0591814
0.0563225
0.0535004
0.0508477
0.0449194
0.0306758
0.0118583
0.00980307
0.0137262
0.0167303
0.0186419
0.0196546
0.0222399
0.0208496
0.0250173
0.0235821
0.0285589
0.0266028
0.0329079
0.0305885
0.045082
0.0362751
0.0976818
0.0641313
0.195168
0.143465
0.379811
0.321606
0.485905
0.447659
0.542091
0.516566
0.516842
0.506352
0.501225
0.497174
0.614909
0.580638
0.530911
0.552155
0.756803
0.727105
0.597763
0.647789
0.829951
0.821222
0.802116
0.775317
0.81739
0.840492
0.851738
0.849844
0.763032
0.806963
0.839246
0.598758
0.672694
0.783143
0.79737
0.741462
0.514469
0.432946
0.494388
0.58756
0.410669
0.299827
0.288532
0.301476
0.331779
0.388647
0.3703
0.322528
0.292496
0.306832
0.299141
0.3244
0.343776
0.0741915
0.457821
0.314987
0.365429
0.390743
0.424484
0.465239
0.000900352
-0.00144023
-0.00256404
-0.00390919
-0.00449521
-0.00404964
-0.00205286
0.00113544
0.0047301
0.00771232
0.00934499
0.0113607
0.0181717
0.0334367
0.0528808
0.0571388
0.0556194
0.0537784
0.0486127
0.0358238
0.016016
0.00678551
0.010145
0.0136105
0.0159316
0.0172972
0.0184717
0.0174383
0.0209026
0.0196389
0.0237699
0.0222581
0.0274743
0.0255786
0.0320485
0.0294979
0.0469783
0.0358104
0.123204
0.0738852
0.256078
0.187424
0.39927
0.339912
0.442218
0.409944
0.494991
0.490802
0.462452
0.447835
0.442326
0.440873
0.442311
0.550631
0.510379
0.459622
0.479912
0.73934
0.696122
0.537275
0.598556
0.840363
0.82096
0.794212
0.757387
0.859493
0.867173
0.864206
0.854996
0.825263
0.854872
0.872321
0.666846
0.740997
0.838374
0.844919
0.801537
0.569937
0.471279
0.546767
0.651618
0.447492
0.322733
0.312414
0.332155
0.358114
0.425447
0.408369
0.354654
0.315343
0.334407
0.329209
0.355225
0.376948
0.0534934
0.459538
0.25371
0.400173
0.425969
0.458331
0.485841
0.00104333
-0.0011599
-0.00259936
-0.00430528
-0.00473495
-0.00372165
-0.00107368
0.00269876
0.00652535
0.00923917
0.0105004
0.0154191
0.0260596
0.0448768
0.0564505
0.0575237
0.0567243
0.0522566
0.0409074
0.0218322
0.00588068
0.00703503
0.0107387
0.0134169
0.0149668
0.015476
0.0172885
0.0161964
0.0196338
0.0183926
0.0225902
0.0210282
0.026013
0.0242876
0.0309199
0.0281236
0.0463519
0.0346769
0.129345
0.0751039
0.271787
0.19905
0.36639
0.311889
0.336547
0.309286
0.444719
0.447987
0.373286
0.379858
0.371514
0.368908
0.370152
0.373526
0.480804
0.434923
0.381773
0.402381
0.711859
0.658193
0.483119
0.555886
0.837062
0.812562
0.779948
0.738232
0.87741
0.873862
0.865249
0.849201
0.865419
0.880385
0.88345
0.730628
0.795831
0.871834
0.872029
0.842831
0.631076
0.521241
0.605039
0.712605
0.496196
0.360685
0.348904
0.3754
0.39983
0.474283
0.459159
0.40017
0.349895
0.372087
0.370624
0.394059
0.415401
0.0303469
0.434293
0.174481
0.436596
0.457842
0.483949
0.492169
0.000955222
-0.00139912
-0.00336589
-0.0048961
-0.00471296
-0.0028677
0.000333654
0.00425519
0.00797963
0.0103447
0.0136868
0.0219698
0.0376919
0.0532331
0.0588647
0.0593776
0.0558186
0.0456638
0.0277079
0.00722499
0.00499807
0.0083231
0.0111775
0.0129346
0.0137677
0.0133545
0.0161094
0.0151814
0.0183999
0.0171983
0.0211654
0.0197453
0.0242709
0.0226123
0.0295972
0.0264482
0.0428592
0.0325536
0.11759
0.0678658
0.249786
0.183026
0.275741
0.232038
0.318613
0.228046
0.222122
0.213095
0.197609
0.377471
0.379924
0.314175
0.294395
0.292547
0.294463
0.298439
0.415914
0.363272
0.30374
0.326509
0.686774
0.62557
0.438579
0.518318
0.827484
0.798873
0.762504
0.716911
0.879497
0.87141
0.85688
0.837364
0.884842
0.886133
0.881768
0.782767
0.83473
0.884856
0.881968
0.867575
0.690032
0.578879
0.663847
0.76422
0.55267
0.410555
0.39673
0.429256
0.452452
0.531133
0.516294
0.455723
0.394295
0.416918
0.421421
0.436683
0.454288
0.013651
0.392167
0.090512
0.47022
0.483787
0.501555
0.489736
0.00051861
-0.00217954
-0.00450211
-0.00544801
-0.00439483
-0.00156706
0.00208437
0.00585799
0.00936117
0.0129353
0.0200591
0.0326688
0.0486946
0.0587548
0.0614692
0.0590818
0.05004
0.033057
0.0108752
0.00428766
0.00656384
0.0093752
0.0112205
0.0121361
0.0121289
0.0121985
0.0140499
0.0116231
0.0149665
0.0170268
0.0159651
0.0192825
0.0181051
0.0223948
0.0206098
0.0277135
0.0246401
0.0368229
0.0293334
0.084729
0.0524214
0.184174
0.133624
0.159252
0.138926
0.229243
0.158687
0.159391
0.15859
0.158559
0.303784
0.30878
0.228145
0.223999
0.219836
0.219713
0.22135
0.363699
0.303056
0.235645
0.261464
0.660748
0.594132
0.394745
0.480902
0.813006
0.781594
0.742623
0.694202
0.873984
0.860499
0.842869
0.821875
0.885974
0.881375
0.873545
0.82161
0.859817
0.883361
0.87829
0.876385
0.742102
0.636656
0.716482
0.805388
0.610182
0.468968
0.452995
0.489292
0.511219
0.588282
0.57582
0.516402
0.444992
0.464052
0.476829
0.478853
0.490761
0.00717445
0.322526
0.0469821
0.498075
0.503548
0.512101
0.476479
-0.000121546
-0.00298597
-0.00487594
-0.00501026
-0.00328851
7.67434e-05
0.00416246
0.00828281
0.0125655
0.0191246
0.0305295
0.0452713
0.0571834
0.0628531
0.061686
0.0538474
0.038093
0.0159175
0.00487143
0.0056405
0.00803693
0.00990109
0.0108203
0.0110997
0.0104016
0.012934
0.0111351
0.0106178
0.0136969
0.0152229
0.0144462
0.0171622
0.0161045
0.0202299
0.0185667
0.0251304
0.0223596
0.030678
0.025321
0.0555714
0.0397553
0.112403
0.0823182
0.128518
0.120826
0.114861
0.157043
0.124979
0.129215
0.131928
0.132112
0.223594
0.225714
0.15583
0.166963
0.159671
0.156777
0.155453
0.314847
0.250918
0.181686
0.208727
0.63411
0.562494
0.357104
0.450842
0.794436
0.761761
0.721394
0.672011
0.860328
0.843809
0.824503
0.800466
0.878493
0.870339
0.856529
0.84941
0.867772
0.87319
0.864626
0.869836
0.785123
0.689894
0.764106
0.836983
0.665376
0.531116
0.511818
0.550989