/*--------------------------------*- C++ -*----------------------------------*\
  =========                 |
  \\      /  F ield         | OpenFOAM: The Open Source CFD Toolbox
   \\    /   O peration     | Website:  https://openfoam.org
    \\  /    A nd           | Version:  dev
     \\/     M anipulation  |
\*---------------------------------------------------------------------------*/
FoamFile
{
    version     2.0;
    format      ascii;
    class       surfaceScalarField;
    location    "2500";
    object      phi;
}
// * * * * * * * * * * * * * * * * * * * * * * * * * * * * * * * * * * * * * //

dimensions      [1 0 -1 0 0 0 0];

internalField   nonuniform List<scalar> 
19793
(
1.62516e-07
1.12115e-07
1.42368e-07
2.79441e-07
4.61375e-07
1.00284e-07
1.1866e-07
3.81812e-07
4.60083e-07
2.80754e-07
6.6783e-07
8.22996e-08
9.96328e-08
4.53856e-07
4.30187e-07
4.11728e-07
6.95517e-07
2.53093e-07
8.25104e-07
6.73747e-08
8.40004e-08
5.06863e-07
3.79458e-07
5.04595e-07
7.09437e-07
3.97819e-07
8.64569e-07
2.13492e-07
9.60838e-07
5.65005e-08
7.00238e-08
5.46432e-07
3.21866e-07
5.64463e-07
6.99492e-07
5.14536e-07
9.07995e-07
3.54521e-07
9.94018e-07
1.80328e-07
1.07707e-06
4.86476e-08
5.82155e-08
5.75103e-07
2.69573e-07
5.98737e-07
6.66116e-07
5.97828e-07
9.40703e-07
4.81773e-07
1.04461e-06
3.03962e-07
1.10337e-06
1.54035e-07
1.18151e-06
4.23446e-08
4.94542e-08
5.93009e-07
2.27229e-07
6.17468e-07
6.15905e-07
6.48936e-07
9.50867e-07
5.87695e-07
1.10122e-06
4.25149e-07
1.14689e-06
2.60472e-07
1.20141e-06
1.34153e-07
1.27361e-06
3.70289e-08
4.35059e-08
6.03431e-07
1.95064e-07
6.25253e-07
5.58862e-07
6.74499e-07
9.35988e-07
6.63792e-07
1.14911e-06
5.398e-07
1.20373e-06
3.68303e-07
1.23561e-06
2.26302e-07
1.29053e-06
1.17255e-07
1.35548e-06
3.25281e-08
3.96223e-08
6.08165e-07
1.73607e-07
6.24941e-07
5.01712e-07
6.82349e-07
8.99376e-07
7.11104e-07
1.17785e-06
6.35062e-07
1.26909e-06
4.74402e-07
1.28423e-06
3.19704e-07
1.31892e-06
1.97925e-07
1.36948e-06
1.03275e-07
1.42928e-06
2.89522e-08
3.7514e-08
6.09721e-07
1.59139e-07
6.22663e-07
4.47323e-07
6.7932e-07
8.47214e-07
7.34469e-07
1.18265e-06
7.06246e-07
1.33056e-06
5.73601e-07
1.34673e-06
4.11867e-07
1.35871e-06
2.79941e-07
1.39248e-06
1.74866e-07
1.44075e-06
9.18214e-08
1.49612e-06
2.5834e-08
3.61883e-08
6.11067e-07
1.47141e-07
6.21759e-07
4.00197e-07
6.69749e-07
7.88086e-07
7.3837e-07
1.16329e-06
7.53835e-07
1.37555e-06
6.61252e-07
1.41768e-06
5.02707e-07
1.41072e-06
3.59832e-07
1.42615e-06
2.46296e-07
1.46038e-06
1.55262e-07
1.50598e-06
8.19858e-08
1.55663e-06
2.29851e-08
3.5362e-08
6.14228e-07
1.37936e-07
6.20252e-07
3.65308e-07
6.56663e-07
7.29115e-07
7.28728e-07
1.12362e-06
7.78066e-07
1.39856e-06
7.3081e-07
1.48783e-06
5.91096e-07
1.47396e-06
4.39492e-07
1.46976e-06
3.16285e-07
1.48714e-06
2.19592e-07
1.52271e-06
1.38552e-07
1.56525e-06
7.33832e-08
1.61164e-06
2.05175e-08
3.44334e-08
6.19934e-07
1.33135e-07
6.19065e-07
3.40524e-07
6.45143e-07
6.73682e-07
7.12118e-07
1.06997e-06
7.82429e-07
1.39647e-06
7.80163e-07
1.5451e-06
6.73369e-07
1.54572e-06
5.19292e-07
1.52329e-06
3.85955e-07
1.5233e-06
2.80149e-07
1.5465e-06
1.95822e-07
1.58001e-06
1.23844e-07
1.61955e-06
6.54977e-08
1.66178e-06
1.84625e-08
3.4233e-08
6.28217e-07
1.31576e-07
6.21525e-07
3.22366e-07
6.37387e-07
6.26604e-07
6.92259e-07
1.00892e-06
7.73231e-07
1.37169e-06
8.07173e-07
1.58292e-06
7.42412e-07
1.61958e-06
5.99454e-07
1.58666e-06
4.55889e-07
1.56829e-06
3.40921e-07
1.57733e-06
2.49322e-07
1.60064e-06
1.75188e-07
1.63229e-06
1.11107e-07
1.66794e-06
5.93785e-08
1.70856e-06
1.64534e-08
3.52049e-08
6.42182e-07
1.32006e-07
6.27865e-07
3.12207e-07
6.31676e-07
5.89703e-07
6.74224e-07
9.45783e-07
7.55479e-07
1.3291e-06
8.15819e-07
1.59729e-06
7.92821e-07
1.68636e-06
6.75632e-07
1.65818e-06
5.27976e-07
1.62197e-06
4.02069e-07
1.61517e-06
3.03087e-07
1.62724e-06
2.22743e-07
1.6502e-06
1.57258e-07
1.67951e-06
9.95394e-08
1.7148e-06
5.3154e-08
1.75128e-06
1.46711e-08
3.64216e-08
6.64106e-07
1.35054e-07
6.39204e-07
3.06479e-07
6.33648e-07
5.5897e-07
6.62551e-07
8.85164e-07
7.34909e-07
1.27436e-06
8.10203e-07
1.58862e-06
8.24479e-07
1.73776e-06
7.4141e-07
1.73377e-06
6.00003e-07
1.6858e-06
4.64322e-07
1.65993e-06
3.57284e-07
1.65994e-06
2.70383e-07
1.67375e-06
1.99246e-07
1.69595e-06
1.40851e-07
1.72415e-06
9.02177e-08
1.75656e-06
4.78782e-08
1.79059e-06
1.32049e-08
3.77013e-08
6.93472e-07
1.40511e-07
6.58708e-07
3.01119e-07
6.44656e-07
5.3589e-07
6.56774e-07
8.32832e-07
7.14955e-07
1.21305e-06
7.96285e-07
1.56056e-06
8.38292e-07
1.76867e-06
7.93558e-07
1.80703e-06
6.6816e-07
1.75755e-06
5.28192e-07
1.71173e-06
4.12399e-07
1.69825e-06
3.18975e-07
1.70229e-06
2.41864e-07
1.71621e-06
1.79007e-07
1.73781e-06
1.27237e-07
1.7653e-06
8.15074e-08
1.79547e-06
4.30333e-08
1.82716e-06
1.18432e-08
3.94188e-08
7.3158e-07
1.44507e-07
6.8947e-07
2.98758e-07
6.61121e-07
5.21213e-07
6.59342e-07
7.91507e-07
6.98374e-07
1.15026e-06
7.7787e-07
1.51512e-06
8.4176e-07
1.77595e-06
8.31018e-07
1.86947e-06
7.31107e-07
1.83432e-06
5.91322e-07
1.77361e-06
4.66382e-07
1.74238e-06
3.68284e-07
1.7361e-06
2.85164e-07
1.74146e-06
2.16677e-07
1.75655e-06
1.60296e-07
1.77747e-06
1.15068e-07
1.80383e-06
7.31597e-08
1.83154e-06
3.86751e-08
1.86151e-06
1.05402e-08
4.14499e-08
7.79586e-07
1.47695e-07
7.28458e-07
3.01539e-07
6.86872e-07
5.08898e-07
6.73545e-07
7.61935e-07
6.89131e-07
1.08992e-06
7.58675e-07
1.4588e-06
8.34268e-07
1.76293e-06
8.54801e-07
1.91498e-06
7.85531e-07
1.91232e-06
6.53145e-07
1.84517e-06
5.19795e-07
1.79412e-06
4.14693e-07
1.7755e-06
3.28891e-07
1.77194e-06
2.54644e-07
1.77867e-06
1.94479e-07
1.79373e-06
1.44074e-07
1.8149e-06
1.04021e-07
1.83858e-06
6.61496e-08
1.8653e-06
3.49072e-08
1.89301e-06
9.46239e-09
4.35218e-08
8.37112e-07
1.53203e-07
7.74197e-07
3.05419e-07
7.247e-07
4.99521e-07
6.96342e-07
7.43156e-07
6.9246e-07
1.0357e-06
7.43402e-07
1.39792e-06
8.19686e-07
1.73308e-06
8.64166e-07
1.94075e-06
8.29028e-07
1.98396e-06
7.13884e-07
1.92294e-06
5.75175e-07
1.85513e-06
4.58695e-07
1.82026e-06
3.69914e-07
1.80701e-06
2.9383e-07
1.80464e-06
2.28711e-07
1.81418e-06
1.7407e-07
1.82963e-06
1.2937e-07
1.84929e-06
9.33479e-08
1.87172e-06
5.98174e-08
1.89749e-06
3.04476e-08
1.923e-06
8.34398e-09
4.56217e-08
9.02701e-07
1.59771e-07
8.30619e-07
3.07533e-07
7.72073e-07
4.97103e-07
7.27307e-07
7.30624e-07
7.08921e-07
9.93717e-07
7.34681e-07
1.33797e-06
8.03588e-07
1.6898e-06
8.63041e-07
1.94588e-06
8.59077e-07
2.04366e-06
7.69356e-07
2.00485e-06
6.32121e-07
1.92458e-06
5.05593e-07
1.87129e-06
4.07639e-07
1.84655e-06
3.30383e-07
1.83585e-06
2.62652e-07
1.83824e-06
2.04665e-07
1.84796e-06
1.55763e-07
1.86297e-06
1.15705e-07
1.88102e-06
8.40656e-08
1.90412e-06
5.32076e-08
1.92727e-06
2.62037e-08
1.95072e-06
7.27768e-09
4.60838e-08
9.76328e-07
1.63094e-07
8.994e-07
3.10351e-07
8.27905e-07
4.99415e-07
7.69768e-07
7.22519e-07
7.35429e-07
9.67209e-07
7.35694e-07
1.28344e-06
7.89335e-07
1.63906e-06
8.54371e-07
1.93353e-06
8.75455e-07
2.08742e-06
8.15337e-07
2.08515e-06
6.89073e-07
2.00284e-06
5.5397e-07
1.93116e-06
4.45752e-07
1.89168e-06
3.62464e-07
1.87139e-06
2.9488e-07
1.86504e-06
2.35859e-07
1.86938e-06
1.83269e-07
1.87945e-06
1.39304e-07
1.89365e-06
1.03115e-07
1.91287e-06
7.53462e-08
1.93399e-06
4.65038e-08
1.95432e-06
2.26324e-08
1.97635e-06
6.49601e-09
4.22707e-08
1.05624e-06
1.59199e-07
9.8043e-07
3.13073e-07
8.96756e-07
5.03632e-07
8.2372e-07
7.19091e-07
7.73413e-07
9.52309e-07
7.50604e-07
1.23922e-06
7.80141e-07
1.58585e-06
8.42675e-07
1.90744e-06
8.80559e-07
2.1132e-06
8.49731e-07
2.15875e-06
7.41767e-07
2.08808e-06
6.03838e-07
1.99992e-06
4.85193e-07
1.94278e-06
3.94653e-07
1.91079e-06
3.22924e-07
1.89589e-06
2.64025e-07
1.89365e-06
2.11595e-07
1.89883e-06
1.63899e-07
1.90922e-06
1.23743e-07
1.92427e-06
9.17373e-08
1.94197e-06
6.73889e-08
1.96021e-06
4.06328e-08
1.97949e-06
1.95086e-08
2.00182e-06
6.32597e-09
3.03037e-08
1.13465e-06
1.42245e-07
1.07327e-06
3.10746e-07
9.82837e-07
5.09005e-07
8.91488e-07
7.17714e-07
8.25223e-07
9.46609e-07
7.79303e-07
1.20953e-06
7.80355e-07
1.53449e-06
8.31616e-07
1.87161e-06
8.78623e-07
2.12167e-06
8.72168e-07
2.22076e-06
7.87772e-07
2.17652e-06
6.53346e-07
2.07831e-06
5.25464e-07
2.00162e-06
4.26379e-07
1.95578e-06
3.49802e-07
1.9308e-06
2.88022e-07
1.92078e-06
2.36883e-07
1.9211e-06
1.89347e-07
1.92732e-06
1.45802e-07
1.93827e-06
1.09768e-07
1.95246e-06
8.12797e-08
1.96878e-06
5.88543e-08
1.9856e-06
3.45412e-08
2.00399e-06
1.73299e-08
2.0303e-06
5.59318e-09
2.25085e-08
1.16546e-06
1.16932e-07
1.16002e-06
2.99694e-07
1.08436e-06
5.16349e-07
9.75512e-07
7.18725e-07
8.90534e-07
9.48955e-07
8.23022e-07
1.1935e-06
7.95396e-07
1.49094e-06
8.24061e-07
1.83164e-06
8.71747e-07
2.11687e-06
8.8353e-07
2.2687e-06
8.24277e-07
2.26329e-06
7.01015e-07
2.16609e-06
5.65546e-07
2.06964e-06
4.57461e-07
2.00668e-06
3.75482e-07
1.96969e-06
3.10908e-07
1.95118e-06
2.57661e-07
1.94559e-06
2.12413e-07
1.94752e-06
1.69194e-07
1.95487e-06
1.29223e-07
1.96597e-06
9.62835e-08
1.97979e-06
7.02871e-08
1.99381e-06
5.06678e-08
2.00916e-06
2.93919e-08
2.03311e-06
1.45348e-08
2.05246e-06
4.97085e-09
5.43112e-08
1.10727e-06
1.16749e-07
1.16566e-06
2.84118e-07
1.17562e-06
5.19916e-07
1.08086e-06
7.27135e-07
9.67234e-07
9.56565e-07
8.83134e-07
1.19139e-06
8.25274e-07
1.46098e-06
8.25659e-07
1.79218e-06
8.6379e-07
2.10201e-06
8.86747e-07
2.30214e-06
8.50166e-07
2.34386e-06
7.43726e-07
2.26084e-06
6.063e-07
2.14762e-06
4.87567e-07
2.06537e-06
3.98725e-07
2.01374e-06
3.31465e-07
1.98468e-06
2.77443e-07
1.97209e-06
2.31174e-07
1.96947e-06
1.90403e-07
1.97353e-06
1.50559e-07
1.98211e-06
1.13109e-07
1.993e-06
8.30634e-08
2.00459e-06
5.95262e-08
2.0171e-06
4.27532e-08
2.03716e-06
2.5357e-08
2.05405e-06
1.29408e-08
2.07381e-06
4.75689e-09
6.23489e-08
1.23497e-06
1.4904e-07
1.07482e-06
2.80525e-07
1.16918e-06
5.16724e-07
1.17883e-06
7.39462e-07
1.06863e-06
9.70791e-07
9.53138e-07
1.20008e-06
8.74593e-07
1.4461e-06
8.40385e-07
1.75768e-06
8.60332e-07
2.08101e-06
8.84952e-07
2.32245e-06
8.6654e-07
2.41512e-06
7.78989e-07
2.35937e-06
6.45234e-07
2.23772e-06
5.16223e-07
2.13301e-06
4.20001e-07
2.06365e-06
3.48837e-07
2.02157e-06
2.94554e-07
1.99998e-06
2.49561e-07
1.99264e-06
2.08067e-07
1.99369e-06
1.70252e-07
2.00039e-06
1.32297e-07
2.00925e-06
9.6916e-08
2.01885e-06
6.88222e-08
2.02825e-06
4.83969e-08
2.0442e-06
3.57245e-08
2.05785e-06
2.15617e-08
2.07408e-06
1.26767e-08
2.0944e-06
4.99468e-09
5.44632e-08
1.35332e-06
1.93462e-07
1.19051e-06
2.76236e-07
1.07886e-06
4.9983e-07
1.18601e-06
7.47966e-07
1.17037e-06
9.8923e-07
1.0503e-06
1.21835e-06
9.35036e-07
1.44707e-06
8.73869e-07
1.73328e-06
8.65067e-07
2.05895e-06
8.82596e-07
2.33277e-06
8.74757e-07
2.47521e-06
8.06546e-07
2.45744e-06
6.80976e-07
2.33781e-06
5.45191e-07
2.21209e-06
4.37176e-07
2.12103e-06
3.62648e-07
2.06253e-06
3.0792e-07
2.02963e-06
2.64924e-07
2.01602e-06
2.26186e-07
2.01439e-06
1.87383e-07
2.01982e-06
1.50826e-07
2.02784e-06
1.13716e-07
2.03597e-06
7.98184e-08
2.04288e-06
5.42068e-08
2.05459e-06
3.80218e-08
2.06474e-06
2.88348e-08
2.07668e-06
1.89672e-08
2.09397e-06
1.31124e-08
2.1161e-06
5.60334e-09
4.72664e-08
1.44911e-06
1.89078e-07
1.3577e-06
3.07327e-07
1.1593e-06
4.56853e-07
1.12166e-06
7.30564e-07
1.20336e-06
1.00319e-06
1.15644e-06
1.24616e-06
1.02265e-06
1.46321e-06
9.19071e-07
1.72243e-06
8.85011e-07
2.04066e-06
8.83593e-07
2.33654e-06
8.78988e-07
2.52474e-06
8.25333e-07
2.55273e-06
7.11339e-07
2.44709e-06
5.71733e-07
2.3039e-06
4.53405e-07
2.18758e-06
3.70654e-07
2.10908e-06
3.16119e-07
2.06182e-06
2.75763e-07
2.03934e-06
2.41636e-07
2.03413e-06
2.06475e-07
2.03906e-06
1.68156e-07
2.04789e-06
1.30803e-07
2.05612e-06
9.35851e-08
2.06166e-06
6.10541e-08
2.06896e-06
3.9852e-08
2.07491e-06
2.78669e-08
2.0825e-06
2.302e-08
2.09523e-06
1.77039e-08
2.11409e-06
1.51175e-08
2.13958e-06
6.82729e-09
4.14072e-08
1.53669e-06
1.69422e-07
1.46877e-06
3.2212e-07
1.34287e-06
4.50211e-07
1.16579e-06
6.76431e-07
1.17561e-06
9.8933e-07
1.21714e-06
1.27356e-06
1.12915e-06
1.49726e-06
9.88784e-07
1.72475e-06
9.17083e-07
2.03215e-06
8.93716e-07
2.33847e-06
8.81857e-07
2.56598e-06
8.37861e-07
2.64241e-06
7.3571e-07
2.56308e-06
5.95384e-07
2.40887e-06
4.66776e-07
2.26603e-06
3.74997e-07
2.16351e-06
3.16281e-07
2.09768e-06
2.80318e-07
2.06292e-06
2.52225e-07
2.05187e-06
2.23921e-07
2.0565e-06
1.89063e-07
2.06798e-06
1.48077e-07
2.07863e-06
1.08304e-07
2.08458e-06
7.06819e-08
2.08878e-06
4.12435e-08
2.09012e-06
2.46564e-08
2.09034e-06
2.00262e-08
2.09882e-06
1.9425e-08
2.11209e-06
1.96962e-08
2.13649e-06
1.82012e-08
2.16687e-06
8.70496e-09
3.56203e-08
1.61294e-06
1.49769e-07
1.55634e-06
3.05949e-07
1.4849e-06
4.71095e-07
1.32192e-06
6.40919e-07
1.20114e-06
9.40069e-07
1.2247e-06
1.27158e-06
1.21922e-06
1.53967e-06
1.08689e-06
1.74871e-06
9.65132e-07
2.0329e-06
9.16578e-07
2.34389e-06
8.88524e-07
2.60098e-06
8.47014e-07
2.72547e-06
7.5492e-07
2.68283e-06
6.16021e-07
2.52811e-06
4.76205e-07
2.35946e-06
3.73406e-07
2.22847e-06
3.10095e-07
2.1394e-06
2.74618e-07
2.08768e-06
2.55615e-07
2.06747e-06
2.36669e-07
2.07016e-06
2.10288e-07
2.08496e-06
1.72103e-07
2.10177e-06
1.24957e-07
2.11167e-06
8.12257e-08
2.11471e-06
4.47643e-08
2.1122e-06
1.91712e-08
2.10409e-06
1.09153e-08
2.10225e-06
1.65979e-08
2.11097e-06
2.05343e-08
2.13151e-06
2.46523e-08
2.16247e-06
2.2586e-08
2.20033e-06
1.07085e-08
2.95298e-08
1.67636e-06
1.29945e-07
1.6327e-06
2.81009e-07
1.58122e-06
4.67696e-07
1.48823e-06
6.4357e-07
1.31916e-06
8.89263e-07
1.25178e-06
1.23391e-06
1.2623e-06
1.56492e-06
1.1941e-06
1.79425e-06
1.0416e-06
2.04612e-06
9.52163e-07
2.35546e-06
9.05241e-07
2.6337e-06
8.55992e-07
2.80288e-06
7.69738e-07
2.8044e-06
6.33454e-07
2.6614e-06
4.82788e-07
2.47068e-06
3.65038e-07
2.3076e-06
2.94343e-07
2.18963e-06
2.59929e-07
2.115e-06
2.47359e-07
2.08054e-06
2.42595e-07
2.07783e-06
2.29039e-07
2.09603e-06
1.99239e-07
2.12224e-06
1.51647e-07
2.14153e-06
9.51082e-08
2.1476e-06
4.83454e-08
2.14321e-06
1.37664e-08
2.1263e-06
-3.02736e-09
2.11233e-06
8.28248e-10
2.10996e-06
1.75904e-08
2.1249e-06
2.71198e-08
2.15465e-06
3.24373e-08
2.19393e-06
2.89626e-08
2.24184e-06
1.01287e-08
2.26642e-08
1.72584e-06
1.08476e-07
1.69776e-06
2.53975e-07
1.65967e-06
4.45292e-07
1.60352e-06
6.50547e-07
1.48116e-06
8.61477e-07
1.34682e-06
1.18321e-06
1.30234e-06
1.55263e-06
1.27465e-06
1.84395e-06
1.14458e-06
2.08008e-06
1.00789e-06
2.37441e-06
9.33484e-07
2.66829e-06
8.70893e-07
2.87606e-06
7.82978e-07
2.92578e-06
6.48426e-07
2.80737e-06
4.87532e-07
2.60248e-06
3.51049e-07
2.40534e-06
2.67367e-07
2.25275e-06
2.31301e-07
2.14804e-06
2.26968e-07
2.09163e-06
2.36343e-07
2.0794e-06
2.41081e-07
2.09832e-06
2.26793e-07
2.1357e-06
1.85792e-07
2.17046e-06
1.22726e-07
2.18665e-06
5.6064e-08
2.18554e-06
6.01481e-09
2.16036e-06
-2.02931e-08
2.13211e-06
-2.28076e-08
2.11371e-06
-2.93649e-09
2.11755e-06
2.49121e-08
2.14269e-06
3.90368e-08
2.18407e-06
4.2237e-08
2.23146e-06
1.76414e-08
2.16613e-08
1.13681e-06
3.49401e-09
1.13898e-06
7.34596e-09
1.43694e-08
1.75981e-06
8.55091e-08
1.74873e-06
2.24651e-07
1.72697e-06
4.14543e-07
1.69029e-06
6.41629e-07
1.61231e-06
8.55835e-07
1.48671e-06
1.14421e-06
1.38566e-06
1.51678e-06
1.33809e-06
1.87051e-06
1.24821e-06
2.13384e-06
1.09103e-06
2.40508e-06
9.77525e-07
2.70629e-06
8.95748e-07
2.94727e-06
7.99865e-07
3.04568e-06
6.63183e-07
2.96389e-06
4.91968e-07
2.75658e-06
3.33477e-07
2.52664e-06
2.29826e-07
2.33418e-06
1.86029e-07
2.192e-06
1.87434e-07
2.10355e-06
2.15135e-07
2.07177e-06
2.44052e-07
2.08781e-06
2.51636e-07
2.13645e-06
2.26078e-07
2.19247e-06
1.63788e-07
2.23067e-06
7.87069e-08
2.24152e-06
8.318e-11
2.21209e-06
-4.57113e-08
2.16806e-06
-5.6238e-08
2.12888e-06
-3.79856e-08
2.11317e-06
1.41727e-09
2.12882e-06
3.87269e-08
2.1708e-06
5.22374e-08
2.22422e-06
2.40048e-08
2.53788e-08
1.13647e-06
1.79598e-08
1.13243e-06
2.56818e-08
1.14936e-06
2.88957e-09
1.14203e-06
1.49002e-08
1.15079e-06
5.90404e-09
4.52637e-09
1.77529e-06
6.25079e-08
1.78272e-06
1.92921e-07
1.78037e-06
3.8032e-07
1.76103e-06
6.16988e-07
1.71477e-06
8.4744e-07
1.62057e-06
1.12339e-06
1.5074e-06
1.48329e-06
1.41902e-06
1.86832e-06
1.34025e-06
2.18913e-06
1.19304e-06
2.45296e-06
1.04346e-06
2.74968e-06
9.3444e-07
3.01847e-06
8.2477e-07
3.16448e-06
6.81228e-07
3.12874e-06
4.98387e-07
2.93284e-06
3.15729e-07
2.67612e-06
1.84041e-07
2.44082e-06
1.23267e-07
2.25356e-06
1.24575e-07
2.12304e-06
1.68054e-07
2.05911e-06
2.27896e-07
2.06159e-06
2.70359e-07
2.11635e-06
2.71776e-07
2.19752e-06
2.2105e-07
2.26674e-06
1.27714e-07
2.30093e-06
1.9293e-08
2.28047e-06
-6.83092e-08
2.22075e-06
-9.84086e-08
2.15528e-06
-8.26409e-08
2.11132e-06
-3.61523e-08
2.11144e-06
1.87529e-08
2.14471e-06
2.97934e-08
3.49378e-08
1.10387e-06
3.11675e-08
1.10721e-06
3.41241e-08
1.13104e-06
2.53792e-08
1.12862e-06
2.77671e-08
1.14415e-06
2.35425e-08
1.15774e-06
2.35624e-09
1.15434e-06
1.13424e-08
1.15936e-06
4.26831e-09
-6.42647e-09
1.76931e-06
4.09583e-08
1.79669e-06
1.60167e-07
1.81527e-06
3.44387e-07
1.81604e-06
5.84329e-07
1.79346e-06
8.27414e-07
1.73462e-06
1.10529e-06
1.6385e-06
1.4631e-06
1.52742e-06
1.85579e-06
1.43141e-06
2.22729e-06
1.30215e-06
2.51499e-06
1.13131e-06
2.80183e-06
9.9165e-07
3.09103e-06
8.62159e-07
3.28259e-06
7.06854e-07
3.2988e-06
5.11266e-07
3.12947e-06
3.01755e-07
2.85717e-06
1.34685e-07
2.57941e-06
4.5514e-08
2.34069e-06
3.62431e-08
2.15774e-06
8.99997e-08
2.04695e-06
1.80338e-07
2.02041e-06
2.69177e-07
2.06766e-06
3.1912e-07
2.16872e-06
3.00594e-07
2.28019e-06
2.07594e-07
2.3524e-06
7.62108e-08
2.35576e-06
-5.6027e-08
2.2922e-06
-1.39777e-07
2.19935e-06
-1.42489e-07
2.11699e-06
-8.83251e-08
2.08488e-06
-9.63325e-09
2.11285e-06
2.7832e-08
2.26981e-08
1.09642e-06
3.72106e-08
1.08865e-06
4.26759e-08
1.12767e-06
3.20899e-08
1.10316e-06
4.12275e-08
1.1233e-06
3.84533e-08
1.14445e-06
2.50488e-08
1.14497e-06
2.72145e-08
1.15933e-06
1.85224e-08
1.16575e-06
2.3105e-09
1.16321e-06
7.482e-09
1.16772e-06
2.28874e-09
-1.7364e-08
1.74041e-06
2.16442e-08
1.78851e-06
1.27988e-07
1.82862e-06
3.08557e-07
1.85081e-06
5.48256e-07
1.85183e-06
7.97846e-07
1.82278e-06
1.08226e-06
1.75739e-06
1.4506e-06
1.6508e-06
1.84773e-06
1.5353e-06
2.2467e-06
1.41194e-06
2.57894e-06
1.23837e-06
2.86539e-06
1.06811e-06
3.16651e-06
9.16481e-07
3.39927e-06
7.45691e-07
3.47129e-06
5.3453e-07
3.34356e-06
2.97225e-07
3.07037e-06
8.85126e-08
2.75557e-06
-4.14652e-08
2.46405e-06
-7.77623e-08
2.21958e-06
-2.54883e-08
2.04605e-06
9.10161e-08
1.96953e-06
2.31325e-07
2.00061e-06
3.36288e-07
2.11498e-06
3.72857e-07
2.27472e-06
3.05997e-07
2.40993e-06
1.49976e-07
2.46341e-06
-3.15236e-08
2.40645e-06
-1.7034e-07
2.2892e-06
-2.29663e-07
2.16503e-06
-1.90575e-07
2.09334e-06
-9.68767e-08
2.0987e-06
1.19772e-08
-7.59915e-09
1.07761e-06
3.88312e-08
1.06667e-06
3.35962e-08
1.09615e-06
4.96536e-08
1.14459e-06
3.24317e-08
1.11734e-06
4.71256e-08
1.14212e-06
4.08679e-08
1.15943e-06
2.4911e-08
1.16149e-06
2.51134e-08
1.16888e-06
1.28181e-08
1.17298e-06
3.12046e-09
1.17223e-06
2.94558e-09
1.17477e-06
4.84637e-10
-2.63794e-08
1.68759e-06
5.13618e-09
1.75666e-06
9.8934e-08
1.81725e-06
2.75596e-07
1.86125e-06
5.11241e-07
1.88747e-06
7.62491e-07
1.88686e-06
1.05314e-06
1.85156e-06
1.43615e-06
1.77144e-06
1.84692e-06
1.65136e-06
2.25867e-06
1.52322e-06
2.63255e-06
1.35842e-06
2.93852e-06
1.16559e-06
3.2458e-06
9.89144e-07
3.51465e-06
8.01366e-07
3.64373e-06
5.7344e-07
3.5706e-06
3.07588e-07
3.31467e-06
5.29518e-08
2.97468e-06
-1.30641e-07
2.63283e-06
-2.10223e-07
2.32266e-06
-1.80757e-07
2.07587e-06
-5.52072e-08
1.93453e-06
1.26077e-07
1.93192e-06
2.99964e-07
2.07049e-06
3.80553e-07
2.29299e-06
3.54235e-07
2.50859e-06
2.06955e-07
2.63228e-06
-1.92009e-08
2.61195e-06
-2.3723e-07
2.48336e-06
-3.64607e-07
2.34235e-06
-4.07076e-07
2.24432e-06
-3.41851e-07
2.20662e-06
-5.27518e-08
-1.52786e-07
1.05688e-06
2.16954e-08
1.06712e-06
-1.80468e-08
1.08775e-06
4.71704e-08
1.08243e-06
3.88178e-08
1.11164e-06
5.52821e-08
1.16389e-06
2.99727e-08
1.13956e-06
4.96121e-08
1.16574e-06
3.89441e-08
1.17343e-06
2.03174e-08
1.17889e-06
1.95978e-08
1.17967e-06
5.34019e-09
1.1786e-06
4.92023e-09
1.18056e-06
-2.88059e-09
1.17995e-06
-8.81105e-10
-3.21538e-08
1.61181e-06
-7.21719e-09
1.69967e-06
7.56227e-08
1.77963e-06
2.47584e-07
1.84487e-06
4.75256e-07
1.89684e-06
7.23598e-07
1.92596e-06
1.0202e-06
1.91939e-06
1.41555e-06
1.87173e-06
1.8485e-06
1.76957e-06
2.2711e-06
1.63882e-06
2.67321e-06
1.48253e-06
3.01386e-06
1.28328e-06
3.32968e-06
1.08202e-06
3.62787e-06
8.76232e-07
3.81349e-06
6.31818e-07
3.80404e-06
3.40121e-07
3.5855e-06
3.68023e-08
3.23761e-06
-2.10026e-07
2.85387e-06
-3.51687e-07
2.4815e-06
-3.68989e-07
2.16178e-06
-2.66547e-07
1.96077e-06
-8.14419e-08
1.92953e-06
1.28057e-07
2.08709e-06
2.82279e-07
2.37554e-06
2.96379e-07
2.6919e-06
1.69267e-07
2.91155e-06
-7.3598e-08
2.96238e-06
-3.70397e-07
2.88996e-06
-6.44115e-07
2.79485e-06
-8.17077e-07
2.73724e-06
-9.00412e-07
2.75102e-06
-3.30858e-07
-5.57415e-07
1.12866e-06
-1.1488e-07
1.28191e-06
-3.07444e-07
1.09278e-06
1.10809e-08
1.15745e-06
-8.35445e-08
1.11124e-06
4.7441e-08
1.12562e-06
2.41227e-08
1.14226e-06
5.24511e-08
1.18435e-06
2.44299e-08
1.17171e-06
4.34995e-08
1.19322e-06
2.9948e-08
1.18927e-06
1.06625e-08
1.19721e-06
1.1588e-08
1.19144e-06
-5.58649e-09
1.18061e-06
5.01508e-09
1.18676e-06
-9.72096e-09
1.18295e-06
-3.23983e-09
-3.4345e-08
1.51494e-06
-1.42159e-08
1.61849e-06
5.9452e-08
1.71538e-06
2.26755e-07
1.80002e-06
4.41947e-07
1.87773e-06
6.82644e-07
1.93733e-06
9.85611e-07
1.96007e-06
1.3904e-06
1.94404e-06
1.84556e-06
1.87427e-06
2.28494e-06
1.75557e-06
2.70598e-06
1.60598e-06
3.08217e-06
1.41432e-06
3.41686e-06
1.19639e-06
3.73862e-06
9.71573e-07
3.97692e-06
7.13044e-07
4.0371e-06
3.98944e-07
3.87514e-06
5.05428e-08
3.54054e-06
-2.6615e-07
3.13142e-06
-4.87531e-07
2.70849e-06
-5.78459e-07
2.32917e-06
-5.35993e-07
2.08973e-06
-3.9531e-07
2.0775e-06
-2.30223e-07
2.29439e-06
-8.22028e-08
2.65725e-06
-4.79259e-09
3.05836e-06
-7.57915e-08
3.39815e-06
-3.21802e-07
3.57191e-06
-6.8578e-07
3.60866e-06
-1.08989e-06
3.61252e-06
-1.4611e-06
3.66481e-06
-1.74413e-06
3.69171e-06
-8.19723e-07
-1.02422e-06
1.49863e-06
-5.49277e-07
1.7474e-06
-8.07954e-07
1.31838e-06
-2.77801e-07
1.53689e-06
-5.28468e-07
1.1924e-06
-5.66932e-08
1.35336e-06
-2.47014e-07
1.15895e-06
3.04072e-08
1.22318e-06
-4.1168e-08
1.1907e-06
3.31289e-08
1.20751e-06
1.40065e-08
1.21494e-06
2.14737e-08
1.22958e-06
7.62358e-09
1.20572e-06
-3.67835e-09
1.21565e-06
1.55166e-09
1.19856e-06
-1.74443e-08
1.18143e-06
2.88373e-09
1.19004e-06
-1.68549e-08
1.18403e-06
-5.86423e-09
-3.22867e-08
1.39949e-06
-1.53561e-08
1.51572e-06
5.32662e-08
1.62415e-06
2.14982e-07
1.7267e-06
4.123e-07
1.82921e-06
6.41607e-07
1.91827e-06
9.50778e-07
1.97162e-06
1.36376e-06
1.98613e-06
1.83584e-06
1.95327e-06
2.29617e-06
1.86277e-06
2.73459e-06
1.72685e-06
3.13973e-06
1.5484e-06
3.5021e-06
1.32926e-06
3.84677e-06
1.08854e-06
4.13179e-06
8.1698e-07
4.26393e-06
4.86407e-07
4.17366e-06
1.00592e-07
3.87646e-06
-2.85241e-07
3.46223e-06
-5.96877e-07
3.0087e-06
-7.87311e-07
2.59409e-06
-8.42283e-07
2.35536e-06
-8.00121e-07
2.4148e-06
-7.32162e-07
2.7495e-06
-6.88218e-07
3.2185e-06
-6.51303e-07
3.71023e-06
-6.68797e-07
4.13616e-06
-8.2572e-07
4.43742e-06
-1.19517e-06
4.60289e-06
-1.6826e-06
4.73238e-06
-2.20793e-06
4.77146e-06
-2.56477e-06
4.65367e-06
-1.27779e-06
-1.42849e-06
1.96436e-06
-1.03833e-06
2.19057e-06
-1.25181e-06
1.76569e-06
-7.80762e-07
1.97601e-06
-1.02086e-06
1.57147e-06
-4.99188e-07
1.78784e-06
-7.48371e-07
1.38265e-06
-2.19062e-07
1.59965e-06
-4.67946e-07
1.25113e-06
-3.1083e-08
1.40527e-06
-1.98151e-07
1.275e-06
-2.78916e-08
1.23618e-06
-6.7394e-09
1.28505e-06
-3.48161e-08
1.28682e-06
-4.36709e-08
1.21359e-06
-1.88011e-08
1.23289e-06
-1.79206e-08
1.20243e-06
-2.99054e-08
1.17566e-06
8.94686e-10
1.19e-06
-2.28753e-08
1.1793e-06
-9.52489e-09
-2.63e-08
1.26969e-06
-1.02819e-08
1.39402e-06
5.98681e-08
1.50855e-06
2.11502e-07
1.62718e-06
3.86156e-07
1.7524e-06
6.02557e-07
1.86775e-06
9.16768e-07
1.9517e-06
1.33728e-06
1.99746e-06
1.81996e-06
2.00142e-06
2.29961e-06
1.94943e-06
2.75701e-06
1.84016e-06
3.18637e-06
1.68014e-06
3.57861e-06
1.47199e-06
3.95038e-06
1.22592e-06
4.27669e-06
9.43937e-07
4.4784e-06
6.02727e-07
4.47027e-06
1.89908e-07
4.23433e-06
-2.57254e-07
3.83828e-06
-6.61147e-07
3.37777e-06
-9.65297e-07
2.95651e-06
-1.1475e-06
2.75676e-06
-1.2398e-06
2.92289e-06
-1.30525e-06
3.38765e-06
-1.37197e-06
3.96563e-06
-1.44365e-06
4.52515e-06
-1.48058e-06
5.03489e-06
-1.58391e-06
5.43754e-06
-1.83826e-06
5.73541e-06
-2.33231e-06
5.89964e-06
-2.84779e-06
5.79902e-06
-3.23053e-06
5.42568e-06
-1.61238e-06
-1.7219e-06
2.34342e-06
-1.4316e-06
2.49885e-06
-1.58429e-06
2.16248e-06
-1.22707e-06
2.30051e-06
-1.39157e-06
1.98435e-06
-9.80772e-07
2.14557e-06
-1.18524e-06
1.81115e-06
-7.15059e-07
1.99625e-06
-9.37816e-07
1.62209e-06
-4.40566e-07
1.8314e-06
-6.8237e-07
1.42102e-06
-1.79813e-07
1.63624e-06
-4.1857e-07
1.42434e-06
-1.69621e-07
1.27634e-06
-5.07036e-08
1.41299e-06
-1.63087e-07
1.38605e-06
-1.5508e-07
1.22094e-06
-3.74496e-08
1.25801e-06
-5.53622e-08
1.20291e-06
-4.29176e-08
1.16865e-06
-9.7201e-10
1.18495e-06
-2.85936e-08
1.17181e-06
-1.27221e-08
-1.72539e-08
1.13121e-06
1.76316e-09
1.25724e-06
7.91987e-08
1.37415e-06
2.1399e-07
1.50566e-06
3.63381e-07
1.64955e-06
5.67899e-07
1.78657e-06
8.86012e-07
1.89791e-06
1.3103e-06
1.97801e-06
1.79809e-06
2.01867e-06
2.29216e-06
2.00835e-06
2.76851e-06
1.93765e-06
3.22153e-06
1.80488e-06
3.64312e-06
1.61562e-06
4.04499e-06
1.37756e-06
4.41074e-06
1.09216e-06
4.67647e-06
7.46117e-07
4.75553e-06
3.17579e-07
4.60066e-06
-1.76513e-07
4.24847e-06
-6.67169e-07
3.80314e-06
-1.08555e-06
3.40224e-06
-1.40739e-06
3.26873e-06
-1.65219e-06
3.55612e-06
-1.86606e-06
4.14223e-06
-2.0595e-06
4.8027e-06
-2.21781e-06
5.42603e-06
-2.3614e-06
5.98958e-06
-2.45584e-06
6.48333e-06
-2.64642e-06
6.80756e-06
-2.91761e-06
6.90178e-06
-3.33133e-06
6.60981e-06
-3.6523e-06
6.04214e-06
-1.87694e-06
-1.96564e-06
2.59204e-06
-1.70543e-06
2.68278e-06
-1.81207e-06
2.40242e-06
-1.53455e-06
2.46702e-06
-1.64916e-06
2.25887e-06
-1.34289e-06
2.32821e-06
-1.46258e-06
2.14179e-06
-1.13029e-06
2.23597e-06
-1.2827e-06
2.01152e-06
-9.00326e-07
2.14824e-06
-1.07926e-06
1.84604e-06
-6.56138e-07
2.02514e-06
-8.67292e-07
1.63711e-06
-3.9804e-07
1.85051e-06
-6.38302e-07
1.61994e-06
-3.81886e-07
1.34477e-06
-1.38776e-07
1.58331e-06
-3.65326e-07
1.52577e-06
-3.39897e-07
1.22955e-06
-6.43433e-08
1.29607e-06
-1.22799e-07
1.19808e-06
-5.62166e-08
1.1611e-06
-3.7498e-10
1.17508e-06
-3.19653e-08
1.15968e-06
-1.13504e-08
-6.42384e-09
9.90057e-07
2.16927e-08
1.11089e-06
1.07837e-07
1.22814e-06
2.21034e-07
1.36673e-06
3.44827e-07
1.52388e-06
5.39227e-07
1.67778e-06
8.59917e-07
1.81207e-06
1.28475e-06
1.92277e-06
1.76998e-06
2.00542e-06
2.27268e-06
2.03756e-06
2.76529e-06
2.01119e-06
3.24217e-06
1.91681e-06
3.69254e-06
1.75537e-06
4.12509e-06
1.53558e-06
4.53093e-06
1.25763e-06
4.85567e-06
9.13237e-07
5.02233e-06
4.79486e-07
4.96285e-06
-4.45755e-08
4.67961e-06
-6.07816e-07
4.26893e-06
-1.13194e-06
3.90728e-06
-1.58567e-06
3.85276e-06
-1.98016e-06
4.26828e-06
-2.3523e-06
4.96593e-06
-2.68558e-06
5.71111e-06
-2.97589e-06
6.38541e-06
-3.19622e-06
6.94683e-06
-3.34389e-06
7.38153e-06
-3.37649e-06
7.63637e-06
-3.48714e-06
7.59768e-06
-3.61386e-06
7.20134e-06
-3.92155e-06
6.46195e-06
-2.02735e-06
-2.04247e-06
2.72249e-06
-1.91576e-06
2.7613e-06
-2.0033e-06
2.50323e-06
-1.74117e-06
2.51079e-06
-1.8186e-06
2.36513e-06
-1.57216e-06
2.36361e-06
-1.64732e-06
2.28506e-06
-1.39425e-06
2.29616e-06
-1.47481e-06
2.23337e-06
-1.21936e-06
2.26992e-06
-1.32212e-06
2.16021e-06
-1.04081e-06
2.24203e-06
-1.16559e-06
2.0321e-06
-8.44143e-07
2.16977e-06
-1.01092e-06
1.83852e-06
-6.23345e-07
2.02528e-06
-8.32005e-07
1.80397e-06
-6.09322e-07
1.44869e-06
-2.9443e-07
1.74487e-06
-5.9161e-07
1.65941e-06
-5.5752e-07
1.23775e-06
-1.04598e-07
1.35452e-06
-2.41804e-07
1.19052e-06
-7.1998e-08
1.15713e-06
3.54161e-09
1.1599e-06
-3.23619e-08
1.14509e-06
6.20019e-10
4.57544e-09
8.525e-07
4.88111e-08
9.62597e-07
1.42483e-07
1.07588e-06
2.34188e-07
1.21467e-06
3.34265e-07
1.37708e-06
5.20207e-07
1.54252e-06
8.40236e-07
1.6969e-06
1.26153e-06
1.8346e-06
1.73787e-06
1.95417e-06
2.24178e-06
2.0357e-06
2.74582e-06
2.05659e-06
3.24339e-06
2.0097e-06
3.7229e-06
1.8863e-06
4.18659e-06
1.69387e-06
4.63193e-06
1.43478e-06
5.01184e-06
1.10173e-06
5.26051e-06
6.75252e-07
5.30277e-06
1.39735e-07
5.11379e-06
-4.78897e-07
4.75908e-06
-1.09714e-06
4.44381e-06
-1.66294e-06
4.46824e-06
-2.18619e-06
5.00932e-06
-2.70272e-06
5.82039e-06
-3.19693e-06
6.6429e-06
-3.62248e-06
7.28635e-06
-3.89634e-06
7.70809e-06
-3.98603e-06
7.97646e-06
-3.96756e-06
8.09885e-06
-3.85779e-06
8.00597e-06
-3.90298e-06
7.5841e-06
-4.00191e-06
6.59133e-06
-4.05285e-06
2.75167e-06
-2.01672e-06
2.69617e-06
-1.98664e-06
2.48985e-06
-1.89334e-06
2.45065e-06
-1.96256e-06
2.33074e-06
-1.70709e-06
2.27385e-06
-1.75978e-06
2.27078e-06
-1.54668e-06
2.2101e-06
-1.58538e-06
2.26729e-06
-1.39323e-06
2.22671e-06
-1.43452e-06
2.27504e-06
-1.25574e-06
2.26821e-06
-1.3174e-06
2.25379e-06
-1.12988e-06
2.28813e-06
-1.20376e-06
2.16751e-06
-9.9279e-07
2.2554e-06
-1.10428e-06
1.99704e-06
-8.23705e-07
2.14504e-06
-9.86812e-07
1.93895e-06
-8.10891e-07
1.54551e-06
-4.91791e-07
1.85078e-06
-7.9056e-07
1.72974e-06
-7.49274e-07
1.25687e-06
-1.72424e-07
1.4101e-06
-3.99703e-07
1.17966e-06
-9.25805e-08
1.157e-06
1.17689e-08
1.13599e-06
-2.36234e-08
1.1303e-06
2.71994e-08
1.4156e-08
7.21852e-07
7.96944e-08
8.21344e-07
1.81353e-07
9.23481e-07
2.57207e-07
1.05266e-06
3.38064e-07
1.21077e-06
5.16547e-07
1.38042e-06
8.3379e-07
1.54845e-06
1.24567e-06
1.71211e-06
1.70888e-06
1.86291e-06
2.20519e-06
1.99014e-06
2.71519e-06
2.06586e-06
3.22823e-06
2.07143e-06
3.73577e-06
1.99661e-06
4.2313e-06
1.84148e-06
4.71322e-06
1.61259e-06
5.14413e-06
1.30272e-06
5.46533e-06
8.97127e-07
5.60748e-06
3.70632e-07
5.5256e-06
-2.72153e-07
5.25203e-06
-9.7132e-07
4.98209e-06
-1.62984e-06
5.06833e-06
-2.24624e-06
5.71819e-06
-2.87046e-06
6.65856e-06
-3.52331e-06
7.50985e-06
-4.06226e-06
8.01028e-06
-4.35834e-06
8.21785e-06
-4.42727e-06
8.28284e-06
-4.31835e-06