/*--------------------------------*- C++ -*----------------------------------*\
  =========                 |
  \\      /  F ield         | OpenFOAM: The Open Source CFD Toolbox
   \\    /   O peration     | Website:  https://openfoam.org
    \\  /    A nd           | Version:  dev
     \\/     M anipulation  |
\*---------------------------------------------------------------------------*/
FoamFile
{
    version     2.0;
    format      ascii;
    class       volScalarField;
    location    "2500";
    object      qr;
}
// * * * * * * * * * * * * * * * * * * * * * * * * * * * * * * * * * * * * * //

dimensions      [1 0 -3 0 0 0 0];

internalField   uniform 0;

boundaryField
{
    lowerOutlet
    {
        type            calculated;
        value           nonuniform List<scalar> 
140
(
1175.24
1179.15
1183.53
1188.35
1193.61
1199.33
1205.52
1212.19
1219.36
1227.05
1235.28
1244.07
1253.47
1263.5
1274.2
1285.62
1297.81
1310.83
1324.73
1339.62
1355.56
1372.66
1391.05
1410.87
1432.32
1455.58
1480.87
1508.44
1538.63
1571.83
1608.49
1649.21
1694.77
1746.28
1789.84
1853.23
1926.07
2010.47
2109.01
2225.25
2363.9
2530.12
2726.47
2924.74
3368.42
3852.4
4659.17
5229.29
-12080
3360.27
2850.56
2549.81
2309.85
2150.56
2024.99
1922.91
1838.51
1767.59
1706.91
1654.33
1608.38
1567.87
1522.84
1491.09
1462.52
1436.53
1412.75
1390.87
1370.65
1351.91
1334.47
1318.21
1303.01
1288.79
1275.43
1262.86
1251.01
1239.83
1229.28
1219.3
1209.87
1200.94
1192.5
1184.51
1176.96
1169.82
1163.07
1156.71
1150.72
1145.08
1139.79
1134.83
1130.21
1125.91
1121.94
1118.3
2164.64
2291.46
2443.27
2624.53
2837.76
3048.48
3660.11
4498.73
5093.14
4268.94
3581.06
2947.86
2614.73
2382.43
2225.09
2084.31
1971.49
1878.76
1801.61
1736.12
2057.79
3370.53
4085.32
4812.92
5364.36
4199.34
3193.29
2763.78
2489.86
1679.7
3491.35
4343.63
4955.42
5494.67
3857.48
3059.8
2685.62
2434.2
1820.46
1888.34
1966.68
1630.6
1587.52
1549.34
)
;
    }
    top
    {
        type            calculated;
        value           nonuniform List<scalar> 
100
(
1058.81
1059.22
1060.6
1062.37
1064.01
1065.19
1065.33
1065.2
1064.78
1062.64
1055.31
1038.85
1013.94
990.482
983.283
986.078
998.895
1018.21
1033.57
1042.39
1048.19
1053.51
1058.81
1064.34
1071.95
1082.6
1093.11
1101.71
1108.19
1113.11
1116.85
1120.23
1124.26
1128.32
1131.6
1133.98
1135.87
1137.47
1138.86
1140.06
1141.08
1141.92
1142.66
1143.2
1143.64
1143.97
1144.18
1144.24
1144.2
1144.03
1143.76
1143.39
1142.92
1142.36
1141.69
1140.98
1140.12
1139.17
1138.18
1137.05
1135.89
1134.52
1133.07
1131.54
1129.9
1128.09
1126.23
1124.16
1122.03
1119.79
1117.42
1115.1
1112.67
1110.44
1108.49
1107.66
1118.35
1115.45
1112.52
1109.54
1106.52
1103.47
1100.38
1097.27
1094.13
1090.97
1087.79
1084.6
1081.4
1078.19
1074.99
1071.8
1065.1
1060.59
1056.27
1052.39
1049.18
1046.67
1044.87
1044.51
)
;
    }
    sides
    {
        type            calculated;
        value           nonuniform List<scalar> 
100
(
1175.26
1178.36
1181.04
1183.31
1185.17
1186.61
1187.67
1188.33
1188.62
1188.54
1188.12
1187.36
1186.29
1184.92
1183.26
1181.34
1179.18
1176.79
1174.19
1171.39
1168.43
1165.3
1162.04
1158.65
1155.16
1151.57
1147.9
1144.16
1140.36
1136.51
1132.62
1128.7
1124.76
1120.8
1116.84
1112.87
1108.91
1104.95
1101.01
1097.09
1093.19
1089.34
1085.52
1081.76
1078.06
1074.43
1070.88
1067.42
1064.04
1060.82
1118.32
1121.36
1124.11
1126.55
1128.69
1130.53
1132.08
1133.34
1134.32
1135.03
1135.47
1135.66
1135.6
1135.3
1134.77
1134.04
1133.09
1131.95
1130.63
1129.13
1127.48
1125.67
1123.72
1121.64
1119.45
1117.14
1114.73
1112.23
1109.64
1106.98
1104.25
1101.46
1098.61
1095.72
1092.78
1089.81
1086.81
1083.77
1080.72
1077.65
1074.56
1071.46
1068.35
1065.23
1062.1
1058.96
1055.81
1052.68
1049.55
1046.49
)
;
    }
    front
    {
        type            empty;
    }
    back
    {
        type            empty;
    }
    roller
    {
        type            calculated;
        value           nonuniform List<scalar> 
144
(
4619.72
3662.62
2101.64
2473.53
1713.3
1469.07
1533.85
1287.55
1286.6
1289.01
3603.8
4406.39
3921.64
2956.9
2256.37
1854.22
1558.46
1410.67
1351.38
1347.71
1319.07
1297.2
1294.58
1292.79
1294.13
6323.09
6445.9
6555.88
6484.58
5990.77
3411.43
3228.44
2574.51
2394.45
1681
1454.93
1513.07
1379.49
1367.82
1392.02
1312.13
1286.89
1286.97
6172.25
6571.03
6531.76
6194.39
6361.63
4212.67
4194.51
3405.07
3068.4
2641.05
2313.86
1810.07
1579.14
1477.63
1410.58
1426.33
1358.9
1338.17
1314.19
1292.5
1291.65
1301.35
2856.15
2203.64
1604.81
1528.87
1634.36
1308.48
1304.69
5339.05
5084.27
5528.8
5117.73
4860.37
3774.94
2771.28
2950.96
2178.35
2269.58
1739.25
2016.49
1626.47
1966.73
1825.62
1545.98
1783.08
1674.22
1485.46
1434.95
1422.02
1326.71
1318.9
1288.53
1290.23
1286.44
1288.19
1290.21
4848.75
4518.49
2409.78
2013.87
2556.1
2137.03
1584.15
1513.16
1601.36
1494.61
1440.71
1332.8
1341.64
1324.66
1306.41
5709.5
5945.04
5683.17
5363.61
3946.5
3133.32
2732.42
1901.66
1954.44
1768.23
2067.63
1649.26
1918.17
1871
1564.51
1743.64
1707.39
1498.75
1444.9
1460.95
1389.49
1399.56
1359.7
1374.87
1301.36
1286.53
1287.51
1298.63
1296.13
)
;
    }
    burner
    {
        type            calculated;
        value           nonuniform List<scalar> 
16
(
-126528
-121774
-118872
-118981
-122826
-119390
-118531
-123961
-125295
-120856
-118532
-119875
-124046
-120060
-118403
-121404
)
;
    }
}


// ************************************************************************* //
