/*--------------------------------*- C++ -*----------------------------------*\
  =========                 |
  \\      /  F ield         | OpenFOAM: The Open Source CFD Toolbox
   \\    /   O peration     | Website:  https://openfoam.org
    \\  /    A nd           | Version:  dev
     \\/     M anipulation  |
\*---------------------------------------------------------------------------*/
FoamFile
{
    version     2.0;
    format      ascii;
    class       volScalarField;
    location    "2500";
    object      rAU;
}
// * * * * * * * * * * * * * * * * * * * * * * * * * * * * * * * * * * * * * //

dimensions      [-1 3 1 0 0 0 0];

internalField   nonuniform List<scalar> 
9978
(
0.00821165
0.00828023
0.00823231
0.00826733
0.00839666
0.00816856
0.00824343
0.00839095
0.00840273
0.00811648
0.00822354
0.00838825
0.00838862
0.00841577
0.00806859
0.00821029
0.00839109
0.00838118
0.00840057
0.0084253
0.00802676
0.0082001
0.00839845
0.00838004
0.00838724
0.00841559
0.00842967
0.00798959
0.00819121
0.0084055
0.00838292
0.00837962
0.00840343
0.0084254
0.0084318
0.00795667
0.00818522
0.00840729
0.00838927
0.00837465
0.0083915
0.00841852
0.00843009
0.00843306
0.00792727
0.00818281
0.00840894
0.00839687
0.00837386
0.00838142
0.00840883
0.00842709
0.0084328
0.00843383
0.00790084
0.00818383
0.00841277
0.00840569
0.00837604
0.00837539
0.00839792
0.00842259
0.00843156
0.00843448
0.00843398
0.00787699
0.00818715
0.00841875
0.00841464
0.00838169
0.00837175
0.00838709
0.00841478
0.00842995
0.00843407
0.00843559
0.0084342
0.00785528
0.00818896
0.00842402
0.00842216
0.00839092
0.00837046
0.00837845
0.00840498
0.00842606
0.0084336
0.00843566
0.0084362
0.00843452
0.00783553
0.00818672
0.00842764
0.0084275
0.00840158
0.00837247
0.00837275
0.00839398
0.0084201
0.00843223
0.00843552
0.00843688
0.00843658
0.0084345
0.00781736
0.00818141
0.0084285
0.00842985
0.00841075
0.00837696
0.0083534
0.0083838
0.00841145
0.00842963
0.00843507
0.00843729
0.00843777
0.00843709
0.00843441
0.00780054
0.00817474
0.00842843
0.00843114
0.00841801
0.0083853
0.00835121
0.00837587
0.00840122
0.00842461
0.00843405
0.0084369
0.00843836
0.00843832
0.00843728
0.00843448
0.00778506
0.00816598
0.0084283
0.00843198
0.00842257
0.00839517
0.00836858
0.00824908
0.00839007
0.00841749
0.00843247
0.00843653
0.00843836
0.00843921
0.00843889
0.00843758
0.00843429
0.00777067
0.00815486
0.00842904
0.0084324
0.00842435
0.00840474
0.00837338
0.00821583
0.00837965
0.00840756
0.00842913
0.00843616
0.00843811
0.00843938
0.00843983
0.00843916
0.00843775
0.0084342
0.00775724
0.00814221
0.00843024
0.008432
0.00842564
0.0084121
0.00838204
0.0083336
0.00837091
0.00839615
0.00842258
0.00843512
0.00843811
0.0084394
0.00843997
0.00844026
0.00843949
0.00843784
0.0084341
0.00774467
0.00812425
0.00843275
0.00843222
0.0084268
0.00841704
0.00839223
0.00836519
0.00831033
0.00838386
0.0084129
0.00843259
0.00843815
0.00843958
0.00844043
0.00844068
0.00844071
0.0084398
0.00843779
0.0084339
0.00773292
0.00810164
0.00843328
0.0084322
0.00842659
0.00841985
0.0084011
0.00836979
0.00829622
0.0083736
0.00840122
0.00842617
0.00843798
0.00844018
0.00844084
0.00844097
0.00844119
0.00844108
0.00843996
0.00843782
0.0084338
0.00772186
0.00807615
0.00843291
0.00843194
0.00842662
0.00842113
0.00840804
0.00837794
0.00834877
0.00826303
0.00838896
0.00841718
0.00843469
0.00844051
0.00844157
0.00844158
0.00844167
0.00844168
0.00844153
0.00844001
0.00843794
0.00843363
0.00771139
0.00804862
0.00843268
0.00843114
0.00842717
0.00842191
0.00841298
0.00838818
0.00836062
0.00820428
0.00837727
0.00840605
0.00842886
0.00843935
0.00844227
0.00844272
0.00844243
0.00844215
0.00844206
0.00844173
0.00844023
0.00843793
0.00843352
0.00770165
0.00802001
0.00843204
0.00843097
0.00842749
0.00842213
0.00841534
0.00839743
0.00836536
0.00830081
0.008367
0.00839436
0.00842051
0.00843613
0.00844199
0.00844365
0.00844345
0.00844305
0.00844249
0.0084424
0.00844195
0.0084403
0.00843792
0.00843327
0.00769247
0.00799376
0.008432
0.00843064
0.00842701
0.00842228
0.00841655
0.00840486
0.00837423
0.00835336
0.00835824
0.00838152
0.00841101
0.00843085
0.00844013
0.00844354
0.00844464
0.00844425
0.0084436
0.00844304
0.00844268
0.00844208
0.00844035
0.00843793
0.0084333
0.00768457
0.00796703
0.00843246
0.00843099
0.00842676
0.00842201
0.00841673
0.00840905
0.00838466
0.008355
0.00817758
0.00836883
0.00839887
0.00842413
0.00843707
0.00844248
0.00844461
0.0084454
0.00844494
0.0084439
0.00844333
0.00844289
0.00844221
0.00844042
0.00843807
0.00843348
0.00767719
0.00797288
0.00840266
0.00843155
0.0084273
0.0084215
0.00841682
0.00841075
0.00839396
0.0083602
0.00812005
0.00835845
0.00838581
0.00841491
0.00843276
0.00844058
0.00844401
0.00844547
0.00844609
0.0084454
0.00844428
0.00844355
0.008443
0.00844222
0.00844043
0.00843826
0.00843352
0.00767002
0.00794149
0.00839325
0.00839423
0.00842656
0.00842165
0.00841662
0.00841135
0.00840064
0.0083692
0.00829087
0.00835
0.0083722
0.00840344
0.00842691
0.00843798
0.00844268
0.00844514
0.00844626
0.00844657
0.0084456
0.00844449
0.00844364
0.00844303
0.00844229
0.00844071
0.00843837
0.00843348
0.007663
0.00790895
0.00841063
0.0083576
0.00837008
0.00842049
0.00841602
0.00841071
0.00840378
0.00838007
0.00834829
0.00834416
0.00835965
0.00839004
0.00841825
0.00843436
0.00844075
0.00844404
0.0084458
0.00844675
0.00844692
0.00844586
0.00844452
0.00844362
0.00844301
0.00844257
0.00844082
0.00843851
0.00843358
0.00765578
0.0078744
0.00842869
0.00838482
0.00830216
0.00834214
0.00841391
0.00840919
0.00840454
0.00838899
0.00835335
0.00833909
0.00834915
0.00837646
0.00840714
0.0084288
0.00843867
0.00844228
0.00844491
0.00844637
0.00844713
0.00844727
0.00844602
0.00844443
0.00844341
0.00844304
0.00844256
0.00841156
0.00843859
0.00843368
0.00764791
0.00784272
0.00843107
0.00842443
0.0083233
0.00825446
0.00831525
0.00840743
0.00840353
0.00839442
0.00836271
0.00820361
0.0083403
0.00836238
0.00839462
0.0084205
0.00843484
0.00844082
0.00844321
0.00844545
0.00844667
0.00844747
0.00844755
0.00844604
0.00844417
0.00844318
0.00844276
0.00841301
0.00831846
0.00831678
0.00843364
0.0076388
0.0078154
0.00843233
0.008433
0.00838638
0.00825603
0.00823724
0.00839833
0.0084014
0.00839599
0.00837423
0.00815195
0.0083336
0.00834934
0.00838049
0.00841024
0.00842882
0.00843789
0.00844171
0.00844361
0.00844559
0.00844672
0.00844766
0.00844768
0.00844591
0.00844391
0.00844279
0.00844245
0.00828778
0.00816856
0.00843825
0.00843345
0.00762704
0.00779292
0.00843278
0.00843596
0.00842779
0.00832979
0.0082808
0.00834608
0.00839564
0.008395
0.0083816
0.00828898
0.00832769
0.00833801
0.00836614
0.0083979
0.00842097
0.008433
0.00843891
0.00844179
0.00844355
0.00844522
0.00844641
0.00844757
0.00844755
0.00844567
0.00844354
0.0084424
0.00840904
0.00818062
0.00843917
0.00843795
0.00843313
0.00761072
0.00777583
0.00843301
0.00843766
0.00843515
0.00841392
0.00833513
0.00830863
0.00837459
0.00839127
0.00838512
0.00835376
0.00832495
0.00832804
0.00835091
0.00838415
0.00841115
0.00842662
0.00843406
0.00843859
0.00842911
0.0082418
0.0084442
0.00844562
0.008447
0.00844704
0.00844509
0.00844279
0.00844174
0.00832082
0.00839083
0.00843882
0.00843795
0.00842581
0.00762086
0.00776349
0.00843296
0.00843873
0.00843756
0.00843063
0.00838766
0.00832214
0.00833174
0.00837849
0.00838432
0.0083638
0.00832682
0.00831982
0.00833669
0.00836887
0.00839906
0.00841858
0.00842792
0.00843314
0.00842485
0.00811647
0.00841664
0.00844246
0.00844418
0.0084458
0.008446
0.00844373
0.00844043
0.00842692
0.00837626
0.00840771
0.00843836
0.00843158
0.00826615
0.00819179
0.00661611
0.00830183
0.00816167
0.00766155
0.00843206
0.00843938
0.00843889
0.00843657
0.00841734
0.00834459
0.00830485
0.00834431
0.00837896
0.00836983
0.00833132
0.00831268
0.00832368
0.00835313
0.00838514
0.00840817
0.00842004
0.0084261
0.00842983
0.00828625
0.00836547
0.00843511
0.00843997
0.00844204
0.00844407
0.00844397
0.00844168
0.00843868
0.00842093
0.00840724
0.00839533
0.00848899
0.00819011
0.00818558
0.00815839
0.00648491
0.0081535
0.00799085
0.00762709
0.00831483
0.00843988
0.00843996
0.00843889
0.00843073
0.00838325
0.00830434
0.00830549
0.00836055
0.00837114
0.00833932
0.00830864
0.0083118
0.00833624
0.00836987
0.00839564
0.00840965
0.0084164
0.00842001
0.0084039
0.00838299
0.00842595
0.00843531
0.00843715
0.0084397
0.00844157
0.00844151
0.00843993
0.00843042
0.00843971
0.00839393
0.00833771
0.00818468
0.00818346
0.00829864
0.00818267
0.00815733
0.00815247
0.00815698
0.00633957
0.00815429
0.0078033
0.00763921
0.00826157
0.00843094
0.00844098
0.00844019
0.00843663
0.00841135
0.00832923
0.00828494
0.00832298
0.00836432
0.00834817
0.00830948
0.00830156
0.00831957
0.00835317
0.00838158
0.0083972
0.00840381
0.0084067
0.00840953
0.00841423
0.00842113
0.00842356
0.00842912
0.00843466
0.00843732
0.00843914
0.00843953
0.00840838
0.00831794
0.00832914
0.00818321
0.00818446
0.00815133
0.00814961
0.00814612
0.0081497
0.00815776
0.00815475
0.00815493
0.00631317
0.00815435
0.00777835
0.00766034
0.00825743
0.00841838
0.0084418
0.00844139
0.00843934
0.00842543
0.00836571
0.00828574
0.00828778
0.00834353
0.00835048
0.00831366
0.00829275
0.00830438
0.00833509
0.00836646
0.00838448
0.00838985
0.00839083
0.0083858
0.00839868
0.00831405
0.00820776
0.00821259
0.00842724
0.00843247
0.00843355
0.00842154
0.00837179
0.00821152
0.0081527
0.00805301
0.00792812
0.00816034
0.00793493
0.00816248
0.00815245
0.00815766
0.00815708
0.00815754
0.00815763
0.00815414
0.00642289
0.00815487
0.00794221
0.00769094
0.00824255
0.00841087
0.00844233
0.00844253
0.00844102
0.00843154
0.00839357
0.00830402
0.00826984
0.00830785
0.0083448
0.00832034
0.0082874
0.00829033
0.00831583
0.00834982
0.00837264
0.00837718
0.00837396
0.00834694
0.00837106
0.00828678
0.00803658
0.00798227
0.00835362
0.00842526
0.0084229
0.0084051
0.00834801
0.00825122
0.00810559
0.00784204
0.00783062
0.00776343
0.00784846
0.00783075
0.00754638
0.00782377
0.00815866
0.00780725
0.00815557
0.00815791
0.00816222
0.00812649
0.00654851
0.00815589
0.00812826
0.00773049
0.00822681
0.008375
0.00844217
0.00844339
0.0084421
0.008434
0.00840665
0.0083286
0.00826775
0.00827635
0.00832596
0.00832451
0.00828771
0.00827816
0.00829659
0.00833157
0.00836075
0.00836661
0.00835775
0.00834977
0.0083211
0.00828394
0.00815704
0.00805517
0.00824007
0.00837699
0.00839089
0.00837534
0.00832756
0.00830151
0.00816625
0.00778267
0.00756814
0.00789042
0.00776615
0.00768097
0.00783463
0.00752761
0.00763544
0.00758069
0.00817238
0.00798831
0.00805968
0.00813125
0.00817168
0.00815552
0.00654277
0.00815734
0.00813052
0.00777815
0.00821961
0.00834416
0.00842674
0.00844375
0.00844212
0.00843445
0.00841097
0.00834782
0.00827469
0.00825964
0.00829622
0.0083206
0.00829048
0.0082685
0.00827954
0.00831157
0.00834795
0.00835765
0.00834309
0.00832383
0.00830909
0.0082528
0.008242
0.00819375
0.00821634
0.00829197
0.00831125
0.0083005
0.00827165
0.00820756
0.00812019
0.00738089
0.00726214
0.00755146
0.00739187
0.00777354
0.00756222
0.00781357
0.00778805
0.0077046
0.00780411
0.00785197
0.00812381
0.00790441
0.00798881
0.00816296
0.00817079
0.00815911
0.00653823
0.00816033
0.00812981
0.00783264
0.00822008
0.00833535
0.00841914
0.00844329
0.00844034
0.00843197
0.00839016
0.00835545
0.00828433
0.00825309
0.00826941
0.00830598
0.00829421
0.00826217
0.00826426
0.00829084
0.00833276
0.0083496
0.008331
0.00829852
0.00826536
0.00823717
0.00821337
0.00820196
0.00820182
0.00820826
0.00821055
0.00820257
0.00810372
0.00804174
0.00794886
0.00686573
0.0069583
0.00726899
0.00706493
0.00741628
0.00730566
0.00758519
0.00744237
0.00778498
0.00760969
0.00787305
0.00780419
0.00787278
0.00806664
0.00788908
0.00792252
0.00816592
0.00810807
0.00816888
0.00653918
0.00816607
0.00813084
0.00789182
0.00823919
0.00834081
0.00842624
0.00844157
0.00843633
0.00842484
0.00838184
0.00826029
0.00828928
0.00825094
0.00825274
0.00828441
0.00829251
0.00826116
0.00825062
0.00827054
0.00831462
0.00834083
0.00832226
0.00827651
0.00822563
0.00818164
0.00815691
0.00815324
0.00815673
0.00815748
0.0081389
0.0080467
0.0079689
0.00785707
0.00791834
0.00672142
0.00684373
0.00672026
0.00693371
0.00708965
0.00670102
0.00735255
0.00716589
0.00747296
0.00738071
0.00764245
0.00749694
0.00782983
0.00768568
0.00784541
0.00797943
0.00787722
0.00793032
0.00812437
0.00801449
0.00813397
0.00654098
0.00817792
0.00813338
0.00795313
0.00828255
0.00834888
0.00844041
0.00843828
0.00842923
0.00841303
0.00838467
0.00823721
0.00813976
0.00824923
0.00824277
0.00826268
0.00828335
0.00826213
0.00824079
0.00825204
0.00829331
0.00833138
0.00831652
0.00826038
0.00819387
0.00813638
0.00812696
0.00814605
0.00815748
0.00810476
0.00803926
0.00793397
0.00777301
0.00799351
0.00780768
0.00681983
0.00676349
0.00696274
0.00688151
0.00682613
0.00703183
0.00676076
0.00681174
0.00724527
0.00684877
0.00740868
0.00727578
0.00752506
0.00742351
0.00772966
0.00755952
0.00776578
0.00796074
0.00781391
0.00784762
0.00803855
0.00794399
0.00810848
0.00654012
0.00812526
0.00803106
0.00801443
0.00833262
0.00838081
0.00843818
0.0084333
0.00841849
0.00839544
0.00835977
0.00830773
0.00809065
0.00824108
0.00823494
0.00824619
0.00826784
0.00826226
0.00823572
0.00823641
0.00827022
0.00831948
0.00831401
0.00825288
0.00817163
0.00810682
0.0081194
0.00813983
0.00808918
0.00800634
0.00788757
0.00776575
0.00780747
0.00787647
0.0081591
0.00669491
0.00656824
0.00681565
0.00676234
0.00695362
0.00688127
0.00710969
0.00704341
0.00688958
0.00718449
0.006924
0.00695534
0.00729319
0.00696329
0.00741518
0.00724021
0.00758984
0.00743542
0.00760781
0.00785957
0.00764248
0.00769787
0.00796481
0.00790449
0.00801966
0.0063
0.00793387
0.00766522
0.00807458
0.00836197
0.00841856
0.00843501
0.00842647
0.00840494
0.00837121
0.00832812
0.00829177
0.00821864
0.00817505
0.00822728
0.00823281
0.00825052
0.00825824
0.00823357
0.00822433
0.00824825
0.00830078
0.00831245
0.0082528
0.00816192
0.00809075
0.00812359
0.00807523
0.0080107
0.0078231
0.00771458
0.00765118
0.00788315
0.0079043
0.00761974
0.00770271
0.00660375
0.00650623
0.00682181
0.00677879
0.00697368
0.00691013
0.007137
0.00707921
0.00725799
0.00722144
0.00700312
0.00708224
0.00698558
0.00703855
0.00717964
0.00693974
0.00745167
0.00729363
0.00746753
0.00775856
0.00751098
0.00754426
0.00794599
0.00780082
0.00788741
0.00664551
0.00783875
0.00815726
0.0081354
0.00837349
0.00843482
0.00843083
0.0084179
0.00838872
0.00834188
0.00829362
0.00825932
0.0082363
0.00816318
0.0082163
0.00821985
0.00823252
0.00824647
0.00823179
0.00821378
0.00822762
0.00827575
0.00830742
0.0082573
0.00816219
0.00808227
0.008083
0.00803723
0.0078214
0.00771746
0.0075998
0.00789806
0.00728168
0.00772874
0.00744984
0.00787233
0.00671072
0.00674759
0.00673148
0.00670695
0.00686622
0.00685109
0.00702025
0.00697847
0.00718482
0.00713887
0.00706875
0.00727512
0.00686993
0.00687231
0.00706436
0.00681262
0.00718898
0.00662856
0.00738291
0.00730017
0.00738643
0.00757917
0.00741605
0.00742628
0.00782086
0.00763456
0.00782692
0.00660139
0.00792278
0.00824225
0.00820445
0.0083851
0.00843354
0.00842625
0.00840813
0.00836993
0.00830923
0.00825643
0.00822374
0.00820614
0.00819767
0.00819765
0.0082038
0.00821459
0.00822813
0.00822599
0.00820382
0.00820544
0.00824505
0.0082934
0.0082653
0.00816804
0.00807941
0.00802217
0.00799909
0.00775541
0.00791854
0.00791296
0.00729001
0.00734616
0.00771886
0.00793018
0.00799123
0.00681003
0.00689537
0.00693476
0.00699206
0.00684373
0.0068695
0.00696509
0.00698269
0.00710034
0.0070836
0.00724909
0.00721693
0.00734767
0.00733744
0.0065234
0.00704375
0.00642446
0.00672245
0.00683069
0.00650477
0.00736881
0.00686068
0.00689099
0.0074281
0.00693769
0.00712708
0.00768249
0.00745466
0.00775601
0.00638906
0.00799993
0.00820345
0.00830282
0.00839845
0.00843342
0.00842268
0.00839826
0.00834942
0.00827547
0.00821733
0.0081853
0.00817222
0.0081699
0.00817354
0.00818258
0.00819432
0.00820643
0.00821229
0.00819302
0.00818257
0.0082092
0.00826389
0.00826788
0.00818275
0.00807793
0.00797107
0.00790623
0.00808922
0.00793701
0.00758188
0.00741275
0.007915
0.00805437
0.00811263
0.00800907
0.00696221
0.00700372
0.00706627
0.00713615
0.0072007
0.00726732
0.00702632
0.00711189
0.0070974
0.00714555
0.00719393
0.00718969
0.00731704
0.00729108
0.00740055
0.00738671
0.00725911
0.0074111
0.00698482
0.00734865
0.00668531
0.00712535
0.0065889
0.00694205
0.00673895
0.0072521
0.00697694
0.00713767
0.00752673
0.00729522
0.0076425
0.00593989
0.0078488
0.00810103
0.00842144
0.00843438
0.00842077
0.00838885
0.00832848
0.00824232
0.00817757
0.00814502
0.00813544
0.00813907
0.0081483
0.00815944
0.00817265
0.00818486
0.0081921
0.00818032
0.00816206
0.00817158
0.00822116
0.00825684
0.00820169
0.00808409
0.00795278
0.00780917
0.00807757
0.00827964
0.00708919
0.00800623
0.00815766
0.00813792
0.0080772
0.00804385
0.00785507
0.00719666
0.00715555
0.00731621
0.00731377
0.00743599
0.00753233
0.00722906
0.00734248
0.00721977
0.00727756
0.00727061
0.00726512
0.00736819
0.00734553
0.00740907
0.00738911
0.00736036
0.0073594
0.00727189
0.00725625
0.00718258
0.00717357
0.00704334
0.00713644
0.00706214
0.00714751
0.00709382
0.00708844
0.0073376
0.00716742
0.00745489
0.00526209
0.00771277
0.00758475
0.00842717
0.0084205
0.00838272
0.00830918
0.0082107
0.00813768
0.0081033
0.00809665
0.00810596
0.0081221
0.00813926
0.00815516
0.00816886
0.00817683
0.00816892
0.00814854
0.0081408
0.00817129
0.00822899
0.00821363
0.0081084
0.00796575
0.00779813
0.00801292
0.00828298
0.00752464
0.00817938
0.00813665
0.00812902
0.00811009
0.00809715
0.00788217
0.00720353
0.00713061
0.0072996
0.00719181
0.00761192
0.00765952
0.00758399
0.00769575
0.00736272
0.00746974
0.00729912
0.00735374
0.0073216
0.00731537
0.00736713
0.00733921
0.00734482
0.00731712
0.00725473
0.00724835
0.00715484
0.00715497
0.00710932
0.00714555
0.00707847
0.00712503
0.00707386
0.00709926
0.00712674
0.00708355
0.00723003
0.00710715
0.00744302
0.00461179
0.00770702
0.00725378
0.00839681
0.00837861
0.00829299
0.00818103
0.00809789
0.0080601
0.00805583
0.00807045
0.00809347
0.00811812
0.0081406
0.0081586
0.00817023
0.00816726
0.00814747
0.00812761
0.008132
0.00818115
0.0082084
0.0081383
0.00801314
0.00784994
0.00800219
0.00824158
0.00806409
0.0081383
0.0081282
0.00816227
0.00804086
0.00799414
0.00797977
0.00794262
0.00750686
0.0071782
0.00766684
0.00759277
0.00780608
0.00791322
0.00763406
0.00773416
0.00743176
0.00753038
0.00735069
0.00740013
0.00731368
0.00731737
0.00729234
0.0072655
0.00722611
0.00719553
0.00718451
0.00719186
0.00721319
0.00726989
0.00721636
0.00730457
0.00716782
0.00719708
0.00714449
0.00701607
0.00699993
0.00514914
0.00507739
0.00716459
0.00512359
0.00509203
0.00744826
0.00635136
0.00770129
0.00754207
0.00834013
0.00827971
0.0081544
0.00805819
0.00801561
0.00801256
0.00803146
0.00805873
0.00808713
0.00811328
0.00794887
0.00775486
0.00770991
0.008159
0.0081356
0.00812076
0.00813851
0.00818286
0.00816125
0.0080616
0.00793496
0.00802855
0.00820698
0.00814885
0.00808352
0.00813014
0.0082064
0.00813041
0.00808933
0.00817582
0.00824015
0.0079151
0.00782005
0.00777683
0.00752209
0.0079971
0.00805331
0.0078347
0.00793686
0.00763289
0.00772361
0.00746661
0.00754753
0.00735285
0.00739577
0.00725542
0.00727999
0.00717933
0.00717505
0.00715282
0.00710728
0.00729933
0.00727586
0.00726884
0.00728659
0.00732101
0.00713856
0.00697817
0.00522056
0.00496411
0.00504308
0.00522049
0.00513349
0.00516789
0.00534129
0.00523273
0.00539262
0.00513532
0.00512452
0.00545809
0.00535743
0.00513611
0.00507381
0.00535237
0.00577228
0.00562053
0.00513031
0.00596084
0.00570945
0.00547673
0.00539468
0.00461516
0.00543528
0.00823232
0.00812883
0.00802007
0.00796941
0.00796701
0.00798796
0.00801549
0.00804046
0.00806537
0.00788106
0.00741059
0.00728161
0.00769659
0.00815534
0.00813462
0.00812705
0.00815601
0.00816735
0.00809592
0.00801323
0.00805885
0.00818478
0.00812531
0.00801495
0.00791458
0.00821508
0.00830868
0.0083607
0.0083883
0.0084261
0.007936
0.00789961
0.00806982
0.00808979
0.00809208
0.00806739
0.00801895
0.0080709
0.00782617
0.00793285
0.00761139
0.00771477
0.00745286
0.00752516
0.0073202
0.00736694
0.00719954
0.00722911
0.00711915
0.00715756
0.00719059
0.00713756
0.00724618
0.00714418
0.00523876
0.00519577
0.00513607
0.00514189
0.00523655
0.00533036
0.00508275
0.0053066
0.00527615
0.00512685
0.00524273
0.0053572
0.0051083
0.00512769
0.00518832
0.0051279
0.00522278
0.00515549
0.00523084
0.00516438
0.00522888
0.00521334
0.00513666
0.00518338
0.0052826
0.00530038
0.00321256
0.00440325
0.00411546
0.00513102
0.00526248
0.00442673
0.00471974
0.00807636
0.00797925
0.00792371
0.00791843
0.00794097
0.00796428
0.00798255
0.00800023
0.0080006
0.00771511
0.0073617
0.00744655
0.00806771
0.00815564
0.00814092
0.00814461
0.00816409
0.00812306
0.00806112
0.00808496
0.00817101
0.00810836
0.00801758
0.00776289
0.00818819
0.00830717
0.00836668
0.00840538
0.00842791
0.00829298
0.00809591
0.00808102
0.0081056
0.00811334
0.00809173
0.00809934
0.00801788
0.0080695
0.00782568
0.0079292
0.00753861
0.00756362
0.0074312
0.00747671
0.00718694
0.00714482
0.00720067
0.00720905
0.0071824
0.00725869
0.00705105
0.00706654
0.00505874
0.00503294
0.00493343
0.00488894
0.00501083
0.00492923
0.0048962
0.00508975
0.00511269
0.00501678
0.00500298
0.0050408
0.00512928
0.00511668
0.00514945
0.00512933
0.00517005
0.00527852
0.0052792
0.00534586
0.00529402
0.00520731
0.00531528
0.00535674
0.00521694
0.00524881
0.00529597
0.00524288
0.00516242
0.00270621
0.00424774
0.00404516
0.00498745
0.00437046
0.00421682
0.0045526
0.0079161
0.00787097
0.00787038
0.00789041
0.00791052
0.00791996
0.00793184
0.00795362
0.00798108
0.00772
0.0076293
0.00789211
0.00815775
0.00815886
0.0081519
0.00816134
0.00814769
0.00809007
0.00809019
0.00815288
0.00809432
0.00802798
0.00786647
0.00796076
0.00826925
0.00835978
0.00839937
0.00842423
0.00843692
0.00796262
0.0079242
0.00811866
0.00811965
0.00811136
0.00811946
0.00808672
0.0081005
0.00801055
0.0080614
0.00760836
0.00764293
0.00734412
0.00735452
0.00723454
0.0072851
0.00707239
0.00702157
0.00732011
0.0073246
0.00713852
0.00743862
0.00487076
0.00491031
0.00495761
0.00501178
0.00484335
0.00482791
0.00480112
0.00482178
0.00495553
0.00488238
0.00483315
0.00512766
0.0050643
0.00491322
0.00489995
0.00498116
0.00512743
0.00520738
0.00517557
0.00513868
0.00523851
0.00540584
0.00540035
0.0054685
0.00539251
0.00528843
0.00538532
0.0054533
0.00529016
0.00524916
0.00538226
0.00511275
0.00488575
0.00239131
0.0045748
0.00491101
0.00467935
0.00423483
0.00453231
0.00505068
0.00778789
0.00781152
0.00784154
0.00785515
0.00786138
0.00787012
0.007894
0.00792681
0.00796936
0.00780547
0.00783794
0.0080292
0.00815603
0.00816388
0.00816523
0.00816334
0.00811573
0.00810865
0.00812223
0.00808651
0.0079931
0.00792794
0.00779946
0.00792207
0.0083352
0.00838701
0.00841596
0.00843148
0.00829154
0.00812618
0.00809556
0.00812404
0.00812579
0.00811766
0.00812693
0.00803899
0.00810376
0.00768021
0.00773293
0.00737082
0.00737028
0.00746184
0.00752929
0.00698506
0.00726135
0.00725788
0.0070981
0.00751792
0.00757846
0.00505734
0.00533968
0.00735582
0.00487236
0.00492772
0.00497706
0.00503728
0.00483951
0.00486298
0.00491606
0.00497804
0.00488242
0.00484478
0.00486014
0.00507467
0.00497096
0.00485541
0.00487847
0.00489789
0.0051278
0.00524269
0.00516897
0.00506713
0.0052632
0.00549299
0.00547338
0.00552351
0.00544233
0.00532819
0.00523931
0.00541615
0.00531433
0.00515724
0.00539801
0.00487131
0.00467572
0.00220539
0.00597147
0.00463507
0.00458014
0.00453901
0.00473249
0.00582588
0.00769652
0.00778018
0.0078048
0.00780577
0.00782371
0.00785161
0.00788599
0.00792397
0.00796734
0.0079232
0.00797633
0.00806506
0.00815572
0.00816965
0.00817263
0.00814257
0.00810325
0.00809511
0.00808712
0.00797714
0.00791198
0.00787344
0.00764638
0.00815942
0.00836726
0.00840445
0.00842414
0.00843462
0.0079864
0.00794753
0.00813775
0.00813564
0.00813276
0.0081362
0.00812754
0.00813874
0.00764316
0.00811005
0.00736817
0.00738555
0.00758336
0.0076251
0.00733943
0.00750549
0.00717418
0.00733148
0.00762475
0.007419
0.00746168
0.00750339
0.00507832
0.00535661
0.0053484
0.0053167
0.00503386
0.00507671
0.00511626
0.00516859
0.00494208
0.00501779
0.00508842
0.00514659
0.0048817
0.00494895
0.0050306
0.00496178
0.00490189
0.00494735
0.00504829
0.00495
0.00505513
0.00518088
0.00498169
0.00496622
0.00502511
0.00536067
0.00544775
0.00522274
0.00514963
0.00498857
0.00489764
0.00506249
0.00523612
0.00494507
0.00521945
0.00467168
0.00459355
0.00255244
0.0068643
0.00565789
0.0045756
0.00462488
0.00531604
0.00666151
0.00762036
0.00774612
0.00776245
0.00778806
0.00782535
0.0078633
0.00790154
0.00793925
0.00797763
0.00801954
0.00801523
0.00811789
0.00815928
0.00817443
0.00816336
0.00811749
0.00804299
0.00805472
0.00798011
0.00787415
0.00787799
0.00779453
0.00788959
0.00834148
0.00838832
0.00841543
0.0084287
0.00828628
0.00813118
0.00809974
0.00814811
0.00814114
0.0081461
0.00814948
0.00814223
0.00815597
0.00732274
0.00811871
0.00765194
0.00766978
0.00759203
0.00761556
0.00740421
0.00742068
0.00747061
0.00751469
0.00774494
0.0077496
0.00538154
0.00539299
0.0056034
0.00539632
0.00520628
0.00523539
0.00542126
0.00539605
0.00519341
0.00523023
0.00526626
0.0053131
0.00512824
0.00520633
0.00526936
0.00532263
0.00505583
0.00515349
0.00523724
0.00493873
0.00502127
0.00516226
0.0052863
0.00515854
0.00480637
0.00481056
0.00471793
0.0048151
0.00472264
0.00500713
0.00502925
0.00485039
0.00482842
0.00469795
0.0046253
0.00475653
0.00489284
0.00465735
0.00478569
0.00458829
0.00459511
0.00329946
0.00710725
0.0059819
0.00462183
0.00488204
0.00611244
0.00684721
0.00753528
0.00772153
0.00776643
0.00780997
0.00785638
0.00789965
0.00793549
0.00796653
0.00799615
0.00803075
0.00807433
0.00812491
0.00816506
0.00817406
0.00814295
0.0080207
0.00799727
0.0079913
0.00786136
0.00781489
0.00788665
0.0078631
0.00827495
0.00836867
0.00840382
0.00842207
0.00843211
0.00796846
0.00793971
0.00813727
0.00812932
0.00815564
0.00814617
0.00816287
0.00816265
0.00815773
0.00817423
0.00767717
0.00812429
0.00773631
0.00801956
0.00758119
0.00759813
0.00760961
0.00753518
0.00775091
0.00775189
0.00749391
0.00755529
0.00543309
0.00543385
0.00562043
0.00541519
0.00534338
0.00536572
0.00553151
0.00552269
0.00536631
0.00539902
0.00542545
0.00546177
0.00532805
0.00540166
0.0054623
0.00551169
0.00528041
0.00536848
0.00544658
0.0049729
0.0052268
0.00539357
0.00552217
0.00539994
0.00471296
0.00458542
0.0046486
0.00483583
0.00455866
0.00470189
0.00467222
0.0045622
0.00455819
0.00450853
0.00445473
0.00454056
0.00463019
0.00458447
0.00457375
0.00458803
0.00462837
0.00349292
0.00699803
0.00629552
0.00467272
0.00547347
0.00645591
0.00683439
0.00745487
0.00774773
0.00780665
0.00786438
0.00791205
0.00794761
0.00797419
0.00799676
0.00801915
0.00804802
0.00808932
0.00814101
0.00817324
0.00762547
0.00812961
0.00715875
0.00798785
0.00786429
0.00777269
0.00780482
0.0079078
0.00812237
0.0083473
0.00838844
0.0084137
0.00842619
0.00828375
0.00812873
0.00810284
0.00814658
0.00813813
0.00816294
0.00815421
0.0081777
0.00817222
0.00816997
0.00818691
0.00806215
0.00812513
0.0077151
0.00799713
0.00770865
0.00784386
0.00769032
0.00769861
0.00754326
0.00771043
0.00546179
0.00547477
0.00549485
0.00547035
0.00552845
0.00551209
0.00542596
0.00546765
0.00548133
0.00549761
0.00564404
0.00564985
0.00554847
0.00556881
0.00558481
0.0056151
0.00553621
0.00560768
0.00566396
0.00570676
0.00550348
0.00558678
0.00566579
0.00507136
0.00534044
0.00562738
0.0057606
0.00560896
0.00477169
0.00453181
0.00465857
0.00491962
0.00451369
0.00447897
0.00451003
0.00445194
0.00442057
0.00444047
0.00439379
0.00442351
0.0045726
0.00457417
0.00453388
0.00461766
0.00415033
0.00509407
0.00680865
0.00657371
0.00491549
0.00603344
0.00655336
0.00669648
0.00740494
0.00780527
0.00788266
0.00793741
0.00797096
0.00799045
0.00800685
0.00802441
0.00804385
0.00807105
0.00811446
0.00816229
0.00739078
0.00815258
0.00660286
0.0079367
0.00787488
0.00775101
0.00774151
0.0078548
0.00787022
0.00827108
0.00834353
0.00840203
0.00841936
0.00842985
0.00795621
0.00793096
0.00813792
0.00812759
0.00815672
0.00814778
0.00817153
0.00816471
0.0081857
0.0081786
0.00817643
0.00819101
0.00804525
0.00812531
0.00789877
0.00796538
0.00772789
0.0077798
0.00774289
0.00769519
0.00517139
0.00546737
0.00766019
0.00569037
0.00575413
0.00576446
0.00574053
0.00561828
0.00557507
0.00560317
0.00555143
0.005627
0.00563366
0.00574956
0.00577111
0.00573524
0.00574474
0.00575283
0.00577395
0.00575718
0.0058271
0.00587793
0.00591396
0.00573447
0.00582042
0.00590549
0.00516274
0.00541352
0.00587933
0.00587796
0.00564233
0.00484253
0.00455793
0.00468568
0.00499488
0.00451864
0.00440248
0.00447255
0.00442472
0.00439136
0.00443161
0.0043874
0.00437883
0.00455502
0.00459271
0.00452416
0.00427303
0.00412796
0.00714617
0.00650171
0.00644042
0.0054462
0.00622515
0.00651721
0.00646364
0.0073806
0.00788453
0.00796905
0.0080041
0.00802081
0.00802738
0.00803536
0.00805024
0.00806218
0.00810068
0.00814641
0.00789896
0.00817234
0.0070292
0.00794023
0.00789243
0.00774403
0.00769585
0.00778147
0.00783331
0.00782929
0.00835193
0.00831936
0.00823151
0.00842252
0.00839987
0.00812454
0.00810039
0.00814704
0.00813606
0.00816658
0.00815726
0.00818001
0.00817445
0.00818828
0.00818401
0.00818046
0.00819004
0.00803703
0.00813225
0.00784604
0.00793383
0.00769126
0.00773143
0.00785649
0.00762739
0.00573839
0.00609457
0.00559205
0.00531003
0.00603545
0.00608167
0.0060674
0.00605621
0.00569885
0.00565583
0.00592351
0.0057657
0.00577035
0.00576502
0.00571192
0.00558818
0.00581034
0.0056566
0.00553458
0.00549076
0.00599897
0.00606497
0.00598173
0.00579576
0.00598815
0.00608058
0.00617478
0.00521491
0.00543788
0.00613873
0.00583605
0.0056309
0.00489234
0.00461301
0.00472463
0.00503882
0.00452152
0.00439346
0.00447225
0.00442979
0.0043931
0.00443854
0.00438842
0.00436729
0.00456164
0.00464751
0.00453353
0.00429625
0.00490399
0.0066537
0.00621144
0.00665982
0.00590783
0.00627114
0.00641205
0.00624403
0.00737685
0.00797462
0.00803081
0.00804813
0.00805539
0.00805732
0.00806203
0.00804282
0.00809162
0.00813799
0.00817456
0.00818401
0.00779025
0.00788584
0.00789973
0.00774604
0.00766384
0.00771406