/*--------------------------------*- C++ -*----------------------------------*\
  =========                 |
  \\      /  F ield         | OpenFOAM: The Open Source CFD Toolbox
   \\    /   O peration     | Website:  https://openfoam.org
    \\  /    A nd           | Version:  dev
     \\/     M anipulation  |
\*---------------------------------------------------------------------------*/
FoamFile
{
    version     2.0;
    format      ascii;
    class       volScalarField;
    location    "2500";
    object      rDeltaT;
}
// * * * * * * * * * * * * * * * * * * * * * * * * * * * * * * * * * * * * * //

dimensions      [0 0 -1 0 0 0 0];

internalField   nonuniform List<scalar> 
9978
(
100
100
100
100
100
100
100
100
100
100
100
100
100
100
100
100
100
100
100
100
100
100
100
100
100
100
100
100
100
100
100
100
100
100
100
100
100
100
100
100
100
100
100
100
100
100
100
100
100
100
100
100
100
100
100
100
100
100
100
100
100
100
100
100
100
100
100
100
100
100
100
100
100
100
100
100
100
100
100
100
100
100
100
100
100
100
100
100
100
100
100
100
100
100
100
100
100
100
100
100
100
100
100
100
100
100
100
100
100
100
100
100
100
100
100
100
100
100
100
100
100
100
100
100
100
100
100
100
100
100
100
100
100
100
100
100
100
100
100
100
100
100
100
100
100
100
100
100
100
100
100
100
100
100
100
100
100
100
100
100
100
100
100
100
100
100
100
100
100
100
100
100
100
100
100
100
100
100
100
100
100
100
100
100
100
100
100
100
100
100
100
100
100
100
100
100
100
100
100
100
100
100
100
100
100
100
100
100
100
100
100
100
100
100
100
100
100
100
100
100
100
100
100
100
100
100
100
100
100
100
100
100
100
100
100
100
100
100
100
100
100
100
100
100
100
100
100
100
100
100
100
100
100
100
100
100
100
100
100
100
100
100
100
100
100
100
100
100
100
100
100
100
100
100
100
100
100
100
100
100
100
100
100
100
100
100
100
100
100
100
100
100
100
100
100
100
100
100
100
100
100
100
100
100
100
100
100
100
100
100
100
100
100
100
100
100
100
100
100
100
100
100
100
100
100
100
100
100
100
100
100
100
100
100
100
100
100
100
100
100
100
100
100
100
100
100
100
100
100
100
100
100
100
100
100
100
100
100
100
100
100
100
100
100
100
100
100
100
100
100
100
100
100
100
100
100
100
100
100
100
100
100
100
100
100
100
100
100
100
100
100
100
100
100
100
100
100
100
100
100
100
100
100
100
100
100
100
100
100
100
100
100
100
100
100
100
100
100
100
100
100
100
100
100
100
100
100
100
100
100
100
100
100
100
100
100
100
100
100
100
100
100
100
100
100
100
100
100
100
100
100
100
100
100
100
100
100
100
100
100
100
100
100
100
100
100
100
100
100
100
100
100
100
100
100
100
100
100
100
100
100
100
100
100
100
100
100
100
100
100
100
100
100
100
100
100
100
100
100
100
100
100
100
100
100
100
100
100
100
100
100
100
100
100
100
100
100
100
100
100
100
100
100
100
100
100
100
100
100
100
100
100
100
100
100
100
100
100
100
100
100
100
100
100
100
100
100
100
100
100
100
100
100
100
100
100
100
100
100
100
100
100
100
100
100
100
100
100
100
100
100
100
100
100
100
100
100
100
100
100
100
100
100
100
100
100
100
100
100
100
100
100
100
100
100
100
100
100
100
100
100
100
100
100
100
100
100
100
100
100
100
100
100
100
100
100
100
100
100
100
100
100
100
100
100
100
100
100
100
100
100
100
100
100
100
100
100
100
100
100
100
100
100
100
100
100
100
100
100
100
100
100
100
100
100
100
100
100
100
100
100
100
100
100
100
100
100
100
100
100
100
100
100
100
100
100
100
100
100
100
100
100
100
100
100
100
100
100
100
100
100
100
100
100
100
100
100
100
100
100
100
100
100
100
100
100
100
100
100
100
100
100
100
100
100
100
100
100
100
100
100
100
100
100
100
100
100
100
100
100
100
100
100
100
100
100
100
100
100
100
100
100
100
100
100
100
100
100
100
100
100
100
100
100
100
100
100
100
100
100
100
100
100
100
100
100
100
100
100
100
100
100
100
100
100
100
100
100
100
100
100
100
100
100
100
100
100
100
100
100
100
100
100
100
100
100
100
100
100
100
100
100
100
100
100
100
100
100
100
100
100
100
100
100
100
100
100
100
100
100
100
100
100
100
100
100
100
100
100
100
100
100
100
100
100
100
100
100
100
100
100
100
100
100
100
100
100
100
100
100
100
100
100
100
100
100
100
100
100
100
100
100
100
100
100
100
100
100
100
100
100
100
100
100
100
100
100
100
100
100
100
100
100
100
100
100
100
100
100
100
100
100
100
100
100
100
100
100
100
100
100
100
100
100
100
100
100
100
100
100
100
100
100
100
100
100
100
100
100
100
100
100
100
100
100
100
100
100
100
100
100
100
100
100
100
100
100
100
100
100
100
100
100
100
100
100
100
100
100
100
100
100
100
100
100
100
100
100
100
100
100
100
100
100
100
100
100
100
100
100
100
100
100
100
100
100
100
100
100
100
100
100
100
100
100
100
100
100
100
100
100
100
100
100
100
100
100
100
100
100
100
100
100
100
100
100
100
100
100
100
100
100
100
100
100
100
100
100
100
100
100
100
100
100
100
100
100
100
100
100
100
100
100
100
100
100
100
100
100
100
100
100
100
100
100
100
100
100
100
100
100
100
100
100
100
100
100
100
100
100
100
100
100
100
100
100
100
100
100
100
100
100
100
100
100
100
100
100
100
100
100
100
100
100
100
100
100
100
100
100
100
100
100
100
100
100
100
100
100
100
100
100
100
100
100
100
100
100
100
100
100
100
100
100
100
100
100
100
100
100
100
100
100
100
100
100
100
100
100
100
100
100
100
100
100
100
100
100
100
100
100
100
100
100
100
100
100
100
100
100
100
100
100
100
100
100
100
100
100
100
100
100
100
100
100
100
100
100
100
100
100
100
100
100
100
100
100
100
100
100
100
100
100
100
100
100
100
100
100
100
100
100
100
100
100
100
100
100
100
100
100
100
100
100
100
100
100
100
100
100
100
100
100
100
100
100
100
100
100
100
100
100
100
100
100
100
100
100
100
100
100
100
100
100
100
100
100
100
100
100
100
100
100
100
100
100
100
100
100
100
100
100
100
100
100
100
100
100
100
100
100
100
100
100
100
100
100
100
100
100
100
100
100
100
100
100
100
100
100
100
100
100
100
100
100
100
100
100
100
100
100
100
100
100
100
100
100
100
100
100
100
100
100
100
100
100
100
100
100
100
100
100
100
100
100
100
100
100
100
100
100
100
100
100
100
100
100
100
100
100
100
100
100
100
100
100
100
100
100
100
100
100
100
100
100
100
100
100
100
100
100
100
100
100
100
100
100
100
100
100
100
100
100
100
100
100
100
100
100
100
100
100
100
100
100
100
100
100
100
100
100
100
100
100
100
100
100
100
100
100
100
100
100
100
100
100
100
100
100
100
100
100
100
100
100
100
100
100
100
100
100
100
100
100
100
100
100
100
100
100
100
100
100
100
100
100
100
100
100
100
100
100
100
100
100
100
100
100
100
100
100
100
100
100
100
100
100
100
100
100
100
100
100
100
100
100
100
100
100
100
100
100
100
100
100
100
100
100
100
100
100
100
100
100
100
100
100
100
100
100
100
100
100
100
100
100
100
100
100
100
100
100
100
100
100
100
100
100
100
100
100
100
100
100
100
100
100
100
100
100
100
100
100
100
100
100
100
100
100
100
100
100
100
100
100
100
100
100
100
100
100
100
100
100
100
100
100
100
100
100
100
100
100
100
100
100
100
100
100
100
100
100
100
100
100
100
100
100
100
100
100
100
100
100
100
100
100
100
100
100
100
100
100
100
100
100
100
100
100
100
100
100
100
100
100
100
100
100
100
100
100
100
100
100
100
100
100
100
100
100
100
100
100
100
100
100
100
100
100
100
100
100
100
100
100
100
100
100
100
100
100
100
100
100
100
100
100
100
100
100
100
100
100
100
100
100
100
100
100
100
100
100
100
100
100
100
100
100
100
100
100
100
100
100
100
100
100
100
100
100
100
100
100
100
100
100
100
100
100
100
100
100
100
100
100
100
100
100
100
100
100
100
100
100
100
100
100
100
100
100
100
100
100
100
100
100
100
100
100
100
100
100
100
100
100
100
100
100
100
100
100
100
100
100
100
100
100
100
100
100
100
100
100
100
100
126.603
111.336
100
100
100
100
100
100
100
100
100
100
100
100
100
100
100
100
100
100
100
100
100
100
100
100
100
100
100
100
100
100
100
100
100
100
100
100
100
100
100
100
100
100
100
100
100
100
100
100
100
100
100
100
100
100
100
100
100
100
100
100
100
100
100
100
100
100
100
100
100
100
100
100
100
100
100
100
100
100
100
100
100
100
119.075
100
100
100.004
112.491
100
100
100
100
100
100
100
100
100
100
100
100
100
100
100
100
100
100
100
100
100
100
100
100
100
100
100
100
100
100
100
100
100
100
100
100
100
100
100
100
100
100
100
100
100
100
100
100
100
100
100
100
100
100
100
100
100
100
100
100
100
100
100
100
100
100
100
100
100
100
100
100
100
100
100
100
100
100
100
100
100
177.741
127.609
105.281
100
100
107.447
110.895
100
100
100
100
100
100
100
100
100
100
100
100
100
100
100
100
100
100
100
100
100
100
100
100
100
100
100
100
100
100
100
100
100
100
100
100
100
100
100
100
100
100
100
100
100
100
100
100
100
100
100
100
100
100
100
100
100
100
100
100
100
100
100
100
100
100
100
100
100
100
100
100
100
100
100
100
100
100
100
100
100
100
100
100
220.827
114.205
141.977
100
105.162
109.813
110.919
100
100
100
100
100
100
100
100
100
100
100
100
100
100
100
100
100
100
100
100
100
100
100
100
100
100
100
100
100
100
100
100
100
100
100
100
100
100
100
100
100
100
100
100
100
100
100
100
100
100
100
100
100
100
100
100
100
100
100
100
100
100
100
100
100
100
100
100
100
100
100
100
100
100
100
100
100
100
104.781
101.956
100
100
100
100
100
224.966
115.864
134.002
104.868
109.465
109.134
108.93
100
100
100
100
100
100
100
100
100
100
100
100
100
100
100
100
100
100
100
100
100
100
100
100
100
100
100
100
100
100
100
100
100
100
100
100
100
100
100
100
100
100
100
100
100
100
100
100
100
100
100
100
100
100
100
100
100
100
100
100
100
100
100
100
100
100
100
100
100
100
100
100.803
103.706
100
106.763
104.38
100.149
107.573
108.862
110.205
114.783
112.244
100
100
102.54
103.124
106.895
236.484
102.71
138.518
110.02
110.018
106.327
100.062
100
100
100
100
100
100
100
100
100
100
100
100
100
100
100
100
100
100
100
100
100
100
100
100
100
100
100
100
100
100
100
100
100
100
100
100
100
100
100
100
100
100
100
100
100
100
100
100
100
100
100
100
100
100
100
100
100
100
100
100
100
100
100
100
100
100
100
100
100
100
100
100
106.493
110.713
111.619
106.634
115.317
113.765
109.729
116.157
118.085
118.649
122.61
120.312
105.123
107.606
111.385
110.331
111.883
162.784
100
113.552
112.06
107.625
100.365
100
100
100
100
100
100
100
100
100
100
100
100
100
100
100
100
100
100
100
100
100
100
100
100
100
100
100
100
100
100
100
100
100
100
100
100
100
100
100
100
100
100
100
100
100
100
100
100
100
100
100
100
100
100
100
100
100
100
100
100
100
100
100
100
100
100
100
100
100
104.513
100.881
100
100
100
112.688
118.308
118.032
112.043
121.633
121.14
117.262
122.677
125.505
125.736
128.832
126.091
112.506
114.214
117.931
115.114
114.476
100
100
100
110.905
103.361
100
100
100
100
100
100
100
100
100
100
100
100
100
100
100
100
100
100
100
100
100
100
100
100
100
100
100
100
100
100
100
100
100
100
100
100
100
100
100
100
100
100
100
100
100
100
100
100
100
100
100
100
100
100
100
100
100
100
100
100
100
100
100
100
100
100
100
100
100
100
100
100
108.837
104.789
100
100
100.732
117.248
124.205
123.858
116.314
127.129
127.304
123.275
128.113
130.721
131.344
134.027
131.306
118.292
118.881
122.869
117.713
114.593
100
100
100
107.889
100
100
100
100
100
100
100
100
100
100
100
100
100
100
100
100
100
100
100
100
100
100
100
100
100
100
100
100
100
100
100
100
100
100
100
100
100
100
100
100
100
100
100
100
100
100
100
100
100
100
100
100
100
100
100
100
100
100
100
100
100
100
100
100
100
100
100
100
100
100
100
100
100
100
100
112.988
109.307
100
103.49
106.256
121.607
128.876
128.881
120.551
132.156
132.596
127.905
132.72
135.074
136.424
139.047
136.787
122.769
121.568
126.816
118.642
112.736
100
100
100
104.01
100
100
100
100
100
100
100
100
100
100
100
100
100
100
100
100
100
100
100
100
100
100
100
100
100
100
100
100
100
100
100
100
100
100
100
100
100
100
100
100
100
100
100
100
100
100
100
100
100
100
100
100
100
100
100
100
100
100
100
100
100
100
100
103.647
108.136
103.333
107.544
111.141
112.534
100
100
103.321
109.023
100
100
100
117.848
114.992
100.348
111.592
113.201
126.327
132.752
133.466
125.37
137.85
137.121
131.539
136.189
139.964
141.66
143.981
141.562
125.808
122.872
130.036
118.069
109.96
100
100
100
100
100
100
100
100
100
100
100
100
100
100
100
100
100
100
100
100
100
100
100
100
100
100
100
100
100
100
100
100
100
100
100
100
100
100
100
100
100
100
100
100
100
100
100
100
100
100
100
100
100
100
100
100
100
100
100
100
100
100
100
100
100
100
100
112.903
111.855
116.986
122.211
114.501
119.705
124.21
126.309
100
106.03
112.595
119.177
100
100
100.341
124.054
122.305
109.707
121.423
121.726
131.94
138.089
139.507
131.148
143.656
140.697
135.015
139.894
144.745
147.107
148.325
145.695
127.432
123.416
132.059
116.1
107.141
100
100
100
100
100
100
100
100
100
100
100
100
100
100
100
100
100
100
100
100
100
100
100
100
100
100
100
100
100
100
100
100
100
100
100
100
100
100
100
100
100
100
100
100
100
100
100
100
100
100
100
100
100
100
100
100
100
100
100
100
102.244
103.035
103.107
100.552
111.361
106.889
103.524
104.465
127.089
126.062
130.805
136.928
125.648
131.826
137.316
140.345
107.146
114.292
121.688
129.207
109.218
108.513
108.174
131.845
131.896
121.113
133.341
132.394
140.205
144.266
145.629
140.233
149.615
144.644
137.583
143.538
150.195
152.349
154.541
150.256
128.525
122.866
133.738
114.424
104.941
100
100
100
100
100
100
100
100
100
100
100
100
100
100
100
100
100
100
100
100
100
100
100
100
100
100
100
100
100
100
100
100
100
100
100
100
100
100
100
100
100
100
100
100
100
100
100
100
100
100
100
100
100
100
105.761
100.313
100
100
100
100
104.85
112.406
114.407
114.712
112.354
123.502
117.515
113.255
114.63
141.485
140.438
145.707
152.811
136.642
143.787
150.256
154.721
114.475
122.461
130.715
139.109
122.019
121.673
119.934
142.378
144.349
134.692
147.621
145.634
148.374
151.392
153.692
149.974
156.606
149.834
140.058
148.399
157.104
160.421
165.921
157.948
129.444
122.532
136.668
114.104
103.409
100
100
100
100
100
100
100
100
100
100
100
100
100
100
100
100
100
100
100
100
100
100
100
100
100
100
100
100
100
100
100
100
100
100
100
100
100
100
100
100
100
100
100
100
100
100
100
100
100
100
100
100
100
100
110.988
114.213
108.981
104.337
100
110.231
108.56
115.634
122.246
124.468
124.255
122.552
136.475
128.551
122.166
124.392
156.53
155.727
161.737
169.209
147.53
155.733
163.387
169.608
122.129
131.016
139.944
149.096
136.903
136.933
135.789
152.435
156.601
150.713
162.276
159.263
159.029
161.25
168.672
165.608
169.978
160.212
145.841
159.098
170.508
178.153
188.807
176.605
131.334
123.868
142.058
114.311
102.944
105.527
100
100
100
100
100
100
100
100
100
100
100
100
100
100
100
100
100
100
100
100
100
100
100
100
100
100
100
100
100
100
100
100
100
100
100
100
100
100
100
100
100
100
100
100
100
100
100
100
100
100
100
100
100
100
119.699
122.081
117.418
111.907
104.995
121.721
119.698
124.58
132.434
133.94
132.775
132.062
150.921
140.895
131.373
134.563
172.455
171.855
179.361
186.723
158.492
167.829
176.688
184.448
134.567
140.739
150.06
159.57
154.783
156.194
155.005
172.907
183.525
168.32
193.259
189.648
181.142
183.997
201.645
198.819
196.148
178.377
155.631
173.838
197.849
210.379
222.849
201.97
134.482
126.184
147.786
116.087
103.673
132.351
100
100
100
100
100
100
100
100
100
100
100
100
100
100
100
100
100
100
100
100
100
100
100
100
100
100
100
100
100
100
100
100
100
100
100
100
100
100
100
100
100
100
100
100
100
100
100
100
100
100
100
102.483
100
100
100
126.968
129.901
124.714
117.799
110.055
131.468
128.852
132.238
142.333
142.478
141.279
141.341
167.615
155.567
141.746
146.045
189.093
189.189
199.328
206.137
169.768
180.381
190.666
200.076
152.652
153.01
161.639
170.805
177.537
180.412
175.68
213.436
221.019
203.683
220.871
216.776
219.129
219.59
239.957
233.904
233.025
197.118
166.331
190.283
228.424
246.862
253.454
226.147
140.19
130.77
158.029
118.629
107.403
388.334
100
138.196
100
100
100
100
100
100
100
100
100
100
100
100
100
100
100
100
100
100
100
100
100
100
100
100
100
100
100
100
100
100
100
100
100
100
100
100
100
100
100
100
100
100
100
100
100
100
100
100
100
100
108.109
100
100
100
134.313
137.355
131.239
123.806
116.033
139.759
136.777
139.588
152.002
150.652
150.043
149.904
187.409
172.682
152.992
158.497
206.939
208.166
221.818
227.526
181.441
193.554
206.093
217.382
173.293
170.529
175.315
184.001
212.393
208.556
204.278
237.758
240.433
234.364
269.379
264.764
244.153
251.48
253.311
256.098
256.566
218.407
181.708
208.98
256.071
254.556
263.403
250.903
148.629
136.078
170.769
124.033
112.944
179.222
100
100
101.699
100
100
100
100
100
100
100
100
100
100
100
100
100
100
100
100
100
100
100
100
100
100
100
100
100
100
100
100
100
100
100
100
100
100
100
100
100
100
100
100
100
100
100
100
100
100
100
100
100
100
114.232
105.392
101.938
100
141.82
144.783
138.118
130.877
122.895
147.51
144.536
146.5
162.027
159.966
159.664
158.417
210.596
193.293
166.206
174.802
225.558
228.55
246.605
249.723
193.801
207.445
223.109
238.085
200.518
196.174
195.147
202.538
250.696
252.862
256.709
286.839
157.989
284.511
315.875
310.624
299.795
273.799
159.376
168.22
308.179
239.452
196.178
225.287
264.354
159.005
164.465
250.917
156.87
144.232
182.818
132.02
119.129
100
100
100
109.372
102.33
100.439
100
100
100
100
100
100
100
100
100
100
100
100
100
100
100
100
100
100
100
100
100
100
100
100
100
100
100
100
100
100
100
100
100
100
100
100
100
100
100
100
100
100
100
100
100
100
100
100
100
100
121.181
111.923
108.439
100
150.14
153.079
146.44
138.998
130.363
155.552
151.88
154.413
172.583
170.193
169.317
167.408
237.523
219.094
182.706
198.116
244.857
249.663
274.117
270.591
209.65
221.95
236.403
254.09
248.549
244.889
239.28
245.15
161.753
294.736
293.316
340.784
186.336
334.51
365.397
357.597
353.547
175.402
190.396
198.173
366.221
250.476
211.596
239.72
167.126
189.674
195.833
160.97
168.772
154.527
198.302
139.843
126.943
100
100
100
116.908
110.059
102.003
100
100
100
100
100
100
100
100
100
100
100
100
100
100
100
100
100
100
100
100
100
100
100
100
100
100
100
100
100
100
100
100
100
100
100
100
100
100
100
100
100
100
100
100
100
100
100
100
100
100
100
128.972
119.144
116.078
104.289
159.085
162.796
155.71
147.506
138.452
164.056
159.481
164.096
188.258
181.992
179.079
176.894
268.433
252.576
206.961
230.931
261.78
268.705
291.57
288.489
248.41
259.255
266.142
291.388
286.264
279.766
273.957
277.679
188.806
338.06
334.489
396.257
215.595
383.496
411.047
400.99
406.726
207.291
221.838
226.701
421.604
263.765
308.752
231.208
245.356
197.37
220.898
227.982
189.808
180.775
165.16
211.5
147.382
134.686
100
100
100
123.309
113.091
100
100
100
100
100
100
100
100
100
100
100
100
100
100
100
100
100
100
100
100
100
100
100
100
100
100
100
100
100
100
100
100
100
100
100
100
100
100
100
100
100
100
100
100
100
100
100
100
100
100
100
138.525
127.835
124.898
112.294
168.731
172.564
165.184
156.751
148.088
172.976
168.637
174.28
214.375
198.604
190.61
186.433
297.139
289.448
241.303
269.595
302.627
296.755
316.126
303.811
282.458
291.249
299.95
172.609
318.703
327.206
319.291
313.569
315.122
213.861
381.24
376.428
444.092
241.6
430.317
452.492
237.836
247.284
251.219
466.531
166.274
359.973
236.295
158.302
228.494
246.524
254.293
220.63
193.853
173.441
223.239
155.892
140.384
100
100
102.925
127.113
113.61
100
100
100
100
100
100
100
100
100
100
100
100
100
100
100
100
100
100
100
100
100
100
100
100
100
100
100
100
100
100
100
100
100
100
100
100
100
100
100
100
100
100
100
100
100
100
100
100
100
100
105.572
100
100
149.096
137.328
134.017
120.02
178.465
183.826
176.319
167.631
159.242
181.636
178.703
184.496
254.292
226.265
207.821
198.415
328.154
316.736
282.771
304.215
313.047
189.128
342.358
337.031
321.376
328.586
338.935
192.773
351.088
367.717
359.762
353.634
353.705
237.291
262.116
196.36
415.013
245.964
286.722
186.578
254.092
246.203
203.982
180.862
230.497
161.677
144.583
103.232
100
134.631
129.214
112.937
100
100
100
100
100
100
100
100
100
100
100
100
100
100
100
100
100
100
100
100
100
100
100
100
100
100
100
100
100
100
100
100
100
100
100
100
100
100
100
100
100
100
100
100
100
100
100
100
100
100
113.142
100
100
159.999
147.515
142.727
127.572
189.444
196.191
187.821
178.705
170.508
191.76
189.787
195.596
297.766
265.124
237.671
220.146
330.666
310.88
333.114
347.703
205.438
377.523
377.78
359.897
366.989
377.354
215.783
384.608
228.847
462.449
157.339
337.166
217.26
210.67
188.731
238.992
279.059
165.287
147.618
103.98
101.796
156.803
129.884
111.219
100
100
100
100
100
100
100
100
100
100
100
100
100
100
100
100
100
100
100
100
100
100
100
100
100
100
100
100
100
100
100
100
100
100
100
100
100
100
100
100
100
100
100
100
100
100
100
100
100
100
100
122.176
106.647
100
171.24
157.976
153.253
137.633
202.921
209.679
200.025
190.083
181.546
207.214
201.916
210.273
312.102
298.898
274.812
252.783
365.029
191.764
324.201
390.033
227.204
407.587
413.04
237.059
257.76
185.74
394.207
244.666
212.046
188.083
159.502
329.364
168.82
148.521
100
125.991
173.82
128.337
109.807
100
105.375
100
100
100
100
100
100
100
100
100
100
100
100
100
100
100
100
100
100
100
100
100
100
100
100
100
100
100
100
100
100
100
100
100
100
100
100
100
100
100
100
100
100
100
100
100
100
100
100
100
100
100
130.008
113.315
104.439
182.744
168.802
164.823
147.339
219.613
225.824
214.981
203.706
193.493
232.12
218.917
230.626
180.814
323.84
299.153
285.629
411.126
208.109
361.565
429.107
245.704
218.175
445.917
210.982
269.082
192.45
185.626
387.342
170.509
148.092
100
148.959
183.76
126.109
108.838
104.198
120.202
100
100
100
100
100
100
100
100
100
100
100
100
100
100
100
100
100
100
100
100
100
100
100
100
100
100
100
100
100
100
100
100
100
100
100
100
100
100
100
100
100
100
100
100
100
100
100
100
100
100
100
100
137.759
120.333
110.08
193.477
180.327
175.869
155.97
239.822
245.897
232.672
218.558
204.667
263.389
244.358
256.85
186.127
199.973
330.325
292.796
449.816
231.891
410.569
247.538
225.817
254.124
310.373
196.357
215.163
440.07
173.459
145.049
100
168.352
187.796
123.735
110.129
113.253
133.68
100
100
100
100
100
100
100
100
100
100
100
100
100
100
100
100
100
100
100
100
100
100
100
100
100
100
100
100
100
100
100
100
100
100
100
100
100
100
100
100
100
100
100
100
100
100
100
103.718
100
100
100
100
100
145.198
126.295
116.85
206.858
193.296
186.863
165.095
262.912
268.362
251.465
234.732
218.441
293.877
274.944
281.931
208.782
225.524
175.806
371.819
252.967
453.603
238.838
270.265
300.914
357.447
197.214
241.451
167.577
140.767
100
185.999
187.689
121.714
115.777
120.874
147.45
100
100
100
100
100
100
100
100
100
100
100
100
100
100
100
100
100
100
100
100
100
100
100
100
100
100
100
100
100
100
100
100
100
100
100
100
100
100
100
100
100
100
100
100
100
108.5
100.809
100
100
100
100
100
100
100
151.683
132.716
122.493
219.917
205.042
197.443
172.898
283.934
287.258
269.946
253.058
234.665
301.958
298.986
298.486
235.706
248.489
199.199
182.056
418.341
152.999
321.078
356.006
400.891
188.163
251.096
160.357
137.028
100
196.84
188.258
122.676
120.987
128.055
158.73
100
100
100
100
100
100
100
100
100
100
100
100
100
100
100
100
100
100
100
100
100
100
100
100
100
100
100
100
100
100
100
100
100
100
100
100
100
100
100
100
100
100
100
100
100
111.274
105.025
100
100.546
100
100
100
100
100
159.89
139.872
125.379
233.335
216.799
206.918
181.587
298.105
304.062
289.477
273.448
252.036
301.308
296.36
260.49
223.798
205.062
182.88
463.302
179.38
375.552
406.578
181.268
235.287
292.176
155.262
134.724
100
203.707
184.994
126.856
125.566
133.413
165.962
100
100
100
100
100
100
100
100
100
100
100
100
100
100
100
100
100
100
100
100
100
100
100
100
100
100
100
100
100
100
100
100
100
100
100
100
100
100
100
100
100
100
100
100
100
100
100
115.193
107.439
108.175
100.364
100
100
100
100
166.543
144.199
128.484
246.106
226.571
218.892
191.316
307.141
315.23
308.016
292.778
268.502
181.452
246.499
228.529
205.679
209.101
425.707
177.955
230.915
278.579
339.195
152.329
137.758
107.077
200.803
178.422
130.333
127.772
136.682
167.384
100
100
100
100
100
100
100
100
100
100
100
100
100
100
100
100
100
100
100
100
100
100
100
100
100
100
100
100
100
100
100
100
100
100
100
100
100
100
100
100
100
100
100
100
100
100
100
100
100
100
118.026
118.502
107.828
100
100
100
100
169.967
146.755
132.091
259.336
237.834
228.536
197.494
319.315
351.687
320.688
320.108
309.89
284.783
202.31
252.491
228.701
236.081
175.299
228.196
273.628
329.407
383.783
154.088
140.906
161.307
190.852
211.08
131.824
128.574
136.917
164.152
100
100
100
100
100
100
100
100
100
100
100
100
100
100
100
100
100
100
100
100
100
100
100
100
100
100
100
100
100
100
100
100
100
100
100
100
100
100
100
100
100
100
100
100
100
100
100
100
100
100
100
100
133.085
118.269
106.988
100
100
100
175.686
151.29
276.572
250.36
235.201
204.128
195.803
389.971
197.24
325.287
323.566
303.136
222.938
252.61
176.909
222.602
270.315
322.551
377.118
157.069
142.788
346.284
215.927
265.992
132.27
127.569
132.686
168.172
100
100
100
100
100
100
100
100
100
100
100
100
100
100
100
100
100
100
100
100
100
100
100
100
100
100
100
100
100
100
100
100
100
100
100
100
100
100
100
100
100
100
100
100
100
100
100
100
100
100
100
100
100
100
153.438
133.359
117.893
106.245
100
100
179.947
291.87
259.092
243.807
211.492
217.451
425.075
214.899
363.046
336.329
330.897
320.48
245.024
181.325
222.49
264.477
318.086
368.108
159.646
143.778
841.324
214.414
312.63
131.663
123.817
127.78
155.263
100
100
100
100
100
100
100
100
100
100
100
100
100
100
100
100
100
100
100
100
100
100
100
100
100
100
100
100
100
100
100
100
100
100
100
100
100
100
100
100
100
100
100
100
100
100
100
100
100
100
100
100
100
100
100
100
154.403
133.678
117.299
105.852
100
182.02
303.496
268.359
250.052
215.528
239.113
462.516
231.404
393.552
200.978
338.393
328.999
185.908
226.645
264.255
312.31
361.923
161.509
143.463
169.5
172.004
100
128.597
117.201
119.519
135.304
100
100
100
100
100
100
100
100
100
100
100
100
100
100
100
100
100
100
100
100
100
100
100
100
100
100
100
100
100
100
100
100
100
100
100
100
100
100
100
100
100
100
100
100
100
100
100
100
100
100
100
100
100
100
100
100
100
100
100
155.572
133.481
116.411
104.756
184.123
313.862
277.739
253.735
218.644
259.884
247.934
422.466
218.872
371.953
345.251
329.823
190.48
231.871
269.074
312.109
356.106
162.716
139.751
100
119.509
100
122.757
109.459
107.983
110.225
100
100
100
100
100
100
100
100
100
100
100
100
100
100
100
100
100
100
100
100
100
100
100
100
100
100
100
100
100
100
100
100
100
100
100
100
100
100
100
100
100
100
100
100
100
100
100
100
100
100
100
100
100
100
100
100
100
100
104.215
100
155.799
132.087
115.484
185.168
314.361
281.861
257.539
221.096
453.351
235.733
399.116
204.4
321.08
191.271
240.285
275.256
317.576
356.092
158.483
133.512
100
100
100
115.751
101.707
100
100
100
100
100
100
100
100
100
100
100
100
100
100
100
100
100
100
100
100
100
100
100
100
100
100
100
100
100
100
100
100
100
100
100
100
100
100
100
100
100
100
100
100
100
100
104.141
100
100
100
100
100
100
100
100
100
100
100
100
100
100
102.742
114.913
100
154.648
131.353
185.277
316.179
286.681
261.998
223.272
252.114
424.931
219.411
337.44
329.367
190.732
238.399
283.399
324.535
362.079
149.863
126.133
100
100
100
110.12
100
100
100
100
100
100
100
100
100
100
100
100
100
100
100
100
100
100
100
100
100
100
100
100
100
100
100
100
100
100
100
100
100
100
100
100
100
100
100
100
100
100
100
100
100
100
100
114.265
100
100
100
100
100
100
101.44
100
100
100
100
100
100
100
100.374
101.521
112.237
130.73
100
154.609
186.428
324.057
294.058
266.223
226.041
450.054
233.453
364.302
343.704
350.016
221.259
181.878
283.583
146.132
332.828
369.339
140.976
120.45
100
100
100
106.538
100
100
100
100
100
100
100
100
100
100
100
100
100
100
100
100
100
100
100
100
100
100
100
100
100
100
100
100
100
100
100
100
100
100
100
100
100
100
100
100
100
100
100
100
100
100
129.07
100
100
100
100
103.682
104.85
100
102.625
104.336
101.006
100.367
100
100
100
100
100
108.406
110.303
126.238
153.881
100
185.265
326.402
301.222
264.058
224.199
246.281
388.919
370.837
378.141
362.83
212.509
170.043
334.796
175.041
266.828
378.024
134.137
117.162
100
100
100
105.238
104.541
100
100
100
100
100
100
100
100
100
100
100
100
100
100
100
100
100
100
100
100
100
100
100
100
100
100
100
100
100
100
100
100
100
100
100
100
100
100
100
100
100
100
100
100
100
151.044
106.426
100
102.355
100
104.567
105.13
106.281
106.894
100
107.223
108.853
105.373
103.474
100.893
100
100
100
104.212
120.244
123.315
147.284
100
181.572
318.847
298.277
258.401
219.734
410.07
397.935
403.004
206.998
196.672
164.447
382.078
206.482
319.391
251.975
128.931
115.162
100
100
100
109.684
116.389
100
100
100
100
100
100
100
100
100
100
100
100
100
100
100
100
100
100
100
100
100
100
100
100
100
100
100
100
100
100
100
100
100
100
100
100
100
100
100
100
100
100
100
100
100
116.973
100
105.837
100
100
106.001
106.881
110.721
110.785
100
111.516
113.142
109.119
107.069
104.343
102.929
100
101.818
113.488
138.583
143.14
177.033
100
311.986
329.151
289.577
251.854
214.34
420.533
423.994
221.82
190.729
155.317
234.838
374.552
300.902
239.932
124.238
116.472
100
100
100
122.373
113.873
100
100
100
100
100
100
100
100
100
100
100
100
100
100
100
100
100
100
100
100
100
100
100
100
100
100
100
100
100
100
100
100
100
100
100
100
100
100
100
100
100
100
100
100
100
133.563
102.303
110.284
110.686
100
109.561
100
109.502
110.035
114.799
114.464
100
116.514
118.172
113.724
110.905
107.789
107.125
106.066
109.85
128.158
165.643
171.662
100
303.103
327.377
352.29
281.872
245.004
208.023
442.39
233.974
193.059
143.324
425.376
355.464
290.934
144.026
123.866
123.952
100
100
100
131.724
100
100
100
100
100
100
100
100
100
100
100
100
100
100
100
100
100
100
100
100
100
100
100
100
100
100
100
100
100
100
100
100
100
100
100
100
100
100
100
100
100
100
100
100
100
100
158.894
108.62
115.097
113.791
100
108.924
108.058
111.589
100
113.462
114.413
119.27
118.369
100
121.36
123.437
118.509
115.864
112.117
112.786
118.505
122.466
151.362
201.065
100
294.094
318.543
349.587
375.788
274.089
238.102
243.869
211.89
182.075
137.112
406.125
345.071
175.055
263.88
127.135
136.901
100
100
100
126.523
100
100
100
100
100
100
100
100
100