/*--------------------------------*- C++ -*----------------------------------*\
  =========                 |
  \\      /  F ield         | OpenFOAM: The Open Source CFD Toolbox
   \\    /   O peration     | Website:  https://openfoam.org
    \\  /    A nd           | Version:  dev
     \\/     M anipulation  |
\*---------------------------------------------------------------------------*/
FoamFile
{
    version     2.0;
    format      ascii;
    class       volScalarField;
    location    "2500";
    object      rho;
}
// * * * * * * * * * * * * * * * * * * * * * * * * * * * * * * * * * * * * * //

dimensions      [1 -3 0 0 0 0 0];

internalField   nonuniform List<scalar> 
9978
(
1.17172
1.17153
1.17162
1.17154
1.17123
1.17166
1.17151
1.171
1.17121
1.17175
1.17153
1.17099
1.17086
1.17129
1.17178
1.17156
1.17102
1.17061
1.17087
1.17138
1.17182
1.17159
1.17105
1.17046
1.17057
1.17099
1.17147
1.17183
1.17166
1.17098
1.17039
1.17028
1.17062
1.17111
1.17152
1.17185
1.17167
1.17101
1.17039
1.17013
1.17029
1.17073
1.17121
1.17157
1.17188
1.17167
1.17102
1.17038
1.17002
1.17005
1.17043
1.17088
1.17127
1.17159
1.17188
1.17168
1.17103
1.17041
1.16999
1.16984
1.17006
1.17052
1.17098
1.17133
1.17164
1.17188
1.17164
1.17105
1.17048
1.16997
1.16968
1.16981
1.1702
1.17064
1.17106
1.17136
1.17166
1.1719
1.17164
1.17114
1.1706
1.16997
1.16958
1.1696
1.16988
1.17035
1.17074
1.17113
1.17139
1.17165
1.1719
1.17165
1.17121
1.17058
1.16994
1.16951
1.16944
1.16961
1.17002
1.17044
1.17085
1.17117
1.17143
1.17168
1.17191
1.1717
1.17124
1.17067
1.17
1.16953
1.1693
1.1694
1.1697
1.17014
1.17054
1.17089
1.17118
1.17144
1.17169
1.17191
1.17172
1.1712
1.17071
1.17002
1.16957
1.16923
1.1692
1.16945
1.16986
1.17029
1.17063
1.17095
1.17122
1.17147
1.17168
1.17191
1.1717
1.17128
1.17072
1.17009
1.16966
1.16919
1.16908
1.16922
1.16956
1.16998
1.17036
1.17069
1.17098
1.17123
1.17147
1.1717
1.17192
1.17174
1.17127
1.17076
1.17027
1.16975
1.16915
1.16898
1.16903
1.16931
1.16966
1.17012
1.17044
1.17074
1.17101
1.17126
1.17147
1.1717
1.17192
1.17174
1.17129
1.17089
1.17035
1.16982
1.16917
1.16891
1.16889
1.16907
1.16941
1.16985
1.1702
1.1705
1.1708
1.17104
1.17128
1.17148
1.1717
1.17192
1.17174
1.17135
1.17091
1.17036
1.16987
1.16923
1.16889
1.16877
1.16889
1.16916
1.16953
1.16998
1.17026
1.17055
1.17082
1.17106
1.17128
1.1715
1.17171
1.17192
1.17176
1.17142
1.17095
1.17052
1.16995
1.16939
1.16891
1.1687
1.16873
1.16894
1.16928
1.16966
1.17002
1.17031
1.17061
1.17084
1.17108
1.17129
1.17151
1.1717
1.17191
1.17179
1.17143
1.171
1.17062
1.17005
1.16954
1.16898
1.16867
1.16861
1.16876
1.16903
1.16941
1.16979
1.17009
1.17039
1.17062
1.17085
1.17108
1.17131
1.1715
1.17171
1.17192
1.17179
1.17144
1.17112
1.17065
1.17012
1.16963
1.16907
1.16866
1.16854
1.1686
1.16882
1.16916
1.16952
1.16986
1.17014
1.17041
1.17065
1.17087
1.17109
1.17129
1.1715
1.1717
1.17191
1.1718
1.17152
1.17114
1.17068
1.17022
1.16979
1.16921
1.16872
1.16849
1.16848
1.16864
1.16893
1.16927
1.16961
1.16991
1.1702
1.17043
1.17068
1.17088
1.17109
1.17129
1.1715
1.17172
1.17192
1.17181
1.17157
1.17122
1.1708
1.17033
1.16988
1.1693
1.1688
1.16849
1.1684
1.1685
1.16873
1.16905
1.16939
1.16969
1.16996
1.17023
1.17045
1.17067
1.17089
1.17109
1.17129
1.1715
1.1717
1.17192
1.17183
1.17161
1.17132
1.1709
1.1705
1.16998
1.16946
1.16893
1.16852
1.16835
1.16837
1.16856
1.16885
1.16917
1.16947
1.16976
1.17001
1.17024
1.17048
1.17068
1.17089
1.17109
1.17128
1.17149
1.1717
1.17192
1.17182
1.17159
1.17136
1.17098
1.17066
1.17007
1.16964
1.16905
1.16859
1.16834
1.16828
1.1684
1.16863
1.16898
1.16927
1.16954
1.16981
1.17003
1.17026
1.17048
1.17069
1.17089
1.17109
1.17129
1.1715
1.1717
1.17191
1.17183
1.17147
1.17128
1.17102
1.17076
1.17015
1.16973
1.16918
1.16872
1.16836
1.16823
1.16827
1.16847
1.16875
1.16906
1.16934
1.16959
1.16984
1.17006
1.17029
1.17049
1.1707
1.17089
1.17109
1.17128
1.17149
1.1717
1.17191
1.17183
1.17154
1.17099
1.17091
1.17079
1.17026
1.16984
1.16939
1.16883
1.16839
1.1682
1.16818
1.16832
1.16857
1.16888
1.16915
1.16941
1.16966
1.16987
1.17009
1.1703
1.1705
1.17069
1.17089
1.17108
1.17128
1.17148
1.1717
1.17191
1.17183
1.1716
1.17113
1.1706
1.17068
1.17039
1.16998
1.16956
1.16895
1.16849
1.1682
1.16812
1.1682
1.1684
1.16867
1.16898
1.16924
1.16947
1.16968
1.1699
1.1701
1.1703
1.17049
1.17068
1.17087
1.17106
1.17126
1.17147
1.17169
1.17191
1.17183
1.17161
1.1713
1.17066
1.17034
1.17034
1.17
1.16971
1.16916
1.16858
1.16825
1.16809
1.1681
1.16826
1.16851
1.1688
1.16906
1.1693
1.16951
1.16971
1.16991
1.1701
1.17029
1.17048
1.17067
1.17086
1.17105
1.17125
1.17146
1.17168
1.17191
1.17183
1.1716
1.17135
1.17091
1.17026
1.17004
1.16999
1.1698
1.16937
1.16866
1.1683
1.16808
1.16803
1.16813
1.16836
1.16863
1.1689
1.16913
1.16934
1.16953
1.16972
1.16991
1.1701
1.17028
1.17047
1.17065
1.17083
1.17102
1.17123
1.17144
1.17167
1.1719
1.17184
1.1716
1.17137
1.17105
1.17045
1.16989
1.16989
1.1698
1.16954
1.16884
1.16838
1.1681
1.16798
1.16803
1.16822
1.16848
1.16874
1.16897
1.16917
1.16936
1.16954
1.16972
1.16991
1.17009
1.17027
1.17045
1.17062
1.1708
1.17099
1.1712
1.17142
1.17166
1.1719
1.17182
1.17157
1.17135
1.17108
1.17068
1.16997
1.16962
1.16976
1.16963
1.16904
1.16844
1.16815
1.16797
1.16795
1.16809
1.16833
1.16859
1.16882
1.16902
1.1692
1.16937
1.16954
1.16972
1.16989
1.17007
1.17024
1.17042
1.17059
1.17077
1.17096
1.17117
1.1714
1.17165
1.17192
1.17182
1.17157
1.17133
1.17106
1.17076
1.17024
1.16959
1.16956
1.16962
1.16925
1.16855
1.16821
1.16797
1.16789
1.16798
1.1682
1.16845
1.16868
1.16888
1.16905
1.16922
1.16937
1.16954
1.1697
1.16987
1.17004
1.17021
1.17038
1.17054
1.17072
1.17091
1.17113
1.17138
1.17174
1.17161
1.17201
1.17178
1.17189
1.17184
1.17157
1.17131
1.17103
1.17076
1.17039
1.16972
1.16933
1.16951
1.16934
1.1687
1.1683
1.16799
1.16786
1.16789
1.16806
1.16831
1.16855
1.16875
1.16892
1.16908
1.16922
1.16937
1.16952
1.16968
1.16984
1.17
1.17016
1.17032
1.17048
1.17065
1.17085
1.17112
1.17146
1.17132
1.17164
1.17201
1.17175
1.17189
1.1718
1.17155
1.17128
1.171
1.17071
1.17042
1.16999
1.16932
1.16928
1.16931
1.16884
1.16842
1.16805
1.16785
1.16781
1.16793
1.16817
1.16842
1.16863
1.1688
1.16895
1.16908
1.16921
1.16934
1.16949
1.16965
1.1698
1.16995
1.1701
1.17025
1.17039
1.17057
1.1709
1.17076
1.17117
1.17096
1.17102
1.17149
1.17133
1.17161
1.17201
1.17175
1.17188
1.1718
1.17152
1.1712
1.17093
1.17065
1.17037
1.17006
1.16941
1.1691
1.16919
1.16901
1.16856
1.16814
1.16786
1.16776
1.16783
1.16803
1.16828
1.16851
1.16868
1.16882
1.16894
1.16905
1.16916
1.16929
1.16943
1.16958
1.16973
1.16986
1.16998
1.1701
1.17026
1.1706
1.17045
1.17079
1.17117
1.17086
1.171
1.17146
1.1713
1.17159
1.17201
1.17174
1.17187
1.1718
1.17149
1.17115
1.17083
1.17055
1.17029
1.17
1.16953
1.16903
1.169
1.16901
1.16868
1.16825
1.1679
1.16774
1.16775
1.1679
1.16815
1.16838
1.16855
1.16868
1.16876
1.16883
1.1689
1.169
1.16914
1.16931
1.16945
1.16954
1.16954
1.16949
1.16956
1.17025
1.16988
1.17061
1.17038
1.17068
1.17113
1.17081
1.17094
1.17143
1.17126
1.17158
1.17201
1.17172
1.17187
1.17179
1.17146
1.17107
1.17072
1.17041
1.17016
1.16991
1.16952
1.16905
1.16885
1.16893
1.16879
1.16837
1.16797
1.16774
1.16769
1.1678
1.168
1.16824
1.16841
1.16848
1.16846
1.16837
1.16828
1.16832
1.16851
1.16878
1.16897
1.16893
1.1685
1.16766
1.16676
1.16897
1.16646
1.16998
1.16896
1.17045
1.17004
1.17057
1.17107
1.1707
1.17085
1.17141
1.17122
1.17156
1.17201
1.17171
1.17186
1.17177
1.17142
1.17098
1.17057
1.17026
1.16999
1.16976
1.16947
1.16907
1.16878
1.16879
1.16878
1.16847
1.16806
1.16776
1.16765
1.16771
1.16788
1.16811
1.16825
1.16821
1.16788
1.16728
1.16662
1.16635
1.16675
1.16741
1.16783
1.16755
1.16614
1.16332
1.15994
1.16238
1.15686
1.16631
1.16137
1.16899
1.16618
1.17016
1.16913
1.17031
1.171
1.17048
1.17067
1.17137
1.17116
1.17153
1.17201
1.17169
1.17185
1.17174
1.17135
1.17091
1.17041
1.1701
1.16982
1.16958
1.16934
1.16903
1.16874
1.16867
1.16871
1.16856
1.16816
1.16781
1.16764
1.16764
1.16779
1.168
1.16811
1.16784
1.1669
1.16523
1.16332
1.16214
1.16241
1.16394
1.16517
1.16465
1.16166
1.15651
1.15066
1.15211
1.14648
1.1559
1.15031
1.16094
1.1551
1.16636
1.16086
1.16935
1.16673
1.16964
1.17086
1.16994
1.17024
1.17133
1.17105
1.1715
1.172
1.17167
1.17184
1.1717
1.17126
1.17081
1.17026
1.16991
1.16964
1.16938
1.16915
1.16892
1.16868
1.16857
1.16861
1.16855
1.16823
1.16788
1.16765
1.1676
1.16773
1.16791
1.16797
1.16743
1.16562
1.1625
1.15921
1.15708
1.15696
1.15861
1.16036
1.15994
1.1561
1.14975
1.14251
1.14221
1.13754
1.14487
1.1399
1.14919
1.14348
1.15469
1.14844
1.16113
1.15461
1.16725
1.16172
1.16785
1.17054
1.16848
1.16909
1.17125
1.17082
1.17145
1.172
1.17164
1.17183
1.17167
1.17117
1.17067
1.17014
1.16974
1.16945
1.16918
1.16894
1.16875
1.16857
1.16847
1.16849
1.1685
1.16832
1.16795
1.16767
1.16756
1.16764
1.16785
1.16786
1.16706
1.16425
1.15943
1.15459
1.1516
1.15111
1.15289
1.15506
1.15465
1.1502
1.14295
1.13554
1.13449
1.13159
1.13556
1.1321
1.13827
1.13381
1.14247
1.13706
1.14802
1.14176
1.15481
1.14786
1.16262
1.15528
1.16375
1.16968
1.16505
1.16627
1.1711
1.17023
1.17136
1.172
1.17159
1.17181
1.17163
1.17108
1.17053
1.17006
1.16958
1.16926
1.16897
1.16872
1.16854
1.16841
1.16835
1.16837
1.16842
1.16832
1.16801
1.16771
1.16755
1.16756
1.16776
1.16782
1.16683
1.16312
1.15652
1.14978
1.1457
1.14481
1.14654
1.14901
1.14907
1.14444
1.13778
1.13272
1.13022
1.12969
1.12962
1.12822
1.13028
1.12778
1.13245
1.12879
1.13616
1.1314
1.1413
1.13545
1.1479
1.14099
1.15605
1.14814
1.15704
1.16744
1.15837
1.1601
1.17072
1.16861
1.17115
1.17199
1.1715
1.17178
1.17159
1.171
1.17042
1.16995
1.16946
1.16909
1.16876
1.16849
1.16831
1.16822
1.16819
1.16823
1.16831
1.16829
1.16808
1.16776
1.16755
1.16751
1.16764
1.16776
1.16678
1.16246
1.15422
1.14559
1.13963
1.13766
1.13895
1.14145
1.14189
1.13856
1.13519
1.133
1.13001
1.13098
1.12792
1.12854
1.12639
1.12618
1.12615
1.1246
1.12756
1.12469
1.13051
1.12649
1.13486
1.12967
1.14079
1.13431
1.14859
1.14068
1.14922
1.16231
1.15011
1.15147
1.16969
1.16482
1.1706
1.17198
1.17128
1.17171
1.17156
1.17093
1.17034
1.16987
1.16939
1.16895
1.16857
1.16826
1.16808
1.16801
1.16801
1.16808
1.16818
1.16822
1.16809
1.16781
1.16757
1.16748
1.16755
1.16769
1.1668
1.16235
1.15289
1.14214
1.13482
1.1322
1.13231
1.13372
1.13452
1.134
1.13359
1.1332
1.13347
1.12992
1.13209
1.12677
1.12852
1.12421
1.12464
1.12283
1.12208
1.12336
1.12112
1.12545
1.12209
1.12883
1.12435
1.13375
1.12793
1.14066
1.13319
1.1408
1.1537
1.14118
1.14212
1.16711
1.15718
1.16918
1.17197
1.17071
1.17158
1.17152
1.17087
1.17029
1.16982
1.16934
1.16882
1.16839
1.16805
1.16785
1.16779
1.16782
1.16791
1.16803
1.16812
1.16807
1.16786
1.16759
1.16745
1.16748
1.16761
1.16694
1.1625
1.15266
1.14038
1.13262
1.12972
1.12916
1.12971
1.13058
1.13127
1.13176
1.13332
1.13663
1.13732
1.14073
1.13121
1.13429
1.12631
1.12941
1.12224
1.12337
1.11985
1.11964
1.1195
1.1177
1.12078
1.11794
1.12319
1.11939
1.12697
1.12196
1.13267
1.12604
1.13235
1.14411
1.13232
1.13297
1.16168
1.14733
1.16599
1.17197
1.16932
1.1713
1.17145
1.17081
1.17026
1.1698
1.1693
1.16872
1.16824
1.16786
1.16764
1.16758
1.16762
1.16773
1.16786
1.16798
1.16801
1.16786
1.16762
1.16743
1.16743
1.16753
1.16718
1.16313
1.15293
1.14008
1.13244
1.1295
1.12855
1.12854
1.12905
1.12991
1.13138
1.13403
1.13963
1.14347
1.14654
1.14136
1.14533
1.13318
1.13725
1.12619
1.13014
1.12017
1.12213
1.11686
1.11691
1.11573
1.11423
1.11637
1.11393
1.118
1.11487
1.12077
1.11676
1.12518
1.11985
1.12468
1.1347
1.12484
1.12572
1.15271
1.13791
1.15993
1.17197
1.16665
1.17082
1.17135
1.17069
1.17021
1.16974
1.16925
1.16865
1.16811
1.16769
1.16745
1.16737
1.16742
1.16753
1.16768
1.16782
1.1679
1.16784
1.16764
1.16743
1.16739
1.16745
1.16736
1.16438
1.1541
1.14078
1.1333
1.13015
1.12916
1.12931
1.12986
1.13079
1.13261
1.13636
1.14326
1.14893
1.1516
1.14914
1.1528
1.14414
1.14864
1.13472
1.13948
1.12581
1.1303
1.11783
1.12052
1.11368
1.1139
1.11199
1.11075
1.11235
1.1102
1.11369
1.11122
1.11618
1.11347
1.11969
1.11646
1.12015
1.12738
1.12117
1.12248
1.14299
1.13012
1.15151
1.17198
1.16286
1.17026
1.17052
1.17012
1.16974
1.1693
1.16865
1.16802
1.16754
1.16727
1.16718
1.16721
1.16732
1.16746
1.16761
1.16774
1.16775
1.16763
1.16743
1.16734
1.16739
1.16743
1.1656
1.15675
1.14282
1.1358
1.13238
1.13179
1.13292
1.13418
1.13532
1.13736
1.14176
1.15016
1.15999
1.15623
1.15989
1.15295
1.15708
1.14497
1.14956
1.1352
1.14016
1.12471
1.1296
1.11518
1.11839
1.11044
1.11091
1.10855
1.10783
1.10915
1.10751
1.11121
1.10923
1.1141
1.11207
1.11745
1.11537
1.11871
1.124
1.12036
1.12211
1.13501
1.12601
1.14341
1.17195
1.1586
1.16883
1.16999
1.1697
1.16927
1.16865
1.16797
1.16742
1.16711
1.16698
1.16697
1.16704
1.16716
1.16732
1.16748
1.16758
1.16756
1.16742
1.16731
1.16734
1.16741
1.16653
1.15975
1.14601
1.13874
1.13606
1.13766
1.14166
1.14556
1.14787
1.14963
1.1534
1.15885
1.16407
1.16524
1.16708
1.16077
1.16379
1.15399
1.15823
1.14433
1.14887
1.13467
1.13961
1.12276
1.12761
1.11284
1.11656
1.10809
1.10937
1.10662
1.10668
1.1076
1.10652
1.11017
1.10847
1.11352
1.11167
1.11717
1.11576
1.11961
1.12366
1.12233
1.12493
1.12949
1.12501
1.13642
1.17143
1.15039
1.16331
1.16963
1.16927
1.16868
1.16792
1.16732
1.16696
1.16677
1.16666
1.16661
1.16665
1.1668
1.16702
1.16723
1.16736
1.16735
1.16727
1.16726
1.16733
1.16705
1.16263
1.15001
1.14149
1.13932
1.14326
1.15002
1.15571
1.1589
1.16069
1.16239
1.16461
1.1668
1.1681
1.16677
1.16782
1.16205
1.165
1.1534
1.15793
1.14162
1.14634
1.13244
1.13708
1.12108
1.12594
1.11221
1.11624
1.10754
1.10978
1.10635
1.10724
1.10725
1.10706
1.10995
1.1088
1.11408
1.11229
1.11878
1.1172
1.12226
1.12684
1.12606
1.12874
1.12775
1.12649
1.12612
1.12773
1.12949
1.16322
1.13594
1.14262
1.16926
1.16872
1.16792
1.16725
1.16681
1.16652
1.16623
1.16592
1.1657
1.16576
1.16606
1.16649
1.16688
1.1671
1.16715
1.16717
1.16727
1.16722
1.16487
1.15456
1.14409
1.14184
1.14684
1.15466
1.15953
1.16287
1.16512
1.16637
1.16725
1.16798
1.16848
1.16843
1.16871
1.16708
1.16806
1.16208
1.1652
1.15139
1.15671
1.14049
1.14557
1.1308
1.13562
1.12093
1.12588
1.1135
1.11806
1.10954
1.11321
1.10827
1.11102
1.10883
1.11054
1.11131
1.11171
1.1155
1.11494
1.1211
1.11836
1.11909
1.12473
1.12413
1.13054
1.12992
1.13188
1.12895
1.12856
1.1264
1.13094
1.12676
1.12776
1.12798
1.13039
1.12763
1.1288
1.12813
1.13743
1.13196
1.1297
1.12848
1.12981
1.13313
1.13074
1.16878
1.16794
1.16721
1.16667
1.16622
1.16563
1.16487
1.16411
1.16368
1.16391
1.16477
1.16575
1.16647
1.16685
1.16701
1.16716
1.16721
1.16623
1.15898
1.14719
1.14362
1.14865
1.1558
1.15995
1.16319
1.16575
1.1673
1.16795
1.1683
1.16856
1.16873
1.16878
1.16868
1.1688
1.16727
1.16826
1.16165
1.1652
1.15099
1.15665
1.14104
1.1465
1.13086
1.13588
1.12304
1.12824
1.11777
1.12262
1.11477
1.11862
1.11357
1.11647
1.11369
1.11619
1.11403
1.11471
1.11541
1.1162
1.11786
1.11772
1.11664
1.1181
1.11782
1.12045
1.12327
1.12246
1.1198
1.12544
1.13282
1.13288
1.13441
1.13078
1.13004
1.12774
1.13288
1.12992
1.13039
1.13332
1.12936
1.12887
1.15259
1.12999
1.12865
1.12911
1.12878
1.12897
1.12867
1.16802
1.1672
1.16655
1.16587
1.16488
1.16344
1.16187
1.16075
1.16058
1.16146
1.16313
1.16492
1.16606
1.16664
1.16694
1.16714
1.16682
1.16257
1.15134
1.1452
1.14867
1.15529
1.15891
1.16193
1.16492
1.16709
1.16798
1.16832
1.16855
1.16877
1.16889
1.16887
1.16883
1.16896
1.16762
1.1685
1.16185
1.16557
1.15231
1.15827
1.14438
1.15014
1.13351
1.13886
1.1275
1.13226
1.12213
1.12572
1.1186
1.12021
1.11716
1.11643
1.11665
1.11662
1.11602
1.11457
1.11706
1.11737
1.11725
1.11956
1.11947
1.1182
1.11888
1.11935
1.12177
1.12452
1.12373
1.12132
1.1267
1.1348
1.1356
1.13645
1.13234
1.12897
1.13131
1.13454
1.13321
1.13263
1.13615
1.13178
1.13087
1.13646
1.12797
1.12785
1.13014
1.12972
1.12928
1.12886
1.16724
1.16646
1.16554
1.16403
1.16178
1.15923
1.15731
1.15664
1.15733
1.15914
1.16161
1.16412
1.16575
1.16651
1.16696
1.16696
1.16492
1.15598
1.14725
1.14829
1.15399
1.15673
1.15912
1.16227
1.16573
1.16776
1.16824
1.16849
1.16871
1.16898
1.16894
1.169
1.16899
1.1689
1.169
1.16805
1.16866
1.16337
1.16657
1.15591
1.16103
1.14712
1.15238
1.13703
1.14195
1.12937
1.13317
1.12158
1.12284
1.11418
1.11129
1.11261
1.10986
1.10706
1.10382
1.11639
1.11466
1.11206
1.10876
1.1179
1.1169
1.11504
1.12092
1.12028
1.11777
1.11738
1.11916
1.12303
1.12574
1.12476
1.12224
1.12784
1.13649
1.1377
1.13806
1.13365
1.13005
1.13237
1.13588
1.13601
1.13531
1.13834
1.13429
1.1331
1.12693
1.12764
1.12634
1.132
1.13113
1.13035
1.12961
1.16642
1.16525
1.16324
1.16006
1.15651
1.15373
1.1525
1.15288
1.15466
1.15739
1.16058
1.16356
1.16558
1.16656
1.16689
1.16611
1.16022
1.15033
1.14806
1.15225
1.15465
1.15629
1.15909
1.16333
1.1672
1.16808
1.16842
1.16863
1.16888
1.16903
1.16901
1.16905
1.16905
1.16896
1.16907
1.16815
1.1687
1.16476
1.167
1.15742
1.16171
1.14642
1.15121
1.13724
1.14167
1.1244
1.12656
1.10897
1.10755
1.10105
1.09824
1.09069
1.10495
1.10088
1.09694
1.09337
1.11221
1.10846
1.10402
1.09922
1.11593
1.11309
1.10915
1.12103
1.11931
1.11471
1.11329
1.11688
1.12352
1.1266
1.12497
1.12181
1.1286
1.13779
1.13914
1.13918
1.1347
1.13081
1.13315
1.13684
1.13826
1.13746
1.13961
1.13614
1.13472
1.12612
1.1281
1.12583
1.13338
1.13215
1.13098
1.12988
1.16507
1.16256
1.15853
1.1539
1.1503
1.14852
1.14868
1.1503
1.15305
1.15651
1.16018
1.16343
1.16567
1.16663
1.16651
1.16331
1.15427
1.14847
1.15071
1.15277
1.15379
1.15613
1.1605
1.16603
1.16781
1.16828
1.16855
1.16876
1.16906
1.16899
1.16911
1.16908
1.1691
1.16913
1.16896
1.16914
1.16791
1.1686
1.16481
1.16675
1.1557
1.15951
1.13772
1.14244
1.12946
1.13325
1.10745
1.10886
1.08917
1.09024
1.09046
1.08881
1.08229
1.08117
1.09442
1.09
1.08629
1.08343
1.10434
1.099
1.09351
1.08836
1.11085
1.10588
1.10016
1.11954
1.11633
1.10846
1.10608
1.11183
1.12282
1.12673
1.12426
1.12002
1.12881
1.13854
1.13992
1.13961
1.13536
1.13103
1.13325
1.13721
1.13941
1.13852
1.14003
1.13709
1.13551
1.12935
1.12808
1.12545
1.13391
1.13234
1.13091
1.12937
1.16211
1.15729
1.1517
1.14723
1.1452
1.14527
1.14675
1.14924
1.15258
1.15649
1.16036
1.16365
1.16594
1.16648
1.16508
1.1583
1.15021
1.14997
1.15122
1.15174
1.15347
1.15742
1.16375
1.16735
1.16811
1.16843
1.16867
1.16891
1.16909
1.16905
1.16918
1.16914
1.16918
1.16919
1.16886
1.16916
1.16682
1.16814
1.16251
1.16491
1.14721
1.15185
1.12059
1.12621
1.11154
1.11557
1.09288
1.09555
1.08351
1.08531
1.0887
1.08681
1.08149
1.08083
1.08202
1.07994
1.08391
1.08043
1.07804
1.07694
1.09413
1.0883
1.08312
1.07892
1.10259
1.09615
1.08972
1.11597
1.11056
1.09945
1.09663
1.10393
1.12101
1.12611
1.12255
1.11634
1.12826
1.13858
1.14002
1.13946
1.13527
1.13051
1.1327
1.13699
1.13957
1.13852
1.13986
1.13703
1.13531
1.14524
1.12591
1.12687
1.13348
1.13168
1.12995
1.12765
1.15647
1.14994
1.14481
1.1428
1.14292
1.14419
1.14634
1.1493
1.153
1.15707
1.16099
1.16428
1.16619
1.16582
1.1616
1.15335
1.15003
1.1502
1.15019
1.15125
1.1545
1.16074
1.16652
1.16789
1.1683
1.16857
1.16878
1.16909
1.169
1.16917
1.16912
1.16926
1.16922
1.16925
1.16925
1.16858
1.16914
1.16448
1.16715
1.15636
1.16071
1.13243
1.13927
1.10751
1.11321
1.09861
1.10264
1.09175
1.09453
1.08438
1.08699
1.09134
1.08939
1.07712
1.07828
1.08574
1.08205
1.07589
1.07417
1.07394
1.07468
1.08381
1.07883
1.07503
1.07252
1.09252
1.0859
1.08009
1.11004
1.10244
1.08937
1.08675
1.0944
1.1175
1.12457
1.11926
1.11062
1.12678
1.13815
1.13961
1.13859
1.13461
1.12904
1.13113
1.13603
1.13907
1.13772
1.13902
1.13596
1.13397
1.1623
1.12439
1.13296
1.13194
1.13005
1.128
1.12552
1.14868
1.1431
1.14122
1.1414
1.14256
1.1445
1.14718
1.15043
1.15419
1.15822
1.16206
1.16525
1.16587
1.16373
1.15669
1.15068
1.14985
1.14921
1.14952
1.15198
1.15769
1.16494
1.16755
1.16814
1.16844
1.16868
1.16892
1.16913
1.16908
1.16925
1.16919
1.16931
1.1693
1.16931
1.16932
1.16811
1.16909
1.1607
1.16552
1.14661
1.15406
1.12005
1.1282
1.10515
1.11054
1.09721
1.10078
1.10013
1.10146
1.10216
1.10279
1.08955
1.09312
1.09849
1.09617
1.07644
1.07884
1.09212
1.08697
1.07153
1.07163
1.07288
1.07497
1.07543
1.07209
1.07009
1.06958
1.0827
1.07711
1.07282
1.10226
1.09335
1.08011
1.07813
1.085
1.11201
1.12146
1.11403
1.10324
1.12376
1.13671
1.13818
1.13635
1.1328
1.12605
1.12794
1.13368
1.13768
1.13577
1.13675
1.13365
1.13157
1.16383
1.1242
1.13963
1.12964
1.12794
1.12597
1.12362
1.14191
1.14027
1.14046
1.14171
1.14393
1.14651
1.14932
1.15247
1.15601
1.15981
1.16344
1.16565
1.1648
1.15971
1.15256
1.14992
1.14877
1.1483
1.14996
1.15487
1.16248
1.16702
1.16796
1.1683
1.16856
1.16878
1.16909
1.16902
1.16922
1.16916
1.16932
1.16928
1.16936
1.16934
1.16936
1.16939
1.16777
1.16908
1.15678
1.164
1.1375
1.1474
1.11731
1.12562
1.11136
1.11614
1.10324
1.10406
1.10816
1.10892
1.10969
1.11002
1.11001
1.09716
1.1016
1.10745
1.10505
1.07813
1.08219
1.09922
1.0926
1.06986
1.07122
1.07339
1.0767
1.0699
1.06841
1.06811
1.06844
1.07476
1.07084
1.0683
1.09371
1.08472
1.07294
1.0718
1.07727
1.10497
1.11641
1.10733
1.09514
1.11888
1.13352
1.13497
1.13236
1.12916
1.12117
1.12294
1.12942
1.13476
1.13258
1.133
1.13043
1.12851
1.1637
1.12534
1.14574
1.12697
1.1257
1.1241
1.12269
1.13958
1.13998
1.14171
1.14411
1.14664
1.14929
1.15209
1.15505
1.15827
1.16171
1.16477
1.16506
1.16196
1.15514
1.15039
1.1487
1.14759
1.14848
1.15251
1.15973
1.16619
1.16773
1.16816
1.16843
1.16867
1.16894
1.16917
1.16912
1.16928
1.16923
1.16935
1.16932
1.16945
1.16939
1.16943
1.16947
1.16778
1.16913
1.15586
1.16377
1.13526
1.14571
1.12236
1.13002
1.12653
1.13092
1.10988
1.10961
1.12087
1.11949
1.11879
1.1193
1.11939
1.11924
1.10554
1.11084
1.11738
1.11475
1.08103
1.08639
1.10551
1.09734
1.06971
1.07168
1.07455
1.07846
1.06718
1.067
1.06732
1.06845
1.06934
1.06713
1.06628
1.08558
1.07758
1.06823
1.06778
1.07166
1.0972
1.10999
1.09991
1.08733
1.11261
1.12867
1.13046
1.12704
1.12377
1.1149
1.11646
1.12366
1.13073
1.1285
1.12814
1.12657
1.12512
1.16917
1.1282
1.15497
1.12421
1.12363
1.12251
1.12248
1.13966
1.14199
1.14486
1.14744
1.14978
1.1523
1.15503
1.15788
1.1608
1.16369
1.16499
1.16321
1.15767
1.15175
1.14883
1.1473
1.14749
1.15069
1.15723
1.165
1.16743
1.168
1.1683
1.16855
1.16878
1.16911
1.16923
1.16917
1.16932
1.16927
1.1694
1.16935
1.16954
1.16947
1.16947
1.16956
1.16816
1.16925
1.15766
1.1648
1.13874
1.14824
1.13595
1.14217
1.12841
1.14177
1.14316
1.14483
1.1474
1.11902
1.11903
1.12857
1.1288
1.12934
1.12945
1.12934
1.11332
1.11966
1.12738
1.12431
1.08351
1.08982
1.11043
1.10127
1.07017
1.07262
1.07594
1.08032
1.06618
1.06648
1.06749
1.06901
1.06625
1.06562
1.06558
1.07873
1.07219
1.0658
1.06563
1.06784
1.08962
1.10264
1.09234
1.08051
1.10539
1.12254
1.12481
1.12062
1.11714
1.10765
1.10924
1.1168
1.12579
1.12382
1.12238
1.12248
1.1218
1.17152
1.13299
1.16418
1.12167
1.12184
1.12119
1.12293
1.14249
1.14614
1.14912
1.1514
1.15335
1.15547
1.158
1.16075
1.16318
1.16464
1.16357
1.15947
1.15366
1.14936
1.14729
1.14693
1.14939
1.15525
1.16346
1.16706
1.16783
1.16815
1.16842
1.16866
1.16894
1.16919
1.16921
1.16913
1.16926
1.16935
1.1693
1.16949
1.16941
1.1696
1.16956
1.16954
1.16961
1.16883
1.16945
1.16266
1.16701
1.14882
1.15584
1.15329
1.15622
1.14104
1.15158
1.1521
1.15274
1.15313
1.12906
1.12884
1.14059
1.13787
1.13883
1.13935
1.13969
1.11936
1.12689
1.13601
1.1324
1.08593
1.09293
1.11503
1.10497
1.07102
1.07379
1.0774
1.08213
1.06586
1.06677
1.06811
1.06975
1.06517
1.06514
1.06542
1.07328
1.06824
1.06492
1.06491
1.06572
1.08272
1.09518
1.08535
1.07473
1.09796
1.11549
1.11833
1.1136
1.1098
1.10032
1.10169
1.10935
1.12033
1.11904
1.11626
1.11855
1.11873
1.17194
1.14044
1.16856
1.11951
1.1203
1.12026
1.12429
1.14692
1.15034
1.1527
1.15468
1.15665
1.1587
1.16082
1.16288
1.16415
1.16352
1.16005
1.15494
1.15033
1.14743
1.14671
1.14858
1.15377
1.16183
1.16659
1.16765
1.168
1.16827
1.16854
1.16878
1.16906
1.16923
1.16922
1.16917
1.16929
1.16943
1.16936
1.16958
1.16951
1.16965
1.16962
1.16963
1.16966
1.16938
1.16966
1.16694
1.16864
1.15975
1.16362
1.15758
1.15883
1.15964
1.15113
1.15612
1.15621
1.15642
1.15683
1.13998
1.14031
1.15057
1.14498
1.1465
1.14753
1.14841
1.12474
1.13285
1.14255
1.13865
1.08822
1.09585
1.11861
1.10748
1.07209
1.07498
1.07874
1.08357
1.06629
1.0675
1.06894
1.07087
1.06488
1.06516
1.06605
1.06893
1.0661
1.06484
1.06509
1.0652
1.07671
1.08812
1.07885
1.06993
1.09073
1.10808
1.11167
1.10645
1.10209
1.09249
1.09333
1.10141
1.1149
1.11444
1.11018
1.11491
1.11609
1.17203
1.14766
1.17046
1.11772
1.11896
1.11964
1.12624
1.15026
1.15274
1.15473
1.15668
1.15863
1.16055
1.16231
1.16355
1.16317
1.15996
1.15516
1.15078
1.14776
1.1467
1.14821
1.15283
1.1605
1.16609
1.16748
1.16786
1.16813
1.16838
1.16864
1.16892
1.16912
1.16929
1.1693
1.16921
1.16937
1.16952
1.16945
1.16962
1.16957
1.16971
1.16967
1.16974
1.16973
1.16954
1.16975
1.16773
1.16897
1.16205
1.16522
1.15619
1.15713
1.15241
1.15457
1.15599
1.15611
1.1558
1.1556
1.1557
1.14921
1.14992
1.15583
1.15054
1.15236
1.15367
1.15461
1.12956
1.13831
1.14808
1.14424
1.08979
1.09771
1.12011
1.1084
1.07318
1.0761
1.07974
1.08434
1.06725
1.06853
1.07017
1.07206
1.06509
1.06599
1.06738
1.06693
1.06596
1.06529
1.06615
1.06581
1.0714
1.08085
1.07335
1.06841
1.08255
1.10012
1.10489
1.09876
1.09312
1.08377
1.08441
1.09247
1.10959
1.11023
1.10418
1.11177
1.11386
1.17204
1.15391
1.17081
1.11621
1.11775
1.11932
1.12778
1.15189
1.15393
1.15581
1.15776
1.15958
1.16117
1.16234
1.16213
1.15931
1.15489
1.15076
1.14793
1.14682
1.14817
1.15241
1.15964
1.16563
1.16731
1.16773
1.16799
1.16824
1.16849
1.16875
1.16901
1.16926
1.16928
1.16915
1.16937
1.16935
1.16944
1.16955
1.1695
1.16966
1.1696
1.16977
1.16971
1.16982
1.16981
1.16944
1.16978
1.16582
1.16838
1.15584
1.16126
1.1491
1.15026
1.14233
1.14606
1.15639
1.15167
1.15057
1.14954
1.14912
1.1552
1.1556
1.15665
1.1545
1.15578
1.15649
1.15684
1.1321
1.14223
1.15245
1.14896
1.09046
1.09843
1.12031
1.10849
1.07434
1.07701
1.08033
1.08474
1.06868
1.07014
1.07174
1.0735
1.06631
1.06786
1.06927
1.06739
1.0673
1.06698
1.06994
1.0682
1.0703
1.07534
1.07252
1.06942
1.0774
1.09175
1.0982
1.09169
1.08529
1.07912
1.08115
1.08598
1.10479
1.10653
1.09876
1.10908
1.11201
1.17213
1.15426
1.16941
1.11482
1.1166
1.11895
1.12754
1.15256
1.15408
1.15564
1.1571
1.15835
1.15928
1.15917
1.1571
1.15376
1.15039
1.14804
1.14711
1.14838
1.15244
1.15935
1.16532
1.16717
1.1676
1.16786
1.1681
1.16834
1.16857
1.16884
1.16905
1.16931
1.16927
1.16919
1.16941
1.16937
1.16947
1.16958
1.16953
1.16971
1.16965
1.16984
1.16977
1.16987
1.16988
1.16874
1.1697
1.15895
1.16567
1.13906
1.14455
1.14894
1.13917
1.13991
1.1311
1.13462
1.15296
1.14327
1.14153
1.14012
1.13938
1.15687
1.15687
1.1541
1.15578
1.15649
1.15663
1.15654
1.13271
1.14355
1.15413
1.15089
1.0907
1.09854
1.11811
1.10646
1.07547
1.07779
1.08079
1.08463
1.07096
1.07254
1.07405
1.07564
1.06862
1.07032
1.0727
1.06966
1.07132
1.07163
1.07443
1.07236
1.07166
1.07496
1.07417
1.07176
1.07695
1.08685
1.09236
1.08795
1.08284
1.07937
1.08138
1.08433
1.1005
1.10333
1.09407
1.10678
1.11026
0.923428
1.14863
1.1517
1.11343
1.1154
1.11826
1.12544
1.1531
1.15399
1.15475
1.15532
1.15561
1.15527
1.15395
1.15192
1.1499
1.14828
1.14769
1.14906
1.15293
1.15957
1.16522
1.16706
1.16749
1.16773
1.16796
1.1682
1.16844
1.16868
1.1689
1.16916
1.16934
1.16931
1.16924
1.16944
1.16941
1.1695
1.16964
1.16957
1.16977
1.1697
1.16988
1.16984
1.1699
1.16991
1.16697
1.16939
1.14754
1.16008
1.12954
1.1353
1.13268
1.14041
1.12822
1.12884
1.12098
1.1247
1.14509
1.13223
1.13041
1.12904
1.12837
1.15592
1.15511
1.14713
1.15469
1.15462
1.15376
1.15255
1.13099
1.14288
1.15362
1.15068
1.08997
1.09717
1.1114
1.10098
1.07728
1.07905
1.08102
1.08364
1.07451
1.07606
1.07729
1.07852
1.07582
1.07911
1.08019
1.07294
1.07305
1.07689
1.0999
1.09929
1.07425
1.07579
1.07586
1.07455
1.07891
1.08586
1.08922
1.08704
1.08325
1.08085
1.08295
1.08521
1.09692
1.10055
1.09085
1.10449
1.10865
0.507429
1.13212
1.08736
1.11196
1.11413
1.11681
1.11991
1.15361
1.1539
1.15404
1.15388
1.15337
1.15246
1.15126
1.14995
1.14878
1.14871
1.1504
1.15418
1.16043
1.16534
1.167
1.1674
1.16761
1.16783
1.16806
1.16829
1.16851
1.16875
1.16898
1.16923
1.1693
1.16939
1.16937
1.16948
1.16946
1.16955
1.1697
1.16962
1.16983
1.16977
1.16991
1.16987
1.16989
1.16995
1.16405
1.16876
1.13639
1.1341
1.14499
1.15297
1.12137
1.12691
1.12771
1.11753
1.11872
1.11253
1.11643
1.13437
1.11986
1.11834
1.11748
1.11725
1.15082
1.149
1.13678
1.14953
1.14891
1.1468
1.14454
1.12426
1.13741
1.14909
1.1465
1.08723
1.09317
1.09956
1.09258
1.07947
1.08038
1.08135
1.08276
1.08123
1.08193
1.08204
1.08239
1.0773
1.10271
1.10282
1.09833
1.09798
1.09975
1.12068
1.12028
1.09746
1.07861
1.09762
1.0963
1.09779
1.08632
1.08791
1.0868
1.08523
1.09849
1.09945
1.0862
1.09372
1.09774
1.08946
1.10267
1.10692
0.445269
1.1193
1.00374
1.11042
1.11258
1.11414
1.11471
1.1542
1.15402
1.1538
1.1533
1.15249
1.15148
1.15047
1.14986
1.15043
1.15236
1.15622
1.16179
1.16568
1.16697
1.16732
1.16751
1.16771
1.16791
1.16814
1.16836
1.16857
1.1688
1.16906
1.16931
1.16933
1.16937
1.16921
1.16944
1.16941
1.16954
1.16952
1.16961
1.16976
1.16969
1.16986
1.16982
1.16996
1.16991
1.16985
1.16999
1.16162
1.16796
1.13055
1.1356
1.14172
1.15001
1.11567
1.12152
1.12444
1.10783
1.10978
1.10589
1.11033
1.1218
1.10727
1.10644
1.10627
1.10658
1.14188
1.13927
1.12421
1.13995
1.13865
1.13613
1.13294
1.1109
1.1239
1.13936
1.13578
1.08478
1.0873
1.08841
1.08655
1.08264
1.08306
1.08339
1.08378
1.1019
1.10238
1.10168
1.10169
1.0999
1.1212
1.12121
1.11983
1.12012
1.12062
1.14206
1.14196
1.11878
1.09525
1.11878
1.1186
1.11837
1.08624
1.08808
1.08799
1.10065
1.1185
1.11883
1.10103
1.09195
1.09605
1.08974
1.10075
1.10542
0.371155
1.10799
0.828016
1.10882
1.11067
1.11141
1.11088
1.15528
1.15453
1.15408
1.15341
1.15265
1.15205
1.15217
1.15306
1.15516
1.15892
1.16332
1.16606
1.16696
1.16724
1.16741
1.16759
1.16779
1.16799
1.16822
1.16843
1.16862
1.16887
1.1691
1.16938
1.16933
1.16944
1.16925
1.16948
1.16959
1.16956
1.16967
1.16979
1.16974
1.1699
1.16984
1.17002
1.16996
1.16975
1.17003
1.16137
1.16774
1.12972
1.13559
1.14124
1.15399
1.14167
1.14753
1.11207
1.11824
1.12379
1.09935
1.10224
1.10086
1.10621
1.10868
1.09548
1.09538
1.09588
1.0972
1.12992
1.12686
1.11072
1.12487
1.12452
1.12221
1.11899
1.09302
1.10273
1.1229
1.11525
1.08426