/*--------------------------------*- C++ -*----------------------------------*\
  =========                 |
  \\      /  F ield         | OpenFOAM: The Open Source CFD Toolbox
   \\    /   O peration     | Website:  https://openfoam.org
    \\  /    A nd           | Version:  dev
     \\/     M anipulation  |
\*---------------------------------------------------------------------------*/
FoamFile
{
    version     2.0;
    format      ascii;
    class       volScalarField;
    location    "2500";
    object      T;
}
// * * * * * * * * * * * * * * * * * * * * * * * * * * * * * * * * * * * * * //

dimensions      [0 0 0 1 0 0 0];

internalField   nonuniform List<scalar> 
9978
(
300.098
300.145
300.123
300.141
300.222
300.112
300.15
300.282
300.228
300.089
300.143
300.283
300.318
300.207
300.084
300.135
300.276
300.381
300.314
300.185
300.072
300.127
300.265
300.419
300.39
300.283
300.162
300.069
300.109
300.283
300.436
300.465
300.379
300.253
300.147
300.064
300.106
300.275
300.434
300.502
300.461
300.349
300.226
300.137
300.057
300.105
300.271
300.436
300.53
300.523
300.426
300.312
300.211
300.13
300.058
300.102
300.27
300.427
300.537
300.577
300.521
300.403
300.287
300.197
300.117
300.056
300.112
300.262
300.409
300.541
300.616
300.585
300.485
300.372
300.266
300.188
300.113
300.051
300.11
300.24
300.379
300.541
300.642
300.638
300.567
300.445
300.347
300.247
300.18
300.115
300.051
300.106
300.219
300.382
300.548
300.658
300.678
300.636
300.53
300.422
300.318
300.237
300.17
300.109
300.049
300.093
300.212
300.359
300.531
300.652
300.714
300.687
300.611
300.5
300.396
300.308
300.233
300.169
300.104
300.048
300.088
300.222
300.347
300.525
300.642
300.73
300.738
300.674
300.571
300.461
300.375
300.293
300.225
300.161
300.107
300.049
300.091
300.201
300.345
300.508
300.618
300.739
300.769
300.732
300.647
300.538
300.443
300.358
300.286
300.222
300.161
300.102
300.047
300.082
300.201
300.334
300.461
300.595
300.749
300.794
300.78
300.71
300.62
300.505
300.422
300.345
300.278
300.213
300.16
300.103
300.046
300.08
300.196
300.3
300.439
300.577
300.743
300.811
300.818
300.771
300.685
300.572
300.484
300.406
300.33
300.269
300.21
300.157
300.103
300.048
300.079
300.18
300.294
300.436
300.563
300.726
300.815
300.846
300.817
300.748
300.653
300.54
300.467
300.395
300.326
300.264
300.21
300.152
300.101
300.046
300.073
300.162
300.284
300.394
300.542
300.686
300.809
300.864
300.859
300.804
300.718
300.619
300.528
300.454
300.379
300.321
300.259
300.207
300.151
300.102
300.048
300.066
300.157
300.269
300.367
300.515
300.647
300.791
300.871
300.887
300.851
300.78
300.685
300.586
300.511
300.435
300.375
300.317
300.26
300.202
300.154
300.101
300.046
300.065
300.156
300.239
300.36
300.496
300.622
300.768
300.873
300.906
300.89
300.834
300.748
300.655
300.569
300.498
300.43
300.369
300.313
300.257
300.206
300.153
300.102
300.048
300.062
300.134
300.233
300.35
300.47
300.581
300.73
300.859
300.917
300.92
300.88
300.805
300.718
300.633
300.556
300.481
300.424
300.36
300.31
300.257
300.205
300.152
300.098
300.047
300.058
300.12
300.212
300.319
300.441
300.557
300.706
300.837
300.917
300.94
300.917
300.857
300.774
300.689
300.612
300.543
300.475
300.42
300.363
300.308
300.256
300.205
300.152
300.101
300.046
300.052
300.111
300.186
300.292
300.396
300.53
300.664
300.802
300.907
300.952
300.947
300.9
300.825
300.743
300.667
300.593
300.531
300.472
300.412
300.36
300.307
300.257
300.207
300.155
300.103
300.047
300.055
300.113
300.175
300.273
300.354
300.508
300.619
300.77
300.89
300.955
300.97
300.941
300.881
300.792
300.719
300.65
300.581
300.524
300.466
300.41
300.358
300.307
300.256
300.207
300.154
300.103
300.049
300.051
300.145
300.194
300.26
300.328
300.485
300.595
300.735
300.856
300.949
300.984
300.973
300.923
300.852
300.772
300.7
300.636
300.574
300.517
300.458
300.408
300.356
300.307
300.257
300.207
300.155
300.102
300.048
300.049
300.125
300.267
300.288
300.321
300.456
300.565
300.681
300.827
300.94
300.99
300.995
300.961
300.897
300.816
300.749
300.683
300.62
300.566
300.51
300.456
300.406
300.357
300.308
300.26
300.21
300.157
300.103
300.048
300.05
300.111
300.229
300.367
300.346
300.424
300.529
300.636
300.795
300.913
300.988
301.01
300.99
300.94
300.87
300.792
300.726
300.667
300.613
300.559
300.507
300.457
300.408
300.359
300.312
300.263
300.213
300.16
300.105
300.049
300.05
300.106
300.187
300.35
300.435
300.436
300.524
300.598
300.739
300.89
300.975
301.019
301.017
300.974
300.912
300.837
300.77
300.711
300.658
300.607
300.556
300.507
300.458
300.41
300.363
300.316
300.268
300.217
300.164
300.107
300.05
300.048
300.109
300.173
300.286
300.454
300.511
300.525
300.573
300.685
300.868
300.961
301.02
301.033
301.007
300.95
300.879
300.812
300.753
300.701
300.652
300.603
300.555
300.508
300.461
300.414
300.368
300.322
300.274
300.223
300.168
300.11
300.051
300.044
300.108
300.168
300.25
300.405
300.548
300.55
300.572
300.641
300.821
300.941
301.014
301.044
301.032
300.985
300.919
300.852
300.794
300.742
300.695
300.649
300.603
300.557
300.511
300.465
300.42
300.375
300.33
300.282
300.229
300.173
300.113
300.052
300.049
300.114
300.173
300.242
300.344
300.527
300.618
300.584
300.618
300.769
300.924
301.001
301.048
301.052
301.017
300.956
300.89
300.831
300.781
300.735
300.691
300.648
300.604
300.56
300.516
300.472
300.428
300.384
300.339
300.291
300.238
300.179
300.116
300.048
300.05
300.113
300.176
300.245
300.325
300.458
300.624
300.633
300.619
300.715
300.895
300.984
301.047
301.068
301.046
300.99
300.925
300.866
300.816
300.772
300.73
300.691
300.65
300.607
300.565
300.523
300.48
300.438
300.396
300.352
300.304
300.248
300.184
300.093
300.126
300.023
300.081
300.055
300.045
300.113
300.18
300.253
300.323
300.418
300.592
300.692
300.647
300.691
300.857
300.961
301.04
301.075
301.069
301.025
300.96
300.899
300.849
300.805
300.765
300.729
300.693
300.654
300.614
300.573
300.532
300.492
300.452
300.412
300.369
300.318
300.25
300.163
300.198
300.117
300.023
300.088
300.055
300.052
300.118
300.188
300.26
300.335
300.41
300.521
300.694
300.704
300.699
300.82
300.929
301.024
301.076
301.087
301.056
300.997
300.933
300.879
300.835
300.798
300.765
300.733
300.699
300.662
300.623
300.584
300.545
300.508
300.471
300.434
300.388
300.305
300.341
300.237
300.289
300.275
300.156
300.195
300.125
300.023
300.091
300.057
300.053
300.124
300.206
300.277
300.35
300.421
300.503
300.669
300.75
300.729
300.774
300.892
301.001
301.074
301.1
301.083
301.032
300.967
300.909
300.866
300.832
300.8
300.773
300.745
300.713
300.676
300.638
300.602
300.569
300.539
300.508
300.467
300.381
300.42
300.332
300.237
300.316
300.28
300.164
300.204
300.129
300.023
300.093
300.058
300.051
300.131
300.219
300.302
300.376
300.443
300.516
300.638
300.768
300.777
300.774
300.861
300.97
301.063
301.103
301.103
301.064
301
300.941
300.9
300.867
300.845
300.828
300.811
300.786
300.749
300.708
300.672
300.651
300.651
300.662
300.644
300.472
300.563
300.38
300.439
300.362
300.248
300.329
300.296
300.17
300.214
300.134
300.024
300.097
300.06
300.054
300.138
300.24
300.33
300.409
300.476
300.541
300.64
300.763
300.815
300.795
300.832
300.939
301.043
301.102
301.117
301.091
301.038
300.979
300.935
300.918
300.921
300.944
300.968
300.958
300.909
300.842
300.795
300.804
300.914
301.127
301.354
300.795
301.431
300.538
300.797
300.421
300.523
300.39
300.262
300.356
300.32
300.177
300.225
300.139
300.024
300.1
300.062
300.059
300.148
300.262
300.367
300.447
300.517
300.578
300.654
300.757
300.831
300.829
300.833
300.914
301.019
301.097
301.126
301.112
301.07
301.01
300.976
300.986
301.067
301.221
301.388
301.456
301.357
301.189
301.082
301.153
301.511
302.228
303.094
302.47
303.886
301.469
302.727
300.79
301.501
300.493
300.755
300.455
300.281
300.411
300.365
300.186
300.24
300.145
300.025
300.105
300.064
300.065
300.165
300.279
300.408
300.489
300.56
300.624
300.687
300.766
300.841
300.859
300.85
300.89
300.994
301.084
301.128
301.129
301.092
301.038
301.01
301.077
301.317
301.739
302.227
302.53
302.459
302.071
301.756
301.888
302.652
303.975
305.492
305.116
306.585
304.134
305.585
302.837
304.34
301.456
302.858
300.698
301.361
300.626
300.316
300.549
300.473
300.197
300.267
300.154
300.026
300.11
300.067
300.073
300.187
300.304
300.446
300.535
300.607
300.673
300.733
300.794
300.856
300.885
300.876
300.891
300.974
301.066
301.126
301.14
301.107
301.06
301.044
301.182
301.641
302.437
303.279
303.827
303.859
303.432
302.984
303.093
304.079
305.729
307.63
307.709
308.948
307.007
308.32
305.877
307.375
304.446
306.073
302.789
304.467
301.229
302.638
301.077
300.398
300.919
300.763
300.216
300.325
300.166
300.027
300.118
300.071
300.082
300.21
300.34
300.475
300.58
300.655
300.725
300.787
300.837
300.883
300.91
300.905
300.903
300.951
301.047
301.121
301.148
301.13
301.076
301.072
301.274
301.988
303.222
304.469
305.244
305.374
304.912
304.349
304.453
305.61
307.513
309.479
309.763
310.539
309.476
310.403
308.755
309.944
307.641
309.076
306.182
307.827
304.415
306.225
302.407
304.294
302.118
300.614
301.789
301.478
300.255
300.475
300.19
300.027
300.13
300.075
300.091
300.233
300.374
300.497
300.62
300.702
300.779
300.844
300.891
300.923
300.941
300.936
300.924
300.95
301.031
301.109
301.151
301.148
301.098
301.083
301.332
302.276
303.968
305.718
306.787
307.021
306.566
305.921
305.904
307.118
308.882
310.237
310.909
311.051
311.071
311.448
310.894
311.568
310.31
311.294
309.315
310.593
307.95
309.505
306.214
308.032
304.094
306.15
303.839
301.18
303.496
303.051
300.351
300.884
300.243
300.028
300.154
300.083
300.1
300.253
300.402
300.522
300.651
300.745
300.831
300.902
300.948
300.972
300.98
300.971
300.952
300.957
301.012
301.094
301.15
301.161
301.127
301.096
301.346
302.444
304.563
306.815
308.388
308.911
308.568
307.905
307.791
308.674
309.572
310.161
310.964
310.702
311.53
311.362
311.945
312.002
312.008
312.429
311.628
312.405
310.832
311.918
309.663
311.057
308.086
309.811
306.031
308.115
305.868
302.485
305.634
305.281
300.61
301.845
300.38
300.03
300.209
300.099
300.108
300.269
300.421
300.542
300.668
300.782
300.88
300.959
301.007
301.027
301.025
301.009
300.985
300.974
301.009
301.081
301.145
301.169
301.151
301.114
301.339
302.473
304.908
307.722
309.669
310.371
310.344
309.965
309.75
309.889
310.002
310.105
310.034
310.99
310.405
311.842
311.367
312.536
312.42
312.912
313.115
312.768
313.379
312.201
313.114
311.283
312.498
309.96
311.526
308.118
310.109
308.082
304.702
307.981
307.731
301.263
303.801
300.738
300.034
300.353
300.132
300.117
300.284
300.433
300.555
300.678
300.813
300.924
301.012
301.065
301.082
301.075
301.052
301.022
301
301.013
301.068
301.137
301.176
301.169
301.134
301.305
302.432
304.966
308.187
310.259
311.039
311.191
311.042
310.809
310.622
310.49
310.073
309.188
309.006
308.098
310.64
309.813
311.964
311.127
313.073
312.764
313.725
313.784
313.822
314.315
313.473
314.25
312.814
313.853
311.786
313.148
310.247
312.036
310.332
307.205
310.342
310.166
302.646
306.36
301.548
300.035
300.704
300.203
300.133
300.3
300.44
300.561
300.688
300.84
300.963
301.061
301.118
301.136
301.126
301.098
301.064
301.034
301.028
301.066
301.13
301.178
301.18
301.154
301.242
302.27
304.895
308.266
310.307
311.097
311.355
311.357
311.22
310.989
310.593
309.881
308.388
307.375
306.568
307.933
306.885
310.111
309.023
311.996
310.929
313.637
313.1
314.546
314.532
314.858
315.272
314.68
315.355
314.232
315.095
313.472
314.572
312.269
313.724
312.404
309.702
312.361
312.121
304.957
308.845
303.093
300.034
301.378
300.325
300.16
300.329
300.453
300.575
300.701
300.856
300.995
301.105
301.168
301.188
301.177
301.148
301.111
301.075
301.056
301.072
301.124
301.178
301.191
301.175
301.197
301.954
304.591
308.08
310.074
310.921
311.189
311.15
311
310.75
310.261
309.258
307.428
305.941
305.245
305.886
304.934
307.197
306.019
309.697
308.431
312.1
310.886
314.28
313.54
315.424
315.362
315.892
316.236
315.792
316.387
315.419
316.103
314.732
315.48
313.768
314.654
313.639
311.67
313.362
313.003
307.498
310.929
305.268
300.031
302.342
300.465
300.373
300.476
300.573
300.689
300.855
301.018
301.143
301.213
301.237
301.229
301.203
301.166
301.127
301.097
301.093
301.126
301.177
301.201
301.19
301.18
301.643
303.906
307.542
309.404
310.32
310.479
310.176
309.838
309.533
308.991
307.823
305.618
303.078
304.047
303.106
304.895
303.828
306.98
305.777
309.569
308.248
312.396
311.073
315.009
314.125
316.322
316.193
316.848
317.051
316.681
317.137
316.108
316.657
315.305
315.868
314.381
314.953
314.035
312.587
313.582
313.104
309.617
312.041
307.388
300.04
303.432
300.826
300.507
300.583
300.694
300.854
301.032
301.173
301.254
301.287
301.289
301.274
301.243
301.203
301.162
301.137
301.143
301.18
301.209
301.202
301.185
301.407
303.135
306.7
308.621
309.336
308.909
307.847
306.82
306.214
305.756
304.775
303.37
302.035
301.739
301.272
302.878
302.107
304.627
303.531
307.148
305.956
309.711
308.396
312.927
311.61
315.654
314.626
316.978
316.62
317.388
317.371
317.112
317.415
316.396
316.87
315.466
315.978
314.458
314.845
313.788
312.68
313.043
312.335
311.099
312.314
309.239
300.17
305.556
302.226
300.6
300.695
300.846
301.042
301.197
301.292
301.341
301.368
301.381
301.372
301.335
301.278
301.224
301.193
301.198
301.22
301.221
301.203
301.275
302.398
305.654
307.892
308.467
307.424
305.652
304.176
303.357
302.899
302.464
301.898
301.341
301.012
301.351
301.084
302.552
301.8
304.779
303.609
307.861
306.62
310.307
309.066
313.385
312.062
315.831
314.715
317.131
316.506
317.465
317.216
317.21
317.264
316.457
316.779
315.312
315.806
314.015
314.451
313.062
311.816
312.028
311.304
311.572
311.912
312.012
311.576
311.099
302.247
309.366
307.594
300.696
300.836
301.043
301.215
301.328
301.405
301.478
301.558
301.612
301.599
301.522
301.414
301.315
301.259
301.248
301.245
301.219
301.232
301.827
304.47
307.205
307.8
306.484
304.448
303.193
302.341
301.768
301.45
301.229
301.042
300.916
300.93
300.856
301.272
301.022
302.543
301.749
305.3
303.921
308.162
306.822
310.747
309.457
313.428
312.078
315.472
314.215
316.573
315.552
316.927
316.161
316.77
316.293
316.081
315.968
314.918
315.076
313.382
314.133
313.931
312.39
312.555
310.821
310.986
310.459
311.249
311.354
311.938
310.713
311.838
311.568
311.507
310.858
311.603
311.285
311.466
308.968
310.434
311.043
311.373
311.013
310.119
310.762
300.82
301.037
301.225
301.364
301.481
301.629
301.823
302.018
302.126
302.069
301.85
301.601
301.421
301.325
301.285
301.248
301.233
301.482
303.331
306.389
307.328
306.008
304.153
303.087
302.259
301.606
301.214
301.05
300.961
300.894
300.854
300.839
300.864
300.836
301.223
300.972
302.653
301.749
305.404
303.938
308.015
306.577
310.731
309.386
312.85
311.438
314.293
312.963
315.12
314.059
315.451
314.652
315.42
314.728
315.326
315.137
314.945
314.726
314.269
314.307
314.606
314.202
314.282
313.558
312.789
313.011
313.737
312.199
310.208
310.192
309.782
310.756
310.957
311.577
310.191
310.986
310.859
310.073
311.136
311.268
304.98
310.961
311.325
311.203
311.291
311.241
311.32
301.015
301.227
301.394
301.568
301.82
302.188
302.588
302.877
302.92
302.696
302.269
301.812
301.523
301.377
301.302
301.252
301.332
302.413
305.306
306.912
306.003
304.283
303.353
302.58
301.817
301.268
301.043
300.956
300.898
300.842
300.813
300.816
300.825
300.794
301.134
300.91
302.602
301.654
305.06
303.521
307.132
305.624
310.021
308.593
311.638
310.354
313.096
312.12
314.064
313.62
314.46
314.658
314.6
314.609
314.772
315.172
314.49
314.404
314.435
313.804
313.829
314.175
313.989
313.859
313.198
312.45
312.663
313.321
311.858
309.678
309.465
309.238
310.338
311.243
310.615
309.747
310.101
310.258
309.318
310.484
310.729
309.226
311.508
311.543
310.926
311.039
311.157
311.271
301.216
301.417
301.651
302.035
302.61
303.266
303.759
303.933
303.756
303.291
302.657
302.017
301.602
301.41
301.295
301.297
301.815
304.103
306.374
306.102
304.619
303.913
303.299
302.493
301.613
301.098
300.975
300.912
300.858
300.786
300.798
300.784
300.785
300.809
300.783
301.025
300.87
302.214
301.398
304.127
302.811
306.414
305.039
309.079
307.772
311.13
310.107
313.246
312.9
315.278
316.079
315.714
316.479
317.26
318.17
314.671
315.148
315.866
316.786
314.255
314.53
315.043
313.429
313.604
314.291
314.399
313.912
312.854
312.119
312.384
313.07
311.549
309.227
308.904
308.81
309.986
310.953
310.327
309.39
309.353
309.54
308.736
309.813
310.131
311.788
311.6
311.95
310.425
310.659
310.869
311.069
301.427
301.724
302.238
303.05
303.966
304.685
305.004
304.905
304.446
303.739
302.922
302.161
301.647
301.397
301.314
301.512
303.013
305.569
306.161
305.07
304.45
304.028
303.306
302.223
301.239
301.016
300.931
300.876
300.813
300.774
300.779
300.771
300.77
300.793
300.766
300.998
300.859
301.86
301.291
303.738
302.638
306.595
305.343
309.021
307.844
312.476
311.887
316.726
317.122
318.951
319.751
321.911
317.852
319.001
320.12
321.139
315.826
316.869
318.113
319.471
314.797
315.582
316.677
313.398
313.869
315.135
315.525
314.537
312.72
311.885
312.325
313.185
311.342
308.881
308.521
308.511
309.705
310.748
310.118
309.133
308.754
308.967
308.397
309.32
309.696
312.008
311.476
312.089
310.056
310.385
310.7
310.994
301.771
302.411
303.442
304.639
305.575
306.041
306.001
305.577
304.862
303.968
303.024
302.193
301.622
301.378
301.411
302.221
304.546
306.055
305.471
304.935
304.673
304.07
302.945
301.535
301.085
300.964
300.896
300.842
300.766
300.785
300.754
300.761
300.757
300.749
300.792
300.747
301.058
300.884
301.845
301.352
304.179
303.199
308.889
307.638
311.102
310.082
317.15
316.757
322.352
322.044
321.977
322.452
324.351
324.678
320.839
322.108
323.184
324.015
318.023
319.534
321.098
322.583
316.203
317.59
319.204
313.804
314.686
316.869
317.536
315.93
312.909
311.848
312.516
313.674
311.284
308.68
308.316
308.397
309.527
310.687
310.09
309.035
308.451
308.685
308.287
309.065
309.486
311.133
311.481
312.191
309.913
310.335
310.718
311.134
302.525
303.761
305.209
306.376
306.912
306.894
306.504
305.855
304.986
303.974
302.977
302.136
301.555
301.418
301.772
303.504
305.599
305.662
305.337
305.204
304.755
303.736
302.115
301.201
301.007
300.925
300.865
300.805
300.759
300.768
300.735
300.746
300.737
300.734
300.818
300.742
301.333
301
302.432
301.818
306.386
305.174
313.513
311.982
316.011
314.894
321.286
320.521
323.996
323.472
322.49
323.036
324.583
324.778
324.427
325.037
323.876
324.893
325.596
325.922
320.922
322.598
324.106
325.338
318.516
320.343
322.189
314.784
316.283
319.404
320.205
318.139
313.401
312.012
312.98
314.683
311.432
308.668
308.287
308.437
309.549
310.825
310.236
309.092
308.408
308.686
308.33
309.081
309.54
306.9
312.068
311.802
310.027
310.511
310.975
311.596
303.972
305.667
307.013
307.542
307.513
307.178
306.613
305.839
304.876
303.824
302.817
301.976
301.49
301.584
302.659
304.783
305.646
305.604
305.606
305.331
304.489
302.884
301.412
301.064
300.96
300.892
300.837
300.759
300.78
300.739
300.751
300.716
300.725
300.719
300.718
300.889
300.746
301.928
301.251
304.007
302.889
310.302
308.476
317.138
315.548
319.648
318.506
321.609
320.812
323.741
322.982
321.726
322.288
325.867
325.524
323.341
324.416
326.23
326.739
326.807
326.589
323.905
325.363
326.485
327.228
321.383
323.296
324.991
316.427
318.558
322.291
323.046
320.844
314.364
312.431
313.88
316.265
311.83
308.783
308.396
308.665
309.724
311.221
310.656
309.346
308.539
308.898
308.553
309.366
309.898
302.482
312.479
310.159
310.441
310.948
311.501
312.174
305.995
307.463
307.959
307.914
307.606
307.096
306.394
305.543
304.567
303.528
302.543
301.729
301.57
302.114
303.919
305.475
305.694
305.863
305.782
305.143
303.666
301.812
301.149
300.999
300.924
300.863
300.8
300.749
300.761
300.717
300.733
300.704
300.705
300.704
300.7
301.007
300.758
302.893
301.664
306.541
304.602
313.662
311.444
317.8
316.291
320.048
319.033
319.213
318.837
318.641
318.463
322.239
321.211
319.677
320.339
326.066
325.359
321.495
322.982
327.521
327.493
327.119
326.498
326.365
327.355
327.95
328.103
324.226
325.869
327.138
318.609
321.144
324.985
325.567
323.554
315.877
313.278
315.317
318.33
312.649
309.164
308.775
309.259
310.209
312.027
311.516
309.972
308.908
309.415
309.154
309.982
310.54
302.091
312.53
308.381
311.058
311.517
312.051
312.688
307.774
308.211
308.161
307.831
307.244
306.568
305.833
305.013
304.096
303.12
302.19
301.625
301.843
303.14
304.988
305.675
305.976
306.099
305.667
304.393
302.438
301.283
301.046
300.958
300.892
300.835
300.756
300.774
300.725
300.74
300.699
300.71
300.69
300.696
300.689
300.682
301.092
300.76
303.897
302.05
308.948
306.334
314.417
312.143
316.063
314.74
318.336
318.106
316.957
316.74
316.524
316.435
316.438
320.053
318.794
317.15
317.821
325.566
324.372
319.464
321.354
328.02
327.61
326.966
325.984
328.008
328.451
328.541
328.442
326.561
327.727
328.485
321.04
323.637
327.1
327.438
325.819
317.845
314.66
317.18
320.628
313.98
310.015
309.628
310.325
311.186
313.352
312.871
311.115
309.686
310.268
310.155
310.844
311.362
302.124
312.218
306.768
311.781
312.124
312.558
312.94
308.393
308.286
307.829
307.197
306.534
305.838
305.111
304.345
303.512
302.631
301.85
301.775
302.565
304.317
305.552
305.992
306.285
306.054
305.003
303.141
301.494
301.104
300.995
300.925
300.864
300.795
300.736
300.75
300.709
300.721
300.691
300.698
300.668
300.683
300.673
300.661
301.09
300.749
304.135
302.107
309.546
306.778
313.031
310.953
311.895
310.71
316.475
316.552
313.438
313.817
314.005
313.866
313.844
313.885
317.681
316.2
314.392
315.116
324.708
323.145
317.685
319.994
328.059
327.47
326.617
325.461
328.819
328.87
328.773
328.434
328.172
328.834
329.088
323.385
325.726
328.504
328.637
327.48
320.041
316.437
319.271
322.876
315.709
311.318
310.836
311.758
312.644
315.075
314.643
312.673
310.765
311.366
311.462
311.886
312.279
300.74
311.441
304.365
312.528
312.684
312.992
312.997
308.37
307.754
306.997
306.323
305.711
305.056
304.348
303.612
302.862
302.124
301.792
302.246
303.665
305.198
305.96
306.359
306.311
305.478
303.785
301.795
301.179
301.035
300.959
300.894
300.834
300.752
300.722
300.737
300.7
300.71
300.679
300.691
300.644
300.662
300.661
300.639
300.993
300.717
303.671
301.844
308.618
306.117
309.361
307.71
311.388
307.817
307.451
307.009
306.335
313.944
313.943
311.344
311.279
311.136
311.106
311.136
315.508
313.764
311.664
312.495
323.981
322.15
316.309
318.876
327.919
327.187
326.202
324.912
329.115
329.024
328.72
328.262
329.095
329.283
329.294
325.387
327.32
329.23
329.277
328.616
322.212
318.497
321.429
324.861
317.722
312.981
312.364
313.503
314.456
317.088
316.645
314.553
312.096
312.633
313.022
312.998
313.183
300.148
310.152
302.002
313.218
313.172
313.35
312.874
307.621
306.659
305.88
305.288
304.78
304.234
303.58
302.874
302.254
301.882
302.154
303.203
304.7
305.82
306.363
306.458
305.816
304.294
302.187
301.274
301.079
300.995
300.927
300.865
300.795
300.732
300.726
300.746
300.714
300.691
300.704
300.657
300.675
300.628
300.637
300.644
300.626
300.824
300.666
302.39
301.283
305.963
304.142
304.802
304.044
308.008
305.246
305.111
304.944
304.843
311.212
311.271
308.127
308.851
308.595
308.458
308.366
313.843
311.793
309.344
310.31
323.274
321.254
315.03
317.832
327.662
326.835
325.766
324.379
329.208
328.931
328.528
328.036
329.417
329.423
329.337
326.993
328.495
329.488
329.49
329.249
324.215
320.615
323.447
326.562
319.822
314.912
314.132
315.436
316.491
319.152
318.765
316.615
313.583
313.937
314.7
314.072
314.022
300.041
308.165
300.893
313.808
313.593
313.605
312.503
306.454
305.56
304.946
304.434
303.925
303.399
302.856
302.329
302.004
302.167
303.052
304.369
305.567
306.325
306.515
306.026
304.676
302.603
301.391
301.122
301.033
300.964
300.897
300.835
300.764
300.72
300.724
300.737
300.706
300.67
300.689
300.633
300.651
300.615
300.624
300.62
300.612
300.684
300.613
301.301
300.872
303.136
302.146
303.692
303.37
303.164
305.362
304.071
304.046
303.992
303.885
308.292
308.204
305.508
306.971
306.573
306.302
306.072
312.373
310.185
307.61
308.641
322.606
320.415
314.044
317.127
327.336
326.477
325.369
323.953
329.072
328.709
328.276
327.696
329.498
329.413
329.141
328.288
329.13
329.506
329.425
329.396
325.978
322.644
325.346
327.985
321.891
316.97
315.969
317.425
318.651
321.383
321.138
318.844
315.076
315.201
316.382
315.071
314.747
300.019
306.264
300.415
314.299
313.958
313.771
311.97
305.58
304.936
304.422
303.917
303.415
302.924
302.473
302.159
302.253
303.075
304.31
305.447
306.239
306.515
306.123
304.921
302.944
301.518
301.166
301.069
301.001
300.935
300.869
300.8
300.747
300.706
300.704
300.726
300.686
300.648
300.666
300.623
300.634
300.6
300.611
300.594
300.594
300.644
300.589
301.102
300.786
302.545
301.738
304.051
303.807
305.027
304.468
304.103
304.071
304.151
304.202
304.176
305.863
305.677
304.145
305.515
305.042
304.704
304.46
311.066
308.728
306.159
307.162
322.151
319.881
313.632
316.867
327.007
326.142
325.07
323.724
328.778
328.391
327.9
327.334
329.43
329.154
328.733
328.873
329.159
329.363
329.094
329.201
327.539
324.753
326.951
328.419
324.251
319.203
317.858
319.584
321.195
323.887
323.69
321.37
316.544
316.367
318.057
315.939
315.36
300.017
304.638
300.324
314.712
314.29
313.86
311.551
305.155
304.626
304.142
303.64
303.172
302.765
302.466
302.52
303.241
304.379
305.454
306.194
306.485
306.132
305.027
303.163
301.635
301.208
301.102
301.036
300.972
300.908
300.843
300.777
300.713
300.706
300.739
300.684
300.69
300.667
300.639
300.652
300.613
300.627
300.584
300.599
300.572
300.573
300.668
300.582
301.585
300.937
304.139
302.747
305.888
305.585
307.667
306.683
304
305.22
305.505
305.774
305.883
304.306
304.203
303.931
304.489
304.158
303.974
303.883
310.385
307.69
305.02
305.926
321.955
319.676
313.575
316.842
326.658
325.867
324.891
323.606
328.339
327.901
327.422
326.898
329.051
328.579
328.153
328.72
328.742
328.841
327.931
328.461
327.839
326.351
327.165
328.099
325.729
321.57
319.738
321.585
323.423
325.211
324.604
323.216
317.883
317.394
319.577
316.686
315.872
299.993
304.547
300.679
315.095
314.605
313.96
311.617
304.981
304.586
304.185
303.807
303.486
303.248
303.275
303.808
304.672
305.549
306.162
306.408
306.077
305.019
303.237
301.714
301.244
301.134
301.069
301.007
300.945
300.886
300.819
300.764
300.701
300.71
300.729
300.674
300.684
300.66
300.631
300.646
300.6
300.615
300.567
300.583
300.56
300.557
300.845
300.601
303.34
301.621
308.531
307.08
305.929
308.503
308.305
310.66
309.716
304.887
307.418
307.876
308.249
308.447
303.877
303.877
304.59
304.158
303.973
303.938
303.962
310.221
307.343
304.585
305.423
321.881
319.641
314.176
317.404
326.313
325.629
324.749
323.632
327.643
327.169
326.718
326.249
328.341
327.827
327.107
328.019
327.504
327.42
326.562
327.189
327.415
326.432
326.658
327.378
325.836
322.961
321.389
322.64
324.105
325.115
324.525
323.67
319.084
318.289
320.9
317.321
316.355
379.115
306.011
305.213
315.476
314.934
314.148
312.185
304.842
304.611
304.414
304.267
304.192
304.28
304.621
305.149
305.675
306.1
306.254
305.897
304.893
303.181
301.738
301.271
301.162
301.102
301.042
300.982
300.921
300.86
300.802
300.737
300.692
300.698
300.717
300.668
300.674
300.651
300.618
300.635
300.583
300.601
300.555
300.567
300.552
300.55
301.293
300.681
306.295
303.049
311.082
309.533
310.236
308.173
311.436
311.269
313.407
312.392
306.939
310.355
310.845
311.213
311.395
304.119
304.329
306.403
304.438
304.456
304.678
304.991
310.68
307.518
304.716
305.478
322.087
320.026
316.026
318.944
325.764
325.245
324.671
323.909
326.567
326.104
325.739
325.379
326.153
325.168
324.851
327.014
326.978
325.82
319.014
319.188
326.629
326.176
326.149
326.53
325.245
323.221
322.275
322.883
323.98
324.673
324.054
323.403
320.092
319.064
321.81
317.96
316.798
677.874
310.377
322.914
315.883
315.285
314.545
313.692
304.708
304.635
304.598
304.64
304.773
305.01
305.321
305.663
305.968
305.988
305.549
304.567
302.959
301.706
301.287
301.186
301.131
301.076
301.018
300.959
300.903
300.842
300.782
300.718
300.703
300.679
300.685
300.656
300.66
300.639
300.602
300.621
300.568
300.583
300.548
300.558
300.553
300.54
302.035
300.84
309.244
309.854
306.966
304.882
313.301
311.793
311.576
314.355
314.027
315.737
314.659
309.779
313.711
314.129
314.367
314.431
305.441
305.916
309.137
305.777
305.938
306.489
307.084
312.499
308.965
305.892
306.569
322.868
321.162
319.341
321.328
325.1
324.838
324.558
324.151
324.548
324.341
324.315
324.215
325.702
318.215
318.185
319.462
319.566
319.062
313.103
313.215
319.717
325.329
319.673
320.054
319.628
323.08
322.635
322.948
323.382
319.43
319.159
323.108
320.989
319.853
322.19
318.464
317.277
768.021
313.855
349.288
316.305
315.709
315.277
315.119
304.557
304.601
304.66
304.79
305.001
305.264
305.527
305.687
305.54
305.038
304.04
302.612
301.621
301.295
301.206
301.157
301.107
301.054
300.997
300.941
300.886
300.828
300.761
300.7
300.693
300.685
300.724
300.666
300.674
300.642
300.647
300.624
300.585
300.604
300.562
300.572
300.535
300.549
300.565
300.528
302.654
301.042
310.809
309.455
307.827
305.652
314.869
313.26
312.463
317.049
316.505
317.594
316.35
313.179
317.202
317.436
317.485
317.397
307.784
308.474
312.521
308.292
308.637
309.307
310.162
316.167
312.595
308.45
309.399
323.572
322.842
322.525
323.056
324.149
324.03
323.938
323.83
318.457
318.32
318.527
318.527
319.02
312.968
312.966
313.336
313.257
313.125
307.246
307.27
313.628
320.367
313.628
313.679
313.744
323.108
322.577
322.593
318.815
313.708
313.618
318.708
321.484
320.321
322.102
318.999
317.692
911.988
316.987
421.695
316.745
316.235
316.03
316.176
304.276
304.47
304.588
304.762
304.959
305.116
305.086
304.856
304.314
303.345
302.221
301.525
301.297
301.226
301.182
301.136
301.085
301.035
300.976
300.921
300.873
300.809
300.753
300.68
300.694
300.666
300.715
300.655
300.628
300.636
300.609
300.578
300.591
300.552
300.566
300.52
300.536
300.588
300.518
302.716
301.097
311.032
309.455
307.953
304.618
307.841
306.3
315.866
314.159
312.64
319.441
318.623
319.014
317.504
316.806
320.543
320.571
320.428
320.054
310.974
311.802
316.238
312.336
312.432
313.061
313.947
321.206
318.454
312.872
314.964
323.706
323.615
323.502