/*--------------------------------*- C++ -*----------------------------------*\
  =========                 |
  \\      /  F ield         | OpenFOAM: The Open Source CFD Toolbox
   \\    /   O peration     | Website:  https://openfoam.org
    \\  /    A nd           | Version:  dev
     \\/     M anipulation  |
\*---------------------------------------------------------------------------*/
FoamFile
{
    version     2.0;
    format      ascii;
    class       volVectorField;
    location    "2500";
    object      U;
}
// * * * * * * * * * * * * * * * * * * * * * * * * * * * * * * * * * * * * * //

dimensions      [0 1 -1 0 0 0 0];

internalField   nonuniform List<vector> 
9978
(
(0.00467255 0.00723467 -1.83958e-27)
(0.0110752 0.00654127 0)
(0.00462433 0.0192267 -3.80462e-27)
(0.015278 0.00550688 -9.1268e-28)
(0.0121888 0.0196435 4.86281e-28)
(0.00392549 0.0277984 0)
(0.0185383 0.00462612 -4.58019e-28)
(0.0171641 0.019181 -2.42938e-27)
(0.011535 0.0290109 0)
(0.00320844 0.034655 -2.19915e-29)
(0.0209435 0.00389324 -3.90899e-28)
(0.0204052 0.0174094 0)
(0.0176092 0.030151 -1.83803e-27)
(0.00990434 0.0358718 -5.75089e-28)
(0.00270089 0.0406443 2.6966e-27)
(0.0227251 0.00324251 7.89738e-28)
(0.0225321 0.0149591 4.59574e-28)
(0.0221108 0.0303365 0)
(0.0162374 0.0378574 -1.1188e-27)
(0.00828317 0.0415866 2.59781e-27)
(0.00232303 0.045749 2.05529e-28)
(0.0240392 0.00269667 7.16498e-28)
(0.0240202 0.0125395 4.82544e-30)
(0.0250708 0.0293498 1.46481e-28)
(0.0216319 0.0396847 9.32413e-28)
(0.0139807 0.0434445 -1.61431e-27)
(0.00708514 0.0464739 2.42114e-27)
(0.00202456 0.0502897 -2.78301e-27)
(0.0249304 0.00227167 -2.632e-29)
(0.0250775 0.0104648 0)
(0.0267502 0.0275027 1.82824e-27)
(0.0257355 0.0406998 -1.50454e-27)
(0.0194599 0.0458886 -1.39095e-27)
(0.011928 0.0479913 5.53945e-28)
(0.00615089 0.050857 1.83942e-32)
(0.0017766 0.0542817 7.09938e-28)
(0.025493 0.00197627 1.32842e-28)
(0.0257046 0.00890379 -1.37098e-29)
(0.0275063 0.0251652 1.22354e-29)
(0.0284554 0.0406173 7.03408e-29)
(0.024318 0.0483069 1.52149e-27)
(0.0168008 0.0502106 9.14965e-28)
(0.0103137 0.0520583 -1.50038e-27)
(0.00538246 0.0547554 -8.30104e-28)
(0.00156581 0.0578246 1.10308e-27)
(0.025782 0.00178639 5.9758e-28)
(0.0259998 0.00782253 0)
(0.0276604 0.0226661 -2.52276e-27)
(0.0299133 0.0394724 2.38375e-29)
(0.0281299 0.050065 1.66874e-28)
(0.0216093 0.0529383 0)
(0.0145175 0.0538571 0)
(0.00900552 0.0557729 -1.45646e-27)
(0.00472842 0.0582205 -1.11488e-27)
(0.00139023 0.0610246 1.02855e-27)
(0.0259232 0.00166968 9.11612e-28)
(0.02611 0.00708384 -6.96706e-29)
(0.0275166 0.020261 -3.90704e-28)
(0.0303944 0.0375299 -9.57583e-28)
(0.0307132 0.0508277 -4.63996e-32)
(0.0259925 0.0557794 1.91672e-27)
(0.0187493 0.0562683 2.27305e-28)
(0.0126523 0.0572607 -2.87726e-28)
(0.00792323 0.0590691 -5.19417e-28)
(0.00418233 0.0613379 0)
(0.00124314 0.0639078 1.09412e-27)
(0.0260129 0.00159587 4.54618e-28)
(0.0261624 0.00655065 0)
(0.0272899 0.0181104 1.79716e-27)
(0.030204 0.0351201 -9.20238e-28)
(0.0321644 0.0505068 2.03053e-27)
(0.0295639 0.0581861 1.78174e-27)
(0.0229245 0.0591919 1.85974e-28)
(0.0163077 0.0592437 9.08516e-28)
(0.0111091 0.060299 2.36727e-32)
(0.00701575 0.0620561 -4.83694e-28)
(0.00373087 0.0641735 1.72461e-27)
(0.00110749 0.0665122 0)
(0.0261378 0.00154545 0)
(0.0261897 0.00614249 -7.88539e-28)
(0.0270607 0.0163607 1.23056e-27)
(0.0296546 0.032539 6.0908e-29)
(0.0326488 0.0492014 5.17257e-28)
(0.0321144 0.0597145 -9.5826e-28)
(0.0268458 0.0623293 -1.51254e-27)
(0.0199641 0.0617276 4.68718e-28)
(0.0143033 0.0619551 0)
(0.00983534 0.0630843 -3.69647e-28)
(0.00623874 0.0647978 0)
(0.00333612 0.0667461 9.02554e-28)
(0.000987163 0.0688853 4.09449e-28)
(0.0263731 0.00150887 -2.22249e-28)
(0.02624 0.00585734 -1.94187e-27)
(0.0268545 0.0150839 0)
(0.0289788 0.0300345 0)
(0.0324194 0.0471505 4.96253e-28)
(0.0336568 0.0602284 -4.87133e-28)
(0.0302144 0.0651942 -2.44564e-27)
(0.0236086 0.0646791 0)
(0.0174865 0.0640554 0)
(0.0126446 0.0644348 5.21065e-28)
(0.00875399 0.0656962 -8.37561e-28)
(0.00556716 0.0673001 0)
(0.00298183 0.0690851 0)
(0.000885779 0.0710532 3.78787e-28)
(0.0267583 0.00149033 -2.18754e-28)
(0.026422 0.00570586 -6.34629e-28)
(0.0267009 0.0141865 -1.6488e-28)
(0.0283157 0.027814 0)
(0.0317492 0.0446705 9.44348e-29)
(0.0343134 0.0595877 4.37298e-28)
(0.0328278 0.0673322 -8.84741e-28)
(0.0271533 0.0678941 0)
(0.0206616 0.066586 0)
(0.0154283 0.066184 4.37122e-28)
(0.0112328 0.0668704 0)
(0.00780243 0.0680928 0)
(0.00496994 0.0695868 -1.95606e-28)
(0.00267954 0.0712121 -3.8507e-28)
(0.000791955 0.0730575 0)
(0.0274052 0.00151105 1.14623e-28)
(0.0267523 0.00565389 -8.11689e-27)
(0.0266553 0.0135953 -2.22115e-31)
(0.0277694 0.0260127 0)
(0.0308031 0.041979 0)
(0.034238 0.0581464 1.10567e-35)
(0.0345717 0.068551 -3.69859e-29)
(0.0303826 0.0710317 4.41766e-28)
(0.0238892 0.0695274 0)
(0.0181867 0.0683235 -1.44163e-28)
(0.0136816 0.0683615 0)
(0.0100038 0.069114 3.47927e-28)
(0.00696473 0.0702906 -7.20421e-28)
(0.004454 0.0716399 -1.7938e-28)
(0.00241054 0.0732085 -3.54667e-28)
(0.000705501 0.0748992 1.88532e-27)
(0.0283531 0.00156627 1.05617e-26)
(0.0273024 0.00572363 -8.62978e-27)
(0.0268442 0.0132572 -8.04455e-27)
(0.0273983 0.0246001 0)
(0.0298503 0.0392919 -2.18386e-28)
(0.0336311 0.0559992 0)
(0.0354896 0.0685651 1.84549e-27)
(0.0330517 0.0736917 1.25653e-27)
(0.0271162 0.0727747 6.70417e-29)
(0.0209691 0.0708602 -6.24096e-28)
(0.0161181 0.0701601 -1.38356e-28)
(0.0121852 0.070398 0)
(0.00894106 0.0711817 3.24986e-28)
(0.00622732 0.0722706 6.63811e-28)
(0.00400823 0.073599 1.02039e-27)
(0.00215962 0.0750257 2.88667e-27)
(0.000630929 0.0765917 1.93614e-27)
(0.0296101 0.00162797 1.19457e-26)
(0.0281948 0.00591333 1.07126e-26)
(0.0273136 0.0130211 -8.54627e-27)
(0.0273383 0.0234869 0)
(0.0291 0.0368182 5.81143e-28)
(0.0327142 0.0534721 -2.4189e-28)
(0.035597 0.0678676 1.83967e-27)
(0.0349835 0.0755012 8.71738e-28)
(0.0301817 0.0760659 0)
(0.0238537 0.0737953 -4.10894e-28)
(0.018543 0.0722561 1.2691e-32)
(0.0143642 0.0719459 0)
(0.0108894 0.0723038 -1.44766e-28)
(0.00800641 0.0730705 -2.44839e-28)
(0.00558234 0.074148 2.05042e-27)
(0.0036054 0.0753767 1.43856e-27)
(0.00193872 0.0767029 1.64311e-27)
(0.000562999 0.0781654 -1.72658e-27)
(0.0312552 0.0016908 0)
(0.0294592 0.00611085 1.1538e-26)
(0.0280906 0.0128709 7.26385e-28)
(0.0276585 0.0226613 0)
(0.0286395 0.0347687 0)
(0.0317211 0.0507567 5.1662e-28)
(0.0352564 0.0661992 -4.60556e-29)
(0.0361303 0.0764155 0)
(0.0328505 0.0790725 3.96225e-29)
(0.0268006 0.0770585 6.75358e-29)
(0.0210037 0.074693 2.37954e-28)
(0.0165221 0.0737447 2.16465e-28)
(0.0128315 0.0736673 -7.42357e-29)
(0.00975541 0.0740619 -2.75985e-28)
(0.00717241 0.0748361 0)
(0.00502262 0.0758777 1.10464e-27)
(0.0032368 0.077026 1.5089e-27)
(0.00173966 0.0782687 -3.09865e-27)
(0.000499108 0.0796396 1.81087e-27)
(0.0333148 0.00177568 0)
(0.0310814 0.00627361 1.33986e-26)
(0.0293157 0.012881 1.44351e-31)
(0.0283298 0.0220599 -5.58196e-27)
(0.0285442 0.0332541 4.75436e-27)
(0.0308655 0.0480547 1.3224e-27)
(0.0345518 0.063948 0)
(0.0366596 0.0761434 8.58959e-29)
(0.0349487 0.0814765 0)
(0.0296463 0.0804763 1.26737e-29)
(0.0235527 0.0775815 1.95843e-28)
(0.0186268 0.0758147 0)
(0.0147465 0.0752648 -1.58689e-28)
(0.0114703 0.0752746 0)
(0.00874076 0.0757127 0)
(0.00643526 0.0764906 0)
(0.00451399 0.0774998 2.057e-27)
(0.0029067 0.0785502 -1.35336e-27)
(0.00156322 0.0797332 1.64693e-27)
(0.000440346 0.0809956 0)
(0.0357734 0.00187378 0)
(0.0330814 0.00646762 4.03726e-28)
(0.0309654 0.0130086 1.25323e-26)
(0.0293869 0.021601 4.62972e-27)
(0.0289546 0.0322269 -7.72712e-27)
(0.0303107 0.0455531 3.28349e-27)
(0.0336801 0.061403 1.20552e-27)
(0.0365975 0.0753196 -3.26198e-27)
(0.0364151 0.0830237 2.33086e-28)
(0.0322686 0.083776 1.26759e-27)
(0.0261616 0.0808423 0)
(0.0207479 0.0782467 -3.38286e-28)
(0.0165928 0.0770904 5.76008e-29)
(0.0131586 0.0767055 -1.65045e-29)
(0.0102687 0.0767837 1.53802e-28)
(0.00783203 0.0772749 0)
(0.00577283 0.0780641 -4.51938e-28)
(0.00404259 0.0789796 5.87631e-28)
(0.00261683 0.079978 -4.14553e-28)
(0.0013912 0.0811026 -1.79945e-27)
(0.000388824 0.0822775 1.9835e-27)
(0.038572 0.00197414 8.79455e-27)
(0.0355029 0.00671507 0)
(0.0329619 0.0131436 9.00432e-32)
(0.0308816 0.0213541 8.28784e-28)
(0.0298263 0.0315572 -4.8739e-31)
(0.0301987 0.0434579 1.11621e-27)
(0.032868 0.058748 0)
(0.0361442 0.073635 -2.51529e-27)
(0.0372193 0.0837484 3.42114e-27)
(0.0344859 0.0866722 1.40099e-27)
(0.0287932 0.0843431 2.06583e-29)
(0.0229728 0.0810564 4.93923e-29)
(0.0183962 0.0791703 -1.92335e-28)
(0.0147983 0.0783363 -4.53223e-29)
(0.0117565 0.0780377 7.06685e-29)
(0.00920113 0.0782525 0)
(0.00701441 0.0787691 -4.58088e-28)
(0.00516184 0.0795128 5.00493e-28)
(0.00361007 0.0803696 -6.48938e-28)
(0.00233996 0.0813531 -7.05316e-28)
(0.0011928 0.0823847 9.46912e-35)
(0.000336688 0.0834672 4.05699e-29)
(0.0416472 0.00204318 -9.3027e-27)
(0.0383343 0.00691752 8.22871e-27)
(0.0353647 0.0132812 -4.88626e-28)
(0.0328172 0.0213485 6.90669e-27)
(0.0310843 0.0311328 -4.85755e-27)
(0.0306016 0.0419742 -3.681e-27)
(0.0322956 0.05621 2.33649e-27)
(0.0354975 0.071543 2.88023e-27)
(0.0374923 0.0834645 3.92043e-27)
(0.0361685 0.0889424 2.94798e-27)
(0.0313097 0.0878993 -9.38883e-29)
(0.0252729 0.0842647 -7.57571e-30)
(0.020238 0.0815582 3.99084e-28)
(0.0163651 0.0801753 0)
(0.0132056 0.0794788 -3.06158e-30)
(0.0105266 0.0793835 4.02102e-28)
(0.00823697 0.0796501 -1.91167e-28)
(0.00626729 0.0801612 -4.9084e-28)
(0.0045952 0.0808646 -5.57751e-28)
(0.00321492 0.0817372 1.96631e-27)
(0.00203746 0.0826269 -2.93699e-28)
(0.00101422 0.0835662 1.51194e-28)
(0.000289905 0.0845756 1.05266e-28)
(0.0448728 0.00196889 -9.6168e-27)
(0.0415576 0.00693251 -9.29172e-27)
(0.038299 0.0134355 0)
(0.035173 0.0215091 -8.15698e-27)
(0.0328052 0.0309043 7.59672e-27)
(0.0315297 0.0411053 -1.09735e-26)
(0.0321033 0.0540269 -1.13946e-27)
(0.034811 0.06927 5.75545e-28)
(0.0373523 0.0826902 -2.69942e-27)
(0.0372776 0.0904358 3.00464e-27)
(0.0335481 0.0912739 1.95806e-27)
(0.0276084 0.0878189 -5.82152e-28)
(0.0221175 0.0843293 3.49434e-28)
(0.0178958 0.0822507 0)
(0.0145772 0.081109 -3.31949e-28)
(0.0118061 0.0806447 -2.02887e-29)
(0.00943042 0.0806669 3.6919e-28)
(0.00736456 0.0809603 -2.97698e-28)
(0.00558336 0.0814607 0)
(0.00407606 0.08221 0)
(0.00284791 0.082994 1.96803e-27)
(0.00175596 0.0837785 0)
(0.000863944 0.0846625 2.38627e-27)
(0.000246672 0.085614 6.10955e-29)
(0.0478751 0.00154845 9.60178e-27)
(0.0451103 0.00652743 7.47326e-28)
(0.0418308 0.0134466 -8.99289e-27)
(0.0380838 0.0217918 -7.62975e-27)
(0.0350502 0.0308167 -7.31335e-27)
(0.0330013 0.0407029 1.01996e-27)
(0.0324273 0.0524195 4.32489e-31)
(0.0342429 0.0669729 1.20003e-27)
(0.0369331 0.08124 -3.27702e-27)
(0.0378261 0.0911969 -2.38131e-27)
(0.0353517 0.0942475 1.91201e-27)
(0.0298969 0.0916169 -6.29451e-28)
(0.0240394 0.0875036 2.10864e-28)
(0.0194156 0.0846231 0)
(0.0158676 0.0829402 2.49677e-29)
(0.013004 0.0820673 -4.04497e-28)
(0.0105738 0.0817919 0)
(0.00844136 0.0818861 -3.08696e-28)
(0.00657094 0.0821993 1.15765e-28)
(0.00495062 0.0827447 0)
(0.00361996 0.0834463 -6.74726e-28)
(0.00248878 0.0841233 0)
(0.00150001 0.0848582 1.97264e-27)
(0.000726495 0.0857005 1.15205e-28)
(0.00020733 0.0865956 0)
(0.04937 0.00116705 -8.95102e-27)
(0.0485988 0.00531837 9.42174e-27)
(0.0458998 0.0131474 1.76717e-26)
(0.0417247 0.022087 -1.83814e-26)
(0.0378943 0.0308475 -9.27964e-27)
(0.0350679 0.0406591 -4.68085e-27)
(0.0333946 0.0514465 5.89086e-27)
(0.0340101 0.0648853 9.44618e-27)
(0.0364346 0.079559 -1.48375e-27)
(0.0379773 0.0911341 -1.57211e-31)
(0.036655 0.0966254 -1.1858e-27)
(0.0320077 0.0954473 -1.7275e-28)
(0.0259963 0.091104 -7.43089e-29)
(0.020922 0.087353 -6.54721e-29)
(0.0170955 0.085015 0)
(0.0140943 0.0836675 1.71202e-28)
(0.0116288 0.0830394 -4.07341e-28)
(0.00948046 0.082905 1.41092e-28)
(0.00754361 0.0830594 -9.78004e-33)
(0.005833 0.0834107 6.3062e-29)
(0.00437697 0.0839474 2.25334e-33)
(0.0031678 0.0845932 0)
(0.00212753 0.08519 4.42983e-28)
(0.00125567 0.0858894 3.40025e-28)
(0.000598661 0.086664 -3.59757e-29)
(0.000172768 0.0875446 1.42676e-28)
(0.0485532 0.0016711 0)
(0.0495894 0.00444977 -1.75208e-26)
(0.0497376 0.012206 -1.04391e-27)
(0.0461453 0.0222174 9.16968e-27)
(0.0413795 0.0311135 -1.80317e-26)
(0.0377597 0.0408209 -6.32562e-27)
(0.03504 0.0511162 4.68717e-31)
(0.0343662 0.0632114 4.44049e-27)
(0.0359802 0.0778249 3.47133e-27)
(0.0378285 0.0907519 -1.69644e-27)
(0.0374479 0.0983661 1.75999e-27)
(0.0338121 0.0990868 -1.00201e-27)
(0.0279494 0.0950653 -1.05127e-28)
(0.0224207 0.090507 3.35689e-29)
(0.0182443 0.0873791 -4.02985e-29)
(0.0150838 0.0854643 -8.11823e-29)
(0.0125616 0.0844233 2.37331e-28)
(0.0104333 0.0840162 -3.91973e-28)
(0.00849499 0.0839956 1.21861e-28)
(0.00671427 0.0842104 3.00233e-28)
(0.00513755 0.084581 8.45058e-28)
(0.0038101 0.085118 0)
(0.00269581 0.0856693 0)
(0.00176845 0.0861987 4.03767e-31)
(0.00103087 0.0868246 5.85961e-28)
(0.000504826 0.0875879 1.45857e-28)
(0.000145411 0.0884691 0)
(0.0530043 0.00277787 -7.80818e-27)
(0.0464326 0.00597631 -8.04203e-27)
(0.049619 0.0114203 -7.68944e-27)
(0.0501803 0.0219203 1.06269e-26)
(0.0458898 0.0314229 1.03774e-27)
(0.0409404 0.0414122 -8.46491e-27)
(0.0374485 0.0512007 -7.56676e-27)
(0.0353448 0.0622508 1.16862e-26)
(0.0358226 0.0761565 -1.05393e-27)
(0.0375047 0.0898972 9.78383e-28)
(0.0378208 0.0995005 1.62453e-27)
(0.0351912 0.102387 -1.01301e-27)
(0.0297931 0.0992722 1.42249e-28)
(0.0239216 0.0941333 1.25346e-28)
(0.0193253 0.0901004 0)
(0.0159428 0.0874921 -6.51659e-29)
(0.0133642 0.0859588 -8.91869e-29)
(0.0112601 0.0852107 2.496e-28)
(0.00938376 0.0849838 0)
(0.00759951 0.085077 1.192e-29)
(0.0059242 0.0853664 1.83417e-28)
(0.00445307 0.0857559 -7.15945e-29)
(0.00322252 0.0862115 7.84086e-28)
(0.0022164 0.0866716 0)
(0.00142381 0.087104 -6.93781e-29)
(0.000841793 0.087715 -4.1499e-28)
(0.000460414 0.0884717 2.60658e-28)
(0.000135063 0.0893698 0)
(0.0573727 0.00262327 4.76163e-28)
(0.0519941 0.00766037 -8.36299e-27)
(0.0454135 0.0123587 1.05631e-27)
(0.0501053 0.0216109 -1.37244e-27)
(0.0501591 0.0316203 8.27261e-27)
(0.0452484 0.0420022 0)
(0.0402498 0.0519006 8.38241e-27)
(0.0371667 0.0619163 -7.38192e-27)
(0.0361644 0.0748572 1.34734e-26)
(0.0372689 0.0889039 -3.37262e-27)
(0.0379124 0.100121 0)
(0.0361519 0.105204 -1.79686e-27)
(0.0314233 0.103544 -1.20072e-27)
(0.0254025 0.0982403 1.42549e-28)
(0.0203218 0.0932529 4.25994e-28)
(0.0166781 0.0898113 -2.81721e-28)
(0.0140089 0.0876507 1.64675e-28)
(0.0119464 0.0864708 -1.65986e-28)
(0.0101697 0.0860048 2.32378e-28)
(0.00846275 0.0859687 3.63943e-29)
(0.00676361 0.0862176 -5.51762e-30)
(0.00514005 0.086548 0)
(0.00374014 0.0868868 -1.4621e-28)
(0.00261015 0.0872362 0)
(0.00174505 0.0875661 0)
(0.00111689 0.0879423 0)
(0.000709789 0.0885415 -5.62748e-28)
(0.000464456 0.089345 3.22654e-28)
(0.000145116 0.0903049 1.26143e-28)
(0.0614882 0.0022425 0)
(0.0578468 0.00815716 0)
(0.0498463 0.0126066 1.1433e-27)
(0.0466684 0.0207567 7.38579e-27)
(0.0508759 0.0316633 -1.5444e-27)
(0.0497647 0.0426281 9.80782e-27)
(0.044287 0.0528756 0)
(0.0394254 0.0623592 9.96747e-27)
(0.0373345 0.0740054 -5.87811e-27)
(0.0372667 0.0880199 7.24142e-27)
(0.0378826 0.100355 -5.47597e-27)
(0.0367258 0.107563 8.27232e-28)
(0.0327659 0.107731 7.50145e-29)
(0.026807 0.102766 -7.26284e-28)
(0.0212553 0.0969262 6.51162e-28)
(0.017243 0.0924787 0)
(0.0144775 0.0895435 9.06371e-33)
(0.0124558 0.0878126 0)
(0.0108282 0.0870292 0)
(0.00926326 0.0868596 0)
(0.00762678 0.0870719 2.68727e-29)
(0.00593338 0.0874024 0)
(0.00432889 0.0877208 -2.16071e-28)
(0.00298099 0.0879517 0)
(0.00197294 0.0881537 2.36356e-28)
(0.00128808 0.0883726 0)
(0.00086319 0.08869 1.60211e-27)
(0.000654437 0.0893492 7.83889e-28)
(0.000511456 0.0902726 -3.62999e-28)
(0.000172152 0.0913318 2.81311e-28)
(0.0652853 0.00197958 0)
(0.0620591 0.0075376 0)
(0.057958 0.013482 -1.55096e-43)
(0.0490213 0.0193744 -8.46478e-27)
(0.0489456 0.0305021 0)
(0.0517079 0.0425846 0)
(0.048911 0.0539927 9.96967e-27)
(0.0428613 0.0634371 2.113e-27)
(0.0390063 0.0738064 0)
(0.0377885 0.087367 0)
(0.0378732 0.100415 6.31928e-27)
(0.0370466 0.109465 2.34692e-27)
(0.0337648 0.111726 0)
(0.0280685 0.107641 2.3548e-27)
(0.022112 0.101163 -1.18742e-28)
(0.0176317 0.0955935 4.81829e-32)
(0.0146954 0.0917123 -1.35579e-27)
(0.0127393 0.0892829 5.83591e-28)
(0.0112874 0.0880531 -2.30305e-28)
(0.00996718 0.0876895 1.54475e-28)
(0.0084944 0.0878758 6.69991e-28)
(0.00680829 0.0883032 -3.60271e-28)
(0.00504002 0.0886862 3.1132e-29)
(0.00341916 0.0888902 0)
(0.00214786 0.0889265 0)
(0.00132688 0.088951 1.87855e-28)
(0.000878434 0.0890668 4.2822e-27)
(0.00067918 0.0893903 3.51046e-27)
(0.000675365 0.0901659 7.93164e-28)
(0.000621828 0.0912686 0)
(0.000218752 0.0924957 -2.442e-28)
(0.0685432 0.00173472 0)
(0.0657748 0.00676726 0)
(0.063113 0.0133531 -1.74096e-27)
(0.0567854 0.0195223 6.65106e-27)
(0.0502863 0.0280733 -8.673e-27)
(0.051248 0.0417993 0)
(0.0522286 0.0545631 0)
(0.0473468 0.0650877 7.35638e-27)
(0.0414868 0.0743692 0)
(0.038952 0.0871435 0)
(0.0381126 0.100526 7.23163e-27)
(0.0372674 0.111061 5.62209e-27)
(0.0344728 0.115427 9.56848e-33)
(0.0291493 0.112736 2.56955e-28)
(0.0228751 0.105995 3.45036e-27)
(0.0178559 0.0992804 1.81155e-28)
(0.0146121 0.0942679 -1.68488e-27)
(0.012688 0.0909544 -1.11811e-27)
(0.011471 0.0891032 -1.52267e-27)
(0.0104727 0.0884296 5.14272e-28)
(0.00930403 0.0885798 1.00395e-28)
(0.00774817 0.0891245 -2.71151e-28)
(0.005896 0.0896863 1.66054e-27)
(0.00399336 0.0900058 0)
(0.00235704 0.0899909 0)
(0.0012399 0.0897537 1.82475e-28)
(0.000703139 0.0895798 1.67041e-27)
(0.000595863 0.0896208 5.98544e-27)
(0.000641939 0.0900652 1.27424e-27)
(0.000834781 0.0910756 0)
(0.000782786 0.0924073 9.85562e-28)
(0.000276531 0.0938252 7.24437e-28)
(0.0712333 0.00147516 0)
(0.0690602 0.00595826 0)
(0.0668732 0.0124896 0)
(0.0636549 0.0200551 7.87512e-27)
(0.0558397 0.0272157 8.21525e-27)
(0.052117 0.0392036 0)
(0.0532118 0.0540219 0)
(0.0517711 0.0666376 -3.65673e-27)
(0.0453082 0.0758383 1.03232e-26)
(0.0407175 0.0873891 -1.97743e-27)
(0.0388562 0.100853 -1.3386e-27)
(0.0375414 0.112473 7.11019e-27)
(0.0349695 0.118866 3.46426e-30)
(0.0300406 0.117946 -6.5029e-27)
(0.0235554 0.111432 1.21979e-27)
(0.0178938 0.103665 -2.21707e-29)
(0.0142043 0.0973576 2.71708e-28)
(0.0121881 0.0929282 -3.93793e-28)
(0.0112413 0.0902265 3.84986e-27)
(0.0106913 0.0890589 -1.59885e-27)
(0.00995563 0.0890713 -7.21274e-28)
(0.00876334 0.0897583 1.28671e-27)
(0.00697139 0.0906539 0)
(0.00480471 0.0912573 2.63167e-27)
(0.00270326 0.0913429 8.74096e-29)
(0.00112767 0.090944 -1.72928e-27)
(0.00028189 0.0903839 0)
(0.000172364 0.0899966 6.73067e-28)
(0.000478332 0.0901023 1.49731e-27)
(0.0008184 0.0908214 2.33591e-27)
(0.00112235 0.0921727 3.04875e-28)
(0.000918411 0.0937841 7.98703e-28)
(0.000296984 0.0953387 2.31699e-27)
(0.0733086 0.00118584 0)
(0.0718162 0.00508205 0)
(0.0701614 0.0113974 0)
(0.0680377 0.0195232 4.88052e-27)
(0.0633953 0.0275451 5.40814e-27)
(0.0565202 0.0371587 2.39951e-27)
(0.0544422 0.0519168 2.40235e-27)
(0.0544395 0.0671703 4.4986e-27)
(0.0500281 0.0779763 -3.5249e-27)
(0.0435269 0.0883029 -2.61201e-27)
(0.0401215 0.101478 9.51655e-27)
(0.0381186 0.113834 0)
(0.0354161 0.12206 -2.12294e-28)
(0.0307618 0.123172 -7.32587e-28)
(0.0241489 0.117465 -5.30669e-27)
(0.0177758 0.108877 2.37111e-28)
(0.013444 0.101148 0)
(0.0112001 0.0953606 4.87165e-28)
(0.010446 0.0915324 2.46867e-27)
(0.0104277 0.089585 8.20605e-34)
(0.0103665 0.0892422 -5.26807e-27)
(0.00978769 0.0900836 6.01992e-27)
(0.00828879 0.0914313 0)
(0.00596817 0.0925644 0)
(0.00334097 0.0929858 2.28987e-29)
(0.00108812 0.0925204 8.03435e-29)
(-0.000246031 0.0916232 -1.87043e-27)
(-0.000589857 0.0907327 1.71665e-27)
(-9.5315e-05 0.0902162 3.39867e-27)
(0.000598151 0.0905686 3.43991e-28)
(0.00124912 0.0917298 -2.06751e-27)
(0.00149467 0.093514 -5.39209e-28)
(0.00102676 0.0953949 -3.80418e-29)
(0.000289102 0.0969007 -8.43096e-28)
(0.0746976 0.000868958 0)
(0.0739822 0.0041467 -7.70682e-28)
(0.0730197 0.0102182 0)
(0.071444 0.0183461 -5.28632e-27)
(0.0687984 0.027662 -2.93621e-27)
(0.0630391 0.0366291 2.88768e-27)
(0.0581188 0.0495773 2.78687e-27)
(0.0565186 0.0659067 -5.51397e-27)
(0.0543045 0.0799613 -2.9796e-31)
(0.0476041 0.0901229 1.15127e-26)
(0.0421804 0.102469 2.67116e-31)
(0.0391689 0.11538 1.02002e-26)
(0.0360685 0.125113 4.81855e-27)
(0.0314014 0.128346 4.36746e-34)
(0.0247024 0.123978 0)
(0.0175838 0.115022 0)
(0.0123556 0.105827 -2.49142e-28)
(0.00966425 0.0984433 0)
(0.00895192 0.0931687 0)
(0.00948187 0.0901029 -2.87294e-28)
(0.0103416 0.0891311 -1.00673e-26)
(0.0106569 0.08993 4.63946e-27)
(0.00978089 0.0918115 -1.52026e-28)
(0.00759956 0.0937168 -8.02344e-28)
(0.00449634 0.0948428 -2.46605e-27)
(0.00137807 0.0947544 0)
(-0.000843064 0.0934684 0)
(-0.00175289 0.091864 1.0256e-27)
(-0.00127431 0.0906709 1.75604e-27)
(-0.000118635 0.0903854 -4.84304e-28)
(0.00107241 0.091138 -2.38786e-28)
(0.0019011 0.0929189 -1.8665e-27)
(0.00175251 0.0951457 5.12364e-29)
(0.000994032 0.0967752 -3.18886e-28)
(0.00136559 0.096659 -6.03087e-28)
(0.00013548 0.0979856 -3.64422e-29)
(0.000999347 0.0972185 -6.88577e-28)
(0.000413241 0.0982524 1.52597e-29)
(0.0752973 0.00046814 1.10769e-27)
(0.0754518 0.00314809 -1.3149e-27)
(0.0752666 0.00891297 -2.2444e-27)
(0.0743743 0.0169471 -5.72834e-27)
(0.0727433 0.0269058 -3.27507e-27)
(0.0690025 0.0363378 0)
(0.0635243 0.0484643 -8.17404e-27)
(0.0598446 0.0641389 3.16274e-27)
(0.0576376 0.0802883 -6.21668e-27)
(0.0522436 0.0928192 4.59515e-27)
(0.0453694 0.103975 4.78304e-27)
(0.0408266 0.117102 2.27611e-27)
(0.0370847 0.128135 -1.17604e-27)
(0.0321312 0.133464 5.12377e-27)
(0.025279 0.130897 0)
(0.0174236 0.122119 0)
(0.0110422 0.111619 -7.3191e-27)
(0.00753148 0.102466 8.15337e-27)
(0.00665138 0.0954263 0)
(0.00762358 0.0907583 -2.11973e-27)
(0.00952975 0.0887472 -1.73853e-27)
(0.0110711 0.0891987 0)
(0.0113642 0.0914698 1.02891e-26)
(0.00967427 0.0944598 0)
(0.00626275 0.0967442 -1.45725e-27)
(0.0020201 0.0973507 -3.48413e-27)
(-0.00149035 0.0963263 2.409e-28)
(-0.00328323 0.0941567 3.94937e-28)
(-0.00316803 0.0918288 -8.59605e-28)
(-0.00168643 0.0904861 3.034e-27)
(0.000200526 0.0907283 -8.85144e-27)
(0.00187529 0.0922843 -2.62324e-27)
(0.00239053 0.0946437 1.79735e-28)
(0.00181563 0.0965514 -5.21859e-29)
(0.00211632 0.096479 -5.75195e-29)
(0.001314 0.0973666 -4.89413e-29)
(7.08114e-05 0.0987309 -1.16911e-30)
(0.000781042 0.0983405 0)
(0.000233212 0.0989507 9.9998e-29)
(0.0750087 -1.36637e-05 1.49766e-28)
(0.0761072 0.00219321 9.05772e-28)
(0.0767668 0.00752257 -3.35595e-27)
(0.0767046 0.0154277 -1.81306e-27)
(0.0758368 0.0256242 -3.56451e-27)
(0.0736576 0.0357613 5.9694e-27)
(0.0692387 0.0476667 0)
(0.0646498 0.0629346 -8.79591e-27)
(0.061077 0.0797881 6.93493e-27)
(0.0568773 0.0948831 3.21757e-31)
(0.0495256 0.106392 -1.10896e-26)
(0.0433145 0.119014 3.2637e-27)
(0.0386294 0.131169 4.17199e-27)
(0.03319 0.138519 0)
(0.0260308 0.1381 5.06633e-27)
(0.0174002 0.130149 -6.83425e-28)
(0.00967317 0.118699 -8.20076e-27)
(0.00491554 0.107691 9.23636e-27)
(0.00344169 0.0985829 -5.54391e-27)
(0.00461824 0.091903 4.74406e-27)
(0.00746671 0.0882061 3.17065e-30)
(0.0106334 0.0877834 0)
(0.0125906 0.0900762 -4.73011e-31)
(0.0122366 0.094019 -1.46928e-27)
(0.00911724 0.097991 -3.05598e-27)
(0.00423961 0.100218 -7.30027e-28)
(-0.000939728 0.0995303 -1.17743e-28)
(-0.00454342 0.0968289 -1.47061e-27)
(-0.00539124 0.0934682 6.42846e-27)
(-0.00368428 0.0908486 0)
(-0.00114664 0.0899261 1.27252e-27)
(0.0011679 0.0911032 -6.77083e-27)
(0.00262349 0.094007 1.14883e-28)
(0.00264042 0.0934427 -4.19992e-27)
(0.00256569 0.0963815 -9.95408e-34)
(0.00298381 0.0944649 -1.66126e-28)
(0.00294646 0.0962173 -1.28682e-28)
(0.00170568 0.0975669 5.75228e-28)
(0.00211644 0.0977465 3.35418e-28)
(0.00106238 0.09844 0)
(4.95877e-07 0.099404 6.89188e-29)
(0.000522792 0.0992092 -3.41971e-28)
(8.65687e-05 0.099641 -4.67374e-29)
(0.0737769 -0.000530682 6.32212e-29)
(0.075858 0.00132097 -5.74379e-28)
(0.0773834 0.00611759 0)
(0.0782294 0.0138786 6.6155e-28)
(0.0782238 0.0241346 3.79065e-27)
(0.0771503 0.0346923 -4.28852e-27)
(0.0744508 0.0466734 0)
(0.0700164 0.0623434 -4.37896e-27)
(0.0654604 0.0792332 1.84033e-26)
(0.0612 0.0959354 -7.43258e-27)
(0.0543296 0.109309 0)
(0.0467972 0.121434 -2.14324e-27)
(0.0409161 0.134298 6.72583e-27)
(0.0348153 0.14353 6.72186e-27)
(0.0271225 0.145451 -5.91792e-27)
(0.0177137 0.13899 4.61295e-27)
(0.00849492 0.127157 -2.54672e-27)
(0.0020479 0.114414 -8.89487e-29)
(-0.000604376 0.103058 -1.08883e-26)
(0.000303443 0.0939257 9.50431e-27)
(0.003907 0.0878872 -2.84427e-27)
(0.00880352 0.085753 0)
(0.0131082 0.0874599 -9.51222e-27)
(0.0151037 0.0922018 1.27173e-26)
(0.0133508 0.0978414 -2.23737e-26)
(0.00776938 0.101953 -8.09436e-27)
(0.000961166 0.103128 -3.14333e-27)
(-0.0047672 0.10059 4.71294e-28)
(-0.007767 0.0961766 2.92058e-26)
(-0.00674757 0.0918922 0)
(-0.00361198 0.0896934 2.07827e-27)
(-0.000320839 0.0898021 0)
(0.00261585 0.092694 -5.38258e-27)
(0.00224646 0.091731 3.16095e-27)
(0.00335867 0.0940749 0)
(0.00263511 0.0978104 1.23581e-28)
(0.00340487 0.0958197 1.56242e-28)
(0.00318073 0.0977807 2.04559e-28)
(0.00139962 0.0986853 3.95865e-28)
(0.00191713 0.0990247 8.16051e-28)
(0.000736254 0.099435 0)
(-9.81826e-05 0.099936 -5.81066e-28)
(0.000201544 0.10002 -6.73937e-28)
(-0.000118993 0.100238 -1.20835e-27)
(0.0716059 -0.000990378 -4.8e-27)
(0.0746356 0.000556525 -4.69213e-28)
(0.0770183 0.00479646 0)
(0.0787815 0.0123992 0)
(0.0797254 0.0225542 6.53659e-28)
(0.0796849 0.0332886 -1.25208e-26)
(0.0783839 0.0455289 0)
(0.0751567 0.0617184 -6.45483e-27)
(0.0705411 0.0790114 4.89404e-27)
(0.0655726 0.096507 1.17803e-26)
(0.0594949 0.111786 -7.75384e-27)
(0.0512649 0.124376 6.07699e-27)
(0.0439826 0.137571 -4.42271e-27)
(0.037132 0.148478 7.40036e-27)
(0.0287658 0.15286 -8.40732e-28)
(0.0185692 0.148487 -1.08757e-26)
(0.00777686 0.136989 -2.13897e-28)
(-0.000764525 0.122859 -6.47345e-27)
(-0.00523097 0.109273 -1.58257e-27)
(-0.00535409 0.097395 0)
(-0.00156634 0.0883816 -6.9927e-27)
(0.00481234 0.0836197 -5.63658e-28)
(0.0116816 0.0841894 0)
(0.0155225 0.0892972 1.55566e-26)
(0.0157394 0.0975062 -3.46763e-26)
(0.0111681 0.104935 -2.22148e-26)
(0.00304465 0.108396 -6.66832e-27)
(-0.00518811 0.10684 -3.59186e-27)
(-0.0103302 0.101607 2.15973e-26)
(-0.011818 0.095774 2.40881e-26)
(-0.00942789 0.0921237 0)
(-0.00544627 0.091086 -1.11143e-27)
(0.00149496 0.090662 -1.97094e-27)
(-0.00100801 0.0903401 0)
(0.00355939 0.0934234 -2.6373e-27)
(0.00318064 0.092715 1.53305e-27)
(0.00384973 0.095268 1.87832e-28)
(0.00246807 0.0993675 0)
(0.00380073 0.0975058 -4.40205e-28)
(0.00322683 0.0995269 1.53838e-28)
(0.00104909 0.0997816 0)
(0.00145724 0.100445 2.82635e-28)
(0.000281968 0.100335 0)
(-0.000211489 0.100273 0)
(-0.000232731 0.100684 0)
(-0.000389311 0.100698 2.49505e-30)
(0.0685023 -0.00133384 -2.37748e-28)
(0.0723723 -5.67445e-05 -1.08871e-26)
(0.0755966 0.00367842 4.52703e-27)
(0.0782348 0.0111033 0)
(0.0801513 0.0209875 1.80467e-35)
(0.0812212 0.0316832 -4.84236e-27)
(0.0811527 0.0442102 -7.61236e-27)
(0.0794654 0.0608944 5.75949e-27)
(0.0756279 0.0790578 -1.5814e-27)
(0.070394 0.0969756 0)
(0.0645988 0.113716 -9.61592e-27)
(0.0564892 0.127606 6.08953e-28)
(0.0479551 0.140993 -3.7858e-31)
(0.0401932 0.15332 1.2238e-26)
(0.0311934 0.160196 -8.06359e-27)
(0.0201812 0.158399 -7.47518e-27)
(0.00781025 0.148075 1.31125e-28)
(-0.00312445 0.133198 3.29589e-34)
(-0.0100655 0.117589 -1.89659e-31)
(-0.0120758 0.102937 -1.2008e-27)
(-0.00914474 0.0907104 -2.33054e-26)
(-0.00222977 0.0831911 -2.42834e-27)
(0.00612371 0.0820238 -1.04701e-26)
(0.0127621 0.0881225 0)
(0.0149595 0.0990269 -2.26792e-26)
(0.0119853 0.110293 0)
(0.00415128 0.117004 3.81065e-27)
(-0.0061125 0.117515 4.2372e-28)
(-0.0152896 0.11332 1.70446e-27)
(-0.0209036 0.107281 2.51275e-26)
(-0.0231735 0.103178 -1.82206e-28)
(-0.0211918 0.101783 -5.49706e-27)
(-0.00565853 0.0927127 2.18788e-27)
(-0.017655 0.101553 1.44702e-27)
(0.00174154 0.092559 -3.82683e-27)
(-0.00298934 0.0947841 -5.95942e-29)
(0.00376783 0.0949437 0)
(0.00287446 0.0952896 0)
(0.00403186 0.0974441 -3.30321e-27)
(0.00207205 0.10096 -1.87103e-28)
(0.00369882 0.0998661 5.39261e-28)
(0.00282128 0.101591 2.56242e-28)
(0.0004074 0.10093 -3.88897e-28)
(0.00070215 0.101857 -1.53218e-27)
(-0.00039452 0.101121 -3.43493e-28)
(-0.000314846 0.100391 0)
(-0.000781041 0.101152 0)
(-0.000723924 0.10092 4.40737e-27)
(0.0645237 -0.00151894 -1.95541e-28)
(0.0690966 -0.000475009 2.23729e-28)
(0.0730642 0.00283262 -5.76558e-27)
(0.0765086 0.0100634 4.80812e-27)
(0.0793865 0.0195242 3.92064e-27)
(0.0816095 0.0299671 4.95804e-27)
(0.0828353 0.0427637 -5.79637e-27)
(0.0825503 0.0598841 6.33587e-27)
(0.080024 0.0790321 0)
(0.0753858 0.0975052 0)
(0.0695756 0.11524 0)
(0.0620978 0.13065 7.31794e-27)
(0.0529525 0.144645 2.77246e-28)
(0.0440993 0.158105 6.13533e-27)
(0.034528 0.167327 1.73982e-26)
(0.0227147 0.16843 -8.58509e-27)
(0.00894021 0.160152 -7.39969e-27)
(-0.00453882 0.14535 2.45313e-27)
(-0.014571 0.128264 -6.12521e-28)
(-0.0193835 0.111154 -1.0994e-26)
(-0.0184986 0.0960123 -1.64306e-26)
(-0.0129308 0.0862094 -8.66421e-27)
(-0.00529975 0.084609 -3.31206e-27)
(0.00263744 0.0917215 -2.40457e-27)
(0.00822677 0.104777 0)
(0.00741035 0.120339 3.07915e-26)
(0.000489956 0.132186 6.53348e-27)
(-0.0107366 0.136677 -3.63631e-27)
(-0.0250766 0.135236 7.18478e-27)
(-0.0396415 0.134915 1.87159e-27)
(-0.0502475 0.134799 4.1665e-27)
(-0.0566692 0.137119 -3.97307e-27)
(-0.0351354 0.118949 0)
(-0.0598451 0.14151 5.29534e-28)
(-0.0148882 0.104242 2.44778e-27)
(-0.0356545 0.122983 1.02245e-28)
(-0.000709179 0.0976471 -2.73474e-27)
(-0.0122164 0.10727 0)
(0.0033735 0.0980407 1.79793e-27)
(0.000379428 0.100568 -8.43485e-28)
(0.00331466 0.100603 -4.19041e-27)
(0.00135953 0.102686 -8.10394e-28)
(0.00275744 0.102685 -5.90575e-28)
(0.00162116 0.104101 -5.95252e-28)
(-0.000547894 0.102053 3.25228e-27)
(-0.000288688 0.103112 0)
(-0.00132468 0.101842 0)
(-0.000385031 0.100297 0)