/*--------------------------------*- C++ -*----------------------------------*\
  =========                 |
  \\      /  F ield         | OpenFOAM: The Open Source CFD Toolbox
   \\    /   O peration     | Website:  https://openfoam.org
    \\  /    A nd           | Version:  dev
     \\/     M anipulation  |
\*---------------------------------------------------------------------------*/
FoamFile
{
    version     2.0;
    format      ascii;
    class       volScalarField;
    location    "2500";
    object      a;
}
// * * * * * * * * * * * * * * * * * * * * * * * * * * * * * * * * * * * * * //

dimensions      [0 -1 0 0 0 0 0];

internalField   nonuniform List<scalar> 
9841
(
0.100011
0.100011
0.100011
0.100011
0.100011
0.100011
0.100011
0.100011
0.100011
0.100011
0.10001
0.100011
0.100011
0.100011
0.100011
0.10001
0.10001
0.100011
0.100011
0.100011
0.100011
0.10001
0.10001
0.10001
0.100011
0.100011
0.100011
0.100011
0.10001
0.10001
0.10001
0.10001
0.100011
0.100011
0.100011
0.100011
0.100009
0.10001
0.10001
0.10001
0.10001
0.100011
0.100011
0.100011
0.100011
0.100009
0.100009
0.10001
0.10001
0.10001
0.10001
0.100011
0.100011
0.100011
0.100011
0.100009
0.100009
0.100009
0.10001
0.10001
0.10001
0.10001
0.100011
0.100011
0.100011
0.100011
0.100009
0.100009
0.100009
0.100009
0.10001
0.10001
0.10001
0.10001
0.100011
0.100011
0.100011
0.100011
0.100009
0.100009
0.100009
0.100009
0.100009
0.10001
0.10001
0.10001
0.10001
0.100011
0.100011
0.100011
0.100011
0.100008
0.100009
0.100009
0.100009
0.100009
0.100009
0.10001
0.10001
0.10001
0.10001
0.100011
0.100011
0.100011
0.100011
0.100008
0.100008
0.100009
0.100009
0.100009
0.100009
0.100009
0.10001
0.10001
0.10001
0.10001
0.100011
0.100011
0.100011
0.100011
0.100008
0.100008
0.100008
0.100009
0.100009
0.100009
0.100009
0.100009
0.10001
0.10001
0.10001
0.10001
0.100011
0.100011
0.100011
0.100011
0.100008
0.100008
0.100008
0.100008
0.100009
0.100009
0.100009
0.100009
0.100009
0.10001
0.10001
0.10001
0.10001
0.100011
0.100011
0.100011
0.100011
0.100007
0.100008
0.100008
0.100008
0.100008
0.100009
0.100009
0.100009
0.100009
0.100009
0.10001
0.10001
0.10001
0.10001
0.100011
0.100011
0.100011
0.100011
0.100007
0.100007
0.100008
0.100008
0.100008
0.100008
0.100009
0.100009
0.100009
0.100009
0.100009
0.10001
0.10001
0.10001
0.10001
0.100011
0.100011
0.100011
0.100011
0.100007
0.100007
0.100007
0.100008
0.100008
0.100008
0.100008
0.100009
0.100009
0.100009
0.100009
0.100009
0.10001
0.10001
0.10001
0.10001
0.100011
0.100011
0.100011
0.100011
0.100007
0.100007
0.100007
0.100007
0.100008
0.100008
0.100008
0.100008
0.100009
0.100009
0.100009
0.100009
0.100009
0.10001
0.10001
0.10001
0.10001
0.100011
0.100011
0.100011
0.100011
0.100006
0.100007
0.100007
0.100007
0.100007
0.100008
0.100008
0.100008
0.100008
0.100008
0.100009
0.100009
0.100009
0.100009
0.10001
0.10001
0.10001
0.10001
0.100011
0.100011
0.100011
0.100011
0.100006
0.100006
0.100007
0.100007
0.100007
0.100007
0.100008
0.100008
0.100008
0.100008
0.100008
0.100009
0.100009
0.100009
0.100009
0.10001
0.10001
0.10001
0.10001
0.100011
0.100011
0.100011
0.100011
0.100006
0.100006
0.100006
0.100007
0.100007
0.100007
0.100007
0.100008
0.100008
0.100008
0.100008
0.100008
0.100009
0.100009
0.100009
0.100009
0.10001
0.10001
0.10001
0.10001
0.100011
0.100011
0.100011
0.100011
0.100006
0.100006
0.100006
0.100006
0.100007
0.100007
0.100007
0.100007
0.100008
0.100008
0.100008
0.100008
0.100008
0.100009
0.100009
0.100009
0.100009
0.10001
0.10001
0.10001
0.10001
0.100011
0.100011
0.100011
0.100011
0.100006
0.100006
0.100006
0.100006
0.100006
0.100007
0.100007
0.100007
0.100007
0.100008
0.100008
0.100008
0.100008
0.100008
0.100009
0.100009
0.100009
0.100009
0.10001
0.10001
0.10001
0.10001
0.100011
0.100011
0.100011
0.100011
0.100005
0.100006
0.100006
0.100006
0.100006
0.100006
0.100007
0.100007
0.100007
0.100007
0.100008
0.100008
0.100008
0.100008
0.100008
0.100009
0.100009
0.100009
0.100009
0.10001
0.10001
0.10001
0.10001
0.100011
0.100011
0.100011
0.100011
0.100005
0.100005
0.100006
0.100006
0.100006
0.100006
0.100006
0.100007
0.100007
0.100007
0.100007
0.100008
0.100008
0.100008
0.100008
0.100008
0.100009
0.100009
0.100009
0.100009
0.10001
0.10001
0.10001
0.10001
0.100011
0.100011
0.100011
0.100011
0.100005
0.100005
0.100005
0.100006
0.100006
0.100006
0.100006
0.100006
0.100007
0.100007
0.100007
0.100007
0.100008
0.100008
0.100008
0.100008
0.100008
0.100009
0.100009
0.100009
0.100009
0.10001
0.10001
0.10001
0.10001
0.100011
0.100011
0.100011
0.100011
0.100005
0.100005
0.100005
0.100005
0.100006
0.100006
0.100006
0.100006
0.100006
0.100007
0.100007
0.100007
0.100007
0.100008
0.100008
0.100008
0.100008
0.100008
0.100009
0.100009
0.100009
0.100009
0.10001
0.10001
0.10001
0.10001
0.100011
0.100011
0.100011
0.100011
0.100004
0.100005
0.100005
0.100005
0.100005
0.100006
0.100006
0.100006
0.100006
0.100006
0.100007
0.100007
0.100007
0.100007
0.100008
0.100008
0.100008
0.100008
0.100008
0.100009
0.100009
0.100009
0.100009
0.10001
0.10001
0.10001
0.10001
0.100011
0.100011
0.100011
0.100011
0.100004
0.100004
0.100005
0.100005
0.100005
0.100005
0.100006
0.100006
0.100006
0.100006
0.100006
0.100007
0.100007
0.100007
0.100007
0.100008
0.100008
0.100008
0.100008
0.100008
0.100009
0.100009
0.100009
0.100009
0.10001
0.10001
0.10001
0.10001
0.100011
0.100011
0.100011
0.100011
0.100004
0.100004
0.100004
0.100005
0.100005
0.100005
0.100005
0.100006
0.100006
0.100006
0.100006
0.100006
0.100007
0.100007
0.100007
0.100007
0.100008
0.100008
0.100008
0.100008
0.100008
0.100009
0.100009
0.100009
0.100009
0.10001
0.10001
0.10001
0.10001
0.100011
0.100011
0.100011
0.100011
0.100004
0.100004
0.100004
0.100004
0.100005
0.100005
0.100005
0.100005
0.100006
0.100006
0.100006
0.100006
0.100006
0.100007
0.100007
0.100007
0.100007
0.100008
0.100008
0.100008
0.100008
0.100008
0.100009
0.100009
0.100009
0.100009
0.10001
0.10001
0.10001
0.10001
0.100011
0.100011
0.100011
0.100011
0.100011
0.100004
0.100004
0.100004
0.100004
0.100004
0.100005
0.100005
0.100005
0.100005
0.100006
0.100006
0.100006
0.100006
0.100006
0.100007
0.100007
0.100007
0.100007
0.100008
0.100008
0.100008
0.100008
0.100008
0.100009
0.100009
0.100009
0.100009
0.10001
0.10001
0.10001
0.10001
0.100011
0.100011
0.100011
0.100011
0.100011
0.100011
0.100003
0.100004
0.100004
0.100004
0.100004
0.100004
0.100005
0.100005
0.100005
0.100005
0.100006
0.100006
0.100006
0.100006
0.100006
0.100007
0.100007
0.100007
0.100007
0.100008
0.100008
0.100008
0.100008
0.100008
0.100009
0.100009
0.100009
0.100009
0.10001
0.10001
0.10001
0.10001
0.100011
0.10001
0.100011
0.100011
0.100011
0.100011
0.100011
0.100011
0.100011
0.100003
0.100003
0.100004
0.100004
0.100004
0.100004
0.100004
0.100005
0.100005
0.100005
0.100005
0.100006
0.100006
0.100006
0.100006
0.100006
0.100007
0.100007
0.100007
0.100007
0.100008
0.100008
0.100008
0.100008
0.100008
0.100009
0.100009
0.100009
0.100009
0.10001
0.10001
0.10001
0.10001
0.10001
0.10001
0.100011
0.100011
0.100011
0.100011
0.100011
0.100011
0.100011
0.100003
0.100003
0.100003
0.100004
0.100004
0.100004
0.100004
0.100004
0.100005
0.100005
0.100005
0.100005
0.100006
0.100006
0.100006
0.100006
0.100006
0.100007
0.100007
0.100007
0.100007
0.100008
0.100008
0.100008
0.100008
0.100008
0.100009
0.100009
0.100009
0.100009
0.10001
0.10001
0.10001
0.10001
0.10001
0.10001
0.10001
0.100011
0.100011
0.100011
0.100011
0.100011
0.100011
0.100011
0.100003
0.100003
0.100003
0.100003
0.100004
0.100004
0.100004
0.100004
0.100004
0.100005
0.100005
0.100005
0.100005
0.100006
0.100006
0.100006
0.100006
0.100006
0.100007
0.100007
0.100007
0.100007
0.100008
0.100008
0.100008
0.100008
0.100008
0.100009
0.100009
0.100009
0.100009
0.10001
0.10001
0.10001
0.10001
0.10001
0.10001
0.10001
0.10001
0.100011
0.100011
0.100011
0.100011
0.100011
0.100011
0.100011
0.100002
0.100003
0.100003
0.100003
0.100003
0.100004
0.100004
0.100004
0.100004
0.100004
0.100005
0.100005
0.100005
0.100005
0.100006
0.100006
0.100006
0.100006
0.100006
0.100007
0.100007
0.100007
0.100007
0.100008
0.100008
0.100008
0.100008
0.100009
0.100009
0.100009
0.100009
0.10001
0.10001
0.100011
0.10001
0.10001
0.10001
0.10001
0.10001
0.10001
0.100011
0.100011
0.100011
0.100011
0.100011
0.100011
0.100011
0.100011
0.100002
0.100002
0.100003
0.100003
0.100003
0.100003
0.100004
0.100004
0.100004
0.100004
0.100004
0.100005
0.100005
0.100005
0.100005
0.100006
0.100006
0.100006
0.100006
0.100006
0.100007
0.100007
0.100007
0.100007
0.100008
0.100008
0.100008
0.100008
0.100009
0.100009
0.10001
0.100012
0.100012
0.100017
0.100012
0.100017
0.100011
0.100015
0.100011
0.100013
0.100011
0.100011
0.100011
0.100011
0.100011
0.100011
0.100011
0.100011
0.100011
0.100011
0.100002
0.100002
0.100002
0.100003
0.100003
0.100003
0.100003
0.100004
0.100004
0.100004
0.100004
0.100004
0.100005
0.100005
0.100005
0.100005
0.100006
0.100006
0.100006
0.100006
0.100006
0.100007
0.100007
0.100007
0.100007
0.100008
0.100008
0.100008
0.100008
0.100009
0.100013
0.100025
0.100029
0.100057
0.100029
0.100061
0.100026
0.100056
0.10002
0.100044
0.100015
0.100029
0.100012
0.100018
0.100013
0.100011
0.100013
0.100013
0.100011
0.100011
0.100011
0.100011
0.100002
0.100002
0.100002
0.100002
0.100003
0.100003
0.100003
0.100003
0.100004
0.100004
0.100004
0.100004
0.100004
0.100005
0.100005
0.100005
0.100005
0.100006
0.100006
0.100006
0.100006
0.100006
0.100007
0.100007
0.100007
0.100007
0.100008
0.100008
0.100008
0.100011
0.10002
0.100075
0.100114
0.100249
0.100135
0.100298
0.100134
0.100318
0.100113
0.10029
0.100078
0.100224
0.100044
0.100138
0.100022
0.100066
0.100026
0.100013
0.100029
0.10003
0.100011
0.100013
0.100011
0.100011
0.100001
0.100002
0.100002
0.100002
0.100002
0.100003
0.100003
0.100003
0.100003
0.100003
0.100004
0.100004
0.100004
0.100004
0.100005
0.100005
0.100005
0.100005
0.100006
0.100006
0.100006
0.100006
0.100006
0.100007
0.100007
0.100007
0.100007
0.100008
0.100009
0.100018
0.100061
0.100173
0.100452
0.10088
0.10062
0.101321
0.100723
0.101583
0.100711
0.101657
0.100608
0.10152
0.100427
0.101206
0.100234
0.100767
0.100093
0.100367
0.100118
0.100027
0.100135
0.100133
0.100012
0.100023
0.100011
0.100012
0.100001
0.100001
0.100002
0.100002
0.100002
0.100002
0.100003
0.100003
0.100003
0.100003
0.100003
0.100004
0.100004
0.100004
0.100004
0.100005
0.100005
0.100005
0.100005
0.100006
0.100006
0.100006
0.100006
0.100006
0.100007
0.100007
0.100007
0.100007
0.100009
0.100026
0.100208
0.100936
0.101837
0.101203
0.102359
0.104515
0.103147
0.10607
0.103635
0.107309
0.103559
0.10774
0.103083
0.107134
0.102236
0.105811
0.101286
0.103833
0.100528
0.101975
0.10067
0.100112
0.100748
0.100715
0.100019
0.100082
0.100012
0.100016
0.100001
0.100001
0.100001
0.100002
0.100002
0.100002
0.100002
0.100003
0.100003
0.100003
0.100003
0.100003
0.100004
0.100004
0.100004
0.100004
0.100005
0.100005
0.100005
0.100005
0.100006
0.100006
0.100006
0.100006
0.100006
0.100007
0.100007
0.100007
0.100009
0.100034
0.100351
0.102792
0.111912
0.10715
0.11374
0.110253
0.116554
0.113077
0.121033
0.114931
0.124726
0.115044
0.126606
0.113369
0.126123
0.110044
0.122712
0.106123
0.115868
0.102748
0.108953
0.103368
0.100575
0.103638
0.103372
0.100055
0.100386
0.100013
0.100034
0.100001
0.100001
0.100001
0.100001
0.100002
0.100002
0.100002
0.100002
0.100003
0.100003
0.100003
0.100003
0.100003
0.100004
0.100004
0.100004
0.100004
0.100005
0.100005
0.100005
0.100005
0.100006
0.100006
0.100006
0.100006
0.100006
0.100007
0.100007
0.10001
0.100041
0.10051
0.104182
0.121387
0.140868
0.150299
0.124091
0.132861
0.130715
0.141805
0.136517
0.149345
0.140679
0.155572
0.142163
0.159493
0.140641
0.160429
0.134722
0.157243
0.123458
0.148066
0.111805
0.131473
0.113822
0.10261
0.114402
0.112969
0.100223
0.101651
0.100017
0.100107
0.100001
0.100001
0.100001
0.100001
0.100001
0.100002
0.100002
0.100002
0.100002
0.100003
0.100003
0.100003
0.100003
0.100003
0.100004
0.100004
0.100004
0.100004
0.100005
0.100005
0.100005
0.100005
0.100006
0.100006
0.100006
0.100006
0.100007
0.100008
0.100012
0.10005
0.100634
0.106018
0.127997
0.157668
0.165259
0.173883
0.182845
0.15316
0.163949
0.162278
0.174994
0.170266
0.184172
0.176488
0.192189
0.179979
0.198138
0.180002
0.201056
0.174506
0.199464
0.161342
0.191002
0.138211
0.172662
0.142168
0.109727
0.142254
0.137384
0.100853
0.105918
0.100032
0.100337
0.1
0.100001
0.100001
0.100001
0.100001
0.100001
0.100002
0.100002
0.100002
0.100002
0.100003
0.100003
0.100003
0.100003
0.100003
0.100004
0.100004
0.100004
0.100004
0.100005
0.100005
0.100005
0.100005
0.100006
0.100006
0.100006
0.100007
0.100009
0.100018
0.100067
0.100733
0.107459
0.13604
0.171739
0.174002
0.19017
0.196782
0.205442
0.212454
0.186652
0.196773
0.196912
0.20836
0.20624
0.218489
0.214238
0.227956
0.219775
0.235834
0.221772
0.240849
0.2179
0.241198
0.205394
0.234278
0.180833
0.216619
0.184997
0.128124
0.184233
0.176773
0.102839
0.11764
0.100067
0.100938
0.1
0.1
0.100001
0.100001
0.100001
0.100001
0.100001
0.100002
0.100002
0.100002
0.100002
0.100003
0.100003
0.100003
0.100003
0.100003
0.100004
0.100004
0.100004
0.100004
0.100005
0.100005
0.100005
0.100005
0.100006
0.100006
0.100007
0.100011
0.100031
0.100112
0.100892
0.108615
0.14137
0.194663
0.200359
0.2057
0.217423
0.218808
0.230719
0.232395
0.217884
0.225198
0.228776
0.236983
0.239244
0.248187
0.249058
0.259405
0.256744
0.26955
0.260851
0.276906
0.258859
0.279334
0.247782
0.274155
0.224175
0.258077
0.227306
0.161518
0.224978
0.215748
0.108151
0.139709
0.100124
0.102275
0.1
0.1
0.100001
0.100001
0.100001
0.100001
0.100001
0.100002
0.100002
0.100002
0.100002
0.100003
0.100003
0.100003
0.100003
0.100003
0.100004
0.100004
0.100004
0.100004
0.100005
0.100005
0.100005
0.100005
0.100006
0.100007
0.100015
0.100052
0.100217
0.101225
0.10996
0.144919
0.195123
0.21311
0.209851
0.217904
0.216033
0.230903
0.22704
0.244936
0.241012
0.242499
0.24552
0.254669
0.258683
0.267053
0.272156
0.279383
0.286262
0.289692
0.299451
0.296094
0.309416
0.295978
0.313812
0.286597
0.310237
0.264597
0.295805
0.266627
0.198536
0.263076
0.252665
0.11846
0.170056
0.100214
0.104856
0.1
0.1
0.100001
0.100001
0.100001
0.100001
0.100001
0.100002
0.100002
0.100002
0.100002
0.100003
0.100003
0.100003
0.100003
0.100003
0.100004
0.100004
0.100004
0.100004
0.100005
0.100005
0.100005
0.100006
0.100008
0.100022
0.100085
0.100379
0.102023
0.111645
0.146575
0.193875
0.207685
0.205238
0.212004
0.207323
0.222171
0.217066
0.234289
0.226303
0.251195
0.241826
0.259146
0.257311
0.274539
0.274122
0.290367
0.291664
0.30632
0.310178
0.319683
0.327147
0.328255
0.339691
0.329597
0.34552
0.321475
0.342754
0.301296
0.329407
0.302142
0.232933
0.297678
0.289188
0.264673
0.133768
0.201252
0.100348
0.108745
0.1
0.1
0.100001
0.100001
0.100001
0.100001
0.100001
0.100002
0.100002
0.100002
0.100002
0.100003
0.100003
0.100003
0.100003
0.100003
0.100004
0.100004
0.100004
0.100004
0.100005
0.100005
0.100005
0.100009
0.100034
0.100138
0.100656
0.103197
0.114006
0.147598
0.193115
0.202438
0.203751
0.200216
0.199228
0.192593
0.217011
0.207622
0.229774
0.215965
0.251661
0.236458
0.271177
0.263515
0.290852
0.287341
0.311025
0.310128
0.331891
0.333306
0.348485
0.35477
0.358777
0.369692
0.360605
0.376204
0.352584
0.372984
0.333598
0.357917
0.345735
0.316947
0.333404
0.280733
0.241916
0.270808
0.309483
0.328828
0.331327
0.303995
0.152728
0.256958
0.239791
0.20518
0.100353
0.109983
0.1
0.1
0.100001
0.100001
0.100001
0.100001
0.100001
0.100002
0.100002
0.100002
0.100002
0.100003
0.100003
0.100003
0.100003
0.100003
0.100004
0.100004
0.100004
0.100004
0.100005
0.100005
0.100011
0.100054
0.100237
0.10113
0.104976
0.117101
0.148983
0.19301
0.202493
0.184191
0.18489
0.188006
0.185326
0.178439
0.170983
0.201846
0.188929
0.218776
0.200105
0.250134
0.230509
0.279197
0.26647
0.306741
0.298953
0.332683
0.330143
0.35855
0.358997
0.378366
0.384726
0.390036
0.401697
0.379591
0.388562
0.396433
0.404966
0.368636
0.380222
0.395061
0.402019
0.390572
0.359635
0.347224
0.361271
0.371802
0.346892
0.295804
0.285107
0.32406
0.341803
0.345003
0.317878
0.217499
0.148223
0.187902
0.271121
0.25314
0.100214
0.1525
0.120892
0.105142
0.1
0.1
0.100001
0.100001
0.100001
0.100001
0.100001
0.100002
0.100002
0.100002
0.100002
0.100003
0.100003
0.100003
0.100003
0.100003
0.100004
0.100004
0.100004
0.100004
0.100005
0.100015
0.100086
0.100414
0.101971
0.107528
0.121494
0.151242
0.193409
0.203494
0.178645
0.16455
0.164011
0.166533
0.164703
0.155315
0.147924
0.182316
0.166974
0.209196
0.188093
0.250938
0.229087
0.286764
0.270589
0.323979
0.313539
0.357806
0.354306
0.38881
0.389448
0.410504
0.414859
0.411767
0.418671
0.423362
0.426592
0.404587
0.41339
0.42136
0.383553
0.395359
0.411951
0.418345
0.406992
0.373782
0.360983
0.37463
0.386378
0.359995
0.309457
0.298514
0.337076
0.357706
0.354279
0.330671
0.229409
0.198642
0.284443
0.266354
0.10568
0.100022
0.100552
0.160722
0.125915
0.1
0.1
0.100001
0.100001
0.100001
0.100001
0.100001
0.100002
0.100002
0.100002
0.100002
0.100003
0.100003
0.100003
0.100003
0.100004
0.100004
0.100004
0.100004
0.100006
0.10002
0.100133
0.10072
0.103382
0.111235
0.127006
0.155019
0.194674
0.205947
0.18482
0.149923
0.155106
0.14432
0.146671
0.14421
0.14353
0.13786
0.128445
0.168689
0.151726
0.206473
0.18486
0.260486
0.238138
0.299305
0.281371
0.346829
0.335796
0.388028
0.384209
0.414993
0.413224
0.427123
0.426312
0.425184
0.42325
0.427932
0.431839
0.432849
0.432127
0.421441
0.429801
0.435687
0.399023
0.411664
0.42856
0.434835
0.423862
0.388131
0.374355
0.388744
0.401787
0.372955
0.322357
0.311748
0.349552
0.370501
0.36707
0.343399
0.242629
0.211638
0.298325
0.281029
0.106992
0.10002
0.1006
0.172537
0.133806
0.1
0.1
0.100001
0.100001
0.100001
0.100001
0.100001
0.100002
0.100002
0.100002
0.100002
0.100003
0.100003
0.100003
0.100003
0.100004
0.100004
0.100004
0.100006
0.100026
0.100201
0.101215
0.105574
0.11646
0.133918
0.160005
0.197048
0.209132
0.191308
0.152291
0.133083
0.135572
0.126065
0.129346
0.124477
0.124368
0.131971
0.119881
0.165106
0.14733
0.216056
0.195105
0.284531
0.264654
0.321391
0.303956
0.376937
0.366688
0.409546
0.406168
0.421282
0.418931
0.416842
0.414698
0.430367
0.427327
0.423623
0.419327
0.437761
0.437149
0.434866
0.430514
0.437129
0.441636
0.442211
0.415422
0.428547
0.443232
0.448178
0.4402
0.40345
0.388305
0.40402
0.418202
0.386764
0.335583
0.325696
0.362399
0.384163
0.380442
0.356446
0.258146
0.227401
0.313209
0.297062
0.108369
0.100032
0.10101
0.188831
0.143472
0.1
0.1
0.100001
0.100001
0.100001
0.100001
0.100001
0.100002
0.100002
0.100002
0.100003
0.100003
0.100003
0.100003
0.100004
0.100004
0.100004
0.100006
0.100033
0.100292
0.101965
0.108757
0.123229
0.141917
0.166359
0.200473
0.212822
0.197623
0.160504
0.123953
0.128697
0.117097
0.120479
0.111282
0.113849
0.112823
0.110585
0.133438
0.118488
0.174366
0.153166
0.245377
0.225885
0.322096
0.305484
0.353663
0.338479
0.401886
0.395421
0.410351
0.408818
0.41533
0.411832
0.408995
0.406714
0.424185
0.417116
0.410041
0.403655
0.440158
0.435059
0.426662
0.416468
0.446329
0.445881
0.441497
0.432282
0.444612
0.450507
0.454251
0.452349
0.419871
0.403486
0.420395
0.435024
0.401632
0.348988
0.339749
0.375498
0.398586
0.394272
0.369411
0.275447
0.246366
0.328234
0.313491
0.112128
0.100405
0.104158
0.209041
0.159518
0.1
0.1
0.100001
0.100001
0.100001
0.100001
0.100002
0.100002
0.100003
0.100004
0.100005
0.100005
0.100006
0.100006
0.100005
0.100005
0.100007
0.100038
0.100399
0.102984
0.112998
0.131199
0.150753
0.173802
0.20511
0.216926
0.203575
0.168106
0.125346
0.109105
0.110713
0.105716
0.107255
0.104141
0.104569
0.109374
0.105108
0.14746
0.123494
0.203345
0.176244
0.288681
0.26959
0.362045
0.348087
0.386393
0.374961
0.407258
0.404729
0.390608
0.39119
0.393966
0.392358
0.398547
0.394836
0.392429
0.391073
0.405679
0.395502
0.386691
0.37975
0.432625
0.420341
0.406021
0.391464
0.448622
0.44171
0.429368
0.448175
0.455898
0.45123
0.453782
0.457667
0.436651
0.419574
0.437091
0.450853
0.417286
0.36201
0.353218
0.388768
0.413676
0.408609
0.382182
0.293954
0.268222
0.342661
0.329594
0.124961
0.110338
0.119647
0.23495
0.193135
0.1
0.1
0.100001
0.100001
0.100001
0.100002
0.100004
0.100006
0.100011
0.100015
0.100018
0.100018
0.100016
0.100013
0.10001
0.100011
0.100043
0.100492
0.104092
0.117759
0.139736
0.160239
0.18229
0.210749
0.221413
0.20904
0.174835
0.131611
0.103977
0.105847
0.102485
0.103014
0.101559
0.101953
0.101874
0.101435
0.109575
0.103918
0.172332
0.136519
0.244431
0.211114
0.332425
0.312529
0.386001
0.374739
0.40048
0.394378
0.395486
0.397332
0.395528
0.372634
0.374936
0.38088
0.377806
0.374906
0.372153
0.371049
0.37125
0.378066
0.366595
0.357516
0.351127
0.413057
0.394861
0.376738
0.360033
0.4417
0.426133
0.406489
0.458982
0.460941
0.442209
0.443913
0.456666
0.452544
0.436056
0.45317
0.461619
0.433503
0.374579
0.365961
0.402326
0.429356
0.423493
0.395031
0.31297
0.292428
0.356208
0.344873
0.159644
0.193914
0.19079
0.269338
0.248286
0.1
0.1
0.100001
0.100002
0.100005
0.100011
0.100024
0.100045
0.100069
0.100082
0.100079
0.100065
0.100046
0.100031
0.100024
0.100052
0.100548
0.10504
0.122141
0.147982
0.170009
0.191563
0.217282
0.226192
0.213998
0.180572
0.137084
0.105781
0.100827
0.101122
0.100538
0.10065
0.100457
0.100459
0.101476
0.100658
0.113607
0.104213
0.200361
0.153598
0.284766
0.246832
0.359466
0.337715
0.388133
0.378085
0.396205
0.39376
0.383924
0.386918
0.375439
0.378158
0.351828
0.35573
0.364393
0.360049
0.34772
0.346495
0.346729
0.348686
0.345612
0.333979
0.325697
0.321477
0.384974
0.36361
0.343729
0.32619
0.424286
0.40205
0.377904
0.464132
0.460006
0.424358
0.426729
0.446937
0.46368
0.452468
0.465255
0.467156
0.450019
0.386945
0.378243
0.416423
0.445352
0.439144
0.408323
0.331645
0.31756
0.368912
0.359032
0.245994
0.249637
0.293926
0.305974
0.303556
0.1
0.100001
0.100005
0.100014
0.100037
0.100089
0.100174
0.10027
0.100326
0.100312
0.100249
0.100173
0.10011
0.100072
0.100078
0.100567
0.105706
0.125608
0.155379
0.179716
0.201311
0.224401
0.231182
0.218469
0.185309
0.141839
0.108943
0.100385
0.10077
0.100154
0.100208
0.100121
0.100128
0.100238
0.100145
0.101593
0.100549
0.120617
0.105931
0.213312
0.161405
0.306576
0.264443
0.362804
0.340165
0.367139
0.356624
0.379668
0.380179
0.372804
0.368541
0.372237
0.356609
0.359669
0.329164
0.333961
0.343895
0.338977
0.319945
0.319874
0.321622
0.324932
0.311981
0.301775
0.296604
0.294652
0.353882
0.331182
0.310847
0.294131
0.400561
0.374755
0.348769
0.463874
0.451256
0.402185
0.406736
0.431148
0.46982
0.465951
0.472429
0.468406
0.465354
0.399519
0.390306
0.431371
0.461925
0.455815
0.422294
0.348888
0.33967
0.38103
0.371967
0.315863
0.147065
0.300456
0.33463
0.338599
0.100003
0.100011
0.100043
0.100133
0.100314
0.100658
0.101076
0.101353
0.101297
0.101011
0.100672
0.100403
0.100238
0.100157
0.100574
0.105953
0.128051
0.161677
0.189042
0.211276
0.231801
0.236337
0.222494
0.189181
0.145701
0.111248
0.100887
0.100059
0.10009
0.100034
0.100039
0.100051
0.100035
0.100219
0.1001
0.101964
0.100587
0.124088
0.107167
0.213144
0.161093
0.307884
0.264807
0.340741
0.318038
0.332644
0.32847
0.307481
0.361964
0.363839
0.334504
0.335106
0.34856
0.352889
0.329527
0.332149
0.304582
0.309031
0.318088
0.313602
0.293998
0.294659
0.297043
0.300528
0.281823
0.274887
0.271661
0.270362
0.323846
0.301071
0.281886
0.267326
0.375763
0.348889
0.322493
0.456987
0.43751
0.380564
0.388533
0.413729
0.472794
0.474394
0.477182
0.463836
0.475702
0.412492
0.402484
0.447017
0.475633
0.471971
0.436995
0.363415
0.356614
0.39272
0.383461
0.345489
0.123821
0.291771
0.354575
0.358998
0.10003
0.100106
0.100384
0.101056
0.102183
0.103861
0.104991
0.104956
0.103911
0.102591
0.101483
0.100772
0.100393
0.100613
0.10588
0.129288
0.166709
0.197594
0.221108
0.239206
0.24159
0.22623
0.192449
0.148945
0.113044
0.101613
0.100042
0.100099
0.100014
0.100019
0.100015
0.100013
0.100044
0.100023
0.100257
0.100106
0.102117
0.100689
0.123993
0.107322
0.199062
0.152608
0.286874
0.246394
0.292307
0.272021
0.298565
0.298256
0.250112
0.247537
0.334166
0.335046
0.298639
0.298309
0.322311
0.326244
0.293499
0.295412
0.276501
0.279466
0.285659
0.282548
0.26976
0.270032
0.271563
0.273847
0.257614
0.252236
0.249116
0.247023
0.297725
0.275932
0.258309
0.245456
0.353913
0.327281
0.301471
0.446212
0.423526
0.36314
0.37612
0.399694
0.472043
0.480642
0.480056
0.457421
0.483774
0.426087
0.414875
0.463476
0.485656
0.485214
0.452389
0.375318
0.369995
0.403868
0.393665
0.355966
0.185053
0.319587
0.368967
0.371293
0.100261
0.10083
0.102629
0.106111
0.11048
0.113924
0.114478
0.112372
0.108711
0.104906
0.102376
0.101079
0.100803
0.105446
0.12949
0.170225
0.205011
0.230381
0.246382
0.246836
0.229797
0.195482
0.151999
0.114668
0.102073
0.100137
0.10001
0.100014
0.100009
0.100009
0.100014
0.10001
0.100053
0.100023
0.1003
0.100131
0.102087
0.100732
0.120704
0.106662
0.174186
0.138527
0.245316
0.211846
0.243485
0.237006
0.210474
0.253418
0.251909
0.213651
0.210452
0.296994
0.297902
0.254101
0.254292
0.288593
0.291296
0.252625
0.253587
0.246143
0.247143
0.249312
0.248157
0.245796
0.245251
0.244958
0.245305
0.236984
0.231797
0.228413
0.225554
0.277535
0.256606
0.239742
0.227343
0.337801
0.312683
0.28842
0.437367
0.416823
0.353165
0.376735
0.397191
0.470854
0.486312
0.483329
0.455424
0.490987
0.439984
0.426954
0.479412
0.494114
0.495425
0.467477
0.385578
0.380652
0.414151
0.403069
0.369422
0.342098
0.373189
0.37927
0.380879
0.101733
0.10468
0.11107
0.118506
0.12371
0.125422
0.123418
0.11876
0.112913
0.107021
0.102932
0.101387
0.105178
0.128931
0.172226
0.210976
0.238734
0.253129
0.251949
0.233224
0.198491
0.155205
0.116402
0.102498
0.100205
0.100012
0.100007
0.100007
0.100008
0.100007
0.100015
0.10001
0.100063
0.100028
0.100314
0.100147
0.10189
0.100717
0.11545
0.105411
0.145613
0.123441
0.191931
0.169625
0.20775
0.206329
0.166288
0.174719
0.22146
0.217541
0.203891
0.196414
0.254296
0.254421
0.224811
0.227106
0.25057
0.251724
0.226706
0.227899
0.219132
0.219476
0.221944
0.22057
0.223163
0.221194
0.21983
0.219178
0.218843
0.213216
0.20933
0.206445
0.265798
0.244885
0.227586
0.214273
0.330827
0.307742
0.28445
0.438232
0.420362
0.355892
0.383668
0.402587
0.472317
0.492154
0.488029
0.457982
0.498995
0.453028
0.437907
0.491905
0.502422
0.503256
0.480987
0.394533
0.389144
0.423861
0.411692
0.384392
0.341966
0.39216
0.38718
0.388802
0.107857
0.116025
0.126172
0.133023
0.135583
0.133785
0.12855
0.121597
0.11419
0.107542
0.103006
0.105251
0.127308
0.172789
0.215435
0.245851
0.259257
0.256805
0.236511
0.201488
0.15868
0.118419
0.102991
0.100266
0.100019
0.100006
0.100006
0.100006
0.100007
0.100008
0.100007
0.100016
0.10001
0.100065
0.10003
0.100306
0.100151
0.101565
0.100655
0.109967
0.103939
0.122624
0.111555
0.150294
0.13603
0.188961
0.18154
0.159029
0.168631
0.218096
0.21139
0.219115
0.204909
0.228261
0.228133
0.223674
0.227325
0.223518
0.225023
0.224814
0.227129
0.20775
0.210408
0.215745
0.212655
0.204533
0.203988
0.204309
0.205828
0.205288
0.19997
0.197791
0.197542
0.262098
0.24133
0.223884
0.210507
0.334517
0.312609
0.290699
0.443147
0.429095
0.36462
0.399551
0.413973
0.476593
0.499227
0.491788
0.464067
0.506118
0.4651
0.448849
0.500429
0.509491
0.509534
0.49304
0.402381
0.396224
0.433194
0.420111
0.395086
0.242674
0.389949
0.394078
0.39603
0.121959
0.132697
0.141204
0.144309
0.142585
0.137162
0.129681
0.121188
0.112897
0.106447
0.105961
0.126743
0.172261
0.218668
0.25153
0.264478
0.261251
0.239619
0.204419
0.162303
0.120821
0.103603
0.100338
0.100025
0.100006
0.100006
0.100006
0.100006
0.100007
0.100008
0.100007
0.100016
0.100011
0.100064
0.10003
0.100276
0.100142
0.101147
0.100543
0.105231
0.102451
0.116133
0.107718
0.151333
0.139733
0.128654
0.191319
0.179351
0.164712
0.181151
0.244855
0.23277
0.263746
0.242939
0.22846
0.228652
0.254182
0.259028
0.218779
0.221605
0.248341
0.253766
0.211628
0.216987
0.229113
0.223031
0.198175
0.200249
0.203347
0.207231
0.201971
0.198855
0.198896
0.201801
0.269972
0.251136
0.235567
0.224118
0.346101
0.327942
0.311784
0.451145
0.437076
0.385141
0.412327
0.424245
0.482032
0.503599
0.496805
0.470213
0.510486
0.478072
0.459609
0.507806
0.513388
0.513652
0.502528
0.409473
0.402571
0.443716
0.428263
0.404094
0.216396
0.381711
0.401466
0.403876
0.139688
0.147899
0.151126
0.14974
0.144834
0.137323
0.127933
0.118373
0.110602
0.108159
0.127044
0.171646
0.220613
0.255532
0.268516
0.264985
0.242416
0.207233
0.165741
0.123672
0.104363
0.100428
0.100031
0.100006
0.100006
0.100006
0.100006
0.100006
0.100007
0.100008
0.100007
0.100016
0.100011
0.100055
0.100027
0.100218
0.100116
0.100703
0.100385
0.103198
0.101394
0.121456
0.108206
0.168604
0.149812
0.133786
0.152659
0.221312
0.200299
0.191037
0.216217
0.298223
0.282871
0.317725
0.294242
0.257869
0.259181
0.30899
0.313196
0.23566
0.242303
0.299265
0.306517
0.241423
0.251128
0.27127
0.261293
0.206647
0.214459
0.222808
0.23174
0.218529
0.218547
0.223536
0.231458
0.298085
0.286213
0.276931
0.271194
0.36953
0.358764
0.355732
0.458154
0.448288
0.407172
0.444984
0.444676
0.487561
0.507574
0.501901
0.478017
0.513972
0.491908
0.475244
0.511781
0.519804
0.5223
0.510796
0.416211
0.411093
0.454206
0.436992
0.409118
0.251287
0.377779
0.408635
0.412224
0.153256
0.156024
0.155266
0.151489
0.144979
0.135818
0.125555
0.116347
0.112431
0.128642
0.172036
0.221925
0.257953
0.271132
0.267563
0.244572
0.20975
0.168962
0.126959
0.10527
0.100538
0.10004
0.100007
0.100005
0.100006
0.100006
0.100005
0.100006
0.100006
0.100007
0.100008
0.100007
0.100015
0.10001
0.10004
0.100023
0.100129
0.100074
0.10044
0.100215
0.102928
0.101085
0.151924
0.151042
0.12947
0.115389
0.201352
0.175164
0.177997
0.269035
0.242609
0.229406
0.258305
0.353839
0.338433
0.360607
0.336856
0.311531
0.313278
0.364642
0.371176
0.28131
0.290641
0.362449
0.368975
0.297197
0.310023
0.33385
0.322181
0.243579
0.256411
0.270415
0.283797
0.27126
0.274447
0.2852
0.298485
0.354209
0.352575
0.352786
0.354138
0.404163
0.40693
0.418862
0.471559
0.469424
0.442183
0.458005
0.465264
0.494859
0.513075
0.509317
0.490402
0.521855
0.50508
0.489198
0.519135
0.528995
0.532173
0.514997
0.427965
0.418979
0.468764
0.454802
0.411742
0.154539
0.355612
0.417084
0.420796
0.159001
0.158883
0.156637