/*--------------------------------*- C++ -*----------------------------------*\
  =========                 |
  \\      /  F ield         | OpenFOAM: The Open Source CFD Toolbox
   \\    /   O peration     | Website:  https://openfoam.org
    \\  /    A nd           | Version:  dev
     \\/     M anipulation  |
\*---------------------------------------------------------------------------*/
FoamFile
{
    version     2.0;
    format      ascii;
    class       volScalarField;
    location    "2500";
    object      alphat;
}
// * * * * * * * * * * * * * * * * * * * * * * * * * * * * * * * * * * * * * //

dimensions      [1 -1 -1 0 0 0 0];

internalField   nonuniform List<scalar> 
9841
(
0.000150203
0.00015413
0.000146624
0.000141137
0.000184364
0.000131333
0.000130771
0.000194263
0.000174748
0.000124479
0.000125918
0.000187334
0.000200515
0.000150943
0.000122624
0.000122538
0.00016882
0.000215506
0.0001863
0.000136991
0.00012132
0.00012066
0.000151309
0.00021464
0.000211551
0.000159346
0.000131114
0.000120335
0.000119998
0.000140108
0.000204901
0.000226647
0.000191048
0.000143322
0.000127744
0.000119656
0.000119742
0.000132117
0.000182875
0.000234052
0.000217768
0.000163612
0.000135741
0.000125314
0.000119158
0.000119567
0.000127529
0.000160597
0.000229863
0.000233724
0.000191053
0.000147008
0.000131353
0.000123542
0.000118765
0.000119381
0.000124817
0.000147426
0.000215509
0.000245103
0.000220145
0.000164674
0.000138483
0.000128259
0.000122199
0.000118449
0.000118959
0.000123256
0.000137841
0.000189912
0.00024823
0.000239723
0.000188496
0.00014855
0.000133362
0.000125922
0.000121191
0.000118202
0.000118445
0.000122551
0.000132112
0.000166404
0.000242098
0.000250704
0.000217105
0.000163653
0.000139713
0.000129778
0.00012413
0.0001204
0.000118001
0.000117991
0.000121974
0.000128624
0.000152832
0.000224776
0.000260531
0.000240555
0.000184752
0.000148654
0.000134268
0.000127273
0.000122769
0.000119755
0.000117852
0.000117749
0.000121445
0.000126458
0.000142493
0.000197865
0.000261347
0.000256935
0.000211024
0.000161377
0.000139971
0.000130544
0.000125267
0.000121663
0.000119217
0.000117681
0.000117616
0.00012074
0.00012507
0.000136094
0.000172245
0.000254627
0.000266492
0.000238116
0.000180247
0.000147746
0.000134489
0.000127862
0.00012367
0.000120765
0.000118828
0.000117564
0.000117608
0.000120092
0.000124321
0.000131959
0.000158818
0.000236706
0.000275278
0.000257875
0.000202802
0.000159113
0.000139692
0.000130804
0.000125748
0.000122378
0.000120028
0.00011841
0.000117461
0.000117737
0.000119528
0.000123699
0.000129345
0.00014815
0.000208746
0.000275794
0.000272432
0.000229421
0.000174146
0.000146639
0.000134318
0.000128025
0.000124077
0.000121342
0.000119426
0.000118096
0.000117374
0.000117834
0.000118862
0.000122929
0.000127487
0.000140881
0.000181761
0.000269226
0.000280957
0.000254769
0.000194929
0.000155758
0.000138875
0.000130677
0.000125923
0.000122714
0.000120487
0.000118896
0.00011783
0.000117302
0.000117874
0.000118265
0.000122101
0.000125986
0.00013598
0.000167075
0.000253608
0.000289141
0.000272734
0.000217499
0.000168703
0.000144753
0.000133711
0.00012789
0.000124184
0.000121618
0.000119784
0.000118458
0.000117601
0.000117241
0.000117852
0.000117815
0.000121343
0.000124956
0.000132457
0.000156715
0.00022681
0.000291311
0.000285946
0.000243767
0.000185221
0.00015232
0.000137647
0.000130193
0.000125713
0.00012272
0.000120686
0.000119189
0.000118079
0.000117406
0.000117192
0.00011781
0.000117571
0.000120653
0.000124126
0.000129965
0.000148617
0.000201367
0.000286111
0.000294088
0.000266757
0.000206172
0.000162611
0.000142594
0.000132913
0.000127472
0.000123953
0.000121599
0.000119934
0.00011868
0.000117758
0.000117244
0.000117153
0.000117758
0.000117361
0.00011985
0.000123344
0.000128151
0.000142762
0.000180783
0.000273896
0.000301888
0.000285065
0.000228354
0.000176322
0.000148838
0.000136277
0.000129496
0.000125339
0.000122479
0.000120667
0.000119305
0.000118252
0.000117487
0.000117113
0.000117126
0.000117698
0.000117169
0.000119135
0.000122582
0.000126748
0.000138632
0.000169534
0.000255565
0.000306106
0.000297125
0.000252738
0.000193649
0.000156896
0.000140429
0.000131929
0.000126872
0.000123667
0.000121392
0.000119903
0.000118781
0.000117892
0.000117263
0.000117011
0.000117109
0.000117632
0.000116945
0.000118561
0.000121892
0.000125644
0.000135651
0.000162247
0.00023361
0.000303928
0.000306223
0.000274201
0.000213146
0.000167858
0.000145363
0.000134738
0.000128695
0.000124871
0.000122207
0.000120495
0.00011929
0.000118347
0.000117588
0.000117083
0.00011694
0.000117104
0.000117554
0.000116695
0.000118144
0.000121331
0.00012477
0.000133609
0.000156417
0.000213188
0.000298844
0.000311732
0.00029317
0.000234277
0.000181487
0.00015169
0.000138154
0.000130795
0.000126243
0.000123273
0.000121138
0.000119777
0.000118788
0.000117988
0.000117346
0.000116948
0.000116899
0.000117111
0.000117439
0.000116469
0.000117889
0.000120901
0.000124122
0.000132304
0.000152182
0.000197065
0.000288249
0.000317762
0.000305154
0.000254179
0.000197792
0.000159971
0.000142157
0.00013328
0.000127869
0.0001244
0.000121909
0.000120295
0.000119202
0.000118377
0.000117701
0.00011716
0.000116861
0.000116903
0.000117131
0.000117273
0.00011631
0.000117836
0.000120579
0.000123677
0.00013162
0.000149526
0.000185592
0.000274729
0.000320998
0.000314219
0.000276076
0.000215198
0.000170617
0.000147087
0.000136074
0.000129768
0.000125638
0.000122903
0.000120917
0.00011963
0.000118732
0.000118059
0.00011748
0.000117034
0.000116842
0.000116953
0.000117168
0.00011703
0.000116281
0.000118011
0.000120395
0.000123458
0.000131464
0.000148456
0.000179371
0.000261432
0.000320183
0.000321303
0.000293547
0.000234083
0.000183215
0.000153426
0.000139368
0.000131853
0.000127147
0.000123939
0.000121654
0.000120146
0.000119102
0.000118386
0.000117818
0.000117317
0.000116976
0.000116905
0.000117064
0.00011723
0.000116742
0.000116524
0.000118428
0.000120371
0.00012353
0.000131833
0.000148713
0.000177042
0.00024933
0.00031771
0.000325259
0.000308264
0.000252257
0.000197659
0.000161274
0.000143274
0.000134237
0.000128762
0.000125129
0.000122586
0.000120758
0.000119549
0.000118714
0.000118133
0.000117646
0.00011723
0.000117014
0.000117064
0.00011725
0.000117315
0.000116584
0.000117237
0.000119081
0.000120524
0.000124001
0.000132923
0.000150985
0.000177271
0.000240251
0.000312522
0.000329161
0.000318243
0.000269027
0.000212894
0.000170739
0.000147936
0.000136864
0.000130574
0.000126465
0.00012357
0.000121492
0.00012009
0.000119099
0.000118448
0.000117982
0.000117559
0.000117238
0.000117174
0.000117359
0.000117552
0.000117447
0.00011656
0.000118079
0.000119621
0.000120999
0.000125065
0.000134922
0.000155628
0.000179984
0.000233345
0.000306543
0.000332645
0.000324694
0.000285322
0.000228508
0.000181543
0.000153473
0.00013983
0.000132538
0.000127882
0.000124675
0.00012236
0.000120716
0.000119597
0.000118822
0.000118325
0.000117937
0.000117571
0.000117366
0.000117494
0.000117854
0.000118006
0.000117659
0.000116713
0.000118191
0.000119781
0.000122137
0.000127123
0.000138271
0.000160953
0.00018415
0.000228488
0.000299472
0.000333551
0.000329989
0.000299691
0.000243117
0.000193494
0.000160077
0.00014318
0.000134641
0.000129397
0.00012586
0.000123284
0.000121434
0.000120194
0.000119308
0.000118739
0.000118353
0.000118004
0.000117694
0.000117633
0.000117999
0.000118618
0.000118576
0.000117954
0.000117849
0.000118524
0.000119818
0.000124335
0.000130914
0.00014417
0.000167691
0.000190226
0.000225878
0.000291796
0.000333382
0.000333413
0.000310852
0.000257281
0.00020562
0.000167797
0.000147031
0.000136901
0.000131026
0.000127074
0.000124282
0.000122238
0.000120848
0.000119887
0.000119279
0.000118856
0.000118546
0.000118229
0.000117982
0.00011806
0.000118607
0.000119486
0.000119435
0.000117704
0.000118701
0.000119452
0.000120983
0.000120374
0.000125856
0.000138244
0.000153908
0.000175484
0.000196612
0.000225471
0.000284681
0.000332362
0.000335392
0.000319958
0.000269705
0.00021787
0.000176295
0.000151456
0.000139295
0.000132673
0.000128339
0.000125326
0.000123116
0.000121559
0.000120506
0.000119893
0.000119479
0.000119225
0.000118992
0.000118804
0.000118798
0.000119109
0.000119987
0.000120994
0.000119767
0.000120886
0.00011713
0.000118796
0.000121268
0.000136757
0.000124461
0.000128071
0.000147531
0.000168011
0.000184111
0.000202675
0.000226411
0.000278665
0.000328614
0.000335748
0.000325979
0.000280775
0.000229417
0.000185471
0.000156603
0.000141886
0.000134326
0.000129623
0.000126367
0.000124037
0.000122342
0.000121191
0.000120506
0.000120152
0.000119994
0.000119935
0.000119746
0.000119732
0.000120178
0.000121022
0.000121479
0.000121738
0.000121841
0.00012195
0.000122571
0.000117176
0.000114655
0.000102859
0.000102696
0.000119546
0.000160299
0.000144908
0.000133873
0.000153135
0.000182315
0.000193656
0.000208075
0.00022725
0.000273446
0.000323939
0.000335985
0.000329497
0.000289739
0.000240098
0.000194857
0.0001625
0.000144748
0.000136052
0.000130893
0.000127418
0.000124989
0.00012317
0.000121916
0.000121149
0.000120827
0.000120793
0.000120906
0.000120925
0.0001208
0.000121118
0.000122023
0.000121985
0.000122512
0.000122486
0.000112929
0.000114648
0.000110888
0.000101723
9.93201e-05
8.98737e-05
8.90035e-05
0.000118979
0.000147057
0.00018609
0.000151136
0.000159975
0.000187786
0.000202273
0.000212399
0.000228235
0.000268429
0.000318715
0.000334371
0.000330732
0.000297682
0.000249534
0.000204108
0.000168919
0.000148122
0.000137787
0.00013215
0.00012842
0.000125857
0.000124011
0.000122655
0.000121842
0.00012151
0.000121601
0.000121952
0.000122367
0.000122508
0.000122376
0.000122789
0.000122938
0.000123226
0.000122957
0.000123359
0.000114687
9.81718e-05
0.000107403
9.65565e-05
8.86455e-05
8.70328e-05
7.86696e-05
7.79474e-05
0.000119196
0.000135307
0.000207723
0.00018481
0.000165886
0.000187695
0.000204519
0.000214771
0.000228794
0.000263264
0.000312986
0.00033213
0.000330667
0.000304024
0.000257337
0.000212877
0.000175666
0.000151954
0.000139668
0.000133322
0.00012934
0.000126683
0.000124786
0.00012339
0.000122562
0.00012223
0.000122432
0.000123064
0.000123923
0.000124518
0.000124675
0.000124355
0.000123514
0.000124064
0.000123593
0.000123667
0.000115803
0.000115674
0.00010554
8.60375e-05
9.43687e-05
8.49632e-05
7.77684e-05
7.69393e-05
6.94025e-05
6.88756e-05
0.000119211
0.00013044
0.000197784
0.000221756
0.000177916
0.000182465
0.000202236
0.000214891
0.000227935
0.000258286
0.000306487
0.000329394
0.000329793
0.000308598
0.000264215
0.000220633
0.00018258
0.000156146
0.000141762
0.000134472
0.000130239
0.000127434
0.000125468
0.000124067
0.00012325
0.000122981
0.000123291
0.000124182
0.000125492
0.000126854
0.000127586
0.00012678
0.000124539
0.00012556
0.000123802
0.000124054
0.000117178
0.000118546
0.00010487
0.000104393
9.31883e-05
7.60249e-05
8.32259e-05
7.51346e-05
6.90199e-05
6.84377e-05
6.1819e-05
6.16251e-05
0.0001193
0.000128581
0.000185425
0.000238593
0.000206733
0.000176967
0.000192794
0.00021214
0.000225787
0.000251957
0.000299614
0.000326107
0.000327717
0.000311319
0.000269881
0.000227479
0.000189271
0.000160662
0.000144071
0.000135654
0.000131107
0.000128098
0.000126004
0.000124643
0.000123864
0.000123692
0.000124161
0.00012529
0.000127009
0.000128941
0.00012957
0.000129453
0.000126328
0.000127743
0.000124603
0.000125382
0.000121775
0.000123842
0.000104695
0.000106041
9.28023e-05
9.25788e-05
8.22588e-05
6.75732e-05
7.35926e-05
6.67959e-05
6.17819e-05
6.10975e-05
5.57814e-05
5.54976e-05
0.000119505
0.000129112
0.00017537
0.000239312
0.000231998
0.00018323
0.000181359
0.000202434
0.000221354
0.000244673
0.000291728
0.000322144
0.00032532
0.000312077
0.000273989
0.000233394
0.000195563
0.000165341
0.000146651
0.000136882
0.000131849
0.000128716
0.000126546
0.000125173
0.000124415
0.000124287
0.000124919
0.000126391
0.000128544
0.000130509
0.000131886
0.000130405
0.000128052
0.000128516
0.000125916
0.000126123
0.00012404
0.00012389
0.000108908
0.000113222
9.31712e-05
9.46484e-05
8.16708e-05
8.20136e-05
7.26099e-05
6.05483e-05
6.5302e-05
5.9705e-05
5.58225e-05
5.52188e-05
5.10992e-05
5.0719e-05
0.000119705
0.000131585
0.000174106
0.000235548
0.00024034
0.000197657
0.000177943
0.000188395
0.00021176
0.000236854
0.000282594
0.000317253
0.000322465
0.000312733
0.000276821
0.000238296
0.00020132
0.000170046
0.00014945
0.000138264
0.000132534
0.000129248
0.000127071
0.00012565
0.000124912
0.000124782
0.000125505
0.000127298
0.00012445
0.000121431
0.000124983
0.000131711
0.000127146
0.000124274
0.00012412
0.000120587
0.000122168
0.000118012
0.000120922
0.000116976
9.77563e-05
0.000105317
8.24124e-05
8.58755e-05
7.20557e-05
7.25908e-05
6.46145e-05
5.46185e-05
5.86681e-05
5.38891e-05
5.11427e-05
5.04219e-05
4.76907e-05
4.72333e-05
0.000120102
0.00013686
0.000178889
0.000227719
0.00023971
0.00021389
0.000180409
0.000180847
0.000200169
0.000228487
0.000272753
0.000311616
0.000318927
0.000312419
0.000278852
0.000242025
0.000206399
0.000174757
0.000152487
0.000139856
0.000133214
0.000129712
0.000127549
0.00012603
0.00012532
0.000125177
0.000125874
0.000127987
0.000117253
0.000110986
0.000115385
0.000125211
0.000120795
0.000117371
0.000115535
0.000111966
0.00011142
0.00010866
0.000110519
0.000105381
0.000110624
0.000105025
9.62545e-05
0.00010537
7.77738e-05
9.41801e-05
6.46569e-05
7.2493e-05
5.93559e-05
4.94823e-05
5.49355e-05
5.07153e-05
4.76542e-05
4.65295e-05
4.5759e-05
4.49908e-05
0.000120891
0.00014495
0.000188206
0.000221429
0.000235431
0.000221215
0.000185045
0.000179909
0.00019103
0.000220258
0.000264652
0.000305326
0.000314755
0.000310932
0.000280427
0.000244985
0.000210914
0.000179414
0.000155625
0.00014162
0.000134064
0.000130129
0.000127981
0.000126402
0.000125624
0.000125495
0.000126165
0.000128368
0.000113366
0.000106738
0.000126803
0.000128898
0.000124393
8.57772e-05
0.000113683
0.000124915
0.000110438
0.000128397
0.000108405
0.000127409
0.000105047
0.00012317
0.000103284
0.000115836
0.000103022
0.000108898
9.93453e-05
0.000103723
6.9434e-05
0.000100296
6.80802e-05
4.6434e-05
6.5664e-05
6.03389e-05
4.51422e-05
4.40762e-05
4.55251e-05
4.4281e-05
0.00012223
0.000155437
0.000198725
0.00021742
0.000226986
0.000221148
0.000192201
0.000181159
0.000187607
0.000213329
0.000258783
0.000299419
0.000310872
0.000308609
0.000281709
0.000247364
0.00021465
0.000183796
0.000158854
0.00014348
0.000135052
0.000130528
0.000128369
0.000126846
0.00012592
0.000125713
0.000126407
0.000128553
0.000112156
0.000106812
0.000136419
0.000152509
0.000186262
0.000144939
0.000184766
0.000149584
0.000186
0.000156415
0.00019637
0.000157397
0.000203944
0.000151223
0.00020294
0.000138174
0.000192441
0.000119848
0.000171291
0.000107903
0.000136905
9.85147e-05
0.000112496
9.69206e-05
5.29635e-05
9.46827e-05
9.07424e-05
4.42825e-05
4.72195e-05
4.69399e-05
4.60512e-05
0.000123941
0.000166335
0.000207943
0.000216389
0.000219819
0.000218554
0.00019623
0.000182908
0.000187957
0.000210015
0.000254623
0.000294651
0.000307426
0.000305839
0.000282592
0.000249143
0.000217758
0.000187754
0.000162038
0.000145411
0.000136112
0.000131012
0.000128684
0.000127282
0.000126327
0.00012598
0.000126604
0.000128768
0.000114929
0.000108243
0.000136119
0.000174901
0.000266962
0.00033692
0.00040098
0.000229809
0.000285584
0.000249057
0.000310152
0.000262263
0.000325131
0.000267806
0.000333962
0.000262795
0.000334044
0.000247235
0.000324776
0.000215065
0.000302417
0.000162065
0.000259785
0.000117397
0.000189714
0.000120099
8.62188e-05
0.000118877
0.000111194
4.56695e-05
7.37679e-05
5.15405e-05
4.97136e-05
0.000125763
0.000176237
0.000216435
0.000216975
0.000215766
0.000212355
0.000196648
0.000187017
0.000188929
0.000210438
0.000252368
0.000291149
0.000304582
0.000303131
0.000282844
0.000250656
0.00022049
0.000191393
0.000165243
0.000147415
0.000137264
0.000131648
0.00012882
0.000127603
0.000126828
0.000126376
0.00012695
0.000129038
0.000122111
0.000109865
0.000135095
0.000191155
0.000332792
0.000447901
0.000503565
0.000482657
0.000528369
0.000372841
0.000429653
0.000385419
0.000441071
0.000393708
0.000445753
0.000397155
0.000449627
0.000393652
0.000450972
0.000380789
0.000446078
0.000352221
0.000430362
0.000300013
0.000396397
0.000210604
0.000330847
0.000219638
9.86635e-05
0.000213839
0.000190373
5.92367e-05
8.83716e-05
6.43131e-05
5.98148e-05
0.000127752
0.000184943
0.000223847
0.000220086
0.000213157
0.000205394
0.000195788
0.000189946
0.000191516
0.000211577
0.000251937
0.000289069
0.000302394
0.000300803
0.00028266
0.000251724
0.000222685
0.000194727
0.000168554
0.000149314
0.000138315
0.000132268
0.000129028
0.000127857
0.000127297
0.000126995
0.000127513
0.00012952
0.000132418
0.000112983
0.000130638
0.00020565
0.000397419
0.000546057
0.000573292
0.000570089
0.000609819
0.000576266
0.00061645
0.000490367
0.000534647
0.000491335
0.000534454
0.000494245
0.000533752
0.000498031
0.000536808
0.000498717
0.000540201
0.000492787
0.000540489
0.000473857
0.000532606
0.000432018
0.000509538
0.000351482
0.000457904
0.000359449
0.000153666
0.000352488
0.000324769
8.02383e-05
0.000119974
0.000103313
8.31999e-05
0.000133507
0.000191373
0.000231051
0.000224796
0.000211368
0.000199647
0.000193285
0.000191456
0.00019506
0.000213201
0.000252351
0.000288065
0.000300994
0.000299013
0.000282271
0.000252553
0.000224627
0.000197576
0.00017188
0.000151092
0.000139287
0.000132889
0.000129425
0.000128151
0.000127661
0.000127714
0.000128364
0.000130156
0.000133046
0.000125658
0.000124103
0.000220496
0.000453016
0.000685877
0.000640183
0.000688625
0.000654323
0.000690269
0.000651894
0.000688877
0.000575797
0.000614679
0.000571001
0.000607362
0.000569942
0.000600128
0.000572956
0.000598839
0.000575864
0.00060106
0.000575009
0.000603883
0.000564936
0.000602349
0.000536306
0.000589914
0.000473556
0.000554681
0.000478132
0.000273413
0.0004692
0.000443212
9.14557e-05
0.000197434
0.000105074
7.76609e-05
0.000208115
0.000233894
0.000229884
0.000210642
0.000195675
0.000190756
0.000191457
0.000197459
0.00021607
0.000253402
0.000287698
0.000300292
0.000297822
0.000281865
0.00025341
0.000226373
0.00020059
0.000174895
0.000153102
0.000140221
0.000133447
0.000129837
0.000128604
0.000128245
0.000128436
0.000129532
0.000131314
0.000133526
0.000128105
0.000121564
0.000244162
0.000502247
0.000729299
0.000783072
0.000810168
0.000723443
0.000755956
0.000722751
0.000755037
0.000706549
0.000733859
0.000641802
0.000674336
0.000627936
0.000655178
0.00062021
0.000638585
0.000618945
0.000631596
0.000621879
0.000631034
0.000625243
0.000636532
0.000623483
0.00064165
0.000608354
0.000640199
0.000565469
0.000621201
0.0005681
0.000395141
0.00056046
0.000538951
0.000126635
0.000308949
5.8259e-05
8.14034e-05
0.000241432
0.000231246
0.000210759
0.000193484
0.000188134
0.000191244
0.000198791
0.000219072
0.000254566
0.000287999
0.000300131
0.000297197
0.000281572
0.000254333
0.00022833
0.000203188
0.000178099
0.000155337
0.000141205
0.000133751
0.000130206
0.000129156
0.000128944
0.000129552
0.000131596
0.000133802
0.000134171
0.000124148
0.000134719
0.000276303
0.000546427
0.00076352
0.000833281
0.000847981
0.000827854
0.000849758
0.000783123
0.000806554
0.000755831
0.000774244
0.000720046
0.000736787
0.00068003
0.000701155
0.000655378
0.000670506
0.00064104
0.000648276
0.000635234
0.000635837
0.000638206
0.000632558
0.000647019
0.000642166
0.000654965
0.00065535
0.00065352
0.000665906
0.000629559
0.000663391
0.000631885
0.000495252
0.000627068
0.000615357
0.000570689
0.000188569
0.000415194
2.73453e-05
9.69786e-05
0.000234839
0.00021034
0.00019194
0.00018693
0.000190439
0.00020009
0.00022143
0.000255999
0.000288684
0.000300482
0.000296984
0.000281475
0.0002554
0.00023037
0.000206385
0.000181258
0.000158164
0.000142216
0.000134021
0.000130497
0.000129899
0.000129838
0.000131272
0.000134395
0.000136406
0.000134792
0.00012116
0.000156292
0.000317963
0.000588486
0.000794171
0.00091023
0.000871804
0.000900523
0.000830349
0.000851437
0.0007916
0.000810606
0.000753338
0.00076735
0.000709351
0.000717213
0.000681753
0.000695079
0.000653128
0.00065724
0.000634492
0.00063161
0.000625633
0.000617738
0.000628574
0.000613485
0.0006436
0.000622945
0.000661571
0.000641684
0.000674629
0.000663091
0.00067029
0.000676563
0.000676711
0.000655194
0.000671055
0.000601739
0.000523107
0.00058476
0.000648526
0.0006694
0.000670308
0.000641089
0.0002719
0.000558615
0.00052215
0.000433855
1.89084e-05
0.000104377
0.000210315
0.000191081
0.000185204
0.000189865
0.000200526
0.000224024
0.000257322
0.00028932
0.000301261
0.000297167
0.000281479
0.000256691
0.000232765
0.000209393
0.000185437
0.000161438
0.000143341
0.000134535
0.000130846
0.000130581
0.000131374
0.000133507
0.000136825
0.00013929
0.000133931
0.000123465
0.000185439
0.000364964
0.000632774
0.000818952
0.000954637
0.000928891
0.000960754
0.000875539
0.000903225
0.00078489
0.000795768
0.000775594
0.000779442
0.000711726
0.000698372
0.00065995
0.000643056
0.00066273
0.000663837
0.000628024
0.00062413
0.000605458
0.0005944
0.000598376
0.000581909
0.000600141
0.000578597
0.000611972
0.000580823
0.00064927
0.000631592
0.000614056
0.000592057
0.000671873
0.000658229
0.000624524
0.000614973
0.000641077
0.000677993
0.000680363
0.000679465
0.000671815
0.000680962
0.000630388
0.000614319
0.000666896
0.000680378
0.000681246
0.000660994
0.000469532
0.000266609
0.000390755
0.000590623
0.00055522
1.21679e-05
0.000282157
0.00016131
7.86111e-05
0.000190163
0.000184519
0.000188558
0.000201545
0.000225423
0.000259858
0.000290417
0.00030234
0.00029772
0.000281681
0.000258159
0.000235485
0.000213788
0.000189714
0.000165321
0.000145143
0.000135193
0.000131311
0.000131342
0.000132824
0.000135614
0.000140212
0.000142642
0.000133767
0.000136498
0.000225716
0.000429841
0.000681958
0.000842797
0.000997187
0.00101428
0.000880227
0.00092393
0.000814988
0.000844899
0.000645897
0.00064858
0.000676394
0.00065633
0.000607423
0.000562187
0.00058035
0.000542541
0.000617304
0.000604267
0.000584647
0.000575973
0.000565084
0.000550752
0.000559712
0.000544245
0.000554991
0.000536983
0.000574186
0.00055468
0.000541348
0.000528795
0.000602202
0.00057894
0.000556706
0.000657456
0.000635314
0.000589268
0.000575471
0.000606924
0.000671957
0.000681124
0.000672061
0.000655337
0.000681816
0.000651652
0.00063732
0.000678058
0.000681963
0.000680859
0.000670736
0.000501859
0.000407677
0.000612253
0.000553271
8.09722e-05
2.47201e-06
1.37032e-05
0.000267152
0.000183322
0.000183057
0.000188038
0.000201816
0.000227784
0.000261363
0.000293533
0.000304467
0.000298865
0.000282219
0.000259809
0.000238171
0.000219367
0.000195931
0.000171794
0.000149065
0.000135831
0.000131755
0.000131975
0.0001341
0.000138942
0.000145385
0.000148037
0.000137274
0.000161794
0.000281907
0.000511833
0.000736964
0.000868393
0.00103975
0.00108833
0.000849065
0.000923823
0.000746069
0.000796091
0.000662887
0.000698323
0.000440789
0.000431254
0.000513679
0.00047037
0.000492899
0.000439493
0.000521732
0.000483622
0.000565758
0.000549075
0.000538207
0.000526291
0.000529999
0.000518409
0.000527866
0.000521575
0.000522448
0.000518178
0.000517989
0.000520066
0.000537726
0.000522924
0.000513153
0.000508478
0.000562793
0.000538189
0.000518065
0.000629466
0.000596918
0.000545073
0.000527667
0.000561643
0.000653213
0.000672351
0.000651616
0.000623982
0.000672611
0.000638021
0.000602751
0.000644255
0.000650268
0.000617515
0.000612589
0.000473054
0.000374341
0.000559932
0.0005067
8.55978e-05
1.59992e-06
1.17245e-05
0.000277049
0.000192822
0.000187
0.000202216
0.000228888
0.000264519
0.000296236
0.000309984
0.000300523
0.000283361
0.000261713
0.000243434
0.000225526
0.000205574
0.000178469
0.0001542
0.000137664
0.000132251
0.00013258
0.000136582
0.000144423
0.000153884
0.000156419
0.000146372
0.000196051
0.000353211
0.00061072
0.000797456
0.000897155
0.00108079
0.00116455
0.000948523
0.000661086
0.000717664
0.00053778
0.000598163
0.000442559
0.000481694
0.000299165
0.000271277
0.000387587
0.000339973
0.000438692
0.000390774
0.000469596
0.000436102
0.000512847
0.000494935
0.000507805
0.000496884
0.000518643
0.000514868
0.000523621
0.000528162
0.000532463
0.00053761
0.000508666
0.00051287
0.000520286
0.000529336
0.000504037
0.00049635
0.000495167
0.00049993
0.000518397
0.000497685
0.000484525
0.000587698
0.000548725
0.000498721
0.000480241
0.000511315
0.00061986
0.000650559
0.000617266
0.000580659
0.000623582
0.000582927
0.000552283
0.000589322
0.000592117
0.000567189
0.000564979
0.000439876
0.000356935
0.000517799
0.000474679
9.44526e-05
1.53362e-06
2.02454e-05
0.000277626
0.000173012
0.000202158
0.00023005
0.000266611
0.000301464
0.000314745
0.000305114
0.000284901
0.000265019
0.000248555
0.00023698
0.000214287
0.000186544
0.0001613
0.000142274
0.000134139
0.000134021
0.000139498
0.000150225
0.000163191
0.000165728
0.00016246
0.000242536
0.000448678
0.00071998
0.000861089
0.000929199
0.00112006
0.00124136
0.00108161
0.000535672
0.000624931
0.00040711
0.000469361
0.000289767
0.000343431
0.000258265
0.000263002
0.000253164
0.000210655
0.000343884
0.000298213
0.000397668
0.000359259
0.0004488
0.000425364
0.000484349
0.000468738
0.000508805
0.00050054
0.000552275
0.000554755
0.00053917
0.0005487
0.000557019
0.000564034
0.000509317
0.000521995
0.000536662
0.000551488
0.000479499
0.000482022
0.0004909
0.000505176
0.000477433
0.00046525
0.000462619
0.000538105
0.000496977
0.000457902
0.000439286
0.000463118
0.000575805
0.000604072
0.000572853
0.000529427
0.000571894
0.000543732
0.000521162
0.00054739
0.000548672
0.000530836
0.000531521
0.000417389
0.000349216
0.000493234
0.000455196
0.000107654
1.18321e-05
7.13044e-05
0.000262657
0.000172165
0.000230761
0.000269122
0.000305928
0.000322175
0.000311463
0.000289306
0.000269412
0.000259341
0.000247301
0.000232641
0.000205073
0.00017642
0.000152033
0.000139054
0.000136742
0.000141823
0.000154045
0.000169583
0.000173919
0.000185149
0.000308705
0.000561487
0.000828569
0.000923722
0.000962824
0.0011594
0.0013137
0.00119684
0.000604659
0.000272608
0.000305928
0.000215745
0.000240902
0.00018415
0.000196171
0.000183284
0.000177348
0.000235037
0.000194461
0.000320913
0.000279297
0.000400751
0.000375922
0.000460653
0.000444656
0.000489715
0.000476453
0.000553062
0.000547113
0.000600611
0.00060567
0.000609316
0.000608034
0.000565207
0.000577365
0.000587637
0.000595373
0.000522845
0.000541173
0.000529569
0.000518893
0.000468573
0.000480861
0.00049815
0.00049554
0.000446332
0.000445388
0.000453705
0.000484425
0.000447901
0.000427618
0.000409377
0.00042187
0.000523225
0.00055185
0.00051971
0.000474443
0.000527945
0.000517516
0.000501398
0.000517042
0.000511466
0.000500318
0.000504857
0.000404284
0.000341421
0.000477896
0.000444052
0.000154589
8.00458e-05
0.000159731
0.000257316
0.000197564
0.000271846
0.000311372
0.000330846
0.000319784
0.000296698
0.000277826
0.000268308
0.000267427
0.00025659
0.000233575
0.000200399
0.000171741
0.000149758
0.000141902
0.00014476
0.000156351
0.000173332
0.000180717
0.000212079
0.000384486
0.000680496
0.000929269
0.000982329
0.000998495
0.00119625
0.00138139
0.00129422
0.000717851
0.000204217
0.000246758
0.000178086
0.000191275
0.000150724
0.000163523
0.000137598
0.000141706
0.000162944
0.000142314
0.000251673
0.000195506
0.000346749
0.000305593
0.000429027
0.000411916
0.000508703
0.00049227
0.000537429
0.000524762
0.000608839
0.000607898
0.000580974
0.000523021
0.000524398
0.000532339
0.000528058
0.000511003
0.000508
0.00050759
0.00051581
0.000471011
0.000451725
0.000439886
0.00043504
0.000466784
0.000472897
0.000441995
0.000416152
0.000427912
0.000436139
0.000448821
0.000434655
0.00040619
0.000409684
0.000390882
0.000391685
0.000467425
0.000499568
0.000463511
0.000424078
0.00048192
0.000494164
0.00048196
0.000490669
0.000472303
0.000466472
0.000482527
0.000397629
0.000340681
0.00046482
0.000438177
0.000218131
0.00028385
0.000293197
0.00028705
0.000261444
0.000319949
0.000339138
0.000332602
0.000304608
0.000286861
0.000284818
0.000282024
0.000281113
0.000255191
0.000224062
0.000192253
0.000167173
0.000151567
0.000150079
0.000159856
0.000176968
0.000188579
0.000239085
0.000457266
0.000792544
0.00101729
0.0010341
0.00103437
0.00123598
0.00144467
0.00137895
0.000824103
0.000257622
0.000150871
0.000158705
0.000135839
0.000142987
0.000124377
0.000129207
0.000124079
0.000121874
0.000154629
0.000134115
0.00029532
0.000222618
0.000388505
0.000351596
0.000474966
0.000455428
0.000579332
0.000556954
0.000594285
0.000597635
0.000539288
0.000512838
0.000474776
0.0005006
0.000451136
0.000455902
0.000459478
0.000457808
0.000433372
0.000435743
0.000439669
0.000445357
0.000397676
0.000386716
0.000382459
0.000383537
0.000436486
0.00040596
0.000379295
0.000360256
0.000416977
0.000428852
0.000410484
0.000392608
0.000375149
0.000396738
0.000375851
0.000371664
0.000416453
0.000442875
0.000407052
0.000381441
0.000430635
0.000474201
0.000465726
0.000462076
0.000424286
0.000422784
0.000459571
0.000399463
0.000364532
0.000454523
0.000437807
0.000302077
0.000417658
0.000311169
0.00036755
0.00040192
0.000358306
0.000344161
0.000319727
0.000299188
0.000295317
0.000301363
0.00029041
0.000267686
0.000238933
0.000208089
0.000182977
0.000164413
0.000158194
0.000165568
0.000182894
0.000198693
0.000267504
0.000518301
0.000888072
0.00108791
0.00107971
0.00106816
0.00127472
0.00150165
0.00145211
0.00092001
0.000341991
0.000147046
0.000166438
0.000133101
0.000139261
0.000122757
0.000127554
0.00011677
0.000119005
0.000119592
0.000116977
0.000160323
0.00012857
0.000321182
0.000237475
0.000429041
0.000387329
0.000530612
0.000498489
0.000527387
0.000573439
0.000496581
0.000546849
0.000495107
0.000460088
0.000468736
0.000429318
0.000430406
0.000410547
0.000415131
0.000419215
0.000417176
0.00038636
0.000392415
0.000398326
0.000405416
0.000349255
0.00034562
0.000347509
0.000351653
0.000381703
0.000355961
0.000336918
0.000326087
0.000406361
0.000390524
0.000365929
0.000360314
0.000352483
0.000383152
0.000359024
0.000355136
0.000372742
0.000387437
0.00035448
0.000347253
0.000375294
0.000459113
0.000456584
0.000427419
0.000370935
0.000377421
0.000438391
0.000419457
0.000431201
0.000453305
0.000452348
0.000281884
0.000255365