/*--------------------------------*- C++ -*----------------------------------*\
  =========                 |
  \\      /  F ield         | OpenFOAM: The Open Source CFD Toolbox
   \\    /   O peration     | Website:  https://openfoam.org
    \\  /    A nd           | Version:  dev
     \\/     M anipulation  |
\*---------------------------------------------------------------------------*/
FoamFile
{
    version     2.0;
    format      ascii;
    class       volScalarField;
    location    "2500";
    object      CO2;
}
// * * * * * * * * * * * * * * * * * * * * * * * * * * * * * * * * * * * * * //

dimensions      [0 0 0 0 0 0 0];

internalField   nonuniform List<scalar> 
9841
(
8.03321e-28
2.45308e-27
1.40135e-27
4.10917e-27
6.25607e-27
9.11471e-28
3.84918e-27
1.27142e-26
8.01901e-27
7.15059e-28
3.80584e-27
2.2678e-26
1.7407e-26
5.84802e-27
3.09076e-28
8.12254e-27
2.89867e-26
2.99697e-26
1.58559e-26
3.91682e-27
2.56905e-28
6.29484e-27
3.23072e-26
6.7288e-26
3.84823e-26
1.31867e-26
1.80172e-27
5.04168e-29
7.22373e-27
4.37182e-26
1.06566e-25
8.02597e-26
3.54723e-26
7.76735e-27
8.43893e-28
2.94826e-29
2.40098e-26
7.55331e-26
1.76356e-25
1.42298e-25
7.69323e-26
2.51328e-26
2.70325e-27
3.13143e-28
1.50805e-29
1.01508e-25
1.66565e-25
3.31753e-25
2.64042e-25
1.28438e-25
6.41648e-26
1.1529e-26
1.55175e-27
9.88947e-29
7.48283e-30
2.16678e-25
4.58206e-25
6.22906e-25
5.07997e-25
2.62511e-25
1.28721e-25
4.5949e-26
5.59766e-27
7.63134e-28
5.20967e-29
1.24511e-30
2.97869e-25
1.0177e-24
1.18077e-24
9.55437e-25
6.01312e-25
2.65687e-25
8.97247e-26
2.62385e-26
2.24095e-27
3.57758e-28
3.1094e-29
7.13284e-31
3.87543e-25
1.25476e-24
2.79034e-24
1.99968e-24
1.27212e-24
5.85486e-25
2.174e-25
6.41339e-26
1.36759e-26
1.40878e-27
1.65153e-28
2.00895e-29
1.6108e-30
8.09938e-25
3.02218e-24
5.09348e-24
4.01695e-24
2.7613e-24
1.12863e-24
4.76396e-25
1.60905e-25
3.04524e-26
6.99184e-27
6.50451e-28
7.39296e-29
1.39777e-29
1.32257e-30
8.22744e-25
5.15651e-24
7.69165e-24
1.0755e-23
6.2653e-24
3.11892e-24
1.00907e-24
3.6628e-25
1.07904e-25
1.95718e-26
3.51556e-27
5.08037e-28
8.69737e-29
8.44806e-30
1.38473e-30
5.61859e-25
3.61913e-24
1.61733e-23
2.16755e-23
1.24131e-23
6.73458e-24
2.50868e-24
6.91637e-25
2.06943e-25
4.77597e-26
1.22008e-26
2.08966e-27
2.46731e-28
8.71393e-29
2.27739e-29
3.9045e-30
1.45242e-24
1.02487e-23
1.51742e-23
3.61296e-23
3.26937e-23
1.47515e-23
5.99273e-24
2.19545e-24
6.09372e-25
1.61299e-25
3.08603e-26
7.60905e-27
1.04467e-27
5.13902e-28
1.53375e-28
3.13658e-29
8.89385e-31
2.73282e-24
1.61614e-23
2.55308e-23
6.56701e-23
6.39036e-23
3.13862e-23
1.4987e-23
4.74941e-24
1.50836e-24
4.08158e-25
6.94303e-26
1.64333e-26
5.61209e-27
1.84842e-27
7.27421e-28
1.52712e-28
1.17631e-29
1.82826e-30
5.28411e-24
1.1628e-23
5.27514e-23
6.02423e-23
1.04108e-22
8.30149e-23
3.36062e-23
1.3079e-23
3.60373e-24
9.00004e-25
1.96736e-25
4.66839e-26
1.46946e-26
4.85818e-27
3.10254e-27
6.34966e-28
1.34999e-28
1.74971e-29
6.36958e-30
1.92577e-24
3.14167e-23
7.14471e-23
9.51215e-23
1.58368e-22
1.57936e-22
7.75075e-23
3.00677e-23
1.00692e-23
2.26389e-24
4.48235e-25
1.46473e-25
4.85111e-26
1.81155e-26
9.10599e-27
2.44792e-27
5.93445e-28
9.83262e-29
6.17032e-29
3.39189e-29
2.35452e-24
2.01906e-23
1.17696e-22
1.78875e-22
2.72055e-22
2.73851e-22
1.6421e-22
6.60996e-23
2.48799e-23
6.73169e-24
1.5503e-24
2.79713e-25
1.15014e-25
3.6946e-26
2.41362e-26
9.13073e-27
1.79616e-27
6.27614e-28
3.40983e-28
3.30687e-28
1.36461e-28
7.8419e-24
5.20605e-23
1.64747e-22
2.92834e-22
3.46714e-22
4.34118e-22
3.09285e-22
1.30045e-22
5.45675e-23
1.57394e-23
3.65197e-24
7.4406e-25
1.92898e-25
1.10438e-25
5.91889e-26
2.82915e-26
9.83095e-27
2.82201e-27
1.93433e-27
1.81493e-27
2.16644e-27
8.51422e-28
1.80817e-23
9.28612e-23
1.82591e-22
3.6205e-22
6.18018e-22
7.77881e-22
5.40221e-22
2.53814e-22
1.04596e-22
3.34554e-23
1.04493e-23
2.53072e-24
4.27879e-25
2.23169e-25
1.18316e-25
6.78448e-26
3.25848e-26
1.2077e-26
5.37069e-27
1.19843e-26
1.82309e-26
2.15278e-26
6.4472e-27
2.18917e-23
9.61415e-23
2.34508e-22
7.27016e-22
7.20833e-22
1.01068e-21
9.59565e-22
5.22624e-22
2.19451e-22
7.16065e-23
2.06327e-23
6.45722e-24
1.11181e-24
4.25369e-25
3.03745e-25
1.64482e-25
7.88442e-26
4.03978e-26
3.86285e-26
5.5855e-26
1.22354e-25
1.65521e-25
2.33792e-25
1.04049e-25
6.17964e-23
2.00392e-22
5.62712e-22
1.16658e-21
1.50963e-21
1.80948e-21
1.72247e-21
9.39173e-22
4.56432e-22
1.36671e-22
4.76425e-23
1.40621e-23
2.91236e-24
9.61013e-25
5.16395e-25
4.3809e-25
1.97564e-25
1.40263e-25
1.07014e-25
3.48365e-25
8.52532e-25
1.38012e-24
1.60422e-24
2.82215e-24
1.30645e-24
2.73902e-23
4.1279e-22
7.64958e-22
1.55026e-21
2.43084e-21
2.68983e-21
2.40145e-21
1.9123e-21
8.33104e-22
3.56516e-22
7.91711e-23
2.62154e-23
8.1565e-24
1.95115e-24
1.23315e-24
8.72778e-25
4.68685e-25
4.09286e-25
5.3894e-25
1.2311e-24
4.26561e-24
1.08091e-23
1.47069e-23
2.82949e-23
4.29836e-23
2.36958e-23
5.81339e-23
3.93021e-22
1.43405e-21
2.13022e-21
3.25818e-21
4.34984e-21
4.4454e-21
2.9511e-21
1.73569e-21
6.57002e-22
1.98518e-22
5.54409e-23
1.28056e-23
5.45572e-24
2.34206e-24
1.58464e-24
1.18946e-24
8.24296e-25
2.10491e-24
6.46372e-24
1.92773e-23
5.46213e-23
1.48665e-22
3.16401e-22
4.47152e-22
4.15239e-22
1.60742e-22
6.7656e-23
3.4028e-22
1.43542e-21
4.21067e-21
4.74914e-21
7.01793e-21
6.94712e-21
5.23302e-21
2.72617e-21
1.23686e-21
4.58911e-22
1.09351e-22
3.04573e-23
9.10464e-24
4.608e-24
3.10979e-24
2.45123e-24
2.74963e-24
6.05669e-24
2.39402e-23
9.09349e-23
2.86229e-22
9.80764e-22
1.73661e-21
4.50098e-21
5.47214e-21
4.82539e-21
3.26552e-21
6.14649e-23
3.00653e-22
2.46445e-21
5.9542e-21
9.13321e-21
1.18906e-20
1.11205e-20
8.59945e-21
5.09017e-21
2.23247e-21
8.65973e-22
2.77888e-22
7.08581e-23
1.6406e-23
9.51512e-24
4.90964e-24
4.73532e-24
6.27485e-24
1.73829e-23
6.0483e-23
3.42088e-22
1.40928e-21
4.75743e-21
1.28685e-20
3.11731e-20
5.02478e-20
5.19893e-20
4.995e-20
1.31219e-20
2.6203e-23
2.51067e-22
3.00501e-21
7.57405e-21
1.06573e-20
1.73817e-20
1.80893e-20
1.39855e-20
8.54687e-21
4.02106e-21
1.60906e-21
5.13392e-22
1.54348e-22
4.24918e-23
1.6436e-23
1.28586e-23
1.03626e-23
1.70323e-23
5.40476e-23
1.89355e-22
1.25275e-21
4.93157e-21
2.09944e-20
7.58934e-20
1.57012e-19
3.75393e-19
3.88305e-19
4.25433e-19
5.10078e-19
8.23828e-20
2.94422e-22
4.82799e-22
1.84961e-21
9.0994e-21
1.35928e-20
2.74845e-20
2.94542e-20
2.3883e-20
1.40038e-20
7.02688e-21
2.90874e-21
1.07444e-21
3.09208e-22
8.53808e-23
3.15183e-23
2.14954e-23
2.51593e-23
4.78984e-23
1.84485e-22
6.74479e-22
3.7335e-21
1.6809e-20
6.4601e-20
2.86304e-19
9.16479e-19
2.41578e-18
3.9856e-18
4.0558e-18
5.90535e-18
3.11023e-18
9.64846e-19
8.89176e-21
3.54416e-21
3.37699e-21
1.23703e-20
2.33114e-20
3.78261e-20
4.34463e-20
3.71074e-20
2.31199e-20
1.2126e-20
4.61857e-21
1.99936e-21
5.84898e-22
1.4625e-22
6.01965e-23
3.83893e-23
4.36544e-23
7.86503e-23
5.36952e-22
2.65342e-21
1.50682e-20
7.38645e-20
3.67004e-19
1.2413e-18
3.65856e-18
1.25242e-17
2.27469e-17
3.12117e-17
3.99452e-17
4.00167e-17
1.11201e-17
3.20207e-18
1.78739e-19
4.80296e-20
1.5924e-20
1.85011e-20
3.29831e-20
5.33195e-20
5.57679e-20
5.29651e-20
3.91574e-20
2.08112e-20
9.31137e-21
3.26393e-21
1.10732e-21
3.72046e-22
1.10504e-22
6.7854e-23
9.39073e-23
2.36878e-22
1.14186e-21
7.6223e-21
5.15699e-20
3.26592e-19
1.37967e-18
5.47451e-18
1.77702e-17
5.59283e-17
1.33037e-16
1.75312e-16
2.40372e-16
2.91059e-16
2.26514e-16
4.35448e-17
5.0582e-18
2.51518e-18
6.9393e-19
2.09998e-19
5.68403e-20
4.8665e-20
5.39432e-20
8.76828e-20
8.84311e-20
5.89512e-20
3.39271e-20
1.60423e-20
4.98264e-21
1.93978e-21
6.75657e-22
2.30424e-22
1.25517e-22
1.49638e-22
5.44684e-22
2.52474e-21
1.95297e-20
1.05304e-19
8.9936e-19
4.02489e-18
1.25106e-17
6.62614e-17
2.21038e-16
5.24019e-16
9.76667e-16
1.66231e-15
1.97921e-15
1.47602e-15
7.1844e-16
9.59469e-17
4.67397e-18
5.65149e-17
2.05037e-17
7.75167e-18
1.94625e-18
3.51194e-19
8.82887e-20
7.18702e-20
1.17132e-19
1.22607e-19
8.84453e-20
5.42834e-20
2.6528e-20
9.55043e-21
2.85397e-21
1.10671e-21
4.18002e-22
1.84581e-22
3.41315e-22
1.11567e-21
9.20464e-21
5.53096e-20
3.48636e-19
2.20519e-18
1.31857e-17
5.50336e-17
1.58635e-16
8.85533e-16
2.7204e-15
7.40639e-15
1.50902e-14
2.17096e-14
2.12477e-14
9.13454e-15
1.98354e-16
3.29052e-16
2.27249e-15
1.85407e-17
1.89726e-16
1.02676e-16
6.8808e-17
1.60433e-17
2.5303e-18
3.74773e-19
1.33875e-19
1.40998e-19
1.62651e-19
1.22492e-19
8.16065e-20
4.22957e-20
1.89567e-20
5.6724e-21
1.72299e-21
6.09124e-22
4.0115e-22
5.58752e-22
1.70612e-21
1.40117e-20
1.49826e-19
1.05396e-18
4.69525e-18
2.53741e-17
1.46731e-16
7.08276e-16
2.67695e-15
1.41041e-14
4.52541e-14
1.2908e-13
2.45194e-13
3.09229e-13
1.70613e-13
2.51457e-14
1.25078e-13
1.58445e-14
1.21328e-13
1.3185e-13
1.55964e-15
1.33323e-14
5.53198e-17
9.22588e-16
8.69543e-17
3.54077e-16
1.0798e-16
1.61812e-17
2.21079e-18
3.15986e-19
1.81294e-19
2.39633e-19
1.9269e-19
1.06902e-19
5.94808e-20
2.73369e-20
1.19072e-20
2.89822e-21
1.1509e-21
6.21399e-22
1.03148e-21
3.33405e-21
3.0004e-20
2.70087e-19
2.7914e-18
1.7286e-17
6.87155e-17
3.83109e-16
1.65938e-15
9.86043e-15
5.52512e-14
2.89772e-13
8.51299e-13
2.33115e-12
4.09296e-12
3.03239e-12
6.58442e-13
3.3584e-12
7.33541e-13
1.21926e-13
9.23449e-13
1.00745e-12
9.12776e-15
9.74086e-14
2.29567e-16
5.11804e-15
2.37861e-16
8.91508e-16
5.27202e-16
1.04669e-16
1.19017e-17
1.51297e-18
3.08824e-19
3.19766e-19
3.22909e-19
1.88526e-19
9.14919e-20
4.42709e-20
1.79361e-20
6.95895e-21
1.92457e-21
1.00555e-21
2.02067e-21
8.84614e-21
5.63389e-20
5.83996e-19
5.36521e-18
4.26228e-17
2.27668e-16
8.75067e-16
4.55569e-15
2.87565e-14
2.36655e-13
1.23165e-12
5.75753e-12
1.6103e-11
4.16723e-11
4.47057e-11
1.41177e-11
6.27991e-11
4.29972e-12
2.33313e-11
6.13382e-12
9.45198e-13
7.53614e-12
8.02357e-12
6.7037e-14
7.57144e-13
1.68591e-15
3.75592e-14
8.99354e-16
2.54933e-15
1.81402e-15
4.89655e-16
6.30307e-17
5.588e-18
9.21895e-19
4.15222e-19
4.22391e-19
3.04822e-19
1.49726e-19
6.177e-20
2.92161e-20
1.06634e-20
3.83492e-21
1.86242e-21
3.36037e-21
1.28611e-20
9.89938e-20
1.04794e-18
9.19977e-18
8.41806e-17
5.05991e-16
2.41546e-15
1.35722e-14
8.43059e-14
6.50224e-13
5.7762e-12
2.6739e-11
1.10134e-10
2.82691e-10
5.12686e-10
2.47216e-10
9.35204e-10
1.14079e-10
4.97098e-10
3.60174e-11
1.91452e-10
5.0157e-11
7.52026e-12
6.02989e-11
6.43588e-11
5.21363e-13
5.99908e-12
1.14817e-14
2.92956e-13
3.40038e-15
1.0441e-14
6.09416e-15
1.81779e-15
2.38095e-16
2.69661e-17
3.22612e-18
7.92636e-19
6.13568e-19
4.36286e-19
2.51211e-19
1.08823e-19
4.02975e-20
1.64171e-20
6.59911e-21
3.6835e-21
5.04007e-21
3.12502e-20
1.65517e-19
1.71356e-18
1.99078e-17
1.61314e-16
9.71458e-16
6.04871e-15
3.79323e-14
2.48383e-13
1.8626e-12
1.48659e-11
1.31633e-10
5.54354e-10
1.99172e-09
4.68468e-09
3.15377e-09
1.02778e-08
1.97599e-09
7.18279e-09
9.0644e-10
3.85662e-09
2.91437e-10
1.51731e-09
3.99589e-10
5.97802e-11
4.76791e-10
5.08333e-10
4.12747e-12
4.74489e-11
9.00738e-14
2.33572e-12
1.39648e-14
4.69445e-14
2.45406e-14
6.43462e-15
1.09049e-15
1.14387e-16
1.08606e-17
1.71109e-18
9.87061e-19
6.39963e-19
3.5367e-19
1.68903e-19
6.78377e-20
2.68464e-20
1.00525e-20
6.96641e-21
1.08934e-20
4.71561e-20
2.61304e-19
2.60054e-18
3.71175e-17
3.50202e-16
2.2135e-15
1.51656e-14
1.0205e-13
6.53758e-13
5.37813e-12
4.4647e-11
3.33886e-10
2.68951e-09
1.04514e-08
3.31403e-08
3.00458e-08
8.42144e-08
2.40688e-08
7.43235e-08
1.49109e-08
5.24754e-08
6.99369e-09
2.87721e-08
2.28737e-09
1.15723e-08
3.10538e-09
4.67557e-10
3.68255e-09
3.90487e-09
3.25117e-11
3.67232e-10
7.1797e-13
1.85542e-11
6.28516e-14
1.89485e-13
1.00512e-13
2.3866e-14
3.76288e-15
4.47158e-16
4.17146e-17
4.99377e-18
1.6166e-18
1.02971e-18
5.98006e-19
2.41628e-19
1.19261e-19
4.58326e-20
1.86486e-20
1.25774e-20
2.64995e-20
6.86293e-20
4.86055e-19
4.95609e-18
5.53057e-17
6.18084e-16
5.03662e-15
3.72072e-14
2.57757e-13
1.66949e-12
1.29199e-11
1.43487e-10
1.12969e-09
6.96011e-09
4.78091e-08
1.71247e-07
2.08189e-07
5.08114e-07
2.1066e-07
5.52124e-07
1.69048e-07
4.93635e-07
1.06745e-07
3.58473e-07
5.15761e-08
2.03311e-07
1.73541e-08
8.43616e-08
2.32933e-08
3.53214e-09
2.75138e-08
2.87051e-08
2.49431e-10
2.72386e-09
5.69124e-12
1.438e-10
2.6924e-13
8.09075e-13
3.0455e-13
9.29914e-14
1.32315e-14
1.21681e-15
1.33474e-16
1.5187e-17
2.59176e-18
1.44267e-18
9.20997e-19
4.58931e-19
1.86142e-19
7.5017e-20
3.31955e-20
2.32216e-20
3.90144e-20
1.64339e-19
7.44738e-19
6.93675e-18
9.01326e-17
1.02146e-15
9.93319e-15
8.57671e-14
6.28855e-13
4.12428e-12
2.77985e-11
3.19664e-10
4.18268e-09
2.77735e-08
1.25768e-07
7.26766e-07
1.12413e-06
2.57747e-06
1.33907e-06
3.05743e-06
1.31436e-06
3.24637e-06
1.08619e-06
2.94593e-06
7.15991e-07
2.24682e-06
3.60484e-07
1.3421e-06
1.2587e-07
5.84297e-07
1.67379e-07
2.5328e-08
1.95958e-07
1.99032e-07
1.83291e-09
1.90256e-08
4.41629e-11
1.06315e-09
1.02932e-12
3.13189e-12
1.14198e-12
2.71744e-13
4.88233e-14
4.29613e-15
4.54541e-16
5.21327e-17
5.65321e-18
2.21311e-18
1.38792e-18
7.15157e-19
2.79338e-19
1.22548e-19
6.22977e-20
4.17697e-20
9.70961e-20
3.19428e-19
1.36184e-18
9.28415e-18
1.3225e-16
1.82452e-15
1.99733e-14
1.853e-13
1.48778e-12
1.02057e-11
6.21274e-11
5.42758e-10
8.7197e-09
1.10721e-07
5.97935e-07
1.82894e-06
4.78162e-06
9.41917e-06
6.49181e-06
1.39546e-05
7.5112e-06
1.65769e-05
7.35197e-06
1.72514e-05
6.26313e-06
1.57753e-05
4.37156e-06
1.25049e-05
2.34846e-06
7.93089e-06
8.65146e-07
3.75446e-06
1.13402e-06
1.70111e-07
1.30593e-06
1.28322e-06
1.26436e-08
1.23303e-07
3.25253e-10
7.24591e-09
3.46343e-12
1.07674e-11
4.04359e-12
9.16154e-13
1.47392e-13
1.52731e-14
1.19432e-15
1.62272e-16
1.93407e-17
5.08557e-18
2.39584e-18
1.17271e-18
5.77114e-19
2.56227e-19
1.17882e-19
1.71517e-19
2.18492e-19
7.43877e-19
2.47493e-18
1.66886e-17
2.14357e-16
3.14621e-15
3.99056e-14
4.15556e-13
3.31461e-12
2.41631e-11
1.51019e-10
1.07552e-09
1.28211e-08
2.15945e-07
2.26024e-06
1.02524e-05
1.98912e-05
1.3296e-05
2.50996e-05
4.8275e-05
3.31513e-05
6.41727e-05
3.80077e-05
7.67226e-05
3.70817e-05
8.08684e-05
3.21077e-05
7.44527e-05
2.32816e-05
6.06479e-05
1.33957e-05
4.00591e-05
5.44078e-06
2.0655e-05
6.92913e-06
1.05825e-06
7.74551e-06
7.37474e-06
7.95337e-08
7.31205e-07
2.1808e-09
4.40091e-08
1.03443e-11
3.22737e-11
1.28265e-11
3.09706e-12
4.6839e-13
5.0585e-14
3.9371e-15
3.90867e-16
6.39663e-17
8.53162e-18
4.5746e-18
2.36593e-18
1.06155e-18
6.17916e-19
4.20342e-19
4.46055e-19
9.66727e-19
2.14934e-18
4.51929e-18
2.48044e-17
2.99524e-16
4.49443e-15
6.631e-14
8.26903e-13
8.06093e-12
5.47908e-11
3.57782e-10
2.13687e-09
1.96297e-08
3.14899e-07
3.94383e-06
3.07947e-05
0.000129113
7.67919e-05
0.000148153
0.000108856
0.000176207
0.000137714
0.000222198
0.000156499
0.000260089
0.000157434
0.000279281
0.000139955
0.000274186
0.000105086
0.000238514
6.42138e-05
0.000166671
2.87859e-05
9.40533e-05
3.52872e-05
5.88193e-06
3.80968e-05
3.52182e-05
4.45724e-07
3.88695e-06
1.25e-08
2.27321e-07
2.92545e-11
8.58172e-11
3.6418e-11
9.49872e-12
1.52547e-12
1.71502e-13
1.34916e-14
1.28386e-15
1.49993e-16
2.98503e-17
8.06349e-18
4.74487e-18
2.44509e-18
1.36387e-18
2.144e-18
1.98632e-18
3.25318e-18
6.66093e-18
1.29385e-17
4.16964e-17
3.73902e-16
7.01825e-15
1.06471e-13
1.43186e-12
1.57001e-11
1.40544e-10
8.22893e-10
4.69789e-09
3.04078e-08
3.99653e-07
5.81672e-06
4.66331e-05
0.000232281
0.000438807
0.000541717
0.000257292
0.000351921
0.000325574
0.000444747
0.000385519
0.000523157
0.00042873
0.000588549
0.000444416
0.000630333
0.000428607
0.000640837
0.000366185
0.000607251
0.000247329
0.000509425
0.000124071
0.000332584
0.000145241
2.71275e-05
0.000151166
0.000135708
2.17825e-06
1.70152e-05
5.80139e-08
9.71128e-07
8.47368e-11
2.1402e-10
9.31909e-11
2.64246e-11
4.64719e-12
5.80187e-13
4.86507e-14
3.47261e-15
4.59766e-16
6.20828e-17
2.42687e-17
8.67066e-18
7.43186e-18
4.92781e-18
5.08174e-18
1.39505e-17
1.41413e-17
1.76233e-17
4.3116e-17
1.02307e-16
5.64359e-16
9.54799e-15
1.678e-13
2.34352e-12
2.77386e-11
2.65248e-10
2.11124e-09
1.07441e-08
5.50858e-08
4.85295e-07
7.25202e-06
6.72157e-05
0.000305695
0.000622514
0.000706583
0.000794914
0.00089429
0.000567713
0.00068554
0.0006633
0.000802594
0.000747982
0.00090066
0.00081497
0.0009879
0.000853497
0.00105397
0.00085469
0.00108742
0.000795653
0.00107096
0.00065318
0.000978179
0.00040434
0.000776736
0.000446408
0.000101324
0.000446685
0.000393458
8.66367e-06
6.12896e-05
2.12587e-07
3.32891e-06
2.60719e-10
5.2899e-10
2.23777e-10
6.73434e-11
1.31941e-11
1.85837e-12
1.74565e-13
1.23493e-14
1.18792e-15
2.25677e-16
5.90425e-17
3.25493e-17
2.33069e-17
3.01292e-17
2.32021e-17
4.52861e-17
7.16367e-17
9.21074e-17
1.59972e-16
2.73736e-16
8.81963e-16
1.2713e-14
2.49126e-13
3.81234e-12
4.63469e-11
4.7492e-10
3.82649e-09
2.43141e-08
1.09927e-07
6.48421e-07
8.27647e-06
8.32378e-05
0.000394379
0.000777421
0.000804937
0.000976284
0.00105019
0.00114216
0.00122152
0.000931578
0.00104462
0.00104234
0.00117134
0.00114476
0.00128334
0.00123438
0.00139034
0.00129775
0.001481
0.00132173
0.00154
0.0012793
0.00154547
0.00113933
0.0014671
0.000866518
0.00126635
0.000912334
0.000294577
0.00090323
0.000819474
2.91586e-05
0.000183229
5.81701e-07
9.50273e-06
7.32594e-10
1.32756e-09
5.3496e-10
1.61668e-10
3.5497e-11
5.68004e-12
5.96589e-13
4.60625e-14
3.23486e-15
4.20049e-16
1.31572e-16
9.27747e-17
1.22e-16
1.32075e-16
1.1017e-16
1.50257e-16
2.77262e-16
3.87378e-16
7.77533e-16
1.14369e-15
2.60469e-15
1.79677e-14
3.41993e-13
5.93282e-12
7.76454e-11
8.08242e-10
7.03432e-09
4.48527e-08
2.48353e-07
1.06552e-06
9.78128e-06
9.53853e-05
0.000452585
0.00102637
0.00109105
0.00114822
0.00127884
0.00129438
0.00142705
0.00144922
0.00127966
0.00136356
0.0014014
0.00149711
0.0015205
0.00162512
0.00163423
0.00175591
0.00172481
0.00187582
0.00177416
0.00196401
0.00175211
0.00199399
0.00162382
0.00193341
0.00135249
0.00174438
0.00138805
0.000651397
0.00136055
0.00125427
8.37142e-05
0.000414759
1.2126e-06
2.31511e-05
3.21785e-09
1.29371e-09
3.78729e-10
9.2067e-11
1.81313e-11
1.98368e-12
1.67e-13
1.16505e-14
1.1989e-15
3.10876e-16
2.41575e-16
5.09407e-16
4.91371e-16
7.66544e-16
9.15648e-16
1.17049e-15
1.66272e-15
2.88857e-15
4.5996e-15
8.93457e-15
3.32239e-14
4.58748e-13
8.7217e-12
1.23884e-10
1.39386e-09
1.23053e-08
8.94279e-08
4.55888e-07
2.10628e-06
1.29011e-05
0.000108499
0.000490272
0.00102777
0.00122414
0.00118518
0.00128326
0.00125969
0.00143261
0.00138766
0.00159461
0.00155261
0.00156218
0.00159867
0.00170256
0.00175182
0.00184724
0.00190947
0.00199346
0.00207726
0.00211736
0.00223593
0.00219521
0.00235741
0.00219462
0.00241165
0.00208229
0.0023684
0.00182102
0.00219315
0.00184439
0.00105863
0.0018014
0.00167761
0.000190719
0.000741276
2.1531e-06
4.95803e-05
3.44172e-09
9.3213e-10
2.2902e-10
6.2314e-11
8.26881e-12
5.89663e-13
4.39663e-14
3.35815e-15
9.88262e-16
1.04827e-15
1.54147e-15
2.52125e-15
3.78159e-15
6.17583e-15
7.72697e-15
1.14652e-14
1.77345e-14
2.83606e-14
4.88048e-14
1.05644e-13
6.95182e-13
1.20167e-11
1.94241e-10
2.24068e-09
2.16205e-08
1.62389e-07
7.92497e-07
3.73112e-06
2.05391e-05
0.000124583
0.000505777
0.00101164
0.00115832
0.00113004
0.00120766
0.001151
0.00132995
0.00126899
0.00147387
0.0013805
0.00167431
0.0015662
0.00176031
0.00174145
0.00194095
0.00193811
0.00212855
0.00214711
0.00232082
0.00237003
0.00248394
0.00257711
0.0025899
0.00273263
0.00260699
0.00280607
0.00250649
0.00277173
0.00225921
0.00260456
0.00226838
0.00144645
0.00221251
0.00210808
0.00181567
0.000350883
0.0010839
3.54057e-06
8.97404e-05
2.83888e-09
5.87159e-10
1.66547e-10
2.05961e-11
2.31797e-12
1.61161e-13
1.21894e-14
3.27584e-15
4.57903e-15
8.38021e-15
1.47496e-14
2.5336e-14
4.25754e-14
6.49741e-14
8.58505e-14
1.28529e-13
1.94715e-13
3.0553e-13
5.18426e-13
1.46805e-12
1.64478e-11
2.89757e-10
3.77608e-09
3.49213e-08
2.82583e-07
1.31702e-06
6.47634e-06
3.22589e-05
0.000147383
0.0005137
0.00100068
0.00109065
0.00110748
0.00106377
0.00106133
0.000982375
0.00127137
0.00116069
0.00142723
0.00126737
0.00168735
0.00151279
0.00190741
0.00182361
0.00213947
0.00210177
0.00238293
0.00237377
0.00263769
0.00265766
0.00284322
0.00292327
0.00297334
0.00311133
0.00299789
0.00319649
0.00289634
0.00315745
0.00265616
0.00296545
0.00280964
0.00244822
0.00265341
0.0020053
0.00154689
0.00188575
0.00235402
0.00259433
0.00262657
0.00228591
0.000550756
0.00172057
0.00151911
0.00112518
3.5541e-06
0.000102282
2.00237e-09
4.84801e-10
7.46893e-11
5.89658e-12
6.1276e-13
4.58324e-14
1.32479e-14
2.26804e-14
4.70608e-14
9.02123e-14
1.64218e-13
2.95436e-13
5.06343e-13
6.37654e-13
9.47101e-13
1.36636e-12
1.98446e-12
2.97343e-12
5.16804e-12
2.5658e-11
3.99992e-10
6.00942e-09
6.51412e-08
4.87569e-07
2.30227e-06
1.11383e-05
4.99736e-05
0.000177474
0.000524678
0.000998202
0.00109037
0.000879179
0.000886062
0.000927183
0.000894071
0.000831026
0.000743175
0.00110371
0.000953649
0.00130992
0.00109619
0.00167796
0.00145398
0.00201141
0.00186571
0.00233658
0.00224915
0.00265119
0.00262252
0.0029721
0.00297884
0.0032196
0.00330266
0.00337079
0.00351523
0.00324164
0.00335599
0.00345458
0.0035601
0.00310307
0.00325269
0.00343932
0.00353022
0.00338502
0.00298766
0.00282829
0.00300922
0.00314483
0.00282369
0.00218485
0.00205405
0.00253326
0.0027572
0.00279895
0.00245516
0.00126248
0.000501722
0.000930648
0.0018852
0.00167147
2.05657e-06
0.00054649
0.000210371
5.04179e-05
1.51617e-09
2.99389e-10
1.98082e-11
1.57526e-12
1.76559e-13
5.27702e-14
1.08079e-13
2.56368e-13
5.31893e-13
1.02994e-12
1.96178e-12
3.6366e-12
4.66473e-12
6.91197e-12
9.63805e-12
1.30759e-11
1.78001e-11
2.50197e-11
5.52374e-11
5.4495e-10
8.87001e-09
1.07673e-07
8.21739e-07
4.05316e-06
1.94256e-05
7.53923e-05
0.000221113
0.000544679
0.00100123
0.00110057
0.000814668
0.000662504
0.000655158
0.000689727
0.000666264
0.000581872
0.000494456
0.000892936
0.000717259
0.00121103
0.000971839
0.00169433
0.00144294
0.00210857
0.00192141
0.0025521
0.00242992
0.00296449
0.00292263
0.00335197
0.00335756
0.00361516
0.00365192
0.0036409
0.00372137
0.00376434
0.00378767
0.00355883
0.00366575
0.00375999
0.00329674
0.00344829
0.00365296
0.00373424
0.00359503
0.00317133
0.00300532
0.00318304
0.00333458
0.00299262
0.00234975
0.00221396
0.002696
0.0029624
0.00291673
0.00261351
0.00139459
0.00104487
0.00204143
0.00182223
5.50457e-05
9.98708e-08
5.01838e-06
0.000627157
0.000257131
1.10916e-09
9.28004e-11
5.88336e-12
5.34013e-13
2.03495e-13
4.79789e-13
1.29553e-12
2.94809e-12
6.15533e-12
1.23698e-11
2.43442e-11
3.30603e-11
4.95402e-11
6.77594e-11
8.70555e-11
1.08581e-10
1.34282e-10
1.86951e-10
8.11476e-10
1.21462e-08
1.63593e-07
1.29983e-06
7.11992e-06
3.34629e-05
0.00011243
0.000276586
0.00058116
0.00101308
0.00112695
0.000882428
0.000503035
0.000558502
0.000445549
0.000468698
0.000449492
0.000438753
0.000406126
0.000295841
0.000753256
0.000562761
0.00118515
0.000940972
0.00180977
0.00155142
0.0022629
0.002053
0.00283353
0.00270081
0.00333696
0.00328836
0.00364457
0.00362099
0.00378577
0.00376892
0.0037504
0.00372231
0.0038262
0.00385302
0.00385104
0.00383446
0.00376624
0.00385887
0.00390529
0.00349696
0.00365606
0.00385412
0.00392979
0.00380428
0.00335862
0.00318021
0.00336805
0.00353416
0.00316198
0.00250752
0.00237331
0.00285412
0.00312866
0.0030823
0.0027733
0.00154046
0.00118193
0.00220522
0.00199143
6.60729e-05
7.53234e-08
4.99228e-06
0.000742684
0.000328788
6.39155e-10
3.30366e-11
1.84288e-12
7.81891e-13
1.91943e-12
5.89213e-12
1.50744e-11
3.41953e-11
7.42783e-11
1.53716e-10
2.24334e-10
3.46613e-10
4.71479e-10
5.83623e-10
6.73024e-10
7.47794e-10
8.25568e-10
1.56899e-09
1.56552e-08
2.31401e-07
2.00705e-06
1.21265e-05
5.54917e-05
0.00016517
0.000347155
0.000631066
0.00103734
0.00116227
0.00095455
0.000528935
0.000325796
0.000351858
0.000253598
0.000287043
0.000243937
0.000238409
0.000351071
0.000215732
0.000719806
0.000521795
0.00129899
0.00106328
0.00208962
0.00185595
0.00252808
0.00232002
0.00319847
0.00307277
0.00357476
0.00353515
0.00369511
0.00366516
0.00363997
0.00361634
0.00380114
0.00375445
0.00369942
0.00364301
0.00391113
0.0038909
0.00384488
0.00377148
0.00393772
0.00396542
0.00395413
0.00370546
0.00386372
0.00400133
0.0040549
0.00399421
0.0035573
0.00336298
0.00356615
0.00374258
0.00334252
0.00267151
0.00254369
0.00301962
0.00330781
0.00325776
0.00293996
0.00171375
0.00134884
0.00238364
0.00217901
7.50513e-05
1.23032e-07
7.28483e-06
0.000903572
0.000408745
2.74514e-10
1.16062e-11
2.8354e-12
7.19271e-12
2.37763e-11
6.86748e-11
1.73247e-10
4.08523e-10
9.12248e-10
1.44715e-09
2.32607e-09
3.19997e-09
3.86738e-09
4.16637e-09
4.15207e-09
3.99721e-09
4.50316e-09
2.09757e-08
3.02504e-07
2.97135e-06
1.98486e-05
8.78938e-05
0.000234735
0.000430243
0.000696293
0.00107273
0.00120301
0.00102519
0.000617894
0.00023152
0.000280826
0.00016142
0.000195796
0.000106123
0.000129094
0.000133152
0.000103135
0.000377684
0.000207158
0.00083342
0.000598838
0.00163312
0.00141352
0.00252928
0.00232998
0.00291337
0.00272796
0.00348565
0.00340939
0.00356123
0.00355006
0.0035934
0.00355263
0.00352181
0.00349923
0.00368098
0.00358702
0.00349886
0.00342451
0.00390499
0.00381351
0.0036893
0.00355129
0.00401318
0.00398157
0.0038919
0.00391162
0.00404653
0.00405424
0.00409436
0.00410144
0.00376565
0.00356044
0.00377475
0.00394818
0.00353713
0.0028406
0.00271822
0.00319084
0.00349742
0.00343996
0.00310814
0.00190922
0.00155226
0.00256669
0.00237432
0.000100596
1.8237e-06
2.56652e-05
0.00110466
0.000541353
1.03212e-10
8.37723e-12
2.51093e-11
8.79999e-11
2.79459e-10
7.82086e-10
2.00961e-09
4.8985e-09
8.59916e-09
1.47061e-08
2.06489e-08
2.4525e-08
2.49386e-08
2.24702e-08
1.9075e-08
1.67967e-08
3.30039e-08
3.6325e-07
4.13587e-06
3.05718e-05
0.000131977
0.000317984
0.000523191
0.000774222
0.00112139
0.00124826
0.00109201
0.000700823
0.000248033
8.43206e-05
0.000100223
5.24302e-05
6.68225e-05
3.96535e-05
4.22566e-05
0.000103731
5.3281e-05
0.000545234
0.000273197
0.00116447
0.000865654
0.00213286
0.0019152
0.00300378
0.00283467
0.00330051
0.00316134
0.00353772
0.00351235
0.00330277
0.00331754
0.00336244
0.00333749
0.00336845
0.00333074
0.00330916
0.0033005
0.00341594
0.00329504
0.00319561
0.00312146
0.00375008
0.0035762
0.00339083
0.00321448
0.00399708
0.00386569
0.00367666
0.00408872
0.00414256
0.00401119
0.00402381
0.00412983
0.00397154
0.00376707
0.00398119
0.00412231
0.00373963
0.0030076
0.00288835
0.00336557
0.00369403
0.00362796
0.00327565
0.00212173
0.00179101
0.00274558
0.00256936
0.0001906
5.60159e-05
0.000129589
0.0013638
0.000831488
4.64739e-11
8.87639e-11
2.94265e-10
1.05694e-09
3.18814e-09
8.8346e-09
2.3115e-08
4.56491e-08
8.25743e-08
1.22207e-07
1.44719e-07
1.4016e-07
1.15663e-07
8.76287e-08
6.62142e-08
7.05173e-08
4.19537e-07
5.18808e-06
4.25694e-05
0.00018276
0.00040883
0.00062418
0.000864574
0.00118155
0.00129782
0.00115356
0.000774839
0.000313949
3.68456e-05
5.51224e-05
2.25179e-05
2.74636e-05
1.42443e-05
1.7647e-05
1.95738e-05
1.36666e-05
0.000110119
4.39234e-05
0.000829065
0.000425483
0.00163318
0.00126148
0.00264839
0.00241625
0.0032869
0.00314955
0.00346351
0.00338899
0.00338491
0.00341076
0.00338986
0.00308391
0.00311861
0.00320038
0.00315878
0.00307415
0.00305187
0.0030473
0.003059
0.00305934
0.00293194
0.00283651
0.00277562
0.00345365
0.00322481
0.00300912
0.00281822
0.00383938
0.00360758
0.0033433
0.00418061
0.00416713
0.00382419
0.00382957
0.00404921
0.00414742
0.00397276
0.00416268
0.00421564
0.00394447
0.00317111
0.00305212
0.00354403
0.00389528
0.00382138
0.00344485
0.00234488
0.00206263
0.0029169
0.00275875
0.000470872
0.000689284
0.000649511
0.00172796
0.00139905
1.90986e-10
9.24291e-10
3.55286e-09
1.22835e-08
3.53347e-08
9.42684e-08
2.15756e-07
4.14943e-07
6.26392e-07
7.43367e-07
7.09887e-07
5.76352e-07
3.88418e-07
2.5752e-07
1.99441e-07
5.15927e-07
5.86884e-06
5.31666e-05
0.000230897
0.000498263
0.000729587
0.00096462
0.00125233
0.00135082
0.00120953
0.000838462
0.000372407
5.5402e-05
7.45915e-06
1.01683e-05
4.82154e-06
5.82649e-06
4.35685e-06
4.18358e-06
1.64491e-05
6.86811e-06
0.000161156
4.91211e-05
0.00113715
0.000612276
0.00209607
0.0016628
0.00296449
0.00270354
0.00329956
0.00317543
0.00339957
0.00336938
0.00324064
0.00327961
0.00313063
0.00316327
0.00283356
0.00288524
0.00299504
0.00294052
0.00274931
0.00274331
0.00275661
0.00278914
0.00265948
0.00253899
0.00246412
0.00243278
0.0030763
0.00282427
0.00259852
0.00240927
0.00356003
0.00326303
0.00296385
0.00420719
0.00408665
0.00354208
0.00355888
0.00385805
0.00424533
0.00416623
0.00427092
0.00424936
0.00414652
0.00333352
0.00321228
0.00372825
0.00409891
0.00402102
0.0036195
0.00257086
0.00235967
0.00308079
0.00293919
0.00127443
0.00148778
0.0018888
0.0021662
0.00207604
2.69464e-09
1.04094e-08
4.09492e-08
1.35221e-07
3.58498e-07
8.5542e-07
1.65869e-06
2.53572e-06
3.01411e-06
2.85439e-06
2.26793e-06
1.56259e-06
9.8044e-07
6.44958e-07
7.65321e-07
6.14335e-06
6.11163e-05
0.000270227
0.000580001
0.000835809
0.00107122
0.0013306
0.00140645
0.00126012
0.000891349
0.00042364
8.73607e-05
3.49996e-06
7.19777e-06
1.33875e-06
1.83295e-06
1.08227e-06
1.10945e-06
2.45715e-06
1.39925e-06
1.84584e-05
6.00827e-06
0.000239839
7.01521e-05
0.00126245
0.000683579
0.00233465
0.00184423
0.00298877
0.00271594
0.00301221
0.00288211
0.00318055
0.00318552
0.00308541
0.00304639
0.00309174
0.00288332
0.00291832
0.00255999
0.00261831
0.00273591
0.0026781
0.00242315
0.0024318
0.00246173
0.00250663
0.00226556
0.00217634
0.00213729
0.0021234
0.00268098
0.00242452
0.00220878
0.00204382
0.00322353
0.00290142
0.00259313
0.00413779
0.0039097
0.00322809
0.00327574
0.00360794
0.00429166
0.0042911
0.0043355
0.00420442
0.00429799
0.00349907
0.00337092
0.00392157
0.00428482
0.00422789
0.00380207
0.00278866
0.00264405
0.00323978
0.00310895
0.00217643
0.000570937
0.00215393
0.00254218
0.00255694
3.2047e-08
1.14406e-07
4.31071e-07
1.30778e-06
3.06949e-06
6.33542e-06
1.01879e-05
1.25848e-05
1.19243e-05
9.22891e-06
6.11079e-06
3.6511e-06
2.17525e-06
1.50379e-06
6.23681e-06
6.46225e-05
0.000298955
0.000651018
0.000939492
0.00118169
0.00141309
0.0014643
0.00130577
0.000934795
0.00046551
0.000111018
8.42216e-06
4.83764e-07
7.67519e-07
2.55152e-07
3.03648e-07
4.65185e-07
2.8255e-07
2.32207e-06
1.01552e-06
2.22712e-05
6.53932e-06
0.000270081
8.09441e-05
0.00124687
0.000670685
0.00233311
0.00183271
0.00268981
0.00242068
0.00255593
0.00250639