/*--------------------------------*- C++ -*----------------------------------*\
  =========                 |
  \\      /  F ield         | OpenFOAM: The Open Source CFD Toolbox
   \\    /   O peration     | Website:  https://openfoam.org
    \\  /    A nd           | Version:  dev
     \\/     M anipulation  |
\*---------------------------------------------------------------------------*/
FoamFile
{
    version     2.0;
    format      ascii;
    class       volScalarField;
    location    "2500";
    object      G;
}
// * * * * * * * * * * * * * * * * * * * * * * * * * * * * * * * * * * * * * //

dimensions      [1 0 -3 0 0 0 0];

internalField   nonuniform List<scalar> 
9841
(
3830.13
3835.46
3836.74
3840.14
3842.08
3844.02
3844.18
3846.77
3849.37
3851.97
3847.59
3850.82
3854.07
3857.34
3860.62
3850.37
3854.23
3858.11
3862.04
3865.99
3869.96
3852.54
3857
3861.51
3866.08
3870.69
3875.34
3880.02
3854.11
3859.17
3864.28
3869.46
3874.71
3880.04
3885.41
3890.82
3855.1
3860.73
3866.42
3872.19
3878.07
3884.04
3890.1
3896.22
3902.39
3855.53
3861.7
3867.95
3874.3
3880.76
3887.35
3894.06
3900.89
3907.79
3914.75
3855.41
3862.11
3868.89
3875.79
3882.81
3889.99
3897.33
3904.82
3912.44
3920.15
3927.94
3854.77
3861.97
3869.26
3876.67
3884.24
3891.98
3899.9
3908.02
3916.32
3924.77
3933.34
3941.98
3853.64
3861.31
3869.08
3876.98
3885.05
3893.32
3901.8
3910.51
3919.44
3928.59
3937.92
3947.38
3956.94
3852.03
3860.15
3868.37
3876.73
3885.28
3894.04
3903.04
3912.3
3921.83
3931.62
3941.66
3951.92
3962.34
3972.86
3849.97
3858.51
3867.15
3875.95
3884.94
3894.16
3903.65
3913.42
3923.5
3933.89
3944.59
3955.58
3966.81
3978.24
3989.79
3847.49
3856.42
3865.46
3874.66
3884.06
3893.71
3903.64
3913.88
3924.47
3935.41
3946.71
3958.37
3970.37
3982.65
3995.16
4007.81
3844.61
3853.9
3863.31
3872.88
3882.66
3892.7
3903.04
3913.72
3924.76
3936.2
3948.06
3960.33
3973.02
3986.09
3999.49
4013.15
4026.98
3841.36
3850.99
3860.74
3870.65
3880.78
3891.18
3901.89
3912.95
3924.41
3936.31
3948.66
3961.48
3974.79
3988.56
4002.78
4017.39
4032.29
4047.39
3837.76
3847.7
3857.76
3867.99
3878.44
3889.16
3900.21
3911.62
3923.45
3935.74
3948.53
3961.84
3975.7
3990.11
4005.06
4020.51
4036.42
4052.67
4069.15
3833.85
3844.07
3854.42
3864.93
3875.67
3886.68
3898.03
3909.75
3921.91
3934.55
3947.72
3961.46
3975.8
3990.76
4006.35
4022.56
4039.35
4056.66
4074.37
4092.36
3829.64
3840.12
3850.72
3861.5
3872.49
3883.77
3895.38
3907.38
3919.83
3932.77
3946.27
3960.36
3975.11
3990.55
4006.69
4023.55
4041.12
4059.36
4078.21
4097.52
4117.15
3825.16
3835.87
3846.71
3857.71
3868.95
3880.45
3892.3
3904.54
3917.23
3930.43
3944.2
3958.6
3973.69
3989.52
4006.12
4023.54
4041.77
4060.82
4080.65
4101.17
4122.24
4143.68
3820.43
3831.36
3842.4
3853.61
3865.05
3876.76
3888.81
3901.25
3914.15
3927.57
3941.57
3956.22
3971.59
3987.73
4004.7
4022.57
4041.36
4061.08
4081.74
4103.29
4125.66
4148.67
4172.13
3815.49
3826.59
3837.82
3849.22
3860.83
3872.72
3884.95
3897.56
3910.63
3924.23
3938.41
3953.26
3968.84
3985.23
4002.49
4020.7
4039.93
4060.2
4081.54
4103.96
4127.42
4151.83
4177
4202.69
3810.34
3821.61
3833
3844.55
3856.33
3868.37
3880.74
3893.5
3906.71
3920.44
3934.77
3949.77
3965.51
3982.07
3999.55
4018.01
4037.55
4058.24
4080.13
4103.24
4127.59
4153.16
4179.83
4207.41
4235.67
3805.01
3816.43
3827.95
3839.65
3851.55
3863.72
3876.21
3889.09
3902.41
3916.25
3930.68
3945.78
3961.63
3978.32
3995.93
4014.56
4034.31
4055.28
4077.56
4101.2
4126.26
4152.75
4180.65
4209.86
4240.2
4271.37
3799.53
3811.06
3822.71
3834.52
3846.54
3858.81
3871.4
3884.37
3897.77
3911.69
3926.19
3941.35
3957.26
3974.01
3991.69
4010.42
4030.29
4051.42
4073.93
4097.94
4123.51
4150.7
4179.56
4210.08
4242.18
4275.66
4310.08
3793.91
3805.54
3817.29
3829.2
3841.31
3853.66
3866.33
3879.36
3892.83
3906.79
3921.32
3936.51
3952.44
3969.21
3986.9
4005.65
4025.55
4046.75
4069.36
4093.55
4119.44
4147.12
4176.68
4208.19
4241.68
4277.08
4314.09
4352.23
3788.16
3799.88
3811.72
3823.7
3835.88
3848.3
3861.03
3874.11
3887.6
3901.59
3916.13
3931.31
3947.22
3963.96
3981.62
4000.32
4020.18
4041.35
4063.96
4088.18
4114.17
4142.12
4172.14
4204.33
4238.82
4275.7
4314.81
4355.87
4398.31
3782.32
3794.11
3806
3818.05
3830.28
3842.76
3855.52
3868.62
3882.13
3896.11
3910.64
3925.79
3941.65
3958.31
3975.89
3994.49
4014.25
4035.31
4057.81
4081.94
4107.89
4135.86
4166.07
4198.66
4233.81
4271.71
4312.39
4355.74
4401.47
4448.92
3776.37
3788.22
3800.17
3812.26
3824.53
3837.04
3849.82
3862.93
3876.44
3890.4
3904.88
3919.97
3935.76
3952.32
3969.77
3988.23
4007.83
4028.7
4051.01
4074.95
4100.71
4128.52
4158.65
4191.34
4226.82
4265.32
4307.03
4352.03
4400.28
4451.5
4504.81
3770.36
3782.24
3794.24
3806.36
3818.65
3831.17
3843.95
3857.06
3870.54
3884.47
3898.9
3913.91
3929.59
3946.02
3963.32
3981.6
4000.97
4021.61
4043.65
4067.3
4092.76
4120.28
4150.11
4182.59
4218.04
4256.77
4299.01
4345.03
4395.01
4448.98
4506.65
4566.88
3764.29
3776.19
3788.21
3800.36
3812.66
3825.18
3837.95
3851.03
3864.48
3878.34
3892.7
3907.62
3923.17
3939.46
3956.58
3974.63
3993.76
4014.1
4035.82
4059.1
4084.17
4111.25
4140.65
4172.68
4207.74
4246.29
4288.63
4335.07
4386.03
4441.77
4502.48
4567.83
4636.27
3758.17
3770.08
3782.12
3794.27
3806.58
3819.08
3831.83
3844.87
3858.27
3872.06
3886.32
3901.13
3916.55
3932.67
3949.58
3967.4
3986.24
4006.26
4027.6
4050.45
4075.03
4101.59
4130.41
4161.83
4196.25
4234.19
4276.16
4322.52
4373.74
4430.35
4492.8
4561.66
4636.15
4693.53
4695.32
3752.03
3763.93
3775.96
3788.11
3800.41
3812.89
3825.61
3838.6
3851.93
3865.64
3879.8
3894.48
3909.74
3925.67
3942.37
3959.93
3978.47
3998.13
4019.05
4041.43
4065.47
4091.41
4119.55
4150.22
4183.82
4220.86
4261.97
4307.7
4358.59
4415.25
4478.43
4548.73
4627.8
4694.73
4691.51
4735.19
4736.79
3745.88
3757.76
3769.77
3781.91
3794.18
3806.63
3819.31
3832.24
3845.49
3859.11
3873.16
3887.69
3902.78
3918.51
3934.97
3952.26
3970.48
3989.76
4010.25
4032.12
4055.57
4080.84
4108.2
4138.01
4170.64
4206.61
4246.54
4291.09
4341
4397
4459.89
4530.79
4600.08
4590.44
4686.11
4632.91
4678.01
4735.65
4731.77
4779.72
4781.05
3739.73
3751.57
3763.56
3775.66
3787.9
3800.31
3812.93
3825.81
3838.97
3852.49
3866.41
3880.8
3895.71
3911.23
3927.44
3944.43
3962.31
3981.2
4001.24
4022.59
4045.42
4069.98
4096.52
4125.37
4156.92
4191.66
4230.2
4273.21
4321.54
4376.13
4437.92
4508.03
4579.73
4567.28
4622.44
4725.29
4667.9
4716.16
4779.34
4774.63
4827.46
4828.45
3733.58
3745.38
3757.33
3769.39
3781.59
3793.95
3806.51
3819.31
3832.39
3845.79
3859.58
3873.81
3888.54
3903.85
3919.81
3936.5
3954.04
3972.52
3992.08
4012.88
4035.09
4058.91
4084.59
4112.44
4142.83
4176.23
4213.22
4254.49
4300.84
4353.33
4413.15
4481.54
4554.14
4539.54
4610.26
4596.54
4656.01
4767.02
4704.72
4756.59
4826.07
4820.39
4878.72
4879.37
3727.44
3739.2
3751.1
3763.12
3775.26
3787.56
3800.05
3812.77
3825.75
3839.05
3852.7
3866.76
3881.31
3896.39
3912.09
3928.48
3945.67
3963.75
3982.83
4003.07
4024.63
4047.7
4072.52
4099.35
4128.54
4160.52
4195.86
4235.22
4279.38
4329.35
4386.4
4452.07
4524.47
4508.08
4581.74
4565.82
4642.29
4627
4691.27
4811.51
4743.62
4799.57
4876.19
4869.36
4933.91
4934.17
3721.34
3733.04
3744.88
3756.84
3768.92
3781.15
3793.57
3806.2
3819.08
3832.25
3845.77
3859.67
3874.02
3888.88
3904.32
3920.41
3937.24
3954.91
3973.53
3993.23
4014.14
4036.45
4060.38
4086.17
4114.15
4144.7
4178.33
4215.69
4257.52
4304.75
4358.61
4420.65
4491.43
4473.73
4549.03
4531.29
4610.53
4592.96
4675.86
4658.8
4728.41
4859.02
4784.82
4845.33
4930.05
4921.88
4993.47
4993.29
3715.27
3726.9
3738.69
3750.57
3762.58
3774.74
3787.07
3799.6
3812.38
3825.43
3838.8
3852.54
3866.7
3881.33
3896.51
3912.3
3928.78
3946.05
3964.2
3983.36
4003.65
4025.23
4048.29
4073.05
4099.8
4128.9
4160.82
4196.14
4235.55
4279.93
4330.4
4388.4
4456.16
4437.9
4512.89
4493.87
4574.44
4555.03
4640.48
4621.05
4711.11
4692.04
4767.61
4909.82
4828.52
4894.07
4988.14
4978.39
5058.01
5057.39
3709.24
3720.8
3732.51
3744.33
3756.26
3768.33
3780.57
3793.01
3805.67
3818.59
3831.82
3845.39
3859.36
3873.77
3888.69
3904.19
3920.33
3937.2
3954.89
3973.52
3993.19
4014.06
4036.29
4060.06
4085.62
4113.29
4143.48
4176.75
4213.74
4255.21
4302.22
4356.06
4420.05
4401.8
4474.61
4455.11
4534.91
4514.27
4600.64
4579.35
4671.64
4650.11
4748.18
4726.85
4808.99
4964.31
4874.85
4946.13
5051.04
5039.41
5128.2
5127.09
3703.26
3714.74
3726.38
3738.11
3749.96
3761.94
3774.08
3786.41
3798.96
3811.75
3824.83
3838.23
3852.01
3866.2
3880.87
3896.07
3911.88
3928.37
3945.62
3963.73
3982.81
4002.98
4024.4
4047.23
4071.68
4098
4126.54
4157.77
4192.32
4230.88
4274.41
4324.07
4384.1
4366.14
4435.69
4416.31
4493.36
4472.35
4557.37
4534.94
4627.59
4604.2
4704.06
4680.16
4787.15
4763.23
4852.68
5022.92
4924.14
5001.9
5119.35
5105.49
5204.81
5203.07
3697.33
3708.73
3720.29
3731.94
3743.7
3755.58
3767.62
3779.84
3792.26
3804.92
3817.85
3831.08
3844.67
3858.64
3873.06
3887.98
3903.46
3919.57
3936.4
3954.02
3972.53
3992.04
4012.68
4034.6
4057.98
4083.04
4110.06
4139.4
4171.58
4207.24
4247.27
4292.79
4348.74
4331.16
4397.19
4378.22
4451.42
4430.7
4512.31
4489.67
4580.2
4555.9
4655.31
4629.63
4737.74
4711.23
4828.05
4801.19
4898.91
5086.13
4976.72
5061.78
5193.76
5177.34
5288.77
5286.26
3691.47
3702.78
3714.25
3725.81
3737.47
3749.26
3761.19
3773.29
3785.59
3798.11
3810.88
3823.95
3837.34
3851.1
3865.28
3879.92
3895.08
3910.83
3927.24
3944.39
3962.36
3981.24
4001.16
4022.22
4044.59
4068.45
4094.04
4121.66
4151.67
4184.62
4221.23
4262.59
4314.23
4297.61
4359.55
4341.05
4410.27
4390.13
4467.22
4445.11
4531.48
4507.2
4603.5
4577.29
4683.87
4655.84
4772.76
4743.48
4871.04
4840.93
4948
5154.57
5032.93
5126.28
5275.12
5255.7
5381.2
5377.71
3685.67
3696.89
3708.27
3719.74
3731.3
3742.98
3754.8
3766.78
3778.94
3791.32
3803.95
3816.84
3830.04
3843.59
3857.53
3871.9
3886.75
3902.15
3918.16
3934.85
3952.31
3970.6
3989.83
4010.11
4031.55
4054.3
4078.54
4104.55
4132.61
4163.11
4196.61
4234.05
4276.69
4323.05
4305.48
4370.31
4350.76
4423.39
4402.04
4483.24
4459.72
4551.12
4525.19
4627.61
4599.5
4713.59
4683.3
4809.41
4777.4
4916.48
4882.94
5000.29
5228.93
5093.23
5196.13
5364.32
5341.42
5483.45
5478.73
3679.94
3691.07
3702.36
3713.72
3725.18
3736.75
3748.45
3760.31
3772.34
3784.58
3797.05
3809.77
3822.79
3836.12
3849.82
3863.93
3878.48
3893.55
3909.17
3925.43
3942.38
3960.12
3978.71
3998.25
4018.84
4040.58
4063.63
4088.15
4114.41
4142.69
4173.44
4207.36
4245.74
4295.43
4277.98
4331.69
4313.25
4381.04
4360.35
4436.65
4414
4499.67
4474.66
4571.52
4543.89
4652.98
4622.92
4745.12
4712.57
4848.48
4813.88
4965.03
4928.36
5056.61
5310.16
5158.77
5272.66
5462.63
5435.73
5597.15
5590.94
3674.27
3685.31
3696.51
3707.78
3719.13
3730.59
3742.17
3753.89
3765.79
3777.88
3790.19
3802.74
3815.57
3828.71
3842.18
3856.02
3870.29
3885.02
3900.28
3916.12
3932.6
3949.8
3967.79
3986.64
4006.44
4027.28
4049.25
4072.47
4097.13
4123.43
4151.7
4182.5
4216.97
4261.52
4245.56
4301.93
4283.78
4340.19
4320.73
4391.75
4369.83
4450.17
4426.14
4516.76
4490.18
4593.11
4563.7
4680.19
4648.13
4779.25
4744.49
4891.16
4854.04
5018.08
4978.7
5118.73
5399.74
5231.63
5358.24
5571.6
5540.26
5724.14
5716.25
3668.68
3679.63
3690.73
3701.9
3713.15
3724.49
3735.95
3747.54
3759.3
3771.24
3783.39
3795.77
3808.41
3821.34
3834.59
3848.19
3862.17
3876.59
3891.49
3906.93
3922.96
3939.65
3957.07
3975.28
3994.36
4014.36
4035.36
4057.45
4080.73
4105.34
4131.44
4159.52
4190.5
4230.53
4216.26
4266.46
4249.94
4308.05
4288.98
4348.48
4327.89
4402.5
4379.19
4464.11
4438.48
4534.77
4506.37
4616.29
4584.78
4709.83
4675.39
4816.91
4779.47
4938.85
4898.71
5077.46
5035.32
5188.91
5500
5314.56
5455.95
5693.25
5657.41
5866.5
5857.05
3663.23
3674.02
3685.03
3696.1
3707.24
3718.47
3729.8
3741.26
3752.87
3764.65
3776.64
3788.85
3801.31
3814.04
3827.07
3840.43
3854.15
3868.26
3882.82
3897.87
3913.47
3929.68
3946.56
3964.17
3982.56
4001.8
4021.93
4043.02
4065.1
4088.28
4112.61
4138.41
4166.43
4197.08
4234.31
4219.46
4270.8
4253.58
4313.54
4293.4
4356.47
4334.59
4413.2
4388.28
4478.46
4450.94
4553.72
4523.19
4641.09
4607.08
4741.96
4704.6
4858.29
4817.41
4992.04
4947.85
5144.59
5098.48
5268.63
5614.29
5409.17
5567.72
5830.16
5790.53
6026.63
6015.69
3668.56
3679.41
3690.38
3701.41
3712.52
3723.73
3735.05
3746.51
3758.14
3769.96
3782
3794.28
3806.81
3819.63
3832.75
3846.21
3860.04
3874.27
3888.95
3904.14
3919.88
3936.25
3953.28
3971.05
3989.58
4008.93
4029.11
4050.16
4072.12
4095
4118.98
4144.64
4172.52
4207.74
4194.46
4237.36
4222.08
4274.33
4256.41
4318.32
4297.05
4364.03
4340.69
4423.75
4397.02
4493.15
4463.49
4573.54
4540.58
4667.37
4630.48
4776.4
4735.57
4903.16
4858.01
5050.58
5001.22
5219.8
5168.08
5358.26
5745.6
5516.2
5694.09
5985.29
5943.35
6206.21
6194.06
3673.94
3684.74
3695.67
3706.66
3717.74
3728.92
3740.24
3751.71
3763.36
3775.22
3787.31
3799.65
3812.26
3825.16
3838.37
3851.92
3865.84
3880.17
3894.96
3910.27
3926.14
3942.63
3959.8
3977.68
3996.31
4015.7
4035.84
4056.75
4078.43
4100.95
4124.75
4150.51
4182.28
4170.89
4209.64
4196.41
4239.64
4224.05
4277.05
4258.38
4322.44
4299.98
4371.11
4346.21
4434.17
4405.51
4508.16
4476.14
4594.16
4558.54
4694.97
4654.89
4812.83
4768.02
4951.11
4900.85
5114.2
5058.36
5303.16
5243.76
5458.02
5895.29
5636.81
5785.95
5816.48
6161.04
6117.6
6406.7
6394.24
3679.26
3690.01
3700.89
3711.84
3722.89
3734.05
3745.36
3756.84
3768.52
3780.42
3792.57
3804.98
3817.66
3830.63
3843.91
3857.54
3871.54
3885.95
3900.84
3916.24
3932.21
3948.82
3966.08
3984.05
4002.71
4022.07
4042.09
4062.76
4084.09
4106.42
4130.53
4155.71
4184.23
4172.86
4210.78
4197.63
4241.07
4225.21
4278.98
4259.53
4326.06
4302.37
4377.82
4351.28
4444.6
4413.91
4523.55
4489.03
4615.55
4577.11
4723.71
4680.2
4850.85
4801.62
5001.49
4945.45
5182.56
5118.98
5395.38
5288.63
5322.64
5558.4
5524.02
5893.6
6035.68
6006.61
5753.64
5718.57
5618.35
5860.81
6359.5
6126.02
6250.46
6276.93
6628.75
6615.6
3684.52
3695.21
3706.04
3716.95
3727.96
3739.11
3750.41
3761.91
3773.62
3785.57
3797.77
3810.24
3822.98
3836.02
3849.37
3863.05
3877.11
3891.59
3906.54
3922.02
3938.08
3954.77
3972.11
3990.12
4008.78
4028.03
4047.85
4068.22
4089.37
4112.09
4135.94
4163.66
4153.59
4185.55
4174.29
4211.19
4198.14
4241.72
4225.64
4280.34
4260.09
4329.49
4304.53
4384.38
4356.17
4455.17
4422.42
4539.43
4502.35
4637.71
4596.34
4753.34
4706.29
4890.01
4835.95
5056.98
5025.5
4995.43
4964.17
5254.84
5219.25
5084.56
5147.41
5184.13
5367.08
5488.92
5451.39
5330.37
5581.08
5974.88
6095.22
5825.38
5787.49
5680.95
5939.79
6380.59
6536.3
6513.75
6221.39
6353.21
6873.59
6651.4
6789.49
6803.71
3689.71
3700.34
3711.11
3721.98
3732.95
3744.08
3755.38
3766.9
3778.65
3790.65
3802.91
3815.44
3828.24
3841.32
3854.71
3868.44
3882.53
3897.06
3912.06
3927.61
3943.74
3960.49
3977.89
3995.9
4014.49
4033.61
4053.17
4073.35
4094.88
4117.58
4139.86
4164.69
4154.79
4186.22
4175.13
4210.97
4198.01
4241.78
4225.46
4281.44
4260.38
4333.01
4306.78
4391.02
4361.15
4466.15
4431.3
4555.91
4516.26
4660.62
4616.31
4783.47
4732.79
4934.89
4904.65
4876.37
4847.12
5051.44
5018.86
4986.39
5293.28
5255.32
5112.14
5178.31
5216.98
5412.85
5542.54
5502.29
5373.16
5640.73
6061.06
6188.64
5901.42
5746.85
5860.1
6023.3
6489.5
6629.5
6322.24
6461.16
6930.01
7071.91
7070.31
6771.63
6915.56
3694.84
3705.38
3716.1
3726.91
3737.85
3748.96
3760.27
3771.81
3783.6
3795.66
3807.98
3820.56
3833.41
3846.52
3859.93
3873.67
3887.79
3902.34
3917.38
3932.98
3949.16
3965.96
3983.38
4001.4
4019.92
4038.83
4058.2
4078.7
4100.35
4121.78
4145.99
4136.9
4165.12
4155.37
4186.25
4175.36
4210.17
4197.25
4241.52
4224.83
4282.59
4260.67
4336.86
4309.28
4398.02
4366.48
4477.7
4440.73
4573.09
4530.84
4683.93
4636.75
4819.97
4792.01
4765.95
4739.23
4954.87
4923.77
4893.52
4863.7
5077.08
5042.38
5008.09
5332.88
5291.93
5140.2
5209.18
5250.54
5460.37
5598.65
5554.98
5417.19
5703.23
6151.96
6287.28
5981.89
5815.92
5936.81
6111.31
6604.36
6750.42
6428.77
6575.37
7062.03
7210.27
7208.41
6897.93
7047.88
3699.88
3710.34
3720.99
3731.75
3742.65
3753.75
3765.07
3776.65
3788.49
3800.61
3812.98
3825.6
3838.47
3851.59
3865
3878.73
3892.85
3907.42
3922.48
3938.1
3954.33
3971.18
3988.67
4006.69
4025.05
4043.78
4063.4
4084.08
4104.7
4123.97
4146.14
4137.2
4164.94
4155.38
4185.65
4174.97
4208.92
4195.92
4241.1
4223.89
4283.94
4261.02
4341.11
4312.09
4405.55
4372.3
4489.9
4450.73
4590.65
4545.83
4714.16
4688.66
4664.4
4640.19
4834.89
4806.52
4779.04
4751.95
4974.73
4942.19
4910.45
4879.53
5102.63
5065.61
5029.28
5373.46
5329.16
5168.17
5239.9
5284.46
5509.46
5657.27
5609.67
5462.52
5768.69
6248.05
6391.9
6066.66
5888.53
6017.7
6204.31
6725.73
6878.17
6541.95
6696.9
7200.01
7355.14
7352.6
7031.62
7186.99
3704.84
3715.21
3725.78
3736.48
3747.35
3758.43
3769.78
3781.41
3793.32
3805.49
3817.91
3830.55
3843.41
3856.51
3869.89
3883.6
3897.71
3912.26
3927.32
3942.96
3959.25
3976.24
3993.82
4011.74
4029.97
4048.87
4068.68
4088.53
4107.27
4128.41
4120.12
4145.73
4136.93
4164.17
4154.8
4184.43
4173.97
4207.22
4194.1
4240.54
4222.6
4285.49
4261.37
4345.51
4314.94
4413.54
4378.45
4502.51
4460.99
4607.71
4560.34
4725.68
4699.73
4674.29
4648.95
4849.53
4820.3
4791.83
4764.01
4994.07
4959.92
4926.74
4894.6
5127.83
5088.33
5049.78
5414.99
5366.98
5195.75
5270.51
5318.66
5560.28
5718.65
5666.6
5509.3
5837.29
6350.1
6503.34
6156.08
5964.94
6103.14
6303.01
6855.04
7014.56
6662.8
6827.05
7343.99
7507.34
7504.44
7174.48
7334.11
3709.69
3719.96
3730.45
3741.09
3751.93
3763.03
3774.42
3786.11
3798.08
3810.31
3822.75
3835.39
3848.23
3861.28
3874.6
3888.25
3902.31
3916.82
3931.87
3947.59
3964.08
3981.24
3998.81
4016.66
4035
4054.05
4073.17
4091.4
4107.99
4127.92
4119.83
4144.84
4136.25
4162.88
4153.71
4182.71
4172.46
4205.01
4191.75
4239.79
4220.94
4286.95
4261.53
4349.6
4317.36
4421.61
4384.45
4514.62
4470.55
4632.31
4607.04
4558.06
4582.31
4736.87
4710.21
4683.95
4657.95
4863.51
4833.33
4803.98
4775.34
5012.61
4976.78
4942.15
4908.79
5152.46
5110.3
5069.39
5457.51
5405.37
5222.87
5300.91
5353.07
5612.87
5782.83
5725.85
5557.39
5909.11
6458.8
6622.41
6250.82
6045.67
6193.55
6408.12
6994.21
7162.25
6792.57
6967.67
7497.71
7673.51
7672.69
7329.52
7496.25
3714.42
3724.58
3734.98
3745.57
3756.39
3767.52
3778.98
3790.76
3802.81
3815.08
3827.53
3840.14
3852.9
3865.86
3879.09
3892.65
3906.62
3921.09
3936.21
3952.18
3968.94
3986.21
4003.75
4021.66
4040.1
4058.57
4076.29
4092.58
4111.38
4103.76
4127.13
4119.16
4143.66
4135.28
4161.21
4152.29
4180.52
4170.52
4202.43
4188.97
4238.78
4218.99
4287.9
4261.18
4352.73
4318.81
4428.83
4389.49
4534.22
4511.37
4478.33
4639.9
4614.01
4563.54
4588.57
4747.4
4719.98
4692.98
4666.28
4876.63
4845.51
4815.27
4785.8
5030.2
4992.66
4956.59
4921.99
5176.39
5131.42
5088.08
5500.87
5444.18
5249.48
5331.01
5387.45
5667.13
5849.95
5787.69
5606.66
5984.58
6574.96
6750.25
6351.62
6130.93
6289.35
6520.49
7145.86
7325.22
6932.82
7121.15
7673.93
7897.84
7893.68
7504.59
7689.94
3719.01
3729.05
3739.37
3749.9
3760.74
3771.94
3783.49
3795.37
3807.5
3819.8
3832.22
3844.74
3857.38
3870.22
3883.31
3896.76
3910.65
3925.16
3940.57
3956.92
3973.91
3991.19
4008.76
4026.71
4044.62
4061.86
4077.85
4092.39
4110.65
4103.18
4126.11
4118.29
4142.27
4134.11
4159.24
4150.63
4177.89
4168.22
4199.63
4185.96
4237.36
4216.76
4287.88
4259.99
4354.14
4318.66
4434.35
4392.74
4539.05
4515.16
4494.13
4470.76
4646.66
4620.11
4568.27
4593.99
4757.07
4728.89
4701.15
4673.74
4888.77
4856.7
4825.58
4795.27
5046.82
5007.54
4970
4934.17
5199.65
5151.76
5105.9
5545.03
5483.33
5275.68
5361.06
5421.88
5723.33
5920.14
5852.05
5657.42
6063.92
6699.62
6888.33
6459.32
6221.07
6391.38
6641
7313.64
7509.62
7085.66
7290.36
7905.68
8260.24
8222.44
7712.22
7936.92
3723.46
3733.36
3743.58
3754.09
3764.98
3776.29
3787.99
3799.99
3812.18
3824.46
3836.79
3849.16
3861.64
3874.3
3887.24
3900.56
3914.45
3929.27
3945.18
3961.89
3978.95
3996.24
4013.79
4031.24
4048.05
4063.73
4078.12
4095.33
4088.28
4109.8
4102.49
4124.92
4117.27
4140.71
4132.74
4157.11
4148.83
4175.03
4165.7
4196.7
4182.97
4235.33
4214.15
4286.52
4257.78
4353.45
4316.59
4447.76
4426.13
4393.61
4543.11
4518.49
4496.29
4472.17
4652.41
4625.17
4572.07
4598.41
4765.71
4736.77
4708.3
4680.18
4899.89
4866.87
4834.84
4803.64
5062.51
5021.44
4982.42
4945.36
5222.4
5171.46
5122.98
5590.34
5523.22
5301.79
5391.49
5456.75
5781.52
5993.42
5919
5709.76
6147.8
6834.15
7038.51
6574.55
6316.85
6500.26
6770.8
7502.07
7722.7
7253.65
7478.6
8221.74
8622.34
8595.41
7961.86
8240.61
3727.72
3737.47
3747.6
3758.13
3769.15
3780.63
3792.49
3804.6
3816.81
3829.01
3841.18
3853.36
3865.62
3878.09
3890.86
3904.13
3918.32
3933.73
3950.13
3966.98
3984.04
4001.27
4018.33
4034.77
4050.16
4064.35
4077.55
4094.59
4087.6
4108.84
4101.66
4123.6
4116.14
4139.01
4131.23
4154.94
4146.92
4172.23
4163.22
4193.75
4180.16
4232.63
4211.22
4283.59
4254.43
4361.13
4341.78
4312.43
4448.84
4426.38
4381.86
4403.1
4546.32
4521.12
4497.45
4472.8
4657
4629.08
4574.84
4601.71
4773.24
4743.51
4714.3
4685.47
4910
4875.98
4842.97
4810.84
5077.38
5034.47
4993.93
4955.58
5244.95
5190.8
5139.53
5636.96
5564.17
5328.29
5422.73
5492.54
5841.94
6070.59
5989.46
5763.85
6236.9
6980.1
7203.09
6698.27
6418.93
6617
6911.05
7715.34
7969.19
7439
7688.91
8579.4
8924.79
8932.57
8252.87
8580.11
3731.77
3741.35
3751.44
3762.07
3773.28
3784.98
3797.01
3809.18
3821.33
3833.39
3845.34
3857.26
3869.28
3881.53
3894.2
3907.75
3922.61
3938.63
3955.26
3972.12
3989.09
4005.84
4021.97
4037.1
4051.1
4064.18
4080.2
4073.61
4093.76
4086.91
4107.76
4100.71
4122.19
4114.91
4137.2
4129.61
4152.79
4144.93
4169.65
4160.87
4190.85
4177.61
4229.21
4207.99
4279.19
4249.99
4359.27
4339.49
4317.16
4299.57
4448.96
4425.77
4380.1
4401.82
4548.55
4522.79
4497.63
4472.6
4660.43
4631.85
4576.54
4603.9
4779.59
4749.06
4719.1
4689.57
4919.07
4883.97
4849.96
4816.9
5091.58
5046.73
5004.57
4964.83
5267.72
5210.08
5155.8
5685.13
5606.63
5355.42
5455.22
5529.76
5905.44
6152.45
6064.03
5820.43
6331.68
7139.39
7383.83
6831.53
6528.18
6742.57
7063.4
7956.43
8249.12
7644.11
7923.41
8941.42
9249.89
9292.32
8576.65
8941.04
3735.55
3744.98
3755.12
3765.96
3777.43
3789.34
3801.48
3813.63
3825.67
3837.51
3849.19
3860.83
3872.59
3884.69
3897.59
3911.84
3927.43
3943.79
3960.46
3977.2
3993.7
4009.58
4024.49
4038.3
4051.28
4063.57
4079.53
4073.01
4092.82
4086.12
4106.54
4099.63
4120.67
4113.55
4135.31
4127.92
4150.63
4142.88
4167.32
4158.64
4188.05
4175.25
4225.14
4204.54
4282.87
4267.52
4244.55
4356.58
4336.37
4313.94
4296.24
4448.31
4424.66
4377.76
4399.82
4549.74
4523.43
4497.01
4471.63
4662.78
4633.6
4577.27
4605.09
4784.81
4753.48
4722.75
4692.53
4927.1
4890.9
4855.89
4821.93
5105.29
5058.3
5014.34
4973.12
5290.91
5229.62
5172.14
5735.44
5651.19
5383.42
5489.15
5568.89
5972.58
6239.47
6143.1
5880.23
6432.83
7313.69
7582.18
6975.78
6645.37
6877.89
7229.56
8226.26
8559.45
7870.94
8183.61
9326.27
9706.94
9744.79
8926.97
9327.79
3738.98
3748.34
3758.68
3769.82
3781.54
3793.61
3805.79
3817.87
3829.72
3841.3
3852.68
3864.02
3875.59
3887.85
3901.47
3916.55
3932.59
3949.04
3965.58
3981.87
3997.54
4012.28
4025.93
4038.78
4051.06
4062.79
4078.81
4072.46
4091.8
4085.25
4105.2
4098.45
4119.03
4112.05
4133.35
4126.12
4148.41
4140.76
4165.11
4156.42
4185.18
4172.81
4220.52
4200.86
4279.7
4264.44
4233.8
4246.45
4353.35
4332.99
4310.07
4292.34
4446.92
4422.91
4374.82
4397.22
4550.02
4523.21
4495.8
4470.02
4664.25
4634.55
4577.24
4605.52
4789.01
4756.89
4725.39
4694.53
4934.13
4896.85
4860.9
4826.1
5118.79
5069.35
5023.39
4980.56
5314.72
5249.75
5188.96
5788.52
5698.2
5412.4
5524.46
5609.97
6043.9
6332.09
6227.1
5943.9
6540.95
7504.06
7799.84
7132.6
6771.05
7024.17
7410.33
8524.07
8896.79
8120.91
8469.22
9762.51
10313.3
10282.4
9304.56
9748.91
3742.01
3751.52
3762.2
3773.66
3785.59
3797.75
3809.88
3821.81
3833.43
3844.71
3855.77
3866.88
3878.56
3891.51
3906.02
3921.66
3937.86
3954.19
3970.28
3985.79
4000.39
4013.91
4026.63
4038.85
4050.57
4065.02
4071.74
4059.06
4078
4090.71
4084.32
4103.75
4097.18
4117.25
4110.44
4131.27
4124.19
4146.07
4138.52
4162.76
4154.05
4181.75
4169.84
4215.06
4196.57
4275.83
4260.56
4230.4
4242.73
4349.55
4329.12
4305.47
4287.79
4444.9
4420.57
4371.24
4393.97
4549.57
4522.36
4493.85
4467.68
4664.97
4634.76
4576.45
4605.23
4792.4
4759.55
4727.31
4695.79
4940.3
4902
4865.17
4829.52
5132.47
5080.23
5032.02
4987.42
5339.26
5270.55
5206.31
5844.95
5747.98
5442.37
5561.45
5653.23
6119.61
6430.57
6316.17
6011.37
6656.37
7711.31
8038.36
7302.48
6906.1
7181.98
7606.31
8848.13
9261.09
8394.39
8779.88
10248.8
10872.5
10827.5
9710.99
10204.6
3744.67
3754.6
3765.71
3777.45
3789.53
3801.7
3813.73
3825.45
3836.77
3847.73
3858.51
3869.69
3881.98
3895.88
3911.05
3926.92
3943.02
3958.93
3974.27
3988.76
4002.19
4014.79
4026.94
4038.66
4049.81
4071.04
4064.33
4058.41
4077.15
4089.56
4083.33
4102.25
4095.87
4115.35
4108.74
4129
4122.1
4143.48
4136.09
4159.96
4151.34
4177.13
4165.87
4215.22
4205.43
4190.9
4271.45
4256.44
4226.22
4238.32
4344.95
4324.51
4300.02
4282.5
4442.21
4417.63
4366.75
4389.75
4548.29
4520.71
4490.83
4464.3
4664.68
4633.94
4574.63
4603.93
4794.99
4761.39
4728.42
4696.15
4945.79
4906.37
4868.55
4832.01
5146.43
5091.14
5040.4
4993.77
5364.6
5291.95
5224.01
5904.28
5799.71
5473.4
5599.5
5697.8
6199.54
6535.48
6410.58
6082.36
6779.79
7936.88
8298.6
7485.57
7051.1
7351.27
7817.9
9198.09
9652.46
8691.48
9115.74
10759.5
11393.1
11361.8
10145.5
10687.5
3747.18
3757.72
3769.22
3781.16
3793.31
3805.44
3817.32
3828.78
3839.77
3850.41
3861.17
3872.88
3886.13
3900.77
3916.26
3932.08
3947.78
3962.97
3977.35
3990.72
4003.22
4015.28
4026.99
4038.23
4048.96
4070.27
4063.63
4057.86
4076.25
4088.36
4082.28
4100.69
4094.49
4113.34
4106.97
4126.51
4119.85
4140.54
4133.38
4156.42
4148.13
4171.08
4160.82
4211.13
4201.79
4182.17
4189.4
4266.4
4251.69
4221.65
4233.34
4339.33
4318.97
4293.45
4276.28
4438.52
4413.7
4361.06
4384.12
4545.95
4517.99
4486.05
4459.22
4662.95
4631.51
4571.06
4600.92
4796.6
4762.16
4728.37
4695.25
4950.47
4909.68
4870.67
4833.01
5160.5
5101.89
5048.27
4999.13
5390.36
5313.43
5241.35
5966.37
5853.33
5504.93
5632.3
5742.97
6283.5
6646.98
6509.99
6156.65
6911.58
8182.46
8581.59
7682.18
7206.14
7532.21
8047.16
9574.26
10069.9
9013.31
9477.03
11281.2
11976.6
11917.1
10606.7
11189.6
3749.82
3760.91
3772.69
3784.76
3796.93
3808.97
3820.64
3831.8
3842.46
3852.96
3864.16
3876.78
3890.83
3905.88
3921.37
3936.83
3951.85
3966.13
3979.46
3991.89
4003.87
4015.54
4026.83
4037.64
4051.03
4057.16
4045.52
4069.45
4062.87
4075.3
4087.11
4081.18
4099.07
4093.07
4111.26
4105.13
4123.84
4117.49
4137.21
4130.39
4152.12
4144.39
4178.43
4168.59
4163.35
4154.84
4206.5
4197.51
4185.22
4260.58
4246.29
4216.52
4227.66
4332.21
4312.11
4285.55
4268.89
4433.22
4408.22
4353.71
4376.58
4541.87
4513.53
4478.71
4451.72
4658.87
4626.62
4564.86
4595.31
4796.46
4760.91
4726.15
4692.08
4953.63
4910.95
4870.34
4831.11
5173.53
5111.08
5054.13
5001.98
5414.83
5327.77
5250.25
6030.61
5904.97
5531.34
5682.41
5787.78
6370.82
6764.99
6610.78
6230.3
7051.83
8449.55
8888.14
7893.66
7371.38
7726.5
8295.7
9977.07
10512.9
9359.45
9864.93
11815.5
12523.7
12468
11090.9
11707.9
3752.7
3764.15
3776.08
3788.21
3800.35
3812.25
3823.68
3834.52
3844.95
3855.75
3867.79
3881.25
3895.79
3910.9
3926.09
3940.92
3955.09
3968.36
3980.76
3992.68
4004.3
4015.6
4026.5
4036.92
4056.55
4050.45
4044.96
4068.58
4062.12
4074.3
4085.81
4080.05
4097.4
4091.59
4109.11
4103.24
4121.06
4115.04
4133.56
4127.21
4147.14
4140.17
4174.32
4164.62
4159.78
4148.51
4201.33
4192.85
4180.71
4253.73
4240.02
4210.75
4221.2
4323.42
4303.74
4276.38
4260.31
4425.68
4400.63
4344.53
4367.03
4535.21
4506.51
4468.53
4441.59
4651.26
4618.22
4555.3
4586.22
4793.04
4756.14
4720.33
4685.34
4953.78
4908.68
4865.9
4824.76
5179.32
5114.39
5055.14
5000.47
5440.2
5359.12
5245.58
6095.02
5973.79
5536.61
5665.22
5805.76
6459.03
6889.69
6726.18
6319.6
7200.58
8738.66
9219.26
8123.19
7547.87
7936.6
8564.32
10404.7
10981.9
9731.29
10277.6
12353.1
12944.1
12950.6
11594.9
12237.4
3755.76
3767.37
3779.36
3791.49
3803.55
3815.26
3826.4
3836.99
3847.56
3859.11
3871.99
3886
3900.69
3915.57
3930.18
3944.22
3957.43
3969.8
3981.68
3993.25
4004.54
4015.5
4026.07
4036.26
4055.91
4049.89
4044.53
4067.7
4061.38
4073.29
4084.49
4078.89
4095.69
4090.08
4106.91
4101.3
4118.2
4112.54
4129.71
4123.91
4141.78
4135.64
4169.99
4160.62
4156.21
4152.37
4145.39
4142.17
4195.69
4187.82
4175.93
4245.8
4232.82
4204.39
4214.06
4313.13
4294
4266.2
4250.82
4415.71
4390.82
4333.73
4355.68
4525.38
4496.47
4455.5
4428.91
4639.13
4605.51
4541.93
4573.06
4784.91
4746.53
4709.81
4673.99
4949.9
4902.75
4858.33
4815.94
5175.87
5111.53
5052.35
4997.17
5450.27
5343.79
5243.4
6123.19
5957.5
5534.35
5662.63
5803.58
6499.21
7027.71
6711.98
6303.5
7363
9050.71
9574.29
8371.52
7738.52
8160.08
8855.1
10859.4
11473.1
10129
10716.7
12876.9
13291.8
13388.4
12115.4
12775.2
3758.88
3770.51
3782.5
3794.58
3806.49
3817.95
3828.84
3839.47
3850.65
3863.01
3876.5
3890.73
3905.26
3919.64
3933.52
3946.66
3959.01
3970.85
3982.39
3993.64
4004.62
4015.29
4025.62
4035.6
4044.02
4055.26
4049.34
4066.84
4060.62
4072.3
4083.17
4077.74
4093.97
4088.58
4104.68
4099.34
4115.3
4110
4125.82
4120.56
4136.41
4131.07
4165.56
4156.55
4148.79
4142.07
4139.08
4189.69
4182.49
4171
4237.08
4224.89
4197.64
4206.52
4301.62
4283.16
4255.33
4240.78
4403.4
4378.95
4321.53
4342.75
4512.02
4483.21
4439.68
4413.76
4622.56
4588.37
4524.8
4555.79
4774.71
4733.69
4694.98
4658.26
4945.83
4898.01
4853.09
4810.33
5173.66
5109.26
5050.02
4994.78
5448.22
5341.37
5241.25
6120.94
5954.69
5532.1
5660.23
5801.34
6496.75
7018.34
6708.93
6300.44
7356.82
9396.92
9951.95
8630.69
7736.43
8162.47
9161.3
11337.9
11983.7
10549.5
11182.9
13402.3
13732.2
13977
12653.6
13334.7
3761.98
3773.55
3785.49
3797.46
3809.16
3820.39
3831.25
3842.31
3854.27
3867.26
3881.03
3895.18
3909.29
3923.01
3936.05
3948.38
3960.2
3971.7
3982.93
3993.9
4004.61
4015.03
4025.16
4035.01
4043.65
4043.2
4054.63
4048.85
4065.98
4059.9
4071.32
4081.89
4076.62
4092.29
4087.11
4102.49
4097.42
4112.42
4107.49
4122.02
4117.26
4133.85
4131.44
4126.67
4161.1
4152.57
4145.24
4139.01
4136.31
4183.52
4176.98
4166.05
4227.88
4216.52
4190.72
4198.77
4289.16
4271.49
4244.06
4230.42
4388.93
4365.22
4308.2
4328.49
4495.19
4466.83
4421.38
4396.42
4604.26
4568.32
4504.39
4535.04
4768.59
4712.68
4678.39
4641.32
4943.38
4895.47
4850.46
4807.64
5171.54