/*--------------------------------*- C++ -*----------------------------------*\
  =========                 |
  \\      /  F ield         | OpenFOAM: The Open Source CFD Toolbox
   \\    /   O peration     | Website:  https://openfoam.org
    \\  /    A nd           | Version:  dev
     \\/     M anipulation  |
\*---------------------------------------------------------------------------*/
FoamFile
{
    version     2.0;
    format      ascii;
    class       volScalarField;
    location    "2500";
    object      H2O;
}
// * * * * * * * * * * * * * * * * * * * * * * * * * * * * * * * * * * * * * //

dimensions      [0 0 0 0 0 0 0];

internalField   nonuniform List<scalar> 
9841
(
7.65627e-28
2.33797e-27
1.33559e-27
3.91636e-27
5.96252e-27
8.68702e-28
3.66857e-27
1.21177e-26
7.64273e-27
6.81506e-28
3.62726e-27
2.16139e-26
1.65902e-26
5.57361e-27
2.94574e-28
7.7414e-27
2.76265e-26
2.85635e-26
1.51119e-26
3.73303e-27
2.4485e-28
5.99947e-27
3.07913e-26
6.41307e-26
3.66766e-26
1.25679e-26
1.71717e-27
4.80511e-29
6.88477e-27
4.16668e-26
1.01566e-25
7.64937e-26
3.38078e-26
7.40289e-27
8.04295e-28
2.80992e-29
2.28832e-26
7.19888e-26
1.68081e-25
1.35621e-25
7.33224e-26
2.39535e-26
2.5764e-27
2.9845e-28
1.43729e-29
9.67446e-26
1.58749e-25
3.16186e-25
2.51652e-25
1.22411e-25
6.1154e-26
1.09881e-26
1.47894e-27
9.42543e-29
7.13171e-30
2.06511e-25
4.36705e-25
5.93677e-25
4.8416e-25
2.50194e-25
1.22681e-25
4.37929e-26
5.33501e-27
7.27325e-28
4.96522e-29
1.18668e-30
2.83892e-25
9.69942e-25
1.12536e-24
9.10605e-25
5.73097e-25
2.5322e-25
8.55146e-26
2.50073e-26
2.1358e-27
3.40971e-28
2.9635e-29
6.79815e-31
3.69358e-25
1.19588e-24
2.65941e-24
1.90585e-24
1.21243e-24
5.58014e-25
2.07199e-25
6.11246e-26
1.30342e-26
1.34267e-27
1.57403e-28
1.91468e-29
1.53522e-30
7.71933e-25
2.88037e-24
4.85448e-24
3.82847e-24
2.63173e-24
1.07567e-24
4.54042e-25
1.53354e-25
2.90235e-26
6.66376e-27
6.19929e-28
7.04606e-29
1.33218e-29
1.26051e-30
7.84138e-25
4.91455e-24
7.33073e-24
1.02504e-23
5.97131e-24
2.97257e-24
9.61717e-25
3.49093e-25
1.0284e-25
1.86534e-26
3.3506e-27
4.84199e-28
8.28927e-29
8.05165e-30
1.31975e-30
5.35495e-25
3.44931e-24
1.54144e-23
2.06584e-23
1.18306e-23
6.41857e-24
2.39096e-24
6.59184e-25
1.97233e-25
4.55187e-26
1.16283e-26
1.9916e-27
2.35154e-28
8.30504e-29
2.17053e-29
3.72129e-30
1.38427e-24
9.76779e-24
1.44622e-23
3.44343e-23
3.11596e-23
1.40593e-23
5.71153e-24
2.09243e-24
5.80779e-25
1.53731e-25
2.94122e-26
7.25201e-27
9.95648e-28
4.89788e-28
1.46178e-28
2.98941e-29
8.47652e-31
2.60458e-24
1.5403e-23
2.43328e-23
6.25887e-23
6.09051e-23
2.99134e-23
1.42838e-23
4.52655e-24
1.43758e-24
3.89006e-25
6.61724e-26
1.56622e-26
5.34875e-27
1.76169e-27
6.93288e-28
1.45546e-28
1.12112e-29
1.74248e-30
5.03616e-24
1.10824e-23
5.02762e-23
5.74156e-23
9.92226e-23
7.91196e-23
3.20293e-23
1.24653e-23
3.43463e-24
8.57773e-25
1.87504e-25
4.44934e-26
1.40051e-26
4.63022e-27
2.95696e-27
6.05171e-28
1.28665e-28
1.66761e-29
6.0707e-30
1.83541e-24
2.99425e-23
6.80946e-23
9.06581e-23
1.50937e-22
1.50525e-22
7.38706e-23
2.86568e-23
9.59668e-24
2.15766e-24
4.27202e-25
1.396e-25
4.62348e-26
1.72654e-26
8.67871e-27
2.33306e-27
5.65599e-28
9.37124e-29
5.88079e-29
3.23273e-29
2.24404e-24
1.92432e-23
1.12174e-22
1.70482e-22
2.59289e-22
2.61001e-22
1.56505e-22
6.2998e-23
2.37125e-23
6.41582e-24
1.47756e-24
2.66588e-25
1.09618e-25
3.52124e-26
2.30036e-26
8.70228e-27
1.71188e-27
5.98164e-28
3.24983e-28
3.1517e-28
1.30058e-28
7.47393e-24
4.96176e-23
1.57016e-22
2.79094e-22
3.30446e-22
4.13748e-22
2.94772e-22
1.23943e-22
5.2007e-23
1.50009e-23
3.48061e-24
7.09146e-25
1.83847e-25
1.05256e-25
5.64115e-26
2.69639e-26
9.36965e-27
2.68959e-27
1.84356e-27
1.72977e-27
2.06478e-27
8.1147e-28
1.72332e-23
8.85039e-23
1.74024e-22
3.45061e-22
5.89018e-22
7.41381e-22
5.14872e-22
2.41904e-22
9.96879e-23
3.18856e-23
9.95901e-24
2.41197e-24
4.07802e-25
2.12697e-25
1.12764e-25
6.46614e-26
3.10558e-26
1.15103e-26
5.11868e-27
1.1422e-26
1.73755e-26
2.05176e-26
6.14467e-27
2.08644e-23
9.16303e-23
2.23504e-22
6.92902e-22
6.87009e-22
9.63251e-22
9.14539e-22
4.98101e-22
2.09154e-22
6.82465e-23
1.96645e-23
6.15423e-24
1.05964e-24
4.05409e-25
2.89492e-25
1.56764e-25
7.51446e-26
3.85022e-26
3.68159e-26
5.32341e-26
1.16612e-25
1.57754e-25
2.22822e-25
9.91666e-26
5.88967e-23
1.90989e-22
5.36308e-22
1.11184e-21
1.43879e-21
1.72458e-21
1.64164e-21
8.95104e-22
4.35015e-22
1.30258e-22
4.5407e-23
1.34023e-23
2.77571e-24
9.1592e-25
4.92164e-25
4.17533e-25
1.88294e-25
1.33682e-25
1.01993e-25
3.32019e-25
8.12529e-25
1.31536e-24
1.52895e-24
2.68973e-24
1.24514e-24
2.61049e-23
3.93421e-22
7.29064e-22
1.47752e-21
2.31678e-21
2.56361e-21
2.28877e-21
1.82257e-21
7.94012e-22
3.39787e-22
7.54562e-23
2.49853e-23
7.77378e-24
1.8596e-24
1.17529e-24
8.31824e-25
4.46693e-25
3.90081e-25
5.13651e-25
1.17333e-24
4.06545e-24
1.03019e-23
1.40168e-23
2.69672e-23
4.09667e-23
2.25839e-23
5.54061e-23
3.74579e-22
1.36676e-21
2.03026e-21
3.1053e-21
4.14573e-21
4.23681e-21
2.81263e-21
1.65424e-21
6.26174e-22
1.89203e-22
5.28394e-23
1.22047e-23
5.19972e-24
2.23216e-24
1.51029e-24
1.13365e-24
7.85618e-25
2.00615e-24
6.16042e-24
1.83727e-23
5.20583e-23
1.41689e-22
3.01554e-22
4.2617e-22
3.95755e-22
1.532e-22
6.44814e-23
3.24313e-22
1.36807e-21
4.01309e-21
4.52629e-21
6.68863e-21
6.62114e-21
4.98747e-21
2.59825e-21
1.17882e-21
4.37378e-22
1.0422e-22
2.90281e-23
8.67742e-24
4.39178e-24
2.96387e-24
2.33621e-24
2.62061e-24
5.77249e-24
2.28169e-23
8.6668e-23
2.72798e-22
9.34743e-22
1.65512e-21
4.28978e-21
5.21537e-21
4.59896e-21
3.11229e-21
5.85808e-23
2.86545e-22
2.34881e-21
5.67481e-21
8.70465e-21
1.13327e-20
1.05987e-20
8.19594e-21
4.85132e-21
2.12772e-21
8.25339e-22
2.64848e-22
6.75332e-23
1.56362e-23
9.06864e-24
4.67926e-24
4.51312e-24
5.98042e-24
1.65673e-23
5.7645e-23
3.26037e-22
1.34316e-21
4.5342e-21
1.22646e-20
2.97104e-20
4.789e-20
4.95498e-20
4.76062e-20
1.25062e-20
2.49735e-23
2.39286e-22
2.864e-21
7.21865e-21
1.01572e-20
1.65661e-20
1.72405e-20
1.33293e-20
8.14583e-21
3.83238e-21
1.53355e-21
4.89302e-22
1.47105e-22
4.0498e-23
1.56647e-23
1.22552e-23
9.87636e-24
1.6233e-23
5.15115e-23
1.8047e-22
1.19397e-21
4.70017e-21
2.00093e-20
7.23322e-20
1.49645e-19
3.57779e-19
3.70085e-19
4.0547e-19
4.86143e-19
7.85172e-20
2.80607e-22
4.60145e-22
1.76282e-21
8.67242e-21
1.29549e-20
2.61949e-20
2.80722e-20
2.27623e-20
1.33467e-20
6.69715e-21
2.77225e-21
1.02402e-21
2.94699e-22
8.13745e-23
3.00394e-23
2.04867e-23
2.39787e-23
4.56508e-23
1.75828e-22
6.4283e-22
3.55832e-21
1.60203e-20
6.15697e-20
2.7287e-19
8.73475e-19
2.30242e-18
3.79859e-18
3.86549e-18
5.62825e-18
2.96429e-18
9.19572e-19
8.47454e-21
3.37786e-21
3.21853e-21
1.17898e-20
2.22176e-20
3.60511e-20
4.14076e-20
3.53662e-20
2.2035e-20
1.1557e-20
4.40185e-21
1.90555e-21
5.57452e-22
1.39387e-22
5.73719e-23
3.65879e-23
4.1606e-23
7.49598e-23
5.11757e-22
2.52891e-21
1.43612e-20
7.03986e-20
3.49783e-19
1.18306e-18
3.48689e-18
1.19365e-17
2.16795e-17
2.97472e-17
3.80708e-17
3.8139e-17
1.05983e-17
3.05182e-18
1.70352e-19
4.57759e-20
1.51768e-20
1.76329e-20
3.14354e-20
5.08176e-20
5.31511e-20
5.04798e-20
3.732e-20
1.98347e-20
8.87445e-21
3.11078e-21
1.05536e-21
3.54588e-22
1.05319e-22
6.46701e-23
8.95009e-23
2.25763e-22
1.08828e-21
7.26463e-21
4.91501e-20
3.11268e-19
1.31493e-18
5.21763e-18
1.69364e-17
5.3304e-17
1.26795e-16
1.67086e-16
2.29093e-16
2.77402e-16
2.15885e-16
4.15015e-17
4.82086e-18
2.39716e-18
6.61369e-19
2.00144e-19
5.41732e-20
4.63815e-20
5.1412e-20
8.35685e-20
8.42816e-20
5.6185e-20
3.23352e-20
1.52896e-20
4.74884e-21
1.84876e-21
6.43953e-22
2.19612e-22
1.19628e-22
1.42617e-22
5.19125e-22
2.40628e-21
1.86133e-20
1.00363e-19
8.57159e-19
3.83603e-18
1.19236e-17
6.31522e-17
2.10666e-16
4.99431e-16
9.30838e-16
1.58431e-15
1.88634e-15
1.40676e-15
6.84728e-16
9.14447e-17
4.45465e-18
5.38631e-17
1.95416e-17
7.38794e-18
1.85492e-18
3.34715e-19
8.41459e-20
6.84978e-20
1.11636e-19
1.16854e-19
8.42952e-20
5.17363e-20
2.52832e-20
9.10229e-21
2.72005e-21
1.05478e-21
3.98388e-22
1.75919e-22
3.25299e-22
1.06332e-21
8.77273e-21
5.27143e-20
3.32277e-19
2.10172e-18
1.25669e-17
5.24513e-17
1.51192e-16
8.43981e-16
2.59275e-15
7.05885e-15
1.43821e-14
2.06909e-14
2.02507e-14
8.70592e-15
1.89046e-16
3.13612e-16
2.16586e-15
1.76707e-17
1.80824e-16
9.78578e-17
6.55794e-17
1.52905e-17
2.41157e-18
3.57188e-19
1.27593e-19
1.34382e-19
1.55019e-19
1.16744e-19
7.77773e-20
4.03111e-20
1.80672e-20
5.40624e-21
1.64214e-21
5.80542e-22
3.82327e-22
5.32533e-22
1.62606e-21
1.33542e-20
1.42796e-19
1.00451e-18
4.47493e-18
2.41834e-17
1.39846e-16
6.75042e-16
2.55134e-15
1.34423e-14
4.31306e-14
1.23023e-13
2.33689e-13
2.94719e-13
1.62607e-13
2.39658e-14
1.19209e-13
1.51011e-14
1.15635e-13
1.25664e-13
1.48646e-15
1.27067e-14
5.2724e-17
8.79297e-16
8.28741e-17
3.37463e-16
1.02914e-16
1.5422e-17
2.10705e-18
3.01159e-19
1.72787e-19
2.28389e-19
1.83648e-19
1.01886e-19
5.66898e-20
2.60542e-20
1.13485e-20
2.76223e-21
1.0969e-21
5.92241e-22
9.83083e-22
3.17761e-21
2.85961e-20
2.57413e-19
2.66042e-18
1.64749e-17
6.54912e-17
3.65132e-16
1.58152e-15
9.39775e-15
5.26586e-14
2.76175e-13
8.11353e-13
2.22176e-12
3.9009e-12
2.8901e-12
6.27546e-13
3.20081e-12
6.99121e-13
1.16205e-13
8.80118e-13
9.6018e-13
8.69946e-15
9.28379e-14
2.18795e-16
4.87788e-15
2.267e-16
8.49676e-16
5.02464e-16
9.97575e-17
1.13433e-17
1.44198e-18
2.94333e-19
3.04762e-19
3.07757e-19
1.7968e-19
8.71989e-20
4.21936e-20
1.70945e-20
6.63241e-21
1.83426e-21
9.58364e-22
1.92585e-21
8.43106e-21
5.36953e-20
5.56593e-19
5.11346e-18
4.06228e-17
2.16985e-16
8.34006e-16
4.34192e-15
2.74072e-14
2.2555e-13
1.17386e-12
5.48737e-12
1.53474e-11
3.97169e-11
4.2608e-11
1.34553e-11
5.98524e-11
4.09797e-12
2.22365e-11
5.84601e-12
9.00847e-13
7.18252e-12
7.64708e-12
6.38914e-14
7.21617e-13
1.6068e-15
3.57968e-14
8.57154e-16
2.42971e-15
1.7289e-15
4.66679e-16
6.00731e-17
5.32579e-18
8.78637e-19
3.95738e-19
4.02571e-19
2.90519e-19
1.427e-19
5.88716e-20
2.78451e-20
1.0163e-20
3.65497e-21
1.77503e-21
3.20269e-21
1.22576e-20
9.43487e-20
9.98767e-19
8.76808e-18
8.02306e-17
4.82249e-16
2.30212e-15
1.29354e-14
8.035e-14
6.19714e-13
5.50517e-12
2.54843e-11
1.04966e-10
2.69427e-10
4.88629e-10
2.35615e-10
8.91321e-10
1.08726e-10
4.73773e-10
3.43273e-11
1.82469e-10
4.78035e-11
7.16738e-12
5.74695e-11
6.13389e-11
4.96899e-13
5.71759e-12
1.09429e-14
2.7921e-13
3.24082e-15
9.95106e-15
5.80821e-15
1.73249e-15
2.26923e-16
2.57008e-17
3.07474e-18
7.55443e-19
5.84778e-19
4.15814e-19
2.39424e-19
1.03717e-19
3.84066e-20
1.56467e-20
6.28946e-21
3.51066e-21
4.80357e-21
2.97839e-20
1.5775e-19
1.63316e-18
1.89736e-17
1.53745e-16
9.25874e-16
5.76489e-15
3.61524e-14
2.36728e-13
1.7752e-12
1.41683e-11
1.25456e-10
5.28342e-10
1.89826e-09
4.46486e-09
3.00578e-09
9.79554e-09
1.88327e-09
6.84575e-09
8.63907e-10
3.67565e-09
2.77762e-10
1.44611e-09
3.80839e-10
5.69751e-11
4.54418e-10
4.84481e-10
3.9338e-12
4.52225e-11
8.58472e-14
2.22612e-12
1.33095e-14
4.47418e-14
2.33891e-14
6.13268e-15
1.03932e-15
1.09019e-16
1.03509e-17
1.6308e-18
9.40745e-19
6.09934e-19
3.37075e-19
1.60977e-19
6.46545e-20
2.55867e-20
9.58082e-21
6.63952e-21
1.03823e-20
4.49434e-20
2.49043e-19
2.47851e-18
3.53758e-17
3.33769e-16
2.10963e-15
1.4454e-14
9.72611e-14
6.23082e-13
5.12577e-12
4.25521e-11
3.18219e-10
2.56331e-09
9.96103e-09
3.15853e-08
2.86359e-08
8.02628e-08
2.29394e-08
7.0836e-08
1.42112e-08
5.00131e-08
6.66553e-09
2.7422e-08
2.18004e-09
1.10293e-08
2.95966e-09
4.45618e-10
3.50975e-09
3.72164e-09
3.09861e-11
3.50001e-10
6.8428e-13
1.76835e-11
5.99024e-14
1.80594e-13
9.57953e-14
2.27461e-14
3.58632e-15
4.26176e-16
3.97573e-17
4.75945e-18
1.54074e-18
9.81397e-19
5.69946e-19
2.3029e-19
1.13665e-19
4.3682e-20
1.77736e-20
1.19872e-20
2.5256e-20
6.5409e-20
4.63248e-19
4.72354e-18
5.27105e-17
5.89082e-16
4.80029e-15
3.54613e-14
2.45662e-13
1.59116e-12
1.23137e-11
1.36754e-10
1.07668e-09
6.63352e-09
4.55658e-08
1.63212e-07
1.9842e-07
4.84271e-07
2.00775e-07
5.26216e-07
1.61116e-07
4.70472e-07
1.01736e-07
3.41652e-07
4.9156e-08
1.93771e-07
1.65398e-08
8.04031e-08
2.22003e-08
3.3664e-09
2.62227e-08
2.73582e-08
2.37727e-10
2.59605e-09
5.42419e-12
1.37052e-10
2.56606e-13
7.71111e-13
2.9026e-13
8.86279e-14
1.26107e-14
1.15971e-15
1.27211e-16
1.44744e-17
2.47015e-18
1.37498e-18
8.77781e-19
4.37397e-19
1.77408e-19
7.1497e-20
3.16379e-20
2.2132e-20
3.71837e-20
1.56628e-19
7.09792e-19
6.61126e-18
8.59033e-17
9.7353e-16
9.46709e-15
8.17426e-14
5.99347e-13
3.93076e-12
2.64941e-11
3.04664e-10
3.98642e-09
2.64703e-08
1.19867e-07
6.92664e-07
1.07138e-06
2.45653e-06
1.27623e-06
2.91396e-06
1.25268e-06
3.09404e-06
1.03522e-06
2.80769e-06
6.82395e-07
2.14139e-06
3.43569e-07
1.27913e-06
1.19963e-07
5.5688e-07
1.59525e-07
2.41396e-08
1.86763e-07
1.89692e-07
1.74691e-09
1.81329e-08
4.20907e-11
1.01327e-09
9.8102e-13
2.98493e-12
1.08839e-12
2.58993e-13
4.65324e-14
4.09454e-15
4.33213e-16
4.96865e-17
5.38794e-18
2.10927e-18
1.32279e-18
6.81599e-19
2.6623e-19
1.16797e-19
5.93745e-20
3.98097e-20
9.25401e-20
3.0444e-19
1.29794e-18
8.84851e-18
1.26045e-16
1.73891e-15
1.90361e-14
1.76605e-13
1.41797e-12
9.72677e-12
5.92121e-11
5.1729e-10
8.31054e-09
1.05526e-07
5.69878e-07
1.74312e-06
4.55726e-06
8.97719e-06
6.1872e-06
1.32998e-05
7.15875e-06
1.57991e-05
7.007e-06
1.64419e-05
5.96924e-06
1.50351e-05
4.16643e-06
1.19181e-05
2.23827e-06
7.55875e-06
8.24551e-07
3.57829e-06
1.08081e-06
1.62129e-07
1.24465e-06
1.223e-06
1.20503e-08
1.17517e-07
3.09991e-10
6.90591e-09
3.30091e-12
1.02621e-11
3.85386e-12
8.73165e-13
1.40476e-13
1.45564e-14
1.13828e-15
1.54658e-16
1.84331e-17
4.84694e-18
2.28342e-18
1.11768e-18
5.50034e-19
2.44204e-19
1.1235e-19
1.63469e-19
2.0824e-19
7.08972e-19
2.3588e-18
1.59055e-17
2.04299e-16
2.99858e-15
3.80331e-14
3.96056e-13
3.15908e-12
2.30293e-11
1.43933e-10
1.02506e-09
1.22195e-08
2.05812e-07
2.15419e-06
9.77134e-06
1.89578e-05
1.26721e-05
2.39218e-05
4.60098e-05
3.15957e-05
6.11615e-05
3.62242e-05
7.31226e-05
3.53417e-05
7.70738e-05
3.06011e-05
7.09591e-05
2.21892e-05
5.78021e-05
1.27672e-05
3.81794e-05
5.18548e-06
1.96858e-05
6.604e-06
1.00859e-06
7.38207e-06
7.02869e-06
7.58017e-08
6.96895e-07
2.07847e-09
4.19441e-08
9.85889e-12
3.07593e-11
1.22247e-11
2.95174e-12
4.46412e-13
4.82114e-14
3.75236e-15
3.72526e-16
6.09648e-17
8.13129e-18
4.35995e-18
2.25491e-18
1.01174e-18
5.88922e-19
4.00618e-19
4.25125e-19
9.21365e-19
2.04849e-18
4.30723e-18
2.36405e-17
2.85469e-16
4.28353e-15
6.31986e-14
7.88102e-13
7.68268e-12
5.22199e-11
3.40994e-10
2.0366e-09
1.87086e-08
3.00123e-07
3.75877e-06
2.93497e-05
0.000123055
7.31886e-05
0.000141201
0.000103748
0.000167939
0.000131252
0.000211772
0.000149155
0.000247885
0.000150046
0.000266176
0.000133388
0.00026132
0.000100155
0.000227322
6.12007e-05
0.000158851
2.74351e-05
8.964e-05
3.36314e-05
5.60593e-06
3.63092e-05
3.35656e-05
4.24809e-07
3.70457e-06
1.19135e-08
2.16654e-07
2.78818e-11
8.17904e-11
3.47092e-11
9.05301e-12
1.45389e-12
1.63455e-13
1.28586e-14
1.22361e-15
1.42955e-16
2.84497e-17
7.68512e-18
4.52223e-18
2.33036e-18
1.29987e-18
2.04339e-18
1.89311e-18
3.10053e-18
6.34838e-18
1.23314e-17
3.97399e-17
3.56357e-16
6.68893e-15
1.01475e-13
1.36467e-12
1.49634e-11
1.33949e-10
7.8428e-10
4.47745e-09
2.8981e-08
3.809e-07
5.54378e-06
4.44449e-05
0.000221381
0.000418217
0.000516298
0.000245219
0.000335407
0.000310297
0.000423878
0.000367429
0.000498609
0.000408612
0.000560933
0.000423563
0.000600755
0.000408495
0.000610767
0.000349002
0.000578757
0.000235723
0.000485521
0.000118249
0.000316978
0.000138426
2.58546e-05
0.000144073
0.00012934
2.07604e-06
1.62168e-05
5.52917e-08
9.2556e-07
8.07607e-11
2.03978e-10
8.88181e-11
2.51847e-11
4.42912e-12
5.52963e-13
4.63679e-14
3.30967e-15
4.38192e-16
5.91696e-17
2.31299e-17
8.2638e-18
7.08313e-18
4.69658e-18
4.84329e-18
1.32959e-17
1.34777e-17
1.67964e-17
4.10929e-17
9.75063e-17
5.37877e-16
9.09997e-15
1.59926e-13
2.23355e-12
2.6437e-11
2.52801e-10
2.01218e-09
1.024e-08
5.2501e-08
4.62524e-07
6.91173e-06
6.40618e-05
0.000291351
0.000593303
0.000673428
0.000757614
0.000852327
0.000541074
0.000653372
0.000632176
0.000764934
0.000712884
0.000858398
0.000776729
0.000941545
0.000813448
0.00100452
0.000814586
0.00103639
0.000758318
0.00102071
0.000622531
0.00093228
0.000385367
0.000740289
0.000425462
9.65697e-05
0.000425725
0.000374995
8.25714e-06
5.84137e-05
2.02612e-07
3.1727e-06
2.48485e-10
5.04168e-10
2.13277e-10
6.41835e-11
1.2575e-11
1.77117e-12
1.66374e-13
1.17698e-14
1.13218e-15
2.15087e-16
5.62721e-17
3.1022e-17
2.22133e-17
2.87155e-17
2.21134e-17
4.31611e-17
6.82752e-17
8.77854e-17
1.52466e-16
2.60891e-16
8.40578e-16
1.21164e-14
2.37436e-13
3.63345e-12
4.41721e-11
4.52635e-10
3.64694e-09
2.31732e-08
1.04769e-07
6.17995e-07
7.88811e-06
7.9332e-05
0.000375873
0.000740942
0.000767167
0.000930473
0.00100092
0.00108857
0.00116421
0.000887865
0.0009956
0.000993431
0.00111637
0.00109104
0.00122312
0.00117646
0.0013251
0.00123685
0.00141151
0.00125971
0.00146773
0.00121927
0.00147295
0.00108587
0.00139826
0.000825858
0.00120693
0.000869524
0.000280755
0.000860848
0.000781022
2.77904e-05
0.000174631
5.54406e-07
9.05683e-06
6.98218e-10
1.26527e-09
5.09858e-10
1.54082e-10
3.38314e-11
5.41352e-12
5.68595e-13
4.39011e-14
3.08307e-15
4.00339e-16
1.25398e-16
8.84214e-17
1.16276e-16
1.25877e-16
1.05001e-16
1.43207e-16
2.64252e-16
3.69201e-16
7.41049e-16
1.09002e-15
2.48247e-15
1.71246e-14
3.25946e-13
5.65443e-12
7.4002e-11
7.70316e-10
6.70425e-09
4.2748e-08
2.36699e-07
1.01552e-06
9.32231e-06
9.09095e-05
0.000431348
0.000978206
0.00103985
0.00109434
0.00121883
0.00123364
0.00136009
0.00138122
0.00121961
0.00129958
0.00133564
0.00142686
0.00144916
0.00154887
0.00155754
0.00167352
0.00164387
0.0017878
0.00169091
0.00187186
0.00166989
0.00190043
0.00154763
0.00184269
0.00128902
0.00166253
0.00132292
0.000620831
0.00129671
0.00119541
7.97861e-05
0.000395297
1.1557e-06
2.20647e-05
3.06686e-09
1.233e-09
3.60958e-10
8.77469e-11
1.72805e-11
1.89059e-12
1.59164e-13
1.11038e-14
1.14265e-15
2.96289e-16
2.3024e-16
4.85505e-16
4.68315e-16
7.30575e-16
8.72683e-16
1.11556e-15
1.5847e-15
2.75303e-15
4.38377e-15
8.51533e-15
3.16649e-14
4.37222e-13
8.31245e-12
1.18071e-10
1.32846e-09
1.17279e-08
8.52317e-08
4.34496e-07
2.00744e-06
1.22957e-05
0.000103408
0.000467267
0.000979545
0.0011667
0.00112957
0.00122305
0.00120058
0.00136538
0.00132255
0.00151978
0.00147975
0.00148888
0.00152366
0.00162267
0.00166962
0.00176056
0.00181987
0.00189992
0.00197979
0.00201801
0.00213101
0.0020922
0.00224679
0.00209164
0.00229849
0.00198458
0.00225727
0.00173558
0.00209024
0.00175785
0.00100896
0.00171687
0.00159889
0.00018177
0.000706493
2.05207e-06
4.72539e-05
3.28022e-09
8.88391e-10
2.18274e-10
5.939e-11
7.88081e-12
5.61994e-13
4.19033e-14
3.20058e-15
9.4189e-16
9.9908e-16
1.46914e-15
2.40295e-15
3.60414e-15
5.88604e-15
7.3644e-15
1.09272e-14
1.69023e-14
2.70298e-14
4.65147e-14
1.00687e-13
6.62562e-13
1.14529e-11
1.85126e-10
2.13554e-09
2.0606e-08
1.54769e-07
7.55311e-07
3.55604e-06
1.95754e-05
0.000118737
0.000482044
0.000964175
0.00110397
0.00107701
0.00115099
0.00109699
0.00126755
0.00120944
0.00140471
0.00131572
0.00159575
0.00149271
0.00167771
0.00165974
0.00184987
0.00184717
0.00202867
0.00204636
0.00221192
0.00225882
0.00236738
0.00245618
0.00246838
0.0026044
0.00248466
0.0026744
0.00238888
0.00264167
0.0021532
0.00248235
0.00216194
0.00137857
0.00210869
0.00200916
0.00173047
0.000334419
0.00103304
3.37443e-06
8.55295e-05
2.70567e-09
5.59607e-10
1.58732e-10
1.96296e-11
2.2092e-12
1.53599e-13
1.16175e-14
3.12212e-15
4.36417e-15
7.98698e-15
1.40576e-14
2.41471e-14
4.05776e-14
6.19253e-14
8.18221e-14
1.22498e-13
1.85579e-13
2.91194e-13
4.941e-13
1.39917e-12
1.5676e-11
2.7616e-10
3.59889e-09
3.32827e-08
2.69323e-07
1.25522e-06
6.17245e-06
3.07452e-05
0.000140468
0.000489596
0.000953728
0.00103947
0.00105551
0.00101385
0.00101153
0.000936279
0.00121171
0.00110622
0.00136026
0.0012079
0.00160817
0.0014418
0.00181791
0.00173804
0.00203908
0.00200314
0.00227112
0.00226239
0.00251392
0.00253295
0.00270981
0.00278611
0.00283382
0.00296533
0.00285722
0.0030465
0.00276044
0.00300929
0.00253153
0.0028263
0.00267781
0.00233334
0.0025289
0.00191121
0.0014743
0.00179727
0.00224357
0.00247259
0.00250332
0.00217865
0.000524913
0.00163983
0.00144782
0.00107238
3.38733e-06
9.74826e-05
1.90841e-09
4.62053e-10
7.11847e-11
5.6199e-12
5.84008e-13
4.36818e-14
1.26262e-14
2.16162e-14
4.48525e-14
8.59793e-14
1.56513e-13
2.81573e-13
4.82584e-13
6.07733e-13
9.0266e-13
1.30225e-12
1.89134e-12
2.83391e-12
4.92554e-12
2.4454e-11
3.81223e-10
5.72744e-09
6.20846e-08
4.64691e-07
2.19424e-06
1.06157e-05
4.76287e-05
0.000169147
0.000500058
0.000951363
0.00103921
0.000837926
0.000844485
0.000883677
0.000852119
0.000792031
0.000708303
0.00105193
0.000908901
0.00124845
0.00104476
0.00159923
0.00138576
0.00191703
0.00177816
0.00222694
0.00214361
0.00252679
0.00249947
0.00283264
0.00283906
0.00306852
0.00314769
0.00321262
0.00335028
0.00308953
0.00319852
0.00329248
0.00339305
0.00295746
0.00310006
0.00327794
0.00336457
0.00322618
0.00284747
0.00269558
0.00286802
0.00299726
0.0026912
0.00208233
0.00195767
0.00241439
0.00262782
0.00266761
0.00233996
0.00120324
0.00047818
0.000886979
0.00179674
0.00159304
1.96007e-06
0.000520847
0.0002005
4.80521e-05
1.44502e-09
2.85341e-10
1.88787e-11
1.50134e-12
1.68274e-13
5.0294e-14
1.03007e-13
2.44339e-13
5.06935e-13
9.8161e-13
1.86973e-12
3.46596e-12
4.44584e-12
6.58764e-12
9.1858e-12
1.24623e-11
1.69649e-11
2.38457e-11
5.26455e-11
5.19379e-10
8.4538e-09
1.0262e-07
7.8318e-07
3.86297e-06
1.85141e-05
7.18547e-05
0.000210738
0.000519121
0.000954249
0.00104893
0.000776442
0.000631417
0.000624416
0.000657363
0.000635
0.000554569
0.000471254
0.000851037
0.000683603
0.0011542
0.000926237
0.00161483
0.00137523
0.00200962
0.00183125
0.00243235
0.0023159
0.00282539
0.00278549
0.00319468
0.00320001
0.00344552
0.00348056
0.00347006
0.00354675
0.00358771
0.00360994
0.00339184
0.00349374
0.00358356
0.00314205
0.00328649
0.00348155
0.00355902
0.00342634
0.00302252
0.0028643
0.00303368
0.00317811
0.0028522
0.00223949
0.00211007
0.00256949
0.0028234
0.00277987
0.00249088
0.00132915
0.000995837
0.00194564
0.00173673
5.24628e-05
9.51846e-08
4.78291e-06
0.000597729
0.000245066
1.05711e-09
8.84459e-11
5.60729e-12
5.08956e-13
1.93947e-13
4.57276e-13
1.23474e-12
2.80975e-12
5.8665e-12
1.17894e-11
2.32019e-11
3.1509e-11
4.72156e-11
6.45799e-11
8.29705e-11
1.03486e-10
1.27981e-10
1.78179e-10
7.73399e-10
1.15762e-08
1.55917e-07
1.23884e-06
6.78583e-06
3.18927e-05
0.000107154
0.000263608
0.00055389
0.00096554
0.00107407
0.000841022
0.000479431
0.000532295
0.000424642
0.000446705
0.0004284
0.000418165
0.000387069
0.000281959
0.000717911
0.000536354
0.00112954
0.000896819
0.00172485
0.00147862
0.00215672
0.00195666
0.00270057
0.00257408
0.00318038
0.00313406
0.00347355
0.00345109
0.00360813
0.00359207
0.00357442
0.00354765
0.00364666
0.00367222
0.00367033
0.00365453
0.00358951
0.0036778
0.00372205
0.00333287
0.0034845
0.00367327
0.00374539
0.00362577
0.00320102
0.00303098
0.00321001
0.00336833
0.00301361
0.00238986
0.00226195
0.00272019
0.00298186
0.00293767
0.00264317
0.00146818
0.00112647
0.00210175
0.00189798
6.29725e-05
7.1789e-08
4.75803e-06
0.000707835
0.00031336
6.09164e-10
3.14864e-11
1.75641e-12
7.45203e-13
1.82936e-12
5.61565e-12
1.43671e-11
3.25908e-11
7.07929e-11
1.46503e-10
2.13807e-10
3.30349e-10
4.49356e-10
5.56237e-10
6.41444e-10
7.12705e-10
7.8683e-10
1.49536e-09
1.49206e-08
2.20543e-07
1.91287e-06
1.15575e-05
5.28879e-05
0.000157419
0.000330866
0.000601454
0.000988667
0.00110774
0.00090976
0.000504116
0.000310509
0.000335348
0.000241699
0.000273574
0.000232491
0.000227222
0.000334598
0.00020561
0.00068603
0.000497311
0.00123804
0.00101338
0.00199156
0.00176886
0.00240946
0.00221116
0.00304839
0.00292859
0.00340702
0.00336927
0.00352172
0.00349318
0.00346917
0.00344665
0.00362278
0.00357828
0.00352583
0.00347207
0.00372761
0.00370832
0.00366447
0.00359451
0.00375295
0.00377935
0.00376859
0.00353159
0.00368242
0.00381358
0.00386463
0.00380679
0.00339038
0.00320518
0.00339882
0.00356696
0.00318567
0.00254615
0.00242433
0.00287793
0.0031526
0.0031049
0.00280201
0.00163334
0.00128555
0.0022718
0.00207677
7.15297e-05
1.17259e-07
6.943e-06
0.000861174
0.000389566
2.61633e-10
1.10616e-11
2.70235e-12
6.85521e-12
2.26606e-11
6.54523e-11
1.65117e-10
3.89354e-10
8.69442e-10
1.37924e-09
2.21692e-09
3.04982e-09
3.68591e-09
3.97087e-09
3.95724e-09
3.80964e-09
4.29186e-09
1.99915e-08
2.8831e-07
2.83192e-06
1.89172e-05
8.37696e-05
0.00022372
0.000410055
0.000663621
0.00102239
0.00114656
0.000977088
0.0005889
0.000220656
0.000267649
0.000153846
0.000186609
0.000101144
0.000123036
0.000126904
9.82956e-05
0.000359962
0.000197437
0.000794313
0.000570738
0.00155649
0.00134719
0.0024106
0.00222065
0.00277667
0.00259996
0.00332209
0.00324941
0.00339413
0.00338348
0.00342479
0.00338593
0.00335656
0.00333503
0.00350825
0.0034187
0.00333469
0.00326383
0.00372176
0.00363457
0.00351619
0.00338465
0.00382487
0.00379474
0.00370928
0.00372808
0.00385665
0.003864
0.00390224
0.00390899
0.00358895
0.00339337
0.00359762
0.00376292
0.00337116
0.00270731
0.00259067
0.00304111
0.00333331
0.00327855
0.0029623
0.00181964
0.00147942
0.00244625
0.00226291
9.58758e-05
1.73812e-06
2.44609e-05
0.00105283
0.000515951
9.8369e-11
7.98415e-12
2.39311e-11
8.38706e-11
2.66346e-10
7.45389e-10
1.91531e-09
4.66865e-09
8.19566e-09
1.40161e-08
1.968e-08
2.33742e-08
2.37684e-08
2.14158e-08
1.81799e-08
1.60085e-08
3.14552e-08
3.46206e-07
3.9418e-06
2.91373e-05
0.000125784
0.000303063
0.000498642
0.000737893
0.00106877
0.00118969
0.00104077
0.000667938
0.000236394
8.03641e-05
9.55198e-05
4.997e-05
6.3687e-05
3.77928e-05
4.02738e-05
9.88633e-05
5.07809e-05
0.00051965
0.000260378
0.00110983
0.000825034
0.00203278
0.00182533
0.00286284
0.00270166
0.00314564
0.003013
0.00337172
0.00334754
0.0031478
0.00316187
0.00320466
0.00318089
0.00321039
0.00317445
0.00315388
0.00314563
0.00325565
0.00314043
0.00304566
0.002975
0.00357412
0.0034084
0.00323173
0.00306364
0.00380953
0.0036843
0.00350414
0.00389686
0.00394818
0.00382297
0.003835
0.00393604
0.00378519
0.00359031
0.00379438
0.00392888
0.00356416
0.00286647
0.00275282
0.00320765
0.00352069
0.00345773
0.00312194
0.00202217
0.00170697
0.00261675
0.0024488
0.000181656
5.33874e-05
0.000123508
0.00129981
0.000792472
4.42932e-11
8.45989e-11
2.80457e-10
1.00735e-09
3.03854e-09
8.42006e-09
2.20304e-08
4.35071e-08
7.86996e-08
1.16472e-07
1.37929e-07
1.33583e-07
1.10236e-07
8.35168e-08
6.31072e-08
6.72084e-08
3.99851e-07
4.94464e-06
4.05719e-05
0.000174184
0.000389646
0.000594892
0.000824005
0.0011261
0.00123692
0.00109943
0.000738482
0.000299217
3.51167e-05
5.25359e-05
2.14613e-05
2.61749e-05
1.35759e-05
1.68189e-05
1.86553e-05
1.30253e-05
0.000104951
4.18624e-05
0.000790163
0.000405518
0.00155654
0.00120229
0.00252412
0.00230288
0.00313267
0.00300176
0.00330099
0.00322997
0.00322608
0.00325072
0.0032308
0.00293921
0.00297227
0.00305021
0.00301056
0.0029299
0.00290867
0.00290431
0.00291546
0.00291579
0.00279436
0.00270341
0.00264538
0.00329159
0.00307349
0.00286792
0.00268598
0.00365923
0.0034383
0.00318642
0.00398444
0.00397159
0.00364475
0.00364987
0.00385921
0.00395281
0.00378635
0.00396736
0.00401783
0.00375938
0.00302231
0.00290891
0.00337773
0.0037125
0.00364206
0.00328321
0.00223485
0.00196585
0.00278003
0.0026293
0.000448777
0.000656941
0.000619034
0.00164688
0.0013334
1.82024e-10
8.8092e-10
3.38615e-09
1.17071e-08
3.36766e-08
8.9845e-08
2.05632e-07
3.95472e-07
5.97e-07
7.08486e-07
6.76577e-07
5.49308e-07
3.70192e-07
2.45437e-07
1.90082e-07
4.91719e-07
5.59345e-06
5.06719e-05
0.000220063
0.000474883
0.000695352
0.000919357
0.00119357
0.00128743
0.00115278
0.000799118
0.000354933
5.28024e-05
7.10915e-06
9.69121e-06
4.5953e-06
5.55309e-06
4.15241e-06
3.98727e-06
1.56772e-05
6.54584e-06
0.000153594
4.68162e-05
0.00108379
0.000583546
0.00199772
0.00158478
0.00282539
0.00257668
0.00314473
0.00302642
0.00324005
0.00321128
0.00308858
0.00312572
0.00298373
0.00301484
0.0027006
0.00274986
0.0028545
0.00280254
0.0026203
0.00261458
0.00262726
0.00265826
0.00253469
0.00241985
0.00234849
0.00231862
0.00293195
0.00269175
0.00247659
0.00229622
0.00339298
0.00310992
0.00282478
0.00400977
0.00389489
0.00337587
0.00339189
0.00367701
0.00404613
0.00397074
0.00407051
0.00404997
0.00395195
0.0031771
0.00306155
0.00355331
0.00390657
0.00383235
0.00344967
0.00245023
0.00224895
0.00293623
0.00280128
0.00121463
0.00141797
0.00180017
0.00206455
0.00197863
2.5682e-09
9.92099e-09
3.90277e-08
1.28876e-07
3.41676e-07
8.15281e-07
1.58085e-06
2.41674e-06
2.87268e-06
2.72046e-06
2.16151e-06
1.48927e-06
9.34434e-07
6.14695e-07
7.29409e-07
5.85509e-06
5.82485e-05
0.000257547
0.000552785
0.000796591
0.00102095
0.00126816
0.00134046
0.00120099
0.000849524
0.000403762
8.32614e-05
3.33573e-06
6.86003e-06
1.27593e-06
1.74695e-06
1.03148e-06
1.05739e-06
2.34185e-06
1.33359e-06
1.75922e-05
5.72635e-06
0.000228585
6.68603e-05
0.00120322
0.000651503
0.0022251
0.00175769
0.00284853
0.0025885
0.00287086
0.00274688
0.00303131
0.00303604
0.00294064
0.00290345
0.00294667
0.00274802
0.00278139
0.00243987
0.00249545
0.00260753
0.00255243
0.00230945
0.00231769
0.00234622
0.00238901
0.00215925
0.00207422
0.002037
0.00202376
0.00255518
0.00231075
0.00210514
0.00194792
0.00307227
0.00276528
0.00247145
0.00394363
0.00372624
0.00307662
0.00312203
0.00343865
0.00409028
0.00408975
0.00413207
0.00400713
0.00409631
0.00333488
0.00321275
0.00373756
0.00408377
0.00402951
0.00362366
0.00265781
0.00251998
0.00308776
0.00296307
0.0020743
0.000544147
0.00205286
0.00242289
0.00243696
3.05433e-08
1.09038e-07
4.10844e-07
1.24641e-06
2.92546e-06
6.03814e-06
9.70982e-06
1.19943e-05
1.13648e-05
8.79586e-06
5.82405e-06
3.47978e-06
2.07318e-06
1.43323e-06
5.94416e-06
6.15902e-05
0.000284927
0.00062047
0.000895408
0.00112624
0.00134679
0.00139559
0.0012445
0.000890931
0.000443666
0.000105808
8.02697e-06
4.61064e-07
7.31505e-07
2.43179e-07
2.894e-07
4.43357e-07
2.69292e-07
2.21311e-06
9.67865e-07
2.12261e-05
6.23248e-06
0.000257408
7.7146e-05
0.00118837
0.000639215
0.00222363
0.00174672
0.0025636