/*--------------------------------*- C++ -*----------------------------------*\
  =========                 |
  \\      /  F ield         | OpenFOAM: The Open Source CFD Toolbox
   \\    /   O peration     | Website:  https://openfoam.org
    \\  /    A nd           | Version:  dev
     \\/     M anipulation  |
\*---------------------------------------------------------------------------*/
FoamFile
{
    version     2.0;
    format      ascii;
    class       volScalarField;
    location    "2500";
    object      k;
}
// * * * * * * * * * * * * * * * * * * * * * * * * * * * * * * * * * * * * * //

dimensions      [0 2 -2 0 0 0 0];

internalField   nonuniform List<scalar> 
9841
(
0.00015822
0.000164274
0.000150725
0.000140765
0.000211266
0.000123477
0.000119786
0.000224174
0.000191823
0.00011
0.000110805
0.000210325
0.000231401
0.000149962
0.000106553
0.000105706
0.000176453
0.000253107
0.000205195
0.000125712
0.000104752
0.000103115
0.000144798
0.000249946
0.000244426
0.000158809
0.000116212
0.000103391
0.000101698
0.000126922
0.000231255
0.000266357
0.000207399
0.000132225
0.000111466
0.000102452
0.000100949
0.000115458
0.000192856
0.000275678
0.000249024
0.000161088
0.000120624
0.000108201
0.000101773
0.000100534
0.000109072
0.000156093
0.000267574
0.000273206
0.000202648
0.000134722
0.000114502
0.000105853
0.000101239
0.000100298
0.000105519
0.000134557
0.000242916
0.000289286
0.000247416
0.0001591
0.000122275
0.00011034
0.000104111
0.000100821
0.000100131
0.000103568
0.000120833
0.000201057
0.00029293
0.00027786
0.000194164
0.000134479
0.000115348
0.000107286
0.000102795
0.000100498
9.98825e-05
0.000102332
0.000112982
0.000162733
0.000282619
0.000294702
0.000237677
0.00015448
0.000122071
0.000110694
0.000104983
0.000101782
0.000100237
9.96336e-05
0.000101382
0.000108307
0.000139994
0.000254948
0.000309072
0.000274423
0.000184531
0.000132348
0.000114889
0.000107339
0.000103251
0.000100957
0.000100038
9.94612e-05
0.000100675
0.000105425
0.000125066
0.000211727
0.000310783
0.000300342
0.000223648
0.000148607
0.000120612
0.000110079
0.000104833
0.000101862
0.000100278
9.98311e-05
9.93218e-05
0.00010018
0.000103523
0.00011608
0.000170977
0.00030012
0.000315973
0.000265268
0.000174251
0.000129131
0.000113606
0.000106588
0.000102862
0.000100744
9.97668e-05
9.968e-05
9.92841e-05
9.9797e-05
0.00010225
0.000110506
0.000146836
0.000272149
0.000329686
0.000297586
0.000207095
0.000142855
0.000118589
0.000108775
0.000103948
0.000101292
9.9836e-05
9.92568e-05
9.95493e-05
9.93778e-05
9.9455e-05
0.000101278
0.000106964
0.000130873
0.00022843
0.000332065
0.000321594
0.00024716
0.000162805
0.000125819
0.000111807
0.000105277
0.000101917
0.000100032
9.90807e-05
9.88611e-05
9.94405e-05
9.94458e-05
9.89691e-05
0.00010033
0.000104519
0.000120553
0.000185963
0.000322422
0.00033697
0.000286813
0.000191552
0.000136471
0.000116011
0.000107073
0.000102693
0.000100283
9.89884e-05
9.84309e-05
9.85303e-05
9.93488e-05
9.94709e-05
9.84749e-05
9.9493e-05
0.000102568
0.000113827
0.000159366
0.000298383
0.000350411
0.000317761
0.000224961
0.000152683
0.000121892
0.000109609
0.000103687
0.000100611
9.89657e-05
9.8139e-05
9.78946e-05
9.8245e-05
9.92726e-05
9.94491e-05
9.8079e-05
9.87636e-05
0.000101094
0.000109242
0.000141786
0.000257676
0.000356074
0.000340844
0.000264455
0.000174916
0.00013028
0.000113084
0.000105151
0.000101085
9.89085e-05
9.78732e-05
9.74319e-05
9.74338e-05
9.80019e-05
9.92103e-05
9.94132e-05
9.78539e-05
9.80796e-05
9.9937e-05
0.000106035
0.000129798
0.000217072
0.000349283
0.000356851
0.000301665
0.000204073
0.000142605
0.000117794
0.000107224
0.000101863
9.90228e-05
9.76058e-05
9.70006e-05
9.68295e-05
9.70412e-05
9.78001e-05
9.9162e-05
9.9377e-05
9.76686e-05
9.72696e-05
9.89027e-05
0.000103744
0.000121657
0.000183924
0.00033131
0.000369966
0.00033378
0.000236939
0.000160042
0.000124336
0.000110087
0.000103053
9.93344e-05
9.73494e-05
9.65436e-05
9.62733e-05
9.63243e-05
9.67136e-05
9.76377e-05
9.91283e-05
9.93451e-05
9.74991e-05
9.6513e-05
9.79103e-05
0.000101992
0.00011605
0.000163652
0.000302711
0.000378593
0.000356448
0.000273515
0.000183156
0.00013353
0.00011387
0.000104757
9.99344e-05
9.73995e-05
9.61003e-05
9.56854e-05
9.56755e-05
9.59023e-05
9.64419e-05
9.75117e-05
9.911e-05
9.93266e-05
9.72805e-05
9.58756e-05
9.69794e-05
0.000100609
0.000112098
0.000149983
0.000268628
0.000377584
0.000373895
0.000308847
0.000210474
0.000146649
0.000118785
0.00010704
0.000100907
9.75974e-05
9.579e-05
9.50941e-05
9.50079e-05
9.51892e-05
9.55484e-05
9.62229e-05
9.74247e-05
9.91058e-05
9.93168e-05
9.70038e-05
9.53508e-05
9.61808e-05
9.94952e-05
0.000109386
0.000140345
0.000236977
0.000370553
0.000385555
0.000341238
0.000241091
0.000163889
0.000125465
0.000109968
0.000102283
9.80511e-05
9.57877e-05
9.45963e-05
9.43141e-05
9.44641e-05
9.4791e-05
9.52667e-05
9.60598e-05
9.73771e-05
9.91172e-05
9.92949e-05
9.67194e-05
9.4924e-05
9.55387e-05
9.86337e-05
0.000107651
0.000133735
0.000210852
0.000354959
0.000395928
0.000365103
0.000271689
0.000185158
0.000134797
0.000113639
0.000104125
9.88763e-05
9.59433e-05
9.42979e-05
9.36825e-05
9.37072e-05
9.40268e-05
9.44803e-05
9.50577e-05
9.59593e-05
9.73881e-05
9.91476e-05
9.92367e-05
9.64508e-05
9.46428e-05
9.5069e-05
9.80086e-05
0.000106699
0.000129644
0.000191684
0.000333614
0.000402513
0.000383175
0.000305139
0.000209078
0.000147235
0.00011852
0.0001064
0.000100003
9.63318e-05
9.4284e-05
9.32167e-05
9.29857e-05
9.32231e-05
9.37065e-05
9.42472e-05
9.49205e-05
9.59459e-05
9.746e-05
9.92035e-05
9.90926e-05
9.62182e-05
9.45607e-05
9.48305e-05
9.76798e-05
0.000106404
0.000127737
0.000180247
0.000311464
0.000402274
0.00039709
0.000335002
0.00023557
0.000162656
0.000125114
0.000109216
0.000101423
9.70101e-05
9.44214e-05
9.29448e-05
9.24091e-05
9.24477e-05
9.28896e-05
9.34764e-05
9.40851e-05
9.48709e-05
9.60403e-05
9.76121e-05
9.9294e-05
9.88223e-05
9.61226e-05
9.4737e-05
9.48844e-05
9.7742e-05
0.000106762
0.000127659
0.000174612
0.000291151
0.000398626
0.000405325
0.000361053
0.000262462
0.000180937
0.000133662
0.00011276
0.000103162
9.78898e-05
9.477e-05
9.2941e-05
9.20049e-05
9.18067e-05
9.20803e-05
9.26695e-05
9.33262e-05
9.40171e-05
9.49473e-05
9.62656e-05
9.78726e-05
9.94191e-05
9.85104e-05
9.63709e-05
9.53307e-05
9.53492e-05
9.83621e-05
0.000108042
0.000129926
0.000172901
0.000275305
0.000390566
0.000412052
0.000380518
0.000288045
0.000201168
0.000144317
0.000117201
0.000105219
9.89604e-05
9.53171e-05
9.30669e-05
9.17957e-05
9.13318e-05
9.13748e-05
9.18611e-05
9.25696e-05
9.32831e-05
9.40723e-05
9.51872e-05
9.66842e-05
9.82951e-05
9.96029e-05
9.83858e-05
9.68931e-05
9.63812e-05
9.64839e-05
9.98614e-05
0.000110566
0.000135544
0.000174444
0.000262597
0.000380063
0.000416747
0.000394145
0.000312988
0.000222372
0.000157046
0.000122668
0.000107613
0.000100233
9.59548e-05
9.33584e-05
9.17782e-05
9.10151e-05
9.08679e-05
9.11604e-05
9.18158e-05
9.26025e-05
9.33628e-05
9.4283e-05
9.5646e-05
9.7378e-05
9.89514e-05
9.98791e-05
9.86594e-05
9.69552e-05
9.75851e-05
9.86433e-05
0.000102779
0.000114962
0.000142824
0.00017832
0.000252648
0.000367064
0.000417686
0.00040423
0.000335872
0.000242809
0.000171561
0.000129452
0.000110423
0.000101653
9.67287e-05
9.37555e-05
9.1874e-05
9.08475e-05
9.0538e-05
9.06525e-05
9.1179e-05
9.19643e-05
9.27797e-05
9.35884e-05
9.46832e-05
9.63801e-05
9.8453e-05
9.98649e-05
0.000100314
0.000100043
9.71913e-05
9.79467e-05
0.00010234
0.000108226
0.000122944
0.000151989
0.000184836
0.000245879
0.000352513
0.00041622
0.000410444
0.000354857
0.000262642
0.000186781
0.000137675
0.000113769
0.0001032
9.76168e-05
9.41985e-05
9.20771e-05
9.08007e-05
9.03128e-05
9.03145e-05
9.07438e-05
9.14489e-05
9.23212e-05
9.31578e-05
9.40355e-05
9.53349e-05
9.738e-05
9.98167e-05
0.000101097
0.000100378
0.000101088
0.000102894
0.000100578
9.84076e-05
0.000104499
0.000119204
0.000136336
0.000162522
0.000192224
0.000242029
0.000338262
0.00041171
0.000412941
0.000370489
0.00028041
0.000202347
0.00014706
0.000117788
0.000104884
9.84808e-05
9.46878e-05
9.2333e-05
9.08697e-05
9.0177e-05
9.00691e-05
9.04678e-05
9.11291e-05
9.20378e-05
9.29966e-05
9.39351e-05
9.50424e-05
9.66964e-05
9.93678e-05
0.00010198
0.000101898
0.000102818
0.000100579
0.000101449
0.000103387
0.000120725
0.000102755
0.000106888
0.00013228
0.000156367
0.000174488
0.000199729
0.00024028
0.000325328
0.000402277
0.000412109
0.000380912
0.00029616
0.000217186
0.000157498
0.00012263
0.000106701
9.93462e-05
9.51657e-05
9.25883e-05
9.1017e-05
9.01504e-05
8.99239e-05
9.02332e-05
9.09524e-05
9.19284e-05
9.3069e-05
9.40856e-05
9.51823e-05
9.67253e-05
9.91034e-05
0.000101696
0.00010148
0.000103642
0.000102609
0.000104256
0.000102464
0.000103607
0.000100621
0.000101636
0.000101417
0.000145808
0.000126814
0.00011229
0.000138748
0.000177515
0.000188121
0.000206571
0.000238302
0.000313424
0.000391077
0.000408941
0.000386948
0.000308914
0.000230884
0.00016842
0.000128395
0.000108874
0.000100205
9.56153e-05
9.28444e-05
9.11988e-05
9.02079e-05
8.98596e-05
9.00525e-05
9.08177e-05
9.19338e-05
9.32636e-05
9.45564e-05
9.56814e-05
9.71074e-05
9.92476e-05
0.000101213
0.000101135
0.000102848
0.000104607
0.00010467
0.000105274
0.00010282
0.000104186
0.000100689
0.000101784
0.00010024
0.000131893
0.000179121
0.000131086
0.000144303
0.000184344
0.000201573
0.000212006
0.000236193
0.000301508
0.000378668
0.000402275
0.000388051
0.000319705
0.000242704
0.000179344
0.000134951
0.000111545
0.000101077
9.60009e-05
9.30186e-05
9.13008e-05
9.02886e-05
8.98181e-05
8.99568e-05
9.07044e-05
9.19947e-05
9.36047e-05
9.53491e-05
9.68688e-05
9.81333e-05
9.98438e-05
0.000101155
0.000101296
0.000102869
0.000102847
0.000104787
0.000105399
0.000105667
0.00010626
0.000103108
0.000104683
0.000100744
0.000101921
9.9727e-05
0.000117868
0.000214603
0.000174956
0.000146784
0.000182059
0.000204067
0.000214837
0.000234192
0.000288968
0.000365196
0.000394044
0.000386311
0.000327409
0.000252422
0.000189564
0.000142077
0.000114733
0.000102092
9.62698e-05
9.30823e-05
9.12892e-05
9.02801e-05
8.97567e-05
8.98976e-05
9.06259e-05
9.20765e-05
9.40551e-05
9.63581e-05
9.85088e-05
0.000100186
0.000101362
0.000101555
0.00010215
0.000102843
0.0001029
0.000104751
0.000104658
0.000105817
0.000106146
0.000106798
0.000107247
0.00010338
0.000105191
0.000100794
0.000102054
9.93693e-05
0.00011123
0.000201021
0.000234563
0.000160598
0.000169383
0.000198808
0.000213325
0.000230188
0.000276343
0.000350257
0.000384549
0.000381802
0.000332616
0.000260104
0.000198543
0.000149464
0.000118404
0.000103289
9.64789e-05
9.30679e-05
9.11448e-05
9.01118e-05
8.96392e-05
8.97951e-05
9.0588e-05
9.21639e-05
9.45061e-05
9.74239e-05
0.000100529
0.00010317
0.000104187
0.000102874
0.000104556
0.000103099
0.000103586
0.000104654
0.000104736
0.000105875
0.000105937
0.000107107
0.000106925
0.000108029
0.000108313
0.00010369
0.000105776
0.000100839
0.000102191
9.93948e-05
0.000108505
0.000182447
0.000263325
0.000203496
0.000153761
0.000181136
0.000205617
0.000223552
0.000260887
0.000334164
0.000373738
0.000374955
0.00033515
0.000265718
0.000206102
0.000156655
0.000122511
0.000104725
9.66815e-05
9.29707e-05
9.09005e-05
8.97699e-05
8.94188e-05
8.96245e-05
9.05298e-05
9.22772e-05
9.49183e-05
9.8438e-05
0.000102477
0.000105622
0.000108281
0.000106078
0.000109151
0.000104669
0.000106636
0.000105031
0.000105794
0.000106076
0.000106419
0.000107314
0.000107553
0.000108556
0.00010781
0.000109381
0.000109514
0.00010405
0.000106438
0.000100887
0.000102295
9.97217e-05
0.000109041
0.000167493
0.000263851
0.000247132
0.000160572
0.000155632
0.000186869
0.000212511
0.00024575
0.000316439
0.000361718
0.000366775
0.000334659
0.000269512
0.000211997
0.000163294
0.000126949
0.000106454
9.69589e-05
9.27395e-05
9.05899e-05
8.94205e-05
8.91035e-05
8.94052e-05
9.03716e-05
9.23019e-05
9.53589e-05
9.94604e-05
0.000104029
0.00010891
0.00011221
0.00011158
0.000116566
0.000109365
0.000113861
0.000107557
0.000111102
0.000107281
0.000109444
0.00010805
0.00010928
0.000108988
0.000109759
0.00011014
0.00010885
0.000110767
0.000110679
0.000104408
0.000107263
0.000100932
0.000102326
0.000100272
0.000112049
0.000165279
0.000255868
0.000261017
0.000179533
0.000144722
0.000161339
0.000194885
0.000230225
0.000296896
0.00034844
0.000357372
0.000332921
0.000271495
0.000216364
0.000169139
0.000131488
0.000108536
9.73906e-05
9.24541e-05
9.0177e-05
8.90409e-05
8.87052e-05
8.90834e-05
9.00967e-05
9.21559e-05
9.56266e-05
0.000100403
0.000105505
0.000111399
0.000121159
0.00012232
0.000135426
0.000120738
0.000134634
0.000117804
0.0001314
0.000114727
0.000126856
0.000112663
0.000121871
0.000111721
0.000117489
0.00011131
0.000114367
0.000112425
0.000109794
0.00011283
0.000112371
0.000104884
0.000107977
0.000100945
0.000102368
0.000101171
0.000118579
0.000171679
0.000241043
0.0002587
0.000203843
0.00014589
0.000145991
0.000173495
0.000213646
0.000277596
0.000334347
0.000346801
0.000329437
0.00027187
0.000219353
0.000174034
0.000136022
0.000110886
9.80523e-05
9.21726e-05
8.9684e-05
8.85811e-05
8.82124e-05
8.86044e-05
8.97021e-05
9.1752e-05
9.56024e-05
0.00010096
0.000108125
0.000118229
0.000134255
0.000152744
0.000189651
0.000158642
0.000210317
0.000159309
0.000217321
0.00015387
0.00021287
0.000145056
0.00019885
0.000134198
0.000178222
0.000124105
0.000153458
0.000116927
0.000132253
0.000118802
0.000110862
0.000119484
0.000118432
0.000105283
0.000108208
0.000100886
0.000102554
0.000102521
0.000128892
0.00018472
0.000229062
0.000248866
0.000215002
0.000150931
0.000141241
0.000157068
0.000197645
0.000261328
0.000320006
0.000335479
0.000324106
0.000271378
0.000221094
0.000177974
0.000140387
0.000113452
9.89065e-05
9.20688e-05
8.9161e-05
8.80547e-05
8.76636e-05
8.80502e-05
8.91187e-05
9.12307e-05
9.52134e-05
0.000101188
0.000110585
0.000138436
0.000211611
0.000276494
0.000226936
0.000289629
0.000456488
0.000322297
0.000522807
0.000335553
0.000566855
0.000318373
0.000564057
0.0002836
0.000510082
0.000232987
0.000425624
0.000181336
0.000314921
0.000140945
0.000216046
0.000147656
0.000115411
0.000150238
0.000146494
0.000104925
0.000110818
0.000100825
0.000102216
0.00010435
0.000143032
0.000200213
0.000221833
0.000233099
0.000213952
0.000159485
0.000141231
0.000149658
0.000185285
0.000249403
0.000306862
0.000324685
0.000317506
0.000270265
0.000221751
0.000180969
0.00014436
0.00011617
9.99194e-05
9.20945e-05
8.86412e-05
8.75032e-05
8.7156e-05
8.74302e-05
8.84708e-05
9.06012e-05
9.45952e-05
0.000101215
0.000112462
0.000164279
0.000406909
0.00112052
0.000672973
0.00122417
0.000821282
0.00127321
0.000936247
0.00144401
0.000989419
0.00156794
0.000954403
0.00159454
0.000834697
0.0015109
0.000636848
0.00129413
0.000427751
0.000918555
0.000252325
0.000559956
0.000278397
0.000136724
0.000285873
0.000267219
0.000106007
0.000123888
0.000100663
0.000102466
0.000106531
0.000159051
0.000214805
0.000220677
0.000219887
0.000208065
0.000164509
0.000142698
0.000148257
0.000178466
0.00024041
0.000296015
0.000314833
0.000310105
0.000268479
0.000221519
0.000183124
0.000147779
0.000118863
0.000101094
9.22029e-05
8.82051e-05
8.69398e-05
8.66132e-05
8.68736e-05
8.7846e-05
8.99263e-05
9.39783e-05
0.000101042
0.000114268
0.000191097
0.000618283
0.00199018
0.00303536
0.00377888
0.00182865
0.00248241
0.00206639
0.00275734
0.00224296
0.00294325
0.00234356
0.00308376
0.00233217
0.00314566
0.00219282
0.00310296
0.00185258
0.00289757
0.00127184
0.00243408
0.000684657
0.00162611
0.000763025
0.000226283
0.000771132
0.000688429
0.000112307
0.000177448
0.00010063
0.000104877
0.000108889
0.000174839
0.000229734
0.00022272
0.000211427
0.00019592
0.000164456
0.000146448
0.000148708
0.000176868
0.000234725
0.000287568
0.000306374
0.000302767
0.000266056
0.000220822
0.000184447
0.000150781
0.000121486
0.000102389
9.24316e-05
8.78793e-05
8.62251e-05
8.60291e-05
8.63949e-05
8.73095e-05
8.94075e-05
9.34224e-05
0.000100823
0.000115778
0.000218148
0.000851379
0.00284458
0.00427022
0.00490767
0.00463621
0.00513379
0.00344771
0.00406472
0.00359469
0.00418122
0.00373159
0.00427621
0.0038443
0.00440678
0.00389687
0.0045334
0.00383736
0.00459958
0.0035679
0.00452205
0.00297115
0.00418307
0.0019027
0.0034045
0.00204294
0.000531407
0.00200522
0.00175342
0.000137725
0.000357762
0.000101034
0.000114264
0.000111487
0.000189425
0.000243261
0.000229313
0.000204915
0.000183383
0.000162405
0.000149418
0.000150866
0.000177063
0.000232046
0.000281712
0.000299455
0.000296072
0.000263168
0.000219539
0.00018499
0.00015332
0.000124088
0.000103608
9.26309e-05
8.74866e-05
8.55782e-05
8.54649e-05
8.59528e-05
8.69984e-05
8.91229e-05
9.31277e-05
0.000100726
0.000118239
0.000239519
0.00108235
0.00361001
0.0053617
0.00570622
0.00559794
0.0060428
0.00561074
0.0060669
0.00469728
0.00516224
0.0047403
0.00517562
0.00485791
0.00525381
0.00503087
0.0054326
0.0051997
0.00567038
0.0052921
0.00590077
0.00519002
0.00601
0.00472988
0.00584881
0.00371552
0.00519796
0.00387836
0.00133149
0.00384892
0.00353645
0.000222205
0.000873218
0.000102503
0.000141849
0.000121653
0.000200076
0.000256856
0.000237371
0.00020119
0.000173644
0.00015801
0.000150682
0.000154191
0.000178057
0.000231003
0.000277926
0.000294177
0.00029029
0.000260088
0.000218053
0.000185086
0.000155302
0.000126611
0.00010471
9.27983e-05
8.71446e-05
8.50832e-05
8.49399e-05
8.55867e-05
8.68959e-05
8.91868e-05
9.3193e-05
0.000101111
0.000122869
0.000265725
0.00131892
0.00426533
0.00698553
0.00639998
0.00697141
0.00652143
0.00697351
0.00650987
0.0070028
0.00561034
0.00604994
0.00563759
0.00603741
0.00578053
0.00611194
0.00604845
0.00635288
0.00637473
0.00673089
0.00666675
0.00717132
0.00677369
0.00752383
0.0064819
0.00757979
0.00557312
0.00707064
0.00580062
0.00288525
0.00580985
0.00551331
0.000465796
0.0019326
0.000106033
0.000214519
0.000230995
0.000262096
0.000246364
0.000199563
0.000167044
0.00015383
0.000150417
0.000156539
0.000180494
0.000231042
0.000275472
0.000290358
0.000285553
0.000257036
0.000216667
0.000184966
0.000157142
0.00012887
0.000105988
9.29695e-05
8.68224e-05
8.45396e-05
8.45353e-05
8.53539e-05
8.70269e-05
8.97407e-05
9.39705e-05
0.000102697
0.000132998
0.000305427
0.00159423
0.00483667
0.00748437
0.00822099
0.00858312
0.00741351
0.0078506
0.00747821
0.00796253
0.00735597
0.0078044
0.00645546
0.0068861
0.00643824
0.0067854
0.00660785
0.00683436
0.00698947
0.00716602
0.00753087
0.00775218
0.00810211
0.00850529
0.00848287
0.0091892
0.00839406
0.00952537
0.00757428
0.00916993
0.00791133
0.0048457
0.00799692
0.00772985
0.00101158
0.00362805
0.000113158
0.000385575
0.000277642
0.000248475
0.000199543
0.000163479
0.000149717
0.000149837
0.000157726
0.000183213
0.000231418
0.000274251
0.00028766
0.00028184
0.000254136
0.000215506
0.000185001
0.000158516
0.000131341
0.00010747
9.31868e-05
8.62779e-05
8.39624e-05
8.41321e-05
8.53294e-05
8.75931e-05
9.12027e-05
9.61582e-05
0.000106263
0.000146133
0.000396913
0.00191967
0.00533623
0.0078566
0.00890927
0.00907095
0.00914594
0.00948085
0.0084121
0.00880074
0.00820729
0.00856461
0.00783153
0.00815297
0.00714089
0.00748745
0.00705744
0.0072829
0.00728957
0.00738006
0.00786847
0.00788364
0.00872851
0.00878838
0.00968414
0.00995732
0.0104159
0.0110388
0.010576
0.0117028
0.00985425
0.011557
0.0103035
0.00699988
0.0104609
0.010321
0.00879121
0.00199376
0.00567244
0.000128386
0.000723792
0.00025497
0.0001986
0.000160998
0.000147842
0.000148536
0.000158904
0.000185457
0.000232374
0.000273916
0.000286072
0.000278888
0.000251527
0.000214622
0.000185264
0.000160371
0.000133835
0.000109411
9.34277e-05
8.57492e-05
8.33529e-05
8.39342e-05
8.54912e-05
8.87379e-05
9.36096e-05
9.94414e-05
0.000112761
0.000169052
0.000533773
0.00233174
0.00579336
0.00816353
0.0100469
0.00978286
0.0102293
0.00944016
0.00971963
0.00887127
0.00916301
0.00844348
0.00866894
0.00794489
0.00807768
0.00748375
0.00771417
0.00744169
0.0074944
0.00784898
0.00776567
0.00874587
0.00861659
0.0100079
0.0099397
0.0113844
0.0114691
0.0124715
0.0128616
0.012922
0.0137997
0.0123932
0.0137458
0.0130422
0.0116806
0.012832
0.010028
0.00787676
0.00964438
0.0117093
0.0130919
0.0129882
0.0115773
0.00350291
0.00906379
0.00832342
0.00629472
0.000141658
0.00107344
0.000198679
0.000159352
0.000145469
0.000147881
0.000159191
0.000188196
0.000233557
0.000274112
0.00028546
0.000276739
0.000249124
0.000214099
0.00018605
0.000162325
0.000137199
0.000111747
9.39043e-05
8.54747e-05
8.28649e-05
8.37409e-05
8.60348e-05
9.03432e-05
9.6192e-05
0.000104325
0.000122624
0.000211788
0.000751107
0.00282248
0.00624897
0.00839266
0.0105414
0.0107203
0.0111552
0.0100362
0.0103999
0.00893618
0.00906251
0.00880513
0.00887097
0.00804627
0.00789199
0.00750333
0.00726963
0.00756076
0.00756932
0.00764763
0.00751098
0.00838061
0.00810156
0.00975669
0.00945091
0.0114015
0.0112252
0.0129615
0.0129064
0.0137358
0.0138215
0.0138752
0.0138793
0.0142324
0.0146058
0.0143563
0.0148631
0.014786
0.0141873
0.0137746
0.0146317
0.0147466
0.0140709
0.0112968
0.0108624
0.0130314
0.0143375
0.0142629
0.0128736
0.00734679
0.00367026
0.00604444
0.010268
0.00947249
0.000153776
0.00428096
0.00240119
0.000829642
0.000158374
0.000144223
0.000146427
0.000160173
0.000189674
0.000236095
0.000275153
0.000285786
0.000275365
0.000247117
0.000213862
0.000187551
0.000165725
0.000141078
0.000114862
9.50509e-05
8.54577e-05
8.25586e-05
8.35477e-05
8.66863e-05
9.20162e-05
9.98777e-05
0.000111478
0.000140974
0.000294368
0.00108489
0.00349894
0.006736
0.00857801
0.0109997
0.011884
0.0101249
0.0107374
0.009297
0.00967537
0.00707992
0.00704693
0.00759741
0.00729103
0.00679054
0.00615145
0.00667641
0.00611815
0.00733037
0.00707
0.00780341
0.00749757
0.00907511
0.00865351
0.0109441
0.0105861
0.0127893
0.0126338
0.0138701
0.0138406
0.0138352
0.0138291
0.0144033
0.0143966
0.0143771
0.0150966
0.0152553
0.0148545
0.0151965
0.0152626
0.0151972
0.0149545
0.0155747
0.0155396
0.0152387
0.0125721
0.0121168
0.0143105
0.0154265
0.0155264
0.0141519
0.00844488
0.0070449
0.0114982
0.0106935
0.000956851
0.000104112
0.000235631
0.00525529
0.00305196
0.000142709
0.000145782
0.00016044
0.000192413
0.000237981
0.000278704
0.0002877
0.000275102
0.000245712
0.000213985
0.000189549
0.000170546
0.000147032
0.000120506
9.7815e-05
8.57227e-05
8.25021e-05
8.36008e-05
8.75035e-05
9.48765e-05
0.000106179
0.000123724
0.000174395
0.000439782
0.00159607
0.00435986
0.00727524
0.00874637
0.0114323
0.0128352
0.00959796
0.0106206
0.00822212
0.0088738
0.00718818
0.00759961
0.00431698
0.0041223
0.00544455
0.00479257
0.00541174
0.00464587
0.00621827
0.00557257
0.00716432
0.00675173
0.00820865
0.00774946
0.0101575
0.00965901
0.0124474
0.0121647
0.0138597
0.0139006
0.0139573
0.0140106
0.0143749
0.0144021
0.014468
0.0145838
0.0148241
0.014793
0.0148011
0.0156468
0.0155941
0.015131
0.0153704
0.0154771
0.0159152
0.0159148
0.0162497
0.0159815
0.0161938
0.0138578
0.0134165
0.0155323
0.0164032
0.0165616
0.0154237
0.0096478
0.00826264
0.0128244
0.0120576
0.00130775
0.000103388
0.000266148
0.00633416
0.00408236
0.000144589
0.000160914
0.000193851
0.000242247
0.00028266
0.000293576
0.000275985
0.000245368
0.000214824
0.000194074
0.000176811
0.000156478
0.000127721
0.000102146
8.69859e-05
8.28305e-05
8.4013e-05
8.94433e-05
0.000100275
0.000116829
0.000143679
0.000230021
0.00067303
0.00230578
0.00541213
0.0078572
0.0089344
0.0118232
0.0138066
0.0108915
0.0069036
0.00768993
0.00532885
0.00609363
0.00421622
0.00463991
0.00254978
0.0020807
0.00389061
0.00317969
0.00486774
0.00415374
0.00614359
0.00550182
0.0072648
0.00673479
0.0091175
0.00854704
0.0117924
0.0112755
0.0140529
0.0140548
0.0140129
0.0139186
0.0147393
0.0149291
0.015127
0.0153152
0.0148794
0.0150218
0.0152366
0.015514
0.0151011
0.0151342
0.0152577
0.0158723
0.0157025
0.0153306
0.0155031
0.0155544
0.0162829
0.0165481
0.0165602
0.0161307
0.0168075
0.0151847
0.0147953
0.0166437
0.0170376
0.0172405
0.0166213
0.0110475
0.00963616
0.0142522
0.0135344
0.00184884
0.000106705
0.000461114
0.00768349
0.00539638
0.000161126
0.000195532
0.000245434
0.000290867
0.000300218
0.000280363
0.000246181
0.00021739
0.000199583
0.000189376
0.000167909
0.000138189
0.000109753
9.0657e-05
8.43441e-05
8.52523e-05
9.23894e-05
0.000106991
0.000129478
0.000169493
0.000318544
0.0010294
0.00326403
0.00659584
0.00845285
0.0091495
0.0121826
0.0147759
0.0126008
0.00517278
0.00628889
0.00360527
0.00433806
0.00227952
0.00287411
0.00186803
0.00193361
0.00209769
0.00149227
0.00346015
0.00277277
0.00485737
0.00425438
0.00670401
0.00610573
0.00794846
0.00732962
0.01066
0.00997558
0.0143324
0.0137816
0.0154619
0.0155504
0.0155607
0.0155202
0.0158318
0.0161663
0.0164911
0.0167682
0.0154782
0.0157844
0.0161557
0.0165737
0.0153856
0.0155552
0.0158344
0.0159041
0.0157
0.015567
0.0156803
0.0156198
0.0163655
0.0168196
0.016573
0.0160667
0.0170684
0.0164657
0.0161567
0.0173951
0.0173108
0.0175467
0.017479
0.0125611
0.0111714
0.0156727
0.0150227
0.00311011
0.000200027
0.00205548
0.00935093
0.00733098
0.000197182
0.000249414
0.000298719
0.000311977
0.00028768
0.000250326
0.000221543
0.000211994
0.000201991
0.000189488
0.000158653
0.000125201
9.95617e-05
8.86376e-05
8.77975e-05
9.50018e-05
0.000111664
0.000139071
0.000197006
0.000443985
0.00157132
0.0044257
0.0077896
0.0090248
0.00936887
0.0125441
0.0156692
0.0140897
0.0058138
0.00197992
0.00240087
0.00130856
0.00160718
0.000928363
0.00107117
0.00107877
0.000908507
0.00216915
0.00145201
0.00364343
0.00294432
0.00557157
0.00509251
0.00779332
0.0071622
0.00924639
0.0085116
0.0130935
0.0122754
0.0167797
0.0165361
0.0158975
0.0162589
0.0169709
0.0170908
0.0171154
0.0170047
0.0169956
0.0173852
0.0177006
0.0179183
0.0161967
0.0166075
0.0170191
0.0173865
0.0157671
0.0160781
0.0164494
0.0157992
0.0156935
0.015899
0.0159579
0.015733
0.0162012
0.0167686
0.0163198
0.0158686
0.0169758
0.0174635
0.0173045
0.0177565
0.0172137
0.0174894
0.0179199
0.0141238
0.012883
0.0169597
0.0164312
0.00665274
0.00258224
0.008198
0.0114302
0.0106288
0.000254936
0.000307818
0.000326924
0.000299208
0.000258823
0.000230998
0.000223718
0.000227455
0.000218934
0.000192073
0.000152766
0.000120111
9.92286e-05
9.32171e-05
9.86793e-05
0.00011523
0.00014558
0.000222253
0.000596299
0.00223732
0.00568774
0.00888006
0.00953917
0.00960944
0.0128461
0.0164822
0.0153364
0.00705914
0.00106837
0.00144845
0.000746333
0.00085822
0.000565868
0.000643308
0.000535497
0.000525038
0.000938382
0.000647363
0.00284229
0.00179374
0.00455858
0.00382173
0.00661936
0.00611561
0.00958125
0.0087351
0.0113988
0.0105025
0.0155308
0.0151081
0.015064
0.0178272
0.0176212
0.0170477
0.0173651
0.0180567
0.0181137
0.0180998
0.0179949
0.0176973
0.0179511
0.0181597
0.0183081
0.0167931
0.0170911
0.0173676
0.0176052
0.0162187
0.0165318
0.0167698
0.0157256
0.0157443
0.016269
0.0162537
0.0159534
0.0159189
0.016442
0.0159548
0.0157297
0.0166034
0.0180238
0.0180292
0.0177909
0.0168402
0.0171665
0.0180662
0.015666
0.014686
0.0178868
0.0175672
0.012965
0.0299757
0.0185005
0.0138048
0.014025
0.000325137
0.000340942
0.000319213
0.000270044
0.000243081
0.000247228
0.000255044
0.000261465
0.000234354
0.000194251
0.00015284
0.000122144
0.000106261
0.000106718
0.000121761
0.000153296
0.000247571
0.000751247
0.0029132
0.00689889
0.00978879
0.00996231
0.00984704
0.0131876
0.0171958
0.016383
0.00826803
0.00141316
0.000475332
0.000531735
0.000414644
0.000438761
0.000387372
0.000395305
0.000457963
0.00039956
0.0010118
0.000619652
0.00369787
0.00238373
0.00555466
0.00478481
0.00795186
0.00721366
0.0117619
0.0105587
0.014036
0.0129296
0.0166766
0.0162634
0.0162922
0.0157541
0.0181447
0.017975
0.0174908
0.0177599
0.0183881
0.0184049
0.0183695
0.0182801
0.0177902
0.0179205
0.0179715
0.0179683
0.0169958
0.0171004
0.0171162
0.0170699
0.0165229
0.0166758
0.0167177
0.0157257
0.0159025
0.0164634
0.0163783
0.016183
0.0157077
0.0159833
0.0156401
0.0156668
0.016072
0.0182682
0.0183668
0.0175326
0.0162772
0.0165865
0.0178811
0.0170217
0.0162662
0.0183523
0.0182178
0.0162936
0.0355919
0.0337564
0.0155831
0.0155905
0.00037563
0.000337921
0.000292966
0.000263802
0.000272149
0.000306511
0.0003189
0.000304692
0.000265864
0.00021388
0.000167978
0.000136686
0.000126208
0.000136481
0.000167878
0.000275721
0.000905019
0.00350086
0.00793237
0.0104884
0.0102973
0.0100517
0.0134962
0.0177796
0.0172449
0.00935677
0.00202313
0.000405302
0.000476471
0.000357097
0.000370611
0.000343815
0.000348615
0.00035178
0.000343537
0.000453265
0.000378994
0.00127314
0.000671958
0.00415179
0.00265277
0.00644233
0.00546586
0.00938486
0.00822077
0.0127195
0.0113532
0.0152854
0.014676
0.0140195
0.0171568
0.0167554
0.0162318
0.0158187
0.0176085
0.0174908
0.0171431
0.0173406
0.0179265
0.0178701
0.0177964
0.0177111
0.0169811
0.0168663
0.0167225
0.0165671
0.0166021
0.016354
0.0160412
0.0157155
0.0165255
0.0164261
0.0160909
0.0157997
0.0160529
0.0164058
0.0163003
0.0162711
0.0155618
0.01554
0.0153716
0.0156344
0.0155142
0.0181759
0.0183889
0.0169573
0.0156258
0.015776
0.0173635
0.0178475
0.017077
0.0184809
0.0183705
0.0180947
0.0202125
0.0413005
0.0160483
0.0157313
0.000385328
0.000317594
0.000295594
0.000326376
0.000379613
0.000436351
0.000459723
0.000437733
0.000367898
0.000284389
0.000213911
0.000175199
0.000170038
0.000195383
0.00031169
0.00103498
0.00397376
0.008759
0.0110239
0.0105434
0.0102195
0.0137091
0.0182358
0.0179097
0.0102929
0.00247961
0.000493581
0.000343342
0.000352083
0.000331313
0.000335861
0.000329898
0.000329352
0.000347223
0.00033452
0.00046947
0.000379099
0.00141049
0.000738733
0.00420923
0.00265291
0.00701255
0.00569527
0.00991736
0.00845313
0.0124753
0.011749
0.0105365
0.0153811
0.0148802
0.0130383
0.0136593
0.0168903
0.016582
0.015248
0.0149532
0.0160519
0.0159897
0.0158065
0.0159115
0.0164176
0.0163001
0.016204
0.016125
0.0154066
0.0151152
0.0148344
0.0145648
0.0156075
0.0150585
0.0145171
0.0140285
0.0162201
0.0157503
0.0151066
0.0158584
0.016089
0.016118
0.0160738
0.0161574
0.0153803
0.015135
0.0150495
0.0155362
0.0149141
0.0178034
0.0181554
0.016039
0.0147136
0.0146649
0.0165151
0.0179782
0.0170878
0.0183353
0.0182283
0.0197222
0.0105824
0.0411379
0.0157739
0.0156396
0.000378172
0.000334901
0.000400884
0.000561807
0.000710855
0.000904524
0.000957525
0.000855895
0.000656867
0.000458963
0.00031576
0.00024854