/*--------------------------------*- C++ -*----------------------------------*\
  =========                 |
  \\      /  F ield         | OpenFOAM: The Open Source CFD Toolbox
   \\    /   O peration     | Website:  https://openfoam.org
    \\  /    A nd           | Version:  dev
     \\/     M anipulation  |
\*---------------------------------------------------------------------------*/
FoamFile
{
    version     2.0;
    format      ascii;
    class       volScalarField;
    location    "2500";
    object      N2;
}
// * * * * * * * * * * * * * * * * * * * * * * * * * * * * * * * * * * * * * //

dimensions      [0 0 0 0 0 0 0];

internalField   nonuniform List<scalar> 
9841
(
0.76699
0.76699
0.76699
0.76699
0.76699
0.76699
0.76699
0.76699
0.76699
0.76699
0.76699
0.76699
0.76699
0.76699
0.76699
0.76699
0.76699
0.76699
0.76699
0.76699
0.76699
0.76699
0.76699
0.76699
0.76699
0.76699
0.76699
0.76699
0.76699
0.76699
0.76699
0.76699
0.76699
0.76699
0.76699
0.76699
0.76699
0.76699
0.76699
0.76699
0.76699
0.76699
0.76699
0.76699
0.76699
0.76699
0.76699
0.76699
0.76699
0.76699
0.76699
0.76699
0.76699
0.76699
0.76699
0.76699
0.76699
0.76699
0.76699
0.76699
0.76699
0.76699
0.76699
0.76699
0.76699
0.76699
0.76699
0.76699
0.76699
0.76699
0.76699
0.76699
0.76699
0.76699
0.76699
0.76699
0.76699
0.76699
0.76699
0.76699
0.76699
0.76699
0.76699
0.76699
0.76699
0.76699
0.76699
0.76699
0.76699
0.76699
0.76699
0.76699
0.76699
0.76699
0.76699
0.76699
0.76699
0.76699
0.76699
0.76699
0.76699
0.76699
0.76699
0.76699
0.76699
0.76699
0.76699
0.76699
0.76699
0.76699
0.76699
0.76699
0.76699
0.76699
0.76699
0.76699
0.76699
0.76699
0.76699
0.76699
0.76699
0.76699
0.76699
0.76699
0.76699
0.76699
0.76699
0.76699
0.76699
0.76699
0.76699
0.76699
0.76699
0.76699
0.76699
0.76699
0.76699
0.76699
0.76699
0.76699
0.76699
0.76699
0.76699
0.76699
0.76699
0.76699
0.76699
0.76699
0.76699
0.76699
0.76699
0.76699
0.76699
0.76699
0.76699
0.76699
0.76699
0.76699
0.76699
0.76699
0.76699
0.76699
0.76699
0.76699
0.76699
0.76699
0.76699
0.76699
0.76699
0.76699
0.76699
0.76699
0.76699
0.76699
0.76699
0.76699
0.76699
0.76699
0.76699
0.76699
0.76699
0.76699
0.76699
0.76699
0.76699
0.76699
0.76699
0.76699
0.76699
0.76699
0.76699
0.76699
0.76699
0.76699
0.76699
0.76699
0.76699
0.76699
0.76699
0.76699
0.76699
0.76699
0.76699
0.76699
0.76699
0.76699
0.76699
0.76699
0.76699
0.76699
0.76699
0.76699
0.76699
0.76699
0.76699
0.76699
0.76699
0.76699
0.76699
0.76699
0.76699
0.76699
0.76699
0.76699
0.76699
0.76699
0.76699
0.76699
0.76699
0.76699
0.76699
0.76699
0.76699
0.76699
0.76699
0.76699
0.76699
0.76699
0.76699
0.76699
0.76699
0.76699
0.76699
0.76699
0.76699
0.76699
0.76699
0.76699
0.76699
0.76699
0.76699
0.76699
0.76699
0.76699
0.76699
0.76699
0.76699
0.76699
0.76699
0.76699
0.76699
0.76699
0.76699
0.76699
0.76699
0.76699
0.76699
0.76699
0.76699
0.76699
0.76699
0.76699
0.76699
0.76699
0.76699
0.76699
0.76699
0.76699
0.76699
0.76699
0.76699
0.76699
0.76699
0.76699
0.76699
0.76699
0.76699
0.76699
0.76699
0.76699
0.76699
0.76699
0.76699
0.76699
0.76699
0.76699
0.76699
0.76699
0.76699
0.76699
0.76699
0.76699
0.76699
0.76699
0.76699
0.76699
0.76699
0.76699
0.76699
0.76699
0.76699
0.76699
0.76699
0.76699
0.76699
0.76699
0.76699
0.76699
0.76699
0.76699
0.76699
0.76699
0.76699
0.76699
0.76699
0.76699
0.76699
0.76699
0.76699
0.76699
0.76699
0.76699
0.76699
0.76699
0.76699
0.76699
0.76699
0.76699
0.76699
0.76699
0.76699
0.76699
0.76699
0.76699
0.76699
0.76699
0.76699
0.76699
0.76699
0.76699
0.76699
0.76699
0.76699
0.76699
0.76699
0.76699
0.76699
0.76699
0.76699
0.76699
0.76699
0.76699
0.76699
0.76699
0.76699
0.76699
0.76699
0.76699
0.76699
0.76699
0.76699
0.76699
0.76699
0.76699
0.76699
0.76699
0.76699
0.76699
0.76699
0.76699
0.76699
0.76699
0.76699
0.76699
0.76699
0.76699
0.76699
0.76699
0.76699
0.76699
0.76699
0.76699
0.76699
0.76699
0.76699
0.76699
0.76699
0.76699
0.76699
0.76699
0.76699
0.76699
0.76699
0.76699
0.76699
0.76699
0.76699
0.76699
0.76699
0.76699
0.76699
0.76699
0.76699
0.76699
0.76699
0.76699
0.76699
0.76699
0.76699
0.76699
0.76699
0.76699
0.76699
0.76699
0.76699
0.76699
0.76699
0.76699
0.76699
0.76699
0.76699
0.76699
0.76699
0.76699
0.76699
0.76699
0.76699
0.76699
0.76699
0.76699
0.76699
0.76699
0.76699
0.76699
0.76699
0.76699
0.76699
0.76699
0.76699
0.76699
0.76699
0.76699
0.76699
0.76699
0.76699
0.76699
0.76699
0.76699
0.76699
0.76699
0.76699
0.76699
0.76699
0.76699
0.76699
0.76699
0.76699
0.76699
0.76699
0.76699
0.76699
0.76699
0.76699
0.76699
0.76699
0.76699
0.76699
0.76699
0.76699
0.76699
0.76699
0.76699
0.76699
0.76699
0.76699
0.76699
0.76699
0.76699
0.76699
0.76699
0.76699
0.76699
0.76699
0.76699
0.76699
0.76699
0.76699
0.76699
0.76699
0.76699
0.76699
0.76699
0.76699
0.76699
0.76699
0.76699
0.76699
0.76699
0.76699
0.76699
0.76699
0.76699
0.76699
0.76699
0.76699
0.76699
0.76699
0.76699
0.76699
0.76699
0.76699
0.76699
0.76699
0.76699
0.76699
0.76699
0.76699
0.76699
0.76699
0.76699
0.76699
0.76699
0.76699
0.76699
0.76699
0.76699
0.76699
0.76699
0.76699
0.76699
0.76699
0.76699
0.76699
0.76699
0.76699
0.76699
0.76699
0.76699
0.76699
0.76699
0.76699
0.76699
0.76699
0.76699
0.76699
0.76699
0.76699
0.76699
0.76699
0.76699
0.76699
0.76699
0.76699
0.76699
0.76699
0.76699
0.76699
0.76699
0.76699
0.76699
0.76699
0.76699
0.76699
0.76699
0.76699
0.76699
0.76699
0.76699
0.76699
0.76699
0.76699
0.76699
0.76699
0.76699
0.76699
0.76699
0.76699
0.76699
0.76699
0.76699
0.76699
0.76699
0.76699
0.76699
0.76699
0.76699
0.76699
0.76699
0.76699
0.76699
0.76699
0.76699
0.76699
0.76699
0.76699
0.76699
0.76699
0.76699
0.76699
0.76699
0.76699
0.76699
0.76699
0.76699
0.76699
0.76699
0.76699
0.76699
0.76699
0.76699
0.76699
0.76699
0.76699
0.76699
0.76699
0.76699
0.76699
0.76699
0.76699
0.76699
0.76699
0.76699
0.76699
0.76699
0.76699
0.76699
0.76699
0.76699
0.76699
0.76699
0.76699
0.76699
0.76699
0.76699
0.76699
0.76699
0.76699
0.76699
0.76699
0.76699
0.76699
0.76699
0.76699
0.76699
0.76699
0.76699
0.76699
0.76699
0.76699
0.76699
0.76699
0.76699
0.76699
0.76699
0.76699
0.76699
0.76699
0.76699
0.76699
0.76699
0.76699
0.76699
0.76699
0.76699
0.76699
0.76699
0.76699
0.76699
0.76699
0.76699
0.76699
0.76699
0.76699
0.76699
0.76699
0.76699
0.76699
0.76699
0.76699
0.76699
0.76699
0.76699
0.76699
0.76699
0.76699
0.76699
0.76699
0.76699
0.76699
0.76699
0.76699
0.76699
0.76699
0.76699
0.76699
0.76699
0.76699
0.76699
0.76699
0.76699
0.76699
0.76699
0.76699
0.76699
0.76699
0.76699
0.76699
0.76699
0.76699
0.76699
0.76699
0.76699
0.76699
0.76699
0.76699
0.76699
0.76699
0.76699
0.76699
0.76699
0.76699
0.76699
0.76699
0.76699
0.76699
0.76699
0.76699
0.76699
0.76699
0.76699
0.76699
0.76699
0.76699
0.76699
0.76699
0.76699
0.76699
0.76699
0.76699
0.76699
0.76699
0.76699
0.76699
0.76699
0.76699
0.76699
0.76699
0.76699
0.76699
0.76699
0.76699
0.76699
0.76699
0.76699
0.76699
0.76699
0.76699
0.76699
0.76699
0.76699
0.76699
0.76699
0.76699
0.76699
0.76699
0.76699
0.76699
0.76699
0.76699
0.76699
0.76699
0.76699
0.76699
0.76699
0.76699
0.76699
0.76699
0.76699
0.76699
0.76699
0.76699
0.76699
0.76699
0.76699
0.76699
0.76699
0.76699
0.76699
0.76699
0.76699
0.76699
0.76699
0.76699
0.76699
0.76699
0.76699
0.76699
0.76699
0.76699
0.76699
0.76699
0.76699
0.76699
0.76699
0.76699
0.76699
0.76699
0.76699
0.76699
0.76699
0.76699
0.76699
0.76699
0.76699
0.76699
0.76699
0.76699
0.76699
0.76699
0.76699
0.76699
0.76699
0.76699
0.76699
0.76699
0.76699
0.76699
0.76699
0.76699
0.76699
0.76699
0.76699
0.76699
0.76699
0.76699
0.76699
0.76699
0.76699
0.76699
0.76699
0.76699
0.76699
0.76699
0.76699
0.76699
0.76699
0.76699
0.76699
0.76699
0.76699
0.76699
0.76699
0.76699
0.76699
0.76699
0.76699
0.76699
0.76699
0.76699
0.76699
0.76699
0.76699
0.76699
0.76699
0.76699
0.76699
0.76699
0.76699
0.76699
0.76699
0.76699
0.76699
0.76699
0.76699
0.76699
0.76699
0.76699
0.76699
0.76699
0.76699
0.76699
0.76699
0.76699
0.76699
0.76699
0.76699
0.76699
0.76699
0.76699
0.76699
0.76699
0.76699
0.76699
0.76699
0.76699
0.76699
0.76699
0.76699
0.76699
0.76699
0.76699
0.76699
0.76699
0.76699
0.76699
0.76699
0.76699
0.76699
0.76699
0.76699
0.76699
0.76699
0.76699
0.76699
0.76699
0.76699
0.76699
0.76699
0.76699
0.76699
0.76699
0.76699
0.76699
0.76699
0.76699
0.76699
0.76699
0.76699
0.76699
0.76699
0.76699
0.76699
0.76699
0.76699
0.76699
0.76699
0.76699
0.76699
0.76699
0.76699
0.76699
0.76699
0.76699
0.76699
0.76699
0.76699
0.76699
0.76699
0.76699
0.76699
0.76699
0.76699
0.76699
0.76699
0.76699
0.76699
0.76699
0.76699
0.76699
0.76699
0.76699
0.76699
0.76699
0.76699
0.76699
0.76699
0.76699
0.76699
0.76699
0.76699
0.76699
0.76699
0.76699
0.76699
0.76699
0.76699
0.76699
0.76699
0.76699
0.766989
0.766989
0.766989
0.766989
0.766989
0.76699
0.766989
0.76699
0.766989
0.76699
0.766989
0.76699
0.76699
0.76699
0.76699
0.76699
0.76699
0.76699
0.76699
0.76699
0.76699
0.76699
0.76699
0.76699
0.76699
0.76699
0.76699
0.76699
0.76699
0.76699
0.76699
0.76699
0.76699
0.76699
0.76699
0.76699
0.76699
0.76699
0.76699
0.76699
0.76699
0.76699
0.76699
0.76699
0.76699
0.76699
0.76699
0.76699
0.76699
0.76699
0.76699
0.76699
0.766989
0.766988
0.766986
0.766987
0.766984
0.766987
0.766983
0.766987
0.766983
0.766987
0.766984
0.766988
0.766985
0.766989
0.766987
0.76699
0.766988
0.76699
0.76699
0.766989
0.766989
0.76699
0.76699
0.76699
0.76699
0.76699
0.76699
0.76699
0.76699
0.76699
0.76699
0.76699
0.76699
0.76699
0.76699
0.76699
0.76699
0.76699
0.76699
0.76699
0.76699
0.76699
0.76699
0.76699
0.76699
0.76699
0.76699
0.76699
0.76699
0.76699
0.76699
0.76699
0.76699
0.76699
0.76699
0.766989
0.766986
0.766982
0.766985
0.76698
0.76697
0.766977
0.766964
0.766975
0.766959
0.766975
0.766957
0.766977
0.76696
0.766981
0.766965
0.766985
0.766974
0.766988
0.766982
0.766987
0.76699
0.766987
0.766987
0.76699
0.76699
0.76699
0.76699
0.76699
0.76699
0.76699
0.76699
0.76699
0.76699
0.76699
0.76699
0.76699
0.76699
0.76699
0.76699
0.76699
0.76699
0.76699
0.76699
0.76699
0.76699
0.76699
0.76699
0.76699
0.76699
0.76699
0.76699
0.76699
0.76699
0.76699
0.76699
0.76699
0.76699
0.766988
0.766977
0.766937
0.766959
0.76693
0.766946
0.766918
0.766934
0.7669
0.766926
0.766884
0.766926
0.766876
0.766933
0.766878
0.766947
0.766893
0.766964
0.766922
0.766978
0.766952
0.766976
0.766988
0.766975
0.766976
0.76699
0.766988
0.76699
0.76699
0.76699
0.76699
0.76699
0.76699
0.76699
0.76699
0.76699
0.76699
0.76699
0.76699
0.76699
0.76699
0.76699
0.76699
0.76699
0.76699
0.76699
0.76699
0.76699
0.76699
0.76699
0.76699
0.76699
0.76699
0.76699
0.76699
0.76699
0.76699
0.76699
0.76699
0.766988
0.766971
0.766895
0.766811
0.76677
0.766885
0.766847
0.766858
0.766809
0.766833
0.766777
0.766816
0.766751
0.766809
0.766734
0.766816
0.766729
0.766841
0.766743
0.766889
0.766783
0.76694
0.766855
0.766931
0.766979
0.766928
0.766935
0.766989
0.766983
0.76699
0.76699
0.76699
0.76699
0.76699
0.76699
0.76699
0.76699
0.76699
0.76699
0.76699
0.76699
0.76699
0.76699
0.76699
0.76699
0.76699
0.76699
0.76699
0.76699
0.76699
0.76699
0.76699
0.76699
0.76699
0.76699
0.76699
0.76699
0.76699
0.76699
0.76699
0.76699
0.766987
0.766963
0.766866
0.766737
0.766703
0.766667
0.766626
0.766759
0.766711
0.76672
0.766663
0.766686
0.766624
0.766658
0.766588
0.766643
0.766561
0.766642
0.766548
0.766666
0.766554
0.766724
0.766592
0.766825
0.766674
0.766808
0.766949
0.766808
0.76683
0.766986
0.766965
0.76699
0.766989
0.76699
0.76699
0.76699
0.76699
0.76699
0.76699
0.76699
0.76699
0.76699
0.76699
0.76699
0.76699
0.76699
0.76699
0.76699
0.76699
0.76699
0.76699
0.76699
0.76699
0.76699
0.76699
0.76699
0.76699
0.76699
0.76699
0.76699
0.76699
0.76699
0.76699
0.766987
0.766956
0.766829
0.766674
0.766663
0.766593
0.766563
0.766525
0.766493
0.766611
0.766565
0.766566
0.766513
0.766524
0.766468
0.766488
0.766424
0.766462
0.766387
0.766452
0.766363
0.76647
0.766361
0.766526
0.766393
0.766637
0.766475
0.766619
0.76687
0.766623
0.766657
0.766978
0.766915
0.76699
0.766986
0.76699
0.76699
0.76699
0.76699
0.76699
0.76699
0.76699
0.76699
0.76699
0.76699
0.76699
0.76699
0.76699
0.76699
0.76699
0.76699
0.76699
0.76699
0.76699
0.76699
0.76699
0.76699
0.76699
0.76699
0.76699
0.76699
0.76699
0.76699
0.76699
0.76699
0.766986
0.766951
0.766806
0.766572
0.766546
0.766523
0.76647
0.766463
0.766409
0.7664
0.766469
0.766435
0.76642
0.766381
0.766371
0.766329
0.766325
0.766276
0.766288
0.766227
0.766268
0.766191
0.766277
0.766179
0.766329
0.766203
0.76644
0.76628
0.766425
0.766725
0.766436
0.76648
0.766956
0.766821
0.76699
0.766981
0.76699
0.76699
0.76699
0.76699
0.76699
0.76699
0.76699
0.76699
0.76699
0.76699
0.76699
0.76699
0.76699
0.76699
0.76699
0.76699
0.76699
0.76699
0.76699
0.76699
0.76699
0.76699
0.76699
0.76699
0.76699
0.76699
0.76699
0.76699
0.766989
0.766985
0.766946
0.76679
0.766572
0.766492
0.766508
0.766468
0.766477
0.766407
0.766425
0.766341
0.766358
0.766354
0.76634
0.766297
0.766277
0.766238
0.766213
0.766179
0.766145
0.766129
0.76608
0.766097
0.766031
0.766097
0.766009
0.766143
0.766026
0.766249
0.766098
0.76624
0.766559
0.766257
0.766307
0.766912
0.766688
0.766989
0.76697
0.76699
0.76699
0.76699
0.76699
0.76699
0.76699
0.76699
0.76699
0.76699
0.76699
0.76699
0.76699
0.76699
0.76699
0.76699
0.76699
0.76699
0.76699
0.76699
0.76699
0.76699
0.76699
0.76699
0.76699
0.76699
0.76699
0.76699
0.766988
0.766982
0.766939
0.766784
0.766578
0.766519
0.76653
0.766499
0.766522
0.766449
0.766474
0.76639
0.766428
0.766309
0.766353
0.766274
0.766281
0.7662
0.766201
0.766124
0.766116
0.766046
0.766026
0.765979
0.765941
0.765936
0.765878
0.765929
0.765848
0.76597
0.765862
0.766071
0.76593
0.766067
0.766402
0.76609
0.766132
0.766251
0.766847
0.766549
0.766989
0.766953
0.76699
0.76699
0.76699
0.76699
0.76699
0.76699
0.76699
0.76699
0.76699
0.76699
0.76699
0.76699
0.76699
0.76699
0.76699
0.76699
0.76699
0.76699
0.76699
0.76699
0.76699
0.76699
0.76699
0.76699
0.76699
0.766989
0.766987
0.766977
0.76693
0.766781
0.766583
0.766546
0.766539
0.766557
0.766558
0.76659
0.766473
0.766518
0.766409
0.766474
0.766303
0.766375
0.766214
0.766248
0.76612
0.766135
0.76602
0.766024
0.765917
0.765909
0.765833
0.765801
0.76578
0.765724
0.76577
0.765689
0.765812
0.765705
0.765909
0.765783
0.765847
0.765994
0.76591
0.766174
0.766361
0.766223
0.766032
0.765934
0.765921
0.76606
0.766766
0.76629
0.766372
0.766532
0.766989
0.766948
0.76699
0.76699
0.76699
0.76699
0.76699
0.76699
0.76699
0.76699
0.76699
0.76699
0.76699
0.76699
0.76699
0.76699
0.76699
0.76699
0.76699
0.76699
0.76699
0.76699
0.76699
0.76699
0.76699
0.76699
0.766989
0.766985
0.76697
0.766918
0.766777
0.766584
0.766546
0.766632
0.76663
0.766613
0.766626
0.766652
0.766688
0.766541
0.766602
0.766457
0.766544
0.766307
0.766398
0.766172
0.766231
0.766039
0.766075
0.765911
0.765923
0.765781
0.765778
0.76568
0.765646
0.765619
0.76556
0.765671
0.765625
0.765584
0.765542
0.765728
0.765667
0.765591
0.765554
0.765613
0.765774
0.765839
0.765766
0.765711
0.765841
0.766101
0.766154
0.765959
0.765868
0.765851
0.765991
0.766476
0.766786
0.766611
0.766223
0.76631
0.766989
0.766768
0.766904
0.766969
0.76699
0.76699
0.76699
0.76699
0.76699
0.76699
0.76699
0.76699
0.76699
0.76699
0.76699
0.76699
0.76699
0.76699
0.76699
0.76699
0.76699
0.76699
0.76699
0.76699
0.76699
0.76699
0.76699
0.766988
0.766982
0.766959
0.7669
0.766768
0.766583
0.766542
0.766659
0.76672
0.766723
0.766709
0.766719
0.766753
0.766789
0.766627
0.766698
0.766497
0.766595
0.766301
0.766403
0.766132
0.766208
0.765952
0.766001
0.765784
0.765801
0.765626
0.765624
0.765519
0.765504
0.765509
0.765476
0.765458
0.765449
0.765542
0.765499
0.76546
0.765649
0.765587
0.765504
0.765471
0.765527
0.7657
0.765767
0.765695
0.765633
0.765772
0.766034
0.766089
0.765893
0.765785
0.765803
0.765927
0.766423
0.766565
0.766159
0.766249
0.766968
0.76699
0.766988
0.766735
0.766885
0.76699
0.76699
0.76699
0.76699
0.76699
0.76699
0.76699
0.76699
0.76699
0.76699
0.76699
0.76699
0.76699
0.76699
0.76699
0.76699
0.76699
0.76699
0.76699
0.76699
0.76699
0.766989
0.766987
0.766976
0.766944
0.766877
0.766754
0.766578
0.766531
0.766631
0.766785
0.766763
0.766809
0.766799
0.766807
0.766811
0.766825
0.76687
0.766684
0.766761
0.766508
0.766607
0.766254
0.766359
0.766069
0.766155
0.765837
0.765891
0.765632
0.765652
0.765507
0.765517
0.76545
0.765457
0.765464
0.765476
0.765433
0.765422
0.765423
0.76543
0.765458
0.76542
0.765401
0.765567
0.765503
0.765422
0.765391
0.765442
0.765624
0.765696
0.76562
0.765552
0.765704
0.76597
0.766024
0.765829
0.765717
0.765736
0.765862
0.766363
0.766509
0.766093
0.76618
0.766963
0.76699
0.766988
0.766688
0.766856
0.76699
0.76699
0.76699
0.76699
0.76699
0.76699
0.76699
0.76699
0.76699
0.76699
0.76699
0.76699
0.76699
0.76699
0.76699
0.76699
0.76699
0.76699
0.76699
0.76699
0.766989
0.766985
0.766967
0.766923
0.766849
0.766733
0.766568
0.766517
0.766602
0.766775
0.766857
0.766847
0.766887
0.766873
0.766891
0.766893
0.766847
0.766902
0.766697
0.766778
0.766462
0.766557
0.76614
0.766235
0.765961
0.766046
0.765689
0.76574
0.765536
0.765552
0.765487
0.765499
0.765509
0.765519
0.765443
0.765462
0.765485
0.765508
0.765399
0.765407
0.765426
0.765456
0.765388
0.765377
0.765381
0.765482
0.765418
0.765362
0.76534
0.765365
0.765543
0.765622
0.765539
0.765467
0.76563
0.765903
0.765955
0.765761
0.765644
0.765665
0.765794
0.766293
0.766441
0.76602
0.766103
0.766959
0.76699
0.766987
0.766622
0.766824
0.76699
0.76699
0.76699
0.76699
0.76699
0.76699
0.76699
0.76699
0.76699
0.76699
0.76699
0.76699
0.76699
0.76699
0.76699
0.76699
0.76699
0.76699
0.76699
0.766989
0.766982
0.766954
0.766894
0.766815
0.766707
0.766554
0.766501
0.766573
0.766739
0.766896
0.766876
0.766924
0.76691
0.766947
0.766937
0.766936
0.766948
0.766836
0.766906
0.766651
0.766746
0.766326
0.766415
0.765961
0.766042
0.765805
0.76588
0.765572
0.765603
0.765541
0.765546
0.765528
0.765545
0.765557
0.765566
0.765492
0.765531
0.765566
0.765597
0.765401
0.765438
0.765489
0.765545
0.765357
0.76537
0.765407
0.765399
0.765344
0.76534
0.765324
0.765321
0.765458
0.765541
0.765454
0.765384
0.765551
0.765834
0.765884
0.765692
0.765567
0.76559
0.765725
0.766213
0.766358
0.765946
0.766024
0.766949
0.766989
0.76698
0.766541
0.76677
0.76699
0.76699
0.76699
0.76699
0.76699
0.76699
0.76699
0.76699
0.76699
0.76699
0.76699
0.76699
0.76699
0.76699
0.76699
0.76699
0.76699
0.76699
0.766988
0.766978
0.766936
0.766861
0.766777
0.766675
0.766534
0.766482
0.766546
0.766705
0.766889
0.766956
0.766949
0.766969
0.766963
0.766974
0.766973
0.766948
0.766968
0.766768
0.766879
0.766516
0.766638
0.766122
0.766211
0.765768
0.765837
0.765647
0.765704
0.765551
0.765561
0.765646
0.76564
0.765622
0.765632
0.76562
0.765635
0.765644
0.765647
0.7656
0.765649
0.76569
0.76572
0.765464
0.765535
0.76561
0.765682
0.765364
0.765417
0.765494
0.765326
0.765305
0.765358
0.765353
0.76531
0.765374
0.765457
0.76537
0.765313
0.765469
0.765766
0.765815
0.765621
0.765487
0.765514
0.765657
0.766127
0.766261
0.765873
0.765945
0.766912
0.766967
0.766937
0.766435
0.766652
0.76699
0.76699
0.76699
0.76699
0.76699
0.76699
0.76699
0.76699
0.76699
0.76699
0.76699
0.76699
0.76699
0.76699
0.76699
0.76699
0.76699
0.766988
0.766973
0.766916
0.766824
0.766736
0.766638
0.766509
0.766462
0.766521
0.766675
0.766862
0.766975
0.766968
0.766981
0.766979
0.766984
0.766983
0.766982
0.766984
0.766945
0.766972
0.766653
0.766817
0.766326
0.766477
0.765912
0.766007
0.765653
0.765709
0.765581
0.765611
0.765613
0.765602
0.765611
0.765735
0.765721
0.765688
0.765705
0.765739
0.765748
0.76575
0.765745
0.765745
0.765797
0.765836
0.765861
0.765585
0.765678
0.765766
0.765843
0.765428
0.765522
0.76563
0.765289
0.765295
0.765434
0.765432
0.765343
0.765303
0.765374
0.765296
0.765275
0.765385
0.7657
0.765748
0.765548
0.765405
0.765435
0.765588
0.766036
0.766151
0.765803
0.765868
0.766798
0.76671
0.766726
0.766287
0.766421
0.76699
0.76699
0.76699
0.76699
0.76699
0.76699
0.76699
0.76699
0.76699
0.76699
0.76699
0.76699
0.76699
0.76699
0.76699
0.76699
0.766988
0.766968
0.766896
0.766787
0.766693
0.766598
0.76648
0.76644
0.766498
0.766649
0.766838
0.766967
0.766987
0.766986
0.766988
0.766988
0.766988
0.766988
0.766983
0.766987
0.766924
0.76697
0.766527
0.766741
0.766137
0.766313
0.765784
0.76589
0.765648
0.765698
0.765607
0.765619
0.765672
0.765656
0.765716
0.765703
0.765837
0.765816
0.765771
0.765794
0.765871
0.765874
0.765868
0.765855
0.765908
0.765957
0.765987
0.766
0.765738
0.765841
0.765933
0.76601
0.765542
0.765662
0.765784
0.765278
0.765327
0.765549
0.765542
0.76542
0.765263
0.765295
0.765252
0.765261
0.765303
0.765634
0.765683
0.765473
0.765322
0.765354
0.765517
0.765944
0.76603
0.765737
0.765794
0.766471
0.766385
0.766222
0.766109
0.766145
0.76699
0.76699
0.76699
0.76699
0.76699
0.76699
0.766989
0.766989
0.766989
0.766989
0.766989
0.766989
0.76699
0.76699
0.76699
0.766988
0.766965
0.76688
0.766754
0.76665
0.766554
0.766449
0.766418
0.766477
0.766627
0.766818
0.766954
0.766989
0.766987
0.766989
0.766989
0.76699
0.76699
0.766989
0.766989
0.766982
0.766988
0.766892
0.766961
0.766476
0.766712
0.76604
0.76624
0.765774
0.765885
0.765764
0.765817
0.765696
0.765694
0.765735
0.765751
0.765732
0.765817
0.765803
0.765948
0.765925
0.765877
0.7659
0.766004
0.766001
0.765988
0.76597
0.766068
0.766105
0.76612
0.766126
0.765899
0.766004
0.766091
0.766158
0.765678
0.76581
0.765935
0.765306
0.765399
0.765677
0.765657
0.765522
0.765244
0.765244
0.765226
0.765279
0.765241
0.765566
0.765619
0.765394
0.765247
0.76527
0.765443
0.765855
0.765914
0.765672
0.765725
0.766105
0.766758
0.766114
0.765956
0.76595
0.76699
0.76699
0.76699
0.766989
0.766989
0.766987
0.766986
0.766985
0.766985
0.766986
0.766988
0.766989
0.766989
0.766989
0.766987
0.766964
0.766868
0.766725
0.766608
0.766509
0.766415
0.766394
0.766459
0.76661
0.766801
0.766945
0.766987
0.76699
0.76699
0.76699
0.76699
0.76699
0.76699
0.766989
0.76699
0.766981
0.766987
0.76688
0.766957
0.766483
0.766717
0.766041
0.766244
0.765896
0.766005
0.76595
0.76597
0.766075
0.765792
0.765783
0.765941
0.765938
0.765855
0.765834
0.765961
0.765949
0.766072
0.766051
0.766011
0.766031
0.766127
0.766121
0.766108
0.766091
0.766204
0.766226
0.766237
0.766241
0.76605
0.766148
0.766225
0.766278
0.765813
0.765944
0.766068
0.765368
0.765489
0.765794
0.765756
0.765622
0.76525
0.765212
0.765215
0.765326
0.7652
0.765497
0.765553
0.765312
0.765193
0.765198
0.765366
0.765777
0.765822
0.765609
0.765662
0.765913
0.766884
0.766148
0.765844
0.765829
0.76699
0.76699
0.766988
0.766986
0.766981
0.766975
0.766971
0.766971
0.766975
0.76698
0.766984
0.766987
0.766989
0.766987
0.766964
0.766862
0.766701
0.766568
0.766464
0.766381
0.76637
0.766441
0.766595
0.766786
0.766937
0.766984
0.76699
0.76699
0.76699
0.76699
0.76699
0.76699
0.76699
0.76699
0.766989
0.76699
0.766981
0.766987
0.766882
0.766957
0.766555
0.766761
0.766153
0.766341
0.766145
0.766237
0.766125
0.766125
0.766354
0.766364
0.765941
0.765938
0.766124
0.766126
0.765992
0.765975
0.766143
0.766136
0.766212
0.7662
0.766174
0.766187
0.766243
0.766241
0.766233
0.766223
0.766312
0.766331
0.766343
0.766352
0.766176
0.766265
0.766331
0.766377
0.765928
0.766055
0.766172
0.765441
0.76557
0.765885
0.765819
0.765697
0.765274
0.765188
0.765217
0.765376
0.765166
0.765425
0.765486
0.76523
0.765151
0.765142
0.765286
0.765712
0.765748
0.765548
0.765606
0.765844
0.76667
0.76605
0.765761
0.765753
0.766989
0.766986
0.766979
0.766965
0.766947
0.766934
0.766933
0.766942
0.766957
0.766972
0.766981
0.766986
0.766987
0.766965
0.76686
0.766684
0.766534
0.766421
0.766348
0.766346
0.766425
0.766581
0.766773
0.76693
0.766982
0.766989
0.76699
0.76699
0.76699
0.76699
0.76699
0.76699
0.76699
0.76699
0.766989
0.766989
0.766981
0.766987
0.7669
0.766961
0.766674
0.766827
0.766359
0.766508
0.76638
0.766409
0.766527
0.766338
0.766346
0.766496
0.766517
0.76613
0.766127
0.766333
0.76633
0.766163
0.766152
0.766331
0.766327
0.766357
0.766354
0.766345
0.766349
0.766357
0.76636
0.766361
0.766359
0.766406
0.766425
0.766439
0.766451
0.766273
0.766355
0.766417
0.766459
0.76601
0.766129
0.766237
0.765493
0.765603
0.765933
0.765812
0.765706
0.765294
0.765168
0.765212
0.76539
0.765134
0.765351
0.765421
0.765155
0.765109
0.765095
0.765207
0.765655
0.765687
0.765491
0.765554
0.765771
0.765958
0.765756
0.7657
0.765695
0.766982
0.76697
0.766943
0.766913
0.766892
0.766885
0.766895
0.766915
0.766939
0.766963
0.766979
0.766984
0.766967
0.766862
0.766674
0.766505
0.766381
0.766316
0.766322
0.766409
0.766567
0.766759
0.766923
0.76698
0.766989
0.76699
0.76699
0.76699
0.76699
0.76699
0.76699
0.76699
0.76699
0.76699
0.766989
0.766989
0.766982
0.766987
0.766925
0.766967
0.766803
0.766895
0.766608
0.766702
0.766535
0.766544
0.76671
0.766667
0.76645
0.766473
0.766519
0.766558
0.766326
0.766327
0.766429
0.766413
0.766339
0.766334
0.76641
0.766404
0.766467
0.766459
0.76644
0.766451
0.766461
0.766468
0.766471
0.76647
0.766487
0.766507
0.76652
0.766528
0.766331
0.766411
0.766473
0.766517
0.766042
0.76615
0.766253
0.765486
0.765582
0.765916
0.765776
0.765678
0.765289
0.765142
0.76519
0.765375
0.765097
0.765282
0.765362
0.765101
0.765069
0.765057
0.76514
0.765604
0.765638
0.765439
0.765507
0.76568
0.765867
0.765645
0.765653
0.765649
0.766956
0.766922
0.766879
0.766851
0.766841
0.76685
0.766872
0.766902
0.766933
0.766961
0.766978
0.766967
0.766868
0.76667
0.766483
0.766347
0.766286
0.766298
0.766393
0.766553
0.766743
0.766915
0.766978
0.766989
0.76699
0.76699
0.76699
0.76699
0.76699
0.76699
0.76699
0.76699
0.76699
0.76699
0.76699
0.766989
0.766989
0.766984
0.766987
0.766949
0.766974
0.766897
0.766943
0.766776
0.76684
0.766596
0.766632
0.766732
0.766683
0.76644
0.766478
0.76642
0.766495
0.766403
0.766405
0.766407
0.766383
0.76643
0.76642
0.766391
0.766378
0.766495
0.766479
0.766445
0.766463
0.766529
0.766526
0.766517
0.766506
0.766543
0.766554
0.766555
0.766551
0.766346
0.766426
0.766487
0.766528
0.76602
0.766122
0.766219
0.765459
0.765537
0.76587
0.765694
0.765617
0.765266
0.765112
0.765172
0.765335
0.765061
0.765216
0.765304
0.765062
0.765034
0.765025
0.76509
0.76556
0.765597
0.765388
0.765461
0.765622
0.766335
0.765644
0.765614
0.765609
0.766895
0.76685
0.766815
0.766802
0.766811
0.766835
0.766867
0.766903
0.766938
0.766965
0.766964
0.766871
0.76667
0.766466
0.766318
0.76626
0.766277
0.766378
0.766539
0.766727
0.766905
0.766976
0.766989
0.76699
0.76699
0.76699
0.76699
0.76699
0.76699
0.76699
0.76699
0.76699
0.76699
0.76699
0.76699
0.766989
0.766989
0.766985
0.766988
0.766969
0.76698
0.766921
0.766957
0.766757
0.766812
0.766863
0.766566
0.766629
0.766691
0.76661
0.766279
0.766346
0.766198
0.766304
0.766372
0.766372
0.766224
0.766188
0.766426
0.766408
0.766232
0.766204
0.766444
0.766411
0.766339
0.766375
0.766539
0.766522
0.7665
0.766475
0.766544
0.766544
0.766528
0.766501
0.766305
0.766376
0.766426
0.766453
0.765959
0.766041
0.766109
0.765408
0.765479
0.765768
0.765597
0.765543
0.765236
0.765095
0.765148
0.765308
0.76504
0.765152
0.765246
0.765032
0.765017
0.765004
0.765048
0.765519
0.765562
0.765333
0.765414
0.765578
0.766466
0.765678
0.765574
0.765572
0.766819
0.766785
0.766772
0.766779
0.766801
0.766834
0.766875
0.766915
0.766948
0.766956
0.76687
0.766672
0.766455
0.766298
0.766239
0.766258
0.766364
0.766526
0.766711
0.766893
0.766972
0.766988
0.76699
0.76699
0.76699
0.76699
0.76699
0.76699
0.76699
0.76699
0.76699
0.76699
0.76699
0.76699
0.76699
0.766989
0.76699
0.766987
0.766988
0.766977
0.766984
0.766892
0.766954
0.76667
0.76676
0.766834
0.766747
0.766412
0.766515
0.766564
0.766445
0.766014
0.766098
0.765952
0.76607
0.766187
0.766184
0.765949
0.765914
0.766301
0.766265
0.765961
0.765927
0.766266
0.766213
0.766104
0.766158
0.766464
0.766418
0.76637
0.76632
0.766452
0.766427
0.766383
0.766326
0.766161
0.766199
0.766218
0.766218
0.765836
0.765865
0.765867
0.765377
0.765429
0.765626
0.765454
0.765449
0.765212
0.765077
0.765129
0.765272
0.765028
0.765095
0.76517
0.765012
0.764995
0.764969
0.765023
0.765485
0.765519
0.765272
0.765373
0.765548
0.766211
0.765648
0.765538
0.765531
0.766761
0.76675
0.766754
0.766772
0.766801
0.766842
0.766886
0.766924
0.766939
0.766864
0.766671
0.766448
0.766284
0.766225
0.766244
0.766353
0.766514
0.766697
0.766879
0.766969
0.766988
0.76699
0.76699
0.76699
0.76699
0.76699
0.76699
0.76699
0.76699
0.76699
0.76699
0.76699
0.76699
0.76699
0.76699
0.76699
0.76699
0.76699
0.766988
0.766989
0.766977
0.766985
0.766754
0.766762
0.766859
0.766922
0.766523
0.766643
0.766637
0.766193
0.766319
0.766393
0.766262
0.765752
0.765841
0.765769
0.76589
0.765909
0.765906
0.765683
0.765638
0.766051
0.766003
0.765644
0.765617
0.765972
0.765905
0.765783
0.765843
0.766256
0.766186
0.766112
0.766042
0.766189
0.766141
0.766065
0.765985
0.765862
0.765856
0.765833
0.765803
0.765625
0.765604
0.765552
0.765303
0.765316
0.765442
0.765357
0.765334
0.765177
0.765061
0.765108
0.765203
0.764998
0.765038
0.765099
0.764974
0.764957
0.76493
0.764996
0.765427
0.765479
0.765208
0.765286
0.765528
0.766736
0.765745
0.765498
0.765491
0.766736
0.766737
0.766748
0.766769
0.766803
0.766846
0.766888
0.766906
0.766847
0.766664
0.766441
0.766278
0.766218
0.766237
0.766346
0.766504
0.766683
0.766865
0.766965
0.766987
0.76699
0.76699
0.76699
0.76699
0.76699
0.76699
0.76699
0.76699
0.76699
0.76699
0.76699
0.76699
0.76699
0.76699
0.76699
0.76699
0.76699
0.76699
0.766988
0.766989
0.766971
0.766985
0.766651
0.766696
0.766806
0.766873
0.766384
0.76651
0.766532
0.766011
0.766134
0.766269
0.766162
0.765551
0.765651
0.765668
0.765808
0.765609
0.765612
0.765462
0.765398
0.76573
0.765681
0.765329
0.76532
0.765594
0.76553
0.765428
0.765479
0.765905
0.765826
0.765739
0.765663
0.765742
0.765669
0.765577
0.765489
0.765547
0.765539
0.765506
0.765484
0.765442
0.765458
0.765136
0.765224
0.765264
0.765136
0.765136
0.765121
0.765119
0.765018
0.765041
0.765158
0.764958
0.765022
0.765051
0.764925
0.764923
0.764905
0.764955
0.765385
0.765432
0.765113
0.765241
0.765523
0.766944
0.766065
0.765457
0.76546
0.766729
0.766733
0.766744
0.766766
0.766797
0.766832
0.766849
0.766807
0.766647
0.76643
0.766277
0.766218
0.766237
0.766345
0.766499
0.766673
0.766853
0.76696
0.766987
0.76699
0.76699
0.76699
0.76699
0.76699
0.76699
0.76699
0.76699
0.76699
0.76699
0.76699
0.76699
0.76699
0.76699
0.76699
0.76699
0.76699
0.76699
0.76699
0.766988
0.766989
0.766958