/*--------------------------------*- C++ -*----------------------------------*\
  =========                 |
  \\      /  F ield         | OpenFOAM: The Open Source CFD Toolbox
   \\    /   O peration     | Website:  https://openfoam.org
    \\  /    A nd           | Version:  dev
     \\/     M anipulation  |
\*---------------------------------------------------------------------------*/
FoamFile
{
    version     2.0;
    format      ascii;
    class       volScalarField;
    location    "2500";
    object      nut;
}
// * * * * * * * * * * * * * * * * * * * * * * * * * * * * * * * * * * * * * //

dimensions      [0 2 -1 0 0 0 0];

internalField   nonuniform List<scalar> 
9841
(
0.000128187
0.000131556
0.00012514
0.000120468
0.000157401
0.000112084
0.000111614
0.000165876
0.000149197
0.00010623
0.000107467
0.000159971
0.000171237
0.000128862
0.000104643
0.000104584
0.000144155
0.000184064
0.000159094
0.000116942
0.000103529
0.000102976
0.00012919
0.000183347
0.000180702
0.000136066
0.000111916
0.000102685
0.000102407
0.000119621
0.000175029
0.000193628
0.000163181
0.000122371
0.000109035
0.000102105
0.000102188
0.000112791
0.000156207
0.00019997
0.000186044
0.000139733
0.000115885
0.000106956
0.000101679
0.00010204
0.00010887
0.000137171
0.000196399
0.000199704
0.00016321
0.000125538
0.000112135
0.000105439
0.000101343
0.000101881
0.000106552
0.000125912
0.000184132
0.000209451
0.000188101
0.000140663
0.000118247
0.000109489
0.000104291
0.000101071
0.00010152
0.000105218
0.000117715
0.000162254
0.000212134
0.000204863
0.000161046
0.000126875
0.000113866
0.00010749
0.00010343
0.00010086
0.000101078
0.000104611
0.000112815
0.000142152
0.000206896
0.000214272
0.00018553
0.000139807
0.000119317
0.000110801
0.000105957
0.000102754
0.000100689
0.000100691
0.000104119
0.00010983
0.000130539
0.000192089
0.000222682
0.000205604
0.000157867
0.000126976
0.000114658
0.000108658
0.000104791
0.000102201
0.000100561
0.000100484
0.000103665
0.000107973
0.000121709
0.000169087
0.000223391
0.00021963
0.000180354
0.00013788
0.000119551
0.000111472
0.000106942
0.000103847
0.000101741
0.000100414
0.000100368
0.000103058
0.000106787
0.000116239
0.000147171
0.000217646
0.000227816
0.000203539
0.00015403
0.000126215
0.000114862
0.000109177
0.000105574
0.000103079
0.000101409
0.000100315
0.000100362
0.000102507
0.000106142
0.000112703
0.000135695
0.000202324
0.000235337
0.000220461
0.000173344
0.000135959
0.000119327
0.000111707
0.000107367
0.000104471
0.000102449
0.000101051
0.000100226
0.000100472
0.000102024
0.000105607
0.000110466
0.000126569
0.000178411
0.000235781
0.000232925
0.000196127
0.000148834
0.000125282
0.000114724
0.00010933
0.000105937
0.000103585
0.000101933
0.000100782
0.000100153
0.000100555
0.000101452
0.000104951
0.000108868
0.000120343
0.000155335
0.000230159
0.000240227
0.000217826
0.000166624
0.000133101
0.00011864
0.000111611
0.00010753
0.000104772
0.000102854
0.00010148
0.000100555
0.00010009
0.000100587
0.000100943
0.000104243
0.000107582
0.000116152
0.00014278
0.000216793
0.00024723
0.000233211
0.00018595
0.000144192
0.000123688
0.000114223
0.000109227
0.000106042
0.000103834
0.000102252
0.000101104
0.00010036
0.000100039
0.000100568
0.000100557
0.000103594
0.000106703
0.00011314
0.000133914
0.000193884
0.000249089
0.000244524
0.000208441
0.000158344
0.000130176
0.000117604
0.000111209
0.000107363
0.000104791
0.000103036
0.000101744
0.000100782
0.000100193
9.99963e-05
0.000100532
0.000100349
0.000103004
0.000105993
0.000111003
0.000126989
0.000172133
0.000244639
0.000251496
0.000228125
0.000176281
0.000138998
0.000121848
0.000113553
0.000108882
0.000105859
0.000103831
0.000102394
0.000101309
0.000100506
0.000100055
9.99632e-05
0.000100489
0.000100171
0.000102314
0.000105321
0.000109455
0.000121979
0.000154527
0.000234192
0.000258171
0.000243803
0.000195278
0.00015075
0.000127207
0.000116445
0.000110627
0.000107056
0.000104597
0.000103034
0.000101855
0.000100942
0.000100276
9.99432e-05
9.99396e-05
0.000100437
0.000100004
0.000101702
0.000104673
0.000108252
0.000118432
0.000144901
0.000218509
0.00026178
0.000254133
0.000216154
0.00016559
0.000134119
0.000120011
0.000112725
0.000108382
0.000105625
0.000103667
0.000102381
0.000101407
0.000100634
0.000100085
9.98563e-05
9.99259e-05
0.000100381
9.98134e-05
0.000101215
0.000104084
0.000107312
0.000115891
0.000138671
0.000199731
0.000259921
0.000261926
0.000234535
0.000182287
0.000143514
0.000124249
0.00011514
0.000109956
0.00010667
0.000104378
0.000102899
0.000101856
0.000101037
0.000100375
9.99305e-05
9.97954e-05
9.99214e-05
0.000100314
9.96006e-05
0.000100857
0.000103602
0.000106565
0.000114141
0.000133676
0.000182267
0.00025557
0.000266641
0.000250776
0.000200382
0.000155197
0.000129677
0.000118079
0.000111766
0.000107856
0.000105302
0.000103463
0.000102285
0.000101426
0.00010073
0.000100168
9.98148e-05
9.97609e-05
9.99274e-05
0.000100217
9.94068e-05
0.00010064
0.000103233
0.000106008
0.000113026
0.000130051
0.000168479
0.000246501
0.000271808
0.000261048
0.000217429
0.000169159
0.000136783
0.000121518
0.000113905
0.000109261
0.000106277
0.000104136
0.000102741
0.000101793
0.000101074
0.000100485
0.00010001
9.97417e-05
9.97644e-05
9.99449e-05
0.000100075
9.92706e-05
0.000100593
0.00010296
0.000105628
0.000112445
0.00012778
0.000158665
0.000234943
0.000274583
0.000268818
0.000236181
0.000184074
0.000145904
0.000125752
0.00011631
0.000110898
0.000107353
0.000104998
0.000103287
0.000102173
0.000101392
0.000100804
0.000100295
9.99023e-05
9.9726e-05
9.98075e-05
9.99767e-05
9.98678e-05
9.92449e-05
0.000100744
0.000102804
0.000105444
0.000112313
0.000126867
0.000153344
0.000223572
0.000273886
0.000274889
0.00025115
0.000200255
0.0001567
0.000131194
0.000119142
0.000112695
0.000108655
0.000105898
0.000103927
0.000102627
0.000101721
0.000101095
0.000100598
0.000100157
9.98533e-05
9.978e-05
9.99021e-05
0.00010003
9.96202e-05
9.94517e-05
0.0001011
0.000102783
0.000105503
0.000112627
0.000127081
0.000151351
0.000213222
0.000271772
0.000278281
0.000263758
0.000215824
0.000169082
0.000137924
0.000122503
0.000114749
0.00011005
0.000106928
0.000104738
0.000103163
0.000102115
0.000101389
0.00010088
0.00010045
0.000100082
9.98855e-05
9.99151e-05
0.000100062
0.000100102
9.94843e-05
0.00010006
0.000101656
0.000102914
0.000105905
0.000113565
0.000129032
0.000151554
0.000205459
0.000267337
0.000281627
0.000272311
0.000230194
0.000182137
0.000146039
0.000126507
0.000117013
0.000111613
0.000108083
0.000105593
0.0001038
0.000102589
0.000101729
0.000101162
0.000100751
0.000100377
0.000100091
0.000100023
0.000100169
0.000100321
0.000100216
9.9464e-05
0.000100776
0.000102115
0.000103321
0.00010682
0.000115277
0.000133004
0.000153861
0.000199557
0.000262225
0.000284615
0.000277843
0.000244156
0.000195514
0.000155302
0.00013126
0.000119565
0.000113306
0.000109308
0.000106552
0.000104556
0.000103137
0.000102169
0.000101494
0.000101057
0.000100713
0.000100389
0.000100201
0.000100297
0.000100592
0.000100708
0.000100397
9.95961e-05
0.000100868
0.000102245
0.000104294
0.000108583
0.00011814
0.000137549
0.000157423
0.000195418
0.000256186
0.0002854
0.000282388
0.000256474
0.000208042
0.000165548
0.000136926
0.000122448
0.000115122
0.000110616
0.000107578
0.00010536
0.000103766
0.000102693
0.000101922
0.000101423
0.000101081
0.000100771
0.000100494
0.00010043
0.00010073
0.000101246
0.000101196
0.000100649
0.00010057
0.000101153
0.000102273
0.000106171
0.000111825
0.000123175
0.000143324
0.000162646
0.000193198
0.000249633
0.000285264
0.000285332
0.000266041
0.000220184
0.000175946
0.000143552
0.000125755
0.000117069
0.000112022
0.000108627
0.000106225
0.000104464
0.000103264
0.000102428
0.000101897
0.000101523
0.000101245
0.000100962
0.00010074
0.000100795
0.00010125
0.000101988
0.000101929
0.000100428
0.000101289
0.000101945
0.000103258
0.000102751
0.000107464
0.000118082
0.000131498
0.000149989
0.000168102
0.000192855
0.000243564
0.000284414
0.000287047
0.000273846
0.000230834
0.000186449
0.000150836
0.000129561
0.000119132
0.000113449
0.000109724
0.000107132
0.000105227
0.000103884
0.00010297
0.000102433
0.000102067
0.000101838
0.000101627
0.000101455
0.000101438
0.000101692
0.00010243
0.000103274
0.000102207
0.000103171
9.99387e-05
0.00010137
0.000103514
0.000116753
0.000106273
0.000109374
0.000126022
0.000143564
0.000157366
0.000173294
0.000193671
0.000238424
0.000281221
0.000287367
0.00027902
0.000240326
0.000196346
0.000158713
0.000133979
0.000121361
0.000114874
0.000110836
0.000108035
0.000106026
0.000104562
0.000103567
0.00010297
0.000102654
0.000102507
0.000102446
0.000102272
0.00010225
0.000102619
0.000103327
0.000103701
0.000103929
0.000103994
0.000104099
0.000104626
9.99965e-05
9.78537e-05
8.77622e-05
8.7632e-05
0.000102026
0.000136904
0.000123761
0.000114344
0.000130823
0.000155796
0.000165528
0.000177918
0.00019441
0.000233973
0.000277235
0.000287583
0.000282056
0.000248017
0.000205511
0.000166761
0.00013904
0.000123827
0.000116367
0.000111934
0.000108946
0.000106854
0.000105284
0.000104198
0.000103529
0.000103243
0.000103202
0.000103288
0.000103293
0.000103174
0.000103435
0.000104195
0.000104146
0.000104602
0.000104565
9.63886e-05
9.78704e-05
9.46544e-05
8.68096e-05
8.47669e-05
7.66833e-05
7.59486e-05
0.000101539
0.000125572
0.000159008
0.000129118
0.000136679
0.000160489
0.000172909
0.000181634
0.000195275
0.000229705
0.00027278
0.000286226
0.000283129
0.000254842
0.000213606
0.000174697
0.000144555
0.000126732
0.000117865
0.000113025
0.000109816
0.00010761
0.000106018
0.000104842
0.000104134
0.000103838
0.000103904
0.000104194
0.000104538
0.000104647
0.000104522
0.000104863
0.000104973
0.000105225
0.000104975
0.000105326
9.79103e-05
8.37941e-05
9.16865e-05
8.24223e-05
7.56505e-05
7.42813e-05
6.71238e-05
6.65147e-05
0.000101724
0.000115515
0.000177494
0.000157956
0.000141777
0.000160447
0.000174849
0.000183664
0.000195751
0.00022531
0.0002679
0.000284329
0.000283092
0.00026029
0.000220307
0.000182223
0.000150345
0.000130024
0.00011949
0.00011404
0.000110617
0.000108329
0.000106691
0.000105482
0.000104761
0.000104465
0.000104626
0.000105155
0.000105879
0.000106377
0.000106501
0.000106214
0.000105479
0.000105955
0.000105533
0.000105603
9.88699e-05
9.87667e-05
9.01028e-05
7.34384e-05
8.05613e-05
7.25276e-05
6.63688e-05
6.56677e-05
5.9217e-05
5.8774e-05
0.000101737
0.000111351
0.000168996
0.000189567
0.000152112
0.000156006
0.000172928
0.000183794
0.000195043
0.000221078
0.000262367
0.000282011
0.000282363
0.000264226
0.000226215
0.000188883
0.000156277
0.000133629
0.000121297
0.000115035
0.000111399
0.000108982
0.000107286
0.000106071
0.000105362
0.000105119
0.000105373
0.000106123
0.000107231
0.000108386
0.000109001
0.0001083
0.000106368
0.000107247
0.000105726
0.000105949
0.000100058
0.000101233
8.95372e-05
8.91366e-05
7.95597e-05
6.48934e-05
7.10504e-05
6.41391e-05
5.89036e-05
5.84127e-05
5.27466e-05
5.25874e-05
0.000101814
0.000109764
0.000158432
0.000203971
0.000176791
0.000151346
0.000164892
0.000181465
0.000193211
0.00021568
0.000256507
0.000279217
0.000280612
0.000266578
0.000231085
0.000194762
0.000162025
0.000137505
0.000123284
0.000116061
0.000112155
0.000109564
0.000107753
0.000106577
0.000105895
0.000105739
0.000106127
0.000107082
0.00010854
0.00011018
0.000110709
0.000110597
0.000107911
0.000109127
0.000106425
0.000107098
0.000103998
0.00010577
8.94006e-05
9.05564e-05
7.9236e-05
7.9051e-05
7.02304e-05
5.76805e-05
6.28281e-05
5.70223e-05
5.27273e-05
5.21489e-05
4.75954e-05
4.73592e-05
0.00010199
0.000110221
0.000149841
0.000204583
0.000198409
0.00015674
0.000155152
0.000173186
0.000189445
0.000209468
0.000249781
0.000275845
0.000278585
0.000267249
0.000234624
0.000199845
0.00016743
0.000141528
0.00012551
0.000117132
0.000112802
0.000110105
0.000108231
0.00010704
0.00010638
0.000106256
0.000106787
0.000108033
0.000109865
0.000111535
0.000112698
0.000111425
0.000109399
0.000109803
0.000107561
0.000107746
0.000105947
0.000105827
9.3012e-05
9.6703e-05
7.95627e-05
8.08302e-05
6.97337e-05
7.00318e-05
6.19942e-05
5.16854e-05
5.57519e-05
5.09706e-05
4.76422e-05
4.71324e-05
4.36005e-05
4.32818e-05
0.000102162
0.000112338
0.000148768
0.000201367
0.000205558
0.000169108
0.000152253
0.000161204
0.000181257
0.000202787
0.000241985
0.000271693
0.000276166
0.000267833
0.000237069
0.000204059
0.000172374
0.000145575
0.000127919
0.000118327
0.000113402
0.000110573
0.000108695
0.000107462
0.000106815
0.000106691
0.000107298
0.000108821
0.000106375
0.000103787
0.000106816
0.000112551
0.000108642
0.000106198
0.000106044
0.000103036
0.000104365
0.000100826
0.000103289
9.99289e-05
8.34912e-05
8.9958e-05
7.03779e-05
7.33423e-05
6.1526e-05
6.19884e-05
5.51698e-05
4.66251e-05
5.00902e-05
4.60074e-05
4.36491e-05
4.30392e-05
4.06924e-05
4.03078e-05
0.000102502
0.00011685
0.000152867
0.000194675
0.000205028
0.000183018
0.000154401
0.000154787
0.000171361
0.000195644
0.00023358
0.000266885
0.000273156
0.000267585
0.000238828
0.000207271
0.000176742
0.000149625
0.000130534
0.0001197
0.000113998
0.000110984
0.000109116
0.000107803
0.000107179
0.000107042
0.000107625
0.000109422
0.000100235
9.48666e-05
9.86231e-05
0.000107018
0.000103236
0.000100324
9.8734e-05
9.57034e-05
9.5209e-05
9.28732e-05
9.44281e-05
9.00629e-05
9.45053e-05
8.97459e-05
8.22177e-05
9.00253e-05
6.6422e-05
8.04489e-05
5.52114e-05
6.19115e-05
5.0683e-05
4.22423e-05
4.69065e-05
4.33006e-05
4.06727e-05
3.97182e-05
3.90444e-05
3.83947e-05
0.000103177
0.000123768
0.000160842
0.000189303
0.00020138
0.000189301
0.000158386
0.00015401
0.000163555
0.000188625
0.000226664
0.000261522
0.000269612
0.000266336
0.000240196
0.000209826
0.000180625
0.000153627
0.000133235
0.000121225
0.000114741
0.000111352
0.000109499
0.000108133
0.000107456
0.000107327
0.000107886
0.000109757
9.69216e-05
9.12462e-05
0.000108393
0.000110197
0.000106356
7.33328e-05
9.71994e-05
0.000106857
9.44302e-05
0.00010986
9.26918e-05
0.000109031
8.98093e-05
0.000105402
8.82842e-05
9.91027e-05
8.80356e-05
9.31325e-05
8.48676e-05
8.86615e-05
5.92989e-05
8.56893e-05
5.81422e-05
3.96424e-05
5.60772e-05
5.15264e-05
3.85298e-05
3.7626e-05
3.8845e-05
3.77896e-05
0.000104322
0.000132735
0.000169846
0.000185888
0.00019417
0.000189256
0.000164528
0.000155106
0.000160644
0.000182708
0.000221666
0.000256489
0.000266309
0.000264369
0.000241316
0.000211881
0.000183844
0.000157396
0.000136013
0.000122831
0.000115597
0.000111706
0.000109843
0.000108525
0.00010772
0.00010753
0.000108106
0.000109928
9.58977e-05
9.13196e-05
0.000116629
0.000130444
0.000159613
0.000124063
0.000158379
0.000128108
0.000159511
0.000134021
0.000168541
0.0001349
0.000175156
0.000129598
0.000174343
0.000118362
0.000165293
0.000102584
0.000147011
9.22758e-05
0.000117323
8.41787e-05
9.62579e-05
8.28244e-05
4.52236e-05
8.09132e-05
7.75373e-05
3.77974e-05
4.03136e-05
4.00524e-05
3.93012e-05
0.000105784
0.000142053
0.000177735
0.00018502
0.000188049
0.000187045
0.000167989
0.000156618
0.000160962
0.00017989
0.000218124
0.000252428
0.000263379
0.000262017
0.000242094
0.000213423
0.000186521
0.000160801
0.000138755
0.000124497
0.000116517
0.000112137
0.000110126
0.000108912
0.00010808
0.000107768
0.000108291
0.000110125
9.82784e-05
9.25519e-05
0.000116389
0.000149656
0.00022924
0.00029044
0.000346358
0.0001974
0.000245768
0.0002142
0.000267369
0.000225801
0.000280683
0.000230746
0.000288647
0.000226479
0.000288926
0.000212987
0.000280945
0.000185035
0.000261416
0.000139101
0.000224126
0.000100509
0.0001631
0.000102861
7.36548e-05
0.000101823
9.52085e-05
3.8984e-05
6.29991e-05
4.39782e-05
4.24282e-05
0.000107342
0.000150523
0.000185004
0.000185534
0.000184591
0.000181747
0.000168355
0.000160146
0.000161816
0.000180265
0.000216211
0.000249448
0.000260966
0.000259719
0.000242328
0.00021474
0.000188878
0.000163931
0.000141513
0.000126225
0.000117517
0.000112691
0.000110256
0.000109199
0.000108522
0.00010812
0.000108596
0.000110368
0.000104429
9.39487e-05
0.000115527
0.000163643
0.000286191
0.000387498
0.000436369
0.000418916
0.000459474
0.000322181
0.000372124
0.000333636
0.000382841
0.000341337
0.000387597
0.000344739
0.000391582
0.000341923
0.000393211
0.000330734
0.000389158
0.000305558
0.000375305
0.000259543
0.000345061
0.000181308
0.000286887
0.000189235
8.44158e-05
0.000184233
0.000163839
5.05735e-05
7.55416e-05
5.48772e-05
5.10524e-05
0.000109044
0.000157978
0.00019135
0.000188205
0.000182369
0.000175796
0.000167626
0.000162664
0.000164042
0.000181254
0.000215861
0.000247689
0.000259112
0.000257748
0.000242191
0.000215671
0.000190774
0.000166803
0.000144363
0.000127864
0.000118428
0.000113235
0.000110446
0.000109429
0.000108935
0.000108663
0.000109091
0.000110793
0.00011326
9.66258e-05
0.000111729
0.00017612
0.000342374
0.000473844
0.000497753
0.000496543
0.000531914
0.000503466
0.000539406
0.000426687
0.00046623
0.000428394
0.000467142
0.000431727
0.000467466
0.000435726
0.000471032
0.000436804
0.000474755
0.000431766
0.000475474
0.000414826
0.000468547
0.000377195
0.000447584
0.000305292
0.000400725
0.000312472
0.000131984
0.000306356
0.000281804
6.85343e-05
0.000102809
8.81562e-05
7.10218e-05
0.000113968
0.000163492
0.000197512
0.000192244
0.000180846
0.000170882
0.000165488
0.000163963
0.000167086
0.000182659
0.000216231
0.000246848
0.000257934
0.000256234
0.000241878
0.000216398
0.000192455
0.00016926
0.000147226
0.000129401
0.000119273
0.00011378
0.000110799
0.000109693
0.000109258
0.00010929
0.000109832
0.000111351
0.000113809
0.000107478
0.000106154
0.000188893
0.000390728
0.000598052
0.000558851
0.000601816
0.000573188
0.000604891
0.000572599
0.000605376
0.000504321
0.000539249
0.00050121
0.000534101
0.000501328
0.000528917
0.000504969
0.000528964
0.000508306
0.000531996
0.000507949
0.000535263
0.000498813
0.00053413
0.000472414
0.000522508
0.000415063
0.00048963
0.000419327
0.000236466
0.000411265
0.000387703
7.82031e-05
0.000169959
8.96603e-05
6.63122e-05
0.000177811
0.000199948
0.000196604
0.000180232
0.000167486
0.000163326
0.000163969
0.000169147
0.000185129
0.000217143
0.00024655
0.000257352
0.000255232
0.00024155
0.000217151
0.000193966
0.000171856
0.000149822
0.000131134
0.000120084
0.000114269
0.000111165
0.000110093
0.00010977
0.00010992
0.000110844
0.000112356
0.000114234
0.000109587
0.000104
0.000209238
0.000433524
0.000635969
0.000685398
0.000708621
0.000633852
0.000662079
0.000634976
0.000662821
0.000622543
0.000646141
0.000565093
0.000594178
0.000554236
0.000578834
0.000548764
0.000565679
0.000548983
0.000561045
0.0005527
0.000561993
0.000556371
0.00056798
0.000554749
0.000573009
0.000540205
0.000571256
0.000499803
0.000552629
0.000502306
0.000344375
0.000495141
0.000475056
0.000108516
0.000267622
4.97139e-05
6.95444e-05
0.000206419
0.00019778
0.000180338
0.000165615
0.000161083
0.000163789
0.000170294
0.00018771
0.000218153
0.000246825
0.000257231
0.000254716
0.000241317
0.000217959
0.000195658
0.000174097
0.000152581
0.000133062
0.000120939
0.00011454
0.000111492
0.000110578
0.000110381
0.000110888
0.000112624
0.000114498
0.000114801
0.000106218
0.000115284
0.000236877
0.000471822
0.000665631
0.000728492
0.000740969
0.000724431
0.000742845
0.000686779
0.000706563
0.000664569
0.000679637
0.000635351
0.000648891
0.00060092
0.000619401
0.000580917
0.00059432
0.000569966
0.000576612
0.000566559
0.00056758
0.000570676
0.000566492
0.000579498
0.000576462
0.000586733
0.000588935
0.000584443
0.000598065
0.000560659
0.000594189
0.000562781
0.000434686
0.000557921
0.000546481
0.000504231
0.000162093
0.000361954
2.33349e-05
8.29153e-05
0.000200867
0.000179987
0.000164295
0.000160052
0.000163102
0.00017141
0.000189737
0.000219391
0.000247426
0.000257549
0.000254552
0.000241252
0.000218891
0.000197423
0.000176851
0.000155301
0.000135497
0.000121818
0.000114782
0.000111751
0.000111227
0.000111159
0.000112372
0.000115031
0.000116739
0.000115346
0.000103678
0.00013379
0.000272739
0.000508242
0.000692235
0.00079484
0.000761524
0.000786002
0.000724703
0.00074204
0.000693516
0.00070875
0.000661834
0.00067221
0.000626041
0.000631026
0.000603988
0.00061491
0.000580869
0.000584166
0.000566517
0.000563868
0.000560836
0.000553935
0.000565229
0.000552326
0.000579849
0.00056237
0.00059624
0.000579984
0.000607048
0.000598984
0.000600835
0.000609394
0.00060807
0.00058527
0.000601457
0.000533407
0.000459929
0.000517252
0.000578361
0.00059936
0.000600503
0.000571045
0.000234616
0.00049265
0.000458801
0.000378469
1.6135e-05
8.92605e-05
0.000179972
0.000163562
0.000158575
0.00016261
0.000171786
0.000191963
0.000220535
0.000247984
0.000258234
0.000254727
0.000241273
0.000220014
0.000199492
0.000179444
0.000158897
0.000138315
0.000122793
0.000115234
0.000112061
0.000111821
0.000112486
0.000114297
0.000117124
0.00011922
0.000114624
0.000105672
0.00015881
0.000313264
0.000546636
0.000713819
0.000833627
0.000808039
0.000835869
0.000762281
0.000785918
0.000682115
0.00069045
0.000677416
0.00067891
0.000623926
0.00060985
0.0005823
0.00056514
0.000588148
0.000587655
0.000560328
0.000556046
0.000542868
0.000532709
0.000539105
0.000524305
0.000542605
0.000523712
0.000554448
0.000527203
0.000587189
0.000572092
0.000556929
0.000537694
0.000606406
0.00059536
0.000566304
0.000558299
0.000580895
0.000610867
0.000611496
0.000612382
0.000606708
0.000611974
0.000560522
0.000544975
0.000596501
0.000610774
0.000611975
0.000590435
0.000410606
0.00022981
0.000339588
0.000522379
0.000489173
1.03828e-05
0.000243408
0.000138241
6.71507e-05
0.000162779
0.000157988
0.00016149
0.000172659
0.000193165
0.000222715
0.000248935
0.000259174
0.000255218
0.000241464
0.000221289
0.000201838
0.000183226
0.000162576
0.000141655
0.000124349
0.000115809
0.000112469
0.000112483
0.00011374
0.000116113
0.000120036
0.000122104
0.000114499
0.000116856
0.000193416
0.000369289
0.000589385
0.00073466
0.000870961
0.000881305
0.000762621
0.000800386
0.000706434
0.000732053
0.000558694
0.000560103
0.000588459
0.000569151
0.000531494
0.000489771
0.000512145
0.000476656
0.000548662
0.000535358
0.000523372
0.000514576
0.00050903
0.0004958
0.000506945
0.00049296
0.000504364
0.000488198
0.00052197
0.000504699
0.000492782
0.000481446
0.000546901
0.000526459
0.00050678
0.000595015
0.000576151
0.000535775
0.000523737
0.000551438
0.000607056
0.000613828
0.00060724
0.000593395
0.00061432
0.000581037
0.000566919
0.000608076
0.000614156
0.000612718
0.000600685
0.000439918
0.000355034
0.00054297
0.000488743
6.91728e-05
2.10912e-06
1.16934e-05
0.00023081
0.000157245
0.000156736
0.000161044
0.00017289
0.000195189
0.00022401
0.000251617
0.000261011
0.000256216
0.000241942
0.000222719
0.000204157
0.000188023
0.000167918
0.000147215
0.000127722
0.000116367
0.00011286
0.000113035
0.000114843
0.000118975
0.000124478
0.000126736
0.00011752
0.000138563
0.000241757
0.000440229
0.000637402
0.000757161
0.0009086
0.000946869
0.000733434
0.000798867
0.000643733
0.000687211
0.000571985
0.00060245
0.000379992
0.000371
0.000445711
0.000406686
0.000431039
0.000382626
0.000461237
0.000425611
0.000504047
0.000487449
0.000483833
0.000472127
0.000479918
0.000469109
0.000479856
0.000474004
0.00047562
0.0004716
0.000471303
0.000473014
0.000489828
0.000476432
0.000467452
0.000463046
0.000512374
0.000490448
0.000472284
0.000571203
0.000542753
0.000496725
0.000481252
0.000511565
0.000591656
0.000607465
0.000590274
0.00056649
0.000607528
0.000570367
0.000537603
0.000579197
0.000587051
0.00055709
0.000550009
0.000415747
0.000326816
0.000497957
0.000448919
7.31392e-05
1.36504e-06
1.00047e-05
0.000239876
0.00016562
0.000160152
0.00017323
0.000196134
0.000226718
0.000253943
0.000265754
0.000257653
0.000242937
0.000224368
0.000208683
0.000193316
0.000176197
0.000152949
0.000132134
0.000117949
0.000113296
0.000113565
0.000116979
0.000123681
0.000131767
0.000133927
0.000125334
0.000167987
0.000303234
0.00052602
0.000690413
0.000782619
0.000945102
0.00101457
0.000819795
0.000569119
0.000618152
0.000462299
0.000514553
0.000380357
0.000413956
0.000257615
0.000233002
0.000336064
0.000293695
0.000384332
0.000340892
0.000417035
0.000385739
0.000458786
0.000441247
0.000458926
0.000448225
0.000471074
0.000467445
0.000476079
0.000480032
0.000483805
0.000488374
0.000462972
0.000466472
0.000472835
0.000480683
0.000459432
0.000452226
0.000450793
0.000454591
0.000472783
0.000453935
0.000441753
0.000534686
0.000500134
0.000455107
0.000438455
0.000466646
0.000562906
0.000589265
0.000560605
0.000528511
0.000564662
0.000522502
0.000493977
0.000531145
0.000535904
0.000512974
0.000508574
0.000387774
0.00031256
0.000461872
0.000421904
8.07166e-05
1.30846e-06
1.72763e-05
0.000241093
0.000148827
0.000173177
0.000197126
0.000228512
0.000258433
0.000269848
0.000261603
0.000244272
0.000227217
0.000213089
0.00020315
0.00018368
0.000159883
0.000138231
0.00012191
0.000114926
0.00011481
0.000119487
0.000128662
0.00013975
0.000141913
0.000139142
0.000207963
0.000385729
0.000621139
0.00074646
0.000811133
0.000980197
0.00108293
0.000936433
0.000460325
0.000537554
0.000349352
0.000403052
0.000248373
0.000294512
0.000221477
0.000225413
0.000218086
0.000180891
0.000298732
0.000257945
0.000350379
0.000315312
0.000401416
0.000379216
0.00043586
0.000420588
0.000461685
0.000453749
0.000501349
0.000503655
0.000489302
0.000497716
0.000505107
0.000511379
0.000462496
0.000473379
0.000486103
0.00049906
0.000436767
0.000438391
0.000445604
0.00045764
0.0004356
0.00042417
0.000421084
0.000490714
0.000453797
0.00041788
0.000401005
0.000422992
0.000524231
0.000548574
0.000521594
0.000482992
0.000519188
0.000488676
0.00046746
0.000494586
0.00049784
0.000481284
0.000479659
0.000369211
0.000306915
0.000441294
0.000405927
9.20425e-05
1.00952e-05
6.08699e-05
0.000228936
0.000148468
0.000197731
0.000230664
0.000262265
0.000276228
0.00026706
0.000248063
0.000230999
0.000222351
0.000212013
0.000199428
0.000175778
0.000151202
0.000130285
0.000119148
0.000117153
0.00012149
0.000131945
0.000145238
0.000148945
0.00015862
0.00026494
0.000483499
0.000716111
0.000801966
0.000841277
0.0010155
0.00114748
0.00103785
0.0005198
0.000233582
0.000262221
0.000184732
0.000206337
0.000157628
0.000167932
0.000157077
0.000151843
0.000203072
0.000167171
0.000280406
0.00024273
0.000356106
0.000332817
0.000415161
0.000399713
0.000443276
0.000430408
0.000502181
0.000496719
0.000543063
0.000547875
0.000551746
0.000550276
0.000511143
0.000521945
0.000531163
0.000538195
0.000472758
0.000488547
0.000477476
0.000467449
0.000425526
0.000435548
0.000450012
0.000446574
0.000406829
0.000405032
0.000411373
0.000442521
0.000409237
0.000389688
0.000372956
0.000385181
0.000477454
0.000502418
0.000474293
0.00043355
0.000480487
0.000466307
0.00045094
0.0004683
0.000465222
0.000454703
0.000456687
0.000358937
0.000301336
0.000428812
0.000397275
0.000132404
6.83679e-05
0.000136639
0.000225337
0.0001713
0.000232995
0.000266934
0.000283673
0.000274207
0.000254416
0.000238226
0.000230053
0.000229283
0.000219974
0.000200225
0.000171768
0.000147187
0.000128332
0.000121585
0.000124018
0.000133932
0.000148462
0.000154783
0.000181748
0.000330318
0.000587015
0.000804707
0.00085433
0.000873451
0.00104876
0.00120801
0.0011239
0.00061792
0.000174817
0.000211318
0.000152395
0.000163703
0.00012895
0.000139915
0.000117726
0.00012123
0.000139653
0.000121817
0.000218567
0.000168532
0.000305498
0.000267475
0.000384543
0.000367825
0.000460578
0.000444825
0.000487695
0.000475769
0.000551591
0.000551046
0.000526632
0.000471434
0.00047302
0.000480952
0.000476699
0.000460127
0.000457369
0.000457065
0.000464655
0.000423605
0.000405615
0.000394548
0.000389961
0.000421834
0.000425977
0.000396976
0.000372834
0.000388797
0.000394842
0.000404753
0.000397272
0.000370964
0.00037197
0.000354765
0.000356834
0.000427247
0.000455863
0.000423737
0.000387739
0.000439615
0.000446339
0.000434541
0.000445453
0.000430602
0.00042492
0.000437487
0.000354375
0.000302115
0.000418206
0.000393228
0.000187838
0.000245352
0.000253286
0.000253021
0.000229057
0.000274286
0.00029079
0.000285212
0.000261211
0.000245987
0.000244223
0.000241813
0.000241015
0.000218773
0.000192069
0.000164784
0.00014327
0.00012988
0.000128588
0.000136948
0.000151589
0.000161533
0.000204947
0.000393226
0.000684858
0.000882709
0.000901074
0.000906049
0.00108469
0.0012647
0.00119895
0.000710212
0.000220629
0.000129066
0.00013578
0.000116193
0.000122314
0.000106381
0.000110515
0.000106147
0.000104243
0.00013264
0.000114803
0.000257912
0.000192561
0.000345065
0.000309949
0.000427993
0.00040869
0.000524774
0.000503612
0.000538922
0.000541828
0.000487607
0.000464036
0.000428774
0.000452378
0.000405208
0.000409887
0.000413929
0.000412017
0.000388401
0.000390574
0.00039427
0.000399663
0.000355577
0.000345288
0.00034122
0.0003421
0.000392157
0.000363489
0.000338613
0.000320851
0.000377049
0.000386107
0.000368026
0.000358687
0.000341841
0.000358479
0.000339534
0.000337322
0.000380886
0.000404887
0.000372387
0.000348637
0.000393634
0.000429284
0.000420885
0.000420447
0.000387654
0.000385972
0.000417603
0.000357359
0.000324918
0.00040996
0.000394017
0.000264019
0.000366251
0.00027491
0.000326477
0.0003564
0.000307229
0.000295136
0.00027419
0.000256571
0.000253241
0.000258412
0.000249007
0.000229509
0.000204841
0.000178381
0.000156835
0.000140905
0.000135557
0.000141856
0.00015668
0.00017021
0.000229359
0.000446071
0.000768624
0.000945904
0.000942718
0.000937041
0.00111987
0.00131585
0.00126385
0.000793679
0.000293087
0.000125783
0.000142387
0.000113841
0.000119115
0.000104987
0.000109093
9.98641e-05
0.000101776
0.000102303
0.000100046
0.000137716
0.000110088
0.000281138
0.000205683
0.000382661
0.000342557
0.000478425
0.000447492
0.000475692
0.000516187
0.000448911
0.000494433
0.000447039
0.000414865
0.000423014
0.000386289
0.000387513
0.000367295
0.000371784
0.00037622
0.00037401
0.000344633
0.000350167
0.000355694
0.000362346
0.000310521
0.000306991
0.000308562
0.000312226
0.000340914
0.000316851
0.000299076
0.000288878
0.000365473
0.000349647
0.000326255
0.000328473
0.000320032
0.000344456
0.000322834
0.000320907
0.000340835
0.000354543
0.000324326
0.000316822
0.000343488
0.00041654
0.000413533
0.00038978
0.000339498
0.000345282
0.000399236
0.000376581
0.000386178
0.000409807
0.000408152
0.000250367