/*--------------------------------*- C++ -*----------------------------------*\
  =========                 |
  \\      /  F ield         | OpenFOAM: The Open Source CFD Toolbox
   \\    /   O peration     | Website:  https://openfoam.org
    \\  /    A nd           | Version:  dev
     \\/     M anipulation  |
\*---------------------------------------------------------------------------*/
FoamFile
{
    version     2.0;
    format      ascii;
    class       volScalarField;
    location    "2500";
    object      O2;
}
// * * * * * * * * * * * * * * * * * * * * * * * * * * * * * * * * * * * * * //

dimensions      [0 0 0 0 0 0 0];

internalField   nonuniform List<scalar> 
9841
(
0.23301
0.23301
0.23301
0.23301
0.23301
0.23301
0.23301
0.23301
0.23301
0.23301
0.23301
0.23301
0.23301
0.23301
0.23301
0.23301
0.23301
0.23301
0.23301
0.23301
0.23301
0.23301
0.23301
0.23301
0.23301
0.23301
0.23301
0.23301
0.23301
0.23301
0.23301
0.23301
0.23301
0.23301
0.23301
0.23301
0.23301
0.23301
0.23301
0.23301
0.23301
0.23301
0.23301
0.23301
0.23301
0.23301
0.23301
0.23301
0.23301
0.23301
0.23301
0.23301
0.23301
0.23301
0.23301
0.23301
0.23301
0.23301
0.23301
0.23301
0.23301
0.23301
0.23301
0.23301
0.23301
0.23301
0.23301
0.23301
0.23301
0.23301
0.23301
0.23301
0.23301
0.23301
0.23301
0.23301
0.23301
0.23301
0.23301
0.23301
0.23301
0.23301
0.23301
0.23301
0.23301
0.23301
0.23301
0.23301
0.23301
0.23301
0.23301
0.23301
0.23301
0.23301
0.23301
0.23301
0.23301
0.23301
0.23301
0.23301
0.23301
0.23301
0.23301
0.23301
0.23301
0.23301
0.23301
0.23301
0.23301
0.23301
0.23301
0.23301
0.23301
0.23301
0.23301
0.23301
0.23301
0.23301
0.23301
0.23301
0.23301
0.23301
0.23301
0.23301
0.23301
0.23301
0.23301
0.23301
0.23301
0.23301
0.23301
0.23301
0.23301
0.23301
0.23301
0.23301
0.23301
0.23301
0.23301
0.23301
0.23301
0.23301
0.23301
0.23301
0.23301
0.23301
0.23301
0.23301
0.23301
0.23301
0.23301
0.23301
0.23301
0.23301
0.23301
0.23301
0.23301
0.23301
0.23301
0.23301
0.23301
0.23301
0.23301
0.23301
0.23301
0.23301
0.23301
0.23301
0.23301
0.23301
0.23301
0.23301
0.23301
0.23301
0.23301
0.23301
0.23301
0.23301
0.23301
0.23301
0.23301
0.23301
0.23301
0.23301
0.23301
0.23301
0.23301
0.23301
0.23301
0.23301
0.23301
0.23301
0.23301
0.23301
0.23301
0.23301
0.23301
0.23301
0.23301
0.23301
0.23301
0.23301
0.23301
0.23301
0.23301
0.23301
0.23301
0.23301
0.23301
0.23301
0.23301
0.23301
0.23301
0.23301
0.23301
0.23301
0.23301
0.23301
0.23301
0.23301
0.23301
0.23301
0.23301
0.23301
0.23301
0.23301
0.23301
0.23301
0.23301
0.23301
0.23301
0.23301
0.23301
0.23301
0.23301
0.23301
0.23301
0.23301
0.23301
0.23301
0.23301
0.23301
0.23301
0.23301
0.23301
0.23301
0.23301
0.23301
0.23301
0.23301
0.23301
0.23301
0.23301
0.23301
0.23301
0.23301
0.23301
0.23301
0.23301
0.23301
0.23301
0.23301
0.23301
0.23301
0.23301
0.23301
0.23301
0.23301
0.23301
0.23301
0.23301
0.23301
0.23301
0.23301
0.23301
0.23301
0.23301
0.23301
0.23301
0.23301
0.23301
0.23301
0.23301
0.23301
0.23301
0.23301
0.23301
0.23301
0.23301
0.23301
0.23301
0.23301
0.23301
0.23301
0.23301
0.23301
0.23301
0.23301
0.23301
0.23301
0.23301
0.23301
0.23301
0.23301
0.23301
0.23301
0.23301
0.23301
0.23301
0.23301
0.23301
0.23301
0.23301
0.23301
0.23301
0.23301
0.23301
0.23301
0.23301
0.23301
0.23301
0.23301
0.23301
0.23301
0.23301
0.23301
0.23301
0.23301
0.23301
0.23301
0.23301
0.23301
0.23301
0.23301
0.23301
0.23301
0.23301
0.23301
0.23301
0.23301
0.23301
0.23301
0.23301
0.23301
0.23301
0.23301
0.23301
0.23301
0.23301
0.23301
0.23301
0.23301
0.23301
0.23301
0.23301
0.23301
0.23301
0.23301
0.23301
0.23301
0.23301
0.23301
0.23301
0.23301
0.23301
0.23301
0.23301
0.23301
0.23301
0.23301
0.23301
0.23301
0.23301
0.23301
0.23301
0.23301
0.23301
0.23301
0.23301
0.23301
0.23301
0.23301
0.23301
0.23301
0.23301
0.23301
0.23301
0.23301
0.23301
0.23301
0.23301
0.23301
0.23301
0.23301
0.23301
0.23301
0.23301
0.23301
0.23301
0.23301
0.23301
0.23301
0.23301
0.23301
0.23301
0.23301
0.23301
0.23301
0.23301
0.23301
0.23301
0.23301
0.23301
0.23301
0.23301
0.23301
0.23301
0.23301
0.23301
0.23301
0.23301
0.23301
0.23301
0.23301
0.23301
0.23301
0.23301
0.23301
0.23301
0.23301
0.23301
0.23301
0.23301
0.23301
0.23301
0.23301
0.23301
0.23301
0.23301
0.23301
0.23301
0.23301
0.23301
0.23301
0.23301
0.23301
0.23301
0.23301
0.23301
0.23301
0.23301
0.23301
0.23301
0.23301
0.23301
0.23301
0.23301
0.23301
0.23301
0.23301
0.23301
0.23301
0.23301
0.23301
0.23301
0.23301
0.23301
0.23301
0.23301
0.23301
0.23301
0.23301
0.23301
0.23301
0.23301
0.23301
0.23301
0.23301
0.23301
0.23301
0.23301
0.23301
0.23301
0.23301
0.23301
0.23301
0.23301
0.23301
0.23301
0.23301
0.23301
0.23301
0.23301
0.23301
0.23301
0.23301
0.23301
0.23301
0.23301
0.23301
0.23301
0.23301
0.23301
0.23301
0.23301
0.23301
0.23301
0.23301
0.23301
0.23301
0.23301
0.23301
0.23301
0.23301
0.23301
0.23301
0.23301
0.23301
0.23301
0.23301
0.23301
0.23301
0.23301
0.23301
0.23301
0.23301
0.23301
0.23301
0.23301
0.23301
0.23301
0.23301
0.23301
0.23301
0.23301
0.23301
0.23301
0.23301
0.23301
0.23301
0.23301
0.23301
0.23301
0.23301
0.23301
0.23301
0.23301
0.23301
0.23301
0.23301
0.23301
0.23301
0.23301
0.23301
0.23301
0.23301
0.23301
0.23301
0.23301
0.23301
0.23301
0.23301
0.23301
0.23301
0.23301
0.23301
0.23301
0.23301
0.23301
0.23301
0.23301
0.23301
0.23301
0.23301
0.23301
0.23301
0.23301
0.23301
0.23301
0.23301
0.23301
0.23301
0.23301
0.23301
0.23301
0.23301
0.23301
0.23301
0.23301
0.23301
0.23301
0.23301
0.23301
0.23301
0.23301
0.23301
0.23301
0.23301
0.23301
0.23301
0.23301
0.23301
0.23301
0.23301
0.23301
0.23301
0.23301
0.23301
0.23301
0.23301
0.23301
0.23301
0.23301
0.23301
0.23301
0.23301
0.23301
0.23301
0.23301
0.23301
0.23301
0.23301
0.23301
0.23301
0.23301
0.23301
0.23301
0.23301
0.23301
0.23301
0.23301
0.23301
0.23301
0.23301
0.23301
0.23301
0.23301
0.23301
0.23301
0.23301
0.23301
0.23301
0.23301
0.23301
0.23301
0.23301
0.23301
0.23301
0.23301
0.23301
0.23301
0.23301
0.23301
0.23301
0.23301
0.23301
0.23301
0.23301
0.23301
0.23301
0.23301
0.23301
0.23301
0.23301
0.23301
0.23301
0.23301
0.23301
0.23301
0.23301
0.23301
0.23301
0.23301
0.23301
0.23301
0.23301
0.23301
0.23301
0.23301
0.23301
0.23301
0.23301
0.23301
0.23301
0.23301
0.23301
0.23301
0.23301
0.23301
0.23301
0.23301
0.23301
0.23301
0.23301
0.23301
0.23301
0.23301
0.23301
0.23301
0.23301
0.23301
0.23301
0.23301
0.23301
0.23301
0.23301
0.23301
0.23301
0.23301
0.23301
0.23301
0.23301
0.23301
0.23301
0.23301
0.23301
0.23301
0.23301
0.23301
0.23301
0.23301
0.23301
0.23301
0.23301
0.23301
0.23301
0.23301
0.23301
0.23301
0.23301
0.23301
0.23301
0.23301
0.23301
0.23301
0.23301
0.23301
0.23301
0.23301
0.23301
0.23301
0.23301
0.23301
0.23301
0.23301
0.23301
0.23301
0.23301
0.23301
0.23301
0.23301
0.23301
0.23301
0.23301
0.23301
0.23301
0.23301
0.23301
0.23301
0.23301
0.23301
0.23301
0.23301
0.23301
0.23301
0.23301
0.23301
0.23301
0.23301
0.23301
0.23301
0.23301
0.23301
0.23301
0.23301
0.23301
0.23301
0.23301
0.23301
0.23301
0.23301
0.23301
0.23301
0.23301
0.23301
0.23301
0.23301
0.23301
0.23301
0.23301
0.23301
0.23301
0.23301
0.23301
0.23301
0.23301
0.23301
0.23301
0.23301
0.23301
0.23301
0.23301
0.23301
0.23301
0.23301
0.23301
0.23301
0.23301
0.23301
0.23301
0.23301
0.23301
0.23301
0.23301
0.23301
0.23301
0.23301
0.23301
0.23301
0.23301
0.23301
0.23301
0.23301
0.23301
0.23301
0.23301
0.23301
0.23301
0.23301
0.23301
0.23301
0.23301
0.23301
0.23301
0.23301
0.23301
0.23301
0.23301
0.23301
0.23301
0.23301
0.23301
0.23301
0.23301
0.23301
0.23301
0.23301
0.23301
0.23301
0.23301
0.23301
0.23301
0.23301
0.23301
0.23301
0.23301
0.23301
0.23301
0.23301
0.23301
0.23301
0.23301
0.23301
0.23301
0.23301
0.23301
0.23301
0.23301
0.23301
0.23301
0.23301
0.23301
0.23301
0.23301
0.23301
0.23301
0.23301
0.23301
0.23301
0.23301
0.23301
0.23301
0.23301
0.23301
0.23301
0.23301
0.23301
0.23301
0.23301
0.23301
0.23301
0.23301
0.23301
0.23301
0.23301
0.23301
0.23301
0.23301
0.23301
0.23301
0.23301
0.23301
0.23301
0.23301
0.23301
0.23301
0.23301
0.23301
0.23301
0.23301
0.23301
0.23301
0.23301
0.23301
0.23301
0.23301
0.23301
0.23301
0.23301
0.23301
0.23301
0.23301
0.23301
0.23301
0.23301
0.23301
0.23301
0.23301
0.23301
0.23301
0.23301
0.23301
0.23301
0.23301
0.23301
0.23301
0.23301
0.233009
0.23301
0.233009
0.23301
0.233009
0.23301
0.233009
0.23301
0.23301
0.23301
0.23301
0.23301
0.23301
0.23301
0.23301
0.23301
0.23301
0.23301
0.23301
0.23301
0.23301
0.23301
0.23301
0.23301
0.23301
0.23301
0.23301
0.23301
0.23301
0.23301
0.23301
0.23301
0.23301
0.23301
0.23301
0.23301
0.23301
0.23301
0.23301
0.23301
0.23301
0.23301
0.23301
0.23301
0.23301
0.23301
0.23301
0.23301
0.23301
0.23301
0.233009
0.233008
0.233006
0.233008
0.233005
0.233008
0.233005
0.233008
0.233005
0.233009
0.233007
0.233009
0.233008
0.23301
0.233009
0.23301
0.23301
0.23301
0.23301
0.23301
0.23301
0.23301
0.23301
0.23301
0.23301
0.23301
0.23301
0.23301
0.23301
0.23301
0.23301
0.23301
0.23301
0.23301
0.23301
0.23301
0.23301
0.23301
0.23301
0.23301
0.23301
0.23301
0.23301
0.23301
0.23301
0.23301
0.23301
0.23301
0.23301
0.23301
0.23301
0.23301
0.23301
0.233009
0.233007
0.233003
0.232995
0.233
0.232988
0.232998
0.232984
0.232999
0.232983
0.233
0.232986
0.233003
0.232991
0.233006
0.232998
0.233009
0.233004
0.233008
0.23301
0.233008
0.233008
0.23301
0.23301
0.23301
0.23301
0.23301
0.23301
0.23301
0.23301
0.23301
0.23301
0.23301
0.23301
0.23301
0.23301
0.23301
0.23301
0.23301
0.23301
0.23301
0.23301
0.23301
0.23301
0.23301
0.23301
0.23301
0.23301
0.23301
0.23301
0.23301
0.23301
0.23301
0.23301
0.23301
0.23301
0.233007
0.232994
0.232979
0.232989
0.232971
0.232935
0.232959
0.232911
0.232951
0.232891
0.232953
0.232885
0.23296
0.232895
0.232974
0.232916
0.232989
0.232948
0.233002
0.232978
0.232999
0.233008
0.232998
0.232999
0.23301
0.233009
0.23301
0.23301
0.23301
0.23301
0.23301
0.23301
0.23301
0.23301
0.23301
0.23301
0.23301
0.23301
0.23301
0.23301
0.23301
0.23301
0.23301
0.23301
0.23301
0.23301
0.23301
0.23301
0.23301
0.23301
0.23301
0.23301
0.23301
0.23301
0.23301
0.23301
0.23301
0.23301
0.233004
0.232962
0.23281
0.232891
0.232781
0.232842
0.232738
0.232797
0.232666
0.232768
0.232608
0.232767
0.232578
0.232794
0.232586
0.232848
0.232641
0.232911
0.232752
0.232965
0.232865
0.232955
0.233001
0.232951
0.232956
0.233009
0.233004
0.23301
0.23301
0.23301
0.23301
0.23301
0.23301
0.23301
0.23301
0.23301
0.23301
0.23301
0.23301
0.23301
0.23301
0.23301
0.23301
0.23301
0.23301
0.23301
0.23301
0.23301
0.23301
0.23301
0.23301
0.23301
0.23301
0.23301
0.23301
0.23301
0.23301
0.23301
0.233009
0.233001
0.232938
0.232651
0.232332
0.232172
0.232612
0.232466
0.232507
0.232322
0.232414
0.232201
0.232347
0.2321
0.232323
0.232035
0.232347
0.232019
0.232444
0.232071
0.232628
0.232222
0.232818
0.232496
0.232785
0.232968
0.232776
0.2328
0.233007
0.232984
0.23301
0.233008
0.23301
0.23301
0.23301
0.23301
0.23301
0.23301
0.23301
0.23301
0.23301
0.23301
0.23301
0.23301
0.23301
0.23301
0.23301
0.23301
0.23301
0.23301
0.23301
0.23301
0.23301
0.23301
0.23301
0.23301
0.23301
0.23301
0.23301
0.23301
0.23301
0.233009
0.232999
0.232906
0.232537
0.232047
0.231917
0.231781
0.231627
0.232132
0.23195
0.231984
0.231769
0.231853
0.231617
0.23175
0.231482
0.23169
0.23138
0.231688
0.231329
0.23178
0.231354
0.232
0.231498
0.232385
0.231809
0.23232
0.232853
0.232319
0.232402
0.232997
0.232915
0.23301
0.233005
0.23301
0.23301
0.23301
0.23301
0.23301
0.23301
0.23301
0.23301
0.23301
0.23301
0.23301
0.23301
0.23301
0.23301
0.23301
0.23301
0.23301
0.23301
0.23301
0.23301
0.23301
0.23301
0.23301
0.23301
0.23301
0.23301
0.23301
0.23301
0.23301
0.233009
0.232997
0.232881
0.2324
0.231808
0.231765
0.2315
0.231386
0.231244
0.231121
0.23157
0.231395
0.231398
0.231199
0.23124
0.231026
0.231101
0.23086
0.231003
0.23072
0.230966
0.230629
0.231032
0.23062
0.231248
0.230742
0.23167
0.231052
0.231599
0.232555
0.231613
0.231743
0.232965
0.232727
0.233009
0.232995
0.23301
0.23301
0.23301
0.23301
0.23301
0.23301
0.23301
0.23301
0.23301
0.23301
0.23301
0.23301
0.23301
0.23301
0.23301
0.23301
0.23301
0.23301
0.23301
0.23301
0.23301
0.23301
0.23301
0.23301
0.23301
0.23301
0.23301
0.23301
0.23301
0.233008
0.232995
0.232863
0.23231
0.231423
0.231323
0.231235
0.231033
0.231009
0.230803
0.230769
0.231031
0.230902
0.230843
0.230695
0.230659
0.230497
0.230483
0.230295
0.230343
0.23011
0.230267
0.229973
0.230301
0.229927
0.230499
0.230021
0.230919
0.230313
0.230864
0.232003
0.230906
0.231071
0.232881
0.232369
0.233008
0.232974
0.23301
0.23301
0.23301
0.23301
0.23301
0.23301
0.23301
0.23301
0.23301
0.23301
0.23301
0.23301
0.23301
0.23301
0.23301
0.23301
0.23301
0.23301
0.23301
0.23301
0.23301
0.23301
0.23301
0.23301
0.23301
0.23301
0.23301
0.233009
0.233007
0.23299
0.232842
0.232252
0.231421
0.231117
0.231177
0.231026
0.231062
0.230795
0.230864
0.230544
0.230609
0.230595
0.230538
0.230377
0.230301
0.230154
0.230058
0.229928
0.229798
0.229736
0.229553
0.229616
0.229365
0.229617
0.229281
0.22979
0.229348
0.230194
0.229619
0.230158
0.231373
0.230225
0.230416
0.232715
0.231864
0.233007
0.232933
0.23301
0.23301
0.23301
0.23301
0.23301
0.23301
0.23301
0.23301
0.23301
0.23301
0.23301
0.23301
0.23301
0.23301
0.23301
0.23301
0.23301
0.23301
0.23301
0.23301
0.23301
0.23301
0.23301
0.23301
0.23301
0.23301
0.233009
0.233004
0.232978
0.232817
0.232228
0.231446
0.231219
0.231263
0.231143
0.23123
0.230954
0.231048
0.230731
0.230875
0.230421
0.230588
0.230288
0.230317
0.230009
0.230013
0.229719
0.22969
0.229421
0.229345
0.229169
0.229025
0.229005
0.228785
0.228979
0.228671
0.229134
0.228724
0.229517
0.228983
0.229503
0.230773
0.229589
0.22975
0.230203
0.232467
0.231334
0.233005
0.232871
0.23301
0.23301
0.23301
0.23301
0.23301
0.23301
0.23301
0.23301
0.23301
0.23301
0.23301
0.23301
0.23301
0.23301
0.23301
0.23301
0.23301
0.23301
0.23301
0.23301
0.23301
0.23301
0.23301
0.23301
0.23301
0.233008
0.233
0.23296
0.232782
0.232216
0.231463
0.231324
0.231298
0.231365
0.231369
0.231491
0.231044
0.231215
0.230803
0.23105
0.230401
0.230671
0.230061
0.23019
0.229702
0.22976
0.229325
0.22934
0.228932
0.228901
0.228614
0.22849
0.228413
0.228199
0.228375
0.228068
0.228532
0.228128
0.228903
0.228425
0.228666
0.229225
0.228907
0.229909
0.230618
0.230094
0.22937
0.228999
0.228949
0.229475
0.232158
0.23035
0.230661
0.23127
0.233005
0.232852
0.23301
0.23301
0.23301
0.23301
0.23301
0.23301
0.23301
0.23301
0.23301
0.23301
0.23301
0.23301
0.23301
0.23301
0.23301
0.23301
0.23301
0.23301
0.23301
0.23301
0.23301
0.23301
0.23301
0.233009
0.233006
0.232993
0.232933
0.232736
0.232199
0.231467
0.231324
0.231651
0.23164
0.231576
0.231628
0.231725
0.231861
0.231303
0.231535
0.230985
0.231315
0.230415
0.230762
0.2299
0.230125
0.229397
0.229532
0.228911
0.228955
0.228414
0.228404
0.228032
0.227903
0.227798
0.227575
0.227998
0.227821
0.227668
0.227505
0.228212
0.227981
0.227692
0.227551
0.227776
0.22839
0.228637
0.228357
0.228147
0.228644
0.229632
0.229834
0.229093
0.228747
0.228682
0.229214
0.231058
0.232234
0.231571
0.230095
0.230426
0.233007
0.232165
0.232685
0.232932
0.23301
0.23301
0.23301
0.23301
0.23301
0.23301
0.23301
0.23301
0.23301
0.23301
0.23301
0.23301
0.23301
0.23301
0.23301
0.23301
0.23301
0.23301
0.23301
0.23301
0.23301
0.23301
0.233009
0.233004
0.23298
0.232893
0.232668
0.232168
0.231462
0.231308
0.23175
0.231986
0.231997
0.231944
0.23198
0.23211
0.232245
0.231629
0.231901
0.231137
0.231507
0.23039
0.230779
0.22975
0.230039
0.229064
0.229253
0.228426
0.228491
0.227827
0.227818
0.22742
0.227363
0.22738
0.227256
0.227189
0.227153
0.227507
0.227342
0.227196
0.227913
0.227678
0.227362
0.227236
0.227451
0.228106
0.228363
0.228088
0.227854
0.228383
0.229377
0.229587
0.228841
0.228429
0.2285
0.228969
0.230854
0.231394
0.229853
0.230192
0.232925
0.23301
0.233002
0.23204
0.232612
0.23301
0.23301
0.23301
0.23301
0.23301
0.23301
0.23301
0.23301
0.23301
0.23301
0.23301
0.23301
0.23301
0.23301
0.23301
0.23301
0.23301
0.23301
0.23301
0.23301
0.23301
0.233008
0.232999
0.232958
0.232836
0.232582
0.232111
0.231444
0.231267
0.231646
0.232232
0.232146
0.232321
0.232285
0.232315
0.232332
0.232382
0.232553
0.231845
0.23214
0.231177
0.231555
0.230212
0.230611
0.229511
0.229836
0.228629
0.228834
0.22785
0.227925
0.227375
0.227411
0.227156
0.227182
0.227211
0.227254
0.227094
0.227052
0.227055
0.227081
0.227187
0.227043
0.226972
0.227603
0.227357
0.227051
0.226934
0.227128
0.227817
0.228093
0.227802
0.227545
0.228121
0.229133
0.22934
0.228597
0.228172
0.228244
0.228722
0.230628
0.231182
0.2296
0.229931
0.232908
0.23301
0.233002
0.231862
0.232502
0.23301
0.23301
0.23301
0.23301
0.23301
0.23301
0.23301
0.23301
0.23301
0.23301
0.23301
0.23301
0.23301
0.23301
0.23301
0.23301
0.23301
0.23301
0.23301
0.23301
0.233007
0.232991
0.232924
0.232755
0.232473
0.232034
0.231406
0.231213
0.231534
0.232192
0.232506
0.232466
0.232618
0.232566
0.232633
0.232641
0.232467
0.232676
0.231897
0.232203
0.231001
0.231366
0.229779
0.23014
0.229101
0.229423
0.228064
0.228259
0.227483
0.227544
0.227297
0.227343
0.227382
0.227418
0.227133
0.227205
0.22729
0.227377
0.226963
0.226994
0.227065
0.227178
0.226921
0.226879
0.226896
0.227281
0.227036
0.226823
0.22674
0.226834
0.22751
0.22781
0.227496
0.227223
0.227842
0.228879
0.229077
0.228341
0.227895
0.227973
0.228464
0.23036
0.230924
0.229324
0.229641
0.232894
0.23301
0.232999
0.231613
0.232378
0.23301
0.23301
0.23301
0.23301
0.23301
0.23301
0.23301
0.23301
0.23301
0.23301
0.23301
0.23301
0.23301
0.23301
0.23301
0.23301
0.23301
0.23301
0.23301
0.233005
0.232979
0.232874
0.232647
0.232345
0.231933
0.231351
0.23115
0.231425
0.232055
0.232652
0.232576
0.23276
0.232707
0.232846
0.23281
0.232804
0.232851
0.232426
0.23269
0.231721
0.232084
0.230485
0.230824
0.229099
0.229407
0.228505
0.228792
0.22762
0.227738
0.227504
0.227521
0.227454
0.227517
0.227565
0.227599
0.227318
0.227464
0.2276
0.227715
0.226972
0.227113
0.227306
0.227519
0.226805
0.226854
0.226992
0.226962
0.226753
0.226741
0.226679
0.226668
0.227187
0.227505
0.227173
0.226905
0.227541
0.228618
0.228807
0.228076
0.227602
0.227691
0.228204
0.230058
0.23061
0.229041
0.229339
0.232854
0.233007
0.23297
0.231302
0.232173
0.23301
0.23301
0.23301
0.23301
0.23301
0.23301
0.23301
0.23301
0.23301
0.23301
0.23301
0.23301
0.23301
0.23301
0.23301
0.23301
0.23301
0.233009
0.233004
0.232963
0.232806
0.232518
0.232201
0.231813
0.231276
0.23108
0.231322
0.231926
0.232626
0.23288
0.232855
0.232929
0.232907
0.232949
0.232945
0.23285
0.232928
0.232167
0.232588
0.231209
0.231672
0.229712
0.230049
0.228365
0.228627
0.227907
0.228122
0.22754
0.227579
0.227903
0.22788
0.227811
0.22785
0.227802
0.22786
0.227893
0.227907
0.227728
0.227915
0.228069
0.228184
0.227212
0.22748
0.227767
0.22804
0.22683
0.227033
0.227325
0.226688
0.226605
0.226808
0.226788
0.226624
0.226869
0.227185
0.226854
0.226636
0.227228
0.22836
0.228544
0.227806
0.227298
0.2274
0.227945
0.229729
0.230241
0.228765
0.229037
0.232715
0.232923
0.23281
0.230901
0.231724
0.23301
0.23301
0.23301
0.23301
0.23301
0.23301
0.23301
0.23301
0.23301
0.23301
0.23301
0.23301
0.23301
0.23301
0.23301
0.23301
0.233009
0.233002
0.232944
0.232727
0.232378
0.232045
0.231673
0.231183
0.231003
0.231226
0.231812
0.232525
0.232953
0.232925
0.232975
0.232968
0.232988
0.232983
0.23298
0.232989
0.23284
0.232942
0.231728
0.232352
0.230485
0.231059
0.228915
0.229274
0.227928
0.22814
0.227655
0.22777
0.227776
0.227736
0.227769
0.228242
0.228188
0.228062
0.228126
0.228257
0.228291
0.228298
0.22828
0.22828
0.228477
0.228624
0.228718
0.22767
0.228024
0.228357
0.228652
0.227073
0.227432
0.227841
0.226546
0.226567
0.227097
0.227089
0.226749
0.226597
0.226867
0.226574
0.226492
0.226911
0.228107
0.228291
0.22753
0.226987
0.227101
0.227683
0.229384
0.229821
0.2285
0.228744
0.232282
0.231944
0.232006
0.230338
0.230847
0.23301
0.23301
0.23301
0.23301
0.23301
0.23301
0.23301
0.233009
0.233009
0.233009
0.233009
0.233009
0.233009
0.23301
0.23301
0.233009
0.233001
0.232928
0.232653
0.23224
0.231882
0.231518
0.231074
0.230921
0.23114
0.231714
0.232434
0.232924
0.232998
0.232994
0.233003
0.233001
0.233003
0.233004
0.232985
0.232999
0.232761
0.232934
0.231252
0.232063
0.229769
0.230439
0.228426
0.22883
0.227908
0.2281
0.227754
0.2278
0.227999
0.227939
0.228169
0.228119
0.228629
0.228549
0.228379
0.228463
0.228759
0.228768
0.228748
0.228697
0.228898
0.229084
0.2292
0.229248
0.228253
0.228643
0.228992
0.229285
0.227505
0.227965
0.228427
0.226505
0.226691
0.227533
0.227507
0.227045
0.226446
0.226568
0.226406
0.22644
0.226599
0.227856
0.228043
0.227245
0.226672
0.226793
0.227413
0.229035
0.229361
0.228246
0.228465
0.231039
0.23071
0.230089
0.229661
0.2298
0.23301
0.23301
0.23301
0.23301
0.233009
0.233009
0.233007
0.233006
0.233005
0.233006
0.233006
0.233008
0.233008
0.233009
0.233009
0.233001
0.232916
0.232592
0.232113
0.231718
0.231354
0.230953
0.230835
0.231062
0.231632
0.232355
0.232875
0.233005
0.232999
0.233008
0.233007
0.233008
0.233008
0.233006
0.233008
0.232981
0.233001
0.232639
0.232902
0.231058
0.231953
0.2294
0.230158
0.228389
0.228811
0.228352
0.228554
0.228092
0.228084
0.228239
0.2283
0.228229
0.228552
0.228498
0.229052
0.228962
0.22878
0.228869
0.229263
0.22925
0.229204
0.229134
0.229507
0.229645
0.229705
0.229727
0.228865
0.229261
0.229595
0.22985
0.228026
0.228524
0.229
0.226612
0.226965
0.228019
0.227945
0.227431
0.226374
0.226375
0.226306
0.226509
0.226364
0.2276
0.227798
0.226946
0.226385
0.226473
0.227131
0.228698
0.228922
0.228001
0.228203
0.229645
0.232127
0.22968
0.229079
0.229056
0.23301
0.23301
0.233009
0.233008
0.233005
0.233
0.232994
0.232991
0.232992
0.232996
0.233001
0.233004
0.233007
0.233008
0.233
0.23291
0.232548
0.232003
0.231557
0.231183
0.230825
0.230746
0.230991
0.231565
0.23229
0.232838
0.232997
0.233009
0.233009
0.23301
0.23301
0.233009
0.23301
0.233006
0.233008
0.232976
0.233
0.232592
0.232885
0.231082
0.231973
0.229402
0.230176
0.228851
0.229267
0.229058
0.229135
0.229531
0.228457
0.228423
0.229024
0.229011
0.228696
0.228618
0.229098
0.229055
0.22952
0.229443
0.229289
0.229365
0.229731
0.229707
0.229657
0.229592
0.230022
0.230106
0.230147
0.230164
0.229436
0.229809
0.230101
0.230306
0.228536
0.229037
0.229505
0.226846
0.227307
0.228465
0.228319
0.227813
0.226397
0.226253
0.226266
0.226688
0.226208
0.227337
0.22755
0.226634
0.226179
0.2262
0.226838
0.228399
0.228573
0.22776
0.227963
0.228917
0.232609
0.22981
0.228656
0.228597
0.233009
0.233008
0.233004
0.232994
0.232977
0.232953
0.232937
0.232939
0.232954
0.232973
0.232989
0.232999
0.233004
0.233
0.23291
0.232523
0.231913
0.231408
0.231012
0.230696
0.230654
0.230925
0.231508
0.232236
0.23281
0.232986
0.233009
0.233009
0.23301
0.23301
0.23301
0.23301
0.233009
0.23301
0.233006
0.233008
0.232974
0.232998
0.232601
0.232885
0.231358
0.232138
0.229829
0.230543
0.229798
0.23015
0.229721
0.229723
0.230593
0.230632
0.229024
0.22901
0.22972
0.229725
0.229218
0.229152
0.229792
0.229765
0.230054
0.230007
0.229911
0.229959
0.230172
0.230162
0.230134
0.230096
0.230434
0.230505
0.230552
0.230586
0.229917
0.230254
0.230507
0.23068
0.228973
0.229458
0.229902
0.227125
0.227615
0.228812
0.228559
0.228097
0.226489
0.226163
0.226273
0.226878
0.226078
0.227062
0.227296
0.22632
0.22602
0.225987
0.226533
0.228152
0.22829
0.227529
0.227751
0.228655
0.231795
0.229437
0.228339
0.22831
0.233006
0.232997
0.232968
0.232915
0.232848
0.232797
0.232792
0.232827
0.232884
0.23294
0.232976
0.232995
0.232997
0.232916
0.232517
0.231848
0.231275
0.230848
0.230569
0.230561
0.230862
0.231455
0.232185
0.232784
0.232979
0.233008
0.23301
0.23301
0.23301
0.23301
0.23301
0.23301
0.233009
0.23301
0.233005
0.233008
0.232975
0.232998
0.232667
0.232899
0.231808
0.23239
0.230611
0.23118
0.230692
0.2308
0.231252
0.230532
0.230562
0.231134
0.231212
0.229742
0.22973
0.230513
0.2305
0.229866
0.229824
0.230504
0.230492
0.230604
0.230591
0.230557
0.230575
0.230606
0.230615
0.230618
0.230613
0.230791
0.230863
0.230916
0.230962
0.230286
0.230598
0.230831
0.230992
0.229287
0.229739
0.230148
0.22732
0.22774
0.228994
0.228533
0.228132
0.226566
0.226085
0.226253
0.22693
0.225957
0.22678
0.227049
0.226037
0.225861
0.225808
0.226232
0.227936
0.228058
0.227315
0.227553
0.228377
0.22909
0.22832
0.228107
0.22809
0.232981
0.232934
0.232832
0.232716
0.232636
0.232613
0.232648
0.232724
0.232817
0.232908
0.232968
0.232989
0.232921
0.232522
0.231808
0.231166
0.230697
0.230447
0.23047
0.230801
0.231402
0.232131
0.232756
0.232972
0.233007
0.23301
0.23301
0.23301
0.23301
0.23301
0.23301
0.23301
0.233009
0.23301
0.233005
0.233008
0.232979
0.232998
0.232762
0.232923
0.2323
0.232647
0.231558
0.231917
0.23128
0.231313
0.231947
0.231782
0.230957
0.231046
0.231218
0.231369
0.230486
0.230489
0.230877
0.230818
0.230537
0.230518
0.230804
0.230783
0.231021
0.230991
0.230921
0.23096
0.230999
0.231026
0.231036
0.231033
0.2311
0.231173
0.231223
0.231253
0.230505
0.230811
0.231045
0.231211
0.229407
0.229819
0.23021
0.227295
0.22766
0.228929
0.228396
0.228024
0.226545
0.225987
0.226171
0.226874
0.225814
0.226521
0.226822
0.225832
0.225708
0.225664
0.22598
0.227744
0.227871
0.227114
0.227373
0.228032
0.228743
0.227899
0.227928
0.227912
0.232879
0.23275
0.232588
0.232481
0.232444
0.232477
0.232563
0.232676
0.232795
0.232899
0.232966
0.232921
0.232546
0.231792
0.231081
0.230566
0.230335
0.230382
0.230742
0.23135
0.232072
0.232724
0.232965
0.233006
0.23301
0.23301
0.23301
0.23301
0.23301
0.23301
0.23301
0.23301
0.23301
0.233009
0.23301
0.233005
0.233008
0.232985
0.233
0.232856
0.232949
0.232658
0.232833
0.232198
0.232439
0.231514
0.23165
0.232029
0.231844
0.230919
0.231063
0.230843
0.231128
0.230778
0.230785
0.230795
0.230703
0.230881
0.230842
0.230733
0.230684
0.231129
0.231067
0.230938
0.231008
0.231258
0.231248
0.231214
0.231172
0.231311
0.231352
0.231356
0.231343
0.230564
0.230868
0.2311
0.231255
0.229323
0.229712
0.230082
0.22719
0.22749
0.228754
0.228083
0.227794
0.226459
0.225872
0.226103
0.226722
0.225678
0.22627
0.226602
0.225685
0.225577
0.225542
0.22579
0.227575
0.227714
0.226923
0.227197
0.227812
0.230522
0.227894
0.227779
0.227761
0.232648
0.232479
0.232344
0.232297
0.232329
0.232421
0.232544
0.232681
0.232813
0.232913
0.232911
0.232557
0.231795
0.231018
0.230458
0.230237
0.2303
0.230685
0.231297
0.232011
0.232686
0.232955
0.233005
0.23301
0.23301
0.23301
0.23301
0.23301
0.23301
0.23301
0.23301
0.23301
0.23301
0.233009
0.23301
0.233006
0.233008
0.232992
0.233002
0.232931
0.232973
0.232746
0.232886
0.232124
0.232335
0.232528
0.231399
0.231639
0.231875
0.231566
0.230307
0.230561
0.230001
0.230403
0.230663
0.230663
0.2301
0.229963
0.230868
0.2308
0.230129
0.230022
0.230933
0.230809
0.230536
0.230674
0.231296
0.231231
0.231149
0.231051
0.231315
0.231315
0.231256
0.231151
0.230407
0.230676
0.230868
0.230968
0.229094
0.229405
0.229661
0.226996
0.227269
0.228366
0.227716
0.22751
0.226346
0.225807
0.226009
0.22662
0.225601
0.226024
0.22638
0.225569
0.225511
0.225463
0.22563
0.227421
0.227584
0.226714
0.227022
0.227643
0.231017
0.228022
0.22763
0.22762
0.232359
0.232231
0.232181
0.232208
0.232293
0.232419
0.232573
0.232726
0.232849
0.23288
0.232553
0.231803
0.230977
0.230379
0.230158
0.230228
0.230632
0.231247
0.231951
0.232641
0.232943
0.233004
0.23301
0.23301
0.23301
0.23301
0.23301
0.23301
0.23301
0.23301
0.23301
0.23301
0.23301
0.233009
0.23301
0.233007
0.233008
0.233
0.233004
0.23296
0.232989
0.232639
0.232873
0.231794
0.232135
0.232419
0.232085
0.230812
0.231206
0.23139
0.230937
0.2293
0.229621
0.229064
0.229514
0.229959
0.229945
0.229054
0.228919
0.230392
0.230254
0.2291
0.228972
0.23026
0.230056
0.229643
0.229848
0.231012
0.230836
0.230655
0.230463
0.230967
0.23087
0.230701
0.230485
0.229859
0.230003
0.230078
0.230077
0.228624
0.228736
0.228743
0.226881
0.227078
0.227825
0.227173
0.227153
0.226253
0.225739
0.225938
0.226483
0.225552
0.22581
0.226092
0.225493
0.225427
0.22533
0.225535
0.227291
0.227419
0.22648
0.226865
0.227529
0.230048
0.227909
0.227491
0.227466
0.232138
0.232097
0.232113
0.23218
0.232293
0.232447
0.232614
0.23276
0.232815
0.232531
0.231797
0.230949
0.230328
0.230102
0.230175
0.23059
0.2312
0.231895
0.232588
0.232929
0.233002
0.233009
0.23301
0.23301
0.23301
0.23301
0.23301
0.23301
0.23301
0.23301
0.23301
0.23301
0.23301
0.23301
0.233009
0.23301
0.233008
0.233009
0.233003
0.233007
0.232962
0.232993
0.232113
0.232143
0.23251
0.232752
0.231237
0.231691
0.231669
0.229982
0.230462
0.230742
0.230242
0.228304
0.228645
0.228369
0.22883
0.228904
0.228891
0.228044
0.227871
0.229443
0.22926
0.227894
0.227791
0.229142
0.228889
0.228423
0.228652
0.230219
0.229953
0.229672
0.229408
0.229967
0.229783
0.229495
0.229192
0.228724
0.228702
0.228614
0.228499
0.227824
0.227743
0.227545
0.2266
0.22665
0.227125
0.226804
0.226717
0.226122
0.225679
0.225856
0.226219
0.22544
0.225593
0.225823
0.225347
0.225283
0.225181
0.225432
0.22707
0.227269
0.226238
0.226533
0.227453
0.232048
0.228281
0.22734
0.227313
0.232043
0.232049
0.23209
0.232172
0.232301
0.232464
0.232621
0.232691
0.232465
0.23177
0.230924
0.230302
0.230077
0.230149
0.230564
0.231163
0.231845
0.232534
0.232913
0.233
0.233009
0.23301
0.23301
0.23301
0.23301
0.23301
0.23301
0.23301
0.23301
0.23301
0.23301
0.23301
0.23301
0.23301
0.23301
0.23301
0.233009
0.23301
0.233004
0.233008
0.232939
0.232991
0.231722
0.231893
0.232312
0.232567
0.230708
0.231186
0.23127
0.229288
0.229758
0.230271
0.229865
0.227542
0.227923
0.227986
0.228517
0.227762
0.227773
0.227205
0.226962
0.228221
0.228036
0.226699
0.226666
0.227706
0.227461
0.227074
0.22727
0.228887
0.228586
0.228256
0.227969
0.228266
0.227991
0.227639
0.227306
0.227527
0.227496
0.227369
0.227288
0.227127
0.227187
0.225966
0.226301
0.22645
0.225964
0.225964
0.225907
0.225901
0.225518
0.225602
0.226046
0.22529
0.22553
0.225642
0.225163
0.225156
0.225087
0.225277
0.226909
0.227088
0.225876
0.226362
0.227436
0.232834
0.229493
0.227186
0.227197
0.232019
0.232034
0.232076
0.232157
0.232276
0.232408
0.232475
0.232314
0.231705
0.230883
0.2303
0.230077
0.230148
0.230559
0.231144
0.231807
0.232489
0.232898
0.232998
0.233009
0.23301
0.23301
0.23301
0.23301
0.23301
0.23301
0.23301
0.23301
0.23301
0.23301
0.23301
0.23301
0.23301
0.23301
0.23301
0.23301
0.233009
0.23301
0.233003
0.233008
0.232887