/*--------------------------------*- C++ -*----------------------------------*\
  =========                 |
  \\      /  F ield         | OpenFOAM: The Open Source CFD Toolbox
   \\    /   O peration     | Website:  https://openfoam.org
    \\  /    A nd           | Version:  dev
     \\/     M anipulation  |
\*---------------------------------------------------------------------------*/
FoamFile
{
    version     2.0;
    format      ascii;
    class       volScalarField;
    location    "2500";
    object      omega;
}
// * * * * * * * * * * * * * * * * * * * * * * * * * * * * * * * * * * * * * //

dimensions      [0 0 -1 0 0 0 0];

internalField   nonuniform List<scalar> 
9841
(
1.23429
1.2487
1.20446
1.16849
1.34221
1.10165
1.07322
1.35145
1.2857
1.03549
1.03106
1.31477
1.35135
1.16374
1.01825
1.01073
1.22405
1.3751
1.28977
1.07499
1.01182
1.00135
1.12081
1.36324
1.35265
1.16715
1.03839
1.00687
0.993078
1.06103
1.32124
1.37561
1.27098
1.08053
1.02229
1.0034
0.98787
1.02364
1.23462
1.37859
1.33852
1.15283
1.04089
1.01164
1.00092
0.985244
1.00186
1.13794
1.3624
1.36806
1.24164
1.07317
1.02111
1.00393
0.998973
0.98447
0.990305
1.06866
1.31925
1.38116
1.31533
1.13107
1.03406
1.00777
0.998271
0.997527
0.986322
0.984312
1.02648
1.23915
1.38087
1.35632
1.20565
1.05993
1.01301
0.998106
0.99386
0.996407
0.988169
0.978219
1.00148
1.14478
1.366
1.37537
1.28107
1.10496
1.02308
0.999029
0.990807
0.990544
0.995508
0.989498
0.973706
0.986136
1.07243
1.32724
1.38795
1.33472
1.1689
1.04231
1.00201
0.987869
0.985302
0.987832
0.994791
0.98982
0.971156
0.976396
1.02758
1.25218
1.39121
1.36749
1.24005
1.0778
1.00887
0.987511
0.980274
0.980886
0.98562
0.994193
0.989571
0.972077
0.969436
0.99863
1.16175
1.37894
1.38696
1.30328
1.13128
1.0231
0.989066
0.976287
0.974314
0.97735
0.983802
0.993673
0.989263
0.973562
0.963329
0.980511
1.0821
1.34512
1.40091
1.34984
1.19471
1.05072
0.993818
0.973749
0.968154
0.969566
0.974499
0.98224
0.993244
0.989109
0.974815
0.959002
0.968297
1.034
1.28036
1.40836
1.38068
1.2602
1.09387
1.00429
0.974568
0.962925
0.962046
0.965697
0.972016
0.980942
0.99289
0.98897
0.975525
0.955965
0.96006
1.00175
1.19717
1.40087
1.40271
1.3167
1.1496
1.02532
0.977843
0.959339
0.955017
0.957152
0.962417
0.969951
0.979862
0.99259
0.988904
0.975548
0.954434
0.953398
0.979983
1.11616
1.37635
1.41735
1.36255
1.2098
1.05889
0.985476
0.959605
0.949277
0.948782
0.953115
0.959773
0.968253
0.978929
0.992342
0.988877
0.97536
0.953376
0.94743
0.965548
1.05879
1.32902
1.4295
1.39391
1.26873
1.10466
1.0008
0.961564
0.945525
0.941521
0.943869
0.949892
0.957618
0.966781
0.97813
0.992139
0.988869
0.975133
0.952194
0.94286
0.955241
1.02212
1.26107
1.42775
1.41891
1.32237
1.15765
1.02594
0.966725
0.944262
0.935533
0.935423
0.940044
0.947329
0.955785
0.965523
0.977465
0.991985
0.988935
0.975017
0.950692
0.93906
0.947818
0.997358
1.19023
1.4147
1.43303
1.36906
1.21334
1.06164
0.977435
0.945395
0.931536
0.927872
0.930707
0.93701
0.945199
0.954251
0.964476
0.976932
0.991882
0.989126
0.974955
0.948975
0.935388
0.942171
0.979891
1.1294
1.38535
1.44622
1.4026
1.26537
1.10608
0.995611
0.948829
0.929321
0.922059
0.922126
0.927008
0.934602
0.943481
0.952978
0.963604
0.97652
0.991834
0.989497
0.974624
0.947247
0.931745
0.937539
0.967272
1.08158
1.34495
1.45269
1.42748
1.31685
1.15463
1.02184
0.956027
0.929652
0.917698
0.914946
0.917724
0.924152
0.93277
0.942123
0.951911
0.962898
0.976244
0.991837
0.990064
0.973927
0.945403
0.92837
0.933656
0.958338
1.04988
1.30016
1.44991
1.44597
1.36073
1.20316
1.05601
0.967517
0.931306
0.915159
0.909091
0.909644
0.914303
0.922074
0.931358
0.94104
0.951073
0.962381
0.976104
0.991892
0.990803
0.972966
0.943206
0.925467
0.930437
0.952436
1.02832
1.2515
1.43999
1.45665
1.3986
1.24955
1.09458
0.985484
0.935155
0.914143
0.904957
0.902768
0.905524
0.911828
0.920568
0.930277
0.940241
0.950482
0.962078
0.976181
0.992023
0.991624
0.971594
0.940845
0.923358
0.92787
0.948896
1.01459
1.2081
1.41998
1.46591
1.42541
1.29197
1.13583
1.00912
0.942494
0.914798
0.901759
0.897338
0.897959
0.902505
0.910081
0.919437
0.929593
0.939697
0.950134
0.962095
0.97648
0.992267
0.992237
0.969503
0.938622
0.922442
0.926371
0.947393
1.00686
1.17545
1.39313
1.46876
1.44455
1.33387
1.17635
1.038
0.95366
0.916689
0.899976
0.892828
0.891628
0.894327
0.900436
0.908838
0.918833
0.92921
0.939377
0.950103
0.96252
0.977078
0.992644
0.991991
0.966526
0.937058
0.923149
0.92644
0.947923
1.00454
1.15368
1.36548
1.46677
1.45653
1.36888
1.2161
1.07011
0.969103
0.920467
0.899024
0.889502
0.886301
0.887364
0.891844
0.899049
0.908189
0.918614
0.929083
0.939397
0.950561
0.963474
0.978121
0.993176
0.99021
0.963131
0.937782
0.926496
0.92878
0.951372
1.00693
1.14085
1.33995
1.46095
1.46311
1.39736
1.25132
1.10449
0.988205
0.926444
0.899211
0.88664
0.881886
0.881375
0.884352
0.890268
0.898215
0.908059
0.918798
0.929326
0.939869
0.951654
0.96521
0.97981
0.993881
0.98916
0.961474
0.94385
0.933827
0.934855
0.959132
1.0191
1.13377
1.3159
1.44938
1.46425
1.41859
1.28192
1.13737
1.01123
0.934544
0.900044
0.884621
0.877838
0.876179
0.877787
0.882466
0.889387
0.898188
0.908557
0.91947
0.930015
0.940937
0.953624
0.968049
0.982557
0.99484
0.990595
0.961204
0.95442
0.945822
0.946548
0.973099
1.03835
1.13274
1.29286
1.4328
1.46351
1.43147
1.30958
1.16711
1.03632
0.945415
0.901798
0.883005
0.874458
0.871512
0.872003
0.875504
0.881637
0.88943
0.898994
0.909811
0.920701
0.931287
0.942782
0.956813
0.972411
0.986847
0.996665
0.994766
0.960831
0.957697
0.963921
0.967819
0.998124
1.06046
1.13643
1.27268
1.41212
1.45907
1.43848
1.33384
1.19283
1.06158
0.959054
0.904688
0.88153
0.871406
0.867171
0.866814
0.869203
0.874584
0.881736
0.89054
0.900768
0.911857
0.922699
0.933448
0.945831
0.961779
0.978708
0.991831
0.999501
0.998017
1.00931
0.974044
0.957724
0.972405
1.00951
1.03679
1.08356
1.1435
1.25498
1.3888
1.44757
1.43858
1.35291
1.21477
1.08527
0.974964
0.909127
0.880405
0.86806
0.862967
0.861858
0.863558
0.868057
0.87471
0.883186
0.892838
0.903766
0.915078
0.925884
0.936947
0.950873
0.970106
0.987474
0.99697
0.996584
1.00029
1.00001
0.998774
1.03402
0.966901
0.977267
1.04966
1.08918
1.1088
1.15255
1.24066
1.36449
1.43047
1.43409
1.36518
1.23233
1.10614
0.992348
0.91529
0.879202
0.864826
0.858619
0.85702
0.858441
0.862168
0.868267
0.876305
0.886013
0.896797
0.90847
0.919954
0.930883
0.942572
0.95912
0.980661
0.976436
0.996608
0.985685
0.996463
1.0001
1.00113
1.00115
1.00209
0.994029
1.06504
1.02467
0.982043
1.06058
1.13941
1.13649
1.16104
1.22577
1.33957
1.41063
1.42199
1.37188
1.24554
1.12346
1.00995
0.923441
0.879247
0.86111
0.854213
0.852202
0.853488
0.856804
0.862389
0.869825
0.879653
0.890813
0.90295
0.915422
0.927376
0.938824
0.952517
0.971842
0.966855
0.983582
1.00324
0.996416
1.00465
1.00369
1.00783
1.00225
1.00455
0.987206
1.05034
1.12649
1.01524
1.05578
1.14864
1.16578
1.16721
1.20954
1.31259
1.38818
1.40544
1.37058
1.25452
1.13623
1.0266
0.933561
0.880163
0.857566
0.849376
0.84704
0.84844
0.851637
0.856703
0.863856
0.873514
0.885378
0.89837
0.912103
0.925673
0.938875
0.952137
0.963623
0.962661
0.979936
0.976466
0.995542
1.01285
1.00541
1.01663
1.00822
1.01627
1.0035
1.00729
0.980368
1.02037
1.20907
1.10762
1.03532
1.13469
1.1671
1.16973
1.19638
1.28254
1.36318
1.38587
1.36461
1.25786
1.14577
1.04028
0.945005
0.882401
0.854398
0.844174
0.841482
0.842705
0.846181
0.850917
0.858119
0.867526
0.880052
0.894443
0.91008
0.926036
0.940706
0.954316
0.962798
0.964085
0.974514
0.974409
0.993111
0.991215
1.00514
1.02491
1.01907
1.03149
1.01365
1.02636
1.00487
1.01032
0.976726
0.998912
1.1895
1.23736
1.05578
1.08575
1.14965
1.16067
1.18019
1.24998
1.33499
1.3636
1.35217
1.25883
1.14981
1.05114
0.956405
0.886066
0.851543
0.838694
0.835449
0.836325
0.839921
0.845085
0.852257
0.861769
0.874645
0.890535
0.908544
0.927513
0.946507
0.962026
0.96715
0.974909
0.975157
0.977701
0.990932
0.991553
1.0046
1.00489
1.0206
1.03951
1.0365
1.05012
1.02016
1.03858
1.00631
1.01369
0.976239
0.988526
1.15158
1.29099
1.15105
1.01595
1.09851
1.1331
1.15703
1.2096
1.30275
1.33852
1.3362
1.25723
1.14987
1.05822
0.966855
0.890961
0.849462
0.833022
0.828945
0.829654
0.833105
0.839003
0.846351
0.856163
0.869497
0.886406
0.906925
0.930092
0.954057
0.97906
0.983016
1.00022
0.983503
0.995686
0.993945
1.00023
1.00625
1.01002
1.02197
1.02448
1.04041
1.05766
1.05848
1.07324
1.02783
1.05365
1.00767
1.01725
0.977761
0.989287
1.1178
1.2897
1.24557
1.02445
1.00309
1.07901
1.12175
1.17321
1.26687
1.31131
1.31657
1.25224
1.14869
1.06081
0.975293
0.896989
0.848177
0.827775
0.822144
0.822758
0.826199
0.83243
0.840436
0.850506
0.864354
0.88268
0.905298
0.9327
0.966392
1.00704
1.01994
1.0616
1.01677
1.05675
1.0152
1.04985
1.01971
1.045
1.0302
1.04573
1.04492
1.05447
1.06599
1.08021
1.08509
1.09891
1.03663
1.07308
1.0088
1.02078
0.981506
0.997431
1.11098
1.27066
1.2698
1.06165
0.950536
1.00084
1.07518
1.1353
1.22692
1.28248
1.29405
1.24302
1.14522
1.0603
0.981233
0.903232
0.848474
0.823066
0.815277
0.815544
0.819179
0.825459
0.833993
0.844462
0.85888
0.878749
0.904719
0.938214
0.98619
1.07648
1.12591
1.27523
1.13856
1.30667
1.12876
1.30324
1.11074
1.26946
1.09081
1.21717
1.08079
1.16183
1.08125
1.12403
1.10759
1.10298
1.12895
1.14044
1.04846
1.09114
1.00945
1.02408
0.987015
1.0148
1.12306
1.23818
1.26178
1.11379
0.944878
0.943177
1.01245
1.09201
1.18844
1.25277
1.26961
1.23115
1.13835
1.05829
0.984682
0.909084
0.849479
0.819151
0.808547
0.80808
0.811806
0.818272
0.826698
0.838012
0.852512
0.873706
0.903578
0.952303
1.04513
1.25451
1.47956
1.89038
1.60676
2.1976
1.67326
2.33997
1.6295
2.36356
1.5349
2.21571
1.39597
1.97969
1.26435
1.67222
1.17324
1.39802
1.2193
1.13548
1.25235
1.2606
1.06
1.1079
1.00929
1.0265
0.993639
1.0414
1.14845
1.21003
1.2358
1.13577
0.95293
0.917089
0.960339
1.04782
1.15293
1.22363
1.2443
1.21691
1.12982
1.0537
0.985321
0.913815
0.851523
0.81589
0.802407
0.800712
0.804163
0.8107
0.819408
0.830345
0.845624
0.86749
0.90074
0.968209
1.21036
1.9203
2.59969
3.0946
2.97974
4.27197
3.41307
4.75885
3.62009
5.19902
3.54499
5.35149
3.21235
5.14701
2.64651
4.57009
2.05496
3.55195
1.54958
2.52128
1.68332
1.23442
1.76524
1.76032
1.06394
1.17177
1.00813
1.02645
1.00027
1.07757
1.1788
1.19337
1.20049
1.13049
0.96935
0.910543
0.931613
1.01411
1.12513
1.19639
1.2192
1.201
1.11996
1.04659
0.984366
0.917177
0.854108
0.81347
0.796687
0.793521
0.79662
0.803095
0.811646
0.822752
0.838077
0.860518
0.896784
0.982838
1.40855
3.11942
7.02024
5.42444
7.72939
6.41087
7.98194
6.98582
8.56768
7.33449
8.95168
7.36434
9.14602
7.05205
9.14076
6.20807
8.80297
4.63557
7.8293
2.99749
5.81724
3.36129
1.65284
3.53308
3.44633
1.09456
1.45997
1.00674
1.03704
1.00706
1.11966
1.20857
1.19272
1.16931
1.11238
0.979288
0.911119
0.921068
0.992082
1.10217
1.17267
1.19536
1.18353
1.10899
1.03793
0.981787
0.919014
0.856639
0.812023
0.791325
0.786586
0.789457
0.795259
0.803792
0.815138
0.830413
0.853382
0.891619
0.998717
1.64189
4.13136
8.68165
10.4509
10.9103
9.26366
10.1006
9.647
10.3129
9.93335
10.4861
10.1564
10.6835
10.2975
10.8874
10.2955
11.0447
10.012
11.0841
9.14328
10.8603
6.8119
9.96999
7.418
3.07221
7.57324
7.23076
1.25483
2.46186
1.00793
1.1038
1.01442
1.16155
1.24178
1.20043
1.14538
1.07798
0.976841
0.914466
0.918995
0.981155
1.08563
1.15282
1.174
1.16575
1.09792
1.02832
0.976545
0.919781
0.858475
0.81116
0.78654
0.779827
0.782044
0.78782
0.796106
0.807521
0.823307
0.846462
0.8872
1.0149
1.88829
5.20266
9.93942
11.02
11.2466
11.0671
11.1732
10.7011
10.923
10.7743
10.9216
10.9323
11.0326
11.1513
11.2538
11.3969
11.5292
11.6026
11.8193
11.6767
12.049
11.4477
12.1227
10.4943
11.8671
10.7958
6.29511
10.8842
10.7021
1.82553
4.73596
1.02033
1.34464
1.0224
1.19906
1.27129
1.21842
1.12363
1.04316
0.968851
0.91857
0.919678
0.976878
1.07498
1.13736
1.1557
1.14869
1.08661
1.01794
0.969677
0.919171
0.859555
0.810299
0.782168
0.772609
0.774846
0.781007
0.789029
0.800626
0.816957
0.840554
0.885971
1.04074
2.14375
6.14551
10.5441
11.3153
11.464
11.2738
11.3605
11.1442
11.2474
11.0087
11.0723
11.0653
11.0793
11.2523
11.2389
11.5459
11.5334
11.904
11.9438
12.2569
12.4103
12.5113
12.8269
12.5396
13.0675
12.1704
12.9714
12.4119
10.0883
12.5635
12.5494
3.24225
8.49357
1.0676
1.99726
1.06743
1.22377
1.30046
1.23474
1.1125
1.01617
0.954811
0.918996
0.922825
0.974807
1.06832
1.1259
1.14051
1.13291
1.07528
1.00765
0.961715
0.917536
0.859976
0.809193
0.778033
0.765904
0.767906
0.774343
0.783342
0.795096
0.812028
0.836927
0.888431
1.09268
2.50321
6.9824
10.9164
11.6805
11.452
11.584
11.3775
11.5285
11.369
11.5677
11.1245
11.2192
11.248
11.3039
11.5304
11.5556
11.9779
12.01
12.5411
12.6522
13.1248
13.3978
13.5796
14.0861
13.7208
14.5066
13.4272
14.4408
13.8332
12.2015
14.1268
14.2204
5.95624
11.371
1.18261
3.23498
1.29911
1.31082
1.2531
1.10726
0.997363
0.941858
0.91735
0.92546
0.974963
1.06401
1.11731
1.12825
1.1188
1.06411
0.997775
0.953601
0.914383
0.860153
0.808243
0.774202
0.75981
0.760491
0.767854
0.77757
0.791727
0.809613
0.836366
0.899004
1.21363
2.93681
7.6192
11.1566
11.7685
11.9945
12.1124
11.696
11.8575
11.7772
12.0131
11.816
12.0785
11.4237
11.5893
11.6164
11.7225
12.0413
12.0817
12.7317
12.7726
13.6256
13.7941
14.5624
14.9746
15.2914
16.0367
15.5387
16.6744
15.1545
16.5933
15.75
14.071
16.1508
16.2714
9.32196
13.5566
1.49743
5.5443
1.34504
1.25632
1.1065
0.987106
0.929438
0.914818
0.926201
0.976044
1.06081
1.11112
1.11829
1.10649
1.05312
0.988748
0.94553
0.910507
0.860798
0.807667
0.770527
0.753257
0.753082
0.76084
0.773046
0.789927
0.809801
0.839827
0.925629
1.37578
3.44292
8.10408
11.3098
11.8032
12.2297
12.242
12.625
12.7629
12.2486
12.4557
12.3498
12.6018
12.3263
12.5645
11.8833
12.0882
12.1488
12.2542
12.7895
12.799
13.8882
13.8899
15.295
15.5137
16.7113
17.2732
17.7523
18.7437
18.0959
19.5678
17.5762
19.4501
18.3083
16.1033
18.7498
18.8864
17.4349
12.3001
15.6717
2.12248
8.7293
1.26935
1.10341
0.979933
0.923713
0.910696
0.92704
0.977444
1.05917
1.10706
1.11075
1.0956
1.04259
0.980496
0.938413
0.906814
0.861776
0.807478
0.766947
0.747061
0.745879
0.75462
0.76909
0.789678
0.813774
0.851828
0.977592
1.63055
3.98964
8.54936
11.3988
11.793
12.6402
12.8464
13.0143
13.0262
13.0985
12.7917
12.9284
12.7577
12.8962
12.6907
12.8009
12.3906
12.5452
12.8113
12.8292
13.8548
13.7722
15.5943
15.5552
17.7059
17.9961
19.6333
20.3943
20.917
22.1757
21.2866
23.0385
20.6267
22.5565
21.4486
19.9575
21.3349
18.7999
17.1261
18.6454
20.2457
21.8431
21.6289
20.2739
14.9304
18.398
18.1417
16.6321
2.70456
12.026
1.10395
0.974261
0.917348
0.909422
0.926684
0.980372
1.05905
1.10536
1.10543
1.08641
1.03254
0.973116
0.93262
0.904599
0.863452
0.807915
0.764736
0.741751
0.739465
0.748882
0.764851
0.790424
0.821284
0.875063
1.0698
2.00421
4.72959
9.00988
11.4317
11.7574
12.6452
13.267
13.3456
13.166
13.2328
13.1007
13.1255
12.9981
13.0665
12.8962
12.9409
12.8857
12.8634
12.8552
12.8805
13.6485
13.5078
15.4377
15.2082
18.098
18.0256
21.0125
21.4339
23.3773
24.4809
23.3925
24.1596
24.9137
25.8126
23.4701
24.5327
25.3509
26.6222
25.4538
23.2249
22.526
23.8931
24.306
22.9926
20.1541
19.932
21.8463
23.4742
23.3064
21.8036
17.8926
15.9709
17.7993
19.6561
19.3643
3.69049
17.5876
17.3696
12.3549
0.972942
0.912877
0.906724
0.927683
0.981925
1.06007
1.10532
1.10268
1.07894
1.02341
0.966439
0.929212
0.904483
0.867769
0.810859
0.764389
0.737916
0.734055
0.742761
0.762145
0.792469
0.832062
0.912981
1.23122
2.51907
5.60913
9.4748
11.4289
11.6762
12.6294
13.4846
13.2764
13.4153
13.1605
13.2168
12.6723
12.5815
12.9107
12.8104
12.7763
12.5599
13.0362
12.8356
13.3604
13.2061
14.9099
14.5704
17.8282
17.4536
21.5884
21.4746
25.3573
25.8784
26.5726
27.4235
28.0758
28.7242
26.3361
27.3461
28.3694
25.3718
26.478
27.7253
29.0155
27.6778
25.0343
24.3627
25.6484
26.1875
24.8057
21.6374
21.3731
23.5341
25.1182
25.3209
23.4645
19.1965
19.2037
21.0609
20.7852
13.8328
1.65178
6.41469
19.6218
19.4089
0.910508
0.905235
0.927987
0.985781
1.06237
1.10765
1.10225
1.07371
1.01558
0.960784
0.928447
0.907052
0.87562
0.818572
0.765845
0.73666
0.731009
0.739599
0.76194
0.797448
0.852993
0.976234
1.48395
3.17387
6.60193
9.90363
11.4139
11.5515
12.5823
13.5554
13.0863
13.2946
12.7726
12.9128
12.5671
12.6145
11.3607
11.1113
12.2154
11.7844
12.5551
12.142
13.4817
13.0931
14.2136
13.8511
16.9659
16.4139
21.165
20.5901
25.9399
25.6637
29.1403
29.4754
29.6143
29.6198
29.3468
30.229
30.9507
31.4954
28.9322
30.1622
31.3395
27.3928
28.7315
30.4616
31.9384
30.2544
26.8994
26.1988
27.5292
28.2115
26.6553
23.2872
23.0111
25.408
27.0169
27.2929
25.3576
20.6784
20.9028
22.6946
22.4387
17.8803
1.7179
7.46784
21.4645
22.0511
0.902823
0.928903
0.988362
1.0685
1.11308
1.10469
1.07115
1.01001
0.957464
0.929993
0.914621
0.888087
0.835059
0.773046
0.737488
0.731096
0.739781
0.76461
0.810752
0.88663
1.07282
1.83527
4.00645
7.60395
10.2888
11.3804
11.416
12.51
13.6083
13.2857
12.1303
12.4402
11.5268
11.8426
11.0849
11.2087
9.89764
8.92996
11.577
10.8265
12.6655
12.1849
14.7316
14.2631
15.8348
15.2631
19.867
19.0686
25.033
24.1215
29.518
29.2789
28.964
28.5
31.8363
32.0044
31.9922
31.8614
32.3865
33.2175
33.7996
34.1273
31.9409
33.34
34.539
29.6853
31.3965
33.6858
35.3584
33.3324
28.9264
28.0826
29.5398
30.521
28.5491
25.1761
24.8738
27.4352
28.9241
29.2025
27.4168
22.3815
22.6881
24.5289
24.2539
22.5849
2.21798
12.3136
23.3996
25.5489
0.930414
0.991917
1.07405
1.1255
1.11254
1.07171
1.00782
0.95675
0.93662
0.932197
0.91414
0.864311
0.793984
0.743637
0.7339
0.742551
0.773215
0.831566
0.926496
1.19434
2.28935
4.94994
8.46198
10.6189
11.3239
11.2799
12.4288
13.6443
13.4562
11.2372
11.6991
10.3199
10.763
9.17781
9.75887
8.43439
8.57807
9.61863
8.2496
11.5828
10.7495
13.8632
13.4926
16.7009
16.1009
18.2363
17.4271
23.0894
21.9848
28.5876
27.3631
31.5999
31.2436
30.8067
30.3496
34.2312
34.1508
33.9252
33.5995
35.438
36.0054
36.2557
36.2156
35.3206
36.6721
37.6038
32.4102
34.5971
37.2523
39.1025
36.927
31.2181
30.0528
31.7737
33.2649
30.45
27.231
26.9049
29.3605
30.7441
30.9486
29.3832
24.192
24.5098
26.5007
26.1651
29.2273
7.75783
30.253
25.7305
30.5291
0.997227
1.08129
1.139
1.12942
1.07721
1.00912
0.959067
0.953422
0.952729
0.950157
0.902576
0.828034
0.764183
0.743927
0.749428
0.781972
0.846296
0.957544
1.32268
2.79905
5.93083
9.15348
10.8776
11.2533
11.1365
12.3526
13.6553
13.5758
11.1847
8.47632
9.1559
7.08359
7.7891
5.88958
6.37856
6.86775
5.9832
10.6817
8.68577
12.9934
12.13
15.6458
15.3012
18.7718
17.9184
20.8592
19.7756
26.0734
24.7129
30.8982
30.1822
28.813
29.5469
33.2019
32.7445
32.2226
31.5959
35.9499
35.5854
35.1908
34.7771
38.0629
38.1301
37.8192
37.3108
38.7559
39.6959
39.9866
35.7027
38.3481
40.7994
42.7876
40.8457
33.9325
32.1771
34.4087
36.6016
32.423
29.2429
28.9302
31.0645
32.5518
32.6044
31.0937
26.0693
26.4744
28.5128
28.1392
41.1859
26.6191
48.7472
28.5671
36.3098
1.09417
1.15316
1.15247
1.09117
1.01732
0.969659
0.972464
0.992027
0.995273
0.959284
0.889372
0.816043
0.773216
0.766683
0.795683
0.860365
0.980589
1.4359
3.28092
6.77322
9.68926
11.0351
11.1657
11.0017
12.2489
13.6441
13.6457
11.424
6.11134
6.85435
4.89735
5.24255
4.38827
4.59785
4.54866
4.33092
6.71936
5.3142
13.0042
10.6433
14.9218
14.2882
17.2136
16.6264
20.8027
19.6371
23.3729
22.0748
28.1563
27.4171
26.8203
31.9537
31.2841
29.9006
30.6074
34.3334
33.8352
33.2716
32.6254
36.7964
36.3157
35.8537
35.385
39.8098
39.1663
38.3867
37.6795
41.715
41.8694
41.4322
39.584
42.4416
43.7375
45.8154
44.7081
37.2593
34.6567
37.6525
40.5679
34.689
30.9952
30.7438
32.623
34.572
34.3926
32.6106
28.0026
28.487
30.3613
29.9607
49.0594
77.6987
64.9143
30.7716
36.5293
1.1854
1.17247
1.11922
1.03382
0.988185
1.01231
1.05472
1.08485
1.07122
1.01136
0.927516
0.852544
0.818149
0.829916
0.889104
1.01126
1.53263
3.66557
7.40846
10.0735
11.0895
11.056
10.8681
12.158
13.5968
13.6645
11.6416
6.40513
3.68286
3.91615
3.56858
3.58718
3.64138
3.57694
4.31444
3.83298
7.62818
5.39752
14.3377
12.3791
16.0974
15.4374
18.5794
17.6507
22.4132
20.966
25.3482
23.863
29.1867
28.4916
28.4097
27.5088
32.5349
31.9166
30.6442
31.296
34.8909
34.3557
33.7781
33.1635
37.0595
36.5028
35.9637
35.4142
40.4523
39.3582
38.2715
37.2538
43.8217
43.1896
41.8599
43.8424
46.5203
45.9257
48.2375
47.975
41.2398
37.7116
41.5567
44.9372
37.4841
32.5243
32.2762
34.2321
37.0709
36.6037
34.0665
29.7394
30.0086
31.8825
31.4386
47.2721
87.5528
81.1778
31.0614
34.8272
1.22264
1.14497
1.06848
1.02818
1.07466
1.18613
1.28069
1.32758
1.2979
1.19901
1.07105
0.970059
0.93103
0.962108
1.07147
1.61989
3.94585
7.84822
10.3202
11.0882
10.923
10.727
12.0516
13.5119
13.6447
11.7891
6.90284
3.22223
3.3463
3.1368
3.11136
3.27483
3.19558
3.52259
3.37542
4.4306
3.78818
9.24472
6.10385
14.7678
12.8974
16.8356
15.9561
19.6162
18.3708
23.1424
21.4518
26.783
25.8518
24.9221
29.9551
29.204
28.8299
28.1307
32.4988
31.9346
30.7855
31.3759
34.8483
34.2515
33.6601
33.0713
36.3683
35.5943
34.8845
34.2215
40.3107
38.6457
37.0825
35.7383
45.2168
43.6555
41.6065
48.1003
50.1604
47.6282
50.4912
50.7034
45.658
41.4325
45.9449
49.3477
40.9621
33.8055
33.4784
36.0655
40.2698
39.2123
35.4199
30.9467
30.3561
33.0658
32.437
45.9298
91.7981
92.254
30.625
32.3646
1.21032
1.10582
1.09098
1.22978
1.45285
1.76562
1.98514
2.10164
1.99418
1.73106
1.43324
1.22914
1.15322
1.19923
1.71547
4.11956
8.12485
10.4461
11.0659
10.7715
10.5787
11.9142
13.3987
13.5716
11.8902
7.24259
3.33848
2.92483
2.88287
3.059
2.98307
3.24385
3.14581
3.53908
3.36322
4.77708
3.89646
9.99536
6.82357
14.7884
12.9096
17.2229
16.0982
19.9043
18.4752
23.893
22.7327
21.4634
27.4043
26.601
24.7959
25.9155
30.1626
29.492
28.8367
28.2358
31.5273
31.1122
30.2875
30.7098
33.5875
32.9982
32.4686
31.9735
34.6359
33.7337
32.9775
32.3117
39.3625
37.2111
35.3483
33.8951
46.0465
43.7749
41.1346
52.0944
53.3579
49.1534
52.8612
53.5173
50.1694
45.7405
50.5361
53.5083
45.0746
34.8742
34.4455
37.862
43.5746
41.5109
36.7465
31.4006
30.159
33.8475
32.9024
47.8842
73.4966
93.3327
29.5295
31.8493
1.19565
1.17606
1.44734
2.07975
2.768
3.48746
3.82141
3.72303
3.34894
2.78351
2.14393
1.65505
1.48319
1.8641
4.21267
8.24291
10.4704
11.0069
10.6011
10.4189
11.768
13.2421
13.4536
11.9439
7.55995
3.52789
2.79564
2.72586
2.89474
2.82513
3.0562
2.97177
3.27016
3.15296
3.65841
3.42305
5.0777
4.1061
10.107
7.08632
14.3926
12.4976
17.1552
15.8506
19.6383
18.0167
24.2466
23.2435
22.517
21.1858
27.5685
26.8056
25.1727
26.0227
29.8423
29.3649
28.4101
27.9592
30.1056
29.8565
29.3765
29.6197
31.7058
31.1914
30.7588
30.3993
32.8526
32.0874
31.4394
30.8471
38.4731
36.0979
34.2183
32.9141
46.9818
44.1595
41.1333
55.7737
56.7189
51.224
56.1819
56.8046
54.5718
50.1829
54.63
57.5791
48.4336
35.9566
35.1491
39.734
45.9884
43.8414
38.2892
31.37
29.5633
34.265
33.0358
49.1992
106.186
90.5345
28.9583
31.9324
1.3706
1.8002
2.77196
4.01196
4.82736
5.13771
5.03368
4.70439
4.19926
3.55155
2.83319
2.20956
2.16307
4.25426
8.24357
10.4432
10.8991
10.412
10.247
11.6118
13.0431
13.2928
11.9507
7.85917
3.61975
2.66474
2.74777
2.67943
2.89423
2.81668
3.08032
2.98036
3.34531
3.19955
3.81363
3.53292
5.25174
4.30012
9.8896
7.11166
13.6205
11.7555
16.5661
15.1636
20.1595
18.9856
17.6612
24.6964
23.6732
23.6336
22.2653
27.4193
26.7598
25.6185
26.3954
29.098
28.787
28.3717
28.0252
29.2217
29.1449
28.9722
29.0809
30.3205
29.8942
29.5782
29.3589
32.0615
31.455
30.9153
30.3948
38.2371
35.84
34.0468
32.9107
48.786
45.825
42.7779
59.6692
60.9997
54.8111
61.714
61.6853
58.1148
52.8924
56.7376
60.9626
50.5916
36.8534
35.658
41.791
48.5705
46.257
39.5635
31.3506
29.3862
34.5712
33.2267
47.295
100.616
71.7208
28.9301
31.3874
2.3467
3.59206
4.95576
5.73723
5.89337
5.82446
5.55694
5.15954
4.6279
3.97771
3.28404
2.84744
4.28757
8.14749
10.334
10.7543
10.2065
10.0609
11.4352
12.8142
13.0956
11.9162
8.13948
3.70919
2.59105
2.55319
2.73916
2.66645
2.90222
2.81541
3.11991
3.00247
3.43114
3.2601
3.97451
3.65099
5.36719
4.47838
9.40704
7.00807
12.6162
10.8482
15.9424
14.2548
20.8808
19.5922
17.6623
19.3437
26.0974
24.9383
26.351
24.5875
27.5809
27.0537
27.13
27.9629
28.8271
28.6409
29.578
29.4273
29.1718
29.2065
29.4615
29.3195
29.9331
29.5678
29.32
29.1914
32.1821
31.7011
31.2607
30.8306
39.8604
37.3464
35.4543
34.2269
52.8335
50.2213
47.2357
63.5469
65.8729
61.3605
69.4103
67.8814
60.4667
55.0639
60.0508
64.4328
53.755
37.7509
36.3749
43.5606
51.7545
49.2012
41.2731
31.4726
29.523
35.1269
33.6613
38.9967
96.6287
91.7649
28.9784
30.3993
4.46401
5.72018
6.19262
6.35434
6.24384
6.04605
5.74219
5.32832
4.80087
4.18724
3.65848
4.4082
7.91862
10.1236
10.5571
9.98888
9.86151
11.2311
12.5617
12.8678
11.8391
8.40584
3.82611
2.52463
2.42903
2.56935
2.64991
2.47986
2.72988
2.91489
2.81633
3.16332
3.02895
3.52605
3.32571
4.15333
3.78411
5.44917
4.65893
8.81462
6.82765
11.9875
10.0742
16.074
13.9311
22.7452
20.9511
19.3459
21.4531
29.4076
28.0035
30.5201
28.4242
29.1252
28.6441
30.6389
31.5675
29.5321
29.6169
32.6534
32.7271
30.5119
30.8435
31.6543
31.2411
30.487
30.2681
30.2232
30.2815
33.545
33.1943
32.9568
32.7816
44.1966
41.4244
39.2287
37.791
59.9465
58.0892
55.6576
68.5126
72.7079
70.2674
80.2671
76.7863
65.673
59.888
67.4303
72.3183
58.7189
39.3771
37.8066
46.9528
56.849
55.682
44.7956
31.9469
30.1094
36.3191
34.7375
40.876
84.4399
98.2495
29.2621
31.1667
6.17918
6.54577
6.54369
6.50285
6.3181
6.06438
5.7411
5.32918
4.82975
4.35314
4.73419
7.6713
9.85662
10.3099
9.74543
9.6549
11.0042
12.2904
12.6136
11.7249
8.65527
3.98053
2.48051
2.3202
2.37581
2.63343
2.53246
2.45804
2.72135
2.92983
2.81908
3.21242
3.05896
3.6277
3.39829
4.32507
3.92073
5.50393
4.81262
8.24613
6.65048
12.1074
9.88301
19.7832
17.2029
15.1047
26.1573
23.7669
22.2258
24.9184
33.9475
32.3891
34.7248
32.5899
32.6805
32.3026
35.3405
36.3174
32.0675
32.429
37.1023
37.2541
33.8623
34.4062
35.6189
35.0179
32.747
32.8026
33.0364
33.4052
37.1203
36.9775
37.0366
37.309
53.0497
50.5185
48.3798
46.9912
70.4694
70.4839
70.2369
79.0583
85.0991
83.424
100.195
91.5339
76.1018
67.6224
78.1121
84.0886
67.0721
42.7572
40.8203
54.1697
69.0278
69.3951
52.3116
33.2546
31.2495
38.9647
37.3801
46.3964
62.7105
74.8142
30.5336
34.1836
6.6749
6.72645
6.59625
6.43309
6.20108
5.94088
5.64538
5.28409
4.91272
5.14325
7.46117
9.53121
10.0061
9.47901
9.4402
10.7696
12.0085
12.3412
11.5752
8.86641
4.17678
2.46403
2.22669
2.25519
2.30978
2.62158
2.51691
2.42971
2.71488
2.9443
2.8206
3.25999
3.08866
3.71954
3.46623
4.42721
4.03666
5.53121
4.88575
8.02366
6.5593
14.1912
10.4177
22.7962
19.9634
16.9698
20.3203
30.2681
27.6569
25.6724
28.4526
38.1828
36.5853
37.8386
35.7167
37.2643
37.0265
39.709
40.6659
36.207
36.7294
42.036
42.1037
39.3865
39.907
40.9733
40.4313
37.5958
38.0084
38.3944
38.876
46.3524
46.3577
46.5604
46.8138
69.4969
68.5187
67.7928
67.092
86.2244
89.5712
94.5181
92.9113
104.618
111.166
149.617
122.101
88.5481
80.1994
94.8797
101.603
84.8868
49.9341
47.3488
67.953
85.1758
83.9706
64.9792
35.1151
33.9831
44.4205
40.7132
45.9849
66.9507
65.3291
33.6194
38.3471
6.72935
6.62754
6.41958
6.2035
5.98227
5.79891
5.59693
5.36881
5.56253
7.33794
9.14924
9.63643
9.19022
9.21928
10.5343
11.7255
12.0624
11.4036
9.00456
4.4209
2.47228
2.15136
2.14817
2.18114
2.30591
2.39909
2.21299
2.60276
2.48931
2.70506
2.95364
2.82065
3.29661
3.11125
3.78122
3.51737
4.45902
4.09318
5.52945
4.90178
8.03415
6.53282
19.8384
19.3181
15.6326
12.426
25.7584
23.0787
22.6258
33.5295
31.0915
28.2447
30.6821
41.489
39.7143
39.9147
37.6139
41.8826
41.5187
43.2835
44.4165
41.4115
41.8454
47.1519
47.025
47.3436
47.385
47.3999
47.3023
47.0141
47.2347
47.314
47.3139
66.9088
66.9604
67.04
66.3067
97.4207
99.6258
101.259
102.353
124.253
144.552
172.236
121.318
151.602
179.454
190.628
184.059
117.422
102.626
137.045
152.228
104.555
60.8436
55.8588
81.6276
105.07
104.471
78.019
39.7545
37.7148
50.4427
49.3401
47.5152
75.9568
81.3697
37.584
43.8103
6.51077
6.3517
6.10643
5.94888
5.82697
5.75901
5.69313
5.93067
7.23631
8.68718
9.18905
8.87535
9.0102
10.3113
11.4511
11.7875
11.2244
9.08609
4.71275
2.50593
2.09236
2.05733
2.07169
2.08892
2.37442
2.25242
2.18387
2.58722
2.46551
2.69538
2.95714
2.81798
3.31557
3.12177
3.81031
3.5438
4.46931
4.11853
5.51969
4.90172
8.54835
6.56817
21.7477
20.4319
17.8633
15.2569
27.1091
25.0058
23.8205
35.4099
33.103
29.2129
31.521
44.3491
42.0368
41.5307
38.8067
46.2782
45.6821
46.6365
48.1003
47.3234
47.3821
52.6962
52.2432
58.7277
57.8871
55.3413
56.0614
64.8967
62.9859
61.9276
60.5188
103.428
104.435
105.086
103.242
167.887
169.257
172.304
171.176
184.956
185.532
405.373
180.197
198.858
432.494
445.745
440.616
173.138
140.902
178.77
170.109
144.273
73.2392
67.0341
103.226
145.592
147.613
100.752
44.2763
42.7663
67.516
56.7524
52.8599
78.6788
99.0659
44.1762
48.8715
6.02784
5.94505
5.80914
5.7978
5.78953
5.84235
6.12948
7.10328
8.14293
8.6531
8.55288
8.79496
10.101
11.1869
11.519
11.044
9.13633
4.99562
2.55415
2.04801
1.97998
1.97978
1.96991
2.02285
2.34451
2.22691
2.14882
2.56565
2.43561
2.67938
2.95716
2.80865
3.32465
3.12553
3.82539
3.55743
4.47352
4.13204
5.5202
4.88972
9.74293
6.81027
22.4384
20.9141
18.8451
19.2504
17.769
14.6236
27.4464
25.6685
24.1433
36.372
33.9708
29.3816
31.6576
47.3476
44.2036
43.1089
39.6956
50.9185
50.0083
50.1541
52.1786
54.1566
53.7058
59.1348
58.1674
76.6368
73.8983
66.2168
68.4648
98.8076
90.1242
84.9845
82.9499
172.336
170.311
170.774
166.709
406.563
388.541
397.838
396.981
441.614
387.513
824.371
454.401
456.613
855.796
853.753
851.906
457.09
188.475
453.041
438.917
192.298
95.116
101.588
150.535
198.083
206.433
150.819
53.948
52.2412
79.2222
75.0197
57.9735
28.9367
112.489
49.7228
53.8146
5.60956
5.70092
5.70714
5.76218
5.87285
6.17131
6.85385
7.58793
8.06913
8.19809
8.58135
9.90907
10.9224
11.25
10.8589
9.15156
5.20815
2.60322
2.0145
1.91473
1.90119
1.87186
1.90255
1.93603
2.10256
2.3078
2.18423
2.54135
2.40519
2.65959
2.9458
2.79298
3.32707
3.1244
3.83115
3.56232
4.47002
4.13777
5.56556
4.85314
11.1505
7.23137
22.6095
21.0267
19.3403
17.1518
15.1094
27.3853
25.7722
24.1395
36.836
34.2184
29.1272
31.3931
50.7207
46.5761
44.8611
40.638
56.1613
54.9269
54.0222
56.9946
62.7084
61.356
67.0322
65.1482
106.525
99.9304
82.8602
87.488
162.595
146.501
121.058
120.3
402.283
405.176
413.364
422.056
830.984
794.505
812.137
808.692
871.904