/*--------------------------------*- C++ -*----------------------------------*\
  =========                 |
  \\      /  F ield         | OpenFOAM: The Open Source CFD Toolbox
   \\    /   O peration     | Website:  https://openfoam.org
    \\  /    A nd           | Version:  dev
     \\/     M anipulation  |
\*---------------------------------------------------------------------------*/
FoamFile
{
    version     2.0;
    format      ascii;
    class       volScalarField;
    location    "2500";
    object      p_rgh;
}
// * * * * * * * * * * * * * * * * * * * * * * * * * * * * * * * * * * * * * //

dimensions      [1 -1 -2 0 0 0 0];

internalField   nonuniform List<scalar> 
9841
(
0.00409211
0.00542196
0.00458485
0.00542929
0.00811629
0.00380985
0.00468184
0.00953322
0.00833715
0.00316034
0.00410705
0.0100547
0.0107468
0.00718367
0.00240612
0.00410971
0.00933143
0.0119952
0.0102759
0.0061331
0.00201148
0.00342773
0.00811805
0.013009
0.0127137
0.00925919
0.00488349
0.00130451
0.00293225
0.00738693
0.0127253
0.0141567
0.0120259
0.00786992
0.00418055
0.000916678
0.00267462
0.00652733
0.0119737
0.0146978
0.0140557
0.0107048
0.00640719
0.00334854
0.000550105
0.00261878
0.0059545
0.0111791
0.0147077
0.0151956
0.0131632
0.0091923
0.00573753
0.00263105
0.000129696
0.00236552
0.00548381
0.0102042
0.0141978
0.0160523
0.0149698
0.0120178
0.00796557
0.00499907
0.00215941
-0.00038546
0.00205353
0.00508511
0.00901507
0.0134157
0.016191
0.0162943
0.0138982
0.0104823
0.00690277
0.0042914
0.0017455
-0.000744089
0.00167507
0.00435804
0.00805382
0.0118715
0.0158466
0.017057
0.0158548
0.0126487
0.00925793
0.00620153
0.00361543
0.00130291
-0.00100739
0.00150176
0.00415298
0.00719881
0.0101284
0.0152763
0.0171437
0.0171212
0.0146826
0.0110472
0.00821366
0.00540761
0.00300528
0.000804667
-0.0013205
0.0012253
0.00370365
0.00630008
0.00985013
0.0145984
0.0171525
0.0178666
0.0164081
0.0134426
0.0100841
0.00738499
0.004872
0.00264135
0.000395745
-0.00170007
0.000841113
0.00297082
0.00593478
0.00915583
0.0128292
0.0166737
0.0181041
0.0174543
0.0149141
0.0117689
0.00918311
0.00663872
0.00410251
0.00220077
0.000166399
-0.00189996
0.000628627
0.00287467
0.00513192
0.00843371
0.0121079
0.0160015
0.0180234
0.0183768
0.0167378
0.0139051
0.0107767
0.00827842
0.00590352
0.00385914
0.00186442
-0.000169625
-0.00221471
0.000444097
0.00247965
0.00450898
0.00773274
0.0109527
0.0148071
0.0175986
0.018635
0.0178082
0.0154985
0.0121811
0.00955329
0.00764842
0.00546397
0.00345196
0.00147383
-0.000540695
-0.00239506
0.000200267
0.00189744
0.00426768
0.00647799
0.00936805
0.0135915
0.0168156
0.0186128
0.0185753
0.0167018
0.013929
0.0113096
0.00899303
0.00690793
0.00505625
0.00310225
0.00127325
-0.00069309
-0.00258173
-0.000148847
0.00169719
0.00379689
0.00572809
0.00858308
0.0128227
0.0156516
0.018229
0.0189747
0.0178419
0.0154801
0.0131167
0.0105957
0.00847407
0.00651442
0.00458309
0.00282615
0.000863842
-0.000912155
-0.00273546
-0.000411484
0.00122226
0.00328485
0.00539647
0.00790979
0.0115171
0.0150502
0.0177435
0.0189315
0.0187265
0.0170651
0.0143654
0.0119394
0.009656
0.00785483
0.00609279
0.00423149
0.00253461
0.000705381
-0.00105438
-0.00289282
-0.000654165
0.000976913
0.00287001
0.00486159
0.00688743
0.0106009
0.0143549
0.0169686
0.0186326
0.0191572
0.0179088
0.0157875
0.0129409
0.0111818
0.00918631
0.00749436
0.005781
0.00402271
0.00232542
0.000489679
-0.00121432
-0.00301316
-0.000799689
0.000690856
0.0021992
0.00409314
0.00646036
0.00963645
0.0132156
0.0161803
0.018101
0.0192608
0.0187307
0.0171636
0.014274
0.0123898
0.0103539
0.00864453
0.00713329
0.00546947
0.0036865
0.00208122
0.000404537
-0.00129874
-0.0031088
-0.00106086
0.00018871
0.00170747
0.0038611
0.00558878
0.00786775
0.0119545
0.0151692
0.017439
0.0190706
0.0190351
0.0179829
0.0155314
0.0134118
0.0117426
0.00997506
0.00824816
0.0068057
0.0052234
0.00349581
0.00194382
0.000313723
-0.00134643
-0.0031255
-0.00125405
-8.36243e-05
0.00146199
0.00330206
0.00521651
0.00761483
0.011176
0.0141729
0.0167625
0.0186546
0.0192089
0.0186036
0.0165378
0.0145556
0.0126456
0.0112048
0.00958873
0.00807522
0.0064587
0.00500033
0.00343705
0.00184721
0.000185245
-0.00140972
-0.003151
-0.00152339
-0.000374074
0.000956044
0.00264997
0.00463167
0.0066537
0.00978282
0.0132766
0.0158746
0.0179265
0.0189476
0.0188385
0.0176391
0.0154413
0.0138237
0.0121773
0.0105897
0.00924148
0.00779064
0.00626373
0.00482842
0.00332309
0.00168749
0.000165933
-0.00138466
-0.00306023
-0.00167913
-0.000705196
0.000558148
0.00204316
0.00385012
0.00599564
0.0087692
0.0123224
0.0148098
0.0173022
0.0187205
0.0189976
0.0179169
0.0165731
0.0146957
0.0130064
0.0117003
0.0101382
0.00907746
0.0076474
0.00613701
0.00464646
0.00327895
0.00173425
0.00019324
-0.00135403
-0.00302033
-0.00187257
-0.00106058
8.47681e-05
0.00168373
0.00320883
0.00553046
0.00791308
0.0112038
0.0140454
0.0165937
0.0182432
0.0188572
0.0184233
0.0170003
0.0154933
0.0139462
0.0125328
0.0114343
0.0101075
0.00884418
0.00747965
0.00607459
0.00467995
0.0031349
0.00173358
0.000250303
-0.00126546
-0.00282067
-0.00206878
-0.0013869
-0.000217989
0.0012384
0.00279276
0.00486639
0.0072042
0.0102237
0.0131195
0.0156285
0.0175763
0.0185939
0.0186549
0.0174387
0.0162709
0.0145932
0.0133548
0.0122072
0.0110924
0.00969069
0.00867168
0.0073932
0.00597675
0.00463187
0.00318598
0.00175894
0.000306408
-0.00117567
-0.00270424
-0.00232552
-0.00170733
-0.000581109
0.000712872
0.00206584
0.00408774
0.00612327
0.00926833
0.0121569
0.014665
0.0167587
0.0180721
0.0184815
0.0179724
0.0167113
0.0155111
0.014062
0.0130072
0.0119635
0.0107891
0.00974346
0.00856576
0.00732872
0.00602642
0.0045414
0.0031713
0.00173946
0.000297505
-0.000990209
-0.00250478
-0.00252717
-0.00198416
-0.00111168
0.000204964
0.00144146
0.0036999
0.00576095
0.0086568
0.0111693
0.0136854
0.0158624
0.0174272
0.0181751
0.0179897
0.0170793
0.0159605
0.0148222
0.013677
0.0127713
0.0117623
0.0105795
0.00956625
0.00843899
0.00733809
0.00599447
0.00463888
0.00326142
0.00182062
0.000525442
-0.000803182
-0.00216251
-0.0026323
-0.00238814
-0.00153461
-0.00019092
0.00117668
0.00319635
0.00510474
0.00720071
0.0102681
0.0126532
0.0149108
0.016607
0.0176959
0.0177277
0.0172593
0.0163183
0.0152309
0.0141633
0.0134241
0.0126187
0.0116186
0.0106576
0.00969366
0.00853176
0.00730468
0.00600788
0.00469999
0.0033347
0.00193095
0.000684157
-0.000610927
-0.00182663
-0.00262139
-0.00272191
-0.00217292
-0.000638171
0.000820243
0.00251003
0.0040052
0.00625452
0.00961168
0.0117692
0.0139814
0.0157757
0.0171436
0.0176262
0.0172524
0.016481
0.0156751
0.0148313
0.0138643
0.0133201
0.012487
0.0117791
0.0108641
0.00981226
0.00864684
0.00737708
0.00605768
0.00464345
0.00330789
0.00208711
0.00091681
-0.000278337
-0.00146822
-0.00237061
-0.00286616
-0.00267561
-0.00113278
0.000343315
0.00157057
0.003756
0.00626785
0.00887606
0.0109001
0.0129644
0.0148545
0.0163223
0.0171464
0.017155
0.0167061
0.0157038
0.0151206
0.0142586
0.0137667
0.0130804
0.0124605
0.0117576
0.010802
0.00989102
0.00866787
0.00731913
0.00594163
0.00459608
0.00332026
0.00215787
0.00113458
6.73762e-05
-0.00197471
-0.00100123
-0.00188243
-0.00275492
-0.00288194
-0.00185857
-0.000437746
0.00096706
0.0030348
0.00512992
0.00790725
0.0101254
0.0121639
0.014027
0.0153526
0.0164442
0.0167936
0.0163205
0.0160327
0.0153047
0.0148381
0.0142298
0.0137988
0.0131996
0.012642
0.0118865
0.0109151
0.00985259
0.00864968
0.00731323
0.00593692
0.00459661
0.00338666
0.00228259
0.00109034
-0.000218494
0.000497496
-0.00170522
-0.000812729
-0.000829967
-0.00177388
-0.00199731
-0.0016555
-0.00079479
0.000741435
0.00229414
0.00437864
0.00710827
0.00908433
0.0111785
0.0130423
0.0144954
0.0156207
0.0161293
0.016295
0.0157744
0.0151764
0.0147988
0.0145998
0.0142059
0.0137067
0.0131443
0.0127377
0.0120589
0.011018
0.00993314
0.00870806
0.00729349
0.00588935
0.00457427
0.0033367
0.00214128
0.00253737
0.0011127
0.00167818
0.00170117
1.19026e-05
0.000730602
-0.00144476
-0.000481761
-0.00135755
-0.000362538
-0.00141512
-0.001716
-0.00103971
0.00024966
0.00151472
0.00358137
0.00651557
0.00817435
0.0101778
0.011959
0.0136489
0.0147442
0.0155814
0.0157657
0.0154489
0.0151921
0.0149963
0.0145983
0.0145216
0.0142827
0.0139169
0.0134924
0.0128927
0.0121356
0.0111928
0.0100884
0.00872801
0.00721666
0.00577593
0.00435819
0.00292663
0.00336018
0.00225933
0.00137169
0.00218854
0.00193467
0.000332928
0.00106653
-0.00114381
-0.000152606
-0.00139783
-0.000867544
8.60394e-05
-0.00134362
-0.00138323
-0.000115049
0.00106325
0.00307638
0.00592125
0.00749326
0.00916514
0.0110658
0.0125761
0.0139578
0.0147531
0.0151541
0.0152803
0.0151201
0.0148164
0.014792
0.0145924
0.0146105
0.0145178
0.0140745
0.0137306
0.0131994
0.0124147
0.0114473
0.0101876
0.00869319
0.00702065
0.00541055
0.00378073
0.0042213
0.00276695
0.00320983
0.00262122
0.0017074
0.00241078
0.0022519
0.000730034
0.00149455
-0.000797129
0.000242997
-0.001335
-0.00146379
7.83141e-05
-0.000116637
-0.000766811
-3.73537e-05
0.000655286
0.00211502
0.00475267
0.00679738
0.0083077
0.0100762
0.0115311
0.0129266
0.0139213
0.0145077
0.0146762
0.014572
0.0145865
0.0145786
0.0145935
0.0147304
0.0147642
0.0146287
0.0144291
0.0141375
0.0135989
0.012743
0.0116573
0.0102198
0.00851058
0.00659524
0.00466489
0.00516437
0.00362092
0.00402601
0.00300799
0.00335332
0.00280443
0.00213729
0.0026961
0.00266095
0.00118129
0.0019804
-0.000429507
0.000699896
-0.00124211
-0.00162819
-7.06893e-05
0.000333645
8.11905e-06
-9.62647e-05
0.000468281
0.00175248
0.00421676
0.00615961
0.00755262
0.00914636
0.0104685
0.011915
0.0129863
0.0137268
0.0139506
0.0141604
0.0142043
0.0140404
0.0144337
0.0145566
0.0148202
0.0147983
0.0150231
0.0149201
0.0146876
0.0140811
0.0130671
0.011807
0.0100741
0.00798508
0.00569618
0.0063175
0.00444194
0.00489208
0.00367527
0.00399566
0.00313359
0.00341131
0.00304018
0.00263468
0.00306652
0.00314698
0.00170302
0.00254915
-2.59677e-05
0.001207
-0.0011405
-0.00157664
-0.000266062
0.000353825
0.000545657
0.000260741
0.000489698
0.0013106
0.00325103
0.00532712
0.00669316
0.00812748
0.00953671
0.0108858
0.0119749
0.0128369
0.0133074
0.0132803
0.013534
0.0136934
0.0141525
0.0144195
0.0144916
0.0150586
0.0151628
0.0156079
0.0155363
0.0153145
0.014627
0.0133351
0.0118058
0.00961189
0.00699693
0.00776761
0.00540174
0.00598539
0.00433416
0.00471676
0.00365909
0.00390441
0.00330181
0.00350329
0.00335428
0.00322849
0.00351985
0.00374186
0.00230123
0.00321804
0.000406379
0.00177183
-0.00102751
-0.00147168
-0.000380444
0.000133503
0.000523821
0.000671751
0.000679552
0.000929255
0.00275579
0.00461862
0.00585024
0.00714235
0.00855913
0.00984435
0.0109734
0.0118566
0.0124891
0.0126722
0.0130288
0.0134574
0.0135418
0.0140065
0.0143657
0.0147813
0.0153967
0.0157896
0.0163096
0.0162722
0.0160253
0.0152167
0.0134322
0.0115709
0.00868204
0.0096229
0.0066846
0.00748373
0.00518086
0.00576543
0.00417653
0.00452322
0.00367121
0.0038514
0.00354272
0.00366819
0.00375591
0.00394301
0.004093
0.00447784
0.0029891
0.00400715
0.000865951
0.00240082
-0.000910887
-0.00132314
-0.000424035
-4.68911e-05
0.000469612
0.000841352
0.000705657
0.000807197
0.00224965
0.00372168
0.0050456
0.0063852
0.00759627
0.00879628
0.00991811
0.0108267
0.011485
0.0119895
0.0122298
0.0127043
0.0130065
0.0134855
0.0141211
0.0146403
0.0152723
0.0160193
0.0166881
0.0172011
0.0171355
0.016813
0.0158033
0.0134372
0.0108316
0.0121795
0.00854262
0.00975336
0.00655051
0.00763505
0.00503467
0.00585566
0.00411806
0.004619
0.00378624
0.00403044
0.00388633
0.00399999
0.00430364
0.00480769
0.00484645
0.00541558
0.00378141
0.00494362
0.00135085
0.0031022
-0.000795514
-0.00114653
-0.000409843
-0.000220761
0.00030894
0.000850036
0.00101889
0.00106659
0.00188627
0.00305215
0.0042192
0.00541826
0.0065425
0.00772675
0.00883103
0.00976128
0.0105386
0.0110841
0.0114013
0.0117534
0.0123105
0.0128779
0.0135199
0.0144422
0.015148
0.0159676
0.0169289
0.0177933
0.018268
0.0181472
0.0177289
0.016547
0.0137893
0.0157993
0.0115237
0.0139582
0.00929394
0.0118954
0.00725636
0.0097789
0.00567949
0.00786273
0.00468479
0.00634968
0.00431494
0.00536151
0.00448525
0.00500137
0.00518652
0.00588101
0.00599688
0.00677179
0.00469732
0.00607396
0.00185355
0.00387984
-0.000684208
-0.00095861
-0.000385364
-0.000351871
0.000181467
0.000716158
0.000943352
0.0010608
0.00151217
0.00258512
0.00347525
0.00453568
0.0056732
0.00673856
0.00773974
0.00873396
0.00947725
0.0100835
0.010498
0.0109823
0.0115455
0.012009
0.0127791
0.0137174
0.0149127
0.0158026
0.0168566
0.0180353
0.0190219
0.0195733
0.0196359
0.0200569
0.0190911
0.0190928
0.0171958
0.0224227
0.0159325
0.0225366
0.0143823
0.0222684
0.0123184
0.0209794
0.0102682
0.0184769
0.00829077
0.0154333
0.00678999
0.0118588
0.00605064
0.00897505
0.00729999
0.00734771
0.00853674
0.00948856
0.00576498
0.00752599
0.00236442
0.00474041
-0.00057924
-0.000792841
-0.000377304
-0.000398513
7.13292e-05
0.000526572
0.000803434
0.00105143
0.00126865
0.0020473
0.00288709
0.00377478
0.00475662
0.00573798
0.00671337
0.00761679
0.00847608
0.00909654
0.00949611
0.0100131
0.0105284
0.0110942
0.0119152
0.0128963
0.0140602
0.0155006
0.0166083
0.0180208
0.019465
0.0205797
0.0216153
0.0253733
0.0401256
0.0285708
0.0417918
0.0314331
0.0440633
0.0340187
0.0496662
0.0353364
0.0544154
0.0341892
0.0566609
0.0304831
0.0554696
0.0242563
0.0495066
0.0174062
0.0371239
0.0117161
0.0246454
0.0144114
0.00995815
0.0164689
0.017226
0.00706061
0.00979482
0.00288544
0.0057255
-0.00048261
-0.000657124
-0.000377993
-0.000421087
-6.18397e-05
0.000320461
0.000597895
0.000834601
0.00101606
0.00167506
0.00230093
0.00302349
0.00385913
0.00474773
0.0056994
0.00654836
0.00735269
0.00801407
0.00852067
0.00896673
0.00950513
0.0102444
0.0109341
0.0119434
0.0131354
0.0145032
0.0162168
0.0176925
0.0194777
0.0211061
0.0231703
0.0296368
0.05818
0.0899155
0.10671
0.0586865
0.0751968
0.0682204
0.0890247
0.0768988
0.100987
0.0835116
0.111534
0.0863324
0.119121
0.0845773
0.122495
0.0749733
0.119131
0.0545484
0.104381
0.0324431
0.0736962
0.0388263
0.0164824
0.0421979
0.0408818
0.00885123
0.0145503
0.00342949
0.00694133
-0.000386534
-0.000544744
-0.000378143
-0.000431868
-0.000170055
0.000122814
0.000367753
0.000574151
0.000866604
0.00121258
0.00174927
0.00231208
0.00305057
0.00382269
0.00464166
0.00551649
0.00624688
0.00686816
0.00742722
0.00791114
0.00848726
0.00905317
0.00989691
0.0108471
0.0120686
0.0134972
0.0151009
0.016985
0.0188865
0.0211968
0.0240554
0.0340031
0.0702927
0.119481
0.132268
0.146989
0.162392
0.109903
0.129386
0.12492
0.14816
0.138812
0.164341
0.150744
0.179551
0.159194
0.19262
0.162666
0.201876
0.156468
0.204139
0.134858
0.193688
0.0908633
0.162368
0.102562
0.0348789
0.10589
0.0978036
0.011903
0.0264922
0.00402135
0.00862899
-0.00027172
-0.000417406
-0.000371236
-0.000429221
-0.000248759
-4.35832e-05
0.000145324
0.000317749
0.000542104
0.000814727
0.00126946
0.00170324
0.00228087
0.00295959
0.00367478
0.00443738
0.00516714
0.00577289
0.00632697
0.00681156
0.00734972
0.00799047
0.00872609
0.00964422
0.0108259
0.0122698
0.0139908
0.015974
0.0183481
0.0207878
0.0242905
0.0368492
0.0831633
0.142452
0.145324
0.174514
0.184901
0.201904
0.213548
0.169135
0.187028
0.187506
0.208119
0.205065
0.227126
0.221744
0.246151
0.235798
0.264109
0.245324
0.279236
0.245106
0.287728
0.227929
0.283353
0.184112
0.256776
0.197804
0.0790239
0.200757
0.18819
0.0183235
0.0556778
0.00468501
0.0112901
-0.00011892
-0.000294407
-0.000352588
-0.000408203
-0.000294518
-0.000171968
-4.47817e-05
7.74245e-05
0.000238681
0.000483921
0.000810596
0.00113992
0.00160013
0.00213569
0.00275246
0.00340103
0.00407537
0.00471046
0.00523319
0.00571196
0.00622747
0.00687817
0.00756389
0.00837102
0.00945199
0.0108511
0.0125907
0.0146957
0.0170982
0.019919
0.0239433
0.0382415
0.0901987
0.175482
0.189741
0.196573
0.221266
0.222424
0.246671
0.249346
0.224931
0.237608
0.245474
0.260001
0.265908
0.281386
0.286822
0.304164
0.306325
0.32715
0.321874
0.348131
0.328082
0.362977
0.317121
0.365189
0.27879
0.345484
0.29179
0.156831
0.292727
0.27755
0.0325346
0.108227
0.00537733
0.0156803
-0.000136265
-0.00028941
-0.000358501
-0.000310462
-0.000254803
-0.000190895
-0.000125011
-1.97736e-05
0.000178045
0.00037283
0.000619773
0.00096181
0.00136053
0.00188412
0.00242876
0.00300793
0.00357753
0.00409318
0.00458022
0.00507136
0.0056806
0.00639322
0.00708531
0.00802137
0.00931224
0.010953
0.0130736
0.0156254
0.0187408
0.0232538
0.0389068
0.0931009
0.170922
0.206104
0.197686
0.21907
0.213655
0.245676
0.237551
0.273241
0.266026
0.269511
0.274654
0.292589
0.29949
0.316643
0.324625
0.342356
0.352405
0.367623
0.381277
0.389352
0.408324
0.402019
0.429299
0.398052
0.438041
0.366811
0.425618
0.378988
0.242726
0.378675
0.361967
0.0583079
0.179505
0.00611526
0.0230181
-0.000121949
-0.000270242
-0.000285217
-0.000285248
-0.000282608
-0.000275155
-0.000230757
-0.000106732
-5.21946e-07
0.000159535
0.000374468
0.000675394
0.0010539
0.00150229
0.00198332
0.00248931
0.00298663
0.00346737
0.00394279
0.00447569
0.005147
0.00580352
0.0065811
0.00770628
0.00921782
0.0112152
0.0138065
0.0171895
0.0226092
0.039209
0.0919009
0.16295
0.190888
0.18376
0.204849
0.193846
0.227291
0.216224
0.253304
0.238258
0.285996
0.269363
0.300236
0.296678
0.328342
0.327056
0.357807
0.3587
0.3898
0.393398
0.421167
0.428935
0.448802
0.461883
0.467376
0.488237
0.469874
0.502362
0.44637
0.496361
0.457597
0.32218
0.456808
0.443663
0.390568
0.0952986
0.252073
0.00691902
0.0334865
-0.000106849
-0.000213475
-0.000266033
-0.000322821
-0.000362936
-0.00038262
-0.000336296
-0.000306434
-0.000236521
-0.000120401
5.77447e-05
0.000309899
0.00063252
0.00100822
0.00142908
0.00188431
0.00234487
0.00280775
0.00329599
0.00386906
0.00452905
0.00515394
0.00607831
0.00738715
0.00919577
0.011688
0.0153245
0.0218931
0.0396477
0.0889876
0.155263
0.172696
0.184459
0.174446
0.185591
0.171371
0.22062
0.202441
0.248099
0.223541
0.288471
0.262401
0.321818
0.308964
0.356069
0.349632
0.392322
0.388682
0.43227
0.43057
0.469823
0.47358
0.502619
0.511754
0.525578
0.542305
0.533007
0.560354
0.516443
0.552723
0.533072
0.492611
0.524433
0.427797
0.343354
0.40809
0.485735
0.52527
0.525662
0.477512
0.140035
0.378192
0.340282
0.260864
0.0071887
0.0374949
-8.03796e-05
-0.000201017
-0.000293163
-0.000388557
-0.000464418
-0.000494593
-0.000526957
-0.000553737
-0.000534198
-0.000471314
-0.000352401
-0.000169179
8.0278e-05
0.00040615
0.000787703
0.00121647
0.00166607
0.00213468
0.00263507
0.00322455
0.00377413
0.00446924
0.0055277
0.00707499
0.00941304
0.0132847
0.021282
0.0401966
0.085908
0.148423
0.165231
0.146537
0.144249
0.160283
0.152068
0.154228
0.138793
0.198129
0.174359
0.232049
0.199833
0.286856
0.253838
0.335938
0.314439
0.381762
0.368328
0.426115
0.419511
0.473618
0.469076
0.516485
0.518204
0.553521
0.559575
0.562035
0.571331
0.577813
0.584158
0.567909
0.583487
0.589032
0.607259
0.595226
0.563214
0.54903
0.573087
0.581082
0.554519
0.462434
0.440804
0.519143
0.554768
0.556403
0.509429
0.28922
0.129216
0.221288
0.410785
0.370674
0.00707056
0.138885
0.0634724
0.0241392
-7.16316e-05
-0.000218
-0.000342514
-0.000476734
-0.000569233
-0.000669558
-0.000777263
-0.000854851
-0.000906999
-0.00092038
-0.000882851
-0.000785884
-0.000588932
-0.000284932
8.20816e-05
0.000513238
0.000972928
0.00144566
0.00194453
0.00246333
0.00293932
0.0037381
0.00499026
0.00709299
0.0112937
0.0209482
0.0415118
0.0833498
0.142066
0.159119
0.128683
0.117316
0.112072
0.128039
0.121338
0.119525
0.104269
0.168787
0.141397
0.217853
0.182104
0.287885
0.251257
0.34774
0.320682
0.407996
0.389994
0.463064
0.454567
0.516635
0.511071
0.55996
0.553946
0.5872
0.589324
0.587373
0.582919
0.596989
0.60274
0.606148
0.596858
0.611091
0.615331
0.632505
0.623067
0.592209
0.579084
0.601147
0.609665
0.58367
0.493885
0.471631
0.549117
0.585022
0.583145
0.538952
0.316338
0.244983
0.441254
0.400407
0.0252553
0.000729058
0.00889192
0.156311
0.0738101
-7.57664e-05
-0.000246674
-0.000409327
-0.000569515
-0.000725528
-0.000902733
-0.00106979
-0.00123412
-0.00138092
-0.00149542
-0.00155865
-0.00153304
-0.00136592
-0.00105877
-0.000667116
-0.000199174
0.000279553
0.000737683
0.0011944
0.00153966
0.00202798
0.00293863
0.00487253
0.00960353
0.021234
0.0433093
0.082086
0.136517
0.155045
0.13035
0.0891322
0.0940071
0.0876826
0.087437
0.0948539
0.0900943
0.0945841
0.0761063
0.14895
0.119472
0.213243
0.176815
0.301531
0.264142
0.36613
0.336307
0.440849
0.422056
0.503944
0.494931
0.544685
0.535646
0.576403
0.5682
0.560799
0.552432
0.605747
0.600833
0.59284
0.583663
0.620935
0.623103
0.619522
0.625333
0.638767
0.63811
0.654487
0.648939
0.620767
0.607859
0.629837
0.638348
0.612023
0.523562
0.501855
0.577629
0.613215
0.611561
0.568
0.345515
0.27287
0.472514
0.432972
0.0277873
-0.0052979
0.00587408
0.180316
0.0890115
-8.63542e-05
-0.000288322
-0.000480292
-0.000697303
-0.000921579
-0.00117198
-0.00143719
-0.0017177
-0.00198932
-0.00223017
-0.00238687
-0.00241515
-0.00223074
-0.0018752
-0.00140677
-0.000890666
-0.000416
-1.81334e-05
0.000264971
0.000482542
0.00101419
0.00278167
0.0085673
0.0225369
0.0458496
0.0816341
0.132026
0.151863
0.132489
0.0848269
0.0652474
0.0653926
0.0611492
0.0628522
0.065818
0.0620233
0.0864875
0.0645735
0.143454
0.113172
0.227079
0.192036
0.337113
0.303797
0.398179
0.369384
0.482059
0.4654
0.525602
0.518664
0.545097
0.537743
0.532041
0.527379
0.572855
0.560862
0.548316
0.536444
0.611202
0.600182
0.586224
0.568961
0.638234
0.631667
0.620413
0.653329
0.664528
0.652363
0.666219
0.670098
0.649666
0.636661
0.658986
0.666591
0.640801
0.553553
0.533174
0.606288
0.642035
0.640045
0.597063
0.379235
0.305862
0.505495
0.467937
0.0278568
-0.0183773
-0.00262298
0.21273
0.104434
-0.000100511
-0.000333893
-0.00056776
-0.000848062
-0.00114801
-0.00150869
-0.00190973
-0.00234675
-0.00277691
-0.00315167
-0.00338006
-0.0034014
-0.00312367
-0.00266786
-0.00210112
-0.0015605
-0.00115162
-0.000892207
-0.000854978
-0.000645497
0.00103552
0.00838333
0.0249146
0.0488777
0.0820983
0.128276
0.148935
0.134244
0.0904496
0.0475549
0.0522412
0.0429284
0.0449158
0.0406405
0.0411225
0.0500286
0.0430017
0.0893072
0.062948
0.157691
0.122622
0.271455
0.239234
0.393268
0.365718
0.444578
0.420061
0.51212
0.503148
0.516114
0.514579
0.52645
0.518332
0.512064
0.50672
0.550516
0.532868
0.516972
0.503766
0.6044
0.582956
0.558343
0.533439
0.642823
0.62795
0.604766
0.679066
0.684855
0.654101
0.666584
0.679926
0.678163
0.665981
0.687674
0.692458
0.669882
0.583229
0.56399
0.634327
0.670561
0.667672
0.624841
0.416109
0.344754
0.53805
0.502988
0.0272774
-0.0378004
-0.0180817
0.25172
0.128263
-0.000114928
-0.000383846
-0.000665945
-0.00101923
-0.00142904
-0.00194468
-0.00252651
-0.00317788
-0.00380299
-0.00427647
-0.00451925
-0.00443989
-0.00399593
-0.00338897
-0.0027476
-0.00225652
-0.00198482
-0.0020056
-0.00198198
-0.00020378
0.00903172
0.0281029
0.0521926
0.0831565
0.12548
0.145986
0.135112
0.0951435
0.044534
0.0281721
0.0281541
0.028152
0.0279008
0.0312452
0.029094
0.0456898
0.035801
0.112065
0.0716086
0.202717
0.159049
0.337874
0.306881
0.453006
0.430577
0.49029
0.473203
0.514567
0.513252
0.480488
0.482565
0.489926
0.485849
0.493774
0.486777
0.482427
0.480211
0.510346
0.49043
0.474312
0.462217
0.575711
0.544181
0.512819
0.484384
0.634388
0.604266
0.568155
0.698849
0.693541
0.641798
0.649192
0.678775
0.704174
0.694503
0.713767
0.712048
0.697922
0.611031
0.59253
0.661024
0.6979
0.693927
0.650631
0.454647
0.388603
0.568302
0.536269
0.034488
-0.0487142
-0.0219458
0.299726
0.18143
-0.000127135
-0.00043157
-0.000769791
-0.00122538
-0.00179441
-0.00252768
-0.0033779
-0.00429818
-0.00508382
-0.0056256
-0.00576526
-0.00546578
-0.00479904
-0.00403218
-0.00337775
-0.00301552
-0.0029991
-0.0030731
-0.000969327
0.0102627
0.0315856
0.0556491
0.0847382
0.12336
0.143081
0.134901
0.098422
0.0487473
0.0185251
0.0194854
0.0199153
0.0186757
0.0228651
0.0212435
0.0282887
0.0250482
0.0463878
0.0343462
0.151681
0.09286
0.266732
0.213766
0.405326
0.373378
0.488971
0.471238
0.509257
0.50135
0.494242
0.499493
0.499109
0.452432
0.457445
0.470127
0.463551
0.454142
0.449634
0.447959
0.449072
0.460217
0.440815
0.426382
0.416815
0.529303
0.491822
0.458091
0.429356
0.604768
0.561798
0.516707
0.707211
0.691975
0.607664
0.614457
0.659775
0.723963
0.720494
0.734129
0.720643
0.723747
0.6364
0.618138
0.686062
0.723326
0.718409
0.674476
0.493097
0.436007
0.59531
0.566388
0.0788473
-0.00858972
0.0646452
0.364374
0.285646
-0.000130082
-0.000465176
-0.000887017
-0.00149146
-0.00230096
-0.00335975
-0.00457355
-0.00575367
-0.00665892
-0.00709911
-0.00699936
-0.00638641
-0.00547867
-0.00458045
-0.00401231
-0.00388512
-0.003929
-0.00148218
0.0115083
0.0347493
0.0589867
0.0865856
0.121641
0.140103
0.133537
0.100127
0.0520393
0.0173897
0.0145754
0.0134207
0.0174509
0.0158635
0.0213726
0.0192686
0.0278486
0.0239867
0.0532491
0.0350709
0.194539
0.119148
0.329014
0.268643
0.446573
0.411208
0.492974
0.476595
0.503401
0.501258
0.47663
0.482451
0.468158
0.474087
0.421206
0.428683
0.445518
0.43698
0.411671
0.409516
0.410789
0.415045
0.40615
0.388713
0.377457
0.371566
0.47351
0.434487
0.400833
0.373414
0.559453
0.508945
0.460443
0.705952
0.672594
0.562051
0.570423
0.625278
0.733063
0.741902
0.743991
0.72028
0.746223
0.659393
0.640931
0.709425
0.746094
0.740903
0.696648
0.529474
0.484612
0.618754
0.592428
0.238587
0.132376
0.322829
0.438059
0.406243
-0.000106075
-0.000481267
-0.001036
-0.00187192
-0.00304723
-0.00457329
-0.00619036
-0.00749957
-0.00831458
-0.00854998
-0.00817014
-0.00715613
-0.0059632
-0.00507009
-0.00471345
-0.00463573
-0.00181281
0.012369
0.0372564
0.0620405
0.0884717
0.120034
0.136738
0.130984
0.100142
0.0542899
0.0189673
0.0113802
0.0108078
0.013622
0.0122995
0.0167766
0.0150996
0.0209193
0.0186883
0.0277972
0.0237297
0.0641041
0.0375368
0.212011
0.129271
0.360878
0.293363
0.451142
0.413685
0.459967
0.44159
0.478167
0.480455
0.469253
0.453836
0.461239
0.437798
0.444193
0.386166
0.394645
0.412896
0.403721
0.368543
0.368918
0.372814
0.37878
0.352907
0.339734
0.33272
0.328809
0.416322
0.377636
0.345861
0.321847
0.507675
0.454826
0.405816
0.687589
0.639692
0.513348
0.525814
0.583843
0.733628
0.753534
0.747025
0.705216
0.760315
0.680394
0.660992
0.731293
0.763788
0.761162
0.717307
0.56142
0.527432
0.638815
0.613969
0.411376
0.107512
0.427612
0.49713
0.488222
-4.65534e-05
-0.000465207
-0.00127594
-0.00246159
-0.00415172
-0.00621127
-0.008111
-0.00939683
-0.0100096
-0.00988033
-0.00910785
-0.00767718
-0.00633084
-0.00555091
-0.00524614
-0.00220586
0.0127123
0.0389105
0.0646278
0.0902475
0.118284
0.132913
0.127295
0.0985559
0.055168
0.0194565
0.00955549
0.0108522
0.0098341
0.0132722
0.011977
0.0163929
0.0147302
0.020506
0.0183348
0.0275227
0.0230679
0.0682959
0.0386254
0.209712
0.127127
0.361064
0.291861
0.414106
0.375813
0.401401
0.394718
0.358721
0.449054
0.452623
0.404151
0.404617
0.421839
0.430292
0.3911
0.39695
0.344175
0.351672
0.368083
0.359759
0.326689
0.328331
0.332357
0.337704
0.305331
0.295999
0.290153
0.286232
0.36211
0.325371
0.296805
0.276347
0.457614
0.404784
0.3562
0.657801
0.601651
0.468703
0.487205
0.543816
0.722393
0.757746
0.742857
0.679063
0.767218
0.699488
0.678744
0.751441
0.773599
0.775436
0.736259
0.58648
0.558196
0.655766
0.630749
0.50842
0.0115575
0.39626
0.538612
0.54093
6.8318e-05
-0.000459368
-0.00164907
-0.00331514
-0.00560303
-0.00793006
-0.00995549
-0.0110032
-0.0113254
-0.0109071
-0.00962098
-0.00789256
-0.00655282
-0.00591428
-0.00284467
0.0122688
0.0395882
0.0664248
0.0916979
0.116221
0.128551
0.122697
0.0957038
0.0548328
0.0193203
0.00856793
0.00862016
0.00790063
0.0105285
0.0095167
0.0129325
0.0116659
0.0159533
0.0143578
0.0193775
0.0175144
0.0269775
0.0220971
0.0669931
0.0380131
0.184324
0.111045
0.324556
0.25938
0.3327
0.298546
0.342831
0.342299
0.262127
0.257926
0.401458
0.403762
0.342623
0.341352
0.376261
0.384166
0.327353
0.332397
0.291988
0.297012
0.309066
0.302752
0.283496
0.283446
0.285256
0.28813
0.262657
0.253644
0.246653
0.240849
0.313909
0.279346
0.253035
0.234159
0.413731
0.361623
0.314184
0.624173
0.567039
0.432452
0.45936
0.512158
0.703681
0.758308
0.730467
0.651015
0.769799
0.716996
0.694518
0.769018
0.77869
0.78389
0.753514
0.604411
0.581543
0.669626
0.64331
0.532161
0.00388609
0.373406
0.569483
0.568686
0.000312696
-0.000562809
-0.00221873
-0.00426796
-0.00650663
-0.00851834
-0.0102834
-0.011399
-0.0114853
-0.0110946
-0.00959567
-0.00786448
-0.00668355
-0.00373214
0.0110637
0.0390715
0.0671657
0.0925014
0.113908
0.123914
0.117481
0.0920586
0.0537995
0.0188008
0.00731468
0.00670963
0.0083168
0.00757106
0.0101779
0.00919024
0.012526
0.0112684
0.0148713
0.0137092
0.018492
0.0164312
0.0258683
0.0213204
0.0597382
0.0354914
0.14184
0.0859936
0.254759
0.201175
0.251646
0.240753
0.196457
0.26794
0.265327
0.209979
0.202376
0.336689
0.3396
0.268857
0.268614
0.315463
0.32177
0.257567
0.261903
0.233879
0.23614
0.243369
0.239328
0.236736
0.234173
0.232791
0.233
0.220796
0.21091
0.20281
0.195513
0.27302
0.239141
0.213004
0.193777
0.379651
0.329369
0.283303
0.596078
0.545947
0.408938
0.451404
0.49946
0.682356
0.755321
0.718825
0.633289
0.769929
0.732549
0.707516
0.781631
0.782089
0.787855
0.767428
0.61844
0.599411
0.680257
0.653168
0.53512
0.179675
0.443499
0.589164
0.580068
0.00058467
-0.000873535
-0.00262168
-0.0046987
-0.00664842
-0.00860929
-0.00997478
-0.0109396
-0.0110632
-0.0106266
-0.00934358
-0.00775009
-0.0047348
0.00930515
0.0374038
0.0666272
0.0923971
0.111338
0.11931
0.111983
0.0880154
0.0524278
0.0180346
0.00606091
0.005198
0.00607387
0.00801282
0.00724275
0.00978881
0.00882782
0.0115805
0.0107278
0.0140527
0.0126668
0.0177389
0.0157052
0.0241113
0.0202495
0.0490603
0.0316466
0.0932969
0.059055
0.165778
0.130605
0.195349
0.191454
0.127197
0.143732
0.22631
0.21837
0.199694
0.185148
0.265368
0.267674
0.232619
0.236349
0.248095
0.253038
0.224553
0.230407
0.185425
0.189964
0.202072
0.19537
0.189494
0.185158
0.183113
0.183371
0.17961
0.168988
0.160836
0.155015
0.242794
0.207735
0.179935
0.159041
0.360255
0.311854
0.265589
0.587631
0.542459
0.403153
0.449117
0.496637
0.674125
0.752861
0.71294
0.628312
0.771263
0.744049
0.716907
0.786484
0.78227
0.786976
0.775292
0.629354
0.611738
0.687987
0.660375
0.552821