/*--------------------------------*- C++ -*----------------------------------*\
  =========                 |
  \\      /  F ield         | OpenFOAM: The Open Source CFD Toolbox
   \\    /   O peration     | Website:  https://openfoam.org
    \\  /    A nd           | Version:  dev
     \\/     M anipulation  |
\*---------------------------------------------------------------------------*/
FoamFile
{
    version     2.0;
    format      ascii;
    class       surfaceScalarField;
    location    "2500";
    object      phi;
}
// * * * * * * * * * * * * * * * * * * * * * * * * * * * * * * * * * * * * * //

dimensions      [1 0 -1 0 0 0 0];

internalField   nonuniform List<scalar> 
19513
(
1.58103e-07
1.1136e-07
1.36967e-07
2.78937e-07
4.40741e-07
1.02379e-07
1.1183e-07
3.88381e-07
4.34497e-07
2.85197e-07
6.42844e-07
8.74186e-08
9.16313e-08
4.7135e-07
4.02592e-07
4.20294e-07
6.62659e-07
2.65393e-07
8.06066e-07
7.57061e-08
7.71578e-08
5.38328e-07
3.52455e-07
5.2152e-07
6.6228e-07
4.20679e-07
8.35261e-07
2.3628e-07
9.5221e-07
6.78055e-08
6.56648e-08
6.00624e-07
2.95497e-07
5.95363e-07
6.37558e-07
5.4624e-07
8.63228e-07
3.92712e-07
9.78249e-07
2.1026e-07
1.08739e-06
6.21024e-08
5.6411e-08
6.62268e-07
2.45116e-07
6.51004e-07
5.91247e-07
6.41594e-07
8.73582e-07
5.3589e-07
1.0156e-06
3.55369e-07
1.10694e-06
1.90647e-07
1.21284e-06
5.72466e-08
5.02514e-08
7.2325e-07
2.08365e-07
6.99058e-07
5.30419e-07
7.11843e-07
8.58177e-07
6.56996e-07
1.05096e-06
5.00538e-07
1.141e-06
3.21396e-07
1.22823e-06
1.75242e-07
1.33041e-06
5.29664e-08
4.65997e-08
7.83684e-07
1.84881e-07
7.46743e-07
4.66043e-07
7.63469e-07
8.17861e-07
7.52162e-07
1.0709e-06
6.37062e-07
1.18464e-06
4.56887e-07
1.25535e-06
2.94288e-07
1.34411e-06
1.61542e-07
1.43985e-06
4.91158e-08
4.41525e-08
8.42922e-07
1.71734e-07
7.96863e-07
4.07248e-07
8.05549e-07
7.58242e-07
8.2307e-07
1.06727e-06
7.55796e-07
1.22877e-06
5.92941e-07
1.29655e-06
4.15758e-07
1.36731e-06
2.7107e-07
1.45216e-06
1.49226e-07
1.54224e-06
4.54136e-08
4.22867e-08
9.01019e-07
1.63808e-07
8.5088e-07
3.61661e-07
8.42387e-07
6.88596e-07
8.75201e-07
1.03804e-06
8.52297e-07
1.26089e-06
7.23675e-07
1.34708e-06
5.42339e-07
1.40111e-06
3.8199e-07
1.47302e-06
2.50218e-07
1.55346e-06
1.38015e-07
1.63698e-06
4.18579e-08
4.05925e-08
9.59481e-07
1.5625e-07
9.08583e-07
3.3248e-07
8.80043e-07
6.16448e-07
9.14556e-07
9.86385e-07
9.26861e-07
1.27093e-06
8.42194e-07
1.39965e-06
6.71109e-07
1.44761e-06
4.95835e-07
1.50281e-06
3.52223e-07
1.57267e-06
2.30999e-07
1.64783e-06
1.27164e-07
1.72554e-06
3.8607e-08
3.90425e-08
1.01798e-06
1.50088e-07
9.65618e-07
3.13189e-07
9.27852e-07
5.48637e-07
9.47756e-07
9.20216e-07
9.80717e-07
1.25506e-06
9.42777e-07
1.44371e-06
7.98047e-07
1.50422e-06
6.14541e-07
1.54285e-06
4.55794e-07
1.60011e-06
3.24794e-07
1.66599e-06
2.1285e-07
1.73562e-06
1.17078e-07
1.80787e-06
3.55102e-08
3.80652e-08
1.07497e-06
1.44958e-07
1.02308e-06
2.95359e-07
9.83356e-07
4.97691e-07
9.78793e-07
8.47631e-07
1.02042e-06
1.21541e-06
1.02035e-06
1.46909e-06
9.17413e-07
1.56497e-06
7.37291e-07
1.59465e-06
5.627e-07
1.63575e-06
4.20149e-07
1.69111e-06
2.99636e-07
1.75286e-06
1.95602e-07
1.81795e-06
1.07009e-07
1.88407e-06
3.24338e-08
3.693e-08
1.13241e-06
1.38925e-07
1.081e-06
2.79849e-07
1.03854e-06
4.65376e-07
1.01579e-06
7.72435e-07
1.05395e-06
1.15783e-06
1.07796e-06
1.47051e-06
1.01901e-06
1.62077e-06
8.61624e-07
1.6566e-06
6.75347e-07
1.68059e-06
5.17864e-07
1.72447e-06
3.86819e-07
1.7775e-06
2.75019e-07
1.83397e-06
1.79571e-07
1.89321e-06
9.78555e-08
1.95424e-06
2.94125e-08
3.56489e-08
1.18941e-06
1.34913e-07
1.13641e-06
2.67754e-07
1.09307e-06
4.42349e-07
1.06163e-06
7.03848e-07
1.08442e-06
1.08938e-06
1.12241e-06
1.44787e-06
1.10058e-06
1.66273e-06
9.77056e-07
1.72493e-06
7.93273e-07
1.73739e-06
6.18528e-07
1.76643e-06
4.759e-07
1.80854e-06
3.55769e-07
1.85653e-06
2.52451e-07
1.90956e-06
1.63237e-07
1.96374e-06
8.83325e-08
2.01876e-06
2.62878e-08
3.50504e-08
1.24436e-06
1.3098e-07
1.19333e-06
2.57095e-07
1.14706e-06
4.25268e-07
1.11012e-06
6.49256e-07
1.11616e-06
1.01548e-06
1.15821e-06
1.40501e-06
1.16529e-06
1.68444e-06
1.07885e-06
1.79331e-06
9.08682e-07
1.80526e-06
7.25465e-07
1.81648e-06
5.68493e-07
1.84719e-06
4.37242e-07
1.88705e-06
3.25295e-07
1.93248e-06
2.29523e-07
1.97966e-06
1.47314e-07
2.02811e-06
7.89094e-08
2.07666e-06
2.34151e-08
3.42417e-08
1.29909e-06
1.25096e-07
1.25015e-06
2.49435e-07
1.201e-06
4.0938e-07
1.16291e-06
6.04534e-07
1.15481e-06
9.42436e-07
1.18922e-06
1.34765e-06
1.21557e-06
1.68333e-06
1.1664e-06
1.85242e-06
1.01966e-06
1.88063e-06
8.3332e-07
1.87695e-06
6.65055e-07
1.89444e-06
5.21234e-07
1.92453e-06
3.99729e-07
1.96132e-06
2.96448e-07
2.0021e-06
2.07089e-07
2.04364e-06
1.31789e-07
2.08614e-06
6.94182e-08
2.12954e-06
2.05058e-08
3.28285e-08
1.3525e-06
1.2037e-07
1.3038e-06
2.422e-07
1.25742e-06
3.91689e-07
1.21864e-06
5.69338e-07
1.19829e-06
8.76683e-07
1.22053e-06
1.28166e-06
1.25521e-06
1.661e-06
1.23788e-06
1.89576e-06
1.12309e-06
1.95983e-06
9.40521e-07
1.94995e-06
7.60345e-07
1.95126e-06
6.08308e-07
1.96975e-06
4.76037e-07
1.99741e-06
3.63595e-07
2.03086e-06
2.67675e-07
2.06558e-06
1.85217e-07
2.1019e-06
1.16018e-07
2.13864e-06
6.03198e-08
2.17634e-06
1.75654e-08
3.13032e-08
1.40379e-06
1.15834e-07
1.35702e-06
2.3349e-07
1.31249e-06
3.76929e-07
1.27216e-06
5.45194e-07
1.24289e-06
8.19658e-07
1.25506e-06
1.21341e-06
1.28873e-06
1.62191e-06
1.29428e-06
1.91907e-06
1.2146e-06
2.03559e-06
1.0473e-06
2.03294e-06
8.57426e-07
2.01775e-06
6.93787e-07
2.02267e-06
5.55348e-07
2.04029e-06
4.33201e-07
2.06563e-06
3.28827e-07
2.09398e-06
2.39285e-07
2.12367e-06
1.63455e-07
2.1542e-06
1.00427e-07
2.18571e-06
5.0893e-08
2.21745e-06
1.45617e-08
2.9856e-08
1.45318e-06
1.11358e-07
1.40822e-06
2.26024e-07
1.36445e-06
3.64118e-07
1.32527e-06
5.25963e-07
1.29139e-06
7.70546e-07
1.29191e-06
1.14825e-06
1.32013e-06
1.57194e-06
1.33868e-06
1.92185e-06
1.29146e-06
2.10047e-06
1.14969e-06
2.12141e-06
9.58804e-07
2.09444e-06
7.8082e-07
2.08371e-06
6.32735e-07
2.09036e-06
5.05252e-07
2.10712e-06
3.91723e-07
2.12858e-06
2.94215e-07
2.1519e-06
2.1103e-07
2.17663e-06
1.4105e-07
2.20157e-06
8.4637e-08
2.2268e-06
4.15482e-08
2.25251e-06
1.14535e-08
2.8632e-08
1.49967e-06
1.07644e-07
1.45687e-06
2.17808e-07
1.41639e-06
3.50313e-07
1.37823e-06
5.109e-07
1.34041e-06
7.31306e-07
1.33024e-06
1.08749e-06
1.35244e-06
1.51648e-06
1.37555e-06
1.90669e-06
1.35379e-06
2.14949e-06
1.24242e-06
2.21038e-06
1.06066e-06
2.18235e-06
8.70935e-07
2.15418e-06
7.10297e-07
2.14881e-06
5.74322e-07
2.15567e-06
4.56685e-07
2.16955e-06
3.50733e-07
2.18652e-06
2.59612e-07
2.20479e-06
1.82872e-07
2.22337e-06
1.19229e-07
2.24255e-06
6.88519e-08
2.262e-06
3.21059e-08
2.28166e-06
8.27139e-09
2.71717e-08
1.54393e-06
1.02044e-07
1.50526e-06
2.07264e-07
1.46733e-06
3.36567e-07
1.43001e-06
4.97102e-07
1.39194e-06
6.97954e-07
1.37354e-06
1.03232e-06
1.38552e-06
1.46081e-06
1.40804e-06
1.87823e-06
1.40392e-06
2.18069e-06
1.32257e-06
2.29442e-06
1.15844e-06
2.27882e-06
9.64122e-07
2.23437e-06
7.90696e-07
2.21514e-06
6.43941e-07
2.21139e-06
5.18518e-07
2.21674e-06
4.09391e-07
2.22692e-06
3.10324e-07
2.23888e-06
2.25512e-07
2.25167e-06
1.54563e-07
2.26479e-06
9.7032e-08
2.27837e-06
5.24762e-08
2.29161e-06
2.21535e-08
2.30461e-06
5.2486e-09
2.55131e-08
1.58543e-06
9.60902e-08
1.54982e-06
1.99275e-07
1.51321e-06
3.23525e-07
1.48032e-06
4.82129e-07
1.44499e-06
6.70886e-07
1.41891e-06
9.85352e-07
1.42045e-06
1.40773e-06
1.43851e-06
1.84237e-06
1.4438e-06
2.19509e-06
1.38952e-06
2.36769e-06
1.2493e-06
2.37887e-06
1.05838e-06
2.32532e-06
8.73297e-07
2.28988e-06
7.15985e-07
2.27428e-06
5.81127e-07
2.27093e-06
4.643e-07
2.27307e-06
3.63137e-07
2.27933e-06
2.69874e-07
2.2859e-06
1.91281e-07
2.29323e-06
1.26134e-07
2.30107e-06
7.43386e-08
2.30828e-06
3.58069e-08
2.31497e-06
1.17858e-08
2.32226e-06
1.9513e-09
2.38859e-08
1.62333e-06
9.11874e-08
1.59029e-06
1.91866e-07
1.55719e-06
3.09508e-07
1.52715e-06
4.66661e-07
1.49572e-06
6.50991e-07
1.46481e-06
9.46438e-07
1.45769e-06
1.35951e-06
1.46853e-06
1.80347e-06
1.47738e-06
2.1946e-06
1.44426e-06
2.42711e-06
1.33006e-06
2.47847e-06
1.14969e-06
2.42636e-06
9.57233e-07
2.37376e-06
7.8939e-07
2.3449e-06
6.45289e-07
2.33185e-06
5.20286e-07
2.32593e-06
4.1154e-07
2.32569e-06
3.16761e-07
2.32613e-06
2.29672e-07
2.32794e-06
1.5655e-07
2.3299e-06
9.72942e-08
2.33155e-06
5.10615e-08
2.33189e-06
1.89156e-08
2.33225e-06
1.82026e-09
2.34114e-06
-1.38905e-09
2.24974e-08
1.65772e-06
8.64691e-08
1.628e-06
1.82402e-07
1.5997e-06
2.9597e-07
1.57067e-06
4.47929e-07
1.54581e-06
6.34967e-07
1.51173e-06
9.14357e-07
1.49653e-06
1.31757e-06
1.49945e-06
1.76533e-06
1.50657e-06
2.18451e-06
1.48747e-06
2.4724e-06
1.39896e-06
2.5724e-06
1.23606e-06
2.5341e-06
1.04198e-06
2.46735e-06
8.63543e-07
2.42356e-06
7.10787e-07
2.39924e-06
5.77895e-07
2.38522e-06
4.60973e-07
2.378e-06
3.59227e-07
2.3727e-06
2.70065e-07
2.36854e-06
1.89034e-07
2.36507e-06
1.21381e-07
2.36111e-06
6.77372e-08
2.3558e-06
2.71289e-08
2.34992e-06
1.22808e-09
2.35068e-06
-7.70851e-09
2.34568e-06
-4.84316e-09
2.12262e-08
1.68927e-06
8.13658e-08
1.66276e-06
1.71704e-07
1.63849e-06
2.83697e-07
1.61191e-06
4.27212e-07
1.59134e-06
6.24406e-07
1.55629e-06
8.91227e-07
1.53466e-06
1.28301e-06
1.53112e-06
1.73149e-06
1.5332e-06
2.16891e-06
1.52203e-06
2.50411e-06
1.45563e-06
2.65709e-06
1.31431e-06
2.6446e-06
1.12556e-06
2.56975e-06
9.39618e-07
2.5097e-06
7.77387e-07
2.4731e-06
6.36789e-07
2.45059e-06
5.12539e-07
2.43626e-06
4.02674e-07
2.42575e-06
3.06245e-07
2.41552e-06
2.23097e-07
2.40657e-06
1.4754e-07
2.39704e-06
8.54144e-08
2.3865e-06
3.70405e-08
2.37452e-06
2.54743e-09
2.36774e-06
-1.58275e-08
2.35719e-06
-1.92022e-08
2.3429e-06
-7.56928e-09
1.98166e-08
1.71839e-06
7.62159e-08
1.69439e-06
1.62397e-07
1.67192e-06
2.73221e-07
1.64898e-06
4.10162e-07
1.62888e-06
6.17147e-07
1.59837e-06
8.76322e-07
1.57101e-06
1.25608e-06
1.5613e-06
1.70408e-06
1.55835e-06
2.1517e-06
1.55025e-06
2.52466e-06
1.50136e-06
2.73061e-06
1.38211e-06
2.75404e-06
1.20473e-06
2.67958e-06
1.01574e-06
2.60399e-06
8.45141e-07
2.55419e-06
6.96456e-07
2.52242e-06
5.64953e-07
2.50054e-06
4.48245e-07
2.48404e-06
3.44362e-07
2.46816e-06
2.53589e-07
2.45385e-06
1.75799e-07
2.43905e-06
1.055e-07
2.4235e-06
4.84242e-08
2.40637e-06
5.17187e-09
2.39334e-06
-2.30423e-08
2.3763e-06
-3.49144e-08
2.35472e-06
-3.10126e-08
2.33372e-06
-1.02462e-08
1.8182e-08
1.74529e-06
7.21854e-08
1.72236e-06
1.54952e-07
1.70173e-06
2.6263e-07
1.68244e-06
3.95121e-07
1.66389e-06
6.07249e-07
1.63852e-06
8.6869e-07
1.60579e-06
1.23797e-06
1.5888e-06
1.68327e-06
1.58189e-06
2.13662e-06
1.57329e-06
2.53742e-06
1.53738e-06
2.79273e-06
1.43915e-06
2.85864e-06
1.27759e-06
2.79464e-06
1.08964e-06
2.70702e-06
9.12836e-07
2.6428e-06
7.56458e-07
2.60008e-06
6.18629e-07
2.56996e-06
4.95549e-07
2.54749e-06
3.84788e-07
2.52648e-06
2.86015e-07
2.50755e-06
1.99873e-07
2.48769e-06
1.27212e-07
2.4669e-06
6.21094e-08
2.44494e-06
9.88679e-09
2.4256e-06
-2.70811e-08
2.40296e-06
-4.96916e-08
2.37504e-06
-5.52286e-08
2.34515e-06
-4.24322e-08
2.31602e-06
-1.33834e-08
1.67231e-08
1.77178e-06
6.7369e-08
1.75005e-06
1.45918e-07
1.73129e-06
2.4987e-07
1.71434e-06
3.81309e-07
1.6962e-06
5.9938e-07
1.67148e-06
8.7056e-07
1.63624e-06
1.22978e-06
1.61369e-06
1.67054e-06
1.60127e-06
2.12675e-06
1.5916e-06
2.54656e-06
1.56403e-06
2.84442e-06
1.48562e-06
2.95603e-06
1.34174e-06
2.91277e-06
1.15946e-06
2.81772e-06
9.78934e-07
2.73927e-06
8.16359e-07
2.68411e-06
6.72565e-07
2.64517e-06
5.43381e-07
2.61681e-06
4.26213e-07
2.59058e-06
3.20652e-07
2.56633e-06
2.27224e-07
2.54234e-06
1.45226e-07
2.51652e-06
7.75716e-08
2.48986e-06
1.7172e-08
2.46447e-06
-2.89606e-08
2.43733e-06
-6.14172e-08
2.40342e-06
-7.80646e-08
2.36688e-06
-7.69491e-08
2.32864e-06
-5.50414e-08
2.29023e-06
-1.83055e-08
1.12994e-08
1.79903e-06
6.04298e-08
1.77865e-06
1.37658e-07
1.75827e-06
2.39522e-07
1.74151e-06
3.75751e-07
1.71968e-06
5.99081e-07
1.69586e-06
8.78568e-07
1.66322e-06
1.22882e-06
1.63698e-06
1.66571e-06
1.61824e-06
2.12268e-06
1.60514e-06
2.55521e-06
1.5828e-06
2.88771e-06
1.52054e-06
3.0451e-06
1.39648e-06
3.03009e-06
1.22442e-06
2.93397e-06
1.04321e-06
2.84151e-06
8.76482e-07
2.77375e-06
7.2664e-07
2.72594e-06
5.91777e-07
2.69071e-06
4.69446e-07
2.65951e-06
3.57251e-07
2.63013e-06
2.56817e-07
2.60226e-06
1.67258e-07
2.57248e-06
8.92482e-08
2.54109e-06
2.63375e-08
2.50966e-06
-2.81273e-08
2.47894e-06
-7.05793e-08
2.43973e-06
-9.77706e-08
2.39743e-06
-1.08621e-07
2.35199e-06
-1.00282e-07
2.30448e-06
-6.92823e-08
2.25316e-06
-2.53892e-08
-3.0528e-09
1.82467e-06
4.6559e-08
1.81286e-06
1.26293e-07
1.78988e-06
2.32066e-07
1.76548e-06
3.78994e-07
1.73776e-06
6.05219e-07
1.71324e-06
8.89727e-07
1.68467e-06
1.23807e-06
1.6539e-06
1.67018e-06
1.63207e-06
2.12519e-06
1.61554e-06
2.56492e-06
1.59526e-06
2.92474e-06
1.54567e-06
3.12493e-06
1.44057e-06
3.14413e-06
1.28245e-06
3.05422e-06
1.10414e-06
2.95033e-06
9.34571e-07
2.86942e-06
7.8083e-07
2.81166e-06
6.40867e-07
2.76892e-06
5.13536e-07
2.73347e-06
3.95524e-07
2.69956e-06
2.87729e-07
2.66781e-06
1.91214e-07
2.63464e-06
1.04995e-07
2.59884e-06
3.15033e-08
2.56172e-06
-2.56192e-08
2.52746e-06
-7.66389e-08
2.48318e-06
-1.13955e-07
2.4358e-06
-1.36104e-07
2.38489e-06
-1.41483e-07
2.33012e-06
-1.25892e-07
2.27156e-06
-8.76764e-08
2.20568e-06
-3.37819e-08
-2.65346e-08
1.8296e-06
2.09745e-08
1.85023e-06
1.10205e-07
1.82882e-06
2.29756e-07
1.79202e-06
3.91136e-07
1.75305e-06
6.19548e-07
1.72337e-06
9.11344e-07
1.69126e-06
1.26295e-06
1.6597e-06
1.68569e-06
1.63774e-06
2.13619e-06
1.62077e-06
2.57761e-06
1.60259e-06
2.95782e-06
1.56202e-06
3.19573e-06
1.47478e-06
3.25222e-06
1.33236e-06
3.17621e-06
1.16042e-06
3.06387e-06
9.90361e-07
2.97003e-06
8.3388e-07
2.90197e-06
6.90474e-07
2.85178e-06
5.58014e-07
2.81155e-06
4.35295e-07
2.77405e-06
3.21106e-07
2.73772e-06
2.17818e-07
2.70169e-06
1.2421e-07
2.66212e-06
4.16748e-08
2.61986e-06
-2.66576e-08
2.58282e-06
-8.0979e-08
2.53341e-06
-1.2686e-07
2.48116e-06
-1.59329e-07
2.42591e-06
-1.77131e-07
2.36618e-06
-1.7753e-07
2.30062e-06
-1.5492e-07
2.22925e-06
-1.11229e-07
2.14449e-06
-1.3169e-08
-2.90733e-08
-5.22402e-08
1.77358e-06
-7.61591e-09
1.8581e-06
9.1172e-08
1.86934e-06
2.34724e-07
1.82338e-06
4.13871e-07
1.76895e-06
6.46428e-07
1.72584e-06
9.44945e-07
1.68936e-06
1.2962e-06
1.65753e-06
1.71021e-06
1.63439e-06
2.15652e-06
1.61691e-06
2.59814e-06
1.60006e-06
2.9909e-06
1.56928e-06
3.2589e-06
1.49884e-06
3.35311e-06
1.37381e-06
3.29634e-06
1.2122e-06
3.1805e-06
1.04389e-06
3.07471e-06
8.8559e-07
2.99639e-06
7.39446e-07
2.93856e-06
6.03607e-07
2.8929e-06
4.76766e-07
2.85215e-06
3.57116e-07
2.8124e-06
2.46447e-07
2.77398e-06
1.45536e-07
2.73137e-06
5.49321e-08
2.68567e-06
-2.41526e-08
2.6449e-06
-8.87332e-08
2.59071e-06
-1.3828e-07
2.53373e-06
-1.79384e-07
2.47415e-06
-2.07538e-07
2.41047e-06
-2.21389e-07
2.34089e-06
-2.17773e-07
2.26595e-06
-1.91607e-07
2.17317e-06
-6.3046e-08
-7.68494e-08
1.03784e-06
-1.09427e-08
1.04508e-06
-3.63127e-08
-7.35604e-08
1.63888e-06
-2.8393e-08
1.79422e-06
7.45277e-08
1.87454e-06
2.4398e-07
1.85953e-06
4.53921e-07
1.78337e-06
6.93536e-07
1.72147e-06
9.88311e-07
1.68195e-06
1.33797e-06
1.64697e-06
1.7456e-06
1.62175e-06
2.18532e-06
1.60522e-06
2.62412e-06
1.59076e-06
3.02494e-06
1.56586e-06
3.31925e-06
1.5088e-06
3.44771e-06
1.40418e-06
3.41331e-06
1.25679e-06
3.29944e-06
1.09319e-06
3.18308e-06
9.35511e-07
3.09364e-06
7.88273e-07
3.02802e-06
6.49911e-07
2.97757e-06
5.18875e-07
2.93402e-06
3.94881e-07
2.89175e-06
2.77722e-07
2.85058e-06
1.69802e-07
2.80624e-06
7.06796e-08
2.75769e-06
-1.71246e-08
2.71135e-06
-9.06462e-08
2.65513e-06
-1.53167e-07
2.59356e-06
-1.98097e-07
2.52915e-06
-2.34364e-07
2.46238e-06
-2.59415e-07
2.38994e-06
-2.70406e-07
2.30826e-06
-1.2401e-07
-1.36021e-07
1.10713e-06
-1.07942e-07
1.10222e-06
-1.19834e-07
1.04537e-06
-6.33287e-08
1.05761e-06
-8.90786e-08
1.01804e-06
-9.98682e-09
1.02191e-06
-4.01825e-08
-3.13364e-08
1.25218e-06
-3.5145e-08
1.64538e-06
6.50363e-08
1.8031e-06
2.63197e-07
1.85495e-06
5.18528e-07
1.79465e-06
7.61561e-07
1.71482e-06
1.04512e-06
1.66423e-06
1.39116e-06
1.62825e-06
1.79147e-06
1.60075e-06
2.22217e-06
1.58451e-06
2.65618e-06
1.57288e-06
3.06013e-06
1.55541e-06
3.37421e-06
1.51075e-06
3.5343e-06
1.42213e-06
3.52797e-06
1.28942e-06
3.41971e-06
1.1364e-06
3.29305e-06
9.83166e-07
3.19354e-06
8.35533e-07
3.12008e-06
6.96132e-07
3.0647e-06
5.62695e-07
3.01794e-06
4.34746e-07
2.97393e-06
3.12612e-07
2.93134e-06
1.96919e-07
2.88623e-06
8.98035e-08
2.83532e-06
-6.93916e-09
2.78407e-06
-8.98445e-08
2.72627e-06
-1.61769e-07
2.66066e-06
-2.20268e-07
2.59141e-06
-2.60336e-07
2.52056e-06
-2.92524e-07
2.44625e-06
-3.15681e-07
2.36272e-06
-1.57129e-07
-1.6769e-07
1.11951e-06
-1.36376e-07
1.13687e-06
-1.53363e-07
1.06421e-06
-1.1454e-07
1.11366e-06
-1.47809e-07
1.08055e-06
-1.36163e-07
1.02797e-06
-6.93887e-08
1.03708e-06
-9.81834e-08
9.96271e-07
-8.59029e-09
9.99219e-07
-4.3128e-08
-1.2369e-08
1.33574e-06
-3.9728e-08
1.25626e-06
6.95658e-08
1.64047e-06
2.99665e-07
1.7666e-06
5.94086e-07
1.779e-06
8.55465e-07
1.70025e-06
1.11935e-06
1.64012e-06
1.45486e-06
1.59992e-06
1.84605e-06
1.57333e-06
2.26575e-06
1.5568e-06
2.69286e-06
1.54739e-06
3.09826e-06
1.53459e-06
3.42757e-06
1.50182e-06
3.61429e-06
1.43062e-06
3.63553e-06
1.31455e-06
3.53832e-06
1.17087e-06
3.40705e-06
1.02229e-06
3.29726e-06
8.79384e-07
3.21397e-06
7.41624e-07
3.15362e-06
6.07212e-07
3.10361e-06
4.77129e-07
3.05894e-06
3.49722e-07
3.01647e-06
2.27498e-07
2.9703e-06
1.12764e-07
2.91848e-06
6.58504e-09
2.8636e-06
-8.65076e-08
2.80459e-06
-1.68168e-07
2.73426e-06
-2.35365e-07
2.66058e-06
-2.89432e-07
2.58498e-06
-3.24736e-07
2.50786e-06
-3.54111e-07
2.42525e-06
-1.85551e-07
-1.92624e-07
1.14949e-06
-1.69732e-07
1.16811e-06
-1.863e-07
1.12792e-06
-1.67609e-07
1.04801e-06
-1.2546e-07
1.09451e-06
-1.61754e-07
1.06269e-06
-1.50833e-07
1.00615e-06
-7.63186e-08
1.01582e-06
-1.07836e-07
9.71071e-07
-8.59224e-09
9.74325e-07
-4.63818e-08
-5.52426e-09
1.32598e-06
-6.21882e-10
1.29638e-06
4.57146e-08
1.27958e-06
3.47622e-07
1.59223e-06
6.8052e-07
1.67946e-06
9.64917e-07
1.66906e-06
1.21659e-06
1.60259e-06
1.52925e-06
1.56493e-06
1.90694e-06
1.53853e-06
2.31521e-06
1.52351e-06
2.73309e-06
1.51628e-06
3.1368e-06
1.50854e-06
3.4766e-06
1.48528e-06
3.68847e-06
1.4275e-06
3.73782e-06
1.32826e-06
3.65461e-06
1.19824e-06
3.52068e-06
1.05733e-06
3.40084e-06
9.18664e-07
3.31073e-06
7.82591e-07
3.24398e-06
6.51115e-07
3.19077e-06
5.20018e-07
3.14643e-06
3.89566e-07
3.10396e-06
2.62116e-07
3.05775e-06
1.39985e-07
3.00708e-06
2.41252e-08
2.94963e-06
-7.94729e-08
2.89083e-06
-1.72789e-07
2.81604e-06
-2.49951e-07
2.73636e-06
-3.11146e-07
2.65537e-06
-3.5982e-07
2.5739e-06
-3.9075e-07
2.49011e-06
-2.06637e-07
-2.123e-07
1.18297e-06
-2.00387e-07
1.20227e-06
-2.11918e-07
1.14346e-06
-1.85254e-07
1.16059e-06
-2.03419e-07
1.11139e-06
-1.84475e-07
1.02853e-06
-1.38166e-07
1.07891e-06
-1.77962e-07
1.04411e-06
-1.66394e-07
9.81691e-07
-8.36808e-08
9.92021e-07
-1.18158e-07
9.43717e-07
-1.05877e-08
9.46657e-07
-4.93227e-08
1.28931e-10
1.27135e-06
2.95496e-08
1.29532e-06
9.36325e-08
1.24781e-06
3.31065e-07
1.2958e-06
7.5745e-07
1.51451e-06
1.07301e-06
1.5709e-06
1.33091e-06
1.55414e-06
1.61508e-06
1.51603e-06
1.97585e-06
1.49563e-06
2.3701e-06
1.4832e-06
2.77698e-06
1.4793e-06
3.1755e-06
1.47724e-06
3.52194e-06
1.46307e-06
3.75469e-06
1.41893e-06
3.83058e-06
1.33462e-06
3.76672e-06
1.21603e-06
3.63531e-06
1.0836e-06
3.50565e-06
9.52474e-07
3.40745e-06
8.21877e-07
3.33314e-06
6.93388e-07
3.27843e-06
5.63224e-07
3.233e-06
4.33377e-07
3.19211e-06
3.01388e-07
3.14831e-06
1.71585e-07
3.10017e-06
4.68763e-08
3.04249e-06
-6.87591e-08
2.98472e-06
-1.73408e-07
2.90689e-06
-2.63666e-07
2.82102e-06
-3.34605e-07
2.73204e-06
-3.87803e-07
2.6442e-06
-4.30116e-07
2.55763e-06
-2.25359e-07
-2.32889e-07
1.2181e-06
-2.22448e-07
1.2376e-06
-2.31793e-07
1.17813e-06
-2.17912e-07
1.19675e-06
-2.30522e-07
1.12986e-06
-2.03709e-07
1.14955e-06
-2.23089e-07
1.09726e-06
-2.02801e-07
1.00605e-06
-1.52182e-07
1.06212e-06
-1.95958e-07
1.02387e-06
-1.84205e-07
9.53932e-07
-9.09516e-08
9.6516e-07
-1.29378e-07
9.10874e-07
-1.25067e-08
9.1529e-07
-5.37371e-08
5.0768e-09
1.21038e-06
5.02924e-08
1.25032e-06
1.59987e-07
1.22856e-06
3.90657e-07
1.18783e-06
7.71962e-07
1.28091e-06
1.16149e-06
1.42549e-06
1.43908e-06
1.46213e-06
1.71383e-06
1.45499e-06
2.05024e-06
1.44097e-06
2.42901e-06
1.4363e-06
2.82368e-06
1.43607e-06
3.21548e-06
1.43909e-06
3.56553e-06
1.43337e-06
3.81462e-06
1.40299e-06
3.91449e-06
1.33491e-06
3.87038e-06
1.23084e-06
3.74514e-06
1.10618e-06
3.60999e-06
9.79218e-07
3.50518e-06
8.54644e-07
3.42302e-06
7.32095e-07
3.36457e-06
6.0733e-07
3.31717e-06
4.79047e-07
3.27869e-06
3.46669e-07
3.23906e-06
2.1054e-07
3.19574e-06
7.59551e-08
3.14273e-06
-5.34236e-08
3.08558e-06
-1.69637e-07
3.0075e-06
-2.7405e-07
2.91612e-06
-3.58798e-07
2.81807e-06
-4.20629e-07
2.7201e-06
-4.63698e-07
2.62799e-06
-2.46476e-07
-2.53983e-07
1.2537e-06
-2.41445e-07
1.27327e-06
-2.52448e-07
1.21547e-06
-2.41151e-07
1.23468e-06
-2.50996e-07
1.17009e-06
-2.38432e-07
1.19115e-06
-2.51566e-07
1.11769e-06
-2.24125e-07
1.1395e-06
-2.44879e-07
1.08266e-06
-2.23323e-07
9.80254e-07
-1.67264e-07
1.04318e-06
-2.15249e-07
9.98943e-07
-2.02877e-07
9.23474e-07
-9.91309e-08
9.35421e-07
-1.41316e-07
8.76695e-07
-1.46865e-08
8.82274e-07
-5.93144e-08
9.53008e-09
1.14627e-06
6.80208e-08
1.19238e-06
2.24252e-07
1.18553e-06
4.84866e-07
1.1339e-06
8.18702e-07
1.14065e-06
1.20065e-06
1.2412e-06
1.52632e-06
1.33784e-06
1.80629e-06
1.36899e-06
2.12744e-06
1.37696e-06
2.48936e-06
1.38022e-06
2.87179e-06
1.38788e-06
3.25541e-06
1.39588e-06
3.60692e-06
1.39742e-06
3.86917e-06
1.3786e-06
3.99138e-06
1.32602e-06
3.96736e-06
1.23782e-06
3.84981e-06
1.12607e-06
3.71022e-06
1.00607e-06
3.59763e-06
8.86598e-07
3.51229e-06
7.65079e-07
3.45219e-06
6.44335e-07
3.40046e-06
5.23931e-07
3.36135e-06
3.96361e-07
3.32681e-06
2.58859e-07
3.28977e-06
1.165e-07
3.24468e-06
-2.60177e-08
3.19237e-06
-1.60267e-07
3.11851e-06
-2.80654e-07
3.02297e-06
-3.8091e-07
2.91589e-06
-4.56648e-07
2.80415e-06
-5.0466e-07
2.70113e-06
-2.65592e-07
-2.71246e-07
1.28888e-06
-2.62084e-07
1.30864e-06
-2.73743e-07
1.25355e-06
-2.60299e-07
1.27197e-06
-2.70866e-07
1.21258e-06
-2.62568e-07
1.23392e-06
-2.72323e-07
1.16256e-06
-2.61474e-07
1.1864e-06
-2.75388e-07
1.10549e-06
-2.46933e-07
1.13016e-06
-2.69526e-07
1.0662e-06
-2.46324e-07
9.51358e-07
-1.83187e-07
1.02117e-06
-2.37457e-07
9.71655e-07
-2.23156e-07
8.90111e-07
-1.06962e-07
9.02546e-07
-1.53741e-07
8.40348e-07
-1.7129e-08
8.46732e-07
-6.5696e-08
1.481e-08
1.07636e-06
8.6376e-08
1.12763e-06
2.86395e-07
1.12974e-06
5.83306e-07
1.08668e-06
8.90414e-07
1.06175e-06
1.23883e-06
1.10193e-06
1.57618e-06
1.19108e-06
1.88172e-06
1.26173e-06
2.19945e-06
1.29629e-06
2.5495e-06
1.31641e-06
2.91879e-06
1.33282e-06
3.29504e-06
1.3478e-06
3.64563e-06
1.35681e-06
3.9184e-06
1.34797e-06
4.06099e-06
1.30882e-06
4.05766e-06
1.23562e-06
3.95038e-06
1.13714e-06
3.80856e-06
1.02747e-06
3.68698e-06
9.16734e-07
3.59611e-06
8.02662e-07
3.53148e-06
6.85759e-07
3.48223e-06
5.62517e-07
3.44309e-06
4.42065e-07
3.4137e-06
3.09424e-07
3.38143e-06
1.67121e-07
3.34482e-06
1.63562e-08
3.2997e-06
-1.33394e-07
3.23924e-06
-2.81068e-07
3.14476e-06
-4.02433e-07
3.02869e-06
-4.93704e-07
2.90307e-06
-5.55595e-07
2.78005e-06
-2.86617e-07
-2.96947e-07
1.32323e-06
-2.8018e-07
1.34368e-06
-2.91686e-07
1.29022e-06
-2.80326e-07
1.30767e-06
-2.9118e-07
1.25505e-06
-2.81423e-07
1.27534e-06
-2.91144e-07
1.21046e-06
-2.86618e-07
1.23538e-06
-2.97226e-07
1.15621e-06
-2.87511e-07
1.18354e-06
-3.02697e-07
1.09223e-06
-2.72941e-07
1.11986e-06
-2.97124e-07
1.047e-06
-2.72131e-07
9.19317e-07
-1.99942e-07
9.96297e-07
-2.62077e-07
9.408e-07
-2.44618e-07
8.53912e-07
-1.14135e-07
8.65718e-07
-1.65536e-07
8.005e-07
-1.88356e-08
8.06324e-07
-7.15167e-08
2.13938e-08
1.00104e-06
1.07287e-07
1.05513e-06
3.50036e-07
1.06351e-06
6.76037e-07
1.03658e-06
9.73698e-07
1.00288e-06
1.29135e-06
1.00884e-06
1.61354e-06
1.0642e-06
1.93169e-06
1.14061e-06
2.25883e-06
1.20172e-06
2.60298e-06
1.2424e-06
2.96419e-06
1.27068e-06
3.33254e-06
1.29502e-06
3.68122e-06
1.31217e-06
3.96236e-06
1.31272e-06
4.12308e-06
1.28573e-06
4.13996e-06
1.22642e-06
4.04541e-06
1.14058e-06
3.90444e-06
1.04121e-06
3.77487e-06
9.39519e-07
3.67703e-06
8.35748e-07
3.60652e-06
7.27313e-07
3.55661e-06
6.11082e-07
3.51968e-06
4.85784e-07
3.49934e-06
3.56226e-07
3.4736e-06
2.17154e-07
3.4455e-06
6.6367e-08
3.40653e-06
-9.04803e-08
3.36116e-06
-2.55368e-07
3.27838e-06
-4.14755e-07
3.16226e-06
-5.35966e-07
3.0213e-06
-6.11916e-07
2.886e-06
-3.22635e-07
-3.38872e-07
1.35931e-06
-3.0224e-07
1.38661e-06
-3.24217e-07
1.32648e-06
-2.98984e-07
1.34622e-06
-3.11409e-07
1.29621e-06
-3.01188e-07
1.31773e-06
-3.12678e-07
1.26012e-06
-3.06147e-07
1.28636e-06
-3.17374e-07
1.2122e-06
-3.15256e-07
1.24312e-06
-3.28133e-07
1.15039e-06
-3.18023e-07
1.18386e-06
-3.36142e-07
1.0761e-06
-3.02016e-07
1.10968e-06
-3.30673e-07
1.02507e-06
-3.00874e-07
8.82986e-07
-2.17192e-07
9.67633e-07
-2.88884e-07
9.05453e-07
-2.67062e-07
8.13892e-07
-1.21696e-07
8.25188e-07
-1.76819e-07
7.59036e-07
-1.99113e-08
7.63584e-07
-7.60604e-08
2.92977e-08
9.21483e-07
1.32898e-07
9.75058e-07
4.17977e-07
9.86737e-07
7.62539e-07
9.76617e-07
1.06073e-06
9.49086e-07
1.35441e-06
9.39513e-07
1.65424e-06
9.67856e-07
1.9671e-06
1.02848e-06
2.29949e-06
1.09937e-06
2.64586e-06
1.15864e-06
3.00397e-06
1.20237e-06
3.36599e-06
1.237e-06
3.71301e-06
1.26305e-06
4.00072e-06
1.27365e-06
4.17762e-06
1.25804e-06
4.2143e-06
1.21126e-06
4.13392e-06
1.13777e-06
3.99653e-06
1.04838e-06
3.8612e-06
9.54807e-07
3.7566e-06
8.59986e-07
3.68059e-06
7.61796e-07
3.62678e-06
6.57012e-07
3.58987e-06
5.40796e-07
3.57104e-06
4.13932e-07
3.55762e-06
2.71993e-07
3.54583e-06
1.16696e-07
3.51552e-06
-4.26737e-08
3.48376e-06
-2.13095e-07
3.41955e-06
-3.96587e-07
3.31367e-06
-5.66191e-07
3.17269e-06
-6.8726e-07
3.02682e-06
-3.80445e-07
-3.72182e-07
1.41139e-06
-3.47369e-07
1.45722e-06
-3.84609e-07
1.37165e-06
-3.27626e-07
1.40594e-06
-3.58427e-07
1.34454e-06
-3.25769e-07
1.37929e-06
-3.46105e-07
1.31694e-06
-3.31742e-07
1.35739e-06
-3.53097e-07
1.27883e-06
-3.41832e-07
1.32506e-06
-3.63573e-07
1.22257e-06
-3.53945e-07
1.27248e-06
-3.78006e-07
1.1479e-06
-3.56215e-07
1.19602e-06
-3.8422e-07
1.05931e-06
-3.36233e-07
1.10256e-06
-3.73885e-07
1.00017e-06
-3.33378e-07
8.4175e-07
-2.33734e-07
9.35215e-07
-3.18614e-07
8.64756e-07
-2.90039e-07
7.71022e-07
-1.29127e-07
7.80235e-07
-1.86017e-07
7.1645e-07
-2.03267e-08
7.18794e-07
-7.84e-08
3.82954e-08
8.39696e-07
1.64938e-07
8.89028e-07
4.89816e-07
9.02823e-07
8.4414e-07
9.04703e-07
1.14681e-06
8.90091e-07
1.42414e-06
8.79068e-07
1.70108e-06
8.92417e-07
1.99936e-06
9.35348e-07
2.32606e-06
1.00149e-06
2.67538e-06
1.0695e-06
3.03517e-06
1.12713e-06
3.39428e-06
1.1736e-06
3.73996e-06
1.20971e-06
4.03323e-06
1.23034e-06
4.22443e-06
1.22664e-06
4.28073e-06
1.19149e-06
4.21561e-06
1.12942e-06
4.08393e-06
1.05015e-06
3.94496e-06
9.6455e-07
3.8337e-06
8.77526e-07
3.75223e-06
7.88152e-07
3.69434e-06
6.94277e-07
3.65552e-06
5.91254e-07
3.63516e-06
4.76557e-07
3.62824e-06
3.43166e-07
3.62748e-06
1.9013e-07
3.61976e-06
1.23528e-08
3.60397e-06
-1.62952e-07
3.56535e-06
-3.58943e-07
3.48007e-06
-5.63021e-07
3.35239e-06
-7.45705e-07
3.24859e-06
-9.08426e-07
1.49448e-06
-4.1749e-07
1.59396e-06
-4.71457e-07
1.4553e-06
-3.96563e-07
1.53202e-06
-4.60983e-07
1.43226e-06
-3.80468e-07
1.50596e-06
-4.31857e-07
1.41725e-06
-3.85549e-07
1.50265e-06
-4.31319e-07
1.39226e-06
-3.98891e-07
1.49112e-06
-4.51843e-07
1.34358e-06
-4.12872e-07
1.45055e-06
-4.70454e-07
1.26509e-06
-4.22962e-07
1.37228e-06
-4.85092e-07
1.16125e-06
-4.14837e-07
1.25489e-06
-4.77752e-07
1.04507e-06
-3.81091e-07
1.11499e-06
-4.4371e-07
9.77131e-07
-3.75241e-07
7.94567e-07
-2.48043e-07
9.02135e-07
-3.55938e-07
8.23602e-07
-3.19026e-07
7.23948e-07
-1.34271e-07
7.29094e-07
-1.91147e-07
6.7414e-07
-1.98324e-08
6.74044e-07
-7.82974e-08
4.79099e-08
7.57223e-07
2.03154e-07
8.01095e-07
5.62404e-07
8.16137e-07
9.2142e-07
8.25157e-07
1.22828e-06
8.22919e-07
1.49596e-06
8.18037e-07
1.7536e-06
8.26345e-07
2.03317e-06
8.58369e-07
2.34685e-06
9.14176e-07
2.69415e-06
9.82394e-07
3.05558e-06
1.04885e-06
3.41499e-06
1.10624e-06
3.76053e-06
1.15284e-06
4.05898e-06
1.18376e-06
4.26326e-06
1.19133e-06
4.3384e-06
1.16884e-06
4.29022e-06
1.11678e-06
4.16639e-06
1.04698e-06
4.02584e-06
9.69098e-07
3.90843e-06
8.8974e-07
3.82095e-06
8.08643e-07
3.75804e-06
7.24246e-07
3.71652e-06
6.33152e-07
3.69502e-06
5.31273e-07
3.69034e-06
4.14332e-07
3.69602e-06
2.74499e-07
3.70558e-06
1.04117e-07
3.70967e-06
-9.3412e-08
3.70998e-06
-3.0766e-07
3.6537e-06
-5.32576e-07
3.55682e-06
-7.67127e-07
3.53002e-06
-1.02538e-06
-1.7385e-06
3.7896e-06
-6.4118e-07
-7.19791e-07
1.62897e-06
-5.13862e-07
-5.79853e-07
1.61182e-06
-5.01927e-07
1.7477e-06
-5.9604e-07
1.61926e-06
-4.96736e-07
1.76309e-06
-5.75118e-07
1.62327e-06
-5.17496e-07
1.78088e-06
-5.88593e-07
1.59786e-06
-5.46036e-07
1.77394e-06
-6.27728e-07
1.52703e-06
-5.67435e-07
1.71831e-06
-6.61526e-07
1.40346e-06
-5.71367e-07
1.60371e-06
-6.85043e-07
1.23681e-06
-5.3647e-07
1.42486e-06
-6.65478e-07
1.05542e-06
-4.59261e-07
1.20216e-06
-5.90169e-07
9.82891e-07
-4.55859e-07
7.45553e-07
-2.64468e-07
8.97899e-07
-4.30095e-07
8.04432e-07
-3.77791e-07
6.73028e-07
-1.33247e-07
6.77267e-07
-1.95368e-07
6.34358e-07
-1.79758e-08
6.29443e-07
-7.33752e-08
5.75344e-08
6.7491e-07
2.45754e-07
7.14282e-07
6.32188e-07
7.3106e-07
9.94538e-07
7.42692e-07
1.30377e-06
7.49404e-07
1.56609e-06
7.52608e-07
1.8091e-06
7.62403e-07
2.0698e-06
7.89527e-07
2.3679e-06
8.37006e-07
2.70658e-06
9.01514e-07
3.06707e-06
9.70719e-07
3.42732e-06
1.03629e-06
3.77376e-06
1.09273e-06
4.07734e-06
1.13433e-06
4.29388e-06
1.15302e-06
4.38692e-06
1.14265e-06
4.35703e-06
1.10185e-06
4.24279e-06
1.0403e-06
4.10346e-06
9.6936e-07
3.9809e-06
8.96571e-07
3.88712e-06
8.23468e-07
3.81884e-06
7.47763e-07
3.77361e-06
6.67017e-07
3.7488e-06
5.79239e-07
3.74405e-06
4.77429e-07
3.75486e-06
3.55364e-07
3.77615e-06
2.03783e-07