/*--------------------------------*- C++ -*----------------------------------*\
  =========                 |
  \\      /  F ield         | OpenFOAM: The Open Source CFD Toolbox
   \\    /   O peration     | Website:  https://openfoam.org
    \\  /    A nd           | Version:  dev
     \\/     M anipulation  |
\*---------------------------------------------------------------------------*/
FoamFile
{
    version     2.0;
    format      ascii;
    class       volScalarField;
    location    "2500";
    object      qr;
}
// * * * * * * * * * * * * * * * * * * * * * * * * * * * * * * * * * * * * * //

dimensions      [1 0 -3 0 0 0 0];

internalField   uniform 0;

boundaryField
{
    lowerOutlet
    {
        type            calculated;
        value           nonuniform List<scalar> 
146
(
994.967
998.268
1001.9
1005.88
1010.19
1014.86
1019.88
1025.28
1031.05
1037.22
1043.81
1050.82
1058.29
1066.24
1074.69
1083.69
1093.26
1103.45
1114.32
1125.91
1138.29
1151.53
1165.74
1181
1197.46
1215.28
1234.61
1255.66
1278.67
1303.95
1331.87
1362.86
1397.52
1427.18
1470.25
1519.72
1577.07
1644.4
1724.63
1821.91
1942.18
2093.35
2283.27
2516.58
2758.24
3088.97
3732.45
4987.74
4474.52
4007.82
3100.69
2606.64
2295.57
2076.19
1894.24
1772.87
1676.55
1598.53
1533.97
1479.52
1432.82
1392.23
1356.53
1324.87
1289.46
1264.56
1241.91
1221.18
1202.13
1184.55
1168.25
1153.11
1138.98
1125.8
1113.46
1101.86
1090.95
1080.68
1070.98
1061.82
1053.17
1044.99
1037.25
1029.93
1023
1016.46
1010.27
1004.43
998.917
993.727
988.847
984.269
979.985
975.989
972.277
968.844
965.687
1770.81
1878.72
2013.32
2183.09
2394.23
2685.83
2934.58
3627.41
4775.02
5725.31
-8156.26
3337.88
2706.15
2362.71
2124.71
1967.95
1829.81
1722.09
1635.6
1564.8
1505.65
1609.32
1682.68
2834.32
3391.26
4054.77
5340.78
3775.67
2950.77
2517.39
2233.96
2031.25
1455.32
1411.84
2616.66
2917.31
3542.64
4514.63
5551.54
3546.74
2819.02
2436.38
2177.16
1447.99
1494.1
1547.31
1373.83
1340.24
1310.34
)
;
    }
    top
    {
        type            calculated;
        value           nonuniform List<scalar> 
100
(
910.012
909.491
909.618
910.708
911.689
913.119
914.733
916.344
917.899
919.361
920.769
922.207
923.684
925.234
926.838
928.35
929.022
926.405
917.852
906.179
897.375
894.655
895.321
897.716
900.893
903.417
905.194
907.483
912.288
920.049
928.757
938.381
948.48
957.558
963.954
967.885
970.471
972.394
973.974
975.399
976.642
977.721
978.665
979.5
980.224
980.846
981.271
981.574
981.756
981.814
981.721
981.554
981.281
980.927
980.501
979.959
979.344
978.639
977.865
977.032
976.125
975.147
974.085
972.976
971.76
970.441
969.037
967.545
965.914
964.216
962.381
960.46
958.446
956.315
954.084
951.745
949.294
946.749
944.233
941.84
939.663
938.766
948.956
946.293
943.612
940.915
938.205
935.483
932.751
930.012
927.266
924.512
921.752
918.993
916.246
913.509
907.859
904.669
902.259
900.941
)
;
    }
    sides
    {
        type            calculated;
        value           nonuniform List<scalar> 
100
(
994.973
997.631
999.968
1001.99
1003.69
1005.08
1006.16
1006.94
1007.44
1007.65
1007.59
1007.27
1006.71
1005.9
1004.88
1003.64
1002.2
1000.58
998.783
996.828
994.727
992.49
990.131
987.661
985.091
982.432
979.694
976.887
974.02
971.101
968.138
965.137
962.108
959.059
955.998
952.929
949.858
946.791
943.733
940.687
937.658
934.65
931.666
928.71
925.784
922.89
920.029
917.204
914.413
911.693
965.693
968.32
970.683
972.783
974.621
976.2
977.525
978.601
979.433
980.028
980.393
980.535
980.462
980.184
979.71
979.048
978.207
977.199
976.031
974.714
973.257
971.67
969.961
968.139
966.214
964.193
962.085
959.897
957.637
955.31
952.924
950.483
947.995
945.466
942.902
940.308
937.688
935.045
932.384
929.708
927.021
924.324
921.62
918.913
916.203
913.492
910.782
908.073
905.367
902.701
)
;
    }
    front
    {
        type            empty;
    }
    back
    {
        type            empty;
    }
    roller
    {
        type            calculated;
        value           nonuniform List<scalar> 
142
(
5605.04
4491.24
3394.43
2585.57
1534.46
1267.48
1211.88
1154.64
1117.09
1117.94
6495.72
6444.87
5278.33
4909.69
2545.06
1959.61
1569.66
1393.82
1231.93
1198.93
1165.79
1130.22
1127.22
1148.89
4420.68
4708.02
4198.42
2356.57
1865.51
2139.06
2055.72
1510.83
1287.16
1120.07
6242.14
6781.39
5400.29
4144.43
5036.36
3510.48
2775.14
3156.75
2754.5
2069.02
2432.38
2228.31
1980.52
1649.4
1607.89
1411.84
1328.7
1306.87
1246.13
1126.06
6712.84
6134.17
1909.89
1845.95
1434.06
1364.24
1311.58
1297.17
1375.05
1350.47
1110.15
1108.08
1110.61
7140.9
7115.21
3227.03
1746.08
1749.48
1700.59
1481.79
1454.22
1665.76
1576.3
1380.11
1550.58
1482.68
1323.24
1461.85
1276.21
1256.39
1187.63
1157.59
1119.99
1115.48
1111.33
1108.15
1109.63
5970.13
6943.99
5776.48
3820.78
3663.97
1695.45
1803
1414.94
1349.46
1435.05
1226.69
1217.22
1194.27
1147.7
1137.66
1131.51
1114.51
1109.23
1108.35
1111.82
7093.34
7013.6
3900.68
2992.67
2943.89
2199.51
2326.73
1802.81
1633.52
1603.91
1397.03
1526.62
1504.1
1335.81
1285.02
1236.21
1267.33
1249.59
1208.14
1178.96
1176.96
1166.94
1141.53
1134.68
1122.39
1123.45
1142.81
1112.78
1108.54
1108.89
1113.28
)
;
    }
    burner
    {
        type            calculated;
        value           nonuniform List<scalar> 
14
(
-122419
-119400
-120472
-123669
-119868
-119603
-126206
-121374
-119160
-122016
-124965
-120527
-119206
-124641
)
;
    }
}


// ************************************************************************* //
