/*--------------------------------*- C++ -*----------------------------------*\
  =========                 |
  \\      /  F ield         | OpenFOAM: The Open Source CFD Toolbox
   \\    /   O peration     | Website:  https://openfoam.org
    \\  /    A nd           | Version:  dev
     \\/     M anipulation  |
\*---------------------------------------------------------------------------*/
FoamFile
{
    version     2.0;
    format      ascii;
    class       volScalarField;
    location    "2500";
    object      rAU;
}
// * * * * * * * * * * * * * * * * * * * * * * * * * * * * * * * * * * * * * //

dimensions      [-1 3 1 0 0 0 0];

internalField   nonuniform List<scalar> 
9841
(
0.00822125
0.00828637
0.0082407
0.00826847
0.00839757
0.00817711
0.00823699
0.00839146
0.00840146
0.00812291
0.00821114
0.00838906
0.0083852
0.00841313
0.00807132
0.0081922
0.00839388
0.00837724
0.0083943
0.00842266
0.00802362
0.00817415
0.00840434
0.0083784
0.00837884
0.00840899
0.00842706
0.00797968
0.00815458
0.00841598
0.00838476
0.00836972
0.00839165
0.00841986
0.00842939
0.00793889
0.00813335
0.00842468
0.00839639
0.00836629
0.00837605
0.00840761
0.00842526
0.00843069
0.00790114
0.00811205
0.00842923
0.00840904
0.00836964
0.00836502
0.00839168
0.00841875
0.00842847
0.0084316
0.00786606
0.00809155
0.0084314
0.00841871
0.00837901
0.00835903
0.00837542
0.00840839
0.00842481
0.00843044
0.00843236
0.00783366
0.00807122
0.00843296
0.00842534
0.00839275
0.0083584
0.00836291
0.00839361
0.0084192
0.00842817
0.00843183
0.00843292
0.00780353
0.00805075
0.00843361
0.00842925
0.00840582
0.00836332
0.00835533
0.00837767
0.00841002
0.0084253
0.0084305
0.00843281
0.00843329
0.00777571
0.00803115
0.00843425
0.00843168
0.00841518
0.00837395
0.00835057
0.00836385
0.00839712
0.00842011
0.00842884
0.00843199
0.00843355
0.0084335
0.00775007
0.00801128
0.00843485
0.00843296
0.00842329
0.00838866
0.00835086
0.00835319
0.00838193
0.00841268
0.00842613
0.00843115
0.0084332
0.00843428
0.00843368
0.00772643
0.0079915
0.00843483
0.00843409
0.00842795
0.00840252
0.00835604
0.00834623
0.0083665
0.00840138
0.00842176
0.00842969
0.00843276
0.00843396
0.00843478
0.00843391
0.0077049
0.00797235
0.00843543
0.00843436
0.00843101
0.00841331
0.00836732
0.00834167
0.0083537
0.00838795
0.00841576
0.00842724
0.00843192
0.00843389
0.00843489
0.00843524
0.00843402
0.00768536
0.00795365
0.00843572
0.00843464
0.0084329
0.00842103
0.00838217
0.00834207
0.00834348
0.0083719
0.00840691
0.00842384
0.00843037
0.00843361
0.00843494
0.0084355
0.00843554
0.00843402
0.00766771
0.00793558
0.0084358
0.00843535
0.00843356
0.0084254
0.00839711
0.00834714
0.00833724
0.00835657
0.00839396
0.00841928
0.00842909
0.00843279
0.00843473
0.00843577
0.008436
0.00843593
0.00843415
0.00765205
0.00791809
0.00843629
0.00843583
0.00843438
0.00842892
0.00840849
0.00835708
0.00833303
0.00834457
0.0083792
0.00841141
0.00842715
0.00843248
0.00843451
0.00843581
0.00843635
0.00843645
0.00843607
0.00843418
0.00763824
0.00790137
0.00843639
0.00843621
0.00843536
0.00843151
0.00841607
0.00837178
0.00833274
0.00833545
0.00836368
0.00840103
0.00842264
0.00843162
0.00843448
0.0084357
0.00843664
0.00843688
0.00843678
0.00843632
0.00843422
0.00762643
0.00788568
0.00843669
0.00843668
0.00843595
0.00843291
0.00842225
0.00838683
0.00833692
0.0083293
0.00834956
0.00838777
0.00841624
0.00842896
0.0084347
0.0084362
0.00843679
0.00843733
0.00843738
0.00843711
0.00843651
0.0084342
0.0076165
0.00787113
0.00843691
0.00843684
0.00843621
0.00843447
0.00842622
0.00839911
0.00834491
0.00832507
0.00833797
0.00837368
0.00840793
0.00842533
0.00843338
0.00843672
0.00843744
0.0084376
0.00843785
0.00843767
0.00843731
0.00843672
0.00843422
0.0076085
0.00785741
0.00843683
0.00843717
0.00843706
0.00843516
0.00842797
0.00840745
0.00835589
0.00832341
0.00832933
0.00835892
0.00839719
0.00842063
0.00843103
0.00843623
0.00843849
0.00843844
0.00843821
0.00843828
0.00843798
0.00843755
0.00843688
0.00843421
0.00753637
0.00784496
0.00843705
0.00843774
0.00843747
0.00843623
0.00843065
0.00841366
0.00836806
0.00832537
0.00832297
0.00834559
0.00838478
0.00841415
0.00842854
0.00843466
0.00843828
0.00843979
0.00843939
0.00843862
0.00843861
0.00843831
0.00843775
0.00843695
0.00831942
0.00750774
0.00783357
0.00843724
0.00843788
0.00843767
0.00843685
0.00843184
0.00841772
0.00837999
0.00832948
0.00831897
0.00833404
0.0083715
0.00840607
0.00842505
0.00843338
0.00843727
0.00843969
0.00844083
0.00844002
0.00843901
0.00843887
0.00843854
0.00843785
0.00840161
0.00829641
0.00759749
0.00782336
0.00843733
0.00843808
0.00843782
0.00843704
0.00843285
0.0084208
0.00838998
0.00833595
0.00831602
0.00832566
0.00835851
0.00839572
0.00842059
0.00843162
0.00843634
0.00843908
0.0084408
0.00844178
0.00844054
0.00843932
0.00843905
0.00843875
0.00843808
0.00840859
0.00843452
0.00759784
0.00781404
0.00843732
0.00843804
0.00843822
0.00843725
0.00843365
0.00842276
0.0083973
0.0083443
0.00831495
0.00831927
0.00834563
0.00838492
0.00841402
0.00842924
0.00843547
0.00843852
0.00844054
0.00844199
0.00844243
0.00844093
0.0084396
0.00843933
0.00843885
0.00843842
0.00843758
0.00843451
0.00759903
0.00780553
0.00843724
0.00843809
0.00843839
0.0084376
0.00843377
0.00842369
0.0084019
0.00835232
0.00831593
0.00831446
0.0083347
0.00837308
0.00840631
0.00842587
0.00843421
0.00843814
0.00844016
0.00844153
0.00844259
0.00844294
0.00844124
0.00843975
0.00843948
0.00843923
0.00843857
0.00843766
0.00843434
0.00760153
0.00779569
0.008437
0.00843793
0.00843835
0.00843727
0.00843328
0.00842308
0.00840405
0.00835942
0.00831811
0.00831154
0.00832565
0.00836154
0.00839767
0.00842136
0.00843282
0.0084375
0.00844008
0.00844141
0.00844226
0.00844337
0.00844335
0.00844147
0.00843997
0.00843974
0.00843939
0.00843855
0.00843778
0.00843402
0.00760588
0.00777618
0.00843521
0.00843732
0.00843813
0.00843686
0.00843285
0.00842217
0.00840498
0.00836503
0.00832136
0.00830938
0.008319
0.00835079
0.0083881
0.00841581
0.00843055
0.00843693
0.00843984
0.00844152
0.00844233
0.00844283
0.00844375
0.00844362
0.00844168
0.00844019
0.00843999
0.00843949
0.00843855
0.0084381
0.00843338
0.00761362
0.00772514
0.00842169
0.00843687
0.00843779
0.00843658
0.00843152
0.00841972
0.00840329
0.00836978
0.00832544
0.00830799
0.00831409
0.00834089
0.00837822
0.0084093
0.00842755
0.0084358
0.00843946
0.00844154
0.00844261
0.00844303
0.00844344
0.00844424
0.00844394
0.00844186
0.00844033
0.00844006
0.00843948
0.00843853
0.00843827
0.00843247
0.00762611
0.00764533
0.00836299
0.00843614
0.00843686
0.00843513
0.00842889
0.00841576
0.008401
0.00837356
0.00833048
0.00830836
0.00831081
0.00833236
0.008369
0.00840194
0.00842384
0.00843458
0.00843926
0.00844139
0.00844286
0.0084434
0.00844374
0.00844394
0.00844455
0.00844425
0.00844204
0.00844036
0.00843997
0.00843933
0.00843858
0.00843813
0.00843163
0.00763572
0.00766621
0.00824394
0.00842897
0.00843525
0.00843221
0.00842441
0.00841227
0.00839911
0.00837585
0.00833513
0.00830949
0.00830923
0.00832591
0.0083603
0.00839448
0.00841939
0.00843249
0.00843859
0.00844123
0.00844289
0.00844362
0.00844399
0.008444
0.00844401
0.00844469
0.00844438
0.00844187
0.00844012
0.00843974
0.00843908
0.00843839
0.00843727
0.00841824
0.00675721
0.00815994
0.00771005
0.00817594
0.00837621
0.00841118
0.00842658
0.00841833
0.00840752
0.00839503
0.0083765
0.00833991
0.00831129
0.00830837
0.00832099
0.00835323
0.00838751
0.00841421
0.00843043
0.00843767
0.00844122
0.00844297
0.00844402
0.00844439
0.00844449
0.00844421
0.00844404
0.00844473
0.0084441
0.00844159
0.00843981
0.00843932
0.00843869
0.0084215
0.00847778
0.00817415
0.008172
0.00676421
0.00814006
0.0078447
0.00816722
0.0082842
0.00836538
0.00842112
0.00841061
0.0084019
0.00839173
0.00837683
0.00834439
0.00831431
0.00830808
0.00831723
0.00834655
0.00838087
0.00840993
0.00842806
0.00843666
0.00844063
0.00844289
0.00844409
0.00844457
0.00844463
0.0084446
0.0084442
0.00844406
0.00844439
0.00844369
0.00844114
0.00843927
0.00843862
0.00842003
0.00832207
0.00816359
0.00816767
0.00830535
0.00817222
0.00816222
0.00816761
0.00681284
0.00817621
0.00782073
0.00819606
0.0082713
0.0083674
0.00839582
0.00840274
0.0083955
0.00838839
0.00837718
0.00834815
0.00831825
0.00830931
0.00831559
0.0083408
0.00837419
0.00840442
0.00842546
0.00843652
0.00844111
0.00844287
0.00844407
0.00844472
0.00844495
0.00844491
0.00844447
0.00844403
0.00844366
0.00844384
0.00844306
0.00844047
0.00843845
0.00841806
0.00816352
0.00816175
0.00814855
0.00817215
0.00816732
0.00818016
0.00819866
0.00820415
0.00686405
0.00821226
0.00783081
0.00818829
0.00824915
0.00838519
0.00839597
0.00839987
0.00839082
0.00838611
0.00837747
0.00835179
0.0083217
0.00831136
0.0083154
0.00833732
0.00836864
0.00839855
0.00842187
0.00843549
0.0084415
0.00844411
0.00844485
0.00844516
0.00844525
0.00844494
0.00844467
0.00844426
0.00844352
0.00844292
0.00844291
0.0084421
0.0084395
0.00841626
0.00815638
0.00815408
0.0081511
0.00815105
0.0081696
0.00820856
0.00819073
0.00821568
0.00823403
0.00823758
0.00691386
0.00824195
0.00785313
0.00822021
0.00820739
0.00836115
0.00841312
0.00840156
0.00839013
0.00838433
0.00837721
0.00835564
0.00832557
0.00831298
0.00831529
0.0083342
0.0083648
0.00839427
0.00841816
0.0084331
0.00844083
0.00844437
0.00844607
0.00844657
0.00844622
0.00844547
0.0084448
0.00844425
0.0084436
0.0084425
0.00844162
0.00844151
0.00844079
0.0084162
0.00815182
0.00815193
0.00814767
0.00814603
0.00817243
0.00817323
0.00819446
0.00824092
0.00822274
0.00824616
0.00826367
0.00826545
0.00696321
0.0082659
0.00787807
0.00823604
0.00826909
0.00830799
0.00840654
0.00840603
0.00839344
0.00838561
0.00837921
0.00836003
0.00833039
0.0083153
0.00831558
0.00833121
0.0083605
0.00839026
0.00841515
0.00843199
0.00844044
0.00844374
0.00844592
0.00844713
0.00844763
0.00844692
0.00844598
0.00844463
0.00844358
0.00844226
0.00844081
0.00843979
0.00843986
0.00841618
0.00815216
0.00815198
0.00814481
0.0081445
0.00816901
0.00816512
0.00819991
0.00820258
0.00822572
0.00826801
0.00825263
0.00827178
0.00828785
0.0082889
0.00701602
0.00828568
0.00790436
0.0082528
0.00830742
0.00832882
0.00839143
0.00841028
0.00840134
0.00838924
0.00838148
0.00836497
0.00833558
0.00831826
0.00831719
0.00832959
0.00835649
0.00838555
0.00841143
0.00842997
0.00844055
0.00844486
0.00844654
0.00844684
0.00844733
0.00844797
0.00844731
0.00844632
0.00844455
0.00844214
0.0084403
0.00843851
0.00843809
0.00841426
0.0081495
0.00814722
0.00814586
0.00814678
0.00815917
0.00815327
0.00819969
0.00819568
0.00823032
0.00823291
0.00825541
0.00829102
0.00827829
0.00829415
0.00830778
0.00830891
0.00706976
0.00830165
0.00793278
0.00826259
0.00833235
0.00835718
0.00837709
0.00840722
0.00841036
0.00839709
0.00838632
0.00837082
0.00834163
0.00832185
0.00831937
0.00832946
0.00835405
0.00838156
0.00840716
0.00842711
0.00843968
0.00844594
0.00844794
0.00844826
0.00844736
0.00844725
0.0084474
0.00844698
0.00844617
0.00844408
0.00844174
0.00844
0.00843759
0.00841158
0.00814447
0.00814216
0.0081474
0.00814939
0.00814956
0.00815263
0.00818879
0.00817813
0.00823031
0.00822459
0.00825837
0.00826088
0.00828148
0.00831058
0.0083004
0.00831344
0.0083238
0.00832576
0.00712392
0.00831393
0.00796348
0.00827347
0.0083387
0.00837231
0.00837107
0.00839917
0.00841388
0.0084071
0.00839386
0.00837678
0.00834837
0.00832646
0.00832197
0.00832986
0.00835276
0.00837876
0.00840352
0.00842425
0.00843766
0.00844504
0.00844836
0.00844986
0.00844959
0.00844832
0.00844721
0.0084464
0.00844589
0.00844602
0.00844675
0.00844647
0.0084429
0.00840851
0.00814297
0.00814752
0.00815464
0.00816011
0.0081597
0.00817066
0.00816548
0.00817175
0.00821337
0.00819799
0.00825694
0.00824081
0.00828266
0.008281
0.00830299
0.00832733
0.00831762
0.00832845
0.0083357
0.00833952
0.00717971
0.00832321
0.00799594
0.00828692
0.00834382
0.00837658
0.00837098
0.00839144
0.0084138
0.00841439
0.00840275
0.00838353
0.00835528
0.00833117
0.00832498
0.00833078
0.00835197
0.0083768
0.00840084
0.00842169
0.00843605
0.00844389
0.00844782
0.00844972
0.00845079
0.00845078
0.00844933
0.00844742
0.00844521
0.00844543
0.00845137
0.00845265
0.0084485
0.00841556
0.0081434
0.00815472
0.00816781
0.00816886
0.00818136
0.00818056
0.00818537
0.00819122
0.00818778
0.0081922
0.0082181
0.00820195
0.00826003
0.00822865
0.00829667
0.00826995
0.00831085
0.00834101
0.00831987
0.00832996
0.00834409
0.00834953
0.00723461
0.00832917
0.00802938
0.00830526
0.00835015
0.00838048
0.0083745
0.00838753
0.00841077
0.00841674
0.00840939
0.00839042
0.00836152
0.00833626
0.00832867
0.0083325
0.00835162
0.0083755
0.00839847
0.00841933
0.00843466
0.00844354
0.00844792
0.00844938
0.00845035
0.00845119
0.00845127
0.00844991
0.0084473
0.00844541
0.00845251
0.00845495
0.00844513
0.00843829
0.00815623
0.00795854
0.00809618
0.00807487
0.00816616
0.00812678
0.00817623
0.00812977
0.00818368
0.00814147
0.00818914
0.00815257
0.0082013
0.00817015
0.00822779
0.00819371
0.00827605
0.00822683
0.00828325
0.0083435
0.00828841
0.00830034
0.00834918
0.00835101
0.00728471
0.00833027
0.00806555
0.00832091
0.00836122
0.00838297
0.00837985
0.00838764
0.0084075
0.00841719
0.00841272
0.00839573
0.00836674
0.00834111
0.00833219
0.00833466
0.00835171
0.00837449
0.00839674
0.00841718
0.00843323
0.00844305
0.00844791
0.00844987
0.00845041
0.00845076
0.00845094
0.00845088
0.00844952
0.00844783
0.00845406
0.00845504
0.00843853
0.0084237
0.00812642
0.00798727
0.0074549
0.00807154
0.00799991
0.00806038
0.00796831
0.00806469
0.00796039
0.00807783
0.00797124
0.00810076
0.00799063
0.00813396
0.0080321
0.00817918
0.00809179
0.00822647
0.00816081
0.00822855
0.00831621
0.008229
0.00824484
0.0083488
0.00832672
0.00732493
0.00832456
0.00810303
0.00833279
0.00837026
0.00838372
0.00838478
0.00839019
0.00840563
0.00841612
0.00841352
0.00839884
0.0083706
0.00834506
0.00833538
0.008337
0.00835209
0.00837391
0.00839523
0.00841524
0.00843191
0.00844248
0.00844802
0.0084506
0.00845106
0.00845101
0.00845073
0.00845024
0.00844954
0.00844868
0.008455
0.00845698
0.00843709
0.0084083
0.00829887
0.00766309
0.00753526
0.00790412
0.00778494
0.00786201
0.00775254
0.00784053
0.00771736
0.00784312
0.007712
0.00785878
0.0077265
0.00788959
0.00774483
0.00794803
0.00779176
0.00804528
0.00787069
0.00814195
0.00799775
0.00812992
0.00826189
0.00813438
0.00815569
0.00833119
0.00827962
0.00734603
0.00830592
0.00814073
0.00834538
0.00837336
0.00838333
0.0083882
0.00839422
0.00840559
0.00841416
0.00841381
0.00839941
0.00837293
0.00834806
0.00833819
0.00833941
0.00835267
0.00837364
0.00838125
0.00841342
0.00843045
0.00844193
0.00844814
0.00845093
0.0084519
0.00845165
0.00845115
0.00845038
0.00844895
0.00844719
0.00845145
0.00845856
0.00843996
0.0083995
0.00824882
0.00739084
0.007278
0.00728847
0.00714782
0.00761289
0.00743647
0.00757165
0.00741761
0.00756355
0.00740849
0.00759222
0.00742349
0.00761944
0.0074581
0.0076443
0.00750778
0.00769597
0.00755871
0.00780659
0.00762055
0.00796005
0.00775214
0.00794474
0.00818559
0.00795218
0.00798751
0.00829986
0.00820729
0.00732349
0.00826955
0.00818431
0.00835195
0.00837608
0.00838165
0.00839051
0.00839855
0.0084068
0.00841272
0.00841243
0.0083993
0.00837402
0.00835023
0.00834041
0.00834159
0.00835361
0.00837349
0.00836083
0.00839907
0.00842904
0.00844138
0.00844818
0.00845145
0.00845261
0.00845239
0.00845173
0.0084508
0.00844933
0.00844701
0.00844626
0.00845574
0.00844282
0.00839292
0.0082138
0.00716724
0.00689673
0.00698478
0.00690215
0.00685243
0.00701339
0.00723512
0.00698485
0.00722123
0.0069989
0.00714997
0.00701206
0.00729585
0.00702486
0.00736364
0.00713233
0.00741856
0.00731561
0.00748067
0.00738792
0.00756837
0.00742765
0.0077153
0.00752212
0.0077037
0.00803776
0.00771959
0.00777115
0.00824325
0.00811609
0.00725649
0.00821752
0.00826236
0.00835468
0.00837449
0.00837915
0.0083919
0.00840218
0.0084088
0.00841213
0.00841063
0.00839869
0.0083744
0.00835149
0.0083421
0.00834337
0.0083546
0.00837355
0.00834089
0.00837818
0.00842763
0.00844089
0.00844829
0.00845197
0.0084533
0.00845307
0.00845231
0.00845117
0.00844961
0.00844741
0.00844544
0.00844972
0.0084429
0.00838254
0.00818309
0.00777373
0.00691569
0.00673583
0.00689964
0.00684414
0.00683999
0.00703522
0.00685494
0.00692368
0.00688136
0.00697068
0.00682388
0.00699233
0.00693084
0.00695739
0.0072468
0.00710092
0.00729062
0.0072425
0.00733385
0.00728516
0.00739249
0.00730453
0.00749852
0.00736017
0.00749123
0.00785311
0.00751021
0.00755709
0.00816001
0.00794371
0.0070983
0.00796523
0.00836094
0.00837222
0.00837662
0.00839239
0.00840482
0.00841079
0.00841234
0.00840933
0.00839742
0.00837416
0.00835226
0.00834323
0.00834472
0.00835553
0.0083736
0.00830296
0.00835074
0.00842626
0.00844023
0.00844844
0.00845238
0.00845397
0.00845369
0.00845277
0.00845142
0.00844948
0.00844745
0.00844633
0.0084458
0.0084391
0.00836724
0.00815203
0.0079962
0.00689327
0.00666534
0.00687355
0.00691415
0.00696932
0.00691148
0.00701711
0.00695981
0.00689646
0.00708189
0.0066071
0.00658985
0.0064116
0.00609059
0.00698141
0.00716893
0.00726019
0.00725155
0.00725486
0.00724791
0.00725317
0.00724074
0.00728199
0.00724079
0.00734705
0.00726034
0.00734462
0.00764256
0.00735796
0.00723432
0.00800211
0.00775294
0.00718854
0.00800276
0.00833457
0.00837661
0.00839239
0.00840641
0.00841253
0.00841272
0.00840857
0.00839598
0.00837369
0.00835256
0.00834388
0.00834575
0.00835626
0.00837361
0.00830432
0.00828549
0.00841794
0.00843947
0.00844857
0.00845289
0.0084545
0.00845423
0.0084531
0.00845139
0.008449
0.00844692
0.00844706
0.00844187
0.00842672
0.00834849
0.00814731
0.00806105
0.00679102
0.00609961
0.00677529
0.00671725
0.00686786
0.00682523
0.00691024
0.00687355
0.0069933
0.00694985
0.00687433
0.00704167
0.0065382
0.00709285
0.00720111
0.00719802
0.00724337
0.00723666
0.00725973
0.0072774
0.00724442
0.0072692
0.00722581
0.00724664
0.00722381
0.00722432
0.00725446
0.00698301
0.00705086
0.00725567
0.00698773
0.00484328
0.00518622
0.00790975
0.00743369
0.00719002
0.00807687
0.00829971
0.00839437
0.00840742
0.00841353
0.00841327
0.00840784
0.00839467
0.00837306
0.00835252
0.00834418
0.00834643
0.00835685
0.00837349
0.00830551
0.00825415
0.00838903
0.00843839
0.00844863
0.00845343
0.00845499
0.00845461
0.00845323
0.00838897
0.00843918
0.00844634
0.0084399
0.00843591
0.00840459
0.00832414
0.00814179
0.00805774
0.00755215
0.00666136
0.00649477
0.00674834
0.00669306
0.00684201
0.00679889
0.00691503
0.00689229
0.0070206
0.00699717
0.00709727
0.00705772
0.00719423
0.00717319
0.00724063
0.00725682
0.0072904
0.00730189
0.0073083
0.00734653
0.00728367
0.00733876
0.00700464
0.0070187
0.00698344
0.00698117
0.0069236
0.00453422
0.00477343
0.00491094
0.00464059
0.00493786
0.00535548
0.00495713
0.00471473
0.00465895
0.00473555
0.00462001
0.00773706
0.00507246
0.00520144
0.00571979
0.00695087
0.00801223
0.00828077
0.00841033
0.00841455
0.00841366
0.00840738
0.00839312
0.00837222
0.00835225
0.00834406
0.00834672
0.0083572
0.00837312
0.0083892
0.00823664
0.00835422
0.00843689
0.00844845
0.00845385
0.00845547
0.00845486
0.00845313
0.00838827
0.00806131
0.00842563
0.00840413
0.00841386
0.00837788
0.00829272
0.00813196
0.00805801
0.00805432
0.0065824
0.00645612
0.00663801
0.00658356
0.00680768
0.00676576
0.00687028
0.00684182
0.00699883
0.00701478
0.00712361
0.00714392
0.00714741
0.00712947
0.00726316
0.00725397
0.00732606
0.00735706
0.007377
0.00740361
0.0073989
0.00745065
0.00709322
0.00722318
0.00494583
0.00472706
0.00480647
0.00488108
0.00461083
0.00466483
0.00490862
0.00480873
0.00473193
0.00471809
0.00460432
0.00462009
0.00451044
0.00449465
0.00464427
0.00469096
0.00453256
0.00449008
0.00450159
0.00456358
0.00540507
0.00654685
0.00578844
0.00477127
0.0049057
0.00693614
0.00630069
0.00702819
0.00783624
0.00826649
0.00841846
0.00841467
0.00840723
0.00839223
0.00837077
0.00835153
0.00834361
0.00834663
0.00835723
0.00837244
0.00838764
0.00825292
0.00796084
0.00843442
0.00844756
0.00845401
0.00845579
0.00845501
0.0084528
0.00844938
0.00802465
0.008316
0.00827203
0.00835564
0.00834104
0.00825553
0.00811689
0.00805694
0.00802927
0.00767227
0.00659285
0.00646873
0.00671645
0.00665742
0.00702792
0.00700324
0.00702906
0.0070358
0.00719701
0.00722756
0.00728572
0.00734501
0.0072481
0.00725654
0.00737058
0.00736944
0.00743961
0.00747595
0.00748864
0.00751691
0.00729613
0.00734807
0.00494883
0.00502279
0.00509526
0.00514404
0.00474076
0.00484462
0.00493749
0.00455506
0.00464037
0.00479679
0.0048565
0.00474289
0.00452667
0.00448215
0.00451902
0.00456912
0.00450069
0.00459435
0.00465326
0.00453272
0.00450618
0.00455034
0.00457952
0.00515023
0.00555342
0.00476029
0.00494974
0.00762014
0.00462745
0.00796864
0.0061846
0.00671041
0.00825002
0.00841971
0.00840796
0.00839208
0.00837019
0.00835022
0.00834295
0.00834667
0.00835743
0.00837146
0.00838554
0.00830566
0.00770514
0.00843069
0.00844536
0.00845376
0.00845581
0.00845472
0.00845209
0.00844732
0.00834822
0.00829298
0.0079149
0.00814226
0.00829749
0.00821143
0.00809363
0.00805317
0.00800812
0.00795275
0.00666441
0.00657432
0.00680094
0.00671116
0.00695861
0.00688712
0.00728734
0.00727875
0.00723319
0.00726797
0.00742567
0.00745324
0.00743219
0.00749834
0.00737301
0.00739101
0.00749381
0.00749988
0.00754928
0.00757887
0.00737806
0.00739929
0.00518457
0.00520317
0.00521705
0.00520865
0.00501047
0.00507288
0.00512764
0.00517218
0.004893
0.00500567
0.00509754
0.00464777
0.00476921
0.0049697
0.00503834
0.00490316
0.00458854
0.00451742
0.00458095
0.00467415
0.0045541
0.00465887
0.00475939
0.00464984
0.00463008
0.00473687
0.00472812
0.00524524
0.0056784
0.00490388
0.00510724
0.0074101
0.00386529
0.0077802
0.00616222
0.00668208
0.00822877
0.00841301
0.00839221
0.0083698
0.0083496
0.00834142
0.00834714
0.00835809
0.00837142
0.00838257
0.00838742
0.00801155
0.00840285
0.00844227
0.00845284
0.00845604
0.00845451
0.00845063
0.00844412
0.0084371
0.00830879
0.00791275
0.00777576
0.00825883
0.00816459
0.00806533
0.00804266
0.00798929
0.00791768
0.00774981
0.00695263
0.00682941
0.00717004
0.00706038
0.0072726
0.00722522
0.00742164
0.00734623
0.00741904
0.00739652
0.00757265
0.00762688
0.00753894
0.0076063
0.00750958
0.00752648
0.00759338
0.00760016
0.00759994
0.00761143
0.00519659
0.00518566
0.00517544
0.00527574
0.00517998
0.00517
0.00514409
0.00510348
0.00508659
0.00510487
0.00520072
0.0052263
0.00507718
0.00518215
0.00525198
0.00479191
0.00494699
0.00516736
0.00524536
0.00510361
0.00469647
0.004613
0.0046973
0.00482844
0.00472903
0.00482879
0.00493693
0.00482676
0.00481925
0.00492044
0.00490624
0.00538843
0.00575765
0.00506881
0.00524671
0.00735699
0.00325498
0.00758885
0.00616516
0.00674318
0.0082003
0.00839637
0.00836849
0.00834749
0.00833923
0.00834545
0.00835839
0.00837057
0.00838042
0.00838235
0.00829822
0.00839662
0.00835196
0.00840212
0.00845117
0.00845545
0.00844972
0.00844143
0.00843231
0.00837783
0.00823809
0.00783403
0.00821065
0.00811706
0.00803293
0.00802738
0.00796981
0.00788172
0.00793474
0.00712152
0.00700526
0.00731009
0.0072136
0.00749143
0.00741414
0.00747643
0.00750329
0.00767722
0.00762953
0.00764397
0.00763235
0.00767891
0.00775177
0.00763483
0.00765157
0.00761098
0.00762815
0.00761854
0.00762672
0.00719768
0.0073708
0.00505564
0.00502103
0.00498633
0.00511258
0.00519449
0.00514691
0.00509115
0.00504059
0.00528058
0.00529168
0.00527004
0.00521921
0.00526508
0.00534121
0.00536793
0.00498183
0.00515844
0.00536102
0.00544915
0.00532165
0.00485029
0.00480602
0.00488256
0.00502924
0.00490735
0.00498688
0.00507357
0.00498212
0.00498847
0.005066
0.00504363
0.00549387
0.00580278
0.00518236
0.00533898
0.00718545
0.00284611
0.00691707
0.00623079
0.00670742
0.00816261
0.00837157
0.00834356
0.0083342
0.00834111
0.00835523
0.00832905
0.00835919
0.00837993
0.00838524
0.00840888
0.00842871
0.00833615
0.00840558
0.00845047
0.00845058
0.0084406
0.00842976
0.00840915
0.00833314
0.0081763
0.00816645
0.00807075
0.00799903
0.00800804
0.00794799
0.00784575
0.00787371
0.00789671
0.00750293
0.0073055
0.00751721
0.007532
0.00756612
0.00748039
0.00769228
0.00773643
0.00793733
0.00800473
0.00781103
0.00787148
0.00764809
0.00765205
0.00731816
0.00715085
0.00764001
0.00766357
0.00738313
0.00755332
0.00500472
0.00498581
0.0049868
0.00498906
0.00498754
0.00495049
0.00491629
0.00489838
0.00516904
0.00511744
0.00508043
0.00509088
0.00534817
0.00531326
0.00526647
0.00523098
0.00542466
0.0054516
0.00542695
0.005209
0.00538487
0.00552386
0.00561769
0.0055303
0.00505092
0.00499995
0.00510223
0.00526194
0.00507173
0.00510395
0.00516663
0.00510334
0.00514467
0.0051869
0.00515499
0.0055579
0.00584467
0.00526004
0.00539629
0.00682232
0.00265256
0.00513381
0.00622081
0.00648784
0.00811665
0.00834279
0.0083274
0.00833427
0.00834947
0.00833542
0.00831327
0.00835411
0.00837591
0.00839315
0.00839423
0.00835223
0.00842368
0.00845228
0.00844974
0.00844059
0.00842839
0.0084116
0.00826285
0.00825523
0.00813076
0.00802682
0.00796618
0.0079856
0.00778954
0.00780957
0.00782679
0.00791443
0.00725798
0.00725162
0.00767585
0.0074845
0.00788929
0.00776801
0.00794636
0.00795005
0.00798104
0.00800286
0.00794288
0.0080248
0.00773098
0.0078493
0.00747955
0.00762627
0.0076215
0.00764393
0.00756485
0.00759054
0.00498034
0.00521288
0.0072828
0.00506978
0.0050495
0.00502653
0.00504408
0.00510469
0.00511654
0.00511269
0.00510108
0.0052636
0.00532599
0.00537149
0.00540211
0.0053654
0.00534051
0.005372
0.005455
0.00553243
0.0055104
0.00545156
0.0054458
0.00559712
0.00563352
0.00573438
0.0057022
0.00528797
0.00520372
0.00535448
0.00550578
0.00525376
0.00519534
0.00524669
0.00521761
0.00530899
0.00532874
0.00524915
0.0055901
0.00583035
0.00531573
0.00542431
0.00647435
0.0026538
0.00434717
0.00602602
0.00613132
0.00806458
0.00830476
0.00832446
0.00834206
0.00834103
0.00832211
0.0083438
0.00836338
0.0083793
0.00837938
0.0083464
0.0084285
0.00844569
0.00844568
0.00843838
0.00842591
0.00840908
0.00808528
0.00823417
0.00808449
0.00798647
0.0079368
0.00796176
0.00748678
0.00777745
0.0077819
0.0079036
0.007848
0.00752628
0.00727217
0.00795481
0.00772967
0.00813084
0.00803308
0.00815406
0.00815419
0.00809422
0.00813679
0.00789708
0.00800285
0.00768892
0.00779764
0.0076647
0.00768302
0.00750324
0.0075188
0.00733329
0.00748693
0.00501295
0.00527754
0.0054222
0.0053609
0.0053577
0.0053338
0.00531653
0.00532956
0.00541225
0.00541403
0.0054036
0.00539201
0.00555121
0.00562538
0.00566344
0.00566693
0.00541564
0.00549405
0.00561417
0.00572819
0.00559499
0.00554875
0.00552348
0.00567126
0.00577839
0.00570438
0.00581778
0.00582923
0.0055377
0.0054331
0.00562177
0.00573607
0.00547516
0.0052785
0.00530808
0.00534253
0.00551548
0.00551597
0.00534551
0.00556922
0.00566609
0.00535211
0.00540755
0.00585414
0.00250631
0.00516332
0.00557943
0.00492005
0.00800018
0.00827587
0.00832696
0.00834566
0.00833256
0.00834065
0.00835704
0.008371
0.00839021
0.00837685
0.00839629
0.00842311
0.00844072
0.00843436
0.00842148
0.00840329
0.00792232
0.00821398
0.00804166
0.00795136
0.00790965
0.00794168
0.0071522
0.0077513
0.00774529
0.00788239
0.0079432
0.00724712
0.00725149
0.00760017
0.00724691
0.00815605
0.00802102
0.00817456
0.00816883
0.0081685
0.00817383
0.00809759
0.00815041
0.00785165
0.00797639
0.00770773
0.00775861
0.0075514
0.00759151
0.00740118
0.00748822
0.00508437
0.00527553
0.00748268
0.00529336
0.00529033
0.00548617
0.00544832
0.00555888
0.00553255
0.00551077
0.00552589
0.00547741
0.00490315
0.00502393
0.00559453
0.00580844
0.00585086
0.00585721
0.0057951
0.00558575
0.00572001
0.00583818
0.00592059
0.00564854
0.00563345
0.00568106
0.0058675
0.00592415
0.0057741
0.00590619
0.00592968
0.00577957
0.00569677
0.0059004
0.00593596
0.00574574
0.00534163
0.00534771
0.00548867
0.00576644
0.00572562
0.00544157
0.00543501
0.00528107
0.0053454
0.00531124
0.00478291
0.00338766
0.00490371
0.00463475
0.0045611
0.00794349
0.00825712
0.00833089
0.00834095
0.00834028
0.00835138
0.00825928
0.00811473
0.00801611
0.00799846
0.00814215
0.00842154
0.00843135
0.00841728
0.00839529
0.00786322
0.00818923
0.00800671
0.00792559
0.00788796
0.00792369
0.00697444
0.00773044
0.00771573
0.00784795
0.00799528
0.00794035
0.00770409
0.00772809
0.0077398
0.00769863
0.00816636
0.00808126
0.00818377
0.0081769
0.00817871
0.00818462
0.0080906
0.00815576
0.00783913
0.00797181
0.00764651
0.00772716
0.00747676
0.00752986
0.00543529
0.0055967
0.00747536
0.00543602
0.00573022
0.00563028
0.00574264
0.00549268
0.00548359
0.00566427
0.00565048
0.00569173
0.00566658
0.00564573
0.00565698
0.00535942
0.0052097
0.00556367
0.00572737
0.00596613
0.0059804
0.00596915
0.00594033
0.00577912
0.00589203
0.00597371
0.00602473
0.0057474
0.00578727
0.00585053
0.0060284
0.00604944
0.00588922
0.0060459
0.00604336
0.00602627
0.00598594
0.00617635
0.00612178
0.00603118
0.00539863
0.00536032
0.0056406
0.00600497
0.00591148
0.00555008
0.00513754
0.00474686
0.0052783
0.0051148
0.00430237
0.00253511
0.00466389
0.00451835
0.00429942
0.00790013
0.00816817
0.00832933
0.00832562
0.00831077
0.00824437
0.00794494
0.00770722
0.00758075
0.00777866
0.00842544
0.00842982
0.00841677
0.00838881
0.00798179
0.0081704
0.00798253
0.0079073
0.00787536
0.00790942
0.00720401
0.00771333
0.0076901
0.00783096
0.00796387
0.00811881
0.00780937
0.00764877
0.00813381
0.0081192
0.00813941
0.00814545
0.00817052
0.00814759
0.00818728
0.00817901
0.00818675
0.00819166
0.0080916
0.00816111
0.00784921
0.00798645
0.00761579
0.00772292
0.00736261
0.00754096
0.00571434
0.00596018
0.00584468
0.00570669
0.00565468
0.00567391
0.00573895
0.00578808
0.00563948
0.00565467
0.00580605
0.00580217
0.00580851
0.00578546
0.0057749
0.00577481
0.0059086
0.00588336
0.0058592
0.00584145
0.00605395
0.00606782
0.00606602
0.00604457
0.00591729
0.00599688
0.00605469
0.00610362
0.00591319
0.00596034
0.00599121
0.00618178
0.00619238
0.00606456
0.00622787
0.0062039
0.00626981
0.00625312
0.0064075
0.00632633
0.00625302
0.00546287
0.00533775
0.00580087
0.00618298
0.00609332
0.005668
0.00477203
0.0047105
0.00517053
0.00489976
0.00438719
0.00416631
0.00457632
0.00482712
0.00415454
0.00779967
0.00813801
0.00829512
0.00820468
0.00820042
0.00808098
0.00787266
0.00774126
0.00770334
0.00828077
0.00840968
0.00841798
0.00838775
0.00820222
0.00815718
0.00796798
0.00789473
0.00786735
0.00790077
0.00764907