/*--------------------------------*- C++ -*----------------------------------*\
  =========                 |
  \\      /  F ield         | OpenFOAM: The Open Source CFD Toolbox
   \\    /   O peration     | Website:  https://openfoam.org
    \\  /    A nd           | Version:  dev
     \\/     M anipulation  |
\*---------------------------------------------------------------------------*/
FoamFile
{
    version     2.0;
    format      ascii;
    class       volScalarField;
    location    "2500";
    object      rDeltaT;
}
// * * * * * * * * * * * * * * * * * * * * * * * * * * * * * * * * * * * * * //

dimensions      [0 0 -1 0 0 0 0];

internalField   nonuniform List<scalar> 
9841
(
100
100
100
100
100
100
100
100
100
100
100
100
100
100
100
100
100
100
100
100
100
100
100
100
100
100
100
100
100
100
100
100
100
100
100
100
100
100
100
100
100
100
100
100
100
100
100
100
100
100
100
100
100
100
100
100
100
100
100
100
100
100
100
100
100
100
100
100
100
100
100
100
100
100
100
100
100
100
100
100
100
100
100
100
100
100
100
100
100
100
100
100
100
100
100
100
100
100
100
100
100
100
100
100
100
100
100
100
100
100
100
100
100
100
100
100
100
100
100
100
100
100
100
100
100
100
100
100
100
100
100
100
100
100
100
100
100
100
100
100
100
100
100
100
100
100
100
100
100
100
100
100
100
100
100
100
100
100
100
100
100
100
100
100
100
100
100
100
100
100
100
100
100
100
100
100
100
100
100
100
100
100
100
100
100
100
100
100
100
100
100
100
100
100
100
100
100
100
100
100
100
100
100
100
100
100
100
100
100
100
100
100
100
100
100
100
100
100
100
100
100
100
100
100
100
100
100
100
100
100
100
100
100
100
100
100
100
100
100
100
100
100
100
100
100
100
100
100
100
100
100
100
100
100
100
100
100
100
100
100
100
100
100
100
100
100
100
100
100
100
100
100
100
100
100
100
100
100
100
100
100
100
100
100
100
100
100
100
100
100
100
100
100
100
100
100
100
100
100
100
100
100
100
100
100
100
100
100
100
100
100
100
100
100
100
100
100
100
100
100
100
100
100
100
100
100
100
100
100
100
100
100
100
100
100
100
100
100
100
100
100
100
100
100
100
100
100
100
100
100
100
100
100
100
100
100
100
100
100
100
100
100
100
100
100
100
100
100
100
100
100
100
100
100
100
100
100
100
100
100
100
100
100
100
100
100
100
100
100
100
100
100
100
100
100
100
100
100
100
100
100
100
100
100
100
100
100
100
100
100
100
100
100
100
100
100
100
100
100
100
100
100
100
100
100
100
100
100
100
100
100
100
100
100
100
100
100
100
100
100
100
100
100
100
100
100
100
100
100
100
100
100
100
100
100
100
100
100
100
100
100
100
100
100
100
100
100
100
100
100
100
100
100
100
100
100
100
100
100
100
100
100
100
100
100
100
100
100
100
100
100
100
100
100
100
100
100
100
100
100
100
100
100
100
100
100
100
100
100
100
100
100
100
100
100
100
100
100
100
100
100
100
100
100
100
100
100
100
100
100
100
100
100
100
100
100
100
100
100
100
100
100
100
100
100
100
100
100
100
100
100
100
100
100
100
100
100
100
100
100
100
100
100
100
100
100
100
100
100
100
100
100
100
100
100
100
100
100
100
100
100
100
100
100
100
100
100
100
100
100
100
100
100
100
100
100
100
100
100
100
100
100
100
100
100
100
100
100
100
100
100
100
100
100
100
100
100
100
100
100
100
100
100
100
100
100
100
100
100
100
100
100
100
100
100
100
100
100
100
100
100
100
100
100
100
100
100
100
100
100
100
100
100
100
100
100
100
100
100
100
100
100
100
100
100
100
100
100
100
100
100
100
100
100
100
100
100
100
100
100
100
100
100
100
100
100
100
100
100
100
100
100
100
100
100
100
100
100
100
100
100
100
100
100
100
100
100
100
100
100
100
100
100
100
100
100
100
100
100
100
100
100
100
100
100
100
100
100
100
100
100
100
100
100
100
100
100
100
100
100
100
100
100
100
100
100
100
100
100
100
100
100
100
100
100
100
100
100
100
100
100
100
100
100
100
100
100
100
100
100
100
100
100
100
100
100
100
100
100
100
100
100
100
100
100
100
100
100
100
100
100
100
100
100
100
100
100
100
100
100
100
100
100
100
100
100
100
100
100
100
100
100
100
100
100
100
100
100
100
100
100
100
100
100
100
100
100
100
100
100
100
100
100
100
100
100
100
100
100
100
100
100
100
100
100
100
100
100
100
100
100
100
100
100
100
100
100
100
100
100
100
100
100
100
100
100
100
100
100
100
100
100
100
100
100
100
100
100
100
100
100
100
100
100
100
100
100
100
100
100
100
100
100
100
100
100
100
100
100
100
100
100
100
100
100
100
100
100
100
100
100
100
100
100
100
100
100
100
100
100
100
100
100
100
100
100
100
100
100
100
100
100
100
100
100
100
100
100
100
100
100
100
100
100
100
100
100
100
100
100
100
100
100
100
100
100
100
100
100
100
100
100
100
100
100
100
100
100
100
100
100
100
100
100
100
100
100
100
100
100
100
100
100
100
100
100
100
100
100
100
100
100
100
100
100
100
100
100
100
100
100
100
100
100
100
100
100
100
100
100
100
100
100
100
100
100
100
100
100
100
100
100
100
100
100
100
100
100
100
100
100
100
100
100
100
100
100
100
100
100
100
100
100
100
100
100
100
100
100
100
100
100
100
100
100
100
100
100
100
100
100
100
100
100
100
100
100
100
100
100
100
100
100
100
100
100
100
100
100
100
100
100
100
100
100
100
100
100
100
100
100
100
100
100
100
100
100
100
100
100
100
100
100
100
100
100
100
100
100
100
100
100
100
100
100
100
100
100
100
100
100
100
100
100
100
100
100
100
100
100
100
100
100
100
100
100
100
100
100
100
100
100
100
100
100
100
100
100
100
100
100
100
100
100
100
100
100
100
100
100
100
100
100
100
100
100
100
100
100
100
100
100
100
100
100
100
100
100
100
100
100
100
100
100
100
100
100
100
100
100
100
100
100
100
100
100
100
100
100
100
100
100
100
100
100
100
100
100
100
100
100
100
100
100
100
100
100
100
100
100
100
100
100
100
100
100
100
100
100
100
100
100
100
100
100
100
100
100
100
100
100
100
100
100
100
100
100
100
100
100
100
100
100
100
100
100
100
100
100
100
100
100
100
100
100
100
100
100
100
100
100
100
100
100
100
100
100
100
100
100
100
100
100
100
100
100
100
100
100
100
100
100
100
100
100
100
100
100
100
100
100
100
100
100
100
100
100
100
100
100
100
100
100
100
100
100
100
100
100
100
100
100
100
100
100
100
100
100
100
100
100
100
100
100
100
100
100
100
100
100
100
100
100
100
100
100
100
100
100
100
100
100
100
100
100
100
100
100
100
100
100
100
100
100
100
100
100
100
100
100
100
100
100
100
100
100
100
100
100
100
100
100
100
100
100
100
100
100
100
100
100
100
100
100
100
100
100
100
100
100
100
100
100
100
100
100
100
100
100
100
100
100
100
100
100
100
100
100
100
100
100
100
100
100
100
100
100
100
100
100
100
100
100
100
100
100
100
100
100
100
100
100
100
100
100
100
100
100
100
100
100
100
100
100
100
100
100
100
100
100
100
100
100
100
100
100
100
100
100
100
100
100
100
100
100
100
100
100
100
100
100
100
100
100
100
100
100
100
100
100
100
100
100
100
100
100
100
100
100
100
100
100
100
100
100
100
100
100
100
100
100
100
100
100
100
100
100
100
100
100
100
100
100
100
100
100
100
100
100
100
100
100
100
100
100
100
100
100
100
100
100
100
100
100
100
100
100
100
100
100
100
100
100
100
100
100
100
100
100
100
100
100
100
100
100
100
100
100
100
100
100
100
100
100
100
100
100
100
100
100
100
100
100
100
100
100
100
100
100
100
100
100
100
100
100
100
100
100
100
100
100
100
100
100
100
100
100
100
100
100
100
100
100
100
100
100
100
100
100
100
100
100
100
100
100
100
100
100
100
100
100
100
100
100
100
100
100
100
100
100
100
100
100
100
100
100
100
100
100
100
100
100
100
100
100
100
100
100
100
100
100
100
100
100
100
100
100
100
100
100
100
100
100
100
100
100
100
100
100
100
100
100
100
100
100
100
100
100
100
100
100
100
100
100
100
100
100
100
100
100
100
100
100
100
100
100
100
100
100
100
100
100
100
100
100
100
100
100
100
100
100
100
100
100
100
100
100
100
100
100
100
100
100
100
100
100
100
100
100
100
100
100
100
100
100
100
100
100
100
100
100
100
100
100
100
100
100
100
100
100
100
100
100
100
100
100
100
100
100
100
100
100
100
100
100
100
100
100
100
100
100
100
100
100
100
100
100
100
100
100
100
100
100
100
100
100
100
100
100
100
100
100
100
100
100
100
100
100
100
100
100
100
100
100
100
100
100
100
100
100
100
100
100
100
100
100
100
100
100
100
100
100
100
100
100
100
100
100
100
100
100
100
100
100
100
100
100
100
100
100
100
100
100
100
100
100
100
100
100
100
100
100
100
100
100
100
100
100
100
100
100
100
100
100
100
100
100
100
100
100
100
100
100
100
100
100
100
100
100
100
100
100
100
100
100
100
100
100
100
100
100
100
100
100
100
100
100
100
100
100
100
100
100
100
100
100
100
100
100
100
100
100
100
100
100
100
100
100
100
100
100
100
100
100
100
100
100
100
100
100
100
100
100
100
100
100
100
100
100
100
100
100
100
100
100
100
100
100
100
100
100
100
100
100
100
100
100
100
100
100
100
100
100
100
100
100
100
100
100
100
100
100
100
100
100
100
100
100
100
100
100
100
100
100
100
100
100
100
100
100
100
100
100
100
100
100
100
100
100
100
100
100
100
100
100
100
100
100
100
100
100
100
100
100
100
100
100
100
100
100
100
100
100
100
100
100
100
100
100
100
100
100
100
100
100
100
100
100
100
100
100
100
100
100
100
100
100
100
100
100
100
100
100
100
100
100
100
100
100
100
100
100
100
100
100
100
100
100
100
100
100
100
100
100
100
100
100
100
100
100
100
100
100
100
100
100
100
100
100
100
100
100
100
100
100
100
100
100
100
100
100
100
100
100
100
100
100
100
100
100
100
100
100
100
100
100
100
100
100
100
100
100
100
100
100
100
100
100
100
100
100
100
100
100
100
100
100
100
100
100
100
100
100
100
100
100
100
100
100
100
100
100
100
100
100
100
100
100
100
100
100
100
100
100
100
100
100
100
100
100
100
100
100
100
100
100
100
100
100
100
100
100
100
100
100
100
100
100
100
100
100
100
100
100
100
100
100
100
100
100
100
100
100
100
100
100
100
100
100
100
100
100
100
100
100
100
100
100
100
100
100
100
100
100
100
100
100
100
100
100
100
100
100
100
100
100
100
100
100
100
100
100
100
100
100
100
100
100
100
100
100
100
100
100
100
100
100
100
100
100
100
100
153.694
111.459
100
100
100
100
100
100
100
100
100
100
100
100
100
100
100
100
100
100
100
100
100
100
100
100
100
100
100
100
100
100
100
100
100
100
100
100
100
100
100
100
100
100
100
100
100
100
100
100
100
100
100
100
100
100
100
100
100
100
100
100
100
100
100
100
100
100
100
100
100
100
100
100
100
100
100
100
100
100
100
100
100
100
100
100
100
100
100
100
100
100
100
100
100
100
173.28
100
100
100
100
100
100
100
100
100
100
100
100
100
100
100
100
100
100
100
100
100
100
100
100
100
100
100
100
100
100
100
100
100
100
100
100
100
100
100
100
100
100
100
100
100
100
100
100
100
100
100
100
100
100
100
100
100
100
100
100
100
100
100
100
100
100
100
100
100
100
100
100
100
100
100
100
100
100
100
100
100
100
100
100
100
100
100
100
100
100
100
100
100
100
100
100
100
100
100
100
100
100
100
100
100
100
100
100
100
100
100
100
100
100
100
100
100
100
100
100
100
100
100
100
100
100
100
100
100
100
100
100
100
100
100
100
100
100
100
100
100
100
100
100
100
100
100
100
100
100
100
100
100
100
100
100
100
100
100
100
100
100
100
100
100
100
100
100
100
100
100
100
100
100
100
100
100
100
100
100
100
100
100
100
100
100
100
100
100
100
100
100
100
100
100
100
100
100
100
100
100
100
100
100
100
100
100
100
100
100
100
100
100
100
100
100
100
100
100
100
100
100
100
100
100
100
100
100
100
100
100
100
100
100
100
100
100
100
100
100
100
100
100
100
100
100
100
100
100
100
100
100
100
100
100
100
100
100
100
100
100
100
100
100
100
100
100
100
100
100
100.069
100
100
100
100
100
100
100
100
100
100
100
100
100
100
100
100
100
100
100
100
100
100
100
100
100
100
100
100
104.715
107.149
100
100
100
100
100
100
100
100
100
100
100
100
100
100
100
100
100
100
100
100
100
100
100
100
100
100
100
100
100
100
100
100
100
100
100
100
100
100
100
100
100
100
100
100
100
100
100
100
100
100
100
100
100
100
100
100
100
100
100
100
100
106.084
105.163
101.963
103.934
103.833
105.531
106.745
106.532
100
101.047
105.526
110.057
100
100
100
102.644
100
100
101.365
100
101.17
101.783
116.314
109.112
100
100
103.178
105.264
100
100
100
100
104.019
107.353
101.896
100
100
100
102.049
101.392
240.094
148.622
100
100.226
100
100
100
100
100
100
100
100
100
100
100
100
100
100
100
100
100
100
100
100
100
100
100
100
100
100
100
100
100
100
100
100
100
100
100
100
100
100
100
100
100
100
100
100
100
100
100
100
100
100
100
100
100
100
100
100
100
100
104.029
100
118.172
117.226
114.647
116.153
114.311
116.258
117.694
118.471
105.388
109.738
114.596
119.552
106.058
110.103
113.555
116.058
107.939
114.717
120.137
113.787
122.002
123.58
138.934
130.439
110.947
108.01
116.191
119.079
112.341
104.67
106.897
109.023
115.895
117.025
111.372
103.355
103.265
108.614
110.102
113.246
212.606
106.278
103.163
106.801
100
100
100
100
100
100
100
100
100
100
100
100
100
100
100
100
100
100
100
100
100
100
100
100
100
100
100
100
100
100
100
100
100
100
100
100
100
100
100
100
100
100
100
100
100
100
100
100
100
100
100
100
100
100
100
100
100
111.084
106.78
114.44
108.898
129.209
128.236
125.234
127.015
124.18
126.497
127.969
129.525
117.117
119.03
124.032
129.086
124.89
128.042
130.283
131.552
130.962
138.726
143.183
128.309
137.818
147.547
159.499
148.101
125.017
121.825
132.384
135.207
125.236
114.249
115.84
119.237
127.256
130.33
122.326
109.697
108.488
117.296
117.145
100
100
100
107.889
104.267
100
100
100
100
100
100
100
100
100
100
100
100
100
100
100
100
100
100
100
100
100
100
100
100
100
100
100
100
100
100
100
100
100
100
100
100
100
100
100
100
100
100
100
100
100
100
100
100
100
100
100
100
100
100
103.864
100
100
100
121.19
117.687
123.981
117.824
139.029
138.33
134.486
136.91
133.83
136.765
137.879
139.273
131.392
129.894
134.105
138.944
145.996
147.734
148.451
148.104
156.738
165.63
169.458
148.834
164.783
171.08
196.036
181.097
145.141
137.651
153.448
160.687
141.617
124.52
125.387
133.459
147.194
150.744
136.217
115.505
112.751
126.026
124.007
100
100
100
108.898
100
100
100
100
100
100
100
100
100
100
100
100
100
100
100
100
100
100
100
100
100
100
100
100
100
100
100
100
100
100
100
100
100
100
100
100
100
100
100
100
100
100
100
100
100
100
100
100
100
100
100
100
100
100
100
100
113.301
107.569
101.001
107.677
130.48
128.013
132.835
126.889
148.542
148.063
143.394
146.418
143.604
147.191
147.942
148.706
146.243
142.61
145.952
150.339
169.885
169.782
168.722
166.774
183.224
195.785
199.177
178.434
196.226
208.35
221.421
212.009
171.051
162.358
185.199
190.748
169.826
136.772
137.163
152.913
173.251
175.211
153.307
120.267
115.954
135.096
130.555
100
117.666
100
106.9
100
100
100
100
100
100
100
100
100
100
100
100
100
100
100
100
100
100
100
100
100
100
100
100
100
100
100
100
100
100
100
100
100
100
100
100
100
100
100
100
100
100
100
100
100
100
100
100
100
100
100
100
100
100
100.864
100
100
100
122.336
115.711
109.913
116.913
139.781
137.717
141.815
137.067
158.479
158.071
153.296
156.348
154.608
158.019
158.733
158.828
163.526
159.786
162.832
166.574
195.313
194.957
192.413
190.135
219.428
232.697
229.505
206.706
216.982
224.885
240.734
227.745
203.68
195.276
218.242
217.543
199.464
152.807
149.984
174.469
201.114
201.192
173.453
125.556
117.149
144.887
138.918
100
100
100
103.733
100
100
100
100
100
100
100
100
100
100
100
100
100
100
100
100
100
100
100
100
100
100
100
100
100
100
100
100
100
100
100
100
100
100
100
100
100
100
100
100
100
100
100
100
100
100
100
100
100
100
100
100
100
100
110.519
100.838
100
100
131.847
124.634
120.559
128.434
150.151
147.482
152.779
149.449
170.077
169.694
164.786
167.365
169.556
171.219
171.92
171.099
185.982
184.077
186.818
191.386
225.012
224.327
220.324
216.343
244.612
261.093
263.221
224.008
233.673
260.069
154.667
270.237
222.536
225.235
229.433
234.134
227.338
170.349
165.362
200.271
229.241
230.117
198.941
129.501
117.323
158.351
145.936
100
100
100
103.81
100
100
100
100
100
100
100
100
100
100
100
100
100
100
100
100
100
100
100
100
100
100
100
100
100
100
100
100
100
100
100
100
100
100
100
100
100
100
100
100
100
100
100
100
100
100
100
100
100
100
100
100
100
100
100
100
122.412
111.708
111.172
100
143.096
135.984
132.913
141.224
161.661
158.305
165.818
162.809
185.482
185.299
179.404
181.701
194.735
192.064
189.525
187.337
211.806
212.537
214.478
218.503
267.079
257.604
256.557
251.023
299.704
161.349
297.799
261.36
151.344
301.864
178.661
316.485
270.534
235.057
147.447
152.706
239.2
194.43
185.678
232.236
241.222
244.501
230.747
133.853
120.226
170.448
155.592
100
132.395
100
104.888
100
100
100
100
100
100
100
100
100
100
100
100
100
100
100
100
100
100
100
100
100
100
100
100
100
100
100
100
100
100
100
100
100
100
100
100
100
100
100
100
100
100
100
100
100
100
100
100
100
100
100
100
100
100
100
135.591
123.584
123.864
111.036
155.435
149.284
146.757
155.684
174.988
170.935
181.786
178.271
208.957
207.677
198.876
202.58
221.92
221.718
213.035
208.947
250.365
254.001
256.971
259.876
298.938
292.056
289.902
284.253
339.194
187.202
341.074
311.795
177.836
351.755
207.985
372.163
324.476
148.167
177.977
181.977
152.861
222.16
202.49
247.097
154.591
154.769
237.083
139.28
122.964
184.649
162.76
100
392.403
150.225
107.385
100
100
100
100
100
100
100
100
100
100
100
100
100
100
100
100
100
100
100
100
100
100
100
100
100
100
100
100
100
100
100
100
100
100
100
100
100
100
100
100
100
100
100
100
100
100
100
100
100
100
100
100
100
100
100
100
100
150.239
136.77
137.813
124.026
170.63
165.299
162.534
172.722
191.605
187.141
200.526
196.607
229.397
236.86
223.65
230.658
272.228
272.189
247.184
230.934
284.922
287.572
291.989
295.625
336.63
334.195
330.275
326.051
381.983
214.84
384.008
373.705
209.905
404.982
239.518
430.69
385.507
179.044
212.012
214.484
183.205
230.044
216.651
159.064
184.691
184.66
155.109
144.593
126.405
194.342
171.749
102.825
188.69
100
110.95
102.953
100
100
100
100
100
100
100
100
100
100
100
100
100
100
100
100
100
100
100
100
100
100
100
100
100
100
100
100
100
100
100
100
100
100
100
100
100
100
100
100
100
100
100
100
100
100
100
100
100
100
100
100
110.35
100
100
100
166.355
151.622
152.51
136.983
188.827
183.48
180.014
192.549
212.714
207.447
224.196
218.674
275.863
266.6
250.596
254.379
308.707
171.685
287.327
274.282
327.051
329.882
335.536
341.283
373.207
372.871
366.617
362.909
427.936
241.305
434.133
243.305
444.796
214.817
244.206
246.209
217.768
241.329
285.205
223.379
188.777
219.218
220.049
183.599
149.68
129.619
203.516
178.705
100
100
100
114.128
100.235
100
100
100
100
100
100
100
100
100
100
100
100
100
100
100
100
100
100
100
100
100
100
100
100
100
100
100
100
100
100
100
100
100
100
100
100
100
100
100
100
100
100
100
100
100
100
100
100
100
100
100
100
100
100
100
122.79
109.04
100
106.622
185.144
168.635
167.873
150.145
209.43
203.486
200.283
214.455
239.786
233.475
251.071
244.069
315.37
168.823
277.124
299.694
351.009
194.343
333.617
319.203
363.054
366.566
373.473
382.203
248.254
249.383
158.288
338.693
231.975
279.845
222.787
250.095
251.759
217.06
153.56
131.376
205.406
182.87
100
100
100
113.417
100
100
100
100
100
100
100
100
100
100
100
100
100
100
100
100
100
100
100
100
100
100
100
100
100
100
100
100
100
100
100
100
100
100
100
100
100
100
100
100
100
100
100
100
100
100
100
100
100
100
100
100
100
100
100
100
135.226
120.98
104.46
117.899
207.29
187.738
184.516
163.703
232.606
224.721
224.017
237.922
262.4
259.57
271.016
273.457
362.947
192.978
172.711
343.812
386.912
220.591
384.736
367.884
187.578
400.307
155.416
333.129
252.716
246.286
155.597
132.814
216.016
271.26
186.077
100
100
100
109.095
100
100
100
100
100
100
100
100
100
100
100
100
100
100
100
100
100
100
100
100
100
100
100
100
100
100
100
100
100
100
100
100
100
100
100
100
100
100
100
100
100
100
100
100
100
100
100
100
100
100
100
100
100
100
104.077
100
100
147.171
132.358
114.461
129.362
231.828
208.668
203.965
178.877
259.177
247.332
249.59
261.137
311.251
282.466
320.985
287.047
402.98
220.048
198.653
392.441
241.811
429.204
407.768
220.879
453.189
185.171
392.84
158.991
131.792
224.476
269.127
318.872
185.916
100
104.648
119.147
103.685
100
100
100
100
100
100
100
100
100
100
100
100
100
100
100
100
100
100
100
100
100
100
100
100
100
100
100
100
100
100
100
100
100
100
100
100
100
100
100
100
100
100
100
100
100
100
100
100
100
100
100
100
100
100
100
100
112.048
102.811
100
159.456
143.903
122.974
139.821
256.53
231.711
226.265
195.723
288.471
272.099
273.649
285.239
353.7
176.683
182.382
362.936
244.833
225.84
437.134
249.856
216.973
444.158
158.502
129.383
151.622
322.499
370.102
184.559
250.608
100
106.66
149.373
104.268
100
100
100
100
100
100
100
100
100
100
100
100
100
100
100
100
100
100
100
100
100
100
100
100
100
100
100
100
100
100
100
100
100
100
100
100
100
100
100
100
100
100
100
100
100
100
100
100
100
100
100
100
100
100
100
100
100
120.022
111.203
104.9
171.624
154.568
131.824
149.085
279.703
256.78
251.193
215.814
299.501
297.7
295.709
308.624
398.629
202.202
184.303
205.611
405.945
251.05
243.907
156.488
131.335
180.674
381.383
415.198
184.57
237.166
295.303
112.062
104.805
167.37
106.234
101.097
100
100
100
100
100
100
100
100
100
100
100
100
100
100
100
100
100
100
100
100
100
100
100
100
100
100
100
100
100
100
100
100
100
100
100
100
100
100
100
100
100
100
100
100
100
100
100
100
100
100
100
100
100
100
100
100
100
126.46
117.14
109.15
184.898
164.181
140.898
157.785
301.444
281.469
276.295
237.571
307.811
315.518
316.99
441.647
228.406
208.071
188.566
228.233
446.659
163.208
136.802
211.661
435.14
202.02
237.573
284.632
343.639
134.734
100
181.018
111.135
114.906
100
100
100
100
100
100
100
100
100
100
100
100
100
100
100
100
100
100
100
100
100
100
100
100
100
100
100
100
100
100
100
100
100
100
100
100
100
100
100
100
100
100
100
100
100
100
100
100
100
100
100
100
100
101.097
100
100
100
100
131.356
121.583
111.714
198.652
172.717
149.021
166.527
320.274
303.223
297.145
259.978
321.427
192.988
252.707
231.674
211.516
249.71
177.117
140.505
238.278
229.428
251.368
286.673
337.741
387.412
158.134
100
188.428
118.037
130.651
100
100
100
100
100
100
100
100
100
100
100
100
100
100
100
100
100
100
100
100
100
100
100
100
100
100
100
100
100
100
100
100
100
100
100
100
100
100
100
100
100
100
100
100
100
100
100
100
100
100
100
100
100
100
103.66
100
100
100
136.379
125.022
114.371
216.378
183.78
156.517
173.679
318.573
319.512
315.165
283.393
191.895
215.808
253.374
233.645
180.663
137.017
152.279
305.172
342.069
386.112
181.413
100
189.228
130.921
148.337
100
100
100
100
100
100
100
100
100
100
100
100
100
100
100
100
100
100
100
100
100
100
100
100
100
100
100
100
100
100
100
100
100
100
100
100
100
100
100
100
100
100
100
100
100
100
100
100
100
100
100
100
100
100
100
105.669
100
100
100
140.724
127.476
117.837
238.459
196.432
163.305
181.248
186.115
325.349
327.202
304.354
214.778
237.566
253.763
175.283
247.73
147.042
180.397
362.809
392.008
193.062
100
186.922
143.586
160.014
100
100
100
100
100
100
100
100
100
100
100
100
100
100
100
100
100
100
100
100
100
100
100
100
100
100
100
100
100
100
100
100
100
100
100
100
100
100
100
100
100
100
100
100
100
100
100
100
100
100
100
100
100
100
100
100
107.129
100
100
100
146.075
131.576
120.309
261.95
211.841
169.221
189.621
208.715
354.262
344.221
326.552
317.456
236.867
256.149
181.179
249.083
294.184
159.903
212.031
415.636
197.92
100.871
174.98
150.086
166.38
100
100
100
100
100
100
100
100
100
100
100
100
100
100
100
100
100
100
100
100
100
100
100
100
100
100
100
100
100
100
100
100
100
100
100
100
100
100
100
100
100
100
100
100
100
100
100
100
100
100
100
100
100
100
100
100
100
100
108.668
100
100
100
152.909
135.539
122.748
281.754
229.504
178.159
202.646
230.97
395.908
203.507
187.112
314.547
255.341
193.459
249.96
294.556
349.116
163.467
240.77
185.068
143.478
175.325
151.248
164.094
100
100
100
100
100
100
100
100
100
100
100
100
100
100
100
100
100
100
100
100
100
100
100
100
100
100
100
100
100
100
100
100
100
100
100
100
100
100
100
100
100
100
100
100
100
100
100
100
100
100
100
100
100
100
100
100
100
100
110.644
100
100
100
158.913
139.264
125.753
294.47
248.592
186.041
215.2
249.381
435.868
226.031
339.216
209.764
320.282
196.81
250.821
296.697
348.618
399.615
158.418
175.511
340.711
214.683
146.581
150.075
100
100
100
100
100
100
100
100
100
100
100
100
100
100
100
100
100
100
100
100
100
100
100
100
100
100
100
100
100
100
100
100
100
100
100
100
100
100
100
100
100
100
100
100
100
100
100
100
100
100
100
100
100
100
100
100
100
100
100
100
113.733
100.975
100
100
165.056
143.502
129.506
298.181
264.242
193.509
225.328
467.868
247.841
379.948
187.94
233.26
183.617
244.445
157.353
298.31
350.261
397.061
151.003
176.674
785.971
272.266
138.126
134.007
100
100
100
100
100
100
100
100
100
100
100
100
100
100
100
100
100
100
100
100
100
100
100
100
100
100
100
100
100
100
100
100
100
100
100
100
100
100
100
100
100
100
100
100
100
100
100
100
100
100
100
100
100
100
100
100
100
100
100
100
100
115.17
101.758
100
170.738
147.798
131.713
293.069
271.644
200.766
234.817
265.37
422.317
208.846
316.726
252.194
217.756
170.565
271.923
186.564
351.744
397.045
145.77
143.307
167.728
100
128.073
110.617
100
100
100
100
100
100
100
100
100
100
100
100
100
100
100
100
100
100
100
100
100
100
100
100
100
100
100
100
100
100
100
100
100
100
100
100
100
100
100
100
100
100
100
100
100
100
100
100
100
100
100
100
100
100
100
100
100
100
100
100
100
100
116.313
102.6
176.149
151.348
133.428
306.629
277.763
207.407
242.869
457.35
230.414
350.346
335.673
199.193
162.635
323.311
244.874
217.839
399.164
139.829
100
100.718
100
113.653
100
100
100
100
100
100
100
100
100
100
100
100
100
100
100
100
100
100
100
100
100
100
100
100
100
100
100
100
100
100
100
100
100
100
100
100
100
100
100
100
100
100
100
100
100
100
100
100
100
100
100
100
100
100
100
100
100
100
100
100
100
100
100
100
103.43
117.4
179.754
154.075
134.805
313.261
279.136
210.374
242.693
249.219
388.953
371.406
183.371
191.589
158.377
377.303
293.124
243.964
243.895
132.025
100
100
100
100.277
100
100
100
100
100
100
100
100
100
100
100
100
100
100
100
100
100
100
100
100
100
100
100
100
100
100
100
100
100
100
100
100
100
100
100
100
100
100
100
100
100
100
100
100
100
100
100
100
100
100
100
100
100
100
100
100
100
100
100
100
100
100
100
100
104.278
102.819
118.406
180.793
155.714
135.962
269.036
209.115
236.737
424.915
411.881
202.663
291.117
187.139
150.822
422.778
347.808
290.427
235.888
123.443
100
100
100
103.091
100
100
100
100
100
100
100
100
100
100
100
100
100
100
100
100
100
100
100
100
100
100
100
100
100
100
100
100
100
100
100
100
100
100
100
100
100
100
100
100
100
100
100
100
100
100
100
100
100
100
100
100
100
100
100
100
100
100
100
100
100
100
100
102.306
105.554
119.288
117.688
180.474
156.691
136.666
262.485
206.097
231.325
448.748
222.42
322.468
287.261
185.42
142.844
395.69
342.395
282.869
143.817
122.255
100
100
100
101.197
100
100
100
100
100
100
100
100
100
100
100
100
100
100
100
100
100
100
100
100
100
100
100
100
100
100
100
100
100
100
100
100
100
100
100
100
100
100
100
100
100
100
100
100
100
100
100
100
100
100
100
100
100
100
100
100
100
100
100
100
100
101.787
104.794
108.622
111.283
116.179
118.541
134.903
178.603
156.473
254.991
201.815
223.962
241.333
357.855
318.308
280.959
213.259
176.754
137.594
387.623
336.987
173.55
270.601
125.553
100
100
100
100
100
100
100
100
100
100
100
100
100
100
100
100
100
100
100
100
100
100
100
100
100
100
100
100
100
100
100
100
100
100
100
100
100
100
100
100
100
100
100
100
100
100
100
100
100
100
100
100
100
100
100
100
100
100
100
100
100
100
100
100
101.233
105.913
107.39
114.037
117.268
122.185
125.177
133.25
133.742
154.51
176.198
245.727
198.235
219.098
391.147
353.035
310.985
275.186
208.906
167.653
137.747
384.291
206.809
322.501
245.289
125.177
100
100
100
100
100
100
100
100
100
100
100
100
100
100
100
100
100
100
100
100
100
100
100
100
100
100
100
100
100
100
100
100
100
100
100
100
100
100
100
100
100
100
100
100
100
100
100
100
100
100
100
100
100
100
100
100
100
100
103.633
103.739
100
102.505
103.649
109.135
110.942
118.36
119.731
128.351
131.87
137.996
141.365
152.979
151.891
174.941
241.754
197.197
218.338
385.35
344.238
303.624
277.445
195.214
160.682
138.098
235.792
378.988
295.788
145.695
113.684
100
100
100
100
100
100
100
100
100
100
100
100
100
100
100
100
100
100
100
100
100
100
100
100
100
100
100
100
100
100
100
100
100
100
100
100
100
100
100
100
100
100
100
100
100
100
100
100
100
100
104.137
100
100
100
100
100
100
100
102.835
100
104.314
112.773
112.786
112.115
112.558
121.264
122.936
133.002
134.27
144.899
148.764
156.446
160.115
173.529
239.502
197.102
220.27
375.28
335.944
306.853
270.502
194.814
154.132
139.103
432.191
354.167
175.037
216.614
261.493
100.095
100
100
100
100
100
100
100
100
100
100
100
100
100
100
100
100
100
100
100
100
100
100
100
100
100
100
100
100
100
100
100
100
100
100
100
100
100
100
100
100
100
100
100
100
100
100
100
100
100
100
100
112.867
100
100
100
100
100
100
100
100
110.362
107.234
112.637
124.196
124.241
124.242
123.985
135.685
137.216
150.182
151.38
163.686
167.833
177.205
181.077
241.556
198.631
219.472
366.682
337.596
300.53
272.748
188.367
151.55
132.84
408.905
208.38
317.213
214.605
152.771
100
100
100
100
100
100
100
100
100
100
100
100
100
100
100
100
100
100
100
100
100
100
100
100
100
100
100
100
100
100
100
100
100
100
100
100
100
100
100
100
100
100
100
100
100
100
100
100
100
100
100
100
100
100
123.728
100
100
100
100
100
100
105.18
101.436
119.583
116.803
122.616
137.603
137.725
138.478
137.689
152.655
153.855
170.208
171.632
184.42
188.69
202.593
237.191
222.871
364.753
332.253
299.841
265.699
177.459
151.384
120.503
239.7
380.705
181.772
211.362
235.111
271.261
100
100
100
100
100
100
100
100
100
100
100
100
100
100
100
100
100
100
100
100
100
100
100
100
100
100
100
100
100
100
100
100
100
100
100
100
100
100
100
100
100
100
100
100
100
100
100
100
100
100
100
100
100
100
100
136.818
100
100
100
100
100
100
104.922
114.186
109.776
131.472
129.014
134.63
152.81
153.183
154.653
153.623
172.856
173.396
192.529
195.179
205.498
209.608
240.276
225.332
360.526
329.113
293.39
270.036
168.138
146.638
101.329
439.163
216.12
324.986
200.376
224.296
148.48
100
100
100
100
100
100
100
100
100
100
100
100
100
100
100
100
100
100
100
100
100
100
100
100
100
100
100
100