/*--------------------------------*- C++ -*----------------------------------*\
  =========                 |
  \\      /  F ield         | OpenFOAM: The Open Source CFD Toolbox
   \\    /   O peration     | Website:  https://openfoam.org
    \\  /    A nd           | Version:  dev
     \\/     M anipulation  |
\*---------------------------------------------------------------------------*/
FoamFile
{
    version     2.0;
    format      ascii;
    class       volScalarField;
    location    "2500";
    object      rho;
}
// * * * * * * * * * * * * * * * * * * * * * * * * * * * * * * * * * * * * * //

dimensions      [1 -3 0 0 0 0 0];

internalField   nonuniform List<scalar> 
9841
(
1.17175
1.1716
1.17168
1.17158
1.1713
1.17174
1.17164
1.17113
1.17126
1.17178
1.17169
1.17105
1.17098
1.17136
1.17183
1.17167
1.1711
1.17082
1.17101
1.17144
1.17184
1.17173
1.17121
1.17068
1.17072
1.17109
1.17154
1.17189
1.17177
1.17127
1.17067
1.17053
1.17077
1.17122
1.17159
1.17189
1.17178
1.17134
1.17072
1.17043
1.17052
1.17089
1.17134
1.17164
1.1719
1.17176
1.17138
1.17078
1.17039
1.17035
1.17059
1.17103
1.17138
1.17169
1.17191
1.17177
1.17141
1.17086
1.17041
1.17021
1.17036
1.17069
1.17113
1.17143
1.1717
1.17193
1.17179
1.17143
1.17097
1.17046
1.17015
1.17016
1.17045
1.17084
1.17122
1.17148
1.17172
1.17194
1.17181
1.17149
1.17105
1.17061
1.17015
1.17003
1.17019
1.17057
1.17094
1.17127
1.17152
1.17173
1.17194
1.17181
1.17149
1.17112
1.17078
1.17017
1.16997
1.17
1.1703
1.17072
1.17103
1.17132
1.17156
1.17176
1.17194
1.17182
1.17151
1.1712
1.17077
1.1702
1.16991
1.16986
1.17006
1.17042
1.1708
1.17109
1.17135
1.17157
1.17177
1.17195
1.17184
1.17158
1.17121
1.17081
1.17037
1.16991
1.16977
1.16988
1.17021
1.17058
1.17088
1.17115
1.17141
1.17159
1.17177
1.17195
1.17184
1.17155
1.17127
1.17086
1.17041
1.16994
1.16972
1.16971
1.16994
1.1703
1.17067
1.17095
1.1712
1.17141
1.1716
1.17178
1.17196
1.17184
1.17157
1.17131
1.1709
1.1705
1.17003
1.1697
1.16961
1.16976
1.17007
1.17048
1.17079
1.171
1.17123
1.17143
1.17161
1.1718
1.17196
1.17184
1.17161
1.1713
1.17102
1.17066
1.17013
1.16974
1.16955
1.1696
1.16987
1.17023
1.17055
1.17083
1.17105
1.17125
1.17144
1.17161
1.17179
1.17196
1.17186
1.1716
1.17131
1.17107
1.17071
1.17016
1.16982
1.16952
1.16947
1.16966
1.16999
1.1703
1.17061
1.17086
1.17108
1.17128
1.17145
1.17164
1.1718
1.17196
1.17186
1.17162
1.17134
1.17106
1.17074
1.17027
1.16982
1.1695
1.1694
1.16948
1.16974
1.17011
1.17042
1.1707
1.17091
1.1711
1.1713
1.17146
1.17164
1.1718
1.17196
1.17187
1.17161
1.17134
1.17107
1.17082
1.17032
1.16983
1.16952
1.16935
1.16935
1.16956
1.16988
1.17026
1.17049
1.17074
1.17093
1.17112
1.1713
1.17147
1.17165
1.1718
1.17196
1.17185
1.17161
1.17139
1.17113
1.1708
1.17038
1.16991
1.16954
1.16933
1.16924
1.16938
1.16964
1.17005
1.17031
1.17057
1.17078
1.17095
1.17114
1.17132
1.17148
1.17164
1.1718
1.17196
1.17186
1.17164
1.17141
1.17108
1.17086
1.17056
1.17
1.16958
1.16933
1.16917
1.16925
1.16945
1.16983
1.17014
1.17037
1.1706
1.17081
1.17098
1.17115
1.17133
1.17149
1.17164
1.1718
1.17196
1.17185
1.17163
1.17138
1.1711
1.17083
1.1705
1.17001
1.16962
1.16931
1.16912
1.16912
1.16928
1.16963
1.16994
1.17021
1.17042
1.17063
1.17082
1.171
1.17116
1.17133
1.17149
1.17165
1.1718
1.17196
1.17186
1.17163
1.1714
1.17113
1.17083
1.17056
1.17012
1.16964
1.16933
1.16911
1.16905
1.16915
1.1694
1.16975
1.17001
1.17026
1.17048
1.17066
1.17084
1.17102
1.17117
1.17133
1.1715
1.17165
1.1718
1.17196
1.17185
1.17164
1.1714
1.17115
1.17087
1.17056
1.17017
1.16967
1.16936
1.16907
1.16896
1.16902
1.16926
1.16952
1.16984
1.1701
1.17031
1.17053
1.17067
1.17085
1.17102
1.17119
1.17133
1.17149
1.17164
1.17179
1.17196
1.17185
1.17165
1.17141
1.17112
1.17088
1.17052
1.17018
1.16971
1.16934
1.16904
1.16889
1.16891
1.16908
1.16938
1.16966
1.16992
1.17016
1.17033
1.17052
1.17069
1.17086
1.17103
1.17118
1.17134
1.17148
1.17163
1.17179
1.17195
1.17185
1.17166
1.17139
1.17111
1.17085
1.17052
1.17017
1.16973
1.16934
1.16904
1.16885
1.16881
1.16892
1.16921
1.16946
1.16977
1.16999
1.17019
1.17037
1.17057
1.17071
1.17087
1.17103
1.17118
1.17133
1.17148
1.17163
1.17178
1.17195
1.17187
1.17167
1.17139
1.17112
1.17087
1.17053
1.17022
1.16974
1.16934
1.16903
1.16881
1.16874
1.16881
1.16901
1.1693
1.16956
1.16983
1.17003
1.17022
1.17041
1.17056
1.17072
1.17088
1.17103
1.17119
1.17133
1.17148
1.17163
1.17177
1.17195
1.17188
1.17167
1.17142
1.17112
1.17088
1.17046
1.17013
1.16968
1.16934
1.16902
1.16879
1.16867
1.1687
1.16887
1.16913
1.1694
1.16965
1.16988
1.17007
1.17025
1.17044
1.17059
1.17074
1.17088
1.17103
1.17117
1.17132
1.17147
1.17161
1.17177
1.17194
1.17188
1.17171
1.17144
1.1711
1.1708
1.17041
1.1701
1.16978
1.16931
1.16901
1.16876
1.16862
1.1686
1.16875
1.16897
1.16923
1.1695
1.16974
1.16992
1.17009
1.17028
1.17044
1.17058
1.17073
1.17088
1.17102
1.17116
1.1713
1.17146
1.1716
1.17176
1.17193
1.17187
1.17174
1.17151
1.17109
1.17074
1.1704
1.17015
1.16978
1.16923
1.16896
1.16871
1.16856
1.16851
1.1686
1.16881
1.16907
1.16932
1.16955
1.16979
1.16994
1.17012
1.17027
1.17042
1.17058
1.17073
1.17087
1.17101
1.17116
1.1713
1.17144
1.17158
1.17175
1.17193
1.17182
1.17172
1.17155
1.17109
1.17071
1.17045
1.17001
1.16957
1.16915
1.1689
1.16868
1.16851
1.16844
1.16848
1.16866
1.16889
1.16919
1.1694
1.16964
1.16981
1.16999
1.17015
1.17029
1.17045
1.17058
1.17073
1.17088
1.17102
1.17115
1.17129
1.17142
1.17157
1.17174
1.17202
1.1719
1.17174
1.17166
1.17151
1.17114
1.17075
1.17042
1.16998
1.1696
1.16912
1.16882
1.16859
1.16842
1.16838
1.16839
1.16853
1.16878
1.16899
1.16925
1.16945
1.16966
1.16983
1.17
1.17015
1.1703
1.17045
1.17059
1.17073
1.17087
1.171
1.17113
1.17126
1.17141
1.17159
1.1718
1.17171
1.17202
1.17191
1.17151
1.17134
1.17115
1.17094
1.17068
1.17029
1.16995
1.16954
1.16905
1.16878
1.16853
1.16836
1.1683
1.16831
1.16843
1.1686
1.16886
1.16912
1.16933
1.1695
1.16969
1.16987
1.17004
1.17017
1.1703
1.17046
1.17059
1.17072
1.17085
1.17098
1.17111
1.17125
1.17143
1.17136
1.17161
1.17148
1.17152
1.1718
1.1717
1.17201
1.1719
1.17172
1.17089
1.17087
1.1708
1.17055
1.17021
1.16993
1.1695
1.16892
1.16871
1.16846
1.16831
1.1682
1.16822
1.1683
1.16848
1.16873
1.16896
1.16916
1.16938
1.16954
1.16971
1.16988
1.17003
1.17018
1.17032
1.17046
1.17058
1.1707
1.17083
1.17096
1.1711
1.17129
1.17121
1.17139
1.1716
1.17143
1.17151
1.17179
1.17169
1.17201
1.17189
1.17176
1.1711
1.17032
1.17052
1.17045
1.17009
1.16982
1.16938
1.16879
1.16858
1.1684
1.1682
1.16813
1.1681
1.1682
1.16835
1.16855
1.16878
1.16902
1.16921
1.16941
1.16957
1.16972
1.16991
1.17005
1.17019
1.17032
1.17044
1.17056
1.17068
1.17081
1.17095
1.17114
1.17106
1.1713
1.17121
1.17135
1.17158
1.17141
1.17149
1.17178
1.17167
1.17201
1.17188
1.17176
1.17135
1.17031
1.17001
1.17005
1.16982
1.16969
1.16937
1.1688
1.16845
1.16829
1.16812
1.16805
1.16802
1.16808
1.16822
1.16842
1.16866
1.16887
1.16907
1.16926
1.16943
1.16959
1.16977
1.16992
1.17006
1.17018
1.17031
1.17042
1.17053
1.17065
1.17079
1.17099
1.17091
1.17113
1.17105
1.17126
1.17118
1.17133
1.17156
1.17139
1.17146
1.17176
1.17165
1.172
1.17187
1.17176
1.17143
1.17035
1.1698
1.16964
1.1696
1.16948
1.1692
1.16864
1.1683
1.16816
1.16802
1.16797
1.16793
1.16798
1.1681
1.16831
1.1685
1.16872
1.16897
1.16912
1.16931
1.16947
1.16966
1.16978
1.16993
1.17005
1.17017
1.17029
1.17039
1.17051
1.17064
1.17083
1.17075
1.17097
1.17089
1.1711
1.17102
1.17124
1.17116
1.1713
1.17154
1.17136
1.17143
1.17174
1.17162
1.172
1.17186
1.17175
1.17142
1.17038
1.16974
1.16936
1.16929
1.16921
1.16904
1.1686
1.1682
1.16805
1.16793
1.16786
1.16784
1.16789
1.16798
1.16815
1.16841
1.16861
1.16882
1.16897
1.16916
1.16938
1.1695
1.16969
1.16979
1.16993
1.17004
1.17015
1.17028
1.17037
1.17049
1.17067
1.17059
1.17081
1.17073
1.17094
1.17086
1.17107
1.17099
1.17121
1.17113
1.17127
1.17151
1.17133
1.1714
1.17172
1.1716
1.17199
1.17185
1.17174
1.17139
1.17037
1.16975
1.16929
1.16901
1.16892
1.16888
1.16843
1.16806
1.16794
1.16784
1.16776
1.16774
1.16778
1.16788
1.16802
1.16825
1.16844
1.16862
1.16886
1.16903
1.16922
1.1694
1.16954
1.16969
1.16979
1.16993
1.17002
1.17012
1.17026
1.17034
1.1705
1.17043
1.17064
1.17056
1.17077
1.17068
1.17091
1.17082
1.17104
1.17095
1.17118
1.17109
1.17124
1.17148
1.1713
1.17136
1.1717
1.17157
1.17199
1.17183
1.17172
1.17133
1.17032
1.16975
1.16921
1.16882
1.16873
1.16867
1.16828
1.16799
1.16782
1.16769
1.16765
1.16765
1.16768
1.16778
1.16792
1.16809
1.16832
1.16849
1.1687
1.16889
1.16906
1.16925
1.16942
1.16956
1.16969
1.16979
1.16992
1.17
1.17008
1.17024
1.17032
1.17022
1.17045
1.17034
1.17058
1.17045
1.17072
1.17059
1.17086
1.17074
1.171
1.17089
1.17114
1.17104
1.17119
1.17144
1.17125
1.17131
1.17168
1.17153
1.17198
1.17181
1.1717
1.17124
1.17023
1.16974
1.16916
1.16868
1.16845
1.16836
1.16811
1.16787
1.16771
1.1676
1.16757
1.16755
1.16759
1.16768
1.1678
1.16797
1.16818
1.16839
1.16856
1.16874
1.16893
1.16907
1.16926
1.16943
1.16956
1.16967
1.16979
1.16991
1.16996
1.17
1.17009
1.16992
1.17017
1.16993
1.17027
1.16998
1.1704
1.17008
1.17055
1.17025
1.17073
1.17045
1.17091
1.17068
1.17108
1.17091
1.17112
1.17139
1.17117
1.17124
1.17165
1.17149
1.17197
1.17179
1.17168
1.17114
1.17013
1.1697
1.16909
1.16858
1.16831
1.16816
1.16799
1.16771
1.16759
1.1675
1.16744
1.16744
1.16749
1.16756
1.16769
1.16785
1.16805
1.16823
1.16841
1.16862
1.16879
1.16895
1.16908
1.16927
1.16943
1.16956
1.16967
1.16978
1.16984
1.16971
1.16958
1.1697
1.16959
1.169
1.16952
1.16873
1.16952
1.16855
1.16967
1.16858
1.16991
1.16885
1.17024
1.16928
1.17059
1.16988
1.17092
1.17046
1.17092
1.17132
1.17096
1.17103
1.17162
1.17143
1.17197
1.17178
1.17166
1.17103
1.17003
1.16963
1.16901
1.16851
1.1682
1.16797
1.16784
1.1676
1.16745
1.16737
1.16733
1.16734
1.16739
1.16747
1.16757
1.16773
1.16793
1.16811
1.1683
1.16849
1.16865
1.16881
1.16896
1.16909
1.16929
1.16943
1.16954
1.16965
1.16968
1.16915
1.16696
1.16827
1.16661
1.16765
1.16606
1.16709
1.16511
1.16677
1.16436
1.16686
1.16403
1.16738
1.16425
1.16829
1.16516
1.16935
1.16691
1.1703
1.16869
1.17019
1.17115
1.17018
1.17031
1.17157
1.1713
1.17196
1.17175
1.17164
1.17093
1.16996
1.16954
1.16895
1.16845
1.16811
1.16786
1.16771
1.16746
1.16733
1.16727
1.16724
1.16725
1.16728
1.16737
1.16747
1.16762
1.1678
1.16799
1.16817
1.16833
1.16852
1.16867
1.16883
1.16899
1.16911
1.16929
1.16942
1.16954
1.16952
1.16869
1.16455
1.16003
1.1577
1.16418
1.16201
1.16273
1.16002
1.16148
1.15836
1.16061
1.15699
1.16035
1.15616
1.1608
1.15601
1.1623
1.15684
1.16509
1.1591
1.16803
1.16318
1.16758
1.17058
1.16749
1.1679
1.17149
1.17094
1.17196
1.17171
1.17162
1.17084
1.16989
1.16947
1.16889
1.16841
1.16805
1.16779
1.16755
1.16738
1.16723
1.16717
1.16713
1.16715
1.1672
1.16726
1.16737
1.16752
1.16769
1.16787
1.16804
1.16822
1.16837
1.16854
1.16869
1.16885
1.16901
1.16916
1.16933
1.16941
1.16938
1.16812
1.16283
1.15588
1.15399
1.15216
1.14994
1.15724
1.1546
1.15521
1.1521
1.15343
1.15004
1.15205
1.14823
1.15129
1.1469
1.15135
1.14627
1.15272
1.1467
1.15593
1.14877
1.16158
1.15323
1.16067
1.16878
1.1607
1.16195
1.1713
1.16984
1.17195
1.17164
1.17156
1.17069
1.16983
1.1694
1.16883
1.16837
1.168
1.16772
1.16748
1.1673
1.16713
1.16707
1.16704
1.16705
1.1671
1.16717
1.16727
1.16741
1.16757
1.16775
1.16792
1.16808
1.16825
1.16841
1.16856
1.16871
1.16886
1.16902
1.16915
1.16929
1.16924
1.16767
1.16077
1.1524
1.15176
1.14812
1.14646
1.1446
1.14283
1.14924
1.14674
1.14692
1.14409
1.14481
1.1418
1.14299
1.13964
1.14174
1.13785
1.14133
1.13674
1.1423
1.13672
1.14534
1.13842
1.1513
1.14269
1.15034
1.16428
1.15058
1.15246
1.17078
1.16696
1.17193
1.17147
1.17144
1.17053
1.16981
1.16933
1.16877
1.16833
1.16797
1.16768
1.16743
1.16721
1.16704
1.16698
1.16694
1.16695
1.167
1.16708
1.16717
1.16729
1.16746
1.16763
1.1678
1.16795
1.16811
1.16827
1.16843
1.16858
1.16873
1.16887
1.16903
1.16915
1.16909
1.16731
1.15942
1.14685
1.14553
1.14425
1.14155
1.14115
1.13848
1.13793
1.14173
1.13988
1.13924
1.13717
1.13686
1.13464
1.13464
1.1321
1.13291
1.12982
1.13202
1.1282
1.13256
1.12772
1.13525
1.12901
1.14093
1.13286
1.14024
1.15625
1.14087
1.14317
1.16946
1.16166
1.17191
1.17114
1.17043
1.16977
1.16927
1.16873
1.16831
1.16795
1.16764
1.16738
1.16713
1.16698
1.16689
1.16685
1.16687
1.1669
1.16698
1.16708
1.1672
1.16735
1.16752
1.16769
1.16783
1.16797
1.16814
1.1683
1.16845
1.1686
1.16874
1.16888
1.16899
1.16889
1.16691
1.15852
1.14675
1.14251
1.1433
1.14134
1.14179
1.13823
1.13913
1.13494
1.13576
1.13575
1.13491
1.13298
1.13189
1.13019
1.12888
1.12744
1.12575
1.12517
1.12285
1.12379
1.1207
1.1239
1.11979
1.12615
1.12069
1.13138
1.12408
1.13098
1.14741
1.13192
1.1345
1.16697
1.15443
1.17189
1.17053
1.16962
1.16921
1.16869
1.16828
1.16793
1.16762
1.16734
1.16708
1.16692
1.16682
1.16678
1.16678
1.16682
1.16688
1.16698
1.1671
1.16724
1.1674
1.16757
1.16772
1.16785
1.16801
1.16817
1.16832
1.16846
1.1686
1.16873
1.16881
1.16859
1.16644
1.15812
1.14706
1.14384
1.14442
1.14276
1.14392
1.14028
1.14152
1.13733
1.1392
1.13331
1.13545
1.13165
1.13199
1.12818
1.12819
1.1247
1.12428
1.12121
1.12026
1.11833
1.11662
1.11652
1.11398
1.11629
1.11277
1.11819
1.11343
1.12289
1.11646
1.12279
1.13933
1.12394
1.12604
1.1318
1.16333
1.14709
1.17186
1.16961
1.16913
1.16864
1.16826
1.16793
1.16761
1.16732
1.16704
1.16686
1.16675
1.1667
1.16669
1.16673
1.16679
1.16688
1.167
1.16714
1.16729
1.16745
1.16761
1.16775
1.16788
1.16804
1.16819
1.16833
1.16847
1.16859
1.16862
1.16819
1.16582
1.15789
1.14726
1.14517
1.14482
1.1457
1.14578
1.14743
1.14143
1.14371
1.13826
1.14153
1.13307
1.13658
1.12875
1.13037
1.1244
1.12509
1.11999
1.12014
1.11554
1.11518
1.11207
1.11073
1.10994
1.10771
1.10957
1.10638
1.11133
1.10703
1.1156
1.11022
1.11288
1.11947
1.11572
1.1281
1.13737
1.13051
1.12132
1.11686
1.11624
1.12266
1.15892
1.1339
1.13808
1.14634
1.17188
1.16936
1.1686
1.16825
1.16793
1.16761
1.16731
1.16701
1.16681
1.16669
1.16662
1.16661
1.16664
1.1667
1.16679
1.1669
1.16703
1.16718
1.16734
1.16749
1.16764
1.16776
1.16791
1.16807
1.16821
1.16834
1.16844
1.16839
1.16767
1.16504
1.15758
1.14728
1.14516
1.14956
1.14941
1.14858
1.14926
1.15067
1.15253
1.14493
1.14808
1.14072
1.14516
1.13335
1.13787
1.12681
1.12964
1.12081
1.12244
1.1153
1.11581
1.10994
1.10987
1.10604
1.1048
1.10375
1.10171
1.10573
1.104
1.10257
1.1011
1.10796
1.1056
1.10281
1.10151
1.1036
1.10989
1.11262
1.10955
1.10731
1.11273
1.12464
1.12724
1.11801
1.11396
1.11319
1.1195
1.14351
1.16013
1.15067
1.13064
1.13502
1.17193
1.15919
1.16688
1.17067
1.16823
1.16793
1.16761
1.1673
1.167
1.16677
1.16663
1.16655
1.16653
1.16656
1.16662
1.1667
1.1668
1.16693
1.16707
1.16722
1.16738
1.16753
1.16766
1.16779
1.16794
1.16808
1.16821
1.16828
1.16808
1.167
1.16397
1.15707
1.14719
1.14493
1.15089
1.15421
1.15435
1.15366
1.15415
1.15608
1.15797
1.14943
1.15317
1.14286
1.14786
1.13318
1.13822
1.12511
1.12872
1.11708
1.11932
1.11012
1.11084
1.10409
1.10403
1.10038
1.09993
1.10004
1.09903
1.09855
1.09835
1.10112
1.09969
1.09852
1.10494
1.10269
1.09984
1.09878
1.10062
1.10691
1.10963
1.10675
1.10438
1.10987
1.12153
1.12418
1.11509
1.11041
1.11121
1.11662
1.1408
1.14828
1.1276
1.13203
1.17058
1.17206
1.17187
1.15745
1.16584
1.16793
1.16762
1.16731
1.16699
1.16675
1.16659
1.16649
1.16646
1.16648
1.16653
1.16661
1.16671
1.16683
1.16696
1.16711
1.16726
1.16741
1.16756
1.16768
1.16782
1.16796
1.16807
1.16809
1.16766
1.16607
1.16265
1.1562
1.14691
1.14435
1.1494
1.15766
1.15642
1.15897
1.15844
1.15893
1.15914
1.16
1.16241
1.15249
1.15659
1.14351
1.14862
1.13116
1.1363
1.12243
1.12642
1.11238
1.11472
1.10435
1.10509
1.10005
1.10036
1.09846
1.09876
1.09906
1.09947
1.09778
1.09758
1.09777
1.09811
1.0984
1.09734
1.09694
1.102
1.0998
1.09733
1.09645
1.09789
1.10404
1.10682
1.10392
1.10149
1.10713
1.11861
1.12118
1.11232
1.10769
1.10847
1.11378
1.13784
1.14542
1.12446
1.12871
1.17034
1.17207
1.1719
1.15496
1.16425
1.16764
1.16733
1.167
1.16673
1.16654
1.16643
1.16639
1.1664
1.16645
1.16652
1.16662
1.16673
1.16686
1.167
1.16715
1.1673
1.16744
1.16758
1.16771
1.16784
1.16794
1.16786
1.16706
1.16481
1.16102
1.15504
1.14635
1.14358
1.14783
1.15702
1.1616
1.16098
1.16327
1.16249
1.16354
1.16364
1.16129
1.16427
1.15332
1.15757
1.14144
1.14633
1.12603
1.13056
1.11783
1.12167
1.10651
1.10856
1.10098
1.10145
1.09986
1.10026
1.10057
1.10082
1.0987
1.09947
1.10036
1.10122
1.09709
1.09757
1.09844
1.09974
1.09648
1.09638
1.09682
1.09915
1.09716
1.09583
1.0953
1.09572
1.10118
1.10402
1.10107
1.09867
1.10435
1.11565
1.11803
1.10953
1.10489
1.10569
1.11091
1.13436
1.14197
1.12109
1.12509
1.17018
1.17208
1.17186
1.15153
1.16251
1.16735
1.16702
1.16672
1.16651
1.16638
1.16632
1.16632
1.16637
1.16644
1.16653
1.16663
1.16675
1.16689
1.16704
1.16718
1.16733
1.16747
1.16759
1.16773
1.16781
1.16759
1.16625
1.1632
1.15913
1.15356
1.14556
1.14269
1.1463
1.15504
1.16368
1.16255
1.16533
1.16452
1.16666
1.1661
1.1661
1.16676
1.16084
1.16454
1.15115
1.15611
1.13497
1.13938
1.11804
1.12169
1.11125
1.11448
1.10206
1.10312
1.10158
1.10146
1.10192
1.10244
1.10278
1.10297
1.10124
1.1027
1.10401
1.10505
1.09784
1.09953
1.10165
1.10387
1.09604
1.09685
1.09864
1.09658
1.09515
1.09577
1.09546
1.09486
1.09838
1.10117
1.09827
1.09614
1.10152
1.11266
1.11488
1.10676
1.1021
1.10296
1.10812
1.13049
1.13782
1.1177
1.12137
1.16961
1.17205
1.17142
1.14729
1.15961
1.16704
1.16673
1.16649
1.16633
1.16626
1.16626
1.16629
1.16636
1.16644
1.16654
1.16665
1.16678
1.16692
1.16707
1.16722
1.16736
1.16749
1.16762
1.16768
1.16725
1.16519
1.1613
1.15704
1.15182
1.14448
1.14171
1.14485
1.15319
1.16325
1.16708
1.16668
1.16788
1.16751
1.16825
1.16816
1.16684
1.16797
1.15741
1.16325
1.14446
1.15065
1.12537
1.12952
1.10958
1.11244
1.10476
1.10698
1.10132
1.10145
1.10597
1.10549
1.10434
1.10496
1.10577
1.10618
1.10632
1.10624
1.10595
1.10772
1.1091
1.11005
1.10116
1.10404
1.10697
1.10965
1.0971
1.09964
1.1029
1.09469
1.09448
1.09733
1.09765
1.09525
1.09586
1.09839
1.09576
1.09432
1.09877
1.10982
1.1119
1.10408
1.0994
1.10032
1.10548
1.12634
1.13302
1.11446
1.11774
1.16755
1.17081
1.169
1.14191
1.15332
1.16675
1.16648
1.16629
1.16621
1.16619
1.16623
1.16629
1.16636
1.16646
1.16656
1.16668
1.16682
1.16696
1.1671
1.16725
1.16739
1.16752
1.16755
1.16689
1.16399
1.15925
1.15479
1.14982
1.14316
1.14063
1.14352
1.15155
1.16172
1.16817
1.16771
1.16858
1.16843
1.16885
1.16873
1.1688
1.1689
1.16678
1.16826
1.15147
1.16005
1.13503
1.14251
1.11568
1.11987
1.10449
1.10666
1.10198
1.10298
1.10379
1.10317
1.10319
1.10943
1.10862
1.10684
1.10774
1.11057
1.1107
1.11054
1.11009
1.11191
1.11368
1.11491
1.1156
1.10656
1.11015
1.1134
1.11618
1.10061
1.10459
1.10888
1.0941
1.09496
1.10139
1.10181
1.09767
1.09404
1.09587
1.09386
1.09372
1.09623
1.10715
1.10913
1.10151
1.09685
1.09779
1.10295
1.12206
1.12766
1.11146
1.11431
1.16127
1.15691
1.15757
1.13449
1.14139
1.16648
1.16626
1.16616
1.16614
1.16616
1.16622
1.16629
1.16637
1.16646
1.16657
1.1667
1.16683
1.16698
1.16713
1.16728
1.16741
1.16744
1.16657
1.16286
1.15724
1.15246
1.14763
1.14162
1.13948
1.14231
1.15014
1.16036
1.16767
1.16894
1.16884
1.16908
1.16902
1.16917
1.16913
1.16894
1.16914
1.16578
1.16822
1.14504
1.15609
1.12589
1.13437
1.10975
1.11436
1.10396
1.10592
1.10273
1.103
1.10599
1.10517
1.10729
1.1066
1.11334
1.11226
1.11004
1.11114
1.11578
1.11565
1.11515
1.11433
1.1184
1.11998
1.12086
1.12112
1.11304
1.11684
1.12014
1.12281
1.1059
1.11071
1.11537
1.09457
1.09744
1.10672
1.10696
1.10181
1.09338
1.09382
1.09309
1.09409
1.094
1.10463
1.10654
1.09901
1.0945
1.09537
1.1005
1.11782
1.12192
1.1087
1.11114
1.14415
1.14036
1.1319
1.12581
1.12772
1.16625
1.16611
1.16608
1.1661
1.16615
1.16621
1.16627
1.16634
1.16643
1.16655
1.16668
1.16683
1.16699
1.16715
1.16731
1.16734
1.16631
1.16193
1.1554
1.15013
1.14532
1.13993
1.13828
1.1412
1.14896
1.15917
1.16686
1.16905
1.16891
1.16918
1.16913
1.16926
1.16922
1.16929
1.16928
1.169
1.16923
1.16416
1.16789
1.14243
1.15457
1.1212
1.1307
1.10908
1.11396
1.10867
1.11091
1.10619
1.10601
1.10753
1.10901
1.10809
1.11139
1.11069
1.11776
1.11659
1.11428
1.11542
1.12108
1.12065
1.11986
1.11886
1.12474
1.12583
1.12622
1.12628
1.11965
1.12343
1.12653
1.1288
1.11188
1.11691
1.1216
1.09694
1.1014
1.11234
1.1121
1.10666
1.09361
1.09278
1.09297
1.09605
1.0926
1.10221
1.10411
1.09656
1.0926
1.09308
1.09808
1.11385
1.11658
1.10614
1.10828
1.12588
1.15978
1.12697
1.1186
1.1184
1.16607
1.16601
1.16603
1.16607
1.1661
1.16611
1.16611
1.16615
1.16626
1.16643
1.16663
1.16682
1.16701
1.16719
1.16725
1.16616
1.16123
1.15381
1.14786
1.14293
1.13816
1.13703
1.1402
1.14798
1.15819
1.16626
1.16884
1.1692
1.16915
1.16928
1.16925
1.16935
1.16932
1.16937
1.16936
1.16905
1.16935
1.16354
1.16773
1.14272
1.15484
1.12112
1.13086
1.11436
1.11936
1.11696
1.11785
1.12265
1.11015
1.10969
1.11659
1.11648
1.11322
1.11224
1.11767
1.11711
1.12302
1.12203
1.12009
1.12105
1.12615
1.1256
1.12483
1.12396
1.13026
1.13091
1.13119
1.13128
1.12582
1.12935
1.13205
1.1339
1.11758
1.12255
1.12714
1.10052
1.10584
1.1174
1.11644
1.11125
1.09507
1.09244
1.09353
1.09915
1.09186
1.09985
1.10178
1.09417
1.09141
1.09129
1.0957
1.11047
1.1125
1.10378
1.10582
1.11692
1.16648
1.12887
1.11351
1.11287
1.16595
1.16595
1.16594
1.16588
1.16573
1.16548
1.16534
1.16545
1.16577
1.16615
1.16651
1.1668
1.16704
1.16717
1.1661
1.16081
1.15249
1.14574
1.14055
1.13636
1.13575
1.13927
1.14715
1.15736
1.16577
1.1686
1.1692
1.16913
1.16929
1.16925
1.16937
1.16933
1.16943
1.1694
1.16953
1.16949
1.16909
1.16947
1.16368
1.16778
1.14638
1.15714
1.12635
1.13553
1.12595
1.13042
1.12513
1.12513
1.13631
1.1368
1.11669
1.1165
1.12515
1.12524
1.11919
1.11836
1.12616
1.1258
1.1295
1.1289
1.12768
1.1283
1.13126
1.13098
1.13053
1.13004
1.13502
1.13565
1.1361
1.13646
1.13114
1.13437
1.13676
1.13839
1.12248
1.12728
1.13165
1.10439
1.10974
1.12138
1.1194
1.11473
1.09721
1.09236
1.09482
1.10227
1.0914
1.09752
1.09953
1.09191
1.09057
1.08997
1.09338
1.10781
1.10931
1.10165
1.10375
1.11392
1.15519
1.12411
1.10985
1.10958
1.16583
1.16578
1.16545
1.16481
1.16398
1.16335
1.16335
1.16392
1.16482
1.16573
1.16638
1.16681
1.16705
1.16608
1.16066
1.15151
1.14386
1.13827
1.1346
1.13446
1.13836
1.14637
1.15658
1.16532
1.16842
1.16908
1.16928
1.16923
1.16937
1.16933
1.16944
1.16941
1.16959
1.1695
1.16962
1.16963
1.16916
1.16951
1.16466
1.16804
1.15251
1.1607
1.13639
1.14394
1.13756
1.13897
1.14498
1.13559
1.13595
1.14363
1.14462
1.12549
1.12532
1.13538
1.13524
1.12711
1.12658
1.13536
1.13519
1.13661
1.13645
1.13605
1.13627
1.13666
1.13675
1.13677
1.13669
1.13947
1.14023
1.14085
1.14143
1.13543
1.13851
1.14082
1.14245
1.12611
1.13059
1.13467
1.10741
1.11188
1.12373
1.11984
1.11582
1.09942
1.09245
1.09579
1.10396
1.09103
1.09528
1.09748
1.09005
1.08973
1.08899
1.09128
1.10558
1.10682
1.09979
1.10195
1.11065
1.12042
1.11029
1.10732
1.10717
1.16548
1.16494
1.16363
1.16212
1.1611
1.16084
1.1614
1.16253
1.16394
1.16535
1.16636
1.16683
1.16606
1.16069
1.15088
1.14229
1.13617
1.13292
1.13318
1.13748
1.14559
1.15576
1.16486
1.16825
1.16899
1.16924
1.16934
1.1693
1.16943
1.1694
1.16958
1.16949
1.16967
1.16964
1.16964
1.16968
1.16928
1.16956
1.16607
1.16844
1.15946
1.16445
1.14913
1.15408
1.14549
1.1459
1.15466
1.15241
1.14134
1.14249
1.14493
1.14691
1.1351
1.13512
1.14033
1.13959
1.13579
1.13554
1.13951
1.13922
1.1423
1.14194
1.14105
1.14154
1.14193
1.14229
1.14246
1.14245
1.14361
1.14447
1.14512
1.14555
1.13825
1.14135
1.14377
1.14554
1.12784
1.13193
1.13585
1.10797
1.11177
1.12376
1.11924
1.11549
1.09991
1.09228
1.09596
1.10401
1.09035
1.09337
1.09573
1.08889
1.08909
1.08842
1.08972
1.10373
1.10496
1.09818
1.10043
1.10669
1.11704
1.10615
1.1055
1.10533
1.16413
1.16247
1.16034
1.15896
1.15852
1.15904
1.1603
1.16195
1.1637
1.1653
1.16643
1.16601
1.16093
1.15061
1.14106
1.13432
1.13135
1.13194
1.13662
1.1448
1.15488
1.16433
1.16807
1.16889
1.16916
1.16937
1.16934
1.16932
1.1694
1.16954
1.16946
1.16965
1.1696
1.1697
1.16968
1.16969
1.1697
1.16943
1.16963
1.16751
1.16889
1.16473
1.16728
1.15817
1.16158
1.14882
1.15065
1.15592
1.15341
1.14105
1.14292
1.14024
1.14394
1.13913
1.13921
1.13947
1.13835
1.14053
1.14002
1.13887
1.1382
1.14404
1.14325
1.14157
1.14248
1.14565
1.14556
1.14515
1.14461
1.14666
1.14717
1.14725
1.14712
1.13942
1.14253
1.14494
1.14659
1.12766
1.13152
1.13518
1.10764
1.11109
1.12282
1.11751
1.11439
1.10001
1.09241
1.09618
1.10381
1.08998
1.09172
1.09424
1.08829
1.0889
1.08823
1.08885
1.10227
1.10354
1.09681
1.09917
1.1046
1.13986
1.10733
1.10413
1.10408
1.16105
1.15884
1.15708
1.15652
1.15702
1.15835
1.16012
1.16211
1.16407
1.16564
1.16583
1.16101
1.15061
1.14012
1.13278
1.12996
1.13077
1.13579
1.14402
1.15394
1.16371
1.16786
1.1688
1.16907
1.16928
1.16942
1.16943
1.16937
1.16946
1.16958
1.16953
1.16967
1.16963
1.16974
1.16971
1.16976
1.16976
1.16962
1.16973
1.16873
1.16935
1.16613
1.16817
1.15737
1.16027
1.16302
1.14748
1.15065
1.15398
1.14983
1.13339
1.13662
1.12948
1.13461
1.13791
1.13788
1.13081
1.12922
1.14065
1.13976
1.1316
1.13017
1.14203
1.14044
1.13692
1.1387
1.14657
1.14578
1.14475
1.14352
1.14725
1.14725
1.14658
1.14536
1.13841
1.1411
1.14302
1.14399
1.12625
1.12933
1.13186
1.10733
1.11062
1.12032
1.11644
1.11373
1.10032
1.09279
1.09703
1.10418
1.09017
1.09041
1.09295
1.08813
1.08897
1.08864
1.08851
1.1011
1.10245
1.09563
1.09808
1.10365
1.14633
1.1096
1.10307
1.10318
1.1572
1.15555
1.15495
1.15538
1.15661
1.15841
1.16065
1.16289
1.16472
1.16535
1.16093
1.15061
1.13949
1.13163
1.1288
1.12973
1.135
1.14326
1.15303
1.16299
1.16762
1.16871
1.16899
1.16919
1.16938
1.1695
1.16952
1.16946
1.16954
1.16962
1.16957
1.16972
1.16967
1.1698
1.16976
1.16986
1.16984
1.16983
1.16986
1.16925
1.16969
1.16476
1.16806
1.15299
1.15764
1.16164
1.15701
1.1399
1.14506
1.14754
1.14154
1.12073
1.1247
1.11765
1.12326
1.1293
1.12907
1.11778
1.11635
1.13506
1.13326
1.11921
1.11748
1.1343
1.13169
1.12634
1.129
1.1437
1.14157
1.13931
1.13689
1.14393
1.14278
1.14082
1.13828
1.13371
1.13496
1.13547
1.13529
1.1227
1.12386
1.1241
1.10796
1.11139
1.11813
1.11649
1.1139
1.10168
1.0941
1.09975
1.10627
1.0914
1.0896
1.09175
1.08831
1.09026
1.08985
1.08863
1.10016
1.10154
1.09446
1.09717
1.10339
1.13443
1.10883
1.10222
1.10231
1.15429
1.15383
1.15411
1.15509
1.15671
1.15893
1.16134
1.16349
1.16443
1.16059
1.15048
1.13904
1.13085
1.12795
1.12891
1.13433
1.14254
1.15218
1.16216
1.16735
1.16861
1.16891
1.1691
1.16929
1.16949
1.16952
1.16944
1.16957
1.16957
1.16961
1.16969
1.16965
1.16978
1.16973
1.16988
1.16983
1.16997
1.16993
1.16996
1.17
1.16936
1.16981
1.15743
1.15786
1.16301
1.16646
1.14548
1.15162
1.1513
1.12917
1.13533
1.13891
1.1324
1.10846
1.11254
1.10904
1.11466
1.11645
1.11618
1.10552
1.10373
1.12374
1.12134
1.10522
1.10374
1.12166
1.11841
1.11236
1.11532
1.1351
1.13185
1.12839
1.12508
1.13388
1.13175
1.1284
1.12488
1.12401
1.12359
1.12232
1.12073
1.11861
1.11891
1.11851
1.10948
1.11259
1.11713
1.11554
1.11376
1.1051
1.09685
1.10376
1.10803
1.09299
1.08942
1.09092
1.08901
1.09221
1.09103
1.08901
1.09926
1.10077
1.09353
1.09624
1.10333
1.1596
1.11364
1.10155
1.10179
1.15311
1.15326
1.15388
1.15507
1.15692
1.15926
1.16157
1.16269
1.15966
1.15008
1.13861
1.1304
1.1275
1.12844
1.13389
1.14196
1.15141
1.16133
1.16705
1.16851
1.16883
1.16901
1.16919
1.16936
1.16956
1.16954
1.1695
1.16962
1.16961
1.16968
1.16977
1.16972
1.16985
1.16981
1.16996
1.16991
1.17005
1.17001
1.17001
1.17006
1.16912
1.16984
1.15203
1.15437
1.16022
1.16388
1.13839
1.14476
1.14585
1.12032
1.12622
1.13269
1.1275
1.09935
1.10375
1.1044
1.1108
1.1031
1.10299
1.09569
1.09321
1.10967
1.1072
1.09214
1.09147
1.1064
1.10317
1.09785
1.10046
1.12123
1.11747
1.11343
1.1099
1.11784
1.1148
1.11081
1.10705
1.11777
1.1167
1.11408
1.1126
1.11808
1.11856
1.12247
1.10969
1.11191
1.12458
1.12439
1.12426
1.10584
1.10062
1.10419
1.10744
1.09518
1.08975
1.09106
1.09027
1.09313
1.09197
1.09003
1.09861
1.10016
1.09324
1.09576
1.10385
1.1698
1.1282
1.10101
1.10154
1.15285
1.15316
1.15379
1.15497
1.15668
1.15861
1.15966
1.15751
1.14911
1.13803
1.13031
1.12744
1.12837
1.13375
1.14161
1.15081
1.16061
1.16676
1.16841
1.16875
1.16892
1.1691
1.16927
1.16946
1.16959
1.16958
1.16953
1.16966
1.16965
1.16971
1.16982
1.16976
1.16992
1.16987
1.17002
1.16997
1.17009
1.17006
1.17006
1.17009
1.16846
1.16979
1.14865
1.15242
1.15752
1.15661
1.16023
1.16483
1.13545
1.14031
1.14362
1.11685
1.12236
1.13101
1.12666
1.09278
1.09827
1.10211
1.10985
1.09126
1.09157
1.08811
1.08484
1.09566
1.09362
1.0813
1.08104
1.09089
1.08819
1.0848
1.0865
1.10378
1.10086
1.09711
1.09372
1.11022
1.1065
1.10301
1.09916
1.11996
1.11897
1.11769
1.1158
1.12404
1.12256
1.13113
1.12301
1.12351
1.13446
1.13499
1.13513
1.12073
1.10152
1.11969
1.12096
1.09634
1.09056
1.09222
1.09192
1.09419
1.09364
1.09215
1.09809
1.09973
1.09335
1.09557
1.10537
1.17031
1.14436
1.10059
1.10157
1.15306
1.15322
1.15352
1.15421
1.15515
1.15559
1.15359
1.14709
1.13711
1.13047
1.12761
1.12853
1.13384
1.14156
1.15048
1.1601
1.16651
1.16832
1.16867
1.16884
1.169
1.16917
1.16933
1.16952
1.16956
1.16964
1.16962
1.1697
1.16969
1.16975
1.16986
1.1698
1.16996
1.16991
1.17006
1.17002
1.17012
1.17009
1.17011
1.17016
1.16795
1.16971
1.1477
1.15215
1.15662
1.16125
1.16456
1.13523
1.1392
1.14345
1.11653
1.12202
1.1317
1.12823
1.08779
1.09458
1.10082
1.1101
1.0812
1.08241
1.08217
1.07814
1.0834
1.08214
1.07275
1.07266
1.08165
1.07867
1.07531
1.07637
1.09545
1.09136
1.08851
1.08432
1.11379
1.11022
1.10812
1.10535
1.12985
1.12824
1.12689
1.12531
1.13407
1.13083
1.14644
1.13505
1.13531
1.14835
1.14893
1.14916
1.13411
1.1183
1.13343
1.1343
1.11623
1.09307
1.09262
1.09416
1.11434
1.11325
1.09478
1.09785
1.09948
1.09443
1.09582
1.10758
0.917913
1.13475
1.1003
1.10179
1.15342
1.15306
1.15266
1.15238
1.15173
1.14963
1.14396
1.13702
1.13121
1.12836
1.12921
1.13436
1.14176
1.15045
1.15988
1.16635
1.16824
1.1686
1.16875
1.16891
1.16906
1.16922
1.16939
1.16957
1.16959
1.16962
1.16967
1.16965
1.16974
1.16973
1.1698
1.16989
1.16985
1.17
1.16995
1.17009
1.17005
1.1702
1.17013
1.17015
1.17023
1.16699
1.16887
1.16973
1.14812
1.153
1.15792
1.16216
1.16474
1.13719
1.13992
1.14492
1.11813
1.12402
1.13489
1.13239
1.08377
1.09181
1.09999
1.11089
1.07344
1.07512
1.07741
1.07277
1.07414
1.07352
1.06874
1.0681
1.0796
1.07661
1.07195
1.07375
1.10349
1.09058
1.08704
1.08355
1.12386
1.12109