/*--------------------------------*- C++ -*----------------------------------*\
  =========                 |
  \\      /  F ield         | OpenFOAM: The Open Source CFD Toolbox
   \\    /   O peration     | Website:  https://openfoam.org
    \\  /    A nd           | Version:  dev
     \\/     M anipulation  |
\*---------------------------------------------------------------------------*/
FoamFile
{
    version     2.0;
    format      ascii;
    class       volScalarField;
    location    "2500";
    object      T;
}
// * * * * * * * * * * * * * * * * * * * * * * * * * * * * * * * * * * * * * //

dimensions      [0 0 0 1 0 0 0];

internalField   nonuniform List<scalar> 
9841
(
300.091
300.129
300.107
300.133
300.205
300.092
300.116
300.248
300.215
300.082
300.104
300.268
300.286
300.19
300.069
300.108
300.254
300.327
300.278
300.169
300.066
300.092
300.225
300.363
300.352
300.257
300.143
300.056
300.081
300.21
300.363
300.4
300.339
300.226
300.131
300.053
300.078
300.19
300.349
300.425
300.403
300.308
300.193
300.117
300.052
300.081
300.179
300.334
300.435
300.445
300.384
300.273
300.182
300.106
300.049
300.078
300.171
300.313
300.429
300.48
300.444
300.358
300.246
300.17
300.101
300.043
300.073
300.165
300.284
300.416
300.495
300.493
300.419
300.321
300.224
300.159
300.098
300.042
300.066
300.149
300.262
300.377
300.496
300.527
300.486
300.39
300.294
300.212
300.148
300.094
300.042
300.066
300.15
300.244
300.331
300.49
300.542
300.535
300.458
300.35
300.272
300.198
300.139
300.088
300.041
300.063
300.143
300.223
300.334
300.482
300.556
300.571
300.52
300.428
300.33
300.256
300.19
300.136
300.084
300.038
300.056
300.125
300.221
300.322
300.436
300.555
300.592
300.564
300.481
300.385
300.311
300.242
300.176
300.131
300.085
300.039
300.056
300.131
300.203
300.31
300.426
300.548
300.605
300.607
300.549
300.457
300.363
300.291
300.228
300.176
300.128
300.082
300.037
300.056
300.126
300.192
300.298
300.401
300.523
300.607
300.631
300.596
300.517
300.412
300.333
300.28
300.222
300.171
300.124
300.078
300.038
300.055
300.114
300.195
300.266
300.359
300.498
300.599
300.648
300.636
300.567
300.474
300.392
300.323
300.265
300.216
300.167
300.124
300.079
300.037
300.049
300.117
300.191
300.253
300.347
300.489
300.577
300.654
300.667
300.618
300.534
300.456
300.377
300.314
300.26
300.209
300.165
300.118
300.077
300.037
300.047
300.11
300.184
300.256
300.339
300.46
300.576
300.658
300.685
300.665
300.599
300.505
300.425
300.354
300.301
300.253
300.204
300.162
300.118
300.077
300.037
300.046
300.112
300.182
300.251
300.317
300.446
300.572
300.652
300.696
300.699
300.644
300.564
300.466
300.408
300.345
300.296
300.249
300.202
300.16
300.116
300.076
300.036
300.049
300.112
300.169
300.237
300.32
300.431
300.552
300.647
300.701
300.725
300.691
300.625
300.52
300.454
300.387
300.334
300.29
300.244
300.197
300.157
300.116
300.077
300.035
300.047
300.103
300.164
300.247
300.305
300.382
300.528
300.635
300.702
300.743
300.723
300.671
300.576
300.497
300.438
300.38
300.326
300.284
300.24
300.195
300.156
300.116
300.077
300.036
300.048
300.104
300.17
300.243
300.312
300.397
300.524
300.624
300.705
300.755
300.755
300.714
300.627
300.548
300.477
300.426
300.372
300.325
300.277
300.237
300.196
300.156
300.115
300.077
300.035
300.044
300.104
300.165
300.235
300.31
300.382
300.495
300.618
300.701
300.758
300.773
300.747
300.685
300.594
300.528
300.466
300.41
300.364
300.319
300.274
300.234
300.195
300.153
300.115
300.078
300.037
300.046
300.102
300.164
300.229
300.3
300.381
300.482
300.611
300.691
300.766
300.796
300.781
300.719
300.653
300.573
300.505
300.454
300.398
300.362
300.317
300.272
300.231
300.195
300.156
300.117
300.078
300.037
300.046
300.099
300.16
300.235
300.297
300.39
300.477
300.599
300.695
300.774
300.812
300.807
300.765
300.69
300.619
300.55
300.492
300.447
300.399
300.356
300.313
300.272
300.233
300.192
300.156
300.119
300.08
300.039
300.045
300.096
300.164
300.237
300.306
300.391
300.48
300.593
300.695
300.773
300.823
300.832
300.805
300.732
300.668
300.59
300.533
300.482
300.437
300.386
300.351
300.311
300.27
300.233
300.194
300.158
300.12
300.081
300.039
300.04
300.093
300.165
300.235
300.298
300.387
300.466
300.59
300.694
300.774
300.831
300.851
300.833
300.783
300.709
300.643
300.573
300.522
300.475
300.427
300.388
300.348
300.309
300.272
300.231
300.195
300.157
300.119
300.083
300.039
300.036
300.092
300.155
300.234
300.297
300.404
300.488
300.605
300.694
300.777
300.838
300.867
300.861
300.819
300.752
300.684
300.62
300.561
300.514
300.467
300.419
300.381
300.343
300.309
300.271
300.235
300.198
300.16
300.124
300.085
300.042
300.037
300.081
300.151
300.239
300.316
300.416
300.497
300.579
300.7
300.779
300.845
300.879
300.885
300.847
300.793
300.726
300.658
300.597
300.551
300.507
300.461
300.42
300.384
300.345
300.308
300.272
300.238
300.202
300.164
300.127
300.086
300.044
300.039
300.073
300.132
300.241
300.33
300.418
300.483
300.578
300.721
300.79
300.855
300.894
300.91
300.887
300.832
300.765
300.703
300.644
300.584
300.545
300.499
300.463
300.424
300.385
300.347
300.31
300.275
300.238
300.203
300.169
300.132
300.09
300.045
300.05
300.075
300.121
300.24
300.338
300.405
300.517
300.632
300.74
300.805
300.864
300.908
300.927
300.915
300.871
300.812
300.736
300.682
300.621
300.578
300.532
300.493
300.457
300.417
300.385
300.347
300.309
300.274
300.24
300.206
300.172
300.135
300.093
300.022
300.051
300.07
300.091
300.13
300.225
300.326
300.412
300.525
300.623
300.747
300.827
300.886
300.929
300.94
300.938
300.904
300.839
300.787
300.721
300.669
300.616
300.574
300.53
300.493
300.455
300.416
300.381
300.346
300.311
300.278
300.244
300.212
300.176
300.131
300.076
300.101
300.022
300.05
300.127
300.173
300.223
300.276
300.344
300.445
300.531
300.637
300.765
300.835
300.901
300.945
300.961
300.959
300.929
300.887
300.818
300.752
300.698
300.656
300.609
300.563
300.52
300.488
300.454
300.415
300.381
300.349
300.315
300.283
300.251
300.216
300.17
300.188
300.124
300.157
300.148
300.077
300.102
300.023
300.052
300.073
300.287
300.293
300.312
300.375
300.463
300.536
300.648
300.797
300.852
300.917
300.958
300.987
300.981
300.963
300.916
300.852
300.795
300.743
300.686
300.646
300.603
300.56
300.521
300.484
300.448
300.415
300.385
300.353
300.32
300.289
300.254
300.205
300.225
300.181
300.127
300.17
300.151
300.079
300.106
300.023
300.054
300.063
300.233
300.434
300.381
300.402
300.494
300.564
300.679
300.831
300.884
300.933
300.983
301.003
301.011
300.987
300.947
300.898
300.84
300.778
300.731
300.679
300.64
300.6
300.553
300.517
300.483
300.449
300.42
300.39
300.359
300.326
300.292
300.244
300.263
300.203
300.225
300.191
300.132
300.175
300.157
300.083
300.111
300.024
300.056
300.061
300.168
300.435
300.513
300.503
300.563
300.598
300.68
300.828
300.917
300.959
301.004
301.022
301.031
301.016
300.981
300.929
300.869
300.816
300.764
300.716
300.674
300.632
300.589
300.55
300.516
300.484
300.452
300.425
300.396
300.366
300.33
300.282
300.302
300.245
300.265
300.213
300.233
300.197
300.137
300.18
300.163
300.087
300.116
300.025
300.059
300.062
300.146
300.425
300.565
300.608
300.618
300.651
300.724
300.867
300.955
300.992
301.03
301.042
301.054
301.041
301.012
300.959
300.909
300.853
300.789
300.752
300.704
300.664
300.616
300.584
300.548
300.518
300.487
300.456
300.431
300.402
300.369
300.321
300.341
300.285
300.305
300.253
300.274
300.219
300.24
300.203
300.144
300.187
300.17
300.091
300.122
300.027
300.062
300.063
300.147
300.415
300.581
300.678
300.698
300.719
300.763
300.876
300.981
301.02
301.051
301.069
301.077
301.065
301.041
300.997
300.932
300.882
300.829
300.789
300.742
300.687
300.655
300.609
300.583
300.548
300.52
300.492
300.461
300.438
300.406
300.361
300.381
300.326
300.347
300.294
300.314
300.26
300.281
300.225
300.247
300.211
300.151
300.195
300.178
300.096
300.129
300.028
300.066
300.066
300.156
300.417
300.577
300.696
300.77
300.793
300.803
300.919
301.015
301.049
301.074
301.096
301.101
301.092
301.067
301.03
300.972
300.924
300.88
300.819
300.775
300.726
300.68
300.645
300.607
300.582
300.548
300.524
300.5
300.464
300.445
300.404
300.423
300.369
300.391
300.336
300.358
300.302
300.324
300.268
300.291
300.233
300.256
300.22
300.159
300.205
300.188
300.102
300.136
300.03
300.07
300.069
300.17
300.43
300.577
300.717
300.817
300.841
300.856
300.958
301.033
301.079
301.112
301.123
301.125
301.117
301.093
301.056
301.012
300.956
300.911
300.857
300.81
300.767
300.719
300.676
300.641
300.609
300.582
300.549
300.529
300.511
300.471
300.449
300.475
300.418
300.446
300.385
300.417
300.35
300.383
300.315
300.346
300.28
300.308
300.244
300.27
300.231
300.169
300.217
300.2
300.108
300.145
300.032
300.074
300.073
300.191
300.452
300.579
300.729
300.853
300.913
300.936
301.001
301.064
301.106
301.134
301.144
301.148
301.14
301.118
301.087
301.044
300.99
300.937
300.893
300.847
300.801
300.764
300.716
300.674
300.641
300.613
300.583
300.552
300.539
300.532
300.508
300.551
300.489
300.55
300.464
300.537
300.43
300.51
300.391
300.469
300.348
300.418
300.303
300.359
300.26
300.301
300.249
300.181
300.236
300.22
300.115
300.156
300.033
300.079
300.078
300.217
300.478
300.587
300.746
300.876
300.947
300.986
301.033
301.106
301.135
301.16
301.176
301.176
301.163
301.147
301.114
301.074
301.023
300.976
300.931
300.877
300.835
300.795
300.762
300.713
300.672
300.641
300.613
300.586
300.57
300.603
300.636
300.607
300.634
300.784
300.653
300.851
300.651
300.896
300.615
300.89
300.555
300.822
300.472
300.712
300.383
300.562
300.301
300.416
300.299
300.199
300.291
300.273
300.124
300.171
300.035
300.084
300.082
300.244
300.501
300.606
300.767
300.895
300.976
301.036
301.07
301.133
301.172
301.192
301.203
301.201
301.19
301.17
301.145
301.105
301.053
301.008
300.96
300.911
300.869
300.829
300.791
300.759
300.709
300.673
300.645
300.617
300.611
300.744
301.298
300.967
301.389
301.126
301.528
301.266
301.768
301.347
301.96
301.324
302.044
301.194
301.989
300.963
301.757
300.696
301.314
300.455
300.862
300.483
300.243
300.488
300.455
300.135
300.203
300.036
300.09
300.086
300.269
300.52
300.627
300.782
300.909
300.997
301.062
301.101
301.168
301.201
301.219
301.227
301.225
301.217
301.196
301.169
301.133
301.087
301.037
300.991
300.952
300.904
300.864
300.825
300.785
300.753
300.707
300.676
300.646
300.65
300.862
301.909
303.064
303.662
302.005
302.558
302.374
303.068
302.694
303.494
302.918
303.845
302.983
304.061
302.869
304.099
302.487
303.885
301.775
303.304
301.03
302.262
301.144
300.386
301.168
301.063
300.155
300.296
300.038
300.1
300.092
300.293
300.537
300.646
300.796
300.92
301.013
301.081
301.143
301.187
301.227
301.243
301.254
301.25
301.238
301.224
301.195
301.157
301.115
301.068
301.026
300.978
300.94
300.899
300.86
300.821
300.779
300.741
300.699
300.678
300.686
301.004
302.348
304.131
304.62
305.095
305.671
303.781
304.463
304.305
305.11
304.766
305.646
305.125
306.118
305.322
306.468
305.307
306.634
304.952
306.52
304.121
305.979
302.669
304.818
302.904
300.84
302.895
302.575
300.204
300.572
300.04
300.119
300.106
300.33
300.551
300.664
300.81
300.93
301.024
301.097
301.16
301.208
301.252
301.269
301.277
301.276
301.264
301.246
301.221
301.184
301.144
301.098
301.054
301.014
300.972
300.932
300.894
300.855
300.816
300.776
300.744
300.709
300.721
301.117
302.873
305.032
305.198
306.148
306.581
307.071
307.536
305.854
306.507
306.461
307.204
307.016
307.809
307.495
308.38
307.825
308.856
307.934
309.153
307.677
309.158
306.876
308.706
305.32
307.575
305.57
301.982
305.508
305.018
300.336
301.301
300.045
300.161
300.135
300.37
300.557
300.68
300.823
300.938
301.032
301.108
301.174
301.231
301.274
301.292
301.302
301.299
301.288
301.269
301.245
301.214
301.173
301.128
301.085
301.048
301.007
300.965
300.926
300.889
300.851
300.814
300.775
300.743
300.759
301.209
303.22
306.478
306.824
307.163
307.874
307.981
308.688
308.834
307.828
308.317
308.485
309.038
309.119
309.713
309.713
310.393
310.176
311.006
310.414
311.444
310.269
311.574
309.551
311.226
308.041
310.19
308.224
304.04
308.056
307.448
300.667
302.65
300.05
300.244
300.395
300.565
300.694
300.834
300.944
301.038
301.116
301.186
301.25
301.29
301.313
301.324
301.321
301.313
301.293
301.269
301.238
301.199
301.156
301.113
301.076
301.042
300.999
300.958
300.921
300.883
300.848
300.812
300.785
300.809
301.309
303.449
306.504
307.621
307.411
307.929
307.81
308.754
308.517
309.632
309.414
309.417
309.641
310.158
310.448
310.906
311.259
311.649
312.107
312.265
312.895
312.639
313.483
312.609
313.731
311.997
313.486
310.586
312.56
310.693
306.334
310.442
309.75
301.298
304.51
300.055
300.399
300.603
300.709
300.844
300.95
301.041
301.121
301.194
301.263
301.305
301.332
301.343
301.343
301.334
301.317
301.293
301.263
301.226
301.186
301.143
301.104
301.072
301.033
300.991
300.954
300.917
300.882
300.849
300.83
300.886
301.429
303.552
306.422
307.269
307.117
307.554
307.248
308.21
307.883
308.996
308.497
310.07
309.495
310.514
310.423
311.449
311.446
312.392
312.505
313.342
313.602
314.131
314.6
314.63
315.33
314.692
315.664
314.17
315.481
312.884
314.645
312.912
308.462
312.6
312.029
310.473
302.222
306.418
300.061
300.629
300.73
300.856
300.954
301.041
301.123
301.2
301.272
301.318
301.348
301.363
301.364
301.356
301.34
301.317
301.288
301.253
301.214
301.173
301.133
301.098
301.066
301.024
300.986
300.95
300.915
300.885
300.878
300.986
301.587
303.612
306.371
306.918
307.013
306.781
306.761
306.329
307.907
307.304
308.748
307.88
310.132
309.194
311.294
310.857
312.474
312.285
313.677
313.635
314.9
314.997
315.858
316.23
316.449
317.069
316.553
317.442
316.065
317.262
314.884
316.372
315.634
313.818
314.851
311.469
308.985
310.819
313.314
314.536
314.705
312.947
303.352
309.91
308.796
306.614
300.056
300.693
300.865
300.957
301.041
301.123
301.202
301.278
301.331
301.363
301.381
301.385
301.378
301.362
301.34
301.313
301.28
301.242
301.202
301.162
301.125
301.094
301.056
301.017
300.982
300.948
300.923
300.936
301.116
301.785
303.691
306.364
306.921
305.771
305.811
306.028
305.85
305.483
304.999
306.985
306.16
308.094
306.925
310.057
308.85
311.819
311.055
313.45
313.005
314.965
314.824
316.447
316.468
317.537
317.882
318.178
318.751
317.625
318.107
318.508
318.92
317.002
317.661
318.443
318.806
318.22
316.465
315.707
316.56
317.183
315.676
312.406
311.702
314.219
315.336
315.548
313.809
307.357
303.04
305.482
310.784
309.61
300.045
303.28
301.32
300.362
300.961
301.038
301.122
301.202
301.281
301.341
301.377
301.398
301.405
301.399
301.384
301.363
301.337
301.306
301.27
301.231
301.191
301.153
301.12
301.088
301.049
301.014
300.982
300.964
301.013
301.288
302.056
303.822
306.386
306.982
305.425
304.563
304.526
304.705
304.58
304.081
303.596
305.806
304.833
307.529
306.217
310.103
308.756
312.28
311.302
314.474
313.858
316.398
316.198
318.081
318.096
319.124
319.249
319.22
319.503
319.636
319.694
318.918
319.319
319.648
317.845
318.477
319.276
319.576
319.057
317.294
316.536
317.34
318.001
316.469
313.254
312.532
315.024
316.321
316.097
314.602
308.072
306.106
311.604
310.411
300.385
300.012
300.059
303.727
301.584
301.038
301.118
301.199
301.282
301.346
301.389
301.414
301.423
301.419
301.406
301.386
301.361
301.331
301.297
301.259
301.22
301.182
301.146
301.116
301.079
301.045
301.016
301.012
301.121
301.522
302.391
304.045
306.461
307.134
305.812
303.674
303.993
303.336
303.474
303.349
303.294
303.075
302.458
305.009
303.95
307.356
306.017
310.643
309.266
313.006
311.92
315.768
315.121
318.006
317.799
319.214
319.127
319.661
319.574
319.49
319.373
319.853
319.909
319.855
319.756
319.681
319.979
320.092
318.67
319.289
319.983
320.232
319.826
318.097
317.321
318.131
318.814
317.234
314.053
313.35
315.788
317.078
316.861
315.385
308.857
306.854
312.456
311.303
300.444
300.008
300.052
304.368
301.987
301.113
301.195
301.279
301.35
301.399
301.428
301.441
301.438
301.427
301.408
301.384
301.356
301.323
301.287
301.249
301.211
301.175
301.141
301.108
301.073
301.049
301.069
301.271
301.841
302.808
304.343
306.606
307.337
306.222
303.836
302.664
302.82
302.237
302.436
302.17
302.144
302.744
301.983
304.796
303.697
307.902
306.616
312.024
310.801
314.263
313.21
317.402
316.829
318.952
318.82
319.263
319.15
319.063
318.995
319.589
319.372
319.12
318.876
320.047
319.907
319.661
319.292
320.222
320.247
320.119
319.472
320.034
320.404
320.552
320.436
318.901
318.104
318.931
319.608
318.012
314.87
314.212
316.564
317.859
317.637
316.181
309.785
307.761
313.375
312.285
300.485
300.007
300.062
305.258
302.431
301.188
301.274
301.351
301.407
301.441
301.456
301.457
301.446
301.429
301.406
301.38
301.349
301.315
301.278
301.24
301.203
301.168
301.137
301.102
301.082
301.138
301.477
302.252
303.291
304.726
306.814
307.57
306.622
304.349
302.131
302.421
301.713
301.919
301.375
301.517
301.517
301.352
302.857
301.914
305.357
304.071
309.62
308.445
314.204
313.204
316.08
315.184
318.649
318.351
318.781
318.816
318.68
318.534
318.439
318.387
318.867
318.454
318.087
317.795
319.829
319.348
318.746
318.121
320.342
320.109
319.597
320.197
320.597
320.414
320.5
320.676
319.689
318.904
319.719
320.321
318.806
315.694
315.081
317.336
318.641
318.401
316.956
310.824
308.861
314.304
313.296
300.628
300.014
300.171
306.362
303.171
301.267
301.349
301.412
301.452
301.471
301.473
301.464
301.448
301.428
301.403
301.374
301.341
301.306
301.269
301.232
301.195
301.162
301.129
301.116
301.223
301.746
302.736
303.828
305.177
307.096
307.829
307.001
304.826
302.24
301.269
301.369
301.065
301.158
300.972
300.996
301.33
301.043
303.736
302.243
307.105
305.486
312.203
311.081
316.545
315.75
317.89
317.27
318.857
318.821
317.545
317.681
318.005
317.83
317.595
317.481
317.444
317.468
317.54
317.046
316.662
316.399
318.881
318.071
317.249
316.504
320.034
319.31
318.386
320.727
320.783
319.964
319.869
320.558
320.398
319.686
320.429
320.832
319.579
316.484
315.907
318.085
319.401
319.143
317.695
311.944
310.142
315.195
314.291
301.148
300.326
300.782
307.776
304.791
301.344
301.414
301.462
301.484
301.489
301.481
301.467
301.447
301.424
301.397
301.367
301.333
301.297
301.261
301.223
301.187
301.156
301.147
301.314
302.05
303.261
304.408
305.696
307.443
308.112
307.351
305.252
302.631
300.991
301.107
300.888
300.927
300.82
300.85
300.833
300.808
301.346
300.97
305.272
303.057
309.601
307.617
314.854
313.703
317.971
317.363
318.675
318.395
318.163
318.337
318.335
316.581
316.808
317.305
317.055
316.257
316.222
316.268
316.394
315.878
315.391
315.053
314.866
317.36
316.361
315.461
314.697
319.033
317.908
316.711
320.89
320.64
318.807
318.686
319.863
320.912
320.397
320.962
320.997
320.295
317.227
316.676
318.809
320.122
319.856
318.403
313.108
311.587
316.027
315.239
302.745
303.862
303.692
309.747
307.913
301.412
301.469
301.497
301.503
301.497
301.483
301.466
301.445
301.422
301.395
301.363
301.328
301.291
301.254
301.216
301.181
301.176
301.394
302.338
303.776
305.01
306.268
307.849
308.416
307.671
305.619
302.978
301.118
300.796
300.821
300.761
300.777
300.74
300.748
300.798
300.747
301.597
300.981
306.95
304.076
312.061
309.779
316.499
315.22
318.12
317.572
318.465
318.391
317.546
317.778
317.186
317.38
315.496
315.797
316.416
316.11
314.817
314.856
314.995
315.222
314.092
313.662
313.425
313.354
315.557
314.511
313.61
312.886
317.539
316.198
314.911
320.749
319.925
317.304
317.233
318.683
321.094
320.974
321.177
320.885
320.925
317.931
317.398
319.51
320.784
320.537
319.093
314.269
313.146
316.795
316.117
307.185
308.181
310.439
312.087
311.567
301.472
301.509
301.518
301.512
301.501
301.485
301.47
301.452
301.43
301.401
301.367
301.328
301.288
301.247
301.207
301.2
301.461
302.575
304.249
305.617
306.875
308.296
308.735
307.961
305.925
303.283
301.322
300.769
300.802
300.737
300.749
300.717
300.726
300.709
300.71
300.783
300.724
302.008
301.064
307.637
304.467
313.339
310.763
316.688
315.332
316.803
316.179
317.495
317.544
317.122
316.704
316.962
316.044
316.24
314.282
314.603
315.241
314.928
313.368
313.486
313.704
313.978
312.367
312.074
311.97
311.956
313.74
312.712
311.878
311.267
315.87
314.484
313.203
320.065
318.796
315.738
315.801
317.314
321.02
321.265
321.203
320.317
321.318
318.612
318.079
320.201
321.32
321.185
319.774
315.363
314.609
317.508
316.911
312.065
303.124
311.766
314.055
314.108
301.518
301.534
301.53
301.52
301.513
301.51
301.51
301.501
301.473
301.43
301.38
301.331
301.283
301.237
301.222
301.499
302.754
304.661
306.209
307.502
308.766
309.067
308.226
306.18
303.534
301.475
300.821
300.729
300.741
300.709
300.718
300.692
300.699
300.688
300.689
300.769
300.694
302.167
301.103
307.562
304.397
313.362
310.72
315.223
313.844
314.506
314.26
312.946
316.39
316.519
314.607
314.637
315.536
315.808
314.31
314.463
312.844
313.113
313.646
313.383
311.992
312.14
312.351
312.589
310.879
310.706
310.632
310.609
312.063
311.114
310.394
309.903
314.296
312.941
311.701
319.042
317.54
314.342
314.602
316.034
320.596
321.356
321.036
319.428
321.523
319.276
318.732
320.877
321.653
321.691
320.446
316.301
315.737
318.169
317.599
314.514
301.417
311.25
315.457
315.636
301.551
301.55
301.553
301.568
301.607
301.671
301.705
301.677
301.597
301.5
301.41
301.337
301.275
301.242
301.514
302.859
305.003
306.763
308.131
309.243
309.408
308.474
306.398
303.747
301.598
300.882
300.728
300.746
300.706
300.716
300.688
300.697
300.673
300.68
300.646
300.657
300.758
300.662
302.129
301.091
306.6
303.806
311.939
309.468
312.048
310.84
312.27
312.272
309.261
309.132
314.578
314.631
312.264
312.241
313.891
314.12
311.991
312.09
311.089
311.25
311.579
311.413
310.614
310.692
310.811
310.945
309.606
309.438
309.319
309.225
310.631
309.771
309.138
308.706
312.958
311.659
310.488
317.944
316.448
313.251
313.788
315.068
319.976
321.373
320.659
318.538
321.648
319.931
319.363
321.517
321.888
322.065
321.103
317.042
316.624
318.769
318.177
315.342
304.304
312.541
316.473
316.548
301.581
301.593
301.676
301.84
302.052
302.211
302.211
302.066
301.838
301.607
301.443
301.333
301.274
301.518
302.898
305.256
307.258
308.735
309.713
309.753
308.713
306.601
303.948
301.711
300.927
300.759
300.708
300.722
300.686
300.697
300.67
300.677
300.632
300.654
300.624
300.621
300.74
300.652
301.882
301.023
305.001
302.892
309.242
307.241
308.93
308.556
306.967
309.454
309.359
307.323
307.062
312.172
312.219
309.51
309.547
311.734
311.877
309.515
309.561
309.183
309.225
309.333
309.274
309.171
309.147
309.141
309.163
308.422
308.223
308.059
307.904
309.483
308.67
308.062
307.633
311.971
310.768
309.68
317.091
315.849
312.61
313.662
314.761
319.34
321.341
320.373
318.053
321.749
320.564
319.941
322.046
322.125
322.34
321.697
317.665
317.319
319.292
318.684
316.249
313.543
316.349
317.179
317.222
301.67
301.806
302.14
302.525
302.786
302.851
302.708
302.419
302.062
301.702
301.448
301.328
301.522
302.889
305.419
307.671
309.293
310.163
310.096
308.947
306.805
304.158
301.828
300.97
300.782
300.719
300.692
300.704
300.67
300.679
300.633
300.656
300.61
300.617
300.618
300.608
300.711
300.64
301.524
300.923
303.21
301.934
305.88
304.595
306.832
306.725
304.445
305.027
307.926
307.623
306.979
306.46
309.584
309.58
308.193
308.389
309.402
309.468
308.411
308.488
307.674
307.769
308.002
307.873
307.774
307.677
307.632
307.636
307.328
307.104
306.933
306.819
308.733
307.916
307.282
306.818
311.503
310.407
309.364
316.931
315.873
312.598
313.82
314.846
319.195
321.383
320.317
318.036
321.939
321.105
320.435
322.371
322.304
322.5
322.137
318.184
317.841
319.744
319.111
317.355
314.468
317.499
317.687
317.735
302.012
302.435
302.978
303.332
303.446
303.313
302.989
302.569
302.122
301.715
301.43
301.535
302.828
305.49
307.996
309.787
310.584
310.427
309.176
307.011
304.386
301.962
301.015
300.806
300.738
300.684
300.692
300.698
300.677
300.643
300.663
300.615
300.626
300.603
300.608
300.606
300.603
300.672
300.622
301.159
300.809
301.864
301.216
303.54
302.666
305.962
305.485
304.12
304.767
308.001
307.508
308.214
307.238
308.511
308.49
308.42
308.717
308.141
308.276
308.578
308.756
307.215
307.421
307.865
307.624
306.791
306.816
306.923
307.064
306.526
306.394
306.373
306.405
308.42
307.602
306.972
306.541
311.544
310.512
309.537
317.016
316.055
312.845
314.283
315.14
319.16
321.335
320.248
318.082
322.038
321.57
320.857
322.54
322.349
322.544
322.382
318.592
318.236
320.129
319.461
317.938
308.302
317.161
318.073
318.084
302.796
303.363
303.814
303.959
303.829
303.489
303.036
302.527
302.028
301.629
301.579
302.806
305.489
308.243
310.199
310.959
310.742
309.398
307.217
304.628
302.119
301.066
300.828
300.76
300.707
300.673
300.669
300.685
300.661
300.631
300.645
300.609
300.619
300.593
300.6
300.587
300.588
300.624
300.596
300.849
300.692
301.508
300.991
303.743
302.999
302.297
306.31
305.482
304.618
305.696
310.038
309.175
311.089
309.712
308.833
308.841
310.729
311.158
308.107
308.344
310.516
310.902
307.74
308.16
309.093
308.62
306.548
306.755
307.025
307.348
306.37
306.369
306.545
306.862
308.681
307.974
307.471
307.218
311.919
311.09
310.415
317.091
316.17
313.515
314.555
315.305
319.061
321.22
319.992
317.967
321.974
321.937
321.216
322.577
322.323
322.419
322.47
318.919
318.54
320.456
319.766
318.201
306.599
316.521
318.367
318.333
303.782
304.208
304.362
304.251
303.935
303.473
302.9
302.328
301.861
301.703
302.827
305.489
308.41
310.51
311.271
311.022
309.608
307.418
304.863
302.303
301.127
300.851
300.781
300.731
300.681
300.652
300.645
300.661
300.641
300.623
300.635
300.598
300.61
300.576
300.586
300.562
300.567
300.57
300.562
300.716
300.606
301.853
301.017
304.876
303.675
302.649
303.835
308.305
306.942
306.294
307.871
313.466
312.382
314.31
312.775
311.136
311.198
314.274
314.667
309.591
310.072
313.877
314.353
309.787
310.488
311.93
311.212
307.299
307.858
308.455
309.097
307.233
307.536
308.05
308.722
309.921
309.589
309.457
309.506
312.871
312.554
312.489
316.902
315.939
314.089
314.502
315.231
318.662
320.828
319.196
317.355
321.61
322.161
321.548
322.516
321.935
322.05
322.426
319.182
318.792
320.781
320.018
318.266
309.744
316.734
318.602
318.573
304.531
304.653
304.58
304.328
303.91
303.34
302.722
302.174
301.936
302.914
305.523
308.529
310.719
311.503
311.242
309.786
307.606
305.084
302.515
301.196
300.875
300.8
300.752
300.705
300.652
300.646
300.666
300.634
300.633
300.624
300.604
300.613
300.581
300.593
300.555
300.569
300.533
300.544
300.536
300.527
300.69
300.575
303.728
303.618
302.297
301.422
306.832
305.23
305.311
311.173
309.518
308.566
310.302
316.858
315.724
316.697
315.137
314.637
314.713
317.683
318.186
312.637
313.292
317.759
318.178
313.195
314.088
315.759
314.939
309.567
310.436
311.367
312.264
309.881
310.452
311.351
312.303
312.51
312.625
312.975
313.408
313.953
313.863
313.96
316.447
315.564
314.316
314.74
315.237
317.663
320.021
318.03
316.83
321.132
322.199
321.772
322.301
321.35
321.688
322.306
319.425
319.004
321.036
320.266
318.278
303.165
315.392
318.783
318.712
304.838
304.797
304.639
304.33
303.854
303.253
302.662
302.376
303.152
305.627
308.642
310.84
311.624
311.369
309.904
307.76
305.284
302.727
301.271
300.9
300.821
300.774
300.728
300.685
300.635
300.64
300.651
300.621
300.624
300.607
300.584
300.595
300.562
300.574
300.535
300.549
300.514
300.523
300.523
300.511
300.749
300.567
305.123
304.516
303.01
302.077
308.704
307.022
306.735
313.578
311.97
310.227
311.624
319.427
318.184
318
316.209
318.359
318.39
320.469
321.178
316.509
317.202
321.474
321.669
317.405
318.317
319.829
319.087
313.296
314.329
315.444
316.426
314.2
315.036
316.142
317.191
314.165
314.465
315.194
315.609
314.05
313.92
312.736
316.363
315.741
312.148
312.203
312.232
317.435
318.911
317.886
316.986
320.479
322.096
321.717
321.912
321.071
321.405
321.991
319.604
319.166
321.093
320.393
318.126
300.579
311.414
318.928
318.774
304.903
304.824
304.662
304.357
303.916
303.419
303.151
303.703
305.878
308.796
310.864
311.64
311.388
309.94
307.851
305.439
302.909
301.344
300.925
300.841
300.796
300.752
300.708
300.661
300.627
300.629
300.644
300.61
300.613
300.598
300.571
300.585
300.545
300.558
300.521
300.532
300.503
300.511
300.51
300.502
300.916
300.58
306.003
305.02
303.703
303.939
303.009
301.834
309.488
308.196
307.321
314.532
313.02
310.676
311.851
321.304
319.736
318.647
316.472
321.732
321.643
322.649
323.598
320.457
321.044
324.612
324.691
321.796
322.579
323.575
323.077
318.111
318.938
320.008
320.977
316.272
317.316
318.298
319.39
313.434
313.71
314.062
314.589
312.303
312.719
310.279
312.574
312.438
309.378
309.236
309.2
313.196
318.643
313.479
313.14
320.135
321.849
321.371
321.417
320.755
320.91
321.354
319.737
319.277
321.052
320.423
317.695
300.451
307.112
319.038
318.762
304.85
304.808
304.731
304.553
304.31
304.196
304.714
306.406
309.041
310.821
311.592
311.346
309.916
307.865
305.524
303.039
301.407
300.947
300.86
300.817
300.777
300.732
300.692
300.644
300.634
300.616
300.62
300.6
300.603
300.587
300.561
300.574
300.534
300.547
300.511
300.521
300.495
300.503
300.498
300.485
301.044
300.599
306.251
305.091
303.936
302.746
301.903
309.547
308.489
307.367
314.62
313.113
310.492
311.426
322.744
320.788
319.011
316.401
324.647
324.3
324.377
325.556
323.989
324.361
327.122
327.153
324.458
325.339
326.343
326.028
320.446
321.624
322.457
323.673
315.143
316.136
316.718
317.489
310.624
311.066
311.43
311.861
309.482
310.367
306.093
309.223
309.153
305.601
305.451
305.394
309.477
313.862
309.661
309.427
314.436
321.092
321.246
320.756
314.962
315.265
320.575
319.786
319.337
320.735
320.343
317.07
381.335
309.656
319.11
318.691
304.755
304.849
304.952
305.028
305.195
305.742
307.227
309.065
310.622
311.389
311.16
309.779
307.812
305.531
303.096
301.448
300.967
300.878
300.839
300.8
300.761
300.72
300.677
300.632
300.627
300.62
300.606
300.612
300.589
300.593
300.576
300.551
300.563
300.524
300.539
300.503
300.512
300.474
300.492
300.488
300.467
301.285
300.81
300.594
306.141
304.872
303.6
302.514
301.857
309.024
308.299
306.98
314.18
312.567
309.637
310.306
323.912
321.583
319.248
316.183
326.933
326.44
325.771
327.139
326.697
326.884
328.307
328.503
325.042
325.928
327.325
326.789
318.009
321.826
322.86
323.88
312.255