/*--------------------------------*- C++ -*----------------------------------*\
  =========                 |
  \\      /  F ield         | OpenFOAM: The Open Source CFD Toolbox
   \\    /   O peration     | Website:  https://openfoam.org
    \\  /    A nd           | Version:  dev
     \\/     M anipulation  |
\*---------------------------------------------------------------------------*/
FoamFile
{
    version     2.0;
    format      ascii;
    class       volVectorField;
    location    "2500";
    object      U;
}
// * * * * * * * * * * * * * * * * * * * * * * * * * * * * * * * * * * * * * //

dimensions      [0 1 -1 0 0 0 0];

internalField   nonuniform List<vector> 
9841
(
(0.00457036 0.00699342 0)
(0.0110232 0.00628777 -8.25529e-28)
(0.00459052 0.0185169 -4.21029e-28)
(0.0155168 0.00520921 -9.04832e-28)
(0.0122145 0.0187431 -5.18113e-29)
(0.00401135 0.0269158 0)
(0.0192648 0.00429655 8.86128e-28)
(0.0173843 0.0181049 1.19075e-27)
(0.0118756 0.0278687 0)
(0.00340393 0.0340417 8.77405e-29)
(0.0223616 0.00358214 1.74228e-27)
(0.0210361 0.0162309 0)
(0.0182069 0.0285286 0)
(0.0106426 0.0349622 6.3653e-28)
(0.00302836 0.0404578 9.40109e-29)
(0.0251439 0.00300793 8.89726e-28)
(0.0238241 0.0137778 0)
(0.0230388 0.028047 -1.46096e-27)
(0.0175202 0.0363814 -7.63043e-29)
(0.00935277 0.0411626 -4.50127e-28)
(0.00275866 0.0463375 0)
(0.0278693 0.00256194 0)
(0.0263273 0.0114359 0)
(0.026529 0.0264488 -1.62849e-27)
(0.0234086 0.0373711 5.57222e-33)
(0.0159137 0.0425701 -8.66832e-29)
(0.00843489 0.0468649 0)
(0.00253722 0.051742 1.84026e-28)
(0.0305987 0.00224841 0)
(0.0287784 0.00955411 2.51533e-30)
(0.0290308 0.0240723 0)
(0.0280907 0.0373368 3.34804e-27)
(0.0222912 0.0443002 1.28312e-27)
(0.0142889 0.0480038 6.82766e-28)
(0.00773622 0.0521819 8.21426e-33)
(0.00234374 0.0568027 0)
(0.0332802 0.00206504 0)
(0.031205 0.00828892 1.65935e-28)
(0.0309769 0.0213038 2.65532e-29)
(0.0315529 0.0361038 1.83954e-27)
(0.0279456 0.0456423 0)
(0.0203714 0.0497259 1.06962e-27)
(0.0130287 0.0530946 4.94447e-28)
(0.00712657 0.0571914 -5.52287e-29)
(0.00217429 0.0615082 0)
(0.035859 0.00195491 0)
(0.0336574 0.0075893 1.53779e-28)
(0.0328193 0.0185789 0)
(0.0339866 0.0338978 0)
(0.032582 0.046068 0)
(0.0263956 0.051741 0)
(0.0184907 0.0545502 -8.51354e-28)
(0.0119898 0.0579913 -3.67434e-28)
(0.00658577 0.0618587 0)
(0.00201156 0.0658954 4.00843e-28)
(0.0383621 0.00186942 0)
(0.0361443 0.0071849 -6.76066e-28)
(0.0347382 0.0163064 6.52217e-30)
(0.0357492 0.0310602 1.24817e-28)
(0.0361314 0.0453601 0)
(0.0318926 0.0535123 0)
(0.0241615 0.0565616 -2.43278e-27)
(0.0169259 0.0592168 0)
(0.0110639 0.0625777 0)
(0.00608826 0.0662337 0)
(0.0018573 0.0699619 8.28013e-28)
(0.0408636 0.00179458 -2.81277e-29)
(0.0386211 0.00686349 7.51653e-33)
(0.0368012 0.0147454 0)
(0.0372013 0.027951 1.19708e-27)
(0.0386761 0.0435721 0)
(0.0365426 0.0545117 -9.89084e-28)
(0.0298662 0.0588837 -1.56671e-27)
(0.0220334 0.0609413 9.12461e-28)
(0.015599 0.0636704 5.26126e-28)
(0.0102195 0.066899 -1.45176e-28)
(0.00561861 0.0702797 1.99825e-28)
(0.00171238 0.0737636 0)
(0.0433641 0.00172682 5.25659e-28)
(0.0410733 0.00658282 6.87088e-28)
(0.0391273 0.0137979 -8.78147e-28)
(0.0386938 0.0248926 1.00891e-27)
(0.0404948 0.0410056 9.63351e-29)
(0.0402393 0.0544271 -9.54978e-28)
(0.0352594 0.0610833 0)
(0.027354 0.0631824 1.35242e-27)
(0.0202243 0.065177 8.2473e-28)
(0.0143933 0.0678965 -2.14673e-28)
(0.00942903 0.0709198 0)
(0.00517292 0.0740646 0)
(0.00157336 0.0772957 0)
(0.0458203 0.00167418 1.08374e-27)
(0.0435409 0.00633402 2.06488e-29)
(0.0415745 0.0130593 -1.94668e-36)
(0.0404563 0.0223084 0)
(0.0419009 0.0379664 0)
(0.0430222 0.0532181 1.33176e-27)
(0.0400011 0.0626829 0)
(0.0327866 0.0657838 3.31196e-28)
(0.0250104 0.0671462 0)
(0.0186276 0.0692651 6.84116e-28)
(0.0132767 0.0718564 3.80406e-28)
(0.00868208 0.074671 3.83026e-28)
(0.00474459 0.0775855 3.81215e-28)
(0.00143973 0.0805595 -3.45218e-28)
(0.0482642 0.0016326 1.11781e-27)
(0.0459707 0.0061024 0)
(0.0440051 0.0123559 9.04162e-28)
(0.0425242 0.0205084 0)
(0.0431442 0.0347162 -1.20934e-27)
(0.0450569 0.0510721 2.5154e-27)
(0.0438978 0.0633215 2.73113e-28)
(0.038075 0.068415 7.50892e-28)
(0.0300077 0.0696182 -4.47996e-29)
(0.0229767 0.071003 9.75204e-28)
(0.0171691 0.0731203 -6.4896e-28)
(0.0122237 0.0755663 3.94312e-28)
(0.00796603 0.0781718 2.5074e-28)
(0.00433527 0.080839 5.11126e-33)
(0.00130647 0.0835663 3.363e-28)
(0.0506894 0.00157846 1.1427e-27)
(0.0484025 0.00590121 0)
(0.0464045 0.0117343 9.2182e-28)
(0.0447672 0.0193679 1.07908e-27)
(0.0445534 0.0315764 5.65599e-36)
(0.0465829 0.0482981 2.03976e-32)
(0.0469465 0.0628671 0)
(0.0428908 0.0706265 1.30281e-27)
(0.035176 0.0724856 -9.08982e-28)
(0.0274713 0.0731812 1.58691e-32)
(0.0211477 0.0747329 -8.33837e-28)
(0.0158046 0.0767734 4.52885e-28)
(0.0112209 0.0790143 3.55175e-28)
(0.00727562 0.0814116 1.85303e-28)
(0.00393495 0.0838479 -2.13519e-28)
(0.00117189 0.0863257 -2.98741e-28)
(0.0530608 0.00154019 5.98116e-28)
(0.0508444 0.00570808 0)
(0.0487477 0.0112433 9.44916e-28)
(0.0470328 0.0185548 2.21887e-27)
(0.0462611 0.0288953 1.25703e-27)
(0.0478195 0.0451952 -1.36828e-27)
(0.0492567 0.0614094 1.39211e-27)
(0.0469891 0.0720653 1.01866e-27)
(0.0403062 0.0755193 -6.2069e-28)
(0.0321703 0.0758606 4.02757e-32)
(0.0252204 0.0767219 -3.39962e-28)
(0.0194343 0.0782852 1.71869e-28)
(0.0144991 0.0801587 6.80904e-33)
(0.0102482 0.0822484 6.37107e-28)
(0.00659817 0.0844246 3.25228e-28)
(0.00352961 0.0866024 -9.41623e-28)
(0.00104092 0.0888155 4.969e-28)
(0.0553873 0.00151662 5.95576e-28)
(0.0532097 0.0054944 8.28183e-28)
(0.0511148 0.010876 0)
(0.0493003 0.0178975 1.96637e-30)
(0.0481854 0.026789 -2.90684e-29)
(0.0490035 0.0419945 -1.45196e-27)
(0.0509818 0.0591896 1.46782e-27)
(0.0502999 0.0725214 0)
(0.0451148 0.0783684 -5.87091e-28)
(0.0370239 0.07901 -6.402e-28)
(0.0294322 0.0791165 -3.5315e-32)
(0.0231416 0.0801357 0)
(0.0178161 0.0816161 9.18148e-28)
(0.0132397 0.0833733 -2.59779e-28)
(0.0092866 0.0852475 5.79852e-28)
(0.00592343 0.0871783 8.21983e-38)
(0.00312631 0.0890847 2.41851e-29)
(0.000911942 0.0910754 -8.18358e-28)
(0.0576402 0.00146911 6.0201e-28)
(0.0555435 0.00528669 1.64786e-27)
(0.0534907 0.0105629 -1.0009e-27)
(0.0516279 0.0172168 -1.8579e-30)
(0.0502902 0.0251152 1.28567e-27)
(0.0504299 0.0389765 -7.10555e-29)
(0.0523448 0.0564924 1.47802e-27)
(0.0528789 0.0719935 0)
(0.0493657 0.080642 0)
(0.0419085 0.0824209 -3.03107e-28)
(0.0337901 0.0820025 -3.16744e-28)
(0.0269447 0.0823742 -6.37938e-28)
(0.0211832 0.0833963 -6.24777e-28)
(0.0162578 0.0847803 -3.31371e-28)
(0.0120072 0.086351 1.73614e-28)
(0.00834196 0.0879873 4.07288e-28)
(0.00525066 0.0896689 -1.5874e-28)
(0.00272993 0.0913387 5.07992e-28)
(0.00078127 0.0930776 -4.23196e-28)
(0.059822 0.00140606 -9.07169e-30)
(0.0578318 0.00508443 1.67702e-27)
(0.0558008 0.0102255 -3.46161e-30)
(0.0539907 0.01652 1.17529e-27)
(0.052484 0.0238462 1.32935e-27)
(0.0521457 0.0362785 3.09924e-27)
(0.0535766 0.0535735 3.09111e-27)
(0.0548698 0.0706232 -6.04433e-29)
(0.0529177 0.0821114 0)
(0.0466146 0.085834 -1.34662e-27)
(0.038284 0.0853766 -3.01444e-28)
(0.0308372 0.085044 -3.01536e-28)
(0.0246147 0.0855187 7.15142e-29)
(0.0193112 0.0864855 -9.51258e-28)
(0.014745 0.0877329 0)
(0.0107862 0.0890709 -2.71161e-28)
(0.00740606 0.0904843 2.58016e-28)
(0.00458193 0.091918 2.19638e-28)
(0.00233098 0.0933419 -2.73572e-28)
(0.000647522 0.0948356 -1.27376e-27)
(0.0619333 0.00134084 6.01472e-28)
(0.060027 0.00488448 1.68492e-27)
(0.0580553 0.00987328 1.04549e-27)
(0.0562974 0.0159057 -1.04515e-29)
(0.0547198 0.0229197 1.37436e-27)
(0.0539607 0.0339966 3.1152e-27)
(0.0548645 0.0506641 1.77429e-27)
(0.056434 0.0686395 1.67736e-27)
(0.05577 0.0826631 1.61903e-27)
(0.0509193 0.0889295 -1.52321e-27)
(0.0428595 0.0891242 -1.27044e-27)
(0.0348464 0.0881444 9.80217e-36)
(0.0281296 0.0880004 1.09635e-27)
(0.0224181 0.0884966 -1.06404e-27)
(0.0175087 0.0893889 -2.14632e-28)
(0.0132605 0.0904369 3.09412e-28)
(0.00958094 0.0915608 -2.41868e-28)
(0.00646639 0.0927333 6.76602e-38)
(0.00391112 0.0939385 -9.28107e-28)
(0.00192749 0.0950977 -3.68796e-28)
(0.000512589 0.0963337 0)
(0.0639266 0.00128339 1.1653e-27)
(0.0621369 0.00471323 8.69722e-28)
(0.0602524 0.00951625 -1.94579e-29)
(0.0585321 0.0153363 1.23755e-27)
(0.0569339 0.0222207 1.41026e-27)
(0.0558562 0.0321323 3.19438e-27)
(0.0562661 0.0479252 1.79425e-27)
(0.0577724 0.0663249 3.65025e-27)
(0.058015 0.0823627 3.61739e-27)
(0.0546522 0.0914246 -1.2748e-28)
(0.0473775 0.0930089 -1.38825e-27)
(0.0389877 0.0916951 0)
(0.0317302 0.0908422 8.81536e-28)
(0.0256001 0.0908436 5.25865e-28)
(0.020319 0.0913276 -5.52688e-29)
(0.0157557 0.0920712 -9.50694e-28)
(0.0117881 0.0929173 -2.16507e-28)
(0.00837685 0.0938197 2.10615e-28)
(0.0055253 0.0947606 1.37458e-28)
(0.00323266 0.0956975 2.11684e-28)
(0.00152103 0.0965922 -3.00286e-28)
(0.00037719 0.0975774 0)
(0.0658025 0.0012281 5.92506e-28)
(0.064145 0.00452223 -7.30195e-29)
(0.0623714 0.00912356 1.05793e-27)
(0.0607181 0.0147595 2.58176e-27)
(0.0591598 0.0216391 -2.43862e-29)
(0.0578623 0.0306017 3.29923e-27)
(0.0577862 0.045429 3.55205e-27)
(0.0590408 0.0639085 3.93007e-27)
(0.0598029 0.0813696 1.80604e-27)
(0.0577466 0.0931596 0)
(0.0516157 0.0967953 1.51925e-27)
(0.0432165 0.0956765 -1.32208e-27)
(0.0354105 0.0940751 0)
(0.0288332 0.0935323 8.20811e-28)
(0.0231805 0.0935821 1.24756e-28)
(0.0182844 0.0939733 0)
(0.014021 0.0945442 -6.3804e-28)
(0.0103235 0.095177 0)
(0.00717252 0.0958336 1.63086e-28)
(0.0045817 0.096527 0)
(0.00254477 0.0972158 0)
(0.00110141 0.0978382 -8.15864e-28)
(0.000233314 0.0985624 1.33795e-28)
(0.0675639 0.0011617 -5.8072e-28)
(0.0660379 0.00427971 -9.25405e-28)
(0.0644094 0.00874394 2.16055e-27)
(0.0628423 0.0141597 2.61872e-27)
(0.0613948 0.0210453 1.30774e-28)
(0.0599617 0.0293255 3.44602e-27)
(0.0594833 0.0432268 3.81367e-27)
(0.0602981 0.0615497 3.98219e-27)
(0.0612742 0.079935 1.79348e-27)
(0.0602384 0.0941185 1.89479e-27)
(0.0554139 0.100223 3.94655e-27)
(0.047425 0.0999578 1.26669e-28)
(0.0391629 0.0977576 1.14368e-27)
(0.0321074 0.0965761 9.9612e-28)
(0.026089 0.0961539 9.71683e-28)
(0.0208429 0.0961723 -4.04055e-28)
(0.0162894 0.0964211 -3.0266e-28)
(0.0122967 0.0967929 0)
(0.00886494 0.0971834 -1.61924e-28)
(0.00596782 0.0976093 -1.48569e-28)
(0.00362025 0.0980731 4.58706e-28)
(0.00184054 0.0984843 2.20247e-28)
(0.000664205 0.0988232 -1.50042e-28)
(0.000107524 0.0993085 -9.32957e-28)
(0.0691823 0.00109067 1.68721e-42)
(0.0678108 0.00404114 -9.36635e-28)
(0.066319 0.00841082 2.17933e-27)
(0.0648098 0.0135576 1.35677e-27)
(0.0635573 0.0203938 8.42011e-29)
(0.0621234 0.0283205 2.06605e-27)
(0.0612996 0.0413549 3.8704e-27)
(0.0616157 0.0593548 4.43022e-27)
(0.062549 0.0782855 2.41846e-27)
(0.0622174 0.0943853 4.07603e-27)
(0.0586633 0.103111 3.84244e-27)
(0.0514608 0.104318 2.3739e-28)
(0.0429786 0.101904 3.19568e-27)
(0.0354374 0.0999996 -1.11425e-28)
(0.0290162 0.0990301 0)
(0.023457 0.098661 -1.06615e-27)
(0.0185839 0.098566 6.00697e-29)
(0.0143134 0.0986624 0)
(0.0105807 0.098805 2.84062e-28)
(0.00739489 0.0989745 -1.30388e-28)
(0.00474495 0.0991751 6.16063e-28)
(0.00263856 0.0993657 2.96032e-28)
(0.00111996 0.0994887 1.5815e-28)
(0.000222488 0.0995627 -7.87601e-28)
(-7.47399e-05 0.0997959 4.07815e-29)
(0.0706573 0.00102657 -9.26357e-29)
(0.0694362 0.00383239 -7.82209e-28)
(0.0680826 0.00805372 -6.92281e-29)
(0.0666691 0.0129934 0)
(0.0655899 0.019643 1.59494e-27)
(0.0642576 0.0275746 1.69944e-27)
(0.0631638 0.0398132 4.27194e-27)
(0.0630499 0.0573984 1.928e-27)
(0.0637294 0.0765981 2.54317e-27)
(0.063799 0.0941199 4.84802e-27)
(0.061342 0.105358 2.20988e-27)
(0.0551686 0.108529 -2.0131e-27)
(0.0468156 0.106429 3.4137e-27)
(0.0388063 0.10381 1.49995e-27)
(0.0319903 0.102236 -9.58318e-29)
(0.0260936 0.101425 -1.91659e-27)
(0.0209117 0.100982 -2.94891e-28)
(0.0163568 0.100801 6.78398e-28)
(0.0123375 0.10068 0)
(0.0088584 0.100615 2.17612e-28)
(0.00590806 0.100557 2.44867e-28)
(0.00349336 0.100491 0)
(0.00163825 0.100396 -3.11173e-28)
(0.000361897 0.100206 0)
(-0.00018435 0.100048 -1.34763e-29)
(-0.000222214 0.0999286 2.16944e-28)
(0.0720079 0.00097223 -6.36546e-28)
(0.0709221 0.00363207 -1.78978e-27)
(0.0697009 0.00762633 -1.98878e-27)
(0.068467 0.0124592 -1.38653e-27)
(0.0674566 0.0187658 -1.35456e-35)
(0.0663254 0.0270209 2.44647e-28)
(0.0650206 0.0386376 1.84806e-27)
(0.064549 0.0557303 2.70878e-28)
(0.0648806 0.0750229 2.37184e-27)
(0.0650969 0.0935107 2.69924e-27)
(0.0634755 0.106999 0)
(0.0584343 0.112398 2.21858e-27)
(0.0505484 0.111169 2.35428e-27)
(0.0422484 0.108022 1.41648e-27)
(0.0349982 0.105789 0)
(0.0287501 0.10447 -1.04192e-27)
(0.0232672 0.103675 -1.24651e-28)
(0.0184127 0.103196 7.7848e-28)
(0.0141208 0.10283 1.79871e-28)
(0.0103556 0.102507 -3.08368e-28)
(0.00711083 0.102223 0)
(0.00439114 0.10191 1.50696e-28)
(0.00220793 0.101552 0)
(0.000592732 0.101188 4.32969e-28)
(-0.000370586 0.100662 1.45521e-28)
(-0.000660326 0.100212 1.19866e-28)
(-0.000397741 0.0997852 1.42771e-27)
(0.0732434 0.000919121 0)
(0.0722935 0.00342391 -2.57813e-27)
(0.0711532 0.00718671 -1.11069e-27)
(0.0701148 0.0119507 -2.60719e-27)
(0.06915 0.017919 -2.98668e-27)
(0.0682277 0.0266088 -2.21449e-27)
(0.066809 0.0378421 -1.87634e-27)
(0.0660233 0.054392 -2.10358e-27)
(0.0660408 0.0736854 6.2444e-32)
(0.0662033 0.0927607 2.57335e-27)
(0.0651519 0.108091 2.79016e-27)
(0.0611833 0.115816 4.63314e-27)
(0.0540294 0.115942 0)
(0.0456976 0.112614 2.03684e-27)
(0.0380534 0.109674 -3.83713e-32)
(0.0314473 0.107812 1.10438e-27)
(0.0256457 0.106634 4.99887e-29)
(0.0205037 0.105838 -8.14072e-28)
(0.0159277 0.105239 5.11065e-28)
(0.0118878 0.104662 3.29462e-28)
(0.00835285 0.104144 -1.91522e-28)
(0.00533079 0.103611 -6.44932e-29)
(0.00283659 0.103014 5.43152e-29)
(0.000876996 0.102387 5.25658e-28)
(-0.000496564 0.101706 1.27703e-28)
(-0.001165 0.100927 1.43292e-29)
(-0.0011801 0.100068 1.16266e-27)
(-0.000577784 0.0993369 2.11078e-27)
(0.0743813 0.000863423 9.62654e-28)
(0.0735351 0.00325146 -2.90605e-27)
(0.0724574 0.00682842 -2.18909e-27)
(0.0715414 0.0115003 -1.40133e-27)
(0.0706874 0.0172491 -2.06511e-27)
(0.0698721 0.0262418 4.92526e-32)
(0.0685022 0.037387 -2.53584e-27)
(0.067426 0.0534194 -4.94486e-27)
(0.0671565 0.0726287 6.72091e-28)
(0.0671711 0.0920404 4.80794e-27)
(0.0664686 0.108766 2.71224e-27)
(0.0634311 0.118726 2.61609e-27)
(0.0571525 0.120577 2.2158e-27)
(0.0490321 0.117494 4.19253e-27)
(0.0411272 0.113916 0)
(0.0341677 0.111461 3.05947e-27)
(0.0280694 0.109846 1.08561e-27)
(0.022641 0.108719 -9.25455e-28)
(0.0177842 0.107873 6.70119e-28)
(0.0134526 0.107061 3.90881e-28)
(0.00964294 0.106325 -7.20545e-30)
(0.0063194 0.105568 -3.93098e-29)
(0.00351286 0.10477 -6.87742e-29)
(0.00122898 0.103897 0)
(-0.000509521 0.102961 4.18981e-29)
(-0.00162114 0.101993 5.55617e-29)
(-0.00201574 0.100839 1.91954e-28)
(-0.00172544 0.0996296 1.23385e-27)
(-0.000775432 0.098539 -1.12285e-27)
(0.0754435 0.00079804 -5.0708e-27)
(0.0746911 0.00310969 -1.52256e-27)
(0.0736491 0.00652233 -1.87471e-27)
(0.0728183 0.0110551 2.78454e-27)
(0.072067 0.016691 -6.72746e-27)
(0.0712774 0.0258866 -8.46653e-27)
(0.0700205 0.0372717 4.8899e-27)
(0.0687304 0.0528633 -3.27474e-27)
(0.0681417 0.0719024 -5.45447e-27)
(0.0680016 0.0914699 2.83031e-27)
(0.0674726 0.109198 -7.93241e-28)
(0.0651966 0.121152 2.80202e-27)
(0.0598586 0.124945 5.24946e-27)
(0.0521668 0.122536 2.34258e-27)
(0.0441395 0.118518 0)
(0.0368951 0.115432 3.20037e-27)
(0.0305025 0.113323 2.79311e-27)
(0.0248187 0.111835 0)
(0.019691 0.11073 -3.59862e-30)
(0.015066 0.109697 -1.74083e-29)
(0.0109732 0.108754 4.45505e-29)
(0.00735124 0.107795 5.81347e-29)
(0.00424081 0.106788 -4.44761e-30)
(0.00163615 0.105718 9.34222e-29)
(-0.000442687 0.10452 0)
(-0.00195064 0.103299 -1.10794e-28)
(-0.00280185 0.101977 0)
(-0.00292491 0.100445 -2.06469e-29)
(-0.00230984 0.0988606 -7.96563e-29)
(-0.000994218 0.0973646 0)
(0.0764017 0.000669182 -4.18231e-31)
(0.0757994 0.002912 -8.25503e-27)
(0.0748172 0.00623365 -2.91194e-27)
(0.074013 0.0105904 7.09682e-27)
(0.0732588 0.0162907 -1.71398e-30)
(0.0724593 0.0257055 -8.13429e-27)
(0.071286 0.0374747 4.6188e-27)
(0.0698789 0.0527101 1.12362e-26)
(0.0689864 0.0715695 -1.69698e-26)
(0.0686506 0.0911807 0)
(0.0681945 0.109546 5.73351e-27)
(0.0664929 0.123171 2.52754e-27)
(0.0621003 0.128962 3.19429e-27)
(0.0550227 0.127618 0)
(0.0470332 0.123418 2.00614e-27)
(0.0395832 0.119715 3.91172e-27)
(0.03294 0.117065 3.17218e-27)
(0.0270069 0.115189 1.31125e-27)
(0.0216432 0.113814 1.05294e-27)
(0.0167405 0.112568 8.22498e-28)
(0.0123424 0.111409 -4.25814e-28)
(0.0084432 0.110276 2.47889e-28)
(0.00501595 0.109065 8.46231e-29)
(0.00210501 0.107802 -1.37899e-29)
(-0.000303379 0.106404 -9.73556e-29)
(-0.00217719 0.104917 -2.00434e-28)
(-0.00345892 0.103354 -2.09078e-28)
(-0.00406259 0.101672 -8.70651e-29)
(-0.0039092 0.09975 4.76311e-28)
(-0.00296074 0.0977301 1.40621e-27)
(-0.00124109 0.0957756 1.66877e-27)
(0.0770863 0.000308966 3.8007e-28)
(0.0769571 0.00245433 3.33402e-27)
(0.0760676 0.00592906 -4.0168e-27)
(0.075163 0.0102144 1.30809e-27)
(0.074275 0.0162104 5.57314e-27)
(0.0733761 0.025827 2.19126e-27)
(0.0722347 0.0379267 -1.93915e-27)
(0.0707906 0.0529332 -8.6737e-27)
(0.0696938 0.0716104 1.16656e-26)
(0.0691222 0.0911858 7.60674e-28)
(0.0686561 0.109956 1.88253e-26)
(0.0673568 0.124886 4.66026e-28)
(0.0638396 0.132599 -6.07451e-27)
(0.0575249 0.132619 3.13253e-27)
(0.0497665 0.128535 2.53344e-27)
(0.0421983 0.124272 2.01036e-27)
(0.0353678 0.121057 1.90348e-27)
(0.0292066 0.118772 3.16447e-27)
(0.023629 0.117096 1.38593e-27)
(0.0184876 0.115649 1.94908e-27)
(0.013789 0.114279 -1.33842e-27)
(0.00959417 0.112982 1.00597e-27)
(0.00585105 0.111601 -1.83335e-28)
(0.00262908 0.110149 -6.14513e-29)
(-9.10493e-05 0.108564 -1.86032e-28)
(-0.00231811 0.106877 5.8144e-29)
(-0.00398607 0.105049 -2.53662e-28)
(-0.0050458 0.103136 2.21394e-29)
(-0.00541943 0.101085 -8.67891e-29)
(-0.00499479 0.0987124 3.31043e-27)
(-0.0036942 0.0962029 6.51259e-27)
(-0.00153271 0.0937153 0)
(0.0769165 -0.000514264 -6.20066e-27)
(0.0781025 0.00151355 -2.26493e-27)
(0.0775947 0.00539488 6.24759e-27)
(0.0764395 0.0101141 -3.99833e-27)
(0.0751803 0.0165483 -2.70202e-27)
(0.0739974 0.0262754 0)
(0.0727804 0.0386509 1.17307e-26)
(0.0713702 0.0536586 -2.15127e-26)
(0.0701931 0.0720149 1.90676e-27)
(0.0694487 0.0914762 0)
(0.0689055 0.110472 1.16759e-26)
(0.0678522 0.126405 0)
(0.0650767 0.135859 -5.31214e-27)
(0.0596018 0.137439 -3.04855e-27)
(0.0522609 0.133771 0)
(0.044698 0.129062 0)
(0.0377486 0.125283 0)
(0.031428 0.122563 3.69227e-27)
(0.0256271 0.120558 0)
(0.020297 0.118919 1.20761e-27)
(0.0153272 0.117364 -1.61561e-32)
(0.0108315 0.115899 3.9076e-28)
(0.00676786 0.114398 1.33876e-36)
(0.00319843 0.112763 -2.11958e-28)
(0.000158993 0.110998 5.31604e-29)
(-0.00238049 0.109128 -7.02628e-29)
(-0.00441421 0.107098 9.49668e-29)
(-0.00587468 0.104917 3.81315e-29)
(-0.00673461 0.102657 1.06324e-29)
(-0.00689483 0.100198 5.97019e-28)
(-0.00622585 0.0973275 8.50619e-27)
(-0.00452951 0.0941991 0)
(-0.00180967 0.091118 0)
(0.0744738 -0.00170504 -4.16284e-28)
(0.0782985 0.000288329 -1.77944e-26)
(0.0792707 0.00439891 3.85937e-27)
(0.0780635 0.0102871 8.08278e-28)
(0.0761414 0.0173127 4.51319e-27)
(0.074351 0.0271932 -2.73734e-27)
(0.0729404 0.0398279 9.5131e-27)
(0.071511 0.0549234 0)
(0.0702725 0.0728711 -2.04035e-26)
(0.0695336 0.0921016 1.30407e-26)
(0.0689527 0.111161 2.70421e-26)
(0.068052 0.127823 -2.17528e-27)
(0.0658592 0.138783 0)
(0.0612237 0.141979 -5.88889e-27)
(0.0544549 0.139027 0)
(0.0470493 0.134039 -1.09692e-26)
(0.0400413 0.129713 4.76667e-27)
(0.0336073 0.126542 6.36516e-27)
(0.0276582 0.124208 0)
(0.0221347 0.12236 0)
(0.0169483 0.120654 2.2355e-27)
(0.0121653 0.119017 0)
(0.00779799 0.117415 -1.99977e-29)
(0.00386998 0.115627 2.92751e-33)
(0.000461323 0.113708 -2.47969e-28)
(-0.00240641 0.111651 6.91314e-29)
(-0.00475824 0.109436 4.16414e-29)
(-0.00659027 0.107059 0)
(-0.00786195 0.104546 0)
(-0.00855993 0.101915 0)
(-0.00852341 0.0990038 4.69832e-27)
(-0.00762423 0.095544 -1.38265e-26)
(-0.0056253 0.0916702 -7.90263e-28)
(-0.00110109 0.0886618 0)
(-0.00310926 0.0886986 0)
(0.0689359 -0.00273846 -1.10957e-26)
(0.0759055 -0.000784036 0)
(0.0796659 0.00329882 -6.34814e-27)
(0.0800248 0.0102837 5.68034e-27)
(0.0772201 0.0187263 4.10975e-28)
(0.0745943 0.0287621 3.00724e-27)
(0.0727765 0.0414658 1.35764e-26)
(0.071251 0.0565785 2.68935e-26)
(0.0699489 0.0742142 0)
(0.06918 0.0932087 1.52241e-26)
(0.0686849 0.112129 3.09828e-26)
(0.0679584 0.129233 -2.3547e-27)
(0.0662347 0.141418 -2.74872e-26)
(0.0623898 0.146193 -2.62628e-26)
(0.0563035 0.144195 0)
(0.0491892 0.139148 -3.58875e-26)
(0.0422228 0.134319 5.60919e-27)
(0.0357397 0.130682 1.44268e-26)
(0.02969 0.128013 0)
(0.0240112 0.125937 0)
(0.0186583 0.124111 2.29581e-27)
(0.0135985 0.122324 0)
(0.0089515 0.120616 1.25894e-27)
(0.00467161 0.118727 -2.74322e-28)
(0.000872539 0.116686 3.65349e-28)
(-0.00238114 0.11445 -1.1259e-28)
(-0.00506596 0.112052 0)
(-0.00722069 0.109503 1.15589e-27)
(-0.00885445 0.106813 0)
(-0.00998734 0.10396 -6.21825e-29)
(-0.0105564 0.100902 0)
(-0.0103487 0.0974467 -1.5677e-26)
(-0.00916263 0.0931986 -1.70942e-27)
(-0.00538388 0.0890526 8.89661e-28)
(-0.00747175 0.0897265 -1.57596e-28)
(-0.00121403 0.086791 0)
(-0.00345416 0.0869383 0)
(0.0550392 -0.00250107 0)
(0.0699172 -0.00156866 -1.17859e-26)
(0.0766486 0.00264127 -3.36035e-27)
(0.0800773 0.0100557 -2.18064e-27)
(0.0784447 0.020799 7.29882e-27)
(0.0747722 0.0311231 -1.22118e-27)
(0.072305 0.0436163 1.60644e-26)
(0.0706916 0.0585743 1.64374e-26)
(0.0693117 0.0759509 9.65386e-27)
(0.0684668 0.0946308 2.6774e-26)
(0.0680372 0.113393 0)
(0.0675225 0.130703 -2.91269e-26)
(0.0662256 0.143839 -1.76641e-27)
(0.0631099 0.150071 -2.75178e-26)
(0.0577602 0.149185 3.45012e-30)
(0.051071 0.144314 -2.57985e-26)
(0.0442496 0.139061 0)
(0.0377906 0.134946 1.06155e-26)
(0.0317071 0.131928 1.89887e-26)
(0.0259379 0.129627 0)
(0.0204304 0.127679 5.71536e-28)
(0.0151639 0.125801 -3.27701e-27)
(0.0102166 0.123999 1.73388e-27)
(0.00560848 0.122054 4.53758e-28)
(0.00143067 0.119921 5.85547e-29)
(-0.00225071 0.117534 2.13085e-28)
(-0.0053359 0.114968 6.72288e-29)
(-0.00782872 0.112234 1.36873e-28)
(-0.00977671 0.109368 0)
(-0.0112388 0.106365 7.94791e-29)
(-0.0122878 0.10318 0)
(-0.0128148 0.0995714 0)
(-0.0112444 0.094957 5.16435e-27)
(-0.0127652 0.096368 5.65429e-27)
(-0.00954978 0.0905504 7.22774e-28)
(-0.0121223 0.0945222 -1.44147e-28)
(-0.0114877 0.091582 8.0884e-28)
(-0.00590867 0.0873591 4.93355e-27)
(-0.00814993 0.0880907 3.5665e-28)
(-0.00125703 0.0848009 0)
(-0.00381321 0.0850018 -2.78648e-27)
(0.0577064 -0.000896655 5.55572e-29)
(0.0530572 -0.00139785 0)
(0.0700558 0.00277386 -1.12255e-27)
(0.0768128 0.0115428 9.1204e-27)
(0.0781631 0.0230154 -5.66621e-29)
(0.0746851 0.0346361 0)
(0.0716142 0.0462692 7.15138e-35)
(0.0697155 0.0610583 -2.8856e-27)
(0.0683783 0.0780577 -2.58044e-27)
(0.0674561 0.0963467 6.27851e-26)
(0.067064 0.114865 -3.57212e-27)
(0.0667181 0.132276 -6.47438e-26)
(0.0658268 0.14612 -1.9204e-27)
(0.0633896 0.153626 1.37727e-27)
(0.0588095 0.15393 1.17568e-27)
(0.052645 0.14945 -9.92331e-28)
(0.0460692 0.143882 6.0319e-28)
(0.0397164 0.139318 0)
(0.0336802 0.135946 2.13598e-26)
(0.0278713 0.133416 0)
(0.0222739 0.131335 1.59839e-26)
(0.0168379 0.12941 1.67476e-27)
(0.0116136 0.12756 1.17603e-27)
(0.00669742 0.125593 3.03695e-27)
(0.0021317 0.123381 1.10138e-27)
(-0.00196077 0.120901 7.7978e-28)
(-0.00550853 0.118194 1.14953e-28)
(-0.00840423 0.115269 1.61355e-28)
(-0.0106881 0.112201 1.66445e-28)
(-0.0124214 0.109055 1.91398e-28)
(-0.013784 0.105727 1.35159e-28)
(-0.0148253 0.102145 5.37382e-28)
(-0.0141296 0.0975757 2.02758e-27)
(-0.0154591 0.0990892 2.82592e-27)
(-0.013787 0.0956984 3.01509e-28)
(-0.0104685 0.0890246 0)
(-0.0134666 0.0928332 9.03757e-28)
(-0.0125976 0.0901408 2.4207e-27)
(-0.00643158 0.0854599 2.66961e-27)
(-0.0089638 0.0862449 -3.96174e-28)
(-0.00136139 0.0825836 -5.26333e-27)
(-0.00419329 0.0828178 2.04279e-27)
(0.0567856 -0.000296643 -1.12796e-26)
(0.0563124 -0.000833271 -1.30743e-28)
(0.0533743 0.00302071 0)
(0.069511 0.0140301 0)
(0.0741988 0.0269726 1.55715e-26)
(0.0738525 0.0383534 -3.55803e-27)
(0.0703711 0.0500541 3.31143e-27)
(0.0684093 0.0638834 -5.45326e-35)
(0.0670333 0.0805572 0)
(0.0661609 0.0983324 1.12203e-26)
(0.0657964 0.116512 1.89498e-27)
(0.0656 0.133909 -3.56771e-26)
(0.0650421 0.148298 -3.48272e-26)
(0.063232 0.156904 -3.39744e-26)
(0.0594255 0.158392 3.41373e-26)
(0.0538715 0.154487 1.09987e-27)
(0.0476408 0.148743 2.83491e-26)
(0.0414784 0.143768 2.59635e-26)
(0.0355364 0.14004 0)
(0.0297882 0.137271 1.44727e-27)
(0.0241551 0.135056 5.43625e-26)
(0.0186192 0.133113 7.84303e-27)
(0.0131639 0.131264 -1.01559e-26)
(0.00795584 0.12929 2.02048e-27)
(0.00301432 0.127071 -6.38003e-28)
(-0.00150661 0.124552 1.95512e-27)
(-0.00553407 0.121735 4.42166e-28)
(-0.00891006 0.118625 5.06617e-28)
(-0.0115722 0.11533 -5.24472e-28)
(-0.0136042 0.111966 0)
(-0.0151672 0.108597 -2.76383e-28)
(-0.0165097 0.104876 -3.88231e-27)
(-0.0165009 0.100365 7.36046e-29)
(-0.0175345 0.102033 -5.85025e-28)
(-0.0153853 0.097007 1.8963e-27)
(-0.016709 0.098435 1.66199e-27)
(-0.0152787 0.0942166 9.68404e-28)
(-0.0114675 0.0872761 -2.58386e-27)
(-0.0147113 0.091437 0)
(-0.0138678 0.0885024 0)
(-0.00706015 0.0833098 -1.37785e-27)
(-0.00984975 0.0841509 2.93931e-27)
(-0.00147563 0.0801465 -8.73415e-27)
(-0.004586 0.0803963 -6.56727e-27)
(0.0544044 -8.83766e-05 0)
(0.0562709 0.000490648 -1.17032e-26)
(0.0541287 0.00285082 0)
(0.0553336 0.0158426 1.11095e-27)
(0.0669001 0.0310253 5.91724e-27)
(0.0695912 0.0435597 0)
(0.0686334 0.054211 -3.31002e-27)
(0.0664536 0.0674245 3.11771e-27)
(0.065315 0.0832788 -7.04481e-28)
(0.0645276 0.1006 -1.35748e-26)
(0.0642559 0.118316 -1.43334e-26)
(0.0642127 0.135578 1.35203e-26)
(0.0639354 0.150344 -3.28592e-27)
(0.0626689 0.159913 -6.30731e-26)
(0.0595996 0.162556 2.87001e-26)
(0.0547324 0.159371 2.47655e-27)
(0.0489125 0.153596 2.92243e-26)
(0.0430259 0.148237 4.73195e-28)
(0.0372635 0.144164 0)
(0.0316373 0.141131 -1.29367e-27)
(0.0260543 0.138792 4.55741e-26)
(0.0204975 0.13685 -3.41733e-27)
(0.0149061 0.135046 -1.51878e-26)
(0.00941401 0.133097 1.36451e-26)
(0.00412898 0.130959 5.44735e-27)
(-0.00084238 0.128461 -4.86488e-28)
(-0.00538032 0.125609 2.98485e-28)
(-0.00930204 0.122336 0)
(-0.0124414 0.118785 2.39391e-29)
(-0.0147857 0.115143 -6.98697e-28)
(-0.016545 0.11148 8.09578e-28)
(-0.0179797 0.107928 -3.49704e-27)
(-0.0183082 0.103341 1.77303e-27)
(-0.0191936 0.105112 3.98865e-27)
(-0.0179282 0.0999336 -1.20442e-27)
(-0.0189212 0.101508 1.58604e-27)
(-0.0169175 0.0957539 -1.36281e-27)
(-0.0183621 0.097405 5.19085e-28)
(-0.0167147 0.0929321 0)
(-0.0125999 0.0852891 -2.63627e-27)
(-0.0161914 0.0899208 0)
(-0.0152522 0.0866389 4.8743e-27)
(-0.00773133 0.0809203 -2.84544e-27)
(-0.0107915 0.0818206 4.44849e-27)
(-0.00159822 0.0774852 -1.30168e-27)
(-0.0049974 0.0777396 -1.10529e-26)
(0.0517768 0.000150079 0)
(0.05408 0.00172296 0)
(0.0540231 0.00504512 4.8278e-28)
(0.0517605 0.0151809 7.17713e-28)
(0.0556538 0.0341004 9.31327e-27)
(0.062983 0.0481888 0)
(0.0646081 0.0593432 0)
(0.063992 0.07122 3.0836e-27)
(0.0630352 0.0863926 -1.22856e-26)
(0.0625583 0.103021 0)
(0.0624285 0.120281 -1.47845e-26)
(0.0625718 0.137279 3.08348e-26)
(0.0625559 0.152268 0)
(0.0617651 0.162644 -1.59396e-26)
(0.0593715 0.166392 -7.4166e-28)
(0.0552046 0.164025 0)
(0.0498714 0.158391 0)
(0.044312 0.152694 -2.93611e-26)
(0.0388165 0.148276 -5.59932e-26)
(0.0333742 0.144958 0)
(0.0279438 0.142502 2.00248e-26)
(0.0224292 0.14053 0)
(0.0168552 0.138792 4.57414e-27)
(0.011148 0.136956 1.44439e-26)
(0.00553739 0.134979 1.94532e-26)
(9.96166e-05 0.132601 8.64568e-27)
(-0.00497594 0.129789 2.37165e-27)
(-0.00951216 0.126449 8.10098e-28)
(-0.0132622 0.122665 6.60927e-28)
(-0.0160576 0.118641 -1.91344e-27)
(-0.0179436 0.11465 1.41123e-27)
(-0.0194415 0.110704 -5.20204e-27)
(-0.0198471 0.106393 -4.69062e-27)
(-0.02069 0.108211 0)
(-0.019854 0.103117 1.97555e-27)
(-0.0206658 0.104761 1.35753e-28)
(-0.0196012 0.0991339 -1.31118e-27)
(-0.0206657 0.100932 1.76779e-27)
(-0.0185191 0.0946187 -1.68407e-27)
(-0.0201121 0.0964573 0)
(-0.0183847 0.0915845 2.72559e-27)
(-0.0138302 0.0830664 -2.14503e-27)
(-0.0178284 0.0882018 5.63403e-27)
(-0.0167605 0.0845422 0)
(-0.00843882 0.0782917 -1.41533e-27)
(-0.0117936 0.079244 -4.23501e-27)
(-0.00172789 0.0745987 0)
(-0.00542615 0.0748436 8.95001e-27)
(0.0490289 0.000328212 -1.14449e-28)
(0.0514992 0.00256408 0)
(0.0524038 0.00811376 1.39428e-27)
(0.0501655 0.018286 9.12183e-28)
(0.0497135 0.0343249 1.17937e-27)
(0.0541838 0.0516553 1.02238e-30)
(0.0588901 0.0638879 1.79707e-27)
(0.0601831 0.0754937 0)
(0.060276 0.0895865 -9.15372e-27)
(0.0601448 0.105607 -6.38079e-28)
(0.06034 0.122316 -1.32517e-28)
(0.0606848 0.139005 1.44774e-26)
(0.0609365 0.154095 1.35867e-34)
(0.0605623 0.165115 -1.95699e-31)
(0.0587866 0.169882 8.13924e-28)
(0.0553025 0.168389 1.6195e-26)
(0.0505425 0.163072 0)
(0.0453179 0.157097 0)
(0.0401406 0.152338 -3.05835e-26)
(0.0349585 0.148746 0)
(0.0297448 0.146147 3.0577e-26)
(0.024398 0.144109 3.11234e-27)
(0.0188966 0.142413 4.55416e-27)
(0.0131774 0.140794 -1.22478e-26)
(0.00729123 0.139025 3.39865e-26)
(0.00142771 0.136905 0)
(-0.00423797 0.134256 -1.62417e-27)
(-0.00947012 0.130963 2.23917e-27)
(-0.0139083 0.12699 0)
(-0.0173126 0.122604 -2.06282e-27)
(-0.0196326 0.118115 7.1591e-27)
(-0.0211247 0.11394 -1.15254e-26)
(-0.0213018 0.109426 1.37192e-27)
(-0.0222287 0.111243 -1.40222e-27)
(-0.0214166 0.106398 -5.30971e-27)
(-0.0221509 0.108028 0)
(-0.0215759 0.102758 -2.23828e-27)
(-0.0223974 0.104612 -5.30488e-27)
(-0.021457 0.0983839 -1.40536e-27)
(-0.0225809 0.100415 0)
(-0.0203473 0.0934677 8.86792e-27)
(-0.0220969 0.0955385 6.22202e-27)
(-0.020243 0.0900582 0)
(-0.0151642 0.0805854 -4.09539e-27)
(-0.0196343 0.0862611 3.22158e-27)
(-0.018412 0.0821824 0)
(-0.0091718 0.0754147 0)
(-0.0128456 0.0764005 -3.17814e-27)
(-0.00185298 0.071489 0)
(-0.00584728 0.0717049 1.00342e-26)