/*--------------------------------*- C++ -*----------------------------------*\
  =========                 |
  \\      /  F ield         | OpenFOAM: The Open Source CFD Toolbox
   \\    /   O peration     | Website:  https://openfoam.org
    \\  /    A nd           | Version:  dev
     \\/     M anipulation  |
\*---------------------------------------------------------------------------*/
FoamFile
{
    version     2.0;
    format      ascii;
    class       volScalarField;
    location    "2500";
    object      a;
}
// * * * * * * * * * * * * * * * * * * * * * * * * * * * * * * * * * * * * * //

dimensions      [0 -1 0 0 0 0 0];

internalField   nonuniform List<scalar> 
9978
(
0.100011
0.100011
0.100011
0.100011
0.100011
0.100011
0.100011
0.100011
0.100011
0.100011
0.10001
0.100011
0.100011
0.100011
0.100011
0.10001
0.10001
0.100011
0.100011
0.100011
0.100011
0.10001
0.10001
0.10001
0.100011
0.100011
0.100011
0.100011
0.10001
0.10001
0.10001
0.10001
0.100011
0.100011
0.100011
0.100011
0.100009
0.10001
0.10001
0.10001
0.10001
0.100011
0.100011
0.100011
0.100011
0.100009
0.100009
0.10001
0.10001
0.10001
0.10001
0.100011
0.100011
0.100011
0.100011
0.100009
0.100009
0.100009
0.10001
0.10001
0.10001
0.10001
0.100011
0.100011
0.100011
0.100011
0.100009
0.100009
0.100009
0.100009
0.10001
0.10001
0.10001
0.10001
0.100011
0.100011
0.100011
0.100011
0.100009
0.100009
0.100009
0.100009
0.100009
0.10001
0.10001
0.10001
0.10001
0.100011
0.100011
0.100011
0.100011
0.100008
0.100009
0.100009
0.100009
0.100009
0.100009
0.10001
0.10001
0.10001
0.10001
0.100011
0.100011
0.100011
0.100011
0.100008
0.100008
0.100009
0.100009
0.100009
0.100009
0.100009
0.10001
0.10001
0.10001
0.10001
0.100011
0.100011
0.100011
0.100011
0.100008
0.100008
0.100008
0.100009
0.100009
0.100009
0.100009
0.100009
0.10001
0.10001
0.10001
0.10001
0.100011
0.100011
0.100011
0.100011
0.100008
0.100008
0.100008
0.100008
0.100009
0.100009
0.100009
0.100009
0.100009
0.10001
0.10001
0.10001
0.10001
0.100011
0.100011
0.100011
0.100011
0.100007
0.100008
0.100008
0.100008
0.100008
0.100009
0.100009
0.100009
0.100009
0.100009
0.10001
0.10001
0.10001
0.10001
0.100011
0.100011
0.100011
0.100011
0.100007
0.100007
0.100008
0.100008
0.100008
0.100008
0.100009
0.100009
0.100009
0.100009
0.100009
0.10001
0.10001
0.10001
0.10001
0.100011
0.100011
0.100011
0.100011
0.100007
0.100007
0.100007
0.100008
0.100008
0.100008
0.100008
0.100009
0.100009
0.100009
0.100009
0.100009
0.10001
0.10001
0.10001
0.10001
0.100011
0.100011
0.100011
0.100011
0.100007
0.100007
0.100007
0.100007
0.100008
0.100008
0.100008
0.100008
0.100008
0.100009
0.100009
0.100009
0.100009
0.10001
0.10001
0.10001
0.10001
0.100011
0.100011
0.100011
0.100011
0.100006
0.100007
0.100007
0.100007
0.100007
0.100008
0.100008
0.100008
0.100008
0.100008
0.100009
0.100009
0.100009
0.100009
0.10001
0.10001
0.10001
0.10001
0.100011
0.100011
0.100011
0.100011
0.100006
0.100006
0.100007
0.100007
0.100007
0.100007
0.100008
0.100008
0.100008
0.100008
0.100008
0.100009
0.100009
0.100009
0.100009
0.10001
0.10001
0.10001
0.10001
0.100011
0.100011
0.100011
0.100011
0.100006
0.100006
0.100006
0.100007
0.100007
0.100007
0.100007
0.100008
0.100008
0.100008
0.100008
0.100008
0.100009
0.100009
0.100009
0.100009
0.10001
0.10001
0.10001
0.10001
0.100011
0.100011
0.100011
0.100011
0.100006
0.100006
0.100006
0.100006
0.100007
0.100007
0.100007
0.100007
0.100008
0.100008
0.100008
0.100008
0.100008
0.100009
0.100009
0.100009
0.100009
0.10001
0.10001
0.10001
0.10001
0.100011
0.100011
0.100011
0.100011
0.100006
0.100006
0.100006
0.100006
0.100006
0.100007
0.100007
0.100007
0.100007
0.100008
0.100008
0.100008
0.100008
0.100008
0.100009
0.100009
0.100009
0.100009
0.10001
0.10001
0.10001
0.10001
0.100011
0.100011
0.100011
0.100011
0.100005
0.100006
0.100006
0.100006
0.100006
0.100006
0.100007
0.100007
0.100007
0.100007
0.100008
0.100008
0.100008
0.100008
0.100008
0.100009
0.100009
0.100009
0.100009
0.10001
0.10001
0.10001
0.10001
0.100011
0.100011
0.100011
0.100011
0.100005
0.100005
0.100006
0.100006
0.100006
0.100006
0.100006
0.100007
0.100007
0.100007
0.100007
0.100008
0.100008
0.100008
0.100008
0.100008
0.100009
0.100009
0.100009
0.100009
0.10001
0.10001
0.10001
0.10001
0.100011
0.100011
0.100011
0.100011
0.100005
0.100005
0.100005
0.100006
0.100006
0.100006
0.100006
0.100006
0.100007
0.100007
0.100007
0.100007
0.100008
0.100008
0.100008
0.100008
0.100008
0.100009
0.100009
0.100009
0.100009
0.10001
0.10001
0.10001
0.10001
0.100011
0.100011
0.100011
0.100011
0.100005
0.100005
0.100005
0.100005
0.100006
0.100006
0.100006
0.100006
0.100006
0.100007
0.100007
0.100007
0.100007
0.100008
0.100008
0.100008
0.100008
0.100008
0.100009
0.100009
0.100009
0.100009
0.10001
0.10001
0.10001
0.10001
0.100011
0.100011
0.100011
0.100011
0.100004
0.100005
0.100005
0.100005
0.100005
0.100006
0.100006
0.100006
0.100006
0.100006
0.100007
0.100007
0.100007
0.100007
0.100008
0.100008
0.100008
0.100008
0.100008
0.100009
0.100009
0.100009
0.100009
0.10001
0.10001
0.10001
0.10001
0.100011
0.100011
0.100011
0.100011
0.100004
0.100004
0.100005
0.100005
0.100005
0.100005
0.100006
0.100006
0.100006
0.100006
0.100006
0.100007
0.100007
0.100007
0.100007
0.100008
0.100008
0.100008
0.100008
0.100008
0.100009
0.100009
0.100009
0.100009
0.10001
0.10001
0.10001
0.10001
0.100011
0.100011
0.100011
0.100011
0.100004
0.100004
0.100004
0.100005
0.100005
0.100005
0.100005
0.100006
0.100006
0.100006
0.100006
0.100006
0.100007
0.100007
0.100007
0.100007
0.100008
0.100008
0.100008
0.100008
0.100008
0.100009
0.100009
0.100009
0.100009
0.10001
0.10001
0.10001
0.10001
0.100011
0.100011
0.100011
0.100011
0.100004
0.100004
0.100004
0.100004
0.100005
0.100005
0.100005
0.100005
0.100006
0.100006
0.100006
0.100006
0.100006
0.100007
0.100007
0.100007
0.100007
0.100008
0.100008
0.100008
0.100008
0.100008
0.100009
0.100009
0.100009
0.100009
0.10001
0.10001
0.10001
0.10001
0.100011
0.100011
0.100011
0.100011
0.100004
0.100004
0.100004
0.100004
0.100004
0.100005
0.100005
0.100005
0.100005
0.100006
0.100006
0.100006
0.100006
0.100006
0.100007
0.100007
0.100007
0.100007
0.100008
0.100008
0.100008
0.100008
0.100008
0.100009
0.100009
0.100009
0.100009
0.10001
0.10001
0.10001
0.10001
0.100011
0.100011
0.100011
0.100011
0.100011
0.100011
0.100011
0.100003
0.100004
0.100004
0.100004
0.100004
0.100004
0.100005
0.100005
0.100005
0.100005
0.100006
0.100006
0.100006
0.100006
0.100006
0.100007
0.100007
0.100007
0.100007
0.100008
0.100008
0.100008
0.100008
0.100008
0.100009
0.100009
0.100009
0.100009
0.10001
0.10001
0.10001
0.10001
0.100011
0.100011
0.100011
0.100011
0.100011
0.100011
0.100011
0.100003
0.100003
0.100004
0.100004
0.100004
0.100004
0.100004
0.100005
0.100005
0.100005
0.100005
0.100006
0.100006
0.100006
0.100006
0.100006
0.100007
0.100007
0.100007
0.100007
0.100008
0.100008
0.100008
0.100008
0.100008
0.100009
0.100009
0.100009
0.10001
0.100011
0.100013
0.100013
0.100011
0.100012
0.100011
0.100012
0.100012
0.100011
0.100011
0.100011
0.100011
0.100011
0.100011
0.100003
0.100003
0.100003
0.100004
0.100004
0.100004
0.100004
0.100004
0.100005
0.100005
0.100005
0.100005
0.100006
0.100006
0.100006
0.100006
0.100006
0.100007
0.100007
0.100007
0.100007
0.100008
0.100008
0.100008
0.100008
0.100009
0.100009
0.10001
0.100013
0.100022
0.100037
0.100047
0.100018
0.100048
0.100021
0.100012
0.100023
0.100024
0.100011
0.100012
0.100011
0.100011
0.100011
0.100011
0.100003
0.100003
0.100003
0.100003
0.100004
0.100004
0.100004
0.100004
0.100004
0.100005
0.100005
0.100005
0.100005
0.100006
0.100006
0.100006
0.100006
0.100006
0.100007
0.100007
0.100007
0.100007
0.100008
0.100008
0.100008
0.100008
0.100009
0.10001
0.100021
0.100067
0.100196
0.100368
0.100161
0.100541
0.100067
0.10026
0.100084
0.100022
0.100096
0.100096
0.100012
0.10002
0.100011
0.100011
0.100011
0.100011
0.100002
0.100003
0.100003
0.100003
0.100003
0.100004
0.100004
0.100004
0.100004
0.100004
0.100005
0.100005
0.100005
0.100005
0.100006
0.100006
0.100006
0.100006
0.100006
0.100007
0.100007
0.100007
0.100007
0.100008
0.100008
0.100008
0.100009
0.100013
0.100039
0.100209
0.100791
0.102149
0.10155
0.104022
0.100916
0.102772
0.100366
0.101377
0.100454
0.100084
0.100503
0.100491
0.100016
0.100064
0.100014
0.100011
0.100012
0.100011
0.100002
0.100002
0.100003
0.100003
0.100003
0.100003
0.100004
0.100004
0.100004
0.100004
0.100004
0.100005
0.100005
0.100005
0.100005
0.100006
0.100006
0.100006
0.100006
0.100006
0.100007
0.100007
0.100007
0.100007
0.100008
0.100008
0.100008
0.100014
0.100085
0.100465
0.102407
0.107602
0.108855
0.118132
0.107211
0.116336
0.104314
0.111495
0.101842
0.106067
0.102199
0.100418
0.102366
0.102265
0.100042
0.100302
0.100026
0.100011
0.100016
0.100012
0.100002
0.100002
0.100002
0.100003
0.100003
0.100003
0.100003
0.100004
0.100004
0.100004
0.100004
0.100004
0.100005
0.100005
0.100005
0.100005
0.100006
0.100006
0.100006
0.100006
0.100006
0.100007
0.100007
0.100007
0.100007
0.100008
0.100008
0.100014
0.100121
0.101074
0.104895
0.118985
0.129271
0.14533
0.131105
0.150186
0.125858
0.147438
0.116543
0.136979
0.107731
0.121758
0.108918
0.101913
0.109362
0.108904
0.100183
0.101381
0.100089
0.100011
0.100036
0.100017
0.100002
0.100002
0.100002
0.100002
0.100003
0.100003
0.100003
0.100003
0.100004
0.100004
0.100004
0.100004
0.100004
0.100005
0.100005
0.100005
0.100005
0.100006
0.100006
0.100006
0.100006
0.100006
0.100007
0.100007
0.100007
0.100007
0.100008
0.100013
0.100129
0.101429
0.109585
0.133212
0.159873
0.177768
0.17195
0.19399
0.173223
0.200817
0.165069
0.1968
0.148206
0.182093
0.126162
0.158138
0.128929
0.107549
0.129657
0.128186
0.100835
0.105545
0.100404
0.100012
0.100151
0.100046
0.100001
0.100002
0.100002
0.100002
0.100002
0.100003
0.100003
0.100003
0.100003
0.100004
0.100004
0.100004
0.100004
0.100004
0.100005
0.100005
0.100005
0.100005
0.100006
0.100006
0.100006
0.100006
0.100006
0.100007
0.100007
0.100007
0.100007
0.100011
0.100115
0.101645
0.111609
0.149852
0.191351
0.206536
0.215276
0.234744
0.228052
0.253553
0.229124
0.260769
0.218612
0.255445
0.196821
0.237485
0.165287
0.208227
0.169268
0.124449
0.169706
0.166412
0.103511
0.118965
0.101891
0.100018
0.100727
0.100261
0.100001
0.100001
0.100002
0.100002
0.100002
0.100002
0.100003
0.100003
0.100003
0.100003
0.100004
0.100004
0.100004
0.100004
0.100004
0.100005
0.100005
0.100005
0.100005
0.100006
0.100006
0.100006
0.100006
0.100006
0.100007
0.100007
0.100007
0.100009
0.100079
0.101534
0.113673
0.156759
0.216831
0.227663
0.251552
0.26564
0.276319
0.296334
0.290249
0.315164
0.290326
0.322373
0.277999
0.316989
0.252614
0.29647
0.215598
0.263602
0.219059
0.159288
0.218632
0.214339
0.112848
0.148842
0.107404
0.100085
0.10375
0.101779
0.100001
0.100001
0.100002
0.100002
0.100002
0.100002
0.100002
0.100003
0.100003
0.100003
0.100003
0.100004
0.100004
0.100004
0.100004
0.100004
0.100005
0.100005
0.100005
0.100005
0.100006
0.100006
0.100006
0.100006
0.100006
0.100007
0.100007
0.100009
0.100054
0.101235
0.113247
0.164427
0.235288
0.233254
0.277158
0.286939
0.311437
0.322127
0.332739
0.341069
0.343458
0.351959
0.347096
0.359344
0.337931
0.362617
0.31061
0.353832
0.270071
0.320324
0.272362
0.205992
0.270735
0.265251
0.136454
0.194432
0.124992
0.100367
0.116019
0.108114
0.100001
0.100001
0.100002
0.100002
0.100002
0.100002
0.100002
0.100002
0.100003
0.100003
0.100003
0.100003
0.100004
0.100004
0.100004
0.100004
0.100004
0.100005
0.100005
0.100005
0.100005
0.100006
0.100006
0.100006
0.100006
0.100006
0.100007
0.100008
0.100039
0.100833
0.112047
0.163635
0.271447
0.291484
0.303622
0.32806
0.331555
0.344621
0.344888
0.353356
0.352084
0.361079
0.358412
0.368855
0.366382
0.373832
0.375692
0.365342
0.382795
0.325387
0.372983
0.326311
0.256242
0.323532
0.317317
0.180067
0.24487
0.16544
0.101796
0.14798
0.130731
0.100001
0.100003
0.100004
0.100004
0.100003
0.100002
0.100002
0.100002
0.100002
0.100003
0.100003
0.100003
0.100003
0.100004
0.100004
0.100004
0.100004
0.100004
0.100005
0.100005
0.100005
0.100005
0.100006
0.100006
0.100006
0.100006
0.100006
0.100007
0.100029
0.100571
0.10965
0.160262
0.267702
0.33363
0.332704
0.332783
0.33419
0.344386
0.343315
0.348755
0.343454
0.351476
0.338492
0.357106
0.338317
0.368622
0.348625
0.381392
0.367932
0.390339
0.387069
0.37665
0.397227
0.376848
0.308504
0.373845
0.367682
0.233022
0.298971
0.22184
0.124085
0.20756
0.210647
0.100002
0.100006
0.10001
0.100012
0.10001
0.100006
0.100003
0.100002
0.100002
0.100002
0.100003
0.100003
0.100003
0.100003
0.100004
0.100004
0.100004
0.100004
0.100004
0.100005
0.100005
0.100005
0.100005
0.100006
0.100006
0.100006
0.100006
0.100007
0.10002
0.100375
0.106993
0.152756
0.258328
0.331425
0.329473
0.340533
0.340521
0.342013
0.341057
0.336945
0.330556
0.323269
0.308628
0.313694
0.288837
0.316775
0.282345
0.336374
0.294542
0.366658
0.324898
0.39316
0.367222
0.40307
0.40021
0.407373
0.360271
0.409344
0.408562
0.291067
0.353813
0.290116
0.241213
0.306097
0.354924
0.100001
0.100008
0.100018
0.100027
0.100032
0.100025
0.100013
0.100005
0.100002
0.100002
0.100002
0.100003
0.100003
0.100003
0.100003
0.100004
0.100004
0.100004
0.100004
0.100004
0.100005
0.100005
0.100005
0.100005
0.100006
0.100006
0.100006
0.100006
0.100014
0.100241
0.104619
0.14196
0.241514
0.326478
0.316637
0.3407
0.341151
0.322147
0.322906
0.325617
0.32266
0.296038
0.286346
0.267505
0.251946
0.252601
0.234092
0.253821
0.227912
0.27546
0.233391
0.317864
0.262885
0.371168
0.316808
0.407963
0.379124
0.415365
0.405482
0.421407
0.425808
0.352668
0.403693
0.368077
0.22137
0.401238
0.360723
0.100004
0.100022
0.10004
0.100058
0.100064
0.100059
0.100028
0.100006
0.100002
0.100002
0.100002
0.100003
0.100003
0.100003
0.100003
0.100004
0.100004
0.100004
0.100004
0.100004
0.100005
0.100005
0.100005
0.100005
0.100006
0.100006
0.100006
0.100011
0.100147
0.102786
0.130965
0.221209
0.326797
0.341749
0.344971
0.324904
0.328562
0.279856
0.282693
0.280725
0.27895
0.241316
0.235095
0.225361
0.220578
0.218103
0.216097
0.214385
0.210891
0.221291
0.207317
0.257153
0.21506
0.322287
0.257957
0.390094
0.334219
0.4023
0.42911
0.414067
0.423874
0.409789
0.432823
0.425968
0.112224
0.423961
0.256194
0.100005
0.100035
0.100074
0.100114
0.10013
0.100117
0.100032
0.100006
0.100002
0.100002
0.100002
0.100003
0.100003
0.100003
0.100003
0.100004
0.100004
0.100004
0.100004
0.100004
0.100005
0.100005
0.100005
0.100005
0.100006
0.100006
0.100009
0.100092
0.101558
0.121085
0.198262
0.313182
0.341214
0.343236
0.332391
0.338212
0.288197
0.295271
0.236333
0.241918
0.232421
0.233431
0.217061
0.213485
0.215949
0.215802
0.214405
0.223204
0.208166
0.222446
0.203478
0.210146
0.213067
0.202019
0.265164
0.214452
0.350246
0.278468
0.367696
0.430958
0.384802
0.399583
0.43848
0.43654
0.441361
0.105998
0.411467
0.223092
0.100005
0.100049
0.100127
0.100192
0.100225
0.100142
0.100031
0.100005
0.100002
0.100002
0.100002
0.100003
0.100003
0.100003
0.100003
0.100004
0.100004
0.100004
0.100004
0.100004
0.100005
0.100005
0.100005
0.100005
0.100006
0.100007
0.100057
0.100865
0.113376
0.174188
0.290246
0.342798
0.322131
0.330975
0.303589
0.313039
0.25003
0.259941
0.208155
0.213218
0.209405
0.20719
0.21414
0.209999
0.231867
0.235528
0.246352
0.268887
0.238776
0.277276
0.215441
0.257136
0.202479
0.220892
0.2187
0.203692
0.296442
0.2264
0.318986
0.410475
0.338109
0.351501
0.383096
0.440249
0.429252
0.414288
0.438542
0.122704
0.404775
0.318247
0.100006
0.10006
0.100191
0.100294
0.100316
0.100135
0.100027
0.100005
0.100002
0.100002
0.100002
0.100003
0.100003
0.100003
0.100003
0.100004
0.100004
0.100004
0.100004
0.100004
0.100005
0.100005
0.100005
0.100005
0.100006
0.100034
0.100643
0.107971
0.152709
0.261668
0.341892
0.320169
0.330656
0.296026
0.308686
0.271338
0.283681
0.222384
0.233839
0.192916
0.196309
0.203183
0.194563
0.232047
0.220763
0.281147
0.282547
0.312282
0.3346
0.307844
0.351664
0.273159
0.334268
0.224358
0.286032
0.20629
0.225301
0.241313
0.206497
0.215094
0.295068
0.256406
0.35888
0.39387
0.367645
0.313823
0.276247
0.262154
0.324375
0.432422
0.418521
0.415741
0.397345
0.420931
0.429723
0.424856
0.327302
0.408774
0.425446
0.424949
0.419737
0.374283
0.414557
0.100006
0.100069
0.100272
0.100407
0.100343
0.100113
0.100019
0.100004
0.100002
0.100002
0.100002
0.100003
0.100003
0.100003
0.100003
0.100004
0.100004
0.100004
0.100004
0.100004
0.100005
0.100005
0.100005
0.100006
0.100019
0.100322
0.104432
0.136131
0.230195
0.335184
0.33731
0.343537
0.301896
0.314704
0.274612
0.288524
0.246866
0.260666
0.205564
0.21813
0.182066
0.184702
0.203898
0.1879
0.271002
0.245547
0.34125
0.335932
0.381149
0.392904
0.385011
0.418687
0.356109
0.412403
0.257828
0.296433
0.332729
0.370125
0.208888
0.226855
0.299124
0.296094
0.256835
0.204514
0.221726
0.208279
0.20673
0.228665
0.334073
0.373781
0.343958
0.286194
0.247348
0.235659
0.297682
0.404011
0.400459
0.378728
0.408646
0.414816
0.358121
0.420006
0.439018
0.425521
0.420788
0.428424
0.434372
0.100006
0.100092
0.100369
0.100497
0.10033
0.100083
0.100012
0.100003
0.100002
0.100002
0.100002
0.100003
0.100003
0.100003
0.100003
0.100004
0.100004
0.100004
0.100004
0.100004
0.100005
0.100005
0.100006
0.100017
0.100181
0.102395
0.123732
0.200297
0.316846
0.348679
0.326342
0.336499
0.289292
0.302447
0.261434
0.275618
0.23227
0.246898
0.194277
0.208477
0.171341
0.173075
0.21199
0.182608
0.312184
0.270793
0.390749
0.368142
0.43254
0.43096
0.449409
0.464276
0.399582
0.429392
0.447904
0.467518
0.336569
0.374181
0.40754
0.222393
0.252885
0.337711
0.336615
0.293333
0.205593
0.209425
0.206249
0.218424
0.212544
0.30883
0.351987
0.319473
0.259192
0.217102
0.224636
0.271151
0.383159
0.387981
0.35848
0.394204
0.402211
0.211518
0.367337
0.44066
0.411371
0.41975
0.426732
0.439276
0.100009
0.10015
0.100471
0.100522
0.100283
0.100054
0.100007
0.100002
0.100002
0.100002
0.100002
0.100003
0.100003
0.100003
0.100003
0.100004
0.100004
0.100004
0.100004
0.100004
0.100005
0.100006
0.100015
0.10009
0.101102
0.11491
0.174732
0.286143
0.348664
0.337586
0.345512
0.314746
0.326345
0.282799
0.295551
0.254961
0.269285
0.224145
0.239854
0.1839
0.200315
0.160434
0.160003
0.218316
0.175392
0.329568
0.277935
0.408542
0.373385
0.462214
0.442036
0.476211
0.484143
0.484876
0.483603
0.435608
0.458243
0.475408
0.487258
0.377137
0.412221
0.441909
0.247874
0.288852
0.377978
0.377162
0.333701
0.214717
0.206478
0.212591
0.241693
0.207801
0.283092
0.328773
0.294485
0.234681
0.209738
0.21302
0.246365
0.364221
0.370351
0.336721
0.377971
0.387455
0.134628
0.432501
0.324131
0.398241
0.408782
0.419953
0.438833
0.100015
0.100244
0.100542
0.100507
0.10019
0.100029
0.100004
0.100002
0.100002
0.100002
0.100002
0.100003
0.100003
0.100003
0.100003
0.100003
0.100004
0.100004
0.100004
0.100005
0.100007
0.100017
0.100085
0.100759
0.108986
0.152452
0.253297
0.342762
0.352619
0.329867
0.33923
0.307537
0.318957
0.279956
0.29233
0.251672
0.266454
0.218184
0.235544
0.171658
0.190331
0.148648
0.146797
0.217076
0.166046
0.328232
0.271048
0.407593
0.361527
0.476479
0.463864
0.438944
0.494533
0.496827
0.495714
0.490247
0.465695
0.483734
0.496377
0.504141
0.415128
0.446494
0.471677
0.282633
0.328773
0.416134
0.415464
0.374234
0.234817
0.209948
0.228196
0.274782
0.209103
0.258407
0.305011
0.270399
0.217703
0.208671
0.20914
0.225516
0.344014
0.351831
0.314456
0.360999
0.372028
0.131282
0.427337
0.317126
0.384742
0.399224
0.417569
0.439232
0.100031
0.100346
0.100557
0.100436
0.100107
0.100014
0.100003
0.100002
0.100002
0.100002
0.100002
0.100003
0.100003
0.100003
0.100003
0.100004
0.100004
0.100004
0.100005
0.10001
0.100025
0.100089
0.100468
0.105198
0.136119
0.222976
0.326402
0.358353
0.343983
0.351179
0.324773
0.334157
0.303777
0.314544
0.277844
0.290209
0.248111
0.263889
0.210833
0.230389
0.15696
0.176866
0.136404
0.133865
0.205475
0.153856
0.307477
0.246994
0.388556
0.328886
0.480414
0.465875
0.411879
0.442344
0.507199
0.506892
0.502452
0.494108
0.490718
0.504115
0.51251
0.516209
0.449447
0.476198
0.496435
0.321864
0.369248
0.450677
0.45027
0.412741
0.26558
0.221849
0.255404
0.313076
0.216472
0.2365
0.282029
0.249009
0.209775
0.211669
0.208161
0.213034
0.323698
0.33347
0.293193
0.344517
0.357731
0.154076
0.428282
0.355839
0.373484
0.393096
0.418914
0.441346
0.100067
0.100424
0.100526
0.100285
0.100049
0.100006
0.100002
0.100002
0.100002
0.100002
0.100002
0.100003
0.100003
0.100003
0.100003
0.100004
0.100004
0.100008
0.10002
0.100053
0.100114
0.100352
0.10282
0.124029
0.195389
0.29983
0.356875
0.357666
0.338769
0.346356
0.321156
0.330081
0.301346
0.31159
0.273744
0.286779
0.240943
0.258559
0.199274
0.22099
0.140874
0.159534
0.123893
0.121273
0.182953
0.138623
0.270834
0.211943
0.384903
0.346699
0.278233
0.319028
0.481083
0.464126
0.403696
0.433663
0.516336
0.513894
0.506552
0.495327
0.510709
0.519797
0.524261
0.524981
0.479238
0.500883
0.51616
0.362313
0.408105
0.480748
0.480784
0.448002
0.302359
0.244091
0.289642
0.353324
0.231551
0.22018
0.261512
0.231808
0.206789
0.21967
0.211652
0.207431
0.304489
0.316487
0.2743
0.329888
0.346011
0.204644
0.43788
0.405129
0.365824
0.391126
0.421877
0.444895
0.100146
0.10044
0.100405
0.100141
0.10002
0.100003
0.100002
0.100002
0.100002
0.100002
0.100002
0.100003
0.100003
0.100003
0.100004
0.100005
0.100014
0.100053
0.100113
0.100173
0.100375
0.101719
0.115039
0.171224
0.271234
0.35035
0.364002
0.348772
0.354653
0.333723
0.34103
0.317389
0.325805
0.298134
0.308242
0.264659
0.279506
0.227148
0.247214
0.182129
0.205045
0.124976
0.139227
0.112482
0.110337
0.156133
0.123376
0.228858
0.176039
0.369439
0.334308
0.269262
0.299426
0.479988
0.459358
0.392331
0.425274
0.523456
0.518071
0.50847
0.494999
0.525987
0.531284
0.5326
0.531798
0.504044
0.520531
0.531218
0.401608
0.443991
0.505877
0.506426
0.479172
0.341948
0.27329
0.327101
0.393099
0.253837
0.210956
0.244999
0.220154
0.206691
0.234603
0.219026
0.205316
0.287701
0.301989
0.259088
0.318183
0.337786
0.349123
0.448275
0.444652
0.362126
0.392203
0.425777
0.449427
0.100272
0.100388
0.100234
0.100059
0.100008
0.100002
0.100002
0.100002
0.100002
0.100002
0.100002
0.100003
0.100003
0.100004
0.100008
0.100037
0.100134
0.10024
0.100354
0.100534
0.101541
0.109344
0.150216
0.243456
0.335146
0.364734
0.35897
0.341271
0.346956
0.327685
0.334583
0.312007
0.320208
0.292067
0.302762
0.247923
0.265526
0.205279
0.227633
0.159774
0.182132
0.111512
0.119217
0.106634
0.104956
0.133266
0.113449
0.219623
0.188376
0.170475
0.145035
0.35596
0.317929
0.247772
0.281093
0.476908
0.453699
0.381082
0.41638
0.527757
0.52011
0.508701
0.493154
0.53724
0.539198
0.538975
0.53603
0.523791
0.535469
0.542194
0.438317
0.476026
0.525923
0.526946
0.505607
0.381688
0.305665
0.365016
0.430672
0.280058
0.207263
0.233571
0.213756
0.20948
0.253337
0.23064
0.205826
0.274303
0.290938
0.248303
0.31014
0.333511
0.271584
0.457446
0.429447
0.362085
0.395394
0.430449
0.454051
0.100311
0.100259
0.100113
0.100021
0.100003
0.100001
0.100001
0.100002
0.100002
0.100002
0.100002
0.100003
0.100004
0.100014
0.100085
0.100305
0.100604
0.100933
0.101163
0.101821
0.106981
0.135427
0.217874
0.313666
0.36261
0.363531
0.344332
0.349886
0.332587
0.338233
0.319697
0.326419
0.303309
0.312103
0.280447
0.292898
0.222113
0.242667
0.176399
0.199511
0.134763
0.154389
0.104987
0.107506
0.105134
0.103071
0.132464
0.118162
0.110371
0.203674
0.179452
0.159231
0.142409
0.342793
0.303689
0.232856
0.266365
0.472894
0.447325
0.37024
0.40774
0.529979
0.520768
0.508092
0.490813
0.544793
0.545001
0.542922
0.538264
0.538733
0.546237
0.549304
0.471484
0.503544
0.541049
0.542494
0.526986
0.419839
0.339202
0.40087
0.464925
0.307294
0.2069
0.226572
0.211975
0.215144
0.274021
0.245267
0.207966
0.264989
0.283921
0.242225
0.306299
0.333217
0.184034
0.458692
0.389603
0.364647
0.401548
0.436298
0.458657
0.100252
0.100144
0.100047
0.100007
0.100002
0.100001
0.100001
0.100002
0.100002
0.100002
0.100003
0.100005
0.100023
0.100174
0.1007
0.101749
0.102831
0.103347
0.103456
0.107
0.126562
0.194328
0.290757
0.356306
0.364273
0.350677
0.332944
0.337571
0.321904
0.327508
0.308257
0.315593
0.288931
0.299493
0.260789
0.276154
0.188322
0.210702
0.144797
0.165672
0.114051
0.12671
0.102574
0.10295
0.10572
0.102815
0.128563
0.118229
0.108698
0.112869
0.195261
0.173285
0.155241
0.140459
0.330226
0.290471
0.222053
0.253776
0.468653
0.440984
0.361219
0.400805
0.530938
0.52079
0.506941
0.488623
0.549758
0.548825
0.544976
0.539491
0.549383
0.552886
0.553712
0.500303
0.526036
0.551771
0.553606
0.543308
0.45425
0.370831
0.431788
0.494583
0.334363
0.208297
0.223913
0.213135
0.224705
0.296595
0.262972
0.213647
0.260254
0.281492
0.24056
0.306367
0.335957
0.153712
0.454942
0.360053
0.371917
0.409831
0.443759
0.462027
0.100154
0.100069
0.100017
0.100003
0.100001
0.100001
0.100001
0.100002
0.100002
0.100002
0.100006
0.10004
0.100331
0.101622
0.104948
0.10846
0.1104
0.109462
0.108917
0.123871
0.175335
0.268703
0.342944
0.363186
0.354942
0.324963
0.319682
0.325369
0.307738
0.314031
0.291092
0.300198
0.266667
0.280033
0.231912
0.250681
0.151613
0.172698
0.117795
0.132539
0.10495
0.109446
0.101871
0.101496
0.111614
0.113611
0.108178
0.104929
0.102929
0.128468
0.119334
0.11723
0.18907
0.170252
0.154631
0.141535
0.319439
0.278837
0.212856
0.242664
0.465161
0.435899
0.357199
0.397892
0.531679
0.520963
0.506665
0.487856
0.553252
0.550666
0.546445
0.540804
0.555727
0.556925
0.55686
0.523951
0.54332
0.558027
0.560055
0.555031
0.481392
0.400412
0.458918
0.516582
0.361558
0.211535
0.224307
0.216253
0.237128
0.320293
0.281347
0.221497
0.260006
0.282502
0.241517
0.310092
0.345013
0.117906
0.449309
0.313484
0.382961
0.420286
0.451704
0.464377
0.100082
0.100028
0.100005
0.100001
0.100001
0.100001
0.100001
0.100002
0.100002
0.100006
0.100056
0.100538
0.103376
0.111656
0.12148
0.125718
0.122263
0.114983
0.124745
0.164935
0.248689
0.327343
0.359216
0.355572
0.331108
0.293386
0.308197
0.298624
0.302504
0.287827
0.295911
0.266225
0.278033
0.235424
0.252061
0.195013
0.216253
0.12045
0.135871
0.105749
0.111201
0.101738
0.10295
0.101941
0.101136
0.119405
0.123668
0.11637
0.108938
0.104304
0.131591
0.123835
0.125095
0.185647
0.169558
0.156193
0.145826
0.314094
0.272379
0.207061
0.235973
0.463811
0.433861
0.356487
0.397454
0.532695
0.521872
0.507215
0.48799
0.555372
0.552686
0.54851
0.542675
0.55956
0.559821
0.559219
0.540105
0.554552
0.562064
0.564091
0.561134
0.503491
0.427425
0.482074
0.533754
0.387455
0.216896
0.227036
0.222306
0.249834
0.342069
0.298719
0.230715
0.262567
0.288377
0.245876
0.322283
0.359629
0.133254
0.443702
0.337107
0.39673
0.431626
0.459441
0.465982
0.100035
0.100009
0.100002
0.100001
0.100001
0.100001
0.100001
0.100002
0.100006
0.100066
0.100782
0.105869
0.121315
0.137575
0.143463
0.138483
0.127698
0.128883
0.163581
0.231965
0.310878
0.350421
0.353952
0.334207
0.294408
0.286938
0.26704
0.273085
0.27977
0.260366
0.271001
0.23285
0.247696
0.196521
0.21566
0.155304
0.175885
0.106368
0.112096
0.101561
0.103181
0.100863
0.100941
0.103879
0.102028
0.101191
0.130414
0.13823
0.12867
0.118595
0.108886
0.137699
0.131058
0.136401
0.186117
0.171892
0.161986
0.154197
0.313061
0.271075
0.206341
0.234737
0.463742
0.433611
0.360566
0.401542
0.534593
0.523911
0.50913
0.490772
0.557628
0.554893
0.550778
0.545265
0.562556
0.562367
0.561167
0.552391
0.562158
0.564742
0.566494
0.565691
0.522348
0.451527
0.50484
0.547609
0.410127
0.225657
0.235724
0.233854
0.263952
0.363854
0.319743
0.244457
0.270755
0.305566
0.258694
0.341774
0.377559
0.261648
0.446133
0.411967
0.411464
0.443027
0.465935
0.468217
0.100017
0.100003
0.100001
0.100001
0.100001
0.100001
0.100002
0.100006
0.100071
0.100975
0.108705
0.131402
0.153281
0.162034
0.157477
0.144587
0.13873
0.165728
0.223848
0.294514
0.338931
0.348476
0.334668
0.298356
0.231403
0.259056
0.233151
0.239372
0.249575
0.224748
0.238149
0.192419
0.209484
0.155156
0.174021
0.121586
0.136753
0.101588
0.103282
0.100427
0.10075
0.100658
0.100459
0.107209
0.102894
0.102249
0.101114
0.146584
0.158686
0.145953
0.132078
0.118089
0.147771
0.142028
0.153383
0.192765
0.180956
0.173501
0.168464
0.317099
0.275032
0.211349
0.238797
0.466827
0.437161
0.374369
0.414158
0.537932
0.528362
0.515677
0.498773
0.559161
0.556488
0.55297
0.54847
0.564729
0.563859
0.56206
0.561673
0.565866
0.566756
0.568429
0.567535
0.541507
0.475824
0.527755
0.559001
0.43822
0.242608
0.255005
0.259329
0.286907
0.396185
0.358781
0.273507
0.293629
0.3289
0.289279
0.364902
0.396579
0.167226
0.456393
0.414205
0.426081
0.453551
0.470987
0.471645
0.100006
0.100001
0.100001
0.100001
0.100001
0.100001
0.100005
0.10007
0.101073
0.110943
0.139326
0.166923
0.180046
0.178449
0.166432
0.15671
0.172993
0.224092
0.281548
0.325751
0.338489
0.332351
0.299063
0.235337
0.15925
0.201804
0.161158
0.223083
0.19145
0.211392
0.182669
0.197758
0.149638
0.166735
0.120553
0.13357
0.106451
0.111895
0.100327
0.100712
0.100181
0.100172
0.100626
0.100348
0.115011
0.105624
0.103589
0.101446
0.169156
0.184743
0.168398
0.150344
0.131929
0.163785
0.158967
0.177119
0.208908
0.198775
0.193662
0.190517
0.331444
0.289525
0.226405
0.253283
0.476606
0.448513
0.39928
0.436136
0.542628
0.535171
0.525726
0.511051
0.559918
0.557371
0.554321
0.55085
0.56632
0.564826
0.562693
0.564665
0.567526
0.568475
0.570444
0.57029
0.554507
0.509661
0.546972
0.563167
0.486434
0.281573
0.290237
0.303683
0.338995
0.459763
0.433882
0.330871
0.321855
0.357333
0.320231
0.388011
0.414398
0.169773
0.461723
0.420506
0.439108
0.462908
0.475608
0.475648
0.100003
0.100001
0.100001
0.100001
0.100001
0.100004
0.10006
0.101076
0.111801
0.144026
0.177318
0.195923
0.199056
0.191612
0.183295
0.189906
0.22813
0.275804
0.31365
0.327086
0.324955
0.296789
0.235296
0.146438
0.153909
0.12351
0.128617
0.179924
0.145142
0.167081
0.138932
0.152906
0.116757
0.126134
0.105711
0.110139
0.101496
0.102993
0.100066
0.100127
0.100122
0.100066
0.101056
0.100599
0.100332
0.126084
0.109824
0.106216
0.102386
0.197886
0.214835
0.194336
0.171489
0.148123
0.187329
0.183065
0.207874
0.23721
0.228509
0.224659
0.222542
0.358644
0.317716
0.254471
0.281397
0.491902
0.467266
0.435992
0.467466
0.546466
0.54061
0.534228
0.526164
0.560508
0.558154
0.555506
0.55256
0.567127
0.565051
0.562792
0.567565
0.571157
0.569905
0.572873
0.572225
0.558886
0.533491