/*--------------------------------*- C++ -*----------------------------------*\
  =========                 |
  \\      /  F ield         | OpenFOAM: The Open Source CFD Toolbox
   \\    /   O peration     | Website:  https://openfoam.org
    \\  /    A nd           | Version:  dev
     \\/     M anipulation  |
\*---------------------------------------------------------------------------*/
FoamFile
{
    version     2.0;
    format      ascii;
    class       volScalarField;
    location    "2500";
    object      alphat;
}
// * * * * * * * * * * * * * * * * * * * * * * * * * * * * * * * * * * * * * //

dimensions      [1 -1 -1 0 0 0 0];

internalField   nonuniform List<scalar> 
9978
(
0.000152046
0.000156297
0.000146725
0.000143749
0.000182705
0.000130095
0.000131113
0.000193768
0.000170146
0.000123684
0.000127082
0.000189576
0.000193226
0.000145619
0.000121674
0.00012327
0.000175269
0.000208364
0.000175754
0.000132709
0.000120394
0.000121271
0.000156068
0.000211409
0.000200441
0.000150582
0.000127041
0.000119531
0.000120721
0.000144919
0.000207198
0.000212418
0.000175384
0.000136353
0.000123946
0.000118925
0.000120412
0.000136198
0.000193752
0.000222829
0.000200324
0.000151964
0.000129598
0.000122309
0.000118452
0.000119868
0.000130142
0.000173446
0.000223645
0.000217232
0.000172106
0.00013841
0.00012583
0.000121124
0.000118148
0.000119268
0.000126374
0.000156549
0.000219014
0.000225324
0.000195863
0.000151609
0.000131139
0.000123809
0.000120197
0.000117926
0.000118683
0.000124161
0.000145545
0.000205558
0.000233241
0.000215673
0.00016873
0.000139361
0.000127067
0.000122405
0.000119551
0.000117738
0.000118287
0.000123253
0.000137657
0.00018492
0.000233517
0.000228981
0.000189759
0.00015029
0.000132286
0.000124812
0.000121367
0.000118875
0.000117637
0.000118032
0.000122758
0.000132766
0.000165811
0.00022829
0.00023594
0.000211286
0.000165236
0.000139437
0.000128027
0.000123317
0.00012049
0.000118383
0.00011754
0.000117869
0.000122426
0.00012976
0.000153619
0.000214525
0.000242643
0.000228281
0.000183295
0.000149086
0.000133172
0.000125451
0.000122146
0.000119536
0.000118086
0.000117443
0.000117778
0.000122172
0.00012792
0.00014477
0.000192917
0.000242062
0.000239407
0.000204952
0.000161325
0.000139597
0.000128846
0.000123889
0.000121107
0.000118779
0.000117854
0.000117351
0.000117731
0.000121973
0.000126744
0.000139074
0.000173381
0.000235647
0.000246277
0.000225005
0.000178396
0.000147772
0.000133865
0.000125981
0.000122644
0.000120115
0.000118245
0.000117652
0.000117273
0.000117715
0.000121765
0.000125935
0.000135643
0.000160299
0.000219689
0.000251095
0.000240273
0.000197524
0.000158487
0.000139749
0.000129791
0.000124329
0.000121573
0.000119213
0.000117854
0.000117463
0.000117209
0.000117717
0.000121546
0.000125433
0.000133468
0.000151475
0.000197796
0.00024915
0.000249133
0.000219604
0.000173385
0.00014675
0.00013447
0.000126782
0.000123055
0.000120628
0.000118465
0.000117565
0.000117283
0.000117161
0.000117739
0.000121353
0.000125058
0.0001318
0.000146121
0.000179319
0.000240874
0.00025584
0.000238155
0.000192149
0.000156326
0.000140002
0.000130588
0.000124801
0.000121968
0.000119752
0.000117888
0.000117339
0.000117115
0.000117133
0.000117755
0.000121185
0.000124773
0.000130622
0.000142748
0.000166376
0.000221971
0.000258284
0.000251384
0.000212693
0.000169526
0.000146124
0.00013518
0.000127729
0.000123488
0.000121043
0.000118941
0.000117461
0.00011714
0.00011698
0.000117112
0.00011776
0.000121005
0.00012454
0.000129787
0.000139992
0.000157993
0.000199708
0.000254583
0.000258258
0.000234314
0.000187319
0.000154675
0.000140106
0.000131413
0.000125639
0.000122418
0.000120218
0.000118239
0.000117176
0.000116942
0.000116904
0.000117095
0.000117767
0.000120827
0.000124302
0.000129109
0.000137647
0.000152699
0.000181931
0.000243442
0.000264773
0.000251316
0.000207215
0.000166629
0.000145734
0.000135799
0.000128659
0.000124129
0.000121482
0.000119472
0.000117687
0.000116997
0.000116754
0.000116886
0.000117102
0.000117774
0.000120665
0.000124061
0.000128502
0.000135761
0.000148809
0.000169911
0.000220719
0.000264369
0.000261762
0.000229371
0.00018278
0.000153172
0.000140031
0.000132441
0.000126648
0.000122981
0.00012068
0.000118849
0.000117304
0.00011687
0.000116664
0.000116922
0.000117135
0.000117779
0.000120509
0.00012381
0.000127928
0.000134439
0.00014549
0.000162246
0.000198825
0.00025845
0.000268277
0.000249233
0.00020248
0.000164139
0.0001454
0.000136211
0.000129854
0.000125068
0.000122051
0.000120005
0.000118334
0.000117091
0.000116788
0.000116735
0.000117025
0.000117198
0.000117766
0.000120358
0.000123561
0.000127365
0.000133493
0.000142636
0.000157172
0.000182686
0.000242507
0.000272478
0.000264071
0.000223452
0.000178666
0.000152124
0.000140553
0.000133331
0.000127825
0.000123837
0.000121304
0.000119466
0.00011798
0.000117059
0.000116812
0.000116952
0.000117246
0.0001173
0.000117729
0.000120216
0.000123269
0.000126843
0.000132588
0.00014039
0.000153107
0.000171728
0.000217922
0.000269926
0.000271596
0.000246085
0.000197635
0.000162079
0.000145319
0.00013694
0.000130945
0.000126234
0.000122951
0.000120689
0.000119075
0.000117841
0.000117186
0.000117041
0.000117339
0.00011763
0.000117461
0.000117673
0.000120064
0.000122946
0.000126414
0.000131589
0.000138681
0.000149407
0.00016472
0.000197288
0.000260548
0.00027872
0.00026402
0.000218357
0.000175602
0.00015193
0.000141007
0.000134136
0.000128976
0.000125019
0.000122308
0.00012026
0.000118888
0.000117966
0.000117538
0.000117582
0.000117998
0.000118225
0.000117752
0.000117612
0.000119889
0.000122625
0.00012601
0.00013058
0.000137239
0.00014617
0.000159829
0.000182724
0.00023907
0.000279082
0.000275711
0.000241151
0.000193015
0.000160394
0.000145557
0.000137723
0.000131932
0.000127419
0.000124125
0.000121821
0.000120043
0.000118972
0.000118402
0.000118206
0.000118495
0.000119067
0.000118999
0.000118084
0.000117529
0.000119712
0.000122316
0.000125588
0.000129709
0.000135852
0.000143557
0.000155739
0.000172801
0.000213739
0.000273973
0.00028218
0.000262437
0.000213913
0.000173059
0.000151405
0.000141357
0.000135047
0.000130196
0.000126274
0.000123554
0.000121564
0.000120102
0.000119385
0.000119217
0.000119397
0.000119989
0.000120648
0.000120419
0.000118377
0.000117435
0.000119548
0.000121973
0.000125116
0.000128998
0.000134519
0.000141374
0.000152117
0.00016633
0.000194705
0.000260161
0.000287701
0.000278291
0.000235406
0.000188652
0.000159315
0.000145953
0.000138295
0.000132982
0.000128891
0.000125536
0.000123276
0.000121657
0.000120524
0.000120235
0.000120449
0.000121177
0.000122273
0.000123002
0.000122661
0.000119024
0.000117392
0.000119338
0.000121562
0.00012461
0.000128338
0.00013333
0.000139536
0.000148876
0.00016185
0.000181683
0.000232508
0.000285095
0.000286473
0.000259664
0.000208739
0.000170051
0.000150946
0.000142084
0.00013599
0.000131488
0.000127969
0.000125223
0.000123339
0.000122143
0.000121469
0.000121634
0.000122403
0.000123801
0.000125322
0.000126318
0.000125189
0.000119802
0.000117384
0.000119014
0.000121158
0.000124103
0.000127576
0.000132266
0.000137989
0.000145966
0.00015823
0.000172975
0.000208137
0.000276146
0.000294166
0.000278352
0.000230187
0.000185151
0.000158327
0.000145954
0.000139243
0.000134312
0.000130429
0.000127483
0.000125295
0.000123845
0.000123118
0.000123154
0.000123866
0.000125393
0.000127436
0.000129185
0.000129861
0.0001265
0.000119962
0.000117349
0.000118601
0.000120716
0.000123545
0.000126766
0.000131325
0.000136546
0.000143514
0.000154791
0.000167587
0.000191569
0.000254931
0.000294797
0.000291266
0.000254096
0.000202827
0.000167644
0.000151145
0.000142664
0.000137217
0.000133118
0.000129856
0.000127503
0.000125803
0.000124948
0.000124839
0.000125644
0.000127184
0.000129341
0.000131443
0.000123947
0.000117124
0.000115303
0.000119013
0.000117286
0.000118214
0.000120262
0.000122898
0.000125919
0.000130363
0.000135097
0.0001415
0.000151346
0.000163903
0.000180354
0.000224414
0.000289625
0.000297524
0.000277228
0.000225465
0.000181122
0.000156891
0.000146581
0.000140228
0.000135852
0.00013245
0.000129803
0.000128031
0.00012702
0.000126881
0.000127709
0.000129268
0.000130294
0.000119691
0.000111264
0.000104178
0.000104345
0.000113731
0.000111327
0.000117764
0.000118842
0.000119205
0.000117224
0.000117935
0.000119797
0.000122231
0.000125132
0.000129279
0.00013379
0.000139659
0.000148209
0.000160427
0.000172987
0.000202977
0.000275736
0.000304271
0.000293701
0.000247328
0.000198085
0.000165988
0.000150783
0.000143491
0.000138572
0.000135089
0.000132325
0.000130328
0.000129315
0.000129234
0.000129933
0.000131515
0.0001195
0.000108936
9.92395e-05
9.23227e-05
9.15117e-05
0.000103673
9.63233e-05
0.000108405
0.000117541
0.000114249
0.00011814
0.000117169
0.00011765
0.000119134
0.000121599
0.000124373
0.000128051
0.000132729
0.000137799
0.000145611
0.000156838
0.000168412
0.000188807
0.000246299
0.000300952
0.000302762
0.000274196
0.000218453
0.000177062
0.000156525
0.000146956
0.000141463
0.000137679
0.000134879
0.000132822
0.000131721
0.000131701
0.000132588
0.000122634
0.00011077
9.95116e-05
9.05142e-05
8.36217e-05
8.90594e-05
8.28555e-05
8.67066e-05
8.42574e-05
7.95361e-05
0.000102091
8.94427e-05
0.000105529
0.000117242
0.000119118
0.000117022
0.000117115
0.000117346
0.000118448
0.000120937
0.000123486
0.000126782
0.000131624
0.000135966
0.000143367
0.000153493
0.000164764
0.000179111
0.00021658
0.000292157
0.000310522
0.0002935
0.000242155
0.000193384
0.000163632
0.000150893
0.000144431
0.000140281
0.000137419
0.000135317
0.000134282
0.000134272
0.000132119
0.00011677
0.000103841
9.40348e-05
8.48048e-05
7.78525e-05
7.81768e-05
7.53907e-05
7.49537e-05
8.27883e-05
7.16083e-05
7.66484e-05
9.52445e-05
8.53259e-05
0.000105902
0.000117081
0.000117631
0.000116172
0.000117075
0.000117067
0.000117885
0.000120263
0.000122567
0.000125528
0.000130338
0.000134489
0.000141151
0.000150655
0.00016144
0.000172372
0.000198771
0.000271384
0.000312341
0.000307978
0.000266085
0.000211833
0.000174431
0.000155746
0.000147609
0.000142837
0.000139909
0.000137784
0.00013682
0.000136911
0.000130049
0.000112552
0.000100356
9.16822e-05
9.10838e-05
9.16775e-05
7.69622e-05
9.52676e-05
7.51079e-05
8.01275e-05
7.22303e-05
7.74396e-05
7.35726e-05
7.279e-05
9.25348e-05
8.09368e-05
0.000102013
0.000117249
0.000108063
0.000102949
0.000117051
0.000116851
0.000117378
0.000119447
0.000121668
0.000124452
0.000128921
0.000133179
0.000139082
0.000148168
0.000158517
0.000167921
0.000185947
0.000235833
0.000306501
0.000313772
0.000293033
0.000235296
0.000187762
0.000162222
0.000151142
0.000145539
0.000142194
0.00014019
0.000139236
0.000139454
0.000128229
0.000111426
9.89935e-05
9.97335e-05
0.000117722
0.000144633
0.000125655
0.000136628
0.000114541
0.000125703
8.34874e-05
0.000117739
8.76807e-05
7.36127e-05
8.95158e-05
8.94996e-05
8.65444e-05
7.49593e-05
8.97959e-05
5.95401e-05
8.17772e-05
5.59848e-05
0.000117077
0.000116774
0.000116967
0.000118671
0.000120762
0.000123415
0.000127375
0.000131833
0.000137222
0.000145879
0.000155928
0.000164755
0.000177044
0.000210484
0.000292546
0.000322818
0.000308947
0.00025925
0.000206245
0.000171191
0.000155248
0.000148308
0.000144421
0.000142338
0.000141542
0.000141871
0.000128858
0.000109996
0.000102384
0.000115244
0.000162598
0.000186773
0.000167821
0.000216588
0.00014486
0.000189926
0.000127331
0.000156975
0.000115166
0.00012893
0.000111933
8.61505e-05
0.000108351
0.000104618
7.59508e-05
7.86623e-05
7.04591e-05
3.26858e-05
5.61113e-05
3.56796e-05
0.000117234
0.00011686
0.000116686
0.000118074
0.00012
0.000122438
0.000125911
0.000130479
0.000135452
0.000143865
0.000153556
0.000162333
0.000171131
0.000194434
0.000263663
0.000319069
0.000321223
0.000286884
0.000226859
0.00018341
0.000160942
0.000151262
0.000146583
0.000144263
0.0001434
0.000144171
0.000131857
0.000110241
0.000106073
0.000155477
0.000192065
0.00025849
0.000268552
0.000335049
0.000254474
0.000330344
0.000218576
0.000303216
0.00016847
0.000249231
0.000129485
0.00017932
0.000127952
0.000101293
0.000123862
0.000117104
6.96743e-05
9.93047e-05
5.58939e-05
2.18837e-05
3.95312e-05
2.88893e-05
0.000117432
0.000117213
0.000116751
0.000117866
0.000119498
0.000121587
0.000124772
0.000128845
0.000133789
0.000141823
0.000151352
0.000160217
0.000167319
0.000183039
0.000226877
0.000311038
0.000327034
0.000310426
0.000252298
0.000199518
0.000168298
0.000154968
0.000148816
0.000146155
0.000144845
0.000145867
0.000136931
0.000112743
0.000108231
0.000170083
0.000242945
0.000334587
0.000397795
0.000464945
0.000415418
0.00048679
0.000395266
0.000478471
0.000350659
0.000444608
0.000278672
0.000386823
0.000186502
0.000300606
0.000187708
0.000108954
0.000181752
0.000168534
9.17699e-05
0.00010045
5.67031e-05
1.81796e-05
3.59e-05
2.99022e-05
0.000118359
0.000118663
0.000118141
0.000118436
0.000119403
0.000120943
0.000123832
0.000127293
0.000132734
0.000139717
0.000149202
0.000158187
0.000164675
0.000175453
0.00020592
0.000291486
0.000333713
0.000324075
0.0002777
0.000219471
0.000179215
0.000159444
0.000151341
0.000147778
0.000146334
0.000146969
0.000144308
0.000117649
0.000109227
0.000174705
0.00026863
0.000424233
0.000522245
0.000582379
0.000553125
0.000600654
0.000543906
0.000593169
0.000518032
0.000570549
0.000474328
0.000536406
0.000408688
0.000488715
0.000310774
0.000417877
0.000310114
0.000150773
0.000300022
0.000279907
9.31526e-05
0.000131594
9.14196e-05
1.57708e-05
4.80514e-05
2.81529e-05
0.000119035
0.000120597
0.000120688
0.000119977
0.0001199
0.0001208
0.000123097
0.000126242
0.000131705
0.000138067
0.000146747
0.000156316
0.000162891
0.000170171
0.000191637
0.00025661
0.000327379
0.000334079
0.00030651
0.000243065
0.000193088
0.000166007
0.000154094
0.000149383
0.000147778
0.000147738
0.000150407
0.000125043
0.00011176
0.000167928
0.000289534
0.000474768
0.000615728
0.000665489
0.000636508
0.000664733
0.000627451
0.000651144
0.000604655
0.000625905
0.00057453
0.000596712
0.000538829
0.000565753
0.000491401
0.000532095
0.000417088
0.000486447
0.000408785
0.000250835
0.000394635
0.000375427
0.000114093
0.000215278
0.000102749
1.0041e-05
9.32927e-05
4.99193e-05
0.00012046
0.000124286
0.00012404
0.000122793
0.0001216
0.000121642
0.00012324
0.000125939
0.000130786
0.000137375
0.00014423
0.000154328
0.000162084
0.000166716
0.000181287
0.00022177
0.000315903
0.000340361
0.000326435
0.000269374
0.000211801
0.00017454
0.000158095
0.000151172
0.00014908
0.000148673
0.000151062
0.00013475
0.000115045
0.000161944
0.000289899
0.000540498
0.000679241
0.000710508
0.000685494
0.000705005
0.000668931
0.000683014
0.000642468
0.000657153
0.000613498
0.000631434
0.000582854
0.000603014
0.000551505
0.000569697
0.000520706
0.000537121
0.000476907
0.000507779
0.000464614
0.00035072
0.00045088
0.000435686
0.000178712
0.000322416
0.000147219
8.86995e-06
0.000127367
0.000106434
0.000123252
0.000132237
0.000133777
0.000130631
0.0001268
0.00012475
0.000124766
0.00012646
0.000130707
0.000136808
0.000142393
0.000151567
0.000161427
0.000165538
0.000174149
0.00020363
0.000291699
0.000344925
0.000338814
0.000297687
0.000233388
0.000187372
0.000163224
0.00015342
0.000149918
0.000149408
0.000151472
0.000146021
0.000122078
0.000149879
0.000280528
0.000579812
0.000747093
0.000718973
0.000734826
0.000696564
0.000707587
0.00067325
0.000691112
0.000656559
0.000680954
0.000631592
0.000672959
0.000600813
0.000647491
0.000558622
0.000601204
0.000522155
0.000551937
0.000495196
0.000508847
0.000483019
0.000419022
0.000471675
0.000461776
0.000293316
0.000402745
0.000265462
2.00095e-05
0.000231798
0.00023216
0.000127286
0.0001466
0.000153603
0.000150489
0.00014218
0.000134035
0.000129499
0.000128462
0.000131285
0.000136562
0.000141583
0.0001485
0.000160543
0.00016559
0.000170281
0.000190341
0.000256223
0.000337149
0.000347084
0.000325297
0.00025952
0.000203125
0.000171013
0.000156007
0.000150857
0.000150025
0.00015129
0.000155477
0.000131922
0.000145746
0.000255554
0.000576803
0.000776597
0.000739196
0.000747067
0.000719845
0.000729223
0.000708203
0.000724808
0.000714961
0.000748741
0.000723485
0.000771953
0.000713581
0.000766603
0.000673665
0.000743693
0.000608585
0.000698471
0.000542946
0.000614091
0.00049667
0.000531363
0.000484761
0.000453978
0.000474192
0.000466008
0.000390468
0.000449568
0.000386921
0.000178673
0.000370085
0.000455378
0.000136105
0.000175257
0.000191767
0.000189184
0.000175135
0.0001571
0.00014185
0.000133925
0.000133388
0.000136913
0.000141217
0.000146307
0.000159126
0.000166432
0.00016932
0.000181338
0.000222779
0.000324037
0.000353547
0.000341879
0.000286672
0.000224045
0.000180717
0.000160643
0.000152237
0.000150553
0.000151283
0.000155949
0.00014578
0.000146182
0.000224844
0.000557489
0.00081039
0.000755314
0.000762244
0.000763637
0.000769921
0.00073975
0.000754431
0.000780313
0.000809995
0.000805188
0.000829097
0.000797121
0.000817541
0.000777987
0.0007988
0.000752295
0.000778409
0.000705648
0.000751018
0.00061071
0.000701705
0.000517863
0.00059783
0.000501666
0.000461351
0.000484543
0.000468808
0.000453429
0.000462196
0.000477358
0.000506338
0.000366722
0.000533702
0.000134298
0.000186335
0.00021839
0.000234122
0.000228551
0.000201834
0.000172159
0.000147701
0.000138538
0.000138487
0.000141495
0.000145122
0.000156048
0.000168661
0.000169815
0.000177023
0.000204479
0.000299085
0.000358249
0.000352969
0.000315639
0.000247244
0.000195487
0.000166518
0.000154014
0.000150517
0.00015102
0.000155137
0.00015683
0.000148979
0.000199201
0.000506142
0.000826429
0.000769552
0.000784901
0.000776409
0.000779161
0.000866531
0.000875657
0.00083279
0.000852598
0.000847963
0.000867727
0.000832631
0.000843343
0.000803259
0.000793217
0.000778236
0.000750132
0.000765202
0.000734374
0.000743994
0.000742508
0.000689909
0.000731531
0.000577077
0.000671267
0.000551197
0.000457243
0.000522215
0.000492337
0.00047209
0.00045117
0.000490128
0.000359131
0.000381947
0.000476508
0.000143438
0.00020795
0.000245429
0.000261667
0.000260065
0.000223818
0.000178569
0.000151071
0.000142713
0.000142626
0.000145196
0.000152612
0.000169238
0.000172437
0.00017624
0.000194909
0.000265266
0.000350755
0.00036116
0.000341218
0.000274558
0.000212923
0.000175452
0.000157029
0.000151215
0.000150827
0.000153583
0.000157213
0.000152201
0.000176289
0.000432287
0.000838345
0.000778171
0.000780965
0.000777866
0.00088106
0.000879117
0.000925699
0.00094537
0.000887008
0.000906121
0.000852346
0.000861509
0.000774028
0.000755256
0.000696447
0.000640877
0.000663298
0.000583282
0.000681842
0.000583452
0.000717024
0.00063435
0.000714487
0.000696006
0.000646222
0.000693883
0.000615711
0.000464534
0.000579313
0.000540142
0.000444718
0.000437897
0.000440104
0.000109237
0.000461905
0.000424567
0.000134217
0.000203402
0.000257875
0.000282284
0.000279557
0.000231303
0.000178241
0.000151989
0.000145602
0.000145952
0.000151423
0.000168025
0.000176435
0.000177199
0.00018979
0.000235534
0.000337733
0.000368082
0.000356674
0.000301429
0.000235562
0.000186747
0.000162568
0.000152522
0.000150947
0.000152544
0.000157548
0.000155423
0.000159275
0.000363464
0.000835444
0.000795049
0.00084425
0.000818194
0.000871074
0.0008553
0.000964604
0.000981017
0.000928264
0.000961801
0.000878475
0.000899635
0.0007419
0.000742241
0.000596359
0.000566769
0.000534257
0.000508846
0.000517865
0.000490498
0.000528081
0.00048317
0.00060115
0.00049766
0.000677128
0.000581033
0.000632675
0.000604132
0.000585657
0.000497853
0.000545705
0.000530833
0.000411957
0.000453082
0.000414022
4.39043e-05
0.000473692
0.000395307
0.000130894
0.000186127
0.000261456
0.00029559
0.000290315
0.000229314
0.000174825
0.000152732
0.000148046
0.000151584
0.000165552
0.000179121
0.000180952
0.000188641
0.000216576
0.000316499
0.000372994
0.00036751
0.000329907
0.000259565
0.000203037
0.000169829
0.00015418
0.000150691
0.000151613
0.000156914
0.000157614
0.000150931
0.000303037
0.000789307
0.000822445
0.000844804
0.000971658
0.000956951
0.000991197
0.000989218
0.000995253
0.00102532
0.000836515
0.000895157
0.000759874
0.000789762
0.000550899
0.000549074
0.000490731
0.000475418
0.00047168
0.000455422
0.000457795
0.000437378
0.000460247
0.00043031
0.000478869
0.000440614
0.00056388
0.000466053
0.000546227
0.000517401
0.000520193
0.000532262
0.000486551
0.000435534
0.000560272
0.000421085
0.000467152
0.000506738
0.00043065
0.000143886
0.0004115
0.000441993
0.000129266
0.000169551
0.000264691
0.000307433
0.000292511
0.000219989
0.00016748
0.000153336
0.000152637
0.000163261
0.000181192
0.000184786
0.000189951
0.000209785
0.00029317
0.00037081
0.000375926
0.000354457
0.000286697
0.000222395
0.000179548
0.000157922
0.000151289
0.000151057
0.000155184
0.000158034
0.000149323
0.000254206
0.00070209
0.000859757
0.000817304
0.00105359
0.00101215
0.00107536
0.00107208
0.00105038
0.00106667
0.000956582
0.00101617
0.00068972
0.000773445
0.000573013
0.000619118
0.000462055
0.000451737
0.000442584
0.000432251
0.00042579
0.000419187
0.000421182
0.000424843
0.000413355
0.000415877
0.000425291
0.000402568
0.000456837
0.000413496
0.000481207
0.000447828
0.000481061
0.000513081
0.00041528
0.000434443
0.00054625
0.000443483
0.000487872
0.000412421
0.000398525
0.000460977
0.000443923
0.000477914
0.000492472
0.000529513
0.000463511
0.000455188
0.000390876
0.000522976
0.000445446
0.000452939
0.000427248
0.000365621
0.000335493
0.000388221
0.000126079
0.000166227
0.000278672
0.000324765
0.000284794
0.000197544
0.000162567
0.00015546
0.00016156
0.000182892
0.00018921
0.000193707
0.000208754
0.000272177
0.00036319
0.000384023
0.000371163
0.000313043
0.000245366
0.000193324
0.000165183
0.00015226
0.000151387
0.000153612
0.000157392
0.00015115
0.000215479
0.000557535
0.000878074
0.000806723
0.000963081
0.0009037
0.00115196
0.00114198
0.00113469
0.00114959
0.00106712
0.00110712
0.00086517
0.000951377
0.000550291
0.000648546
0.000450671
0.000481493
0.000424493
0.000416593
0.000412934
0.000405897
0.000427415
0.000427328
0.000429803
0.000437799
0.000412751
0.000427736
0.000399759
0.000397345
0.000401887
0.000407237
0.000423476
0.000402952
0.000388902
0.000385947
0.00038837
0.000387988
0.000452389
0.000411242
0.000418148
0.000431508
0.000459587
0.000496429
0.000460097
0.000442944
0.000419403
0.000420974
0.000450511
0.000488086
0.000512646
0.00049514
0.000442688
0.00042133
0.000645625
0.000575425
0.000303317
0.000447645
0.000461027
0.000347307
0.00023752
0.000124409
0.000174112
0.000311897
0.000334806
0.000255809
0.000181503
0.000162445
0.000162453
0.000182643
0.000194813
0.000198008
0.000210585
0.000258862
0.000354094
0.000392043
0.000382773
0.000340909
0.000270227
0.000211001
0.000174093
0.000154654
0.000152138
0.000153148
0.000156664
0.000154024
0.000183658
0.000408646
0.000884383
0.000815979
0.000906195
0.00111352
0.001085
0.00121153
0.00122237
0.00114807
0.00118653
0.00102918
0.0010951
0.000758904
0.00086472
0.000463695
0.000548699
0.000402917
0.000408486
0.000398706
0.000389985
0.000425401
0.000419166
0.000439139
0.000435942
0.000437606
0.000438948
0.000413058
0.000418461
0.000422785
0.000427073
0.000395634
0.00040067
0.000405311
0.000397969
0.000382519
0.000388016
0.00037972
0.000377537
0.000415052
0.000399827
0.000414294
0.000395481
0.00040622
0.000451234
0.000466707
0.000448825
0.000423221
0.000409536
0.000404352
0.000428672
0.000476393
0.000454042
0.000458752
0.000426219
0.000455719
0.000515648
0.000553234
0.000307199
0.00045234
0.000432105
0.000343228
0.000202292
0.000124486
0.00021384
0.000357227
0.000325974
0.00021898
0.000174635
0.000166111
0.000179615
0.000202617
0.000203976
0.000214367
0.000251035
0.000346548
0.000399515
0.000393814
0.000365348
0.000296553
0.000232064
0.000186129
0.000160497
0.000153539
0.000153584
0.000156616
0.00015694
0.000164719
0.000322182
0.000858395
0.000838921
0.000848628
0.00116186
0.00107528
0.0012158
0.00120064
0.00122898
0.00126095
0.001123
0.00118269
0.000963003
0.00104952
0.000659406
0.000773679
0.000414651
0.000453546
0.00037541
0.000372454
0.000410705
0.000392648
0.000427181
0.000421816
0.000436309
0.000430364
0.000429686
0.000431345
0.000431456
0.00043045
0.000409442
0.000413369
0.00041709
0.000420856
0.000392471
0.000395797
0.000398961
0.000377381
0.000369621
0.000383012
0.000372481
0.000370268
0.00039346
0.000393543
0.000389544
0.000373349
0.000384969
0.000432441
0.000442272
0.000430865
0.00040578
0.000389266
0.000389567
0.00041121
0.000445837
0.000432099
0.000433169
0.000444939
0.000477313
0.000162101
0.000322515
0.000398231
0.000442358
0.000418832
0.000395563
0.000236093
0.000128016
0.000298131
0.00037842
0.000291851
0.00019861
0.000175862
0.000178822
0.000209443
0.000212855
0.000219769
0.000248168
0.000341107
0.000406082
0.000405354
0.000386131
0.0003236
0.000255429
0.000202822
0.000170287
0.000157574
0.000154565
0.000157208
0.000159989
0.000159322
0.000270584
0.000768802
0.000859313
0.0008266
0.00106126
0.00126546
0.00126848
0.00127804
0.00127779
0.00121292
0.00126252
0.00107398
0.0011499
0.000884279
0.000985213
0.000506859
0.000598964
0.000328183
0.000329316
0.000361568
0.000346433
0.000412708
0.000389942
0.000423326
0.000416813
0.000429389
0.000427199
0.000420409
0.000424222
0.00042563
0.000426575
0.000426288
0.000402198
0.000405717
0.0004095
0.000413766
0.00038522
0.000387048
0.000389274
0.000362067
0.000360762
0.000373752
0.000361715
0.000361826
0.000371016
0.000387626
0.000369302
0.000356038
0.000387451
0.000416972
0.000425601
0.00041763
0.0003958
0.00038871
0.00038857
0.000403743
0.000426515
0.000431159
0.000420169
0.000480901
0.000475869
0.000126185
0.000329225
0.000329808
0.000439236
0.000418221
0.000336203
0.000265718
0.000138106
0.000380982
0.000373487
0.0002575
0.000196374
0.000185618
0.000213554
0.000225766
0.000227593
0.000248902
0.000339305
0.000412666
0.000420246
0.000403662
0.000349366
0.000281207
0.000222875
0.00018311
0.000166139
0.000158429
0.00015838
0.000162428
0.000162165
0.000243245
0.00066843
0.000875978
0.000818741
0.00092914
0.00130351
0.00124793
0.00132747
0.00132365
0.00129854
0.00131963
0.00117136
0.00123488
0.000978307
0.001093
0.000715946
0.000846479
0.000373998
0.000463651
0.000231932
0.000236784
0.000347606
0.000308897
0.000403986
0.000371587
0.000410824
0.000399452
0.000425287
0.000423558
0.000408857
0.000413865
0.000416878
0.000418359
0.000420148
0.000420047
0.000392064
0.00039554
0.000399493
0.000404522
0.000374197
0.000375042
0.00037669
0.000351508
0.000351295
0.000360791
0.000347322
0.000349945
0.000351834
0.000368779
0.000349519
0.000342922
0.000368485
0.000410235
0.00041526
0.000412833
0.000395269
0.000367973
0.00037119
0.000406096
0.000421478
0.000446435
0.000415669
0.000498156
0.000472099
0.000152669
0.00028165
0.000258768
0.000441069
0.000423307
0.000340253
0.000309356
0.000199327
0.000437481
0.000348807
0.000247673
0.00020596
0.00022453
0.000245022
0.000238842
0.000252808
0.000339184
0.000420493
0.000437314
0.000421018
0.000376888
0.000307699
0.000246638
0.000200304
0.000179145
0.000167491
0.000162725
0.000164392
0.000167216
0.000222142
0.000542138
0.000882063
0.000822481
0.000861089
0.00124841
0.00136485
0.00136352
0.0013519
0.00136636
0.00128611
0.00132477
0.00101356
0.00113433
0.000782179
0.000894221
0.000569989
0.000678067
0.000281051
0.000360104
0.000162706
0.000169301
0.000316306
0.000224248
0.000379709
0.000335514
0.000402068
0.000395592
0.000372265
0.000386767
0.000419593
0.000418069
0.000404906
0.000409741
0.000407239
0.000410046
0.000412193
0.000412996
0.000379357
0.000383045
0.000387491
0.000393109
0.000359991
0.000360193
0.000361412
0.000341223
0.000338662
0.000344753
0.000329804
0.000334411
0.00033545
0.000348315
0.000330034
0.000331752
0.000349146
0.000413876
0.000413641
0.000419355
0.000379235
0.000351347
0.00035328
0.00039884
0.000426741
0.000464391
0.000419803
0.000490817
0.000468076
0.000171303
0.000258621
0.000174292
0.000442065
0.000382974
0.00038299
0.000396462
0.00030962
0.000454363
0.000332722
0.000255854
0.00025362
0.000274859
0.000258298
0.000260633
0.000339163
0.000429487
0.000456755
0.000439813
0.000403518
0.000335837
0.000272532
0.000223203
0.000198233
0.000182064
0.000172055
0.00016896
0.000171079
0.000204106
0.000403014
0.00087001
0.000839167
0.000826834
0.00108031
0.00138957
0.00136107
0.0013919
0.00139833
0.00134081
0.00137175
0.00124507
0.0012986
0.00082343
0.000934269
0.000631018
0.00072191
0.000461016
0.000547388
0.0002096
0.000278056
0.000114284
0.000121492
0.000237864
0.000154928
0.000339225
0.000282442
0.000399464
0.000389165
0.000363828
0.000377909
0.00041342
0.000412652
0.000400806
0.000405236
0.000396333
0.000400254
0.000403634
0.000405623
0.000363815
0.000367731
0.000372965
0.00037978
0.000342966
0.000342309
0.000343223
0.000328167
0.00032239
0.000325902
0.000309651
0.000315742
0.000323148
0.00032853
0.000315919
0.000318529
0.000329886
0.000423756
0.000424173
0.000430571
0.000358913
0.000332894
0.000339157
0.000371108
0.00043816
0.000471151
0.00043311
0.000483482
0.000461116
0.000123489
0.000234829
0.000137945
0.00041078
0.000399693
0.000398853
0.000380986
0.000468811
0.000466286
0.000338756
0.000301075
0.000317043
0.000294351
0.000275875
0.000339954
0.000438752
0.000477381
0.00046112
0.000430156
0.000364401
0.000300609
0.000250498
0.000222516
0.000201207
0.000183991
0.000174868
0.000173746
0.00019743
0.000325878
0.000822357
0.000854838
0.000814853
0.000944592
0.00136477
0.00141537
0.00142292
0.00137987
0.00140426
0.00127533
0.00134407
0.00105121
0.00116267
0.000669848
0.000754666
0.000521899
0.000591701
0.000372217
0.000454326
0.00015577
0.00021223
0.000108226
0.000115471
0.000172079
0.00012979
0.000331614
0.000303478
0.000252997
0.000197885
0.000394647
0.00038623
0.000355907
0.000373501
0.000407233
0.000407574
0.000396908
0.000400931
0.000383784
0.000389128
0.00039398
0.000397625
0.000345865
0.000350118
0.000356426
0.000364332
0.000323237
0.000322599
0.000323983
0.000311531
0.000302953
0.000305003
0.000287421
0.000294562
0.000309674
0.00031126
0.000302031
0.000301881
0.000309951
0.000397021
0.000438744
0.000427588
0.000346193
0.000315519
0.000324305
0.000356804
0.000448199
0.000459119
0.000445103
0.000449003
0.000425347
0.000133063
0.000199803
0.000117066
0.000416686
0.000406106
0.000382872
0.000364573