/*--------------------------------*- C++ -*----------------------------------*\
  =========                 |
  \\      /  F ield         | OpenFOAM: The Open Source CFD Toolbox
   \\    /   O peration     | Website:  https://openfoam.org
    \\  /    A nd           | Version:  dev
     \\/     M anipulation  |
\*---------------------------------------------------------------------------*/
FoamFile
{
    version     2.0;
    format      ascii;
    class       volScalarField;
    location    "2500";
    object      CO2;
}
// * * * * * * * * * * * * * * * * * * * * * * * * * * * * * * * * * * * * * //

dimensions      [0 0 0 0 0 0 0];

internalField   nonuniform List<scalar> 
9978
(
3.82271e-27
1.4831e-26
6.23887e-27
2.38507e-26
3.54093e-26
9.64897e-27
3.96281e-26
6.29216e-26
4.12665e-26
2.89806e-27
5.18714e-26
1.08392e-25
9.78282e-26
3.35396e-26
3.45329e-27
6.1571e-26
1.53909e-25
1.81787e-25
9.71162e-26
2.03688e-26
1.4504e-27
4.253e-26
2.05284e-25
2.91114e-25
1.87659e-25
7.3675e-26
8.54448e-27
5.97245e-28
5.90693e-26
3.18133e-25
4.31165e-25
3.56433e-25
1.79496e-25
5.07583e-26
5.82226e-27
3.82258e-28
3.67301e-26
3.43831e-25
6.01848e-25
5.12063e-25
3.40434e-25
1.12895e-25
2.6899e-26
2.83363e-27
5.20863e-29
4.3515e-26
4.14562e-25
7.81224e-25
8.62407e-25
5.90283e-25
2.3409e-25
6.62904e-26
1.27661e-26
1.03869e-27
2.31753e-29
8.09682e-26
5.05673e-25
8.8793e-25
1.1519e-24
9.66885e-25
5.80742e-25
2.02586e-25
4.32906e-26
3.72248e-27
1.8173e-28
7.40242e-30
2.37062e-25
7.68242e-25
9.8114e-25
1.66165e-24
1.49319e-24
8.92997e-25
3.82975e-25
1.32792e-25
1.77736e-26
1.3166e-27
5.19462e-29
1.02142e-30
5.01846e-25
1.37969e-24
1.50841e-24
2.33023e-24
2.18907e-24
1.41796e-24
8.50166e-25
2.46474e-25
7.63441e-26
5.0775e-27
5.50263e-28
2.42329e-29
5.19678e-31
8.35687e-25
2.02981e-24
3.68157e-24
3.84637e-24
3.35484e-24
2.22002e-24
1.38363e-24
5.71584e-25
1.86701e-25
2.41133e-26
1.95504e-27
1.71736e-28
7.31506e-30
4.87061e-32
1.48099e-24
3.3455e-24
6.57938e-24
6.96199e-24
5.40215e-24
4.01672e-24
2.06298e-24
1.1008e-24
4.22672e-25
9.15959e-26
1.20876e-26
1.04791e-27
7.24147e-29
1.11799e-30
1.84782e-32
1.54937e-24
9.30235e-24
1.28832e-23
1.46959e-23
1.01372e-23
6.2804e-24
3.91413e-24
1.74992e-24
7.01018e-25
2.71007e-25
5.12576e-26
4.71708e-27
4.27918e-28
1.24648e-29
6.15439e-31
6.13559e-33
5.78342e-24
1.8131e-23
2.68557e-23
2.9004e-23
2.01396e-23
1.24255e-23
6.13312e-24
3.24599e-24
1.64376e-24
4.39304e-25
1.38723e-25
2.25787e-26
2.12921e-27
1.11344e-28
4.62002e-30
1.13282e-31
2.68575e-33
5.58835e-24
3.43654e-23
5.97759e-23
4.57511e-23
3.95826e-23
2.63858e-23
1.12308e-23
6.46671e-24
3.01639e-24
1.21192e-24
2.9631e-25
7.27457e-26
9.56461e-27
8.69831e-28
2.76959e-29
1.32238e-30
6.90791e-32
1.71156e-32
1.12319e-23
6.85428e-23
1.0327e-22
1.18134e-22
9.54953e-23
5.44347e-23
3.09867e-23
1.12587e-23
5.87346e-24
2.1801e-24
6.22576e-25
1.73068e-25
2.92662e-26
2.87319e-27
1.91855e-28
5.17407e-30
6.34077e-31
4.13012e-31
3.25674e-31
2.0471e-23
1.45754e-22
2.75434e-22
3.07582e-22
2.52161e-22
1.47791e-22
6.71665e-23
2.74994e-23
1.14089e-23
5.16562e-24
1.70165e-24
3.14727e-25
8.6516e-26
1.30018e-26
1.1764e-27
3.41905e-29
3.92228e-30
1.78014e-30
4.26116e-30
1.55763e-30
2.68337e-23
1.10923e-22
5.05448e-22
4.99599e-22
5.38626e-22
3.48503e-22
1.50967e-22
7.25219e-23
2.61584e-23
9.91231e-24
3.32595e-24
1.13521e-24
2.07454e-25
4.2551e-26
3.56916e-27
2.91474e-28
2.14966e-29
1.60242e-29
2.43155e-29
4.38816e-29
2.31029e-29
2.96337e-23
2.07084e-22
5.35202e-22
1.29795e-21
1.37079e-21
8.50661e-22
5.09114e-22
1.79026e-22
6.28344e-23
2.36231e-23
8.03197e-24
2.15518e-24
6.30295e-25
1.01252e-25
1.45929e-26
1.30094e-27
1.44431e-28
8.91166e-29
1.6975e-28
3.94236e-28
6.62878e-28
4.25307e-28
2.78361e-23
4.36453e-22
9.4331e-22
2.40631e-21
2.84169e-21
2.04979e-21
1.34844e-21
5.34308e-22
1.75874e-22
5.64214e-23
1.96514e-23
5.6312e-24
1.20007e-24
2.77189e-25
4.68239e-26
5.79798e-27
7.01128e-28
6.5798e-28
1.13139e-27
4.06017e-27
6.57075e-27
1.09799e-26
1.13018e-26
3.99798e-23
3.8532e-22
1.68268e-21
3.91485e-21
4.99664e-21
4.57667e-21
2.88513e-21
1.41657e-21
5.02112e-22
1.43169e-22
4.73188e-23
1.43146e-23
4.21376e-24
6.43778e-25
1.24923e-25
1.44402e-26
2.67935e-27
2.96374e-27
1.15022e-26
3.21771e-26
1.00587e-25
1.51989e-25
2.11017e-25
2.0186e-25
3.27322e-23
2.47259e-22
1.94655e-21
5.37856e-21
8.28138e-21
7.95886e-21
7.27059e-21
3.6257e-21
1.32452e-21
4.64417e-22
1.17206e-22
3.72816e-23
1.04112e-23
1.949e-24
2.66144e-25
6.1024e-26
7.73236e-27
1.07981e-26
6.90161e-26
3.37589e-25
1.30239e-24
3.71276e-24
4.4137e-24
6.06357e-24
3.30325e-24
7.77469e-23
3.0949e-22
1.3623e-21
6.50361e-21
1.35861e-20
1.32371e-20
1.31558e-20
8.08729e-21
3.58426e-21
1.28798e-21
3.73017e-22
7.95194e-23
2.53237e-23
6.15151e-24
1.1954e-24
1.35196e-25
2.86278e-26
4.35413e-26
2.9503e-25
2.59591e-24
1.50138e-23
6.18943e-23
1.12567e-22
1.38128e-22
1.35728e-22
1.02291e-22
1.34896e-22
3.97284e-22
1.56634e-21
7.63085e-21
1.42848e-20
3.00006e-20
2.2502e-20
1.40332e-20
8.81349e-21
3.43076e-21
1.16849e-21
2.75696e-22
6.25966e-23
1.20788e-23
2.98371e-24
6.4577e-25
8.27283e-26
1.46393e-25
1.30127e-24
1.59596e-23
1.25237e-22
7.33975e-22
2.41159e-21
3.7409e-21
3.72469e-21
3.1344e-21
1.70636e-21
1.7714e-22
8.00543e-22
2.69699e-21
6.48749e-21
1.80692e-20
4.2161e-20
4.81464e-20
2.85635e-20
1.85544e-20
7.34969e-21
3.07548e-21
9.39231e-22
2.01797e-22
4.80662e-23
1.05491e-23
1.77342e-24
2.17078e-25
4.2555e-25
5.22584e-24
7.27006e-23
8.3916e-22
6.86498e-21
2.96437e-20
8.04894e-20
8.04849e-20
7.44118e-20
6.16577e-20
2.66385e-20
3.25294e-22
2.21593e-21
5.67865e-21
1.20095e-20
3.04194e-20
5.74986e-20
6.55863e-20
7.79552e-20
4.33934e-20
2.14515e-20
7.50707e-21
2.61529e-21
6.55215e-22
1.36153e-22
2.72047e-23
4.21813e-24
8.64382e-25
1.40372e-24
1.81879e-23
2.80201e-22
3.94673e-21
4.79374e-20
3.16662e-19
1.04318e-18
2.03746e-18
1.80808e-18
1.68194e-18
1.00217e-18
3.81106e-19
1.23561e-21
3.883e-21
8.4018e-21
1.47389e-20
4.31647e-20
7.46209e-20
1.0219e-19
1.28625e-19
9.49802e-20
4.22295e-20
1.93659e-20
6.85843e-21
1.43125e-21
4.91324e-22
7.90858e-23
1.47449e-23
2.41318e-24
3.1504e-24
5.82718e-23
8.35069e-22
1.50221e-20
2.27114e-19
2.47623e-18
1.02152e-17
2.34139e-17
4.31386e-17
3.44498e-17
2.8093e-17
1.50285e-17
4.39541e-18
2.09575e-21
7.59847e-21
1.60789e-20
1.73575e-20
6.4358e-20
1.14471e-19
1.95341e-19
2.25263e-19
1.77646e-19
1.14516e-19
4.04025e-20
1.73157e-20
3.95753e-21
1.29437e-21
3.00165e-22
5.09395e-23
7.73907e-24
9.12499e-24
1.37404e-22
2.77256e-21
4.8365e-20
8.39766e-19
1.2703e-17
8.26621e-17
2.38187e-16
5.52532e-16
7.60683e-16
7.02225e-16
4.54946e-16
2.03074e-16
5.73507e-17
6.74345e-21
3.32095e-20
4.0437e-20
3.36323e-20
5.70181e-20
1.2556e-19
2.66144e-19
3.11253e-19
3.18318e-19
2.17227e-19
8.18452e-20
3.66517e-20
1.40607e-20
3.20098e-21
9.41382e-22
1.74211e-22
3.46364e-23
1.66385e-23
3.31132e-22
6.55787e-21
1.34403e-19
2.52002e-18
5.8744e-17
4.73793e-16
2.2773e-15
7.78735e-15
1.44092e-14
1.65563e-14
1.27765e-14
6.70616e-15
2.6799e-15
6.6924e-16
8.78373e-21
8.29404e-20
1.03054e-19
7.97242e-20
9.76115e-20
1.98093e-19
3.27429e-19
5.10569e-19
4.96134e-19
3.68673e-19
2.26231e-19
6.64023e-20
3.25847e-20
8.10968e-21
2.67953e-21
4.46531e-22
1.02966e-22
3.15132e-23
5.18757e-22
1.49671e-20
3.0624e-19
6.64087e-18
1.36539e-16
2.71115e-15
1.5461e-14
7.72145e-14
2.19999e-13
3.53197e-13
3.39902e-13
2.24782e-13
1.02055e-13
2.95203e-14
3.99567e-15
3.89548e-20
1.61573e-19
3.45061e-19
3.32677e-19
2.10088e-19
2.61373e-19
5.33594e-19
9.55628e-19
8.9122e-19
7.63766e-19
4.86038e-19
2.13772e-19
6.75658e-20
2.75992e-20
6.91113e-21
2.00837e-21
3.09806e-22
7.56596e-23
7.11257e-22
2.3597e-20
7.34391e-19
1.65947e-17
3.35725e-16
7.2546e-15
8.00019e-14
5.66719e-13
2.30203e-12
5.42797e-12
7.28208e-12
5.8557e-12
3.42047e-12
1.33295e-12
2.69026e-13
0
4.30086e-20
2.37504e-19
6.38088e-19
1.12034e-18
6.70193e-19
5.08627e-19
6.70942e-19
1.26785e-18
1.35084e-18
1.12181e-18
9.37606e-19
4.75605e-19
1.57788e-19
6.2936e-20
1.82539e-20
4.65018e-21
1.2306e-21
2.68583e-22
8.37966e-22
2.874e-20
1.11322e-18
3.45535e-17
8.57061e-16
1.79164e-14
2.83052e-13
2.92193e-12
1.68849e-11
5.64466e-11
1.11586e-10
1.26965e-10
8.70269e-11
4.81835e-11
1.5588e-11
2.57319e-13
3.0105e-12
3.84948e-14
1.6153e-12
8.49201e-13
1.88359e-19
8.53676e-19
1.74247e-18
2.89964e-18
2.17946e-18
2.11455e-18
1.57294e-18
1.97775e-18
2.19722e-18
2.22099e-18
1.66991e-18
8.39389e-19
4.17378e-19
1.40992e-19
4.95513e-20
1.41921e-20
3.5745e-21
8.14023e-22
1.03002e-21
3.22993e-20
1.25046e-18
4.71864e-17
1.60396e-15
4.68852e-14
7.732e-13
1.04426e-11
8.53342e-11
4.09544e-10
1.15848e-09
1.97444e-09
1.97635e-09
1.18292e-09
6.5855e-10
2.88976e-11
3.15466e-10
1.89719e-11
2.91909e-13
1.12315e-11
5.67195e-12
2.65287e-19
1.49857e-18
3.15149e-18
6.10286e-18
7.55102e-18
6.43964e-18
4.49411e-18
2.84598e-18
3.52537e-18
3.74277e-18
2.49261e-18
2.08617e-18
8.43196e-19
3.32919e-19
1.29762e-19
3.23571e-20
9.61591e-21
2.53981e-21
1.48781e-21
3.06586e-20
1.24671e-18
5.04937e-17
2.05643e-15
7.69629e-14
2.51735e-12
2.81661e-11
3.03622e-10
2.02347e-09
8.35779e-09
2.06454e-08
3.11712e-08
2.78249e-08
4.58322e-09
1.85748e-08
2.6612e-09
2.08048e-08
2.24591e-08
2.19621e-10
2.22667e-09
1.37164e-10
1.82376e-12
7.71776e-11
3.4706e-11
3.23011e-18
4.33701e-18
6.85009e-18
9.03534e-18
1.73514e-17
1.22389e-17
1.26839e-17
7.54813e-18
6.13717e-18
5.60138e-18
4.95472e-18
3.20955e-18
1.97934e-18
8.26093e-19
3.03384e-19
8.80536e-20
2.73052e-20
7.2102e-21
2.74311e-21
2.8385e-20
1.1621e-18
4.93591e-17
2.02537e-15
8.4026e-14
3.57709e-12
7.64064e-11
7.88421e-10
7.19841e-09
4.03061e-08
1.4679e-07
3.19818e-07
4.31267e-07
9.03872e-08
4.40843e-07
1.24181e-07
1.98454e-08
1.47645e-07
1.50581e-07
1.52429e-09
1.52001e-08
9.14779e-10
9.68752e-12
4.65351e-10
1.81187e-10
2.78305e-17
2.54367e-17
1.32383e-17
1.45653e-17
3.27722e-17
3.77476e-17
3.11066e-17
2.09292e-17
1.38893e-17
1.07514e-17
8.99054e-18
6.23613e-18
3.43397e-18
1.50775e-18
6.35826e-19
2.33059e-19
6.68702e-20
1.71463e-20
5.44655e-21
2.87792e-20
9.34288e-19
4.21426e-17
1.79482e-15
7.77584e-14
3.29892e-12
1.36166e-10
2.04605e-09
1.82515e-08
1.43137e-07
6.74855e-07
2.15501e-06
4.1351e-06
1.73556e-06
6.08113e-06
6.51235e-07
2.8529e-06
8.39647e-07
1.30912e-07
9.58941e-07
9.46687e-07
9.94262e-09
9.70517e-08
5.52969e-09
3.96602e-11
2.4392e-09
7.66324e-10
3.16397e-16
2.23092e-16
1.17751e-16
6.03067e-17
4.58516e-17
6.24292e-17
6.66283e-17
6.13949e-17
2.965e-17
1.94974e-17
1.42367e-17
1.07102e-17
7.4845e-18
3.86731e-18
1.308e-18
5.41846e-19
1.68424e-19
5.04077e-20
1.55881e-20
3.26949e-20
7.75875e-19
3.17337e-17
1.43161e-15
6.37404e-14
2.74362e-12
1.22987e-10
4.2127e-09
4.74367e-08
3.51579e-07
2.32328e-06
8.97516e-06
2.44588e-05
1.75829e-05
4.57076e-05
1.02982e-05
3.12716e-05
4.02348e-06
1.54083e-05
4.96937e-06
8.07311e-07
5.46401e-06
5.27577e-06
6.01393e-08
5.79115e-07
3.03202e-08
9.98392e-11
1.12563e-08
2.72385e-09
3.13937e-15
3.22076e-15
1.3402e-15
5.38101e-16
2.01412e-16
1.67723e-16
1.25841e-16
1.30854e-16
8.38407e-17
5.52409e-17
3.23719e-17
2.45883e-17
1.15308e-17
6.9538e-18
3.56937e-18
1.2314e-18
4.27994e-19
1.23472e-19
3.7938e-20
4.64991e-20
6.69038e-19
2.39451e-17
1.03174e-15
4.69472e-14
2.06049e-12
8.69326e-11
3.52751e-09
7.16259e-08
8.89044e-07
5.25274e-06
2.74109e-05
8.58736e-05
0.000100186
0.000204253
8.13278e-05
0.000183823
4.83756e-05
0.000128775
2.0464e-05
6.76146e-05
2.42514e-05
4.42544e-06
2.58534e-05
2.45033e-05
3.40822e-07
3.13369e-06
1.55981e-07
3.02015e-10
5.18853e-08
1.10909e-08
3.98193e-14
5.04389e-14
2.23739e-14
6.55576e-15
1.44534e-15
4.4923e-16
2.96036e-16
2.91883e-16
2.25771e-16
1.27877e-16
7.24544e-17
4.39013e-17
2.92733e-17
1.20358e-17
6.57299e-18
2.91986e-18
9.56367e-19
3.08857e-19
8.64683e-20
6.7516e-20
6.7073e-19
1.72765e-17
7.23102e-16
3.25041e-14
1.46766e-12
5.99641e-11
2.42279e-09
7.37359e-08
1.31218e-06
1.21796e-05
5.54032e-05
0.000213418
0.000328206
0.000506944
0.000348051
0.000560012
0.000289135
0.000528187
0.000184219
0.000411111
8.55955e-05
0.000240961
9.79823e-05
2.04467e-05
0.000101969
9.60256e-05
1.82361e-06
1.45502e-05
8.18008e-07
1.28952e-09
2.5565e-07
5.80689e-08
5.13762e-13
7.74232e-13
3.78529e-13
1.1667e-13
2.50847e-14
4.6563e-15
1.1615e-15
6.09085e-16
4.99554e-16
3.23849e-16
2.22179e-16
9.46345e-17
5.68685e-17
2.97103e-17
1.15775e-17
5.52879e-18
2.12168e-18
6.12738e-19
2.11068e-19
1.35378e-19
8.2439e-19
1.32988e-17
4.61779e-16
2.12282e-14
1.00602e-12
4.13896e-11
1.54398e-09
6.19116e-08
1.40651e-06
1.62688e-05
0.000107593
0.000371318
0.000668644
0.000868945
0.000802764
0.00105024
0.000815181
0.00112552
0.000722189
0.00107796
0.000533355
0.000909618
0.000288002
0.000640596
0.000316345
8.0474e-05
0.000321786
0.000303002
8.64983e-06
5.8269e-05
4.0747e-06
7.80319e-09
1.42809e-06
3.54434e-07
5.49264e-12
9.90212e-12
5.94655e-12
1.98568e-12
4.57657e-13
7.93081e-14
1.15002e-14
2.59665e-15
1.05131e-15
7.11246e-16
4.45126e-16
2.77952e-16
1.17117e-16
6.29718e-17
2.43477e-17
1.10532e-17
4.40005e-18
1.68408e-18
5.18506e-19
2.89362e-19
1.24265e-18
1.36897e-17
3.39403e-16
1.31964e-14
6.50316e-13
2.83628e-11
1.02994e-09
3.67429e-08
1.24134e-06
1.86784e-05
0.000130512
0.000555293
0.0010212
0.00119295
0.00129216
0.00151492
0.00143708
0.00173009
0.00144685
0.00181219
0.0013226
0.00174895
0.00107189
0.00153604
0.00071652
0.00119707
0.000756925
0.000260047
0.00075765
0.00071655
3.63051e-05
0.000198922
1.91813e-05
6.21435e-08
7.13702e-06
2.41841e-06
4.76845e-11
1.01707e-10
7.65814e-11
3.13438e-11
7.94632e-12
1.5054e-12
2.18238e-13
3.00919e-14
4.91379e-15
1.96613e-15
1.26585e-15
6.64712e-16
3.40601e-16
1.58548e-16
6.31277e-17
2.26026e-17
8.34645e-18
3.2946e-18
1.21912e-18
6.30328e-19
1.94337e-18
1.85285e-17
2.75413e-16
7.97028e-15
3.96206e-13
1.84673e-11
7.11207e-10
2.36813e-08
8.25649e-07
1.73986e-05
0.000152885
0.000633004
0.00130982
0.0014331
0.00170746
0.00187436
0.00200103
0.00223137
0.00216321
0.0024517
0.00216482
0.0025378
0.00200994
0.00247625
0.0017083
0.0022257
0.00127652
0.00183267
0.00131113
0.000633388
0.00130085
0.00124618
0.000132275
0.000514628
7.44297e-05
6.68638e-07
3.6716e-05
1.68142e-05
3.25991e-10
8.1882e-10
7.59975e-10
4.10972e-10
1.22696e-10
2.51233e-11
4.14916e-12
6.26045e-13
6.51759e-14
9.70268e-15
3.3066e-15
2.0208e-15
9.48583e-16
4.14883e-16
1.53147e-16
5.47268e-17
1.74338e-17
6.93005e-18
2.38543e-18
1.31168e-18
3.28713e-18
2.69286e-17
2.58007e-16
5.48748e-15
2.33195e-13
1.12683e-11
4.73735e-10
1.63564e-08
5.29218e-07
1.37827e-05
0.000147744
0.000714665
0.00151967
0.00149835
0.00200779
0.00211973
0.00240443
0.00251752
0.00263963
0.00272573
0.00276345
0.00285019
0.00281478
0.0029416
0.00272282
0.00298985
0.00239569
0.00291102
0.00190379
0.00250883
0.00192552
0.00114556
0.0019002
0.00182889
0.000376551
0.00100907
0.000252396
3.2014e-06
0.000157947
7.76734e-05
1.67259e-09
4.93849e-09
5.60599e-09
3.92922e-09
1.64031e-09
3.93087e-10
7.21047e-11
1.24832e-11
1.12672e-12
9.69463e-14
1.55652e-14
6.36105e-15
3.55045e-15
1.29766e-15
3.65146e-16
1.37883e-16
4.12711e-17
1.24332e-17
5.12455e-18
2.40031e-18
6.53172e-18
3.3969e-17
3.5068e-16
4.70569e-15
1.42428e-13
6.56229e-12
2.93807e-10
1.10607e-08
3.65246e-07
9.37658e-06
0.000134206
0.000704754
0.00193296
0.00217087
0.00230812
0.00257796
0.00261275
0.00275716
0.00275313
0.00285508
0.00283197
0.00294739
0.00290375
0.00304447
0.00300202
0.00312
0.00312256
0.0030433
0.00322365
0.00256271
0.00313554
0.00256898
0.00171611
0.00252908
0.00244619
0.000842511
0.00157639
0.000676211
1.73118e-05
0.00048236
0.000305427
5.91073e-09
2.09126e-08
2.8916e-08
2.62106e-08
1.5053e-08
5.15417e-09
1.12314e-09
2.21675e-10
1.92841e-11
1.50143e-12
1.38783e-13
2.87294e-14
1.55481e-14
5.18979e-15
1.41936e-15
3.33873e-16
1.07818e-16
2.97693e-17
9.75864e-18
4.81019e-18
9.68206e-18
6.37756e-17
5.10067e-16
4.65418e-15
1.01124e-13
3.85115e-12
1.72232e-10
6.94222e-09
2.47341e-07
6.41942e-06
0.00010718
0.000665516
0.00188935
0.00262957
0.00261839
0.00262269
0.002637
0.00274367
0.00272628
0.00278098
0.0027036
0.00279845
0.0026212
0.00286409
0.00260678
0.0030136
0.00273519
0.00318784
0.00298694
0.00331455
0.00325253
0.00318338
0.003401
0.00318399
0.00233141
0.00314338
0.00306128
0.00143284
0.00220889
0.00129962
0.000251858
0.00112999
0.00116848
1.26422e-08
5.37057e-08
9.54453e-08
1.14581e-07
9.05756e-08
4.5985e-08
1.39464e-08
3.04476e-09
3.04909e-10
2.49605e-11
2.04803e-12
2.30725e-13
7.13356e-14
2.37438e-14
5.31626e-15
1.34225e-15
2.61141e-16
7.35212e-17
2.26991e-17
1.14497e-17
2.29346e-17
9.99712e-17
7.20262e-16
5.67415e-15
9.21907e-14
2.43245e-12
1.00205e-10
4.09864e-09
1.53841e-07
4.13315e-06
7.74011e-05
0.000581087
0.00177924
0.00260471
0.00258509
0.00268537
0.00268599
0.00270611
0.00269213
0.00261444
0.00252994
0.00242703
0.00224852
0.00230319
0.00200322
0.00233417
0.00192565
0.00256898
0.00206214
0.00295858
0.00242279
0.00332509
0.00295721
0.0034778
0.00341384
0.00353704
0.00296069
0.00356611
0.00355893
0.00210772
0.00287412
0.00209178
0.00153551
0.00228886
0.00289561
1.16123e-08
8.13831e-08
1.81628e-07
2.65521e-07
3.15845e-07
2.48876e-07
1.23194e-07
3.53064e-08
4.35394e-09
4.19139e-10
3.58892e-11
3.32626e-12
5.18375e-13
1.09505e-13
2.45528e-14
4.80172e-15
9.03176e-16
2.1702e-16
5.10455e-17
2.14274e-17
4.26386e-17
2.04556e-16
1.26698e-15
8.88666e-15
1.01897e-13
1.88791e-12
5.81422e-11
2.40066e-09
8.66911e-08
2.60928e-06
5.10115e-05
0.000460277
0.0015825
0.00255378
0.00244707
0.00268952
0.00269795
0.0024243
0.00243459
0.00246652
0.00242958
0.00209338
0.0019798
0.00176826
0.00160364
0.00160753
0.00144263
0.0016163
0.00137973
0.00184499
0.00141677
0.00233713
0.00170752
0.00300325
0.00232441
0.00351582
0.00310456
0.00361631
0.00352144
0.00370067
0.00376291
0.00285573
0.0034959
0.00305223
0.00129857
0.00349055
0.00293511
4.04619e-08
2.2782e-07
4.09e-07
5.906e-07
6.52241e-07
5.94956e-07
2.77046e-07
4.1537e-08
4.4941e-09
4.1841e-10
3.6077e-11
3.99609e-12
5.58937e-13
1.13956e-13
2.2687e-14
3.82335e-15
7.5957e-16
1.64843e-16
5.01938e-17
6.93455e-17
3.7032e-16
2.06967e-15
1.65527e-14
1.46715e-13
1.87485e-12
3.86771e-11
1.33427e-09
5.12579e-08
1.56794e-06
3.07239e-05
0.00033833
0.00134696
0.00255791
0.00270949
0.00274724
0.00246137
0.00251002
0.00191198
0.00194597
0.00191757
0.00190094
0.00149985
0.00143482
0.001365
0.00132082
0.00130377
0.00129221
0.0012582
0.00124379
0.00130482
0.0011965
0.00164598
0.00124856
0.00238992
0.00165494
0.00325005
0.00253518
0.00341617
0.003809
0.00357898
0.00371537
0.00357525
0.00386126
0.00379234
0.000120085
0.00375645
0.00162519
5.05792e-08
3.58352e-07
7.57843e-07
1.16242e-06
1.32615e-06
1.18938e-06
3.14919e-07
4.11035e-08
4.04355e-09
3.27253e-10
2.86792e-11
3.36102e-12
5.44173e-13
1.05677e-13
1.77421e-14
2.23904e-15
4.40807e-16
1.11638e-16
1.48413e-16
7.03671e-16
3.62623e-15
2.73883e-14
2.54604e-13
2.32929e-12
3.34271e-11
7.9502e-10
2.8461e-08
9.49966e-07
1.71499e-05
0.000229641
0.00108405
0.00241114
0.00268436
0.00272241
0.00256257
0.00263938
0.00201282
0.0020993
0.00143063
0.00148991
0.00139789
0.001403
0.00128324
0.0012378
0.00129972
0.00130096
0.00131138
0.00143965
0.00124587
0.00146158
0.00116777
0.00130991
0.00123288
0.00116482
0.00173204
0.00124883
0.00273561
0.00187588
0.00296104
0.00381496
0.00318928
0.0033884
0.00393973
0.00389378
0.00397809
5.79309e-05
0.00355474
0.00125637
5.49719e-08
4.93698e-07
1.29368e-06
1.95748e-06
2.29952e-06
1.45777e-06
3.04521e-07
3.96596e-08
3.23129e-09
2.48529e-10
2.22303e-11
2.88252e-12
4.87834e-13
8.22244e-14
9.94367e-15
1.52956e-15
2.6584e-16
3.37116e-16
1.32545e-15
6.63434e-15
4.70015e-14
4.18563e-13
3.68727e-12
3.62458e-11
5.70546e-10
1.60971e-08
5.64474e-07
9.24569e-06
0.000145214
0.000812642
0.00214274
0.00272132
0.00243555
0.00254483
0.002202
0.00231938
0.00158082
0.00169488
0.0011405
0.00118512
0.00118048
0.00113889
0.00127787
0.00121926
0.00154874
0.00158713
0.00176792
0.0020371
0.00169995
0.00217805
0.00140414
0.00195355
0.00117777
0.00149042
0.0012905
0.00119302
0.0020756
0.00136237
0.00236129
0.00353863
0.00259798
0.00276964
0.00317449
0.00394532
0.00379475
0.00359582
0.00391988
0.000232369
0.00344909
0.00234006
5.89252e-08
6.06594e-07
1.94885e-06
3.00531e-06
3.25102e-06
1.3906e-06
2.66266e-07
3.30252e-08
2.20029e-09
1.86986e-10
1.68579e-11
2.39656e-12
3.68142e-13
4.67047e-14
5.13697e-15
7.93114e-16
7.0308e-16
3.13974e-15
1.57663e-14
8.97714e-14
7.45178e-13
6.20968e-12
5.03574e-11
5.57345e-10
9.42463e-09
3.16273e-07
6.8482e-06
8.63408e-05
0.000571992
0.00180722
0.0027184
0.00242057
0.00255541
0.00212368
0.00227625
0.00182834
0.00197465
0.00128308
0.0014109
0.00098011
0.00100979
0.00112625
0.00101166
0.00153019
0.00137151
0.0021725
0.00216797
0.00259374
0.0028409
0.00257944
0.00310283
0.00217352
0.00292942
0.00154406
0.00234881
0.00121782
0.00155413
0.00147984
0.00121425
0.00126215
0.00208105
0.00164444
0.0028653
0.00332264
0.0029817
0.00230321
0.00186939
0.00170893
0.00243298
0.00383499
0.00365268
0.00361278
0.003372
0.00367757
0.00378906
0.00372562
0.00250391
0.00349118
0.00371162
0.00371727
0.00362486
0.00303584
0.00354539
6.07222e-08
7.01928e-07
2.77749e-06
4.17527e-06
3.54583e-06
1.16679e-06
1.82216e-07
2.05091e-08
1.38178e-09
1.26674e-10
1.38356e-11
1.74926e-12
2.12201e-13
2.22946e-14
2.72794e-15
1.47014e-15
5.88827e-15
3.59456e-14
1.92805e-13
1.45347e-12
1.14002e-11
8.51714e-11
6.70225e-10
8.2304e-09
1.45651e-07
3.51863e-06
4.79496e-05
0.000389071
0.00143976
0.00264855
0.00264475
0.00272396
0.00220664
0.00236188
0.00188151
0.00204592
0.00155917
0.00171846
0.0011049
0.00124478
0.00086064
0.00088392
0.00114414
0.00093962
0.00200081
0.00166253
0.002906
0.00279062
0.00343021
0.00354312
0.00354089
0.00391508
0.00321827
0.00390328
0.00198527
0.00247699
0.00292741
0.00339528
0.0012997
0.00156505
0.002518
0.00247511
0.00197347
0.00119664
0.00130966
0.00121959
0.00126748
0.00136484
0.00255437
0.00306446
0.00268184
0.00197872
0.00154616
0.00142782
0.00211414
0.00345958
0.00341327
0.00313201
0.00351457
0.00358761
0.0028569
0.00362295
0.00386646
0.00370614
0.00365517
0.00373393
0.00380249
6.43542e-08
9.32366e-07
3.77276e-06
5.11076e-06
3.41247e-06
8.55005e-07
1.0939e-07
9.78757e-09
6.68241e-10
6.79472e-11
1.07357e-11
9.58823e-13
9.98827e-14
9.38201e-15
3.58073e-15
1.38613e-14
9.0668e-14
5.65271e-13
3.16227e-12
2.32148e-11
1.62755e-10
1.06522e-09
8.6499e-09
1.22952e-07
1.91785e-06
2.58777e-05
0.000254119
0.0010947
0.00244912
0.00279796
0.00250548
0.00263155
0.00206721
0.002224
0.00174022
0.00190587
0.00140457
0.00157193
0.000984905
0.0011432
0.000740231
0.000755397
0.00123008
0.00087347
0.00243742
0.00189073
0.00342803
0.00307102
0.00403282
0.00391206
0.00431834
0.0044361
0.00375052
0.00411776
0.00433091
0.00455309
0.00297846
0.00344559
0.00385644
0.00150722
0.00192424
0.00299553
0.00298139
0.00243942
0.00123306
0.0012212
0.00122771
0.00144735
0.00124146
0.00224932
0.00278776
0.00238162
0.001674
0.0012766
0.00133507
0.00181227
0.00319096
0.00325162
0.00287423
0.00332568
0.0034194
0.00118215
0.00297016
0.0038879
0.00352583
0.00362473
0.00370068
0.00385615
8.59621e-08
1.51743e-06
4.82435e-06
5.39478e-06
2.94152e-06
5.48773e-07
5.96425e-08
4.67908e-09
3.25901e-10
3.39911e-11
4.72837e-12
4.32531e-13
4.10037e-14
8.91731e-15
3.78903e-14
2.28507e-13
1.57939e-12
7.70056e-12
5.27505e-11
3.50152e-10
2.06649e-09
1.20307e-08
1.00973e-07
9.03855e-07
1.17859e-05
0.000158961
0.000806752
0.00208774
0.00280526
0.00265457
0.00275725
0.00237282
0.00251291
0.00200065
0.0021518
0.0016745
0.00184167
0.00132036
0.00149998
0.000873238
0.00105608
0.000618547
0.000613924
0.00126046
0.000778739
0.00256052
0.00191905
0.00355742
0.00307616
0.00431164
0.00396959
0.00463551
0.00469537
0.00467328
0.00459645
0.00419757
0.00446574
0.00466042
0.00478237
0.00348465
0.00391909
0.00428183
0.00185693
0.00238147
0.00349718
0.0034876
0.0029445
0.00138841
0.00121718
0.00134267
0.00177416
0.00121809
0.00194855
0.00250044
0.00208542
0.00142292
0.00123278
0.00125311
0.00153757
0.00294899
0.00302492
0.0026025
0.00311544
0.00322432
0.000357012
0.00377747
0.00246675
0.00334804
0.00346803
0.00359385
0.00384709
1.51884e-07
2.4764e-06
5.57638e-06
5.24784e-06
1.97266e-06
2.97244e-07
2.80189e-08
2.09973e-09
1.42875e-10
2.02961e-11
1.84361e-12
1.71541e-13
2.3774e-14
7.39933e-14
6.84424e-13
3.89207e-12
2.0888e-11
1.33189e-10
8.40755e-10
4.69231e-09
2.22876e-08
1.18598e-07
8.26411e-07
7.98096e-06
9.55027e-05
0.000561409
0.0016988
0.00274217
0.00284921
0.0025658
0.00268142
0.00229511
0.00243236
0.00197414
0.00212105
0.00164237
0.00181501
0.00125767
0.00145595
0.000741405
0.000948052
0.000487512
0.000472067
0.00120123
0.000659712
0.00247969
0.00177368
0.00345924
0.00283125
0.00446614
0.00424545
0.00382315
0.00483687
0.00483457
0.00477219
0.0046506
0.00456579
0.00477213
0.00490518
0.00496742
0.00395858
0.00434413
0.00464662
0.0023006
0.00288176
0.00397355
0.00396649
0.00345075
0.00167801
0.0012965
0.00158163
0.00219929
0.00126087
0.00167267
0.00221364
0.00180802
0.00128554
0.00124521
0.00122955
0.00133935
0.00269471
0.00279013
0.00233019
0.00289757
0.00302153
0.000315323
0.00371852
0.0023821
0.00316423
0.00332909
0.00354385
0.00385079
3.08017e-07
3.539e-06
5.75978e-06
4.54145e-06
1.12029e-06
1.35428e-07
1.18032e-08
8.41695e-10
5.73813e-11
7.29395e-12
6.77745e-13
7.11739e-14
1.40972e-13
1.24814e-12
1.02861e-11
6.82824e-11
3.69162e-10
2.21355e-09
1.21115e-08
5.17415e-08
1.91923e-07
8.56054e-07
4.94442e-06
5.53485e-05
0.00038406
0.00134532
0.00255685
0.0029304
0.00274731
0.00283684
0.00251128
0.00262605
0.00225785
0.00238727
0.00195295
0.0021004
0.00160352
0.00178799
0.00117711
0.00139904
0.000584381
0.000801585
0.000353011
0.000332905
0.0010246
0.000513486
0.00215406
0.00144291
0.00310703
0.00235205
0.00446546
0.00423472
0.00337235
0.00381694
0.0049719
0.00493418
0.00482281
0.00465819
0.00486654
0.0050105
0.00508342
0.0050961
0.0043851
0.0047086
0.00494431
0.0027931
0.0033874
0.0044036
0.00440065
0.00393252
0.00207837
0.00148276
0.00194431
0.00268095
0.00139396
0.00143722
0.0019433
0.00156858
0.00123125
0.00131561
0.00125136
0.00123978
0.00244309
0.00256059
0.00207536
0.00268721
0.00283295
0.000524018
0.00373567
0.00283316
0.00300856
0.00323337
0.00354976
0.00387639
6.73548e-07
4.36727e-06
5.45549e-06
2.9865e-06
5.06903e-07
5.46016e-08
4.45186e-09
2.92989e-10
3.12582e-11
2.51752e-12
2.33141e-13
2.52479e-13
2.48919e-12
2.15839e-11
1.94088e-10
1.04371e-09
6.35863e-09
3.38312e-08
1.40922e-07
4.57216e-07
1.07918e-06
3.5224e-06
2.99326e-05
0.000255003
0.00103124
0.00223963
0.00291567
0.00292392
0.00268963
0.00278362
0.00247382
0.00258282
0.00223405
0.0023577
0.00190454
0.00206068
0.00151921
0.00172472
0.00104768
0.00129082
0.000413049
0.000613125
0.000219787
0.000199792
0.000752021
0.000346463
0.00167667
0.00102786
0.00301635
0.00252577
0.00172626
0.0022015
0.00443922
0.00415229
0.00323852
0.00366406
0.00507081
0.00498626
0.0048399
0.00464406
0.00510008
0.00518568
0.00520728
0.00519276
0.00475136
0.00500572
0.00517497
0.00329863
0.00387356
0.0047741
0.00477752
0.00437307
0.00254343
0.00179601
0.00238203
0.00318428
0.00163046
0.00128588
0.00170796
0.00138468
0.00120725
0.00145766
0.00131888
0.00120279
0.00220891
0.00234914
0.00185383
0.00249962
0.00267642
0.000996613
0.00386147
0.0034519
0.00289825
0.00319199
0.00357931
0.00392074
1.48402e-06
4.55666e-06
4.25072e-06
1.49012e-06
2.02289e-07
1.98241e-08
1.46689e-09
9.23956e-11
9.77277e-12
8.01811e-13
4.42862e-13
4.17162e-12
4.74579e-11
3.81784e-10
2.70434e-09
1.90289e-08
9.70739e-08
4.64856e-07
1.04051e-06
1.62841e-06
3.67578e-06
1.76789e-05
0.000159543
0.000763872
0.00189911
0.00283977
0.00300884
0.00281948
0.00289257
0.00263294
0.00272359
0.00243215
0.00253537
0.00219772
0.00232046
0.00179365
0.00197121
0.00135692
0.00158836
0.000856102
0.00110784
0.000244202
0.000394783
0.000105952
9.10157e-05
0.000467408
0.000192608
0.00118669
0.000648421
0.00278097
0.00234645
0.00161789
0.00194913
0.00437961
0.00405115
0.00306937
0.00352669
0.00512833
0.00500889
0.00483476
0.00460377
0.00527238
0.00530447
0.00529923
0.00525177
0.0050504
0.00523554
0.00534471
0.00379007
0.00432238
0.00507766
0.00508811
0.00475909
0.00304063
0.00218404
0.00285885
0.00368149
0.00193828
0.00121142
0.00152591
0.00126965
0.00123098
0.00167876
0.00145097
0.00118483
0.00200654
0.00216905
0.00167708
0.00234802
0.002563
0.00289941
0.00399855
0.00400016
0.00283654
0.00319443
0.00362085
0.00397786
2.76742e-06
4.06089e-06
2.4729e-06
6.16564e-07
7.24698e-08
6.35671e-09
4.189e-10
4.15225e-11
2.95299e-12
8.0036e-13
6.3616e-12
7.4694e-11
7.57103e-10
6.70408e-09
4.93274e-08
3.20792e-07
1.24754e-06
2.24496e-06
3.27882e-06
5.07761e-06
1.53998e-05
9.81999e-05
0.00053535
0.00157396
0.00266102
0.00302272
0.00295205
0.00273126
0.00280295
0.00256176
0.00264772
0.00236773
0.00246905
0.00212333
0.00225403
0.00159201
0.00179987
0.00110501
0.00135734
0.000610289
0.000850324
0.000106568
0.000185653
5.83737e-05
4.50392e-05
0.000264186
0.000111177
0.00108778
0.000776048
0.000604182
0.000367967
0.002597
0.00213688
0.00137205
0.00172242
0.00430675
0.00394561
0.00291049
0.00338904
0.00515595
0.0050113
0.00481552
0.00455172
0.00538732
0.00539036
0.0053566
0.00528149
0.00528145
0.00540334
0.00545584
0.00424932
0.00472009
0.00531261
0.00532923
0.00508044
0.0035397
0.00260813
0.00334649
0.00415194
0.00228853
0.0011842
0.00139624
0.00121989
0.00128379
0.00193757
0.00162284
0.00120001
0.00184619
0.00203028
0.00155442
0.00223998
0.00249621
0.00227693
0.00413225
0.00393567
0.00282223
0.00321899
0.00367086
0.00402876
3.23281e-06
2.74438e-06
1.20018e-06
2.19276e-07
2.3044e-08
1.77408e-09
1.18334e-10
1.13888e-11
1.5328e-12
8.59915e-12
1.15265e-10
1.38872e-09
1.39823e-08
1.08221e-07
8.06303e-07
2.91535e-06
5.61913e-06
8.54297e-06
1.06575e-05
1.75985e-05
7.10303e-05
0.000374974
0.00128177
0.00240119
0.00299829
0.00301326
0.00277422
0.00284524
0.00262581
0.00269734
0.00246374
0.00254814
0.00225947
0.0023688
0.00197925
0.00213107
0.00128958
0.00152633
0.000782367
0.00103562
0.000342979
0.000548087
4.63777e-05
7.1681e-05
4.69069e-05
2.90325e-05
0.000263408
0.000151487
9.21865e-05
0.000929043
0.000701136
0.000513773
0.000362143
0.00242656
0.00196743
0.00121485
0.00155945
0.0042263
0.00383577
0.00276404
0.00326176
0.0051642
0.00500163
0.00478178
0.00449884
0.0054641
0.00544886
0.00538518