/*--------------------------------*- C++ -*----------------------------------*\
  =========                 |
  \\      /  F ield         | OpenFOAM: The Open Source CFD Toolbox
   \\    /   O peration     | Website:  https://openfoam.org
    \\  /    A nd           | Version:  dev
     \\/     M anipulation  |
\*---------------------------------------------------------------------------*/
FoamFile
{
    version     2.0;
    format      ascii;
    class       volScalarField;
    location    "2500";
    object      G;
}
// * * * * * * * * * * * * * * * * * * * * * * * * * * * * * * * * * * * * * //

dimensions      [1 0 -3 0 0 0 0];

internalField   nonuniform List<scalar> 
9978
(
4108.68
4114.75
4116.17
4120.1
4122.27
4124.49
4124.71
4127.64
4130.6
4133.58
4128.59
4132.27
4135.97
4139.7
4143.45
4131.75
4136.16
4140.6
4145.07
4149.58
4154.13
4134.21
4139.32
4144.47
4149.68
4154.95
4160.27
4165.63
4135.98
4141.76
4147.61
4153.54
4159.54
4165.63
4171.77
4177.98
4137.09
4143.52
4150.03
4156.64
4163.36
4170.19
4177.12
4184.13
4191.21
4137.56
4144.61
4151.76
4159.01
4166.41
4173.96
4181.64
4189.46
4197.36
4205.35
4137.41
4145.06
4152.81
4160.69
4168.73
4176.94
4185.35
4193.93
4202.66
4211.5
4220.45
4136.66
4144.88
4153.21
4161.67
4170.32
4179.18
4188.25
4197.55
4207.07
4216.76
4226.59
4236.54
4135.36
4144.11
4152.98
4162
4171.22
4180.68
4190.38
4200.36
4210.6
4221.1
4231.81
4242.68
4253.68
4133.5
4142.77
4152.15
4161.69
4171.45
4181.46
4191.76
4202.36
4213.28
4224.52
4236.05
4247.84
4259.81
4271.94
4131.14
4140.88
4150.75
4160.78
4171.04
4181.57
4192.41
4203.59
4215.14
4227.06
4239.34
4251.97
4264.9
4278.05
4291.37
4128.3
4138.47
4148.8
4159.29
4170.01
4181.02
4192.36
4204.07
4216.19
4228.73
4241.71
4255.11
4268.91
4283.06
4297.46
4312.06
4125.02
4135.58
4146.32
4157.25
4168.4
4179.85
4191.65
4203.84
4216.48
4229.58
4243.18
4257.28
4271.87
4286.92
4302.37
4318.12
4334.11
4121.31
4132.24
4143.37
4154.68
4166.23
4178.08
4190.3
4202.93
4216.02
4229.63
4243.79
4258.51
4273.8
4289.66
4306.06
4322.92
4340.13
4357.6
4117.22
4128.49
4139.96
4151.63
4163.54
4175.76
4188.35
4201.37
4214.88
4228.93
4243.57
4258.84
4274.75
4291.33
4308.56
4326.4
4344.78
4363.57
4382.67
4112.78
4124.34
4136.13
4148.12
4160.36
4172.91
4185.83
4199.2
4213.07
4227.5
4242.57
4258.3
4274.76
4291.96
4309.91
4328.61
4348.03
4368.07
4388.58
4409.44
4108
4119.85
4131.92
4144.19
4156.72
4169.56
4182.78
4196.46
4210.64
4225.41
4240.83
4256.96
4273.87
4291.6
4310.18
4329.61
4349.91
4371.03
4392.88
4415.27
4438.08
4102.93
4115.02
4127.35
4139.88
4152.66
4165.76
4179.24
4193.18
4207.63
4222.68
4238.4
4254.86
4272.14
4290.3
4309.39
4329.45
4350.49
4372.53
4395.52
4419.34
4443.82
4468.77
4097.59
4109.9
4122.46
4135.21
4148.22
4161.54
4175.24
4189.4
4204.08
4219.37
4235.33
4252.06
4269.63
4288.12
4307.62
4328.18
4349.84
4372.63
4396.56
4421.6
4447.62
4474.39
4501.73
4092
4104.5
4117.26
4130.21
4143.42
4156.93
4170.82
4185.17
4200.03
4215.51
4231.67
4248.6
4266.39
4285.14
4304.94
4325.87
4348.02
4371.42
4396.12
4422.13
4449.42
4477.86
4507.2
4537.2
4086.19
4098.87
4111.8
4124.92
4138.29
4151.97
4166.02
4180.51
4195.53
4211.15
4227.45
4244.53
4262.49
4281.42
4301.42
4322.61
4345.1
4368.96
4394.25
4421.04
4449.34
4479.14
4510.28
4542.49
4575.56
4080.18
4093.01
4106.1
4119.37
4132.88
4146.69
4160.87
4175.48
4190.61
4206.33
4222.73
4239.91
4257.97
4277.01
4297.14
4318.49
4341.18
4365.33
4391.06
4418.42
4447.5
4478.34
4510.94
4545.1
4580.62
4617.13
4074.01
4086.96
4100.17
4113.57
4127.2
4141.12
4155.4
4170.1
4185.31
4201.1
4217.56
4234.8
4252.9
4271.98
4292.17
4313.59
4336.37
4360.66
4386.63
4414.38
4444.02
4475.63
4509.3
4545.02
4582.66
4621.92
4662.28
4067.68
4080.74
4094.06
4107.56
4121.28
4135.29
4149.64
4164.41
4179.67
4195.5
4211.99
4229.23
4247.33
4266.4
4286.58
4307.98
4330.76
4355.07
4381.1
4409.03
4439
4471.14
4505.57
4542.39
4581.68
4623.28
4666.73
4711.5
4061.23
4074.37
4087.78
4101.36
4115.16
4129.23
4143.64
4158.45
4173.73
4189.57
4206.05
4223.26
4241.31
4260.33
4280.42
4301.74
4324.43
4348.66
4374.63
4402.53
4432.59
4465
4499.91
4537.47
4577.88
4621.24
4667.27
4715.53
4765.37
4054.66
4067.87
4081.35
4094.99
4108.84
4122.96
4137.41
4152.24
4167.52
4183.34
4199.79
4216.94
4234.91
4253.81
4273.78
4294.95
4317.48
4341.54
4367.32
4395.05
4424.98
4457.37
4492.46
4530.43
4571.54
4616.04
4663.97
4715.09
4768.88
4824.61
4048
4061.26
4074.79
4088.48
4102.37
4116.52
4130.98
4145.81
4161.08
4176.86
4193.24
4210.31
4228.17
4246.93
4266.72
4287.68
4309.97
4333.78
4359.29
4386.72
4416.35
4448.48
4483.43
4521.47
4562.89
4608.03
4657.12
4710.29
4767.25
4827.47
4890.06
4041.27
4054.56
4068.13
4081.85
4095.76
4109.92
4124.38
4139.19
4154.42
4170.15
4186.45
4203.41
4221.13
4239.71
4259.29
4280
4302
4325.48
4350.63
4377.67
4406.88
4438.55
4473.07
4510.81
4552.15
4597.47
4647.11
4701.46
4760.64
4824.36
4892.1
4962.82
4034.48
4047.79
4061.38
4075.11
4089.03
4103.19
4117.63
4132.41
4147.59
4163.24
4179.44
4196.28
4213.83
4232.22
4251.56
4271.99
4293.65
4316.74
4341.45
4368.02
4396.69
4427.78
4461.66
4498.77
4539.6
4584.64
4634.3
4689.05
4749.41
4815.54
4887.19
4963.77
5044.32
4027.64
4040.96
4054.55
4068.29
4082.2
4096.34
4110.75
4125.49
4140.6
4156.17
4172.26
4188.95
4206.33
4224.5
4243.58
4263.69
4284.99
4307.65
4331.86
4357.86
4385.9
4416.3
4449.4
4485.66
4525.6
4569.88
4619.04
4673.57
4734.14
4801.39
4875.64
4956.64
5043.64
5136.65
4020.78
4034.09
4047.67
4061.4
4075.29
4089.4
4103.77
4118.45
4133.49
4148.96
4164.92
4181.45
4198.64
4216.58
4235.38
4255.17
4276.08
4298.28
4321.95
4347.32
4374.65
4404.25
4436.48
4471.73
4510.54
4553.62
4601.7
4655.42
4715.47
4782.69
4857.92
4941.8
5033.86
5113.17
5109.05
5212.41
5160.46
5214.03
4013.89
4027.19
4040.75
4054.45
4068.32
4082.39
4096.71
4111.31
4126.27
4141.63
4157.45
4173.82
4190.81
4208.51
4227.02
4246.46
4266.97
4288.69
4311.8
4336.52
4363.09
4391.8
4423.03
4457.17
4494.71
4536.31
4582.82
4635.06
4693.9
4760.23
4835.11
4919.55
5015.3
5102.59
5093.64
5156.28
5267.49
5211.98
5268.93
4007
4020.27
4033.81
4047.47
4061.3
4075.32
4089.57
4104.1
4118.96
4134.2
4149.88
4166.08
4182.86
4200.31
4218.52
4237.61
4257.7
4278.94
4301.48
4325.53
4351.31
4379.1
4409.25
4442.17
4478.32
4518.31
4562.93
4613.14
4670
4734.61
4808.11
4891.85
4978.09
4963.04
5082.32
5013.76
5068.54
5148.87
5138.67
5206.73
5326.5
5266.57
5327.7
4000.12
4013.34
4026.84
4040.47
4054.24
4068.2
4082.39
4096.83
4111.58
4126.7
4142.23
4158.25
4174.81
4192.01
4209.93
4228.67
4248.34
4269.08
4291.04
4314.41
4339.4
4366.26
4395.3
4426.91
4461.57
4499.84
4542.44
4590.28
4644.54
4706.54
4777.68
4859.41
4946.64
4929.1
4997.66
5125.85
5052.32
5110.47
5198.14
5186.46
5260.44
5389.82
5324.75
5390.7
3993.24
4006.42
4019.88
4033.45
4047.17
4061.06
4075.16
4089.51
4104.16
4119.14
4134.52
4150.35
4166.71
4183.65
4201.26
4219.65
4238.9
4259.16
4280.55
4303.24
4327.43
4353.36
4381.29
4411.59
4444.68
4481.13
4521.63
4566.95
4618.23
4676.93
4744.65
4823.27
4910.41
4890.73
4979.66
4960.36
5034.16
5171.98
5092.61
5154.8
5250.55
5237.22
5317.63
5457.95
5386.99
5458.4
3986.4
3999.52
4012.92
4026.43
4040.09
4053.9
4067.92
4082.17
4096.7
4111.55
4126.77
4142.42
4158.55
4175.24
4192.55
4210.59
4229.44
4249.21
4270.03
4292.06
4315.47
4340.47
4367.32
4396.33
4427.87
4462.45
4500.73
4543.49
4591.65
4646.63
4710.21
4784.49
4870.12
4848.92
4939.88
4918.4
5014.23
4993.01
5072.47
5220.9
5135.01
5201.72
5306.33
5291.24
5378.73
5531.41
5453.76
5531.3
3979.58
3992.64
4005.98
4019.43
4033.01
4046.74
4060.67
4074.81
4089.22
4103.93
4118.99
4134.45
4150.36
4166.8
4183.82
4201.51
4219.96
4239.26
4259.53
4280.91
4303.56
4327.67
4353.46
4381.21
4411.25
4444.01
4480.07
4520.18
4565.19
4616.34
4675.4
4744.74
4827.28
4805.54
4896.12
4873.43
4970.7
4947.56
5050.52
5027.39
5112.83
5272.86
5179.88
5251.55
5365.93
5348.91
5444.19
5610.76
5525.53
5610.05
3972.79
3985.79
3999.06
4012.44
4025.94
4039.59
4053.42
4067.45
4081.74
4096.3
4111.2
4126.47
4142.17
4158.35
4175.08
4192.44
4210.49
4229.34
4249.08
4269.84
4291.76
4315
4339.77
4366.3
4394.9
4425.92
4459.86
4497.35
4539.2
4586.51
4641.09
4705.41
4783.84
4762.43
4850.57
4827.73
4923.94
4900.16
5003.49
4979.19
5088.97
5064.31
5155.86
5328.26
5227.83
5304.91
5429.69
5410.52
5514.36
5696.75
5602.88
5695.28
3966.06
3978.98
3992.18
4005.48
4018.9
4032.45
4046.18
4060.1
4074.26
4088.68
4103.41
4118.49
4133.97
4149.91
4166.36
4183.38
4201.06
4219.47
4238.7
4258.86
4280.08
4302.5
4326.29
4351.67
4378.9
4408.28
4440.21
4475.24
4514.02
4557.58
4607.67
4667.21
4741.34
4720.56
4805.11
4782.95
4876.48
4852.97
4954.74
4930.44
5039.47
5014.71
5130.63
5105.26
5202.66
5387.68
5280.07
5363.17
5497.9
5476.6
5589.79
5790.2
5686.41
5787.8
3959.37
3972.22
3985.34
3998.56
4011.88
4025.35
4038.97
4052.77
4066.8
4081.07
4095.63
4110.52
4125.79
4141.48
4157.66
4174.37
4191.68
4209.66
4228.41
4248
4268.55
4290.19
4313.07
4337.36
4363.29
4391.13
4421.19
4453.93
4489.89
4529.87
4575.64
4630.34
4700.35
4680.49
4761.16
4739.82
4829.79
4807.03
4906.37
4882.43
4990.09
4965.64
5080.34
5055.78
5177.15
5152.13
5255.1
5452.55
5338.88
5428.84
5571.25
5548.66
5671.14
5892.44
5776.87
5888.75
3952.73
3965.5
3978.54
3991.67
4004.91
4018.28
4031.79
4045.47
4059.36
4073.48
4087.88
4102.58
4117.64
4133.09
4148.99
4165.39
4182.35
4199.93
4218.21
4237.27
4257.19
4278.1
4300.12
4323.39
4348.12
4374.51
4402.85
4433.48
4466.86
4503.6
4545.32
4595.21
4661.18
4642.07
4718.94
4698.52
4784.62
4762.57
4858.7
4835.17
4941.24
4916.69
5031.24
5006.56
5127.75
5103.48
5230.56
5206.48
5315.54
5525.63
5406.84
5504.86
5650.94
5629.37
5759.37
6005.31
5875.37
5999.76
3946.16
3958.84
3971.8
3984.84
3997.98
4011.24
4024.65
4038.21
4051.95
4065.93
4080.15
4094.67
4109.51
4124.73
4140.36
4156.46
4173.08
4190.27
4208.11
4226.67
4246.01
4266.23
4287.44
4309.78
4333.39
4358.46
4385.2
4413.92
4444.95
4478.79
4516.78
4562.44
4623.55
4605.74
4678.5
4658.8
4740.88
4719.59
4811.74
4788.46
4891.88
4866.84
4981.36
4955.3
5078.79
5053.12
5182.66
5158.36
5292.5
5269.36
5385.68
5610.18
5485.86
5593.5
5739.43
5722.44
5856.95
6131.51
5984.51
6123.45
3939.65
3952.25
3965.11
3978.06
3991.1
4004.26
4017.55
4030.99
4044.6
4058.41
4072.47
4086.8
4101.43
4116.42
4131.79
4147.6
4163.89
4180.71
4198.12
4216.2
4234.99
4254.57
4275.04
4296.5
4319.1
4342.95
4368.24
4395.22
4424.15
4455.39
4490.01
4531.46
4585.64
4639.62
4620.77
4698.67
4678.12
4765.44
4742.77
4841.58
4816.23
4928.37
4900.69
5025.96
4997.02
5132.48
5104.29
5245.68
5220.05
5364.18
5341.57
5467.01
5709.07
5577.73
5697.09
5841.42
5832.06
5969.51
6275.03
6110.06
6265.95
3933.2
3945.71
3958.49
3971.34
3984.29
3997.34
4010.52
4023.83
4037.31
4050.97
4064.86
4079
4093.43
4108.18
4123.3
4138.82
4154.79
4171.26
4188.27
4205.89
4224.16
4243.15
4262.92
4283.58
4305.23
4327.98
4351.95
4377.35
4404.4
4433.34
4464.95
4502.44
4551.87
4619.74
4601.09
4658.08
4638.67
4720.52
4698.74
4791.08
4766.34
4872.46
4844.03
4966.55
4934.92
5073.53
5040.15
5191.12
5158.6
5316.48
5287.31
5446.69
5422.97
5560.85
5825.43
5684.28
5818.12
5963.06
5962.57
6105.38
6452.6
6262.85
6449.87
3926.81
3939.24
3951.93
3964.69
3977.54
3990.49
4003.55
4016.74
4030.09
4043.6
4057.32
4071.28
4085.51
4100.04
4114.9
4130.15
4145.82
4161.95
4178.58
4195.76
4213.55
4231.98
4251.12
4271.03
4291.81
4313.54
4336.33
4360.3
4385.66
4412.58
4441.54
4475.28
4519.97
4583.21
4565.4
4637.53
4618.31
4677.62
4657.27
4742.21
4718.84
4815.91
4788.44
4902.59
4870.1
5004.68
4967.85
5122.48
5083.05
5253.32
5214.45
5393.88
5358.86
5540.09
5512.38
5667.72
5962.78
5806.86
5958.89
6110.67
6119.15
6274.38
6728.75
6465.13
6731.79
3920.59
3932.84
3945.43
3958.1
3970.85
3983.7
3996.65
4009.72
4022.93
4036.3
4049.86
4063.64
4077.66
4091.97
4106.6
4121.58
4136.95
4152.75
4169.02
4185.8
4203.14
4221.06
4239.62
4258.86
4278.85
4299.67
4321.39
4344.09
4367.92
4393.04
4419.72
4450.02
4490.05
4548.26
4531.49
4599.59
4581.17
4654.61
4634.81
4696.45
4675.1
4761.9
4736.65
4838.23
4807.47
4930.52
4893.6
5041.43
4999.06
5171.26
5124.97
5317.54
5270.61
5476.68
5433.24
5643.35
5608.72
5787.16
6124.57
5945.54
6119.97
6291.68
6306.52
6490.64
7134.13
6744.75
7107.28
3926.61
3939.02
3951.59
3964.24
3976.98
3989.83
4002.78
4015.86
4029.08
4042.48
4056.07
4069.9
4083.99
4098.38
4113.1
4128.18
4143.67
4159.6
4176
4192.91
4210.36
4228.39
4247.02
4266.32
4286.31
4307.07
4328.66
4351.16
4374.68
4399.41
4426.71
4462.04
4512.57
4563.15
4545.4
4615.54
4596.59
4669.49
4649.29
4712.9
4690.6
4778.21
4750.92
4857.81
4823.57
4956.72
4915.05
5077.3
5029.21
5219.81
5166.8
5382.79
5327.39
5563.62
5509.72
5755.72
5711.05
5918.53
6311.88
6099.5
6300.01
6513.25
6526.17
6761.44
7426.12
7075.82
7415.11
3932.77
3945.15
3957.7
3970.34
3983.07
3995.91
4008.86
4021.94
4035.17
4048.59
4062.23
4076.1
4090.25
4104.72
4119.52
4134.71
4150.3
4166.34
4182.86
4199.87
4217.41
4235.49
4254.16
4273.43
4293.34
4313.94
4335.28
4357.42
4380.48
4405.31
4436.23
4480.87
4541.85
4524.31
4578
4559.76
4629.7
4610.47
4681.31
4660.98
4725.85
4702.78
4791.36
4761.84
4874.94
4836.98
4981.45
4934.8
5112.77
5058.81
5269.09
5209.15
5449.57
5385.8
5654.28
5588.97
5876.19
5818.68
6060.48
6522.87
6267.28
6496.45
6773.63
6772.82
7065.27
7658.41
7388.47
7663.57
3938.89
3951.24
3963.77
3976.39
3989.11
4001.94
4014.88
4027.96
4041.21
4054.65
4068.31
4082.23
4096.44
4110.97
4125.86
4141.14
4156.83
4172.97
4189.57
4206.66
4224.25
4242.34
4260.97
4280.13
4299.87
4320.19
4341.15
4362.79
4385.6
4412.73
4451.43
4504.5
4554.81
4536.93
4591.57
4573.04
4641.36
4622.09
4690.13
4669.97
4735.39
4711.7
4801.7
4769.92
4890.08
4847.98
5005.26
4952.93
5148.46
5087.51
5319.83
5252.13
5519.07
5446.58
5748.85
5672.31
6003.74
5931.1
6211.54
6753.5
6447.01
6639.63
6668.57
7058.12
6980.28
6963.6
7371.05
7904.8
7677.26
7936.29
3944.96
3957.28
3969.79
3982.38
3995.09
4007.91
4020.84
4033.91
4047.17
4060.62
4074.32
4088.28
4102.54
4117.14
4132.1
4147.46
4163.24
4179.46
4196.13
4213.26
4230.85
4248.89
4267.4
4286.37
4305.82
4325.74
4346.18
4367.36
4391.44
4424.57
4471.92
4530.15
4512.56
4566.14
4548.03
4603.12
4584.5
4650.57
4631.46
4696.49
4676.69
4742.1
4717.93
4809.32
4775.19
4903.03
4856.46
5027.2
4968.8
5183.18
5114.22
5371.71
5294.43
5591.87
5509.32
5848.83
5760.89
6138.23
5998.81
6042.4
6351.86
6311.7
6774.52
6945.45
6918.99
6605.75
6566.29
6433.4
6743.05
7285.67
7268.72
7112.65
7094.71
7431.44
7603.92
7593.67
8265.56
7904.05
7917.35
7759.87
8079.78
8215.33
8247.52
3950.98
3963.27
3975.75
3988.33
4001.02
4013.81
4026.73
4039.79
4053.05
4066.52
4080.24
4094.24
4108.55
4123.21
4138.24
4153.67
4169.52
4185.8
4202.51
4219.64
4237.17
4255.1
4273.41
4292.08
4311.12
4330.51
4350.37
4372.06
4400.4
4441.67
4495.81
4479.53
4539.72
4522.2
4575.68
4557.57
4612.59
4594.02
4657.68
4638.89
4700.78
4681.5
4746.17
4721.83
4814.32
4777.9
4913.65
4862.66
5046.61
4981.92
5215.97
5138.18
5423.44
5335.03
5672.05
5626.96
5580.11
5533.53
5951.63
5904.69
5712.35
5805.23
5854.93
6103.83
6266.01
6220.03
6057.34
6389.94
6887.14
7070.15
7038.72
6704.14
6658.82
6520.04
6849.1
7414.13
7251.13
7227.64
7581.13
7751.31
8783.42
8753.66
8460.3
8095.03
7922.03
8276.46
8482.04
3956.94
3969.2
3981.65
3994.21
4006.87
4019.64
4032.53
4045.58
4058.83
4072.31
4086.05
4100.09
4114.44
4129.16
4144.25
4159.75
4175.65
4191.97
4208.68
4225.76
4243.18
4260.92
4278.93
4297.2
4315.7
4334.47
4354.31
4378.81
4414.13
4460.15
4505.18
4488.66
4547.75
4530.27
4583.59
4565.55
4620.25
4601.83
4662.98
4644.64
4703.21
4684.57
4747.89
4723.66
4817.2
4778.75
4921.5
4866.46
5062.85
4991.64
5246.1
5158.99
5485.21
5437.43
5387.8
5339.67
5663.85
5613.91
5563.44
6007.7
5956.76
5753.7
5850.18
5904.11
6169.51
6340.87
6289.61
6118.28
6470.66
7001.12
7197.18
7159.91
6804.48
6607.83
6753.67
6957.2
7391.33
7560.83
7362.19
7735
7913.06
9099.1
9065.13
8742.94
8095.59
8286.51
8493.91
8734.59
3962.85
3975.07
3987.49
4000.02
4012.65
4025.37
4038.23
4051.27
4064.52
4078
4091.76
4105.82
4120.21
4134.98
4150.12
4165.67
4181.61
4197.94
4214.63
4231.62
4248.87
4266.33
4283.94
4301.68
4319.55
4337.97
4359.47
4389.5
4430.63
4480.52
4465.02
4513.22
4496.64
4554.36
4536.97
4590.06
4572.1
4626.36
4608.16
4666.66
4648.9
4704.12
4686.11
4747.96
4723.99
4818.4
4778.5
4926.24
4868.02
5075.71
4998.07
5290.24
5242.95
5195.27
5149.85
5512.12
5460.43
5408.22
5356.46
5701.1
5647.37
5593.1
6065.03
6010.17
5794.74
5895.35
5953.64
6236.13
6417.59
6362.06
6180.99
6553.94
7116.6
7325.99
7282.99
6907.13
6698.29
6851.54
7067.36
7533.24
7710.11
7498.41
7892.73
8081.71
9338.66
9024.17
9322.41
8279.39
8490.88
8724.4
8993.22
3968.7
3980.88
3993.26
4005.75
4018.33
4031.01
4043.83
4056.85
4070.08
4083.57
4097.33
4111.42
4125.85
4140.65
4155.85
4171.44
4187.41
4203.74
4220.36
4237.21
4254.21
4271.29
4288.39
4305.51
4322.83
4342.08
4367.75
4403.76
4446.01
4487.56
4472.05
4520.02
4503.55
4559.74
4542.5
4595.23
4577.37
4631.08
4613.16
4668.87
4651.76
4703.86
4686.29
4747.16
4723.35
4818.16
4777.37
4928.22
4867.45
5104.7
5062.14
5001.42
5304.85
5254.36
5204.83
5156.79
5538.3
5483.08
5427.76
5372.84
5738.1
5680.38
5622.27
6123.77
6064.64
5835.57
5940.48
6003.57
6304.68
6497.03
6437.35
6245.43
6640.34
7234.02
7456.5
7408
7012.4
6792.3
6952.95
7179.66
7677.02
7862.46
7636.17
8055.35
8257.65
9559.01
9288.12
9558.23
8472.81
8705.33
8963.84
9251.94
3974.49
3986.61
3998.96
4011.39
4023.9
4036.53
4049.32
4062.31
4075.53
4089
4102.78
4116.88
4131.35
4146.19
4161.44
4177.07
4193.07
4209.37
4225.89
4242.52
4259.17
4275.77
4292.26
4308.73
4326.3
4348.5
4379.61
4418.24
4463.08
4448.75
4493.52
4478.07
4525.72
4509.4
4564.01
4546.99
4599.11
4581.43
4634.41
4616.83
4669.64
4653.12
4702.74
4685.33
4745.85
4722.14
4816.55
4775.62
4927.82
4865.47
5110.08
5065.86
4982.32
5023.76
5318.56
5265.35
5213.51
5163.17
5563.84
5505.13
5446.6
5388.65
5774.67
5712.84
5650.81
6183.78
6119.86
5876.06
5985.37
6053.62
6375.45
6579.4
6515.21
6311.38
6730.01
7353.62
7588.42
7534.65
7120.4
6889.76
7057.45
7294.32
7823.17
8018.46
7776
8223.64
8441.14
9803.14
9545.7
9815.11
8674.85
8929.22
9211.57
9515.34
3980.21
3992.28
4004.57
4016.93
4029.38
4041.95
4054.7
4067.65
4080.85
4094.31
4108.09
4122.21
4136.71
4151.6
4166.9
4182.57
4198.59
4214.83
4231.19
4247.52
4263.72
4279.72
4295.54
4311.83
4331.32
4358.14
4392.95
4430.82
4468.43
4454.19
4498.48
4483.2
4530.41
4514.23
4567.17
4550.43
4601.64
4584.28
4636.25
4619.04
4668.98
4652.87
4701.02
4683.44
4744.3
4720.59
4814.2
4773.73
4944.5
4909.01
4849.36
4878.28
5114.46
5068.02
4982.11
5024.54
5331.59
5275.77
5221.54
5168.99
5588.7
5526.53
5464.78
5403.84
5810.72
5744.65
5678.65
6244.67
6175.29
5916.06
6029.81
6103.45
6448.16
6664.63
6595.46
6378.57
6823.01
7475.39
7722.36
7663.49
7231.56
6990.48
7165.19
7411.97
7972.36
8179.07
7918.72
8398.08
8632.5
10100.6
9820.78
10127.1
8885.88
9164.23
9470.23
9795.29
3985.87
3997.88
4010.09
4022.36
4034.73
4047.25
4059.95
4072.86
4086.03
4099.48
4113.26
4127.4
4141.93
4156.88
4172.24
4187.97
4203.98
4220.13
4236.25
4252.18
4267.81
4283.14
4298.5
4315.88
4339.11
4370.04
4405.31
4445.34
4432.38
4472.96
4458.93
4502.51
4487.48
4534.05
4518.06
4569.16
4552.75
4602.7
4585.83
4636.42
4619.63
4666.99
4650.98
4698.86
4680.74
4742.85
4718.92
4811.48
4772.17
4943.27
4907.89
4848.01
4876.39
5118.28
5070.05
4981.64
5025.03
5343.99
5285.57
5229
5174.31
5612.85
5547.24
5482.29
5418.38
5846.12
5775.74
5705.75
6306.07
6230.63
5955.45
6073.73
6152.89
6522.59
6752.83
6678.09
6446.67
6919.38
7599.96
7859.34
7795.63
7345.83
7094.38
7275.85
7533.17
8125.59
8345.31
8065.24
8579.56
8832.57
10513.8
10134.5
10523
9108.35
9413.25
9745.79
10102.7
3991.44
4003.38
4015.49
4027.67
4039.96
4052.41
4065.05
4077.92
4091.06
4104.49
4118.28
4132.44
4147.02
4162.04
4177.47
4193.26
4209.27
4225.27
4241.05
4256.44
4271.41
4286.14
4301.92
4322.17
4349.4
4381.9
4415.72
4449.61
4436.71
4476.73
4462.95
4505.69
4490.97
4536.64
4520.92
4569.81
4553.84
4602.2
4585.95
4634.83
4618.52
4663.8
4647.55
4696.18
4677.18
4741.74
4717.17
4822.85
4799.37
4780.9
4762.44
4942.13
4906.54
4847.08
4874.93
5121.69
5071.83
4981.03
5025.34
5355.76
5294.81
5235.94
5179.19
5636.25
5567.22
5499.09
5432.21
5880.78
5806.03
5732.03
6367.64
6285.7
5994.19
6117.17
6201.87
6598.6
6843.72
6762.57
6515.33
7018.47
7728.29
8000.08
7931.63
7463.39
7200.97
7389.43
7658.2
8284.19
8517.93
8216.83
8769.6
9043.57
11014
10497.7
10969.9
9345.9
9679.52
10043.8
10443.3
3996.95
4008.76
4020.76
4032.84
4045.05
4057.43
4070
4082.82
4095.92
4109.34
4123.13
4137.33
4151.97
4167.08
4182.63
4198.5
4214.48
4230.25
4245.54
4260.25
4274.55
4289.23
4307.01
4330.9
4360.52
4392.35
4428.18
4416.44
4453.17
4440.49
4479.76
4466.26
4508.05
4493.69
4538.15
4522.87
4569.02
4553.64
4600.11
4584.55
4631.59
4615.77
4659.5
4642.83
4692.46
4672.5
4748.38
4733.91
4714.52
4821.48
4799.25
4779.88
4762.41
4940.97
4905.23
4845.92
4873.63
5124.75
5073.36
4980.33
5025.5
5366.89
5303.49
5242.41
5183.68
5658.85
5586.4
5515.1
5445.31
5914.65
5835.46
5757.44
6429.12
6340.38
6032.33
6159.96
6250.32
6675.49
6936.44
6847.86
6584.22
7119.68
7860.42
8145.61
8072.02
7584.39
7309.92
7505.86
7786.55
8448.98
8698.48
8374.44
8970.06
9269.01
11434.7
10896.1
11391
9600.76
9966.32
10367.8
10813.2
4002.32
4014
4025.89
4037.87
4049.99
4062.28
4074.79
4087.55
4100.6
4114.01
4127.81
4142.06
4156.8
4172.05
4187.76
4203.76
4219.63
4235
4249.61
4263.56
4277.55
4293.42
4314.37
4341.03
4370.79
4400.97
4431.62
4419.92
4456.08
4443.67
4482.06
4468.88
4509.56
4495.62
4538.57
4523.88
4566.79
4552.17
4596.49
4581.6
4626.92
4611.55
4654.13
4637.12
4687.33
4666.52
4747.12
4732.71
4706.08
4718.78
4820.72
4798.82
4779.35
4761.95
4939.78
4903.98
4845.05
4872.55
5127.51
5074.68
4979.64
5025.58
5377.35
5311.58
5248.39
5187.8
5680.56
5604.66
5530.21
5457.59
5947.7
5864.02
5781.93
6490.44
6394.73
6069.59
6201.87
6298.24
6752.76
7030.55
6933.72
6653.31
7222.46
7996.49
8296.91
8217.77
7708.52
7420.7
7624.89
7918.3
8620.98
8889.14
8538.91
9183.71
9511.66
11814.5
11299.2
11781.6
9875.54
10276.7
10718.6
11199.9
4007.56
4019.11
4030.87
4042.74
4054.76
4066.96
4079.39
4092.08
4105.1
4118.49
4132.31
4146.64
4161.52
4177
4192.99
4209.05
4224.64
4239.34
4253.09
4266.59
4281.16
4299.58
4323.37
4350.94
4379.61
4407.76
4434.46
4423.01
4458.35
4446.24
4483.59
4470.81
4510.14
4496.71
4537.87
4523.86
4563.2
4549.45
4591.48
4577.23
4621.2
4606.06
4647.58
4630.45
4703.76
4688.64
4676.84
4665.9
4655.87
4746.2
4731.73
4716.63
4820.06
4798.29
4778.85
4761.3
4938.68
4902.81
4844.29
4871.58
5130.02
5075.83
4979.05
5025.61
5387.07
5319.01
5253.83
5191.52
5701.24
5621.89
5544.32
5468.88
5979.84
5891.7
5805.45
6551.75
6448.93
6105.8
6242.87
6345.69
6830.37
7125.46
7019.83
6722.64
7326.14
8137.24
8454.58
8369.45
7835.98
7533.29
7746.81
8054.26
8802.43
9092.1
8711.9
9414.04
9774.7
12157.8
11696.1
12144.8
10174.1
10613.2
11092.4
11596.4
4012.64
4024.05
4035.69
4047.44
4059.35
4071.45
4083.79
4096.42
4109.39
4122.77
4136.64
4151.09
4166.24
4182.13
4198.32
4214.19
4229.18
4243.01
4256.14
4269.9
4286.3
4307.45
4332.67
4359.71
4386.78
4416.6
4425.45
4406.28
4436.68
4459.96
4448.18
4484.33
4472.01
4509.73
4496.91
4536
4522.76
4558.5
4545.63
4585.5
4571.77
4614.61
4599.71
4639.56
4622.6
4701.12
4685
4672.85
4661.67
4651.48
4745.16
4730.28
4714.41
4819.35
4797.68
4778.24
4760.46
4937.71
4901.71
4843.49
4870.59
5132.27
5076.82
4978.49
5025.5
5395.87
5325.64
5258.57
5194.7
5720.79
5637.89
5557.18
5478.99
6010.95
5918.29
5827.67
6612.93
6502.53
6140.92
6282.64
6392.15
6907.84
7220.82
7105.96
6791.57
7430.9
8283.18
8619.66
8527.35
7966.79
7647.64
7870.89
8194.2
8995.81
9310.68
8896.02
9665.79
10062.5
12501.3
12091.3
12516.2
10498.9
10975.9
11484.9
12006.1
4017.57
4028.83
4040.33
4051.96
4063.74
4075.73
4087.98
4100.54
4113.47
4126.85
4140.8
4155.52
4171.16
4187.35
4203.47
4218.86
4233.04
4246.08
4259.27
4274.25
4293.06
4315.93
4341.2
4367.1
4392.06
4427.32
4418.23
4408.07
4438.27
4460.83
4449.45
4484.2
4472.41
4508.3
4496.17
4533.01
4520.58
4553.13
4540.95
4578.92
4565.77
4607.09
4592.63
4636.86
4628.2
4613.38
4697.98
4680.81
4668.3
4656.83
4646.44
4743.9
4728.58
4711.79
4818.5
4796.91
4777.36
4759.21
4936.85
4900.67
4842.56
4869.58
5134.13
5077.52
4977.87
5025.23
5403.57
5331.25
5262.39
5197.14
5738.92
5652.4
5568.54
5487.62
6040.91
5943.44
5848.16
6673.37
6554.94
6174.68
6320.77
6437.15
6984.78
7316.59
7191.87
6859.88
7536.09
8434.28
8794.64
8693.64
8099.81
7762.71
7995.58
8338.02
9203.83
9551.55
9094.38
9943.42
10377.2
12973.8
12504.5
12982.9
10851.4
11362.6
11897.8
12440.1
4022.32
4033.44
4044.79
4056.27
4067.92
4079.8
4091.94
4104.42
4117.31
4130.72
4144.92
4160.15
4176.21
4192.48
4208.24
4222.89
4236.2
4249.02
4263.09
4279.98
4300.63
4324
4348.63
4372.91
4395.55
4428.62
4419.29
4409.37
4439.21
4460.88
4449.97
4483.14
4471.93
4505.89
4494.46
4529.09
4517.44
4547.38
4535.83
4571.78
4559.34
4598.55
4584.79
4631.53
4622.97
4609.23
4601.9
4694.25
4675.95
4663.14
4651.48
4640.99
4742.24
4726.48
4708.58
4817.25
4795.7
4775.94
4757.39
4935.97
4899.6
4841.3
4868.41
5135.49
5077.92
4976.98
5024.7
5409.9
5335.64
5265.15
5198.68
5755.18
5665
5577.96
5494.32
6069.28
5966.63
5866.41
6733.13
6606.18
6206.6
6356.97
6480.56
7061.03
7411.8
7276.85
6927.14
7640.67
8592.19
8984.1
8873.79
8235
7877.12
8120.72
8487.77
9433.86
9819.15
9314.34
10248.9
10719.8
13521.1
12975.1
13522.9
11230.8
11772.5
12338
12915.5
4026.89
4037.85
4049.04
4060.37
4071.87
4083.62
4095.65
4108.05
4120.92
4134.53
4149.25
4165.05
4181.31
4197.28
4212.38
4226.19
4239.01
4252.41
4267.95
4286.62
4308.08
4331.25
4354.71
4376.98
4401.16
4410.26
4392.14
4429.33
4419.79
4439.5
4460.14
4449.77
4481.21
4470.62
4502.62
4491.87
4524.56
4513.51
4541.32
4530.41
4564.12
4552.52
4589
4576.24
4625.58
4617.1
4603.41
4596.44
4689.8
4670.31
4657.31
4645.54
4634.99
4740.01
4723.8
4704.63
4815.4
4793.76
4773.68
4754.76
4934.84
4898.28
4839.54
4866.88
5136.22
5077.96
4975.52
5023.59
5414.38
5338.36
5266.43
5198.9
5769.06
5675.07
5584.73
5498.32
6095.4
5987.12
5881.72
6791.56
6655.76
6236.33
6390.35
6521.64
7136.16
7505.57
7359.83
6992.96
7743.64
8762.79
9195.07
9075.23
8375.1
7990.51
8247.77
8647.67
9691.42
10115.4
9561.85
10582.5
11091.2
13978
13508.3
14083.5
11635
12210
12812.2
13440.9
4031.27
4042.05
4053.07
4064.23
4075.58
4087.18
4099.09
4111.42
4124.42
4138.57
4154.01
4170.11
4186.1
4201.46
4215.76
4228.94
4241.99
4256.57
4273.65
4293.34
4314.96
4337.41
4359.21
4379.11
4410.4
4401.31
4392.59
4429.44
4419.65
4439.15
4458.75
4448.92
4478.57
4468.62
4498.84
4488.63
4519.7
4509.19
4534.99
4524.74
4556.06
4545.39
4584.38
4578.29
4567.11
4619.14
4610.9
4597.25
4590.66
4684.49
4663.83
4650.75
4638.96
4628.44
4737.02
4720.36
4699.72
4812.72
4790.77
4770.3
4751.05
4933.12
4896.36
4837.05
4864.69
5135.86
5077.24
4973.09
5021.35
5416.15
5338.46
5265.37
5197.07
5779.78
5681.77
5587.94
5498.61
6118.88
6004.41
5893.34
6848.42
6698.12
6262.93
6417.37
6552.67
7209.59
7597.56
7437.83
7054.76
7844.35
8952.46
9432.05
9300.87
8522.4
8100.66
8380.22
8822.54
9978.38
10440.2
9838.69
10944.9
11488
14615.9
14104.6
14857.4
12065
12677.2
13325.1
14023.8
4035.44
4046.04
4056.86
4067.83
4079.02
4090.46
4102.25
4114.65
4128.23
4143.22
4159.07
4174.93
4190.3
4204.87
4218.48
4231.58
4245.52
4261.43
4279.6
4299.71
4320.99
4342.14
4362.03
4379.94
4410.13
4400.99
4392.49
4428.91
4419
4438.18
4456.8
4447.47
4475.66
4466.2
4494.91
4485.22
4514.64
4504.7
4528.42
4518.91
4547.72
4538
4578.8
4573.07
4562.66
4557.5
4612.29
4604.37
4590.86
4584.69
4678.18
4656.45
4643.43
4631.72
4621.36
4732.94
4715.87
4693.66
4808.65
4786.29
4765.47
4745.94
4930.46
4893.4
4833.28
4861.28
5133.7
5075.05
4968.72
5016.85
5414.14
5334.76
5260.6
5191.82
5786.5
5684.26
5586.78
5494.28
6134.15
6011.39
5896.87
6901.63
6758.93
6290.26
6421.48
6552.61
7278.22
7689.82
7528.72
7129.4
7940.8
9163.94
9696.58
9549.5
8679.19
8221.03
8519.59
9013.26
10293.7
10792.5
10142.5
11333.2
11908.9
17182.4
14826.5
16055.7
12521.7
13174.5
13881.1
14680.4
4039.38
4049.77
4060.39
4071.16
4082.16
4093.44
4105.22
4118.22
4132.78
4148.36
4164.03
4179.25
4193.78
4207.59
4220.92
4234.59
4249.65
4266.61
4285.37
4305.43
4325.79
4345.44
4363.63
4380.2
4392.37
4409.53
4400.59
4427.89
4418.1
4436.8
4454.68
4445.72
4472.7
4463.67
4490.94
4481.79
4509.48
4500.16
4521.79
4513.03
4543.66
4552.76
4539.18
4530.5
4573.14
4567.83
4557.64
4605.1
4597.56
4584.32
4578.6
4670.78
4648.13
4635.33
4623.88
4613.82
4727.51
4710.1
4686.3
4802.69
4779.92
4758.83
4739.11
4926.05
4888.71
4827.72
4856.12
5128.47
5070.22
4960.72
5008.25
5407.3
5326.13
5250.86
5181.49
5787.08
5681.97
5581.56
5486.27
6173.67
6001.75
5889.78
6917.04
6738.73
6301.66
6418.04
6548.83
7299.72
7790.52
7510.41
7111.02
7982.78
9399.15
9985.38
9819.64
8844.42
8207.15
8512.16
9215.49
10634.9
11171.2
10471.2
11744.7
12354.4
20129.9
15697.3
17428.9
13002.9
13702.4
14481
15403.6
4043.09
4053.25
4063.64
4074.2
4085
4096.19
4108.53
4122.67
4138.02
4153.58
4168.63
4182.98
4196.71
4210.09
4223.66
4238.15
4254.18
4271.8
4290.71
4310.21
4329.46
4347.75
4364.6
4384.04
4392.14
4391.9
4376.56
4408.85
4400.14
4426.7
4417.15
4435.29
4452.5
4443.89
4469.73
4461.12
4486.99
4478.35
4504.3
4495.63
4515.23
4507.23
4548.14
4539.26
4534.98
4523.17
4567.43
4562.51
4552.67
4597.65
4590.55
4577.7
4572.45
4662.25
4638.98
4626.58
4615.55
4605.92
4720.49
4702.88
4677.61
4794.33
4771.29
4750.11
4730.36
4918.39
4881.06
4819.72
4848.32
5118.2
5060.78
4947.28
4994.07
5397.2
5314.74
5238.92
5169.52
5781.7
5677.15
5576.42
5480.44
6155.8
5998.37
5886.53
6913.8
6734.14
6299.01
6414.99
6545.56
7296.23
7776.42
7505.21
7106
7978.21
9645.25
10297.9
10108.2
8843.26
8202.12
8507.56
9221.45
11002
11573.2
10824.8
12178.5
12821
23351.6
16594.5
18997.6
13506.3
14257.3
15113.4
16133.6
4046.52
4056.43
4066.58
4076.92
4087.57
4099.19
4112.83
4128.02
4143.58
4158.6
4172.78
4186.27
4199.47
4212.83
4226.9
4242.21
4258.89
4276.78
4295.43
4314.19
4332.37
4349.36
4365.26
4391.63
4383.95
4399.68
4376.55
4408.16
4425.45
4416.19
4433.75
4450.31
4442.03
4466.76
4458.56
4483.06
4474.93
4499.19
4491.15
4508.74
4501.51
4543.49
4534.97
4531.05
4515.95
4526.91
4519.46
4561.73
4557.19
4547.7
4590.01
4583.43
4571.1
4566.31
4652.71
4629.18
4617.35
4606.87
4597.76
4711.73
4694.13
4667.7
4783.02
4760.01
4739.02
4719.53
4905.75
4869.23
4808.49
4836.93
5105.01
5046.02
4930.65
4976
5390.96
5308.54
5233.1