/*--------------------------------*- C++ -*----------------------------------*\
  =========                 |
  \\      /  F ield         | OpenFOAM: The Open Source CFD Toolbox
   \\    /   O peration     | Website:  https://openfoam.org
    \\  /    A nd           | Version:  dev
     \\/     M anipulation  |
\*---------------------------------------------------------------------------*/
FoamFile
{
    version     2.0;
    format      ascii;
    class       volScalarField;
    location    "2500";
    object      H2O;
}
// * * * * * * * * * * * * * * * * * * * * * * * * * * * * * * * * * * * * * //

dimensions      [0 0 0 0 0 0 0];

internalField   nonuniform List<scalar> 
9978
(
3.64334e-27
1.41351e-26
5.94612e-27
2.27316e-26
3.37478e-26
9.19621e-27
3.77686e-26
5.99692e-26
3.93302e-26
2.76207e-27
4.94375e-26
1.03306e-25
9.32378e-26
3.19658e-26
3.29125e-27
5.86819e-26
1.46687e-25
1.73257e-25
9.25592e-26
1.9413e-26
1.38234e-27
4.05344e-26
1.95651e-25
2.77454e-25
1.78854e-25
7.0218e-26
8.14355e-27
5.6922e-28
5.62976e-26
3.03205e-25
4.10933e-25
3.39708e-25
1.71073e-25
4.83765e-26
5.54906e-27
3.64322e-28
3.50066e-26
3.27697e-25
5.73607e-25
4.88036e-25
3.2446e-25
1.07597e-25
2.56368e-26
2.70067e-27
4.96422e-29
4.14732e-26
3.9511e-25
7.44567e-25
8.2194e-25
5.62585e-25
2.23106e-25
6.31799e-26
1.21671e-26
9.89951e-28
2.20878e-29
7.71689e-26
4.81945e-25
8.46266e-25
1.09785e-24
9.21516e-25
5.53492e-25
1.9308e-25
4.12593e-26
3.54781e-27
1.73203e-28
7.05507e-30
2.25938e-25
7.32194e-25
9.35102e-25
1.58368e-24
1.42313e-24
8.51095e-25
3.65005e-25
1.26561e-25
1.69396e-26
1.25483e-27
4.95087e-29
9.73493e-31
4.78298e-25
1.31495e-24
1.43763e-24
2.22088e-24
2.08635e-24
1.35143e-24
8.10274e-25
2.34909e-25
7.27618e-26
4.83925e-27
5.24443e-28
2.30958e-29
4.95293e-31
7.96474e-25
1.93456e-24
3.50882e-24
3.66589e-24
3.19742e-24
2.11585e-24
1.3187e-24
5.44764e-25
1.7794e-25
2.29818e-26
1.86331e-27
1.63678e-28
6.97182e-30
4.64206e-32
1.4115e-24
3.18852e-24
6.27066e-24
6.63532e-24
5.14866e-24
3.82824e-24
1.96618e-24
1.04915e-24
4.02839e-25
8.72979e-26
1.15204e-26
9.98735e-28
6.90168e-29
1.06553e-30
1.76112e-32
1.47667e-24
8.86585e-24
1.22787e-23
1.40063e-23
9.66156e-24
5.98571e-24
3.73047e-24
1.66781e-24
6.68124e-25
2.58291e-25
4.88524e-26
4.49574e-27
4.07839e-28
1.18799e-29
5.86561e-31
5.84769e-33
5.51205e-24
1.72803e-23
2.55955e-23
2.76431e-23
1.91946e-23
1.18424e-23
5.84534e-24
3.09367e-24
1.56663e-24
4.18691e-25
1.32213e-25
2.15193e-26
2.0293e-27
1.0612e-28
4.40324e-30
1.07966e-31
2.55972e-33
5.32613e-24
3.27529e-23
5.6971e-23
4.36043e-23
3.77252e-23
2.51477e-23
1.07038e-23
6.16327e-24
2.87485e-24
1.15506e-24
2.82406e-25
6.93323e-26
9.11581e-27
8.29016e-28
2.63963e-29
1.26033e-30
6.58377e-32
1.63125e-32
1.07049e-23
6.53266e-23
9.8424e-23
1.12591e-22
9.10144e-23
5.18805e-23
2.95327e-23
1.07304e-23
5.59786e-24
2.0778e-24
5.93363e-25
1.64947e-25
2.78929e-26
2.73837e-27
1.82853e-28
4.93129e-30
6.04324e-31
3.93632e-31
3.10393e-31
1.95105e-23
1.38914e-22
2.6251e-22
2.93149e-22
2.40329e-22
1.40857e-22
6.40148e-23
2.6209e-23
1.08736e-23
4.92323e-24
1.6218e-24
2.99959e-25
8.24564e-26
1.23917e-26
1.1212e-27
3.25862e-29
3.73824e-30
1.69661e-30
4.06122e-30
1.48454e-30
2.55746e-23
1.05718e-22
4.81731e-22
4.76156e-22
5.13352e-22
3.3215e-22
1.43883e-22
6.9119e-23
2.4931e-23
9.4472e-24
3.16989e-24
1.08194e-24
1.9772e-25
4.05544e-26
3.40169e-27
2.77797e-28
2.04879e-29
1.52722e-29
2.31745e-29
4.18225e-29
2.20189e-29
2.82432e-23
1.97367e-22
5.10089e-22
1.23704e-21
1.30647e-21
8.10746e-22
4.85225e-22
1.70626e-22
5.9886e-23
2.25147e-23
7.65509e-24
2.05405e-24
6.0072e-25
9.65011e-26
1.39082e-26
1.2399e-27
1.37654e-28
8.4935e-29
1.61785e-28
3.75737e-28
6.31774e-28
4.0535e-28
2.65299e-23
4.15974e-22
8.99047e-22
2.2934e-21
2.70835e-21
1.95361e-21
1.28516e-21
5.09236e-22
1.67621e-22
5.37739e-23
1.87293e-23
5.36697e-24
1.14376e-24
2.64182e-25
4.46268e-26
5.52592e-27
6.68229e-28
6.27105e-28
1.0783e-27
3.86965e-27
6.26243e-27
1.04647e-26
1.07714e-26
3.81038e-23
3.6724e-22
1.60373e-21
3.73116e-21
4.76219e-21
4.36192e-21
2.74975e-21
1.3501e-21
4.78551e-22
1.36451e-22
4.50985e-23
1.36429e-23
4.01604e-24
6.1357e-25
1.19061e-25
1.37626e-26
2.55363e-27
2.82467e-27
1.09625e-26
3.06672e-26
9.58671e-26
1.44857e-25
2.01115e-25
1.92388e-25
3.11963e-23
2.35657e-22
1.85521e-21
5.12618e-21
7.89279e-21
7.58541e-21
6.92943e-21
3.45557e-21
1.26236e-21
4.42625e-22
1.11707e-22
3.55323e-23
9.92265e-24
1.85754e-24
2.53656e-25
5.81606e-26
7.36953e-27
1.02915e-26
6.57777e-26
3.21748e-25
1.24128e-24
3.53855e-24
4.20659e-24
5.77905e-24
3.14825e-24
7.40988e-23
2.94968e-22
1.29838e-21
6.19844e-21
1.29486e-20
1.2616e-20
1.25385e-20
7.70781e-21
3.41607e-21
1.22755e-21
3.55514e-22
7.57881e-23
2.41355e-23
5.86286e-24
1.1393e-24
1.28852e-25
2.72845e-26
4.14982e-26
2.81186e-25
2.4741e-24
1.43093e-23
5.899e-23
1.07285e-22
1.31646e-22
1.29359e-22
9.74915e-23
1.28567e-22
3.78642e-22
1.49284e-21
7.27279e-21
1.36145e-20
2.85928e-20
2.14461e-20
1.33748e-20
8.39993e-21
3.26978e-21
1.11366e-21
2.6276e-22
5.96594e-23
1.1512e-23
2.8437e-24
6.15469e-25
7.88464e-26
1.39524e-25
1.24021e-24
1.52107e-23
1.1936e-22
6.99535e-22
2.29843e-21
3.56537e-21
3.54991e-21
2.98733e-21
1.62629e-21
1.68828e-22
7.62979e-22
2.57044e-21
6.18308e-21
1.72213e-20
4.01827e-20
4.58872e-20
2.72232e-20
1.76838e-20
7.00482e-21
2.93117e-21
8.95159e-22
1.92328e-22
4.58108e-23
1.00541e-23
1.69021e-24
2.06892e-25
4.05582e-25
4.98062e-24
6.92893e-23
7.99784e-22
6.54285e-21
2.82527e-20
7.67126e-20
7.67083e-20
7.09202e-20
5.87645e-20
2.53885e-20
3.1003e-22
2.11195e-21
5.41219e-21
1.1446e-20
2.8992e-20
5.48006e-20
6.25088e-20
7.42973e-20
4.13572e-20
2.04449e-20
7.15481e-21
2.49257e-21
6.2447e-22
1.29764e-22
2.59282e-23
4.0202e-24
8.23822e-25
1.33785e-24
1.73344e-23
2.67053e-22
3.76154e-21
4.5688e-20
3.01803e-19
9.94234e-19
1.94186e-18
1.72323e-18
1.60302e-18
9.55142e-19
3.63223e-19
1.17763e-21
3.70079e-21
8.00756e-21
1.40473e-20
4.11393e-20
7.11195e-20
9.73945e-20
1.2259e-19
9.05234e-20
4.0248e-20
1.84572e-20
6.53661e-21
1.36409e-21
4.68269e-22
7.53749e-23
1.40531e-23
2.29995e-24
3.00258e-24
5.55375e-23
7.95885e-22
1.43172e-20
2.16457e-19
2.36004e-18
9.73588e-18
2.23152e-17
4.11144e-17
3.28333e-17
2.67748e-17
1.43233e-17
4.18916e-18
1.99741e-21
7.24193e-21
1.53244e-20
1.65431e-20
6.13382e-20
1.091e-19
1.86175e-19
2.14693e-19
1.6931e-19
1.09143e-19
3.85066e-20
1.65032e-20
3.77183e-21
1.23364e-21
2.8608e-22
4.85493e-23
7.37593e-24
8.69682e-24
1.30957e-22
2.64246e-21
4.60956e-20
8.00361e-19
1.21069e-17
7.87834e-17
2.2701e-16
5.26605e-16
7.24989e-16
6.69275e-16
4.33599e-16
1.93545e-16
5.46596e-17
6.42702e-21
3.16512e-20
3.85396e-20
3.20542e-20
5.43426e-20
1.19668e-19
2.53656e-19
2.96648e-19
3.03382e-19
2.07034e-19
7.80047e-20
3.49319e-20
1.3401e-20
3.05078e-21
8.9721e-22
1.66037e-22
3.30112e-23
1.58577e-23
3.15594e-22
6.25015e-21
1.28096e-19
2.40177e-18
5.59875e-17
4.51562e-16
2.17044e-15
7.42194e-15
1.3733e-14
1.57795e-14
1.2177e-14
6.39148e-15
2.55415e-15
6.37837e-16
8.37157e-21
7.90486e-20
9.82188e-20
7.59833e-20
9.30313e-20
1.88798e-19
3.12065e-19
4.86611e-19
4.72854e-19
3.51374e-19
2.15616e-19
6.32865e-20
3.10557e-20
7.72915e-21
2.5538e-21
4.25579e-22
9.81341e-23
3.00345e-23
4.94415e-22
1.42648e-20
2.9187e-19
6.32926e-18
1.30132e-16
2.58393e-15
1.47355e-14
7.35914e-14
2.09676e-13
3.36624e-13
3.23952e-13
2.14235e-13
9.72666e-14
2.81351e-14
3.80818e-15
3.71269e-20
1.53992e-19
3.28869e-19
3.17066e-19
2.0023e-19
2.49109e-19
5.08556e-19
9.10787e-19
8.49401e-19
7.27928e-19
4.63232e-19
2.03741e-19
6.43954e-20
2.63042e-20
6.58684e-21
1.91413e-21
2.95269e-22
7.21095e-23
6.77883e-22
2.24897e-20
6.99931e-19
1.5816e-17
3.19972e-16
6.91419e-15
7.62479e-14
5.40127e-13
2.19401e-12
5.17327e-12
6.94038e-12
5.58093e-12
3.25997e-12
1.2704e-12
2.56403e-13
0
4.09905e-20
2.26359e-19
6.08147e-19
1.06777e-18
6.38745e-19
4.84761e-19
6.39459e-19
1.20836e-18
1.28745e-18
1.06917e-18
8.93611e-19
4.53289e-19
1.50384e-19
5.99829e-20
1.73974e-20
4.43198e-21
1.17286e-21
2.5598e-22
7.98646e-22
2.73915e-20
1.06099e-18
3.29321e-17
8.16845e-16
1.70757e-14
2.6977e-13
2.78483e-12
1.60926e-11
5.37979e-11
1.0635e-10
1.21008e-10
8.29433e-11
4.59226e-11
1.48566e-11
2.45245e-13
2.86924e-12
3.66885e-14
1.53951e-12
8.09354e-13
1.7952e-19
8.13619e-19
1.66071e-18
2.76358e-18
2.07719e-18
2.01533e-18
1.49913e-18
1.88495e-18
2.09412e-18
2.11677e-18
1.59155e-18
8.00002e-19
3.97794e-19
1.34376e-19
4.72262e-20
1.35262e-20
3.40678e-21
7.75827e-22
9.81689e-22
3.07837e-20
1.19178e-18
4.49723e-17
1.5287e-15
4.46852e-14
7.36919e-13
9.95262e-12
8.133e-11
3.90327e-10
1.10412e-09
1.8818e-09
1.88361e-09
1.12741e-09
6.27649e-10
2.75417e-11
3.00663e-10
1.80817e-11
2.78212e-13
1.07045e-11
5.4058e-12
2.52839e-19
1.42825e-18
3.00361e-18
5.8165e-18
7.19671e-18
6.13747e-18
4.28323e-18
2.71244e-18
3.35995e-18
3.56715e-18
2.37565e-18
1.98828e-18
8.03631e-19
3.17297e-19
1.23673e-19
3.08388e-20
9.1647e-21
2.42063e-21
1.41799e-21
2.922e-20
1.18821e-18
4.81244e-17
1.95994e-15
7.33516e-14
2.39923e-12
2.68445e-11
2.89375e-10
1.92852e-09
7.96562e-09
1.96767e-08
2.97086e-08
2.65192e-08
4.36816e-09
1.77032e-08
2.53633e-09
1.98286e-08
2.14053e-08
2.09316e-10
2.12219e-09
1.30727e-10
1.73818e-12
7.35562e-11
3.30775e-11
3.07854e-18
4.1335e-18
6.52867e-18
8.61137e-18
1.65373e-17
1.16646e-17
1.20887e-17
7.19395e-18
5.8492e-18
5.33855e-18
4.72223e-18
3.05895e-18
1.88647e-18
7.8733e-19
2.89148e-19
8.39219e-20
2.6024e-20
6.87188e-21
2.6144e-21
2.70531e-20
1.10757e-18
4.7043e-17
1.93034e-15
8.00833e-14
3.40924e-12
7.28212e-11
7.51426e-10
6.86064e-09
3.84149e-08
1.39902e-07
3.04811e-07
4.11031e-07
8.6146e-08
4.20157e-07
1.18354e-07
1.89142e-08
1.40717e-07
1.43515e-07
1.45276e-09
1.44869e-08
8.71854e-10
9.23295e-12
4.43516e-10
1.72685e-10
2.65247e-17
2.42431e-17
1.26171e-17
1.38819e-17
3.12344e-17
3.59763e-17
2.9647e-17
1.99471e-17
1.32376e-17
1.02469e-17
8.56868e-18
5.94351e-18
3.27284e-18
1.437e-18
6.05991e-19
2.22123e-19
6.37325e-20
1.63418e-20
5.19098e-21
2.74288e-20
8.90448e-19
4.01652e-17
1.71061e-15
7.41097e-14
3.14412e-12
1.29776e-10
1.95005e-09
1.73951e-08
1.36421e-07
6.43189e-07
2.05389e-06
3.94107e-06
1.65413e-06
5.79578e-06
6.20677e-07
2.71903e-06
8.00248e-07
1.24769e-07
9.13945e-07
9.02265e-07
9.47608e-09
9.24978e-08
5.27022e-09
3.77992e-11
2.32474e-09
7.30366e-10
3.01551e-16
2.12624e-16
1.12226e-16
5.74769e-17
4.37001e-17
5.94998e-17
6.35019e-17
5.85141e-17
2.82588e-17
1.85826e-17
1.35687e-17
1.02077e-17
7.1333e-18
3.68585e-18
1.24662e-18
5.16421e-19
1.60521e-19
4.80424e-20
1.48566e-20
3.11608e-20
7.39468e-19
3.02447e-17
1.36444e-15
6.07495e-14
2.61488e-12
1.17216e-10
4.01503e-09
4.52108e-08
3.35082e-07
2.21427e-06
8.55402e-06
2.33112e-05
1.67578e-05
4.35629e-05
9.81495e-06
2.98042e-05
3.83469e-06
1.46853e-05
4.73619e-06
7.69429e-07
5.20762e-06
5.02822e-06
5.73173e-08
5.51941e-07
2.88974e-08
9.51544e-11
1.07282e-08
2.59604e-09
2.99206e-15
3.06963e-15
1.27732e-15
5.12852e-16
1.91961e-16
1.59853e-16
1.19936e-16
1.24714e-16
7.99066e-17
5.26488e-17
3.08529e-17
2.34345e-17
1.09897e-17
6.62751e-18
3.40188e-18
1.17362e-18
4.07911e-19
1.17678e-19
3.61579e-20
4.43172e-20
6.37644e-19
2.28215e-17
9.8333e-16
4.47443e-14
1.9638e-12
8.28535e-11
3.36199e-09
6.8265e-08
8.47327e-07
5.00626e-06
2.61247e-05
8.18441e-05
9.54846e-05
0.000194668
7.75117e-05
0.000175197
4.61056e-05
0.000122732
1.95038e-05
6.44419e-05
2.31135e-05
4.21779e-06
2.46403e-05
2.33535e-05
3.24829e-07
2.98664e-06
1.48662e-07
2.87843e-10
4.94507e-08
1.05705e-08
3.79508e-14
4.80722e-14
2.13241e-14
6.24815e-15
1.37752e-15
4.2815e-16
2.82145e-16
2.78187e-16
2.15177e-16
1.21876e-16
6.90546e-17
4.18414e-17
2.78997e-17
1.14711e-17
6.26456e-18
2.78285e-18
9.11492e-19
2.94364e-19
8.24109e-20
6.43479e-20
6.39257e-19
1.64658e-17
6.89172e-16
3.09789e-14
1.3988e-12
5.71504e-11
2.30911e-09
7.0276e-08
1.2506e-06
1.16081e-05
5.28036e-05
0.000203404
0.000312806
0.000483156
0.00033172
0.000533735
0.000275568
0.000503403
0.000175575
0.00039182
8.15791e-05
0.000229655
9.33846e-05
1.94873e-05
9.71841e-05
9.15198e-05
1.73804e-06
1.38674e-05
7.79625e-07
1.22901e-09
2.43655e-07
5.53442e-08
4.89655e-13
7.37903e-13
3.60767e-13
1.11195e-13
2.39076e-14
4.43781e-15
1.107e-15
5.80505e-16
4.76113e-16
3.08653e-16
2.11754e-16
9.0194e-17
5.42e-17
2.83162e-17
1.10342e-17
5.26936e-18
2.02212e-18
5.83987e-19
2.01164e-19
1.29026e-19
7.85707e-19
1.26747e-17
4.4011e-16
2.02321e-14
9.58814e-13
3.94475e-11
1.47153e-09
5.90065e-08
1.34051e-06
1.55054e-05
0.000102545
0.000353895
0.000637269
0.000828172
0.000765096
0.00100096
0.00077693
0.00107271
0.000688301
0.00102738
0.000508329
0.000866936
0.000274488
0.000610537
0.000301502
7.66979e-05
0.000306687
0.000288784
8.24395e-06
5.55349e-05
3.8835e-06
7.43704e-09
1.36108e-06
3.37803e-07
5.23491e-12
9.43748e-12
5.66752e-12
1.89251e-12
4.36183e-13
7.55867e-14
1.09605e-14
2.4748e-15
1.00198e-15
6.77872e-16
4.2424e-16
2.64909e-16
1.11621e-16
6.00169e-17
2.32052e-17
1.05346e-17
4.19358e-18
1.60505e-18
4.94176e-19
2.75784e-19
1.18434e-18
1.30473e-17
3.23477e-16
1.25772e-14
6.19801e-13
2.7032e-11
9.81613e-10
3.50188e-08
1.18309e-06
1.78019e-05
0.000124388
0.000529237
0.000973279
0.00113698
0.00123153
0.00144383
0.00136965
0.00164891
0.00137896
0.00172716
0.00126054
0.00166688
0.00102159
0.00146396
0.000682899
0.0011409
0.000721408
0.000247845
0.000722099
0.000682928
3.46015e-05
0.000189588
1.82813e-05
5.92275e-08
6.80213e-06
2.30493e-06
4.5447e-11
9.69351e-11
7.29879e-11
2.98731e-11
7.57345e-12
1.43476e-12
2.07997e-13
2.86799e-14
4.68322e-15
1.87388e-15
1.20645e-15
6.33522e-16
3.24619e-16
1.51109e-16
6.01656e-17
2.1542e-17
7.95481e-18
3.14001e-18
1.16192e-18
6.00751e-19
1.85218e-18
1.76591e-17
2.6249e-16
7.59629e-15
3.77615e-13
1.76008e-11
6.77835e-10
2.25701e-08
7.86907e-07
1.65822e-05
0.000145711
0.000603302
0.00124836
0.00136586
0.00162734
0.00178641
0.00190714
0.00212667
0.00206171
0.00233666
0.00206324
0.00241872
0.00191563
0.00236005
0.00162814
0.00212127
0.00121663
0.00174668
0.00124961
0.000603667
0.00123981
0.00118771
0.000126068
0.00049048
7.09372e-05
6.37263e-07
3.49931e-05
1.60252e-05
3.10694e-10
7.80398e-10
7.24314e-10
3.91688e-10
1.16938e-10
2.39444e-11
3.95446e-12
5.96669e-13
6.21176e-14
9.2474e-15
3.15145e-15
1.92598e-15
9.04072e-16
3.95415e-16
1.45961e-16
5.21589e-17
1.66157e-17
6.60487e-18
2.2735e-18
1.25013e-18
3.13288e-18
2.5665e-17
2.459e-16
5.22999e-15
2.22253e-13
1.07395e-11
4.51506e-10
1.55889e-08
5.04386e-07
1.3136e-05
0.000140811
0.00068113
0.00144836
0.00142804
0.00191358
0.00202026
0.00229161
0.00239939
0.00251577
0.00259783
0.00263378
0.00271645
0.0026827
0.00280357
0.00259505
0.00284956
0.00228328
0.00277443
0.00181445
0.00239111
0.00183516
0.00109181
0.00181104
0.00174307
0.000358882
0.000961725
0.000240553
3.05118e-06
0.000150536
7.40287e-05
1.5941e-09
4.70676e-09
5.34294e-09
3.74485e-09
1.56334e-09
3.74642e-10
6.87213e-11
1.18975e-11
1.07385e-12
9.23973e-14
1.48348e-14
6.06257e-15
3.38385e-15
1.23677e-15
3.48012e-16
1.31413e-16
3.93346e-17
1.18498e-17
4.88409e-18
2.28768e-18
6.22524e-18
3.23751e-17
3.34225e-16
4.48488e-15
1.35745e-13
6.25437e-12
2.80021e-10
1.05417e-08
3.48108e-07
8.9366e-06
0.000127909
0.000671685
0.00184226
0.002069
0.00219982
0.002457
0.00249016
0.00262778
0.00262394
0.00272111
0.00269909
0.00280909
0.0027675
0.00290161
0.00286115
0.0029736
0.00297604
0.0029005
0.00307239
0.00244246
0.00298841
0.00244844
0.00163559
0.00241041
0.00233141
0.000802978
0.00150242
0.000644481
1.64995e-05
0.000459726
0.000291096
5.63338e-09
1.99314e-08
2.75592e-08
2.49807e-08
1.43467e-08
4.91232e-09
1.07044e-09
2.11273e-10
1.83792e-11
1.43098e-12
1.3227e-13
2.73814e-14
1.48186e-14
4.94626e-15
1.35276e-15
3.18207e-16
1.02759e-16
2.83725e-17
9.30073e-18
4.58448e-18
9.22775e-18
6.0783e-17
4.86133e-16
4.43579e-15
9.63785e-14
3.67044e-12
1.6415e-10
6.61647e-09
2.35735e-07
6.1182e-06
0.000102151
0.000634288
0.0018007
0.00250618
0.00249553
0.00249963
0.00251326
0.00261493
0.00259835
0.00265049
0.00257674
0.00266713
0.0024982
0.0027297
0.00248447
0.00287219
0.00260684
0.00303825
0.00284679
0.00315902
0.00309991
0.00303401
0.00324141
0.00303459
0.00222201
0.00299588
0.00291763
0.00136561
0.00210524
0.00123863
0.00024004
0.00107697
0.00111365
1.2049e-08
5.11856e-08
9.09667e-08
1.09204e-07
8.63255e-08
4.38273e-08
1.3292e-08
2.90189e-09
2.90602e-10
2.37893e-11
1.95193e-12
2.19899e-13
6.79883e-14
2.26297e-14
5.06681e-15
1.27927e-15
2.48888e-16
7.00713e-17
2.1634e-17
1.09125e-17
2.18585e-17
9.52803e-17
6.86465e-16
5.4079e-15
8.78648e-14
2.31831e-12
9.55032e-11
3.90632e-09
1.46622e-07
3.93921e-06
7.37692e-05
0.00055382
0.00169575
0.00248248
0.00246379
0.00255936
0.00255996
0.00257913
0.0025658
0.00249177
0.00241123
0.00231314
0.00214302
0.00219512
0.00190923
0.00222465
0.00183529
0.00244843
0.00196538
0.00281976
0.00230911
0.00316906
0.00281845
0.00331462
0.00325365
0.00337107
0.00282176
0.00339878
0.00339193
0.00200882
0.00273926
0.00199363
0.00146346
0.00218146
0.00275974
1.10674e-08
7.75643e-08
1.73106e-07
2.53062e-07
3.01025e-07
2.37198e-07
1.17414e-07
3.36497e-08
4.14964e-09
3.99472e-10
3.42052e-11
3.17018e-12
4.94051e-13
1.04367e-13
2.34007e-14
4.57641e-15
8.60796e-16
2.06837e-16
4.86503e-17
2.0422e-17
4.06379e-17
1.94958e-16
1.20753e-15
8.46967e-15
9.71154e-14
1.79932e-12
5.5414e-11
2.28802e-09
8.26233e-08
2.48685e-06
4.86179e-05
0.000438679
0.00150824
0.00243395
0.00233224
0.00256332
0.00257135
0.00231054
0.00232035
0.00235078
0.00231558
0.00199515
0.0018869
0.00168528
0.00152839
0.0015321
0.00137493
0.00154046
0.00131498
0.00175841
0.00135029
0.00222746
0.0016274
0.00286233
0.00221534
0.00335085
0.00295888
0.00344662
0.00335621
0.00352702
0.00358634
0.00272173
0.00333186
0.00290901
0.00123763
0.00332676
0.00279739
3.85633e-08
2.1713e-07
3.89809e-07
5.62887e-07
6.21636e-07
5.67039e-07
2.64046e-07
3.9588e-08
4.28323e-09
3.98777e-10
3.43842e-11
3.80858e-12
5.3271e-13
1.08609e-13
2.16225e-14
3.64394e-15
7.23929e-16
1.57108e-16
4.78386e-17
6.60916e-17
3.52943e-16
1.97256e-15
1.5776e-14
1.39831e-13
1.78688e-12
3.68622e-11
1.27167e-09
4.88528e-08
1.49437e-06
2.92822e-05
0.000322455
0.00128376
0.00243789
0.00258235
0.00261833
0.00234587
0.00239224
0.00182226
0.00185466
0.00182759
0.00181174
0.00142947
0.00136749
0.00130095
0.00125884
0.00124259
0.00123157
0.00119916
0.00118543
0.0012436
0.00114036
0.00156875
0.00118997
0.00227777
0.00157728
0.00309755
0.00241623
0.00325587
0.00363027
0.00341105
0.00354103
0.00340749
0.00368007
0.00361439
0.000114451
0.00358018
0.00154893
4.82059e-08
3.41537e-07
7.22282e-07
1.10787e-06
1.26392e-06
1.13357e-06
3.00142e-07
3.91748e-08
3.85382e-09
3.11897e-10
2.73335e-11
3.20331e-12
5.18639e-13
1.00718e-13
1.69096e-14
2.13398e-15
4.20123e-16
1.064e-16
1.41449e-16
6.70653e-16
3.45608e-15
2.61032e-14
2.42657e-13
2.21999e-12
3.18586e-11
7.57715e-10
2.71256e-08
9.05391e-07
1.63452e-05
0.000218866
0.00103318
0.002298
0.0025584
0.00259467
0.00244233
0.00251553
0.00191837
0.00200079
0.0013635
0.00142
0.00133229
0.00133717
0.00122302
0.00117972
0.00123873
0.00123992
0.00124985
0.0013721
0.00118741
0.001393
0.00111297
0.00124844
0.00117503
0.00111017
0.00165077
0.00119023
0.00260725
0.00178785
0.0028221
0.00363595
0.00303963
0.00322941
0.00375487
0.00371107
0.00379142
5.52126e-05
0.00338794
0.00119742
5.23925e-08
4.70532e-07
1.23298e-06
1.86563e-06
2.19161e-06
1.38936e-06
2.90232e-07
3.77986e-08
3.07966e-09
2.36867e-10
2.11872e-11
2.74727e-12
4.64944e-13
7.83662e-14
9.47708e-15
1.45779e-15
2.53366e-16
3.21297e-16
1.26326e-15
6.32304e-15
4.4796e-14
3.98923e-13
3.51425e-12
3.4545e-11
5.43774e-10
1.53418e-08
5.37987e-07
8.81185e-06
0.0001384
0.00077451
0.00204219
0.00259362
0.00232127
0.00242542
0.00209868
0.00221055
0.00150664
0.00161535
0.00108698
0.00112951
0.00112509
0.00108545
0.00121791
0.00116205
0.00147607
0.00151266
0.00168496
0.00194151
0.00162018
0.00207585
0.00133825
0.00186188
0.0011225
0.00142048
0.00122995
0.00113704
0.0019782
0.00129844
0.00225049
0.00337258
0.00247608
0.00263968
0.00302553
0.00376019
0.00361669
0.0034271
0.00373595
0.000221465
0.00328725
0.00223026
5.61603e-08
5.78131e-07
1.8574e-06
2.86429e-06
3.09847e-06
1.32535e-06
2.53772e-07
3.14755e-08
2.09705e-09
1.78212e-10
1.60669e-11
2.28411e-12
3.50868e-13
4.45132e-14
4.89593e-15
7.55899e-16
6.7009e-16
2.99242e-15
1.50265e-14
8.5559e-14
7.10212e-13
5.9183e-12
4.79945e-11
5.31192e-10
8.98239e-09
3.01432e-07
6.52686e-06
8.22895e-05
0.000545153
0.00172242
0.00259085
0.00230699
0.0024355
0.00202403
0.00216944
0.00174255
0.00188199
0.00122288
0.0013447
0.00093412
0.000962407
0.0010734
0.000964186
0.00145839
0.00130715
0.00207056
0.00206624
0.00247203
0.00270759
0.0024584
0.00295724
0.00207154
0.00279196
0.00147161
0.0022386
0.00116068
0.0014812
0.0014104
0.00115727
0.00120292
0.0019834
0.00156728
0.00273085
0.00316674
0.00284179
0.00219514
0.00178167
0.00162874
0.00231881
0.00365504
0.00348129
0.00344325
0.00321378
0.00350501
0.00361127
0.0035508
0.00238642
0.00332736
0.00353746
0.00354284
0.00345477
0.00289339
0.00337903
5.78729e-08
6.68991e-07
2.64716e-06
3.97936e-06
3.37945e-06
1.11204e-06
1.73666e-07
1.95467e-08
1.31694e-09
1.2073e-10
1.31864e-11
1.66718e-12
2.02244e-13
2.12485e-14
2.59994e-15
1.40116e-15
5.61198e-15
3.42589e-14
1.83758e-13
1.38527e-12
1.08653e-11
8.11749e-11
6.38776e-10
7.84421e-09
1.38816e-07
3.35352e-06
4.56997e-05
0.000370814
0.0013722
0.00252428
0.00252065
0.00259614
0.0021031
0.00225106
0.00179323
0.00194992
0.00148601
0.00163782
0.00105306
0.00118638
0.000820256
0.000842444
0.00109045
0.00089553
0.00190693
0.00158452
0.00276964
0.00265967
0.00326925
0.00337687
0.00337474
0.00373137
0.00306726
0.00372012
0.00189212
0.00236077
0.00279005
0.00323596
0.00123872
0.00149161
0.00239985
0.00235897
0.00188087
0.00114049
0.00124821
0.00116236
0.001208
0.0013008
0.00243451
0.00292066
0.002556
0.00188587
0.00147361
0.00136082
0.00201493
0.00329725
0.00325311
0.00298505
0.00334966
0.00341927
0.00272284
0.00345295
0.00368504
0.00353223
0.00348366
0.00355873
0.00362407
6.13345e-08
8.88616e-07
3.59573e-06
4.87094e-06
3.25235e-06
8.14885e-07
1.04257e-07
9.32831e-09
6.36886e-10
6.47589e-11
1.02319e-11
9.13832e-13
9.51959e-14
8.94178e-15
3.41272e-15
1.32109e-14
8.64135e-14
5.38747e-13
3.01389e-12
2.21255e-11
1.55118e-10
1.01524e-09
8.24402e-09
1.17183e-07
1.82786e-06
2.46634e-05
0.000242195
0.00104333
0.0023342
0.00266667
0.00238791
0.00250807
0.00197021
0.00211964
0.00165856
0.00181644
0.00133866
0.00149817
0.000938691
0.00108956
0.000705497
0.000719952
0.00117236
0.000832484
0.00232304
0.00180201
0.00326718
0.00292691
0.00384359
0.00372849
0.00411571
0.00422795
0.00357454
0.00392454
0.00412769
0.00433945
0.0028387
0.00328391
0.00367549
0.0014365
0.00183395
0.00285497
0.00284149
0.00232495
0.0011752
0.0011639
0.00117011
0.00137943
0.00118321
0.00214377
0.00265695
0.00226987
0.00159545
0.0012167
0.00127243
0.00172723
0.00304123
0.00309905
0.00273936
0.00316963
0.00325895
0.00112668
0.00283079
0.00370547
0.00336039
0.00345465
0.00352703
0.00367521
8.19285e-08
1.44623e-06
4.59797e-06
5.14164e-06
2.80349e-06
5.23023e-07
5.68439e-08
4.45952e-09
3.10608e-10
3.23961e-11
4.5065e-12
4.12235e-13
3.90797e-14
8.49888e-15
3.61124e-14
2.17784e-13
1.50528e-12
7.33923e-12
5.02753e-11
3.33721e-10
1.96952e-09
1.14661e-08
9.62351e-08
8.61443e-07
1.12328e-05
0.000151503
0.000768897
0.00198978
0.00267362
0.00253001
0.00262787
0.00226148
0.002395
0.00190677
0.00205083
0.00159592
0.00175526
0.0012584
0.00142959
0.000832263
0.00100653
0.000589522
0.000585117
0.00120131
0.000742199
0.00244037
0.00182901
0.0033905
0.00293182
0.00410933
0.00378332
0.004418
0.00447505
0.004454
0.00438077
0.00400061
0.00425619
0.00444174
0.00455797
0.00332114
0.00373519
0.00408091
0.0017698
0.00226973
0.00333308
0.00332395
0.00280633
0.00132326
0.00116006
0.00127967
0.00169091
0.00116093
0.00185712
0.00238311
0.00198757
0.00135616
0.00117493
0.00119431
0.00146542
0.00281062
0.00288299
0.00248038
0.00296925
0.00307303
0.00034026
0.00360022
0.002351
0.00319094
0.0033053
0.00342522
0.00366657
1.44757e-07
2.3602e-06
5.31471e-06
5.00159e-06
1.8801e-06
2.83296e-07
2.67042e-08
2.0012e-09
1.36171e-10
1.93438e-11
1.7571e-12
1.63492e-13
2.26584e-14
7.05213e-14
6.52309e-13
3.70945e-12
1.99078e-11
1.2694e-10
8.01304e-10
4.47213e-09
2.12418e-08
1.13033e-07
7.87633e-07
7.60646e-06
9.10214e-05
0.000535066
0.00161908
0.0026135
0.00271551
0.00244541
0.0025556
0.00218742
0.00231822
0.00188151
0.00202152
0.00156531
0.00172985
0.00119865
0.00138763
0.000706616
0.000903566
0.000464636
0.000449916
0.00114487
0.000628756
0.00236334
0.00169046
0.00329692
0.0026984
0.00425657
0.00404624
0.00364375
0.00460991
0.00460772
0.00454826
0.00443238
0.00435155
0.00454821
0.00467501
0.00473433
0.00377283
0.00414029
0.00442858
0.00219265
0.00274654
0.0037871
0.00378037
0.00328883
0.00159927
0.00123566
0.00150741
0.00209609
0.0012017
0.00159418
0.00210977
0.00172318
0.00122522
0.00118678
0.00117185
0.00127651
0.00256827
0.0026592
0.00222085
0.00276161
0.00287975
0.000300527
0.00354403
0.00227032
0.00301575
0.00317288
0.00337756
0.0036701
2.93564e-07
3.37294e-06
5.48951e-06
4.32835e-06
1.06773e-06
1.29073e-07
1.12494e-08
8.022e-10
5.46888e-11
6.9517e-12
6.45943e-13
6.78342e-14
1.34358e-13
1.18958e-12
9.80345e-12
6.50784e-11
3.5184e-10
2.10968e-09
1.15432e-08
4.93136e-08
1.82917e-07
8.15886e-07
4.71242e-06
5.27514e-05
0.000366039
0.0012822
0.00243687
0.0027929
0.00261839
0.00270373
0.00239344
0.00250283
0.0021519
0.00227525
0.00186131
0.00200185
0.00152827
0.00170409
0.00112188
0.00133339
0.00055696
0.000763972
0.000336446
0.000317284
0.000976518
0.000489392
0.00205298
0.0013752
0.00296124
0.00224169
0.00425593
0.00403602
0.00321411
0.00363784
0.0047386
0.00470266
0.00459651
0.00443962
0.00463818
0.00477539
0.00484489
0.00485698
0.00417934
0.00448766
0.00471231
0.00266204
0.00322845
0.00419697
0.00419415
0.003748
0.00198084
0.00141319
0.00185308
0.00255515
0.00132856
0.00136978
0.00185211
0.00149498
0.00117348
0.00125388
0.00119264
0.00118161
0.00232845
0.00244044
0.00197798
0.00256111
0.00270002
0.000499429
0.00356038
0.00270022
0.00286739
0.00308165
0.00338319
0.00369449
6.41943e-07
4.16234e-06
5.1995e-06
2.84637e-06
4.83118e-07
5.20395e-08
4.24296e-09
2.79241e-10
2.97915e-11
2.39939e-12
2.22201e-13
2.40632e-13
2.37239e-12
2.05711e-11
1.84981e-10
9.94735e-10
6.06027e-09
3.22437e-08
1.3431e-07
4.35762e-07
1.02855e-06
3.35712e-06
2.85281e-05
0.000243037
0.000982854
0.00213454
0.00277886
0.00278672
0.00256342
0.002653
0.00235774
0.00246162
0.00212922
0.00224707
0.00181517
0.00196399
0.00144793
0.00164379
0.000998523
0.00123025
0.000393668
0.000584356
0.000209474
0.000190417
0.000716734
0.000330206
0.001598
0.000979625
0.00287481
0.00240725
0.00164525
0.0020982
0.00423092
0.00395745
0.00308656
0.00349213
0.00483287
0.00475229
0.0046128
0.00442615
0.00486077
0.00494235
0.00496294
0.0049491
0.00452841
0.00477083
0.00493214
0.00314385
0.0036918
0.00455008
0.00455334
0.00416787
0.00242408
0.00171174
0.00227026
0.00303487
0.00155396
0.00122554
0.00162782
0.00131971
0.0011506
0.00138927
0.001257
0.00114635
0.00210526
0.00223891
0.00176684
0.00238233
0.00255083
0.000949849
0.00368028
0.00328993
0.00276226
0.00304221
0.00341136
0.00373676
1.41438e-06
4.34284e-06
4.05126e-06
1.4202e-06
1.92797e-07
1.88939e-08
1.39805e-09
8.80601e-11
9.31421e-12
7.64187e-13
4.22081e-13
3.97588e-12
4.5231e-11
3.6387e-10
2.57745e-09
1.8136e-08
9.25189e-08
4.43043e-07
9.91688e-07
1.552e-06
3.5033e-06
1.68493e-05
0.000152057
0.000728028
0.00181
0.00270652
0.00286765
0.00268719
0.00275684
0.0025094
0.00259579
0.00231803
0.0024164
0.0020946
0.00221158
0.00170949
0.00187871
0.00129325
0.00151383
0.000815931
0.00105586
0.000232743
0.000376259
0.000100981
8.6745e-05
0.000445476
0.00018357
0.00113101
0.000617995
0.00265047
0.00223634
0.00154198
0.00185767
0.00417411
0.00386106
0.00292535
0.00336121
0.00488769
0.00477386
0.0046079
0.00438774
0.00502498
0.00505557
0.00505057
0.00500534
0.00481342
0.00498987
0.00509392
0.00361223
0.00411956
0.0048394
0.00484936
0.00453578
0.00289795
0.00208156
0.0027247
0.00350874
0.00184733
0.00115457
0.00145431
0.00121008
0.00117322
0.00159999
0.00138289
0.00112924
0.00191239
0.00206727
0.00159838
0.00223784
0.00244274
0.00276336
0.00381093
0.00381246
0.00270344
0.00304454
0.00345095
0.00379121
2.63757e-06
3.87034e-06
2.35686e-06
5.87633e-07
6.90693e-08
6.05843e-09
3.99244e-10
3.95742e-11
2.81442e-12
7.62804e-13
6.06309e-12
7.11891e-11
7.21577e-10
6.3895e-09
4.70128e-08
3.0574e-07
1.189e-06
2.13962e-06
3.12497e-06
4.83935e-06
1.46772e-05
9.3592e-05
0.000510229
0.0015001
0.00253615
0.00288089
0.00281353
0.0026031
0.00267143
0.00244156
0.00252348
0.00225663
0.00235319
0.0020237
0.00214826
0.00151731
0.00171542
0.00105316
0.00129365
0.000581653
0.000810424
0.000101568
0.000176942
5.56347e-05
4.29258e-05
0.00025179
0.00010596
0.00103673
0.000739634
0.000575832
0.0003507
0.00247514
0.00203661
0.00130766
0.0016416
0.00410466
0.00376047
0.00277392
0.00323002
0.00491401
0.00477616
0.00458956
0.00433814
0.00513453
0.00513743
0.00510525
0.00503367
0.00503363
0.0051498
0.00519984
0.00404993
0.00449861
0.00506333
0.00507917
0.00484205
0.0033736
0.00248575
0.00318946
0.00395712
0.00218115
0.00112863
0.00133072
0.00116265
0.00122356
0.00184665
0.00154669
0.0011437
0.00175956
0.00193501
0.00148148
0.00213487
0.00237908
0.00217009
0.00393835
0.00375099
0.00268981
0.00306795
0.00349861
0.00383972
3.08112e-06
2.6156e-06
1.14386e-06
2.08987e-07
2.19627e-08
1.69084e-09
1.12781e-10
1.08544e-11
1.46087e-12
8.19565e-12
1.09857e-10
1.32356e-09
1.33262e-08
1.03143e-07
7.68469e-07
2.77855e-06
5.35547e-06
8.14211e-06
1.01574e-05
1.67727e-05
6.76974e-05
0.000357379
0.00122163
0.00228852
0.0028576
0.00287186
0.00264405
0.00271173
0.0025026
0.00257077
0.00234814
0.00242857
0.00215345
0.00225765
0.00188638
0.00203107
0.00122907
0.00145471
0.000745656
0.000987026
0.000326885
0.000522369
4.42015e-05
6.83175e-05
4.47059e-05
2.76702e-05
0.000251048
0.000144379
8.78608e-05
0.00088545
0.000668236
0.000489665
0.00034515
0.0023127
0.00187511
0.00115785
0.00148628
0.00402798
0.00365579
0.00263434
0.00310871
0.00492188
0.00476693
0.0045574
0.00428774
0.00520771
0.00519319
0.00513249