/*--------------------------------*- C++ -*----------------------------------*\
  =========                 |
  \\      /  F ield         | OpenFOAM: The Open Source CFD Toolbox
   \\    /   O peration     | Website:  https://openfoam.org
    \\  /    A nd           | Version:  dev
     \\/     M anipulation  |
\*---------------------------------------------------------------------------*/
FoamFile
{
    version     2.0;
    format      ascii;
    class       volScalarField;
    location    "2500";
    object      k;
}
// * * * * * * * * * * * * * * * * * * * * * * * * * * * * * * * * * * * * * //

dimensions      [0 2 -2 0 0 0 0];

internalField   nonuniform List<scalar> 
9978
(
0.000161668
0.000167996
0.000150575
0.000145097
0.000208339
0.000120738
0.000121623
0.000222672
0.000183093
0.000108418
0.000112461
0.000213098
0.000219253
0.000140064
0.00010506
0.000106551
0.000185776
0.000240076
0.000185917
0.000118463
0.000103231
0.000103326
0.000152554
0.000242445
0.000223788
0.000143019
0.000110125
0.000102051
0.000101463
0.000132658
0.000232671
0.000241651
0.000179569
0.000120821
0.000106029
0.000101231
0.000100361
0.000119549
0.000207301
0.000253995
0.000217438
0.000140738
0.000111447
0.000103535
0.00010066
9.94646e-05
0.000110885
0.00017381
0.000253448
0.00024217
0.000169566
0.000120747
0.000106467
0.000101967
0.00010028
9.8788e-05
0.000105729
0.000146067
0.000243793
0.000253473
0.000204369
0.000136583
0.000111298
0.000103435
0.000100861
9.99964e-05
9.8383e-05
0.000102707
0.000129021
0.000220494
0.000262217
0.000233774
0.000160344
0.000119524
0.000106052
0.000101575
0.000100073
9.97676e-05
9.81614e-05
0.000100969
0.000117775
0.000187419
0.000261427
0.000252605
0.000190053
0.000132105
0.000110682
0.000102874
0.000100305
9.93127e-05
9.96295e-05
9.80456e-05
9.99581e-05
0.000110932
0.000156984
0.000252117
0.00026219
0.000220841
0.000151762
0.000117632
0.000105483
0.000100872
9.92677e-05
9.87573e-05
9.95097e-05
9.79978e-05
9.9362e-05
0.000106833
0.000137243
0.000229719
0.000269892
0.000245604
0.000176945
0.000128245
0.000109965
0.000102145
9.94385e-05
9.82295e-05
9.83972e-05
9.93963e-05
9.8016e-05
9.9023e-05
0.000104406
0.000124419
0.000196246
0.000268597
0.000261774
0.000206525
0.000143882
0.00011608
0.000104935
0.000100028
9.82383e-05
9.74247e-05
9.81148e-05
9.92927e-05
9.80762e-05
9.88521e-05
0.000102956
0.000116524
0.000165049
0.000258565
0.000271459
0.000234784
0.000166448
0.000124833
0.000109269
0.000101466
9.84968e-05
9.71592e-05
9.68405e-05
9.7866e-05
9.92036e-05
9.81515e-05
9.87841e-05
0.000102031
0.000111908
0.00014373
0.000234263
0.000277538
0.000257444
0.000192645
0.000137947
0.000114789
0.000104607
9.92703e-05
9.72623e-05
9.62148e-05
9.63912e-05
9.76455e-05
9.91302e-05
9.82489e-05
9.87645e-05
0.000101425
0.000109129
0.000130676
0.000200473
0.000274829
0.000271221
0.000222329
0.000157084
0.00012219
0.000108664
0.000101148
9.76822e-05
9.62136e-05
9.54344e-05
9.60437e-05
9.74422e-05
9.90746e-05
9.83657e-05
9.87895e-05
0.000101042
0.000107227
0.00012298
0.000170389
0.000262634
0.000280763
0.000248699
0.000181905
0.000133411
0.000113834
0.000104295
9.87329e-05
9.64411e-05
9.52829e-05
9.48196e-05
9.57637e-05
9.72564e-05
9.90372e-05
9.84646e-05
9.8856e-05
0.000100804
0.000105968
0.000118398
0.000149528
0.000234808
0.000284275
0.000269177
0.000209464
0.000149889
0.000120312
0.000108291
0.00010107
9.71042e-05
9.54187e-05
9.44528e-05
9.43468e-05
9.55232e-05
9.71099e-05
9.90147e-05
9.85472e-05
9.8918e-05
0.00010066
0.000105127
0.000115125
0.000136924
0.0002003
0.000279441
0.000280776
0.000238651
0.000172712
0.000129935
0.000112975
0.000104126
9.86866e-05
9.5874e-05
9.45268e-05
9.37367e-05
9.4012e-05
9.53038e-05
9.70263e-05
9.89967e-05
9.86373e-05
9.89709e-05
0.000100563
0.000104508
0.000112592
0.000129533
0.000171637
0.000263538
0.000289997
0.00026372
0.000199063
0.000144378
0.000118808
0.000107964
0.000101132
9.69439e-05
9.48532e-05
9.37551e-05
9.31762e-05
9.37916e-05
9.5105e-05
9.70078e-05
9.90081e-05
9.8727e-05
9.90303e-05
0.000100488
0.000104014
0.000110662
0.00012465
0.000152611
0.000230874
0.00029033
0.00028125
0.000228372
0.000164711
0.000126955
0.000112075
0.000104308
9.89348e-05
9.56116e-05
9.39948e-05
9.31301e-05
9.27891e-05
9.3629e-05
9.5023e-05
9.70658e-05
9.90544e-05
9.88045e-05
9.90831e-05
0.000100418
0.000103572
0.00010935
0.000120795
0.000141237
0.000196402
0.000282598
0.000292107
0.000256292
0.000190181
0.000139707
0.000117419
0.000107722
0.000101564
9.71939e-05
9.45899e-05
9.33122e-05
9.26374e-05
9.25687e-05
9.35502e-05
9.51306e-05
9.72163e-05
9.91433e-05
9.88654e-05
9.91197e-05
0.000100359
0.00010313
0.000108458
0.000117627
0.000134312
0.000170137
0.000260594
0.000298965
0.000279536
0.00021799
0.000157697
0.000124663
0.000111844
0.000104579
9.94192e-05
9.58191e-05
9.38205e-05
9.27879e-05
9.23287e-05
9.2548e-05
9.36335e-05
9.54228e-05
9.75191e-05
9.92896e-05
9.88916e-05
9.91346e-05
0.000100282
0.000102711
0.000107645
0.000115225
0.000129314
0.000153395
0.000224775
0.000296479
0.000293749
0.000248356
0.000181731
0.000135856
0.000116634
0.000107893
0.000102053
9.77258e-05
9.48389e-05
9.32397e-05
9.246e-05
9.22538e-05
9.27332e-05
9.39848e-05
9.59535e-05
9.80467e-05
9.95174e-05
9.88849e-05
9.91139e-05
0.000100169
0.00010237
0.000106756
0.000113474
0.000125036
0.000143301
0.000191566
0.000284173
0.000304825
0.000275135
0.00020899
0.000152265
0.000123469
0.0001117
0.00010489
0.000100001
9.64626e-05
9.41763e-05
9.28709e-05
9.23772e-05
9.24726e-05
9.32276e-05
9.47276e-05
9.68537e-05
9.8881e-05
9.98943e-05
9.88727e-05
9.90567e-05
0.000100033
0.000102053
0.000105862
0.000112038
0.000121426
0.0001368
0.000168206
0.00025498
0.000307511
0.000295422
0.000239166
0.000174184
0.000132948
0.000116197
0.000108123
0.000102589
9.84278e-05
9.55781e-05
9.37493e-05
9.27758e-05
9.26186e-05
9.30887e-05
9.41591e-05
9.59722e-05
9.83237e-05
0.000100046
0.000100351
9.88437e-05
9.89768e-05
9.98745e-05
0.000101727
0.000105094
0.000110643
0.000118593
0.000131857
0.000153506
0.000216889
0.000301587
0.000307865
0.000269388
0.000201089
0.000147695
0.000122116
0.000111561
0.00010535
0.000100826
9.73232e-05
9.50683e-05
9.36264e-05
9.30561e-05
9.32815e-05
9.4216e-05
9.57568e-05
9.80036e-05
0.000100543
0.000102004
0.000100938
9.87915e-05
9.88625e-05
9.96619e-05
0.000101362
0.000104484
0.000109335
0.000116269
0.000127754
0.00014445
0.000185734
0.000283063
0.000317352
0.000294914
0.000229857
0.000167317
0.00013065
0.00011593
0.000108276
0.000103299
9.95704e-05
9.66839e-05
9.49439e-05
9.39624e-05
9.37958e-05
9.45099e-05
9.59656e-05
9.81945e-05
0.000101135
0.000103882
0.000104902
0.000101826
9.8776e-05
9.86733e-05
9.93757e-05
0.000100947
0.00010389
0.000108227
0.000114316
0.000124199
0.000138652
0.000165348
0.000245283
0.000316069
0.000311535
0.000262591
0.000192736
0.000143099
0.000121005
0.000111762
0.00010595
0.000101909
9.87789e-05
9.65443e-05
9.52783e-05
9.48099e-05
9.5191e-05
9.65166e-05
9.87015e-05
0.000101874
0.00010558
0.000108648
0.00010879
0.000102971
9.87809e-05
9.83672e-05
9.90444e-05
0.000100497
0.00010317
0.00010725
0.000112708
0.000121037
0.000134437
0.000152803
0.000206772
0.000304822
0.000324464
0.000291696
0.000221298
0.00016139
0.000128645
0.000115477
0.000108869
0.000104417
0.00010103
9.85203e-05
9.68985e-05
9.61816e-05
9.63487e-05
9.75382e-05
9.96737e-05
0.000102937
0.000107178
0.000111601
0.000114593
0.000112393
0.000103839
9.87529e-05
9.79922e-05
9.86264e-05
9.998e-05
0.000102353
0.000106341
0.000111242
0.000118394
0.000130619
0.000145482
0.000179445
0.000276376
0.000328786
0.000314682
0.000253395
0.000184197
0.000139345
0.000120483
0.000112025
0.00010697
0.000103468
0.00010073
9.88594e-05
9.78467e-05
9.78804e-05
9.89345e-05
0.000101149
0.000104481
0.000108863
0.000113832
0.000117945
0.00011885
0.000115236
0.000104204
9.86871e-05
9.76266e-05
9.81235e-05
9.93593e-05
0.000101446
0.000105367
0.000109796
0.000116277
0.000126756
0.000140901
0.000162573
0.000233204
0.000323338
0.000328532
0.000286962
0.000213161
0.000155383
0.000126555
0.000115676
0.000109652
0.000105907
0.000103138
0.000101052
9.98841e-05
9.97447e-05
0.000100748
0.000103028
0.000106452
0.00011083
0.000115627
0.000119394
0.000121853
0.000121902
0.000113173
0.000118753
0.000100909
0.000113938
0.000106715
9.86194e-05
9.73174e-05
9.7565e-05
9.86488e-05
0.000100549
0.000104239
0.000108467
0.000114339
0.000123277
0.000136881
0.000152397
0.000197384
0.000305303
0.000340311
0.00031488
0.00024349
0.00017675
0.000136394
0.000119721
0.000112595
0.000108302
0.000105532
0.000103462
0.000102153
0.000101949
0.000103023
0.00010529
0.000108962
0.00011302
0.000117056
0.000120383
0.000123327
0.000124925
0.000122334
0.00012478
0.000120112
0.000100762
0.000115108
0.000106624
9.85568e-05
9.69649e-05
9.6833e-05
9.78843e-05
9.96497e-05
0.000102948
0.000107305
0.000112389
0.000120467
0.000132774
0.000146295
0.000174665
0.00026605
0.000339775
0.000333957
0.000279958
0.000203154
0.000149724
0.000125464
0.000115733
0.00011082
0.00010783
0.000105851
0.000104624
0.000104396
0.000105571
0.000108124
0.000111466
0.000115592
0.000118604
0.000121789
0.000124566
0.000125217
0.000125723
0.000126084
0.000125957
0.00012714
0.000124126
0.000126603
0.000121636
0.000100438
0.000115342
0.000106304
9.85007e-05
9.65737e-05
9.60768e-05
9.70323e-05
9.86754e-05
0.000101595
0.000106081
0.000110487
0.000118071
0.000129027
0.000141753
0.000160508
0.000221148
0.000329165
0.000348568
0.000311943
0.000234582
0.000169531
0.000133226
0.000119415
0.000113421
0.000110083
0.000108143
0.000107059
0.000107067
0.000108314
0.000111113
0.000114641
0.000117945
0.000121772
0.000125845
0.000129035
0.000126768
0.000129794
0.000127541
0.000127764
0.000128883
0.000129192
0.000125693
0.000127739
0.000121919
0.000100307
0.000115856
0.000106139
9.84541e-05
9.61937e-05
9.53961e-05
9.61482e-05
9.76711e-05
0.00010023
0.00010468
0.000108916
0.00011571
0.000125919
0.000137901
0.000151352
0.0001901
0.000301444
0.000355505
0.000338194
0.000268457
0.000193614
0.000145497
0.00012417
0.000116203
0.000112284
0.000110284
0.00010936
0.000109692
0.000111198
0.000114095
0.00011754
0.000122218
0.000128929
0.000142591
0.000157658
0.000139131
0.000168568
0.000131808
0.000146358
0.000133753
0.000129358
0.000134164
0.000134365
0.000125958
0.00012815
0.000122592
0.000100612
0.000116555
0.000106852
9.84221e-05
9.58848e-05
9.47529e-05
9.51516e-05
9.66126e-05
9.89704e-05
0.000103133
0.000107479
0.000113523
0.000123201
0.000134654
0.000145545
0.000170225
0.000253085
0.000350681
0.00035364
0.000307366
0.000224264
0.000161889
0.000131015
0.000119367
0.000114547
0.000112177
0.000111429
0.000112042
0.000113952
0.00011709
0.000120711
0.000126388
0.00014697
0.000199665
0.000305967
0.000244495
0.000426805
0.000192663
0.000319481
0.000152799
0.000218423
0.000156235
0.000133091
0.000157708
0.000155202
0.000126397
0.000131108
0.000123301
0.000101269
0.000117897
0.000109148
9.84571e-05
9.57582e-05
9.42056e-05
9.42206e-05
9.55063e-05
9.77265e-05
0.000101446
0.000105928
0.000111569
0.000120772
0.000131824
0.000141755
0.000157585
0.000211012
0.000332764
0.000369054
0.00033768
0.000257858
0.00018501
0.000141022
0.000123303
0.000116817
0.000113948
0.000113138
0.000114018
0.000116408
0.000119982
0.000124012
0.000134676
0.000177167
0.00035048
0.000746233
0.000775657
0.00144463
0.000618742
0.00122476
0.000403223
0.000849282
0.000239305
0.00048679
0.000251616
0.000150003
0.000250956
0.000238527
0.000128212
0.000143093
0.000124212
0.000102304
0.000120479
0.000114654
9.86511e-05
9.58457e-05
9.38139e-05
9.35071e-05
9.45237e-05
9.6527e-05
9.98218e-05
0.000104322
0.000109651
0.000118725
0.000129231
0.000138987
0.000149749
0.000183615
0.000293834
0.000370185
0.000361759
0.000297354
0.000212486
0.000155567
0.000129036
0.000119309
0.000115634
0.000114582
0.00011548
0.000118388
0.000122568
0.000126852
0.000144168
0.000243964
0.000594876
0.00164949
0.00221318
0.00332953
0.00218663
0.00334866
0.00172592
0.00296938
0.00109125
0.00223016
0.000554514
0.00130911
0.000586213
0.000216443
0.000576247
0.00052619
0.000136207
0.000189666
0.000130139
0.000104493
0.000125459
0.00012746
9.89608e-05
9.63561e-05
9.38409e-05
9.32003e-05
9.37846e-05
9.54768e-05
9.84804e-05
0.000102511
0.000107752
0.000116561
0.000126992
0.000136716
0.000144891
0.000166233
0.00024156
0.000361219
0.000377061
0.000335741
0.000246799
0.000175592
0.000137138
0.000122591
0.000117312
0.000115849
0.000116461
0.000119708
0.00012454
0.000129204
0.000149058
0.000307277
0.00103908
0.00282531
0.00425019
0.00544172
0.00463914
0.00577588
0.00432943
0.00562261
0.00366006
0.00506036
0.00265646
0.00416665
0.00145415
0.00294828
0.00149871
0.000446303
0.00144501
0.00129813
0.000165824
0.000351325
0.000149673
0.000103698
0.00014577
0.00012998
0.000100036
9.80914e-05
9.53557e-05
9.37609e-05
9.354e-05
9.47225e-05
9.73616e-05
0.000100827
0.000106373
0.00011421
0.000124814
0.000134693
0.000141746
0.000155451
0.000203892
0.00033557
0.000390179
0.00036456
0.0002839
0.000201613
0.000149604
0.000126921
0.000119238
0.000116857
0.000117179
0.000120349
0.000126066
0.000130785
0.000149714
0.000344299
0.00134789
0.00419838
0.00627052
0.00730348
0.00685856
0.00767986
0.00671247
0.00758951
0.00624858
0.00719107
0.00549905
0.00655866
0.00446173
0.00570388
0.00307448
0.00457205
0.00305647
0.00108706
0.00291932
0.00266278
0.000268945
0.000842454
0.000220961
0.000105212
0.00019667
0.000152886
0.000101409
0.000100988
9.85221e-05
9.57231e-05
9.43047e-05
9.46533e-05
9.65871e-05
9.96527e-05
0.000105134
0.000112338
0.000122134
0.000132881
0.000140071
0.000148539
0.000179606
0.000288137
0.000388068
0.000386179
0.000327345
0.000233485
0.000166729
0.000133746
0.000121476
0.000117805
0.000117741
0.000120336
0.000126317
0.000132213
0.000147849
0.000341496
0.00162149
0.0050979
0.0078163
0.00866404
0.00835154
0.00885273
0.00825778
0.00877646
0.0079161
0.0084923
0.00736911
0.00805222
0.00665441
0.00742748
0.00574648
0.00664211
0.00453952
0.00568355
0.00440741
0.0023043
0.0042014
0.00393573
0.000610938
0.00187823
0.000448314
0.000114
0.000352873
0.000267486
0.000103597
0.00010667
0.000104257
0.000100315
9.70109e-05
9.58276e-05
9.68445e-05
9.93324e-05
0.000104155
0.000111525
0.000119348
0.000130837
0.000139438
0.000144532
0.000163899
0.00023592
0.000374167
0.000402016
0.000364313
0.000270956
0.000190433
0.000143529
0.000124953
0.000118741
0.000118107
0.000120139
0.000126006
0.000133236
0.000145715
0.000320635
0.00170959
0.00605954
0.00889244
0.00941126
0.00927367
0.00962132
0.00920343
0.00955693
0.00902897
0.00955223
0.00872848
0.00949124
0.00820152
0.00917182
0.00744738
0.00845509
0.00657078
0.00748138
0.00555331
0.0064614
0.00537773
0.00360767
0.00517468
0.00494818
0.00145847
0.00325172
0.00110668
0.00013583
0.000869199
0.000776988
0.000108535
0.00011963
0.000118838
0.000111787
0.000104343
9.99824e-05
9.88934e-05
0.000100039
0.000104219
0.000110969
0.000117405
0.000127855
0.00013921
0.000143393
0.000154065
0.000201662
0.000341737
0.000413478
0.000392109
0.000313575
0.000219654
0.000158546
0.000129898
0.000120265
0.000118088
0.000119671
0.000125149
0.000133154
0.000144746
0.000274662
0.00163071
0.00655351
0.0101689
0.00985856
0.0101742
0.00988714
0.0101394
0.0100876
0.0106143
0.0103899
0.0112877
0.0103441
0.0117795
0.00982791
0.0116077
0.00873708
0.0106031
0.00746332
0.00906769
0.00632518
0.0074165
0.00615656
0.00471238
0.00596642
0.00578157
0.00291895
0.00451209
0.00264133
0.00031204
0.00235558
0.00342885
0.000120874
0.000151848
0.00015772
0.000145443
0.000126886
0.00011255
0.000105223
0.000102838
0.000105224
0.000110869
0.000116568
0.000124447
0.00013919
0.000143885
0.000149246
0.000178803
0.00029229
0.000409367
0.000412305
0.000358459
0.000256052
0.000178545
0.000138183
0.000122356
0.000118079
0.000119057
0.000123547
0.000132545
0.00014352
0.000238743
0.00141649
0.00645856
0.0105364
0.0106486
0.0107113
0.0103925
0.0105258
0.0110936
0.0115177
0.0122551
0.0130899
0.0132106
0.0142959
0.0134995
0.0147032
0.0129396
0.0146567
0.0113891
0.0140014
0.00924567
0.01201
0.00730488
0.00924891
0.00711524
0.00563865
0.00688927
0.00665995
0.00442678
0.00559193
0.00461915
0.00491739
0.00564404
0.0140993
0.000144929
0.000217274
0.000247089
0.000232559
0.00019197
0.000151335
0.000123307
0.00011036
0.000108222
0.000111545
0.000116211
0.00012214
0.000137764
0.000146334
0.00014841
0.000165094
0.000240907
0.000393238
0.000428374
0.000393472
0.000296647
0.000205776
0.000149823
0.000126395
0.000118385
0.000118342
0.00012191
0.000131045
0.000141637
0.000210331
0.00111974
0.0060788
0.0108981
0.0107322
0.01073
0.0121302
0.012104
0.011828
0.012044
0.0137537
0.0142425
0.0148918
0.0152184
0.0152023
0.0154125
0.015253
0.0154267
0.0152068
0.0154784
0.0145767
0.0154585
0.0122949
0.0148462
0.00909148
0.0122322
0.00877926
0.00649244
0.00836012
0.00790191
0.00579773
0.00648496
0.0068313
0.0217056
0.0106739
0.027044
0.000139909
0.000243556
0.000308606
0.000341059
0.000322034
0.000249926
0.000178116
0.000130868
0.000115428
0.00011389
0.000116673
0.000120868
0.000134418
0.000150629
0.00015001
0.000158976
0.000207707
0.000359716
0.000440878
0.000419861
0.000342063
0.000238324
0.000167573
0.000132197
0.000119506
0.000117277
0.000120074
0.000128321
0.000138761
0.000187248
0.000834474
0.00523453
0.010944
0.0106449
0.0106941
0.012017
0.0118379
0.0148615
0.0148441
0.0145671
0.0147749
0.0153919
0.0155524
0.0154332
0.0153349
0.0151519
0.0145222
0.0150312
0.0138895
0.0153351
0.0140212
0.015587
0.0149505
0.0148946
0.0155968
0.0118702
0.0147497
0.011312
0.0075136
0.0106044
0.00979906
0.0068841
0.00729951
0.00831258
0.0157817
0.0118789
0.0203577
0.00016381
0.000290127
0.000371226
0.000407376
0.000397374
0.000300762
0.000189059
0.000134248
0.000119907
0.000118369
0.000121061
0.00013042
0.000152403
0.000155363
0.000158391
0.000188693
0.000311794
0.000437277
0.000440547
0.000386782
0.00027769
0.000190399
0.000142118
0.000121968
0.000116774
0.000118351
0.000124798
0.000135452
0.000168654
0.000596101
0.00412999
0.0108462
0.0105752
0.0115744
0.0113582
0.014738
0.014489
0.0159944
0.0161633
0.0156963
0.0158381
0.0151764
0.0150108
0.013704
0.0129325
0.0123534
0.0109737
0.0119807
0.010172
0.0128588
0.0104013
0.0145398
0.0119127
0.0155283
0.0143101
0.0144019
0.015407
0.01386
0.00900091
0.0130995
0.0121655
0.00737562
0.0082781
0.00825177
0.00152663
0.0109989
0.0167792
0.000148324
0.000281954
0.000401934
0.000458223
0.000446646
0.00031889
0.000187482
0.00013456
0.000122726
0.000122232
0.000129056
0.000151265
0.000162061
0.000161317
0.000179976
0.000267103
0.000423533
0.000457933
0.000421224
0.000319971
0.000220798
0.00015603
0.000126913
0.000116973
0.000117022
0.000121679
0.000132409
0.000155495
0.000419501
0.00307747
0.0104768
0.0103098
0.013044
0.0120329
0.0141021
0.0135197
0.0163293
0.0164544
0.0154031
0.0158293
0.0150085
0.0151186
0.0122958
0.0119322
0.0099156
0.00913046
0.00914872
0.0085699
0.0090377
0.00857217
0.00941701
0.00856131
0.011342
0.00894843
0.0142611
0.0111214
0.0151765
0.0143264
0.0148703
0.0110247
0.0144909
0.0139371
0.00778768
0.00974415
0.00841893
0.000881729
0.0121855
0.0165778
0.000131217
0.000245772
0.000409675
0.000492022
0.00047448
0.00031384
0.000178548
0.000133306
0.000125371
0.000129373
0.000148561
0.000166664
0.000168317
0.000178994
0.000236558
0.000395925
0.000472141
0.000448327
0.000366105
0.000255666
0.00017636
0.000134392
0.000118131
0.000115716
0.000118939
0.000128834
0.000146175
0.000301779
0.00216565
0.00944592
0.01043
0.0123375
0.0156899
0.0154622
0.0164509
0.016284
0.0163053
0.0167573
0.0126859
0.0135256
0.0119167
0.0121333
0.00855171
0.00816303
0.00809885
0.00761329
0.00835222
0.00812036
0.00843752
0.00855901
0.00837295
0.0085301
0.00873387
0.00828695
0.0111863
0.0086591
0.0144672
0.0115221
0.0145868
0.0128644
0.0146229
0.0144736
0.0141021
0.00904723
0.0104661
0.0119525
0.00985387
0.00275496
0.013887
0.0259136
0.000120668
0.00020895
0.000417952
0.000522498
0.00048021
0.000290457
0.000159958
0.000132812
0.000130965
0.000145881
0.000169998
0.000174793
0.000182387
0.000223598
0.000364472
0.00047695
0.000470579
0.000410912
0.000296348
0.000202252
0.000146126
0.000121308
0.00011525
0.000116806
0.000124681
0.000138757
0.00022896
0.00140927
0.00784438
0.0107778
0.0111035
0.0169503
0.0159764
0.0174972
0.0174001
0.0171491
0.0174086
0.014499
0.0155015
0.0093216
0.0104744
0.00813674
0.00850263
0.00709655
0.00657778
0.0077907
0.00734251
0.00866789
0.00858502
0.00921109
0.00987943
0.00878594
0.0100301
0.00823159
0.00906636
0.00868806
0.00818551
0.0123883
0.00880383
0.0102869
0.014028
0.0128666
0.0142656
0.0131687
0.0139207
0.0142502
0.0134018
0.0130111
0.0142385
0.0101319
0.0112452
0.0115314
0.0126736
0.0112224
0.011336
0.0114618
0.0309412
0.0155861
0.0125566
0.0119305
0.0145868
0.0280675
0.0191647
0.000114018
0.00019962
0.000451166
0.000565752
0.000460548
0.000234386
0.000147884
0.000135242
0.000143649
0.000172589
0.000181398
0.000189264
0.000220699
0.000336372
0.000474512
0.000491686
0.000447498
0.000339
0.000234481
0.000163292
0.000128199
0.000115589
0.00011581
0.000121012
0.000132691
0.0001864
0.000871701
0.00573429
0.0107755
0.0103761
0.0148431
0.0132786
0.0183823
0.0182472
0.0178646
0.0182416
0.0164498
0.0172526
0.0118398
0.0132766
0.00659352
0.00778818
0.00612473
0.00602131
0.00680312
0.00618103
0.00824456
0.00770676
0.0100992
0.00989145
0.0111705
0.0116335
0.0107091
0.0121278
0.00857535
0.00932389
0.0101241
0.0109849
0.00814708
0.00809927
0.00926043
0.0091765
0.00842626
0.0087324
0.0107359
0.00914386
0.00806753
0.0111382
0.0141017
0.0135525
0.0138461
0.0134887
0.0119276
0.011466
0.0136018
0.0120082
0.0122709
0.013167
0.0119297
0.0118888
0.0600535
0.0635739
0.0250559
0.0117979
0.0117427
0.0126565
0.0141369
0.00011112
0.000217592
0.000535514
0.000587717
0.00039037
0.000188785
0.000145907
0.00014483
0.000173408
0.000189243
0.000196171
0.000223197
0.000319608
0.000469559
0.000512678
0.000478038
0.000385845
0.000271412
0.000186509
0.000138596
0.00011757
0.000115854
0.000118922
0.000128078
0.000161769
0.000551401
0.00374807
0.010526
0.0100038
0.0130258
0.0176496
0.0172273
0.0186615
0.0190843
0.0170808
0.0179771
0.0146799
0.0159614
0.00931111
0.010974
0.00501248
0.00586504
0.00544602
0.00488958
0.00700664
0.00618667
0.00931133
0.00839749
0.0114987
0.0108084
0.0128644
0.0128962
0.0116818
0.0124508
0.0129391
0.0134686
0.0101089
0.0109607
0.011749
0.00793117
0.00823821
0.0100161
0.00982611
0.00894023
0.00805093
0.0092491
0.00808715
0.00784027
0.00956293
0.0136388
0.013581
0.0135696
0.0122764
0.00994181
0.0104116
0.0125866
0.0128318
0.0125785
0.013333
0.012373
0.0119689
0.0501244
0.054967
0.0235357
0.0113704
0.0109786
0.0111561
0.0132121
0.00011185
0.000307545
0.000642294
0.000560498
0.000288546
0.000169278
0.000150818
0.000171055
0.00020001
0.000204801
0.000228888
0.000310953
0.000466937
0.000535238
0.000507034
0.000430983
0.000312708
0.000215698
0.000153734
0.000123192
0.000116989
0.000118477
0.000125533
0.000147845
0.000374243
0.00249258
0.00981482
0.00988719
0.0110982
0.018275
0.0165211
0.0191286
0.0189572
0.0180038
0.0188776
0.0156403
0.0169089
0.0126358
0.0142045
0.00726972
0.00894847
0.00417797
0.00455651
0.00521906
0.00436634
0.0074264
0.00634283
0.00964925
0.00849512
0.0122483
0.0110597
0.0136926
0.0138079
0.0136943
0.013349
0.0124705
0.0131015
0.0136373
0.0140385
0.0108866
0.0116881
0.012445
0.00803354
0.00868287
0.0107112
0.0104461
0.00955641
0.00775436
0.00813387
0.0076627
0.00783935
0.00827127
0.0128201
0.0134261
0.0129685
0.0108911
0.00854485
0.00897317
0.0113516
0.0131011
0.0128775
0.0132502
0.0125243
0.0118781
0.00923793
0.0250644
0.0356553
0.0109296
0.0104457
0.0109824
0.0140379
0.000121114
0.000489903
0.000683324
0.000460576
0.000229124
0.000169071
0.000171505
0.000212137
0.000217373
0.000236872
0.000309251
0.000468047
0.000558944
0.00053739
0.000474761
0.000357359
0.000250209
0.000175332
0.000134409
0.000120943
0.00011923
0.000125169
0.000141717
0.000276013
0.00170127
0.00824573
0.00990011
0.0100673
0.0160746
0.0197655
0.0199247
0.0194896
0.0197796
0.0167848
0.0179554
0.0139825
0.0154504
0.0106998
0.0123931
0.00559658
0.00711412
0.00361925
0.00357584
0.0050731
0.00398979
0.00741061
0.00618601
0.00956752
0.00816491
0.0128986
0.0121533
0.0110044
0.0142678
0.0143024
0.0141489
0.0137592
0.0131297
0.0137317
0.0142271
0.014591
0.0115332
0.0123031
0.0130221
0.00839124
0.00924511
0.0112853
0.0109631
0.0101285
0.00766027
0.0076121
0.00750958
0.00810723
0.00761814
0.0117455
0.0130164
0.0120785
0.00949841
0.00769968
0.00788448
0.0100354
0.0130664
0.0128455
0.012988
0.0124496
0.0117029
0.00546751
0.0229711
0.0256951
0.01079
0.0105823
0.0115836
0.014451
0.000156015
0.000683375
0.000648401
0.000355274
0.000215888
0.000184691
0.000223785
0.000237224
0.000248696
0.000311953
0.000474428
0.000585245
0.000574593
0.000516223
0.000403587
0.000290414
0.000203139
0.000151298
0.00013058
0.000123076
0.000126372
0.00014109
0.0002219
0.00114811
0.00658318
0.00981767
0.00947397
0.0128372
0.0202612
0.0193033
0.0201834
0.0204107
0.0189376
0.019671
0.0152943
0.0166162
0.0122826
0.0138481
0.00885064
0.0106038
0.00420183
0.00547066
0.00291895
0.00278908
0.00473371
0.00346427
0.00689307
0.00551627
0.0090766
0.00738319
0.0131789
0.0124462
0.0102514
0.011534
0.0147497
0.0147375
0.01452
0.0140475
0.0136715
0.0142378
0.0146984
0.0150284
0.0120663
0.012799
0.0134758
0.00889507
0.00977579
0.0117435
0.0113634
0.0105968
0.00782921
0.00740322
0.00757856
0.00853374
0.00732834
0.0105667
0.012317
0.0110506
0.00828042
0.00727546
0.00730723
0.00884452
0.0128941
0.0126485
0.0124714
0.0121951
0.0115454
0.00689142
0.0194781
0.0226289
0.0109373
0.0111504
0.012207
0.0140605
0.000278539
0.00079636
0.000544909
0.000314997
0.000228393
0.000248215
0.00027164
0.000267523
0.000319011
0.00048205
0.000615108
0.000618285
0.000559734
0.000455016
0.000334665
0.000238016
0.0001754
0.000147857
0.000133763
0.000131915
0.000143366
0.00019821
0.000745997
0.00485657
0.00954172
0.00912901
0.0107316
0.0190605
0.0206691
0.0209946
0.0197006
0.0203339
0.0178067
0.0188331
0.013605
0.0150263
0.0104473
0.0120749
0.00705748
0.0087536
0.00307048
0.00406285
0.0020974
0.0019667
0.00397715
0.00265236
0.00594821
0.00449918
0.00922675
0.0080276
0.00620707
0.00719209
0.0134068
0.0125814
0.0103546
0.0115622
0.0151401
0.0151068
0.014837
0.0143058
0.0140885
0.0146232
0.0150579
0.0153652
0.0124764
0.0131632
0.0137896
0.00939613
0.0102082
0.01208
0.0116383
0.0109486
0.00816186
0.00735458
0.00780868
0.00900678
0.00718975
0.00944447
0.0114631
0.0100482
0.00747494
0.0070751
0.00700137
0.00789231
0.0124865
0.0122771
0.0117751
0.011877
0.011473
0.00741876
0.016412
0.0222529
0.0112748
0.0116994
0.0125196
0.0133698
0.000523566
0.000794425
0.000475676
0.000320757
0.000301203
0.000326347
0.000303744
0.000333286
0.000488684
0.000646285
0.000668439
0.000608679
0.000508954
0.000384032
0.000278981
0.000209973
0.000175083
0.000155
0.000146737
0.000152453
0.000195843
0.000515135
0.00313424
0.00907116
0.00892187
0.00954859
0.015704
0.0209568
0.020576
0.0202092
0.0207179
0.018557
0.0194613
0.0163277
0.0175003
0.0116673
0.0131488
0.00850821
0.0101106
0.00540603
0.00691231
0.00210658
0.00280883
0.0013109
0.00119631
0.00295903
0.00175087
0.00499408
0.00353969
0.00912096
0.00794146
0.00606488
0.00692377
0.0135875
0.0126767
0.010388
0.011678
0.0154715
0.0154358
0.0151487
0.0145847
0.0143532
0.0148561
0.0152805
0.0156125
0.0127498
0.0133654
0.0139369
0.00980873
0.0105262
0.0122742
0.0117743
0.0111768
0.00860704
0.00750454
0.0081996
0.00941269
0.00721874
0.00852335
0.0105985
0.00920406
0.00704845
0.00697478
0.00686393
0.00728506
0.0119382
0.0118802
0.0110591
0.0116408
0.0114951
0.0167438
0.0145351
0.0203124
0.011602
0.012048
0.0125469
0.0126896
0.000835829
0.000756123
0.000466445
0.000385632
0.000403177
0.000368644
0.000362721
0.000495995
0.000676608
0.00072319
0.000664301
0.000567083
0.000437336
0.000327294
0.000254865
0.000214654
0.000190149
0.00017641
0.000176479
0.000207061
0.000427033
0.00207886
0.00815804
0.00889372
0.0088641
0.0125312
0.0203586
0.0203857
0.0209761
0.0189931
0.0197762
0.0169793
0.0180365
0.0145313
0.0158029
0.00953901
0.011006
0.00656428
0.00804314
0.0038995
0.00516201
0.00127137
0.00168496
0.00102387
0.000871025
0.0022508
0.00143092
0.00509761
0.00430701
0.00368836
0.00290689
0.0091099
0.00791147
0.00592444
0.00684274
0.0138281
0.0128703
0.0105217
0.0118564
0.0157314
0.0156975
0.0154166
0.0148517
0.0144692
0.0149535
0.0153945
0.015763
0.012864
0.0134308
0.013976
0.0101109
0.0107248
0.0123282
0.0117645
0.0112719
0.00901214
0.0077837
0.00860604
0.00971404
0.00735516
0.00784974
0.0098642
0.00859846
0.00686616
0.00703461
0.00685723
0.00703204
0.0113884
0.0115303
0.0104496
0.0115225
0.0115906
0.0168
0.0133003
0.0193083
0.0118466
0.0122669
0.012482
0.0122466
0.00100511
0.000717472
0.000509427
0.000495158
0.000460858
0.000421804
0.000511403
0.000701659
0.000779341
0.000725645
0.000630557
0.00049541
0.000381675
0.00030804
0.000266989
0.000240147
0.000235138
0.000237666
0.000257377
0.000428905
0.0015388
0.00673046
0.00875678
0.00841283
0.0104653
0.0186428
0.0203187
0.020235
0.0190807
0.0197958
0.0173041
0.0182509
0.0150397
0.0162182
0.0124213
0.0137657
0.00735742
0.00873826
0.00470975
0.00599955
0.00251023
0.00353412
0.000850878
0.000971539
0.0009931
0.000770746
0.00242221
0.00185024
0.00145207
0.00526567
0.00455638
0.00386035
0.00322285
0.00921517
0.00799939
0.00604127
0.0069355
0.0140612
0.013074
0.010801
0.0121484
0.0159313
0.0159189
0.0156876
0.0151408
0.014489
0.0149737
0.0154317
0.0158205
0.012855
0.0133659
0.0138644
0.0102921
0.0107815
0.0122153
0.0115669
0.0112004
0.00933101
0.00812283
0.00893244
0.00989555
0.00762566
0.00748818
0.00933641
0.00825581
0.00685294
0.00721294
0.00696024
0.00701224
0.010935
0.0112659
0.0100378
0.01147
0.0116966
0.00589143
0.0136139
0.0172217
0.0120803
0.0125266
0.0126139
0.0126586
0.00101692
0.000717515
0.000612335
0.000560692
0.000512176
0.000546928
0.000726855
0.000830028
0.000792515
0.000698506
0.000557518
0.000440813
0.000364425
0.000330778
0.000322281
0.000372906
0.000417865
0.000438953
0.000527935
0.00140263
0.0054473
0.00839978
0.0081724
0.00922777
0.0157833
0.0199091
0.0189015
0.0196107
0.0172789
0.0181036
0.0152424
0.0163147
0.0128064