/*--------------------------------*- C++ -*----------------------------------*\
  =========                 |
  \\      /  F ield         | OpenFOAM: The Open Source CFD Toolbox
   \\    /   O peration     | Website:  https://openfoam.org
    \\  /    A nd           | Version:  dev
     \\/     M anipulation  |
\*---------------------------------------------------------------------------*/
FoamFile
{
    version     2.0;
    format      ascii;
    class       volScalarField;
    location    "2500";
    object      N2;
}
// * * * * * * * * * * * * * * * * * * * * * * * * * * * * * * * * * * * * * //

dimensions      [0 0 0 0 0 0 0];

internalField   nonuniform List<scalar> 
9978
(
0.76699
0.76699
0.76699
0.76699
0.76699
0.76699
0.76699
0.76699
0.76699
0.76699
0.76699
0.76699
0.76699
0.76699
0.76699
0.76699
0.76699
0.76699
0.76699
0.76699
0.76699
0.76699
0.76699
0.76699
0.76699
0.76699
0.76699
0.76699
0.76699
0.76699
0.76699
0.76699
0.76699
0.76699
0.76699
0.76699
0.76699
0.76699
0.76699
0.76699
0.76699
0.76699
0.76699
0.76699
0.76699
0.76699
0.76699
0.76699
0.76699
0.76699
0.76699
0.76699
0.76699
0.76699
0.76699
0.76699
0.76699
0.76699
0.76699
0.76699
0.76699
0.76699
0.76699
0.76699
0.76699
0.76699
0.76699
0.76699
0.76699
0.76699
0.76699
0.76699
0.76699
0.76699
0.76699
0.76699
0.76699
0.76699
0.76699
0.76699
0.76699
0.76699
0.76699
0.76699
0.76699
0.76699
0.76699
0.76699
0.76699
0.76699
0.76699
0.76699
0.76699
0.76699
0.76699
0.76699
0.76699
0.76699
0.76699
0.76699
0.76699
0.76699
0.76699
0.76699
0.76699
0.76699
0.76699
0.76699
0.76699
0.76699
0.76699
0.76699
0.76699
0.76699
0.76699
0.76699
0.76699
0.76699
0.76699
0.76699
0.76699
0.76699
0.76699
0.76699
0.76699
0.76699
0.76699
0.76699
0.76699
0.76699
0.76699
0.76699
0.76699
0.76699
0.76699
0.76699
0.76699
0.76699
0.76699
0.76699
0.76699
0.76699
0.76699
0.76699
0.76699
0.76699
0.76699
0.76699
0.76699
0.76699
0.76699
0.76699
0.76699
0.76699
0.76699
0.76699
0.76699
0.76699
0.76699
0.76699
0.76699
0.76699
0.76699
0.76699
0.76699
0.76699
0.76699
0.76699
0.76699
0.76699
0.76699
0.76699
0.76699
0.76699
0.76699
0.76699
0.76699
0.76699
0.76699
0.76699
0.76699
0.76699
0.76699
0.76699
0.76699
0.76699
0.76699
0.76699
0.76699
0.76699
0.76699
0.76699
0.76699
0.76699
0.76699
0.76699
0.76699
0.76699
0.76699
0.76699
0.76699
0.76699
0.76699
0.76699
0.76699
0.76699
0.76699
0.76699
0.76699
0.76699
0.76699
0.76699
0.76699
0.76699
0.76699
0.76699
0.76699
0.76699
0.76699
0.76699
0.76699
0.76699
0.76699
0.76699
0.76699
0.76699
0.76699
0.76699
0.76699
0.76699
0.76699
0.76699
0.76699
0.76699
0.76699
0.76699
0.76699
0.76699
0.76699
0.76699
0.76699
0.76699
0.76699
0.76699
0.76699
0.76699
0.76699
0.76699
0.76699
0.76699
0.76699
0.76699
0.76699
0.76699
0.76699
0.76699
0.76699
0.76699
0.76699
0.76699
0.76699
0.76699
0.76699
0.76699
0.76699
0.76699
0.76699
0.76699
0.76699
0.76699
0.76699
0.76699
0.76699
0.76699
0.76699
0.76699
0.76699
0.76699
0.76699
0.76699
0.76699
0.76699
0.76699
0.76699
0.76699
0.76699
0.76699
0.76699
0.76699
0.76699
0.76699
0.76699
0.76699
0.76699
0.76699
0.76699
0.76699
0.76699
0.76699
0.76699
0.76699
0.76699
0.76699
0.76699
0.76699
0.76699
0.76699
0.76699
0.76699
0.76699
0.76699
0.76699
0.76699
0.76699
0.76699
0.76699
0.76699
0.76699
0.76699
0.76699
0.76699
0.76699
0.76699
0.76699
0.76699
0.76699
0.76699
0.76699
0.76699
0.76699
0.76699
0.76699
0.76699
0.76699
0.76699
0.76699
0.76699
0.76699
0.76699
0.76699
0.76699
0.76699
0.76699
0.76699
0.76699
0.76699
0.76699
0.76699
0.76699
0.76699
0.76699
0.76699
0.76699
0.76699
0.76699
0.76699
0.76699
0.76699
0.76699
0.76699
0.76699
0.76699
0.76699
0.76699
0.76699
0.76699
0.76699
0.76699
0.76699
0.76699
0.76699
0.76699
0.76699
0.76699
0.76699
0.76699
0.76699
0.76699
0.76699
0.76699
0.76699
0.76699
0.76699
0.76699
0.76699
0.76699
0.76699
0.76699
0.76699
0.76699
0.76699
0.76699
0.76699
0.76699
0.76699
0.76699
0.76699
0.76699
0.76699
0.76699
0.76699
0.76699
0.76699
0.76699
0.76699
0.76699
0.76699
0.76699
0.76699
0.76699
0.76699
0.76699
0.76699
0.76699
0.76699
0.76699
0.76699
0.76699
0.76699
0.76699
0.76699
0.76699
0.76699
0.76699
0.76699
0.76699
0.76699
0.76699
0.76699
0.76699
0.76699
0.76699
0.76699
0.76699
0.76699
0.76699
0.76699
0.76699
0.76699
0.76699
0.76699
0.76699
0.76699
0.76699
0.76699
0.76699
0.76699
0.76699
0.76699
0.76699
0.76699
0.76699
0.76699
0.76699
0.76699
0.76699
0.76699
0.76699
0.76699
0.76699
0.76699
0.76699
0.76699
0.76699
0.76699
0.76699
0.76699
0.76699
0.76699
0.76699
0.76699
0.76699
0.76699
0.76699
0.76699
0.76699
0.76699
0.76699
0.76699
0.76699
0.76699
0.76699
0.76699
0.76699
0.76699
0.76699
0.76699
0.76699
0.76699
0.76699
0.76699
0.76699
0.76699
0.76699
0.76699
0.76699
0.76699
0.76699
0.76699
0.76699
0.76699
0.76699
0.76699
0.76699
0.76699
0.76699
0.76699
0.76699
0.76699
0.76699
0.76699
0.76699
0.76699
0.76699
0.76699
0.76699
0.76699
0.76699
0.76699
0.76699
0.76699
0.76699
0.76699
0.76699
0.76699
0.76699
0.76699
0.76699
0.76699
0.76699
0.76699
0.76699
0.76699
0.76699
0.76699
0.76699
0.76699
0.76699
0.76699
0.76699
0.76699
0.76699
0.76699
0.76699
0.76699
0.76699
0.76699
0.76699
0.76699
0.76699
0.76699
0.76699
0.76699
0.76699
0.76699
0.76699
0.76699
0.76699
0.76699
0.76699
0.76699
0.76699
0.76699
0.76699
0.76699
0.76699
0.76699
0.76699
0.76699
0.76699
0.76699
0.76699
0.76699
0.76699
0.76699
0.76699
0.76699
0.76699
0.76699
0.76699
0.76699
0.76699
0.76699
0.76699
0.76699
0.76699
0.76699
0.76699
0.76699
0.76699
0.76699
0.76699
0.76699
0.76699
0.76699
0.76699
0.76699
0.76699
0.76699
0.76699
0.76699
0.76699
0.76699
0.76699
0.76699
0.76699
0.76699
0.76699
0.76699
0.76699
0.76699
0.76699
0.76699
0.76699
0.76699
0.76699
0.76699
0.76699
0.76699
0.76699
0.76699
0.76699
0.76699
0.76699
0.76699
0.76699
0.76699
0.76699
0.76699
0.76699
0.76699
0.76699
0.76699
0.76699
0.76699
0.76699
0.76699
0.76699
0.76699
0.76699
0.76699
0.76699
0.76699
0.76699
0.76699
0.76699
0.76699
0.76699
0.76699
0.76699
0.76699
0.76699
0.76699
0.76699
0.76699
0.76699
0.76699
0.76699
0.76699
0.76699
0.76699
0.76699
0.76699
0.76699
0.76699
0.76699
0.76699
0.76699
0.76699
0.76699
0.76699
0.76699
0.76699
0.76699
0.76699
0.76699
0.76699
0.76699
0.76699
0.76699
0.76699
0.76699
0.76699
0.76699
0.76699
0.76699
0.76699
0.76699
0.76699
0.76699
0.76699
0.76699
0.76699
0.76699
0.76699
0.76699
0.76699
0.76699
0.76699
0.76699
0.76699
0.76699
0.76699
0.76699
0.76699
0.76699
0.76699
0.76699
0.76699
0.76699
0.76699
0.76699
0.76699
0.76699
0.76699
0.76699
0.76699
0.76699
0.76699
0.76699
0.76699
0.76699
0.76699
0.76699
0.76699
0.76699
0.76699
0.76699
0.76699
0.76699
0.76699
0.76699
0.76699
0.76699
0.76699
0.76699
0.76699
0.76699
0.76699
0.76699
0.76699
0.76699
0.76699
0.76699
0.76699
0.76699
0.76699
0.76699
0.76699
0.76699
0.76699
0.76699
0.76699
0.76699
0.76699
0.76699
0.76699
0.76699
0.76699
0.76699
0.76699
0.76699
0.76699
0.76699
0.76699
0.76699
0.76699
0.76699
0.76699
0.76699
0.76699
0.76699
0.76699
0.76699
0.76699
0.76699
0.76699
0.76699
0.76699
0.76699
0.76699
0.76699
0.76699
0.76699
0.76699
0.76699
0.76699
0.76699
0.76699
0.766989
0.766988
0.766989
0.766988
0.76699
0.766989
0.76699
0.76699
0.76699
0.76699
0.76699
0.76699
0.76699
0.76699
0.76699
0.76699
0.76699
0.76699
0.76699
0.76699
0.76699
0.76699
0.76699
0.76699
0.76699
0.76699
0.76699
0.76699
0.76699
0.76699
0.76699
0.76699
0.76699
0.76699
0.76699
0.76699
0.76699
0.76699
0.76699
0.76699
0.76699
0.76699
0.76699
0.76699
0.76699
0.766989
0.766986
0.76698
0.766983
0.766971
0.766986
0.766977
0.766988
0.766984
0.766988
0.76699
0.766988
0.766988
0.76699
0.76699
0.76699
0.76699
0.76699
0.76699
0.76699
0.76699
0.76699
0.76699
0.76699
0.76699
0.76699
0.76699
0.76699
0.76699
0.76699
0.76699
0.76699
0.76699
0.76699
0.76699
0.76699
0.76699
0.76699
0.76699
0.76699
0.76699
0.76699
0.76699
0.76699
0.76699
0.76699
0.76699
0.76699
0.766988
0.766979
0.766955
0.766949
0.766907
0.766957
0.766915
0.76697
0.766938
0.766982
0.766962
0.76698
0.766988
0.766979
0.76698
0.76699
0.766989
0.76699
0.76699
0.76699
0.76699
0.76699
0.76699
0.76699
0.76699
0.76699
0.76699
0.76699
0.76699
0.76699
0.76699
0.76699
0.76699
0.76699
0.76699
0.76699
0.76699
0.76699
0.76699
0.76699
0.76699
0.76699
0.76699
0.76699
0.76699
0.76699
0.76699
0.76699
0.76699
0.766989
0.766985
0.766967
0.766903
0.766856
0.766784
0.766848
0.766762
0.766872
0.766775
0.766915
0.766823
0.766955
0.766892
0.76695
0.766982
0.766949
0.766951
0.766989
0.766984
0.76699
0.76699
0.76699
0.76699
0.76699
0.76699
0.76699
0.76699
0.76699
0.76699
0.76699
0.76699
0.76699
0.76699
0.76699
0.76699
0.76699
0.76699
0.76699
0.76699
0.76699
0.76699
0.76699
0.76699
0.76699
0.76699
0.76699
0.76699
0.76699
0.76699
0.76699
0.76699
0.766989
0.766983
0.766946
0.766839
0.766718
0.766636
0.766663
0.766563
0.766658
0.766532
0.766696
0.766551
0.766773
0.76662
0.766873
0.766729
0.766861
0.766957
0.766859
0.766867
0.766986
0.766966
0.766988
0.76699
0.766989
0.76699
0.76699
0.76699
0.76699
0.76699
0.76699
0.76699
0.76699
0.76699
0.76699
0.76699
0.76699
0.76699
0.76699
0.76699
0.76699
0.76699
0.76699
0.76699
0.76699
0.76699
0.76699
0.76699
0.76699
0.76699
0.76699
0.76699
0.76699
0.76699
0.766989
0.766982
0.766937
0.766764
0.766575
0.766505
0.766464
0.766374
0.766405
0.766286
0.766401
0.766253
0.766452
0.766278
0.766554
0.766365
0.766698
0.766503
0.766682
0.766884
0.766682
0.766698
0.766975
0.766909
0.766982
0.76699
0.766987
0.766989
0.76699
0.76699
0.76699
0.76699
0.76699
0.76699
0.76699
0.76699
0.76699
0.76699
0.76699
0.76699
0.76699
0.76699
0.76699
0.76699
0.76699
0.76699
0.76699
0.76699
0.76699
0.76699
0.76699
0.76699
0.76699
0.76699
0.76699
0.76699
0.76699
0.766983
0.766928
0.766732
0.766457
0.766407
0.766295
0.766227
0.766176
0.766082
0.76611
0.765993
0.766109
0.765958
0.766172
0.765983
0.766295
0.766084
0.766471
0.766244
0.766457
0.766732
0.766461
0.766483
0.766936
0.766781
0.76696
0.76699
0.766975
0.766983
0.76699
0.76699
0.76699
0.76699
0.76699
0.76699
0.76699
0.76699
0.76699
0.76699
0.76699
0.76699
0.76699
0.76699
0.76699
0.76699
0.76699
0.76699
0.76699
0.76699
0.76699
0.76699
0.76699
0.76699
0.76699
0.76699
0.76699
0.76699
0.76699
0.766984
0.76693
0.766699
0.766372
0.76638
0.766173
0.766128
0.766012
0.765966
0.765916
0.765881
0.765866
0.76583
0.765845
0.765793
0.765882
0.765774
0.766015
0.765806
0.766215
0.765969
0.766207
0.766524
0.766217
0.766246
0.766837
0.766579
0.766887
0.766989
0.766926
0.766958
0.76699
0.76699
0.76699
0.76699
0.76699
0.76699
0.76699
0.76699
0.76699
0.76699
0.76699
0.76699
0.76699
0.76699
0.76699
0.76699
0.76699
0.76699
0.76699
0.76699
0.76699
0.76699
0.76699
0.76699
0.76699
0.76699
0.76699
0.76699
0.76699
0.766986
0.766935
0.766703
0.766204
0.766107
0.766051
0.765941
0.765927
0.765868
0.76587
0.765828
0.765838
0.765791
0.765809
0.765751
0.765769
0.765721
0.76572
0.765752
0.765678
0.765947
0.765714
0.765945
0.766292
0.765961
0.765995
0.766647
0.766349
0.766715
0.766983
0.766794
0.766866
0.76699
0.76699
0.76699
0.76699
0.76699
0.76699
0.76699
0.76699
0.76699
0.76699
0.76699
0.76699
0.76699
0.76699
0.76699
0.76699
0.76699
0.76699
0.76699
0.76699
0.76699
0.76699
0.76699
0.76699
0.76699
0.76699
0.76699
0.76699
0.76699
0.766987
0.766946
0.766719
0.766221
0.76592
0.765925
0.765923
0.765917
0.765874
0.765881
0.765859
0.76589
0.765851
0.765924
0.765825
0.765929
0.765764
0.765877
0.765693
0.765775
0.765641
0.765667
0.765695
0.765606
0.765695
0.766041
0.765711
0.765745
0.766407
0.766091
0.766461
0.766888
0.76653
0.766515
0.76699
0.76699
0.76699
0.76699
0.76699
0.76699
0.76699
0.76699
0.76699
0.76699
0.76699
0.76699
0.76699
0.76699
0.76699
0.76699
0.76699
0.76699
0.76699
0.76699
0.76699
0.76699
0.76699
0.76699
0.76699
0.76699
0.76699
0.76699
0.76699
0.766988
0.766959
0.766754
0.766266
0.76593
0.765938
0.765897
0.765897
0.765889
0.765895
0.765926
0.765961
0.766003
0.766075
0.766053
0.766175
0.76604
0.766207
0.765945
0.766151
0.765786
0.766004
0.765637
0.765787
0.765575
0.765601
0.765551
0.765785
0.765539
0.765542
0.766132
0.765821
0.766139
0.766365
0.766059
0.765812
0.76699
0.76699
0.76699
0.76699
0.76699
0.76699
0.76699
0.76699
0.76699
0.76699
0.76699
0.76699
0.76699
0.76699
0.76699
0.76699
0.76699
0.76699
0.76699
0.76699
0.76699
0.76699
0.76699
0.76699
0.76699
0.76699
0.76699
0.76699
0.76699
0.766989
0.766969
0.766803
0.766346
0.765951
0.765994
0.765896
0.765892
0.766004
0.765999
0.765987
0.766002
0.766138
0.766185
0.766271
0.766338
0.766336
0.766403
0.766332
0.766429
0.766239
0.766414
0.766039
0.766295
0.765768
0.766044
0.76556
0.765727
0.765519
0.765557
0.765484
0.765459
0.765828
0.765568
0.765748
0.766462
0.76557
0.765796
0.76699
0.76699
0.76699
0.76699
0.76699
0.76699
0.76699
0.76699
0.76699
0.76699
0.76699
0.76699
0.76699
0.76699
0.76699
0.76699
0.76699
0.76699
0.76699
0.76699
0.76699
0.76699
0.76699
0.76699
0.76699
0.76699
0.76699
0.76699
0.766989
0.766978
0.766852
0.766442
0.765949
0.765888
0.765872
0.765989
0.765969
0.766212
0.766198
0.76621
0.766217
0.76638
0.766406
0.766435
0.766453
0.76646
0.766464
0.766478
0.766484
0.766459
0.766503
0.76632
0.766482
0.766018
0.766317
0.765668
0.765959
0.7656
0.76544
0.765534
0.765478
0.765535
0.765419
0.765447
0.766941
0.765462
0.766329
0.76699
0.76699
0.76699
0.76699
0.766989
0.76699
0.76699
0.76699
0.76699
0.76699
0.76699
0.76699
0.76699
0.76699
0.76699
0.76699
0.76699
0.76699
0.76699
0.76699
0.76699
0.76699
0.76699
0.76699
0.76699
0.76699
0.76699
0.76699
0.766983
0.766897
0.766549
0.766009
0.765898
0.765882
0.765947
0.765916
0.766171
0.766136
0.766408
0.766384
0.766421
0.766419
0.766468
0.766486
0.766461
0.766461
0.766456
0.766404
0.766483
0.766395
0.766515
0.766457
0.766488
0.766516
0.766285
0.766482
0.765877
0.766227
0.765785
0.765438
0.765692
0.765611
0.765387
0.765406
0.765372
0.766966
0.765544
0.766479
0.76699
0.76699
0.766989
0.766989
0.766989
0.766989
0.76699
0.76699
0.76699
0.76699
0.76699
0.76699
0.76699
0.76699
0.76699
0.76699
0.76699
0.76699
0.76699
0.76699
0.76699
0.76699
0.76699
0.76699
0.76699
0.76699
0.76699
0.766986
0.766931
0.766659
0.766118
0.765883
0.765999
0.765955
0.766094
0.766046
0.766347
0.7663
0.766526
0.766508
0.76651
0.766527
0.76647
0.766494
0.76636
0.766344
0.766271
0.766161
0.766298
0.766104
0.766419
0.766195
0.766511
0.766384
0.766465
0.766505
0.766146
0.766436
0.766029
0.76555
0.765933
0.765863
0.765698
0.765385
0.765446
0.765527
0.765395
0.766895
0.765587
0.766038
0.76699
0.76699
0.766989
0.766989
0.766989
0.766989
0.76699
0.76699
0.76699
0.76699
0.76699
0.76699
0.76699
0.76699
0.76699
0.76699
0.76699
0.76699
0.76699
0.76699
0.76699
0.76699
0.76699
0.76699
0.76699
0.76699
0.766987
0.766955
0.766757
0.766255
0.765884
0.766005
0.76595
0.766126
0.766064
0.766246
0.766187
0.766468
0.766416
0.766591
0.766579
0.766532
0.766578
0.766367
0.766432
0.766106
0.766108
0.765935
0.765834
0.765941
0.765728
0.766106
0.765798
0.766362
0.766034
0.766495
0.766358
0.766388
0.766496
0.766477
0.766143
0.766321
0.765824
0.765638
0.765777
0.766053
0.766229
0.766295
0.766
0.76543
0.765504
0.76552
0.765618
0.765494
0.765448
0.765474
0.765971
0.76557
0.76548
0.765478
0.765515
0.765755
0.765548
0.76699
0.76699
0.766989
0.766988
0.766989
0.76699
0.76699
0.76699
0.76699
0.76699
0.76699
0.76699
0.76699
0.76699
0.76699
0.76699
0.76699
0.76699
0.76699
0.76699
0.76699
0.76699
0.76699
0.76699
0.76699
0.766989
0.76697
0.766832
0.766404
0.765912
0.765914
0.765882
0.766092
0.766029
0.766225
0.766158
0.766356
0.766291
0.76654
0.766484
0.76664
0.76663
0.766525
0.766608
0.766176
0.766314
0.765808
0.765855
0.765594
0.765548
0.765549
0.765397
0.765681
0.765402
0.766182
0.765982
0.765799
0.765609
0.766461
0.766353
0.765966
0.765983
0.766187
0.766503
0.766457
0.766494
0.766474
0.766435
0.765951
0.765743
0.765899
0.766185
0.766361
0.766409
0.76613
0.765582
0.765601
0.765716
0.76556
0.76553
0.765828
0.765516
0.765417
0.765482
0.765503
0.765471
0.765443
0.76699
0.76699
0.766988
0.766988
0.766989
0.76699
0.76699
0.76699
0.76699
0.76699
0.76699
0.76699
0.76699
0.76699
0.76699
0.76699
0.76699
0.76699
0.76699
0.76699
0.76699
0.76699
0.76699
0.76699
0.766989
0.766979
0.766887
0.766545
0.765994
0.765852
0.765971
0.765919
0.766149
0.766085
0.766282
0.766215
0.766419
0.76635
0.766589
0.766525
0.766689
0.766683
0.76649
0.766635
0.765998
0.766221
0.765595
0.765741
0.765349
0.765398
0.765233
0.765185
0.765464
0.765315
0.765228
0.765138
0.765778
0.765588
0.765421
0.766377
0.766207
0.765771
0.765777
0.765998
0.766488
0.766493
0.766491
0.766401
0.766485
0.766075
0.765856
0.766021
0.766309
0.766471
0.766447
0.766253
0.765692
0.765667
0.765821
0.765637
0.765599
0.766509
0.765782
0.765408
0.765556
0.765515
0.765484
0.765421
0.76699
0.766989
0.766988
0.766988
0.766989
0.76699
0.76699
0.76699
0.76699
0.76699
0.76699
0.76699
0.76699
0.76699
0.76699
0.76699
0.76699
0.76699
0.76699
0.76699
0.76699
0.76699
0.76699
0.76699
0.766985
0.766925
0.766662
0.766141
0.765849
0.76591
0.765868
0.766025
0.765968
0.766176
0.766115
0.766309
0.766241
0.766453
0.76638
0.766635
0.76656
0.766738
0.76674
0.766477
0.766673
0.765948
0.766209
0.765543
0.765738
0.765236
0.765375
0.765104
0.76508
0.765089
0.76512
0.765282
0.765173
0.765094
0.765044
0.765572
0.765396
0.765248
0.766235
0.766021
0.765567
0.765571
0.765792
0.766425
0.766495
0.766444
0.766268
0.766494
0.766197
0.765973
0.766142
0.766411
0.766488
0.76648
0.766364
0.76579
0.765759
0.765931
0.765722
0.765678
0.766845
0.765453
0.765986
0.765628
0.765579
0.765528
0.765425
0.76699
0.766989
0.766988
0.766988
0.766989
0.76699
0.76699
0.76699
0.76699
0.76699
0.76699
0.76699
0.76699
0.76699
0.76699
0.76699
0.76699
0.76699
0.76699
0.76699
0.76699
0.76699
0.76699
0.766987
0.766951
0.766762
0.766299
0.765874
0.765831
0.765946
0.765899
0.766056
0.766
0.766187
0.766127
0.766322
0.766252
0.766478
0.766398
0.766688
0.766604
0.766792
0.766798
0.766501
0.766722
0.765981
0.766268
0.765583
0.765838
0.765173
0.765263
0.765435
0.765022
0.765023
0.765048
0.765098
0.765132
0.765048
0.764994
0.764969
0.765379
0.765223
0.7651
0.766054
0.765818
0.765373
0.765376
0.765586
0.766307
0.766463
0.766347
0.766095
0.766477
0.766309
0.766089
0.766254
0.766467
0.766483
0.76649
0.766445
0.765894
0.765855
0.766042
0.765811
0.765761
0.766862
0.765477
0.766021
0.765703
0.765636
0.765548
0.765423
0.76699
0.766989
0.766988
0.766988
0.76699
0.76699
0.76699
0.76699
0.76699
0.76699
0.76699
0.76699
0.76699
0.76699
0.76699
0.76699
0.76699
0.76699
0.76699
0.76699
0.76699
0.76699
0.766988
0.766967
0.766834
0.766443
0.76595
0.765798
0.765872
0.765836
0.765968
0.765922
0.766071
0.766019
0.766195
0.766135
0.766338
0.766263
0.766511
0.766421
0.766752
0.766664
0.766846
0.766855
0.766573
0.766781
0.766114
0.766403
0.765726
0.766033
0.765173
0.765267
0.765618
0.765437
0.764967
0.764983
0.765028
0.765095
0.76501
0.764951
0.764922
0.764917
0.765206
0.765074
0.764978
0.765854
0.765612
0.765198
0.7652
0.76539
0.766144
0.766387
0.766199
0.765899
0.766423
0.766405
0.766199
0.766352
0.766489
0.766455
0.766481
0.766486
0.765996
0.765948
0.766146
0.765897
0.765837
0.766777
0.76547
0.765837
0.765766
0.765675
0.765546
0.765413
0.76699
0.766988
0.766988
0.766989
0.76699
0.76699
0.76699
0.76699
0.76699
0.76699
0.76699
0.76699
0.76699
0.76699
0.76699
0.76699
0.76699
0.76699
0.76699
0.76699
0.76699
0.766989
0.766978
0.766886
0.76657
0.766079
0.765804
0.7658
0.765896
0.765857
0.765984
0.765939
0.766081
0.766031
0.766215
0.766152
0.766372
0.766288
0.766564
0.766465
0.766822
0.766741
0.766901
0.766909
0.766684
0.766849
0.766308
0.766572
0.765763
0.765962
0.766288
0.766094
0.765184
0.765301
0.765672
0.765499
0.764927
0.764961
0.765021
0.765101
0.764915
0.76488
0.764871
0.764877
0.765057
0.764953
0.764885
0.765648
0.765414
0.765048
0.765046
0.765211
0.765955
0.766259
0.766021
0.765694
0.766327
0.766467
0.766295
0.766427
0.766499
0.766397
0.766453
0.766501
0.766091
0.766034
0.766236
0.765973
0.765901
0.766585
0.765419
0.765586
0.765811
0.765691
0.765534
0.765395
0.766989
0.766988
0.766988
0.766989
0.76699
0.76699
0.76699
0.76699
0.76699
0.76699
0.76699
0.76699
0.76699
0.76699
0.76699
0.76699
0.76699
0.76699
0.76699
0.766989
0.766989
0.766983
0.766925
0.766679
0.766217
0.765835
0.765766
0.765843
0.765813
0.765919
0.765882
0.766
0.765958
0.766096
0.766046
0.76626
0.766188
0.766438
0.766344
0.766642
0.766539
0.766891
0.766829
0.766947
0.766953
0.7668
0.766912
0.766507
0.766726
0.765859
0.766035
0.766332
0.766197
0.765208
0.765342
0.765741
0.765555
0.764904
0.764952
0.765023
0.765117
0.764845
0.764832
0.764834
0.764853
0.764935
0.76486
0.764816
0.765448
0.765231
0.764924
0.76492
0.765054
0.765753
0.766101
0.765827
0.765492
0.766201
0.766497
0.766369
0.766473
0.766489
0.766307
0.7664
0.766508
0.766174
0.766108
0.766308
0.766035
0.765947
0.76581
0.765363
0.765363
0.765836
0.76569
0.765517
0.765372
0.766989
0.766988
0.766989
0.76699
0.76699
0.76699
0.76699
0.76699
0.76699
0.76699
0.76699
0.76699
0.76699
0.76699
0.76699
0.76699
0.766989
0.766989
0.766989
0.766988
0.766984
0.76695
0.766772
0.76635
0.765907
0.76576
0.765789
0.765879
0.76585
0.765948
0.765913
0.766027
0.765985
0.766126
0.766073
0.766342
0.766258
0.76654
0.766438
0.766742
0.766644
0.766947
0.766914
0.766966
0.766972
0.766883
0.766945
0.766547
0.766674
0.766744
0.76684
0.765933
0.766121
0.766432
0.766289
0.765238
0.765385
0.765806
0.765611
0.764892
0.764951
0.765031
0.765138
0.764798
0.764797
0.764811
0.764841
0.764841
0.764792
0.76477
0.765261
0.76507
0.764829
0.764822
0.764923
0.76555
0.765929
0.765628
0.765301
0.766059
0.766508
0.766422
0.766494
0.766468
0.766202
0.76633
0.766502
0.766239
0.766164
0.766358
0.766079
0.765974
0.766064
0.765309
0.765389
0.765842
0.76568
0.765497
0.765351
0.766989
0.766989
0.76699
0.76699
0.76699
0.76699
0.76699
0.76699
0.76699
0.76699
0.76699
0.76699
0.76699
0.76699
0.76699
0.766989
0.766988
0.766987
0.766986
0.766983
0.766961
0.766837
0.766469
0.766013
0.76577
0.765764
0.765861
0.765832
0.765922
0.765893
0.765988
0.765953
0.766071
0.766026
0.766185
0.766123
0.766465
0.766369
0.766672
0.766569
0.76685
0.766767
0.766971
0.766961
0.766971
0.766978
0.766883
0.766928
0.766952
0.766612
0.766705
0.766781
0.766843
0.766003
0.76619
0.766496
0.766356
0.765271
0.765429
0.765865
0.765663
0.764889
0.764955
0.765045
0.76516
0.764767
0.764773
0.764799
0.764836
0.764773
0.764748
0.764742
0.765093
0.764933
0.764759
0.76475
0.76482
0.765354
0.765751
0.76544
0.765127
0.765913
0.766509
0.766452
0.766498
0.766427
0.766089
0.766248
0.766484
0.766285
0.766201
0.766386
0.766103
0.765982
0.766703
0.765294
0.765596
0.765835
0.765656
0.765468
0.765323
0.766989
0.766989
0.76699
0.76699
0.76699
0.76699
0.76699
0.76699
0.76699
0.76699
0.76699
0.76699
0.76699
0.766989
0.766987
0.766983
0.766979
0.766978
0.766977
0.766962
0.766877
0.766576
0.766125
0.7658
0.765758
0.765827
0.765918
0.765894
0.765976
0.765947
0.766046
0.766008
0.766144
0.76609
0.766282
0.766207
0.766621
0.766519
0.76681
0.76672
0.766935
0.766885
0.76698
0.766979
0.766966
0.766979
0.766891
0.766926
0.766955
0.766939
0.76664
0.766723
0.766789
0.766843
0.766066
0.76625
0.766536
0.766408
0.765302
0.765471
0.765911
0.7657
0.764889
0.764961
0.765055
0.765176
0.764745
0.764763
0.764793
0.764833
0.76473
0.764722
0.764723
0.764949
0.764824
0.764717
0.764707
0.764745
0.765176
0.765585
0.76528
0.764976
0.76577
0.766502
0.766463
0.766492
0.766371
0.76597
0.766154
0.766451
0.766309
0.766218
0.766396
0.766107
0.765974
0.766742
0.765305
0.765729
0.765809
0.765617
0.765428
0.765295
0.766989
0.76699
0.76699
0.76699
0.76699
0.76699
0.76699
0.76699
0.76699
0.76699
0.76699
0.76699
0.766989
0.766984
0.766971
0.766958
0.766951
0.766955
0.766955
0.766891
0.766663
0.766231
0.765865
0.765763
0.765803
0.765957
0.765986
0.765956
0.766048
0.766015
0.766133
0.766087
0.766254
0.766188
0.766421
0.766332
0.766782
0.766691
0.766921
0.766862
0.766971
0.766954
0.766983
0.766984
0.766939
0.766927
0.766953
0.766969
0.766978
0.766885
0.766916
0.766916
0.766655
0.766725
0.766783
0.766828
0.766116
0.766299
0.766566
0.76645
0.765324
0.765501
0.765928
0.765714
0.764889
0.764963
0.765059
0.765182
0.764735
0.764756
0.764787
0.764829
0.764706
0.764705
0.764712
0.764833
0.764743
0.764693
0.764682
0.764699
0.765036
0.765433
0.765143
0.764866
0.76563
0.766485
0.76646
0.766478
0.766304
0.765846
0.766057
0.766407
0.766314
0.766216
0.766394
0.766096
0.765943
0.766908
0.765324
0.765973
0.765758
0.765564
0.765382
0.765275
0.76699
0.76699
0.76699
0.76699
0.76699
0.76699
0.76699
0.76699
0.76699
0.76699
0.76699
0.766988
0.766976
0.766944
0.766905
0.766889
0.766903
0.766932
0.766888
0.766713
0.766326
0.765943
0.76578
0.765799
0.765924
0.766117
0.766043
0.76609
0.766073
0.766148
0.766107
0.766256
0.766197
0.766405
0.766325
0.766592
0.766494
0.766911
0.766849
0.766968
0.766947
0.766983
0.766979
0.766982
0.766986
0.766899
0.766878
0.766914
0.766951
0.766972
0.766862
0.76689
0.766874
0.766658
0.766717
0.766762
0.766797
0.766136
0.766321
0.766578
0.766468
0.765332
0.765511
0.765928
0.765713
0.764885
0.76496
0.765058
0.765181
0.764726
0.764748
0.764779
0.76482
0.76469
0.764692
0.764702
0.764755
0.764699
0.764677
0.764667
0.764674
0.764927
0.765297
0.765027
0.764783
0.765498
0.766456
0.766446
0.766455
0.766235
0.765732
0.765963
0.766359
0.766305
0.766197
0.766378
0.766054
0.765877
0.76685
0.765348
0.765857
0.76569
0.765502
0.765333
0.765261
0.76699
0.76699
0.76699
0.76699
0.76699
0.76699
0.76699
0.76699
0.76699
0.76699
0.766987
0.766965
0.766902
0.766836
0.766813
0.766835
0.76688
0.766872
0.766721
0.766406
0.766024
0.765822
0.765805
0.765906
0.766109
0.76615
0.766246
0.766215
0.766186
0.766283
0.76623
0.766416
0.766345
0.766585
0.766497
0.766767
0.766677
0.766966
0.766944
0.766984
0.766978
0.766987
0.766986
0.766975
0.766982
0.766985
0.766844
0.766808
0.766858
0.766908
0.766954
0.766825
0.76685
0.766815
0.76664
0.766687
0.76672
0.766745
0.766137
0.766321
0.76657
0.766466
0.765332
0.765511
0.765895
0.765681
0.764874
0.764949
0.765041
0.765159
0.764717
0.764738
0.764767
0.764805
0.764677
0.764684
0.764696
0.764707
0.764669
0.764666
0.764658
0.76466
0.764832
0.765174
0.764911
0.764724
0.765379
0.766418
0.766412
0.76641
0.766163
0.765616
0.765857
0.766297
0.766277
0.766135
0.766328
0.765966
0.765789
0.76626
0.765334
0.765505
0.765611
0.765437
0.76529
0.765248
0.76699
0.76699
0.76699
0.76699
0.76699
0.76699
0.76699
0.76699
0.76699
0.766986
0.766953
0.766858
0.766766
0.766732
0.766754
0.76681
0.766833
0.766713
0.766447
0.766103
0.765878
0.76583
0.765902
0.766087
0.766411
0.766286
0.766407
0.766377
0.766332
0.766452
0.766388
0.766602
0.766523
0.766768
0.766684
0.766906
0.766846
0.766984
0.766978
0.766988
0.766987
0.766987
0.766988
0.766963
0.766979
0.766982
0.766986
0.766765
0.766714
0.76678
0.76685
0.766917
0.766768
0.76679
0.766729
0.76659
0.766626
0.766648
0.766664
0.766104
0.766287
0.766528
0.76643
0.765306
0.765482
0.765808
0.765599
0.764853
0.764915
0.764998
0.765105
0.764711
0.764731
0.764755
0.764785
0.764671
0.764681
0.764695
0.764675
0.764661
0.76466
0.764655
0.764655
0.764757
0.765043
0.764821
0.764693
0.765226
0.766347
0.766343
0.766312
0.766057
0.765449
0.765674
0.766173
0.76619
0.76603
0.766206
0.765853
0.765688
0.766624
0.765284
0.765458
0.765531
0.765376
0.765253
0.765225
0.76699
0.76699
0.76699
0.76699
0.76699
0.76699
0.76699
0.76699
0.766985
0.766942
0.766821
0.766704
0.766651
0.766662
0.766717
0.76676
0.766683
0.766447
0.766167
0.765943
0.765878
0.765911
0.766081
0.76639
0.766739
0.76655
0.766729
0.766455
0.766599
0.766511
0.766644
0.766575
0.76679
0.766716
0.76691
0.766858
0.766966
0.766944
0.766989
0.766987
0.766989
0.766989
0.766988
0.766989
0.766936
0.76697
0.766977
0.766985
0.766657
0.766597
0.766683
0.766773
0.766861
0.766681
0.766702
0.766613
0.766493
0.766521
0.766534
0.766544
0.766015
0.766199
0.766437
0.766342
0.765241
0.765407
0.765656
0.765461
0.764824
0.764867
0.764932
0.765022
0.764709
0.764726
0.764746
0.764769
0.764669
0.764682
0.764696
0.764672
0.764657
0.76466
0.76466
0.764656
0.764722
0.764908
0.764764
0.764691
0.765034
0.766184
0.766192
0.766113
0.765823
0.765161
0.765323
0.76591
0.766059
0.765888
0.766064
0.765733
0.765591
0.766613
0.765252
0.765421
0.765458
0.76532
0.765221
0.765201
0.76699
0.76699
0.76699
0.76699
0.76699
0.76699
0.76699
0.766985
0.766937
0.766798
0.766656
0.766578
0.766568
0.766606
0.766646
0.766615
0.766431
0.766198
0.766005
0.765935
0.765946
0.766089
0.766385
0.76679
0.766764
0.766892
0.76687
0.766652
0.766803
0.76671
0.766834
0.766773
0.766925
0.766887
0.766968
0.766951
0.766984
0.766979
0.76699
0.76699
0.76699
0.76699
0.766986
0.766988
0.766989
0.766895
0.766956
0.766969
0.766982
0.766524
0.766465
0.766573
0.766688
0.766798
0.766558
0.766581
0.766466
0.766337
0.766359
0.766369
0.766377
0.765856
0.76604
0.766283
0.766186
0.765139
0.765286
0.765434
0.765265
0.764797
0.764832
0.764866
0.764917
0.76471
0.764725
0.764741
0.764758
0.764672
0.764688
0.764705
0.764667
0.764662
0.764672
0.76467
0.764664
0.764715
0.764836
0.764768
0.76469
0.764926
0.765935
0.766029
0.765918
0.765499
0.765048
0.765195
0.765629
0.765896
0.765757
0.765884
0.765625
0.765508
0.761205
0.76522
0.765274
0.765391
0.765269
0.765192
0.765175
0.76699
0.76699
0.76699
0.76699
0.76699
0.76699
0.766986
0.766937
0.766789
0.766622
0.766518
0.766488
0.7665
0.766516
0.766489
0.766376
0.766199
0.766048
0.765991
0.765999
0.766121
0.766408
0.766779
0.766965
0.766912
0.766963
0.766959
0.766846
0.766931
0.766887
0.766944
0.766919
0.766974
0.766962
0.766986
0.766981
0.766989
0.766988
0.76699
0.76699
0.76699
0.76699
0.766985
0.766988
0.766988
0.766989
0.766846
0.766934
0.76696
0.766979
0.766371
0.766326
0.76646
0.7666
0.766732
0.766394
0.766423
0.766293
0.766112
0.766136
0.766149
0.766162
0.765619
0.765798
0.766053
0.765948
0.765001
0.765118
0.765148
0.765022
0.764777
0.7648
0.76483
0.764855
0.76472
0.764734
0.764744
0.764751
0.764691
0.764708
0.76472
0.764679
0.764673
0.764679
0.764723
0.764715
0.764735
0.764852
0.76482
0.764724
0.764972
0.765699
0.76583
0.765706
0.765336
0.765102
0.765241
0.765447
0.765762
0.765645
0.765755
0.76554
0.765431
0.739359
0.765167
0.76429
0.765329
0.765225
0.765165
0.765146
0.76699
0.76699
0.76699
0.76699
0.76699
0.766987
0.766942
0.76679
0.766607
0.766483
0.766438
0.766428
0.766417
0.766379
0.766301
0.766196
0.76608
0.766044
0.766062