/*--------------------------------*- C++ -*----------------------------------*\
  =========                 |
  \\      /  F ield         | OpenFOAM: The Open Source CFD Toolbox
   \\    /   O peration     | Website:  https://openfoam.org
    \\  /    A nd           | Version:  dev
     \\/     M anipulation  |
\*---------------------------------------------------------------------------*/
FoamFile
{
    version     2.0;
    format      ascii;
    class       volScalarField;
    location    "2500";
    object      nut;
}
// * * * * * * * * * * * * * * * * * * * * * * * * * * * * * * * * * * * * * //

dimensions      [0 2 -1 0 0 0 0];

internalField   nonuniform List<scalar> 
9978
(
0.000129764
0.000133416
0.00012523
0.000122708
0.000156005
0.000111036
0.000111922
0.000165476
0.00014528
0.000105554
0.000108479
0.000161905
0.000165039
0.00012433
0.000103838
0.000105222
0.000149688
0.000178007
0.000150113
0.000113295
0.000102742
0.000103508
0.000133287
0.000180628
0.000171245
0.000128601
0.000108446
0.000102003
0.000103041
0.000123774
0.000177041
0.000181519
0.000149833
0.000116439
0.000105802
0.000101485
0.000102772
0.000116317
0.000165553
0.000190438
0.000171184
0.000129807
0.000110659
0.0001044
0.000101078
0.000102307
0.000111144
0.0001482
0.000191152
0.000185671
0.000147054
0.000118215
0.000107434
0.000103386
0.00010082
0.000101795
0.000107922
0.000133754
0.000187194
0.000192617
0.000167408
0.000129531
0.000111997
0.000105701
0.00010259
0.00010063
0.000101297
0.00010603
0.000124343
0.000175702
0.000199409
0.000184371
0.000144195
0.000119053
0.000108512
0.0001045
0.000102037
0.000100467
0.000100961
0.000105251
0.000117599
0.00015806
0.000199656
0.000195781
0.000162214
0.000128419
0.000113001
0.000106578
0.000103612
0.00010146
0.000100382
0.000100742
0.00010482
0.000113421
0.000141724
0.000195196
0.000201757
0.000180652
0.000141231
0.000119137
0.000109349
0.000105298
0.00010286
0.000101038
0.000100298
0.000100601
0.000104533
0.000110849
0.000131291
0.000183424
0.00020751
0.000195213
0.000156707
0.000127414
0.000113773
0.000107146
0.000104296
0.000102044
0.000100783
0.000100214
0.00010052
0.000104319
0.000109271
0.000123724
0.000164941
0.00020702
0.000204759
0.000175257
0.000137903
0.000119294
0.00011007
0.000105807
0.000103406
0.000101395
0.000100586
0.000100136
0.000100482
0.000104148
0.000108266
0.000118852
0.000148224
0.000201539
0.000210654
0.000192443
0.00015254
0.000126304
0.000114383
0.000107616
0.000104739
0.000102557
0.000100939
0.000100412
0.000100069
0.000100465
0.000103966
0.000107569
0.000115904
0.000137029
0.000187885
0.000214788
0.000205535
0.00016893
0.000135501
0.000119436
0.000110894
0.000106199
0.000103823
0.000101783
0.000100605
0.00010025
0.000100014
0.000100467
0.000103777
0.000107135
0.00011404
0.000129483
0.000169157
0.000213134
0.000213132
0.000187849
0.000148269
0.000125446
0.000114915
0.000108316
0.000105106
0.000103011
0.000101144
0.000100357
0.000100097
9.9974e-05
0.000100487
0.000103612
0.000106815
0.000112614
0.000124897
0.000153343
0.000206054
0.000218886
0.000203745
0.000164354
0.000133667
0.000119665
0.00011159
0.00010662
0.000104176
0.000102262
0.000100651
0.000100161
9.99523e-05
9.99487e-05
0.000100499
0.000103461
0.000106568
0.000111599
0.000122001
0.000142262
0.000189876
0.000220986
0.000215086
0.000181955
0.000144984
0.000124931
0.000115537
0.000109142
0.000105491
0.000103382
0.000101568
0.000100286
9.99906e-05
9.98372e-05
9.99312e-05
0.000100501
0.000103308
0.000106363
0.000110881
0.000119643
0.000135076
0.000170822
0.00021782
0.000220984
0.000200481
0.000160235
0.000132267
0.000119772
0.000112309
0.00010735
0.000104575
0.000102676
0.000100968
0.000100041
9.9824e-05
9.97734e-05
9.99168e-05
0.000100507
0.000103156
0.000106157
0.000110301
0.000117632
0.000130535
0.000155608
0.000208282
0.000226569
0.000215051
0.000177286
0.000142521
0.000124606
0.000116078
0.000109949
0.000106056
0.000103773
0.000102038
0.000100494
9.98885e-05
9.96629e-05
9.97574e-05
9.99233e-05
0.000100514
0.000103015
0.000105948
0.000109777
0.000116015
0.000127205
0.000145314
0.000188832
0.000226227
0.000224008
0.00019627
0.000156366
0.000130999
0.000119718
0.0001132
0.000108224
0.000105071
0.000103087
0.000101506
0.000100167
9.97796e-05
9.95858e-05
9.97877e-05
9.99517e-05
0.000100516
0.000102877
0.000105731
0.000109281
0.000114879
0.000124358
0.000138739
0.000170082
0.000221159
0.000229597
0.000213291
0.00017325
0.000140406
0.000124333
0.000116441
0.000110984
0.00010687
0.000104274
0.000102509
0.000101064
9.99855e-05
9.97102e-05
9.96467e-05
9.98764e-05
0.000100006
0.000100506
0.000102748
0.000105513
0.000108795
0.000114062
0.00012191
0.000134389
0.000156258
0.000207511
0.000233198
0.00022601
0.000191221
0.000152861
0.000130109
0.000120178
0.000113973
0.000109244
0.000105816
0.000103632
0.000102047
0.000100762
9.99583e-05
9.97307e-05
9.98322e-05
0.000100066
0.000100094
0.000100473
0.000102623
0.00010526
0.000108346
0.000113281
0.000119984
0.000130904
0.000146876
0.00018646
0.000231012
0.000232464
0.000210617
0.000169118
0.000138647
0.000124274
0.000117081
0.000111928
0.000107881
0.000105056
0.000103108
0.000101713
0.000100643
0.000100067
9.99275e-05
0.000100165
0.000100395
0.000100232
0.000100424
0.000102492
0.000104982
0.000107972
0.000112423
0.000118518
0.00012772
0.000140863
0.00016878
0.00022298
0.000238571
0.000225989
0.000186878
0.000150249
0.000129956
0.000120577
0.000114671
0.00011024
0.00010684
0.000104505
0.00010274
0.000101553
0.000100749
0.000100369
0.00010039
0.000100728
0.000100904
0.000100481
0.000100371
0.000102343
0.000104706
0.000107624
0.000111559
0.000117278
0.000124945
0.000136666
0.000156306
0.000204591
0.000238882
0.00023601
0.000206412
0.000165177
0.000137219
0.000124487
0.000117759
0.000112784
0.000108906
0.000106072
0.000104087
0.000102554
0.000101624
0.000101123
0.00010094
0.000101171
0.000101643
0.000101566
0.000100766
0.000100301
0.000102191
0.00010444
0.000107259
0.00011081
0.000116085
0.000122702
0.00013316
0.000147794
0.000182895
0.000234503
0.000241555
0.000224651
0.000183089
0.000148079
0.000129514
0.000120885
0.000115461
0.000111296
0.000107922
0.000105582
0.000103868
0.000102604
0.000101977
0.00010182
0.00010196
0.000102449
0.000102995
0.00010278
0.000101016
0.000100219
0.000102047
0.000104145
0.000106851
0.000110197
0.000114942
0.00012083
0.000130052
0.000142246
0.000166593
0.000222669
0.000246281
0.00023824
0.000201509
0.000161451
0.000136305
0.000124838
0.000118259
0.000113691
0.000110177
0.00010729
0.000105343
0.000103947
0.000102965
0.000102704
0.000102874
0.000103482
0.000104402
0.000105008
0.000104697
0.00010157
0.000100182
0.000101869
0.000103792
0.000106416
0.000109626
0.000113917
0.000119255
0.000127271
0.000138402
0.000155431
0.000198988
0.000244048
0.000245259
0.000222295
0.000178671
0.000145516
0.000129134
0.000121518
0.000116281
0.000112411
0.000109384
0.000107022
0.000105398
0.000104361
0.000103773
0.000103901
0.000104545
0.000105725
0.000107009
0.000107842
0.000106858
0.000102236
0.000100174
0.000101591
0.000103444
0.000105979
0.000108972
0.000113005
0.000117922
0.000124776
0.000135298
0.000147965
0.000178109
0.000236381
0.000251845
0.000238312
0.000197054
0.000158461
0.000135469
0.000124845
0.000119076
0.000114841
0.0001115
0.000108968
0.000107082
0.00010583
0.000105195
0.000105213
0.00010581
0.000107102
0.000108834
0.000110312
0.000110872
0.000107981
0.000102375
0.000100146
0.000101237
0.000103065
0.000105503
0.000108276
0.000112195
0.000116684
0.000122672
0.000132346
0.000143335
0.000163913
0.000218202
0.000252383
0.000249382
0.000217543
0.000173619
0.000143464
0.000129308
0.000122023
0.000117337
0.000113814
0.000111008
0.000108983
0.000107512
0.000106771
0.000106666
0.000107342
0.000108648
0.000110478
0.000112261
0.000105846
0.000100003
9.84295e-05
0.000101562
0.00010009
0.000100904
0.000102675
0.000104948
0.000107547
0.000111368
0.000115438
0.000120941
0.000129387
0.000140164
0.000154297
0.000192064
0.000247946
0.000254743
0.000237366
0.000193021
0.000155024
0.000134248
0.000125395
0.000119929
0.000116169
0.00011324
0.000110959
0.000109432
0.000108552
0.000108424
0.00010912
0.000110442
0.000111308
0.00010224
9.50325e-05
8.89692e-05
8.90986e-05
9.70865e-05
9.50477e-05
0.000100486
0.00010144
0.000101737
0.000100038
0.000100667
0.000102277
0.000104376
0.000106872
0.000110439
0.00011432
0.000119362
0.000126697
0.000137185
0.000147977
0.0001737
0.000236039
0.000260518
0.000251483
0.000211761
0.000169568
0.000142055
0.000129008
0.000122742
0.000118507
0.00011551
0.000113128
0.000111406
0.000110528
0.000110445
0.000111033
0.000112375
0.0001021
9.30664e-05
8.47756e-05
7.88594e-05
7.81561e-05
8.85244e-05
8.22598e-05
9.25496e-05
0.000100296
9.75286e-05
0.000100832
9.99899e-05
0.000100422
0.000101708
0.000103834
0.000106223
0.000109387
0.000113408
0.000117763
0.000124469
0.000134103
0.000144047
0.000161552
0.000210821
0.000257668
0.000259246
0.000234782
0.000187027
0.000151556
0.000133942
0.000125721
0.000120999
0.000117739
0.000115326
0.000113548
0.000112594
0.000112569
0.000113311
0.000104798
9.46519e-05
8.50259e-05
7.73328e-05
7.14386e-05
7.60728e-05
7.07796e-05
7.40554e-05
7.197e-05
6.7939e-05
8.7175e-05
7.63861e-05
9.01021e-05
0.000100043
0.000101689
9.9881e-05
9.99457e-05
0.000100163
0.000101124
0.000103266
0.000105464
0.000108297
0.000112459
0.000116192
0.000122544
0.000131231
0.000140901
0.00015324
0.000185363
0.000250121
0.000265888
0.000251328
0.000207342
0.00016555
0.000140045
0.000129112
0.000123553
0.00011998
0.000117514
0.000115703
0.000114795
0.000114773
0.000112926
9.97941e-05
8.8741e-05
8.03554e-05
7.24643e-05
6.65197e-05
6.67878e-05
6.44133e-05
6.40303e-05
7.07125e-05
6.11737e-05
6.5476e-05
8.13354e-05
7.28762e-05
9.04265e-05
9.99057e-05
0.000100426
9.91584e-05
9.99112e-05
9.99245e-05
0.000100639
0.000102688
0.000104678
0.000107225
0.000111355
0.000114925
0.000120645
0.000128798
0.00013805
0.000147452
0.0001701
0.00023232
0.000267439
0.000263734
0.00022785
0.000181366
0.000149307
0.000133282
0.000126289
0.000122181
0.000119657
0.000117822
0.000116982
0.000117048
0.000111164
9.62017e-05
8.57688e-05
7.83544e-05
7.78409e-05
7.83479e-05
6.57622e-05
8.14173e-05
6.41694e-05
6.84673e-05
6.17117e-05
6.61492e-05
6.28562e-05
6.21857e-05
7.90266e-05
6.91323e-05
8.71113e-05
0.00010005
9.22615e-05
8.78745e-05
9.98903e-05
9.97387e-05
0.000100207
0.000101992
0.000103906
0.000106301
0.000110139
0.0001138
0.00011887
0.000126662
0.000135541
0.000143631
0.00015911
0.000201865
0.000262427
0.000268694
0.000250941
0.000201478
0.000160744
0.000138844
0.00012933
0.000124509
0.000121624
0.000119889
0.00011906
0.00011923
0.000109624
9.52477e-05
8.46156e-05
8.52431e-05
0.00010063
0.000123667
0.000107418
0.000116871
9.78956e-05
0.000107489
7.13405e-05
0.00010064
7.49227e-05
6.28855e-05
7.64899e-05
7.64731e-05
7.39158e-05
6.40318e-05
7.66836e-05
5.08068e-05
6.98232e-05
4.77884e-05
9.99128e-05
9.96728e-05
9.98554e-05
0.000101328
0.000103131
0.000105415
0.000108815
0.000112643
0.00011727
0.000124698
0.000133318
0.000140908
0.000151475
0.000180149
0.000250451
0.000276431
0.000264579
0.000222008
0.000176589
0.000146543
0.000132862
0.000126894
0.000123546
0.00012174
0.000121042
0.000121307
0.00011017
9.40312e-05
8.75206e-05
9.85189e-05
0.00013905
0.000159906
0.000143713
0.000185859
0.000124
0.000162908
0.000108918
0.000134494
9.84479e-05
0.000110326
9.56905e-05
7.36072e-05
9.26291e-05
8.94326e-05
6.48732e-05
6.72037e-05
6.01748e-05
2.78917e-05
4.79118e-05
3.04567e-05
0.000100047
9.97461e-05
9.96149e-05
0.000100816
0.000102476
0.000104575
0.000107561
0.000111483
0.000115754
0.00012297
0.000131277
0.000138822
0.000146391
0.000166394
0.000225707
0.000273205
0.000275095
0.000245687
0.000194259
0.000157021
0.000137754
0.00012944
0.000125409
0.000123403
0.000122644
0.000123285
0.000112742
9.42544e-05
9.06808e-05
0.000132937
0.000164358
0.000221865
0.000231002
0.000289185
0.000218971
0.0002854
0.000187863
0.000261801
0.000144498
0.000214708
0.000110839
0.000153973
0.000109552
8.65797e-05
0.000106056
0.000100256
5.95186e-05
8.48656e-05
4.77398e-05
1.86738e-05
3.37565e-05
2.46605e-05
0.000100216
0.000100049
9.96704e-05
0.000100638
0.000102047
0.000103847
0.000106586
0.000110081
0.000114328
0.000121216
0.00012939
0.000137006
0.000143114
0.000156618
0.0001942
0.000266313
0.000280069
0.000265859
0.000216062
0.000170834
0.00014407
0.000132629
0.000127337
0.000125035
0.000123895
0.000124749
0.00011709
9.63986e-05
9.25388e-05
0.000145451
0.000208115
0.000288062
0.000344383
0.000404015
0.000360525
0.000424385
0.00034311
0.000417695
0.000303862
0.000387798
0.000240628
0.000336364
0.000160284
0.000260092
0.000161408
9.32463e-05
0.000156301
0.000144879
7.84108e-05
8.59267e-05
4.84379e-05
1.55127e-05
3.06579e-05
2.55249e-05
0.000101009
0.000101288
0.000100859
0.000101125
0.000101965
0.000103295
0.000105778
0.000108752
0.000113417
0.000119407
0.000127544
0.000135256
0.000140836
0.000150112
0.000176241
0.00024955
0.000285775
0.000277555
0.000237833
0.00018794
0.000153435
0.000136475
0.000129513
0.00012644
0.000125182
0.000125705
0.00012341
0.000100601
9.33948e-05
0.000149426
0.000230244
0.000366517
0.000455072
0.000509061
0.000484327
0.000528038
0.000477474
0.000523416
0.000454837
0.000504166
0.000415549
0.000473474
0.000356435
0.00042978
0.000269272
0.000365278
0.000268902
0.0001295
0.000260154
0.000242524
7.96432e-05
0.000112888
7.81239e-05
1.34578e-05
4.10413e-05
2.40355e-05
0.000101587
0.000102941
0.000103035
0.000102443
0.00010239
0.000103173
0.00010515
0.000107852
0.000112534
0.000117992
0.000125437
0.000133645
0.000139301
0.000145579
0.000163994
0.000219667
0.000280337
0.000286121
0.000262519
0.000208163
0.000165333
0.000142115
0.000131885
0.00012783
0.000126432
0.000126377
0.000128639
0.000106932
9.55662e-05
0.000143633
0.000248278
0.000410804
0.000539351
0.000584233
0.000561465
0.000588084
0.00055628
0.00057958
0.000537541
0.000559165
0.000510762
0.000533826
0.000477759
0.000505592
0.000433451
0.000473519
0.000365113
0.000430012
0.000358068
0.000216992
0.000345609
0.000328463
9.77401e-05
0.000185809
8.79097e-05
8.56953e-06
7.97421e-05
4.26417e-05
0.000102805
0.000106094
0.0001059
0.000104849
0.000103843
0.000103893
0.000105271
0.00010759
0.000111746
0.000117396
0.000123278
0.000131934
0.000138599
0.000142605
0.00015512
0.000189825
0.000270492
0.000291488
0.000279591
0.000230711
0.000181377
0.000149438
0.000135329
0.000129378
0.000127562
0.000127191
0.000129214
0.000115244
9.83815e-05
0.000138514
0.000248584
0.000468399
0.000597243
0.000624503
0.00060787
0.000626396
0.000597179
0.000610936
0.000575782
0.000589802
0.000550906
0.000567831
0.000523798
0.000543039
0.00049486
0.000513405
0.000464704
0.000483416
0.000422099
0.000454016
0.000411372
0.000306285
0.000399038
0.000385114
0.000153834
0.00028086
0.00012641
7.57065e-06
0.000109151
9.10427e-05
0.000105193
0.000112887
0.000114219
0.000111546
0.000108287
0.000106549
0.000106574
0.000108033
0.000111677
0.000116907
0.000121703
0.000129566
0.000138019
0.000141584
0.000148996
0.000174276
0.000249739
0.000295381
0.000290195
0.000254972
0.000199884
0.000160445
0.000139737
0.000131317
0.000128295
0.000127834
0.000129579
0.000124896
0.000104405
0.000128193
0.000240501
0.000502405
0.000661741
0.000639388
0.00065505
0.000623709
0.000633973
0.00060458
0.000620607
0.000590489
0.000612212
0.000568836
0.000605666
0.000541921
0.000583617
0.000504447
0.00054291
0.00047093
0.0004992
0.000443157
0.000459586
0.0004323
0.000369653
0.000421866
0.000412443
0.000254716
0.000354414
0.000229802
1.70831e-05
0.000199913
0.000199504
0.000108641
0.000125158
0.000131158
0.000128512
0.000121426
0.000114482
0.000110617
0.000109741
0.000112169
0.000116695
0.000121008
0.000126938
0.000137252
0.000141618
0.00014567
0.000162886
0.000219344
0.000288702
0.000297275
0.00027863
0.000222278
0.000173954
0.000146423
0.000133544
0.000129114
0.000128378
0.000129438
0.000132999
0.000112833
0.000124659
0.000218992
0.000499464
0.00068739
0.000662561
0.00066952
0.000645084
0.000653684
0.000635874
0.000650623
0.000642266
0.00067178
0.000650026
0.00069157
0.000641734
0.000686516
0.000607253
0.000667321
0.000550097
0.000629258
0.000491741
0.000555594
0.000448915
0.000481875
0.000438145
0.000404695
0.000428312
0.000420367
0.000342724
0.000399929
0.000338782
0.000153316
0.000323034
0.000397748
0.000116175
0.000149639
0.000163763
0.000161573
0.000149584
0.00013419
0.000121171
0.00011441
0.000113964
0.000116995
0.000120694
0.000125061
0.000136033
0.000142321
0.000144834
0.000155162
0.000190686
0.000277454
0.000302795
0.000292836
0.000245549
0.000191885
0.000154745
0.000137529
0.000130307
0.000128844
0.000129446
0.000133417
0.000124698
0.000125037
0.000192578
0.000482018
0.000715975
0.00067678
0.000682788
0.000685128
0.0006908
0.000663844
0.000676892
0.000699106
0.000724721
0.000719066
0.000738273
0.000710307
0.000724938
0.000693516
0.000707311
0.000673128
0.000690725
0.000635357
0.000670315
0.000553121
0.000631726
0.000470175
0.00054217
0.000455872
0.000415491
0.000440501
0.000426142
0.000402653
0.000415661
0.000423753
0.000444729
0.000326615
0.000480087
0.000114628
0.000159104
0.000186511
0.000199971
0.000195228
0.000172416
0.000147067
0.000126178
0.000118362
0.000118338
0.000120928
0.000124043
0.000133397
0.000144211
0.000145247
0.00015145
0.000175003
0.000256068
0.000306801
0.000302331
0.00027037
0.000211771
0.000167414
0.000142574
0.00013184
0.000128827
0.000129236
0.000132738
0.000134166
0.000127437
0.00017054
0.00043667
0.000727678
0.000689004
0.000701492
0.000696686
0.000699289
0.000774101
0.000782421
0.000744374
0.000761655
0.000753178
0.000769326
0.000735497
0.000742978
0.00070757
0.000696881
0.000685528
0.000658243
0.000676525
0.000644712
0.000663064
0.000654931
0.000621507
0.000651777
0.000524151
0.00060564
0.000501403
0.000415385
0.000475643
0.000448845
0.000424413
0.000409697
0.000441998
0.000313837
0.000346774
0.00042857
0.000122444
0.000177583
0.000209628
0.000223525
0.000222176
0.000191215
0.000152558
0.000129078
0.000121955
0.000121897
0.000124108
0.00013046
0.0001447
0.000147476
0.00015076
0.000166787
0.00022708
0.000300359
0.000309339
0.000292285
0.00023518
0.000182363
0.000150242
0.000134437
0.000129435
0.000129084
0.000131422
0.000134508
0.000130205
0.000150878
0.000372123
0.000735139
0.000696838
0.000701085
0.000698768
0.000787637
0.000786586
0.000819951
0.000837897
0.000785652
0.000802425
0.000749665
0.000756944
0.000679216
0.000662318
0.000610453
0.00056172
0.00058085
0.000510752
0.00059745
0.000510384
0.00063178
0.000555292
0.000637229
0.000613326
0.000584351
0.000620273
0.000558186
0.000423784
0.0005265
0.000491919
0.000404316
0.000399783
0.000401407
9.34111e-05
0.000420968
0.000373063
0.000114569
0.000173694
0.000220268
0.000241154
0.000238849
0.000197632
0.000152306
0.000129881
0.000124434
0.000124749
0.000129438
0.000143651
0.000150877
0.000151564
0.00016238
0.0002016
0.000289179
0.000315252
0.000305523
0.000258209
0.000201771
0.000159933
0.000139197
0.000130566
0.000129199
0.000130547
0.000134809
0.000132972
0.000136294
0.000312255
0.000729188
0.000710226
0.000757699
0.000734821
0.000780114
0.000767009
0.000855965
0.000871859
0.000815634
0.000846004
0.000771414
0.00079008
0.000650243
0.000650068
0.000522847
0.000496974
0.000468481
0.000447322
0.000453507
0.000431305
0.000461714
0.000423617
0.000526074
0.000435085
0.000597427
0.000508591
0.00056735
0.000534263
0.000527045
0.000454076
0.000492836
0.000480872
0.000376511
0.000413703
0.000378569
3.75002e-05
0.000430087
0.000345079
0.000111726
0.000158927
0.000223329
0.000252538
0.000248069
0.00019597
0.000149398
0.000130527
0.000126536
0.000129575
0.000141534
0.000153165
0.000154759
0.000161374
0.000185348
0.000270967
0.000319442
0.0003148
0.00028261
0.000222347
0.000173902
0.000145432
0.000132003
0.00012899
0.000129764
0.000134281
0.000134862
0.000129148
0.000259942
0.00068556
0.000731382
0.000758793
0.000868568
0.00085704
0.000882484
0.000882512
0.000876851
0.000905173
0.000731415
0.000783324
0.000664865
0.00069051
0.000482897
0.000480811
0.000432311
0.000419152
0.000417117
0.000404741
0.00040425
0.00038957
0.000404187
0.000381649
0.00041874
0.000387514
0.000493905
0.000407622
0.000484612
0.000453724
0.000463628
0.000483258
0.000435267
0.000390677
0.000505798
0.000384739
0.000425822
0.000460465
0.000393275
0.000123286
0.00037289
0.000393134
0.000110332
0.00014476
0.000226098
0.00026269
0.00025
0.000188014
0.000143132
0.000131054
0.000130474
0.000139574
0.000154931
0.000158029
0.000162478
0.000179509
0.000250965
0.000317557
0.000321999
0.000303644
0.0002456
0.000190499
0.000153773
0.000135224
0.000129517
0.000129297
0.000132815
0.000135232
0.000127774
0.000217829
0.00060713
0.000760186
0.000734069
0.000941862
0.000906852
0.000956475
0.00095605
0.000929478
0.000946304
0.000838565
0.000892862
0.000601357
0.000674724
0.000500937
0.000540117
0.000406978
0.000396752
0.000394327
0.000385131
0.000382096
0.000377864
0.000377723
0.000384542
0.000367977
0.000375143
0.000374366
0.00035942
0.000399713
0.00036402
0.000422782
0.000391791
0.000421158
0.000455206
0.00036583
0.000390275
0.000494241
0.000399114
0.000434373
0.000364632
0.000351434
0.000411273
0.000404836
0.000434587
0.000447577
0.000479438
0.000421613
0.000414755
0.000355789
0.000466117
0.000403878
0.000412133
0.000388816
0.000332184
0.000301854
0.000352217
0.000107608
0.000141916
0.000238059
0.00027756
0.000243453
0.000168839
0.000138945
0.000132886
0.00013812
0.000156382
0.00016181
0.00016568
0.000178602
0.000232964
0.000311007
0.000328926
0.000317954
0.000268178
0.000210191
0.000165586
0.000141459
0.000130366
0.000129593
0.00013148
0.0001347
0.000129344
0.000184524
0.000480505
0.000771425
0.000723716
0.000864178
0.00081196
0.00102639
0.00102017
0.00100535
0.00102147
0.000940128
0.000978123
0.000756071
0.000833556
0.000478709
0.000564425
0.000394146
0.000419491
0.000377125
0.000367859
0.000372709
0.000365686
0.000389128
0.000389871
0.000391826
0.000401715
0.00037407
0.000392173
0.000354615
0.0003555
0.000362353
0.000370098
0.000371088
0.000354781
0.000348169
0.00034524
0.000344405
0.000339324
0.000396347
0.00035979
0.000366201
0.000378389
0.000410815
0.000447323
0.000412091
0.000392306
0.000368854
0.000369526
0.000399872
0.000442462
0.000464428
0.000446607
0.000401617
0.000382648
0.000578731
0.000522388
0.000276546
0.000407242
0.000419114
0.000316058
0.000216345
0.000106179
0.000148653
0.000266498
0.000286227
0.000218689
0.00015514
0.000138858
0.000138884
0.00015617
0.0001666
0.000169354
0.000180151
0.000221538
0.000303177
0.000335781
0.000327895
0.000292057
0.000231499
0.000180742
0.000149103
0.000132432
0.000130253
0.000131094
0.000134085
0.000131814
0.000157225
0.000351313
0.00077222
0.000729569
0.000815326
0.000997131
0.000973645
0.00107722
0.00108978
0.00101496
0.00105203
0.000904369
0.000965221
0.000661722
0.000756231
0.000402434
0.000476336
0.000352951
0.000355428
0.000357023
0.000345812
0.00038744
0.000379505
0.000403813
0.000400154
0.000404038
0.000406121
0.000377624
0.000384902
0.000390243
0.000395649
0.000356989
0.000364389
0.000371134
0.000350028
0.00033891
0.000350184
0.000342581
0.000337488
0.00036325
0.0003498
0.000362539
0.000347462
0.000355501
0.000401375
0.000418693
0.000400065
0.000372983
0.0003586
0.000354394
0.000378628
0.000430064
0.000410242
0.000412095
0.000385515
0.000412765
0.000449186
0.000496811
0.000280099
0.00041035
0.000392559
0.000312131
0.000184365
0.000106245
0.000182602
0.000305336
0.000278742
0.00018721
0.000149285
0.000142014
0.000153583
0.000173277
0.000174457
0.000183373
0.000214813
0.000296674
0.00034217
0.000337348
0.000312996
0.000254063
0.000198799
0.000159426
0.000137449
0.000131469
0.000131483
0.000134062
0.000134324
0.000140995
0.000276505
0.000745642
0.000745494
0.000763586
0.00104328
0.000967096
0.00108665
0.00107562
0.00109173
0.00112309
0.000991785
0.00104765
0.00084497
0.000923944
0.00057372
0.000675478
0.00035902
0.00039265
0.000329037
0.000323485
0.000368582
0.000348356
0.000389896
0.000381928
0.000402957
0.000395359
0.000398621
0.000400579
0.000400573
0.000399201
0.000377022
0.000382303
0.000386967
0.000391243
0.00035712
0.000362738
0.000367804
0.000333953
0.000330062
0.000348543
0.000338866
0.000333817
0.000345313
0.000344302
0.000341589
0.000329895
0.00033679
0.000382791
0.000394955
0.000382226
0.000356149
0.000340621
0.000340985
0.000361581
0.000400938
0.000389016
0.000387433
0.000401107
0.000430982
0.000139183
0.000293484
0.000354617
0.000400145
0.000379516
0.000359048
0.000215095
0.000109259
0.000254667
0.000323581
0.000249581
0.000169805
0.000150358
0.000152911
0.000179123
0.000182057
0.000187989
0.000212337
0.000291977
0.000347773
0.000347227
0.000330801
0.000277242
0.000218828
0.000173739
0.000145846
0.000134937
0.000132339
0.000134579
0.000136945
0.000136375
0.000231968
0.000664831
0.000758516
0.000742951
0.00095615
0.00113501
0.00113987
0.00114111
0.00114354
0.00107712
0.0011241
0.000948002
0.00101822
0.000774981
0.000866648
0.000439865
0.000521844
0.000283431
0.000284317
0.000316552
0.000300196
0.00036984
0.000345028
0.000385692
0.000375758
0.000397429
0.000394072
0.000385202
0.00039474
0.000396061
0.000396591
0.000395606
0.000372488
0.000376992
0.000381322
0.000385692
0.000353219
0.000357114
0.000360906
0.00032285
0.000324875
0.000342737
0.000331614
0.000328935
0.000327271
0.000339616
0.0003252
0.000316904
0.000339231
0.000367443
0.000378319
0.000368819
0.000346609
0.000340224
0.000339987
0.000353863
0.000382015
0.000386725
0.00037417
0.000432029
0.000428292
0.000108267
0.000299285
0.000293274
0.000396147
0.000378087
0.000304866
0.000242065
0.000117879
0.000325599
0.000319455
0.000220216
0.000167913
0.000158733
0.000182649
0.000193112
0.000194684
0.000212949
0.000290401
0.000353383
0.00035997
0.00034582
0.000299325
0.000240924
0.00019093
0.000156843
0.000142285
0.000135661
0.000135599
0.000139046
0.000138813
0.00020839
0.000576158
0.000768455
0.000733572
0.000838182
0.00117292
0.00112449
0.00118988
0.00118873
0.00115894
0.00118038
0.00103988
0.0010992
0.000862932
0.000967396
0.000626481
0.000743805
0.00032358
0.000402817
0.000199779
0.000203874
0.00030331
0.000266913
0.000359893
0.00032677
0.000371988
0.000357027
0.000393581
0.000390597
0.000371766
0.000379049
0.000388641
0.00038982
0.000390851
0.000389806
0.000364759
0.00036883
0.000372952
0.000377736
0.000345422
0.000347979
0.000350798
0.000316044
0.000318993
0.000333089
0.000320585
0.000320603
0.000312497
0.000324165
0.00030971
0.000307719
0.000323389
0.000360112
0.000367515
0.000363157
0.000345839
0.000322479
0.00032491
0.000355337
0.000375988
0.000398964
0.000368644
0.000446032
0.000423619
0.000131477
0.000256087
0.000231855
0.000396795
0.000382054
0.000308505
0.000281892
0.000170164
0.000374103
0.000298388
0.000211832
0.000176148
0.000192053
0.0002096
0.000204317
0.000216286
0.000290271
0.000360049
0.000374571
0.000360686
0.00032291
0.000263632
0.0002113
0.000171583
0.000153437
0.000143435
0.000139335
0.000140744
0.000143152
0.000190242
0.000466199
0.000769471
0.000732961
0.000776535
0.00112668
0.0012273
0.00122798
0.00121126
0.00122648
0.00114753
0.00118458
0.000899001
0.001009
0.000688836
0.000790525
0.000497529
0.000594596
0.000242359
0.000311727
0.000139781
0.000145388
0.000274563
0.000193135
0.000335316
0.000292747
0.000363431
0.000354594
0.000328992
0.000344724
0.000388099
0.000384957
0.000367292
0.000374286
0.000380145
0.0003823
0.000383482
0.00038312
0.000354136
0.000358056
0.000362342
0.000367528
0.000334171
0.000335675
0.000337683
0.000309362
0.00030993
0.000320077
0.000306155
0.000308484
0.000300295
0.00030784
0.000294621
0.000300179
0.000307676
0.000362399
0.000364679
0.000367775
0.000331675
0.000308671
0.000309598
0.00034877
0.000379252
0.000413605
0.000370972
0.000438141
0.000418949
0.000148742
0.000235606
0.000157757
0.000396961
0.000345363
0.00034735
0.000361464
0.000264455
0.000388727
0.000284676
0.000218866
0.000216961
0.000235148
0.00022098
0.000222983
0.000290234
0.000367694
0.000391201
0.000376779
0.000345729
0.000287751
0.000233498
0.000191213
0.000169799
0.000155929
0.000147341
0.000144674
0.000146472
0.000174779
0.000345973
0.00075529
0.000743474
0.00074465
0.000976358
0.00125239
0.00122813
0.00125067
0.00125835
0.00120061
0.00123051
0.00111025
0.00116053
0.000728856
0.000829678
0.000554018
0.000636566
0.000400946
0.000478345
0.00018015
0.000239692
9.79549e-05
0.000104102
0.000205335
0.000133024
0.000296836
0.000244651
0.000359578
0.000347698
0.000320886
0.000335292
0.00038196
0.000379292
0.000362494
0.000369278
0.000370203
0.000373224
0.000375422
0.000375969
0.000340431
0.000344266
0.000349147
0.000355291
0.000319769
0.000320047
0.000321421
0.000299883
0.000297111
0.000303919
0.000288749
0.000292965
0.000291671
0.000292274
0.000284261
0.00029053
0.000292232
0.000370585
0.000372845
0.000376886
0.000314027
0.000293563
0.000297893
0.000324414
0.000388126
0.000418404
0.000381622
0.000430536
0.00041195
0.000110762
0.000214371
0.000125962
0.000368459
0.000360389
0.000361892
0.000347597
0.000400887
0.00039904
0.000289883
0.000257601
0.000271272
0.000251852
0.000236037
0.000290904
0.000375591
0.000408858
0.000395023
0.000368553
0.000312234
0.000257568
0.000214612
0.000190614
0.000172341
0.000157581
0.000149752
0.000148776
0.000169067
0.000279465
0.000710946
0.000753084
0.000731625
0.000853878
0.00123279
0.001274
0.00128231
0.00123847
0.00126223
0.00114073
0.00120438
0.000936128
0.00103784
0.00059069
0.000668055
0.000456047
0.000519499
0.000322204
0.00039509
0.000133517
0.000182203
9.26681e-05
9.88449e-05
0.000147948
0.000111251
0.000289623
0.000263502
0.000218946
0.000170473
0.000354081
0.000343775
0.000312475
0.000330009
0.00037574
0.000373924
0.000357964
0.000364476
0.000358553
0.000362795
0.00036627
0.000368181
0.000324099
0.000328101
0.000333854
0.000340908
0.00030235
0.000302288
0.000303811
0.000286729
0.000280879
0.000285358
0.000268914
0.00027459
0.000281771
0.000278872
0.000273922
0.000277379
0.000276182
0.000347038
0.000384819
0.000373951
0.000303173
0.000279453
0.000285677
0.000311984
0.000395976
0.000406796
0.000391386
0.000399122
0.000379555
0.000118109
0.000182757
0.000106782
0.000373616
0.000366232
0.000347558
0.000332777