/*--------------------------------*- C++ -*----------------------------------*\
  =========                 |
  \\      /  F ield         | OpenFOAM: The Open Source CFD Toolbox
   \\    /   O peration     | Website:  https://openfoam.org
    \\  /    A nd           | Version:  dev
     \\/     M anipulation  |
\*---------------------------------------------------------------------------*/
FoamFile
{
    version     2.0;
    format      ascii;
    class       volScalarField;
    location    "2500";
    object      O2;
}
// * * * * * * * * * * * * * * * * * * * * * * * * * * * * * * * * * * * * * //

dimensions      [0 0 0 0 0 0 0];

internalField   nonuniform List<scalar> 
9978
(
0.23301
0.23301
0.23301
0.23301
0.23301
0.23301
0.23301
0.23301
0.23301
0.23301
0.23301
0.23301
0.23301
0.23301
0.23301
0.23301
0.23301
0.23301
0.23301
0.23301
0.23301
0.23301
0.23301
0.23301
0.23301
0.23301
0.23301
0.23301
0.23301
0.23301
0.23301
0.23301
0.23301
0.23301
0.23301
0.23301
0.23301
0.23301
0.23301
0.23301
0.23301
0.23301
0.23301
0.23301
0.23301
0.23301
0.23301
0.23301
0.23301
0.23301
0.23301
0.23301
0.23301
0.23301
0.23301
0.23301
0.23301
0.23301
0.23301
0.23301
0.23301
0.23301
0.23301
0.23301
0.23301
0.23301
0.23301
0.23301
0.23301
0.23301
0.23301
0.23301
0.23301
0.23301
0.23301
0.23301
0.23301
0.23301
0.23301
0.23301
0.23301
0.23301
0.23301
0.23301
0.23301
0.23301
0.23301
0.23301
0.23301
0.23301
0.23301
0.23301
0.23301
0.23301
0.23301
0.23301
0.23301
0.23301
0.23301
0.23301
0.23301
0.23301
0.23301
0.23301
0.23301
0.23301
0.23301
0.23301
0.23301
0.23301
0.23301
0.23301
0.23301
0.23301
0.23301
0.23301
0.23301
0.23301
0.23301
0.23301
0.23301
0.23301
0.23301
0.23301
0.23301
0.23301
0.23301
0.23301
0.23301
0.23301
0.23301
0.23301
0.23301
0.23301
0.23301
0.23301
0.23301
0.23301
0.23301
0.23301
0.23301
0.23301
0.23301
0.23301
0.23301
0.23301
0.23301
0.23301
0.23301
0.23301
0.23301
0.23301
0.23301
0.23301
0.23301
0.23301
0.23301
0.23301
0.23301
0.23301
0.23301
0.23301
0.23301
0.23301
0.23301
0.23301
0.23301
0.23301
0.23301
0.23301
0.23301
0.23301
0.23301
0.23301
0.23301
0.23301
0.23301
0.23301
0.23301
0.23301
0.23301
0.23301
0.23301
0.23301
0.23301
0.23301
0.23301
0.23301
0.23301
0.23301
0.23301
0.23301
0.23301
0.23301
0.23301
0.23301
0.23301
0.23301
0.23301
0.23301
0.23301
0.23301
0.23301
0.23301
0.23301
0.23301
0.23301
0.23301
0.23301
0.23301
0.23301
0.23301
0.23301
0.23301
0.23301
0.23301
0.23301
0.23301
0.23301
0.23301
0.23301
0.23301
0.23301
0.23301
0.23301
0.23301
0.23301
0.23301
0.23301
0.23301
0.23301
0.23301
0.23301
0.23301
0.23301
0.23301
0.23301
0.23301
0.23301
0.23301
0.23301
0.23301
0.23301
0.23301
0.23301
0.23301
0.23301
0.23301
0.23301
0.23301
0.23301
0.23301
0.23301
0.23301
0.23301
0.23301
0.23301
0.23301
0.23301
0.23301
0.23301
0.23301
0.23301
0.23301
0.23301
0.23301
0.23301
0.23301
0.23301
0.23301
0.23301
0.23301
0.23301
0.23301
0.23301
0.23301
0.23301
0.23301
0.23301
0.23301
0.23301
0.23301
0.23301
0.23301
0.23301
0.23301
0.23301
0.23301
0.23301
0.23301
0.23301
0.23301
0.23301
0.23301
0.23301
0.23301
0.23301
0.23301
0.23301
0.23301
0.23301
0.23301
0.23301
0.23301
0.23301
0.23301
0.23301
0.23301
0.23301
0.23301
0.23301
0.23301
0.23301
0.23301
0.23301
0.23301
0.23301
0.23301
0.23301
0.23301
0.23301
0.23301
0.23301
0.23301
0.23301
0.23301
0.23301
0.23301
0.23301
0.23301
0.23301
0.23301
0.23301
0.23301
0.23301
0.23301
0.23301
0.23301
0.23301
0.23301
0.23301
0.23301
0.23301
0.23301
0.23301
0.23301
0.23301
0.23301
0.23301
0.23301
0.23301
0.23301
0.23301
0.23301
0.23301
0.23301
0.23301
0.23301
0.23301
0.23301
0.23301
0.23301
0.23301
0.23301
0.23301
0.23301
0.23301
0.23301
0.23301
0.23301
0.23301
0.23301
0.23301
0.23301
0.23301
0.23301
0.23301
0.23301
0.23301
0.23301
0.23301
0.23301
0.23301
0.23301
0.23301
0.23301
0.23301
0.23301
0.23301
0.23301
0.23301
0.23301
0.23301
0.23301
0.23301
0.23301
0.23301
0.23301
0.23301
0.23301
0.23301
0.23301
0.23301
0.23301
0.23301
0.23301
0.23301
0.23301
0.23301
0.23301
0.23301
0.23301
0.23301
0.23301
0.23301
0.23301
0.23301
0.23301
0.23301
0.23301
0.23301
0.23301
0.23301
0.23301
0.23301
0.23301
0.23301
0.23301
0.23301
0.23301
0.23301
0.23301
0.23301
0.23301
0.23301
0.23301
0.23301
0.23301
0.23301
0.23301
0.23301
0.23301
0.23301
0.23301
0.23301
0.23301
0.23301
0.23301
0.23301
0.23301
0.23301
0.23301
0.23301
0.23301
0.23301
0.23301
0.23301
0.23301
0.23301
0.23301
0.23301
0.23301
0.23301
0.23301
0.23301
0.23301
0.23301
0.23301
0.23301
0.23301
0.23301
0.23301
0.23301
0.23301
0.23301
0.23301
0.23301
0.23301
0.23301
0.23301
0.23301
0.23301
0.23301
0.23301
0.23301
0.23301
0.23301
0.23301
0.23301
0.23301
0.23301
0.23301
0.23301
0.23301
0.23301
0.23301
0.23301
0.23301
0.23301
0.23301
0.23301
0.23301
0.23301
0.23301
0.23301
0.23301
0.23301
0.23301
0.23301
0.23301
0.23301
0.23301
0.23301
0.23301
0.23301
0.23301
0.23301
0.23301
0.23301
0.23301
0.23301
0.23301
0.23301
0.23301
0.23301
0.23301
0.23301
0.23301
0.23301
0.23301
0.23301
0.23301
0.23301
0.23301
0.23301
0.23301
0.23301
0.23301
0.23301
0.23301
0.23301
0.23301
0.23301
0.23301
0.23301
0.23301
0.23301
0.23301
0.23301
0.23301
0.23301
0.23301
0.23301
0.23301
0.23301
0.23301
0.23301
0.23301
0.23301
0.23301
0.23301
0.23301
0.23301
0.23301
0.23301
0.23301
0.23301
0.23301
0.23301
0.23301
0.23301
0.23301
0.23301
0.23301
0.23301
0.23301
0.23301
0.23301
0.23301
0.23301
0.23301
0.23301
0.23301
0.23301
0.23301
0.23301
0.23301
0.23301
0.23301
0.23301
0.23301
0.23301
0.23301
0.23301
0.23301
0.23301
0.23301
0.23301
0.23301
0.23301
0.23301
0.23301
0.23301
0.23301
0.23301
0.23301
0.23301
0.23301
0.23301
0.23301
0.23301
0.23301
0.23301
0.23301
0.23301
0.23301
0.23301
0.23301
0.23301
0.23301
0.23301
0.23301
0.23301
0.23301
0.23301
0.23301
0.23301
0.23301
0.23301
0.23301
0.23301
0.23301
0.23301
0.23301
0.23301
0.23301
0.23301
0.23301
0.23301
0.23301
0.23301
0.23301
0.23301
0.23301
0.23301
0.23301
0.23301
0.23301
0.23301
0.23301
0.23301
0.23301
0.23301
0.23301
0.23301
0.23301
0.23301
0.23301
0.23301
0.23301
0.23301
0.23301
0.23301
0.23301
0.23301
0.23301
0.23301
0.23301
0.23301
0.23301
0.23301
0.23301
0.23301
0.23301
0.23301
0.23301
0.23301
0.23301
0.23301
0.23301
0.23301
0.23301
0.23301
0.23301
0.23301
0.23301
0.23301
0.23301
0.23301
0.23301
0.23301
0.23301
0.23301
0.23301
0.23301
0.23301
0.23301
0.23301
0.23301
0.23301
0.23301
0.23301
0.23301
0.23301
0.23301
0.23301
0.23301
0.23301
0.23301
0.23301
0.23301
0.23301
0.23301
0.23301
0.23301
0.23301
0.23301
0.23301
0.23301
0.23301
0.23301
0.23301
0.23301
0.23301
0.23301
0.23301
0.23301
0.23301
0.23301
0.23301
0.23301
0.23301
0.23301
0.23301
0.23301
0.23301
0.23301
0.23301
0.23301
0.23301
0.23301
0.23301
0.23301
0.23301
0.23301
0.23301
0.233009
0.23301
0.233009
0.23301
0.23301
0.23301
0.23301
0.23301
0.23301
0.23301
0.23301
0.23301
0.23301
0.23301
0.23301
0.23301
0.23301
0.23301
0.23301
0.23301
0.23301
0.23301
0.23301
0.23301
0.23301
0.23301
0.23301
0.23301
0.23301
0.23301
0.23301
0.23301
0.23301
0.23301
0.23301
0.23301
0.23301
0.23301
0.23301
0.23301
0.23301
0.23301
0.233009
0.233007
0.233004
0.233007
0.233001
0.233009
0.233006
0.233009
0.23301
0.233009
0.233009
0.23301
0.23301
0.23301
0.23301
0.23301
0.23301
0.23301
0.23301
0.23301
0.23301
0.23301
0.23301
0.23301
0.23301
0.23301
0.23301
0.23301
0.23301
0.23301
0.23301
0.23301
0.23301
0.23301
0.23301
0.23301
0.23301
0.23301
0.23301
0.23301
0.23301
0.23301
0.23301
0.23301
0.23301
0.233009
0.233006
0.232996
0.232972
0.232983
0.232939
0.232994
0.232962
0.233004
0.232986
0.233002
0.233009
0.233002
0.233002
0.23301
0.233009
0.23301
0.23301
0.23301
0.23301
0.23301
0.23301
0.23301
0.23301
0.23301
0.23301
0.23301
0.23301
0.23301
0.23301
0.23301
0.23301
0.23301
0.23301
0.23301
0.23301
0.23301
0.23301
0.23301
0.23301
0.23301
0.23301
0.23301
0.23301
0.23301
0.23301
0.23301
0.23301
0.233009
0.233002
0.232968
0.232877
0.232855
0.232694
0.232884
0.232726
0.232935
0.232811
0.232978
0.232905
0.232973
0.233003
0.23297
0.232972
0.233009
0.233005
0.23301
0.23301
0.23301
0.23301
0.23301
0.23301
0.23301
0.23301
0.23301
0.23301
0.23301
0.23301
0.23301
0.23301
0.23301
0.23301
0.23301
0.23301
0.23301
0.23301
0.23301
0.23301
0.23301
0.23301
0.23301
0.23301
0.23301
0.23301
0.23301
0.23301
0.23301
0.23301
0.233008
0.232991
0.232924
0.23268
0.232503
0.232226
0.232472
0.232144
0.232563
0.232193
0.232725
0.232374
0.232878
0.232637
0.232858
0.232978
0.232852
0.232862
0.233007
0.232988
0.233009
0.23301
0.23301
0.23301
0.23301
0.23301
0.23301
0.23301
0.23301
0.23301
0.23301
0.23301
0.23301
0.23301
0.23301
0.23301
0.23301
0.23301
0.23301
0.23301
0.23301
0.23301
0.23301
0.23301
0.23301
0.23301
0.23301
0.23301
0.23301
0.23301
0.23301
0.23301
0.233008
0.232985
0.232844
0.232436
0.231976
0.231666
0.231769
0.231386
0.23175
0.23127
0.231893
0.231343
0.232185
0.231604
0.232565
0.232019
0.232521
0.232886
0.232512
0.232541
0.232997
0.23292
0.233004
0.23301
0.233008
0.233009
0.23301
0.23301
0.23301
0.23301
0.23301
0.23301
0.23301
0.23301
0.23301
0.23301
0.23301
0.23301
0.23301
0.23301
0.23301
0.23301
0.23301
0.23301
0.23301
0.23301
0.23301
0.23301
0.23301
0.23301
0.23301
0.23301
0.23301
0.23301
0.233008
0.232981
0.232808
0.232151
0.231431
0.231165
0.231012
0.230668
0.230788
0.230335
0.230773
0.230208
0.230965
0.230306
0.231353
0.230635
0.231902
0.231159
0.23184
0.232608
0.231838
0.231902
0.232954
0.232702
0.23298
0.23301
0.232999
0.233006
0.23301
0.23301
0.23301
0.23301
0.23301
0.23301
0.23301
0.23301
0.23301
0.23301
0.23301
0.23301
0.23301
0.23301
0.23301
0.23301
0.23301
0.23301
0.23301
0.23301
0.23301
0.23301
0.23301
0.23301
0.23301
0.23301
0.23301
0.23301
0.233009
0.232983
0.232774
0.232031
0.230985
0.230794
0.23037
0.230112
0.229916
0.22956
0.229665
0.229219
0.229663
0.229086
0.229902
0.229181
0.230369
0.229569
0.231036
0.230176
0.230983
0.232031
0.230999
0.231083
0.232805
0.232214
0.232895
0.233009
0.232953
0.232984
0.23301
0.23301
0.23301
0.23301
0.23301
0.23301
0.23301
0.23301
0.23301
0.23301
0.23301
0.23301
0.23301
0.23301
0.23301
0.23301
0.23301
0.23301
0.23301
0.23301
0.23301
0.23301
0.23301
0.23301
0.23301
0.23301
0.23301
0.23301
0.233009
0.232989
0.232782
0.231905
0.23066
0.230693
0.229905
0.229732
0.229292
0.229117
0.228929
0.228795
0.228737
0.228603
0.228658
0.228462
0.2288
0.228387
0.229306
0.228509
0.230066
0.229131
0.230033
0.231239
0.230072
0.230182
0.232428
0.23145
0.23262
0.233005
0.232766
0.23289
0.23301
0.23301
0.23301
0.23301
0.23301
0.23301
0.23301
0.23301
0.23301
0.23301
0.23301
0.23301
0.23301
0.23301
0.23301
0.23301
0.23301
0.23301
0.23301
0.23301
0.23301
0.23301
0.23301
0.23301
0.23301
0.23301
0.23301
0.23301
0.233009
0.232996
0.232802
0.23192
0.230021
0.229653
0.229441
0.229024
0.22897
0.228747
0.228753
0.228595
0.228631
0.228453
0.22852
0.228303
0.228368
0.228186
0.228182
0.228304
0.228025
0.229047
0.228162
0.229038
0.230356
0.229099
0.229228
0.231707
0.230573
0.231964
0.232983
0.232264
0.232538
0.23301
0.23301
0.23301
0.23301
0.23301
0.23301
0.23301
0.23301
0.23301
0.23301
0.23301
0.23301
0.23301
0.23301
0.23301
0.23301
0.23301
0.23301
0.23301
0.23301
0.23301
0.23301
0.23301
0.23301
0.23301
0.23301
0.23301
0.23301
0.23301
0.233
0.232844
0.231981
0.230089
0.228944
0.228961
0.228955
0.228933
0.228768
0.228795
0.22871
0.22883
0.228683
0.228957
0.228581
0.228979
0.22835
0.228781
0.228081
0.228391
0.227885
0.227981
0.228088
0.227751
0.228087
0.229405
0.22815
0.228277
0.230794
0.229595
0.231
0.232621
0.231263
0.231203
0.23301
0.23301
0.23301
0.23301
0.23301
0.23301
0.23301
0.23301
0.23301
0.23301
0.23301
0.23301
0.23301
0.23301
0.23301
0.23301
0.23301
0.23301
0.23301
0.23301
0.23301
0.23301
0.23301
0.23301
0.23301
0.23301
0.23301
0.23301
0.23301
0.233004
0.23289
0.232112
0.230259
0.228983
0.229013
0.228858
0.228857
0.228826
0.228847
0.228967
0.229098
0.229257
0.229533
0.229449
0.229913
0.229401
0.230033
0.229038
0.229821
0.228435
0.229264
0.227869
0.228437
0.227633
0.227731
0.227541
0.228432
0.227496
0.227507
0.229751
0.228566
0.229776
0.230636
0.229471
0.228533
0.23301
0.23301
0.23301
0.23301
0.23301
0.23301
0.23301
0.23301
0.23301
0.23301
0.23301
0.23301
0.23301
0.23301
0.23301
0.23301
0.23301
0.23301
0.23301
0.23301
0.23301
0.23301
0.23301
0.23301
0.23301
0.23301
0.23301
0.23301
0.23301
0.233006
0.232931
0.232298
0.230563
0.229061
0.229226
0.228851
0.228838
0.229261
0.229246
0.229196
0.229253
0.229773
0.229949
0.230276
0.23053
0.230524
0.230779
0.230511
0.230877
0.230157
0.230819
0.229396
0.23037
0.228366
0.229416
0.227574
0.22821
0.227418
0.227565
0.227288
0.227192
0.228594
0.227605
0.228291
0.231002
0.227613
0.228472
0.23301
0.23301
0.233009
0.233009
0.233009
0.233009
0.23301
0.23301
0.23301
0.23301
0.23301
0.23301
0.23301
0.23301
0.23301
0.23301
0.23301
0.23301
0.23301
0.23301
0.23301
0.23301
0.23301
0.23301
0.23301
0.23301
0.23301
0.23301
0.233008
0.232962
0.232487
0.230927
0.229055
0.228821
0.228762
0.229204
0.229129
0.230054
0.230001
0.230045
0.230071
0.230691
0.230791
0.230899
0.230968
0.230994
0.231012
0.231065
0.231087
0.230992
0.23116
0.230465
0.231079
0.229315
0.230451
0.227985
0.22909
0.227728
0.22712
0.227476
0.227265
0.227482
0.22704
0.227146
0.232824
0.227202
0.230497
0.23301
0.233009
0.233009
0.233008
0.233008
0.233008
0.23301
0.23301
0.23301
0.23301
0.23301
0.23301
0.23301
0.23301
0.23301
0.23301
0.23301
0.23301
0.23301
0.23301
0.23301
0.23301
0.23301
0.23301
0.23301
0.23301
0.23301
0.233009
0.232983
0.232655
0.231334
0.229282
0.228859
0.228801
0.229048
0.228929
0.229898
0.229764
0.230798
0.230706
0.230849
0.230841
0.231026
0.231096
0.231
0.230998
0.230982
0.230784
0.231084
0.23075
0.231204
0.230985
0.231104
0.231209
0.230332
0.231079
0.22878
0.230109
0.228432
0.227111
0.228079
0.227771
0.226918
0.226989
0.226859
0.23292
0.227514
0.231067
0.23301
0.233009
0.233008
0.233007
0.233006
0.233008
0.23301
0.23301
0.23301
0.23301
0.23301
0.23301
0.23301
0.23301
0.23301
0.23301
0.23301
0.23301
0.23301
0.23301
0.23301
0.23301
0.23301
0.23301
0.23301
0.23301
0.233009
0.232996
0.232785
0.231753
0.229697
0.228802
0.229244
0.229075
0.229605
0.229424
0.230566
0.230389
0.231247
0.231178
0.231185
0.231249
0.231034
0.231125
0.230615
0.230556
0.230276
0.22986
0.230381
0.229642
0.230839
0.229989
0.231189
0.230705
0.231015
0.231165
0.229801
0.230903
0.229359
0.227538
0.228993
0.228728
0.228102
0.22691
0.227142
0.22745
0.226949
0.232651
0.227677
0.229392
0.23301
0.233009
0.233007
0.233005
0.233005
0.233008
0.23301
0.23301
0.23301
0.23301
0.23301
0.23301
0.23301
0.23301
0.23301
0.23301
0.23301
0.23301
0.23301
0.23301
0.23301
0.23301
0.23301
0.23301
0.23301
0.23301
0.232999
0.232876
0.232126
0.230216
0.228807
0.229267
0.229059
0.229726
0.22949
0.230183
0.229957
0.231026
0.230828
0.231495
0.231449
0.231269
0.231446
0.230644
0.230889
0.229651
0.229658
0.228999
0.228617
0.229022
0.228212
0.229649
0.22848
0.230623
0.229378
0.231127
0.230607
0.230722
0.231132
0.231058
0.229792
0.230467
0.22858
0.227872
0.2284
0.229449
0.230119
0.230368
0.229248
0.22708
0.227362
0.227424
0.227796
0.227324
0.227151
0.227249
0.229138
0.227612
0.227271
0.227262
0.227405
0.228316
0.227528
0.23301
0.233009
0.233006
0.233004
0.233005
0.233008
0.23301
0.23301
0.23301
0.23301
0.23301
0.23301
0.23301
0.23301
0.23301
0.23301
0.23301
0.23301
0.23301
0.23301
0.23301
0.23301
0.23301
0.23301
0.23301
0.233005
0.232936
0.232408
0.230784
0.228915
0.228921
0.228798
0.229598
0.229358
0.230101
0.229847
0.230599
0.230353
0.231302
0.231085
0.231679
0.231643
0.231241
0.231557
0.229916
0.230439
0.228517
0.228695
0.227706
0.227532
0.227535
0.226956
0.228034
0.226975
0.22994
0.22918
0.228484
0.22776
0.231
0.23059
0.229117
0.229183
0.229959
0.23116
0.230985
0.231124
0.23105
0.2309
0.22906
0.228272
0.228863
0.22995
0.230619
0.230802
0.229741
0.227661
0.227732
0.228167
0.227576
0.227463
0.228593
0.227408
0.227032
0.227279
0.227358
0.227236
0.22713
0.23301
0.233009
0.233004
0.233002
0.233005
0.233009
0.23301
0.23301
0.23301
0.23301
0.23301
0.23301
0.23301
0.23301
0.23301
0.23301
0.23301
0.23301
0.23301
0.23301
0.23301
0.23301
0.23301
0.23301
0.233007
0.23297
0.232617
0.231317
0.229223
0.228684
0.229136
0.228941
0.229814
0.229571
0.230319
0.230063
0.230838
0.230579
0.231487
0.231242
0.231865
0.231842
0.231108
0.231659
0.229241
0.230086
0.227709
0.228262
0.226774
0.226961
0.226333
0.226151
0.227211
0.226643
0.226313
0.22597
0.228405
0.227682
0.227047
0.230679
0.230035
0.228378
0.2284
0.229238
0.231103
0.231122
0.231112
0.230772
0.23109
0.229532
0.228699
0.229327
0.230422
0.231036
0.230946
0.230208
0.228076
0.227982
0.228566
0.227868
0.227723
0.231182
0.228417
0.226998
0.227558
0.227405
0.227288
0.227048
0.23301
0.233008
0.233003
0.233002
0.233005
0.233009
0.23301
0.23301
0.23301
0.23301
0.23301
0.23301
0.23301
0.23301
0.23301
0.23301
0.23301
0.23301
0.23301
0.23301
0.23301
0.23301
0.23301
0.233009
0.232992
0.232764
0.231763
0.229782
0.228672
0.228905
0.228747
0.229341
0.229124
0.229917
0.229683
0.230421
0.230162
0.230968
0.230691
0.23166
0.231377
0.232054
0.232061
0.231061
0.231806
0.229051
0.230043
0.227509
0.228254
0.226343
0.226872
0.225842
0.22575
0.225784
0.225903
0.22652
0.226105
0.225804
0.225615
0.227622
0.22695
0.226389
0.230139
0.229328
0.227603
0.227617
0.228457
0.230863
0.231128
0.230934
0.230267
0.231127
0.229997
0.229144
0.229785
0.23081
0.231104
0.231072
0.230633
0.22845
0.228333
0.228986
0.228193
0.228024
0.232458
0.227169
0.229196
0.227833
0.227648
0.227453
0.227062
0.23301
0.233006
0.233001
0.233002
0.233007
0.23301
0.23301
0.23301
0.23301
0.23301
0.23301
0.23301
0.23301
0.23301
0.23301
0.23301
0.23301
0.23301
0.23301
0.23301
0.23301
0.23301
0.233009
0.232998
0.232862
0.232142
0.230383
0.22877
0.228604
0.229043
0.228864
0.229461
0.229249
0.229958
0.22973
0.230471
0.230204
0.231065
0.230759
0.231864
0.231544
0.232256
0.23228
0.231153
0.23199
0.229176
0.230267
0.227661
0.228632
0.226104
0.226446
0.227099
0.225531
0.225535
0.225631
0.225819
0.22595
0.225631
0.225425
0.225329
0.226889
0.226293
0.225825
0.229453
0.228554
0.226866
0.226877
0.227674
0.230415
0.231005
0.230564
0.229609
0.23106
0.230424
0.229587
0.230214
0.231022
0.231085
0.231109
0.230939
0.228843
0.228696
0.229407
0.22853
0.228338
0.232522
0.22726
0.229327
0.228117
0.227862
0.22753
0.227056
0.23301
0.233005
0.233001
0.233003
0.233008
0.23301
0.23301
0.23301
0.23301
0.23301
0.23301
0.23301
0.23301
0.23301
0.23301
0.23301
0.23301
0.23301
0.23301
0.23301
0.23301
0.233009
0.233002
0.232924
0.232416
0.23093
0.229057
0.228479
0.228762
0.228624
0.229127
0.22895
0.229519
0.229319
0.22999
0.229762
0.230531
0.230245
0.23119
0.230847
0.232106
0.231771
0.232464
0.232495
0.231426
0.232216
0.229679
0.230779
0.228206
0.229373
0.226105
0.226462
0.227796
0.227108
0.225322
0.225381
0.225553
0.225807
0.225485
0.225263
0.22515
0.22513
0.22623
0.225729
0.225365
0.228691
0.227772
0.226201
0.226206
0.226929
0.229796
0.230717
0.230004
0.228865
0.230855
0.230788
0.230005
0.230585
0.231106
0.230976
0.231075
0.231093
0.229232
0.229051
0.229801
0.228855
0.22863
0.2322
0.227234
0.228629
0.228358
0.22801
0.227521
0.227016
0.233009
0.233003
0.233002
0.233005
0.233009
0.23301
0.23301
0.23301
0.23301
0.23301
0.23301
0.23301
0.23301
0.23301
0.23301
0.23301
0.23301
0.23301
0.23301
0.233009
0.233008
0.233005
0.232964
0.232616
0.231415
0.229547
0.228502
0.228489
0.228851
0.228706
0.229185
0.229016
0.229556
0.229364
0.230065
0.229824
0.230661
0.230343
0.23139
0.231014
0.232371
0.232062
0.23267
0.232701
0.231847
0.232474
0.230417
0.231421
0.228346
0.229105
0.230341
0.229606
0.226146
0.22659
0.228002
0.227345
0.225169
0.2253
0.225526
0.225829
0.225124
0.224992
0.224958
0.224981
0.225663
0.22527
0.225008
0.22791
0.227021
0.225628
0.225623
0.226248
0.229077
0.230233
0.229327
0.228086
0.230489
0.231022
0.230369
0.230869
0.231143
0.230756
0.230971
0.23115
0.229595
0.229378
0.230144
0.229145
0.228872
0.231469
0.227039
0.227673
0.228529
0.228074
0.227476
0.226948
0.233008
0.233003
0.233003
0.233008
0.23301
0.23301
0.23301
0.23301
0.23301
0.23301
0.23301
0.23301
0.23301
0.23301
0.23301
0.23301
0.23301
0.233009
0.233008
0.233007
0.233004
0.232983
0.232763
0.231829
0.230074
0.228619
0.228358
0.22865
0.228537
0.228939
0.228799
0.229249
0.22909
0.229612
0.229422
0.230237
0.229962
0.230912
0.230554
0.231686
0.231297
0.232632
0.2324
0.232846
0.232869
0.232287
0.232712
0.231175
0.232007
0.22871
0.229382
0.230508
0.229996
0.226238
0.226746
0.228264
0.227557
0.22508
0.225265
0.225534
0.225892
0.224858
0.224808
0.224816
0.22489
0.225201
0.224915
0.224746
0.22715
0.226327
0.225159
0.225143
0.225651
0.228308
0.229633
0.22859
0.227318
0.230013
0.231137
0.230651
0.231047
0.231107
0.230414
0.230766
0.231178
0.229907
0.229656
0.230417
0.229379
0.229047
0.228527
0.226827
0.226825
0.228624
0.228071
0.227411
0.226859
0.233006
0.233004
0.233006
0.233009
0.23301
0.23301
0.23301
0.23301
0.23301
0.23301
0.23301
0.23301
0.23301
0.23301
0.23301
0.23301
0.233008
0.233007
0.233005
0.233002
0.232986
0.232858
0.232182
0.230576
0.228895
0.228336
0.228445
0.228787
0.228676
0.229049
0.228916
0.229349
0.229192
0.229727
0.229525
0.230548
0.230227
0.231301
0.230911
0.232066
0.231695
0.232845
0.232723
0.23292
0.23294
0.232602
0.232838
0.231328
0.23181
0.232076
0.232441
0.228994
0.229706
0.230889
0.230347
0.226351
0.226909
0.22851
0.22777
0.225038
0.225261
0.225564
0.225972
0.22468
0.224675
0.224727
0.224844
0.224844
0.224655
0.224574
0.22644
0.225712
0.224795
0.22477
0.225154
0.227537
0.228977
0.227836
0.22659
0.229471
0.231179
0.230851
0.231124
0.231025
0.230014
0.230501
0.231155
0.230155
0.229871
0.230607
0.229546
0.22915
0.229489
0.226621
0.226925
0.228646
0.228033
0.227334
0.226781
0.233005
0.233006
0.233008
0.23301
0.23301
0.23301
0.23301
0.23301
0.23301
0.23301
0.23301
0.23301
0.23301
0.23301
0.233009
0.233005
0.233001
0.232997
0.232994
0.232983
0.2329
0.23243
0.231028
0.229297
0.228374
0.228351
0.22872
0.228611
0.22895
0.228839
0.2292
0.22907
0.229516
0.229347
0.22995
0.229715
0.231016
0.23065
0.2318
0.231409
0.23248
0.232163
0.232938
0.232899
0.232937
0.232965
0.232603
0.232776
0.232867
0.231573
0.231926
0.232216
0.23245
0.229258
0.229968
0.231132
0.230599
0.226475
0.227079
0.228736
0.227967
0.225025
0.225276
0.225616
0.226054
0.224561
0.224585
0.224683
0.224825
0.224584
0.224488
0.224466
0.225801
0.225192
0.224532
0.224498
0.224764
0.226794
0.228302
0.227118
0.225928
0.228917
0.231181
0.230965
0.231139
0.23087
0.229585
0.230192
0.231086
0.230329
0.230013
0.230716
0.229641
0.229177
0.231918
0.226566
0.227712
0.228619
0.227941
0.227227
0.226674
0.233006
0.233008
0.233009
0.23301
0.23301
0.23301
0.23301
0.23301
0.23301
0.23301
0.23301
0.23301
0.23301
0.233007
0.233
0.232985
0.23297
0.232963
0.232961
0.232902
0.232582
0.231438
0.229722
0.228488
0.228329
0.228589
0.228938
0.228845
0.229155
0.229045
0.229422
0.229279
0.229793
0.229591
0.23032
0.230035
0.231606
0.231221
0.232326
0.231984
0.232801
0.232612
0.232972
0.232967
0.232919
0.232968
0.232632
0.232769
0.232877
0.232815
0.231679
0.231993
0.232245
0.232453
0.229497
0.230197
0.231284
0.230797
0.226595
0.227238
0.228908
0.228108
0.225026
0.225299
0.225657
0.226115
0.224478
0.224546
0.22466
0.224812
0.224422
0.22439
0.224393
0.225254
0.224778
0.224372
0.224333
0.224476
0.226114
0.227671
0.22651
0.225357
0.228374
0.231154
0.231007
0.231116
0.230659
0.229132
0.229833
0.230962
0.230423
0.230075
0.230752
0.229654
0.229149
0.232067
0.226606
0.228218
0.228522
0.227792
0.227073
0.226569
0.233007
0.233009
0.23301
0.23301
0.23301
0.23301
0.23301
0.23301
0.23301
0.23301
0.23301
0.233009
0.233005
0.232985
0.232938
0.232889
0.232863
0.232876
0.232876
0.232633
0.231768
0.230126
0.228736
0.228346
0.228501
0.229084
0.229194
0.229081
0.229429
0.229305
0.229752
0.229576
0.230214
0.229963
0.230847
0.230509
0.232221
0.231872
0.232747
0.232524
0.232938
0.232871
0.232982
0.232988
0.232816
0.232769
0.232869
0.232931
0.232965
0.232612
0.232728
0.232727
0.231739
0.232002
0.232225
0.232394
0.22969
0.230385
0.2314
0.230958
0.226679
0.227349
0.228972
0.22816
0.225025
0.225306
0.225672
0.226137
0.22444
0.224521
0.224637
0.224795
0.224329
0.224324
0.224351
0.224813
0.224468
0.22428
0.224237
0.224303
0.225584
0.227093
0.22599
0.22494
0.227843
0.231091
0.230995
0.231065
0.230403
0.228663
0.229463
0.230793
0.230439
0.230068
0.230746
0.229614
0.229031
0.232699
0.226677
0.229143
0.228328
0.22759
0.226898
0.226492
0.233009
0.23301
0.23301
0.23301
0.23301
0.23301
0.23301
0.23301
0.23301
0.23301
0.233009
0.233001
0.232957
0.232834
0.232688
0.232626
0.232679
0.232789
0.232623
0.231956
0.230488
0.229031
0.228413
0.228483
0.228957
0.229691
0.229412
0.229588
0.229525
0.22981
0.229653
0.23022
0.229998
0.230786
0.230483
0.231496
0.231127
0.232708
0.232474
0.232927
0.232846
0.232985
0.232967
0.232981
0.232993
0.232665
0.232583
0.232723
0.232863
0.232943
0.232524
0.232631
0.23257
0.231749
0.231971
0.232143
0.232277
0.229765
0.230466
0.231445
0.231028
0.226711
0.227391
0.228973
0.228159
0.225011
0.225295
0.225668
0.226135
0.224404
0.224488
0.224605
0.224762
0.22427
0.224277
0.224315
0.224516
0.224302
0.224219
0.22418
0.224207
0.225168
0.226576
0.22555
0.224621
0.227339
0.230982
0.230941
0.230975
0.230141
0.228228
0.229108
0.230611
0.230408
0.229996
0.230683
0.229452
0.228779
0.232477
0.226768
0.228704
0.228068
0.227354
0.226714
0.226438
0.233009
0.23301
0.23301
0.23301
0.23301
0.23301
0.23301
0.23301
0.23301
0.233009
0.232997
0.232916
0.232677
0.232425
0.232336
0.23242
0.232593
0.232563
0.231988
0.230789
0.229337
0.22857
0.228508
0.22889
0.229661
0.229817
0.230182
0.230066
0.229955
0.230322
0.230122
0.230828
0.230557
0.23147
0.231135
0.232163
0.23182
0.232918
0.232834
0.232988
0.232964
0.232997
0.232997
0.232952
0.23298
0.232993
0.232455
0.232319
0.232507
0.232698
0.232874
0.232384
0.232478
0.232346
0.23168
0.23186
0.231982
0.23208
0.229767
0.230466
0.231415
0.231018
0.226708
0.22739
0.228848
0.228036
0.224969
0.225251
0.225604
0.226051
0.224371
0.224453
0.224563
0.224705
0.224221
0.224247
0.224292
0.224333
0.22419
0.224178
0.224148
0.224154
0.22481
0.226108
0.225109
0.224398
0.226887
0.230836
0.230812
0.230805
0.229866
0.227788
0.228703
0.230376
0.230301
0.229762
0.230494
0.229117
0.228444
0.230237
0.226718
0.227365
0.22777
0.227109
0.226548
0.226388
0.23301
0.23301
0.23301
0.23301
0.23301
0.23301
0.23301
0.23301
0.233009
0.232993
0.232868
0.232507
0.23216
0.232028
0.232112
0.232326
0.232413
0.231956
0.230947
0.229639
0.228784
0.228601
0.228875
0.229577
0.230811
0.230333
0.230794
0.230679
0.23051
0.230965
0.230721
0.231535
0.231237
0.232165
0.231848
0.232692
0.232461
0.232987
0.232963
0.233004
0.232999
0.233
0.233004
0.232906
0.232968
0.232979
0.232994
0.232154
0.23196
0.232212
0.232478
0.232732
0.232166
0.232252
0.23202
0.231489
0.231626
0.231709
0.231769
0.229641
0.230338
0.231255
0.23088
0.226611
0.227279
0.228516
0.227725
0.224887
0.225125
0.225438
0.225846
0.22435
0.224423
0.224515
0.22463
0.224195
0.224234
0.224286
0.224211
0.224158
0.224153
0.224135
0.224137
0.224525
0.225612
0.224766
0.224281
0.226307
0.230566
0.230549
0.230433
0.229463
0.227155
0.228007
0.229906
0.229968
0.22936
0.230032
0.22869
0.228062
0.231618
0.226525
0.227189
0.227464
0.226877
0.226407
0.226303
0.23301
0.23301
0.23301
0.23301
0.23301
0.23301
0.23301
0.233009
0.232991
0.232827
0.232367
0.231924
0.231721
0.231762
0.231974
0.232135
0.231845
0.230948
0.229884
0.229032
0.228785
0.228911
0.229554
0.230728
0.232055
0.231338
0.232019
0.230978
0.231523
0.231189
0.231693
0.231431
0.232251
0.231967
0.232707
0.23251
0.232917
0.232837
0.233005
0.233
0.233008
0.233008
0.233001
0.233005
0.232804
0.232932
0.232962
0.23299
0.231745
0.231516
0.231842
0.232186
0.232518
0.231836
0.231916
0.231577
0.231121
0.231227
0.231276
0.231314
0.229304
0.230002
0.230909
0.230546
0.226363
0.226994
0.227941
0.2272
0.224776
0.22494
0.225187
0.225532
0.224342
0.224407
0.224482
0.224569
0.224188
0.224236
0.224291
0.224202
0.224145
0.224156
0.224154
0.224139
0.224391
0.225096
0.224552
0.224274
0.225577
0.229947
0.229976
0.229679
0.228574
0.22606
0.226675
0.228907
0.229473
0.228822
0.229489
0.228233
0.227693
0.231578
0.226403
0.227047
0.227188
0.226664
0.226288
0.226212
0.23301
0.23301
0.23301
0.23301
0.23301
0.23301
0.233009
0.232991
0.232809
0.23228
0.231739
0.231443
0.231407
0.231552
0.231704
0.231583
0.230885
0.230002
0.229266
0.229
0.22904
0.229586
0.230712
0.232251
0.23215
0.232638
0.232552
0.231724
0.232299
0.231948
0.232417
0.232187
0.232763
0.232619
0.232928
0.232862
0.232989
0.232967
0.233009
0.233008
0.233008
0.233009
0.232996
0.233002
0.233005
0.23265
0.232881
0.23293
0.232979
0.231239
0.231015
0.231427
0.231861
0.23228
0.231369
0.231454
0.23102
0.230528
0.230611
0.23065
0.230681
0.228702
0.229398
0.230322
0.229954
0.225976
0.226533
0.227098
0.226453
0.224677
0.224808
0.224937
0.225132
0.224346
0.224403
0.224463
0.224528
0.224202
0.224263
0.224327
0.224183
0.224164
0.2242
0.224194
0.22417
0.224362
0.224822
0.224565
0.224269
0.225165
0.229001
0.229359
0.228938
0.227344
0.225628
0.226187
0.227839
0.228853
0.228325
0.228807
0.227824
0.227378
0.211022
0.226283
0.22649
0.226932
0.226469
0.226178
0.226113
0.23301
0.23301
0.23301
0.23301
0.23301
0.233009
0.232994
0.23281
0.232246
0.231612
0.231217
0.231102
0.231146
0.23121
0.231105
0.230677
0.230004
0.229432
0.229215
0.229243
0.229708
0.230798
0.232208
0.232916
0.232714
0.232909
0.23289
0.232464
0.232786
0.232617
0.232834
0.23274
0.232948
0.232902
0.232993
0.232977
0.233006
0.233002
0.23301
0.23301
0.233008
0.233009
0.232992
0.233001
0.233003
0.233006
0.232464
0.232798
0.232895
0.232967
0.230657
0.230486
0.230997
0.231526
0.232028
0.230745
0.230855
0.230359
0.229672
0.229766
0.229813
0.229864
0.2278
0.228481
0.229449
0.229049
0.22545
0.225894
0.226008
0.225529
0.2246
0.224687
0.224799
0.224898
0.224381
0.224434
0.224475
0.224501
0.224271
0.224336
0.224383
0.224228
0.224205
0.224228
0.224395
0.224364
0.224442
0.224884
0.224765
0.224396
0.22534
0.228105
0.228602
0.22813
0.226725
0.225834
0.226363
0.227147
0.228343
0.2279
0.228317
0.227499
0.227084
0.127999
0.226082
0.222747
0.226699
0.226302
0.226073
0.226001
0.23301
0.23301
0.23301
0.23301
0.23301
0.232998
0.232829
0.232249
0.231556
0.231084
0.230911
0.230872
0.230833
0.230689
0.230392
0.229994