/*--------------------------------*- C++ -*----------------------------------*\
  =========                 |
  \\      /  F ield         | OpenFOAM: The Open Source CFD Toolbox
   \\    /   O peration     | Website:  https://openfoam.org
    \\  /    A nd           | Version:  dev
     \\/     M anipulation  |
\*---------------------------------------------------------------------------*/
FoamFile
{
    version     2.0;
    format      ascii;
    class       volScalarField;
    location    "2500";
    object      omega;
}
// * * * * * * * * * * * * * * * * * * * * * * * * * * * * * * * * * * * * * //

dimensions      [0 0 -1 0 0 0 0];

internalField   nonuniform List<scalar> 
9978
(
1.24587
1.2592
1.20239
1.18246
1.33547
1.08738
1.08668
1.34564
1.26027
1.02712
1.03671
1.31619
1.32849
1.12655
1.01176
1.01263
1.24108
1.34869
1.23851
1.04562
1.00475
0.998242
1.14455
1.34224
1.30683
1.11211
1.01548
1.00047
0.984692
1.07178
1.31422
1.33127
1.19846
1.03763
1.00215
0.997495
0.976536
1.02779
1.25218
1.33374
1.2702
1.08421
1.00711
0.991707
0.99586
0.972217
0.997673
1.17281
1.3259
1.3043
1.15309
1.02142
0.991
0.98628
0.994641
0.970465
0.979675
1.09206
1.30235
1.31594
1.22078
1.05445
0.993756
0.97856
0.983152
0.993708
0.971229
0.96866
1.03762
1.25493
1.31497
1.26796
1.112
1.00395
0.977337
0.972005
0.980748
0.993038
0.972269
0.959315
1.0015
1.18575
1.30939
1.29024
1.17162
1.0287
0.979482
0.965242
0.968083
0.978839
0.992507
0.973232
0.953614
0.978052
1.10768
1.29161
1.29953
1.22246
1.07457
0.987367
0.96464
0.957968
0.965074
0.977426
0.992143
0.97412
0.950536
0.963771
1.04534
1.25239
1.30062
1.25813
1.12914
1.00652
0.966537
0.953325
0.953424
0.962622
0.976326
0.991837
0.975088
0.949234
0.955477
1.00562
1.1898
1.29744
1.27845
1.17841
1.04336
0.973055
0.953354
0.945389
0.950025
0.960838
0.975433
0.991577
0.976055
0.94915
0.950958
0.98041
1.11351
1.28295
1.28865
1.22002
1.09118
0.988355
0.955295
0.942856
0.940401
0.94737
0.959396
0.974649
0.991355
0.976969
0.950153
0.948519
0.965528
1.0489
1.24684
1.29214
1.25256
1.14038
1.01806
0.961096
0.943308
0.934754
0.936809
0.94529
0.958117
0.974019
0.991164
0.977923
0.951702
0.946704
0.95694
1.00921
1.18513
1.28947
1.27255
1.18355
1.05945
0.974044
0.945597
0.933824
0.929372
0.934009
0.943551
0.957018
0.973481
0.991003
0.978893
0.953458
0.945948
0.95216
0.984651
1.11116
1.27459
1.28269
1.22064
1.10679
0.998081
0.951277
0.934623
0.926028
0.925751
0.931755
0.942066
0.956094
0.973028
0.990881
0.979758
0.955488
0.945913
0.949543
0.970469
1.05107
1.23664
1.28639
1.25149
1.15119
1.03383
0.963033
0.937286
0.926037
0.920496
0.922971
0.929943
0.940775
0.955322
0.972683
0.990828
0.980557
0.95751
0.946385
0.948109
0.962236
1.01368
1.17256
1.2829
1.27057
1.19039
1.07787
0.982367
0.943251
0.927146
0.9193
0.916793
0.92063
0.928382
0.939737
0.954718
0.972466
0.990792
0.981398
0.959425
0.94731
0.94748
0.957157
0.992328
1.10301
1.26529
1.27995
1.22631
1.12283
1.01304
0.953466
0.930094
0.919803
0.914081
0.914043
0.918822
0.927179
0.938963
0.954266
0.972437
0.99084
0.982221
0.961322
0.948467
0.947509
0.953861
0.979913
1.05021
1.22264
1.28336
1.25553
1.16356
1.05337
0.969131
0.936161
0.92145
0.914164
0.90997
0.911805
0.917486
0.92634
0.938358
0.954183
0.972723
0.991022
0.982974
0.963119
0.949751
0.947763
0.951876
0.971346
1.018
1.15475
1.2778
1.27226
1.20161
1.09773
0.995022
0.944391
0.925115
0.915125
0.909459
0.907126
0.910283
0.916619
0.925821
0.938221
0.954679
0.973365
0.991378
0.983679
0.964691
0.951157
0.94793
0.95087
0.964866
0.999427
1.08882
1.25581
1.28202
1.23683
1.13999
1.03163
0.95814
0.930655
0.917576
0.910062
0.905524
0.905322
0.909264
0.916307
0.925866
0.938863
0.955831
0.974551
0.991963
0.984258
0.966004
0.952706
0.947996
0.950245
0.960341
0.987852
1.04439
1.20548
1.28339
1.26364
1.17919
1.07458
0.979872
0.938523
0.921523
0.911778
0.905865
0.902749
0.904295
0.909031
0.916647
0.926709
0.94053
0.957959
0.976612
0.99287
0.984676
0.967043
0.954158
0.948109
0.949596
0.957444
0.978983
1.0173
1.135
1.27443
1.27771
1.21747
1.11832
1.01342
0.950085
0.926381
0.9147
0.90712
0.902873
0.901162
0.903944
0.909647
0.917851
0.928852
0.943597
0.961537
0.979955
0.99416
0.985077
0.967886
0.955362
0.948233
0.948934
0.955322
0.971837
1.00098
1.07613
1.24629
1.28729
1.25174
1.15868
1.05453
0.96888
0.933407
0.918171
0.909607
0.903783
0.901065
0.900681
0.90465
0.911386
0.920554
0.932819
0.948618
0.967348
0.985028
0.995882
0.985471
0.968552
0.956287
0.948426
0.948422
0.953118
0.966515
0.990215
1.03864
1.18587
1.28607
1.27451
1.19914
1.09832
0.997407
0.942875
0.922862
0.912425
0.905928
0.901795
0.900419
0.901402
0.906941
0.914728
0.92532
0.939163
0.956604
0.976192
0.992446
0.999229
0.98576
0.968798
0.956953
0.948632
0.948159
0.951217
0.96225
0.982327
1.01549
1.1149
1.27123
1.28858
1.23789
1.14068
1.03633
0.958514
0.928641
0.915584
0.908596
0.903733
0.901142
0.901286
0.903944
0.910946
0.920213
0.932846
0.948908
0.968703
0.989274
1.00196
1.00252
0.985968
0.968629
0.95745
0.948608
0.947676
0.95005
0.958583
0.975858
1.00181
1.0638
1.23265
1.29511
1.27023
1.18127
1.07872
0.98339
0.93705
0.919713
0.911155
0.906576
0.903047
0.902094
0.903985
0.908478
0.917301
0.928925
0.944109
0.963571
0.986641
1.00747
1.01808
1.00719
0.986092
0.968271
0.957469
0.948278
0.946759
0.949068
0.955788
0.970035
0.993641
1.0327
1.16093
1.28953
1.28835
1.22401
1.12303
1.01848
0.949624
0.924969
0.914283
0.909233
0.906096
0.904119
0.904897
0.908827
0.915906
0.927052
0.942008
0.961105
0.984783
1.01168
1.03356
1.04086
1.0143
0.986093
0.967947
0.956929
0.947654
0.945292
0.947824
0.953362
0.965124
0.986952
1.01498
1.09476
1.2666
1.30273
1.26185
1.1648
1.06092
0.971292
0.931751
0.918066
0.911641
0.909095
0.907414
0.907111
0.910101
0.916734
0.927514
0.9423
0.96165
0.985382
1.014
1.04428
1.06952
1.07541
1.02348
0.985979
0.967521
0.955668
0.946751
0.943267
0.946114
0.95112
0.961431
0.97967
1.00526
1.05364
1.2142
1.30407
1.28966
1.20894
1.10434
1.00232
0.942691
0.922498
0.914308
0.911664
0.910785
0.910714
0.91275
0.918865
0.929209
0.944172
0.963867
0.988118
1.01793
1.05309
1.08944
1.1141
1.08108
1.11646
1.00421
1.09605
1.04892
0.985815
0.966725
0.953932
0.945133
0.940832
0.94386
0.948799
0.957918
0.973003
0.997786
1.02987
1.13635
1.29345
1.30628
1.25209
1.14983
1.04236
0.960144
0.928018
0.917336
0.913885
0.913618
0.91456
0.916937
0.922382
0.932804
0.948279
0.968798
0.994044
1.02539
1.06414
1.10796
1.14541
1.14018
1.16156
1.14232
1.00464
1.12082
1.05744
0.985668
0.965576
0.952066
0.9427
0.938115
0.941132
0.94619
0.954364
0.967844
0.990086
1.01561
1.08117
1.26197
1.31866
1.28818
1.19242
1.08623
0.987915
0.9367
0.920553
0.915878
0.915835
0.917844
0.921413
0.927183
0.93784
0.954224
0.975874
1.00531
1.03906
1.08164
1.12807
1.15056
1.15993
1.17878
1.16944
1.19886
1.173
1.19969
1.17566
1.00395
1.13426
1.0643
0.985542
0.964166
0.95009
0.939634
0.935631
0.93812
0.943288
0.950906
0.963497
0.98321
1.00605
1.04743
1.19306
1.31602
1.31096
1.24118
1.13138
1.02405
0.951309
0.924896
0.917992
0.917513
0.920253
0.925293
0.932677
0.943721
0.961175
0.986622
1.01912
1.06716
1.12511
1.18366
1.1768
1.21651
1.19909
1.22084
1.22904
1.24573
1.2143
1.24059
1.19302
1.00401
1.15365
1.0704
0.985415
0.962664
0.947899
0.936313
0.933065
0.934771
0.940058
0.947716
0.959094
0.977647
0.998917
1.02645
1.11758
1.29754
1.32929
1.28233
1.17822
1.06753
0.974477
0.931639
0.920139
0.919001
0.921665
0.928176
0.937677
0.950025
0.968589
0.997289
1.04731
1.12239
1.26472
1.45742
1.32007
1.61199
1.25487
1.4169
1.29512
1.26631
1.31469
1.33725
1.23596
1.2669
1.21991
1.00561
1.17408
1.07692
0.985302
0.96136
0.94557
0.932932
0.929811
0.931039
0.936389
0.944454
0.955019
0.972679
0.99346
1.01332
1.06986
1.25374
1.3363
1.31614
1.22486
1.11309
1.00712
0.943613
0.922968
0.919987
0.922325
0.929431
0.941056
0.955732
0.976169
1.0098
1.07309
1.25416
1.65804
2.47412
2.2761
3.65192
1.87996
2.97222
1.51216
2.17035
1.57662
1.33815
1.62746
1.62958
1.26546
1.33313
1.24812
1.01297
1.20105
1.10573
0.98543
0.960726
0.943421
0.929859
0.926071
0.927061
0.932283
0.940384
0.951393
0.968515
0.988792
1.00601
1.04034
1.17132
1.32866
1.33507
1.27629
1.16148
1.04769
0.962323
0.92806
0.920587
0.922309
0.929342
0.941975
0.959613
0.983315
1.02243
1.12391
1.43958
2.52054
4.66671
5.39725
7.77271
4.98986
7.51811
3.70208
6.31463
2.43078
4.4123
2.62948
1.59667
2.70925
2.66712
1.315
1.53275
1.2817
1.0449
1.25051
1.23133
0.986052
0.960897
0.941766
0.927498
0.922399
0.923038
0.928048
0.935767
0.947271
0.965485
0.984414
1.00119
1.02294
1.10349
1.30184
1.35497
1.31503
1.21029
1.09383
0.990736
0.936707
0.921736
0.922054
0.928524
0.941587
0.960276
0.987415
1.03269
1.17539
1.80817
3.61939
7.43465
9.58076
11.5135
9.98594
11.7332
9.18713
11.3421
7.55202
10.3869
5.00288
8.50219
5.35101
2.49993
5.43341
5.24849
1.4599
2.2349
1.39599
1.18785
1.381
1.59514
0.987472
0.963091
0.941512
0.926095
0.919036
0.919396
0.923957
0.931226
0.94248
0.961596
0.981472
0.997885
1.01241
1.06139
1.24387
1.35637
1.34631
1.26285
1.14226
1.02785
0.951887
0.924316
0.921273
0.926535
0.940004
0.959591
0.987248
1.03596
1.20267
2.11257
4.99282
9.80799
12.3415
13.4691
12.8677
13.61
12.6182
13.461
12.0451
13.049
11.0397
12.3873
9.07236
11.3355
9.28527
4.78628
9.24505
8.96013
1.95062
4.08866
1.75919
1.13463
1.84135
1.92729
0.990369
0.96844
0.94544
0.927177
0.917372
0.917013
0.920431
0.927126
0.937889
0.956479
0.978594
0.995836
1.00646
1.03557
1.15689
1.3447
1.36533
1.31347
1.19369
1.07275
0.975035
0.929992
0.920661
0.924212
0.93607
0.957388
0.985604
1.03418
1.19957
2.30415
5.8542
11.4548
13.7792
14.347
14.161
14.5441
14.0583
14.5
13.7381
14.2633
13.2332
13.8522
12.5177
13.2716
11.4178
12.5166
11.3665
8.39427
11.2215
10.9794
3.37687
7.46276
2.82834
1.28071
2.7551
2.4335
0.998241
0.981035
0.956196
0.934408
0.921036
0.917428
0.918569
0.92398
0.934243
0.952081
0.973665
0.99428
1.00553
1.02034
1.0952
1.3117
1.38429
1.34971
1.24694
1.12164
1.00844
0.941114
0.921079
0.921577
0.93126
0.9522
0.981947
1.02933
1.18184
2.37756
6.53093
12.4096
14.4921
14.8298
14.8745
15.0535
14.8446
15.1428
14.7265
15.1875
14.4277
15.084
13.9284
14.6906
13.2575
14.0271
12.4332
13.2172
12.3089
10.6193
12.1565
11.9823
6.25064
10.1084
5.09971
1.89882
4.42518
3.86656
1.0077
1.00543
0.98448
0.956756
0.934208
0.922367
0.919951
0.923252
0.93207
0.949985
0.968123
0.991684
1.00606
1.01351
1.05659
1.24283
1.38328
1.37919
1.30302
1.17444
1.04993
0.96046
0.923333
0.917779
0.92588
0.94456
0.975171
1.02095
1.15135
2.31482
6.87732
12.9367
14.8891
15.07
15.256
15.3598
15.4115
15.6431
15.6812
16.1957
15.8439
16.7149
15.6578
16.8898
15.0495
16.4686
14.1397
15.4761
13.1564
14.2317
13.0727
11.7788
12.9679
12.8486
9.48076
11.5777
8.75467
2.67604
7.9633
7.58999
1.03178
1.05973
1.04044
1.00216
0.963577
0.938371
0.927929
0.926006
0.933221
0.949202
0.964685
0.986796
1.00863
1.01278
1.03403
1.15715
1.36838
1.39981
1.35119
1.22984
1.09891
0.988165
0.929595
0.915834
0.920442
0.936142
0.965813
1.00986
1.1245
2.14256
6.78047
13.0443
15.3668
15.4187
15.5319
15.8522
15.9934
16.6853
17.1031
17.5955
18.4375
18.1848
19.4488
18.1353
19.8892
17.3201
19.53
15.8481
18.1644
14.273
16.1374
14.2414
12.7481
14.1429
14.0179
11.4596
12.7311
11.4939
5.81188
11.783
16.7642
1.1126
1.21325
1.20252
1.13174
1.04496
0.983122
0.951237
0.937094
0.938087
0.950071
0.963306
0.980373
1.01412
1.01601
1.02455
1.09772
1.33257
1.41795
1.38695
1.28651
1.15195
1.02639
0.943725
0.91622
0.914539
0.927398
0.954489
0.996584
1.09553
1.91517
6.46823
12.931
15.3281
16.0719
15.9985
16.1102
16.1023
17.4462
17.7025
19.0811
19.4854
20.3232
20.6717
21.0359
21.4171
21.3084
21.9636
20.7038
22.2507
18.8019
21.6166
16.2723
19.1936
16.2394
13.9331
16.0847
15.8432
12.9165
13.9823
13.6346
20.9462
16.6487
33.6825
1.2475
1.45199
1.50882
1.43934
1.28336
1.12776
1.01763
0.964604
0.949612
0.953421
0.962862
0.976648
1.01273
1.0282
1.02469
1.06401
1.26337
1.41731
1.41473
1.34366
1.2081
1.07239
0.968195
0.919045
0.908508
0.918491
0.941784
0.982217
1.06462
1.68215
5.81448
12.6111
15.2214
15.8578
15.715
17.7051
17.5217
17.8175
17.7931
19.6733
19.6523
20.7099
20.6136
21.4025
21.2605
21.9937
21.8103
22.5912
22.4089
22.9425
23.0615
22.2283
23.501
19.3364
22.5616
19.2582
15.626
18.9787
18.5429
14.3988
15.6016
16.1209
41.3766
23.8178
44.9426
1.22055
1.5308
1.65463
1.70554
1.64952
1.44955
1.21112
1.03717
0.975206
0.962418
0.96481
0.974404
1.00766
1.0445
1.03279
1.0497
1.18688
1.40477
1.43702
1.38874
1.26516
1.12539
1.00095
0.92722
0.906449
0.910348
0.92911
0.966727
1.03425
1.46933
4.89314
11.9874
15.0396
15.4496
15.2448
17.2489
16.9285
19.1983
18.972
19.5696
19.3985
20.4359
20.2156
20.9833
20.6398
21.414
20.8389
21.9264
21.1009
22.6674
21.748
23.5076
22.8276
23.9653
23.9297
22.6465
24.3539
22.5606
18.0883
22.2949
21.8317
16.2203
17.8168
18.8068
35.6524
26.7247
39.0416
1.33783
1.63375
1.77088
1.82251
1.78855
1.57291
1.23926
1.04005
0.983209
0.971057
0.97545
0.9997
1.05323
1.05348
1.05062
1.13134
1.37306
1.45585
1.42416
1.32331
1.18075
1.04407
0.945927
0.907254
0.90218
0.916856
0.949597
1.00702
1.29529
3.95089
11.0984
14.754
15.1761
16.5093
16.2546
18.7116
18.4202
19.5065
19.2903
19.9787
19.7377
20.2443
19.8308
20.1762
19.5262
20.2364
19.5359
20.6261
19.9157
21.5228
20.3794
23.014
21.4531
24.3684
23.332
24.6459
24.8391
24.8303
21.2394
24.8803
24.7307
18.2422
20.7065
20.5571
14.5478
25.9524
37.0816
1.29463
1.62329
1.82475
1.90013
1.86999
1.61356
1.23095
1.03602
0.986272
0.979826
0.997046
1.053
1.07412
1.06435
1.10836
1.32491
1.46461
1.45259
1.3787
1.23919
1.0943
0.975595
0.911749
0.895888
0.90575
0.932076
0.982197
1.16938
3.0779
9.85561
14.3677
14.5163
17.2153
16.3753
18.077
17.6265
19.077
18.8728
18.8849
18.7106
19.4559
19.1355
18.9095
18.3554
18.9646
18.3721
19.5285
19.1582
19.9285
19.875
20.3958
20.21
21.5597
20.5671
23.8229
21.867
25.3341
24.481
25.799
24.2793
26.1637
26.3926
20.6838
23.5535
22.2389
12.1862
28.3325
40.0536
1.17446
1.54644
1.8344
1.94831
1.9127
1.60147
1.19511
1.02129
0.990787
0.998443
1.04964
1.08813
1.08761
1.10919
1.2763
1.46116
1.47802
1.42417
1.29544
1.14985
1.01414
0.924086
0.894912
0.897098
0.916581
0.959441
1.08388
2.33669
8.33128
13.7784
14.2606
16.2594
18.0641
18.0414
18.6416
18.4519
18.5953
18.5128
17.3444
17.267
17.9235
17.5715
17.7092
16.9776
18.7338
18.1635
20.0237
20.0631
20.872
21.9704
20.7156
22.3506
20.8575
21.3849
22.395
21.2429
25.2545
23.0663
26.0825
26.2142
26.8199
27.1759
26.8012
23.5153
24.5786
25.8125
25.056
22.3462
31.9996
51.0256
1.09368
1.44342
1.84854
1.98903
1.92084
1.54487
1.11755
1.01342
1.00377
1.04519
1.09725
1.10608
1.12253
1.24561
1.45228
1.50193
1.46143
1.35327
1.20663
1.06169
0.95027
0.897087
0.889847
0.903396
0.938757
1.02606
1.79191
6.46961
12.9204
14.1779
15.126
17.9966
17.6174
18.2935
18.2
18.4502
18.3964
17.2902
17.3616
15.5009
15.524
16.243
15.7422
17.4372
16.5791
19.757
19.0649
22.6851
22.7199
24.3859
25.6914
23.8763
26.7369
21.9881
25.225
21.7357
22.4864
24.3929
22.0277
22.6886
26.0469
25.3778
27.2746
26.6443
27.1838
26.8283
26.3568
25.8037
27.1089
25.0271
25.8755
25.7641
26.4342
26.3333
27.3319
27.1453
66.3808
35.3542
29.8119
28.2169
34.5375
55.9729
43.8779
1.05957
1.4066
1.89518
2.03831
1.89173
1.38822
1.06434
1.01773
1.04004
1.10364
1.12106
1.14235
1.2357
1.44388
1.52573
1.49482
1.40743
1.26408
1.11556
0.986144
0.906262
0.886647
0.893648
0.920388
0.985082
1.44111
4.72406
11.9339
13.9682
14.3373
17.176
16.3538
17.9097
17.8864
17.7695
17.8582
17.4974
17.6385
15.6597
15.9277
13.7735
13.7984
15.5392
14.3538
18.0394
16.8027
22.1206
21.0748
25.9533
25.3711
28.5087
28.9595
28.6284
30.9246
24.1822
26.2275
27.9398
29.681
21.9546
22.8289
26.5975
26.58
24.4661
22.186
23.7174
22.6359
22.0303
24.3603
27.2314
26.993
27.1935
26.5532
25.4943
24.9265
26.8198
26.5929
26.4101
26.886
27.0689
27.6536
103.767
106.053
58.6767
28.9702
28.0178
31.9742
37.1761
1.04653
1.46375
2.00945
2.05333
1.78504
1.21687
1.05076
1.04281
1.11038
1.13591
1.15835
1.23895
1.44268
1.5488
1.52682
1.4579
1.32113
1.17241
1.03191
0.92953
0.887772
0.889456
0.907153
0.955199
1.22726
3.50709
10.6688
13.6309
13.712
15.9761
17.7003
17.6936
17.3238
17.512
16.829
17.088
16.2322
16.5365
14.071
14.5115
12.4554
12.3128
15.43
13.7569
19.6252
17.8903
24.033
22.1275
28.4753
27.0105
31.8397
31.7546
30.9351
32.3481
33.1566
34.0418
28.3172
30.0797
31.6571
22.6587
24.3079
28.6024
28.6825
26.4905
22.1636
22.85
22.307
22.5644
23.2484
27.0047
27.1142
27.0804
25.8677
23.7269
24.3188
26.2301
26.9321
27.1563
27.1299
27.5319
27.6962
102.306
100.882
59.2687
27.709
27.9667
29.5295
36.6411
1.05275
1.68423
2.10356
2.01082
1.54129
1.13392
1.06199
1.11376
1.15427
1.17393
1.24821
1.44755
1.57391
1.56424
1.503
1.37696
1.23083
1.085
0.964296
0.896273
0.88986
0.90108
0.936384
1.10066
2.6543
9.01457
13.1629
13.2626
14.5343
17.5169
17.0832
17.6033
17.6244
16.491
16.8086
15.7699
16.1399
14.9541
15.3737
12.6712
13.2476
11.6372
11.171
15.8616
13.4978
20.1486
18.2079
24.7483
22.2428
30.3961
27.9739
34.3498
34.4698
34.1867
33.4392
33.0763
34.27
35.2416
35.8819
30.4843
32.2218
33.8359
24.0559
26.3068
30.7314
30.8267
28.6277
22.456
22.425
22.4325
23.7631
22.5984
26.5326
27.1315
26.7676
24.8711
22.8375
23.2135
25.345
27.2574
27.4943
27.2531
27.6434
27.5607
59.0387
63.0508
84.6932
27.314
27.5236
29.5483
38.6011
1.10851
1.9237
2.11175
1.84539
1.34934
1.12445
1.1216
1.18431
1.19398
1.26004
1.45642
1.60303
1.60721
1.54766
1.43519
1.28898
1.14341
1.00917
0.921581
0.896293
0.900943
0.930073
1.03485
2.02392
7.33409
12.4028
13.0519
13.5504
16.8118
17.4144
17.4798
17.0795
17.2968
15.5831
15.9732
14.7494
15.1739
13.8065
14.3
11.4387
12.0934
10.9931
10.2954
16.0261
13.2906
20.0373
17.929
24.8061
21.7292
32.4552
30.8402
28.568
36.1448
36.1117
35.6763
34.7801
35.2485
36.4243
37.3099
37.8308
32.6516
34.4514
36.0817
25.9912
28.4574
32.9271
33.0599
30.7916
23.4065
22.4139
23.0922
25.5826
22.4571
25.7713
26.9583
26.1728
23.7069
22.5539
22.6709
24.2442
27.4039
27.5496
27.1438
27.5539
27.3246
50.5001
58.6721
69.8689
27.2373
27.9891
31.1035
39.2324
1.32352
2.09883
2.02971
1.6133
1.28571
1.16353
1.22522
1.22843
1.27744
1.46492
1.6337
1.65612
1.59622
1.49275
1.34833
1.20542
1.06395
0.964649
0.917741
0.907232
0.931953
1.0147
1.59855
5.50945
11.426
12.7758
12.9148
15.3155
17.2741
17.1662
16.9626
17.1703
16.3405
16.6649
14.7077
15.1166
13.8389
14.285
12.774
13.3484
10.2903
10.9193
10.2568
9.39109
15.6068
12.7566
19.1531
16.8812
24.4003
20.6796
33.4845
31.8646
27.5749
30.4289
37.9521
37.806
37.1498
36.0371
37.4808
38.6026
39.411
39.7855
34.9321
36.7811
38.4149
28.145
30.6457
35.2563
35.4458
33.0527
25.0537
22.8378
24.4699
27.7323
22.6611
24.7956
26.5182
25.2862
22.8546
22.561
22.49
23.2005
27.3161
27.4161
26.8036
27.3414
27.2543
52.4154
51.6971
65.0773
27.5642
29.1854
32.6966
38.1336
1.63689
2.12872
1.82617
1.48701
1.29659
1.29243
1.29599
1.30935
1.47496
1.66069
1.7084
1.65065
1.55186
1.40911
1.26944
1.12643
1.02225
0.963631
0.932573
0.946745
1.01863
1.38461
3.92131
10.4174
12.4004
12.455
13.8199
16.9174
16.841
17.0969
16.2645
16.579
15.5175
15.8985
13.901
14.3063
12.9876
13.4684
11.7292
12.4231
9.24897
9.70167
9.1848
8.3592
14.4854
11.6275
17.7391
15.3689
25.3879
22.6388
18.8669
20.8633
34.5448
32.6826
28.1918
30.8912
39.827
39.5157
38.6903
37.3402
39.7829
40.8404
41.5572
41.8069
37.3355
39.2142
40.8359
30.3726
32.937
37.7408
38.0143
35.4915
27.1795
23.8909
26.5042
30.0047
23.3679
23.7084
25.7519
24.2947
22.5369
22.9212
22.6144
22.629
27.0076
27.0708
26.1394
27.1078
27.3852
49.8765
45.288
68.0417
28.4029
30.6195
33.7839
36.9878
1.97979
2.04366
1.67094
1.46554
1.38828
1.38784
1.37453
1.49467
1.68376
1.75767
1.70868
1.61548
1.47212
1.3346
1.19479
1.09811
1.03112
0.994043
0.995903
1.05377
1.33707
2.94735
9.05921
12.0102
12.0002
12.8229
16.0843
16.7335
16.754
16.1586
16.4643
15.4563
15.8156
14.698
15.0795
13.0975
13.5223
12.0632
12.6172
10.6043
11.4082
8.19131
8.50064
7.93028
7.09864
12.9592
10.2641
16.8244
14.4683
25.3657
22.8401
18.9004
20.6499
35.573
33.422
28.657
31.6238
41.792
41.3581
40.3512
38.7922
42.1619
43.1529
43.7653
43.9427
39.8719
41.7609
43.3603
32.7086
35.4284
40.3863
40.777
38.1505
29.5094
25.6764
28.8453
32.3983
24.7021
22.8798
24.8554
23.4065
22.4453
23.759
23.0416
22.456
26.438
26.6669
25.3782
27.038
27.7776
68.2259
41.7467
68.402
29.4321
32.0758
34.6702
36.5067
2.08495
1.89485
1.60908
1.49701
1.48625
1.46373
1.53671
1.70501
1.80145
1.76881
1.68168
1.53867
1.40067
1.27071
1.18756
1.12612
1.10333
1.11949
1.17847
1.39176
2.52581
7.43871
11.4749
11.8097
12.1156
14.6757
16.5142
16.0014
16.358
15.3359
15.6677
14.619
14.9757
13.9045
14.2631
12.1967
12.6672
11.0057
11.6418
9.4053
10.2803
6.9697
7.28586
7.53354
6.45403
12.2357
9.96249
17.6009
16.3453
15.4419
14.1966
25.7283
23.0135
18.9597
20.735
36.8022
34.4194
29.3932
32.5299
43.8746
43.2681
42.0907
40.338
44.6443
45.576
46.1114
46.2382
42.5469
44.4306
46.0023
35.263
38.183
43.2025
43.7484
41.0499
31.9839
27.9114
31.4179
35.0207
26.6315
22.6192
24.0712
22.9935
22.6476
25.1728
24.0034
22.5397
25.8718
26.3833
24.7725
27.1085
28.3581
74.0851
40.334
68.4159
30.5898
33.4948
35.9133
36.8013
2.04917
1.79247
1.61101
1.57385
1.55706
1.59118
1.73192
1.83788
1.82681
1.74815
1.61017
1.46791
1.3492
1.28011
1.24968
1.2941
1.41096
1.54085
1.70792
2.52799
6.21124
10.687
11.5352
11.5898
13.2279
16.0912
15.8065
15.9082
15.1183
15.4443
14.4631
14.7905
13.7831
14.1237
13.0696
13.4326
11.141
11.6757
9.82745
10.5161
8.11017
9.05603
6.07366
6.07011
8.16609
6.4112
13.2514
11.8303
10.6244
18.5019
17.5778
16.6907
15.771
26.3579
23.6245
19.7159
21.3835
38.1097
35.5082
30.4471
33.7106
46.1132
45.3711
44.0233
42.0825
47.2425
48.1622
48.6427
48.7428
45.3708
47.2475
48.798
38.1259
41.2374
46.2093
46.9664
44.2151
34.7081
30.3919
34.1696
37.992
28.8779
22.6976
23.6512
23.0545
23.2566
27.265
25.7148
22.9358
25.4947
26.3315
24.5061
27.3615
29.1788
51.5275
41.8124
66.5606
31.9004
35.2747
37.5235
38.2976
1.9686
1.74334
1.65061
1.63401
1.65543
1.7577
1.86985
1.8784
1.81219
1.68464
1.53651
1.42655
1.37276
1.41019
1.67224
2.09417
2.58298
2.87375
2.98966
5.8342
9.80869
11.162
11.2177
12.1964
15.2709
15.6001
14.8245
15.1347
14.1931
14.4902
13.5821
13.8906
12.9091
13.2548
12.1336
12.5369
9.94445
10.5588
8.53853
9.26325
6.68621
7.68306
5.78229
5.56416
10.9855
7.42399
14.5662
13.2195
12.4116
14.2826
20.1686
19.5032
18.9162
18.2087
27.3649
24.6835
21.1285
22.5843
39.6569
36.8634
31.9532
35.2956
48.5067
47.6767
46.1898
44.0967
50.0254
50.9675
51.405
51.4909
48.3909
50.2802
51.834
41.3554
44.6282
49.4786
50.5277
47.6978
37.7809
33.1681
37.3249
41.385
31.8496
22.9809
23.6451
23.3242
24.5578
30.0432
28.1476
23.8425
25.4117
26.4134
24.5148
27.8845
30.305
52.5766
44.9055
58.9559
34.0547
37.5853
39.5533
40.9146
1.91186
1.73979
1.70527
1.70685
1.78894
1.89189
1.92327
1.87026
1.75736
1.60748
1.49945
1.4599
1.61952
2.34428
3.57727
4.58989
4.78638
4.56625
5.96793
9.13474
10.6905
10.8503
11.5075
14.156
15.3988
14.109
13.8564
14.169
13.2718
13.5446
12.6708
12.9812
11.9607
12.333
11.0916
11.5508
8.63275
9.32335
7.08692
7.91051
5.62691
6.1299
5.92177
5.40132
15.54
17.8461
14.3567
11.5871
8.66233
17.2542
15.9395
17.8149
22.498
22.1234
21.7733
21.2866
28.8689
26.2814
23.1647
24.3684
41.5116
38.5765
34.0778
37.4406
51.2076
50.2622
48.6918
46.4831
53.1152
54.0863
54.5022
54.5888
51.7098
53.6511
55.2757
44.9931
48.4003
53.1358
54.5594
51.5794
41.3625
36.5977
40.9847
45.3193
35.0079
23.6301
23.9657
23.952
26.3917
32.9087
30.5835
25.2363
25.527
26.7907
24.875
28.9273
32.72
39.4924
44.94
62.145
37.0149
39.9588
41.8945
42.4383
1.88398
1.75852
1.76224
1.80905
1.90737
1.95575
1.92142
1.8258
1.67669
1.56805
1.53313
1.87873
3.2989
5.35304
6.406
6.43089
6.12372
6.46691
8.67738
10.2358
10.4845
10.9919
13.065
14.9078
14.3343
12.7073
13.3411
12.809
12.9524
12.3628
12.6515
11.7175
12.0536
10.9281
11.3451
9.94271
10.4698
7.24172
7.97061
5.66094
6.42771
5.2599
5.31641
7.00592
5.52957
20.3736
22.3792
19.4319
15.3384
10.6719
20.5395
19.4137
22.1667
25.5044
25.3412
25.1588
24.7939
31.0448
28.5915
25.9255
26.8859
43.7849
40.7558
36.9651
40.2805
54.2859
53.2735
51.6351
49.3881
56.6614
57.6861
58.1191
58.2212
55.4828
57.56
59.3742
49.1185
52.6805
57.3883
59.4659
56.101
45.1565
39.7957
44.2754
49.1789
38.1212
24.8292
24.6847
25.1533
28.6076
36.1093
34.1522
27.326
26.1043
28.0681
25.8461
32.064
36.5639
36.5088
45.2847
61.8841
39.9164
42.855
43.4742
42.462
1.87623
1.79898
1.83578
1.91209
1.97354
1.96136
1.88659
1.74212
1.62959
1.58946
2.15344
4.40204
6.95135
7.73969
7.65786
7.29079
7.23779
8.41717
9.784
10.1552
10.5747
12.165
14.3024
14.3079
12.7603
12.3665
11.8158
12.1062
12.0507
11.4298
11.7463
10.7097
11.0856
9.80162
10.2832
8.66044
9.27101
5.77429
6.53846
5.09455
5.3067
5.15403
5.06193
10.1769
7.55093
6.14752
24.4385
26.4549
23.6642
20.2932
15.7448
24.223
23.3438
26.0772
29.3769
29.3417
29.2193
28.8264
34.0337
31.7439
29.5718
30.2543
46.6251
43.5585
40.7924
43.9833
57.9201
56.8596
55.1965
52.9834
60.9106
62.0306
62.5264
62.6615
60.0229
62.4515
64.5841
53.1417
57.127
62.7964
65.6411
61.3511
48.9083
43.5242
49.6329
54.0184
42.8729
26.9619
26.1874
27.7016
32.3713
42.0989
41.0304
31.341
27.7996
32.0177
28.1414
36.4956
40.0091
49.4834
43.7013
55.9304
43.9109
44.9888
44.3345
41.6304
1.88409
1.85456
1.91565
1.97761
1.98731
1.93602
1.80302
1.68418
1.63419
2.37033
5.34983
8.06481
8.67159
8.50988
8.09986
7.86012
8.38166
9.29669
9.76736
10.2357
11.4717
13.7051
14.1273
12.9927
11.018
11.4772
10.8613
11.0563
11.1496
10.4428
10.8084
9.6006
10.0413
8.54395
9.09289
7.29004
7.95786
5.05633
5.30704
4.95133
4.95278
5.21888
5.00144
13.8851
8.74525
7.66822
6.21857
28.6468
30.4994
27.5081
23.8705
19.5756
28.2064
27.247
30.4515
34.1035
34.1689
34.074
33.6259
37.9728
35.8349
34.1178
34.5233
50.2142
47.1725
45.7231
48.7403
62.3957
61.3088
59.6495
57.5132
66.3303
67.6232
68.2442
68.4383
66.0523
69.1133
71.7747
59.4983
65.6839
70.0053
78.5865
72.4505
56.612
51.1385
61.5784
64.8739
52.9562
31.563
29.6123
33.5859
40.0547
54.5058
55.246
40.1595
32.9555
37.0987
34.8431
40.9577
45.5625
46.5258
40.1204
52.7652
46.7949
46.9106
44.3178
39.573
1.9067
1.91814
1.97674
1.9986
1.97022
1.85846
1.73095
1.67088
2.48233
6.01295
8.79694
9.26736
9.0739
8.64968
8.30356
8.41873
8.89797
9.33474
9.88207
10.9934
13.1584
13.817
13.1727
11.3252
8.84899
10.2028
8.85824
10.5276
9.82673
10.166
9.32046
9.7655
8.32103
8.83914
7.19676
7.75518
5.86972
6.59314
4.87215
4.86173
4.94011
4.89446
5.50428
5.06667
18.2791
11.9886
9.01691
6.64486
32.874
34.1443
31.1055
27.4206
23.2671
32.8984
31.7854
34.8829
39.4385
39.5431
39.4268
38.8481
42.9982
40.9254
39.3938
39.6906
54.8029
51.8301
51.9731
54.7705
68.2537
67.1399
65.4738
63.3611
73.9433
75.5741
76.3872
76.6791
74.5427
79.1389
83.0871
74.6767
85.5446
84.7334
112.964
99.57
75.14
67.7274
87.3638
91.9486
74.3763
42.5796
38.6123
46.0594
57.4812
79.8363
88.6749
59.5719
38.2634
42.9159
41.0834
48.5198
49.2472
39.0612
37.1628
71.6278
50.0363
47.7657
44.0052
38.4281
1.9338
1.96901
1.99994
1.98903
1.90358
1.77118
1.70001
2.49552
6.33133
9.21354
9.63336
9.43218
8.96694
8.56412
8.47962
8.73929
9.14891
9.71555
10.8527
12.7566
13.5478
13.183
11.6108
8.49923
8.68307
7.28193
7.55739
9.41552
8.3307
8.9661
7.9608
8.47961
6.9125
7.4462
5.8592
6.37791
4.98786
5.30816
4.86173
4.76318
5.06088
4.95237
6.11565
5.54922
5.27564
20.8588
15.1672
11.8527
7.56033
36.8386
37.3583
34.0066
30.0722
25.7289
37.9023
36.4867
39.2531
45.1641
45.1154
44.9639
44.27
49.3039
47.1183
45.2312
45.7893
60.6837
57.8181
59.81
62.439
76.6364
75.3955
73.5114
71.2309
86.3028
88.4527
89.4828
89.9254
91.482
99.9656
106.021
117.751
155.433
129.224
188.994
185.781
115.714
102.658
148.091
155.012
118.806
60.1186
47.4038
59.6356
89.6786
146.066
147.66
87.118
46.8187
52.9152
54.6416
52.9245
54.1719
196.867
38.5967
130.694
51.7425
48.4278
43.7466
37.7711
1.9634
1.99725
1.99404
1.93578
1.80466
1.721
2.4093
6.35348
9.42487
9.87216
9.65133
9.06984
8.70694
8.53532
8.76501
9.20409
9.77003
10.9355
12.615
13.3381
13.1178
11.7686
8.63129
5.08729
6.98493
5.45215
5.5162
7.89707
6.63509
7.43023
6.47871
6.94858
5.58948
6.05126
4.93185
5.1947
4.71488
4.76587
4.98409
4.78392
5.30113
5.15502
6.57309
5.73809
5.6021
5.3935
23.1437
17.8614
13.9451
8.62226
40.6842
40.5412
36.6887
32.4595
27.9089
43.1406
41.3147
43.6128
51.141
50.5864
50.2647
49.3995
57.2096
54.5992
51.662
53.063
68.3487
65.6343
69.5022
72.47
89.9409
88.4087
85.795
82.6684
110.729
113.398
114.426
115.051
155.644
190.36
186.67
184.821
182.381
204.251
475.068
460.271
192.722
170.766
215.145
184.626
204.137
84.1232
69.5742
97.1636
144.456
210.848
209.471
139.587
59.491
58.21
69.6101
60.1615
56.6465
343.952
49.2369
160.04
53.72
48.7711
43.916
39.3199
1.98135
1.99443
1.94805
1.83715
1.73612
2.17156
6.16622
9.4781
10.0102
9.73835
9.05978
8.75326
8.68364
8.98574
9.49769
10.0583
11.2657
12.6226
13.2015
12.9973
11.777
8.62368
5.06548
3.50765
4.65708
5.32728
4.52937
6.26467
5.15948
5.90698
5.2556
5.56086
4.73243
4.96569
4.57629
4.63024
4.64783
4.58879
5.20689
4.91877
5.6231
5.54311
5.50662
5.43806
7.29261
6.10297
5.865
24.4505
19.3942
15.6287
10.4616
44.6018
43.7631
39.2347
34.5052
29.4881
48.2534
46.1233
47.8234
57.8149
56.0973
55.3
53.9115
67.1876
63.7395
59.0753
61.9291
78.5955
75.9623
81.6241
86.4787
114.486
112.446
107.828
102.781
192.624
192.347
183.555
180.812
221.875
426.856
438.572
479.173
484.624
468.702
872.937
865.074
494.073
204.287
499.262
492.369
491.62
147.741
85.2322
110
208.243
482.922
472.169
194.374
66.6047
69.0319
79.8471
63.6472
60.5432
232.502
54.8216
107.548
54.6991
49.1682
44.2984
42.7311
1.97999
1.95734
1.84524
1.75033
1.95876
5.53102
9.44479
10.0676
9.73794
9.0159
8.75056
8.92395
9.55413
10.1915
10.8286
11.8049
12.7028
13.0876
12.8389
11.6156
8.33631
4.88923
3.39593
3.00336
3.78466
3.42154
2.88631
4.41556
3.77974
4.97113
4.31469
4.79202
4.47536
4.61855
4.36157
4.38926
4.44786
4.38671
4.66815
4.54171
5.51315
5.13218
5.83363
5.86108
5.69422
5.83401
8.10176
6.5493
6.24599
25.7302
20.6859
16.7195
11.9618
48.3915
47.1276
41.9945
36.7431
31.2152
52.832
50.5829
51.4983
66.0263
62.4115
60.7493
58.1527
79.411
74.9789
68.2011
72.7575
94.0364
89.2518
98.2178
107.389
167.83
165.137
150.369
145.676
424.425
429.957
418.087
418.164
459.428
834.351
841.147
884.388
883.375
855.712
2477.14
2468.98
908.549
489.825
905.356