/*--------------------------------*- C++ -*----------------------------------*\
  =========                 |
  \\      /  F ield         | OpenFOAM: The Open Source CFD Toolbox
   \\    /   O peration     | Website:  https://openfoam.org
    \\  /    A nd           | Version:  dev
     \\/     M anipulation  |
\*---------------------------------------------------------------------------*/
FoamFile
{
    version     2.0;
    format      ascii;
    class       volScalarField;
    location    "2500";
    object      p_rgh;
}
// * * * * * * * * * * * * * * * * * * * * * * * * * * * * * * * * * * * * * //

dimensions      [1 -1 -2 0 0 0 0];

internalField   nonuniform List<scalar> 
9978
(
0.00455194
0.00636452
0.0049647
0.0064416
0.00959283
0.00472853
0.00628101
0.0110079
0.00930828
0.00342634
0.00592183
0.0113415
0.0125292
0.00839809
0.00306335
0.005491
0.0111909
0.0144652
0.0120696
0.00682242
0.00239813
0.00453758
0.0106517
0.0152691
0.0146984
0.0107429
0.00558265
0.00180933
0.00464794
0.011028
0.01559
0.016748
0.0140577
0.0095337
0.00510388
0.00149978
0.00408079
0.0100295
0.015232
0.0175405
0.016494
0.0123467
0.00818355
0.00434983
0.000912715
0.00386295
0.00968151
0.0146551
0.018021
0.0182493
0.0150636
0.0108567
0.00711265
0.00381129
0.000726929
0.00367798
0.00916472
0.0137039
0.017604
0.0193304
0.0181148
0.014064
0.00986548
0.00612895
0.00299715
0.000412913
0.00373561
0.0087055
0.0126913
0.01765
0.0200863
0.0194066
0.0163282
0.0126533
0.00881864
0.00568449
0.00265453
2.33767e-06
0.0037927
0.00812638
0.0119211
0.0171155
0.0201355
0.0205862
0.0189243
0.0147343
0.0116009
0.00790188
0.00522496
0.00244862
-0.000171377
0.00360202
0.00727258
0.0116993
0.0165465
0.0200776
0.0213394
0.020408
0.0172802
0.0138392
0.0101877
0.00729191
0.00469243
0.0020467
-0.000496476
0.00332078
0.00676208
0.0110512
0.0153019
0.0194816
0.0217529
0.0213944
0.0194603
0.0160566
0.0125572
0.00959537
0.00694302
0.00433714
0.00172491
-0.000667751
0.00295278
0.00677084
0.0103052
0.0146477
0.0185674
0.021573
0.0223525
0.0208822
0.0177697
0.0149952
0.0117141
0.00892125
0.00644949
0.00390153
0.00161832
-0.000820962
0.00299236
0.00651249
0.00994016
0.0139579
0.0173686
0.0212492
0.022638
0.0222126
0.0201158
0.0165436
0.0136575
0.0108771
0.00842597
0.00603421
0.00370563
0.00129293
-0.00100089
0.00265757
0.00603875
0.00924266
0.0124888
0.0162028
0.0205094
0.0226532
0.0231777
0.0215793
0.0188805
0.0154941
0.0128552
0.0102363
0.00807353
0.00562446
0.00355128
0.00117115
-0.00113588
0.00251935
0.00562283
0.00862248
0.0117706
0.015645
0.0197898
0.0224846
0.0233948
0.0227916
0.0203555
0.0171607
0.0145892
0.0120215
0.00961445
0.00753214
0.00537852
0.00339223
0.00116477
-0.00109164
0.00250037
0.00547743
0.00844683
0.0114067
0.0146125
0.0186347
0.0218977
0.0234432
0.0234246
0.0220677
0.0192071
0.0160092
0.0137541
0.0115791
0.00941568
0.00726756
0.00533341
0.00307085
0.00102983
-0.00123979
0.00228595
0.00480466
0.00786981
0.0105036
0.013368
0.0174414
0.0210539
0.0232117
0.0237778
0.0229133
0.0206569
0.0180921
0.0152935
0.0131836
0.0108351
0.00897877
0.00712094
0.00523065
0.00296402
0.00100973
-0.00122161
0.00203203
0.00457751
0.00722337
0.00986621
0.0129125
0.0159464
0.02006
0.0226492
0.0238293
0.0236279
0.0220851
0.0194371
0.0169221
0.0144812
0.0125165
0.0105735
0.00881053
0.00698489
0.0050068
0.00317112
0.00111657
-0.00118577
0.00186937
0.00444881
0.00679275
0.0095437
0.0120517
0.0146603
0.0190941
0.0218635
0.0236029
0.0239537
0.0230554
0.0209168
0.0182481
0.0158862
0.0139367
0.0121617
0.0103556
0.00869994
0.00683771
0.00515627
0.00318951
0.00119131
-0.000998739
0.00178669
0.00404745
0.00639993
0.00888017
0.0113919
0.0139486
0.0179029
0.0209229
0.0231124
0.0240055
0.0236746
0.022116
0.0199999
0.0171278
0.0151607
0.0132984
0.0117573
0.0101603
0.00865865
0.00686954
0.0051819
0.00327578
0.00123236
-0.000883418
0.00151315
0.00360679
0.00599699
0.00823442
0.0106785
0.013035
0.0163772
0.0195285
0.0224168
0.0238415
0.0240082
0.0230391
0.0211722
0.0185246
0.0162621
0.0147282
0.0129485
0.0115142
0.0101312
0.00858233
0.00700835
0.00535543
0.00343571
0.00147755
-0.000742083
0.00142945
0.00339378
0.0054215
0.00767423
0.00987772
0.012151
0.0153208
0.0181553
0.021616
0.0233868
0.0240891
0.0235653
0.0222375
0.0197995
0.0176821
0.0157074
0.0141822
0.0127693
0.0112563
0.0101089
0.0087044
0.00719399
0.0055209
0.0037
0.00179894
-0.000375264
0.00123202
0.00301795
0.00502226
0.00720378
0.00908796
0.0114221
0.014387
0.0171744
0.0204908
0.0226806
0.0238771
0.0239647
0.022935
0.0207049
0.01865
0.0169644
0.01522
0.0138789
0.0125124
0.0113685
0.0101677
0.00884852
0.00741773
0.00589437
0.004166
0.00219629
-4.04258e-05
0.000998072
0.00275628
0.0046295
0.0065298
0.00847856
0.0107225
0.0129073
0.0157707
0.0188674
0.0218734
0.0235091
0.0240388
0.0234698
0.021935
0.0199562
0.0178691
0.0160308
0.0147728
0.0136832
0.0124763
0.0114435
0.0103115
0.00908252
0.00776355
0.00628932
0.00456447
0.00266787
0.000365126
0.00080785
0.00260995
0.00434522
0.00610937
0.00806466
0.00997023
0.0120682
0.0145676
0.0176936
0.0209545
0.0228614
0.0237996
0.0237516
0.022663
0.0207525
0.0186525
0.0170615
0.0157303
0.0145943
0.0134575
0.0124735
0.0115866
0.0105541
0.00946631
0.00827865
0.0068141
0.0052096
0.00322726
0.000852019
0.000694263
0.00233825
0.00397324
0.00555538
0.00751075
0.00926123
0.0111856
0.0136993
0.0161044
0.0196825
0.0220346
0.0233302
0.0236922
0.0232011
0.021489
0.0197289
0.0179044
0.0163477
0.0154305
0.0141786
0.0134117
0.0126687
0.0118253
0.0109278
0.00997199
0.00887201
0.00751762
0.00590457
0.00387812
0.0013668
0.00047625
0.00195614
0.00364157
0.00507211
0.00689466
0.00869397
0.0105393
0.012735
0.0149809
0.0185001
0.0210132
0.0226028
0.0235404
0.0233868
0.022193
0.0204882
0.0187684
0.017299
0.0159578
0.0151734
0.0142126
0.0133766
0.0128924
0.0121716
0.0113914
0.010557
0.00954786
0.00829931
0.00670617
0.00462567
0.00197457
0.000322041
0.00182143
0.00331715
0.00467108
0.00628368
0.00789514
0.00992082
0.0118567
0.013888
0.0170773
0.0199308
0.0218345
0.0231941
0.0233258
0.0226686
0.0211531
0.0196538
0.0179094
0.0167739
0.0157454
0.0149412
0.0143503
0.0137595
0.0131407
0.0125983
0.0120022
0.0112547
0.0103642
0.00920238
0.00758125
0.0054921
0.00265001
0.000145795
0.00157035
0.00293271
0.00425169
0.00585603
0.00746379
0.00902205
0.011041
0.0130805
0.015851
0.0185651
0.0209818
0.0224502
0.0231038
0.0228494
0.0215494
0.0201607
0.0183431
0.0169871
0.0162679
0.015383
0.0149848
0.0144185
0.0140747
0.0135174
0.0131366
0.012694
0.0121509
0.0113815
0.0102415
0.00865501
0.00640377
0.00332151
4.24504e-05
0.00135366
0.00266854
0.00398801
0.00537148
0.00686238
0.00847261
0.0102968
0.0121206
0.014427
0.017266
0.0197701
0.0216616
0.0227016
0.0227797
0.0220642
0.0205844
0.0190094
0.0176884
0.0165039
0.0158566
0.0153227
0.0149597
0.0143094
0.0142765
0.014041
0.0138571
0.0136188
0.0132005
0.0125211
0.0114359
0.00983818
0.00748115
0.00342624
-0.000142226
0.00106038
0.00235771
0.00364948
0.00488584
0.00630399
0.00781856
0.00950869
0.0111047
0.0131242
0.0159113
0.0185423
0.0207183
0.0220137
0.0224886
0.022105
0.021062
0.0196125
0.0183069
0.0168998
0.0163286
0.0157304
0.0151356
0.0150077
0.0146357
0.0147496
0.0147451
0.0147729
0.0146708
0.0143925
0.0138119
0.0127378
0.0111387
0.00745476
0.00939694
0.00225695
0.00663178
0.00507881
-0.000244314
0.000933389
0.00210522
0.00332388
0.00447154
0.00587221
0.00737594
0.00889739
0.0103533
0.0123988
0.0147095
0.0173344
0.0195591
0.0212152
0.0220272
0.0220377
0.021269
0.0199787
0.0185781
0.0175057
0.0163967
0.0158602
0.015414
0.0151645
0.0152282
0.0150556
0.0154025
0.0156118
0.01581
0.0158805
0.0157437
0.0152263
0.0139638
0.0112611
0.0130914
0.00922801
0.00249716
0.00775637
0.0054838
-0.000397851
0.000708568
0.00183349
0.00302159
0.00421422
0.00550153
0.00684731
0.00814683
0.00968592
0.0114296
0.0135127
0.0159516
0.0183833
0.0202703
0.0213608
0.0216961
0.0212672
0.0202284
0.018929
0.0176312
0.0168067
0.0160521
0.0155902
0.0150961
0.0152174
0.0155933
0.0155566
0.0162096
0.0166114
0.0170124
0.017259
0.0172137
0.0157647
0.0169318
0.0146581
0.0159919
0.0162796
0.0115526
0.0136256
0.010305
0.00267428
0.00838006
0.00586996
-0.000457056
0.000590766
0.00165845
0.00271035
0.00389602
0.00497564
0.00631707
0.00759746
0.00902656
0.0105196
0.0120842
0.0147904
0.0170984
0.019146
0.0205065
0.0212816
0.0211546
0.0203202
0.0191065
0.0179806
0.0168939
0.0161153
0.0158075
0.0157761
0.0151955
0.015344
0.016055
0.0162273
0.0171633
0.017795
0.0184247
0.0188322
0.0178889
0.0189664
0.0174593
0.015471
0.0177351
0.0171464
0.0126213
0.0146846
0.0110534
0.00278955
0.00896836
0.00620875
-0.000543829
0.000429745
0.00138163
0.00239112
0.00357239
0.004642
0.00586122
0.00708802
0.00842911
0.00989421
0.0113158
0.0134915
0.0158105
0.0180522
0.0196102
0.0206493
0.0208112
0.0202569
0.0191292
0.0180367
0.0169616
0.0160973
0.0156656
0.0154199
0.0153591
0.0156843
0.0156848
0.0165623
0.0170847
0.018378
0.0194643
0.0206572
0.019995
0.0216599
0.0188677
0.0204316
0.019186
0.016539
0.0188009
0.0183705
0.0134413
0.0155597
0.0117761
0.00281729
0.00952048
0.00642927
-0.000597662
0.000280098
0.00122582
0.00220638
0.00318913
0.00422162
0.0053463
0.00658136
0.00786174
0.00911032
0.0105249
0.0125161
0.0147188
0.0168066
0.018612
0.0198126
0.0203217
0.0201034
0.0192724
0.01806
0.0169809
0.0160955
0.015402
0.0149656
0.0150905
0.0151451
0.0158034
0.0162847
0.0173618
0.01844
0.021065
0.0250509
0.0243924
0.0302057
0.0228738
0.0277192
0.0210104
0.0243275
0.020992
0.0175858
0.0208446
0.020251
0.0142476
0.016517
0.012472
0.0027958
0.00998437
0.00658309
-0.000630658
0.000176953
0.00105071
0.00198228
0.00293943
0.00398703
0.00495227
0.00605206
0.00713142
0.00849818
0.00982241
0.011507
0.0136086
0.0156444
0.0173098
0.0188544
0.019695
0.0197403
0.019133
0.0181219
0.016911
0.0159644
0.0153427
0.0146777
0.0145242
0.0145902
0.0151258
0.0155493
0.0168918
0.0190655
0.0238787
0.0360234
0.0403688
0.0591458
0.0378186
0.0571081
0.0316844
0.0477669
0.0253846
0.0358452
0.0261366
0.0192814
0.0261697
0.0253412
0.0150705
0.0178927
0.0131315
0.00262601
0.010403
0.00658754
-0.000617453
0.000116117
0.0008982
0.00174517
0.00259727
0.00356382
0.00459072
0.00563748
0.00672079
0.0079314
0.00899516
0.0105847
0.0122966
0.0145164
0.0162476
0.0178058
0.0189496
0.0192392
0.0188547
0.0179277
0.0169008
0.0159024
0.015026
0.014473
0.0140727
0.0139458
0.0142721
0.0153091
0.0160478
0.0193229
0.028339
0.0570186
0.0802978
0.109928
0.0866461
0.122988
0.0780257
0.120981
0.0592627
0.102258
0.0397787
0.0711638
0.0423773
0.0236273
0.0430547
0.041365
0.0161095
0.0211398
0.0138457
0.00207048
0.0107204
0.00620363
-0.000565992
9.39541e-05
0.000796806
0.0015556
0.00237707
0.00326772
0.00423495
0.0051706
0.00626132
0.00730408
0.00853293
0.00994359
0.0112763
0.0132052
0.0151733
0.0167664
0.0181207
0.0186057
0.0184817
0.0177808
0.016741
0.0157073
0.0148005
0.0140611
0.0136288
0.0133611
0.0133979
0.0141087
0.0155804
0.0191183
0.0354586
0.0811362
0.13519
0.165421
0.162706
0.20101
0.169985
0.22012
0.158167
0.218565
0.126843
0.194514
0.0811442
0.148769
0.0873616
0.0372677
0.0887824
0.0849376
0.0182347
0.0312727
0.0150249
0.00101341
0.0110065
0.00528073
-0.000472362
0.000103042
0.000730579
0.00141629
0.00216694
0.00298083
0.00385493
0.00477859
0.00565987
0.00672634
0.00793225
0.00912784
0.0103261
0.0122272
0.0140386
0.0156665
0.0171135
0.017915
0.0180059
0.017562
0.0165328
0.0154015
0.0145268
0.0137352
0.0131351
0.0127646
0.0125668
0.0129761
0.0140833
0.0182852
0.037691
0.106906
0.186656
0.209538
0.236404
0.266807
0.267521
0.309209
0.277521
0.332162
0.26438
0.331926
0.226584
0.305072
0.164889
0.252192
0.174177
0.0755921
0.175567
0.168315
0.0248217
0.0617581
0.0186779
0.000569679
0.0119367
0.00584216
-0.00034458
0.000147089
0.000698098
0.00130521
0.00197702
0.00274168
0.00356675
0.00441283
0.00524459
0.00626723
0.00735263
0.00843732
0.00964948
0.0113348
0.0128804
0.0144969
0.016148
0.0170853
0.0174133
0.017153
0.0163339
0.0153109
0.0141843
0.0134457
0.0126388
0.0121329
0.0117896
0.0117864
0.0125354
0.0162416
0.0387054
0.114436
0.223281
0.236632
0.291001
0.309972
0.345114
0.372995
0.381291
0.418193
0.393533
0.444725
0.37993
0.448678
0.33898
0.4208
0.269594
0.364775
0.278661
0.151963
0.279038
0.270449
0.0459393
0.127407
0.030963
0.00116652
0.0191519
0.0102217
-0.000194912
0.00022188
0.000695678
0.00122766
0.00182606
0.00254207
0.00329744
0.00405579
0.0048831
0.00581429
0.00681045
0.0077747
0.00892696
0.0103804
0.0118905
0.01349
0.015171
0.0161242
0.0167141
0.0166482
0.0160464
0.0150424
0.0139622
0.0131217
0.0122008
0.0114844
0.0110039
0.0107214
0.0110223
0.0138373
0.0353191
0.121034
0.244553
0.234943
0.323011
0.332169
0.391014
0.399332
0.438132
0.442178
0.470935
0.475441
0.493709
0.504962
0.493943
0.527989
0.454396
0.530418
0.381425
0.478785
0.389139
0.252209
0.387955
0.37766
0.0976628
0.225845
0.069452
-0.00269672
0.0462161
0.0225439
-4.40924e-05
0.000314899
0.000721477
0.00117847
0.00170565
0.00235055
0.00303099
0.00372384
0.00453517
0.0054014
0.00634587
0.00723033
0.00809033
0.00959763
0.0109779
0.0124125
0.0140285
0.0151665
0.0159677
0.016049
0.0157038
0.0147982
0.0136977
0.012687
0.0117704
0.0108938
0.0102177
0.00973554
0.00959955
0.0113644
0.0305406
0.114129
0.285666
0.332222
0.344246
0.399479
0.395661
0.437829
0.428293
0.467449
0.454791
0.49746
0.481975
0.528694
0.513918
0.555971
0.548996
0.558213
0.579972
0.493305
0.579821
0.499343
0.358685
0.496778
0.485752
0.192167
0.333282
0.157136
-0.0134742
0.114396
0.0684686
7.25491e-05
0.000398925
0.000762502
0.00115666
0.00161028
0.0021707
0.00275932
0.00341046
0.00418199
0.00502397
0.00594361
0.00675775
0.00749215
0.00895196
0.0101252
0.0115247
0.0130296
0.0142111
0.01519
0.0154105
0.0151361
0.0144874
0.0133952
0.0121678
0.0113096
0.0103536
0.00950531
0.00879943
0.0083293
0.00909541
0.0240139
0.103156
0.268747
0.372033
0.361628
0.388205
0.381692
0.417487
0.405349
0.4378
0.416971
0.457178
0.422034
0.484413
0.43757
0.524572
0.474555
0.567956
0.529822
0.60183
0.586449
0.593969
0.622714
0.599813
0.467721
0.59792
0.587908
0.305749
0.446721
0.278987
0.00754179
0.24343
0.236593
0.00011153
0.000416659
0.000771438
0.00114353
0.00154303
0.00202254
0.00252803
0.00312673
0.00383287
0.00466657
0.00556399
0.00633063
0.00697995
0.00817333
0.00938908
0.0105945
0.0119326
0.013314
0.014286
0.0147264
0.0146361
0.0140139
0.01289
0.0117972
0.0107093
0.00981548
0.00887634
0.00799497
0.0072118
0.00716621
0.0173533
0.0866464
0.24419
0.352523
0.341904
0.371098
0.361714
0.392829
0.381242
0.394515
0.37271
0.384657
0.349793
0.384179
0.331702
0.406286
0.337361
0.459018
0.374798
0.534928
0.44633
0.605813
0.543491
0.641316
0.626995
0.655997
0.573138
0.664662
0.666213
0.42813
0.559049
0.423935
0.175963
0.455512
0.531068
5.27053e-05
0.000312399
0.000669839
0.00105552
0.00145587
0.00187976
0.00228842
0.00279474
0.00344631
0.00425294
0.00511485
0.00587402
0.00653539
0.00750317
0.00876614
0.00972519
0.01106
0.0124514
0.0133795
0.013982
0.0140314
0.013569
0.0126697
0.011393
0.010206
0.00927196
0.00827281
0.00728338
0.00632636
0.00564537
0.0115719
0.066191
0.209931
0.331505
0.310998
0.353247
0.34578
0.328724
0.320336
0.353939
0.338984
0.318318
0.292804
0.289039
0.256716
0.282222
0.24999
0.299824
0.256799
0.350914
0.278245
0.442235
0.338465
0.558596
0.448466
0.648994
0.581144
0.669158
0.66149
0.685186
0.696078
0.555193
0.657178
0.586565
0.122828
0.651594
0.526344
8.78012e-05
0.000434498
0.000839279
0.00125151
0.00167163
0.00206756
0.00250963
0.00316482
0.00393814
0.00474895
0.00551571
0.00619658
0.00707212
0.00813861
0.00893446
0.0101147
0.0114265
0.0125183
0.0132392
0.0134011
0.0130768
0.0122654
0.011129
0.00980351
0.00864848
0.00771042
0.00664682
0.00552715
0.00458319
0.00719409
0.0466501
0.172951
0.310925
0.339642
0.337236
0.314509
0.311947
0.254497
0.24947
0.274536
0.262761
0.232991
0.214601
0.230522
0.215615
0.238027
0.22841
0.247045
0.237601
0.269523
0.246165
0.336976
0.268875
0.465824
0.345504
0.608847
0.494177
0.637785
0.702841
0.664282
0.684895
0.668288
0.709073
0.699523
-0.0283845
0.689305
0.29515
9.14478e-05
0.000477124
0.000926713
0.00135047
0.00175966
0.00220215
0.00281878
0.00347002
0.00418799
0.00497879
0.00570666
0.00648048
0.00745295
0.00827065
0.00922335
0.0105432
0.011656
0.0124874
0.0127663
0.0125714
0.0118946
0.0108442
0.00953699
0.00817234
0.00714068
0.00607459
0.0049051
0.00363156
0.00433361
0.0300187
0.134565
0.284415
0.311785
0.310555
0.310473
0.312796
0.249065
0.25143
0.185399
0.184009
0.200163
0.191225
0.201275
0.185465
0.221349
0.212847
0.24057
0.25266
0.247262
0.274178
0.250356
0.267237
0.273746
0.258033
0.363441
0.282189
0.529086
0.390091
0.565683
0.69798
0.600497
0.629
0.7182
0.706538
0.722494
-0.0313739
0.654375
0.227229
6.2102e-05
0.000455328
0.000938443
0.00135398
0.00178382
0.00239587
0.00293644
0.00365125
0.00444172
0.0052305
0.00604297
0.0069239
0.00765919
0.00848362
0.00973293
0.0108553
0.0118202
0.0121521
0.0120639
0.011518
0.0105139
0.00925664
0.00787369
0.00653267
0.00556751
0.00431227
0.00306317
0.00254935
0.0175806
0.0972436
0.246405
0.29779
0.271452
0.278319
0.256341
0.263619
0.187001
0.193156
0.142435
0.138987
0.167715
0.151989
0.200195
0.181912
0.260645
0.256924
0.313339
0.344641
0.321902
0.386821
0.291853
0.372401
0.267035
0.314446
0.292797
0.274223
0.423207
0.305932
0.467939
0.648313
0.502682
0.526661
0.591413
0.711773
0.686628
0.65389
0.70917
-0.00384346
0.634592
0.42354
-9.06956e-06
0.000375885
0.00086933
0.00129489
0.00184815
0.00240154
0.00303757
0.00381315
0.00469011
0.00556842
0.0064481
0.0071958
0.0078945
0.00897775
0.0101489
0.0112553
0.0115809
0.0115705
0.0110988
0.0101905
0.00897056
0.0076055
0.00617296
0.00491249
0.00385476
0.00238608
0.00140151
0.00919281
0.065298
0.202958
0.291184
0.250293
0.261011
0.22524
0.237781
0.20219
0.21327
0.143064
0.151229
0.116925
0.111239
0.15834
0.131557
0.238405
0.204394
0.354217
0.342554
0.438705
0.462993
0.459599
0.526106
0.417566
0.524988
0.330024
0.454732
0.280782
0.335798
0.323733
0.279801
0.286989
0.419484
0.348245
0.539761
0.610275
0.555149
0.451519
0.380401
0.357037
0.469679
0.691982
0.660075
0.654999
0.61563
0.664136
0.687084
0.672045
0.25551
0.633869
0.668661
0.671949
0.650545
0.486119
0.617245
-0.000128019
0.000243465
0.00072035
0.00122051
0.00187117
0.00239404
0.00314821
0.00405837
0.00502254
0.00596417
0.00678042
0.00744368
0.00833207
0.00948456
0.010665
0.011105
0.0111268
0.0107295
0.00988599
0.00865501
0.00730877
0.00590411
0.00446534
0.00330233
0.00208506
0.000642992
0.00378752
0.0415602
0.157206
0.278005
0.268468
0.274912
0.217955
0.231753
0.189225
0.203542
0.162395
0.175354
0.114946
0.124955
0.0965991
0.0898537
0.159725
0.118673
0.307234
0.246592
0.459749
0.431011
0.559836
0.56074
0.603504
0.64225
0.580415
0.669403
0.403235
0.480476
0.547055
0.614313
0.293666
0.338691
0.489509
0.48483
0.404765
0.275903
0.292536
0.278178
0.287797
0.299557
0.486473
0.566054
0.504082
0.395394
0.323706
0.307449
0.414469
0.626944
0.620556
0.574629
0.635239
0.646828
0.192162
0.526316
0.625042
0.661601
0.656189
0.658461
0.649919
-0.000290793
5.92912e-05
0.00055623
0.00116465
0.00176589
0.00242266
0.00333923
0.00437873
0.00541864
0.00632829
0.00703743
0.00780644
0.00887523
0.0099918
0.010684
0.0107448
0.0104181
0.00958685
0.00836673
0.00696119
0.00556173
0.00415839
0.00278845
0.00147736
0.000149621
0.000809173
0.0244337
0.115202
0.252204
0.275858
0.244952
0.255452
0.196111
0.210353
0.166829
0.181522
0.137878
0.152117
0.0944572
0.107289
0.0761597
0.068081
0.171232
0.10672
0.368811
0.278273
0.529797
0.466401
0.641108
0.606303
0.712831
0.71065
0.661508
0.708829
0.731791
0.755021
0.558375
0.625645
0.681696
0.328035
0.397043
0.563749
0.563065
0.479421
0.280391
0.275513
0.277008
0.316765
0.276147
0.43346
0.51857
0.452039
0.341555
0.278788
0.284918
0.361041
0.582396
0.590865
0.530279
0.601738
0.615157
0.0445912
0.477295
0.644785
0.629629
0.640754
0.645002
0.663641
-0.000476837
-0.000142095
0.000405844
0.00106399
0.00167628
0.00253431
0.00362875
0.00477797
0.00582209
0.00663803
0.00736897
0.00834154
0.00940307
0.0104046
0.0104862
0.010191
0.00940041
0.00816542
0.00665638
0.00513515
0.00375961
0.00240686
0.00122575
-7.55213e-05
-0.000666842
0.0128949
0.0810489
0.210306
0.274105
0.250642
0.259967
0.224135
0.236817
0.184097
0.197883
0.154626
0.169683
0.122839
0.138927
0.075255
0.0918679
0.0560314
0.0450873
0.173945
0.0905276
0.382366
0.27912
0.541181
0.460176
0.673471
0.606926
0.757507
0.756243
0.743166
0.722258
0.725348
0.756521
0.776065
0.784175
0.634752
0.694806
0.741897
0.385132
0.470035
0.639078
0.638958
0.55785
0.304787
0.272152
0.294062
0.369811
0.268921
0.380242
0.468683
0.399705
0.295774
0.267739
0.267133
0.311182
0.540537
0.551184
0.483011
0.563886
0.578807
0.0160765
0.652096
0.436311
0.595184
0.610131
0.627423
0.674099
-0.000650334
-0.000330958
0.000262249
0.000895025
0.00168002
0.00277918
0.00402068
0.00521738
0.00619186
0.00698191
0.00789021
0.00892796
0.0100984
0.0103312
0.0100889
0.00931649
0.00808818
0.00644061
0.00475494
0.00323551
0.00195852
0.00068766
-0.000396878
-0.00124578
0.0057973
0.0530886
0.167352
0.264707
0.265247
0.236771
0.246141
0.211186
0.223884
0.177736
0.191239
0.14724
0.163138
0.111058
0.129843
0.0538422
0.0741411
0.0345064
0.0224183
0.162374
0.0702673
0.364465
0.252641
0.518802
0.41649
0.694225
0.654281
0.577811
0.782422
0.771909
0.753197
0.725862
0.775771
0.797128
0.80718
0.806626
0.703697
0.754544
0.791393
0.45601
0.547711
0.708015
0.708097
0.633774
0.351313
0.282763
0.331834
0.43765
0.272598
0.330244
0.418084
0.349654
0.26843
0.265801
0.258581
0.273517
0.49605
0.509514
0.434939
0.524355
0.541422
0.0489702
0.665465
0.444292
0.561551
0.586608
0.624263
0.685814
-0.000765113
-0.000492713
8.95147e-05
0.000810811
0.00184137
0.0031571
0.00447865
0.00565231
0.00656788
0.00746456
0.00852214
0.00982333
0.0102256
0.0101095
0.00939571
0.00811263
0.00638077
0.00447329
0.00273044
0.00132544
0.000229475
-0.000786593
-0.0016597
0.00156303
0.0333661
0.129367
0.243314
0.272919
0.250273
0.258785
0.227797
0.238275
0.203947
0.215978
0.172706
0.186513
0.139514
0.157142
0.0974025
0.119565
0.0291838
0.051438
0.0117093
-0.000406783
0.131651
0.0448592
0.309391
0.196728
0.459259
0.337684
0.689901
0.647358
0.50332
0.5755
0.797418
0.781889
0.756514
0.723374
0.815034
0.826889
0.828146
0.820362
0.76323
0.803495
0.829697
0.532529
0.62357
0.767681
0.768062
0.703233
0.415109
0.311248
0.389445
0.512596
0.291681
0.286273
0.369437
0.305203
0.25466
0.273583
0.257697
0.251923
0.451333
0.46816
0.389038
0.486075
0.507394
0.0940475
0.678808
0.525025
0.534781
0.573027
0.630515
0.694335
-0.000822406
-0.000610521
-5.26541e-05
0.000918021
0.00219919
0.0036255
0.00496932
0.00608135
0.0070569
0.00812032
0.00949341
0.010146
0.0102319
0.00965031
0.00839121
0.00657088
0.00435667
0.00230102
0.00064034
-0.000463519
-0.00129411
-0.0018913
-0.000770748
0.0194769
0.0954399
0.209404
0.270204
0.264859
0.242209
0.24975
0.221663
0.231956
0.199022
0.210603
0.164893
0.180056
0.126411
0.147122
0.0775264
0.102942
0.00217872
0.022736
-0.012307
-0.0235567
0.0846081
0.0147592
0.230039
0.126119
0.443951
0.365094
0.236074
0.311543
0.682595
0.632188
0.47984
0.54988
0.806716
0.784929
0.754819
0.717358
0.843554
0.846872
0.840713
0.828867
0.811922
0.841124
0.857179
0.608481
0.693657
0.81651
0.817385
0.76391
0.487599
0.360549
0.45776
0.588431
0.327847
0.256036
0.325974
0.269556
0.245502
0.29348
0.264504
0.240665
0.408906
0.429553
0.348079
0.452065
0.479979
0.158673
0.69746
0.608065
0.517107
0.568453
0.637244
0.698862
-0.00092229
-0.000818179
7.71001e-05
0.00125046
0.00268265
0.00414735
0.00546464
0.00658717
0.00772665
0.00904261
0.0100727
0.0104042
0.010054
0.00892136
0.00705078
0.00456092
0.00199451
-6.26911e-05
-0.00131385
-0.00202997
-0.00252754
-0.00187759
0.00993835
0.0669218
0.173477
0.260207
0.273276
0.253172
0.26058
0.23504
0.243426
0.215652
0.225555
0.193214
0.204936
0.149788
0.168016
0.103553
0.128268
0.049243
0.0766144
-0.0252563
-0.0107998
-0.0349669
-0.0444398
0.0341572
-0.0148131
0.146824
0.0595406
0.405245
0.334122
0.214798
0.268951
0.670001
0.614107
0.450772
0.525571
0.809971
0.783693
0.74971
0.707026
0.862448
0.858097
0.847922
0.831635
0.849226
0.867806
0.874969
0.679447
0.755428
0.853878
0.855216
0.814208
0.562797
0.420816
0.530115
0.660491
0.375065
0.238457
0.290917
0.245254
0.244494
0.326165
0.282124
0.232329
0.371363
0.396286
0.314221
0.424776
0.460654
0.284183
0.705724
0.641788
0.507644
0.56956
0.641721
0.700012
-0.00135714
-0.000719638
0.00043462
0.00172077
0.00322
0.00469383
0.00601219
0.00728165
0.00866259
0.0100459
0.0106029
0.0105365
0.00963908
0.00782403
0.00513859
0.00199773
-0.000661371
-0.00235747
-0.00316977
-0.00340804
-0.00276016
0.00408984
0.0438166
0.140416
0.239998
0.274283
0.265124
0.243414
0.249204
0.22676
0.235177
0.207571
0.21756
0.183344
0.196338
0.123688
0.146367
0.069059
0.0975615
0.0130766
0.0401463
-0.0492696
-0.0439754
-0.0481854
-0.0566312
-0.00472709
-0.0339668
0.126415
0.0760306
0.0472156
0.00868932
0.37373
0.298552
0.172905
0.23043
0.655134
0.594589
0.422341
0.500523
0.808798
0.779171
0.742014
0.69442
0.872414
0.863768
0.849653
0.82995
0.875387
0.884541
0.883603
0.742755
0.807161
0.87991
0.881482
0.85309
0.635521
0.485041
0.601457
0.725613
0.427869
0.228662
0.264283
0.231772
0.248496
0.364294
0.306103
0.229547
0.340717
0.370303
0.289224
0.405337
0.449271
0.220555
0.711175
0.646928
0.505397
0.572185
0.644646
0.699408
-0.00124085
-0.000218467
0.000867325
0.00223971
0.0037909
0.00528633
0.00671657
0.00823783
0.0098623
0.010763
0.0110457
0.0104855
0.00887311
0.00612382
0.00252999
-0.00090348
-0.00330861
-0.00438165
-0.0045271
-0.00367476
0.00105725
0.027869
0.111355
0.213178
0.270029
0.270527
0.247195
0.25473
0.232204
0.238973
0.21581
0.224374
0.19484
0.206087
0.165557
0.181513
0.0849367
0.112324
0.0248961
0.0550237
-0.0269405
-0.00294725
-0.062578
-0.0639678
-0.0563594
-0.0648381
-0.00975194
-0.0294854
-0.0437189
0.0974407
0.0598477
0.0289639
0.00381238
0.34333
0.268102
0.144424
0.200964
0.638478
0.57375
0.394785
0.476007
0.804416
0.771979
0.731026
0.680923
0.876072
0.864648
0.84686
0.824977
0.891349
0.891938
0.885505
0.796521
0.8477
0.895443
0.896977
0.880295
0.702494
0.549094
0.666221
0.781649
0.480452
0.22287
0.246928
0.224757
0.260331
0.404538
0.333806
0.231681
0.318293
0.352572
0.273078
0.394048
0.446081
0.105355
0.720095
0.622457
0.507551
0.578381
0.651444
0.712877
-0.000631337
0.000170407
0.00132632
0.00278959
0.00440522
0.00600665
0.00769185
0.00953262
0.0107804
0.0114894
0.0113731
0.010137
0.00753805
0.0037263
-0.000462425
-0.00369411
-0.00495823
-0.00517818
-0.00448551
-0.000353798
0.0178584
0.0847604
0.185246
0.260256
0.271482
0.25523
0.232632
0.237821
0.21831
0.225592
0.200109
0.2099
0.174288
0.188403
0.136583
0.157175
0.0357261
0.0662115
-0.0223373
0.00534121
-0.0590646
-0.0451787
-0.0706738
-0.0741438
-0.0616123
-0.0711259
-0.0163476
-0.0321657
-0.0516615
-0.0430696
0.0819821
0.0485677
0.0219175
-0.000312429
0.314369
0.240042
0.124118
0.176095
0.621331
0.552964
0.37138
0.455594
0.796951
0.762287
0.719822
0.668093
0.875372
0.860296
0.840981
0.817303
0.897502
0.892145
0.882913
0.839287
0.876376
0.900636
0.901494
0.896337
0.76023
0.606559
0.717982
0.826414
0.529909
0.220255
0.237644
0.222199
0.277503
0.445639
0.36531
0.23897
0.305028
0.344094
0.265328
0.392014
0.448619
0.120372
0.738489
0.586817
0.515534
0.590764
0.667903
0.734757
-0.000294853
0.000526057
0.00179679
0.00339108
0.00512752
0.00696031
0.00897754
0.0105916
0.0117573
0.0121797
0.0114837
0.0092968
0.0055986
0.00106731
-0.00234148
-0.0037211
-0.00343016
-0.00315239
-0.00116348
0.0135436
0.0634574
0.158954
0.242527
0.269491
0.261066
0.224666
0.21608
0.224606
0.199753
0.208375
0.176822
0.189343
0.143198
0.161607
0.0953175
0.121169
-0.016159
0.0130522
-0.0608797
-0.0419633
-0.0743523
-0.0705773
-0.0765766
-0.080257
-0.0493006
-0.0511757
-0.0637285
-0.0717963
-0.076611
-0.0180181
-0.0317235
-0.037861
0.0705374
0.0428297
0.0195165
0.00134224
0.288853
0.214971
0.106596
0.153853
0.606033
0.535139
0.357077
0.442295
0.788053
0.752815
0.709825
0.657434
0.869766
0.853038
0.832286
0.807544
0.896319
0.887847
0.875768
0.869801
0.893276
0.898153
0.897708
0.9001
0.801207
0.656022
0.758291
0.854326
0.575805
0.221612
0.234484
0.222417
0.298172
0.486135
0.397011
0.25166
0.300756
0.343703
0.262802
0.395762
0.459154
0.0345285
0.745344
0.478543
0.53306
0.610365
0.689758
0.751354
-7.22678e-05
0.000886667
0.00231275
0.00408523
0.00602346
0.00817993
0.0101627
0.0117753
0.012778
0.0127581
0.0112277
0.00800617
0.00392111
0.00222294
0.00290373
0.00358153
0.00282259
0.000312842
0.0120916
0.0509663
0.135328
0.222141
0.263945
0.262211
0.23376
0.186424
0.201615
0.194575
0.194394
0.173949
0.185308
0.14373
0.16023
0.100618
0.123929
0.0440369
0.0737729
-0.0578061
-0.0366652
-0.0779421
-0.0705745
-0.081772
-0.0811105
-0.0819076
-0.085068
-0.0380848
-0.0364725
-0.0529183
-0.0688102
-0.0783246
-0.0133541
-0.0259334
-0.0260198
0.0635516
0.0404779
0.0226301
0.00827533
0.273732
0.199604
0.0955182
0.13989
0.594377
0.522574
0.347403
0.432255
0.777611
0.741957
0.698885
0.646493
0.860793
0.842654
0.821218
0.796228
0.890208
0.879657
0.864863
0.884689
0.895138
0.890524
0.88847
0.894558
0.828858
0.697183
0.788617
0.870047
0.616525
0.227277
0.236683
0.227881
0.319832
0.522184
0.426189
0.264308
0.302111
0.350671
0.266776
0.41048
0.482967
0.0394918
0.737502
0.51463
0.557182
0.634746
0.713213
0.758716
0.000126882
0.00127477
0.00290976
0.00490582
0.00715966
0.00944528
0.0114644
0.0130517
0.0137712
0.0131031
0.0106981
0.00793736
0.00945238
0.0127228
0.0132367
0.0109319
0.00644909
0.0124467
0.0467798
0.115583
0.201327
0.252423
0.260253
0.239033
0.191652
0.1765
0.155398
0.163847
0.166516
0.13912
0.154148
0.100341
0.121266
0.0489854
0.0761073
-0.00939558
0.0198534
-0.0750923
-0.065943
-0.0843134
-0.0809082
-0.0862762
-0.0857915
-0.0839486
-0.0870022
-0.090137
-0.0211924
-0.0144102
-0.0354932
-0.0566941
-0.0756803
-0.00376695
-0.0147702
-0.00794162
0.0635665
0.0453012
0.0328842
0.0227167
0.264456
0.191062
0.0910141
0.132852
0.584116
0.512142
0.347282
0.430614
0.766674
0.731398
0.689289
0.638639
0.848422
0.829309
0.807672
0.783095
0.880628
0.86689
0.850648
0.885588
0.887291
0.879468
0.873875
0.882556