/*--------------------------------*- C++ -*----------------------------------*\
  =========                 |
  \\      /  F ield         | OpenFOAM: The Open Source CFD Toolbox
   \\    /   O peration     | Website:  https://openfoam.org
    \\  /    A nd           | Version:  dev
     \\/     M anipulation  |
\*---------------------------------------------------------------------------*/
FoamFile
{
    version     2.0;
    format      ascii;
    class       surfaceScalarField;
    location    "2500";
    object      phi;
}
// * * * * * * * * * * * * * * * * * * * * * * * * * * * * * * * * * * * * * //

dimensions      [1 0 -1 0 0 0 0];

internalField   nonuniform List<scalar> 
19793
(
1.69458e-07
1.14786e-07
1.49645e-07
2.86384e-07
4.75717e-07
1.01924e-07
1.25629e-07
3.91632e-07
4.76391e-07
2.85698e-07
6.86061e-07
8.33063e-08
1.05894e-07
4.64802e-07
4.498e-07
4.18203e-07
7.1362e-07
2.58025e-07
8.43186e-07
6.88415e-08
9.03734e-08
5.18078e-07
4.03483e-07
5.11074e-07
7.2604e-07
4.05851e-07
8.82392e-07
2.18813e-07
9.81769e-07
5.87012e-08
7.63819e-08
5.58272e-07
3.49662e-07
5.71922e-07
7.1395e-07
5.23155e-07
9.23601e-07
3.64609e-07
1.01313e-06
1.87349e-07
1.10244e-06
5.15575e-08
6.50737e-08
5.88538e-07
2.98422e-07
6.0942e-07
6.77748e-07
6.08055e-07
9.50715e-07
4.96061e-07
1.06152e-06
3.16312e-07
1.12692e-06
1.62818e-07
1.21241e-06
4.55526e-08
5.68435e-08
6.11215e-07
2.55043e-07
6.31889e-07
6.25487e-07
6.61719e-07
9.53225e-07
6.05448e-07
1.11255e-06
4.44975e-07
1.16765e-06
2.75551e-07
1.23099e-06
1.44262e-07
1.31094e-06
4.05265e-08
5.07579e-08
6.29099e-07
2.22634e-07
6.43616e-07
5.6599e-07
6.91394e-07
9.29892e-07
6.85095e-07
1.1514e-06
5.66571e-07
1.22088e-06
3.91802e-07
1.26241e-06
2.44111e-07
1.32631e-06
1.2888e-07
1.39958e-06
3.62937e-08
4.67629e-08
6.41867e-07
2.01692e-07
6.50023e-07
5.04284e-07
7.053e-07
8.84642e-07
7.36606e-07
1.16908e-06
6.67397e-07
1.28001e-06
5.07351e-07
1.30788e-06
3.46251e-07
1.35238e-06
2.18023e-07
1.4125e-06
1.1593e-07
1.48119e-06
3.28227e-08
4.42297e-08
6.51565e-07
1.86993e-07
6.56551e-07
4.46535e-07
7.07802e-07
8.25098e-07
7.64835e-07
1.16086e-06
7.4481e-07
1.33063e-06
6.16749e-07
1.36639e-06
4.48877e-07
1.38951e-06
3.09091e-07
1.43423e-06
1.96262e-07
1.49227e-06
1.04823e-07
1.55605e-06
2.96028e-08
4.23381e-08
6.59354e-07
1.7523e-07
6.63327e-07
4.00758e-07
7.02322e-07
7.58998e-07
7.73866e-07
1.12769e-06
7.97989e-07
1.3615e-06
7.13981e-07
1.43039e-06
5.52661e-07
1.43875e-06
3.99579e-07
1.46656e-06
2.76761e-07
1.51126e-06
1.77268e-07
1.56627e-06
9.45703e-08
1.62438e-06
2.65005e-08
4.09487e-08
6.67025e-07
1.65299e-07
6.6939e-07
3.69215e-07
6.94884e-07
6.9206e-07
7.69204e-07
1.07457e-06
8.26986e-07
1.36748e-06
7.91921e-07
1.48967e-06
6.54744e-07
1.49888e-06
4.92461e-07
1.50844e-06
3.57662e-07
1.5372e-06
2.50753e-07
1.58339e-06
1.60124e-07
1.63404e-06
8.4898e-08
1.68687e-06
2.3617e-08
3.92613e-08
6.75259e-07
1.57275e-07
6.75001e-07
3.46682e-07
6.91946e-07
6.296e-07
7.57378e-07
1.00841e-06
8.35452e-07
1.34643e-06
8.48035e-07
1.5316e-06
7.49988e-07
1.566e-06
5.8775e-07
1.56021e-06
4.40668e-07
1.57309e-06
3.21747e-07
1.60743e-06
2.26672e-07
1.65007e-06
1.44081e-07
1.69604e-06
7.5722e-08
1.74337e-06
2.09066e-08
3.76378e-08
6.83421e-07
1.51952e-07
6.80573e-07
3.28003e-07
6.93769e-07
5.78755e-07
7.42884e-07
9.35902e-07
8.29823e-07
1.30187e-06
8.80034e-07
1.54988e-06
8.29711e-07
1.63051e-06
6.85412e-07
1.62163e-06
5.26317e-07
1.61797e-06
3.95702e-07
1.63843e-06
2.90662e-07
1.67227e-06
2.04429e-07
1.71118e-06
1.28899e-07
1.75187e-06
6.72019e-08
1.79521e-06
1.80655e-08
3.67779e-08
6.92096e-07
1.48171e-07
6.87116e-07
3.14022e-07
6.94673e-07
5.41626e-07
7.30943e-07
8.61599e-07
8.17191e-07
1.23982e-06
8.92e-07
1.54196e-06
8.88e-07
1.68203e-06
7.78077e-07
1.69038e-06
6.16644e-07
1.67155e-06
4.72821e-07
1.67748e-06
3.56716e-07
1.70094e-06
2.61996e-07
1.73233e-06
1.83261e-07
1.76688e-06
1.13863e-07
1.80417e-06
5.82178e-08
1.84106e-06
1.52226e-08
3.60796e-08
7.03218e-07
1.44626e-07
6.95672e-07
3.03311e-07
6.97936e-07
5.09234e-07
7.27052e-07
7.91237e-07
8.01377e-07
1.16647e-06
8.90579e-07
1.50858e-06
9.25357e-07
1.71285e-06
8.57153e-07
1.75925e-06
7.09188e-07
1.73448e-06
5.53696e-07
1.72406e-06
4.26258e-07
1.73618e-06
3.21467e-07
1.75984e-06
2.34475e-07
1.78793e-06
1.62217e-07
1.81839e-06
9.96301e-08
1.84995e-06
4.92936e-08
1.88155e-06
1.23144e-08
3.51544e-08
7.16433e-07
1.41756e-07
7.06111e-07
2.92924e-07
7.06128e-07
4.81374e-07
7.25864e-07
7.33475e-07
7.84867e-07
1.08816e-06
8.79678e-07
1.45469e-06
9.44536e-07
1.71785e-06
9.20398e-07
1.81814e-06
7.98225e-07
1.80425e-06
6.3941e-07
1.77765e-06
5.00105e-07
1.77805e-06
3.84362e-07
1.79289e-06
2.88418e-07
1.81421e-06
2.08158e-07
1.83843e-06
1.42181e-07
1.865e-06
8.45549e-08
1.89089e-06
3.99228e-08
1.91605e-06
9.27552e-09
3.48204e-08
7.30898e-07
1.39309e-07
7.18869e-07
2.84038e-07
7.15008e-07
4.60979e-07
7.2652e-07
6.88062e-07
7.71412e-07
1.01035e-06
8.62837e-07
1.38532e-06
9.49155e-07
1.69632e-06
9.661e-07
1.85881e-06
8.79717e-07
1.87539e-06
7.27015e-07
1.84015e-06
5.76982e-07
1.82606e-06
4.52113e-07
1.83161e-06
3.4563e-07
1.84644e-06
2.56158e-07
1.86496e-06
1.81579e-07
1.88545e-06
1.21696e-07
1.90663e-06
6.88075e-08
1.92586e-06
3.00915e-08
1.94497e-06
5.92786e-09
3.44516e-08
7.48447e-07
1.36442e-07
7.33797e-07
2.76557e-07
7.26436e-07
4.42841e-07
7.33244e-07
6.5096e-07
7.63728e-07
9.38703e-07
8.43123e-07
1.30629e-06
9.41918e-07
1.6513e-06
9.94195e-07
1.87548e-06
9.49454e-07
1.9405e-06
8.14643e-07
1.91015e-06
6.56894e-07
1.88115e-06
5.21885e-07
1.87648e-06
4.07215e-07
1.88405e-06
3.08031e-07
1.89613e-06
2.24983e-07
1.91145e-06
1.55609e-07
1.92816e-06
1.00147e-07
1.94222e-06
5.2433e-08
1.9553e-06
1.97488e-08
1.96672e-06
2.41943e-09
3.35938e-08
7.691e-07
1.33937e-07
7.50976e-07
2.68085e-07
7.42333e-07
4.26232e-07
7.43141e-07
6.22297e-07
7.62034e-07
8.76647e-07
8.2589e-07
1.22342e-06
9.2606e-07
1.58749e-06
1.0058e-06
1.86585e-06
1.00385e-06
1.99009e-06
8.99801e-07
1.9833e-06
7.41387e-07
1.94451e-06
5.9351e-07
1.92735e-06
4.71004e-07
1.92622e-06
3.6503e-07
1.93202e-06
2.72122e-07
1.94349e-06
1.92949e-07
1.95562e-06
1.28143e-07
1.96535e-06
7.69989e-08
1.97248e-06
3.52153e-08
1.97896e-06
7.46592e-09
1.9832e-06
-1.29786e-09
3.28941e-08
7.91104e-07
1.32319e-07
7.70702e-07
2.60138e-07
7.58984e-07
4.14191e-07
7.54499e-07
5.98547e-07
7.67e-07
8.24578e-07
8.14177e-07
1.14321e-06
9.06274e-07
1.51074e-06
1.0029e-06
1.83109e-06
1.04061e-06
2.01805e-06
9.76e-07
2.05346e-06
8.2971e-07
2.01407e-06
6.71726e-07
1.98409e-06
5.36777e-07
1.97307e-06
4.24093e-07
1.97401e-06
3.231e-07
1.98088e-06
2.34648e-07
1.98838e-06
1.60191e-07
1.99445e-06
9.90418e-08
1.99663e-06
5.28236e-08
1.99789e-06
1.62584e-08
1.99502e-06
-4.36146e-09
1.99179e-06
-5.72066e-09
3.25224e-08
8.1514e-07
1.30206e-07
7.93256e-07
2.54216e-07
7.76748e-07
4.0305e-07
7.7022e-07
5.75916e-07
7.7714e-07
7.82704e-07
8.08964e-07
1.07132e-06
8.86237e-07
1.42684e-06
9.90339e-07
1.77512e-06
1.05893e-06
2.02062e-06
1.03809e-06
2.1114e-06
9.1813e-07
2.08806e-06
7.55784e-07
2.04794e-06
6.0789e-07
2.02576e-06
4.84197e-07
2.0205e-06
3.77591e-07
2.02221e-06
2.81832e-07
2.02648e-06
1.96547e-07
2.02931e-06
1.25318e-07
2.02796e-06
6.77239e-08
2.02426e-06
2.64652e-08
2.01565e-06
-4.3787e-09
2.00352e-06
-1.61358e-08
1.98877e-06
-1.0229e-08
3.20239e-08
8.41925e-07
1.27642e-07
8.17671e-07
2.49044e-07
7.98502e-07
3.9123e-07
7.88648e-07
5.55858e-07
7.90398e-07
7.48902e-07
8.11186e-07
1.01031e-06
8.70203e-07
1.34003e-06
9.73202e-07
1.70281e-06
1.06273e-06
1.99702e-06
1.08257e-06
2.14988e-06
9.99621e-07
2.16125e-06
8.44928e-07
2.11853e-06
6.85149e-07
2.08329e-06
5.50287e-07
2.07103e-06
4.33698e-07
2.06836e-06
3.31491e-07
2.06935e-06
2.38977e-07
2.06919e-06
1.56691e-07
2.06565e-06
8.76208e-08
2.05796e-06
3.40427e-08
2.04442e-06
-2.32493e-09
2.02529e-06
-2.61569e-08
2.00374e-06
-3.11057e-08
1.9796e-06
-1.45168e-08
3.15479e-08
8.70673e-07
1.25307e-07
8.4433e-07
2.42783e-07
8.24042e-07
3.80591e-07
8.09247e-07
5.37552e-07
8.07076e-07
7.20718e-07
8.18799e-07
9.5914e-07
8.6247e-07
1.25667e-06
9.53682e-07
1.62014e-06
1.05598e-06
1.94965e-06
1.11015e-06
2.16365e-06
1.06883e-06
2.2254e-06
9.35454e-07
2.19305e-06
7.70191e-07
2.14643e-06
6.22118e-07
2.12624e-06
4.95041e-07
2.11874e-06
3.83305e-07
2.11643e-06
2.84444e-07
2.11436e-06
1.93822e-07
2.10894e-06
1.13409e-07
2.09833e-06
4.72388e-08
2.08156e-06
-3.13359e-09
2.0574e-06
-3.44445e-08
2.02851e-06
-5.09465e-08
1.99477e-06
-4.62902e-08
1.96496e-06
-1.99759e-08
3.11613e-08
9.00773e-07
1.22635e-07
8.73316e-07
2.36599e-07
8.50547e-07
3.71159e-07
8.3357e-07
5.19552e-07
8.27378e-07
6.96423e-07
8.3142e-07
9.15161e-07
8.62884e-07
1.18437e-06
9.3488e-07
1.53161e-06
1.04243e-06
1.88336e-06
1.12235e-06
2.15112e-06
1.12272e-06
2.27238e-06
1.02183e-06
2.26813e-06
8.60592e-07
2.21586e-06
7.00645e-07
2.18581e-06
5.62522e-07
2.17292e-06
4.40862e-07
2.16818e-06
3.31552e-07
2.16431e-06
2.34508e-07
2.15697e-06
1.45788e-07
2.14503e-06
6.67183e-08
2.12629e-06
2.54263e-09
2.09845e-06
-4.41863e-08
2.06327e-06
-6.92222e-08
2.0224e-06
-7.85855e-08
1.98344e-06
-6.47667e-08
1.93437e-06
-2.59983e-08
3.03228e-08
9.32581e-07
1.19432e-07
9.04012e-07
2.31046e-07
8.78965e-07
3.60598e-07
8.61205e-07
5.03231e-07
8.5e-07
6.74571e-07
8.49365e-07
8.7607e-07
8.70758e-07
1.12277e-06
9.24639e-07
1.4408e-06
1.02586e-06
1.80353e-06
1.12236e-06
2.11351e-06
1.16002e-06
2.29672e-06
1.09836e-06
2.3363e-06
9.53671e-07
2.2906e-06
7.85967e-07
2.25094e-06
6.35468e-07
2.23104e-06
5.04439e-07
2.22237e-06
3.86683e-07
2.2175e-06
2.7838e-07
2.20984e-06
1.81645e-07
2.19729e-06
9.35562e-08
2.17753e-06
1.54856e-08
2.14769e-06
-4.66865e-08
2.10817e-06
-8.90724e-08
2.06133e-06
-1.08161e-07
2.01333e-06
-1.08495e-07
1.9535e-06
-8.39106e-08
1.89142e-06
-3.23409e-08
2.94531e-08
9.64926e-07
1.16866e-07
9.35279e-07
2.25922e-07
9.09176e-07
3.49807e-07
8.89857e-07
4.89427e-07
8.75111e-07
6.53056e-07
8.7169e-07
8.4065e-07
8.85003e-07
1.06948e-06
9.24315e-07
1.3572e-06
1.00844e-06
1.71591e-06
1.1136e-06
2.05467e-06
1.18129e-06
2.29545e-06
1.1614e-06
2.39047e-06
1.0442e-06
2.36803e-06
8.76275e-07
2.32082e-06
7.16064e-07
2.29197e-06
5.74542e-07
2.27918e-06
4.47615e-07
2.27376e-06
3.30379e-07
2.26695e-06
2.21302e-07
2.25438e-06
1.24589e-07
2.23484e-06
3.62727e-08
2.20468e-06
-4.14917e-08
2.16281e-06
-1.01309e-07
2.11108e-06
-1.38804e-07
2.05582e-06
-1.50652e-07
1.98652e-06
-1.41516e-07
1.91225e-06
-1.04741e-07
1.83573e-06
-3.89362e-08
2.88212e-08
9.97542e-07
1.14145e-07
9.67707e-07
2.20952e-07
9.40317e-07
3.39911e-07
9.19207e-07
4.76286e-07
9.03115e-07
6.3154e-07
8.96717e-07
8.096e-07
9.02848e-07
1.02415e-06
9.3049e-07
1.28521e-06
9.96459e-07
1.62407e-06
1.10046e-06
1.97974e-06
1.18863e-06
2.2679e-06
1.2089e-06
2.4237e-06
1.12815e-06
2.44079e-06
9.71488e-07
2.39471e-06
8.02384e-07
2.35739e-06
6.50599e-07
2.33974e-06
5.14047e-07
2.33252e-06
3.88843e-07
2.3265e-06
2.70899e-07
2.31534e-06
1.60379e-07
2.29743e-06
6.20622e-08
2.26843e-06
-2.74509e-08
2.22594e-06
-1.04605e-07
2.17158e-06
-1.61794e-07
2.11079e-06
-1.93759e-07
2.03435e-06
-1.98478e-07
1.94837e-06
-1.77656e-07
1.85781e-06
-1.26826e-07
1.76725e-06
-4.55842e-08
2.78618e-08
1.03113e-06
1.10518e-07
1.00123e-06
2.15291e-07
9.73435e-07
3.30078e-07
9.50279e-07
4.63141e-07
9.3246e-07
6.11442e-07
9.23335e-07
7.82305e-07
9.24246e-07
9.84186e-07
9.43047e-07
1.22291e-06
9.92927e-07
1.53459e-06
1.08613e-06
1.89387e-06
1.18645e-06
2.21675e-06
1.23987e-06
2.43268e-06
1.19999e-06
2.50223e-06
1.06674e-06
2.47139e-06
8.94816e-07
2.42709e-06
7.32735e-07
2.40317e-06
5.87172e-07
2.39313e-06
4.53622e-07
2.38794e-06
3.27396e-07
2.37925e-06
2.0702e-07
2.36412e-06
9.37302e-08
2.33793e-06
-7.40354e-09
2.2973e-06
-9.87713e-08
2.24221e-06
-1.75202e-07
2.17741e-06
-2.28391e-07
2.09603e-06
-2.55417e-07
2.00021e-06
-2.50299e-07
1.89619e-06
-2.16036e-07
1.78944e-06
-1.49017e-07
1.68537e-06
-5.17378e-08
2.66639e-08
1.06454e-06
1.07422e-07
1.0344e-06
2.09211e-07
1.00737e-06
3.20556e-07
9.83043e-07
4.49419e-07
9.64082e-07
5.92558e-07
9.51476e-07
7.57106e-07
9.48703e-07
9.48307e-07
9.60294e-07
1.16933e-06
9.96695e-07
1.4547e-06
1.07299e-06
1.80224e-06
1.17791e-06
2.14739e-06
1.25593e-06
2.41596e-06
1.25666e-06
2.54502e-06
1.1572e-06
2.54619e-06
9.91892e-07
2.50006e-06
8.21822e-07
2.47009e-06
6.65796e-07
2.45548e-06
5.24762e-07
2.45068e-06
3.90986e-07
2.44495e-06
2.61705e-07
2.43362e-06
1.3755e-07
2.41225e-06
1.93872e-08
2.37555e-06
-8.56158e-08
2.3221e-06
-1.78627e-07
2.2555e-06
-2.53277e-07
2.1714e-06
-3.03726e-07
2.06718e-06
-3.22357e-07
1.95203e-06
-3.06118e-07
1.82854e-06
-2.55129e-07
1.70722e-06
-1.7085e-07
1.59271e-06
-5.70894e-08
2.54185e-08
1.09672e-06
1.03979e-07
1.06799e-06
2.0161e-07
1.04202e-06
3.10627e-07
1.01737e-06
4.35186e-07
9.97382e-07
5.75076e-07
9.81704e-07
7.32726e-07
9.76002e-07
9.15917e-07
9.81278e-07
1.12371e-06
1.00601e-06
1.38635e-06
1.06544e-06
1.70934e-06
1.16609e-06
2.06506e-06
1.26039e-06
2.37408e-06
1.29789e-06
2.56375e-06
1.238e-06
2.61193e-06
1.09137e-06
2.57531e-06
9.16635e-07
2.53909e-06
7.52786e-07
2.51926e-06
6.02045e-07
2.51409e-06
4.61301e-07
2.51214e-06
3.2383e-07
2.50479e-06
1.9056e-07
2.48911e-06
6.07942e-08
2.45917e-06
-6.41945e-08
2.40983e-06
-1.73342e-07
2.3437e-06
-2.66788e-07
2.25972e-06
-3.41553e-07
2.15045e-06
-3.86939e-07
2.02483e-06
-3.95112e-07
1.88715e-06
-3.64688e-07
1.74581e-06
-2.937e-07
1.61265e-06
-1.90783e-07
1.49134e-06
-6.01452e-08
2.41424e-08
1.12765e-06
9.93664e-08
1.10141e-06
1.92752e-07
1.07687e-06
3.00739e-07
1.05199e-06
4.21193e-07
1.03143e-06
5.57876e-07
1.01473e-06
7.09684e-07
1.00489e-06
8.86866e-07
1.00523e-06
1.08408e-06
1.02107e-06
1.32611e-06
1.06651e-06
1.62179e-06
1.15325e-06
1.97451e-06
1.25678e-06
2.31115e-06
1.3234e-06
2.55677e-06
1.30491e-06
2.66174e-06
1.18833e-06
2.65011e-06
1.01654e-06
2.61007e-06
8.45628e-07
2.58467e-06
6.87436e-07
2.57871e-06
5.37582e-07
2.57881e-06
3.94665e-07
2.57623e-06
2.5232e-07
2.56765e-06
1.12043e-07
2.54509e-06
-2.51694e-08
2.50303e-06
-1.57318e-07
2.44113e-06
-2.70704e-07
2.36069e-06
-3.67697e-07
2.24975e-06
-4.4079e-07
2.11685e-06
-4.78898e-07
1.96623e-06
-4.74133e-07
1.80559e-06
-4.24413e-07
1.64849e-06
-3.29501e-07
1.50376e-06
-2.03203e-07
1.38641e-06
-6.00897e-08
2.24722e-08
1.15692e-06
9.35317e-08
1.13353e-06
1.8337e-07
1.11085e-06
2.90681e-07
1.08703e-06
4.06357e-07
1.0669e-06
5.40095e-07
1.04935e-06
6.88332e-07
1.03621e-06
8.58152e-07
1.03376e-06
1.04637e-06
1.04311e-06
1.27221e-06
1.07516e-06
1.54466e-06
1.14377e-06
1.87964e-06
1.2483e-06
2.23263e-06
1.33543e-06
2.52426e-06
1.35604e-06
2.68945e-06
1.27724e-06
2.7189e-06
1.11955e-06
2.68346e-06
9.43069e-07
2.65222e-06
7.78063e-07
2.64299e-06
6.2285e-07
2.64455e-06
4.71744e-07
2.64957e-06
3.21369e-07
2.64684e-06
1.73195e-07
2.63195e-06
2.53172e-08
2.59957e-06
-1.21686e-07
2.54574e-06
-2.61872e-07
2.47317e-06
-3.83117e-07
2.36406e-06
-4.81929e-07
2.22759e-06
-5.51443e-07
2.06663e-06
-5.7921e-07
1.88883e-06
-5.57291e-07
1.70498e-06
-4.80836e-07
1.53209e-06
-3.57787e-07
1.38226e-06
-8.26523e-08
-1.16384e-07
6.44136e-07
-1.52461e-08
6.30346e-07
-3.97469e-08
2.03283e-08
1.18331e-06
8.70012e-08
1.16348e-06
1.73809e-07
1.14317e-06
2.79054e-07
1.12256e-06
3.91556e-07
1.10196e-06
5.22511e-07
1.08465e-06
6.67787e-07
1.07013e-06
8.29981e-07
1.06455e-06
1.01192e-06
1.06837e-06
1.22516e-06
1.09035e-06
1.47761e-06
1.14243e-06
1.78593e-06
1.23764e-06
2.1433e-06
1.33776e-06
2.46854e-06
1.39128e-06
2.69185e-06
1.35373e-06
2.77427e-06
1.22187e-06
2.75704e-06
1.04604e-06
2.72092e-06
8.74297e-07
2.70731e-06
7.13888e-07
2.70975e-06
5.57864e-07
2.71901e-06
4.0238e-07
2.7246e-06
2.4361e-07
2.71931e-06
8.58156e-08
2.69828e-06
-7.33612e-08
2.6553e-06
-2.31201e-07
2.59386e-06
-3.82507e-07
2.49229e-06
-5.11271e-07
2.35632e-06
-6.10568e-07
2.18857e-06
-6.73275e-07
1.99544e-06
-6.85712e-07
1.78748e-06
-6.39675e-07
1.58287e-06
-5.31518e-07
1.39647e-06
-1.69025e-07
-2.02908e-07
6.42291e-07
-8.0811e-08
6.44952e-07
-1.19041e-07
6.05935e-07
-1.02787e-08
6.2614e-07
-7.66137e-08
6.03238e-07
-3.70672e-08
1.78951e-08
1.20572e-06
7.99017e-08
1.19044e-06
1.63625e-07
1.17374e-06
2.65405e-07
1.15679e-06
3.77532e-07
1.13667e-06
5.04305e-07
1.12031e-06
6.4723e-07
1.10534e-06
8.03012e-07
1.0972e-06
9.80155e-07
1.09639e-06
1.18187e-06
1.1119e-06
1.41761e-06
1.15062e-06
1.70012e-06
1.22847e-06
2.0476e-06
1.33365e-06
2.39467e-06
1.41178e-06
2.66838e-06
1.41482e-06
2.80986e-06
1.31823e-06
2.82609e-06
1.15283e-06
2.79129e-06
9.75683e-07
2.77196e-06
8.09602e-07
2.77339e-06
6.50147e-07
2.78529e-06
4.91492e-07
2.79879e-06
3.28266e-07
2.80554e-06
1.57424e-07
2.79642e-06
-1.22684e-08
2.76665e-06
-1.84644e-07
2.71807e-06
-3.5536e-07
2.63052e-06
-5.20653e-07
2.50186e-06
-6.56718e-07
2.33221e-06
-7.54098e-07
2.12872e-06
-8.06418e-07
1.8989e-06
-7.96986e-07
1.65364e-06
-3.33965e-07
-3.76324e-07
7.23584e-07
-2.631e-07
7.05912e-07
-3.01304e-07
6.38793e-07
-1.6285e-07
6.44609e-07
-2.08695e-07
6.19411e-07
-1.12312e-07
5.91722e-07
-7.12158e-09
5.94864e-07
-6.82565e-08
5.84047e-07
-2.94161e-08
1.51661e-08
1.22318e-06
7.16166e-08
1.21399e-06
1.51949e-07
1.20212e-06
2.49865e-07
1.18935e-06
3.62133e-07
1.17238e-06
4.8464e-07
1.15645e-06
6.25459e-07
1.14218e-06
7.76758e-07
1.1318e-06
9.48918e-07
1.12854e-06
1.14027e-06
1.13822e-06
1.36283e-06
1.167e-06
1.62525e-06
1.22568e-06
1.94971e-06
1.32648e-06
2.30757e-06
1.42086e-06
2.62007e-06
1.46021e-06
2.82103e-06
1.40369e-06
2.88452e-06
1.25978e-06
2.86225e-06
1.08188e-06
2.83663e-06
9.11084e-07
2.83445e-06
7.48372e-07
2.84882e-06
5.86726e-07
2.86902e-06
4.21258e-07
2.88681e-06
2.47124e-07
2.89238e-06
6.14654e-08
2.87725e-06
-1.22836e-07
2.84364e-06
-3.10155e-07
2.77574e-06
-5.00523e-07
2.65977e-06
-6.78456e-07
2.4979e-06
-8.22281e-07
2.2908e-06
-9.16024e-07
2.04431e-06
-9.51653e-07
1.76828e-06
-4.36987e-07
-4.74444e-07
7.41099e-07
-3.51437e-07
7.6882e-07
-4.03994e-07
6.39412e-07
-2.57865e-07
7.15148e-07
-3.60627e-07
6.48754e-07
-3.10596e-07
6.11922e-07
-1.55347e-07
6.05958e-07
-2.02702e-07
5.85261e-07
-1.02713e-07
5.84953e-07
-2.72178e-09
5.717e-07
-5.59306e-08
5.723e-07
-1.67966e-08
1.21129e-08
1.23443e-06
6.17216e-08
1.23312e-06
1.37613e-07
1.22842e-06
2.31991e-07
1.22011e-06
3.43238e-07
1.20833e-06
4.64271e-07
1.19286e-06
6.02329e-07
1.17972e-06
7.51699e-07
1.1674e-06
9.18149e-07
1.1626e-06
1.10214e-06
1.16696e-06
1.3135e-06
1.18772e-06
1.56073e-06
1.23167e-06
1.85635e-06
1.31932e-06
2.21223e-06
1.42203e-06
2.55147e-06
1.4896e-06
2.80658e-06
1.47477e-06
2.92554e-06
1.36275e-06
2.92976e-06
1.1923e-06
2.90188e-06
1.01665e-06
2.89495e-06
8.5075e-07
2.90949e-06
6.87708e-07
2.93512e-06
5.20648e-07
2.96264e-06
3.45365e-07
2.98254e-06
1.56965e-07
2.98591e-06
-4.69773e-08
2.9689e-06
-2.48037e-07
2.9238e-06
-4.58148e-07
2.82903e-06
-6.69686e-07
2.67961e-06
-8.60035e-07
2.48305e-06
-1.01437e-06
2.2318e-06
-1.1033e-06
1.92964e-06
-5.3469e-07
-5.78055e-07
7.88791e-07
-4.569e-07
8.25404e-07
-5.10983e-07
7.2996e-07
-4.18747e-07
6.02035e-07
-2.53899e-07
6.56168e-07
-3.67975e-07
6.0174e-07
-3.10241e-07
5.73611e-07
-1.43683e-07
5.63626e-07
-1.92683e-07
5.56537e-07
-8.75544e-08
5.87523e-07
3.80941e-09
5.54056e-07
-3.77161e-08
5.6905e-07
1.62833e-09
8.40168e-09
1.23797e-06
4.95963e-08
1.24659e-06
1.20376e-07
1.25041e-06
2.1197e-07
1.24852e-06
3.20881e-07
1.24258e-06
4.4253e-07
1.23017e-06
5.77598e-07
1.21773e-06
7.26648e-07
1.20491e-06
8.87436e-07
1.19824e-06
1.06657e-06
1.1984e-06
1.26919e-06
1.21146e-06
1.50302e-06
1.24567e-06
1.77356e-06
1.31456e-06
2.11354e-06
1.41822e-06
2.46774e-06
1.50592e-06
2.7668e-06
1.52949e-06
2.94419e-06
1.45621e-06
2.98964e-06
1.30297e-06
2.96785e-06
1.12641e-06
2.95446e-06
9.57169e-07
2.96679e-06
7.93473e-07
2.99593e-06
6.26922e-07
3.03176e-06
4.51562e-07
3.06459e-06
2.63329e-07
3.08731e-06
5.53329e-08
3.08985e-06
-1.67871e-07
3.07069e-06
-3.94857e-07
3.00204e-06
-6.31096e-07
2.88201e-06
-8.71971e-07
2.70171e-06
-1.07847e-06
2.46913e-06
-1.25129e-06
2.1715e-06
-6.42963e-07
-7.01569e-07
8.60327e-07
-5.69504e-07
9.20698e-07
-6.38219e-07
7.50715e-07
-4.77575e-07
7.82334e-07
-5.42467e-07
6.70847e-07
-4.33337e-07
5.5562e-07
-2.4584e-07
6.07244e-07
-3.73393e-07
5.5044e-07
-3.0498e-07
5.39971e-07
-1.27098e-07
5.23761e-07
-1.76432e-07
5.32527e-07
-6.60327e-08
6.02345e-07
1.28648e-08
5.42793e-07
-1.15004e-08
5.76611e-07
2.72966e-08
3.48826e-09
1.23275e-06
3.50561e-08
1.25252e-06
1.00275e-07
1.26675e-06
1.88912e-07
1.27356e-06
2.94798e-07
1.27469e-06
4.16918e-07
1.26826e-06
5.50922e-07
1.25701e-06
6.99464e-07
1.24505e-06
8.56259e-07
1.23616e-06
1.03196e-06
1.23302e-06
1.22772e-06
1.24002e-06
1.45062e-06
1.26402e-06
1.70335e-06
1.31604e-06
2.01573e-06
1.41268e-06
2.37387e-06
1.51233e-06
2.70453e-06
1.56832e-06
2.93797e-06
1.53579e-06
3.03501e-06
1.41086e-06
3.03164e-06
1.23906e-06
3.01368e-06
1.06722e-06
3.02109e-06
9.02879e-07
3.05179e-06
7.37594e-07
3.09377e-06
5.64812e-07
3.13789e-06
3.78327e-07
3.17816e-06
1.7254e-07
3.20266e-06
-5.74585e-08
3.21214e-06
-3.09253e-07
3.17376e-06
-5.66464e-07
3.08902e-06
-8.37965e-07
2.95479e-06
-1.12468e-06
2.77314e-06
-1.3815e-06
2.55997e-06
-7.74194e-07
-8.63248e-07
9.95923e-07
-7.17744e-07
1.11393e-06
-8.18575e-07
8.3436e-07
-6.21242e-07
9.20465e-07
-7.2365e-07
6.97402e-07
-5.03974e-07
7.48024e-07
-5.92724e-07
6.24641e-07
-4.50568e-07
5.08608e-07
-2.30617e-07
5.56899e-07
-3.79692e-07
5.03903e-07
-3.00135e-07
5.08584e-07
-1.03136e-07
4.8327e-07
-1.51065e-07
5.12675e-07
-3.59289e-08
6.35044e-07
2.51524e-08
5.39237e-07
2.5817e-08
5.94961e-07
6.72986e-08
-3.6497e-09
1.2178e-06
1.79877e-08
1.24985e-06
7.58062e-08
1.27705e-06
1.60935e-07
1.2948e-06
2.63754e-07
1.30469e-06
3.8624e-07
1.30547e-06
5.21758e-07
1.29755e-06
6.69377e-07
1.28724e-06
8.24732e-07
1.27668e-06
9.97437e-07
1.27091e-06
1.18784e-06
1.27311e-06
1.4025e-06
1.28835e-06
1.64155e-06
1.32603e-06
1.924e-06
1.40797e-06
2.27447e-06
1.51236e-06
2.62479e-06
1.59222e-06
2.90671e-06
1.59967e-06
3.06053e-06
1.51033e-06
3.09007e-06
1.35248e-06
3.07276e-06
1.17996e-06
3.07365e-06
1.0147e-06
3.10246e-06
8.5224e-07
3.1483e-06
6.8316e-07
3.2021e-06
5.0059e-07
3.25754e-06
2.98999e-07
3.3035e-06
7.17642e-08
3.33863e-06
-1.83931e-07
3.34022e-06
-4.75618e-07
3.29708e-06
-7.74297e-07
3.21903e-06
-1.1016e-06
3.15022e-06
-1.49929e-06
3.14864e-06
-9.34028e-07
-1.02972e-06
1.27882e-06
-9.37165e-07
1.49283e-06
-1.07383e-06
1.06354e-06
-8.5928e-07
1.26974e-06
-1.02169e-06
8.45045e-07
-7.17346e-07
1.0141e-06
-8.90575e-07
6.70815e-07
-5.49725e-07
7.75724e-07
-6.96493e-07
5.95002e-07
-4.88227e-07
4.65817e-07
-2.13052e-07
5.30871e-07
-4.06251e-07
4.79346e-07
-3.13331e-07
4.78751e-07
-6.91878e-08
4.45779e-07
-1.18016e-07
4.95506e-07
7.78155e-09
6.92498e-07
4.13685e-08
5.41593e-07
7.911e-08
6.29768e-07
1.2992e-07
-1.16604e-08
1.18226e-06
8.37747e-10
1.23499e-06
4.73172e-08
1.2784e-06
1.27447e-07
1.31062e-06
2.27271e-07
1.33137e-06
3.50302e-07
1.3407e-06
4.88536e-07
1.33884e-06
6.3627e-07
1.33081e-06
7.91558e-07
1.32052e-06
9.62033e-07
1.31224e-06
1.14997e-06
1.30891e-06
1.35742e-06
1.31839e-06
1.58559e-06
1.34457e-06
1.84352e-06
1.40668e-06
2.17397e-06
1.5086e-06
2.53321e-06
1.60407e-06
2.85263e-06
1.64644e-06
3.06278e-06
1.59751e-06
3.13726e-06
1.46322e-06
3.13111e-06
1.29412e-06
3.12504e-06
1.12856e-06
3.14861e-06
9.6851e-07
3.19632e-06
8.04226e-07
3.25695e-06
6.28297e-07
3.32434e-06
4.33783e-07
3.38981e-06
2.12721e-07
3.44849e-06
-3.79921e-08
3.49022e-06
-3.33866e-07
3.49986e-06
-6.78196e-07
3.49073e-06
-1.04484e-06
3.57423e-06
-1.52135e-06
3.90159e-06
-1.08223e-06
-1.15637e-06
1.75865e-06
-1.19507e-06
2.03819e-06
-1.30292e-06
1.54105e-06
-1.20358e-06
1.85199e-06
-1.37818e-06
1.26188e-06
-1.10288e-06
1.56874e-06
-1.32247e-06
9.67013e-07
-9.05949e-07
1.24048e-06
-1.15906e-06
7.04454e-07
-6.57884e-07
9.10807e-07
-8.99747e-07
6.31228e-07
-5.87284e-07
4.41742e-07
-2.08782e-07
5.65473e-07
-4.91241e-07
5.05618e-07
-3.76338e-07
4.49197e-07
-2.2847e-08
4.22281e-07
-9.09693e-08
4.80606e-07
6.87431e-08
7.7905e-07
6.6164e-08
5.49568e-07
1.59208e-07
6.77151e-07
2.31678e-07
-1.99527e-08
1.13059e-06
-2.23139e-08
1.20545e-06
1.56698e-08
1.26669e-06
8.82178e-08
1.3177e-06
1.8509e-07
1.35289e-06
3.0843e-07
1.37335e-06
4.49361e-07
1.38e-06
5.98646e-07
1.37661e-06
7.546e-07
1.36793e-06
9.25238e-07
1.35748e-06
1.11333e-06
1.34909e-06
1.31356e-06
1.35296e-06
1.53408e-06
1.37e-06
1.77525e-06
1.41312e-06
2.076e-06
1.50488e-06
2.43424e-06
1.60774e-06
2.77928e-06
1.67759e-06
3.04043e-06
1.66889e-06
3.16786e-06
1.56699e-06
3.18574e-06
1.40863e-06
3.17601e-06
1.24318e-06
3.19232e-06
1.08489e-06
3.23828e-06
9.26586e-07
3.30269e-06
7.58491e-07
3.37875e-06
5.73872e-07
3.46018e-06
3.63404e-07
3.5395e-06
1.21761e-07
3.61601e-06
-1.63724e-07
3.6778e-06
-5.11598e-07
3.75047e-06
-9.36497e-07
4.01841e-06
-1.48188e-06
4.73149e-06
-1.14435e-06
-1.18711e-06
2.34936e-06
-1.38605e-06
2.63682e-06
-1.43549e-06
2.18764e-06
-1.52278e-06
2.51903e-06
-1.62552e-06
1.90746e-06
-1.53468e-06
2.25622e-06
-1.71823e-06
1.56497e-06
-1.4206e-06
1.90559e-06
-1.65502e-06
1.19526e-06
-1.185e-06
1.51679e-06
-1.47365e-06
8.40746e-07
-8.64149e-07
1.12389e-06
-1.17746e-06
7.60764e-07
-7.79552e-07
4.58086e-07
-2.44045e-07
6.79386e-07
-6.62516e-07
6.00716e-07
-5.17185e-07
4.2999e-07
2.78116e-08
4.31976e-07
-9.27328e-08
4.69782e-07
1.48484e-07
9.10245e-07
9.23859e-08
5.57727e-07
2.78485e-07
7.58222e-07
3.83523e-07
-2.87724e-08
1.0591e-06
-4.91726e-08
1.15749e-06
-2.20146e-08
1.24319e-06
4.16507e-08
1.31333e-06
1.35576e-07
1.3673e-06
2.59656e-07
1.40175e-06
4.03421e-07
1.41939e-06
5.5509e-07
1.42371e-06
7.13007e-07
1.41831e-06
8.86477e-07
1.40684e-06
1.07611e-06
1.39485e-06
1.27052e-06
1.39231e-06
1.48577e-06
1.40146e-06
1.71677e-06
1.42876e-06
1.98583e-06
1.50354e-06
2.3318e-06
1.60749e-06
2.69122e-06
1.69595e-06
2.99468e-06
1.72346e-06
3.1776e-06
1.65921e-06
3.23241e-06
1.52043e-06
3.22668e-06
1.35802e-06
3.23434e-06
1.20127e-06
3.27441e-06
1.04878e-06
3.3404e-06
8.88834e-07
3.42183e-06
7.15402e-07
3.51486e-06
5.19167e-07
3.61125e-06
2.9165e-07
3.71626e-06
2.15802e-08
3.821e-06
-3.06726e-07
3.96779e-06
-7.27242e-07
4.39845e-06
-1.30795e-06
5.5439e-06
-1.13e-06
-1.13936e-06
2.94235e-06
-1.44111e-06
3.19974e-06
-1.43525e-06
2.84854e-06
-1.70605e-06
3.15621e-06
-1.73343e-06
2.60038e-06
-1.85739e-06
2.93038e-06
-1.94606e-06
2.24882e-06
-1.86886e-06
2.57964e-06
-2.03989e-06
1.84528e-06
-1.74106e-06
2.16414e-06
-1.96506e-06
1.42908e-06
-1.48345e-06
1.7326e-06
-1.7695e-06
1.02943e-06
-1.12769e-06
1.312e-06
-1.45375e-06
9.22228e-07
-1.01795e-06
5.33676e-07
-3.44723e-07
8.146e-07
-8.72845e-07
7.14402e-07
-6.95468e-07
4.3166e-07
6.59358e-08
4.85995e-07
-1.46814e-07
4.6779e-07
2.38275e-07
9.22638e-07
1.80653e-07
5.78567e-07
4.57864e-07
6.91022e-07
6.14796e-07
-3.74787e-08
9.63019e-07
-7.81369e-08
1.08811e-06
-6.69485e-08
1.20249e-06
-1.39312e-08
1.29885e-06
7.61659e-08
1.37283e-06
2.01866e-07
1.42517e-06
3.492e-07
1.45608e-06
5.03669e-07
1.47091e-06
6.65677e-07
1.47115e-06
8.4468e-07
1.46026e-06
1.03833e-06
1.44481e-06
1.22989e-06
1.4357e-06
1.43923e-06
1.43902e-06
1.66436e-06
1.45409e-06
1.90761e-06
1.50715e-06
2.22935e-06
1.60614e-06
2.59408e-06
1.70487e-06
2.92805e-06
1.7627e-06
3.16393e-06
1.73723e-06
3.26592e-06
1.62578e-06
3.27548e-06
1.47148e-06
3.27582e-06
1.31649e-06
3.30757e-06
1.16817e-06
3.37141e-06
1.01772e-06
3.45471e-06
8.55931e-07
3.55513e-06
6.75109e-07
3.66621e-06
4.64173e-07
3.79209e-06
2.15856e-07
3.92816e-06
-8.54399e-08
4.12758e-06
-4.65063e-07
4.7032e-06
-1.02261e-06
6.15633e-06
-9.96016e-07
-8.96924e-07
3.47504e-06
-1.39583e-06
3.70203e-06
-1.35671e-06
3.45439e-06
-1.72979e-06
3.72685e-06
-1.69768e-06
3.23986e-06
-2.00518e-06
3.52194e-06
-2.00667e-06
2.88359e-06
-2.15153e-06
3.15346e-06
-2.2083e-06
2.45824e-06
-2.15306e-06
2.71773e-06
-2.29196e-06
2.01631e-06
-2.0166e-06
2.26353e-06
-2.20421e-06
1.58312e-06
-1.74737e-06
1.82258e-06
-2.00157e-06
1.17613e-06
-1.37599e-06
1.41081e-06
-1.68189e-06
1.03344e-06
-1.23215e-06
6.26129e-07
-4.83662e-07
8.98884e-07
-1.05383e-06
7.79536e-07
-8.46643e-07
4.65484e-07
6.7894e-08
5.58988e-07
-2.4049e-07
4.81305e-07
3.34859e-07
7.52468e-07
3.96388e-07
5.10924e-07
6.37198e-07
4.97043e-07
8.69447e-07
-4.47264e-08
8.39882e-07
-1.0766e-07
9.92592e-07
-1.1745e-07
1.13868e-06
-7.93723e-08
1.26801e-06
5.68933e-09
1.36941e-06
1.31844e-07
1.44293e-06
2.82992e-07
1.4915e-06
4.43194e-07
1.51666e-06
6.1179e-07
1.52492e-06
7.99538e-07
1.5164e-06
9.99872e-07
1.49885e-06
1.19166e-06
1.48325e-06
1.39354e-06
1.48164e-06
1.61667e-06
1.48689e-06
1.84243e-06
1.5195e-06
2.13172e-06
1.60496e-06
2.49261e-06
1.70785e-06
2.84618e-06
1.78687e-06
3.12797e-06
1.79878e-06
3.28215e-06
1.7211e-06
3.31902e-06
1.58232e-06
3.31681e-06
1.43036e-06
3.33871e-06
1.28535e-06
3.39593e-06
1.1436e-06
3.47884e-06
9.93558e-07
3.58243e-06
8.28612e-07
3.70325e-06
6.38033e-07
3.84295e-06
4.13297e-07
4.0009e-06
1.43205e-07
4.23582e-06
-1.92572e-07
4.89151e-06
-6.44874e-07
6.60666e-06
-1.44678e-06
3.93095e-06
-1.2155e-06
4.15062e-06
-1.10684e-06
3.98631e-06
-1.64559e-06
4.2204e-06
-1.58182e-06
3.77811e-06
-1.97881e-06
4.01277e-06
-1.92837e-06
3.39593e-06
-2.24501e-06
3.61387e-06
-2.22506e-06
2.93625e-06
-2.36887e-06
3.1168e-06
-2.39113e-06
2.46304e-06
-2.35019e-06
2.60638e-06
-2.43761e-06
2.01919e-06
-2.20692e-06
2.14596e-06
-2.33187e-06
1.60786e-06
-1.93709e-06
1.74337e-06
-2.13242e-06
1.23144e-06
-1.56831e-06
1.38762e-06
-1.83157e-06
1.05741e-06
-1.38608e-06
6.78761e-07
-6.02629e-07
9.05232e-07
-1.17614e-06
7.75933e-07
-9.41801e-07
5.15482e-07
3.22605e-08
6.007e-07
-3.26538e-07
4.80499e-07
3.6312e-07
7.27923e-07
9.0482e-07
4.1454e-07
7.17394e-07
3.81462e-07
1.2139e-06
-4.80035e-08
6.88508e-07
-1.34183e-07
8.66463e-07
-1.69447e-07
1.04467e-06
-1.5298e-07
1.21238e-06
-7.64184e-08
1.3502e-06
4.87046e-08
1.45263e-06
2.0421e-07
1.52183e-06
3.74105e-07
1.56069e-06
5.5416e-07
1.5744e-06
7.54162e-07
1.57039e-06
9.62889e-07
1.55351e-06
1.1589e-06
1.5318e-06
1.35327e-06
1.52369e-06
1.57707e-06
1.52138e-06
1.7918e-06
1.53774e-06
2.04716e-06
1.60413e-06
2.39263e-06
1.70505e-06
2.75717e-06
1.79705e-06
3.07464e-06
1.84037e-06
3.27879e-06
1.80226e-06
3.35325e-06
1.68702e-06
3.35731e-06
1.54193e-06
3.36867e-06
1.40041e-06
3.41612e-06
1.26539e-06
3.49571e-06
1.12674e-06
3.59966e-06
9.76317e-07
3.72564e-06
8.06207e-07