/*--------------------------------*- C++ -*----------------------------------*\
  =========                 |
  \\      /  F ield         | OpenFOAM: The Open Source CFD Toolbox
   \\    /   O peration     | Website:  https://openfoam.org
    \\  /    A nd           | Version:  dev
     \\/     M anipulation  |
\*---------------------------------------------------------------------------*/
FoamFile
{
    version     2.0;
    format      ascii;
    class       volScalarField;
    location    "2500";
    object      qr;
}
// * * * * * * * * * * * * * * * * * * * * * * * * * * * * * * * * * * * * * //

dimensions      [1 0 -3 0 0 0 0];

internalField   uniform 0;

boundaryField
{
    lowerOutlet
    {
        type            calculated;
        value           nonuniform List<scalar> 
140
(
1134.04
1137.78
1141.94
1146.47
1151.41
1156.74
1162.48
1168.65
1175.26
1182.32
1189.86
1197.9
1206.46
1215.57
1225.28
1235.61
1246.62
1258.35
1270.87
1284.24
1298.54
1313.87
1330.32
1348.04
1367.19
1387.94
1410.49
1435.06
1461.96
1491.53
1524.21
1560.54
1601.25
1647.36
1686.46
1743.46
1809.15
1885.51
1975.18
2082.67
2217.42
2330.78
2792.43
3031.4
3264.45
3981.29
4796.25
5448.79
-7405.15
3288.65
2873.69
2587.33
2348.57
2186.26
2056.81
1951.11
1863.67
1790.27
1727.55
1673.28
1625.92
1584.2
1537.85
1505.2
1475.82
1449.11
1424.67
1402.19
1381.43
1362.19
1344.29
1327.6
1312.01
1297.43
1283.74
1270.87
1258.74
1247.3
1236.51
1226.31
1216.67
1207.56
1198.94
1190.8
1183.1
1175.83
1168.97
1162.5
1156.41
1150.69
1145.32
1140.3
1135.63
1131.29
1127.27
1123.62
2026.27
2145.72
2284.59
2552.33
2908.61
3031.93
3859.53
4489.01
5329.91
4655.83
3430.26
2961.6
2650.56
2421.5
2262.53
2118.09
2001.44
1905.36
1825.46
1757.72
1928.48
3549.45
4129.39
4986.42
5838.76
3800.46
3166.4
2792.99
2528.38
1699.46
3749.37
4149.71
5158.5
6066.92
3598.59
3058.41
2718.82
2473.2
1713.98
1775.1
1845.86
1648.82
1604.43
1565.12
)
;
    }
    top
    {
        type            calculated;
        value           nonuniform List<scalar> 
100
(
1040.17
1043.18
1046.26
1049.31
1052.34
1055.35
1058.32
1061.27
1064.2
1067.09
1069.95
1072.78
1075.57
1066.82
1068.34
1070.07
1072.26
1074.66
1077.09
1079.38
1081.49
1083.22
1084.83
1086.23
1087.31
1088.32
1089.34
1090.35
1091.17
1090.51
1082.47
1061.44
1036.81
1020.71
1020.06
1029.87
1043.63
1056.67
1069.85
1085
1102.82
1117.87
1123.8
1125.82
1127.04
1128
1128.83
1129.53
1130.12
1130.6
1130.99
1131.22
1131.36
1131.4
1131.31
1131.18
1130.89
1130.56
1130.11
1129.58
1128.94
1128.21
1127.36
1126.38
1125.32
1124.04
1122.78
1121.18
1119.47
1117.7
1115.82
1113.95
1112.04
1110.32
1108.72
1107.95
1117.36
1114.7
1111.97
1109.2
1106.37
1103.49
1100.57
1097.61
1094.61
1091.58
1088.53
1082.33
1078.41
1074.19
1069.87
1065.7
1061.6
1057.79
1054.49
1051.69
1049.37
1047.51
1046.27
1047.87
)
;
    }
    sides
    {
        type            calculated;
        value           nonuniform List<scalar> 
100
(
1134.06
1137.08
1139.75
1142.05
1143.98
1145.56
1146.78
1147.67
1148.22
1148.46
1148.38
1148.01
1147.36
1146.44
1145.26
1143.85
1142.21
1140.37
1138.33
1136.12
1133.74
1131.21
1128.55
1125.76
1122.86
1119.87
1116.79
1113.63
1110.41
1107.14
1103.82
1100.46
1097.07
1093.66
1090.23
1086.8
1083.36
1079.92
1076.49
1073.07
1069.67
1066.29
1062.92
1059.59
1056.27
1052.99
1049.74
1046.52
1043.32
1040.22
1123.64
1126.68
1129.43
1131.86
1133.97
1135.78
1137.29
1138.51
1139.43
1140.07
1140.45
1140.55
1140.41
1140.02
1139.4
1138.56
1137.5
1136.25
1134.81
1133.2
1131.42
1129.49
1127.42
1125.21
1122.89
1120.45
1117.92
1115.29
1112.58
1109.8
1106.95
1104.04
1101.08
1098.08
1095.04
1091.97
1088.87
1085.75
1082.61
1079.46
1076.3
1073.13
1069.96
1066.79
1063.62
1060.44
1057.27
1054.11
1050.97
1047.89
)
;
    }
    front
    {
        type            empty;
    }
    back
    {
        type            empty;
    }
    roller
    {
        type            calculated;
        value           nonuniform List<scalar> 
144
(
4774.1
3631.63
2098.05
2534.62
1717
1484.7
1510.97
1292.28
1289.65
1293.21
3685.11
4530.15
3906.39
3065.89
2286.98
1855.13
1538.46
1384.71
1364.66
1339.77
1332.46
1304.08
1301.36
1300.07
1302.54
6767.31
6898.86
6979.65
6880.37
6265.82
3370.16
3330.18
2544.9
2444.56
1685.88
1471.21
1487.91
1394.52
1382.06
1370.13
1316.42
1291.05
1289.98
6599.62
7014.04
6984.46
6513.99
6722.13
4222.77
4295.3
3496.25
3177.52
2725.51
2352.17
1811.61
1560.82
1448.41
1427.37
1397.76
1346.76
1333.45
1327.59
1299.02
1297.95
1313.45
2962.25
2227.8
1612.75
1540.72
1618.44
1321.66
1317.49
5628.4
5321.69
5856.3
5240.96
4945.94
3851.26
2732.23
2906.05
2171.63
2258
1742.22
2021.59
1633.51
1967.7
1817.41
1556.84
1772.81
1659.79
1500.13
1451.91
1439.05
1326.11
1321.1
1293.85
1296.3
1289.72
1291.79
1295.44
5043.17
4559.23
2389.72
2012.95
2630.14
2153.77
1593.04
1525.99
1584.3
1466.86
1411.06
1345.75
1354.6
1337.78
1312.12
6070.26
6341.19
5897.33
5525.55
4029.67
3087.77
2829.45
1902.16
1954.28
1770.54
2077.38
1655.4
1915.54
1865.32
1574.37
1731.71
1694.11
1512.54
1461.59
1430.81
1405.28
1415.88
1373.51
1357.61
1308.02
1290.19
1290.71
1309.72
1306.04
)
;
    }
    burner
    {
        type            calculated;
        value           nonuniform List<scalar> 
16
(
-125429
-119655
-116839
-117819
-120813
-117259
-117061
-124271
-123846
-118676
-116638
-119095
-122185
-117876
-116695
-121099
)
;
    }
}


// ************************************************************************* //
