/*--------------------------------*- C++ -*----------------------------------*\
  =========                 |
  \\      /  F ield         | OpenFOAM: The Open Source CFD Toolbox
   \\    /   O peration     | Website:  https://openfoam.org
    \\  /    A nd           | Version:  dev
     \\/     M anipulation  |
\*---------------------------------------------------------------------------*/
FoamFile
{
    version     2.0;
    format      ascii;
    class       volScalarField;
    location    "2500";
    object      rAU;
}
// * * * * * * * * * * * * * * * * * * * * * * * * * * * * * * * * * * * * * //

dimensions      [-1 3 1 0 0 0 0];

internalField   nonuniform List<scalar> 
9978
(
0.0082112
0.0082805
0.00822859
0.00826497
0.00839947
0.00816347
0.00824076
0.00839334
0.00840537
0.00811053
0.00821947
0.00839098
0.00839155
0.00841777
0.00806137
0.00820504
0.00839289
0.00838375
0.0084026
0.00842634
0.00801793
0.0081933
0.0083993
0.00838275
0.00838881
0.00841681
0.00843029
0.00797878
0.00818495
0.00840616
0.00838635
0.00838094
0.00840338
0.00842655
0.00843241
0.00794381
0.00817723
0.00841162
0.00839415
0.00837585
0.00839027
0.00841772
0.00843118
0.00843324
0.0079122
0.00817123
0.00841546
0.00840507
0.0083762
0.00838002
0.00840615
0.00842677
0.00843346
0.00843373
0.0078833
0.00816787
0.00841706
0.00841511
0.00838011
0.00837429
0.00839386
0.00842001
0.00843184
0.00843453
0.00843378
0.00785683
0.00816745
0.00841903
0.00842281
0.00838909
0.0083711
0.00838228
0.00840981
0.00842824
0.00843438
0.00843539
0.008434
0.0078326
0.00816738
0.0084219
0.00842847
0.00840063
0.00837199
0.00837412
0.00839815
0.00842186
0.00843295
0.00843568
0.00843594
0.00843426
0.00781048
0.00816476
0.00842455
0.0084324
0.00841198
0.00837669
0.0083697
0.00838613
0.00841346
0.00842942
0.00843518
0.00843655
0.00843631
0.00843429
0.00779029
0.00815981
0.00842557
0.00843462
0.00842028
0.00838542
0.0083672
0.00837631
0.0084031
0.00842429
0.00843337
0.00843688
0.0084373
0.00843678
0.00843424
0.00777191
0.00815442
0.00842519
0.00843584
0.00842679
0.00839707
0.00836807
0.0083694
0.00839102
0.00841708
0.00843064
0.00843593
0.00843777
0.00843782
0.00843705
0.00843427
0.00775549
0.00814973
0.00842468
0.00843682
0.00843105
0.00840855
0.00837327
0.00836478
0.00837985
0.00840812
0.00842628
0.00843402
0.00843748
0.00843846
0.00843832
0.00843738
0.0084341
0.00774087
0.00814404
0.00842495
0.00843705
0.00843279
0.00841759
0.00838314
0.0083627
0.00837046
0.00839676
0.00842101
0.00843161
0.00843643
0.00843843
0.00843911
0.00843871
0.00843762
0.00843403
0.00772824
0.00813831
0.00842527
0.00843717
0.0084342
0.00842419
0.00839579
0.00836489
0.00836375
0.0083839
0.0084126
0.00842845
0.00843485
0.00843794
0.00843901
0.0084395
0.00843913
0.00843776
0.00843402
0.00771765
0.00813251
0.0084264
0.0084376
0.00843541
0.00842786
0.00840724
0.00837166
0.00835998
0.00837237
0.00840135
0.00842396
0.00843288
0.00843705
0.00843912
0.00843972
0.00844
0.00843958
0.00843771
0.00843389
0.00770906
0.0081244
0.00842761
0.00843749
0.00843571
0.00842976
0.00841581
0.00838276
0.00835972
0.00836382
0.0083881
0.00841584
0.00843077
0.00843593
0.0084387
0.00843959
0.00844011
0.00844053
0.00843986
0.00843777
0.00843365
0.00755846
0.00811478
0.00842814
0.00843724
0.00843605
0.00843176
0.00842117
0.00839539
0.008363
0.00835904
0.00837535
0.00840494
0.00842578
0.00843457
0.008438
0.00843967
0.00844022
0.00844061
0.00844096
0.00843994
0.00843802
0.00823969
0.00769689
0.00810558
0.008428
0.00843721
0.00843661
0.0084329
0.00842452
0.00840694
0.0083709
0.00835607
0.00836541
0.0083923
0.0084183
0.00843162
0.00843702
0.00843962
0.0084405
0.0084407
0.00844106
0.00844124
0.00844019
0.00841059
0.0084316
0.00769855
0.00809627
0.00842866
0.00843722
0.00843665
0.0084339
0.00842723
0.00841511
0.00838351
0.00835651
0.00835815
0.00837942
0.00840847
0.00842742
0.00843503
0.00843894
0.00844059
0.00844102
0.00844109
0.00844145
0.00844153
0.00844028
0.00843811
0.00843338
0.00770091
0.00808618
0.00842986
0.0084372
0.00843663
0.00843451
0.00842904
0.00841996
0.00839624
0.00836158
0.00835354
0.0083675
0.00839691
0.00842093
0.00843218
0.00843725
0.00844054
0.00844147
0.00844147
0.00844148
0.0084417
0.00844177
0.00844038
0.00843806
0.00843333
0.00770733
0.00807734
0.00843161
0.00843696
0.00843668
0.00843472
0.00843046
0.00842339
0.00840675
0.00837189
0.00835176
0.0083578
0.0083836
0.00841241
0.00842845
0.00843524
0.00843901
0.00844161
0.00844223
0.00844173
0.00844176
0.00844194
0.00844187
0.00844036
0.00843799
0.00843342
0.00771753
0.00806473
0.00843468
0.00843692
0.00843682
0.00843484
0.00843165
0.0084259
0.0084144
0.00838547
0.0083539
0.00835171
0.00836985
0.00840104
0.0084228
0.00843264
0.00843728
0.00844038
0.00844256
0.00844265
0.00844214
0.00844195
0.00844202
0.00844183
0.00844035
0.0084381
0.00843331
0.0077317
0.00805176
0.00843451
0.00843692
0.00843663
0.00843517
0.00843253
0.00842721
0.00841883
0.00839785
0.00836135
0.0083481
0.00835853
0.00838741
0.0084153
0.00842964
0.00843531
0.0084385
0.00844145
0.00844331
0.00844305
0.00844237
0.00844202
0.00844194
0.00844173
0.0084403
0.00843772
0.00843308
0.0077501
0.00803868
0.00843455
0.00843706
0.00843674
0.00843572
0.00843315
0.00842893
0.00842186
0.0084078
0.00837397
0.0083482
0.00835038
0.00837305
0.00840444
0.00842511
0.00843312
0.00843702
0.00843988
0.00844243
0.00844378
0.0084433
0.00844246
0.00844193
0.00844177
0.00844165
0.00843977
0.0084372
0.00843272
0.00777286
0.00802564
0.00843438
0.00843706
0.00843662
0.00843599
0.00843368
0.00843013
0.00842439
0.00841396
0.0083882
0.00835252
0.00834552
0.00835999
0.00839121
0.00841777
0.00843111
0.00843555
0.00843824
0.00844087
0.00844288
0.00844414
0.00844351
0.00844237
0.0084417
0.00844155
0.00844102
0.00843882
0.00843628
0.00843202
0.00780003
0.00801251
0.008434
0.00843714
0.00843662
0.00843607
0.00843432
0.00843137
0.00842629
0.00841827
0.00840089
0.00836237
0.00834306
0.00834989
0.00837688
0.00840762
0.00842695
0.00843452
0.00843727
0.00843935
0.00844153
0.00844341
0.00844424
0.00844347
0.0084421
0.00844135
0.00844085
0.00843992
0.00843719
0.00843488
0.00843089
0.00783088
0.00799985
0.00843412
0.00843725
0.00843675
0.00843608
0.00843446
0.00843239
0.00842793
0.008421
0.0084095
0.00837743
0.00834483
0.00834341
0.00836234
0.00839509
0.00842001
0.00843253
0.00843662
0.00843847
0.00844018
0.00844183
0.00844369
0.00844442
0.00844313
0.00844162
0.00844056
0.00843971
0.0084382
0.00843501
0.00843293
0.00842975
0.00786412
0.00798767
0.00843404
0.00843724
0.00843685
0.00843639
0.00843505
0.00843276
0.00842937
0.00842328
0.00841519
0.00839198
0.00835236
0.00833913
0.00835044
0.00838092
0.00841047
0.00842799
0.00843517
0.00843785
0.00843932
0.0084405
0.00844206
0.00844363
0.00844418
0.00844259
0.00844063
0.00843914
0.00843812
0.00843589
0.00843338
0.00843313
0.00843163
0.00789834
0.0079764
0.00843406
0.00843747
0.00843723
0.00843661
0.00843531
0.00843352
0.00843062
0.00842498
0.00841827
0.0084035
0.00836529
0.00833897
0.00834156
0.0083658
0.00839916
0.00842197
0.00843241
0.0084372
0.00843903
0.00844009
0.00844072
0.00844183
0.00844297
0.00844347
0.00844156
0.00843901
0.00843727
0.00843712
0.0084367
0.00843834
0.00844072
0.0084239
0.00795129
0.00796605
0.0084339
0.00843761
0.0084375
0.00843682
0.00843559
0.00843402
0.00843151
0.00842645
0.00842014
0.00841081
0.0083817
0.00834304
0.00833635
0.00835178
0.00838503
0.00841381
0.00842911
0.00843526
0.00843822
0.00844013
0.00844077
0.00844042
0.00844131
0.00844227
0.0084424
0.00843976
0.00843801
0.00843849
0.00844384
0.00844774
0.00845017
0.00843189
0.00828364
0.00819741
0.0072348
0.00825674
0.0081653
0.0079573
0.00843407
0.00843786
0.0084378
0.00843712
0.0084361
0.0084348
0.00843251
0.00842808
0.00842235
0.00841544
0.00839594
0.00835336
0.00833345
0.00834082
0.00837003
0.00840299
0.00842393
0.00843299
0.00843685
0.00843896
0.00844042
0.00844065
0.00843986
0.00844037
0.00844107
0.00844135
0.00844048
0.00844459
0.0084505
0.00845727
0.00843351
0.00847347
0.00820813
0.00822278
0.00818558
0.00723179
0.00816544
0.00813964
0.00794935
0.008434
0.00843812
0.0084381
0.0084377
0.00843677
0.00843529
0.00843313
0.00842952
0.00842403
0.00841816
0.0084058
0.00836963
0.00833517
0.00833355
0.00835413
0.00838981
0.00841684
0.00843005
0.00843514
0.00843765
0.00843916
0.00844039
0.00843995
0.00843871
0.0084392
0.00844075
0.00844625
0.00845161
0.00845777
0.00846386
0.00843631
0.00833551
0.00824131
0.00823772
0.00836072
0.00825168
0.00820863
0.00823464
0.00819372
0.00724108
0.00816053
0.00814276
0.00794194
0.00843325
0.00843859
0.00843839
0.00843822
0.00843714
0.00843572
0.00843402
0.00843071
0.00842552
0.00841961
0.00841218
0.00838634
0.00834234
0.00832888
0.0083415
0.00837447
0.00840678
0.00842584
0.00843352
0.00843642
0.00843786
0.00843911
0.00844033
0.00843892
0.00843761
0.00844049
0.00844981
0.00845795
0.00846313
0.00846705
0.00843195
0.0082457
0.00824353
0.00827638
0.00825549
0.00827924
0.00827182
0.00822283
0.0082498
0.00819333
0.00714622
0.00816558
0.00802414
0.00793567
0.00843024
0.00843874
0.00843865
0.00843869
0.00843788
0.00843633
0.00843477
0.00843184
0.00842715
0.00842155
0.00841603
0.00839934
0.00835613
0.00832828
0.00833156
0.00835853
0.00839447
0.00841923
0.00843106
0.00843524
0.00843695
0.00843785
0.00843851
0.00843894
0.00843867
0.008441
0.0084518
0.00846033
0.00846388
0.00846157
0.00841188
0.00822073
0.0081795
0.0082777
0.00824907
0.00828129
0.00826923
0.00827302
0.00827058
0.00823204
0.00826238
0.00820422
0.00714808
0.00816856
0.00804093
0.00792179
0.00842613
0.00843912
0.00843925
0.00843898
0.00843834
0.00843685
0.0084354
0.0084329
0.00842821
0.00842304
0.00841881
0.00840824
0.0083746
0.00833211
0.00832599
0.00834281
0.00837963
0.00841081
0.00842733
0.00843381
0.00843618
0.008437
0.00843707
0.00843727
0.00843819
0.00844418
0.00845249
0.00846014
0.00845741
0.00844728
0.00837717
0.00811767
0.00807061
0.00819761
0.0081506
0.00824701
0.00818676
0.00824382
0.00826939
0.00811358
0.00813971
0.00824753
0.00826967
0.00823441
0.00730284
0.00819432
0.00829104
0.00787439
0.00840794
0.00843934
0.00843969
0.00843956
0.00843916
0.00843763
0.00843595
0.00843338
0.00842935
0.00842433
0.00842041
0.00841392
0.00839087
0.00834266
0.00832192
0.0083313
0.00836325
0.00839905
0.00842207
0.00843179
0.00843522
0.00843656
0.00843644
0.0084359
0.00843622
0.00844487
0.00845473
0.00845536
0.00844702
0.00842318
0.00833575
0.00799153
0.00789538
0.00808819
0.00799324
0.00813534
0.00805911
0.00819067
0.00812893
0.00819382
0.0081771
0.00807042
0.0081038
0.00826816
0.0082473
0.00828075
0.0072904
0.00831538
0.00836077
0.00789585
0.00833685
0.00843774
0.0084399
0.00843976
0.00843941
0.00843842
0.00843672
0.00843444
0.0084304
0.00842514
0.00842144
0.00841703
0.0084029
0.00835961
0.00832347
0.00832249
0.00834633
0.00838518
0.00841417
0.00842884
0.00843426
0.00843592
0.00843619
0.0084354
0.00843464
0.00844242
0.0084563
0.00845409
0.00842686
0.00840177
0.00829162
0.00778077
0.00766125
0.0078666
0.00772604
0.00793722
0.00778011
0.00803221
0.00787983
0.00813082
0.00801194
0.00813226
0.00814372
0.0081159
0.00810968
0.00827173
0.00817741
0.00830923
0.00718816
0.00836412
0.00838035
0.00798226
0.00834335
0.0084231
0.00843993
0.00844009
0.00843985
0.00843904
0.00843733
0.00843524
0.00843121
0.00842645
0.00842257
0.00841901
0.00841002
0.00837924
0.00832979
0.00831789
0.00833158
0.00836868
0.00840381
0.00842431
0.00843258
0.00843538
0.0084358
0.00843529
0.00843374
0.00843911
0.00845404
0.00845465
0.0084171
0.00837657
0.00825187
0.00754283
0.00743826
0.00758289
0.00745099
0.00762272
0.00748852
0.00770663
0.00754743
0.00783441
0.00765037
0.00800393
0.00780965
0.0079789
0.00811199
0.00797224
0.00798561
0.00824922
0.00813162
0.00830837
0.0069543
0.0083625
0.00820441
0.00800796
0.00842886
0.00841958
0.00843961
0.0084401
0.00844012
0.00843938
0.00843803
0.00843543
0.00843206
0.00842745
0.00842313
0.00842008
0.00841488
0.00839415
0.00834343
0.00831508
0.00832106
0.00835136
0.00839063
0.00841745
0.00843002
0.00843452
0.00843561
0.00843519
0.00843349
0.00843541
0.00845073
0.00845361
0.00841452
0.00836179
0.0082243
0.00733674
0.00725399
0.00734567
0.00726222
0.00738069
0.00724634
0.00743191
0.00730137
0.00750933
0.00740103
0.00762158
0.00749348
0.00780577
0.00762146
0.00780697
0.00803564
0.00782606
0.0078582
0.00818667
0.00805832
0.00824463
0.00684361
0.0082448
0.00826001
0.00804281
0.00843179
0.00843279
0.0084386
0.00843967
0.00844013
0.00843972
0.00843854
0.00843594
0.00843297
0.00842866
0.0084238
0.00842106
0.0084182
0.00840469
0.00836249
0.00831876
0.00831382
0.00833428
0.00837489
0.00840828
0.00842626
0.00843314
0.0084353
0.00843504
0.00843364
0.00843268
0.00844623
0.00845211
0.00841595
0.00835043
0.00820927
0.00719512
0.00715355
0.00714409
0.00703391
0.00710849
0.00699345
0.00714275
0.00712196
0.00723072
0.00730035
0.0073507
0.00739462
0.00750345
0.00736417
0.00763627
0.00748956
0.00764838
0.00789969
0.00766878
0.00768042
0.00808986
0.00793714
0.00815318
0.00695583
0.00815667
0.00828398
0.00808746
0.0084292
0.00843409
0.00843636
0.00843835
0.00843956
0.0084396
0.00843858
0.00843649
0.00843358
0.00843011
0.00842478
0.00842142
0.00842012
0.00841178
0.0083824
0.00832818
0.00831028
0.00832159
0.00835752
0.00839626
0.00842088
0.0084314
0.00843485
0.00843491
0.00843369
0.00843148
0.00844045
0.00845047
0.00841927
0.00834513
0.0082778
0.00712907
0.00675293
0.00696801
0.00692421
0.00692132
0.00700305
0.00712199
0.00701232
0.00716449
0.00718641
0.00725899
0.00737348
0.00737598
0.00743741
0.0073889
0.00740362
0.00749869
0.00749929
0.00749378
0.00773203
0.007486
0.0074624
0.00795948
0.00778757
0.00787562
0.00662678
0.00798149
0.00800968
0.00814183
0.00842383
0.00842705
0.00843038
0.00843436
0.00843734
0.00843857
0.00843824
0.00843657
0.00843399
0.00843133
0.00842629
0.00842119
0.00842079
0.00841652
0.00839642
0.008344
0.00830927
0.00831286
0.00834055
0.00838251
0.00841348
0.00842922
0.00843482
0.00843529
0.00843414
0.0084314
0.00843436
0.00844629
0.00842384
0.00834874
0.00825423
0.00785526
0.00687277
0.0065326
0.00698418
0.00695157
0.00698266
0.0071119
0.00724595
0.0071855
0.00730994
0.00722143
0.00738123
0.00675087
0.00747237
0.00692665
0.00743333
0.0074929
0.00751293
0.00759096
0.00750626
0.0076215
0.00750116
0.0074983
0.00783966
0.0076673
0.00765665
0.00568535
0.00783142
0.0075579
0.0082043
0.00841319
0.00841259
0.00841614
0.00842334
0.00843058
0.00843511
0.00843687
0.00843617
0.00843399
0.00843191
0.00842777
0.00842119
0.00842033
0.00841858
0.00840622
0.00836321
0.0083137
0.00830642
0.00832442
0.0083662
0.00840384
0.00842544
0.00843451
0.00843672
0.00843538
0.00843298
0.00843075
0.00844044
0.008425
0.00835535
0.00824608
0.0081662
0.00694308
0.00696867
0.00690138
0.00689527
0.0071189
0.00710225
0.00711594
0.00704872
0.0071245
0.00702023
0.00657041
0.00695385
0.00681072
0.00710184
0.00734871
0.00718496
0.0073511
0.0072118
0.00762202
0.00749382
0.00763914
0.00763422
0.00766569
0.0076884
0.00769867
0.00764393
0.00769676
0.00648821
0.00766597
0.00721098
0.00827406
0.00839947
0.00839078
0.00839128
0.00840055
0.00841401
0.00842579
0.00843275
0.00843456
0.00843357
0.00843194
0.00842882
0.00842137
0.00841855
0.00841849
0.00841151
0.00838135
0.00832257
0.00830177
0.00831158
0.00834788
0.00839027
0.00841889
0.00843237
0.00843721
0.00843712
0.00843487
0.00843123
0.00843508
0.00842674
0.00835991
0.0082445
0.00819148
0.00700354
0.00698814
0.00700204
0.00698669
0.00706829
0.00702708
0.00699517
0.00695197
0.006929
0.0068643
0.00693921
0.006862
0.00698599
0.00689686
0.00706414
0.00696224
0.00719689
0.00704322
0.00732953
0.0071987
0.00755598
0.00740702
0.00760385
0.00768734
0.00765892
0.00770473
0.00763369
0.00767737
0.00760204
0.00540314
0.00766523
0.00722877
0.00824737
0.00839709
0.00837584
0.00836545
0.00836824
0.00838417
0.00840484
0.00842229
0.00843027
0.00843203
0.00843134
0.00842929
0.00842248
0.00841639
0.00841723
0.00841341
0.00839406
0.00833773
0.00829961
0.00830214
0.00832891
0.00837402
0.00840921
0.0084283
0.00843594
0.00843776
0.0084362
0.00843258
0.00843182
0.00843238
0.00836824
0.00824831
0.00822493
0.00703239
0.00674939
0.00697965
0.00692987
0.0068179
0.00680014
0.00689847
0.00684788
0.00682455
0.0067833
0.00657297
0.00648219
0.00685531
0.00659866
0.00691367
0.00692448
0.00696473
0.00697183
0.00704688
0.00698871
0.00723229
0.00706735
0.00746204
0.00728887
0.0075253
0.00772355
0.00760496
0.00767539
0.00766546
0.0077409
0.00764417
0.00597568
0.00754089
0.00751676
0.00831438
0.00838488
0.00835898
0.00834657
0.00834883
0.0083712
0.00840092
0.00842138
0.00842913
0.00843054
0.00842943
0.00842427
0.00841562
0.00841475
0.00841318
0.00840104
0.00835563
0.00830364
0.00829555
0.00831267
0.00835552
0.00839691
0.00842234
0.00843386
0.00843708
0.00843659
0.00843345
0.00843045
0.00843248
0.0083793
0.00826029
0.00819374
0.00795155
0.00696141
0.00664858
0.00679736
0.00682385
0.00664932
0.00661864
0.00673151
0.00668545
0.00669384
0.00672884
0.00654508
0.00681442
0.00695978
0.00699499
0.0070253
0.00711658
0.00704675
0.00714551
0.00702584
0.00711699
0.007119
0.00706567
0.00735119
0.00719764
0.00744043
0.00773417
0.00754186
0.0076285
0.00776318
0.0078165
0.00758856
0.00469365
0.0075174
0.00721141
0.00830275
0.00838202
0.00835127
0.00833328
0.00833602
0.0083664
0.00840221
0.00842177
0.00842779
0.0084285
0.00842489
0.00841555
0.0084115
0.00841152
0.0084042
0.00837221
0.00831223
0.0082913
0.00830092
0.00833721
0.00838197
0.00841464
0.00843081
0.00843653
0.0084367
0.00843425
0.00843018
0.00843089
0.00838371
0.00826791
0.00816664
0.00819947
0.00697504
0.0066866
0.00683638
0.00684831
0.00660118
0.00660739
0.00659103
0.00654253
0.0066826
0.00663817
0.00690957
0.00689247
0.00706764
0.00714365
0.00725275
0.00728786
0.00729219
0.00737075
0.00728644
0.00738908
0.00717185
0.00735319
0.0071385
0.007218
0.00731165
0.00726514
0.00742461
0.00770502
0.00752878
0.00756358
0.00785419
0.00773472
0.00771524
0.00485269
0.00765946
0.00720568
0.00827426
0.00838794
0.00834832
0.00832445
0.00832981
0.00836885
0.0084055
0.00842243
0.00842674
0.0084249
0.0084165
0.00840924
0.00840845
0.00840429
0.00838336
0.00832442
0.00828912
0.00829223
0.00831934
0.00836568
0.00840405
0.00842643
0.00843574
0.00843697
0.00843529
0.00843093
0.0084299
0.00838838
0.00827124
0.00814715
0.00827094
0.00774492
0.00663257
0.00639599
0.00659993
0.00660347
0.0065052
0.00648679
0.00669746
0.00660779
0.00684292
0.00677863
0.00724128
0.00722702
0.00734825
0.00741295
0.00751548
0.00757973
0.00754487
0.00763827
0.00750828
0.00763534
0.00739834
0.00755919
0.00730142
0.00743875
0.00738635
0.00735621
0.00747501
0.00739234
0.00731864
0.00553932
0.0054117
0.00760126
0.00569093
0.00544206
0.00757275
0.00485479
0.0075646
0.00720757
0.00822921
0.00839454
0.00834495
0.00831665
0.00832943
0.00837591
0.00841134
0.00842282
0.00842419
0.00841744
0.00840763
0.00840538
0.00840246
0.00838821
0.0083374
0.00829073
0.00828554
0.0083037
0.00834755
0.00839097
0.00825911
0.00843386
0.00843738
0.00843611
0.00843262
0.00842993
0.0083969
0.00828568
0.00814723
0.00821544
0.00812888
0.00656717
0.00658888
0.00642574
0.00644786
0.00645209
0.0064259
0.00652825
0.00646609
0.00693586
0.00679453
0.00716622
0.00706525
0.00750351
0.00749458
0.0076274
0.00766221
0.00771418
0.0077448
0.00773107
0.00779259
0.00769787
0.0077965
0.00744599
0.00752648
0.00743264
0.00721948
0.00719141
0.00558507
0.00544295
0.00547011
0.00564389
0.00533196
0.00537659
0.00556737
0.00557482
0.00573999
0.00537598
0.00533309
0.00574486
0.00555374
0.00535465
0.00515196
0.00545866
0.00578878
0.00573703
0.00485108
0.00578816
0.00565119
0.00558002
0.00577932
0.00504185
0.0058343
0.00818385
0.0083919
0.0083323
0.00830762
0.00833633
0.00838967
0.00841565
0.00842187
0.00841805
0.00840634
0.00840218
0.00839955
0.00838884
0.00834797
0.00829472
0.00828013
0.00821445
0.00805374
0.00820768
0.00824554
0.00823511
0.00843773
0.00843707
0.0084344
0.00843139
0.00841087
0.00830931
0.00818124
0.00816571
0.00810517
0.00659818
0.00630437
0.00631287
0.00635595
0.0063023
0.0062959
0.00639265
0.00633352
0.00666157
0.00654509
0.00720379
0.00702797
0.00745152
0.00735454
0.00765653
0.00763197
0.00777444
0.00780759
0.0077979
0.00781346
0.00784729
0.00781823
0.00756915
0.00756957
0.00559291
0.00571734
0.0056933
0.00566713
0.00566188
0.00574446
0.00555122
0.00583019
0.00580315
0.00539915
0.00566181
0.00574198
0.00549021
0.00545995
0.00533091
0.00516332
0.00528977
0.0053495
0.00546811
0.00546512
0.00534416
0.00527789
0.00520436
0.00518777
0.00542032
0.00547529
0.00195269
0.0041155
0.00507967
0.005497
0.00542061
0.00500627
0.00564137
0.0081347
0.00836511
0.00831502
0.00830309
0.00835183
0.00840188
0.00841702
0.00841756
0.00840586
0.00839824
0.00839605
0.00838731
0.00835455
0.00829896
0.00827522
0.00820525
0.00776152
0.00810607
0.00823096
0.00819282
0.00840126
0.00843834
0.00843608
0.00843284
0.00843249
0.00833177
0.00822622
0.00813292
0.0078803
0.00769001
0.00642388
0.00622924
0.00621168
0.00622208
0.00626182
0.00622394
0.00642611
0.00632834
0.00684685
0.00667774
0.00739353
0.0072251
0.00760433
0.00753341
0.00778201
0.00773506
0.00785451
0.00783342
0.00772928
0.00777848
0.00754855
0.00717923
0.00563683
0.00561328
0.00557566
0.00554606
0.00568495
0.00568078
0.00567383
0.00555764
0.00565523
0.0057118
0.00575575
0.00572449
0.00552846
0.00550476
0.00552447
0.00557402
0.00551206
0.00533542
0.00526884
0.00533949
0.00543557
0.00550384
0.00552742
0.00541527
0.00525194
0.00534645
0.00530294
0.0054306
0.00536153
0.0035583
0.00466582
0.00588007
0.00544131
0.00508903
0.00560479
0.00604771
0.0080783
0.00831613
0.00829099
0.00830974
0.00836288
0.00840817
0.00841519
0.00840666
0.00839391
0.00839201
0.00838489
0.00835827
0.00830256
0.00827139
0.00827416
0.00793517
0.00802152
0.0078933
0.00838921
0.00834377
0.00843892
0.0084377
0.00843464
0.00843333
0.00835944
0.00822865
0.00812122
0.00791268
0.00781204
0.00644489
0.00646938
0.00624839
0.00628482
0.00618363
0.00615438
0.00629198
0.00622688
0.00651881
0.00638851
0.00704292
0.00684499
0.00742316
0.00742986
0.00768759
0.00751164
0.00778698
0.00774644
0.00785974
0.00782141
0.00716233
0.00788987
0.00545582
0.00542093
0.00496028
0.00495546
0.0056809
0.00567983
0.00567143
0.00565707
0.00572655
0.00572548
0.00572207
0.00568051
0.00575678
0.00576522
0.00582297
0.0058
0.00557947
0.00559955
0.00560418
0.00569118
0.00559572
0.0053976
0.00537698
0.00542089
0.00550802
0.00558155
0.00559415
0.00548135
0.00536333
0.00541886
0.00540943
0.00534417
0.00532082
0.002687
0.00599534
0.00530937
0.0054692
0.00561989
0.00561847
0.00641703
0.00802991
0.0082617
0.00827874
0.00831881
0.00835449
0.00840906
0.00840691
0.00839055
0.00838689
0.00838209
0.00835985
0.00813306
0.008243
0.00826703
0.00821153
0.00809079
0.00773829
0.00825554
0.00839475
0.00841567
0.00843819
0.00843533
0.00843278
0.00837188
0.00823193
0.00810254
0.00800952
0.00804509
0.00768303
0.00617038
0.00612322
0.00613802
0.00614256
0.00620335
0.0061365
0.00637612
0.00628142
0.00665991
0.0065018
0.0073002
0.00712718
0.00762032
0.00758914
0.00772213
0.00769917
0.00777036
0.00773821
0.00786052
0.00780159
0.00496524
0.00525402
0.00759571
0.00563735
0.0056143
0.00554485
0.00540524
0.00573274
0.00573127
0.00572017
0.00570259
0.0057834
0.00578741
0.00578715
0.00578819
0.00584345
0.00583413
0.00590309
0.00587788
0.00568881
0.00564674
0.00570743
0.00580511
0.00564005
0.00545793
0.00544797
0.00547756
0.00555458
0.00564302
0.00557206
0.00550895
0.00543895
0.00540204
0.00546417
0.00523962
0.00532017
0.00382917
0.00611353
0.0059734
0.00547568
0.00557819
0.00589494
0.00629693
0.00798489
0.00826067
0.0082811
0.00830219
0.00830485
0.00828455
0.00838676
0.00837946
0.00837771
0.00835937
0.008109
0.00817947
0.0082581
0.0082721
0.00815113
0.00799866
0.00806939
0.00841955
0.00842512
0.00843544
0.00843482
0.00843147
0.00839153
0.00825005
0.00811091
0.00815378
0.00773377
0.0079153
0.00639535
0.00629998
0.00608681
0.00611508
0.00609008
0.00607367
0.0062727
0.00617289
0.00654387
0.00639483
0.00692751
0.00672539
0.00756724
0.0074058
0.00781698
0.00776753
0.00773831
0.00777994
0.00758407
0.00757229
0.00748722
0.00722927
0.00544353
0.00598099
0.00539947
0.00531891
0.00567767
0.00562362
0.00534282
0.00468389
0.00579837
0.00579467
0.00577978
0.0057566
0.00585921
0.00586636
0.00586723
0.00588118
0.00592788
0.00592165
0.00600162
0.00596852
0.00580996
0.00571769
0.00583534
0.00590901
0.0056996
0.00548936
0.00547673
0.00548423
0.00541964
0.00559399
0.00540359
0.00529786
0.00545438
0.00532484
0.00547696
0.00521336
0.00532268
0.00431189
0.00625898
0.00628562
0.00546238
0.00541586
0.00587994
0.00608213
0.00796248
0.0082499
0.00827968
0.00822787
0.00815437
0.00822874
0.00836705
0.00836982
0.00835629
0.00827827
0.00819696
0.00824616
0.0082589
0.00824136
0.00812685
0.00814147
0.0084065
0.00842125
0.00842869
0.00843141
0.0084297
0.00841435
0.00828772
0.00814677
0.00811224
0.0075889
0.00775607
0.00774773
0.00605045
0.00602738
0.00606143
0.00605473
0.00610464
0.00607351
0.00648662
0.00632297
0.00685211
0.00666953
0.00721502
0.0070296
0.00773157
0.00762804
0.00799242
0.00796536
0.00777687
0.0078987
0.00689775
0.0071384
0.00549136
0.00550641
0.00606612
0.00554428
0.00477632
0.00538181
0.00530824
0.00523322
0.00560708
0.00545176
0.00509748
0.00441034
0.00587766
0.00587084
0.00584567
0.00563784
0.00595264
0.00596115
0.00596249
0.00597007
0.00602327
0.00602739
0.00611928
0.00607702
0.00592973
0.00582309
0.00596119
0.00600735
0.00568926
0.00528152
0.00547097
0.00526289
0.00524633
0.00551622
0.00530846
0.00511494
0.0054152
0.00526887
0.00544282
0.00522081
0.00532694
0.00395376
0.00627524
0.00604543
0.0054514
0.00541304
0.00575166
0.00585293
0.00799744
0.00822983
0.0082576
0.00818283
0.0080804
0.00834646
0.00835542
0.00835007
0.00830101
0.00824774
0.00823198
0.00824378
0.00827097
0.00823512
0.00828715
0.00838995
0.00840781
0.00841882
0.00842546
0.00842704
0.008423
0.008334
0.00817932
0.00809025
0.00751238
0.0072314
0.00795977
0.00623104
0.0060627
0.00599276
0.00598232
0.00607534
0.00602564
0.00620367
0.00613478
0.00679702
0.00663061
0.00713102
0.00696676
0.00744794
0.00728528
0.00791693
0.00780506
0.00814494
0.00814375
0.00785759
0.00802922
0.00654383
0.00679727
0.00543067
0.00560391
0.00519507
0.00563345
0.004543
0.00518129
0.00507451
0.00500918
0.00544893
0.00528128
0.0047768
0.00408517
0.00597214
0.00596185
0.0057285
0.00550521
0.00606336
0.00607286
0.00607403
0.00607178
0.00613832
0.0061524
0.00625579
0.00620333
0.00604019
0.00593528
0.0060823
0.00610973
0.00570359
0.00508289
0.00530533
0.00504038
0.00513866
0.00545789
0.0052421
0.00505226
0.00536221
0.00524926
0.00537451
0.00524653
0.00534496
0.00233328
0.00603119
0.006003
0.00547702
0.00558182
0.005698
0.00585381
0.00797843
0.00821889
0.0082434
0.00814326
0.00831059
0.00833072
0.00833847
0.00829797
0.00823971
0.00821764
0.00822775
0.00825205
0.00828002
0.0083063
0.00837134
0.00839214
0.00840736
0.00841841
0.00842386
0.00841704
0.00835644
0.00821224
0.00807138
0.00787216
0.00691598
0.00788404
0.00772929
0.00595636
0.00598088
0.00599567
0.00596512
0.0061605
0.00605775
0.00646791
0.00631181
0.00708764
0.0069478
0.00733073
0.00721012
0.00762387
0.00746137
0.007966
0.00783884
0.00819072
0.0081831
0.00774017
0.0081245
0.00477093
0.00487705
0.00604525
0.00625962
0.00518251
0.00534288
0.00568632
0.00552248
0.00430564
0.00497003
0.00486062
0.00480062
0.00530227
0.00512092
0.0046317
0.00389598
0.00608206
0.00587479
0.00562294
0.00538318
0.00619123
0.00619958
0.00619867
0.00619297
0.00627417
0.00629749
0.00641321
0.0063477
0.00616111
0.00594175
0.00619848
0.00623505
0.00570918
0.00494849
0.00506782
0.00488418
0.00509118
0.00541896
0.0051953
0.00499432
0.00532658
0.0052725
0.00516707
0.00529696
0.0053799
0.00359721
0.00531661
0.00646004
0.00551026
0.00564203
0.00575228
0.00527539
0.00821834
0.00821569
0.00822566
0.00825325
0.00829722
0.00831614
0.00829218
0.00823351
0.00820381
0.00821137
0.00823362
0.00827498
0.00830276
0.00835181
0.00837604
0.00839728
0.00831739
0.00838144
0.00838789
0.00837566
0.00784243
0.00807998
0.00814214
0.0074696
0.00782341
0.00803489
0.00616169
0.00592541
0.00596343
0.00594272
0.00609581
0.00601178
0.00639486
0.00622937
0.00677826
0.00658728
0.00730633
0.0071844
0.00746892
0.0073921
0.00772034
0.0075858
0.00802925
0.00729359
0.00818595
0.00816278
0.00654604
0.00735508
0.00817716
0.00518349
0.00574659
0.00628163
0.00658126
0.00495505
0.00510223
0.00515769
0.00527282
0.00408237
0.004768
0.00464623
0.00459715
0.00516498
0.00496858
0.00453991
0.00386589
0.00606749
0.00579391
0.00552495
0.00526947
0.0063347
0.00634072
0.00630844
0.00633814
0.00643278
0.00646686
0.006596
0.00651494
0.006297
0.00594938
0.0062251
0.006387
0.00569915
0.004862
0.00492114
0.00479157
0.00504678
0.00539375
0.00515181
0.00490042
0.0052802
0.00530638
0.00502694
0.00532744
0.00541079
0.00395252
0.00621988
0.00717523
0.00555563
0.00569495
0.00581676
0.00585703
0.00815878
0.0082065
0.00821802
0.00826032
0.00828355
0.00827825
0.00822747
0.00819207
0.00819474
0.00821566
0.00825535
0.00829834
0.0083339
0.00836067
0.00822133
0.00819584
0.0080521
0.00802665
0.00828571
0.00768618
0.00812409
0.00811814
0.00774373
0.00758995
0.0079998
0.00771008
0.00594626
0.00599522
0.0060518
0.00597832
0.00634125
0.00618202
0.00668856
0.00651431
0.00703069
0.0068608
0.00743493
0.00734094
0.00746578
0.00746874
0.00720907
0.0075741
0.00811732
0.00792601
0.00794563
0.00759977
0.00679384
0.00763742
0.00703999
0.00642783
0.00547572
0.00585545
0.00614408
0.00640825
0.00472503
0.00485107
0.00519158
0.00501346
0.00399621
0.0045719
0.00443366
0.00439952
0.0050368
0.00482457
0.00445803
0.00384797
0.00602071
0.0057284
0.00544108
0.00516881
0.00649996
0.0065067
0.00631091
0.00651045
0.00662188
0.00666181
0.00681381
0.00671759
0.00645334
0.00595509
0.00616911
0.00656921
0.00564485
0.00477992
0.00484405
0.00475477
0.00498343
0.00535038
0.00510108
0.00479967
0.00514411
0.00529518
0.004918
0.00532489
0.00546754
0.00570418
0.0070126
0.00745462
0.00562182
0.00575832
0.00587279
0.00614116
0.00810581
0.00818984
0.00821822
0.00824801
0.00825335
0.00821883
0.0081815
0.00817899
0.00819804
0.00823584
0.0082798
0.00831865
0.00834763
0.00823785
0.00803716
0.00786366
0.0076433
0.00803294
0.00805122
0.00811519
0.00810597