/*--------------------------------*- C++ -*----------------------------------*\
  =========                 |
  \\      /  F ield         | OpenFOAM: The Open Source CFD Toolbox
   \\    /   O peration     | Website:  https://openfoam.org
    \\  /    A nd           | Version:  dev
     \\/     M anipulation  |
\*---------------------------------------------------------------------------*/
FoamFile
{
    version     2.0;
    format      ascii;
    class       volScalarField;
    location    "2500";
    object      rDeltaT;
}
// * * * * * * * * * * * * * * * * * * * * * * * * * * * * * * * * * * * * * //

dimensions      [0 0 -1 0 0 0 0];

internalField   nonuniform List<scalar> 
9978
(
100
100
100
100
100
100
100
100
100
100
100
100
100
100
100
100
100
100
100
100
100
100
100
100
100
100
100
100
100
100
100
100
100
100
100
100
100
100
100
100
100
100
100
100
100
100
100
100
100
100
100
100
100
100
100
100
100
100
100
100
100
100
100
100
100
100
100
100
100
100
100
100
100
100
100
100
100
100
100
100
100
100
100
100
100
100
100
100
100
100
100
100
100
100
100
100
100
100
100
100
100
100
100
100
100
100
100
100
100
100
100
100
100
100
100
100
100
100
100
100
100
100
100
100
100
100
100
100
100
100
100
100
100
100
100
100
100
100
100
100
100
100
100
100
100
100
100
100
100
100
100
100
100
100
100
100
100
100
100
100
100
100
100
100
100
100
100
100
100
100
100
100
100
100
100
100
100
100
100
100
100
100
100
100
100
100
100
100
100
100
100
100
100
100
100
100
100
100
100
100
100
100
100
100
100
100
100
100
100
100
100
100
100
100
100
100
100
100
100
100
100
100
100
100
100
100
100
100
100
100
100
100
100
100
100
100
100
100
100
100
100
100
100
100
100
100
100
100
100
100
100
100
100
100
100
100
100
100
100
100
100
100
100
100
100
100
100
100
100
100
100
100
100
100
100
100
100
100
100
100
100
100
100
100
100
100
100
100
100
100
100
100
100
100
100
100
100
100
100
100
100
100
100
100
100
100
100
100
100
100
100
100
100
100
100
100
100
100
100
100
100
100
100
100
100
100
100
100
100
100
100
100
100
100
100
100
100
100
100
100
100
100
100
100
100
100
100
100
100
100
100
100
100
100
100
100
100
100
100
100
100
100
100
100
100
100
100
100
100
100
100
100
100
100
100
100
100
100
100
100
100
100
100
100
100
100
100
100
100
100
100
100
100
100
100
100
100
100
100
100
100
100
100
100
100
100
100
100
100
100
100
100
100
100
100
100
100
100
100
100
100
100
100
100
100
100
100
100
100
100
100
100
100
100
100
100
100
100
100
100
100
100
100
100
100
100
100
100
100
100
100
100
100
100
100
100
100
100
100
100
100
100
100
100
100
100
100
100
100
100
100
100
100
100
100
100
100
100
100
100
100
100
100
100
100
100
100
100
100
100
100
100
100
100
100
100
100
100
100
100
100
100
100
100
100
100
100
100
100
100
100
100
100
100
100
100
100
100
100
100
100
100
100
100
100
100
100
100
100
100
100
100
100
100
100
100
100
100
100
100
100
100
100
100
100
100
100
100
100
100
100
100
100
100
100
100
100
100
100
100
100
100
100
100
100
100
100
100
100
100
100
100
100
100
100
100
100
100
100
100
100
100
100
100
100
100
100
100
100
100
100
100
100
100
100
100
100
100
100
100
100
100
100
100
100
100
100
100
100
100
100
100
100
100
100
100
100
100
100
100
100
100
100
100
100
100
100
100
100
100
100
100
100
100
100
100
100
100
100
100
100
100
100
100
100
100
100
100
100
100
100
100
100
100
100
100
100
100
100
100
100
100
100
100
100
100
100
100
100
100
100
100
100
100
100
100
100
100
100
100
100
100
100
100
100
100
100
100
100
100
100
100
100
100
100
100
100
100
100
100
100
100
100
100
100
100
100
100
100
100
100
100
100
100
100
100
100
100
100
100
100
100
100
100
100
100
100
100
100
100
100
100
100
100
100
100
100
100
100
100
100
100
100
100
100
100
100
100
100
100
100
100
100
100
100
100
100
100
100
100
100
100
100
100
100
100
100
100
100
100
100
100
100
100
100
100
100
100
100
100
100
100
100
100
100
100
100
100
100
100
100
100
100
100
100
100
100
100
100
100
100
100
100
100
100
100
100
100
100
100
100
100
100
100
100
100
100
100
100
100
100
100
100
100
100
100
100
100
100
100
100
100
100
100
100
100
100
100
100
100
100
100
100
100
100
100
100
100
100
100
100
100
100
100
100
100
100
100
100
100
100
100
100
100
100
100
100
100
100
100
100
100
100
100
100
100
100
100
100
100
100
100
100
100
100
100
100
100
100
100
100
100
100
100
100
100
100
100
100
100
100
100
100
100
100
100
100
100
100
100
100
100
100
100
100
100
100
100
100
100
100
100
100
100
100
100
100
100
100
100
100
100
100
100
100
100
100
100
100
100
100
100
100
100
100
100
100
100
100
100
100
100
100
100
100
100
100
100
100
100
100
100
100
100
100
100
100
100
100
100
100
100
100
100
100
100
100
100
100
100
100
100
100
100
100
100
100
100
100
100
100
100
100
100
100
100
100
100
100
100
100
100
100
100
100
100
100
100
100
100
100
100
100
100
100
100
100
100
100
100
100
100
100
100
100
100
100
100
100
100
100
100
100
100
100
100
100
100
100
100
100
100
100
100
100
100
100
100
100
100
100
100
100
100
100
100
100
100
100
100
100
100
100
100
100
100
100
100
100
100
100
100
100
100
100
100
100
100
100
100
100
100
100
100
100
100
100
100
100
100
100
100
100
100
100
100
100
100
100
100
100
100
100
100
100
100
100
100
100
100
100
100
100
100
100
100
100
100
100
100
100
100
100
100
100
100
100
100
100
100
100
100
100
100
100
100
100
100
100
100
100
100
100
100
100
100
100
100
100
100
100
100
100
100
100
100
100
100
100
100
100
100
100
100
100
100
100
100
100
100
100
100
100
100
100
100
100
100
100
100
100
100
100
100
100
100
100
100
100
100
100
100
100
100
100
100
100
100
100
100
100
100
100
100
100
100
100
100
100
100
100
100
100
100
100
100
100
100
100
100
100
100
100
100
100
100
100
100
100
100
100
100
100
100
100
100
100
100
100
100
100
100
100
100
100
100
100
100
100
100
100
100
100
100
100
100
100
100
100
100
100
100
100
100
100
100
100
100
100
100
100
100
100
100
100
100
100
100
100
100
100
100
100
100
100
100
100
100
100
100
100
100
100
100
100
100
100
100
100
100
100
100
100
100
100
100
100
100
100
100
100
100
100
100
100
100
100
100
100
100
100
100
100
100
100
100
100
100
100
100
100
100
100
100
100
100
100
100
100
100
100
100
100
100
100
100
100
100
100
100
100
100
100
100
100
100
100
100
100
100
100
100
100
100
100
100
100
100
100
100
100
100
100
100
100
100
100
100
100
100
100
100
100
100
100
100
100
100
100
100
100
100
100
100
100
100
100
100
100
100
100
100
100
100
100
100
100
100
100
100
100
100
100
100
100
100
100
100
100
100
100
100
100
100
100
100
100
100
100
100
100
100
100
100
100
100
100
100
100
100
100
100
100
100
100
100
100
100
100
100
100
100
100
100
100
100
100
100
100
100
100
100
100
100
100
100
100
100
100
100
100
100
100
100
100
100
100
100
100
100
100
100
100
100
100
100
100
100
100
100
100
100
100
100
100
100
100
100
100
100
100
100
100
100
100
100
100
100
100
100
100
100
100
100
100
100
100
100
100
100
100
100
100
100
100
100
100
100
100
100
100
100
100
100
100
100
100
100
100
100
100
100
100
100
100
100
100
100
100
100
100
100
100
100
100
100
100
100
100
100
100
100
100
100
100
100
100
100
100
100
100
100
100
100
100
100
100
100
100
100
100
100
100
100
100
100
100
100
100
100
100
100
100
100
100
100
100
100
100
100
100
100
100
100
100
100
100
100
100
100
100
100
100
100
100
100
100
100
100
100
100
100
100
100
100
100
100
100
100
100
100
100
100
100
100
100
100
100
100
100
100
100
100
100
100
100
100
100
100
100
100
100
100
100
100
100
100
100
100
100
100
100
100
100
100
100
100
100
100
100
100
100
100
100
100
100
100
100
100
100
100
100
100
100
100
100
100
100
100
100
100
100
100
100
100
100
100
100
100
100
100
100
100
100
100
100
100
100
100
100
100
100
100
100
100
100
100
100
100
100
100
100
100
100
100
100
100
100
100
100
100
100
100
100
100
100
100
100
100
100
100
100
100
100
100
100
100
100
100
100
100
100
100
100
100
100
100
100
100
100
100
100
100
100
100
100
100
100
100
100
100
100
100
100
100
100
100
100
100
100
100
100
100
100
100
100
100
100
100
100
100
100
100
100
100
100
100
100
100
100
100
100
100
100
100
100
100
261.382
139.175
100
100
100
100
100
100
100
100
100
100
100
100
100
100
100
100
100
100
100
100
100
100
100
100
100
100
100
100
100
100
100
100
100
100
100
100
100
100
100
100
100
100
100
100
100
100
100
100
100
100
100
100
100
100
100
100
100
100
100
100
100
100
100
100
100
100
100
100
100
100
100
100
100
100
100
100
100
100
100
100
100
100
100
100
100
100
121.937
102.834
100
100
100
100
100
100
100
100
100
100
100
100
100
100
100
100
100
100
100
100
100
100
100
100
100
100
100
100
100
100
100
100
100
100
100
100
100
100
100
100
100
100
100
100
100
100
100
100
100
100
100
100
100
100
100
100
100
100
100
100
100
100
100
100
100
100
100
100
100
100
100
100
100
100
100
100
100
100
100
100
100
100
100
100
100
100
100
100
100
100
100
100
100
100
100
100
100
100
100
100
100
100
100
100
100
100
100
100
100
100
100
100
100
100
100
100
100
100
100
100
100
100
100
100
100
100
100
100
100
100
100
100
100
100
100
100
100
100
100
100
100
100
100
100
100
100
100
100
100
100
100
100
100
100
100
100
100
100
100
100
100
100
100
100
100
100
100
100
100
100
100
100
100
100
101.669
100
100
100
100
100
100
100
100
100
100
100
100
100
100
100
100
100
100
100
100
100
100
100
100
100
100
100
100
100
100
100
100
100
100
100
100
100
100
100
100
100
100
100
100
100
100
100
100
100
100
100
100
100
100
100
100
100
100
100
100
100
100
100
100
100
101.926
104.303
100
100.877
103.907
105.641
100
100
100
100
100
100
100
100
100
100
100
100
100
100
100
100
100
100
100
100
104.496
103.093
107.743
106.25
100
100
100
100
100
100
100
100
100
100
100
100
100
100
100
100
100
100
100
100
100
100
100
100
100
100
100
100
100
100
100
100
100
100
100
100
100
100
100
100
100
100
100
100
100
100
100
100
100
100
100
100
100
100
100
100
100
100
100
100
100
100
100
100
106.323
106.545
109.281
111.961
103.504
107.464
110.913
112.849
100
100
100.138
105.22
100
100
100
100
100
100
100
100
100
100
100
100
102.892
105.92
100
105.671
110.824
107.669
112.716
112.47
100
100
100
100
100
100
100
100
100
100
100
100
100
100
100
100
100
100
100
100
100
100
100
100
100
100
100
100
100
100
100
100
100
100
100
100
100
100
100
100
100
100
100
100
100
100
100
100
100
100
100
100
100
100
100
100
100
100
100
100
100
105.371
100.494
100
100
113.599
113.856
117.444
120.262
110.034
114.487
118.471
120.729
100
100
105.713
111.358
100
100
100
100
100
100
100
100
100
100.121
100
100
105.762
112.139
103.601
111.734
116.331
112.042
117.081
117.078
100
100
100.318
100
100
203.728
100
100
100
100
100
100
100
100
100
100
100
100
100
100
100
100
100
100
100
100
100
100
100
100
100
100
100
100
100
100
100
100
100
100
100
100
100
100
100
100
100
100
100
100
100
100
100
100
100
100
100
100
100
100
100
100
100
113.483
108.422
100
103.385
121.658
122.078
125.639
128.721
116.706
121.724
126.281
128.903
100
105.05
111.407
117.633
100
100
100
100
100
100
100
100
100
102.992
100
100
108.877
117.674
109.603
116.931
120.3
115.79
120.863
121.6
100
100
105.699
100
100
131.743
100
100
100
100
100
100
100
100
100
100
100
100
100
100
100
100
100
100
100
100
100
100
100
100
100
100
100
100
100
100
100
100
100
100
100
100
100
100
100
100
100
100
100
100
100
100
100
100
100
100
100
100
100
100
100
102.316
100
100
100
121.623
116.46
106.905
111.263
130.038
130.623
134.449
137.64
123.587
129.243
134.417
137.432
103.376
110.195
117.144
124.012
100
100
100.727
100
100
100
100
100
100
105.807
102.234
100
112.208
122.568
114.41
121.592
123.882
119.375
124.911
126.564
101.195
100
110.217
100
100
100
100
100
100
100
100
100
100
100
100
100
100
100
100
100
100
100
100
100
100
100
100
100
100
100
100
100
100
100
100
100
100
100
100
100
100
100
100
100
100
100
100
100
100
100
100
100
100
100
100
100
100
100
100
100
104.977
104.687
110.247
106.56
106.314
105.747
130.382
125.344
115.404
119.926
138.844
139.622
143.884
147.022
130.63
136.959
142.774
146.267
107.908
115.299
122.85
130.409
100
100
104.59
100
100
100
100
100
100
108.728
106.672
100
116.61
127.192
118.443
125.465
128.246
123.703
129.324
131.505
105.329
100
114.139
100
100
100
100
100
100
100
100
100
100
100
100
100
100
100
100
100
100
100
100
100
100
100
100
100
100
100
100
100
100
100
100
100
100
100
100
100
100
100
100
100
100
100
100
100
100
100
100
100
100
100
100
100
109.113
111.478
108.544
106.47
106.774
104.162
103.617
110.489
118.385
115.335
114.654
113.115
139.796
134.871
124.038
129.194
148.09
148.925
154.173
157.154
137.734
144.82
151.343
155.44
112.331
120.289
128.51
136.765
100
100
108.284
100
100
100
101.589
100
104.641
113.552
113.068
104.869
121.875
131.215
122.449
129.724
133.291
128.803
134.059
136.002
108.358
102.132
117.065
100
100
100
100
100
100
100
100
100
100
100
100
100
100
100
100
100
100
100
100
100
100
100
100
100
100
100
100
100
100
100
100
100
100
100
100
100
100
100
100
100
100
100
100
100
100
100
100
100
100
100
100
100
100
114.725
116.356
112.207
109.482
108.423
110.853
110.7
117.723
127.757
125.681
124.286
121.622
149.793
144.69
133.599
139.263
157.767
158.59
165.299
168.065
144.851
152.676
159.921
164.819
116.554
125.189
134.091
143.061
100
103.075
111.839
107.258
109.382
103.102
114.273
111.705
113.777
119.89
120.18
115.343
127.827
135.732
125.74
133.971
138.803
134.304
139.945
140.954
111.68
106.299
120.603
100.751
100
100
100
100
100
100
100
100
100
100
100
100
100
100
100
100
100
100
100
100
100
100
100
100
100
100
100
100
100
100
100
100
100
100
100
100
100
100
100
100
100
100
100
100
100
100
100
100
100
100
100
108.643
107.645
100
120.54
122.279
117.366
114.087
111.127
119.214
119.081
124.335
138.234
136.388
133.778
130.007
160.581
155.367
143.925
150.273
167.687
168.519
177.388
179.979
151.892
160.412
168.335
174.455
120.751
130.117
139.678
149.348
105.65
109.506
115.569
119.166
122.724
117.176
129.008
125.605
123.043
127.229
128.583
125.854
134.784
141.025
129.861
139.866
145.482
141.427
149.528
147.512
116.766
112.485
127.385
107.765
101.257
137.987
100
100
100
100
100
100
100
100
100
100
100
100
100
100
100
100
100
100
100
100
100
100
100
100
100
100
100
100
100
100
100
100
100
100
100
100
100
100
100
100
100
100
100
100
100
100
100
100
100
109.505
107.27
107.591
107.812
127.136
128.316
122.75
118.527
113.922
127.84
126.954
131.601
150.073
147.916
144.024
139.975
172.331
166.925
154.523
161.533
178.137
179.427
189.952
192.021
158.947
168.271
177.101
184.657
125.44
135.522
145.617
155.843
120.945
122.788
124.911
129.638
134.944
133.521
143.985
139.339
133.693
136.69
142.504
140.491
146.294
150.633
138.881
152.167
154.954
155.188
165.197
162.587
124.534
120.196
137.807
113.671
106.043
100
100
100
100
100
100
100
100
100
100
100
100
100
100
100
100
100
100
100
100
100
100
100
100
100
100
100
100
100
100
100
100
100
100
100
100
100
100
100
100
100
100
100
100
100
100
100
100
100
100
100
111.145
108.206
108.572
108.221
134.316
135.904
129.9
123.681
116.983
138.066
135.657
139.911
163.421
160.193
154.975
151.357
184.985
179.639
166.488
173.656
189.227
191.035
203.366
204.921
166.206
176.407
186.156
194.962
131.447
142.168
152.529
162.954
139.056
141.968
142.307
148.452
160.982
150.903
174.191
169.528
154.623
156.302
172.57
172.423
167.843
168.192
152.266
168.642
177.119
180.804
196.988
186.779
133.154
127.149
147.842
119.597
108.557
113.262
100
100
100
100
100
100
100
100
100
100
100
100
100
100
100
100
100
100
100
100
100
100
100
100
100
100
100
100
100
100
100
100
100
100
100
100
100
100
100
100
100
100
100
100
100
100
100
100
109.984
110.883
100
113.859
109.865
110.318
109.774
142.106
145.304
137.788
129.057
120.592
148.865
144.977
149
177.046
172.841
167.737
164.693
198.892
193.759
179.801
186.694
201.062
203.625
218.46
219.324
173.973
185.249
196.209
206.475
143.073
150.873
161.129
171.219
160.902
164.681
162.661
188.451
200.208
185.45
200.772
196.946
191.636
188.504
211.91
208.23
202.181
188.612
165.467
186.465
208.938
221.094
232.619
213.905
142.221
134.47
159.555
122.125
111.355
434.593
100
146.869
100.347
100
100
100
100
100
100
100
100
100
100
100
100
100
100
100
100
100
100
100
100
100
100
100
100
100
100
100
100
100
100
100
100
100
100
100
100
100
100
100
100
100
100
100
100
100
111.467
112.047
113.968
113.926
117.914
112.33
112.771
111.53
151.844
155.2
145.658
135.264
125.77
160.473
155.248
159.881
190.731
185.582
181.745
178.746
214.922
209.475
194.638
200.848
214.457
217.726
235.486
235.565
182.56
195.231
208.209
220.07
162.161
163.932
172.231
181.833
194.616
192.968
191.909
213.857
219.714
214.229
253.439
245.397
218.39
222.202
226.522
229.043
230.841
211.661
180.425
204.217
241.067
234.673
248.185
240.451
151.319
137.526
170.442
124.941
112.832
206.236
100
100
101.194
100
100
100
100
100
100
100
100
100
100
100
100
100
100
100
100
100
100
100
100
100
100
100
100
100
100
100
100
100
100
100
100
100
100
100
100
100
100
100
100
100
100
100
114.663
115.357
113.526
100
113.754
113.863
116.111
122.917
116.01
116.138
114.203
162.981
165.983
154.543
143.145
132.324
173.479
167.501
171.74
205.684
199.987
197.05
193.366
233.058
227.024
212.268
218.107
229.032
233.473
254.428
252.932
192.476
206.42
222.225
237.559
188.966
187.512
190.702
198.717
225.28
239.909
245.197
269.16
148.171
264.913
300.926
294.292
279.457
246.393
147.365
155.289
286.422
231.258
191.782
216.866
251.553
150.609
156.735
240.613
154.974
141.368
176.443
126.794
112.684
100
100
100
101.742
100
100
100
100
100
100
100
100
100
100
100
100
100
100
100
100
100
100
100
100
100
100
100
100
100
100
100
100
100
100
100
100
100
100
100
100
100
100
100
100
100
100
100
100
100
116.011
117.252
115.861
100
116.29
116.071
117.836
128.791
121.022
120.614
117.63
176.286
178.287
165.279
152.243
139.473
187.827
180.66
185.757
222.277
216.428
212.607
208.441
253.738
247.583
232.539
239.83
245.186
250.532
276.472
270.163
207.117
219.529
234.25
251.229
235.598
237.517
235.03
241.212
148.549
282.684
282.762
324.804
178.676
316.694
353.82
346.126
335.039
162.28
179.026
186.682
345.051
238.443
200.879
225.067
157.54
180.473
186.262
152.488
160.848
143.726
184.728
127.04
112.864
100
100
100
100.317
100
100
100
100
100
100
100
100
100
100
100
100
100
100
100
100
100
100
100
100
100
100
100
100
100
100
100
100
100
100
100
100
100
100
100
100
100
100
100
100
100
100
100
100
118.059
119.265
116.461
112.011
117.613
115.38
119.673
118.734
119.607
135.386
126.848
126.265
122.023
190.807
192.5
177.368
161.868
147.227
202.92
194.666
201.771
244.564
237.133
230.019
224.435
277.474
273.38
257.577
267.111
259.622
266.894
290.595
286.416
246.522
257.826
267.04
291.318
275.294
272.746
269.338
273.871
177.527
329.405
326.344
385.113
210.7
371.035
406.758
397.222
394.285
195.151
213.988
219.259
408.424
247.555
291.559
211.731
226.212
187.498
215.285
222.425
180.312
164.079
146.192
189.629
126.848
112.192
100
100
100
100
100
100
100
100
100
100
100
100
100
100
100
100
100
100
100
100
100
100
100
100
100
100
100
100
100
100
100
100
100
100
100
100
100
100
100
100
100
100
100
100
100
100
100
111.99
100
121.198
120.724
118.727
114.958
123.474
121.085
123.209
143.186
133.456
132.796
127.609
205.95
206.646
189.76
172.336
156.405
218.088
210.114
217.952
271.904
262.458
251.837
242.987
299.225
301.147
284.596
294.892
300.168
293.957
325.731
309.316
279.221
290.087
300.967
173.01
319.462
319.245
313.255
308.578
311.212
206.169
378.466
373.449
441.586
240.426
425.829
448.989
230.424
245.21
249.275
463.787
156.937
342.229
211.126
150.437
223.124
245.695
253.851
214.814
169.122
146.773
193.634
127.233
109.857
100
100
100
100
100
100
100
100
100
100
100
100
100
100
100
100
100
100
100
100
100
100
100
100
100
100
100
100
100
100
100
100
100
100
100
100
100
100
100
100
100
100
100
100
100
100
105.825
112.631
102.166
111.362
100
123.411
121.46
118.812
114.406
127.35
124.576
126.687
151.744
140.244
139.231
133.026
220.939
222.627
204.128
184.773
167.271
234.033
226.624
234.765
301.903
290.796
277.25
265.597
326.724
323.544
312.823
318.16
315.737
189.863
352.669
342.994
317.03
326.399
338.112
193.351
349.872
364.798
357.293
351.191
351.935
234.544
260.575
186.522
404.635
214.852
270.579
178.22
253.859
245.362
171.916
146.483
195.421
126.434
107.514
100
100
114.086
100
100
100
100
100
100
100
100
100
100
100
100
100
100
100
100
100
100
100
100
100
100
100
100
100
100
100
100
100
100
100
100
100
100
100
100
100
100
100
100
100
100
100
100
109.938
104.487
115.968
102.312
100
124.328
122.564
118.128
132.25
129.119
128.832
160.732
147.219
144.652
138.153
238.172
240.257
218.952
197.727
178.73
254.578
246.199
254.296
329.32
317.421
304.511
293.24
351.147
332.229
340.217
350.94
209.366
380.469
378.58
358.085
365.76
376.654
215.029
383.783
223.105
460.844
146.592
321.398
211.642
172.837
149.812
197.796
256.716
124.882
105.194
100
100
125.533
100
100
100
100
100
100
100
100
100
100
100
100
100
100
100
100
100
100
100
100
100
100
100
100
100
100
100
100
100
100
100
100
100
100
100
100
100
100
100
100
100
100
100
100
107.628
114.06
103.397
119.642
100.269
100
100
126.21
122.259
138.199
133.064
131.412
170.649
154.316
150.977
144.848
259.396
259.159
234.277
210.941
190.328
280.714
268.462
277.82
338.163
338.383
330.068
319.854
384.912
195.128
359.81
390.196
228.617
406.989
412.061
236.521
256.704
176.192
383.114
243.233
172.547
146.01
142.283
309.091
123.605
102.682
100
113.186
132.134
100
100
100
100
100
100
100
100
100
100
100
100
100
100
100
100
100
100
100
100
100
100
100
100
100
100
100
100
100
100
100
100
100
100
100
100
100
100
100
100
100
100
100
100
100
111.897
106.916
118.982
101.881
123.803
100
100
100
100
126.88
142.826
136.04
133.421
181.183
161.972
158.231
150.873
283.444
280.026
252.098
225.782
202.394
308.45
293.296
304.448
195.059
359.096
346.9
341.194
419.302
215.198
393.685
428.287
245.337
211.276
442.795
167.709
243.402
147.097
171.915
372.827
123.507
101.415
100
133.703
134.325
100
100
100
100
100
100
100
100
100
100
100
100
100
100
100
100
100
100
100
100
100
100
100
100
100
100
100
100
100
100
100
100
100
100
100
100
100
100
100
100
100
100
100
100
100
100
117.185
111.046
105.628
124.747
100
128.31
100
100
100
100
147.21
139.05
134.762
191.028
170.957
165.151
155.636
307.878
303.017
272.168
241.121
213.143
333.868
320.125
330.796
204.734
214.634
382.3
344.256
450.136
235.42
427.494
245.374
178.46
226.22
288.804
152.3
205.795
435.481
126.711
100
100
148.132
133.61
100
100
100
115.119
100
100
100
100
100
100
100
100
100
100
100
100
100
100
100
100
100
100
100
100
100
100
100
100
100
100
100
100
100
100
100
100
100
100
100
100
100
100
100
100
100
100
100
124.004
115.897
110.577
102.362
130.834
100.456
100
100
100
100
151.425
141.358
137.791
202.485
181.425
172.289
160.606
330.832
325.869
292.535
257.015
225.637
356.849
346.39
352.453
226.079
233.769
199.969
416.514
253.148
457.155
191.159
239.52
279.978
342.299
154.049
238.387
123.219
100
100
157.004
132.576
100
100
100
130.461
100
100
100
100
100
100
100
100
100
100
100
100
100
100
100
100
100
100
100
100
100
100
100
100
100
100
100
100
100
100
100
100
100
100
100
100
100
100
100
100
100
100
100
100
100
131.756
122.554
116.627
108.225
106.91
100
100
100
100
154.799
144.696
140.336
213.287
190.962
179.498
164.566
350.167
344.053
311.87
274.852
240.135
364.901
366.912
366.924
246.527
250.436
219.992
212.171
448.023
135.295
297.87
341.37
395.813
147.428
221.079
117.661
100
100
163.314
130.726
100
100
100
143.386
100
100
100
100
100
100
100
100
100
100
100
100
100
100
100
100
100
100
100
100
100
100
100
100
100
100
100
100
100
100
100
100
100
100
100
100
100
100
100
100
100
100
100
100
100
130.953
124.258
115.632
115.119
105.04
100
100
100
100
160.004
149.372
140.617
224.165
200.346
186.325
169.817
363.15
358.937
331.547
295.107
255.654
367.769
360.301
263.795
238.182
231.442
209.166
473.476
165.955
360.457
401.795
142.383
207.781
269.389
114.001
100
100
165.226
129.052
100
100
106.166
148.609
100
100
100
100
100
100
100
100
100
100
100
100
100
100
100
100
100
100
100
100
100
100
100
100
100
100
100
100
100
100
100
100
100
100
100
100
100
100
100
100
100
100
100
100
100
100
100
133.144
124.633
124.536
113.765
103.092
100
100
100
164.266
151.744
142.412
234.807
208.175
195.685
176.575
367.633
366.313
347.871
313.994
271.006
202.156
251.918
248.419
229.144
200.523
421.048
140.98
204.898
258.002
324.849
113.218
100
100
159.949
123.476
100
100
112.992
148.926
100
100
100
100
100
100
100
100
100
100
100
100
100
100
100
100
100
100
100
100
100
100
100
100
100
100
100
100
100
100
100
100
100
100
100
100
100
100
100
100
100
100
100
100
100
100
100
100
100
100
134.932
135.14
123.892
112.388
101.85
100
100
166.248
153.181
145.606
246.38
217.6
203.839
181.048
382.538
385.47
362.881
357.017
329.188
286.486
221.666
260.655
247.788
233.476
140.634
201.898
254.401
316.615
379.571
115.778
100
132.97
144.367
139.326
100
100
116.263
136.456
100
100
100
100
100
100
100
100
100
100
100
100
100
100
100
100
100
100
100
100
100
100
100
100
100
100
100
100
100
100
100
100
100
100
100
100
100
100
100
100
100
100
100
100
100
100
100
100
100
100
100
100
146.719
135.199
123.398
111.732
101.025
100
171.19
157.449
261.584
228.658
210.255
186.725
218.11
421.86
200.713
352.86
338.323
302.744
239.941
261.23
143.47
197.49
250.772
310.845
373.529
118.485
100
323.417
151.99
186.872
100
100
111.328
133.276
100
100
100
100
100
100
100
100
100
100
100
100
100
100
100
100
100
100
100
100
100
100
100
100
100
100
100
100
100
100
100
100
100
100
100
100
100
100
100
100
100
100
100
100
100
100
100
100
100
100
100
100
100
100
159.943
147.693
135.657
123.109
111.474
100
175.533
274.077
236.557
218.781
193.891
237.675
455.504
220.203
365.444
362.767
340.733
315.825
253.3
147.997
197.698
245.79
306.362
364.842
120.255
100.319
753.351
170.376
261.442
100
100
104.684
125.939
100
100
100
100
100
100
100
100
100
100
100
100
100
100
100
100
100
100
100
100
100
100
100
100
100
100
100
100
100
100
100
100
100
100
100
100
100
100
100
100
100
100
100
100
100
100
100
100
100
100
100
100
100
100
100
100
161.877
149.216
135.895
123.062
109.24
178.373
282.602
244.431
225.218
198.701
256.372
478.435
240.424
401.501
205.84
339.398
320.526
152.717
201.437
245.693
301.09
358.682
121.155
100.293
164.787
124.349
100
100
100
100
100
100
100
100
100
100
100
100
100
100
100
100
100
100
100
100
100
100
100
100
100
100
100
100
100
100
100
100
100
100
100
100
100
100
100
100
100
100
100
100
100
100
100
100
100
100
100
100
100
100
100
100
100
100
100
100
100
100
107.379
100
164.399
150.19
135.497
121.342
181.753
290.77
251.967
229.098
202.975
268.831
254.283
437.5
224.137
356.227
345.774
319.735
156.36
208.928
250.325
300.932
352.975
121.37
100
101.044
100
100
100
100
100
100
100
100
100
100
100
100
100
100
100
100
100
100
100
100
100
100
100
100
100
100
100
100
100
100
100
100
100
100
100
100
100
100
100
100
100
100
100
100
100
100
100
100
100
105.751
100
100
100
100
100
100
100
100
100
100
100
100
100
105.803
119.844
100
166.01
149.544
134.489
184.289
289.957
254.654
232.848
206.662
463.843
242.887
391.769
198.065
305.594
158.104
216.001
258.15
306.442
352.973
116.216
100
100
100
100
100
100
100
100
100
100
100
100
100
100
100
100
100
100
100
100
100
100
100
100
100
100
100
100
100
100
100
100
100
100
100
100
100
100
100
100
100
100
100
100
100
100
100
100
100
100
100
100
118.457
100
100
100
100
100
100
100
100
100
100
100
100
110.263
108.331
117.433
133.682
100
166.066
149.55
185.948
288.877
257.833
237.024
210
257.372
428.067
216.358
320.519
307.726
155.875
216.443
265.389
314.589
359.03
109.66
100
100
100
100
100
100
100
100
100
100
100
100
100
100
100
100
100
100
100
100
100
100
100
100
100
100
100
100
100
100
100
100
100
100
100
100
100
100
100
100
100
100
100
100
100
100
100
100
100
100
100
100
132.458
111.191
100
100
100
100
100
100
100
100
100
100
100
100
110.914
124.203
121.063
129.894
149.626
100
167.47
188.783
293.445
263.029
240.768
213.792
457.091
234.415
351.748
324.792
321.572
190.85
144.711
267.647
133.295
322.424
366.928
103.939
100
100
100
100
100
105.047
100
100
100
100
100
100
100
100
100
100
100
100
100
100
100
100
100
100
100
100
100
100
100
100
100
100
100
100
100
100
100
100
100
100
100
100
100
100
100
100
100
100
100
100
100
148.176
126.406
100
100
100
100
100
100
100
100
100
100
100
100
106.377
109.385
127.439
138.658
134.156
145.03
168.172
100
189.317
294.289
268.4
238.913
213.193
248.867
383.814
356.89
348.058
333.456
180.342
133.798
325.475
166.412
242.576
375.57
100.788
100
100
100
100
101.435
107.932
100
100
100
100
100
100
100
100
100
100
100
100
100
100
100
100
100
100
100
100
100
100
100
100
100
100
100
100
100
100
100
100
100
100
100
100
100
100
100
100
100
100
100
100
100
166.313
142.315
100.337
100
100
100
100
100
100
100
100
100
100
100
100
100
125.099
127.16
144.905
153.878
147.912
163.468
100
187.183
286.297
265.228
234.092
210.261
410.98
390.49
381.485
192.927
167.899
126.789
379.96
201.87
301.808
226.969
100.95
100
100
100
100
119.261
100
100
100
100
100
100
100
100
100
100
100
100
100
100
100
100
100
100
100
100
100
100
100
100
100
100
100
100
100
100
100
100
100
100
100
100
100
100
100
100
100
100
100
100
100
100
159.079
119.127
100
100
100
100
100
100
100
100
100
100
100
100
100
111.711
145.71
146.211
163.294
170.079
162.67
184.398
100
279.201
306.103
256.738
228.74
206.702
419.87
412.292
211.946
161.358
120.608
234.249
365.517
282.857
223.794
102.68
114.2
100
100
100
122.018
100
100
100
100
100
100
100
100
100
100
100
100
100
100
100
100
100
100
100
100
100
100
100
100
100
100
100
100
100
100
100
100
100
100
100
100
100
100
100
100
100
100
100
100
100
100
176.784
141.038
100
100
100
100
100
100
100
100
100
100
100
100
100
100
103.382
133.873
167.557
166.251
182.621
187.123
181.142
100
269.869
306.293
335.571
249.328
223.479
202.703
440.152
228.327
161.269
114.833
424.635
346.271
278.177
134.671
110.903
132.345
100
100
100
108.695
100
100
100
100
100
100
100
100
100
100
100
100
100
100
100
100
100
100
100
100
100
100
100
100
100
100
100
100
100
100
100
100
100
100
100
100
100
100
100
100
100
100
100
100
100
100
195.006
165.312
100
100
100
100
100
100
100
100
100
100
100
100
100
100
100
112.341
124.409
159.354
190.623
187.305
202.3
204.377
100
262.86
295.979
333.05
365.022
242.792
221.254
242.618
185.055
149.113
116.551
405.354
339.03
167.583
245.066
127.528
133.216
100
100
100
100
100
100
100
100
100
100
100
100