/*--------------------------------*- C++ -*----------------------------------*\
  =========                 |
  \\      /  F ield         | OpenFOAM: The Open Source CFD Toolbox
   \\    /   O peration     | Website:  https://openfoam.org
    \\  /    A nd           | Version:  dev
     \\/     M anipulation  |
\*---------------------------------------------------------------------------*/
FoamFile
{
    version     2.0;
    format      ascii;
    class       volScalarField;
    location    "2500";
    object      rho;
}
// * * * * * * * * * * * * * * * * * * * * * * * * * * * * * * * * * * * * * //

dimensions      [1 -3 0 0 0 0 0];

internalField   nonuniform List<scalar> 
9978
(
1.17171
1.1715
1.17165
1.17148
1.17115
1.17165
1.17147
1.17097
1.17116
1.17176
1.17149
1.17091
1.17079
1.17122
1.17177
1.17152
1.17089
1.17054
1.17081
1.17136
1.17181
1.17161
1.17092
1.17041
1.17049
1.17093
1.17146
1.17184
1.17158
1.17084
1.17034
1.17022
1.17054
1.17103
1.17149
1.17184
1.17164
1.17093
1.17033
1.17009
1.17023
1.1707
1.17114
1.17154
1.17188
1.17165
1.17094
1.17036
1.16998
1.16998
1.17036
1.17083
1.17123
1.17157
1.17187
1.17166
1.17097
1.17043
1.16998
1.16981
1.16997
1.17045
1.17091
1.17131
1.17163
1.17188
1.17163
1.171
1.17051
1.16992
1.16966
1.16977
1.17015
1.17058
1.171
1.17133
1.17164
1.1719
1.17161
1.17104
1.17057
1.16994
1.1696
1.16958
1.1698
1.17031
1.17067
1.17108
1.17136
1.17164
1.1719
1.17162
1.17113
1.17056
1.16996
1.16954
1.16943
1.16958
1.16997
1.17039
1.1708
1.17112
1.1714
1.17167
1.17192
1.17165
1.17117
1.1706
1.17007
1.16956
1.16931
1.1694
1.16966
1.17009
1.17051
1.17085
1.17114
1.17142
1.17168
1.17192
1.17168
1.17114
1.17067
1.1701
1.16962
1.16927
1.16921
1.16944
1.16984
1.17019
1.17058
1.1709
1.17118
1.17145
1.17168
1.17192
1.17166
1.17115
1.17068
1.17015
1.16972
1.16924
1.16911
1.16921
1.16951
1.16997
1.17033
1.17066
1.17094
1.17121
1.17145
1.1717
1.17192
1.1717
1.17119
1.17074
1.17031
1.16982
1.16927
1.16903
1.16902
1.16926
1.16964
1.17007
1.1704
1.17072
1.17097
1.17124
1.17146
1.1717
1.17193
1.1717
1.17123
1.1708
1.17036
1.16984
1.1693
1.16898
1.16891
1.16904
1.1694
1.16983
1.17016
1.17048
1.17077
1.17102
1.17126
1.17147
1.1717
1.17192
1.17168
1.17122
1.17078
1.17037
1.16993
1.1694
1.16899
1.16883
1.16889
1.16912
1.16952
1.16995
1.17025
1.17052
1.17079
1.17104
1.17125
1.1715
1.17171
1.17193
1.1717
1.1713
1.17084
1.17046
1.17006
1.1695
1.16903
1.16878
1.16876
1.16893
1.16928
1.16964
1.17002
1.1703
1.1706
1.17083
1.17105
1.17126
1.17151
1.17171
1.17193
1.17172
1.17131
1.1709
1.17051
1.17007
1.16966
1.1691
1.16878
1.16867
1.16876
1.16902
1.16942
1.16977
1.17011
1.17037
1.17062
1.17084
1.17106
1.17129
1.17149
1.1717
1.17193
1.17173
1.1713
1.17093
1.17051
1.17015
1.16979
1.16916
1.16881
1.16862
1.16863
1.16882
1.16916
1.16955
1.16989
1.17017
1.17041
1.17065
1.17085
1.17108
1.17127
1.17149
1.1717
1.17191
1.17172
1.17134
1.17096
1.17058
1.1702
1.16984
1.16927
1.16887
1.1686
1.16854
1.16865
1.16892
1.16926
1.16968
1.16997
1.17024
1.17045
1.17067
1.17086
1.17108
1.17128
1.17149
1.17171
1.17191
1.17175
1.17139
1.17099
1.17064
1.17027
1.16992
1.16944
1.169
1.16861
1.16847
1.16851
1.16872
1.16903
1.16944
1.16978
1.17002
1.17028
1.17048
1.17068
1.17088
1.17108
1.17128
1.17149
1.1717
1.17192
1.17174
1.17139
1.17105
1.17069
1.17035
1.17001
1.16953
1.16913
1.16864
1.16844
1.16841
1.16855
1.16881
1.1692
1.16954
1.16985
1.17008
1.1703
1.17052
1.17069
1.17088
1.17108
1.17128
1.17148
1.17169
1.1719
1.17175
1.17143
1.17109
1.17072
1.17043
1.17007
1.16962
1.16921
1.16873
1.16845
1.16834
1.1684
1.16862
1.169
1.16934
1.16962
1.1699
1.17012
1.17034
1.17052
1.1707
1.17089
1.17107
1.17126
1.17146
1.17167
1.17189
1.17177
1.17145
1.17112
1.1708
1.17049
1.17013
1.1698
1.16936
1.16891
1.16848
1.16829
1.16829
1.16845
1.16874
1.16909
1.16944
1.16974
1.16996
1.17015
1.17035
1.17053
1.1707
1.17088
1.17107
1.17125
1.17145
1.17166
1.17189
1.17178
1.17144
1.17113
1.17083
1.1705
1.1702
1.16988
1.16949
1.16901
1.16853
1.16829
1.16822
1.1683
1.16854
1.16889
1.16925
1.16954
1.16978
1.16999
1.17019
1.17037
1.17053
1.1707
1.17087
1.17105
1.17124
1.17143
1.17164
1.17187
1.17177
1.17146
1.17116
1.17089
1.17055
1.17027
1.16997
1.16957
1.1692
1.16864
1.16831
1.16818
1.1682
1.16836
1.16869
1.16902
1.16935
1.16963
1.16982
1.17005
1.17021
1.17037
1.17053
1.1707
1.17086
1.17102
1.1712
1.1714
1.17161
1.17186
1.17179
1.1715
1.17118
1.17094
1.17062
1.17032
1.17002
1.16966
1.16931
1.16874
1.16838
1.16818
1.16811
1.16821
1.16848
1.16881
1.16914
1.16942
1.16968
1.16986
1.17006
1.17024
1.17037
1.17053
1.17069
1.17084
1.171
1.17117
1.17136
1.17158
1.17184
1.17179
1.17149
1.17121
1.17097
1.17069
1.17041
1.17007
1.16975
1.16943
1.1689
1.16845
1.16819
1.16804
1.16811
1.16829
1.16861
1.16891
1.16925
1.16949
1.16971
1.1699
1.17006
1.17022
1.17038
1.17053
1.17067
1.17082
1.17097
1.17113
1.17132
1.17154
1.17182
1.1718
1.17151
1.17125
1.17101
1.17072
1.17044
1.17018
1.16983
1.16949
1.16903
1.16859
1.16822
1.16804
1.16802
1.16814
1.16843
1.16873
1.16908
1.16937
1.16955
1.16977
1.16991
1.17008
1.17022
1.17038
1.17052
1.17065
1.17078
1.17092
1.17108
1.17127
1.1715
1.17179
1.17179
1.17152
1.17126
1.17102
1.17077
1.1705
1.17022
1.1699
1.16959
1.1692
1.16872
1.16832
1.16805
1.16795
1.16802
1.16823
1.16855
1.16888
1.16916
1.16943
1.16961
1.16979
1.16994
1.17013
1.17024
1.17037
1.1705
1.17061
1.17073
1.17087
1.17102
1.1712
1.17143
1.17182
1.1718
1.17155
1.17129
1.17104
1.17082
1.17056
1.17029
1.16999
1.16972
1.16937
1.16887
1.16843
1.1681
1.16794
1.16794
1.16809
1.16835
1.16866
1.16896
1.16926
1.16944
1.16963
1.16983
1.16996
1.17013
1.17024
1.17035
1.17046
1.17057
1.17068
1.1708
1.17095
1.17112
1.17144
1.17128
1.17194
1.17155
1.17169
1.17179
1.17154
1.1713
1.17107
1.17086
1.1706
1.17032
1.17004
1.16979
1.16942
1.16901
1.16855
1.16818
1.16795
1.16788
1.16796
1.16818
1.16848
1.16879
1.16905
1.16932
1.16951
1.16969
1.16985
1.16997
1.17013
1.17022
1.17032
1.17042
1.17051
1.17061
1.17073
1.17088
1.17112
1.17096
1.17131
1.17193
1.17144
1.17165
1.17181
1.17156
1.17133
1.17109
1.17086
1.17062
1.17037
1.17014
1.16985
1.16953
1.16915
1.16871
1.16828
1.16798
1.16785
1.16787
1.16803
1.16829
1.1686
1.1689
1.16913
1.16935
1.16954
1.16974
1.16987
1.16997
1.17012
1.17019
1.17029
1.17037
1.17045
1.17054
1.17071
1.17061
1.17083
1.17073
1.1707
1.17111
1.17093
1.17121
1.17192
1.17139
1.17162
1.17179
1.17155
1.17132
1.17112
1.17088
1.17069
1.17042
1.17019
1.16992
1.16964
1.16936
1.16883
1.16841
1.16806
1.16787
1.1678
1.1679
1.16813
1.16842
1.1687
1.16898
1.16921
1.16938
1.16952
1.16975
1.16989
1.16996
1.17011
1.17016
1.17024
1.1703
1.17037
1.17053
1.17042
1.1706
1.17077
1.17057
1.17063
1.17101
1.17083
1.17114
1.17191
1.17133
1.17158
1.17179
1.17156
1.17136
1.17115
1.1709
1.1707
1.17047
1.17024
1.16998
1.1697
1.16943
1.169
1.16856
1.16815
1.16789
1.16776
1.16781
1.16799
1.16827
1.16854
1.16882
1.16906
1.16925
1.16942
1.16958
1.1697
1.16988
1.16995
1.17008
1.1701
1.17013
1.17013
1.17031
1.17012
1.17046
1.1703
1.17045
1.17068
1.17049
1.17053
1.17093
1.17075
1.17107
1.1719
1.17127
1.17155
1.17179
1.17157
1.17135
1.17114
1.17095
1.17075
1.17053
1.17029
1.17003
1.16979
1.16952
1.16911
1.16867
1.16827
1.16795
1.16777
1.16774
1.16785
1.16808
1.16838
1.16865
1.1689
1.16913
1.16933
1.16946
1.16962
1.16971
1.16985
1.16992
1.16999
1.16985
1.16953
1.16978
1.16904
1.17003
1.16946
1.17027
1.16991
1.17028
1.17058
1.1703
1.17034
1.17085
1.17066
1.17099
1.17189
1.1712
1.17151
1.1718
1.17158
1.17136
1.17115
1.17096
1.17075
1.17057
1.17035
1.17015
1.16986
1.16959
1.16924
1.1688
1.16839
1.16808
1.16781
1.16769
1.16775
1.16794
1.1682
1.1685
1.16875
1.16897
1.1692
1.16936
1.16952
1.16963
1.16978
1.16983
1.16977
1.16936
1.16802
1.16775
1.16533
1.16823
1.16585
1.16906
1.16715
1.16982
1.16863
1.16974
1.17041
1.16973
1.1698
1.17076
1.17051
1.17091
1.17188
1.17114
1.17148
1.17179
1.17157
1.17137
1.17118
1.17101
1.17081
1.1706
1.17039
1.17017
1.16992
1.16971
1.16936
1.16899
1.16851
1.16816
1.16787
1.16768
1.16768
1.16782
1.16806
1.16832
1.16859
1.16883
1.16904
1.16924
1.16941
1.16955
1.16961
1.16975
1.16955
1.16858
1.16508
1.16255
1.1586
1.16214
1.15748
1.16349
1.15819
1.1659
1.16079
1.16822
1.16462
1.16796
1.16994
1.16789
1.16805
1.17063
1.17014
1.1708
1.17189
1.17107
1.17148
1.17178
1.17156
1.17137
1.17119
1.17101
1.17083
1.17063
1.17045
1.17022
1.17001
1.16974
1.16942
1.16913
1.1687
1.16827
1.16794
1.16769
1.16763
1.16771
1.16791
1.16817
1.16843
1.16868
1.16891
1.1691
1.16929
1.16945
1.16955
1.16957
1.16935
1.16736
1.16151
1.1551
1.15081
1.15226
1.14705
1.15201
1.1455
1.154
1.14649
1.1581
1.15001
1.16357
1.15577
1.16295
1.16845
1.16284
1.16327
1.17037
1.16902
1.17064
1.17192
1.17098
1.17149
1.17177
1.17154
1.17135
1.17118
1.17102
1.17085
1.17067
1.17049
1.17032
1.17009
1.16981
1.16954
1.16927
1.16882
1.1684
1.16805
1.16775
1.16761
1.16763
1.16777
1.16802
1.1683
1.16853
1.16876
1.16897
1.16916
1.16934
1.16946
1.16952
1.16918
1.16672
1.15747
1.14761
1.14403
1.14205
1.13752
1.13913
1.13326
1.13894
1.13167
1.14145
1.13292
1.1466
1.13713
1.15413
1.144
1.15326
1.16427
1.15325
1.15414
1.16962
1.1657
1.17019
1.17187
1.17081
1.1713
1.17175
1.17152
1.17133
1.17117
1.17102
1.17085
1.17069
1.17052
1.17036
1.17014
1.16989
1.16964
1.16935
1.16893
1.16856
1.16818
1.1678
1.16762
1.16757
1.16766
1.16787
1.16812
1.1684
1.1686
1.16883
1.16902
1.16921
1.16937
1.16945
1.16915
1.16617
1.1557
1.14161
1.13908
1.13365
1.13034
1.12794
1.12348
1.12485
1.11936
1.12485
1.1178
1.12783
1.11899
1.13369
1.1237
1.14235
1.13124
1.14164
1.15596
1.14185
1.14298
1.16731
1.1586
1.16881
1.17171
1.16993
1.17067
1.17173
1.17148
1.17129
1.17114
1.171
1.17084
1.17069
1.17055
1.17039
1.17018
1.16996
1.16974
1.16945
1.16907
1.16869
1.16829
1.16788
1.16767
1.16755
1.16758
1.16774
1.16798
1.16823
1.16845
1.16869
1.1689
1.16908
1.16926
1.16937
1.16915
1.1662
1.15393
1.13729
1.13772
1.1277
1.12549
1.12015
1.11798
1.11582
1.11419
1.11362
1.11201
1.11275
1.11044
1.11447
1.10964
1.12051
1.11109
1.12985
1.11842
1.12942
1.14508
1.12992
1.13132
1.16172
1.14796
1.16461
1.17162
1.16689
1.16905
1.17168
1.17141
1.17123
1.17109
1.17097
1.17082
1.17069
1.17057
1.17041
1.17022
1.17001
1.16981
1.1696
1.16919
1.16882
1.16844
1.16801
1.16773
1.16754
1.16753
1.16762
1.16783
1.16808
1.16832
1.16854
1.16876
1.16896
1.16913
1.16928
1.16916
1.16643
1.15407
1.12898
1.12447
1.12178
1.11681
1.11612
1.11358
1.11361
1.11189
1.11229
1.11032
1.11111
1.10867
1.10944
1.10739
1.10737
1.10877
1.10564
1.11743
1.10719
1.11732
1.13355
1.11807
1.11961
1.15154
1.13637
1.15518
1.1713
1.1595
1.16369
1.17162
1.17131
1.17113
1.17101
1.17091
1.17079
1.1707
1.17059
1.17043
1.17024
1.17003
1.16986
1.1697
1.16927
1.16895
1.16855
1.16813
1.16781
1.16755
1.16749
1.16755
1.16769
1.16793
1.16821
1.1684
1.16862
1.16883
1.16901
1.16917
1.16915
1.16696
1.15484
1.12978
1.11567
1.11583
1.11589
1.11556
1.11375
1.11402
1.11319
1.11456
1.11301
1.11623
1.11196
1.11666
1.10936
1.11445
1.10632
1.10999
1.10413
1.10529
1.10638
1.1027
1.10639
1.12178
1.10712
1.10858
1.13931
1.12412
1.1421
1.1654
1.14565
1.14489
1.17155
1.1712
1.171
1.17089
1.17081
1.17072
1.17067
1.17057
1.17044
1.17025
1.17004
1.16989
1.16976
1.16942
1.16906
1.1687
1.1683
1.1679
1.16761
1.16747
1.16747
1.1676
1.16784
1.16807
1.1683
1.16849
1.16869
1.16888
1.16906
1.16911
1.16755
1.15657
1.13187
1.11604
1.11637
1.11459
1.11454
1.11434
1.11455
1.11616
1.11766
1.11977
1.12302
1.12222
1.12774
1.1218
1.12935
1.11761
1.12695
1.11063
1.12039
1.10412
1.11077
1.10143
1.10266
1.10045
1.11038
1.09998
1.10012
1.1261
1.11195
1.1265
1.13853
1.1228
1.11168
1.1716
1.17116
1.17092
1.17078
1.17069
1.17062
1.17062
1.17057
1.17046
1.17027
1.17008
1.16993
1.16981
1.16954
1.16915
1.16886
1.16843
1.16799
1.16769
1.16749
1.16743
1.16751
1.16768
1.16794
1.16818
1.16837
1.16856
1.16875
1.16892
1.16904
1.16806
1.15909
1.13571
1.1169
1.1189
1.11443
1.11422
1.1194
1.11916
1.11878
1.1194
1.12585
1.12791
1.13207
1.13508
1.13524
1.13824
1.13524
1.1396
1.13108
1.13907
1.12205
1.13372
1.11006
1.12237
1.10097
1.10836
1.09931
1.10077
1.09791
1.0969
1.11233
1.10123
1.10889
1.14432
1.10143
1.11185
1.17146
1.171
1.17078
1.17064
1.17053
1.17051
1.1705
1.17038
1.17022
1.17006
1.16992
1.1698
1.16958
1.16926
1.16901
1.16861
1.16816
1.16778
1.16752
1.16742
1.16744
1.16758
1.16779
1.16805
1.16827
1.16844
1.16862
1.1688
1.16893
1.16843
1.16168
1.14039
1.11672
1.11394
1.1132
1.11861
1.11764
1.12897
1.12826
1.12901
1.12923
1.13697
1.13814
1.13959
1.14032
1.14087
1.14092
1.14194
1.14201
1.14125
1.14316
1.13493
1.14237
1.12124
1.13481
1.10588
1.11867
1.10306
1.09616
1.10031
1.09803
1.09993
1.09534
1.0964
1.16942
1.09724
1.13806
1.1715
1.17104
1.17073
1.17056
1.17044
1.17038
1.17028
1.17021
1.17011
1.16997
1.16985
1.16968
1.16939
1.16914
1.1688
1.16832
1.1679
1.16758
1.16742
1.16739
1.16747
1.16766
1.1679
1.16816
1.16833
1.1685
1.16867
1.16884
1.16861
1.16399
1.14572
1.11943
1.11423
1.11346
1.1166
1.11511
1.12692
1.1252
1.13809
1.13688
1.13879
1.13866
1.14096
1.14179
1.1406
1.14044
1.1404
1.13754
1.14191
1.13724
1.14374
1.14058
1.14271
1.14382
1.13341
1.14244
1.11514
1.13078
1.11121
1.09641
1.10728
1.1039
1.09414
1.09519
1.09365
1.17077
1.10139
1.14555
1.17156
1.17115
1.17072
1.17048
1.1703
1.17014
1.1702
1.17012
1.16999
1.16986
1.1697
1.16947
1.16926
1.16896
1.16849
1.16804
1.16764
1.16744
1.16735
1.16739
1.16754
1.16775
1.168
1.16824
1.16838
1.16856
1.1687
1.16866
1.16578
1.15133
1.12451
1.11335
1.11869
1.11658
1.12319
1.12091
1.13503
1.13273
1.1437
1.14277
1.1429
1.14374
1.14082
1.14197
1.13513
1.13424
1.13081
1.12522
1.13245
1.12272
1.1387
1.1275
1.1436
1.13703
1.14168
1.14334
1.12714
1.14034
1.12201
1.1014
1.11782
1.11482
1.1077
1.09447
1.09706
1.10049
1.09504
1.1671
1.10354
1.12428
1.17161
1.17126
1.17069
1.17033
1.17005
1.17007
1.17011
1.17002
1.16987
1.16971
1.16951
1.16932
1.16909
1.16866
1.16817
1.16769
1.16747
1.16734
1.16733
1.16744
1.16762
1.16785
1.1681
1.1683
1.16843
1.16861
1.16865
1.167
1.15641
1.13098
1.11339
1.11863
1.11611
1.1243
1.12136
1.13007
1.12719
1.14074
1.1381
1.14694
1.14631
1.14388
1.14627
1.13533
1.13859
1.12238
1.12235
1.11435
1.10936
1.11506
1.1048
1.12332
1.10858
1.13603
1.12005
1.14291
1.13592
1.13819
1.14303
1.14223
1.12714
1.13517
1.11317
1.10523
1.11117
1.12316
1.13106
1.134
1.12086
1.09655
1.0997
1.10031
1.10444
1.09938
1.09749
1.09862
1.12198
1.10292
1.09901
1.09884
1.10066
1.11144
1.10222
1.17166
1.1713
1.1706
1.17007
1.16981
1.17001
1.17001
1.16988
1.16971
1.16952
1.16934
1.16916
1.16882
1.16832
1.16779
1.16751
1.16735
1.16729
1.16735
1.16751
1.16771
1.16794
1.16818
1.16833
1.16846
1.16858
1.16776
1.16031
1.13825
1.1147
1.11445
1.11299
1.12234
1.1194
1.12864
1.12543
1.13508
1.13188
1.1443
1.14135
1.14953
1.14904
1.14341
1.1478
1.1256
1.13248
1.10792
1.10996
1.09839
1.09608
1.09692
1.08982
1.10341
1.09068
1.1273
1.11771
1.10911
1.10035
1.14117
1.13578
1.11699
1.11791
1.12765
1.14342
1.14139
1.14301
1.14186
1.14038
1.11872
1.10978
1.1165
1.12908
1.13704
1.13923
1.12664
1.10311
1.10382
1.10867
1.10226
1.10109
1.11559
1.10153
1.09681
1.09921
1.1
1.09887
1.09788
1.17169
1.17126
1.17035
1.16972
1.16974
1.16993
1.16986
1.1697
1.16951
1.16934
1.1692
1.16894
1.16848
1.16795
1.16756
1.16736
1.16727
1.16729
1.16741
1.1676
1.1678
1.16802
1.16823
1.16839
1.1685
1.16812
1.16319
1.14525
1.11844
1.11145
1.11673
1.11437
1.12468
1.12166
1.13115
1.12785
1.13801
1.13456
1.14686
1.14346
1.15222
1.15192
1.14157
1.14928
1.11675
1.12774
1.09798
1.10451
1.08748
1.08944
1.08308
1.08083
1.09384
1.08719
1.08339
1.07942
1.10825
1.09957
1.09209
1.13696
1.12867
1.10804
1.10841
1.11867
1.14261
1.14302
1.14276
1.1382
1.14267
1.12422
1.11468
1.12188
1.13469
1.14204
1.14097
1.13217
1.10773
1.10677
1.11322
1.10558
1.10406
1.14796
1.11357
1.09675
1.10233
1.10074
1.09963
1.09723
1.17169
1.17107
1.16995
1.16945
1.1697
1.1698
1.16968
1.16949
1.16932
1.1692
1.16902
1.16862
1.16811
1.16759
1.16738
1.16726
1.16724
1.16733
1.16749
1.16769
1.16788
1.16809
1.16824
1.16837
1.16826
1.16519
1.15122
1.12532
1.11137
1.11366
1.11187
1.11885
1.11623
1.12572
1.12275
1.1323
1.1289
1.13969
1.13591
1.14935
1.14538
1.15495
1.15509
1.14093
1.15138
1.11428
1.12715
1.09563
1.10444
1.08277
1.08854
1.07793
1.0768
1.0771
1.07828
1.08599
1.08126
1.07784
1.07569
1.09899
1.09114
1.08471
1.13004
1.11985
1.09889
1.0992
1.1092
1.13943
1.14302
1.14039
1.13172
1.14306
1.12971
1.1198
1.12725
1.13936
1.14282
1.14248
1.13726
1.11199
1.11075
1.11805
1.10928
1.1075
1.16467
1.09892
1.12299
1.10549
1.10359
1.1017
1.09762
1.17167
1.17067
1.16947
1.16936
1.16964
1.16962
1.16945
1.16927
1.16917
1.16905
1.16875
1.16826
1.16766
1.1674
1.16726
1.16721
1.16726
1.1674
1.16758
1.16777
1.16794
1.16815
1.16827
1.16826
1.16647
1.15639
1.13289
1.11259
1.10993
1.11493
1.11283
1.11999
1.1174
1.12608
1.12314
1.13289
1.12931
1.14103
1.13681
1.15231
1.14778
1.15789
1.15827
1.14221
1.15402
1.11591
1.13017
1.09757
1.10926
1.08042
1.08406
1.0914
1.07469
1.07466
1.0756
1.07756
1.07976
1.0762
1.0739
1.07279
1.0906
1.08382
1.0786
1.12147
1.11046
1.09049
1.09077
1.09999
1.13366
1.14137
1.13562
1.12349
1.14215
1.13479
1.12498
1.13234
1.14192
1.14251
1.1429
1.14096
1.11649
1.1149
1.12294
1.11312
1.11109
1.1655
1.10004
1.12457
1.10877
1.10615
1.10279
1.09771
1.1716
1.1701
1.16914
1.16931
1.1695
1.16937
1.1692
1.16909
1.16904
1.16883
1.1684
1.16776
1.16745
1.16726
1.16718
1.16721
1.16731
1.16748
1.16766
1.16783
1.168
1.16816
1.16823
1.16726
1.16015
1.13992
1.1161
1.10852
1.11133
1.10977
1.11563
1.11351
1.12046
1.11797
1.12643
1.12344
1.1337
1.12984
1.14281
1.13804
1.15581
1.15102
1.16094
1.16142
1.14604
1.1573
1.12252
1.13715
1.1044
1.11883
1.08056
1.08438
1.09977
1.09185
1.07266
1.07321
1.07496
1.07758
1.07486
1.07242
1.07116
1.07091
1.0833
1.07777
1.07381
1.11221
1.10126
1.08317
1.0834
1.09152
1.12588
1.13763
1.12854
1.1144
1.13945
1.13919
1.12991
1.13679
1.14293
1.14108
1.14244
1.14285
1.12099
1.11899
1.12756
1.11686
1.11444
1.16119
1.09982
1.11608
1.11158
1.10798
1.10291
1.09743
1.17138
1.16941
1.16897
1.1692
1.16924
1.1691
1.169
1.16897
1.16886
1.16851
1.16788
1.16751
1.16727
1.16716
1.16716
1.16724
1.16739
1.16755
1.16772
1.16787
1.16802
1.16811
1.16768
1.16289
1.14632
1.12213
1.10889
1.10805
1.11207
1.11038
1.11611
1.11405
1.12077
1.11834
1.12743
1.12421
1.13551
1.13117
1.14564
1.14038
1.15965
1.15519
1.16401
1.16448
1.15204
1.16109
1.13239
1.14609
1.10631
1.11562
1.13153
1.12196
1.08115
1.08601
1.10241
1.09473
1.07127
1.07258
1.07487
1.07798
1.07122
1.06979
1.06941
1.0696
1.07727
1.07304
1.07027
1.10299
1.09271
1.0771
1.07724
1.08405
1.11707
1.13148
1.1202
1.10518
1.13478
1.14204
1.13426
1.14025
1.1434
1.13826
1.14109
1.14356
1.12522
1.12279
1.13163
1.12022
1.11726
1.15167
1.09768
1.10481
1.11362
1.1089
1.1026
1.09682
1.17078
1.16885
1.16877
1.169
1.16897
1.16888
1.16887
1.16885
1.16858
1.16805
1.16757
1.1673
1.16715
1.16711
1.16717
1.1673
1.16746
1.16761
1.16773
1.16787
1.168
1.1678
1.16487
1.15189
1.12871
1.11037
1.10647
1.10954
1.10825
1.11293
1.11124
1.11677
1.11478
1.12143
1.11897
1.12976
1.12606
1.13898
1.13407
1.14982
1.14434
1.16347
1.16006
1.1667
1.16705
1.15842
1.16467
1.1428
1.15447
1.11092
1.11926
1.13383
1.1271
1.08237
1.08795
1.10569
1.09737
1.07058
1.07242
1.07515
1.07887
1.06869
1.06816
1.06822
1.06893
1.07255
1.06956
1.06783
1.09432
1.08508
1.07233
1.07239
1.07775
1.10792
1.12405
1.11137
1.09637
1.12885
1.14348
1.13767
1.14245
1.14294
1.13398
1.13852
1.14393
1.12891
1.12606
1.13492
1.12298
1.11935
1.11491
1.09543
1.09513
1.11486
1.10906
1.10213
1.09606
1.16943
1.16852
1.16859
1.16877
1.16873
1.16875
1.16878
1.16861
1.16817
1.1676
1.16733
1.16715
1.16708
1.16711
1.16721
1.16737
1.16749
1.1676
1.16771
1.16783
1.16776
1.16608
1.15671
1.13512
1.11376
1.10624
1.10706
1.11097
1.10965
1.11418
1.11253
1.11799
1.11598
1.12293
1.12027
1.13401
1.12965
1.1444
1.13899
1.15522
1.14993
1.16667
1.1648
1.16789
1.1682
1.1631
1.16664
1.14498
1.15171
1.15552
1.1608
1.11457
1.1235
1.13899
1.13179
1.08382
1.08999
1.10879
1.10002
1.07037
1.07258
1.07565
1.07997
1.06716
1.06711
1.06761
1.06871
1.06908
1.06719
1.0664
1.0865
1.07859
1.06884
1.06882
1.07273
1.09903
1.11614
1.10262
1.08833
1.12227
1.14403
1.14013
1.14343
1.1419
1.12906
1.13522
1.14366
1.13188
1.12862
1.13725
1.12498
1.12065
1.1266
1.09327
1.0963
1.11528
1.10888
1.10161
1.09555
1.16836
1.16818
1.16842
1.16856
1.16859
1.16867
1.1686
1.16823
1.16765
1.16735
1.16715
1.16705
1.16706
1.16714
1.16727
1.16736
1.16743
1.16749
1.16758
1.1676
1.16654
1.16009
1.14099
1.1187
1.10674
1.10596
1.11011
1.1088
1.11289
1.11153
1.11606
1.11439
1.12017
1.11796
1.12592
1.12279
1.14043
1.1354
1.1514
1.14588
1.16119
1.15658
1.16814
1.16748
1.16823
1.16866
1.1632
1.16577
1.16716
1.14845
1.15342
1.15757
1.16099
1.11797
1.12696
1.14237
1.1352
1.08539
1.0921
1.11167
1.10248
1.07044
1.07296
1.07647
1.08107
1.06628
1.06652
1.06744
1.06876
1.06675
1.06585
1.06566
1.07974
1.07334
1.06651
1.06643
1.06901
1.09076
1.10824
1.09459
1.08129
1.11569
1.14411
1.14158
1.14369
1.13997
1.12389
1.13148
1.14283
1.134
1.13035
1.13862
1.12616
1.12108
1.15731
1.09284
1.10517
1.11517
1.10824
1.10081
1.09464
1.168
1.16803
1.16827
1.16842
1.16853
1.16854
1.16825
1.16769
1.16739
1.16716
1.16704
1.16702
1.16708
1.16718
1.1672
1.16711
1.16701
1.16703
1.16716
1.1665
1.16209
1.14643
1.12398
1.10815
1.10566
1.1085
1.11272
1.11157
1.11546
1.11406
1.11893
1.11706
1.12384
1.12116
1.13091
1.12706
1.14863
1.14325
1.15891
1.15398
1.16595
1.16309
1.16876
1.16861
1.16804
1.16876
1.16367
1.16569
1.16737
1.16647
1.14997
1.15442
1.15804
1.16106
1.12107
1.13001
1.14451
1.13791
1.08692
1.09409
1.11387
1.10427
1.07075
1.07351
1.07718
1.08197
1.0658
1.06644
1.0675
1.06899
1.06549
1.06523
1.06531
1.0742
1.06939
1.06528
1.06521
1.06648
1.0835
1.10107
1.08803
1.07549
1.10943
1.14383
1.14214
1.14344
1.13742
1.1186
1.12728
1.1414
1.13517
1.13113
1.1391
1.12638
1.1209
1.15926
1.0934
1.11105
1.11444
1.10709
1.09956
1.09362
1.16771
1.16795
1.16819
1.16836
1.16843
1.16824
1.16775
1.16743
1.16718
1.16703
1.16698
1.16703
1.16708
1.16693
1.16636
1.16575
1.16548
1.16581
1.16604
1.16269
1.15085
1.12908
1.11117
1.10584
1.10742
1.11455
1.11595
1.11451
1.11901
1.1174
1.12328
1.12095
1.12947
1.1261
1.13809
1.13346
1.15733
1.15235
1.16507
1.16175
1.16807
1.16698
1.16898
1.16905
1.16654
1.16594
1.16741
1.1683
1.16877
1.16342
1.16515
1.16523
1.15086
1.15459
1.15778
1.16026
1.12359
1.13253
1.14615
1.14013
1.08805
1.09551
1.1147
1.10495
1.07108
1.07386
1.07755
1.08238
1.06576
1.06655
1.06771
1.06927
1.06496
1.06498
1.06533
1.06999
1.0667
1.06482
1.06481
1.06526
1.07812
1.09478
1.08273
1.07154
1.10354
1.14308
1.14203
1.14287
1.13444
1.11332
1.123
1.13933
1.13539
1.13109
1.13902
1.12601
1.11992
1.16776
1.09421
1.12223
1.11284
1.10546
1.09807
1.09294
1.16759
1.16792
1.16817
1.16829
1.1682
1.1678
1.16745
1.1672
1.16703
1.16696
1.16698
1.16698
1.16648
1.1648
1.16279
1.16198
1.16287
1.16468
1.16249
1.15329
1.13372
1.11478
1.10662
1.10719
1.11294
1.12243
1.11878
1.12107
1.12025
1.12403
1.12195
1.12953
1.12654
1.13721
1.13308
1.14704
1.14191
1.16442
1.16097
1.16782
1.16653
1.16891
1.16853
1.16902
1.1692
1.16441
1.16325
1.16531
1.16735
1.16851
1.1622
1.16379
1.16299
1.15103
1.15419
1.15666
1.15862
1.12458
1.13362
1.1468
1.1411
1.08853
1.09608
1.11473
1.10499
1.07138
1.07414
1.07779
1.08256
1.06595
1.06683
1.06799
1.06948
1.06483
1.06502
1.06563
1.06747
1.06562
1.06478
1.06487
1.06498
1.07418
1.08935
1.07844
1.06887
1.09815
1.14183
1.14133
1.14169
1.1313
1.10849
1.11894
1.13721
1.13505
1.13029
1.13827
1.12455
1.11767
1.16476
1.09532
1.11696
1.1107
1.10352
1.09639
1.09253
1.16757
1.16792
1.16813
1.16811
1.1678
1.16745
1.16722
1.16703
1.16694
1.16694
1.16687
1.16584
1.1625
1.15896
1.15779
1.15909
1.16176
1.16157
1.15363
1.13761
1.11857
1.10848
1.10749
1.11209
1.12202
1.1241
1.12894
1.12738
1.12593
1.13087
1.12817
1.13775
1.13406
1.14664
1.14198
1.15646
1.15157
1.1676
1.16627
1.16888
1.1684
1.16923
1.16911
1.16869
1.16908
1.16927
1.16137
1.15943
1.16218
1.165
1.16758
1.16022
1.16162
1.15975
1.15011
1.15265
1.15441
1.15582
1.12461
1.13362
1.14642
1.14098
1.08865
1.09617
1.11326
1.10369
1.07146
1.07409
1.07754
1.08206
1.06632
1.06719
1.06826
1.06958
1.06492
1.0654
1.06604
1.06643
1.06552
1.06494
1.06531
1.06526
1.07122
1.0848
1.07502
1.06796
1.0936
1.13987
1.13975
1.13956
1.12809
1.10398
1.11452
1.13407
1.13373
1.12808
1.13586
1.12136
1.11485
1.13577
1.09487
1.10132
1.10828
1.10146
1.09478
1.09216
1.16759
1.16791
1.16801
1.16778
1.16746
1.16724
1.16703
1.16693
1.16691
1.16678
1.16511
1.16003
1.15517
1.15339
1.15469
1.15789
1.15937
1.15314
1.1395
1.12235
1.11108
1.1086
1.11189
1.12091
1.13738
1.13097
1.13719
1.13561
1.13337
1.13958
1.13625
1.1475
1.14334
1.15644
1.15192
1.16412
1.16072
1.16877
1.1683
1.16927
1.16908
1.16935
1.16934
1.16808
1.16896
1.16918
1.16937
1.15701
1.15423
1.15789
1.16178
1.16554
1.1571
1.15836
1.15506
1.14748
1.14941
1.15058
1.15143
1.12302
1.13193
1.14423
1.13912
1.08788
1.09512
1.10934
1.10024
1.07128
1.0735
1.07646
1.08041
1.06677
1.06757
1.06852
1.06961
1.06534
1.06595
1.06663
1.06669
1.06622
1.06558
1.06675
1.06633
1.07045
1.08088
1.07413
1.06859
1.08888
1.13641
1.13637
1.13489
1.12323
1.09833
1.10781
1.12867
1.13049
1.12405
1.13129
1.11773
1.11172
1.15356
1.09294
1.09947
1.10578
1.09945
1.09332
1.0914
1.1676
1.16782
1.16772
1.16746
1.16725
1.16704
1.16691
1.16688
1.16671
1.16449
1.15801
1.15183
1.14907
1.14979
1.15291
1.15538
1.15153
1.13941
1.1254
1.11417
1.11086
1.11234
1.12061
1.13624
1.15465
1.14464
1.15413
1.13971
1.14721
1.14263
1.14967
1.14599
1.15761
1.15355
1.16428
1.16137
1.16752
1.16625
1.1692
1.16899
1.16943
1.16936
1.16945
1.16947
1.16665
1.16854
1.16899
1.16935
1.15114
1.14788
1.15254
1.15752
1.16241
1.1524
1.15356
1.14875
1.14243
1.1439
1.14458
1.14507
1.11882
1.12756
1.13953
1.13466
1.08561
1.09223
1.10266
1.0945
1.07091
1.07246
1.07464
1.07772
1.06725
1.06804
1.0689
1.06979
1.06643
1.06712
1.06779
1.06814
1.06831
1.06734
1.06989
1.06932
1.07163
1.07884
1.07522
1.07138
1.08455
1.12964
1.13082
1.12785
1.11497
1.09063
1.09829
1.1194
1.12529
1.11944
1.12545
1.11402
1.10873
1.15234
1.09178
1.09796
1.10356
1.09757
1.09219
1.09056
1.16758
1.1676
1.16744
1.16726
1.16704
1.1669
1.16685
1.16668
1.1642
1.15674
1.1492
1.14521
1.14487
1.14704
1.14934
1.14786
1.13849
1.12673
1.11709
1.11353
1.11398
1.12101
1.13602
1.1574
1.15602
1.16302
1.16175
1.15004
1.15816
1.1532
1.15995
1.15662
1.16504
1.1629
1.16762
1.16657
1.16871
1.16829
1.1694
1.16927
1.16952
1.16948
1.16949
1.16954
1.16956
1.16438
1.16782
1.16861
1.16929
1.14399
1.14084
1.14661
1.15281
1.1589
1.14583
1.14701
1.14093
1.13445
1.13556
1.13605
1.13642
1.1115
1.11988
1.1317
1.12691
1.08194
1.08751
1.09324
1.08665
1.07069
1.07174
1.07285
1.07442
1.06846
1.0691
1.06967
1.07033
1.06791
1.06907
1.07035
1.07169
1.07285
1.07153
1.07627
1.07409
1.07432
1.07954
1.07766
1.07413
1.08452
1.12134
1.1243
1.12091
1.10571
1.09103
1.09736
1.11146
1.1201
1.11556
1.12031
1.11079
1.10633
0.894179
1.09049
1.09035
1.10156
1.09575
1.09116
1.08969
1.16747
1.16739
1.16726
1.16704
1.16689
1.16682
1.16667
1.16419
1.15623
1.14741
1.14209
1.14069
1.14147
1.14253
1.14126
1.13561
1.12667
1.11913
1.11624
1.11658
1.12261
1.13716
1.15676
1.16706
1.16414
1.167
1.16671
1.16055
1.16523
1.1628
1.16605
1.16462
1.16787
1.16711
1.16871
1.16837
1.16912
1.16894
1.16951
1.16944
1.16966
1.16956
1.16948
1.16956
1.16966
1.16967
1.16165
1.16664
1.1681
1.16916
1.13591
1.13355
1.14058
1.14803
1.15524
1.13723
1.13868
1.13187
1.12326
1.12442
1.12497
1.12553
1.10097
1.10869
1.12043
1.11552
1.07711
1.08118
1.08184
1.07759
1.071
1.07158
1.07215
1.07278
1.07104
1.07162
1.07181
1.07193
1.07448
1.07737
1.0776
1.07558
1.07589
1.07788
1.10023
1.10023
1.07839
1.08195
1.08231
1.07832
1.08866
1.11488
1.11938
1.11642
1.10363
1.09421
1.1004
1.10874
1.11622
1.11227
1.11637
1.10857
1.10432
0.478058
1.0891
1.0398
1.09968
1.0942
1.09022
1.0887
1.16734
1.16725
1.16704
1.16688
1.1668
1.16668
1.16442
1.15626
1.14659
1.14023
1.13806
1.13774
1.13737
1.13555
1.13167
1.12644
1.12062
1.11882
1.11968
1.12568
1.13992
1.15733
1.16695
1.16848
1.16804
1.16744
1.16826
1.16621
1.16782
1.16704
1.16815
1.16767
1.16874
1.16849
1.16906
1.16892
1.16931
1.16918
1.1696
1.16953
1.16979
1.1697
1.16977
1.16976
1.16947
1.16962
1.1697
1.15922
1.16501
1.16745
1.16896
1.1273
1.12647
1.13493
1.1437
1.15202
1.12672
1.12879
1.12194
1.10944
1.11108
1.11209
1.11304
1.08775
1.09454
1.10602
1.10083
1.07344
1.07497
1.0737
1.07289
1.07217
1.07247
1.07254
1.07251
1.07796
1.07809
1.07759
1.07704
1.07929
1.10153
1.10127
1.09983
1.09904
1.09962
1.12049
1.12033
1.10032
1.0874
1.10141
1.09821
1.10337
1.11187
1.11559
1.11346
1.10602
1.10449
1.10756
1.11018
1.11284
1.10999
1.11318
1.10641
1.10235
0.408077
1.08534
0.891176
1.09793
1.09264
1.08924
1.08768
1.16721
1.16703
1.16686
1.16678
1.1667
1.16504
1.15676
1.14655
1.13954
1.13708
1.13649
1.13586
1.13416
1.13124
1.12705
1.12283
1.12199
1.12372
1.13047
1.14417
1.15907
1.16707
1.1684
1.1687
1.16853
1.16867
1.16865
1.16842
1.16861
1.16814
1.16855
1.1684
1.16876
1.1686
1.16901
1.16889
1.16922
1.16912
1.16945
1.16933
1.1698
1.16962
1.16979
1.16982
1.16981
1.16986
1.16942
1.16964
1.16976
1.15729
1.16337
1.16671
1.16871
1.11862
1.11981
1.12988
1.14
1.14942
1.11487
1.11777
1.11185
1.09373
1.0963
1.09845
1.10012
1.07563
1.07901
1.08929
1.08415
1.07235
1.07242
1.0714
1.0718
1.07616
1.07549
1.07449
1.0742
1.10003
1.10026
1.09921
1.09888
1.09984
1.12036
1.1203
1.12028
1.12019
1.12021
1.14188
1.14188
1.12016
1.10003
1.1205
1.11955
1.12066
1.11231
1.11326
1.11339
1.1101
1.12094
1.12185
1.11314
1.1107
1.10768
1.11179
1.10459
1.10071
0.351651
1.06774
0.564435
1.09638
1.09131
1.08849
1.08507
1.167
1.16684
1.16675
1.16671
1.16566
1.1582
1.14694
1.13955
1.13705
1.13653
1.13625
1.13502
1.13266
1.12956
1.12733
1.1274
1.12999
1.13743
1.14976
1.1614
1.16723
1.16835
1.16859
1.16876
1.16877
1.16874
1.1687
1.16869
1.16867
1.16877
1.16878
1.16897
1.16887
1.16915
1.16905
1.16934
1.16923
1.16954
1.16946
1.1699
1.16982
1.16982
1.16988
1.16987
1.16992
1.1699
1.16994
1.16934
1.16966
1.16979
1.15613
1.16234
1.16616
1.16847
1.11032
1.11369
1.12545
1.13701
1.1476
1.10275
1.10656
1.10238
1.07771
1.0812
1.08473
1.08772
1.07123
1.07148