/*--------------------------------*- C++ -*----------------------------------*\
  =========                 |
  \\      /  F ield         | OpenFOAM: The Open Source CFD Toolbox
   \\    /   O peration     | Website:  https://openfoam.org
    \\  /    A nd           | Version:  dev
     \\/     M anipulation  |
\*---------------------------------------------------------------------------*/
FoamFile
{
    version     2.0;
    format      ascii;
    class       volScalarField;
    location    "2500";
    object      T;
}
// * * * * * * * * * * * * * * * * * * * * * * * * * * * * * * * * * * * * * //

dimensions      [0 0 0 1 0 0 0];

internalField   nonuniform List<scalar> 
9978
(
300.101
300.152
300.116
300.159
300.244
300.116
300.159
300.288
300.242
300.089
300.154
300.304
300.336
300.224
300.086
300.145
300.308
300.398
300.33
300.189
300.076
300.121
300.3
300.43
300.411
300.3
300.163
300.068
300.128
300.319
300.45
300.479
300.399
300.274
300.157
300.066
300.114
300.296
300.45
300.513
300.478
300.358
300.244
300.144
300.057
300.11
300.293
300.443
300.539
300.54
300.444
300.324
300.222
300.136
300.059
300.107
300.284
300.424
300.539
300.585
300.543
300.422
300.303
300.201
300.12
300.056
300.112
300.276
300.401
300.553
300.621
300.593
300.497
300.388
300.28
300.195
300.117
300.051
300.118
300.264
300.386
300.549
300.637
300.643
300.585
300.457
300.365
300.26
300.188
300.117
300.052
300.114
300.241
300.388
300.543
300.65
300.681
300.643
300.542
300.437
300.33
300.249
300.179
300.111
300.048
300.107
300.229
300.376
300.514
300.646
300.71
300.689
300.62
300.512
300.405
300.319
300.244
300.174
300.107
300.048
300.097
300.236
300.359
300.504
300.63
300.721
300.735
300.679
300.574
300.486
300.386
300.304
300.235
300.166
300.108
300.047
300.102
300.233
300.355
300.492
300.603
300.727
300.762
300.737
300.66
300.542
300.451
300.366
300.294
300.227
300.165
300.102
300.046
300.093
300.222
300.338
300.451
300.576
300.718
300.78
300.785
300.722
300.627
300.515
300.431
300.352
300.288
300.219
300.163
300.102
300.045
300.091
300.212
300.323
300.436
300.57
300.71
300.793
300.811
300.778
300.688
300.578
300.492
300.411
300.337
300.276
300.215
300.161
300.103
300.048
300.094
300.213
300.326
300.434
300.546
300.685
300.791
300.832
300.817
300.76
300.656
300.546
300.471
300.401
300.334
300.27
300.215
300.154
300.101
300.045
300.09
300.192
300.312
300.41
300.512
300.657
300.779
300.844
300.849
300.805
300.718
300.625
300.528
300.456
300.381
300.323
300.268
300.213
300.151
300.101
300.045
300.083
300.189
300.295
300.395
300.508
300.616
300.761
300.844
300.871
300.849
300.783
300.683
300.591
300.506
300.438
300.375
300.319
300.264
300.207
300.157
300.103
300.045
300.081
300.191
300.286
300.394
300.487
300.581
300.743
300.835
300.885
300.882
300.835
300.748
300.647
300.561
300.491
300.429
300.369
300.316
300.259
300.21
300.155
300.103
300.048
300.082
300.181
300.278
300.377
300.474
300.568
300.715
300.82
300.889
300.906
300.877
300.807
300.721
300.614
300.54
300.473
300.418
300.363
300.314
300.258
300.208
300.155
300.101
300.048
300.075
300.168
300.27
300.361
300.457
300.545
300.672
300.786
300.885
300.923
300.912
300.86
300.779
300.675
300.588
300.528
300.462
300.41
300.361
300.309
300.259
300.21
300.155
300.103
300.047
300.077
300.166
300.253
300.348
300.435
300.523
300.646
300.75
300.876
300.929
300.939
300.901
300.837
300.736
300.65
300.572
300.511
300.456
300.4
300.358
300.309
300.26
300.209
300.157
300.106
300.051
300.073
300.155
300.244
300.338
300.413
300.507
300.624
300.73
300.853
300.926
300.955
300.94
300.884
300.787
300.7
300.628
300.557
300.501
300.447
300.401
300.355
300.308
300.261
300.213
300.162
300.109
300.053
300.068
300.15
300.235
300.317
300.399
300.491
300.576
300.689
300.808
300.918
300.967
300.969
300.928
300.853
300.765
300.675
300.598
300.542
300.494
300.443
300.399
300.354
300.309
300.263
300.215
300.165
300.113
300.055
300.064
300.152
300.232
300.309
300.393
300.471
300.556
300.655
300.779
300.905
300.967
300.986
300.965
300.904
300.815
300.722
300.65
300.588
300.535
300.484
300.438
300.397
300.354
300.311
300.268
300.22
300.172
300.118
300.059
300.066
300.147
300.223
300.293
300.38
300.453
300.532
300.636
300.731
300.875
300.96
300.995
300.99
300.951
300.866
300.782
300.698
300.626
300.578
300.519
300.478
300.438
300.397
300.356
300.316
300.274
300.228
300.179
300.124
300.062
300.06
300.134
300.216
300.28
300.363
300.441
300.518
300.61
300.701
300.848
300.943
300.994
301.013
300.987
300.919
300.834
300.751
300.679
300.613
300.568
300.517
300.471
300.437
300.398
300.359
300.32
300.28
300.236
300.188
300.132
300.066
300.059
300.137
300.21
300.271
300.344
300.415
300.505
300.587
300.671
300.807
300.923
300.99
301.03
301.014
300.967
300.886
300.808
300.723
300.662
300.605
300.557
300.516
300.476
300.435
300.399
300.363
300.326
300.288
300.247
300.198
300.142
300.073
300.056
300.132
300.198
300.259
300.335
300.408
300.476
300.566
300.653
300.774
300.887
300.982
301.029
301.037
301.005
300.931
300.855
300.764
300.692
300.645
300.591
300.554
300.511
300.476
300.435
300.402
300.368
300.335
300.3
300.259
300.212
300.154
300.079
300.059
300.129
300.195
300.258
300.322
300.391
300.464
300.547
300.626
300.728
300.852
300.956
301.025
301.052
301.035
300.983
300.901
300.817
300.744
300.677
300.63
300.586
300.547
300.499
300.471
300.437
300.407
300.378
300.347
300.314
300.275
300.23
300.171
300.072
300.054
300.119
300.187
300.251
300.308
300.375
300.445
300.524
300.594
300.685
300.812
300.927
301.014
301.055
301.056
301.018
300.952
300.871
300.797
300.719
300.673
300.624
300.575
300.541
300.499
300.472
300.443
300.416
300.389
300.361
300.331
300.294
300.251
300.168
300.21
300.041
300.141
300.106
300.055
300.122
300.182
300.244
300.297
300.365
300.438
300.509
300.574
300.67
300.777
300.896
300.991
301.053
301.071
301.051
300.995
300.919
300.839
300.772
300.704
300.656
300.611
300.57
300.539
300.5
300.477
300.451
300.427
300.403
300.378
300.35
300.31
300.251
300.29
300.201
300.044
300.168
300.115
300.051
300.115
300.176
300.238
300.296
300.359
300.424
300.484
300.558
300.64
300.739
300.854
300.965
301.042
301.076
301.072
301.032
300.965
300.887
300.81
300.752
300.695
300.647
300.596
300.565
300.54
300.5
300.484
300.46
300.44
300.419
300.397
300.354
300.379
300.323
300.349
300.358
300.253
300.299
300.227
300.046
300.183
300.124
300.055
300.117
300.176
300.23
300.291
300.341
300.409
300.47
300.54
300.611
300.685
300.822
300.93
301.021
301.072
301.091
301.065
301.006
300.931
300.86
300.79
300.731
300.689
300.653
300.595
300.56
300.542
300.504
300.492
300.473
300.458
300.44
300.401
300.427
300.383
300.339
300.389
300.374
300.279
300.324
300.245
300.049
300.198
300.133
300.053
300.114
300.166
300.22
300.284
300.336
300.397
300.458
300.525
300.598
300.666
300.777
300.893
300.999
301.064
301.1
301.089
301.043
300.971
300.901
300.831
300.768
300.721
300.677
300.637
300.606
300.561
300.543
300.512
300.508
300.5
300.5
300.455
300.504
300.417
300.457
300.422
300.363
300.41
300.402
300.298
300.344
300.264
300.051
300.214
300.142
300.053
300.11
300.166
300.221
300.271
300.323
300.379
300.444
300.509
300.571
300.643
300.749
300.863
300.966
301.05
301.097
301.106
301.077
301.019
300.942
300.872
300.809
300.751
300.701
300.668
300.627
300.604
300.569
300.552
300.535
300.572
300.651
300.59
300.775
300.526
300.671
300.467
300.558
300.463
300.387
300.46
300.449
300.319
300.369
300.284
300.054
300.23
300.15
300.051
300.108
300.163
300.218
300.268
300.324
300.37
300.426
300.48
300.554
300.624
300.715
300.829
300.935
301.016
301.087
301.116
301.102
301.055
300.988
300.912
300.846
300.793
300.734
300.692
300.653
300.625
300.586
300.576
300.591
300.695
301.033
301.103
301.714
300.981
301.585
300.772
301.255
300.581
300.88
300.6
300.432
300.602
300.586
300.343
300.408
300.305
300.056
300.247
300.158
300.051
300.109
300.16
300.211
300.255
300.307
300.362
300.416
300.472
300.538
300.593
300.683
300.778
300.902
300.993
301.069
301.119
301.12
301.086
301.024
300.956
300.889
300.826
300.773
300.723
300.679
300.645
300.63
300.596
300.645
300.891
301.778
302.422
303.434
302.528
303.722
302.185
303.539
301.572
302.874
300.983
301.897
301.051
300.551
301.069
301.028
300.376
300.5
300.332
300.054
300.265
300.159
300.053
300.111
300.161
300.208
300.253
300.301
300.353
300.4
300.46
300.515
300.585
300.667
300.742
300.854
300.965
301.05
301.116
301.131
301.112
301.062
300.995
300.927
300.864
300.806
300.757
300.71
300.669
300.645
300.639
300.696
301.199
302.686
304.335
305.445
305.07
306.428
305.135
306.833
304.619
306.574
303.563
305.656
302.164
304.164
302.324
300.927
302.352
302.241
300.441
300.783
300.375
300.047
300.286
300.157
300.056
300.115
300.164
300.209
300.251
300.295
300.341
300.389
300.433
300.494
300.565
300.636
300.706
300.823
300.93
301.023
301.101
301.138
301.132
301.097
301.032
300.961
300.902
300.844
300.791
300.744
300.697
300.667
300.653
300.739
301.361
303.721
306.28
307.22
307.741
308.94
308.514
310.077
308.565
310.506
307.901
310.172
306.547
309.048
304.589
307.231
304.814
301.987
304.817
304.586
300.631
301.623
300.488
300.06
300.331
300.204
300.06
300.121
300.17
300.212
300.251
300.293
300.337
300.38
300.421
300.481
300.545
300.61
300.685
300.794
300.889
300.988
301.085
301.134
301.146
301.123
301.071
301.006
300.937
300.884
300.825
300.777
300.73
300.689
300.669
300.746
301.5
304.177
307.856
308.525
309.972
310.862
311.509
312.72
312.346
313.846
312.348
314.273
311.542
313.948
309.965
312.66
307.664
310.623
307.853
304.116
307.797
307.5
301.217
303.438
300.837
300.1
300.552
300.366
300.066
300.13
300.178
300.218
300.254
300.296
300.335
300.371
300.414
300.467
300.526
300.584
300.658
300.755
300.855
300.958
301.065
301.121
301.152
301.144
301.104
301.043
300.977
300.923
300.862
300.809
300.763
300.717
300.689
300.745
301.492
304.635
309
308.887
311.573
312.171
313.628
314.224
314.819
315.268
315.428
315.873
315.669
316.309
315.193
316.532
313.532
316.129
310.998
314.106
311.112
306.948
310.98
310.604
302.639
306.193
301.901
300.122
301.322
300.774
300.076
300.146
300.193
300.229
300.261
300.3
300.334
300.365
300.408
300.457
300.513
300.565
300.618
300.726
300.821
300.92
301.03
301.104
301.153
301.157
301.135
301.081
301.016
300.956
300.899
300.843
300.794
300.749
300.712
300.741
301.433
304.598
311.227
312.449
313.18
314.545
314.736
315.437
315.43
315.906
315.796
316.342
316.124
316.802
316.587
317.16
317.166
316.775
317.651
314.378
317.219
314.407
310.004
314.203
313.779
305.261
309.253
304.319
300.203
303.206
302.135
300.091
300.171
300.218
300.249
300.275
300.307
300.332
300.361
300.403
300.45
300.506
300.551
300.594
300.703
300.787
300.889
300.998
301.082
301.149
301.166
301.152
301.115
301.054
300.984
300.934
300.878
300.827
300.78
300.739
300.743
301.299
304.397
311.012
314.861
314.816
314.798
314.89
315.391
315.315
315.547
315.165
315.595
314.704
315.887
314.587
316.609
315.197
317.459
316.433
318.076
317.75
317.446
318.479
317.442
313.188
317.238
316.832
308.471
312.549
307.733
301.699
306.798
306.998
300.108
300.2
300.25
300.28
300.301
300.324
300.339
300.364
300.399
300.448
300.502
300.542
300.575
300.664
300.758
300.85
300.953
301.059
301.133
301.17
301.171
301.139
301.078
301.019
300.96
300.911
300.861
300.813
300.768
300.753
301.149
303.951
310.449
314.757
314.666
315.157
315.173
315.226
315.168
314.725
314.31
313.732
312.844
313.062
311.564
313.176
311.13
314.324
311.778
316.254
313.56
318.078
316.214
318.838
318.488
319.114
316.33
319.247
319.208
312.01
315.891
311.903
308.671
312.91
315.969
300.096
300.21
300.27
300.307
300.332
300.35
300.351
300.363
300.394
300.442
300.492
300.531
300.563
300.632
300.734
300.81
300.919
301.034
301.112
301.165
301.18
301.162
301.117
301.051
300.989
300.942
300.893
300.845
300.801
300.771
301.019
303.303
309.421
314.519
313.969
315.201
315.26
313.833
313.898
314.004
313.833
312.076
311.519
310.4
309.593
309.552
308.754
309.552
308.394
310.664
308.532
313.107
309.957
316.413
313.022
318.965
316.887
319.437
319.024
319.833
320.122
315.786
318.895
316.744
307.136
318.838
315.914
300.132
300.249
300.307
300.344
300.371
300.378
300.381
300.413
300.455
300.498
300.534
300.564
300.622
300.706
300.77
300.872
300.989
301.087
301.156
301.184
301.179
301.144
301.088
301.022
300.966
300.923
300.877
300.832
300.799
300.927
302.641
308.177
314.569
315.338
315.544
314.05
314.318
311.232
311.422
311.222
311.163
309.091
308.78
308.396
308.203
308.058
308.046
307.774
307.758
307.956
307.453
309.634
307.661
313.329
309.666
317.581
314.031
318.374
320.334
319.15
319.798
319.263
320.567
320.264
300.675
320.023
308.789
300.121
300.24
300.319
300.365
300.396
300.412
300.438
300.455
300.482
300.52
300.552
300.596
300.67
300.737
300.823
300.948
301.056
301.14
301.182
301.192
301.17
301.123
301.061
300.996
300.951
300.908
300.865
300.823
300.881
302.05
306.773
313.824
315.258
315.471
314.604
315.014
311.786
312.252
308.793
309.116
308.609
308.641
308.035
307.815
308.131
308.173
308.183
308.944
307.784
309.023
307.302
308.136
307.572
307.28
310.04
307.644
315.003
310.746
316.092
320.259
317.188
318.137
320.908
320.607
321.048
300.334
318.843
306.81
300.105
300.212
300.321
300.385
300.431
300.472
300.46
300.48
300.514
300.548
300.59
300.65
300.705
300.781
300.904
301.021
301.124
301.176
301.199
301.191
301.153
301.098
301.034
300.974
300.939
300.894
300.858
300.867
301.595
305.306
312.437
315.501
314.029
314.611
312.799
313.421
309.607
310.222
307.312
307.557
307.522
307.302
308.073
307.768
309.586
309.826
310.746
312.258
310.303
312.938
308.635
311.637
307.34
309.08
307.844
307.406
311.724
308.196
313.119
318.839
314.264
315.091
317.07
320.812
320.072
319.097
320.649
301.261
318.233
312.491
300.092
300.184
300.329
300.423
300.496
300.491
300.482
300.505
300.545
300.587
300.639
300.689
300.748
300.859
300.986
301.109
301.167
301.201
301.204
301.179
301.131
301.073
301.01
300.959
300.926
300.881
300.871
301.287
303.993
310.686
315.49
314.047
314.739
312.498
313.299
310.936
311.713
308.092
308.79
306.461
306.625
307.264
306.638
309.534
308.665
313.032
313.041
315.239
316.628
315.042
317.904
312.773
316.841
309.346
313.665
307.52
309.375
308.766
307.489
307.699
311.726
309.569
315.546
317.76
316.102
312.804
310.668
309.882
313.433
320.217
319.321
319.149
317.981
319.411
319.949
319.626
313.111
318.407
319.514
319.562
319.046
316.019
318.603
300.081
300.172
300.353
300.489
300.557
300.507
300.507
300.542
300.586
300.636
300.683
300.729
300.818
300.947
301.085
301.158
301.199
301.214
301.2
301.16
301.108
301.05
300.99
300.95
300.918
300.887
301.095
302.99
308.744
315.128
315.199
315.604
313.034
313.839
311.323
312.193
309.595
310.453
307.154
307.932
305.784
305.912
307.389
306.236
312.155
310.298
317.03
316.462
319.721
320.383
320.137
322.177
318.295
321.926
311.69
314.309
316.693
319.158
307.979
309.412
314.504
314.252
311.595
307.387
307.919
307.494
307.799
308.186
314.017
316.489
314.628
311.202
309.071
308.492
311.861
318.355
318.156
316.798
318.594
318.925
314.865
318.795
320.139
319.456
319.232
319.552
319.834
300.073
300.183
300.416
300.578
300.576
300.528
300.544
300.586
300.636
300.681
300.718
300.785
300.905
301.043
301.144
301.194
301.219
301.214
301.184
301.137
301.085
301.03
300.976
300.936
300.908
301.003
302.253
306.895
314.095
316.03
314.571
315.222
312.397
313.22
310.65
311.54
308.816
309.735
306.481
307.374
305.082
305.162
307.876
305.85
314.578
311.576
319.84
317.991
322.856
322.291
324.135
324.796
321.016
322.935
324.042
325.207
316.931
319.379
321.517
309.096
311.319
316.991
316.887
314.043
307.601
307.492
307.561
308.767
307.583
312.516
315.13
313.153
309.697
307.749
308.032
310.371
317.06
317.328
315.533
317.659
318.086
306.175
315.423
320.152
318.574
319.023
319.335
320.015
300.071
300.232
300.52
300.649
300.585
300.559
300.592
300.641
300.686
300.717
300.763
300.867
301
301.135
301.189
301.221
301.226
301.205
301.163
301.114
301.065
301.012
300.973
300.94
300.968
301.745
305.336
312.215
316.051
315.42
315.916
313.99
314.711
312.118
312.925
310.342
311.258
308.371
309.375
305.829
306.869
304.376
304.34
308.043
305.302
315.26
311.736
320.512
318.01
324.229
322.55
325.646
325.98
325.893
325.545
323.282
324.665
325.67
326.307
319.543
321.791
323.654
310.949
313.718
319.569
319.482
316.666
308.441
307.492
308.187
310.498
307.482
311.033
313.72
311.694
308.458
307.545
307.635
309.014
315.874
316.217
314.201
316.626
317.121
301.876
319.533
312.836
317.683
318.216
318.748
319.903
300.076
300.334
300.641
300.671
300.601
300.607
300.651
300.697
300.725
300.755
300.835
300.96
301.115
301.183
301.221
301.235
301.223
301.187
301.141
301.093
301.048
300.997
300.965
300.968
301.42
303.997
310.174
315.712
316.457
315.07
315.652
313.678
314.391
312.022
312.82
310.184
311.146
308.015
309.136
305.06
306.239
303.618
303.519
307.706
304.616
314.81
310.918
319.954
316.657
324.916
323.849
321.722
326.604
326.614
326.334
325.756
325.104
326.155
326.837
327.167
321.945
323.912
325.443
313.274
316.312
321.975
321.893
319.256
309.976
307.928
309.455
312.724
307.722
309.67
312.31
310.325
307.781
307.625
307.524
308.034
314.629
315.067
312.864
315.558
316.122
301.665
319.215
312.406
316.765
317.497
318.44
319.876
300.096
300.481
300.728
300.685
300.638
300.671
300.714
300.743
300.758
300.811
300.924
301.09
301.171
301.22
301.241
301.235
301.208
301.167
301.121
301.077
301.034
300.993
300.976
301.221
303.03
308.299
314.739
316.85
316.069
316.504
314.878
315.466
313.553
314.236
311.925
312.74
309.966
311.004
307.546
308.808
304.152
305.393
302.836
302.712
306.697
303.771
312.995
309.047
318.018
314.004
324.874
323.755
319.327
321.59
327.207
327.041
326.524
325.748
326.55
327.275
327.649
327.726
324.062
325.686
326.859
315.825
318.896
324.1
324.032
321.677
312.073
308.92
311.355
315.218
308.436
308.503
310.977
309.138
307.515
308.005
307.645
307.536
313.396
313.943
311.61
314.526
315.191
302.762
319.276
314.731
315.983
316.984
318.404
319.956
300.151
300.657
300.771
300.713
300.703
300.739
300.767
300.774
300.803
300.895
301.059
301.155
301.217
301.246
301.248
301.226
301.189
301.149
301.106
301.066
301.027
301.007
301.113
302.33
306.612
313.083
316.746
316.985
315.865
316.337
314.749
315.319
313.469
314.134
311.656
312.529
309.483
310.645
306.8
308.186
303.165
304.312
302.052
301.932
305.132
302.796
310.32
306.684
317.48
314.888
310.55
313.145
324.699
323.279
318.577
320.763
327.618
327.229
326.548
325.63
327.631
328.058
328.173
328.114
325.834
327.087
327.912
318.407
321.335
325.883
325.838
323.842
314.481
310.562
313.621
317.788
309.676
307.748
309.812
308.221
307.393
308.751
308.001
307.348
312.245
312.904
310.515
313.603
314.414
305.21
319.883
317.868
315.416
316.725
318.489
320.127
300.304
300.802
300.822
300.765
300.774
300.797
300.799
300.807
300.875
301.013
301.137
301.209
301.248
301.259
301.244
301.211
301.172
301.133
301.101
301.067
301.034
301.084
301.826
305.16
311.297
316.331
317.425
316.572
316.93
315.63
316.098
314.566
315.118
313.288
313.962
311.026
312.025
308.556
309.867
305.706
307.142
302.188
303.06
301.368
301.279
303.482
301.884
307.548
304.5
316.189
313.884
309.934
311.745
324.341
322.715
317.652
320.006
327.822
327.273
326.464
325.364
328.386
328.545
328.527
328.315
327.233
328.123
328.642
320.872
323.538
327.294
327.276
325.688
317.021
312.571
316.057
320.283
311.269
307.37
308.905
307.642
307.513
309.892
308.681
307.251
311.245
312.014
309.635
312.851
313.841
315.053
320.526
320.613
315.074
316.679
318.62
320.344
300.651
300.887
300.868
300.825
300.835
300.832
300.824
300.867
300.983
301.131
301.201
301.247
301.267
301.26
301.233
301.194
301.162
301.135
301.106
301.075
301.094
301.519
303.914
309.577
315.388
317.49
317.264
316.174
316.54
315.284
315.741
314.232
314.784
312.877
313.604
309.882
311.055
307.126
308.556
304.303
305.677
301.376
301.848
301.065
300.987
302.283
301.383
306.974
305.215
304.229
302.871
315.176
312.725
308.556
310.481
323.916
322.124
316.781
319.252
327.884
327.224
326.313
325.04
328.843
328.859
328.707
328.378
328.264
328.831
329.069
323.126
325.439
328.335
328.339
327.172
319.527
314.737
318.508
322.594
313.054
307.226
308.252
307.382
307.787
311.211
309.56
307.322
310.447
311.323
309.015
312.308
313.485
311.853
321.142
320.277
314.956
316.728
318.766
320.487
300.926
300.973
300.913
300.878
300.87
300.851
300.87
300.966
301.116
301.194
301.246
301.272
301.272
301.25
301.219
301.195
301.177
301.162
301.139
301.133
301.402
303.046
308.016
314.024
317.347
317.57
316.413
316.778
315.641
316.019
314.764
315.223
313.634
314.241
312.065
312.917
308.173
309.51
305.295
306.735
302.769
303.954
301.001
301.168
300.979
300.871
302.258
301.604
301.25
306.064
304.773
303.7
302.822
314.238
311.783
307.663
309.565
323.455
321.514
315.979
318.553
327.861
327.111
326.07
324.715
329.103
329.031
328.755
328.36
328.961
329.233
329.288
325.098
326.99
329.033
329.054
328.282
321.891
316.93
320.791
324.642
314.86
307.203
307.87
307.313
308.296
312.61
310.56
307.541
309.88
310.858
308.651
311.988
313.367
303.757
321.263
317.767
314.985
316.903
318.988
320.746
301.021
301.013
300.951
300.913
300.887
300.885
300.96
301.104
301.184
301.243
301.276
301.282
301.265
301.241
301.236
301.258
301.284
301.279
301.247
301.413
302.535
306.584
312.58
316.951
317.656
316.86
315.688
316.006
314.928
315.316
313.974
314.487
312.629
313.362
310.714
311.753
306.016
307.427
303.353
304.623
301.558
302.283
300.844
300.882
301.027
300.846
302.138
301.623
301.196
301.426
305.669
304.513
303.58
302.804
313.386
310.958
307.099
308.844
323.009
320.943
315.368
318.048
327.765
326.944
325.858
324.45
329.246
329.054
328.736
328.291
329.338
329.415
329.392
326.733
328.164
329.398
329.418
329.036
323.995
318.944
322.678
326.349
316.593
307.277
307.722
307.379
308.972
314.055
311.69
307.918
309.569
310.647
308.524
311.927
313.414
303.254
321.104
316.124
315.184
317.22
319.339
321.035
301.095
301.035
300.972
300.929
300.912
300.961
301.09
301.173
301.237
301.277
301.29
301.278
301.265
301.302
301.449
301.603
301.67
301.586
301.527
302.38
305.43
311.197
316.109
317.604
317.162
315.178
314.791
315.191
313.949
314.394
312.78
313.417
311.102
312.014
308.794
310.029
303.759
305.047
301.781
302.626
301.02
301.295
300.789
300.771
301.407
301.559
301.186
300.96
300.842
302.201
301.76
301.739
305.437
304.469
303.645
303.008
312.699
310.279
306.667
308.254
322.68
320.533
315.137
317.856
327.665
326.84
325.747
324.329
329.256
329.019
328.668
328.203
329.495
329.487
329.38
327.983
328.968
329.534
329.536
329.4
325.572
320.733
324.217
327.519
318.243
307.473
307.75
307.529
309.764
315.509
312.849
308.464
309.509
310.658
308.545
312.025
313.681
301.094
320.872
313.042
315.623
317.673
319.761
321.23
301.125
301.04
300.977
300.948
300.971
301.076
301.166
301.231
301.277
301.296
301.29
301.29
301.417
301.844
302.356
302.562
302.336
301.874
302.431
304.797
309.949
315.108
317.384
317.226
315.624
313.01
314.011
313.383
313.608
312.575
313.143
311.085
311.895
309.026
310.129
306.43
307.781
301.945
302.826
301.082
301.409
300.808
300.902
300.777
300.733
301.948
302.241
301.718
301.2
300.907
302.512
302.106
302.31
305.391
304.572
303.933
303.428
312.429
309.988
306.496
307.996
322.54
320.37
315.128
317.844
327.572
326.751
325.673
324.274
329.194
328.93
328.582
328.134
329.531
329.472
329.286
328.736
329.291
329.543
329.512
329.48
326.733
322.293
325.473
328.312
319.768
307.802
307.935
307.839
310.604
316.851
313.958
309.026
309.601
310.873
308.745
312.419
314.293
301.852
320.553
314.489
316.21
318.214
320.236
321.347
301.13
301.041
300.987
300.995
301.075
301.165
301.226
301.276
301.3
301.3
301.317
301.578
302.428
303.334
303.636
303.301
302.619
302.666
304.709
308.91
314.06
316.862
317.144
315.861
313.124
312.557
311.243
311.665
312.058
310.723
311.451
308.881
309.868
306.536
307.761
303.983
305.25
301.138
301.474
300.815
300.934
300.725
300.756
300.86
300.762
300.716
302.722
303.22
302.515
301.796
301.141
303.019
302.66
303.137
305.632
304.97
304.515
304.149
312.421
309.988
306.597
308.03
322.504
320.346
315.535
318.212
327.544
326.764
325.744
324.419
329.078
328.815
328.495
328.098
329.498
329.353
329.157
329.043
329.313
329.489
329.372
329.39
327.607
323.608
326.472
328.574
321.062
308.322
308.352
308.404
311.47
318.114
315.172
309.864
309.953
311.465
309.386
313.284
315.063
309.392
320.682
318.853
316.879
318.793
320.694
321.452
301.125
301.043
301.019
301.08
301.162
301.219
301.274
301.302
301.308
301.34
301.764
303.06
304.309
304.77
304.434
303.609
303.228
304.834
308.409
313.026
316.138
316.832
315.915
313.425
308.979
310.695
309.03
309.45
310.05
308.395
309.282
306.308
307.401
303.989
305.158
302.021
302.889
300.841
300.96
300.713
300.763
300.694
300.696
301.014
300.793
300.737
300.688
303.842
304.56
303.614
302.618
301.66
303.821
303.495
304.344
306.319
305.813
305.508
305.286
312.852
310.441
307.171
308.521
322.725
320.643
316.625
319.185
327.593
326.933
326.059
324.899
328.938
328.696
328.409
328.086
329.367
329.182
328.975
328.953
329.092
329.29
328.928
329.056
327.821
324.742
326.717
328.373
322.41
309.24
309.25
309.644
312.787
319.702
317.03
311.312
310.817
312.552
310.601
314.269
315.92
304.72
321.231
319.374
317.573
319.358
321.112
321.669
301.124
301.067
301.094
301.162
301.215
301.272
301.305
301.313
301.356
301.921
303.578
305.176
305.892
305.707
304.894
304.254
305.252
308.432
312.195
315.279
316.201
315.789
313.507
309.281
304.447
307.058
304.583
308.36
306.384
307.589
305.743
306.704
303.686
304.735
301.979
302.722
301.157
301.479
300.733
300.784
300.674
300.691
300.669
300.663
301.377
300.899
300.785
300.695
305.36
306.212
304.997
303.709
302.456
305.035
304.735
305.984
307.644
307.256
307.078
306.948
314.001
311.619
308.412
309.71
323.381
321.469
318.5
320.819
327.699
327.237
326.593
325.683
328.787
328.549
328.292
328.024
329.029
328.819
328.619
328.505
328.447
328.748
327.964
328.137
327.451
325.316
326.37
327.518
323.641
311.048
310.724
311.521
315.035
321.874
319.677
313.814
312.216
313.799
312.173
315.28
316.744
305.041
321.564
319.804
318.19
319.887
321.434
321.909
301.129
301.124
301.167
301.212
301.27
301.308
301.32
301.365
301.994
303.905
305.858
306.904
306.994
306.423
305.822
306.208
308.678
311.834
314.471
315.457
315.333
313.396
309.341
303.738
304.094
302.299
302.622
305.645
303.542
304.823
303.086
303.94
301.786
302.332
301.133
301.398
300.855
300.961
300.681
300.714
300.65
300.66
300.659
300.645
300.641
301.953
301.081
300.88
300.708
307.234
308.065
306.543
304.926
303.354
306.75
306.441
308.04
309.765
309.469
309.336
309.24
316.024
313.71
310.504
311.794
324.448
322.828
321.18
323.079
327.757
327.446
327.118
326.654
328.416
328.224
328.052
327.855
328.576
328.223
327.836
327.415
327.061
327.464
326.023
326.682
326.626
325.083
325.63
326.679
323.618
313.279
312.482
313.395
317.58
321.724
319.908
315.975
313.614
314.852
313.554
316.167
317.408
391.19
321.936
321.994
318.75
320.404
321.731
322.159
301.158
301.177
301.212
301.269
301.31
301.328
301.367
301.995
304.035
306.327
307.726
308.094
307.887
307.607
307.944
309.443
311.851
313.91
314.706
314.615
312.959
309.035
303.902
301.271
302.015
301.287
301.36
302.932
301.738
302.357
301.53
301.892
301.069
301.261
300.855
300.941
300.752
300.796
300.652
300.671
300.615
300.64
300.66
300.641
300.615
300.613
302.65
301.379
301.01
300.742
309.375
310.006
308.133
306.171
304.296
309.023
308.637
310.457
312.788
312.471
312.32
312.171
318.977
316.809
313.562
314.911
325.862
324.669
324.481
325.724
327.655
327.487
327.321
327.135
327.627
327.454
327.398
327.364
326.571
325.699
325.633
326.233
326.137
325.539
318.936
318.934
325.401
324.365
324.249
325.418
322.401
315.026
313.799
314.595
318.133
320.804
319.041
316.7
314.667
315.751
314.622
316.775
317.963
717.569
322.33
337.345
319.276
320.845
321.998
322.443
301.191
301.215
301.269
301.312
301.333
301.362
301.937
304.026
306.541
308.215
308.791
308.876
308.976
309.46
310.499
311.914
313.501
313.997
313.759
312.123
308.302
303.754
301.3
300.91
301.023
301.176
300.969
301.488
301.08
301.279
300.997
301.117
300.848
300.912
300.767
300.803
300.704
300.736
300.629
300.647
300.581
300.605
300.585
300.588
300.663
300.623
300.605
303.271
301.793
301.172
300.791
311.69
311.915
309.638
307.309
305.132
311.848
311.287
313.15
316.6
316.145
315.864
315.6
322.763
320.811
317.557
319.021
326.943
326.495
326.871
327.107
327.297
327.209
327.19
327.202
325.528
325.491
325.644
325.813
325.116
318.568
318.643
319.051
319.281
319.115
313.179
313.221
318.912
322.757
318.605
319.522
318.058
315.827
314.831
315.401
317.454
317.746
316.894
316.289
315.589
316.373
315.489
317.367
318.513
834.125
323.429
392.423
319.77
321.291
322.282
322.739
301.225
301.272
301.315
301.337
301.357
301.78
303.897
306.55
308.398
309.052
309.208
309.378
309.83
310.616
311.748
312.894
313.126
312.653
310.826
307.18
303.308
301.269
300.931
300.856
300.898
300.864
300.868
300.928
300.88
300.999
300.894
300.934
300.842
300.884
300.778
300.81
300.727
300.752
300.666
300.698
300.578
300.623
300.582
300.573
300.576
300.564
300.674
300.619
300.588
303.769
302.209
301.36
300.855
314.059
313.734
310.994
308.287
305.809
315.094
314.293
315.933
321.044
320.31
319.698
319.227
326.306
325.314
322.323
323.812
327.257
327.244
327.547
327.424
326.082
326.287
326.592
326.682
319.005
318.939
319.246
319.344
319.052
313.219
313.236
313.234
313.261
313.257
307.316
307.314
313.265
319.014
313.175
313.438
313.135
315.708
315.451
315.396
316.185
313.063
312.82
315.343
316.171
317.004
315.851
317.872
318.971
958.979
328.67
611.64
320.207
321.673
322.495
323.503
301.277
301.319
301.343
301.356
301.622
303.526
306.448
308.394
309.06
309.198
309.272
309.6
310.234
311.068
311.671
311.654
310.954
308.961
305.713
302.709
301.228
300.944
300.884
300.84
300.838
300.846
300.855
300.859
300.864
300.84
300.838
300.79
300.815
300.743
300.769
300.696
300.722
300.644
300.664
300.552
300.574
300.573
300.558
300.56
300.549
300.554
300.542
300.694
300.613
300.582
304.068
302.473
301.499
300.914
316.358
315.421
312.191
309.08
306.284
318.482
317.41
318.591
325.702
324.678
323.647
322.783
327.603
327.537
326.595