/*--------------------------------*- C++ -*----------------------------------*\
  =========                 |
  \\      /  F ield         | OpenFOAM: The Open Source CFD Toolbox
   \\    /   O peration     | Website:  https://openfoam.org
    \\  /    A nd           | Version:  dev
     \\/     M anipulation  |
\*---------------------------------------------------------------------------*/
FoamFile
{
    version     2.0;
    format      ascii;
    class       volVectorField;
    location    "2500";
    object      U;
}
// * * * * * * * * * * * * * * * * * * * * * * * * * * * * * * * * * * * * * //

dimensions      [0 1 -1 0 0 0 0];

internalField   nonuniform List<vector> 
9978
(
(0.00479117 0.00753548 -2.21102e-27)
(0.0113875 0.00684421 0)
(0.00471429 0.0197997 -4.17641e-27)
(0.0156842 0.00583521 -2.10573e-27)
(0.0124399 0.0202998 5.89766e-28)
(0.00398007 0.0285529 0)
(0.0189766 0.00488848 -5.16193e-28)
(0.0175084 0.0199186 -3.63551e-27)
(0.0117509 0.0298039 0)
(0.00326362 0.0354507 -3.93381e-28)
(0.0214278 0.00416731 5.87181e-28)
(0.020798 0.0183626 0)
(0.0179168 0.0308951 -2.44767e-27)
(0.0101452 0.036665 -9.84473e-28)
(0.00278516 0.0415712 2.92334e-27)
(0.0232321 0.00352219 9.16467e-28)
(0.022958 0.0160829 1.45065e-27)
(0.0224182 0.0310155 0)
(0.0166401 0.0385929 -1.3101e-27)
(0.00856031 0.0424748 3.02547e-27)
(0.00243781 0.046865 -3.32483e-28)
(0.0246353 0.0029847 8.18776e-28)
(0.0245243 0.0137597 4.21974e-29)
(0.0254116 0.0299294 2.69778e-28)
(0.0221045 0.0402595 1.31641e-27)
(0.0144785 0.0442372 -2.59745e-27)
(0.0074335 0.0475628 2.29839e-27)
(0.0021599 0.0516271 -2.47632e-27)
(0.0257299 0.00257246 2.27892e-29)
(0.0256925 0.011709 0)
(0.0272066 0.0279855 2.22238e-27)
(0.0262935 0.0409968 -1.81586e-27)
(0.0202109 0.0465307 -2.04414e-27)
(0.0125198 0.0489597 1.12199e-27)
(0.00656 0.0522028 2.15797e-32)
(0.0019242 0.0558913 -6.03263e-28)
(0.0265842 0.00228597 1.73705e-28)
(0.0264965 0.0100939 3.65177e-29)
(0.0281351 0.0255178 5.58009e-29)
(0.0291365 0.0405547 1.43108e-28)
(0.0252797 0.0486429 2.05795e-27)
(0.0177465 0.0510376 1.50802e-27)
(0.0110219 0.0532847 -2.43104e-27)
(0.00584711 0.0563797 -3.75963e-27)
(0.00172533 0.0597227 1.27332e-27)
(0.0272165 0.0020956 8.04318e-28)
(0.0270938 0.00899892 0)
(0.0285377 0.0228765 -3.27358e-27)
(0.0307594 0.0390328 6.65526e-29)
(0.0292594 0.0499517 3.10501e-28)
(0.0229291 0.053574 0)
(0.0155968 0.0549454 0)
(0.00981779 0.0572715 -3.13826e-27)
(0.00524998 0.060146 -1.33903e-27)
(0.00155814 0.06325 1.20849e-27)
(0.0276915 0.0019666 1.23841e-27)
(0.0275722 0.00829248 6.43444e-29)
(0.028679 0.0202958 -4.87425e-28)
(0.031457 0.0367468 -1.20172e-27)
(0.032051 0.0501889 -1.14914e-31)
(0.0276454 0.0560631 2.85007e-27)
(0.0202608 0.0572177 3.36784e-28)
(0.0138478 0.0586414 -8.67976e-29)
(0.00881307 0.060895 -6.55702e-28)
(0.00473386 0.0636129 0)
(0.0014108 0.0664671 -3.87618e-28)
(0.0280522 0.00187458 6.11695e-28)
(0.0279755 0.00776525 0)
(0.0287249 0.0180697 2.21445e-27)
(0.0314947 0.0339996 -1.08092e-27)
(0.0337073 0.0492756 2.64104e-27)
(0.0315172 0.0579269 2.48241e-27)
(0.0249549 0.0599253 3.19927e-28)
(0.0179579 0.0605148 1.81199e-27)
(0.0123817 0.062055 1.0449e-31)
(0.00794606 0.0642618 -6.13632e-28)
(0.0042785 0.0668091 3.82153e-28)
(0.0012678 0.0694 0)
(0.0283633 0.00180045 0)
(0.0282933 0.00732363 -1.21908e-27)
(0.0287856 0.0164369 1.74957e-27)
(0.0311646 0.0310917 -2.10684e-28)
(0.0343734 0.0473741 7.97724e-28)
(0.0343348 0.0587794 -1.33552e-27)
(0.029395 0.0626918 -2.33623e-27)
(0.0221841 0.0628805 8.96616e-28)
(0.0160407 0.0636629 0)
(0.0111488 0.065243 3.32594e-28)
(0.00716965 0.0673977 0)
(0.00384927 0.0697322 1.08777e-27)
(0.00113266 0.0720871 4.87624e-28)
(0.0286976 0.00173139 -3.06888e-28)
(0.0285655 0.00695183 -7.7236e-28)
(0.0289242 0.0153178 0)
(0.030742 0.0282714 0)
(0.0343226 0.0447928 6.70454e-28)
(0.0361073 0.0584739 -5.68141e-28)
(0.0332003 0.0649848 -3.60238e-27)
(0.0264778 0.0656677 0)
(0.0198017 0.0656911 0)
(0.0144151 0.0665842 2.36091e-27)
(0.0100744 0.0682926 -1.08791e-27)
(0.0064557 0.0702848 0)
(0.00344365 0.0724002 0)
(0.00100783 0.0745168 4.42938e-28)
(0.0290486 0.0016665 -2.98254e-28)
(0.0288601 0.00665899 -1.09908e-27)
(0.0291097 0.014449 2.0934e-27)
(0.0303915 0.0258171 0)
(0.0338187 0.0417705 -2.14806e-28)
(0.0369286 0.0570431 1.19963e-27)
(0.0361382 0.0663774 -1.25643e-27)
(0.0306942 0.0686079 0)
(0.0236487 0.0681318 0)
(0.0177709 0.0683197 1.45893e-27)
(0.0130055 0.0695047 0)
(0.00907956 0.071114 0)
(0.0057816 0.0729215 -2.30727e-28)
(0.00306233 0.0748158 -4.39079e-28)
(0.000881756 0.0767305 0)
(0.0294538 0.00161802 1.4715e-28)
(0.029186 0.00643718 -7.29682e-29)
(0.0292548 0.0137541 5.65651e-32)
(0.0301966 0.0239444 0)
(0.0331285 0.0385597 0)
(0.036991 0.0547045 1.62025e-35)
(0.0381265 0.0666388 4.97305e-28)
(0.0344993 0.0712389 9.32102e-28)
(0.027647 0.0709821 0)
(0.0212138 0.070454 -2.64316e-28)
(0.0159985 0.0710146 0)
(0.0117303 0.0722372 4.62801e-28)
(0.00814012 0.0737129 -8.643e-28)
(0.00514088 0.0753143 -2.00285e-28)
(0.00268096 0.0770369 -3.79546e-28)
(0.000754312 0.0786968 7.27402e-28)
(0.0299373 0.00158715 -9.80032e-29)
(0.0295511 0.00626937 1.23491e-27)
(0.0294689 0.0132307 -2.98401e-28)
(0.030144 0.0225032 0)
(0.0324551 0.0354092 1.77412e-28)
(0.0365556 0.0517555 0)
(0.0392168 0.0657401 3.24024e-27)
(0.0375962 0.0731033 2.16136e-27)
(0.0316939 0.0740444 2.54278e-28)
(0.0247844 0.0729699 -1.51984e-27)
(0.0191021 0.072861 -2.39808e-28)
(0.0144307 0.0736279 0)
(0.0105312 0.0747921 4.04296e-28)
(0.00723309 0.0760882 7.32021e-28)
(0.00450747 0.0775372 -5.24036e-28)
(0.00229274 0.0790013 2.71433e-28)
(0.000624813 0.0804245 9.03942e-28)
(0.0304934 0.00155826 6.54451e-29)
(0.0300142 0.00613839 1.10411e-28)
(0.0298221 0.0127801 9.92168e-28)
(0.0302147 0.0212446 0)
(0.0319684 0.0326305 -3.08178e-28)
(0.0358019 0.0484386 2.5444e-28)
(0.0395232 0.0638015 3.05332e-27)
(0.0398537 0.0739368 1.52036e-27)
(0.0355063 0.0769206 0)
(0.0285749 0.0758576 -9.36317e-28)
(0.0223225 0.0750334 4.60758e-32)
(0.0172335 0.0752888 0)
(0.0129808 0.0761157 -1.8996e-28)
(0.00937605 0.0771467 7.88512e-28)
(0.00634977 0.0782884 2.34537e-28)
(0.00386486 0.0795132 -6.03017e-29)
(0.00189606 0.0807407 4.35703e-28)
(0.000487756 0.0819003 -8.92609e-28)
(0.0311363 0.00153577 0)
(0.0305657 0.00601449 -6.34398e-28)
(0.0302411 0.012369 1.44912e-27)
(0.0304346 0.0201978 0)
(0.0317001 0.0304066 0)
(0.0349569 0.045013 -3.73216e-28)
(0.0392392 0.0611034 5.34034e-29)
(0.0412568 0.0735775 0)
(0.0388006 0.0791576 -2.35206e-28)
(0.0325148 0.0789838 4.75845e-28)
(0.0257281 0.0775451 7.68156e-28)
(0.0201689 0.0772399 4.08865e-28)
(0.0155254 0.0776643 -1.35168e-27)
(0.0115926 0.0784301 8.59105e-28)
(0.00825174 0.0793186 0)
(0.00547347 0.0802831 8.88664e-28)
(0.00320344 0.0812758 6.08443e-29)
(0.00148153 0.0822271 -1.07672e-27)
(0.000343302 0.0831257 1.19421e-27)
(0.0318825 0.00152099 0)
(0.0311818 0.00590288 2.50708e-28)
(0.0307601 0.0120153 -3.74049e-33)
(0.030787 0.0193596 -1.29928e-27)
(0.0316128 0.028659 1.38559e-27)
(0.0342045 0.0417391 -6.614e-28)
(0.0385402 0.0578773 0)
(0.041867 0.0721159 -1.0975e-28)
(0.0413639 0.0804528 0)
(0.0363591 0.0820225 -2.30221e-28)
(0.0293875 0.0804178 6.13418e-28)
(0.023254 0.0794764 0)
(0.0181974 0.0794714 -1.61674e-27)
(0.0139048 0.0799318 0)
(0.0102355 0.0805786 0)
(0.0071367 0.0813315 0)
(0.00456351 0.0820818 -1.48693e-29)
(0.00251585 0.0827881 -1.19526e-28)
(0.00104374 0.0834673 8.32301e-28)
(0.000180773 0.0840514 0)
(0.0327456 0.00149902 0)
(0.0319222 0.00580514 5.15676e-28)
(0.0314098 0.0116647 -7.1457e-28)
(0.0312638 0.0186189 -2.05914e-27)
(0.0317496 0.0272679 3.41666e-27)
(0.0336597 0.0388558 -1.13651e-27)
(0.0376346 0.0543452 -7.87502e-28)
(0.0418089 0.0697186 -6.45521e-27)
(0.0430991 0.0806237 -3.30637e-28)
(0.0398354 0.0845965 2.96794e-27)
(0.0332222 0.083563 0)
(0.0265455 0.0820272 -1.14702e-27)
(0.0210194 0.0815402 4.73269e-28)
(0.0163479 0.0816594 -7.63625e-28)
(0.012335 0.0820393 -1.15667e-27)
(0.0088908 0.0826022 0)
(0.00598871 0.0831861 5.19009e-28)
(0.00360281 0.0836368 -1.72312e-28)
(0.00179239 0.0840609 4.47882e-30)
(0.000557041 0.0844227 -1.14319e-27)
(3.93105e-05 0.0847535 1.9833e-27)
(0.0336929 0.00147225 7.27212e-28)
(0.0327883 0.00570875 0)
(0.0321402 0.0113076 2.0451e-33)
(0.031868 0.0179943 1.70351e-27)
(0.0320866 0.0261424 -1.02269e-30)
(0.033401 0.0364267 2.43945e-27)
(0.0367596 0.0507606 0)
(0.041286 0.0666453 -6.84431e-27)
(0.0440569 0.07966 6.23838e-27)
(0.0426895 0.0863301 3.03668e-27)
(0.0370853 0.0867411 -1.07198e-28)
(0.0300846 0.084901 3.90425e-28)
(0.0240103 0.0838843 -1.16549e-28)
(0.018939 0.0836026 -8.97508e-28)
(0.0145644 0.0837224 -1.44015e-27)
(0.0107688 0.0840853 0)
(0.00751704 0.0845132 7.33422e-28)
(0.00477546 0.0848075 -4.23294e-28)
(0.00259268 0.0849555 4.35138e-29)
(0.00100519 0.0850967 4.35448e-28)
(3.48251e-05 0.0850667 -7.35917e-35)
(-0.000173072 0.0850909 -3.35939e-29)
(0.0347302 0.0014517 -9.04344e-28)
(0.0337334 0.00561193 1.10368e-28)
(0.0329534 0.0110116 -6.78793e-28)
(0.0325603 0.017486 -7.60807e-30)
(0.0325713 0.0251591 2.36383e-27)
(0.0334409 0.0344233 3.09064e-27)
(0.0360405 0.0474129 -4.15291e-27)
(0.0404664 0.0631353 6.31881e-27)
(0.0443088 0.0776516 5.87991e-27)
(0.0447867 0.0870308 6.33326e-27)
(0.0407195 0.0895984 2.15671e-28)
(0.0338557 0.0880449 2.0324e-28)
(0.0272395 0.0864871 2.80969e-27)
(0.0216983 0.0857675 0)
(0.0169553 0.0856354 4.3182e-28)
(0.0127929 0.0857924 2.33673e-28)
(0.00917021 0.0860348 -3.11469e-29)
(0.00606907 0.0862171 7.03465e-28)
(0.00349075 0.0861995 3.13911e-28)
(0.00150752 0.0860828 -5.82699e-28)
(0.000137108 0.0858188 4.57859e-28)
(-0.000459496 0.0854281 -2.59696e-28)
(-0.000362336 0.0849564 -1.8634e-28)
(0.0358699 0.00143384 -1.09578e-27)
(0.0347575 0.00551471 -8.18271e-28)
(0.0338992 0.0107745 0)
(0.0333292 0.0170045 -9.96849e-28)
(0.0332088 0.0242514 1.75517e-27)
(0.0337349 0.0327926 1.22036e-27)
(0.0355907 0.0445447 -2.75788e-27)
(0.0395489 0.0594029 1.08372e-26)
(0.0440157 0.0748327 -6.75701e-27)
(0.0461119 0.0865687 6.51411e-27)
(0.043864 0.0917577 6.78134e-27)
(0.0377371 0.0912898 -3.32381e-27)
(0.0307105 0.0893816 2.95366e-27)
(0.0246801 0.0881411 0)
(0.0195295 0.087741 2.0911e-27)
(0.0150033 0.0877054 4.17456e-28)
(0.0109931 0.0877757 4.78882e-29)
(0.00751018 0.0878318 9.59657e-28)
(0.00452251 0.0877136 0)
(0.00210833 0.0874317 0)
(0.000307835 0.0868922 -8.26049e-28)
(-0.000737419 0.0861872 0)
(-0.00104093 0.0853932 1.54153e-27)
(-0.000576886 0.0844978 -1.83783e-28)
(0.0370975 0.00141401 1.27139e-27)
(0.0358906 0.00541721 5.20807e-28)
(0.0349545 0.010528 -6.69569e-28)
(0.034241 0.0165358 4.89894e-28)
(0.0339716 0.023417 5.58916e-29)
(0.0342122 0.0314581 2.19392e-27)
(0.0355123 0.0421641 1.05794e-30)
(0.0387187 0.0556651 2.9775e-27)
(0.0433721 0.0714474 1.78717e-27)
(0.0467316 0.0850018 -7.06375e-27)
(0.0463445 0.0929324 7.07627e-27)
(0.0415251 0.094339 -3.34841e-27)
(0.0344467 0.0925298 7.38952e-28)
(0.0278783 0.0907406 0)
(0.0222994 0.0900308 2.28044e-27)
(0.0174046 0.0897976 2.55622e-28)
(0.0130228 0.089737 0)
(0.00912845 0.0896632 1.65743e-28)
(0.00573205 0.0894544 -1.84613e-28)
(0.00286226 0.0890616 0)
(0.00058768 0.0883636 1.02586e-28)
(-0.000974086 0.0873736 0)
(-0.00173517 0.08626 1.67638e-27)
(-0.00172656 0.084975 -5.33468e-28)
(-0.000811758 0.0836184 0)
(0.0383874 0.00140039 -1.45929e-27)
(0.0371136 0.00531339 1.16019e-27)
(0.0360843 0.0102615 9.87592e-28)
(0.0353115 0.0160984 -1.73056e-27)
(0.034854 0.0226343 -1.95484e-27)
(0.0348596 0.0303449 4.59856e-27)
(0.0357268 0.0401494 -7.85258e-28)
(0.0381143 0.0522636 -2.65375e-27)
(0.0425324 0.0677097 8.35873e-27)
(0.0467413 0.0824921 9.55e-32)
(0.0480775 0.0929658 9.49183e-28)
(0.0449681 0.0968229 2.24873e-28)
(0.0383783 0.0958197 2.46558e-27)
(0.0313552 0.0935908 -3.36021e-28)
(0.025289 0.092506 0)
(0.0199911 0.0920546 2.39235e-27)
(0.0152475 0.0918853 -5.4116e-29)
(0.010963 0.0917147 3.16068e-28)
(0.00714915 0.0914251 6.05716e-32)
(0.00382052 0.0909307 -3.11645e-28)
(0.00104716 0.0901604 -2.53431e-32)
(-0.00107578 0.0889947 0)
(-0.002397 0.0875468 -4.78509e-27)
(-0.00286944 0.0859201 -2.61403e-27)
(-0.00245768 0.084128 -5.15574e-29)
(-0.00106647 0.0822912 2.76471e-28)
(0.0397277 0.00137854 0)
(0.0384055 0.00519042 -2.67255e-27)
(0.0373017 0.0100078 -6.53471e-28)
(0.0364689 0.0156607 6.10316e-28)
(0.0358692 0.0219034 -1.38462e-27)
(0.0356901 0.0293675 2.28434e-27)
(0.0361752 0.0383773 9.82707e-31)
(0.0379095 0.0493948 -3.94833e-27)
(0.0416809 0.063794 -4.919e-27)
(0.0463359 0.0792919 8.98569e-27)
(0.0490948 0.0918583 7.37792e-27)
(0.0478302 0.0984061 9.61254e-28)
(0.0423314 0.0989876 4.22231e-27)
(0.0351151 0.0967116 -2.41949e-27)
(0.0285142 0.0951919 -7.10092e-29)
(0.0227964 0.0944737 2.56426e-27)
(0.0176866 0.0941737 5.35921e-29)
(0.0130227 0.0939588 6.18202e-28)
(0.00879381 0.0936156 -1.9784e-28)
(0.00501484 0.0930552 -1.90926e-27)
(0.0017389 0.0922237 -2.03112e-27)
(-0.00095899 0.0909811 0)
(-0.00290794 0.0893279 0)
(-0.00396928 0.0873569 2.63481e-31)
(-0.00410911 0.085166 -2.96296e-27)
(-0.00324859 0.0828311 2.39838e-28)
(-0.00134371 0.0804431 0)
(0.0411057 0.00133989 -1.63606e-27)
(0.0397551 0.00505939 -1.52446e-27)
(0.0385974 0.00977683 -5.04257e-28)
(0.0376905 0.0152022 1.54088e-27)
(0.0370012 0.021251 8.97639e-28)
(0.0366593 0.02844 7.08773e-29)
(0.0368684 0.0367762 4.95389e-28)
(0.0381195 0.046956 -4.7387e-27)
(0.0410444 0.0599551 -3.08512e-27)
(0.0456727 0.075634 3.467e-27)
(0.0494714 0.0897237 7.43795e-27)
(0.0499825 0.098921 -7.60706e-27)
(0.0460436 0.101707 3.73516e-27)
(0.0390952 0.100031 -4.81685e-27)
(0.0320226 0.0980952 0)
(0.0258342 0.0970509 -5.60254e-29)
(0.0203506 0.0965814 -2.60378e-27)
(0.0153356 0.096337 -3.41371e-29)
(0.0106904 0.0959977 0)
(0.00647074 0.0954273 -3.95511e-28)
(0.00269024 0.0945552 -2.11524e-27)
(-0.000568649 0.0932663 -6.08155e-28)
(-0.00317064 0.0915094 -2.47701e-28)
(-0.00491681 0.0893406 0)
(-0.00571153 0.0867591 7.60695e-27)
(-0.00546047 0.0839415 3.87561e-27)
(-0.00409933 0.0810115 -1.95525e-27)
(-0.00163375 0.0780613 0)
(0.0425083 0.00131019 1.95221e-28)
(0.041133 0.00493621 -1.69596e-27)
(0.0399366 0.00956268 6.48858e-28)
(0.0389671 0.0147545 -7.58116e-28)
(0.0382175 0.0206614 -3.63124e-28)
(0.0377379 0.0275132 0)
(0.0377462 0.0353524 -3.6839e-28)
(0.0386031 0.0448411 8.83356e-28)
(0.040771 0.0565577 1.08715e-29)
(0.0449174 0.0717154 8.84471e-27)
(0.0493406 0.0867763 0)
(0.051409 0.0982856 1.11175e-27)
(0.0492732 0.103654 -6.69913e-27)
(0.043164 0.103347 -1.87121e-27)
(0.0358027 0.101216 -3.46133e-27)
(0.0291458 0.0997752 -2.89745e-28)
(0.0232584 0.0991151 -2.88483e-27)
(0.0178976 0.0988187 -8.43803e-30)
(0.0128758 0.0985205 -1.36645e-28)
(0.00821082 0.0979869 4.92903e-28)
(0.00394318 0.0971471 3.99591e-28)
(0.000123632 0.0958538 0)
(-0.00312392 0.0940359 -7.78099e-28)
(-0.00561061 0.091761 0)
(-0.00715836 0.0889605 0)
(-0.00763298 0.0856815 0)
(-0.00692008 0.082215 4.50744e-27)
(-0.00500055 0.0786406 -2.22902e-27)
(-0.00193033 0.0751349 -2.3671e-27)
(0.0439294 0.00127941 0)
(0.0425303 0.00479807 0)
(0.041329 0.0093395 6.45523e-28)
(0.0402945 0.0143357 3.63197e-28)
(0.039482 0.0201009 -8.69933e-28)
(0.0389123 0.0266056 2.44085e-28)
(0.0387662 0.0340985 0)
(0.0392697 0.0430072 1.8074e-27)
(0.0408663 0.0536938 4.21393e-27)
(0.0442937 0.0677383 1.34555e-27)
(0.0489054 0.0832603 2.29836e-27)
(0.052183 0.0965546 7.76735e-27)
(0.0518457 0.104593 -7.98021e-27)
(0.0471152 0.106326 1.09267e-27)
(0.039841 0.104489 -4.19201e-27)
(0.0327392 0.102686 0)
(0.0264314 0.10178 -7.9944e-32)
(0.0207054 0.101392 0)
(0.0153462 0.101134 0)
(0.0102624 0.100678 0)
(0.00552786 0.0999523 -3.58357e-28)
(0.00116099 0.0987285 0)
(-0.00273384 0.096923 5.77097e-28)
(-0.0059655 0.0945722 0)
(-0.00833681 0.0916523 2.20538e-27)
(-0.00965355 0.0881074 0)
(-0.00972723 0.0841166 1.27075e-26)
(-0.00848131 0.0799064 -5.09377e-27)
(-0.00593378 0.0757037 -1.04758e-27)
(-0.0022158 0.0716631 -2.1462e-27)
(0.0453432 0.00123138 0)
(0.0439501 0.00465107 0)
(0.0427572 0.00908778 -7.00993e-44)
(0.0417013 0.013931 -1.27509e-27)
(0.04082 0.0195351 0)
(0.0401376 0.0257688 0)
(0.0398817 0.0329635 -8.59325e-29)
(0.0401058 0.041391 2.4716e-27)
(0.0412696 0.0512395 0)
(0.0439012 0.064016 0)
(0.0483024 0.0793924 -2.37034e-27)
(0.0523892 0.0938901 -5.12781e-27)
(0.053702 0.104421 0)
(0.0506915 0.108642 -2.4381e-27)
(0.0440377 0.107801 5.45915e-28)
(0.0366157 0.105757 -1.86651e-31)
(0.0298758 0.104584 7.03934e-27)
(0.0237749 0.104047 1.66614e-28)
(0.0180903 0.103818 -3.04791e-27)
(0.0126435 0.103471 -8.96118e-29)
(0.00745011 0.102893 1.72237e-27)
(0.00255911 0.101844 -1.16472e-27)
(-0.00194637 0.100146 -4.1925e-28)
(-0.00592846 0.0977932 0)
(-0.00914344 0.0947869 0)
(-0.0113836 0.0910946 2.59745e-27)
(-0.0123935 0.0867614 2.35515e-27)
(-0.0119866 0.0819437 1.75639e-26)
(-0.0101118 0.0769971 -6.16643e-27)
(-0.00686543 0.0721843 0)
(-0.00247752 0.0677221 -1.82414e-27)
(0.0467181 0.00117717 0)
(0.0453686 0.00450776 0)
(0.0441933 0.00879166 -6.29462e-28)
(0.0431601 0.0135203 7.34402e-28)
(0.0422306 0.0189452 -1.02136e-27)
(0.0414663 0.0250038 0)
(0.0410644 0.0318929 0)
(0.0410954 0.0399338 -2.85213e-27)
(0.0418697 0.0491243 0)
(0.0438244 0.0608165 0)
(0.0476816 0.0753639 -2.37086e-27)
(0.0521975 0.0905551 -1.03018e-26)
(0.0548866 0.103128 -4.08112e-31)
(0.0536827 0.109999 7.0443e-27)
(0.0482124 0.110907 -1.01641e-26)
(0.0407399 0.108976 5.43747e-28)
(0.0336024 0.107512 8.06081e-27)
(0.0271264 0.106771 7.18209e-27)
(0.0211194 0.10654 -3.5959e-27)
(0.0153369 0.10634 -8.7099e-29)
(0.00973582 0.105919 -1.47311e-28)
(0.00435638 0.105112 -1.03054e-27)
(-0.000758128 0.103643 3.55174e-27)
(-0.00543635 0.101399 0)
(-0.00950798 0.0983906 0)
(-0.0127023 0.0946012 -6.04312e-29)
(-0.0147588 0.0900349 3.22858e-27)
(-0.0153855 0.0848053 4.01199e-27)
(-0.014388 0.0791335 -6.28653e-27)
(-0.0117751 0.0734542 0)
(-0.00773016 0.0681706 -6.2177e-27)
(-0.0026955 0.0634226 -4.45688e-27)
(0.0480347 0.00112397 0)
(0.0467519 0.00433952 0)
(0.0456372 0.00843277 0)
(0.0446365 0.0130992 1.62252e-27)
(0.0436911 0.0183437 1.20614e-27)
(0.0428954 0.0242661 0)
(0.0423288 0.0308756 0)
(0.0422211 0.038608 -2.31009e-27)
(0.0426412 0.0472944 -8.93216e-28)
(0.0440922 0.0580966 -3.01728e-27)
(0.0472009 0.0713986 -3.39829e-27)
(0.0517685 0.086792 -6.50151e-27)
(0.0554604 0.100818 -4.0542e-27)
(0.0559906 0.110266 1.14306e-26)
(0.0521249 0.113472 -1.41955e-27)
(0.0450685 0.112244 -6.36872e-28)
(0.0375917 0.110535 2.67697e-28)
(0.0307735 0.109556 8.55087e-27)
(0.0244299 0.109291 8.69808e-28)
(0.0183632 0.109234 -5.62854e-29)
(0.0124015 0.108998 -3.54662e-27)
(0.00656518 0.10846 3.12229e-27)
(0.000898136 0.1073 0)
(-0.00447069 0.105319 3.719e-27)
(-0.00935296 0.10244 -2.2263e-28)
(-0.0135351 0.0986488 -5.78694e-27)
(-0.0166883 0.0939319 0)
(-0.0184921 0.0883961 3.58951e-27)
(-0.0186323 0.0821878 1.23846e-27)
(-0.0169135 0.0756369 -5.71176e-27)
(-0.0133242 0.0693364 1.47765e-27)
(-0.00836292 0.0636774 -8.86418e-27)
(-0.00277979 0.0589907 2.69818e-26)
(0.0492664 0.00106171 0)
(0.0480835 0.0041196 0)
(0.0470626 0.00803178 0)
(0.046124 0.0126642 1.37784e-27)
(0.0451894 0.0177213 6.07805e-28)
(0.0443724 0.0235194 8.78248e-28)
(0.0437107 0.0299292 9.85276e-28)
(0.043451 0.0373645 2.23735e-27)
(0.0436281 0.0456394 -2.48698e-27)
(0.0446453 0.0556908 -2.85315e-27)
(0.046987 0.0678061 -2.20221e-27)
(0.0511971 0.0827697 0)
(0.0555409 0.0977075 -3.98881e-27)
(0.0575935 0.109392 4.243e-27)
(0.055535 0.115198 1.03618e-26)
(0.0494408 0.115408 -7.44463e-28)
(0.0418295 0.11365 0)
(0.0346626 0.112407 2.594e-28)
(0.0280306 0.112075 7.097e-28)
(0.021693 0.112101 8.15582e-33)
(0.0154428 0.112088 -1.51854e-26)
(0.00922277 0.111843 1.0205e-26)
(0.0030526 0.111036 0)
(-0.00296079 0.10941 0)
(-0.00864707 0.106857 -3.08138e-28)
(-0.0137879 0.103224 -1.15907e-28)
(-0.0180856 0.0984894 -6.45643e-27)
(-0.0211576 0.0927361 -2.31046e-28)
(-0.0226084 0.086071 -7.00671e-27)
(-0.0220513 0.0788193 3.85069e-28)
(-0.0193675 0.0714606 7.75416e-27)
(-0.0145654 0.0644903 -6.72272e-27)
(-0.00876987 0.0587785 3.60361e-26)
(-0.00260383 0.0544686 -1.10929e-26)
(0.0503749 0.000976353 0)
(0.0493375 0.0038523 -2.39824e-28)
(0.0484375 0.0076204 0)
(0.0475946 0.012181 -1.99267e-27)
(0.0466969 0.0170834 -7.54631e-28)
(0.0458835 0.0227601 8.51195e-28)
(0.0451867 0.0290403 9.56861e-28)
(0.0447748 0.0361556 2.18419e-27)
(0.0447957 0.0440887 1.55202e-32)
(0.0454469 0.0535206 -1.27812e-27)
(0.0471562 0.0647399 -5.13848e-32)
(0.0506998 0.0786449 -2.75982e-27)
(0.0553159 0.0940388 -1.6114e-27)
(0.0585603 0.10745 -1.8167e-34)
(0.0582933 0.115863 0)
(0.0536407 0.118151 0)
(0.0462688 0.116849 -7.68609e-28)
(0.0387862 0.115346 0)
(0.0318882 0.114852 0)
(0.0252985 0.114914 8.50353e-27)
(0.0188309 0.115149 -1.72296e-26)
(0.0123148 0.115219 8.15259e-27)
(0.00571675 0.114785 -8.24248e-28)
(-0.000879784 0.113603 -7.06045e-28)
(-0.00730551 0.1115 -2.0414e-27)
(-0.0134066 0.108248 0)
(-0.01885 0.103682 0)
(-0.0232312 0.0978534 -4.18038e-28)
(-0.026121 0.0908355 -8.08604e-27)
(-0.0269498 0.0829081 -2.02708e-28)
(-0.0254518 0.074535 -4.76438e-28)
(-0.0215535 0.06643 1.60528e-26)
(-0.0156197 0.0590775 -1.90032e-27)
(-0.00683534 0.0548209 -7.73484e-27)
(-0.0107021 0.0549654 3.81967e-27)
(-0.00103102 0.05209 8.81168e-28)
(-0.00687845 0.0534121 -1.19357e-26)
(-0.00364341 0.0515676 8.18087e-28)
(0.0513187 0.000873842 -1.68406e-27)
(0.0504703 0.00355398 2.78881e-27)
(0.0497257 0.00719876 -5.61346e-28)
(0.0489997 0.011626 -1.3121e-27)
(0.0482039 0.0164621 -7.29569e-28)
(0.0473892 0.021988 0)
(0.046709 0.0281759 -7.25968e-28)
(0.046196 0.0349772 1.03566e-27)
(0.0460676 0.0426643 2.75523e-27)
(0.0464429 0.0515615 2.59612e-27)
(0.0477152 0.0620582 -7.82886e-27)
(0.0504476 0.0746813 3.38838e-27)
(0.0549045 0.0900218 -3.79207e-27)
(0.0589716 0.104596 -5.96595e-27)
(0.0603329 0.115407 0)
(0.05744 0.120173 0)
(0.050824 0.119971 9.29136e-27)
(0.0431556 0.118351 -8.45264e-27)
(0.0359693 0.117623 0)
(0.0291827 0.117684 9.12418e-27)
(0.0225169 0.118114 -9.06578e-27)
(0.0157892 0.118502 0)
(0.00888928 0.118516 7.00724e-27)
(0.00179414 0.117835 0)
(-0.00531634 0.116263 -8.69357e-28)
(-0.0122889 0.113555 -4.15786e-27)
(-0.0188677 0.109421 -3.52398e-28)
(-0.0246073 0.103726 -2.53654e-28)
(-0.0289499 0.0964958 2.73874e-28)
(-0.0314751 0.0880347 -8.8715e-27)
(-0.0314976 0.0786749 1.77708e-26)
(-0.0289049 0.0690607 1.76578e-26)
(-0.0234537 0.060197 -1.77663e-27)
(-0.0140038 0.0547281 1.00878e-27)
(-0.0181902 0.0549279 5.10319e-28)
(-0.0101341 0.053063 -1.62184e-26)
(-0.000958541 0.0507454 1.00776e-27)
(-0.00647896 0.0509716 0)
(-0.00300678 0.0502882 3.28896e-28)
(0.0520544 0.000756064 1.41651e-28)
(0.0514326 0.00321967 -1.81028e-27)
(0.0509041 0.00673659 2.22868e-27)
(0.0503306 0.0110006 1.73339e-27)
(0.0496893 0.0158257 -7.1879e-28)
(0.0489047 0.0211731 1.48573e-27)
(0.0482603 0.0272848 0)
(0.0476903 0.0338376 -3.04205e-28)
(0.0474522 0.0413277 2.21523e-27)
(0.0476066 0.0497437 -2.40764e-32)
(0.0485704 0.0595931 -1.92563e-27)
(0.0505581 0.0711978 3.25672e-27)
(0.0544623 0.0858064 -5.31865e-27)
(0.058979 0.101074 0)
(0.0616961 0.113821 -2.03692e-27)
(0.0606234 0.121214 -2.52671e-27)
(0.0552859 0.122794 9.46777e-27)
(0.0477409 0.121407 -9.56605e-27)
(0.0402828 0.120397 1.08188e-26)
(0.0333087 0.120391 -9.6495e-27)
(0.0264884 0.120936 5.88735e-31)
(0.0196083 0.121633 0)
(0.0125071 0.122131 -1.20909e-33)
(0.00506799 0.122032 -2.54228e-27)
(-0.00260767 0.121035 -1.33035e-27)
(-0.0103885 0.119019 -2.13438e-27)
(-0.0180375 0.115525 -6.47598e-28)
(-0.0250964 0.110261 -1.78421e-27)
(-0.0310867 0.103134 -3.19255e-27)
(-0.0353287 0.094282 0)
(-0.0373451 0.0841742 -3.9201e-30)
(-0.0364421 0.0730459 1.18674e-26)
(-0.0289381 0.0624625 -7.73642e-28)
(-0.0337136 0.0648601 8.5127e-27)
(-0.0219622 0.0547473 3.80355e-33)
(-0.0302506 0.0608288 8.23126e-28)
(-0.0266511 0.0551714 4.96774e-28)
(-0.0137937 0.0525943 -8.51807e-27)
(-0.0175719 0.0520288 -2.64517e-27)
(-0.00956062 0.0502693 0)
(-0.000586087 0.0502424 2.26592e-28)
(-0.00545487 0.0493075 -5.50263e-28)
(-0.00208842 0.0495903 -1.90133e-28)
(0.0525205 0.000628281 1.1909e-28)
(0.0521946 0.00283432 -1.97678e-28)
(0.0519525 0.00618847 0)
(0.0515878 0.0102998 -1.27119e-27)
(0.0511286 0.0150904 7.05435e-28)
(0.0504528 0.0203142 -7.77892e-28)
(0.0498255 0.0263177 0)
(0.0492583 0.0327488 -9.50826e-28)
(0.048913 0.040008 1.97744e-27)
(0.0489329 0.0480393 -2.37368e-27)
(0.0495913 0.0573256 0)
(0.0510894 0.0682399 4.3179e-27)
(0.0542112 0.081604 -1.65145e-27)
(0.0587701 0.0970992 -1.9519e-27)
(0.0624705 0.111248 -2.09939e-27)
(0.0631082 0.121146 -9.11651e-27)
(0.059424 0.124993 2.25423e-27)
(0.052452 0.124431 -1.07575e-27)
(0.0448098 0.123208 9.91251e-27)
(0.0376481 0.123009 -9.62937e-27)
(0.0307347 0.123615 1.02634e-26)
(0.0237454 0.124577 0)
(0.0165124 0.125529 -1.06466e-26)
(0.00889894 0.126052 1.07412e-26)
(0.000790987 0.125755 -1.39236e-26)
(-0.00763073 0.124501 -2.42055e-27)
(-0.0162328 0.121827 -2.41026e-27)
(-0.0246231 0.117291 -1.23338e-27)
(-0.0321799 0.110604 -2.16103e-26)
(-0.03852 0.101943 0)
(-0.0426313 0.0911334 -6.53318e-28)
(-0.0438731 0.0788396 0)
(-0.0377215 0.0662243 9.58126e-27)
(-0.0426099 0.0693904 -4.78113e-27)
(-0.0346794 0.0616537 0)
(-0.0220263 0.0516244 -5.53058e-28)
(-0.0313544 0.0556836 -4.38906e-28)
(-0.0265706 0.0514317 -9.30608e-28)
(-0.0130423 0.0494948 -4.41222e-27)
(-0.0170452 0.0486154 -4.66407e-27)
(-0.008352 0.0481217 0)
(-0.000161108 0.0505511 -8.91265e-28)
(-0.00416498 0.0481206 -1.61842e-28)
(-0.000770278 0.0496733 -7.3436e-28)
(0.052647 0.000476573 2.00118e-27)
(0.0526985 0.00236818 -1.75045e-28)
(0.0528139 0.00552271 0)
(0.0527492 0.0094987 0)
(0.0525088 0.0142073 -1.15478e-27)
(0.0520221 0.0194082 -5.25837e-27)
(0.0514006 0.0252738 0)
(0.050876 0.0316944 -6.93525e-28)
(0.0504397 0.0386907 1.01756e-27)
(0.0503602 0.046466 -6.29256e-28)
(0.0507154 0.0553106 -2.50526e-27)
(0.051894 0.0656532 2.90883e-27)
(0.0542228 0.0777337 -3.3363e-27)
(0.058435 0.0928848 -1.9887e-27)
(0.0627511 0.107893 -4.11764e-27)
(0.0648787 0.119955 3.32567e-28)
(0.0630241 0.126325 -2.28585e-27)
(0.0571283 0.127239 6.17856e-27)
(0.0495294 0.126038 -1.73096e-27)
(0.0421653 0.125576 0)
(0.0351839 0.126156 1.06523e-26)
(0.0281662 0.127314 -9.20163e-29)
(0.0208923 0.128656 0)
(0.0131844 0.129768 1.1676e-26)
(0.00485628 0.130285 -2.37105e-26)
(-0.00404753 0.129898 -4.08717e-27)
(-0.0134175 0.128152 -2.85782e-27)
(-0.0229703 0.124629 -1.41618e-27)
(-0.0322445 0.118896 -1.72189e-26)
(-0.0403923 0.110578 -1.66008e-26)
(-0.0473014 0.100248 0)
(-0.0512938 0.0870432 -4.51637e-28)
(-0.0466464 0.0714643 2.53632e-27)
(-0.0521169 0.0764446 0)
(-0.0397805 0.0633716 4.68301e-27)
(-0.0446593 0.0652397 -2.32871e-27)
(-0.0363486 0.0566972 -3.76613e-28)
(-0.0214797 0.0478477 0)
(-0.0315552 0.0516337 9.63764e-28)
(-0.0263395 0.047296 -1.24342e-27)
(-0.0118479 0.0468648 0)
(-0.0159101 0.0455125 2.3133e-27)
(-0.006822 0.0463771 0)
(0.000457339 0.0519045 0)
(-0.00230903 0.0475518 0)
(0.000911683 0.0507629 3.90751e-30)
(0.0523732 0.000293334 1.06067e-28)
(0.0528774 0.00180591 3.56658e-27)
(0.0534269 0.00472828 -1.57957e-27)
(0.0537493 0.00858253 0)
(0.0538028 0.0131747 -1.08729e-35)
(0.0535662 0.018396 -7.3141e-28)
(0.0530225 0.0241611 -2.34771e-27)
(0.0525406 0.0305793 8.84949e-28)
(0.0520598 0.0373862 7.0351e-28)
(0.0518662 0.0449769 0)
(0.0519961 0.0535001 -2.37247e-27)
(0.0528196 0.0633115 3.79654e-27)
(0.0545556 0.0744496 7.6464e-32)
(0.0581267 0.088595 1.58635e-27)
(0.062719 0.104018 2.29862e-27)
(0.0660048 0.117705 2.53004e-27)
(0.0659234 0.126601 -3.34785e-27)
(0.0615402 0.129575 -2.98904e-34)
(0.0543552 0.128865 1.28634e-31)
(0.0468547 0.128127 -6.21709e-28)
(0.0397756 0.128559 2.20183e-26)
(0.0327946 0.129832 1.1607e-26)
(0.0255688 0.13148 -1.23896e-26)
(0.0178907 0.133127 0)
(0.00952207 0.134453 -1.29222e-26)
(0.000342743 0.134988 0)
(-0.00958854 0.134361 3.31379e-27)
(-0.0200633 0.132021 1.59815e-27)
(-0.0307722 0.12761 7.59821e-28)
(-0.0412897 0.120934 -1.89095e-26)
(-0.0505565 0.111198 -1.62295e-27)
(-0.0586398 0.0998606 6.65102e-27)
(-0.0566248 0.0808915 -2.38972e-27)
(-0.0635649 0.090309 -2.27494e-27)
(-0.0505967 0.0689288 5.10321e-27)
(-0.0569127 0.0742884 -9.95079e-29)
(-0.041765 0.0582702 0)
(-0.048133 0.0614203 0)
(-0.0372393 0.0524483 8.26417e-27)
(-0.0204807 0.0441926 6.259e-28)
(-0.0320784 0.0470392 -3.10047e-27)
(-0.0258401 0.0429086 -6.04894e-28)
(-0.0101778 0.0445263 4.68818e-27)
(-0.014189 0.0425043 7.65794e-27)
(-0.00461679 0.0450485 -4.03608e-27)
(0.00132779 0.0550192 0)
(0.000367976 0.0478646 0)
(0.0035436 0.0532028 -7.50727e-27)
(0.0516508 4.70218e-05 1.13907e-29)
(0.0526884 0.0011328 1.1388e-28)
(0.0537479 0.00378003 1.61625e-27)
(0.0545426 0.00750556 -1.46203e-27)
(0.0549691 0.0119691 6.26914e-28)
(0.0550431 0.017204 7.1213e-28)
(0.0546969 0.0229657 -7.81275e-28)
(0.0542544 0.0293309 8.51181e-28)
(0.0538007 0.0360556 0)
(0.0534776 0.0435216 0)
(0.0534558 0.0517781 0)
(0.0539339 0.0611492 -9.38951e-28)
(0.0552052 0.0716715 4.38577e-27)
(0.0580286 0.0844404 3.3822e-27)
(0.0625111 0.099832 -4.67178e-27)
(0.0665916 0.114585 2.62886e-27)
(0.0680926 0.125788 2.82732e-27)
(0.0654724 0.13115 -1.46121e-27)
(0.0591694 0.131545 1.46788e-27)
(0.0516761 0.130686 3.9484e-27)
(0.0444963 0.130852 1.12821e-26)
(0.0375642 0.13213 1.17939e-26)
(0.0304554 0.134 -2.42564e-26)
(0.0229145 0.136101 -4.44004e-28)
(0.0146657 0.138135 0)
(0.0054635 0.139603 1.44141e-26)
(-0.00470856 0.140191 3.73184e-27)
(-0.0159628 0.139279 -3.75784e-27)
(-0.0278089 0.136507 1.70422e-27)
(-0.0398428 0.131691 7.47584e-28)
(-0.0527374 0.126529 -2.27013e-27)
(-0.0664569 0.119993 3.53036e-26)
(-0.069573 0.100729 0)
(-0.0797818 0.11929 1.80816e-27)
(-0.065439 0.0840245 -4.94821e-27)
(-0.0761332 0.0989159 -3.34659e-27)
(-0.0559124 0.0672406 5.18796e-27)
(-0.0669917 0.0784572 0)
(-0.0441796 0.0548619 -4.59447e-27)
(-0.0534674 0.0607597 2.65751e-27)
(-0.0392235 0.0487089 1.14154e-26)
(-0.0189621 0.0402568 2.64464e-27)
(-0.032849 0.0437298 -6.25245e-27)
(-0.0255795 0.0397936 -3.10226e-27)
(-0.00772098 0.0424193 -6.68298e-27)
(-0.0116848 0.0393191 0)
(-0.00146972 0.0441924 0)
(0.00266547 0.0602713 0)
(0.00410043 0.0488063 3.12341e-28)