/*--------------------------------*- C++ -*----------------------------------*\
  =========                 |
  \\      /  F ield         | OpenFOAM: The Open Source CFD Toolbox
   \\    /   O peration     | Website:  https://openfoam.org
    \\  /    A nd           | Version:  dev
     \\/     M anipulation  |
\*---------------------------------------------------------------------------*/
FoamFile
{
    version     2.0;
    format      ascii;
    class       volScalarField;
    location    "2500";
    object      a;
}
// * * * * * * * * * * * * * * * * * * * * * * * * * * * * * * * * * * * * * //

dimensions      [0 -1 0 0 0 0 0];

internalField   nonuniform List<scalar> 
9842
(
0.100011
0.100011
0.100011
0.100011
0.100011
0.100011
0.100011
0.100011
0.100011
0.100011
0.10001
0.100011
0.100011
0.100011
0.100011
0.10001
0.10001
0.100011
0.100011
0.100011
0.100011
0.10001
0.10001
0.10001
0.100011
0.100011
0.100011
0.100011
0.10001
0.10001
0.10001
0.10001
0.100011
0.100011
0.100011
0.100011
0.100009
0.10001
0.10001
0.10001
0.10001
0.100011
0.100011
0.100011
0.100011
0.100009
0.100009
0.10001
0.10001
0.10001
0.10001
0.100011
0.100011
0.100011
0.100011
0.100009
0.100009
0.100009
0.10001
0.10001
0.10001
0.10001
0.100011
0.100011
0.100011
0.100011
0.100009
0.100009
0.100009
0.100009
0.10001
0.10001
0.10001
0.10001
0.100011
0.100011
0.100011
0.100011
0.100009
0.100009
0.100009
0.100009
0.100009
0.10001
0.10001
0.10001
0.10001
0.100011
0.100011
0.100011
0.100011
0.100008
0.100009
0.100009
0.100009
0.100009
0.100009
0.10001
0.10001
0.10001
0.10001
0.100011
0.100011
0.100011
0.100011
0.100008
0.100008
0.100009
0.100009
0.100009
0.100009
0.100009
0.10001
0.10001
0.10001
0.10001
0.100011
0.100011
0.100011
0.100011
0.100008
0.100008
0.100008
0.100009
0.100009
0.100009
0.100009
0.100009
0.10001
0.10001
0.10001
0.10001
0.100011
0.100011
0.100011
0.100011
0.100008
0.100008
0.100008
0.100008
0.100009
0.100009
0.100009
0.100009
0.100009
0.10001
0.10001
0.10001
0.10001
0.100011
0.100011
0.100011
0.100011
0.100007
0.100008
0.100008
0.100008
0.100008
0.100009
0.100009
0.100009
0.100009
0.100009
0.10001
0.10001
0.10001
0.10001
0.100011
0.100011
0.100011
0.100011
0.100007
0.100007
0.100008
0.100008
0.100008
0.100008
0.100009
0.100009
0.100009
0.100009
0.100009
0.10001
0.10001
0.10001
0.10001
0.100011
0.100011
0.100011
0.100011
0.100007
0.100007
0.100007
0.100008
0.100008
0.100008
0.100008
0.100009
0.100009
0.100009
0.100009
0.100009
0.10001
0.10001
0.10001
0.10001
0.100011
0.100011
0.100011
0.100011
0.100007
0.100007
0.100007
0.100007
0.100008
0.100008
0.100008
0.100008
0.100009
0.100009
0.100009
0.100009
0.100009
0.10001
0.10001
0.10001
0.10001
0.100011
0.100011
0.100011
0.100011
0.100006
0.100007
0.100007
0.100007
0.100007
0.100008
0.100008
0.100008
0.100008
0.100008
0.100009
0.100009
0.100009
0.100009
0.10001
0.10001
0.10001
0.10001
0.100011
0.100011
0.100011
0.100011
0.100006
0.100006
0.100007
0.100007
0.100007
0.100007
0.100008
0.100008
0.100008
0.100008
0.100008
0.100009
0.100009
0.100009
0.100009
0.10001
0.10001
0.10001
0.10001
0.100011
0.100011
0.100011
0.100011
0.100006
0.100006
0.100006
0.100007
0.100007
0.100007
0.100007
0.100008
0.100008
0.100008
0.100008
0.100008
0.100009
0.100009
0.100009
0.100009
0.10001
0.10001
0.10001
0.10001
0.100011
0.100011
0.100011
0.100011
0.100006
0.100006
0.100006
0.100006
0.100007
0.100007
0.100007
0.100007
0.100008
0.100008
0.100008
0.100008
0.100008
0.100009
0.100009
0.100009
0.100009
0.10001
0.10001
0.10001
0.10001
0.100011
0.100011
0.100011
0.100011
0.100006
0.100006
0.100006
0.100006
0.100006
0.100007
0.100007
0.100007
0.100007
0.100008
0.100008
0.100008
0.100008
0.100008
0.100009
0.100009
0.100009
0.100009
0.10001
0.10001
0.10001
0.10001
0.100011
0.100011
0.100011
0.100011
0.100005
0.100006
0.100006
0.100006
0.100006
0.100006
0.100007
0.100007
0.100007
0.100007
0.100008
0.100008
0.100008
0.100008
0.100008
0.100009
0.100009
0.100009
0.100009
0.10001
0.10001
0.10001
0.10001
0.100011
0.100011
0.100011
0.100011
0.100005
0.100005
0.100006
0.100006
0.100006
0.100006
0.100006
0.100007
0.100007
0.100007
0.100007
0.100008
0.100008
0.100008
0.100008
0.100008
0.100009
0.100009
0.100009
0.100009
0.10001
0.10001
0.10001
0.10001
0.100011
0.100011
0.100011
0.100011
0.100005
0.100005
0.100005
0.100006
0.100006
0.100006
0.100006
0.100006
0.100007
0.100007
0.100007
0.100007
0.100008
0.100008
0.100008
0.100008
0.100008
0.100009
0.100009
0.100009
0.100009
0.10001
0.10001
0.10001
0.10001
0.100011
0.100011
0.100011
0.100011
0.100005
0.100005
0.100005
0.100005
0.100006
0.100006
0.100006
0.100006
0.100006
0.100007
0.100007
0.100007
0.100007
0.100008
0.100008
0.100008
0.100008
0.100008
0.100009
0.100009
0.100009
0.100009
0.10001
0.10001
0.10001
0.10001
0.100011
0.100011
0.100011
0.100011
0.100004
0.100005
0.100005
0.100005
0.100005
0.100006
0.100006
0.100006
0.100006
0.100006
0.100007
0.100007
0.100007
0.100007
0.100008
0.100008
0.100008
0.100008
0.100008
0.100009
0.100009
0.100009
0.100009
0.10001
0.10001
0.10001
0.10001
0.100011
0.100011
0.100011
0.100011
0.100004
0.100004
0.100005
0.100005
0.100005
0.100005
0.100006
0.100006
0.100006
0.100006
0.100006
0.100007
0.100007
0.100007
0.100007
0.100008
0.100008
0.100008
0.100008
0.100008
0.100009
0.100009
0.100009
0.100009
0.10001
0.10001
0.10001
0.10001
0.100011
0.100011
0.100011
0.100011
0.100004
0.100004
0.100004
0.100005
0.100005
0.100005
0.100005
0.100006
0.100006
0.100006
0.100006
0.100006
0.100007
0.100007
0.100007
0.100007
0.100008
0.100008
0.100008
0.100008
0.100008
0.100009
0.100009
0.100009
0.100009
0.10001
0.10001
0.10001
0.10001
0.100011
0.100011
0.100011
0.100011
0.100004
0.100004
0.100004
0.100004
0.100005
0.100005
0.100005
0.100005
0.100006
0.100006
0.100006
0.100006
0.100006
0.100007
0.100007
0.100007
0.100007
0.100008
0.100008
0.100008
0.100008
0.100008
0.100009
0.100009
0.100009
0.100009
0.10001
0.10001
0.10001
0.10001
0.100011
0.100011
0.100011
0.100011
0.100011
0.100004
0.100004
0.100004
0.100004
0.100004
0.100005
0.100005
0.100005
0.100005
0.100006
0.100006
0.100006
0.100006
0.100006
0.100007
0.100007
0.100007
0.100007
0.100008
0.100008
0.100008
0.100008
0.100008
0.100009
0.100009
0.100009
0.100009
0.10001
0.10001
0.10001
0.10001
0.100011
0.100011
0.100011
0.100011
0.100011
0.100011
0.100003
0.100004
0.100004
0.100004
0.100004
0.100004
0.100005
0.100005
0.100005
0.100005
0.100006
0.100006
0.100006
0.100006
0.100006
0.100007
0.100007
0.100007
0.100007
0.100008
0.100008
0.100008
0.100008
0.100008
0.100009
0.100009
0.100009
0.100009
0.10001
0.10001
0.10001
0.10001
0.100011
0.10001
0.100011
0.100011
0.100011
0.100011
0.100011
0.100011
0.100011
0.100003
0.100003
0.100004
0.100004
0.100004
0.100004
0.100004
0.100005
0.100005
0.100005
0.100005
0.100006
0.100006
0.100006
0.100006
0.100006
0.100007
0.100007
0.100007
0.100007
0.100008
0.100008
0.100008
0.100008
0.100008
0.100009
0.100009
0.100009
0.100009
0.10001
0.10001
0.10001
0.10001
0.10001
0.10001
0.100011
0.100011
0.100011
0.100011
0.100011
0.100011
0.100011
0.100003
0.100003
0.100003
0.100004
0.100004
0.100004
0.100004
0.100004
0.100005
0.100005
0.100005
0.100005
0.100006
0.100006
0.100006
0.100006
0.100006
0.100007
0.100007
0.100007
0.100007
0.100008
0.100008
0.100008
0.100008
0.100008
0.100009
0.100009
0.100009
0.100009
0.10001
0.10001
0.10001
0.10001
0.10001
0.10001
0.10001
0.100011
0.100011
0.100011
0.100011
0.100011
0.100011
0.100011
0.100003
0.100003
0.100003
0.100003
0.100004
0.100004
0.100004
0.100004
0.100004
0.100005
0.100005
0.100005
0.100005
0.100006
0.100006
0.100006
0.100006
0.100006
0.100007
0.100007
0.100007
0.100007
0.100008
0.100008
0.100008
0.100008
0.100008
0.100009
0.100009
0.100009
0.100009
0.10001
0.10001
0.10001
0.10001
0.10001
0.10001
0.10001
0.10001
0.100011
0.100011
0.100011
0.100011
0.100011
0.100011
0.100011
0.100002
0.100003
0.100003
0.100003
0.100003
0.100004
0.100004
0.100004
0.100004
0.100004
0.100005
0.100005
0.100005
0.100005
0.100006
0.100006
0.100006
0.100006
0.100006
0.100007
0.100007
0.100007
0.100007
0.100008
0.100008
0.100008
0.100008
0.100008
0.100009
0.100009
0.100009
0.100009
0.10001
0.10001
0.10001
0.10001
0.10001
0.10001
0.10001
0.10001
0.10001
0.100011
0.100011
0.100011
0.100011
0.100011
0.100011
0.100011
0.100002
0.100002
0.100003
0.100003
0.100003
0.100003
0.100004
0.100004
0.100004
0.100004
0.100004
0.100005
0.100005
0.100005
0.100005
0.100006
0.100006
0.100006
0.100006
0.100006
0.100007
0.100007
0.100007
0.100007
0.100008
0.100008
0.100008
0.100008
0.100009
0.100009
0.100009
0.100009
0.100009
0.100009
0.10001
0.10001
0.10001
0.10001
0.10001
0.10001
0.10001
0.10001
0.10001
0.100011
0.100011
0.100011
0.100011
0.100011
0.100011
0.100011
0.100002
0.100002
0.100002
0.100003
0.100003
0.100003
0.100003
0.100003
0.100004
0.100004
0.100004
0.100004
0.100005
0.100005
0.100005
0.100005
0.100006
0.100006
0.100006
0.100006
0.100006
0.100007
0.100007
0.100007
0.100007
0.100008
0.100008
0.100008
0.100008
0.100009
0.100009
0.100009
0.100009
0.100009
0.100009
0.100009
0.10001
0.10001
0.10001
0.10001
0.10001
0.10001
0.10001
0.10001
0.10001
0.100011
0.100011
0.100011
0.100011
0.100011
0.100011
0.100011
0.100002
0.100002
0.100002
0.100002
0.100003
0.100003
0.100003
0.100003
0.100003
0.100004
0.100004
0.100004
0.100004
0.100005
0.100005
0.100005
0.100005
0.100006
0.100006
0.100006
0.100006
0.100006
0.100007
0.100007
0.100007
0.100007
0.100008
0.100008
0.100008
0.100008
0.100009
0.100009
0.100009
0.100009
0.100009
0.100009
0.10001
0.10001
0.10001
0.10001
0.10001
0.10001
0.10001
0.10001
0.10001
0.10001
0.10001
0.100011
0.100011
0.100011
0.100011
0.100011
0.100011
0.100011
0.100001
0.100002
0.100002
0.100002
0.100002
0.100003
0.100003
0.100003
0.100003
0.100003
0.100004
0.100004
0.100004
0.100004
0.100005
0.100005
0.100005
0.100005
0.100006
0.100006
0.100006
0.100006
0.100006
0.100007
0.100007
0.100007
0.100007
0.100008
0.100008
0.100008
0.100008
0.100009
0.100009
0.10001
0.10001
0.100011
0.10001
0.100012
0.10001
0.100012
0.10001
0.100012
0.10001
0.100011
0.10001
0.100011
0.10001
0.10001
0.100011
0.100011
0.100011
0.100011
0.100011
0.100011
0.100011
0.100011
0.100001
0.100001
0.100002
0.100002
0.100002
0.100002
0.100003
0.100003
0.100003
0.100003
0.100003
0.100004
0.100004
0.100004
0.100004
0.100005
0.100005
0.100005
0.100005
0.100006
0.100006
0.100006
0.100006
0.100006
0.100007
0.100007
0.100007
0.100007
0.100008
0.100008
0.100008
0.100011
0.100013
0.100008
0.100013
0.10002
0.100015
0.100025
0.100017
0.100028
0.100016
0.100029
0.100015
0.100026
0.100013
0.10002
0.100011
0.100015
0.100011
0.100012
0.100011
0.100011
0.100011
0.100011
0.100011
0.100011
0.100011
0.100011
0.100001
0.100001
0.100001
0.100002
0.100002
0.100002
0.100002
0.100003
0.100003
0.100003
0.100003
0.100003
0.100004
0.100004
0.100004
0.100004
0.100005
0.100005
0.100005
0.100005
0.100006
0.100006
0.100006
0.100006
0.100006
0.100007
0.100007
0.100007
0.100007
0.100008
0.100008
0.100024
0.100113
0.100035
0.100093
0.100046
0.100099
0.100056
0.100122
0.100061
0.100139
0.100056
0.100138
0.100044
0.100115
0.100029
0.100077
0.100018
0.100044
0.100012
0.100022
0.100013
0.100011
0.100013
0.100012
0.100011
0.100011
0.100011
0.100011
0.100001
0.100001
0.100001
0.100001
0.100002
0.100002
0.100002
0.100002
0.100003
0.100003
0.100003
0.100003
0.100003
0.100004
0.100004
0.100004
0.100004
0.100005
0.100005
0.100005
0.100005
0.100006
0.100006
0.100006
0.100006
0.100006
0.100007
0.100007
0.100007
0.100007
0.10001
0.100034
0.100393
0.100986
0.102056
0.100218
0.100503
0.100279
0.100667
0.10033
0.100794
0.100346
0.10087
0.100309
0.100829
0.100233
0.100678
0.100141
0.100467
0.100066
0.100252
0.100025
0.100095
0.100027
0.100012
0.100025
0.10002
0.100011
0.100011
0.100011
0.100011
0.100001
0.100001
0.100001
0.100001
0.100001
0.100002
0.100002
0.100002
0.100002
0.100003
0.100003
0.100003
0.100003
0.100003
0.100004
0.100004
0.100004
0.100004
0.100005
0.100005
0.100005
0.100005
0.100006
0.100006
0.100006
0.100006
0.100006
0.100007
0.100007
0.100007
0.100011
0.100116
0.100635
0.103375
0.105539
0.106647
0.112006
0.101551
0.103494
0.101919
0.104579
0.102172
0.105293
0.102181
0.105584
0.101894
0.105151
0.101448
0.10415
0.10091
0.102925
0.10042
0.101649
0.100122
0.100629
0.100132
0.100016
0.100115
0.100076
0.100011
0.100013
0.100011
0.100011
0.1
0.100001
0.100001
0.100001
0.100001
0.100001
0.100002
0.100002
0.100002
0.100002
0.100003
0.100003
0.100003
0.100003
0.100003
0.100004
0.100004
0.100004
0.100004
0.100005
0.100005
0.100005
0.100005
0.100006
0.100006
0.100006
0.100006
0.100006
0.100007
0.100007
0.10001
0.100169
0.102947
0.108766
0.105791
0.118119
0.126953
0.130427
0.143953
0.110136
0.118919
0.112081
0.124328
0.113059
0.12734
0.112664
0.128306
0.111031
0.126171
0.108544
0.121527
0.105497
0.115887
0.102701
0.109445
0.100813
0.103937
0.100882
0.100042
0.100756
0.100483
0.100012
0.100022
0.100011
0.100011
0.1
0.1
0.100001
0.100001
0.100001
0.100001
0.100001
0.100002
0.100002
0.100002
0.100002
0.100003
0.100003
0.100003
0.100003
0.100003
0.100004
0.100004
0.100004
0.100004
0.100005
0.100005
0.100005
0.100005
0.100006
0.100006
0.100006
0.100006
0.100006
0.100007
0.100008
0.100155
0.103857
0.137441
0.133476
0.149787
0.15838
0.172925
0.178326
0.197975
0.140397
0.158829
0.146101
0.168658
0.149476
0.174402
0.150198
0.178076
0.14701
0.178334
0.138952
0.174062
0.126689
0.162911
0.114538
0.141225
0.104952
0.120002
0.105318
0.100228
0.10461
0.103034
0.100014
0.10009
0.100011
0.100012
0.1
0.1
0.100001
0.100001
0.100001
0.100001
0.100001
0.100002
0.100002
0.100002
0.100002
0.100003
0.100003
0.100003
0.100003
0.100003
0.100004
0.100004
0.100004
0.100004
0.100005
0.100005
0.100005
0.100005
0.100006
0.100006
0.100006
0.100006
0.100006
0.100008
0.100101
0.103688
0.139096
0.208612
0.217732
0.18631
0.19919
0.216935
0.234173
0.23973
0.261984
0.192415
0.216603
0.201199
0.229248
0.207444
0.237956
0.212017
0.245636
0.212443
0.250857
0.207075
0.251775
0.190879
0.243976
0.158003
0.219903
0.124129
0.173547
0.125411
0.101493
0.122493
0.115872
0.100034
0.100562
0.100011
0.100016
0.1
0.1
0.100001
0.100001
0.100001
0.100001
0.100001
0.100002
0.100002
0.100002
0.100002
0.100003
0.100003
0.100003
0.100003
0.100003
0.100004
0.100004
0.100004
0.100004
0.100005
0.100005
0.100005
0.100005
0.100006
0.100006
0.100006
0.100006
0.100007
0.100053
0.102969
0.1385
0.221719
0.216963
0.273102
0.280415
0.249895
0.26307
0.282301
0.29985
0.306525
0.329081
0.25621
0.282771
0.268268
0.298001
0.278145
0.31002
0.287789
0.321769
0.29384
0.332195
0.293724
0.338277
0.281277
0.335313
0.247121
0.31479
0.183964
0.269175
0.185766
0.107456
0.177453
0.166468
0.127319
0.100118
0.102577
0.100012
0.100034
0.1
0.1
0.100001
0.100001
0.100001
0.100001
0.100001
0.100002
0.100002
0.100002
0.100002
0.100003
0.100003
0.100003
0.100003
0.100004
0.100004
0.100004
0.100004
0.100004
0.100005
0.100005
0.100005
0.100005
0.100006
0.100006
0.100006
0.100007
0.100034
0.101913
0.135589
0.253178
0.283283
0.292796
0.333156
0.334713
0.315547
0.326136
0.347246
0.36039
0.371169
0.38517
0.325116
0.350413
0.339732
0.366221
0.352556
0.380013
0.365971
0.394018
0.376102
0.407333
0.380024
0.416248
0.372257
0.416845
0.34199
0.401172
0.281742
0.357332
0.320613
0.233008
0.282946
0.146264
0.113474
0.137317
0.216556
0.272341
0.276282
0.202689
0.100132
0.100498
0.122847
0.113034
0.10306
0.100025
0.100207
0.100074
0.100171
0.1
0.100001
0.100001
0.100001
0.100001
0.100001
0.100001
0.100002
0.100002
0.100002
0.100002
0.100003
0.100003
0.100003
0.100004
0.100004
0.100005
0.100005
0.100005
0.100005
0.100005
0.100005
0.100005
0.100005
0.100006
0.100006
0.100006
0.100024
0.100969
0.128148
0.245169
0.327753
0.319548
0.333609
0.331629
0.361372
0.355812
0.365641
0.364613
0.389786
0.387732
0.410899
0.409127
0.389365
0.404623
0.4034
0.420421
0.41702
0.434525
0.431923
0.449772
0.44431
0.465019
0.450961
0.476475
0.419346
0.439467
0.455975
0.472446
0.386782
0.416363
0.44855
0.462875
0.439738
0.359309
0.324373
0.366144
0.394042
0.324164
0.186689
0.166093
0.259517
0.312142
0.320429
0.244505
0.101035
0.145687
0.126961
0.105971
0.100023
0.100465
0.10023
0.100515
0.100607
0.1
0.100001
0.100001
0.100001
0.100001
0.100001
0.100001
0.100002
0.100002
0.100002
0.100002
0.100003
0.100004
0.100005
0.100007
0.100008
0.10001
0.100008
0.100007
0.100006
0.100005
0.100005
0.100005
0.100005
0.100006
0.100006
0.100017
0.100627
0.11854
0.227115
0.323898
0.338955
0.337154
0.349892
0.345098
0.362388
0.351281
0.382239
0.373015
0.403198
0.391335
0.424601
0.413498
0.429651
0.429379
0.445456
0.448816
0.461541
0.467401
0.478785
0.486463
0.494584
0.506315
0.485314
0.497588
0.507016
0.51562
0.468437
0.484976
0.499259
0.423344
0.44913
0.481265
0.492071
0.471761
0.399587
0.365418
0.401776
0.429668
0.363599
0.225251
0.202424
0.299775
0.358278
0.349094
0.283602
0.102577
0.176763
0.149474
0.113216
0.100025
0.100551
0.10129
0.101758
0.102502
0.100001
0.1
0.100001
0.100001
0.100001
0.100001
0.100001
0.100002
0.100002
0.100003
0.100004
0.100008
0.100013
0.100019
0.100024
0.100027
0.100024
0.100018
0.100012
0.100009
0.100007
0.100006
0.100005
0.100005
0.100006
0.100013
0.100358
0.111047
0.201629
0.31362
0.320521
0.321084
0.326122
0.323285
0.340823
0.332531
0.332412
0.313629
0.374346
0.353624
0.39452
0.368118
0.420771
0.396093
0.445831
0.437172
0.466987
0.461947
0.48843
0.486701
0.512159
0.512538
0.521936
0.527206
0.530747
0.533101
0.51128
0.521449
0.529658
0.536172
0.4979
0.512502
0.525047
0.456334
0.480192
0.509838
0.520671
0.50161
0.433504
0.401408
0.43485
0.461761
0.398418
0.263116
0.238643
0.336311
0.392122
0.382367
0.319557
0.107086
0.211122
0.182731
0.128503
0.100027
0.103267
0.100744
0.106055
0.10769
0.100001
0.1
0.100001
0.100001
0.100001
0.100001
0.100001
0.100002
0.100004
0.100009
0.100022
0.100047
0.100075
0.100094
0.100098
0.100095
0.100075
0.100045
0.100027
0.100014
0.100009
0.100007
0.100006
0.100006
0.10001
0.100194
0.106111
0.173698
0.298106
0.310644
0.28559
0.285411
0.284327
0.28397
0.299022
0.289367
0.274327
0.252098
0.336391
0.303534
0.363301
0.323211
0.402603
0.367842
0.449624
0.429695
0.480323
0.466401
0.510099
0.503131
0.534197
0.534114
0.533326
0.531097
0.540998
0.544332
0.546274
0.547079
0.535341
0.543574
0.549527
0.553191
0.525254
0.538214
0.548675
0.487169
0.510128
0.537146
0.548051
0.530601
0.464951
0.433791
0.465843
0.492397
0.429997
0.298999
0.275744
0.3692
0.422926
0.41273
0.352932
0.119437
0.250293
0.225112
0.160159
0.100111
0.105695
0.102001
0.118639
0.118858
0.1
0.1
0.100001
0.100001
0.100001
0.100001
0.100002
0.100007
0.100024
0.100072
0.100168
0.100294
0.100388
0.1004
0.100349
0.100275
0.100194
0.100104
0.10005
0.100026
0.100013
0.100008
0.100006
0.100009
0.100116
0.103222
0.149541
0.276294
0.315566
0.257743
0.272833
0.239271
0.24851
0.230701
0.233018
0.237894
0.231061
0.20497
0.185488
0.278803
0.237105
0.324192
0.271642
0.389204
0.347502
0.446974
0.421649
0.48957
0.471624
0.531676
0.520434
0.546929
0.546091
0.544529
0.542214
0.554926
0.555487
0.555224
0.55445
0.555985
0.559551
0.560619
0.560288
0.550624
0.560438
0.565
0.517327
0.539464
0.561838
0.571505
0.557981
0.495472
0.464326
0.496373
0.522805
0.459905
0.334519
0.314125
0.40022
0.452439
0.442852
0.385833
0.14933
0.292336
0.271837
0.205905
0.103941
0.112136
0.110953
0.148601
0.141809
0.1
0.1
0.100001
0.100001
0.100001
0.100003
0.100014
0.100062
0.100215
0.10055
0.101049
0.101483
0.101593
0.101378
0.101016
0.100665
0.100385
0.100202
0.10009
0.100041
0.100019
0.10001
0.100009
0.100076
0.101659
0.130871
0.24541
0.315191
0.27483
0.227799
0.23868
0.200331
0.213393
0.180375
0.188809
0.177201
0.176897
0.143743
0.134417
0.215687
0.169784
0.292507
0.226407
0.384444
0.33691
0.448556
0.420175
0.504439
0.483239
0.541807
0.535982
0.521409
0.529676
0.553293
0.551532
0.54919
0.54616
0.559372
0.557993
0.556351
0.554619
0.565641
0.564415
0.561614
0.557816
0.569692
0.5713
0.569389
0.54703
0.566796
0.576979
0.583008
0.579805
0.52629
0.494719
0.527612
0.553003
0.490285
0.36963
0.351958
0.431321
0.483224
0.473773
0.417889
0.197716
0.333846
0.317757
0.257211
0.150874
0.133078
0.152422
0.196819
0.18978
0.1
0.1
0.100001
0.100001
0.100004
0.100027
0.100147
0.100564
0.101583
0.103311
0.105129
0.105939
0.105405
0.103981
0.102512
0.101427
0.100748
0.100342
0.100155
0.100062
0.100025
0.100013
0.10005
0.100971
0.117884
0.207655
0.310118
0.297247
0.234689
0.2517
0.204552
0.219453
0.174407
0.189158
0.148338
0.160619
0.134199
0.138508
0.115774
0.112569
0.16489
0.130023
0.272241
0.196802
0.38422
0.328727
0.457542
0.425543
0.512336
0.501087
0.479071
0.538674
0.532194
0.514577
0.524302
0.552725
0.550452
0.547575
0.543726
0.553923
0.550469
0.547614
0.545166
0.564258
0.556614
0.548432
0.541029
0.576155
0.570034
0.558951
0.574433
0.58704
0.579198
0.581429
0.588826
0.55716
0.526491
0.559334
0.580782
0.522439
0.402975
0.387306
0.461974
0.515248
0.505077
0.448416
0.253901
0.372075
0.360007
0.308658
0.300105
0.192524
0.288806
0.260549
0.274652
0.1
0.1
0.100001
0.100005
0.100047
0.100308
0.101267
0.103916
0.108954
0.115014
0.118816
0.118954
0.115101
0.109927
0.105706
0.102907
0.101269
0.100567
0.100211
0.100077
0.100028
0.100044
0.100692
0.109944
0.17264
0.293924
0.310217
0.265272
0.219612
0.233398
0.188421
0.203958
0.158226
0.17303
0.131826
0.14435
0.114262
0.120998
0.107885
0.105349
0.142187
0.117065
0.254553
0.179817
0.359818
0.299605
0.448081
0.408828
0.503429
0.490706
0.450579
0.433148
0.524476
0.516198
0.4943
0.50617
0.542737
0.539831
0.53608
0.531073
0.535077
0.530639
0.527304
0.52443
0.545375
0.531575
0.519396
0.509884
0.567573
0.549952
0.529265
0.593599
0.594442
0.563976
0.560896
0.583664
0.585744
0.559021
0.589105
0.599629
0.555245
0.433939
0.419278
0.492377
0.547945
0.537118
0.478038
0.311127
0.406103
0.396615
0.355135
0.316297
0.314011
0.387396
0.327689
0.358173
0.1
0.1
0.100005
0.100071
0.100513
0.10246
0.107932
0.119329
0.134206
0.146455
0.150714
0.145712
0.133794
0.120112
0.110212
0.104559
0.101948
0.100685
0.100237
0.100079
0.100051
0.100379
0.105522
0.148359
0.265447
0.31281
0.290808
0.236709
0.252502
0.206201
0.221369
0.174859
0.190502
0.145104
0.159585
0.120486
0.131893
0.106195
0.111347
0.106909
0.103696
0.135777
0.115164
0.231388
0.173783
0.326078
0.283365
0.417184
0.399142
0.367351
0.480907
0.466268
0.424654
0.412339
0.496223
0.486037
0.461713
0.474369
0.5213
0.517259
0.511931
0.504963
0.503249
0.498804
0.495379
0.491902
0.508525
0.490436
0.476856
0.467991
0.539284
0.510858
0.482613
0.600511
0.587501
0.529677
0.523964
0.560425
0.605258
0.590281
0.610462
0.607291
0.5879
0.463001
0.448566
0.523354
0.581185
0.570004
0.507774
0.36116
0.435965
0.427068
0.39383
0.179898
0.403909
0.377304
0.380903
0.411816
0.1
0.100005
0.10008
0.100733
0.103721
0.113368
0.132969
0.158417
0.177907
0.185821
0.182683
0.170588
0.152299
0.131343
0.114512
0.106018
0.102078
0.100697
0.10023
0.100089
0.100253
0.103111
0.132555
0.234003
0.31019
0.306916
0.266488
0.222856
0.23664
0.191877
0.207523
0.160277
0.176007
0.131069
0.14511
0.109354
0.118894
0.102917
0.104381
0.109558
0.103824
0.138759
0.120675
0.232509
0.193973
0.363934
0.347035
0.346917
0.399991
0.385732
0.376888
0.390286
0.448941
0.436747
0.421778
0.415174
0.458604
0.450526
0.438124
0.443682
0.487668
0.482197
0.475418
0.467354
0.462724
0.459107
0.455825
0.452122
0.458678
0.441378
0.430959
0.425543
0.49408
0.459417
0.430512
0.593817
0.564332
0.483376
0.481401
0.524456
0.614799
0.61487
0.622887
0.603435
0.617085
0.491587
0.475954
0.555356
0.613921
0.60377
0.538252
0.400786
0.461976
0.452755
0.424897
0.139474
0.436173
0.343658
0.418048
0.441694
0.100003
0.10008
0.100814
0.104909
0.118223
0.146724
0.181201
0.206961
0.217515
0.215795
0.205088
0.187169
0.164083
0.139085
0.117017
0.106006
0.101999
0.100648
0.100209
0.100252
0.101816
0.121878
0.204402
0.301013
0.31698
0.290835
0.236101
0.251271
0.206307
0.221328
0.174632
0.190615
0.14305
0.158632
0.115881
0.128577
0.103221
0.10715
0.101831
0.10172
0.118842
0.10585
0.167009
0.141277
0.310199
0.276315
0.428445
0.415187
0.480682
0.459845
0.40764
0.399481
0.440538
0.45021
0.432713
0.427755
0.459363
0.46102
0.439338
0.440675
0.445816
0.442604
0.448117
0.44411
0.441181
0.439681
0.422795
0.421277
0.421014
0.421881
0.410345
0.398998
0.394857
0.394476
0.444292
0.411976
0.389445
0.573557
0.533087
0.440994
0.451047
0.490114
0.615916
0.630401
0.630295
0.589742
0.637345
0.519722
0.501204
0.587923
0.641107
0.63601
0.568141
0.430587
0.485605
0.474331
0.449346
0.129242
0.442568
0.339714
0.443015
0.45699
0.100054
0.100818
0.105327
0.122201
0.157568
0.200652
0.231054
0.242595
0.241224
0.231846
0.216141
0.194304
0.167759
0.140114
0.116531
0.105516
0.101734
0.100524
0.100308
0.101407
0.114789
0.177829
0.282672
0.319982
0.308198
0.262293
0.216659
0.230774
0.18575
0.20142
0.153664
0.169735
0.123464
0.138079
0.105292
0.111772
0.101058
0.102331
0.101745
0.100794
0.136634
0.110327
0.233796
0.182458
0.440423
0.413281
0.405484
0.512919
0.497345
0.546693
0.525616
0.460047
0.456654
0.526254
0.536574
0.451259
0.45565
0.538249
0.543798
0.456561
0.470263
0.50144
0.485864
0.425077
0.429307
0.436009
0.444726
0.39705
0.402032
0.410014
0.420329
0.378141
0.375606
0.37721
0.384949
0.407297
0.383138
0.370834
0.551234
0.512332
0.419081
0.449744
0.477973
0.611983
0.642963
0.636034
0.579904
0.65432
0.546443
0.52528
0.619059
0.662683
0.662744
0.596963
0.452075
0.506716
0.493188
0.468591
0.126745
0.449025
0.355867
0.459314
0.466348
0.100611
0.105332
0.123526
0.165478
0.215316
0.249146
0.259313
0.257112
0.248977
0.235656
0.216955
0.193464
0.166045
0.138133
0.114868
0.104432
0.101318
0.100504
0.101318
0.110572
0.157963
0.26275
0.318809
0.31828
0.284884
0.217564
0.19258
0.209208
0.160736
0.17672
0.129518
0.144978
0.107767
0.116279
0.101543
0.103551
0.100364
0.10067
0.102028
0.100561
0.163736
0.116861
0.331629
0.243693
0.502948
0.480735
0.449867
0.488523
0.583998
0.566179
0.576137
0.557228
0.54514
0.543135
0.599875
0.613123
0.515788
0.528355
0.624363
0.628114
0.514972
0.538864
0.583019
0.562035
0.433513
0.45019
0.469512
0.49128
0.396546
0.411572
0.430142
0.451982
0.368781
0.371527
0.383082
0.401001
0.395628
0.380805
0.375816
0.546621
0.516771
0.424741
0.466088
0.488704
0.615198
0.656796
0.649743
0.586539
0.671708
0.572217
0.547626
0.64994
0.68147
0.685145
0.625857
0.467519
0.526898
0.508911
0.483816
0.28982
0.459635
0.434137
0.470634
0.47482
0.104266
0.123469
0.168221
0.225461
0.260948
0.270149
0.267072
0.258388
0.245258
0.229336
0.210249
0.18698
0.159738
0.132519
0.111325
0.103242
0.101001
0.101397
0.108617
0.14558
0.241814
0.3148
0.325099
0.302129
0.242984
0.161769
0.178272
0.177236
0.162984
0.13206
0.147603
0.109548
0.118621
0.102092
0.104625
0.100392
0.100912
0.100179
0.100183
0.102795
0.100541
0.192608
0.12348
0.405673
0.301874
0.536848
0.514246
0.471966
0.500667
0.612782
0.594418
0.578804
0.562107
0.627764
0.622945
0.631157
0.649686
0.600791
0.614994
0.688268
0.687046
0.589584
0.615715
0.658657
0.639082
0.476641
0.503787
0.532412
0.561348
0.422951
0.448401
0.475831
0.50618
0.377271
0.389025
0.410804
0.441098
0.40569
0.397652
0.397938
0.5574
0.534409
0.448725
0.505721
0.515713
0.633127
0.673748
0.668263
0.612854
0.689162
0.597927
0.571025
0.677909
0.699191
0.702585
0.657006
0.479394
0.544306
0.52347
0.49658
0.448434
0.476851
0.486642
0.48004
0.484722
0.11971
0.168002
0.229518
0.268516
0.277397
0.273683
0.262827
0.247658
0.231584
0.215153
0.197005
0.17491
0.149092
0.125022
0.108345
0.102174
0.10174
0.108347
0.140442
0.223428
0.30594
0.328756
0.31393
0.26335
0.179677
0.145873
0.127674
0.141783
0.130639
0.109792
0.117925
0.10236
0.104985
0.100471
0.10107
0.100092
0.100204
0.100149
0.100064
0.103758
0.100659
0.20014
0.125118
0.440624
0.394012
0.317358
0.544246
0.524121
0.472634
0.498195
0.613591
0.595542
0.559733
0.547296
0.680479
0.666781
0.633428
0.655409
0.673629
0.683865
0.723292
0.714659
0.653624
0.676219
0.710327
0.695299
0.537361
0.568815
0.599215
0.6276
0.47549
0.509627
0.542901
0.577019
0.410453
0.434814
0.470057
0.511032
0.441863
0.442783
0.458428
0.59646
0.592612
0.503623
0.600558
0.593127
0.648774
0.690966
0.676181
0.639872
0.70639
0.626611
0.592094
0.701188
0.715247
0.721659
0.689651
0.490025
0.562505
0.540155
0.509254
0.348468
0.4931
0.501956
0.489768
0.495426
0.160535
0.229564
0.272151
0.282365
0.2789
0.265194
0.247428
0.230196
0.214332
0.197801
0.18004
0.159402
0.136611
0.117559
0.1055
0.102588
0.10865
0.140312
0.214336
0.295794
0.329039
0.321199
0.279073
0.200671
0.119351
0.115853
0.107752
0.114652
0.108675
0.102211
0.104503
0.100476
0.101043
0.100093
0.100211
0.100027
0.100044
0.100163
0.100041
0.104344
0.100784
0.185713
0.12232
0.429936
0.390881
0.272014
0.329331
0.533947
0.518102
0.45925
0.480828
0.59052
0.573271
0.521156
0.514083
0.698681
0.677425
0.614436
0.643084
0.720273
0.72451
0.74169
0.725127
0.708697
0.724802
0.746209
0.73715
0.608756
0.638379
0.665242
0.688552
0.552154
0.589312
0.623556
0.655671
0.487462
0.522716
0.563941
0.60475
0.511087
0.534622
0.568578
0.641436
0.644136
0.609195
0.652045
0.64544
0.667387
0.700942
0.69818
0.669133
0.716012
0.65726
0.618967
0.724337
0.730257
0.73534
0.71665
0.501089
0.586568
0.555866
0.522304
0.179645
0.509599
0.47124
0.50106
0.508971
0.222032
0.27274
0.285448
0.283121
0.268735
0.24772
0.229025
0.211773
0.195913
0.179677
0.162067
0.141839
0.123351
0.109318
0.104427
0.110238
0.142162
0.214165
0.290119
0.328325
0.32481
0.289881
0.217511
0.129688
0.101643
0.104362
0.103701
0.101654
0.101759
0.100398
0.100844
0.100084
0.100183
0.100021
0.10004
0.100016
0.100014
0.100213
0.100039
0.104232
0.100787
0.257967
0.187672
0.142275
0.11543
0.407993
0.37307
0.304865
0.50651
0.496095
0.43404
0.451968
0.547687
0.530954
0.473117
0.470868
0.701834
0.674298
0.576663
0.617053
0.749193
0.747779
0.748981
0.728055
0.756127
0.765309
0.771743
0.770328
0.683344
0.706734
0.727218
0.743383
0.644286
0.678534
0.708493
0.733009
0.602753
0.636236
0.669924
0.698981
0.632587
0.656459
0.678764
0.673134
0.671727
0.658193
0.667756
0.671024
0.70197
0.721021
0.722092
0.696805
0.735452
0.692354
0.652019
0.73541
0.752243
0.755915
0.729652
0.513572
0.605152
0.577086
0.537542
0.167254
0.520973
0.452816
0.51536
0.524611
0.269529
0.286451
0.286242
0.273621
0.252612
0.232877