/*--------------------------------*- C++ -*----------------------------------*\
  =========                 |
  \\      /  F ield         | OpenFOAM: The Open Source CFD Toolbox
   \\    /   O peration     | Website:  https://openfoam.org
    \\  /    A nd           | Version:  dev
     \\/     M anipulation  |
\*---------------------------------------------------------------------------*/
FoamFile
{
    version     2.0;
    format      ascii;
    class       volScalarField;
    location    "2500";
    object      alphat;
}
// * * * * * * * * * * * * * * * * * * * * * * * * * * * * * * * * * * * * * //

dimensions      [1 -1 -1 0 0 0 0];

internalField   nonuniform List<scalar> 
9842
(
0.000155381
0.000158749
0.000151251
0.000142965
0.000191875
0.000133692
0.00013106
0.000201219
0.0001813
0.000126325
0.000126093
0.00019239
0.000206474
0.000154894
0.00012408
0.000122552
0.000171052
0.000220917
0.000190925
0.000140516
0.000122341
0.000120662
0.000151529
0.000219386
0.000216179
0.000162674
0.000134328
0.000121132
0.000119755
0.000140305
0.000208098
0.000230426
0.000193702
0.000146978
0.000130416
0.000120356
0.000119541
0.000132364
0.000184461
0.000236976
0.000220624
0.00016586
0.0001399
0.000127468
0.000119782
0.000119404
0.000127746
0.000161062
0.000232321
0.000235999
0.000192383
0.000149999
0.000135444
0.000125434
0.000119331
0.000119224
0.000124974
0.000147818
0.000217098
0.00024716
0.000221409
0.000166578
0.00014243
0.000131982
0.000124011
0.000118967
0.000118791
0.000123248
0.000138287
0.000189589
0.000247745
0.000241455
0.000189116
0.000151562
0.000137934
0.000129382
0.000122884
0.000118672
0.000118191
0.000122315
0.000132441
0.000165751
0.00024061
0.000250643
0.000219034
0.000165116
0.000143989
0.000134645
0.000127387
0.000121984
0.000118417
0.000117756
0.00012167
0.000128871
0.00015194
0.000220691
0.000258655
0.000241533
0.000186791
0.000151148
0.000139576
0.000131975
0.000125825
0.000121251
0.000118237
0.000117533
0.000121108
0.00012663
0.000142184
0.000190928
0.000256325
0.000256117
0.000213617
0.000163844
0.000144208
0.000136289
0.000129853
0.000124568
0.000120576
0.000118099
0.000117409
0.000120339
0.000125024
0.000136147
0.000168548
0.00024546
0.000264593
0.000241096
0.000183204
0.000150739
0.000140066
0.000133551
0.000128124
0.000123541
0.000120069
0.000117965
0.000117419
0.000119702
0.00012409
0.000132258
0.000154748
0.000220851
0.000268542
0.000258428
0.00020748
0.000162234
0.000144012
0.00013687
0.000131343
0.0001267
0.000122573
0.000119625
0.000117843
0.0001175
0.000119196
0.000123341
0.000129735
0.000145355
0.000190719
0.000263616
0.000268345
0.000235297
0.000179416
0.000150046
0.000139958
0.000134208
0.000129568
0.000125435
0.000121754
0.000119238
0.000117735
0.000117534
0.000118647
0.000122228
0.00012786
0.000139153
0.000170663
0.000249807
0.000276322
0.000257449
0.000201715
0.000160342
0.000143568
0.000136984
0.000132043
0.000128066
0.000124268
0.000121064
0.00011891
0.000117662
0.000117482
0.000118171
0.000121137
0.000126395
0.000134816
0.000157115
0.000221352
0.000277662
0.000272182
0.000227501
0.000175634
0.000149185
0.000139947
0.000134389
0.00013027
0.00012669
0.000123276
0.000120448
0.000118665
0.000117577
0.000117354
0.000117835
0.000120259
0.000125202
0.000131889
0.000147548
0.000190881
0.000270849
0.000279244
0.000253847
0.000195891
0.000158297
0.000143112
0.000137188
0.000132328
0.000128789
0.000125488
0.000122415
0.000119862
0.000118489
0.000117447
0.000117231
0.000117805
0.00011971
0.000124005
0.000129814
0.000141196
0.000172222
0.000254267
0.000286982
0.000271618
0.000219234
0.000172298
0.000148144
0.000139787
0.000134765
0.000130692
0.000127447
0.000124434
0.000121612
0.000119454
0.000118294
0.000117355
0.000117153
0.000117778
0.000119057
0.000122848
0.000128244
0.000136701
0.000159074
0.000223565
0.000286006
0.000284466
0.00024516
0.000189272
0.000156579
0.000142552
0.000137188
0.000132782
0.000129294
0.000126289
0.000123489
0.000120794
0.000119162
0.000118011
0.0001173
0.000117112
0.000117639
0.00011845
0.000121712
0.000126835
0.000133536
0.000149593
0.000192704
0.000278141
0.000290414
0.000270079
0.000211437
0.000168105
0.000147242
0.000139578
0.000134934
0.000131129
0.000128045
0.000125253
0.000122595
0.000120135
0.000118875
0.000117725
0.000117267
0.000117089
0.000117421
0.000118006
0.000120799
0.000125672
0.000131073
0.00014298
0.000173935
0.000259661
0.000297184
0.000284475
0.000235037
0.00018406
0.000154381
0.000141978
0.000137081
0.000132973
0.000129781
0.000126944
0.000124289
0.000121721
0.000119691
0.000118543
0.000117489
0.000117244
0.00011707
0.000117193
0.000117852
0.000120133
0.000124551
0.000129107
0.000138211
0.000161453
0.000228093
0.000295029
0.000295897
0.000260481
0.000202458
0.000165098
0.000146054
0.000139258
0.000134917
0.000131394
0.000128602
0.000125915
0.000123376
0.000120905
0.00011931
0.000118162
0.000117308
0.000117224
0.000117048
0.000117005
0.000117744
0.00011932
0.000123394
0.000127709
0.000134696
0.000151836
0.000197034
0.000285967
0.000301453
0.000284069
0.000225578
0.000177687
0.000152664
0.000141334
0.000136875
0.000133069
0.000130176
0.000127528
0.00012496
0.000122507
0.000120221
0.00011893
0.000117782
0.000117181
0.000117199
0.000117031
0.00011688
0.000117565
0.000118543
0.000122325
0.00012648
0.000132017
0.000145004
0.000176703
0.000266443
0.000307035
0.00029648
0.000249221
0.000195283
0.000161318
0.000145072
0.000138808
0.000134817
0.000131616
0.000129099
0.000126548
0.000124063
0.000121682
0.000119685
0.000118539
0.000117443
0.00011711
0.000117154
0.000117018
0.000116788
0.000117337
0.000117979
0.000121386
0.000125378
0.000129929
0.000139973
0.00016494
0.000235995
0.000304486
0.000306535
0.000273919
0.000214453
0.000173003
0.000150673
0.000140799
0.000136603
0.000133133
0.000130513
0.000128105
0.000125634
0.000123198
0.000120871
0.000119226
0.000118119
0.000117175
0.000117067
0.000117151
0.000117012
0.000116721
0.000117141
0.00011765
0.00012052
0.000124368
0.000128218
0.000136289
0.000155467
0.000205131
0.000295313
0.000311604
0.000295834
0.000237781
0.000186858
0.000158465
0.000144101
0.000138411
0.000134701
0.000131814
0.00012956
0.000127194
0.000124752
0.000122351
0.000120144
0.000118801
0.000117686
0.000117027
0.000117005
0.000117171
0.000117015
0.000116669
0.000116982
0.000117362
0.000119572
0.000123368
0.000126755
0.000133432
0.000148569
0.00018248
0.000275888
0.000316292
0.000307098
0.00026132
0.00020519
0.000167945
0.000149146
0.000140262
0.000136419
0.000133183
0.000130767
0.000128682
0.00012632
0.000123887
0.000121556
0.000119566
0.000118389
0.000117311
0.000116934
0.000116941
0.000117179
0.000117026
0.000116636
0.000116861
0.000117091
0.000118769
0.000122461
0.000125468
0.000131097
0.000143521
0.000170352
0.000249074
0.000314008
0.000315992
0.0002852
0.00022479
0.000180265
0.00015577
0.000143383
0.000138026
0.000134645
0.000132031
0.000129942
0.000127865
0.000125456
0.000123045
0.000120789
0.000119085
0.000117991
0.000117058
0.000116849
0.000116878
0.000117135
0.000117051
0.000116625
0.000116778
0.000116863
0.000118115
0.000121629
0.000124377
0.000129157
0.000139838
0.000162109
0.000219552
0.000305882
0.000320261
0.00030563
0.000247914
0.000195122
0.000163687
0.000147956
0.000139984
0.000136285
0.000133346
0.000131165
0.000129191
0.000127076
0.000124603
0.000122234
0.000120108
0.000118671
0.000117621
0.000117
0.000116913
0.000116969
0.000117179
0.000117069
0.000116628
0.000116723
0.000116679
0.00011763
0.000120907
0.000123445
0.000127516
0.000136969
0.00015574
0.000195733
0.000288652
0.000324677
0.00031591
0.000270474
0.000213451
0.000173968
0.000153354
0.000142972
0.000137947
0.000134832
0.000132415
0.000130435
0.000128506
0.000126255
0.00012374
0.000121438
0.000119476
0.000118308
0.000117341
0.000117107
0.000117186
0.00011715
0.000117254
0.000117264
0.00011709
0.00011664
0.000116676
0.000116507
0.000117255
0.000120237
0.000122658
0.000126143
0.000134339
0.000151795
0.000180563
0.000265228
0.000323177
0.000324017
0.000293732
0.000233152
0.000186562
0.000160216
0.000146876
0.000139976
0.000136471
0.000133766
0.000131742
0.000129824
0.000127786
0.000125351
0.000122929
0.000120754
0.000119013
0.000117991
0.000117157
0.000117152
0.000117296
0.000117248
0.000117302
0.000117287
0.000117309
0.000117111
0.00011665
0.000116651
0.000116348
0.000116956
0.000119677
0.000121996
0.000125007
0.00013222
0.000149211
0.000171977
0.000239322
0.000316377
0.000327432
0.000313217
0.000255642
0.000201839
0.000168409
0.000151607
0.000142772
0.000138138
0.000135363
0.000133143
0.000131199
0.0001293
0.00012705
0.000124435
0.000122046
0.000120016
0.000118621
0.000117695
0.000117092
0.000117373
0.000117447
0.000117443
0.000117498
0.000117644
0.000117323
0.000117429
0.000117313
0.000117366
0.000117134
0.000116676
0.000116642
0.000116226
0.000116733
0.00011922
0.000121412
0.000124082
0.000130548
0.000146489
0.000166553
0.000214988
0.000301883
0.000331137
0.000322956
0.000276682
0.000220049
0.000178785
0.000157103
0.000146232
0.00014029
0.000136953
0.000134843
0.000132672
0.000130781
0.000128644
0.000126129
0.000123646
0.000121476
0.000119552
0.000118517
0.00011781
0.000117435
0.000117439
0.000117657
0.00011763
0.00011788
0.000117921
0.000117412
0.000117617
0.000117329
0.000117443
0.000117136
0.000116699
0.000116644
0.000116145
0.000116596
0.000118887
0.000120912
0.000123336
0.000129247
0.000143606
0.000162857
0.00019654
0.000281216
0.000330109
0.000329715
0.000299493
0.000239412
0.000191802
0.000163717
0.000150168
0.000142951
0.000138764
0.000136573
0.000134407
0.000132381
0.000130523
0.000128188
0.000125342
0.00012268
0.000120703
0.000119253
0.000118566
0.000117623
0.000117989
0.00011771
0.000117786
0.000118065
0.000117931
0.000118209
0.000118233
0.00011758
0.000117905
0.000117345
0.000117565
0.000117132
0.00011673
0.000116642
0.000116078
0.000116532
0.000118672
0.000120505
0.000122779
0.00012828
0.00014138
0.000161082
0.000184529
0.000257658
0.000324793
0.000332495
0.000317428
0.000260504
0.00020706
0.00017222
0.000154562
0.000146015
0.000140848
0.000138393
0.00013622
0.000134223
0.000132381
0.000130105
0.000127376
0.000124572
0.000122104
0.000120082
0.000119136
0.000118355
0.000118719
0.000118017
0.000118372
0.000118196
0.000118397
0.000118433
0.000118206
0.000118628
0.000118651
0.000117803
0.000118129
0.000117379
0.00011529
0.000117132
0.000116766
0.000116642
0.000116019
0.000116541
0.000118575
0.000120211
0.000122393
0.000127669
0.00014013
0.00015922
0.000178258
0.000236001
0.000312942
0.000334574
0.000327356
0.000280199
0.000224435
0.000182843
0.000159957
0.000149387
0.000143292
0.000140423
0.000138189
0.000136187
0.000134238
0.000132331
0.00013007
0.000126964
0.000123968
0.000121751
0.000120151
0.000119097
0.000119817
0.000118689
0.000119007
0.000118713
0.000119031
0.000118683
0.000119025
0.000119013
0.000118413
0.000119155
0.000116214
0.000114027
0.000111678
0.000105927
9.92059e-05
0.000117139
0.0001168
0.000116622
0.000115951
0.000116625
0.000118591
0.000120045
0.000122206
0.000127384
0.000139625
0.000157212
0.000174621
0.000216593
0.000294852
0.000333928
0.000332779
0.00030175
0.000242937
0.000195698
0.000166619
0.00015323
0.000145979
0.000142636
0.000140263
0.000138236
0.000136677
0.000134895
0.000132689
0.000129808
0.000126603
0.000124039
0.000122249
0.000120451
0.000121499
0.000119406
0.000120268
0.00011928
0.000119575
0.000119341
0.000119579
0.000119403
0.000119746
0.000119608
0.000105015
0.000109224
9.8932e-05
9.92024e-05
9.71241e-05
9.31973e-05
8.66018e-05
0.000117153
0.000116807
0.000116581
0.000115881
0.000116781
0.000118686
0.000119986
0.000122215
0.000127454
0.000139672
0.000155702
0.000172029
0.000201874
0.000274791
0.000330318
0.000335288
0.000318579
0.000262195
0.00021048
0.000175094
0.000157339
0.000148718
0.000145062
0.000142493
0.000140719
0.00013921
0.000137574
0.000135512
0.000132939
0.00013003
0.000127241
0.000125186
0.000122468
0.000123818
0.000120961
0.000122178
0.000120025
0.000120969
0.000119804
0.000120217
0.000119977
0.000120143
0.000116945
0.000114938
0.000103517
9.02769e-05
9.26247e-05
8.43344e-05
8.7614e-05
8.5521e-05
8.42658e-05
7.71444e-05
0.000117186
0.000116804
0.000116502
0.000115853
0.000116995
0.000118832
0.000120045
0.000122431
0.000127929
0.00014005
0.000154969
0.000170046
0.000191807
0.000255116
0.000320653
0.000335729
0.000329246
0.000281708
0.000226709
0.000185734
0.000162476
0.000151814
0.000147657
0.000144959
0.00014283
0.000141678
0.000140442
0.000138617
0.000136638
0.000133869
0.000130845
0.000128269
0.000125086
0.000126614
0.00012308
0.000124529
0.000121783
0.000122887
0.000120772
0.000121718
0.000120367
0.000120852
0.000112317
0.000114025
9.96391e-05
9.7928e-05
8.77363e-05
7.82117e-05
7.8887e-05
7.21652e-05
7.88279e-05
7.62878e-05
7.78818e-05
7.02907e-05
0.000117264
0.000116797
0.000116408
0.000115892
0.000117291
0.000119045
0.000120226
0.000122918
0.00012896
0.000140903
0.000154764
0.00016828
0.00018618
0.000237777
0.000305853
0.000335654
0.000333624
0.000300436
0.000244395
0.000197871
0.000169474
0.000155026
0.000150299
0.000147516
0.00014528
0.00014418
0.000143091
0.000140875
0.00013022
0.00012263
0.000119332
0.00012419
0.000128068
0.000129222
0.000125527
0.000127063
0.000123814
0.000124914
0.000122444
0.000123298
0.000121444
0.00012219
0.000115732
0.000119817
9.60319e-05
9.70987e-05
8.49393e-05
8.26965e-05
7.45594e-05
6.82777e-05
6.74595e-05
6.21658e-05
7.24203e-05
6.94115e-05
7.45064e-05
6.64336e-05
0.000117428
0.000116828
0.00011631
0.000115977
0.000117684
0.000119292
0.000120529
0.000123661
0.000130563
0.000142484
0.000155191
0.000166807
0.00018261
0.000222348
0.000289819
0.000333038
0.000335625
0.000316887
0.000263063
0.000211812
0.000177849
0.000158925
0.000152743
0.000150146
0.000147892
0.000147187
0.000146503
0.000137764
0.000124529
0.000114251
0.0001058
0.000103681
0.000130891
0.000104001
0.000127875
0.000129033
0.00012565
0.000126408
0.000123739
0.000124257
0.000122497
0.000122619
0.000121673
0.000121824
9.80746e-05
9.99972e-05
8.19806e-05
8.19232e-05
7.22054e-05
6.99761e-05
6.36229e-05
6.02216e-05
5.73179e-05
5.32791e-05
6.8223e-05
6.4496e-05
7.57582e-05
6.56923e-05
0.000117817
0.00011705
0.000116285
0.000116127
0.000118099
0.000119561
0.000121018
0.000124723
0.000132618
0.000144121
0.000155697
0.000165941
0.000179628
0.000209876
0.000273921
0.000325169
0.000335314
0.000328169
0.000281837
0.000228214
0.000188499
0.000164266
0.000155471
0.000152654
0.000150804
0.000150237
0.000149355
0.000136644
0.000120484
0.000107872
9.9458e-05
9.38403e-05
0.000104034
0.000128756
0.000122966
0.000125712
0.000123757
0.000123321
0.000120099
0.000121436
0.000117796
0.000120594
0.000117102
0.00010589
0.000117692
8.14727e-05
8.18776e-05
6.9561e-05
6.8089e-05
6.08868e-05
6.01478e-05
5.46941e-05
5.24858e-05
4.96265e-05
4.64814e-05
6.76099e-05
5.95156e-05
8.37388e-05
7.06163e-05
0.000118738
0.000118032
0.000116646
0.000116427
0.000118494
0.000119856
0.000121752
0.000126169
0.000135043
0.000146091
0.000156765
0.000165692
0.000177302
0.000201125
0.000259203
0.000314976
0.000334582
0.000332674
0.000298104
0.000245552
0.000201035
0.00017138
0.000158767
0.000155274
0.000153175
0.000152535
0.000152801
0.000138063
0.000119979
0.000104025
9.32432e-05
9.07845e-05
0.000122059
0.000104767
0.000104585
0.000118148
0.000108938
0.00011311
0.000102481
0.000109985
9.8528e-05
0.000109332
9.72941e-05
0.000110888
9.89773e-05
9.19459e-05
0.00010125
6.81143e-05
7.74611e-05
5.76615e-05
6.00685e-05
5.21896e-05
5.01333e-05
4.63531e-05
4.62637e-05
4.18845e-05
3.90966e-05
7.08836e-05
5.44536e-05
0.00011495
8.75007e-05
0.0001213
0.00012181
0.000118491
0.000117169
0.000118932
0.000120216
0.000122737
0.000128015
0.00013787
0.000148563
0.000158627
0.000166002
0.000175872
0.000195411
0.000246547
0.000303473
0.000332398
0.000333904
0.000314011
0.000263418
0.000215684
0.000180392
0.000162495
0.000158216
0.000155698
0.000155379
0.000156175
0.000141293
0.000123089
0.000104932
9.03947e-05
9.38574e-05
0.000114825
0.000109657
0.000121962
0.000110311
0.000142097
9.36458e-05
9.78081e-05
8.88759e-05
9.25004e-05
8.77789e-05
9.10117e-05
8.97997e-05
9.07739e-05
9.1935e-05
9.11078e-05
9.51528e-05
9.22394e-05
7.26361e-05
9.30733e-05
5.59723e-05
7.41785e-05
4.49492e-05
5.23016e-05
4.06889e-05
4.05262e-05
3.66538e-05
3.33163e-05
6.84384e-05
4.79639e-05
0.000117084
0.000106994
0.000129517
0.000131752
0.000124968
0.00011955
0.00011973
0.000120811
0.000123973
0.000130296
0.000141056
0.000151493
0.000160699
0.000166747
0.000175339
0.000192368
0.000236383
0.000292278
0.000328306
0.000333753
0.000325494
0.000282322
0.000233079
0.000192676
0.000168658
0.000161443
0.000158681
0.000158155
0.000158661
0.000147549
0.000127446
0.000108066
9.15658e-05
0.000102528
0.000146999
0.000155404
9.4416e-05
0.000170711
0.000216226
0.00020792
0.000268202
0.000115526
0.000157739
0.000115511
0.000167434
0.000114121
0.000170403
0.000110067
0.000166311
0.000103732
0.000152244
9.92209e-05
0.00013129
9.71322e-05
0.000113273
8.20171e-05
0.000102318
4.9407e-05
8.83826e-05
4.60085e-05
3.46336e-05
3.94824e-05
3.20092e-05
5.44049e-05
3.85667e-05
7.37892e-05
4.65619e-05
0.000136812
0.000148063
0.000142164
0.000127056
0.000122131
0.000121935
0.000125567
0.00013305
0.00014446
0.000154882
0.000163305
0.000168603
0.000175678
0.000191159
0.000228573
0.000282444
0.000321499
0.000334086
0.000332034
0.000299808
0.000253065
0.000207588
0.000177645
0.000166928
0.00016193
0.000161152
0.000161929
0.000155012
0.000134862
0.000113673
9.42992e-05
0.000101897
0.000162086
0.000308996
0.000253177
0.000335527
0.000333572
0.000401914
0.000379257
0.000450643
0.00023294
0.000305001
0.000240617
0.000318148
0.000239741
0.000316397
0.000230302
0.000308711
0.000209973
0.000292887
0.000176898
0.000266867
0.000135599
0.000228598
0.00010971
0.000166904
9.22027e-05
0.000117321
9.0945e-05
2.72614e-05
8.05476e-05
5.91051e-05
3.37667e-05
2.60012e-05
2.34712e-05
2.15761e-05
0.000148589
0.000160339
0.000144946
0.000129092
0.000124466
0.000127693
0.000136016
0.000147824
0.000158546
0.000166437
0.000170937
0.000176935
0.000191318
0.000223733
0.000275308
0.000315048
0.0003346
0.000335686
0.00031535
0.000271533
0.000223587
0.000188665
0.000174294
0.000166601
0.000165131
0.000167213
0.000163491
0.000143181
0.000121447
0.000100497
9.93848e-05
0.000161665
0.000343631
0.000573674
0.000632411
0.000468638
0.000531517
0.000515914
0.000571055
0.000518867
0.000567659
0.000393182
0.000461054
0.00038936
0.000452607
0.000379062
0.000438044
0.000366654
0.000426845
0.000348726
0.000414792
0.000322266
0.000398854
0.000277272
0.000371909
0.00019692
0.000319906
0.000121868
0.00022242
0.000122222
3.71301e-05
0.000115249
0.000101377
2.28282e-05
2.56585e-05
1.38982e-05
1.33518e-05
0.000153457
0.000166862
0.000145604
0.000130877
0.000130568
0.000139073
0.00015107
0.000162299
0.000169964
0.00017394
0.000179723
0.000192329
0.00022285
0.000271827
0.000310887
0.00033352
0.000340023
0.000329461
0.000290735
0.000242538
0.000202576
0.000183533
0.000174174
0.000168774
0.000171789
0.000172692
0.000152365
0.000131131
0.000108919
9.63864e-05
0.000155279
0.000371212
0.000657759
0.000686672
0.000696707
0.000730921
0.000618849
0.000660935
0.000610322
0.000648345
0.000585138
0.000621167
0.000503962
0.00054752
0.000487495
0.0005277
0.000474053
0.000513624
0.000466178
0.000507495
0.000458498
0.000504247
0.000445972
0.000501426
0.000418143
0.000491065
0.000356169
0.000459155
0.000236009
0.00038633
0.000237042
8.17676e-05
0.000218629
0.000206369
0.000127717
1.68062e-05
4.66168e-05
1.32386e-05
1.2869e-05
0.000159574
0.000168792
0.000144158
0.000135186
0.000142111
0.000154159
0.000165863
0.000173868
0.000177565
0.000183401
0.000195842
0.000223712
0.000271773
0.000309979
0.00033375
0.00034457
0.000341012
0.000312245
0.000268103
0.000224119
0.000197428
0.000183689
0.000175689
0.000176238
0.000177725
0.00016362
0.000141652
0.000119367
0.00010113
0.000137493
0.000365783
0.000778037
0.000752002
0.000794028
0.000747628
0.000775162
0.000683806
0.000716523
0.000657633
0.000695746
0.000635744
0.000675913
0.000562875
0.000598966
0.000549573
0.000582905
0.00054151
0.000574395
0.000541521
0.000574336
0.000544055
0.000577305
0.000544968
0.000582538
0.000533641
0.000584552
0.000495508
0.000570541
0.000403642
0.00052093
0.000468412
0.000330306
0.000412888
0.000164527
0.000102335
0.00015451
0.000307317
0.000402796
0.000405912
0.000282892
1.41863e-05
2.06042e-05
0.000122321
0.000102146
5.09167e-05
1.38877e-05
1.51942e-05
1.34889e-05
1.48182e-05
0.000170134
0.000169415
0.000145746
0.000145172
0.000156976
0.000169378
0.00017787
0.000181847
0.000188058
0.0002015
0.000227904
0.000274584
0.000311767
0.000335994
0.000350099
0.00035299
0.000338129
0.000300238
0.000254733
0.00022063
0.000197223
0.000185335
0.000183809
0.000184079
0.000178505
0.000154595
0.000131722
0.000112324
0.00012787
0.000337391
0.000786161
0.000839173
0.000850741
0.000799623
0.000823797
0.000802033
0.000830592
0.000733679
0.000770093
0.00071796
0.000764877
0.000700313
0.000747734
0.000619201
0.000658334
0.000608981
0.000642426
0.000602453
0.0006334
0.000604971
0.000631271
0.000609734
0.000632056
0.000618336
0.000637489
0.000591397
0.000612596
0.000626906
0.000635545
0.000562244
0.000596431
0.000620551
0.000634887
0.000620182
0.000526453
0.000480938
0.000540055
0.000573776
0.000483468
0.000259274
0.000224773
0.000387914
0.000475961
0.000482527
0.000368641
3.15201e-05
0.000189381
0.000152107
7.51406e-05
5.73e-06
1.33398e-05
1.55838e-05
2.24956e-05
2.84697e-05
0.00018633
0.00016663
0.00015026
0.000159437
0.000172628
0.000182074
0.000186629
0.000193571
0.000208503
0.000236664
0.000283137
0.000319336
0.000343563
0.000360825
0.000378258
0.000371959
0.000338554
0.000296133
0.000251625
0.000219891
0.00020159
0.000197167
0.000194485
0.00018941
0.000171021
0.000147467
0.000127191
0.000132019
0.000275576
0.000779964
0.000894211
0.000890673
0.000915968
0.000855078
0.000876994
0.000867146
0.000889895
0.000804123
0.000840179
0.000794115
0.000828549
0.000762571
0.000795059
0.000683176
0.000726154
0.000668254
0.000700552
0.000655081
0.000674188
0.000645888
0.00065217
0.000640798
0.000638116
0.000639911
0.000639382
0.000637043
0.000631518
0.000635002
0.000641024
0.000640865
0.000607727
0.000630437
0.000641683
0.000643755
0.000641725
0.000584549
0.000544653
0.000591882
0.000617253
0.00054729
0.000342259
0.000308433
0.000463315
0.000545874
0.000539228
0.000444904
5.43033e-05
0.0002659
0.000189931
0.000106062
2.43939e-06
2.42741e-05
4.66763e-05
5.29747e-05
7.37973e-05
0.000191973
0.000163154
0.000161718
0.00017568
0.000186214
0.000191951
0.000199803
0.000216816
0.000248043
0.000297123
0.000334282
0.000358448
0.000379346
0.00040576
0.000407112
0.00038509
0.000341331
0.000294392
0.000252401
0.000227522
0.000215361
0.0002087
0.000201765
0.000190207
0.000167559
0.000143215
0.000141861
0.000224809
0.000752665
0.000899537
0.000982593
0.000988974
0.000951233
0.000971814
0.000910287
0.000930252
0.000886252
0.000906771
0.000850482
0.000868673
0.000817175
0.000842259
0.000774524
0.000799558
0.00072529
0.000746747
0.000688829
0.000700823
0.000656038
0.000661249
0.000633165
0.000629715
0.000626268
0.00061946
0.000613927
0.000609108
0.000636416
0.000629059
0.00062116
0.000612617
0.000641707
0.000636146
0.00062667
0.000637034
0.000644545
0.000637738
0.000629405
0.000641396
0.000624101
0.00059601
0.000628227
0.000641288
0.000597619
0.000418877
0.000380902
0.000527721
0.000595604
0.000589543
0.000509949
8.73532e-05
0.000296126
0.000229226
0.00014335
1.72434e-06
9.17358e-05
2.6803e-05
9.42925e-05
0.000123414
0.000192805
0.000167683
0.000178302
0.000190604
0.000197335
0.000206681
0.000226363
0.000261899
0.000316217
0.00035586
0.000380695
0.000406719
0.000440916
0.000455007
0.00044432
0.000410821
0.000357847
0.000307133
0.000262866
0.000234748
0.000222846
0.000214914
0.000202727
0.000188053
0.000162218
0.000153333
0.000186918
0.000656968
0.000879044
0.00105381
0.0010431
0.00108669
0.000978516
0.0010106
0.000928071
0.000951021
0.000860974
0.000870148
0.00085387
0.000860181
0.000805668
0.000797158
0.000741413
0.000728466
0.000720544
0.000735588
0.000667355
0.000672395
0.000628809
0.000625902
0.00060521
0.000602308
0.000599544
0.000599688
0.000605242
0.000598899
0.000594061
0.000590643
0.000616008
0.000605182
0.000595729
0.000588372
0.000626412
0.000612759
0.000599001
0.000644767
0.00063591
0.000612981
0.000597317
0.000618254
0.00064346
0.000630675
0.00064455
0.000643253
0.000631188
0.000479771
0.000401328
0.000578865
0.000629273
0.000624342
0.000552963
0.000130197
0.000329548
0.000278825
0.000192525
5.08835e-06
0.000106661
5.36028e-05
0.000145998
0.000147312
0.000187981
0.000181085
0.000194167
0.000203617
0.000213461
0.00023705
0.000278343
0.000340148
0.000384816
0.000412247
0.000443548
0.000487165
0.000512246
0.000509174
0.000483579
0.000444083
0.000386704
0.000316824
0.000251247
0.000228596
0.000224274
0.00021554
0.000200776
0.000184136
0.000164586
0.000163088
0.000502856
0.000875943
0.00104627
0.0011669
0.00118865
0.00106638
0.0011194
0.000957867
0.00101182
0.000886379
0.000911912
0.000702424
0.000707217
0.000763882
0.000724818
0.000689015
0.000624427
0.000622535
0.000573946
0.000669209
0.000653541
0.000618045
0.000605371
0.000588435
0.000582227
0.000588531
0.000586968
0.000585788
0.000584162
0.000583404
0.000580692
0.000579601
0.000579883
0.000586935
0.000577882
0.000572285
0.000570117
0.000595617
0.000579928
0.000568057
0.000629012
0.00060602
0.000576688
0.000557076
0.000580442
0.000641136
0.000644939
0.000639145
0.000622101
0.000644795
0.000484782
0.000422288
0.000594278
0.000643683
0.000609888
0.000537978
0.000192301
0.000369946
0.000338875
0.000261753
5.49735e-05
0.000151171
0.000169823
0.00019089
0.000166184
0.000191544
0.000199964
0.000207945
0.000222343
0.000247015
0.000297334
0.000368133
0.000420327
0.000451685
0.000478397
0.000502637
0.000518184
0.000515277
0.000502357
0.000477086
0.000442482
0.000384289
0.000287826
0.000245616
0.0002314
0.000227382
0.000213403
0.00019261
0.000171997
0.000151796
0.000397647
0.00087526
0.00102042
0.00126955
0.00119054
0.00126966
0.00103586
0.00112223
0.000857574
0.000946698
0.000729035
0.000776098
0.000439284
0.000452074
0.000541547
0.0004701
0.000503965
0.000407627
0.000511748
0.000458505
0.0005844
0.000553443
0.000569934
0.000552018
0.000582972
0.000582642
0.000574687
0.000579308
0.000580959
0.000582144
0.00058319
0.000583181
0.000570534
0.000573209
0.000576656
0.000563293
0.00056056
0.000557993
0.000559619
0.000564102
0.000559948
0.000548788
0.000544186
0.000593765
0.0005635
0.000539484
0.000518731
0.000537244
0.000615819
0.00063765
0.000611068
0.000582746
0.000636704
0.000488892
0.000445775
0.000564928
0.000603536
0.000565972
0.000527385
0.000267585
0.000412542
0.000395211
0.000334628
0.000329231
0.000230688
0.00036761
0.000230746
0.000215069
0.000203359
0.000217451
0.000227598
0.000260486
0.000314799
0.000400254
0.000461178
0.000495194
0.000509316
0.00051157
0.00049978
0.000477
0.000458729
0.000442566
0.000430335
0.000410614
0.000378171
0.000304333
0.000254535
0.000242703
0.000224944
0.000198799
0.000176777
0.000150748
0.000325781
0.000869102
0.000990132
0.00127775
0.00135605
0.00140726
0.0011832
0.00127544
0.00095884
0.0010758
0.000714396
0.000836467
0.000495447
0.000597755
0.000246291
0.000251326
0.000319381
0.000264906
0.000384126
0.000292543
0.000453748
0.000402017
0.00052554
0.000492415
0.000566992
0.000557088
0.000534871
0.000531985
0.000535113
0.000558965
0.00054336
0.000547219
0.000535466
0.000526296
0.000527761
0.000540943
0.000519251
0.00050165
0.000488203
0.000545236
0.000530297
0.000501034
0.000476025
0.000529753
0.000528045
0.00049888
0.000547863
0.000517996
0.000510577
0.000484042
0.000498032
0.000573996
0.00060835
0.000567572
0.000533841
0.00058601
0.000496823
0.000470023
0.000537963
0.000550817
0.000524055
0.000518324
0.000336756
0.000450563
0.00044402
0.000396368
0.000618547
0.000282955
0.000422784
0.000300584
0.000275106
0.000221091
0.000237985
0.000268627
0.000337091
0.000429922
0.000508474
0.000540671
0.000546941
0.000544919
0.00053788
0.000526838
0.000507821
0.000463533
0.000421834
0.000391742
0.000371906
0.00035447
0.000317348
0.000272518
0.000243653
0.000210925
0.000184249
0.000158742
0.000265762
0.000807926
0.000955543
0.00123492
0.00151923
0.00135385
0.00145741
0.00112288
0.00124702
0.000842604
0.000986296
0.000551071
0.000695614
0.000293601
0.000413586
0.000169108
0.000176742
0.000221378
0.000182474
0.000329848
0.000246657
0.000416014
0.000364225
0.000500217
0.000460114
0.000567404
0.000555918
0.000529941
0.000511965
0.000467217
0.000473091
0.000495759
0.000481017
0.000476782
0.00046972
0.00046519
0.000464937
0.000456453
0.000441849
0.000431595
0.000424464
0.000465085
0.000436785
0.00041529
0.000400694
0.00048275
0.000442185
0.000408018
0.00049971
0.00047765
0.000439261
0.000405939
0.000450277
0.000522028
0.00056155
0.000513107
0.000483039
0.000526425
0.000503409
0.000491195
0.000507132
0.000499493
0.000483892
0.000499789
0.000418383
0.000485531
0.000503762
0.000470878
0.000556465
0.000282536
0.000462868
0.000418529
0.000281024
0.000239483
0.000276288
0.000350387
0.000466289
0.000552791
0.000594402
0.000603613
0.000641078
0.000705622
0.000764964
0.000763692
0.000693473
0.000580727
0.000467513
0.000389784
0.000349696
0.000328795
0.00031442
0.000286732
0.000245098
0.000198331
0.000171914
0.000215453
0.000621859
0.000884742
0.00113767
0.00152726
0.00152555
0.00159768
0.00130041
0.00142048
0.00101097
0.0011624
0.000686603
0.000850366
0.000374238
0.000525472
0.00019768
0.000249162
0.000143927
0.000141687
0.000190111
0.000159541
0.000297689
0.000229052
0.000397097
0.000348174
0.000496189
0.000476171
0.000439612
0.000517641
0.000543713
0.000505633
0.000491402
0.000426222
0.000435352
0.000467527
0.000447543
0.000419458
0.000417598
0.000417823
0.000421051
0.000392759
0.000388974
0.000388115
0.000388984
0.00038451
0.00036944
0.000362011
0.000360325
0.00039858
0.000368252
0.0003487
0.000457657
0.00042287
0.000369263
0.000350768
0.000382303
0.000468589
0.000487747
0.000443407
0.000438379
0.000458243
0.000497756
0.000503136
0.000477193
0.000444987
0.000443914
0.000477584
0.000558643
0.000522083
0.000581908