/*--------------------------------*- C++ -*----------------------------------*\
  =========                 |
  \\      /  F ield         | OpenFOAM: The Open Source CFD Toolbox
   \\    /   O peration     | Website:  https://openfoam.org
    \\  /    A nd           | Version:  dev
     \\/     M anipulation  |
\*---------------------------------------------------------------------------*/
FoamFile
{
    version     2.0;
    format      ascii;
    class       volScalarField;
    location    "2500";
    object      CO2;
}
// * * * * * * * * * * * * * * * * * * * * * * * * * * * * * * * * * * * * * //

dimensions      [0 0 0 0 0 0 0];

internalField   nonuniform List<scalar> 
9842
(
2.75802e-33
1.0088e-32
4.04996e-33
2.16033e-32
2.49979e-32
3.70756e-33
3.57668e-32
5.64308e-32
2.89251e-32
1.81389e-33
9.12751e-32
1.60008e-31
8.94189e-32
2.45128e-32
1.76023e-33
1.04943e-31
3.62005e-31
2.26889e-31
7.69792e-32
1.38237e-32
5.01826e-34
4.98139e-31
9.03324e-31
5.81374e-31
2.75123e-31
6.61132e-32
6.17622e-33
1.16429e-34
1.30776e-30
2.20788e-30
1.60114e-30
7.48303e-31
1.83035e-31
4.97318e-32
2.28546e-33
1.17195e-34
2.44906e-30
5.36671e-30
3.73143e-30
1.9872e-30
6.69226e-31
1.60541e-31
2.50389e-32
1.575e-33
3.38519e-35
2.08091e-30
1.23862e-29
1.07389e-29
5.49966e-30
1.9837e-30
5.1607e-31
1.01858e-31
1.24296e-32
4.18348e-34
6.95187e-36
8.87842e-30
2.83297e-29
2.8851e-29
1.61071e-29
4.91167e-30
1.66534e-30
3.96326e-31
5.518e-32
2.44545e-33
6.70776e-35
2.21663e-36
1.05248e-29
4.27675e-29
6.20945e-29
4.70261e-29
2.06404e-29
3.94863e-30
1.40323e-30
2.33272e-31
1.97829e-32
6.36331e-34
2.91071e-35
7.0504e-37
6.47209e-29
1.36385e-28
2.32045e-28
1.53349e-28
6.58202e-29
1.69974e-29
4.06881e-30
9.16962e-31
7.05918e-32
7.78383e-33
3.33132e-34
6.56675e-36
2.29894e-37
2.46664e-28
6.89871e-28
5.2163e-28
4.23618e-28
1.98966e-28
6.40016e-29
1.48437e-29
2.94004e-30
4.47476e-31
2.93266e-32
2.45717e-33
7.25629e-35
3.52435e-36
7.63817e-38
7.32249e-28
1.24476e-27
2.27302e-27
1.54937e-27
7.0236e-28
1.94029e-28
4.90958e-29
1.20643e-29
1.7245e-30
1.77529e-31
1.40662e-32
7.9885e-34
3.89096e-35
1.00218e-36
1.42474e-37
1.02783e-27
2.83858e-27
5.87725e-27
3.44096e-27
2.19693e-27
7.81602e-28
2.02688e-28
4.47658e-29
6.04302e-30
1.04958e-30
8.68249e-32
3.54796e-33
2.88387e-34
9.61235e-36
9.42716e-37
3.1399e-37
2.96443e-27
1.02742e-26
1.35666e-26
1.06388e-26
6.78147e-27
2.16243e-27
7.22702e-28
1.79768e-28
3.47991e-29
3.5082e-30
4.67908e-31
2.66474e-32
1.92155e-33
1.30369e-34
7.29388e-36
5.30227e-36
1.81541e-36
5.74712e-27
2.06611e-26
3.47986e-26
2.90919e-26
1.57918e-26
7.80282e-27
2.30027e-27
6.393e-28
1.09394e-28
1.54638e-29
1.43828e-30
1.601e-31
1.22464e-32
7.9068e-34
6.66579e-35
4.67742e-35
6.28698e-35
2.81541e-35
3.83375e-27
2.68743e-26
7.15057e-26
8.48326e-26
5.20312e-26
1.75447e-26
7.75023e-27
2.05961e-27
4.61203e-28
6.49877e-29
6.73121e-30
1.00643e-30
6.96426e-32
5.19468e-33
4.2906e-34
2.87133e-34
4.37725e-34
7.64704e-34
5.86423e-34
2.57577e-26
6.5336e-26
2.0285e-25
2.15855e-25
1.48215e-25
5.74976e-26
2.10029e-26
6.91028e-27
1.20423e-27
3.08017e-28
4.06842e-29
5.04837e-30
4.91036e-31
3.18427e-32
2.37081e-33
1.44177e-33
3.73627e-33
8.50865e-33
8.85385e-33
5.56117e-33
4.98188e-26
1.12221e-25
4.94593e-25
4.9826e-25
4.36076e-25
2.20949e-25
6.09453e-26
2.0005e-26
4.67175e-27
9.1975e-28
1.56899e-28
2.6873e-29
2.02475e-30
1.62679e-31
1.012e-32
5.29352e-33
1.66734e-32
5.40367e-32
9.65934e-32
1.2769e-31
6.63659e-32
1.1637e-25
2.11868e-25
8.01125e-25
1.2711e-24
1.0454e-24
6.38572e-25
2.00652e-25
5.88432e-26
1.36309e-26
3.34256e-27
6.319e-28
1.07363e-28
1.21371e-29
6.9416e-31
6.82219e-32
4.85072e-32
9.3118e-32
1.8362e-31
7.74565e-31
8.1922e-31
1.08467e-30
4.74148e-31
1.84094e-25
6.34671e-25
1.29318e-24
1.95688e-24
2.08064e-24
1.82344e-24
9.19482e-25
1.73829e-25
5.50613e-26
1.24163e-26
2.27098e-27
4.40308e-28
5.25915e-29
5.47762e-30
3.89981e-31
2.36046e-31
5.47081e-31
1.36285e-30
2.89449e-30
1.04927e-29
1.42939e-29
1.44709e-29
1.06962e-29
2.16391e-25
1.09198e-24
1.50371e-24
3.61369e-24
4.21729e-24
4.51e-24
2.44828e-24
9.71562e-25
1.44106e-25
4.71883e-26
8.11718e-27
1.60143e-27
2.40761e-28
2.66314e-29
2.55406e-30
1.09632e-30
3.3117e-30
7.39107e-30
2.18236e-29
4.54712e-29
1.29743e-28
9.5198e-29
1.34273e-28
7.08685e-29
3.73092e-25
1.17021e-24
4.26685e-24
5.52026e-24
9.99469e-24
6.90566e-24
6.43357e-24
2.87307e-24
6.49011e-25
1.39586e-25
2.48024e-26
5.48643e-27
7.99888e-28
1.18962e-28
1.16056e-29
5.85429e-30
1.29647e-29
5.01065e-29
1.19705e-28
1.85172e-28
6.04052e-28
1.37685e-27
1.45361e-27
7.50759e-28
4.53288e-28
2.99818e-25
1.73823e-24
6.21178e-24
8.23608e-24
1.81486e-23
1.82657e-23
1.37738e-23
7.13835e-24
2.60616e-24
4.95766e-25
9.45479e-26
1.6222e-26
2.73079e-27
4.12219e-28
5.44293e-29
1.61865e-29
7.94304e-29
2.04783e-28
6.23275e-28
1.24966e-27
2.69732e-27
6.51041e-27
1.29405e-26
1.22587e-26
1.11153e-26
4.94544e-27
1.70945e-24
6.2049e-24
1.05946e-23
1.32304e-23
2.42624e-23
2.99421e-23
2.53919e-23
1.5672e-23
6.78526e-24
2.29916e-24
4.28366e-25
6.26121e-26
9.37119e-27
1.73958e-27
1.84574e-28
1.00396e-28
2.18185e-28
9.04834e-28
2.37347e-27
8.48521e-27
2.32747e-26
4.75184e-26
6.3825e-26
7.43553e-26
5.69899e-26
8.68607e-26
3.06901e-26
2.41425e-24
1.16205e-23
1.61785e-23
2.85631e-23
4.91814e-23
7.68151e-23
5.02952e-23
4.23284e-23
1.49693e-23
5.78709e-24
1.54911e-24
3.21424e-25
4.08667e-26
7.01359e-27
9.36918e-28
3.55202e-28
1.09217e-27
3.51753e-27
1.25133e-26
2.81134e-26
9.16653e-26
2.6821e-25
5.52151e-25
5.36772e-25
5.89468e-25
6.40101e-25
5.85443e-25
3.35026e-25
5.49263e-24
2.35531e-23
4.87437e-23
9.18324e-23
1.16195e-22
1.28812e-22
1.04157e-22
9.72387e-23
4.87622e-23
1.46951e-23
4.65224e-24
1.08522e-24
1.92833e-25
2.50177e-26
3.57186e-27
1.10601e-27
3.3301e-27
1.2897e-26
3.21434e-26
1.45847e-25
4.19996e-25
9.43782e-25
2.6036e-24
4.72239e-24
5.08668e-24
6.55001e-24
4.31181e-24
3.61471e-24
2.39245e-24
1.18047e-23
2.78938e-23
8.91505e-23
1.96806e-22
2.00872e-22
2.11178e-22
2.34205e-22
1.71553e-22
1.03143e-22
4.57953e-23
1.4156e-23
3.46212e-24
6.96261e-25
1.06205e-25
1.63919e-26
5.7053e-27
1.35731e-26
6.13725e-26
2.00949e-25
4.15915e-25
1.67206e-24
3.92266e-24
7.13071e-24
2.32636e-23
3.08748e-23
3.50798e-23
4.45444e-23
2.11886e-23
3.43873e-23
2.96372e-23
2.03746e-23
6.87818e-23
1.4641e-22
3.01668e-22
5.2475e-22
5.65169e-22
5.63093e-22
3.93337e-22
2.60633e-22
1.09927e-22
3.98497e-23
9.97509e-24
2.02709e-24
4.64453e-25
5.91958e-26
2.58553e-26
4.6387e-26
2.05187e-25
5.96784e-25
2.08699e-24
6.78065e-24
1.36292e-23
2.63648e-23
9.12282e-23
1.73775e-22
1.23241e-22
2.72121e-22
2.32355e-22
2.99922e-22
3.41044e-22
2.30091e-22
3.15613e-23
1.26694e-22
2.79302e-22
5.82843e-22
9.99839e-22
9.16601e-22
1.06433e-21
8.67026e-22
4.56901e-22
2.66998e-22
9.82038e-23
2.97437e-23
5.38567e-24
1.13878e-24
2.83791e-25
7.56962e-26
2.33132e-25
5.08462e-25
2.48184e-24
6.68713e-24
1.83936e-23
6.21019e-23
1.43377e-22
2.28414e-22
7.5486e-22
9.72104e-22
1.11099e-21
2.9125e-21
2.37823e-21
3.96713e-21
4.18677e-21
8.11562e-22
3.67419e-23
1.97111e-22
4.46266e-22
8.95095e-22
1.78118e-21
2.21351e-21
2.08587e-21
1.8021e-21
1.03867e-21
5.06169e-22
2.25304e-22
7.71622e-23
2.10191e-23
4.14129e-24
9.12652e-25
4.11979e-25
9.07849e-25
2.97053e-24
6.1759e-24
2.57505e-23
8.35219e-23
2.3783e-22
6.68904e-22
1.28345e-21
1.81047e-21
4.24315e-21
5.06658e-21
1.02505e-20
3.31972e-20
3.34112e-20
4.18944e-20
4.45288e-20
8.17624e-21
1.99977e-22
4.61806e-22
5.07602e-22
1.19351e-21
2.80214e-21
3.87677e-21
3.69779e-21
3.70985e-21
2.63247e-21
1.02798e-21
4.83425e-22
1.91503e-22
5.66621e-23
1.28308e-23
3.03674e-24
1.56081e-24
2.70336e-24
1.3056e-23
3.68641e-23
8.12281e-23
2.46471e-22
9.8728e-22
2.36122e-21
3.4954e-21
1.05529e-20
1.83106e-20
3.239e-20
5.42644e-20
2.06277e-19
5.11739e-19
5.13927e-19
3.53015e-19
5.27896e-19
1.30683e-20
1.39339e-19
5.94234e-22
1.29903e-21
1.89104e-21
2.55606e-21
3.77303e-21
6.4914e-21
6.72892e-21
6.46555e-21
5.28265e-21
2.82478e-21
1.12537e-21
4.09791e-22
1.37061e-22
3.67827e-23
9.6792e-24
5.57699e-24
1.05125e-23
3.01368e-23
1.25496e-22
2.85415e-22
6.85739e-22
2.06038e-21
7.98689e-21
1.42729e-20
3.50092e-20
4.12282e-20
1.30233e-19
4.78225e-19
9.96455e-19
3.02324e-18
8.39629e-18
6.09074e-18
5.66579e-18
1.24488e-18
6.75454e-18
6.42406e-20
5.33402e-19
2.25299e-21
4.35914e-21
5.30054e-21
6.02289e-21
5.8997e-21
7.78975e-21
1.08231e-20
9.66024e-21
1.0016e-20
6.60927e-21
2.32323e-21
9.70254e-22
3.52601e-22
1.10291e-22
3.96164e-23
2.09867e-23
3.8111e-23
9.16507e-23
3.07498e-22
8.96929e-22
3.19134e-21
9.55811e-21
2.12772e-20
4.883e-20
9.61202e-20
2.0459e-19
4.60522e-19
1.64882e-18
9.00672e-18
2.8108e-17
6.82344e-17
8.11691e-17
2.03638e-17
6.66609e-17
2.22837e-17
9.80365e-17
1.05952e-16
6.17647e-18
3.18974e-17
2.75136e-19
2.44842e-18
1.1166e-20
1.13532e-20
1.67593e-20
1.56229e-20
1.5657e-20
1.59574e-20
1.91401e-20
1.94151e-20
1.99592e-20
1.26741e-20
6.94831e-21
1.9952e-21
8.21993e-22
3.30528e-22
1.6163e-22
1.30411e-22
1.46221e-22
3.48725e-22
1.52542e-21
3.09812e-21
7.54925e-21
1.87384e-20
4.85794e-20
1.49915e-19
2.64593e-19
5.47739e-19
1.53638e-18
7.51169e-18
5.39747e-17
2.12531e-16
7.25259e-16
1.03481e-15
2.51016e-16
1.35679e-15
5.14003e-16
1.48517e-16
5.16928e-16
6.17518e-16
2.68646e-17
1.49594e-16
8.65988e-19
9.90807e-18
3.18707e-20
1.12528e-19
5.03756e-20
4.92087e-20
3.28333e-20
3.53698e-20
3.19776e-20
2.83106e-20
3.53922e-20
2.63397e-20
1.46068e-20
6.42369e-21
2.19667e-21
1.0879e-21
7.62321e-22
9.29584e-22
5.74726e-22
1.02632e-21
4.12315e-21
1.25721e-20
2.87997e-20
5.39996e-20
1.58005e-19
3.35059e-19
8.80744e-19
1.67048e-18
7.47762e-18
3.81919e-17
3.16701e-16
2.20319e-15
6.43123e-15
1.23221e-14
5.01233e-15
2.16569e-14
1.65093e-15
8.30261e-15
2.89455e-15
6.76563e-16
3.40431e-15
3.71109e-15
7.23033e-17
5.82761e-16
4.5029e-18
5.55047e-17
2.01063e-19
5.07756e-19
4.11331e-19
2.24253e-19
8.45003e-20
7.47118e-20
6.79596e-20
4.45068e-20
5.60529e-20
4.70952e-20
2.96841e-20
1.43449e-20
6.83113e-21
4.02029e-21
3.38004e-21
4.92396e-21
4.36221e-21
4.85075e-21
1.31037e-20
3.27359e-20
6.84587e-20
1.38775e-19
4.34692e-19
1.10265e-18
1.91813e-18
5.11271e-18
1.97777e-17
2.98717e-16
1.90812e-15
1.08966e-14
6.38846e-14
1.48217e-13
9.39445e-14
3.51827e-13
4.26841e-14
1.88327e-13
1.39632e-14
7.50968e-14
2.09097e-14
3.87849e-15
2.58988e-14
2.74453e-14
3.2179e-16
2.89119e-15
1.24071e-17
1.77711e-16
1.9602e-18
1.91393e-18
1.97358e-18
8.88466e-19
3.93299e-19
2.18868e-19
1.40032e-19
9.6517e-20
7.92165e-20
7.21503e-20
5.26723e-20
3.03426e-20
2.0947e-20
1.77955e-20
1.69968e-20
2.81719e-20
2.80978e-20
3.20662e-20
4.80543e-20
9.54222e-20
1.95704e-19
4.5817e-19
1.31603e-18
2.31897e-18
3.88866e-18
1.24406e-17
6.26612e-17
6.50487e-16
1.36779e-14
7.74128e-14
4.24166e-13
1.53926e-12
1.28392e-12
4.36047e-12
8.1443e-13
3.13875e-12
3.77806e-13
1.72658e-12
1.21584e-13
6.60717e-13
1.7051e-13
2.45528e-14
1.95689e-13
1.91457e-13
1.85207e-15
1.77296e-14
4.58174e-17
1.21392e-15
1.2016e-17
8.31302e-18
9.66681e-18
4.17549e-18
2.33975e-18
6.5349e-19
3.53148e-19
2.00178e-19
1.46299e-19
1.07535e-19
9.47503e-20
8.27728e-20
7.18966e-20
8.20709e-20
8.66484e-20
1.41622e-19
1.97898e-19
1.6066e-19
1.35406e-19
6.18782e-19
6.2626e-19
2.09893e-18
3.54097e-18
6.40533e-18
1.32548e-17
2.24197e-17
2.18643e-16
2.50277e-15
2.91171e-14
6.93997e-13
3.12383e-12
1.27263e-11
1.40939e-11
4.61139e-11
1.1575e-11
3.96129e-11
7.37799e-12
2.88959e-11
3.30963e-12
1.52077e-11
1.01218e-12
5.45961e-12
1.29498e-12
1.53773e-13
1.36667e-12
1.23108e-12
1.08476e-14
1.04318e-13
2.14892e-16
5.15662e-15
5.34935e-17
6.98292e-17
3.67965e-17
2.95201e-17
1.35307e-17
3.61411e-18
1.4786e-18
4.77955e-19
3.32518e-19
1.82281e-19
1.80799e-19
1.89391e-19
2.97394e-19
6.09906e-19
6.13319e-19
7.63977e-19
7.92693e-19
6.95894e-19
1.5233e-18
1.52353e-18
2.8314e-18
3.74369e-18
8.82465e-18
1.49785e-17
2.61242e-17
6.2472e-17
4.60752e-16
1.39956e-14
1.78118e-13
1.3536e-12
2.84476e-11
9.21483e-11
1.30646e-10
3.76267e-10
1.28928e-10
3.98525e-10
1.05307e-10
3.59094e-10
6.43669e-11
2.50042e-10
2.72387e-11
1.24438e-10
7.72549e-12
4.13497e-11
9.08151e-12
9.25134e-13
9.05552e-12
7.76958e-12
6.15292e-14
5.96308e-13
1.13613e-15
2.7886e-14
2.79792e-16
2.89324e-16
2.62004e-16
1.53055e-16
6.80343e-17
2.48137e-17
7.17805e-18
1.837e-18
8.18514e-19
4.04108e-19
3.37013e-19
5.32743e-19
1.68435e-18
3.83998e-18
4.9906e-18
5.32695e-18
4.0301e-18
6.91482e-18
7.61845e-18
8.34591e-18
9.7158e-18
1.9446e-17
2.60523e-17
3.96572e-17
6.2476e-17
1.07637e-16
8.59313e-16
2.26699e-14
1.13246e-12
1.41768e-11
4.80571e-11
7.77482e-10
9.39629e-10
2.46907e-09
1.1466e-09
3.13066e-09
1.14759e-09
3.44954e-09
8.97386e-10
2.99248e-09
5.19718e-10
1.98975e-09
2.05147e-10
9.28217e-10
5.46188e-11
2.93139e-10
6.20126e-11
5.50148e-12
6.02959e-11
4.93542e-11
3.37583e-13
3.37155e-12
5.68099e-15
1.45186e-13
1.04231e-15
1.98708e-15
1.2251e-15
7.05415e-16
3.47106e-16
1.24364e-16
3.12885e-17
9.23643e-18
2.44775e-18
1.00316e-18
7.89003e-19
1.21175e-18
5.43678e-18
1.32793e-17
2.92739e-17
2.76824e-17
3.64685e-17
2.75406e-17
3.6062e-17
3.56722e-17
3.91793e-17
6.14318e-17
8.25054e-17
1.09831e-16
1.65359e-16
2.38447e-16
1.5884e-15
4.38371e-14
1.58081e-12
9.36593e-11
9.28972e-10
6.56734e-10
5.82722e-09
1.71923e-08
8.01574e-09
2.00782e-08
9.70449e-09
2.57121e-08
9.29266e-09
2.70545e-08
7.01443e-09
2.2807e-08
3.82138e-09
1.43653e-08
1.45457e-09
6.50326e-09
3.82257e-10
2.079e-09
4.29026e-10
3.27618e-11
4.09881e-10
3.17823e-10
1.80448e-12
1.88216e-11
2.75736e-14
7.23818e-13
8.38251e-15
1.43611e-14
8.75568e-15
3.88863e-15
1.81524e-15
6.60262e-16
1.70578e-16
4.78332e-17
1.12608e-17
3.16878e-18
2.55641e-18
5.5262e-18
1.59514e-17
5.23988e-17
1.0729e-16
1.79568e-16
2.31484e-16
2.24832e-16
1.30801e-16
1.6617e-16
2.21976e-16
1.9666e-16
2.59369e-16
2.75882e-16
4.42602e-16
4.26847e-16
2.2667e-15
7.18889e-14
3.44678e-12
1.21703e-10
5.191e-09
3.1554e-08
4.88057e-08
0
4.83033e-08
1.16722e-07
6.4886e-08
1.58771e-07
7.39006e-08
1.90688e-07
6.84404e-08
1.92542e-07
5.00493e-08
1.59124e-07
2.63618e-08
9.72124e-08
1.033e-08
4.56936e-08
2.72447e-09
1.50578e-08
3.03876e-09
1.96444e-10
2.84329e-09
2.08331e-09
9.26926e-12
1.03285e-10
1.27856e-13
3.35127e-12
6.21343e-14
1.11489e-13
6.67013e-14
2.87764e-14
1.11071e-14
3.49075e-15
8.9424e-16
2.43149e-16
4.81193e-17
1.2511e-17
8.33243e-18
2.25479e-17
7.88041e-17
1.89239e-16
4.60921e-16
8.37554e-16
1.13598e-15
1.35431e-15
1.11598e-15
5.77989e-16
7.865e-16
6.97063e-16
1.10798e-15
1.20352e-15
1.03154e-15
1.42084e-15
3.34994e-15
8.94449e-14
5.2597e-12
3.40849e-10
7.75936e-09
1.78627e-07
1.13235e-06
2.77502e-07
8.99503e-07
3.80047e-07
9.25332e-07
4.72185e-07
1.14103e-06
5.10979e-07
1.29442e-06
4.62243e-07
1.2647e-06
3.33632e-07
1.03526e-06
1.82304e-07
6.57611e-07
7.47286e-08
3.28271e-07
1.98896e-08
1.1147e-07
2.20411e-08
1.18896e-09
2.00503e-08
1.38314e-08
4.54093e-11
5.60515e-10
5.5825e-13
1.454e-11
4.15684e-13
7.92748e-13
5.09791e-13
2.18015e-13
7.80277e-14
2.72754e-14
5.29935e-15
1.22958e-15
2.5442e-16
5.01576e-17
2.56464e-17
8.0208e-17
3.26223e-16
7.71012e-16
2.01693e-15
3.82224e-15
6.15887e-15
7.20823e-15
1.00149e-14
4.94303e-15
4.20718e-15
4.29381e-15
4.76776e-15
5.09222e-15
4.91396e-15
4.59436e-15
6.8618e-15
9.44043e-14
5.52711e-12
4.87303e-10
2.678e-08
3.07791e-07
4.26994e-06
1.03314e-05
2.19241e-05
2.16674e-06
5.12308e-06
2.73099e-06
6.69279e-06
3.19627e-06
7.84246e-06
3.31786e-06
8.49648e-06
2.94174e-06
8.04793e-06
2.18619e-06
6.55252e-06
1.28775e-06
4.48959e-06
5.5278e-07
2.38442e-06
1.48112e-07
8.39161e-07
1.6271e-07
7.28776e-09
1.43487e-07
9.32786e-08
2.15199e-10
3.07749e-09
2.25525e-12
5.98782e-11
2.28211e-12
4.82907e-12
3.43557e-12
1.67874e-12
4.97954e-13
1.67678e-13
3.55371e-14
6.38997e-15
1.14342e-15
2.41957e-16
8.17564e-17
2.70155e-16
9.30197e-16
3.91147e-15
1.08925e-14
2.37777e-14
3.99005e-14
5.53131e-14
6.92146e-14
5.73698e-14
3.34839e-14
3.21286e-14
3.22459e-14
3.1545e-14
2.78163e-14
2.37391e-14
2.13135e-14
1.04653e-13
4.74112e-12
4.36654e-10
4.24413e-08
1.30567e-06
7.21724e-06
3.65619e-05
6.06064e-05
6.97753e-05
0.000127766
1.58081e-05
3.60594e-05
1.91586e-05
4.62748e-05
2.13801e-05
5.26553e-05
2.13168e-05
5.49881e-05
1.84888e-05
5.04715e-05
1.41558e-05
4.06668e-05
8.8934e-06
2.88443e-05
4.06652e-06
1.6287e-05
1.11126e-06
6.18349e-06
1.21225e-06
4.58018e-08
1.04103e-06
6.49326e-07
1.00792e-09
1.75317e-08
7.68536e-12
2.38148e-10
8.15726e-12
2.28131e-11
1.951e-11
1.08749e-11
3.4535e-12
1.13694e-12
2.1295e-13
3.6689e-14
6.79792e-15
1.05678e-15
3.09818e-16
7.86602e-16
3.85066e-15
1.67934e-14
5.68526e-14
1.40331e-13
2.64106e-13
4.03298e-13
5.63894e-13
6.9229e-13
3.00177e-13
2.62891e-13
2.45518e-13
2.21409e-13
1.83006e-13
1.39914e-13
1.02116e-13
1.55169e-13
3.91528e-12
2.87554e-10
3.79229e-08
2.0378e-06
3.37874e-05
9.74897e-05
6.63188e-05
0.000194761
0.000292501
0.000320487
0.00046775
0.000103659
0.000196768
0.000121187
0.000248955
0.000129395
0.000276611
0.000125145
0.000283748
0.000108999
0.000260882
8.45905e-05
0.000213839
5.46698e-05
0.000159028
2.69408e-05
9.46536e-05
8.06167e-06
3.96155e-05
8.77667e-06
3.00781e-07
7.49274e-06
4.70521e-06
5.13017e-09
1.08038e-07
2.2918e-11
1.10751e-09
1.33325e-11
6.37588e-11
8.30269e-11
5.75974e-11
2.09169e-11
6.61311e-12
1.21156e-12
2.43624e-13
3.39675e-14
5.78497e-15
1.02143e-15
2.57627e-15
1.52509e-14
7.60505e-14
2.81991e-13
7.67404e-13
1.59803e-12
2.71155e-12
3.92022e-12
6.1101e-12
2.84582e-12
2.16971e-12
1.89346e-12
1.59353e-12
1.23064e-12
8.74823e-13
5.77166e-13
4.32448e-13
3.6215e-12
1.95386e-10
2.03898e-08
1.89377e-06
4.54872e-05
0.000416821
0.000365562
0.000548015
0.000627112
0.000789858
0.000833833
0.00105398
0.000419785
0.000619189
0.000474497
0.000717323
0.000505977
0.000773424
0.000511104
0.000809558
0.000477249
0.000810786
0.000393882
0.000765019
0.000270248
0.000646927
0.000147019
0.000420713
5.01044e-05
0.000203914
5.39085e-05
2.12442e-06
4.66067e-05
3.03382e-05
3.11674e-08
7.56638e-07
1.16718e-10
7.4304e-09
7.20259e-11
2.05642e-10
2.22378e-10
1.03476e-10
3.61389e-11
6.84909e-12
1.16785e-12
2.17722e-13
2.46472e-14
4.43503e-15
8.3124e-15
5.89028e-14
3.25796e-13
1.32884e-12
3.93193e-12
8.87012e-12
1.63797e-11
2.60974e-11
3.64539e-11
3.21749e-11
1.7762e-11
1.45154e-11
1.14254e-11
8.27193e-12
5.51276e-12
3.38084e-12
1.99653e-12
4.03252e-12
1.49377e-10
1.09574e-08
1.2709e-06
4.39432e-05
0.000441476
0.00120036
0.00130772
0.000941882
0.00109
0.00127039
0.00147072
0.0015155
0.00177597
0.00097851
0.00125009
0.00106769
0.00138248
0.00113149
0.00147418
0.00117961
0.00155799
0.00118441
0.00161665
0.00112645
0.0016286
0.000951443
0.0015429
0.000599191
0.00127483
0.000247165
0.000767619
0.000260598
1.44835e-05
0.000229854
0.000160192
2.15272e-07
5.22313e-06
6.94592e-10
4.42631e-08
1.99104e-10
5.11608e-10
3.90802e-10
1.71698e-10
3.62425e-11
6.32689e-12
8.61961e-13
1.36972e-13
1.94156e-14
2.65592e-14
2.082e-13
1.30992e-12
5.92288e-12
1.91332e-11
4.62557e-11
9.04476e-11
1.54001e-10
2.42429e-10
3.26573e-10
1.41835e-10
1.09412e-10
8.06072e-11
5.47812e-11
3.4282e-11
1.97892e-11
1.07379e-11
7.81276e-12
1.20295e-10
7.14142e-09
6.22602e-07
3.64513e-05
0.000436748
0.00135941
0.00130918
0.00193733
0.00202923
0.00165647
0.00181468
0.00201897
0.00223351
0.00229294
0.00256968
0.00169306
0.00200531
0.00182411
0.0021746
0.00193382
0.00231187
0.00204517
0.00245116
0.00211798
0.00257832
0.00211934
0.00265527
0.00197686
0.00262359
0.00158553
0.00237909
0.000881372
0.00184276
0.000900613
7.22275e-05
0.000807883
0.000684747
0.000273512
9.65666e-07
2.3258e-05
4.95797e-09
1.82532e-07
5.0441e-10
1.04349e-09
6.85516e-10
1.64075e-10
2.95912e-11
4.44576e-12
6.66132e-13
9.24344e-14
7.75623e-14
6.7534e-13
4.89751e-12
2.49017e-11
8.82242e-11
2.29176e-10
4.71368e-10
8.13154e-10
1.36174e-09
2.42124e-09
1.11654e-09
7.91217e-10
5.52378e-10
3.53235e-10
2.08432e-10
1.14156e-10
5.8694e-11
2.95276e-11
1.08308e-10
5.08243e-09
3.40516e-07
2.39745e-05
0.000406598
0.00172436
0.00206653
0.00218364
0.00265001
0.00266627
0.00242797
0.002561
0.00280041
0.00296949
0.00308609
0.00327139
0.00250535
0.0028175
0.00267532
0.00300541
0.00282954
0.00317672
0.00299688
0.00335507
0.0031269
0.00352828
0.00318059
0.00364777
0.0030872
0.00366095
0.00271466
0.0034623
0.00199114
0.00290862
0.00245558
0.00142663
0.00200586
0.000469038
0.000129299
0.000371512
0.00123522
0.00187748
0.00192626
0.00107742
9.8526e-07
4.04502e-06
0.000220902
0.000120515
2.65124e-05
9.26764e-08
1.57593e-06
4.84217e-07
1.24e-06
1.28357e-09
2.14762e-09
6.52395e-10
1.21692e-10
1.82825e-11
3.06481e-12
3.77791e-13
2.1306e-13
1.98889e-12
1.66916e-11
9.6509e-11
3.81661e-10
1.08053e-09
2.35929e-09
4.16978e-09
6.42999e-09
1.12224e-08
8.84952e-09
5.35589e-09
3.60499e-09
2.19599e-09
1.22795e-09
6.41421e-10
3.18568e-10
1.44066e-10
1.36741e-10
3.53637e-09
2.17527e-07
1.20177e-05
0.000327334
0.00163792
0.00257888
0.00248129
0.00265172
0.00262667
0.002982
0.00291031
0.00303858
0.00302541
0.00334009
0.00331617
0.0036078
0.00359068
0.00330567
0.00351181
0.00347865
0.00370903
0.00365603
0.00389393
0.0038538
0.00409793
0.00402108
0.00430483
0.00411502
0.00446388
0.00369879
0.00396602
0.00418821
0.00441266
0.00328165
0.00366641
0.00409065
0.00428922
0.00397654
0.00293501
0.00250282
0.00302262
0.00337774
0.00250005
0.000897418
0.000667533
0.00172361
0.00234922
0.002453
0.00154603
8.40141e-06
0.000445617
0.000250877
5.16471e-05
7.02526e-08
2.81192e-06
1.59765e-06
3.95303e-06
4.57831e-06
3.3377e-09
2.09494e-09
4.8213e-10
6.70783e-11
9.03551e-12
1.39722e-12
5.57159e-13
5.23396e-12
5.15869e-11
3.42558e-10
1.52703e-09
4.77107e-09
1.12321e-08
2.07286e-08
3.08292e-08
4.34264e-08
5.73541e-08
3.28073e-08
2.18649e-08
1.29666e-08
6.9561e-09
3.46339e-09
1.71918e-09
7.19278e-10
3.60324e-10
2.56913e-09
1.33255e-07
7.19834e-06
0.00021792
0.00144258
0.00251912
0.0026939
0.00265948
0.0028333
0.00276956
0.00298772
0.00283957
0.00324705
0.003127
0.00351872
0.00336911
0.0037965
0.00366135
0.00384607
0.003853
0.00404982
0.00410847
0.00426456
0.00435706
0.00450021
0.00461468
0.00471722
0.00488546
0.00458926
0.00475891
0.00488949
0.00500934
0.00436073
0.00458737
0.00478394
0.00376158
0.00410666
0.00454022
0.00469211
0.00441404
0.00345211
0.00301374
0.00348236
0.00384894
0.00299057
0.00132037
0.00105712
0.00219607
0.00292191
0.00280375
0.00199741
2.08415e-05
0.000764621
0.00046507
0.000114944
8.72368e-08
3.63189e-06
9.88503e-06
1.36955e-05
1.97856e-05
5.06172e-09
1.64882e-09
2.53203e-10
2.92257e-11
4.0319e-12
1.27862e-12
1.22799e-11
1.42895e-10
1.09936e-09
5.54003e-09
1.92805e-08
4.96105e-08
9.7453e-08
1.48135e-07
1.83171e-07
2.08968e-07
1.78093e-07
1.20934e-07
7.10793e-08
3.78571e-08
1.77564e-08
8.82778e-09
3.46868e-09
1.52143e-09
2.47002e-09
8.05609e-08
4.37445e-06
0.000130773
0.00115737
0.00240492
0.00243123
0.00244091
0.00250505
0.00246516
0.00270065
0.00258988
0.00260743
0.00236447
0.00315002
0.00288191
0.00342243
0.00308772
0.00376973
0.00345993
0.00407913
0.00397401
0.0043591
0.0043034
0.00465218
0.00463479
0.00497488
0.00498731
0.00509745
0.00517126
0.00522138
0.00525559
0.0049495
0.00508906
0.00520078
0.00529036
0.00476838
0.00496852
0.00513916
0.0042081
0.00453354
0.0049353
0.00508663
0.00482688
0.00390326
0.00347896
0.00392423
0.00428584
0.00344039
0.00174907
0.00145579
0.00264003
0.00335756
0.00322874
0.00242727
5.76691e-05
0.00113003
0.000798064
0.000250827
8.99383e-08
2.4253e-05
4.77784e-06
4.80791e-05
6.0945e-05
4.85564e-09
9.66142e-10
1.09576e-10
1.42972e-11
2.55227e-12
2.46598e-11
3.50928e-10
3.14202e-09
1.80333e-08
6.99373e-08
1.97987e-07
4.19789e-07
6.71144e-07
8.25226e-07
8.44981e-07
8.13607e-07
6.13198e-07
3.51822e-07
1.93322e-07
8.60614e-08
4.20106e-08
1.60658e-08
7.05095e-09
3.86952e-09
5.15794e-08
2.26162e-06
7.23536e-05
0.000840973
0.00223369
0.00230368
0.00198917
0.00198293
0.0019817
0.00197192
0.0021756
0.00204939
0.00190811
0.00163084
0.00268632
0.00227336
0.00304875
0.00255107
0.00355969
0.00312632
0.00415261
0.00390134
0.00455911
0.00438548
0.00495872
0.00487254
0.00527311
0.00527422
0.00526541
0.00523768
0.00535525
0.00539987
0.00542614
0.00543767
0.00527857
0.00538659
0.00546177
0.00550329
0.00514494
0.00531877
0.00545373
0.00463353
0.00494775
0.0053071
0.00545588
0.00522489
0.00433336
0.00391249
0.00434953
0.00470978
0.00386319
0.00216813
0.0018767
0.00305489
0.00376905
0.00363077
0.00283941
0.00016124
0.00155985
0.00124725
0.000542198
5.3819e-07
4.1359e-05
1.20069e-05
0.000150785
0.000148068
3.81576e-09
4.58133e-10
4.39746e-11
7.14461e-12
3.76466e-11
7.64047e-10
7.89099e-09
5.19239e-08
2.25027e-07
6.99488e-07
1.60626e-06
2.74473e-06
3.52684e-06
3.56239e-06
3.07077e-06
2.39912e-06
1.64493e-06
8.69267e-07
3.98186e-07
1.84824e-07
7.2446e-08
3.09689e-08
1.17802e-08
3.92006e-08
1.28571e-06
3.80486e-05
0.000565071
0.00199067
0.00238424
0.0016548
0.00183489
0.00144255
0.00154692
0.00135289
0.00137635
0.00145298
0.00136394
0.00111239
0.000876079
0.00200645
0.00150152
0.00258754
0.00195278
0.00339764
0.00287991
0.00413405
0.00380975
0.00469837
0.00446086
0.00524153
0.00508922
0.00543638
0.00542518
0.00540443
0.0053725
0.00552356
0.00553005
0.00552723
0.00551769
0.00553755
0.00557473
0.00558243
0.00557786
0.00548335
0.00559588
0.00563859
0.00505053
0.00534798
0.00562591
0.0057403
0.00558828
0.00475672
0.00433259
0.00477399
0.00512993
0.00427526
0.00259636
0.00232828
0.00345765
0.00417284
0.00403729
0.00325905
0.000419085
0.00204108
0.00176726
0.00100686
2.46175e-05
8.68578e-05
7.10911e-05
0.000401377
0.000331239
2.18879e-09
1.83008e-10
2.38304e-11
5.14963e-11
1.23075e-09
1.76441e-08
1.30634e-07
6.34588e-07
2.16405e-06
5.40731e-06
1.00032e-05
1.37456e-05
1.44134e-05
1.22465e-05
8.96798e-06
5.88872e-06
3.48087e-06
1.73295e-06
7.54776e-07
3.18873e-07
1.28843e-07
4.66258e-08
4.12215e-08
8.02119e-07
1.9431e-05
0.000352982
0.00164825
0.00238812
0.00185935
0.00131556
0.00143982
0.00100978
0.0011539
0.000797452
0.000884497
0.000773064
0.000762694
0.000449789
0.000336329
0.00128898
0.000751508
0.00221674
0.00143907
0.00333222
0.0027432
0.00415701
0.00378736
0.00487026
0.00458036
0.00534515
0.00526442
0.00505771
0.00517309
0.00550431
0.00548208
0.00545073
0.00540802
0.00556529
0.00554714
0.0055267
0.00550488
0.0056381
0.00561394
0.00557054
0.00551652
0.00570136
0.00570523
0.00566275
0.00545337
0.00570449
0.00578003
0.00584754
0.00583875
0.00518252
0.00475638
0.00520599
0.00553757
0.00469702
0.0030361
0.00279185
0.00387398
0.00459827
0.00446559
0.00368346
0.000892652
0.00253853
0.00230565
0.00156142
0.000360928
0.000240049
0.00037868
0.000854818
0.000730304
1.0283e-09
8.83793e-11
6.22255e-11
1.71356e-09
3.13722e-08
2.90546e-07
1.55106e-06
5.82053e-06
1.58859e-05
3.22366e-05
4.84111e-05
5.45655e-05
4.85632e-05
3.52137e-05
2.20763e-05
1.24943e-05
6.49679e-06
2.95786e-06
1.32094e-06
5.04373e-07
1.81706e-07
7.40581e-08
5.05835e-07
1.07318e-05
0.00020494
0.00122422
0.0023428
0.00213818
0.00140121
0.00159659
0.00106343
0.00122919
0.000736025
0.000895008
0.000461071
0.000589609
0.00032598
0.000364853
0.000164166
0.000119869
0.000729598
0.000330142
0.00197328
0.00110264
0.00329859
0.00262277
0.00423843
0.00382155
0.00492913
0.00477378
0.00446339
0.00527556
0.00518055
0.00492734
0.00506553
0.00547955
0.00544808
0.00540662
0.00535034
0.00546595
0.0054232
0.00538792
0.00535642
0.00557712
0.00546745
0.00535873
0.00526491
0.00574512
0.00563399
0.00546626
0.00580569
0.00592438
0.0057564
0.00575079
0.00590689
0.00559836
0.00519521
0.0056341
0.00589043
0.00514367
0.00347039
0.00324396
0.00429743
0.00504784
0.00490738
0.00410136
0.0014853
0.00301908
0.00282964
0.0021541
0.00178112
0.000703236
0.0016375
0.00150966
0.00158194
4.15894e-10
8.34467e-11
1.94805e-09
4.53927e-08
5.17011e-07
3.33771e-06
1.33674e-05
4.0193e-05
8.9296e-05
0.000145619
0.00017788
0.000173934
0.000135283
8.77359e-05
4.99406e-05
2.53789e-05
1.12745e-05
4.96414e-06
1.82672e-06
6.44842e-07
2.11379e-07
4.13286e-07
7.69082e-06
0.000113588
0.00082183
0.00218178
0.00231251
0.0017561
0.00123684
0.00139278
0.000892872
0.00106293
0.000570236
0.000727099
0.000297751
0.000425737
0.000130776
0.000189554
8.84467e-05
5.4043e-05
0.000485005
0.000197311
0.00175055
0.00091348
0.00296657
0.0022654
0.00405841
0.00356098
0.00477179
0.00459859
0.00407396
0.00386442
0.00504823
0.00492787
0.00462708
0.00478702
0.00532243
0.00527928
0.00522214
0.0051463
0.00519226
0.00513824
0.00509599
0.00505619
0.00527793
0.00509773
0.00494657
0.00483438
0.00556082
0.0053019
0.00501907
0.00600538
0.00596614
0.00547023
0.00538778
0.00574894
0.0059595
0.0056388
0.00601351
0.00608477
0.00559769
0.00388886
0.00367021
0.00472645
0.00550745
0.00536247
0.00451711
0.00214361
0.00346767
0.00331055
0.00273126
0.00234508
0.00195365
0.00301363
0.00229119
0.0026145
2.13889e-10
1.91555e-09
5.32108e-08
8.29802e-07
5.72496e-06
2.65376e-05
8.3346e-05
0.000198662
0.000345005
0.000462176
0.000496104
0.00043631
0.000311366
0.000179602
9.06865e-05
4.01207e-05
1.69994e-05
6.07012e-06
2.07817e-06
6.68575e-07
4.67689e-07
4.38661e-06
6.26653e-05
0.000539957
0.00185982
0.00236174
0.00206652
0.00143367
0.00161515
0.00109127
0.00126061
0.00074942
0.000918758
0.000435235
0.000586759
0.000186114
0.000299833
5.65634e-05
9.81366e-05
8.14142e-05
4.15216e-05
0.000417263
0.000180243
0.00150024
0.000852503
0.00263479
0.00213509
0.00368274
0.00346767
0.00312531
0.00445327
0.00426562
0.00384447
0.00369915
0.00464899
0.00451182
0.0042252
0.00436763
0.00500953
0.0049479
0.00486801
0.00476823
0.0047583
0.00470556
0.00466069
0.00461197
0.00475374
0.0045384
0.00438781
0.00429458
0.0051122
0.00472944
0.00437911
0.00603745
0.00577382
0.00493812
0.00482218
0.00534409
0.00616381
0.00604857
0.00624409
0.00612707
0.00603921
0.00429364
0.00407496
0.00516735
0.00597311
0.00582602
0.00494075
0.00276903
0.00387842
0.0037278
0.00323894
0.000928817
0.00321042
0.00310203
0.00298442
0.00337277
1.21184e-09
5.55645e-08
9.49278e-07
8.43356e-06
4.11992e-05
0.00014394
0.000347812
0.000608721
0.000806271
0.000880698
0.000837564
0.000700122
0.000501311
0.000286489
0.000129578
5.37881e-05
1.8518e-05
6.21785e-06
2.03032e-06
7.93769e-07
2.67711e-06
3.50657e-05
0.000359994
0.00149722
0.00233762
0.00227157
0.00178043
0.0012797
0.00143648
0.000935371
0.00110809
0.000594572
0.000762861
0.000290804
0.000435296
7.88781e-05
0.000168521
2.82269e-05
3.83111e-05
0.000119412