/*--------------------------------*- C++ -*----------------------------------*\
  =========                 |
  \\      /  F ield         | OpenFOAM: The Open Source CFD Toolbox
   \\    /   O peration     | Website:  https://openfoam.org
    \\  /    A nd           | Version:  dev
     \\/     M anipulation  |
\*---------------------------------------------------------------------------*/
FoamFile
{
    version     2.0;
    format      ascii;
    class       volScalarField;
    location    "2500";
    object      G;
}
// * * * * * * * * * * * * * * * * * * * * * * * * * * * * * * * * * * * * * //

dimensions      [1 0 -3 0 0 0 0];

internalField   nonuniform List<scalar> 
9842
(
4071.43
4077.38
4078.86
4082.58
4084.83
4087.07
4087.05
4090.04
4093.04
4096.05
4090.78
4094.51
4098.27
4102.04
4105.83
4093.78
4098.24
4102.73
4107.27
4111.83
4116.42
4096.09
4101.25
4106.45
4111.72
4117.05
4122.43
4127.84
4097.7
4103.54
4109.44
4115.42
4121.49
4127.64
4133.86
4140.11
4098.63
4105.13
4111.71
4118.38
4125.16
4132.06
4139.06
4146.13
4153.26
4098.92
4106.05
4113.27
4120.6
4128.07
4135.68
4143.43
4151.31
4159.29
4167.33
4098.58
4106.32
4114.15
4122.11
4130.23
4138.52
4147
4155.64
4164.45
4173.36
4182.35
4097.63
4105.95
4114.37
4122.93
4131.67
4140.6
4149.76
4159.13
4168.72
4178.48
4188.38
4198.37
4096.12
4104.98
4113.95
4123.07
4132.4
4141.95
4151.74
4161.8
4172.12
4182.68
4193.46
4204.4
4215.44
4094.05
4103.43
4112.92
4122.58
4132.45
4142.57
4152.96
4163.66
4174.67
4185.98
4197.58
4209.42
4221.46
4233.61
4091.47
4101.33
4111.31
4121.46
4131.85
4142.5
4153.45
4164.74
4176.38
4188.39
4200.75
4213.44
4226.42
4239.62
4252.95
4088.4
4098.71
4109.14
4119.76
4130.62
4141.76
4153.23
4165.06
4177.29
4189.93
4202.99
4216.46
4230.32
4244.5
4258.94
4273.54
4084.87
4095.59
4106.46
4117.51
4128.8
4140.39
4152.33
4164.66
4177.42
4190.64
4204.33
4218.51
4233.17
4248.26
4263.74
4279.51
4295.46
4080.91
4092.02
4103.28
4114.72
4126.42
4138.42
4150.79
4163.57
4176.81
4190.54
4204.81
4219.63
4235
4250.91
4267.33
4284.2
4301.4
4318.82
4076.55
4088.02
4099.63
4111.44
4123.5
4135.88
4148.63
4161.82
4175.48
4189.68
4204.45
4219.83
4235.85
4252.49
4269.75
4287.6
4305.96
4324.7
4343.71
4071.82
4083.62
4095.56
4107.7
4120.09
4132.81
4145.91
4159.44
4173.49
4188.09
4203.3
4219.17
4235.74
4253.03
4271.04
4289.76
4309.14
4329.11
4349.54
4370.27
4066.75
4078.85
4091.09
4103.52
4116.22
4129.23
4142.64
4156.49
4170.86
4185.81
4201.4
4217.69
4234.73
4252.57
4271.22
4290.7
4310.99
4332.04
4353.77
4376.04
4398.65
4061.37
4073.74
4086.25
4098.95
4111.91
4125.19
4138.87
4152.99
4167.65
4182.89
4198.8
4215.44
4232.88
4251.16
4270.36
4290.48
4311.54
4333.53
4356.4
4380.06
4404.33
4429.02
4055.71
4068.32
4081.06
4094
4107.2
4120.72
4134.63
4148.99
4163.88
4179.37
4195.54
4212.47
4230.22
4248.88
4268.5
4289.15
4310.86
4333.64
4357.48
4382.34
4408.1
4434.59
4461.56
4049.79
4062.61
4075.57
4088.72
4102.13
4115.85
4129.95
4144.51
4159.6
4175.3
4191.68
4208.83
4226.83
4245.77
4265.72
4286.78
4309
4332.42
4357.07
4382.93
4409.97
4438.07
4467.01
4496.52
4043.64
4056.65
4069.79
4083.13
4096.71
4110.61
4124.88
4139.61
4154.86
4170.71
4187.25
4204.57
4222.75
4241.9
4262.1
4283.45
4306.04
4329.96
4355.24
4381.93
4410.01
4439.46
4470.13
4501.8
4534.22
4037.27
4050.45
4063.76
4077.25
4090.99
4105.04
4119.45
4134.31
4149.68
4165.65
4182.31
4199.74
4218.05
4237.33
4257.69
4279.23
4302.08
4326.33
4352.08
4379.4
4408.32
4438.85
4470.96
4504.51
4539.3
4575
4030.73
4044.05
4057.49
4071.13
4084.99
4099.16
4113.69
4128.65
4144.12
4160.17
4176.9
4194.4
4212.78
4232.12
4252.57
4274.22
4297.2
4321.65
4347.69
4375.44
4404.98
4436.35
4469.6
4504.67
4541.5
4579.83
4619.16
4024.02
4037.46
4051.03
4064.77
4078.75
4093.01
4107.63
4122.66
4138.19
4154.3
4171.07
4188.6
4206.99
4226.35
4246.8
4268.47
4291.5
4316.02
4342.19
4370.18
4400.11
4432.09
4466.17
4502.42
4540.87
4581.42
4623.69
4667.17
4017.18
4030.71
4044.37
4058.21
4072.27
4086.61
4101.3
4116.39
4131.96
4148.08
4164.86
4182.37
4200.73
4220.05
4240.45
4262.07
4285.05
4309.54
4335.72
4363.76
4393.85
4426.16
4460.82
4497.91
4537.57
4579.85
4624.53
4671.29
4719.52
4010.21
4023.82
4037.56
4051.47
4065.6
4080
4094.73
4109.85
4125.43
4141.56
4158.31
4175.78
4194.07
4213.31
4233.6
4255.1
4277.94
4302.31
4328.37
4356.32
4386.37
4418.76
4453.69
4491.31
4531.79
4575.3
4621.83
4671.23
4723.16
4776.85
4003.14
4016.82
4030.61
4044.58
4058.75
4073.19
4087.94
4103.07
4118.65
4134.76
4151.46
4168.86
4187.05
4206.16
4226.3
4247.62
4270.27
4294.42
4320.26
4347.99
4377.85
4410.09
4444.98
4482.78
4523.72
4568.01
4615.82
4667.18
4721.99
4779.91
4839.99
3995.98
4009.71
4023.54
4037.54
4051.74
4066.2
4080.97
4096.09
4111.65
4127.71
4144.34
4161.65
4179.72
4198.67
4218.62
4239.71
4262.09
4285.95
4311.48
4338.89
4368.41
4400.33
4434.93
4472.56
4513.56
4558.22
4606.76
4659.41
4716.29
4777.38
4842.29
4909.83
3988.75
4002.5
4016.38
4030.39
4044.61
4059.07
4073.82
4088.93
4104.45
4120.44
4137
4154.18
4172.11
4190.87
4210.6
4231.43
4253.51
4277.01
4302.14
4329.12
4358.19
4389.64
4423.78
4460.95
4501.59
4546.17
4594.96
4648.25
4706.4
4769.64
4838.08
4911.24
4987.57
3981.47
3995.23
4009.12
4023.15
4037.36
4051.81
4066.54
4081.61
4097.07
4112.99
4129.44
4146.5
4164.26
4182.82
4202.3
4222.84
4244.57
4267.68
4292.35
4318.82
4347.33
4378.17
4411.67
4448.2
4488.18
4532.18
4580.7
4634.08
4692.75
4757.2
4827.79
4905.02
4987.89
5051.33
5053.43
3974.16
3987.9
4001.79
4015.82
4030.02
4044.44
4059.14
4074.16
4089.55
4105.38
4121.72
4138.63
4156.2
4174.55
4193.77
4213.98
4235.35
4258.02
4282.19
4308.09
4335.95
4366.08
4398.8
4434.5
4473.61
4516.7
4564.39
4617.25
4675.78
4740.56
4812.26
4891.38
4979.55
5053.03
5049.95
5097.57
5099.46
3966.84
3980.55
3994.42
4008.43
4022.6
4036.99
4051.64
4066.59
4081.91
4097.64
4113.85
4130.61
4147.99
4166.1
4185.03
4204.92
4225.89
4248.1
4271.74
4297.02
4324.18
4353.51
4385.34
4420.06
4458.11
4500.05
4546.53
4598.23
4655.93
4720.26
4792.02
4872.18
4949.24
4939.05
5044.59
4986.42
5036.32
5098.52
5094.79
5146.71
5148.39
3959.52
3973.19
3987.02
4000.99
4015.13
4029.47
4044.06
4058.94
4074.17
4089.79
4105.87
4122.46
4139.65
4157.51
4176.16
4195.69
4216.24
4237.98
4261.06
4285.69
4312.1
4340.58
4371.43
4405.05
4441.89
4482.48
4527.49
4577.63
4633.76
4696.84
4767.75
4847.55
4927.71
4914.4
4975.42
5088.37
5025.9
5079.13
5146.9
5142.37
5199.08
5200.56
3952.21
3965.83
3979.61
3993.52
4007.61
4021.89
4036.41
4051.22
4066.35
4081.85
4097.79
4114.22
4131.2
4148.82
4167.17
4186.35
4206.49
4227.72
4250.22
4274.18
4299.82
4327.4
4357.23
4389.67
4425.17
4464.26
4507.59
4555.88
4609.99
4671.01
4740.11
4818.51
4900.28
4884.46
4962.56
4947.96
5013.5
5134.87
5067.41
5124.42
5198.49
5193
5255.04
5256.3
3944.94
3958.48
3972.19
3986.04
4000.06
4014.27
4028.72
4043.43
4058.46
4073.84
4089.64
4105.89
4122.67
4140.04
4158.1
4176.93
4196.65
4217.39
4239.3
4262.57
4287.4
4314.06
4342.83
4374.05
4408.15
4445.62
4487.11
4533.34
4585.14
4643.57
4709.96
4785.82
4868.04
4850.05
4932.11
4914.93
4999.09
4982.9
5053.48
5184.29
5111.22
5172.41
5253.55
5246.95
5314.95
5315.93
3937.71
3951.17
3964.8
3978.57
3992.5
4006.63
4020.98
4035.6
4050.52
4065.78
4081.43
4097.51
4114.08
4131.22
4148.98
4167.46
4186.76
4207.01
4228.35
4250.94
4274.97
4300.69
4328.36
4358.32
4390.96
4426.76
4466.31
4510.32
4559.59
4615.16
4678.28
4750.56
4831.68
4812
4896.69
4877.3
4965.33
4946.45
5037.38
5019.41
5095.55
5236.84
5157.49
5223.29
5312.41
5304.59
5379.28
5379.92
3930.53
3943.9
3957.44
3971.11
3984.95
3998.97
4013.23
4027.74
4042.54
4057.67
4073.17
4089.08
4105.46
4122.35
4139.83
4157.97
4176.87
4196.64
4217.41
4239.33
4262.58
4287.37
4313.96
4342.63
4373.78
4407.85
4445.42
4487.11
4533.71
4586.21
4645.79
4713.94
4792.36
4771.8
4857.04
4835.95
4926.4
4905.26
4999.94
4979.13
5077.62
5057.65
5139.87
5292.85
5206.4
5277.36
5375.56
5366.37
5448.55
5448.79
3923.43
3936.68
3950.12
3963.69
3977.41
3991.33
4005.46
4019.85
4034.53
4049.52
4064.87
4080.62
4096.79
4113.46
4130.67
4148.49
4167
4186.31
4206.52
4227.78
4250.26
4274.16
4299.69
4327.12
4356.79
4389.1
4424.62
4463.95
4507.8
4557.1
4612.97
4676.78
4751.59
4730.78
4814.46
4792.55
4883.16
4860.32
4957.12
4934.01
5036.01
5013.03
5119.87
5097.63
5186.57
5352.72
5258.21
5334.95
5443.49
5432.71
5523.34
5523.09
3916.4
3929.54
3942.86
3956.31
3969.91
3983.7
3997.71
4011.97
4026.51
4041.36
4056.55
4072.13
4088.11
4104.55
4121.5
4139.01
4157.16
4176.03
4195.72
4216.36
4238.09
4261.1
4285.6
4311.83
4340.08
4370.71
4404.16
4441.09
4482.14
4528.16
4580.22
4639.58
4710.48
4689.73
4770.58
4748.51
4837.03
4813.45
4909.93
4885.15
4988.84
4963.53
5073.57
5048.17
5164.19
5139.39
5235.85
5416.86
5313.22
5396.45
5516.65
5504.1
5604.35
5603.5
3909.47
3922.48
3935.67
3948.99
3962.46
3976.11
3989.98
4004.09
4018.49
4033.18
4048.22
4063.62
4079.42
4095.65
4112.34
4129.56
4147.36
4165.81
4185.01
4205.06
4226.09
4248.26
4271.77
4296.82
4323.7
4352.72
4384.23
4418.8
4457.05
4499.76
4547.92
4602.72
4669.53
4648.99
4726.59
4704.68
4789.79
4766.19
4859.94
4834.52
4937.29
4910.4
5021.55
4993.79
5112.66
5084.57
5210.75
5183.05
5287.98
5485.77
5371.78
5462.29
5595.72
5581.12
5692.42
5690.83
3902.64
3915.51
3928.57
3941.75
3955.07
3968.57
3982.29
3996.24
4010.48
4025.01
4039.88
4055.11
4070.72
4086.74
4103.2
4120.15
4137.62
4155.68
4174.42
4193.91
4214.29
4235.68
4258.24
4282.18
4307.72
4335.18
4364.87
4397.21
4432.8
4472.28
4516.55
4566.72
4629.04
4609.14
4682.97
4661.31
4742.72
4719.4
4809.09
4783.81
4883.13
4855.72
4965.16
4935.99
5055.24
5024.76
5153.33
5122.23
5259.74
5228.74
5343.23
5559.92
5434.19
5532.84
5681.41
5664.36
5788.59
5786.05
3895.91
3908.64
3921.56
3934.59
3947.76
3961.1
3974.65
3988.43
4002.49
4016.86
4031.55
4046.6
4062.02
4077.84
4094.08
4110.76
4127.93
4145.64
4163.94
4182.92
4202.68
4223.34
4245.04
4267.94
4292.24
4318.21
4346.13
4376.38
4409.44
4445.89
4486.48
4532.18
4584.12
4639.98
4619.05
4696.25
4673.25
4758.73
4733.89
4828.4
4801.32
4906.51
4876.97
4993.52
4961.89
5089.91
5056.46
5195.64
5161.17
5311.34
5276.56
5401.79
5639.83
5500.71
5608.66
5774.63
5754.69
5893.94
5890.25
3889.31
3901.89
3914.66
3927.53
3940.54
3953.71
3967.07
3980.68
3994.55
4008.73
4023.23
4038.09
4053.33
4068.95
4084.97
4101.42
4118.31
4135.69
4153.6
4172.1
4191.29
4211.27
4232.16
4254.1
4277.27
4301.86
4328.14
4356.41
4387.08
4420.66
4457.8
4499.31
4546.24
4606.95
4585.7
4650.6
4628.51
4709.28
4684.88
4774.56
4748.12
4847.62
4818.66
4930
4898.19
5022.36
4988.01
5125.51
5088.8
5239.63
5201.36
5365.72
5326.65
5463.87
5726.37
5571.82
5690.46
5876.46
5853.12
6009.58
6004.65
3882.83
3895.26
3907.87
3920.58
3933.41
3946.4
3959.58
3972.99
3986.66
4000.64
4014.95
4029.61
4044.65
4060.07
4075.89
4092.11
4108.75
4125.83
4143.38
4161.45
4180.12
4199.47
4219.61
4240.67
4262.79
4286.14
4310.92
4337.38
4365.85
4396.75
4430.62
4468.12
4510.46
4565.47
4545.59
4614.94
4592.81
4660.91
4637.61
4722.02
4696.2
4790.15
4762.1
4866.74
4835.85
4953.58
4919.41
5051.6
5014.4
5162.01
5121.79
5285.39
5242.86
5423.07
5379.21
5529.85
5820.4
5648.12
5778.99
5988.14
5960.8
6136.97
6130.85
3876.47
3888.75
3901.21
3913.75
3926.41
3939.21
3952.19
3965.39
3978.85
3992.61
4006.7
4021.15
4035.98
4051.21
4066.83
4082.84
4099.25
4116.05
4133.28
4150.97
4169.16
4187.94
4207.4
4227.64
4248.8
4271.01
4294.44
4319.28
4345.79
4374.28
4405.13
4438.91
4476.54
4526.62
4508.44
4571.45
4550.73
4622.43
4599.13
4670.91
4646.35
4734.49
4707.15
4805.59
4775.8
4885.86
4852.95
4977.37
4940.81
5081.38
5041.32
5199.57
5155.79
5333.16
5286.08
5483.68
5434.5
5600.24
5922.92
5730.24
5875.15
6111.24
6079.22
6277.81
6270.4
3870.33
3882.37
3894.67
3907.05
3919.53
3932.14
3944.91
3957.89
3971.12
3984.64
3998.5
4012.72
4027.34
4042.36
4057.78
4073.59
4089.79
4106.36
4123.3
4140.65
4158.42
4176.69
4195.53
4215.03
4235.3
4256.47
4278.67
4302.06
4326.81
4353.18
4381.42
4411.9
4445.25
4482.81
4530.86
4511.49
4576.58
4554.81
4628.76
4604.08
4680.29
4654.17
4746.28
4717.04
4820.51
4788.49
4904.76
4869.3
5001.45
4961.91
5112.11
5068.65
5238.79
5191.24
5383.45
5331.85
5548.03
5493.27
5675.67
6035.33
5819.11
5980.2
6247.35
6210.11
6433.78
6424.83
3876.2
3888.27
3900.48
3912.78
3925.19
3937.76
3950.51
3963.49
3976.77
3990.37
4004.35
4018.73
4033.52
4048.74
4064.36
4080.36
4096.72
4113.43
4130.48
4147.89
4165.71
4184
4202.83
4222.3
4242.53
4263.62
4285.69
4308.89
4333.37
4359.34
4387.01
4416.77
4449.58
4494.43
4476.24
4533.87
4513.7
4580.25
4557.33
4633.38
4607.14
4688.37
4660.48
4756.75
4725.37
4834.42
4799.9
4923.05
4884.86
5025.51
4982.89
5143.69
5096.74
5280.16
5228.45
5437.37
5380.92
5617.23
5556.98
5757.48
6159.33
5916.56
6095.82
6398
6355.37
6607.37
6596.21
3882.08
3894.05
3906.18
3918.4
3930.74
3943.26
3955.99
3969
3982.33
3996.04
4010.16
4024.71
4039.71
4055.14
4070.96
4087.14
4103.65
4120.46
4137.57
4154.99
4172.79
4191.02
4209.78
4229.15
4249.23
4270.13
4291.94
4314.78
4338.77
4364.05
4390.81
4419.84
4459.32
4443.72
4494.81
4476.51
4535.37
4514.47
4581.87
4557.71
4635.7
4607.67
4694.65
4664.75
4765.59
4731.75
4847.18
4809.75
4940.93
4899.58
5050.16
5004.02
5177.16
5126.32
5324.7
5268.77
5496.19
5434.99
5693.33
5627.28
5848.27
6296.72
6026.86
6176.67
6212.37
6564.64
6517.08
6801.64
6787.23
3887.85
3899.72
3911.75
3923.88
3936.16
3948.63
3961.36
3974.4
3987.81
4001.65
4015.94
4030.7
4045.92
4061.57
4077.6
4093.94
4110.56
4127.42
4144.52
4161.89
4179.59
4197.7
4216.3
4235.48
4255.32
4275.91
4297.31
4319.59
4342.82
4367.08
4392.97
4421.42
4459.58
4443.68
4493.45
4475.24
4534.77
4513.29
4580.81
4555.34
4635.2
4605.2
4698.68
4666.46
4772.53
4735.91
4858.65
4817.88
4958.44
4913.43
5075.68
5025.38
5213.03
5157.49
5373.36
5312.4
5561.82
5494.94
5780.08
5669.62
5705.17
5945.21
5908.73
6283.25
6429.47
6394.74
6140.78
6102.3
6004.02
6247.17
6714.57
6692.38
6512.24
6634.51
6666.01
7020.66
6812.94
6953.68
6938.01
3893.5
3905.27
3917.19
3929.23
3941.44
3953.87
3966.61
3979.7
3993.22
4007.22
4021.72
4036.71
4052.18
4068.06
4084.27
4100.74
4117.42
4134.26
4151.28
4168.52
4186.06
4203.97
4222.33
4241.23
4260.72
4280.86
4301.68
4323.18
4345.36
4368.53
4394.41
4428.55
4415.09
4458.53
4443.03
4490.18
4472.43
4531.57
4509.84
4576.75
4550.22
4631.84
4600.01
4700.14
4665.35
4777.42
4737.77
4868.84
4824.44
4975.61
4926.49
5102.05
5046.95
5251.18
5190.05
5430.13
5396.6
5364.28
5330.4
5634.85
5598.02
5458.46
5523.78
5561.88
5749.84
5872.96
5834.36
5711.79
5965.41
6358.51
6476.79
6209.85
6170.82
6064.34
6322.3
6789.18
6599.59
6727.96
6760.79
7204.94
7201.32
7068.49
6916.76
7049.87
3899.04
3910.68
3922.48
3934.42
3946.57
3958.98
3971.73
3984.91
3998.57
4012.76
4027.51
4042.77
4058.5
4074.6
4090.98
4107.52
4124.18
4140.94
4157.8
4174.84
4192.13
4209.76
4227.81
4246.33
4265.36
4284.9
4304.94
4325.4
4346.36
4369.73
4395.83
4427.74
4414.74
4456.32
4441.52
4485.28
4468.33
4526.03
4504.41
4570.19
4542.87
4626.37
4592.78
4699.2
4661.95
4780.58
4737.88
4877.92
4829.79
4992.52
4938.97
5129.07
5068.68
5298.07
5264.43
5232.1
5198.54
5423.45
5388.63
5353.5
5673.84
5635.09
5487.13
5556.21
5595.91
5795.34
5926.36
5885.69
5755.07
6024.47
6440.9
6565
6284.27
6130.07
6243.71
6403.82
6890.79
6693.9
6828.24
6860.71
7336.81
7332.69
7188.69
7026.01
7168.07
3904.43
3915.93
3927.62
3939.46
3951.54
3963.93
3976.73
3990.01
4003.86
4018.29
4033.32
4048.89
4064.89
4081.21
4097.7
4114.26
4130.83
4147.4
4164.02
4180.77
4197.75
4215.03
4232.67
4250.72
4269.15
4287.93
4306.96
4326.18
4347.15
4372.1
4402.49
4391.12
4426.42
4414.21
4453.15
4439.3
4479.21
4463.42
4518.56
4497.42
4561.71
4533.91
4619.4
4584.19
4696.63
4657.02
4782.57
4736.9
4886.23
4834.34
5009.27
4951.14
5166.37
5133.27
5101.41
5068.97
5318.86
5284.1
5249.59
5214.98
5450.35
5413.52
5376.62
5714.38
5673.01
5516.87
5589.02
5631.1
5843.5
5982.93
5939.41
5800.14
6087.32
6529.45
6660.33
6364.29
6200.25
6321.49
6491.55
6997.81
6796.35
6937.36
6967.06
7479.62
7318.2
7474.39
7141.59
7295.01
3909.67
3921.02
3932.57
3944.31
3956.33
3968.71
3981.58
3995.02
4009.1
4023.83
4039.2
4055.1
4071.39
4087.89
4104.44
4120.92
4137.3
4153.59
4169.88
4186.27
4202.85
4219.7
4236.86
4254.32
4272.02
4289.85
4307.68
4326.52
4349.72
4374.75
4402.33
4391.44
4424.81
4413.42
4449.44
4436.7
4472.83
4458.46
4509.89
4489.7
4552.21
4524.37
4611.79
4575.25
4693.05
4651.24
4783.82
4735.29
4893.98
4838.26
5037.69
5006.1
4975.53
4945.06
5180.8
5146.65
5112.98
5079.54
5340.08
5303.7
5267.43
5231.3
5477.75
5438.76
5399.89
5756.32
5711.91
5547.05
5622.17
5667.08
5893.95
6042.65
5995.72
5847.11
6154.01
6625.08
6764.07
6450.25
6275.02
6404.77
6586.29
7112.07
6908.96
7059.12
7083.53
7634.09
7458.31
7627.63
7266.73
7434.07
3914.72
3925.92
3937.33
3948.95
3960.91
3973.32
3986.29
3999.94
4014.32
4029.43
4045.2
4061.47
4078.03
4094.65
4111.16
4127.45
4143.52
4159.44
4175.31
4191.26
4207.38
4223.74
4240.32
4257.08
4273.87
4290.59
4307.71
4328.72
4353.32
4381.29
4371.05
4401.96
4391.56
4423.12
4412.45
4445.77
4434.14
4467.04
4454.1
4501.13
4482.31
4542.68
4515.18
4604.24
4566.64
4689.08
4645.31
4784.56
4733.32
4901.03
4841.61
5046.62
5013.92
4981.77
4950.01
5195.47
5159.89
5124.7
5089.94
5361.46
5323.33
5285.35
5247.6
5505.41
5464.13
5423.18
5799.63
5751.75
5577.36
5655.51
5703.64
5946.62
6105.49
6054.56
5895.85
6224.89
6729.13
6878.73
6542.88
6354.79
6494.18
6689.24
7239
7035.44
7199.38
7216.96
7802.36
7611.35
7797.11
7407.84
7590.42
3919.58
3930.6
3941.84
3953.36
3965.27
3977.72
3990.87
4004.8
4019.57
4035.14
4051.37
4068.02
4084.81
4101.46
4117.81
4133.78
4149.42
4164.85
4180.23
4195.67
4211.28
4227.07
4243
4258.93
4274.72
4290.54
4309.2
4332.66
4356.18
4381.34
4371.43
4401.24
4391.27
4421.41
4411.28
4442.54
4431.76
4462.4
4450.52
4493.22
4476.14
4533.86
4507.2
4597.01
4558.78
4684.92
4639.39
4784.85
4730.85
4922.23
4890.14
4828.47
4858.99
5055.57
5021.5
4987.95
4954.86
5210.17
5173.05
5136.33
5100.12
5382.84
5342.93
5303.21
5263.79
5533.07
5489.44
5446.36
5844.23
5792.41
5607.6
5688.78
5740.54
6001.31
6171.83
6116.28
5946.14
6300.3
6843.87
7007.72
6643.29
6440.07
6590.87
6802.4
7387.85
7180.23
7364.47
7375.41
8010.91
7785.72
8008.42
7574.46
7776.81
3924.22
3935.02
3946.09
3957.49
3969.38
3981.94
3995.33
4009.65
4024.92
4041.05
4057.78
4074.77
4091.69
4108.25
4124.28
4139.79
4154.89
4169.76
4184.58
4199.49
4214.54
4229.71
4244.88
4259.91
4274.77
4291.36
4312.96
4336.31
4361.76
4352.23
4380.88
4371.3
4400.04
4390.45
4419.49
4409.71
4439.66
4429.41
4458.54
4447.13
4486.92
4471.38
4526.24
4500.84
4590.09
4551.85
4680.31
4633.24
4799.02
4770.52
4727.68
4925.76
4892.75
4829.18
4860.56
5064.3
5028.83
4993.94
4959.56
5224.72
5185.99
5147.7
5109.98
5404.05
5362.29
5320.82
5279.69
5560.55
5514.45
5469.16
5889.93
5833.65
5637.56
5721.8
5777.54
6058.26
6242.07
6181.09
5998.09
6380.75
6972.34
7154.08
6753.32
6531.98
6696.29
6928.1
7568.44
7348.1
7559.9
7566.26
8353.38
8009.05
8334.41
7780.51
8023.12
3928.6
3939.16
3950.04
3961.32
3973.22
3985.96
3999.72
4014.57
4030.49
4047.22
4064.4
4081.62
4098.53
4114.85
4130.44
4145.37
4159.83
4174.09
4188.34
4202.7
4217.16
4231.65
4246.02
4260.17
4275.2
4294.47
4316.99
4338.26
4361.31
4352.1
4379.77
4370.53
4398.23
4388.99
4416.98
4407.53
4436.59
4426.62
4454.62
4443.31
4481.95
4467.18
4520.1
4495.87
4583.84
4546.28
4675.41
4627.12
4798.9
4769.75
4739.5
4711.45
4928.98
4894.96
4829.63
4861.85
5072.69
5035.81
4999.58
4963.94
5238.94
5198.56
5158.65
5119.36
5424.86
5381.25
5337.98
5295.09
5587.59
5538.94
5491.39
5936.68
5875.27
5667.09
5754.5
5814.42
6117.51
6316.73
6249.27
6051.63
6466.98
7117.01
7321.14
6874.74
6631.46
6811.82
7068.4
7790.26
7543.35
7789.79
7795.61
8920.53
8337.26
8845.17
8046.79
8363.38
3932.67
3942.96
3953.62
3964.8
3976.79
3989.84
4004.13
4019.69
4036.29
4053.54
4071
4088.3
4105.08
4121.06
4136.12
4150.38
4164.17
4177.81
4191.51
4205.31
4219.16
4232.93
4246.49
4260.44
4277.47
4298.56
4319.85
4342.81
4334.07
4360.36
4351.57
4378
4369.17
4395.72
4386.85
4413.73
4404.65
4432.88
4423.09
4450.16
4438.79
4477.58
4462.85
4515.6
4491.84
4578.9
4541.99
4684.87
4659.65
4621.69
4798.57
4768.63
4737.97
4709.54
4931.81
4896.82
4829.91
4862.87
5080.58
5042.27
5004.73
4967.89
5252.6
5210.5
5168.92
5128.05
5445.06
5399.55
5354.44
5309.73
5614.07
5562.74
5512.88
5984.42
5917.29
5696.24
5786.96
5851.26
6179.11
6396.35
6321.41
6106.73
6559.62
7280.52
7512.57
7009.1
6739.78
6938.84
7225.92
8063.78
7768.91
8056.84
8068.37
9439.71
8798.88
9379.94
8385.39
8791.09
3936.39
3946.36
3956.78
3967.92
3980.12
3993.68
4008.7
4024.98
4042.12
4059.69
4077.29
4094.56
4111.13
4126.68
4141.16
4154.72
4167.85
4180.92
4194.08
4207.33
4220.55
4233.59
4246.72
4261.93
4281.24
4301.93
4320.98
4342.06
4333.59
4358.89
4350.49
4375.66
4367.27
4392.55
4384.07
4409.82
4401.11
4428.44
4418.86
4444.86
4433.45
4473.28
4457.97
4511.9
4487.84
4584.85
4565.28
4536.35
4682.63
4657.1
4606.1
4629.16
4798.18
4767.61
4736.15
4707.29
4934.25
4898.33
4829.99
4863.61
5087.78
5048.1
5009.32
4971.35
5265.43
5221.56
5178.32
5135.89
5464.49
5417.03
5370.01
5323.4
5640.06
5585.9
5533.65
6033.14
5959.9
5725.06
5819.65
5888.47
6243.69
6481.55
6398.27
6164.03
6659.88
7465.93
7730.93
7158.54
6858.2
7078.98
7403.43
8393.44
8026.88
8361.99
8386.37
9873.44
9303.06
9844.76
8787.13
9260.71
3939.68
3949.27
3959.47
3970.68
3983.33
3997.62
4013.42
4030.33
4047.84
4065.54
4083.11
4100.21
4116.49
4131.6
4145.44
4158.34
4170.87
4183.42
4196.09
4208.79
4221.36
4233.86
4247.64
4265.06
4284.77
4303.93
4324.78
4316.72
4340.91
4332.84
4356.94
4348.95
4372.83
4364.89
4388.82
4380.78
4405.36
4396.98
4423.33
4414.08
4438.41
4427.21
4468.22
4451.91
4506.76
4481.89
4580.89
4561.34
4537.41
4521.27
4679.96
4653.94
4602.11
4625.08
4797.58
4766.35
4733.38
4704.06
4936.21
4899.32
4829.35
4863.71
5094.21
5053.26
5013.32
4974.31
5277.23
5231.62
5186.74
5142.81
5483.12
5433.62
5384.59
5336.01
5665.6
5608.53
5553.8
6083.45
6003.79
5753.82
5853.12
5926.77
6311.93
6573.11
6480.57
6224.15
6768.7
7675.33
7977.95
7325.87
6988.2
7234.58
7602.39
8774.05
8318.23
8705.27
8748.14
10285.4
9788.57
10279.3
9229.76
9741.35
3942.44
3951.58
3961.66
3973.2
3986.58
4001.76
4018.31
4035.63
4053.28
4070.95
4088.37
4105.21
4121.1
4135.72
4148.95
4161.24
4173.27
4185.38
4197.58
4209.73
4221.75
4234.45
4250.09
4268.51
4287.29
4304.41
4323.89
4316.07
4339.34
4331.64
4354.57
4346.98
4369.61
4362.1
4384.71
4377.12
4400.48
4392.47
4417.57
4408.79
4430.7
4420.08
4461.15
4444.14
4506.64
4493.33
4472.3
4575
4555.47
4530.53
4514.82
4676.26
4649.88
4596.2
4619.11
4796.19
4764.18
4728.7
4698.85
4937.09
4899.12
4827.15
4862.46
5099.77
5057.54
5016.37
4976.23
5287.98
5240.6
5194.02
5148.45
5500.98
5449.25
5398.09
5347.48
5690.87
5630.82
5573.46
6136.16
6049.81
5782.91
5887.52
5966.77
6384.68
6671.89
6569.47
6288.06
6887.57
7910.3
8254.84
7512.54
7131.33
7406.96
7823.91
9194.15
8643.21
9083.88
9147.2
10689.3
10265
10724.9
9696
10233.5
3944.52
3953.24
3963.46
3975.71
3990.1
4006.17
4023.24
4040.76
4058.4
4075.91
4093.06
4109.56
4125.02
4139.09
4151.71
4163.49
4175.13
4186.85
4198.6
4210.26
4222.21
4236.26
4253.22
4271.25
4288.57
4303.63
4322.68
4315.24
4337.39
4330.07
4351.86
4344.65
4366.12
4359
4380.45
4373.25
4395.29
4387.77
4411.18
4403.06
4421.92
4412.27
4451.5
4434.7
4500.52
4487.52
4457.54
4468.44
4567.05
4547.91
4522.04
4506.89
4670.56
4643.92
4588
4610.76
4793.08
4760.18
4721.44
4691.07
4935.85
4896.64
4822.35
4858.75
5103.94
5060.32
5017.69
4976.22
5297.45
5248.12
5199.64
5152.19
5518.05
5463.81
5410.32
5357.39
5716.09
5652.75
5592.35
6192.23
6098.58
5812.14
5922.89
6008.57
6463.52
6779.54
6666.2
6357.09
7017.74
8171.75
8561.77
7718.97
7288.03
7596.29
8068.74
9643.39
9001.41
9493.49
9577.16
11191.2
10765.3
11285.8
10184.5
10753.6
3945.74
3954.24
3965.09
3978.49
3993.97
4010.74
4028.12
4045.67
4063.17
4080.43
4097.25
4113.33
4128.26
4141.73
4153.82
4165.21
4176.53
4187.9
4199.26
4210.73
4223.48
4238.9
4255.95
4272.99
4288.58
4305.62
4313.96
4298.59
4321.1
4335.13
4328.15
4348.89
4342.04
4362.52
4355.71
4376.14
4369.33
4389.94
4383
4404.33
4397.02
4412.49
4404.16
4439.81
4424.08
4493.02
4480.27
4450.82
4461.16
4557.19
4538.71
4512.29
4497.84
4662.34
4635.49
4577.64
4600.11
4787.31
4753.58
4711.32
4680.54
4931.4
4890.92
4814.34
4851.84
5105.87
5060.58
5016.24
4973.16
5305.03
5253.39
5202.66
5152.99
5533.92
5476.81
5420.56
5364.88
5740.9
5673.8
5609.86
6252.42
6150.45
5841.69
5959.44
6052.48
6549.43
6896.64
6770.46
6432.23
7158.74
8460.21
8899.01
7945.48
7458.59
7802.26
8337.07
10119.2
9390.26
9932.67
10035.9
12049.6
11340.6
12046.8
10702.7
11323.4
3945.9
3954.78
3966.93
3981.71
3998.14
4015.38
4032.89
4050.36
4067.65
4084.6
4101.01
4116.58
4130.9
4143.77
4155.41
4166.52
4177.57
4188.63
4199.77
4211.6
4225.53
4241.41
4257.87
4273.61
4287.39
4312.5
4304.11
4297.33
4319.3
4332.64
4326
4345.84
4339.26
4358.92
4352.4
4371.83
4365.4
4384.59
4378.23
4397.34
4390.93
4403.2
4396.31
4434.79
4426.58
4413.19
4484.6
4472.41
4443.72
4453.49
4545.84
4528.18
4501.69
4488.07
4651.56
4624.67
4565.63
4587.64
4778.38
4743.96
4698.59
4667.54
4923.14
4881.5
4803.08
4841.47
5104.54
5057.31
5011.15
4966.34
5309.72
5255.32
5201.97
5149.81
5547.88
5487.26
5427.54
5368.45
5765.18
5693.42
5625.02
6317.39
6205.67
5871.27
5996.85
6098.36
6641.31
7021.97
6880.39
6511.96
7310.39
8775.58
9265.78
8192.2
7642.89
8025.03
8629.39
10625.4
9808.15
10402.9
10525.4
13033
12018.1
12894.7
11260.8
11954.8
3945.01
3955.37
3969.32
3985.37
4002.49
4020.01
4037.54
4054.89
4071.91
4088.5
4104.43
4119.4
4133.05
4145.33
4156.62
4167.51
4178.31
4189.15
4200.38
4213.04
4227.65
4243.32
4258.89
4273.14
4285.23
4310.74
4302.39
4295.85
4317.25
4330.14
4323.72
4342.84
4336.51
4355.34
4349.12
4367.56
4361.49
4379.35
4373.52
4390.6
4385.03
4394.8
4389.19
4428.07
4420.37
4403.26
4408.54
4475.6
4464.1
4436.49
4445.65
4533.4
4516.69
4490.62
4477.94
4638.55
4611.89
4552.31
4573.65
4766.4
4731.53
4683.73
4652.66
4911
4868.39
4788.82
4827.73
5099.02
5049.76
5001.89
4955.52
5310.02
5252.54
5196.36
5141.64
5558.51
5493.4
5429.42
5366.43
5788.21
5710.57
5636.3
6385.32
6261.87
5900.03
6027.36
6143.11
6736.78
7155
6994.8
6592.2
7472.74
9117.96
9660.31
8458.55
7840.59
8263.42
8945.17
11167.4
10257.3
10905.9
11048.6
13768.5
12755.9
13669.4
11863.3
12634.8
3943.77
3956.65
3972.34
3989.36
4006.95
4024.61
4042.1
4059.27
4076
4092.17
4107.56
4121.85
4134.82
4146.6
4157.61
4168.27
4178.8
4189.53
4201.25
4214.64
4229.36
4244.52
4258.97
4271.75
4282.72
4294.32
4308.81
4300.67
4315.14
4327.67
4321.43
4339.91
4333.83
4351.84
4345.92
4363.37
4357.66
4374.31
4368.93
4384.35
4379.45
4398.4
4391.1
4388.22
4382.97
4421.57
4414.58
4403.31
4466.31
4455.58
4429.34
4437.83
4520.23
4504.59
4479.43
4467.73
4623.84
4597.49
4538.08
4558.57
4751.77
4716.77
4667.08
4636.31
4895.15
4851.89
4771.87
4810.86
5088.56
5037.41
4988.08
4940.58
5304.51
5243.88
5184.88
5127.7
5564.02
5493.7
5425.07
5358.11
5807.61
5716.93
5635.91
6446.63
6311
5922.59
6079.78
6188.58
6828.46
7296.43
7114.71
6669.94
7644.38
9485.98
10084
8744.78
8048.29
8516.71
9282.89
11747.2
10737.2
11443.9
11608.1
14418.2
13493.1
14360.2
12508.7
13338.2
3943.5
3958.9
3975.93
3993.6
4011.43
4029.15
4046.56
4063.49
4079.89
4095.6
4110.4
4124.01
4136.37
4147.71
4158.39
4168.68
4178.91
4189.87
4202.24
4216.01
4230.57
4244.98
4258.22
4269.87
4284.12
4292.85
4291.39
4278.02
4306.91
4299.03
4313.08
4325.24
4319.2
4337.06
4331.19
4348.47
4342.83
4359.34
4353.98
4369.51
4364.53
4378.7
4374.25
4394.41
4387.53
4384.81
4377.64
4415.31
4408.93
4398.65
4456.98
4447.04
4422.41
4430.2
4506.75
4492.3
4468.35
4457.61
4607.86
4581.87
4523.46
4542.98
4734.84
4699.94
4648.98
4618.76
4875.59
4832.15
4752.43
4791.14
5072.59
5019.81
4969.51
4921.42
5292.78
5229.17
5167.62
5108.35
5560.64
5487.62
5416.08
5346.45
5829.02
5745.47
5623.92
6526.25
6325.58
5924.67
6059.53
6207.79
6938.04
7446.24
7253.41
6702.94
7819.06
9879.58
10538.2
9056.76
8267.62
8786.67
9641.8
12367.1
11251.3
12021
12206.6
14979.6
14207.4
14988.6
13187.9
14053.9
3944.89
3962.07
3979.93
3997.92
4015.83
4033.52
4050.77
4067.47
4083.51
4098.74
4112.92
4125.87
4137.65
4148.51
4158.64
4168.46
4178.74
4190.26
4203.17
4217.08
4231.24
4244.74
4256.95
4268.16
4290.12
4282.97
4297.49
4276.94
4305.13
4311.15
4322.92
4317.09
4334.3
4328.66
4345.22
4339.83
4355.51
4350.46
4365
4360.36
4373.59
4369.41
4390.65
4384.52
4382.28
4379.25
4374.98
4373.1
4409.42
4403.68
4394.44
4447.75
4438.64
4415.85
4422.89
4493.34
4480.12
4457.51
4447.75
4590.93
4565.55
4508.81
4527.22
4715.86
4681.39
4629.55
4600.22
4852.51
4809.25
4730.59
4768.67
5051.65
4997.7
4946.84
4898.5
5278.7
5212.94
5149.43
5088.39
5550.65
5478.88
5407.55
5337.57
5836.67
5726.16
5619.24
6503.3
6320.78
5920.19
6054.71
6203.3
6916.72
7612.11
7237.49
6698
7904.4
10302.7
11028.2
9387.09
8256.78
8786.14
10023.8
13027.6
11805.7
12641.2
12848.7
15432.3
14907.9
15568.2
13896.4
14789.7
3947.71
3965.94
3984.14
4002.16
4020
4037.54
4054.58
4071.01
4086.67
4101.38
4114.92
4127.19
4138.29
4148.38
4157.92
4167.7
4178.53
4190.7
4203.98
4217.81
4231.38
4244.02
4255.76
4266.73
4296.06
4288.88
4281.95
4303.47
4276.07
4309.34
4320.77
4315.12
4331.72
4326.31
4342.12
4336.99
4351.85
4347.08
4360.76
4356.41
4368.86
4364.91
4387.32
4381.67
4376.93
4372.56
4370.55
4404.04
4398.92
4390.71
4438.81
4430.54
4409.77
4416.07
4480.2
4468.21
4447.15
4438.4
4573.24
4548.76
4494.33
4511.45
4694.82
4661.13
4608.82
4580.78
4826.16
4783.08
4706.32
4743.34
5029.92
4973.46
4921.22
4872.55
5269.25
5202.93
5138.98
5077.57
5545.8
5473.97
5402.58
5332.62
5832.2
5721.4
5614.98
6498.5
6316.24
5915.89
6050.25
6198.94
6911.94
7596.73
7232.46
6693.27
7899.64
10775.9
11555.5
9721.38
9254.72
8251.1
8780.29
10444.6
13724
12401.6
13303.6
13529
15999.8
15625.6
16393.7
14639.6
15568.9
3951.58
3970.18
3988.37
4006.23
4023.79
4041.01
4057.73
4073.79
4088.97
4103.05
4115.82
4127.23
4137.44
4146.95
4156.52
4166.91
4178.5
4191.22
4204.68
4218.2
4231.15
4243.29
4254.7
4265.51
4275.2
4301.91
4294.71
4287.76
4281.03
4307.65
4318.77
4313.28
4329.33
4324.13
4339.25
4334.38
4348.42
4343.93
4356.76
4352.69
4364.43
4360.66
4384.33
4379.15
4374.57
4370.27
4368.43
4399.23
4394.69
4387.42
4430.37
4422.94
4404.31
4409.92
4467.5
4456.75
4437.49
4429.78
4555
4531.73
4480.24
4495.94
4671.69
4639.15
4586.85
4560.52
4799.15
4754.96
4679.5
4715.3
5018.56
4942.74
4895.53
4846.91
5264.33
5198.03
5134.12