/*--------------------------------*- C++ -*----------------------------------*\
  =========                 |
  \\      /  F ield         | OpenFOAM: The Open Source CFD Toolbox
   \\    /   O peration     | Website:  https://openfoam.org
    \\  /    A nd           | Version:  dev
     \\/     M anipulation  |
\*---------------------------------------------------------------------------*/
FoamFile
{
    version     2.0;
    format      ascii;
    class       volScalarField;
    location    "2500";
    object      H2O;
}
// * * * * * * * * * * * * * * * * * * * * * * * * * * * * * * * * * * * * * //

dimensions      [0 0 0 0 0 0 0];

internalField   nonuniform List<scalar> 
9842
(
2.6286e-33
9.61467e-33
3.85992e-33
2.05896e-32
2.38249e-32
3.53359e-33
3.40885e-32
5.37829e-32
2.75678e-32
1.72878e-33
8.69922e-32
1.525e-31
8.52231e-32
2.33625e-32
1.67763e-33
1.00019e-31
3.45018e-31
2.16243e-31
7.33671e-32
1.3175e-32
4.78278e-34
4.74765e-31
8.60937e-31
5.54094e-31
2.62213e-31
6.3011e-32
5.88641e-33
1.10966e-34
1.2464e-30
2.10428e-30
1.52601e-30
7.1319e-31
1.74446e-31
4.73982e-32
2.17822e-33
1.11696e-34
2.33414e-30
5.11489e-30
3.55634e-30
1.89396e-30
6.37823e-31
1.53008e-31
2.3864e-32
1.5011e-33
3.22635e-35
1.98326e-30
1.1805e-29
1.0235e-29
5.2416e-30
1.89062e-30
4.91855e-31
9.70789e-32
1.18463e-32
3.98718e-34
6.62567e-36
8.46182e-30
2.70004e-29
2.74972e-29
1.53513e-29
4.6812e-30
1.5872e-30
3.77729e-31
5.25907e-32
2.3307e-33
6.39301e-35
2.11262e-36
1.0031e-29
4.07607e-29
5.91808e-29
4.48195e-29
1.96719e-29
3.76334e-30
1.33739e-30
2.22326e-31
1.88546e-32
6.06473e-34
2.77413e-35
6.71957e-37
6.1684e-29
1.29986e-28
2.21157e-28
1.46154e-28
6.27317e-29
1.61999e-29
3.87789e-30
8.73936e-31
6.72794e-32
7.41859e-33
3.17501e-34
6.25861e-36
2.19107e-37
2.35089e-28
6.575e-28
4.97154e-28
4.03741e-28
1.8963e-28
6.09985e-29
1.41472e-29
2.80208e-30
4.26479e-31
2.79505e-32
2.34187e-33
6.9158e-35
3.35897e-36
7.27976e-38
6.9789e-28
1.18635e-27
2.16636e-27
1.47667e-27
6.69403e-28
1.84924e-28
4.67921e-29
1.14982e-29
1.64359e-30
1.69199e-31
1.34061e-32
7.61365e-34
3.70839e-35
9.55159e-37
1.35789e-37
9.79597e-28
2.70538e-27
5.60147e-27
3.2795e-27
2.09384e-27
7.44927e-28
1.93177e-28
4.26653e-29
5.75947e-30
1.00033e-30
8.27508e-32
3.38148e-33
2.74855e-34
9.1613e-36
8.9848e-37
2.99256e-37
2.82533e-27
9.79211e-27
1.293e-26
1.01396e-26
6.46326e-27
2.06096e-27
6.8879e-28
1.71333e-28
3.31663e-29
3.34359e-30
4.45952e-31
2.5397e-32
1.83138e-33
1.24252e-34
6.95163e-36
5.05347e-36
1.73023e-36
5.47745e-27
1.96916e-26
3.31657e-26
2.77268e-26
1.50508e-26
7.43668e-27
2.19233e-27
6.09302e-28
1.04261e-28
1.47382e-29
1.37079e-30
1.52587e-31
1.16718e-32
7.53579e-34
6.35301e-35
4.45794e-35
5.99198e-35
2.6833e-35
3.65386e-27
2.56132e-26
6.81504e-26
8.0852e-26
4.95897e-26
1.67214e-26
7.38657e-27
1.96297e-27
4.39562e-28
6.19382e-29
6.41536e-30
9.59202e-31
6.63748e-32
4.95093e-33
4.08927e-34
2.7366e-34
4.17186e-34
7.28822e-34
5.58907e-34
2.45491e-26
6.22702e-26
1.93332e-25
2.05726e-25
1.4126e-25
5.47997e-26
2.00173e-26
6.58602e-27
1.14772e-27
2.93564e-28
3.87752e-29
4.81149e-30
4.67995e-31
3.03486e-32
2.25957e-33
1.37412e-33
3.56096e-33
8.1094e-33
8.4384e-33
5.30022e-33
4.74812e-26
1.06956e-25
4.71385e-25
4.7488e-25
4.15614e-25
2.10581e-25
5.80856e-26
1.90664e-26
4.45253e-27
8.76593e-28
1.49536e-28
2.56121e-29
1.92974e-30
1.55046e-31
9.64517e-33
5.04513e-33
1.5891e-32
5.15011e-32
9.20609e-32
1.21698e-31
6.32519e-32
1.1091e-25
2.01927e-25
7.63534e-25
1.21145e-24
9.96346e-25
6.08608e-25
1.91237e-25
5.60821e-26
1.29913e-26
3.18572e-27
6.0225e-28
1.02325e-28
1.15676e-29
6.61588e-31
6.50207e-32
4.62311e-32
8.87486e-32
1.75004e-31
7.3822e-31
7.8078e-31
1.03377e-30
4.51899e-31
1.75456e-25
6.0489e-25
1.2325e-24
1.86506e-24
1.98301e-24
1.73788e-24
8.76337e-25
1.65672e-25
5.24776e-26
1.18337e-26
2.16442e-27
4.19647e-28
5.01237e-29
5.22059e-30
3.71682e-31
2.2497e-31
5.2141e-31
1.2989e-30
2.75867e-30
1.00004e-29
1.36232e-29
1.37918e-29
1.01943e-29
2.06237e-25
1.04074e-24
1.43315e-24
3.44413e-24
4.0194e-24
4.29838e-24
2.3334e-24
9.25974e-25
1.37344e-25
4.49741e-26
7.7363e-27
1.52629e-27
2.29463e-28
2.53818e-29
2.43422e-30
1.04488e-30
3.1563e-30
7.04426e-30
2.07995e-29
4.33376e-29
1.23655e-28
9.0731e-29
1.27972e-28
6.75432e-29
3.55586e-25
1.1153e-24
4.06663e-24
5.26123e-24
9.5257e-24
6.58162e-24
6.13169e-24
2.73825e-24
6.18557e-25
1.33037e-25
2.36385e-26
5.22899e-27
7.62354e-28
1.1338e-28
1.10611e-29
5.57959e-30
1.23563e-29
4.77553e-29
1.14088e-28
1.76483e-28
5.75708e-28
1.31224e-27
1.3854e-27
7.15531e-28
4.32019e-28
2.8575e-25
1.65667e-24
5.9203e-24
7.84962e-24
1.7297e-23
1.74086e-23
1.31275e-23
6.8034e-24
2.48387e-24
4.72503e-25
9.01114e-26
1.54608e-26
2.60266e-27
3.92876e-28
5.18753e-29
1.5427e-29
7.57033e-29
1.95174e-28
5.94029e-28
1.19102e-27
2.57075e-27
6.20492e-27
1.23333e-26
1.16835e-26
1.05937e-26
4.71339e-27
1.62924e-24
5.91374e-24
1.00975e-23
1.26096e-23
2.31239e-23
2.85371e-23
2.42005e-23
1.49366e-23
6.46687e-24
2.19128e-24
4.08266e-25
5.96741e-26
8.93146e-27
1.65796e-27
1.75914e-28
9.56852e-29
2.07947e-28
8.62376e-28
2.2621e-27
8.08706e-27
2.21826e-26
4.52886e-26
6.08301e-26
7.08664e-26
5.43157e-26
8.2785e-26
2.925e-26
2.30097e-24
1.10752e-23
1.54194e-23
2.72228e-23
4.68736e-23
7.32107e-23
4.79352e-23
4.03422e-23
1.42669e-23
5.51554e-24
1.47642e-24
3.06342e-25
3.89491e-26
6.68449e-27
8.92955e-28
3.38535e-28
1.04092e-27
3.35247e-27
1.19261e-26
2.67942e-26
8.73641e-26
2.55625e-25
5.26242e-25
5.11585e-25
5.61808e-25
6.10065e-25
5.57972e-25
3.19305e-25
5.2349e-24
2.24479e-23
4.64565e-23
8.75234e-23
1.10742e-22
1.22768e-22
9.92695e-23
9.26759e-23
4.64741e-23
1.40055e-23
4.43394e-24
1.0343e-24
1.83784e-25
2.38438e-26
3.40425e-27
1.05412e-27
3.17384e-27
1.22918e-26
3.06351e-26
1.39003e-25
4.00289e-25
8.99497e-25
2.48143e-24
4.5008e-24
4.848e-24
6.24266e-24
4.10948e-24
3.4451e-24
2.28019e-24
1.12507e-23
2.65849e-23
8.49672e-23
1.87571e-22
1.91446e-22
2.01269e-22
2.23215e-22
1.63503e-22
9.83027e-23
4.36465e-23
1.34918e-23
3.29966e-24
6.63591e-25
1.01221e-25
1.56228e-26
5.43759e-27
1.29362e-26
5.84927e-26
1.9152e-25
3.96399e-25
1.5936e-24
3.7386e-24
6.79612e-24
2.2172e-23
2.9426e-23
3.34338e-23
4.24543e-23
2.01944e-23
3.27738e-23
2.82465e-23
1.94185e-23
6.55543e-23
1.3954e-22
2.87513e-22
5.00127e-22
5.3865e-22
5.36671e-22
3.7488e-22
2.48404e-22
1.04769e-22
3.79799e-23
9.50703e-24
1.93197e-24
4.4266e-25
5.64181e-26
2.46421e-26
4.42104e-26
1.95559e-25
5.68781e-25
1.98906e-24
6.46248e-24
1.29896e-23
2.51277e-23
8.69475e-23
1.65621e-22
1.17458e-22
2.59352e-22
2.21453e-22
2.85848e-22
3.25041e-22
2.19295e-22
3.00804e-23
1.20749e-22
2.66196e-22
5.55494e-22
9.52924e-22
8.73591e-22
1.01439e-21
8.26343e-22
4.35462e-22
2.5447e-22
9.35957e-23
2.8348e-23
5.13296e-24
1.08535e-24
2.70474e-25
7.21443e-26
2.22192e-25
4.84604e-25
2.36539e-24
6.37335e-24
1.75305e-23
5.91879e-23
1.36649e-22
2.17696e-22
7.19439e-22
9.2649e-22
1.05886e-21
2.77584e-21
2.26664e-21
3.78098e-21
3.99032e-21
7.73481e-22
3.50178e-23
1.87862e-22
4.25326e-22
8.53094e-22
1.6976e-21
2.10964e-21
1.98799e-21
1.71754e-21
9.8993e-22
4.82418e-22
2.14732e-22
7.35415e-23
2.00328e-23
3.94696e-24
8.69827e-25
3.92647e-25
8.6525e-25
2.83114e-24
5.88611e-24
2.45422e-23
7.96028e-23
2.2667e-22
6.37517e-22
1.22323e-21
1.72551e-21
4.04404e-21
4.82884e-21
9.76956e-21
3.16395e-20
3.18435e-20
3.99286e-20
4.24394e-20
7.79258e-21
1.90594e-22
4.40136e-22
4.83783e-22
1.13751e-21
2.67066e-21
3.69486e-21
3.52428e-21
3.53577e-21
2.50894e-21
9.79746e-22
4.60741e-22
1.82517e-22
5.40034e-23
1.22288e-23
2.89425e-24
1.48757e-24
2.57651e-24
1.24433e-23
3.51343e-23
7.74166e-23
2.34905e-22
9.40954e-22
2.25042e-21
3.33139e-21
1.00578e-20
1.74514e-20
3.08702e-20
5.17182e-20
1.96598e-19
4.87726e-19
4.89812e-19
3.36451e-19
5.03125e-19
1.2455e-20
1.32801e-19
5.66351e-22
1.23808e-21
1.8023e-21
2.43612e-21
3.59599e-21
6.18681e-21
6.41318e-21
6.16217e-21
5.03477e-21
2.69223e-21
1.07257e-21
3.90562e-22
1.3063e-22
3.50567e-23
9.22502e-24
5.3153e-24
1.00192e-23
2.87227e-23
1.19608e-22
2.72023e-22
6.53562e-22
1.9637e-21
7.61212e-21
1.36031e-20
3.33665e-20
3.92936e-20
1.24122e-19
4.55785e-19
9.49698e-19
2.88138e-18
8.00231e-18
5.80494e-18
5.39993e-18
1.18647e-18
6.43759e-18
6.12262e-20
5.08373e-19
2.14727e-21
4.15459e-21
5.05182e-21
5.74028e-21
5.62287e-21
7.42423e-21
1.03153e-20
9.20696e-21
9.54605e-21
6.29914e-21
2.21421e-21
9.24727e-22
3.36056e-22
1.05116e-22
3.77575e-23
2.00019e-23
3.63227e-23
8.73502e-23
2.9307e-22
8.54842e-22
3.04159e-21
9.10961e-21
2.02789e-20
4.65388e-20
9.16099e-20
1.9499e-19
4.38913e-19
1.57146e-18
8.5841e-18
2.67891e-17
6.50327e-17
7.73604e-17
1.94083e-17
6.35329e-17
2.1238e-17
9.34363e-17
1.0098e-16
5.88665e-18
3.04007e-17
2.62226e-19
2.33353e-18
1.06421e-20
1.08204e-20
1.59729e-20
1.48898e-20
1.49224e-20
1.52086e-20
1.8242e-20
1.85041e-20
1.90226e-20
1.20794e-20
6.62227e-21
1.90158e-21
7.83422e-22
3.15019e-22
1.54046e-22
1.24291e-22
1.3936e-22
3.32361e-22
1.45384e-21
2.95274e-21
7.19502e-21
1.78591e-20
4.62999e-20
1.4288e-19
2.52178e-19
5.22037e-19
1.46429e-18
7.15922e-18
5.14421e-17
2.02558e-16
6.91228e-16
9.86257e-16
2.39238e-16
1.29312e-15
4.89884e-16
1.41548e-16
4.92672e-16
5.88542e-16
2.5604e-17
1.42574e-16
8.25354e-19
9.44316e-18
3.03752e-20
1.07248e-19
4.80118e-20
4.68997e-20
3.12927e-20
3.37101e-20
3.04771e-20
2.69822e-20
3.37315e-20
2.51038e-20
1.39214e-20
6.12227e-21
2.09359e-21
1.03685e-21
7.2655e-22
8.85965e-22
5.47758e-22
9.78163e-22
3.92967e-21
1.19821e-20
2.74484e-20
5.14657e-20
1.50591e-19
3.19337e-19
8.39416e-19
1.59209e-18
7.12674e-18
3.63998e-17
3.0184e-16
2.09981e-15
6.12946e-15
1.17439e-14
4.77714e-15
2.06407e-14
1.57347e-15
7.91303e-15
2.75873e-15
6.44817e-16
3.24457e-15
3.53695e-15
6.89106e-17
5.55416e-16
4.29161e-18
5.29002e-17
1.91629e-19
4.8393e-19
3.9203e-19
2.1373e-19
8.05353e-20
7.12061e-20
6.47708e-20
4.24184e-20
5.34227e-20
4.48854e-20
2.82912e-20
1.36718e-20
6.51059e-21
3.83165e-21
3.22144e-21
4.69291e-21
4.15752e-21
4.62314e-21
1.24888e-20
3.11999e-20
6.52464e-20
1.32263e-19
4.14295e-19
1.05091e-18
1.82813e-18
4.87281e-18
1.88496e-17
2.847e-16
1.81858e-15
1.03853e-14
6.08869e-14
1.41263e-13
8.95364e-14
3.35319e-13
4.06812e-14
1.7949e-13
1.3308e-14
7.15731e-14
1.99286e-14
3.6965e-15
2.46835e-14
2.61574e-14
3.0669e-16
2.75552e-15
1.1825e-17
1.69372e-16
1.86823e-18
1.82412e-18
1.88097e-18
8.46776e-19
3.74844e-19
2.08598e-19
1.33461e-19
9.19881e-20
7.54994e-20
6.87648e-20
5.02007e-20
2.89188e-20
1.99641e-20
1.69605e-20
1.61992e-20
2.685e-20
2.67794e-20
3.05615e-20
4.57994e-20
9.09447e-20
1.86521e-19
4.36671e-19
1.25428e-18
2.21016e-18
3.70619e-18
1.18568e-17
5.97209e-17
6.19964e-16
1.30361e-14
7.37804e-14
4.04263e-13
1.46703e-12
1.22367e-12
4.15586e-12
7.76214e-13
2.99147e-12
3.60078e-13
1.64556e-12
1.15879e-13
6.29714e-13
1.62509e-13
2.34007e-14
1.86507e-13
1.82473e-13
1.76516e-15
1.68977e-14
4.36675e-17
1.15696e-15
1.14522e-17
7.92295e-18
9.21321e-18
3.97956e-18
2.22996e-18
6.22826e-19
3.36577e-19
1.90785e-19
1.39434e-19
1.02489e-19
9.03043e-20
7.88888e-20
6.8523e-20
7.82199e-20
8.25826e-20
1.34977e-19
1.88612e-19
1.53122e-19
1.29052e-19
5.89747e-19
5.96874e-19
2.00044e-18
3.37482e-18
6.10477e-18
1.26329e-17
2.13677e-17
2.08383e-16
2.38534e-15
2.77508e-14
6.61432e-13
2.97725e-12
1.21291e-11
1.34325e-11
4.39501e-11
1.10318e-11
3.77541e-11
7.03179e-12
2.754e-11
3.15433e-12
1.44941e-11
9.64687e-13
5.20343e-12
1.23422e-12
1.46558e-13
1.30254e-12
1.17332e-12
1.03386e-14
9.94227e-14
2.04809e-16
4.91465e-15
5.09834e-17
6.65526e-17
3.50699e-17
2.8135e-17
1.28958e-17
3.44452e-18
1.40922e-18
4.55528e-19
3.16915e-19
1.73728e-19
1.72315e-19
1.80504e-19
2.83439e-19
5.81287e-19
5.8454e-19
7.28129e-19
7.55497e-19
6.63241e-19
1.45182e-18
1.45204e-18
2.69854e-18
3.56803e-18
8.41057e-18
1.42757e-17
2.48984e-17
5.95406e-17
4.39132e-16
1.33389e-14
1.6976e-13
1.29008e-12
2.71128e-11
8.78244e-11
1.24516e-10
3.58611e-10
1.22878e-10
3.79825e-10
1.00366e-10
3.42244e-10
6.13466e-11
2.38309e-10
2.59606e-11
1.18599e-10
7.36298e-12
3.94094e-11
8.65538e-12
8.81724e-13
8.63061e-12
7.40501e-12
5.86421e-14
5.68327e-13
1.08282e-15
2.65775e-14
2.66663e-16
2.75748e-16
2.4971e-16
1.45873e-16
6.48419e-17
2.36494e-17
6.84123e-18
1.7508e-18
7.80106e-19
3.85146e-19
3.212e-19
5.07745e-19
1.60531e-18
3.6598e-18
4.75643e-18
5.07699e-18
3.841e-18
6.59036e-18
7.26096e-18
7.95429e-18
9.2599e-18
1.85335e-17
2.48299e-17
3.77964e-17
5.95445e-17
1.02586e-16
8.18992e-16
2.16061e-14
1.07932e-12
1.35116e-11
4.58021e-11
7.41e-10
8.95539e-10
2.35321e-09
1.0928e-09
2.98376e-09
1.09374e-09
3.28767e-09
8.55278e-10
2.85206e-09
4.95331e-10
1.89638e-09
1.95521e-10
8.84662e-10
5.2056e-11
2.79384e-10
5.91028e-11
5.24333e-12
5.74667e-11
4.70383e-11
3.21742e-13
3.21335e-12
5.41442e-15
1.38373e-13
9.93405e-16
1.89384e-15
1.16762e-15
6.72314e-16
3.30819e-16
1.18528e-16
2.98204e-17
8.80303e-18
2.33289e-18
9.56088e-19
7.5198e-19
1.15489e-18
5.18167e-18
1.26562e-17
2.79003e-17
2.63834e-17
3.47573e-17
2.62483e-17
3.43699e-17
3.39983e-17
3.73409e-17
5.85493e-17
7.8634e-17
1.04677e-16
1.576e-16
2.27258e-16
1.51386e-15
4.17801e-14
1.50663e-12
8.92645e-11
8.85382e-10
6.25918e-10
5.55379e-09
1.63856e-08
7.63962e-09
1.91361e-08
9.24912e-09
2.45056e-08
8.85662e-09
2.57851e-08
6.68529e-09
2.17369e-08
3.64207e-09
1.36913e-08
1.38632e-09
6.1981e-09
3.64321e-10
1.98145e-09
4.08894e-10
3.12245e-11
3.90648e-10
3.0291e-10
1.71981e-12
1.79384e-11
2.62798e-14
6.89854e-13
7.98918e-15
1.36872e-14
8.34484e-15
3.70616e-15
1.73006e-15
6.29281e-16
1.62574e-16
4.55887e-17
1.07324e-17
3.02009e-18
2.43645e-18
5.26689e-18
1.52029e-17
4.99401e-17
1.02256e-16
1.71142e-16
2.20622e-16
2.14282e-16
1.24664e-16
1.58373e-16
2.1156e-16
1.87433e-16
2.47199e-16
2.62937e-16
4.21834e-16
4.06818e-16
2.16034e-15
6.85157e-14
3.28504e-12
1.15993e-10
4.94742e-09
3.00734e-08
4.65156e-08
0
4.60368e-08
1.11245e-07
6.18413e-08
1.51321e-07
7.0433e-08
1.8174e-07
6.5229e-08
1.83507e-07
4.77008e-08
1.51658e-07
2.51248e-08
9.26509e-08
9.8453e-09
4.35495e-08
2.59663e-09
1.43512e-08
2.89617e-09
1.87227e-10
2.70988e-09
1.98555e-09
8.83432e-12
9.84386e-11
1.21857e-13
3.19402e-12
5.92188e-14
1.06258e-13
6.35714e-14
2.74261e-14
1.05859e-14
3.32695e-15
8.5228e-16
2.31739e-16
4.58614e-17
1.1924e-17
7.94145e-18
2.14899e-17
7.51063e-17
1.80359e-16
4.39293e-16
7.98254e-16
1.08268e-15
1.29076e-15
1.06362e-15
5.50868e-16
7.49595e-16
6.64355e-16
1.05599e-15
1.14705e-15
9.83134e-16
1.35417e-15
3.19275e-15
8.52479e-14
5.0129e-12
3.24856e-10
7.39527e-09
1.70246e-07
1.07922e-06
2.64481e-07
8.57296e-07
3.62214e-07
8.81912e-07
4.50029e-07
1.08749e-06
4.87002e-07
1.23368e-06
4.40553e-07
1.20536e-06
3.17977e-07
9.86685e-07
1.7375e-07
6.26754e-07
7.12221e-08
3.12867e-07
1.89563e-08
1.0624e-07
2.10068e-08
1.13317e-09
1.91094e-08
1.31824e-08
4.32786e-11
5.34214e-10
5.32055e-13
1.38577e-11
3.96179e-13
7.5555e-13
4.8587e-13
2.07785e-13
7.43664e-14
2.59955e-14
5.05069e-15
1.17189e-15
2.42482e-16
4.78041e-17
2.4443e-17
7.64443e-17
3.10916e-16
7.34834e-16
1.92229e-15
3.64289e-15
5.86988e-15
6.87e-15
9.54493e-15
4.71109e-15
4.00976e-15
4.09233e-15
4.54404e-15
4.85328e-15
4.68338e-15
4.37877e-15
6.53982e-15
8.99745e-14
5.26776e-12
4.64437e-10
2.55234e-08
2.93348e-07
4.06958e-06
9.84664e-06
2.08954e-05
2.06507e-06
4.88269e-06
2.60284e-06
6.37874e-06
3.04629e-06
7.47447e-06
3.16217e-06
8.0978e-06
2.8037e-06
7.67029e-06
2.08361e-06
6.24505e-06
1.22732e-06
4.27893e-06
5.26842e-07
2.27253e-06
1.41162e-07
7.99785e-07
1.55075e-07
6.9458e-09
1.36754e-07
8.89016e-08
2.05101e-10
2.93308e-09
2.14942e-12
5.70685e-11
2.17503e-12
4.60247e-12
3.27437e-12
1.59997e-12
4.74588e-13
1.5981e-13
3.38696e-14
6.09013e-15
1.08977e-15
2.30604e-16
7.79201e-17
2.57479e-16
8.86549e-16
3.72794e-15
1.03814e-14
2.26619e-14
3.80282e-14
5.27177e-14
6.59669e-14
5.46778e-14
3.19127e-14
3.0621e-14
3.07328e-14
3.00648e-14
2.65111e-14
2.26252e-14
2.03134e-14
9.9742e-14
4.51865e-12
4.16165e-10
4.04498e-08
1.24441e-06
6.87858e-06
3.48463e-05
5.77626e-05
6.65012e-05
0.000121771
1.50664e-05
3.43674e-05
1.82597e-05
4.41034e-05
2.03769e-05
5.01845e-05
2.03166e-05
5.24079e-05
1.76212e-05
4.81032e-05
1.34915e-05
3.87586e-05
8.47609e-06
2.74908e-05
3.87571e-06
1.55227e-05
1.05912e-06
5.89334e-06
1.15536e-06
4.36526e-08
9.92181e-07
6.18858e-07
9.60629e-10
1.6709e-08
7.32474e-12
2.26974e-10
7.7745e-12
2.17427e-11
1.85945e-11
1.03647e-11
3.29145e-12
1.0836e-12
2.02958e-13
3.49674e-14
6.47894e-15
1.00719e-15
2.9528e-16
7.49692e-16
3.66997e-15
1.60054e-14
5.41849e-14
1.33746e-13
2.51713e-13
3.84374e-13
5.37434e-13
6.59806e-13
2.86092e-13
2.50556e-13
2.33997e-13
2.1102e-13
1.74419e-13
1.33349e-13
9.73243e-14
1.47888e-13
3.73157e-12
2.74061e-10
3.61435e-08
1.94218e-06
3.2202e-05
9.29151e-05
6.32069e-05
0.000185622
0.000278776
0.000305449
0.000445802
9.87947e-05
0.000187535
0.000115501
0.000237274
0.000123323
0.000263632
0.000119272
0.000270434
0.000103885
0.00024864
8.06213e-05
0.000203805
5.21046e-05
0.000151566
2.56767e-05
9.02121e-05
7.68339e-06
3.77567e-05
8.36484e-06
2.86668e-07
7.14116e-06
4.48443e-06
4.88945e-09
1.02968e-07
2.18426e-11
1.05554e-09
1.27069e-11
6.07671e-11
7.9131e-11
5.48947e-11
1.99354e-11
6.30281e-12
1.15471e-12
2.32192e-13
3.23737e-14
5.51352e-15
9.73501e-16
2.45538e-15
1.45353e-14
7.2482e-14
2.68759e-13
7.31395e-13
1.52305e-12
2.58431e-12
3.73628e-12
5.82339e-12
2.71228e-12
2.0679e-12
1.80461e-12
1.51876e-12
1.1729e-12
8.33773e-13
5.50083e-13
4.12156e-13
3.45156e-12
1.86218e-10
1.94331e-08
1.8049e-06
4.33528e-05
0.000397263
0.000348409
0.000522301
0.000597686
0.000752796
0.000794707
0.00100453
0.000400087
0.000590134
0.000452232
0.000683664
0.000482235
0.000737133
0.000487121
0.000771571
0.000454855
0.000772741
0.0003754
0.000729122
0.000257568
0.000616571
0.000140121
0.000400972
4.77533e-05
0.000194345
5.1379e-05
2.02474e-06
4.44197e-05
2.89146e-05
2.9705e-08
7.21134e-07
1.11241e-10
7.08174e-09
6.86462e-11
1.95993e-10
2.11944e-10
9.86201e-11
3.44432e-11
6.52771e-12
1.11305e-12
2.07505e-13
2.34907e-14
4.22692e-15
7.92236e-15
5.61389e-14
3.10509e-13
1.26649e-12
3.74743e-12
8.45391e-12
1.56111e-11
2.48729e-11
3.47434e-11
3.06652e-11
1.69286e-11
1.38343e-11
1.08893e-11
7.88379e-12
5.25409e-12
3.2222e-12
1.90284e-12
3.84331e-12
1.42368e-10
1.04433e-08
1.21126e-06
4.18812e-05
0.00042076
0.00114404
0.00124636
0.000897686
0.00103886
0.00121078
0.00140171
0.00144439
0.00169264
0.000932595
0.00119143
0.00101759
0.00131761
0.00107839
0.001405
0.00112426
0.00148489
0.00112883
0.00154079
0.0010736
0.00155218
0.000906798
0.00147051
0.000571075
0.00121501
0.000235568
0.0007316
0.000248369
1.38039e-05
0.000219068
0.000152675
2.05171e-07
4.97805e-06
6.61999e-10
4.21861e-08
1.89761e-10
4.87602e-10
3.72464e-10
1.63641e-10
3.45419e-11
6.03001e-12
8.21515e-13
1.30545e-13
1.85045e-14
2.5313e-14
1.9843e-13
1.24845e-12
5.64496e-12
1.82354e-11
4.40852e-11
8.62036e-11
1.46775e-10
2.31053e-10
3.11249e-10
1.3518e-10
1.04279e-10
7.68248e-11
5.22107e-11
3.26734e-11
1.88606e-11
1.0234e-11
7.44616e-12
1.14651e-10
6.80633e-09
5.93387e-07
3.47409e-05
0.000416254
0.00129562
0.00124775
0.00184643
0.00193402
0.00157874
0.00172953
0.00192424
0.00212871
0.00218535
0.00244911
0.00161361
0.00191122
0.00173852
0.00207256
0.00184308
0.00220339
0.00194921
0.00233614
0.0020186
0.00245734
0.00201989
0.00253067
0.0018841
0.00250048
0.00151113
0.00226746
0.000840015
0.00175629
0.000858353
6.88384e-05
0.000769975
0.000652617
0.000260678
9.20354e-07
2.21667e-05
4.72532e-09
1.73967e-07
4.80742e-10
9.94529e-10
6.53349e-10
1.56376e-10
2.82027e-11
4.23715e-12
6.34875e-13
8.80971e-14
7.39229e-14
6.43651e-13
4.66771e-12
2.37332e-11
8.40845e-11
2.18422e-10
4.4925e-10
7.74998e-10
1.29784e-09
2.30763e-09
1.06415e-09
7.54091e-10
5.26459e-10
3.3666e-10
1.98651e-10
1.088e-10
5.59399e-11
2.81421e-11
1.03226e-10
4.84395e-09
3.24538e-07
2.28496e-05
0.000387519
0.00164345
0.00196956
0.00208118
0.00252566
0.00254116
0.00231404
0.00244083
0.00266901
0.00283015
0.00294128
0.00311789
0.0023878
0.0026853
0.00254978
0.00286438
0.00269677
0.00302765
0.00285626
0.00319764
0.00298017
0.00336273
0.00303135
0.0034766
0.00294234
0.00348917
0.00258728
0.00329984
0.00189771
0.00277214
0.00234036
0.00135969
0.00191174
0.00044703
0.000123232
0.00035408
0.00117726
0.00178939
0.00183588
0.00102687
9.39029e-07
3.85522e-06
0.000210536
0.00011486
2.52684e-05
8.83277e-08
1.50198e-06
4.61496e-07
1.18181e-06
1.22334e-09
2.04684e-09
6.21783e-10
1.15982e-10
1.74246e-11
2.921e-12
3.60064e-13
2.03062e-13
1.89557e-12
1.59084e-11
9.19805e-11
3.63753e-10
1.02982e-09
2.24859e-09
3.97412e-09
6.12828e-09
1.06958e-08
8.43427e-09
5.10458e-09
3.43583e-09
2.09295e-09
1.17033e-09
6.11323e-10
3.03619e-10
1.37306e-10
1.30325e-10
3.37043e-09
2.0732e-07
1.14538e-05
0.000311975
0.00156106
0.00245787
0.00236486
0.0025273
0.00250342
0.00284208
0.00277375
0.002896
0.00288345
0.00318337
0.00316057
0.00343851
0.00342219
0.00315056
0.00334703
0.00331542
0.00353499
0.00348448
0.00371121
0.00367297
0.00390564
0.00383239
0.00410284
0.00392193
0.00425442
0.00352523
0.00377993
0.00399169
0.0042056
0.00312766
0.00349437
0.0038987
0.00408795
0.00378995
0.00279729
0.00238538
0.00288079
0.00321925
0.00238274
0.000855309
0.00063621
0.00164273
0.00223899
0.0023379
0.00147348
8.00719e-06
0.000424707
0.000239105
4.92237e-05
6.69561e-08
2.67997e-06
1.52268e-06
3.76754e-06
4.36348e-06
3.18108e-09
1.99663e-09
4.59507e-10
6.39308e-11
8.61154e-12
1.33166e-12
5.31015e-13
4.98837e-12
4.91663e-11
3.26484e-10
1.45538e-09
4.54719e-09
1.07051e-08
1.97559e-08
2.93826e-08
4.13887e-08
5.46629e-08
3.12679e-08
2.08389e-08
1.23582e-08
6.6297e-09
3.30088e-09
1.63851e-09
6.85528e-10
3.43417e-10
2.44858e-09
1.27002e-07
6.86057e-06
0.000207695
0.00137489
0.00240092
0.0025675
0.00253468
0.00270035
0.00263961
0.00284753
0.00270633
0.00309469
0.00298028
0.00335361
0.00321102
0.00361836
0.00348955
0.0036656
0.0036722
0.00385979
0.00391569
0.00406445
0.00415261
0.00428904
0.00439815
0.00449587
0.00465622
0.00437392
0.0045356
0.00466006
0.00477429
0.00415611
0.00437211
0.00455946
0.00358507
0.00391397
0.00432718
0.00447194
0.00420692
0.00329012
0.00287233
0.00331896
0.00366834
0.00285024
0.00125842
0.00100751
0.00209302
0.0027848
0.00267219
0.00190368
1.98635e-05
0.000728743
0.000443247
0.00010955
8.31433e-08
3.46147e-06
9.42119e-06
1.30528e-05
1.88572e-05
4.8242e-09
1.57145e-09
2.41322e-10
2.78543e-11
3.84271e-12
1.21862e-12
1.17037e-11
1.3619e-10
1.04778e-09
5.28008e-09
1.83758e-08
4.72826e-08
9.28802e-08
1.41184e-07
1.74576e-07
1.99163e-07
1.69737e-07
1.15259e-07
6.7744e-08
3.60807e-08
1.69232e-08
8.41356e-09
3.30591e-09
1.45004e-09
2.35412e-09
7.67807e-08
4.16919e-06
0.000124637
0.00110307
0.00229207
0.00231715
0.00232638
0.0023875
0.00234948
0.00257393
0.00246836
0.00248508
0.00225352
0.00300221
0.00274668
0.00326184
0.00294284
0.00359284
0.00329758
0.00388773
0.00378754
0.00415456
0.00410147
0.00443388
0.00441732
0.00474145
0.00475329
0.00485826
0.00492861
0.00497638
0.00500898
0.00471726
0.00485027
0.00495675
0.00504212
0.00454463
0.00473538
0.00489802
0.00401064
0.00432081
0.00470372
0.00484795
0.00460039
0.00372011
0.00331572
0.00374009
0.00408473
0.00327895
0.00166699
0.00138748
0.00251615
0.00320002
0.00307723
0.00231337
5.49631e-05
0.00107701
0.000760617
0.000239057
8.57181e-08
2.3115e-05
4.55365e-06
4.58231e-05
5.80853e-05
4.6278e-09
9.20808e-10
1.04434e-10
1.36264e-11
2.43251e-12
2.35027e-11
3.34461e-10
2.99459e-09
1.71871e-08
6.66556e-08
1.88697e-07
4.00091e-07
6.39652e-07
7.86504e-07
8.05332e-07
7.7543e-07
5.84425e-07
3.35314e-07
1.8425e-07
8.20231e-08
4.00393e-08
1.5312e-08
6.72009e-09
3.68795e-09
4.91592e-08
2.1555e-06
6.89586e-05
0.000801512
0.00212887
0.00219559
0.00189583
0.00188988
0.00188871
0.00187939
0.00207351
0.00195322
0.00181857
0.00155432
0.00256027
0.00216669
0.00290569
0.00243137
0.00339266
0.00297963
0.00395776
0.00371828
0.00434518
0.0041797
0.00472604
0.00464391
0.00502568
0.00502674
0.00501834
0.00499192
0.00510396
0.00514649
0.00517153
0.00518252
0.00503088
0.00513383
0.00520549
0.00524506
0.00490352
0.0050692
0.00519783
0.00441611
0.00471559
0.00505808
0.00519988
0.00497972
0.00413002
0.0037289
0.00414544
0.00448878
0.00368192
0.00206639
0.00178864
0.00291155
0.0035922
0.0034604
0.00270617
0.000153675
0.00148666
0.00118872
0.000516756
5.12936e-07
3.94183e-05
1.14435e-05
0.00014371
0.00014112
3.63671e-09
4.36636e-10
4.19111e-11
6.80936e-12
3.58801e-11
7.28196e-10
7.52072e-09
4.94875e-08
2.14468e-07
6.66666e-07
1.53089e-06
2.61594e-06
3.36135e-06
3.39523e-06
2.92668e-06
2.28655e-06
1.56775e-06
8.28479e-07
3.79502e-07
1.76151e-07
6.90466e-08
2.95157e-08
1.12274e-08
3.73612e-08
1.22538e-06
3.62633e-05
0.000538556
0.00189726
0.00227236
0.00157715
0.00174879
0.00137486
0.00147434
0.00128941
0.00131176
0.00138481
0.00129994
0.0010602
0.000834971
0.0019123
0.00143106
0.00246613
0.00186115
0.00323822
0.00274478
0.00394006
0.00363099
0.00447791
0.00425154
0.00499559
0.00485041
0.00518129
0.00517062
0.00515084
0.0051204
0.00526438
0.00527056
0.00526788
0.00525879
0.00527771
0.00531315
0.00532048
0.00531613
0.00522605
0.00533331
0.00537401
0.00481355
0.00509703
0.00536192
0.00547094
0.00532606
0.00453352
0.00412929
0.00454998
0.00488922
0.00407466
0.00247453
0.00221903
0.00329541
0.00397704
0.00384784
0.00310613
0.00039942
0.0019453
0.00168433
0.000959616
2.34623e-05
8.27821e-05
6.77553e-05
0.000382543
0.000315696
2.08609e-09
1.74421e-10
2.27122e-11
4.90799e-11
1.173e-09
1.68162e-08
1.24505e-07
6.04811e-07
2.06251e-06
5.15358e-06
9.53382e-06
1.31006e-05
1.37371e-05
1.16718e-05
8.54717e-06
5.6124e-06
3.31754e-06
1.65163e-06
7.1936e-07
3.03911e-07
1.22797e-07
4.4438e-08
3.92873e-08
7.64481e-07
1.85192e-05
0.000336419
0.00157091
0.00227606
0.0017721
0.00125383
0.00137226
0.000962399
0.00109975
0.000760033
0.000842993
0.00073679
0.000726907
0.000428683
0.000320548
0.0012285
0.000716245
0.00211273
0.00137154
0.00317586
0.00261448
0.00396195
0.00360964
0.00464173
0.00436544
0.00509434
0.0050174
0.00482039
0.00493036
0.00524603
0.00522484
0.00519496
0.00515426
0.00530415
0.00528685
0.00526737
0.00524657
0.00537354
0.00535052
0.00530915
0.00525767
0.00543384
0.00543753
0.00539704
0.00519748
0.00543682
0.00550881
0.00557315
0.00556478
0.00493934
0.00453319
0.00496171
0.00527773
0.00447662
0.00289364
0.00266085
0.0036922
0.00438251
0.00425605
0.00351062
0.000850766
0.00241941
0.00219746
0.00148815
0.000343993
0.000228785
0.000360911
0.000814707
0.000696036
9.80053e-10
8.42323e-11
5.93056e-11
1.63315e-09
2.99001e-08
2.76912e-07
1.47828e-06
5.54741e-06
1.51405e-05
3.0724e-05
4.61395e-05
5.20051e-05
4.62845e-05
3.35614e-05
2.10404e-05
1.1908e-05
6.19194e-06
2.81907e-06
1.25896e-06
4.80706e-07
1.7318e-07
7.05831e-08
4.821e-07
1.02282e-05
0.000195323
0.00116678
0.00223287
0.00203785
0.00133546
0.00152168
0.00101353
0.00117152
0.000701488
0.000853011
0.000439436
0.000561943
0.000310684
0.000347733
0.000156463
0.000114244
0.000695363
0.000314651
0.00188069
0.0010509
0.00314381
0.0024997
0.00403955
0.00364223
0.00469784
0.00454978
0.00425395
0.00502801
0.00493746
0.00469614
0.00482784
0.00522243
0.00519244
0.00515292
0.00509929
0.00520947
0.00516872
0.0051351
0.00510508
0.00531543
0.0052109
0.00510728
0.00501787
0.00547554
0.00536962
0.00520977
0.00553327
0.00564639
0.00548629
0.00548095
0.00562972
0.00533567
0.00495144
0.00536973
0.00561403
0.00490232
0.00330755
0.00309174
0.00409578
0.00481098
0.00467711
0.00390891
0.00141561
0.00287741
0.00269686
0.00205302
0.00169754
0.000670238
0.00156066
0.00143882
0.00150771
3.96379e-10
7.95312e-11
1.85664e-09
4.32627e-08
4.92752e-07
3.18109e-06
1.27401e-05
3.8307e-05
8.51059e-05
0.000138787
0.000169533
0.000165773
0.000128935
8.3619e-05
4.75973e-05
2.4188e-05
1.07455e-05
4.73121e-06
1.741e-06
6.14584e-07
2.0146e-07
3.93894e-07
7.32995e-06
0.000108258
0.000783267
0.00207941
0.002204
0.0016737
0.00117881
0.00132743
0.000850976
0.00101305
0.000543479
0.000692981
0.000283779
0.000405761
0.000124639
0.000180659
8.42965e-05
5.15071e-05
0.000462247
0.000188052
0.00166841
0.000870617
0.00282737
0.0021591
0.00386797
0.00339389
0.00454788
0.00438281
0.0038828
0.00368309
0.00481135
0.00469664
0.00440997
0.00456239
0.00507269
0.00503156
0.0049771
0.00490482
0.00494862
0.00489714
0.00485688
0.00481894
0.00503027
0.00485853
0.00471446
0.00460754
0.00529989
0.00505312
0.00478356
0.00572358
0.00568619
0.00521355
0.00513497
0.00547918
0.00567986
0.00537421
0.00573133
0.00579925
0.00533503
0.00370638
0.00349799
0.00450467
0.00524902
0.00511085
0.00430515
0.00204303
0.00330496
0.00315521
0.0026031
0.00223504
0.00186198
0.00287222
0.00218368
0.00249182
2.03852e-10
1.82566e-09
5.0714e-08
7.90865e-07
5.45633e-06
2.52924e-05
7.94351e-05
0.000189341
0.000328816
0.000440489
0.000472825
0.000415837
0.000296756
0.000171175
8.64312e-05
3.82381e-05
1.62017e-05
5.78529e-06
1.98066e-06
6.37203e-07
4.45744e-07
4.18077e-06
5.97248e-05
0.00051462
0.00177255
0.00225092
0.00196955
0.0013664
0.00153937
0.00104006
0.00120145
0.000714255
0.000875647
0.000414812
0.000559227
0.000177381
0.000285764
5.39093e-05
9.35318e-05
7.7594e-05
3.95733e-05
0.000397683
0.000171785
0.00142984
0.000812501
0.00251116
0.0020349
0.00350993
0.00330496
0.00297867
0.00424431
0.00406546
0.00366408
0.00352557
0.00443085
0.00430011
0.00402694
0.00416268
0.00477447
0.00471573
0.00463959
0.00454449
0.00453502
0.00448476
0.004442
0.00439556
0.00453068
0.00432544
0.00418192
0.00409307
0.00487232
0.00450752
0.00417363
0.00575415
0.00550289
0.00470641
0.0045959
0.00509333
0.00587458
0.00576475
0.0059511
0.00583957
0.00575583
0.00409217
0.00388375
0.00492488
0.00569283
0.00555264
0.00470891
0.0026391
0.00369644
0.00355288
0.00308696
0.000885234
0.00305978
0.00295647
0.00284438
0.00321451
1.15497e-09
5.29572e-08
9.04735e-07
8.03783e-06
3.9266e-05
0.000137186
0.000331491
0.000580158
0.000768439
0.000839373
0.000798263
0.00066727
0.000477787
0.000273046
0.000123498
5.12642e-05
1.76491e-05
5.92609e-06
1.93505e-06
7.56523e-07
2.55149e-06
3.34203e-05
0.000343102
0.00142697
0.00222794
0.00216498
0.00169689
0.00121965
0.00136908
0.000891481
0.00105609
0.000566673
0.000727066
0.000277159
0.000414871
7.51769e-05
0.000160614
2.69024e-05
3.65134e-05
0.000113809
4.35605e-05