/*--------------------------------*- C++ -*----------------------------------*\
  =========                 |
  \\      /  F ield         | OpenFOAM: The Open Source CFD Toolbox
   \\    /   O peration     | Website:  https://openfoam.org
    \\  /    A nd           | Version:  dev
     \\/     M anipulation  |
\*---------------------------------------------------------------------------*/
FoamFile
{
    version     2.0;
    format      ascii;
    class       volScalarField;
    location    "2500";
    object      k;
}
// * * * * * * * * * * * * * * * * * * * * * * * * * * * * * * * * * * * * * //

dimensions      [0 2 -2 0 0 0 0];

internalField   nonuniform List<scalar> 
9842
(
0.000169423
0.000174528
0.000160425
0.000145618
0.00022835
0.000128319
0.000121358
0.000240432
0.000206036
0.000113331
0.000111555
0.000222752
0.000246765
0.000157918
0.00010916
0.000106114
0.000182995
0.000267985
0.000216648
0.000132018
0.000106614
0.000103433
0.000147346
0.000263293
0.000257413
0.00016591
0.000121909
0.000104843
0.000101961
0.000128424
0.000241017
0.00027827
0.000215212
0.000138993
0.000116315
0.000103685
0.00010116
0.00011658
0.000198288
0.000285932
0.000258505
0.000166536
0.000127838
0.00011224
0.000102863
0.000100701
0.00010996
0.000158494
0.000276198
0.000282143
0.000207848
0.000140848
0.00012146
0.000109412
0.000102243
0.000100409
0.000106216
0.000136093
0.000248345
0.000296857
0.000253739
0.000163958
0.000129561
0.000116738
0.000107436
0.000101751
0.00010016
0.000104043
0.000122164
0.00020238
0.000296545
0.000284676
0.000198006
0.000140717
0.000123206
0.000113288
0.000105891
0.000101363
9.97929e-05
0.000102514
0.0001141
0.0001625
0.000283186
0.000298681
0.00024392
0.000158795
0.000129785
0.000118757
0.000110617
0.000104668
0.000101057
9.94841e-05
0.000101352
0.000109137
0.000139441
0.000249678
0.000309157
0.000279593
0.000189988
0.000138257
0.000123716
0.000115231
0.000108529
0.00010366
0.000100806
9.92574e-05
0.000100537
0.000106035
0.000124997
0.000201286
0.00030511
0.000302382
0.000230462
0.000154103
0.000128592
0.000119346
0.00011242
0.00010685
0.000102817
0.000100596
9.90954e-05
9.99263e-05
0.000103953
0.00011645
0.00016296
0.000286706
0.00031464
0.000273131
0.000180744
0.000135916
0.00012295
0.000115834
0.00011016
0.000105457
0.000102118
0.000100414
9.90964e-05
9.94561e-05
0.000102429
0.000111162
0.000140547
0.000247143
0.000320259
0.00030096
0.000216623
0.000149448
0.00012692
0.000118774
0.000113054
0.00010832
0.000104258
0.000101514
0.000100256
9.91969e-05
9.89548e-05
0.000101212
0.000107673
0.000126552
0.000198443
0.000312758
0.000317355
0.000258738
0.000171918
0.000133279
0.00012144
0.00011553
0.00011085
0.000106743
0.000103208
0.000100994
0.000100116
9.92644e-05
9.83275e-05
0.000100063
0.000105169
0.000117822
0.000162798
0.00029031
0.000328811
0.000294619
0.000203845
0.00014475
0.000124794
0.000117662
0.000112955
0.000109019
0.000105332
0.000102307
0.000100555
0.000100012
9.92521e-05
9.77553e-05
9.90648e-05
0.000103129
0.000112072
0.000141007
0.000245949
0.000331368
0.000318557
0.000242192
0.000163753
0.000130383
0.000119802
0.00011469
0.000110858
0.000107374
0.000104105
0.000101505
0.000100207
9.98995e-05
9.91587e-05
9.73575e-05
9.81934e-05
0.000101374
0.000108162
0.000127048
0.000196712
0.000321246
0.000331282
0.000282765
0.000191599
0.000140139
0.00012263
0.000116303
0.00011231
0.000109073
0.000105931
0.000103018
0.00010076
9.99343e-05
9.97544e-05
9.90587e-05
9.72636e-05
9.75161e-05
9.98393e-05
0.000105338
0.000118151
0.000162855
0.000294988
0.000342833
0.000313216
0.000225816
0.000156574
0.000127456
0.000117992
0.000113584
0.000110377
0.000107473
0.00010465
0.000102004
0.000100195
9.9656e-05
9.96451e-05
9.89983e-05
9.71892e-05
9.67245e-05
9.85809e-05
0.00010306
0.000112159
0.000141518
0.000247662
0.000342472
0.000334957
0.00026485
0.000179642
0.000136102
0.000120412
0.000114793
0.000111415
0.000108706
0.000106084
0.000103478
0.000101009
9.97519e-05
9.93167e-05
9.95722e-05
9.89694e-05
9.70162e-05
9.59795e-05
9.74256e-05
0.000100964
0.000107941
0.000127551
0.000198155
0.000330758
0.000346306
0.000303995
0.000210695
0.000149358
0.000124788
0.000116246
0.000112338
0.000109593
0.000107244
0.000104834
0.000102364
0.000100175
9.93292e-05
9.89852e-05
9.95212e-05
9.89516e-05
9.67748e-05
9.54143e-05
9.64249e-05
9.92285e-05
0.000104629
0.000118339
0.000164606
0.000301915
0.000357093
0.000330625
0.00024565
0.000169698
0.000131958
0.000118302
0.000113307
0.000110302
0.000108121
0.000105973
0.00010365
0.000101291
9.95453e-05
9.88867e-05
9.87047e-05
9.94818e-05
9.89297e-05
9.65295e-05
9.51004e-05
9.55864e-05
9.77851e-05
0.000101973
0.000111949
0.000143191
0.000253381
0.000355228
0.00035095
0.000284543
0.000195305
0.000143651
0.000122021
0.000114539
0.000110996
0.000108678
0.000106855
0.000104776
0.000102525
0.000100294
9.8989e-05
9.84189e-05
9.84818e-05
9.94485e-05
9.89026e-05
9.63259e-05
9.48201e-05
9.46441e-05
9.64349e-05
9.98489e-05
0.000107266
0.000128829
0.000204067
0.000341881
0.000361894
0.000322711
0.000227891
0.000159594
0.000128426
0.000116286
0.000111837
0.000109152
0.000107443
0.000105698
0.000103651
0.000101459
9.9428e-05
9.8452e-05
9.79677e-05
9.83137e-05
9.94149e-05
9.88788e-05
9.61748e-05
9.44796e-05
9.37581e-05
9.51856e-05
9.80502e-05
0.000103727
0.000119139
0.000169072
0.000311804
0.000371523
0.000347336
0.000263186
0.000182412
0.000137693
0.000119612
0.000112873
0.0001097
0.000107769
0.000106363
0.000104624
0.000102577
0.000100443
9.86994e-05
9.7928e-05
9.757e-05
9.82023e-05
9.93669e-05
9.88618e-05
9.60493e-05
9.41166e-05
9.30495e-05
9.40582e-05
9.64504e-05
0.000100972
0.000112382
0.000147125
0.000264364
0.000369028
0.000366343
0.000301707
0.000209247
0.000151522
0.00012492
0.000114513
0.000110425
0.000108092
0.000106725
0.000105365
0.0001036
0.000101529
9.94435e-05
9.80564e-05
9.74036e-05
9.72525e-05
9.81299e-05
9.93587e-05
9.88492e-05
9.59366e-05
9.37956e-05
9.2514e-05
9.30257e-05
9.49617e-05
9.87073e-05
0.000107511
0.000132395
0.000216185
0.000355506
0.000376641
0.0003387
0.000242194
0.000169314
0.000132929
0.000117399
0.000111437
0.000108533
0.00010692
0.000105842
0.000104431
0.000102581
0.000100489
9.85328e-05
9.74684e-05
9.68988e-05
9.70479e-05
9.80618e-05
9.93774e-05
9.88424e-05
9.58342e-05
9.35135e-05
9.20041e-05
9.19701e-05
9.35471e-05
9.67212e-05
0.000103777
0.000122406
0.000178786
0.00032588
0.000384933
0.000362204
0.000277614
0.000193199
0.000143794
0.000122061
0.000112911
0.000109268
0.000107164
0.000106013
0.000105041
0.000103505
0.000101555
9.94995e-05
9.77628e-05
9.69096e-05
9.64755e-05
9.69144e-05
9.79991e-05
9.93897e-05
9.88426e-05
9.57473e-05
9.32655e-05
9.15218e-05
9.10158e-05
9.22736e-05
9.4903e-05
0.00010075
0.000115345
0.000155868
0.000283023
0.00038245
0.000379702
0.000315579
0.000220543
0.00015871
0.000128666
0.000115587
0.000110187
0.000107593
0.000106197
0.000105328
0.00010427
0.000102556
0.000100537
9.85422e-05
9.70915e-05
9.64034e-05
9.61687e-05
9.68124e-05
9.79431e-05
9.93522e-05
9.88536e-05
9.56796e-05
9.3053e-05
9.10961e-05
9.01505e-05
9.11498e-05
9.32866e-05
9.8227e-05
0.000110211
0.000140648
0.00023679
0.000370416
0.00038874
0.0003511
0.000253258
0.000177657
0.000137382
0.000119707
0.000111705
0.000108348
0.000106507
0.000105534
0.000104729
0.000103492
0.000101584
9.95361e-05
9.76656e-05
9.65058e-05
9.59657e-05
9.60797e-05
9.6912e-05
9.80914e-05
9.94234e-05
9.88559e-05
9.56202e-05
9.28601e-05
9.07249e-05
8.94153e-05
9.0169e-05
9.18621e-05
9.60685e-05
0.000106295
0.000130244
0.000198608
0.000343891
0.000396047
0.000373508
0.000287565
0.000201533
0.000149277
0.000124987
0.000114222
0.000109364
0.000107082
0.000105808
0.000105075
0.000104172
0.00010264
0.000100567
9.85599e-05
9.68682e-05
9.60211e-05
9.56569e-05
9.61839e-05
9.72067e-05
9.82902e-05
9.98123e-05
9.92871e-05
9.88562e-05
9.55532e-05
9.2672e-05
9.03676e-05
8.87862e-05
8.92687e-05
9.06586e-05
9.42198e-05
0.00010297
0.000123559
0.000172158
0.000305726
0.000394192
0.00038973
0.000324589
0.00022877
0.000164472
0.000132138
0.00011768
0.000110923
0.00010796
0.000106268
0.000105449
0.000104716
0.000103551
0.000101677
9.95905e-05
9.76961e-05
9.62597e-05
9.56459e-05
9.55354e-05
9.63647e-05
9.75087e-05
9.87292e-05
9.82769e-05
9.98614e-05
9.93583e-05
9.88528e-05
9.54703e-05
9.24941e-05
9.00133e-05
8.82317e-05
8.84615e-05
8.9646e-05
9.26649e-05
0.000100278
0.000119003
0.000155238
0.000263965
0.000384026
0.000397419
0.00035873
0.000260502
0.000183676
0.00014121
0.000122159
0.000113248
0.000109042
0.000107091
0.000105952
0.000105279
0.000104401
0.000102856
0.000100676
9.85619e-05
9.68285e-05
9.57721e-05
9.53533e-05
9.55865e-05
9.69215e-05
9.65801e-05
9.79779e-05
9.70746e-05
9.77643e-05
9.88382e-05
9.84625e-05
9.98997e-05
9.94537e-05
9.88455e-05
9.53839e-05
9.23227e-05
8.96976e-05
8.77585e-05
8.77477e-05
8.87795e-05
9.13811e-05
9.81094e-05
0.000115371
0.000143947
0.000225422
0.000361302
0.000402884
0.000380574
0.000292591
0.000207317
0.000153103
0.000127627
0.000116259
0.000110686
0.000108083
0.000106847
0.000105962
0.00010521
0.000103938
0.000101947
9.97393e-05
9.77601e-05
9.61233e-05
9.54186e-05
9.53581e-05
9.61547e-05
9.57551e-05
9.68712e-05
9.82463e-05
9.76248e-05
9.8185e-05
9.89654e-05
9.86993e-05
9.99397e-05
9.95728e-05
9.88009e-05
9.52877e-05
9.21531e-05
8.94312e-05
8.7368e-05
8.71556e-05
8.80528e-05
9.03259e-05
9.63689e-05
0.000112004
0.000136443
0.000195488
0.000327019
0.000401371
0.000394695
0.000328219
0.000233627
0.00016851
0.000134536
0.000119836
0.000112853
0.000109404
0.000107941
0.000106924
0.000106142
0.000105249
0.000103587
0.000101151
9.87336e-05
9.69064e-05
9.56932e-05
9.54224e-05
9.55243e-05
9.54851e-05
9.65361e-05
9.6241e-05
9.74658e-05
9.86662e-05
9.81408e-05
9.87307e-05
9.91693e-05
9.90596e-05
9.99877e-05
9.97321e-05
9.87398e-05
9.51743e-05
9.19882e-05
8.918e-05
8.70476e-05
8.6696e-05
8.74591e-05
8.95176e-05
9.50094e-05
0.000109256
0.000132125
0.000174024
0.000288682
0.000392755
0.00040128
0.000359702
0.000263055
0.000187403
0.000143679
0.000124009
0.000115405
0.000111054
0.000109257
0.000108139
0.000107382
0.000106648
0.000105187
0.000102927
0.000100357
9.80762e-05
9.63432e-05
9.57491e-05
9.55092e-05
9.56581e-05
9.60325e-05
9.6007e-05
9.72439e-05
9.70797e-05
9.80318e-05
9.91269e-05
9.88728e-05
9.94355e-05
9.94354e-05
9.94225e-05
0.000100056
9.9923e-05
9.86794e-05
9.5049e-05
9.1819e-05
8.89231e-05
8.68119e-05
8.63729e-05
8.70005e-05
8.89342e-05
9.40585e-05
0.000107343
0.00012891
0.000160604
0.000253047
0.000372914
0.00040393
0.000381646
0.000292539
0.000209611
0.000155499
0.000129261
0.00011829
0.000113052
0.000110875
0.000109598
0.000108807
0.000108041
0.000107097
0.000105397
0.000102563
9.97627e-05
9.77871e-05
9.6606e-05
9.59142e-05
9.65041e-05
9.60309e-05
9.6207e-05
9.69989e-05
9.70008e-05
9.7916e-05
9.78885e-05
9.89372e-05
9.9619e-05
9.97921e-05
0.000100239
9.97216e-05
9.97599e-05
0.000100138
0.000100079
9.86159e-05
9.49129e-05
9.16273e-05
8.86494e-05
8.66513e-05
8.61752e-05
8.66961e-05
8.85678e-05
9.34919e-05
0.00010626
0.000126189
0.000151537
0.000221441
0.000342473
0.000402031
0.000393699
0.000325435
0.000233922
0.000170438
0.000135995
0.000121665
0.000115268
0.000112691
0.000111273
0.000110502
0.000110084
0.000109378
0.000108003
0.000105445
0.000102379
9.99501e-05
9.85052e-05
9.70613e-05
9.80797e-05
9.65106e-05
9.72437e-05
9.70484e-05
9.72417e-05
9.78994e-05
9.79511e-05
9.89514e-05
9.89696e-05
0.000100004
0.000100123
0.000100785
0.000101023
9.99461e-05
0.000100026
0.000100184
0.000100172
9.85511e-05
9.47467e-05
9.14024e-05
8.83626e-05
8.65357e-05
8.60881e-05
8.65519e-05
8.84216e-05
9.3327e-05
0.00010586
0.000124008
0.000145394
0.000196906
0.000308909
0.000394288
0.000399247
0.000354612
0.00026061
0.000188208
0.000144832
0.000125358
0.000117494
0.000114695
0.000113127
0.000112631
0.000112341
0.000111916
0.000110841
0.000108789
0.000106015
0.000103341
0.000101448
9.90636e-05
0.000100594
9.79083e-05
9.9199e-05
9.76125e-05
9.84593e-05
9.80837e-05
9.84271e-05
9.90164e-05
9.91093e-05
0.000100125
0.000100196
0.000101112
0.000100578
0.00010174
0.000101771
0.000100088
0.00010022
0.000100205
0.00010021
9.85097e-05
9.4553e-05
9.11331e-05
8.80939e-05
8.64668e-05
8.61076e-05
8.65622e-05
8.85132e-05
9.36e-05
0.000105947
0.000122599
0.000141137
0.000178759
0.000276315
0.000376648
0.00039915
0.000376011
0.00028867
0.000208393
0.000156175
0.000130047
0.000119968
0.000116804
0.000115237
0.000114567
0.000114686
0.000114735
0.000114071
0.000112887
0.000110458
0.000107553
0.000105293
0.00010209
0.000104098
0.000100245
0.000102124
9.93293e-05
0.000100747
9.8942e-05
9.99535e-05
9.93072e-05
9.97857e-05
0.000100289
0.000100427
0.000101297
0.00010141
0.000102189
0.000101003
0.000102701
0.000102546
0.000100156
0.000100358
0.000100201
0.00010019
9.85184e-05
9.43494e-05
9.0832e-05
8.78784e-05
8.64812e-05
8.62237e-05
8.67194e-05
8.88973e-05
9.44286e-05
0.000106611
0.000121818
0.000137853
0.000166804
0.000247383
0.000351379
0.000396435
0.000386913
0.000317271
0.000231127
0.000169943
0.000136663
0.000122574
0.000118875
0.000117346
0.000116789
0.000117147
0.000117501
0.000117894
0.000116981
0.000114545
0.000111739
0.000109456
0.000106291
0.000108248
0.000103553
0.000106104
0.000102055
0.000104086
0.000101007
0.000102602
0.000100514
0.000101732
0.000100716
0.000101367
0.000101541
0.000101749
0.000102449
0.000102635
0.000103292
0.000101444
0.000103711
0.000103371
0.000100165
0.000100465
0.000100161
0.000100133
9.86357e-05
9.41834e-05
9.05129e-05
8.76951e-05
8.66038e-05
8.64291e-05
8.70384e-05
8.95864e-05
9.5878e-05
0.00010802
0.000121749
0.000135306
0.000158409
0.00022204
0.000323964
0.000388732
0.000390736
0.000344167
0.000256336
0.000186498
0.000144853
0.000125816
0.000120771
0.000119425
0.000119127
0.00012016
0.000121088
0.000121382
0.000120612
0.00011879
0.000116623
0.000113531
0.000111959
0.000111808
0.00010796
0.000111382
0.000105884
0.000108763
0.00010423
0.000106677
0.000103097
0.00010507
0.000102378
0.000104067
0.000102191
0.000103131
0.000102839
0.000103248
0.00010363
0.00010391
0.000104418
0.000101963
0.000104783
0.000104344
0.000100154
0.000100641
0.000100068
0.000100105
9.90386e-05
9.42302e-05
9.02333e-05
8.75456e-05
8.67744e-05
8.67361e-05
8.7573e-05
9.06177e-05
9.79112e-05
0.000109734
0.00012201
0.000133536
0.000152235
0.00020175
0.000296872
0.000373916
0.000389108
0.000364378
0.000282493
0.000206377
0.000155787
0.000130378
0.000122978
0.000121352
0.00012167
0.00012308
0.000124033
0.000125252
0.00012479
0.000123337
0.000120948
0.00012113
0.000124587
0.000114287
0.00012231
0.000111671
0.000117307
0.000109709
0.00011473
0.000107934
0.000113097
0.000106482
0.000111462
0.000105119
0.000109443
0.000104252
0.000107006
0.000104438
0.000105861
0.000104878
0.000105643
0.000105553
0.000102832
0.000105729
0.00010514
0.000100232
0.000101123
9.99838e-05
0.000100099
0.000100151
9.51706e-05
9.0334e-05
8.75232e-05
8.69584e-05
8.71449e-05
8.8382e-05
9.20747e-05
0.000100465
0.000111851
0.000122894
0.000132587
0.000147795
0.000186343
0.000272067
0.000355377
0.000384804
0.000374703
0.000306899
0.000228587
0.000170081
0.000136703
0.000125703
0.000123462
0.00012361
0.000125231
0.000127781
0.000129488
0.000129517
0.000128294
0.000126308
0.000125884
0.000154303
0.000179255
0.000257894
0.000126375
0.000146471
0.00012478
0.000147726
0.000123889
0.000148451
0.000122517
0.000148634
0.000119528
0.000144722
0.000114803
0.000135954
0.000110466
0.000125165
0.000107878
0.000115955
0.000106724
0.000110146
0.000107378
0.00010379
0.000107313
0.00010636
0.000100551
0.000102294
9.98912e-05
0.000100267
0.000103682
9.95259e-05
9.20893e-05
8.79854e-05
8.72422e-05
8.76469e-05
8.94646e-05
9.40104e-05
0.000103585
0.000114568
0.000124668
0.000132477
0.000144885
0.000175423
0.000250885
0.00033492
0.000377486
0.000377388
0.000331065
0.000252878
0.000187703
0.000145267
0.000128865
0.000125861
0.000125646
0.000128089
0.000131608
0.00013361
0.000134043
0.000133264
0.00013199
0.000141953
0.000185254
0.000356202
0.000530652
0.000513989
0.000905005
0.000199275
0.000319249
0.000207263
0.000352296
0.000212591
0.000370948
0.000208936
0.000373214
0.000192558
0.000344558
0.000169702
0.000291597
0.000144292
0.000232649
0.000123752
0.00017536
0.000112216
0.000133178
0.00011328
0.000104855
0.0001127
0.000110528
0.000101784
0.000104022
9.99817e-05
0.000101361
0.000115596
0.00011277
9.95731e-05
9.03034e-05
8.794e-05
8.83397e-05
9.0814e-05
9.64722e-05
0.000107254
0.000117942
0.000127009
0.00013306
0.00014343
0.000168507
0.000233857
0.000315056
0.000367477
0.000375891
0.000350069
0.000278797
0.000209018
0.000158116
0.000134227
0.000128571
0.000128109
0.000131084
0.000134307
0.000137572
0.000138004
0.000137012
0.000137326
0.000158316
0.000418655
0.000834389
0.000607085
0.00136536
0.0020843
0.00199137
0.00291816
0.000662887
0.00122327
0.00072285
0.00142486
0.000741416
0.00149701
0.000703771
0.00147353
0.000609109
0.00131964
0.000482211
0.00105996
0.000339414
0.00078561
0.000218098
0.000499744
0.000141501
0.000267227
0.000145101
0.000108396
0.000140818
0.00013037
0.000104313
0.000107782
0.000100359
0.000104354
0.000128202
0.000138114
0.000121457
9.90279e-05
9.02933e-05
8.9491e-05
9.24994e-05
9.9476e-05
0.00011132
0.00012201
0.000130065
0.000134913
0.00014335
0.000164676
0.000220957
0.000297814
0.000354735
0.000372923
0.000361604
0.000303543
0.000234119
0.000175099
0.000142629
0.000133335
0.000130884
0.000133861
0.000137518
0.000141722
0.000142228
0.000141069
0.000141338
0.000162708
0.000569909
0.00325923
0.00266174
0.00411162
0.00394223
0.00499236
0.00458244
0.00565864
0.00238093
0.00346043
0.00251516
0.00366781
0.0025396
0.00368908
0.0024601
0.00366796
0.00222473
0.00354506
0.0017946
0.00325726
0.0012115
0.00272777
0.000694253
0.0017902
0.000306834
0.000897234
0.000321756
0.000120935
0.000297854
0.00024206
0.000108566
0.000117654
0.000101746
0.000106047
0.000143594
0.000151533
0.000122582
9.81272e-05
9.20031e-05
9.46746e-05
0.000102843
0.000115493
0.000126552
0.000133931
0.000137718
0.000144525
0.000163749
0.000213016
0.000285117
0.000342257
0.000369895
0.000367482
0.000326387
0.000259061
0.000194699
0.000154469
0.000140258
0.000135032
0.000137653
0.000142992
0.000146585
0.000147675
0.000146628
0.000145244
0.000161611
0.000581627
0.00379256
0.00763873
0.00856104
0.00603734
0.0070249
0.00663949
0.00747513
0.00664204
0.00735163
0.00478552
0.00579253
0.00479219
0.00573349
0.00475945
0.00566705
0.00474564
0.00570856
0.00464933
0.00577603
0.00438387
0.00578929
0.00373073
0.00555411
0.00239977
0.00473388
0.00104569
0.00297718
0.00109666
0.000187751
0.00100162
0.000782877
0.000114504
0.000157659
0.000101849
0.000108864
0.000149536
0.000157278
0.000120124
9.86205e-05
9.7597e-05
0.000106375
0.000119563
0.000131334
0.000138445
0.000141528
0.000147621
0.000164587
0.000210919
0.000278515
0.000333295
0.000366061
0.000373441
0.000348551
0.000286876
0.000220045
0.000171813
0.000150247
0.000142165
0.000141651
0.000148163
0.000152903
0.000153847
0.000153075
0.000150752
0.00015962
0.000536807
0.00409048
0.00895281
0.00947484
0.00943575
0.00997006
0.00821756
0.00887004
0.00797992
0.00854292
0.00763242
0.00815677
0.00648472
0.00710614
0.00639718
0.00696382
0.00642931
0.00702106
0.00663642
0.00732961
0.006907
0.00779968
0.007086
0.0083333
0.00685783
0.00865784
0.00573927
0.00828846
0.00336781
0.00673272
0.00350241
0.000504748
0.0032428
0.0029938
0.00133876
0.000135415
0.000343813
0.000101831
0.000115178
0.000158002
0.000156718
0.000114817
0.00010254
0.000109763
0.000123444
0.000135987
0.000143635
0.000146313
0.000152294
0.000168494
0.000212008
0.000277818
0.000329983
0.000364542
0.000380116
0.000369624
0.000321944
0.000257087
0.000200047
0.0001676
0.000152383
0.000148806
0.000153561
0.000159098
0.000160211
0.000158843
0.000157171
0.000160617
0.000417286
0.00395128
0.0108823
0.0103051
0.0109624
0.0101048
0.0105314
0.00909087
0.00960073
0.00872407
0.00937059
0.00862741
0.00937693
0.00747001
0.00801807
0.00757736
0.00812365
0.00791108
0.00851914
0.00855511
0.00925601
0.00937321
0.0102404
0.0101757
0.011348
0.0105184
0.0122948
0.00983917
0.0124799
0.00748438
0.0110896
0.00926371
0.00564445
0.00797051
0.00224232
0.000895049
0.00201908
0.00523608
0.00791649
0.00787184
0.00477355
0.000145327
0.000214542
0.00144332
0.00113499
0.000478679
0.000103666
0.000170473
0.000131426
0.000175674
0.000168854
0.000152411
0.000114219
0.000112999
0.000126889
0.00014068
0.000149143
0.000152166
0.000158495
0.000175912
0.000218319
0.00028215
0.000331883
0.000366982
0.000389301
0.000392827
0.000365493
0.000307162
0.000242897
0.000197645
0.000169579
0.000159833
0.000162709
0.000167752
0.000168026
0.00016422
0.000162535
0.000163501
0.000313415
0.00342952
0.0110733
0.0114765
0.0116298
0.0109155
0.0112608
0.0112833
0.0117713
0.0100466
0.0107024
0.0102261
0.0111664
0.0104173
0.011455
0.0087715
0.00956548
0.00920702
0.0098741
0.00986624
0.0105393
0.0109352
0.0115818
0.0122421
0.0129396
0.0136591
0.0145321
0.0131848
0.0140825
0.014778
0.0153576
0.0125883
0.0140813
0.0149164
0.0161758
0.015197
0.011526
0.0100439
0.0122698
0.0133708
0.0103289
0.00426136
0.00352712
0.00751974
0.0103237
0.0104517
0.00704889
0.000326519
0.00282674
0.00217989
0.000823751
0.000102042
0.000155084
0.000161895
0.000290667
0.000305084
0.000181601
0.000141796
0.000118815
0.000129771
0.000145089
0.000155133
0.000158896
0.000166205
0.000186115
0.000232404
0.00029664
0.000343166
0.000378251
0.000407623
0.000435016
0.000424546
0.000369807
0.000305044
0.000242187
0.000201356
0.000181326
0.000179631
0.000181869
0.000180031
0.000172704
0.000167125
0.000166084
0.000258612
0.00247751
0.0109869
0.0122509
0.0125793
0.0129079
0.012145
0.0124386
0.0132767
0.0136449
0.012
0.0127392
0.0125046
0.0132999
0.0125578
0.0132861
0.010731
0.0116962
0.0112949
0.0119776
0.0121381
0.0125651
0.0133377
0.0134713
0.0148407
0.0148223
0.0157247
0.0159515
0.0160462
0.0160316
0.0157751
0.0163388
0.0166689
0.0149043
0.016152
0.0168323
0.0176942
0.0170752
0.0141117
0.0126106
0.0146688
0.0157127
0.0129065
0.00637591
0.00554486
0.00999133
0.0130096
0.0128769
0.00945236
0.000634731
0.00462328
0.00364582
0.00156162
0.000105143
0.000299423
0.000467021
0.000636068
0.000884086
0.000183931
0.000134248
0.000132024
0.000149288
0.000161193
0.000166606
0.000175354
0.000198963
0.00025204
0.000321494
0.000368975
0.000404406
0.000441307
0.000485809
0.000492036
0.000455981
0.000384489
0.000312123
0.000253184
0.000219464
0.000204554
0.000202004
0.000198111
0.000187404
0.000174712
0.000169498
0.000224041
0.00166086
0.0105289
0.0119445
0.0144806
0.0142566
0.0143278
0.0144762
0.0139104
0.0141339
0.0142212
0.0143833
0.013788
0.0140456
0.0137345
0.0141126
0.0134345
0.013758
0.0125694
0.0130019
0.0128267
0.0129775
0.0134865
0.0134229
0.0146543
0.0143634
0.0159605
0.0158165
0.0156694
0.0155043
0.0168213
0.01684
0.0167912
0.0166761
0.0172655
0.0174944
0.017563
0.0169829
0.0178899
0.0180366
0.0186825
0.0184402
0.0163964
0.0151115
0.0169589
0.0177201
0.0154124
0.0086833
0.00771432
0.0125293
0.0155176
0.0153975
0.01193
0.00132794
0.00662817
0.00556902
0.00288782
0.000107524
0.00147317
0.000489255
0.0015128
0.0023579
0.000176848
0.000139044
0.000152744
0.000167773
0.000174778
0.000185898
0.000214585
0.000277146
0.000356911
0.000408936
0.000449853
0.000500179
0.000565135
0.000594064
0.000576445
0.000514403
0.000424077
0.000341087
0.000275341
0.000235381
0.000224467
0.000219616
0.000208859
0.000189886
0.000176626
0.000203271
0.00105158
0.00899672
0.0114885
0.0152115
0.0157808
0.0164554
0.0150419
0.0154379
0.0145437
0.0147504
0.0137818
0.0136626
0.0141696
0.0140513
0.0137201
0.0133679
0.0129822
0.0124761
0.0131591
0.0131555
0.0132574
0.0129676
0.014056
0.0135822
0.0153241
0.0151409
0.0149234
0.014748
0.016545
0.0164001
0.016263
0.0161195
0.0175481
0.0174766
0.0173915
0.0173129
0.0181777
0.0182027
0.0181767
0.0186106
0.0190754
0.0187508
0.019236
0.0192259
0.0183548
0.0174136
0.0189024
0.0192457
0.0177292
0.0110807
0.0100676
0.0150385
0.0178582
0.0177704
0.0144215
0.00270103
0.00897812
0.00793762
0.00482691
0.000153776
0.00290523
0.00141287
0.0032041
0.00432114
0.000165622
0.000155862
0.000173344
0.000184654
0.00019671
0.00023287
0.000308311
0.000404087
0.00046755
0.000522025
0.000598284
0.000700381
0.000767773
0.000757961
0.000695736
0.00060263
0.000485721
0.000378179
0.000287441
0.000253536
0.00024079
0.000233839
0.000212628
0.00019137
0.0001951
0.000663407
0.00648516
0.0114815
0.0144781
0.0175767
0.0177501
0.0161284
0.016897
0.0145568
0.0153206
0.0137042
0.0139474
0.0106086
0.0103517
0.0124951
0.0114069
0.0114755
0.0100253
0.0107024
0.00943559
0.0124571
0.0117079
0.0128834
0.0120423
0.0145812
0.0138559
0.0159718
0.0157989
0.0156058
0.0154119
0.01725
0.017202
0.0171581
0.0171019
0.0181456
0.0181428
0.0181801
0.018258
0.0187499
0.0187505
0.0188088
0.0196362
0.0196993
0.019218
0.0196105
0.0196411
0.0198107
0.0193611
0.0203216
0.0201472
0.019706
0.013607
0.0126431
0.0174576
0.019895
0.0199166
0.01694
0.00470702
0.01157
0.0105322
0.00720809
0.00258725
0.00573934
0.00741007
0.00529662
0.00681807
0.000169475
0.000181975
0.000191629
0.000211398
0.000250572
0.00034595
0.000463616
0.000548478
0.00063088
0.000741963
0.000869945
0.000957703
0.000963081
0.000899881
0.000793503
0.000670669
0.000540219
0.00040284
0.000309644
0.000270525
0.000259501
0.000238732
0.00021121
0.000195281
0.000434482
0.00436473
0.0115699
0.013609
0.0189538
0.0177499
0.0190644
0.0151816
0.016627
0.0123134
0.0137164
0.0104869
0.0111051
0.00566735
0.005625
0.00818643
0.00653041
0.0078776
0.00594201
0.00869205
0.0073713
0.0110422
0.00991438
0.0129131
0.0118414
0.0161764
0.0158496
0.0149495
0.0154392
0.0170172
0.0168928
0.0167269
0.0164779
0.0183487
0.018442
0.0185033
0.0185119
0.0189344
0.0191376
0.0193869
0.0196455
0.019269
0.0194311
0.0197212
0.0201222
0.0199863
0.0197059
0.020038
0.0199255
0.0206181
0.0207714
0.021065
0.0205187
0.0211395
0.0162072
0.0152671
0.0197575
0.0214006
0.0215611
0.0193498
0.00705286
0.014187
0.0131156
0.00975378
0.0307971
0.0120132
0.0247449
0.00771694
0.0105185
0.000186067
0.000207526
0.000220511
0.000275496
0.000382282
0.000538338
0.00065422
0.000785304
0.000964325
0.00115225
0.00128939
0.0013099
0.00121752
0.00105327
0.000882882
0.000721044
0.000574216
0.000437124
0.000329788
0.000294267
0.000266557
0.000232862
0.000200995
0.000309142
0.00277681
0.0113838
0.0128338
0.0186
0.0202511
0.0210822
0.0172042
0.0187831
0.0133212
0.0153191
0.00932462
0.0112835
0.00615714
0.00754428
0.00226269
0.00228581
0.00406801
0.00278713
0.00581723
0.00400039
0.00801405
0.00661609
0.0106074
0.00931088
0.0143887
0.0137022
0.0129508
0.0174429
0.0170281
0.0159736
0.0165404
0.0184474
0.0183067
0.018095
0.0177999
0.0198738
0.0200298
0.0200952
0.0200592
0.0200969
0.0205215
0.0208985
0.0211848
0.0199783
0.0204084
0.020925
0.0203051
0.0201764
0.0203882
0.0205974
0.020265
0.0209135
0.0214856
0.0212908
0.0205924
0.0218557
0.0186559
0.0177132
0.0215378
0.0221736
0.0223748
0.0212668
0.00961263
0.0166263
0.0155479
0.0123359
0.0661351
0.0183592
0.0467298
0.0105382
0.0136445
0.000213192
0.000238903
0.00029115
0.00043129
0.000613891
0.000793534
0.000996054
0.0013166
0.00171329
0.00206814
0.00216685
0.00204765
0.00170525
0.00134202
0.00102667
0.000783724
0.000609453
0.000465139
0.000365398
0.000310561
0.000263042
0.0002158
0.000253696
0.00162945
0.0102723
0.0120885
0.0170891
0.0228794
0.0197885
0.0217375
0.015711
0.0178991
0.0109356
0.0133465
0.00634657
0.0085626
0.0028187
0.00438478
0.00115187
0.00111511
0.00245541
0.00154105
0.00500855
0.00331646
0.0080242
0.00644646
0.0112886
0.00964419
0.0153098
0.0145905
0.0142955
0.013341
0.0183781
0.0178183
0.0165527
0.0172062
0.0199119
0.0196651
0.0193178
0.018883
0.0213395
0.0213541
0.0212368
0.0209915
0.0213739
0.021695
0.021894
0.021956
0.0208812
0.021317
0.0216628
0.0203743
0.0203951
0.0209949
0.0209133
0.0206231
0.0208584
0.0216421
0.0211126
0.0205325
0.0219793
0.0207034
0.0198405
0.0224311
0.0223046
0.0225392
0.0223029
0.0122073
0.0187757
0.0175983
0.0147007
0.05857
0.0221028
0.0666579
0.0130937
0.0157443
0.000241684
0.000305884
0.000462929
0.000714294
0.000940928
0.00128716
0.00184725
0.00269458
0.00357448
0.00411356
0.00404516
0.00343863
0.0025764
0.00178292
0.00122114
0.000868576
0.000643755
0.000503447
0.000409651
0.000329063
0.000247837
0.000243239
0.000946932
0.00739213
0.0108472
0.0149226
0.0229127
0.0226811
0.023948
0.0185297
0.0206653
0.0134711
0.0160844
0.0081702
0.0107889
0.00363862
0.00573852
0.00134604
0.00206967
0.000913325
0.000777855
0.00203496
0.00128507
0.00477477
0.00318661
0.00881498
0.0070671
0.0125636
0.0115901
0.0106558
0.015842
0.015094
0.0148414
0.0141375
0.0185271
0.0179154
0.016705
0.0172978
0.0206476
0.020213
0.0197012
0.0191335
0.0219027
0.021674
0.021301
0.0208081
0.0219292
0.0219916
0.0218648
0.0215058
0.0213631
0.0215484
0.0215256
0.0204669
0.0205659
0.0210346
0.0204907
0.0206235
0.0206761
0.021353
0.0207877
0.0205096
0.0216267
0.0219291
0.0212704
0.0226409
0.0218786
0.0221014
0.0225744
0.0142665
0.0203028
0.0189929
0.0164627
0.023057
0.0262941
0.0553005
0.0146002
0.0168849
0.000299767
0.000488803
0.000788869
0.00113627
0.00160067
0.00258205
0.00406962
0.00565697
0.00659043
0.00659365
0.00591846
0.00479499
0.00349601
0.00229284
0.00142158
0.000942792
0.00067492
0.000542574
0.000444166
0.000326753
0.000256442
0.000601329
0.00467556
0.00996789
0.0130952
0.0219371
0.0260684
0.0212193
0.0235066
0.0162399
0.0188449
0.0105456
0.0134234
0.00518886
0.00774201
0.00166942
0.00304008
0.000814655
0.00106329
0.000916335
0.00071929
0.00203436
0.00132857
0.00528383
0.00379342
0.0117839
0.0105852
0.00988349
0.0133651
0.0125727
0.0127359
0.0137608
0.0161093
0.0154989
0.0161394
0.0157326
0.0178513
0.0174535
0.0168788
0.0171454
0.0202222
0.0195955
0.0189713
0.0183791
0.0209794
0.0203502
0.0196788
0.0190149
0.0212051
0.0206473
0.0199568
0.0192042
0.0209312
0.0204455
0.0197039
0.0204614
0.0203166
0.0200014
0.0191703
0.0199051
0.0204955
0.0208631
0.0204034
0.0203337
0.0208561
0.0222733
0.0217797
0.022271
0.0208676
0.0210078
0.022305
0.0153989
0.0209816
0.0196624
0.0174408
0.00849635
0.0284607
0.0399013
0.0153535
0.0181026
0.000465997
0.00087309
0.00128244
0.00199155
0.00332011
0.00564013
0.00790292
0.00905408