/*--------------------------------*- C++ -*----------------------------------*\
  =========                 |
  \\      /  F ield         | OpenFOAM: The Open Source CFD Toolbox
   \\    /   O peration     | Website:  https://openfoam.org
    \\  /    A nd           | Version:  dev
     \\/     M anipulation  |
\*---------------------------------------------------------------------------*/
FoamFile
{
    version     2.0;
    format      ascii;
    class       volScalarField;
    location    "2500";
    object      N2;
}
// * * * * * * * * * * * * * * * * * * * * * * * * * * * * * * * * * * * * * //

dimensions      [0 0 0 0 0 0 0];

internalField   nonuniform List<scalar> 
9842
(
0.76699
0.76699
0.76699
0.76699
0.76699
0.76699
0.76699
0.76699
0.76699
0.76699
0.76699
0.76699
0.76699
0.76699
0.76699
0.76699
0.76699
0.76699
0.76699
0.76699
0.76699
0.76699
0.76699
0.76699
0.76699
0.76699
0.76699
0.76699
0.76699
0.76699
0.76699
0.76699
0.76699
0.76699
0.76699
0.76699
0.76699
0.76699
0.76699
0.76699
0.76699
0.76699
0.76699
0.76699
0.76699
0.76699
0.76699
0.76699
0.76699
0.76699
0.76699
0.76699
0.76699
0.76699
0.76699
0.76699
0.76699
0.76699
0.76699
0.76699
0.76699
0.76699
0.76699
0.76699
0.76699
0.76699
0.76699
0.76699
0.76699
0.76699
0.76699
0.76699
0.76699
0.76699
0.76699
0.76699
0.76699
0.76699
0.76699
0.76699
0.76699
0.76699
0.76699
0.76699
0.76699
0.76699
0.76699
0.76699
0.76699
0.76699
0.76699
0.76699
0.76699
0.76699
0.76699
0.76699
0.76699
0.76699
0.76699
0.76699
0.76699
0.76699
0.76699
0.76699
0.76699
0.76699
0.76699
0.76699
0.76699
0.76699
0.76699
0.76699
0.76699
0.76699
0.76699
0.76699
0.76699
0.76699
0.76699
0.76699
0.76699
0.76699
0.76699
0.76699
0.76699
0.76699
0.76699
0.76699
0.76699
0.76699
0.76699
0.76699
0.76699
0.76699
0.76699
0.76699
0.76699
0.76699
0.76699
0.76699
0.76699
0.76699
0.76699
0.76699
0.76699
0.76699
0.76699
0.76699
0.76699
0.76699
0.76699
0.76699
0.76699
0.76699
0.76699
0.76699
0.76699
0.76699
0.76699
0.76699
0.76699
0.76699
0.76699
0.76699
0.76699
0.76699
0.76699
0.76699
0.76699
0.76699
0.76699
0.76699
0.76699
0.76699
0.76699
0.76699
0.76699
0.76699
0.76699
0.76699
0.76699
0.76699
0.76699
0.76699
0.76699
0.76699
0.76699
0.76699
0.76699
0.76699
0.76699
0.76699
0.76699
0.76699
0.76699
0.76699
0.76699
0.76699
0.76699
0.76699
0.76699
0.76699
0.76699
0.76699
0.76699
0.76699
0.76699
0.76699
0.76699
0.76699
0.76699
0.76699
0.76699
0.76699
0.76699
0.76699
0.76699
0.76699
0.76699
0.76699
0.76699
0.76699
0.76699
0.76699
0.76699
0.76699
0.76699
0.76699
0.76699
0.76699
0.76699
0.76699
0.76699
0.76699
0.76699
0.76699
0.76699
0.76699
0.76699
0.76699
0.76699
0.76699
0.76699
0.76699
0.76699
0.76699
0.76699
0.76699
0.76699
0.76699
0.76699
0.76699
0.76699
0.76699
0.76699
0.76699
0.76699
0.76699
0.76699
0.76699
0.76699
0.76699
0.76699
0.76699
0.76699
0.76699
0.76699
0.76699
0.76699
0.76699
0.76699
0.76699
0.76699
0.76699
0.76699
0.76699
0.76699
0.76699
0.76699
0.76699
0.76699
0.76699
0.76699
0.76699
0.76699
0.76699
0.76699
0.76699
0.76699
0.76699
0.76699
0.76699
0.76699
0.76699
0.76699
0.76699
0.76699
0.76699
0.76699
0.76699
0.76699
0.76699
0.76699
0.76699
0.76699
0.76699
0.76699
0.76699
0.76699
0.76699
0.76699
0.76699
0.76699
0.76699
0.76699
0.76699
0.76699
0.76699
0.76699
0.76699
0.76699
0.76699
0.76699
0.76699
0.76699
0.76699
0.76699
0.76699
0.76699
0.76699
0.76699
0.76699
0.76699
0.76699
0.76699
0.76699
0.76699
0.76699
0.76699
0.76699
0.76699
0.76699
0.76699
0.76699
0.76699
0.76699
0.76699
0.76699
0.76699
0.76699
0.76699
0.76699
0.76699
0.76699
0.76699
0.76699
0.76699
0.76699
0.76699
0.76699
0.76699
0.76699
0.76699
0.76699
0.76699
0.76699
0.76699
0.76699
0.76699
0.76699
0.76699
0.76699
0.76699
0.76699
0.76699
0.76699
0.76699
0.76699
0.76699
0.76699
0.76699
0.76699
0.76699
0.76699
0.76699
0.76699
0.76699
0.76699
0.76699
0.76699
0.76699
0.76699
0.76699
0.76699
0.76699
0.76699
0.76699
0.76699
0.76699
0.76699
0.76699
0.76699
0.76699
0.76699
0.76699
0.76699
0.76699
0.76699
0.76699
0.76699
0.76699
0.76699
0.76699
0.76699
0.76699
0.76699
0.76699
0.76699
0.76699
0.76699
0.76699
0.76699
0.76699
0.76699
0.76699
0.76699
0.76699
0.76699
0.76699
0.76699
0.76699
0.76699
0.76699
0.76699
0.76699
0.76699
0.76699
0.76699
0.76699
0.76699
0.76699
0.76699
0.76699
0.76699
0.76699
0.76699
0.76699
0.76699
0.76699
0.76699
0.76699
0.76699
0.76699
0.76699
0.76699
0.76699
0.76699
0.76699
0.76699
0.76699
0.76699
0.76699
0.76699
0.76699
0.76699
0.76699
0.76699
0.76699
0.76699
0.76699
0.76699
0.76699
0.76699
0.76699
0.76699
0.76699
0.76699
0.76699
0.76699
0.76699
0.76699
0.76699
0.76699
0.76699
0.76699
0.76699
0.76699
0.76699
0.76699
0.76699
0.76699
0.76699
0.76699
0.76699
0.76699
0.76699
0.76699
0.76699
0.76699
0.76699
0.76699
0.76699
0.76699
0.76699
0.76699
0.76699
0.76699
0.76699
0.76699
0.76699
0.76699
0.76699
0.76699
0.76699
0.76699
0.76699
0.76699
0.76699
0.76699
0.76699
0.76699
0.76699
0.76699
0.76699
0.76699
0.76699
0.76699
0.76699
0.76699
0.76699
0.76699
0.76699
0.76699
0.76699
0.76699
0.76699
0.76699
0.76699
0.76699
0.76699
0.76699
0.76699
0.76699
0.76699
0.76699
0.76699
0.76699
0.76699
0.76699
0.76699
0.76699
0.76699
0.76699
0.76699
0.76699
0.76699
0.76699
0.76699
0.76699
0.76699
0.76699
0.76699
0.76699
0.76699
0.76699
0.76699
0.76699
0.76699
0.76699
0.76699
0.76699
0.76699
0.76699
0.76699
0.76699
0.76699
0.76699
0.76699
0.76699
0.76699
0.76699
0.76699
0.76699
0.76699
0.76699
0.76699
0.76699
0.76699
0.76699
0.76699
0.76699
0.76699
0.76699
0.76699
0.76699
0.76699
0.76699
0.76699
0.76699
0.76699
0.76699
0.76699
0.76699
0.76699
0.76699
0.76699
0.76699
0.76699
0.76699
0.76699
0.76699
0.76699
0.76699
0.76699
0.76699
0.76699
0.76699
0.76699
0.76699
0.76699
0.76699
0.76699
0.76699
0.76699
0.76699
0.76699
0.76699
0.76699
0.76699
0.76699
0.76699
0.76699
0.76699
0.76699
0.76699
0.76699
0.76699
0.76699
0.76699
0.76699
0.76699
0.76699
0.76699
0.76699
0.76699
0.76699
0.76699
0.76699
0.76699
0.76699
0.76699
0.76699
0.76699
0.76699
0.76699
0.76699
0.76699
0.76699
0.76699
0.76699
0.76699
0.76699
0.76699
0.76699
0.76699
0.76699
0.76699
0.76699
0.76699
0.76699
0.76699
0.76699
0.76699
0.76699
0.76699
0.76699
0.76699
0.76699
0.76699
0.76699
0.76699
0.76699
0.76699
0.76699
0.76699
0.76699
0.76699
0.76699
0.76699
0.76699
0.76699
0.76699
0.76699
0.76699
0.76699
0.76699
0.76699
0.76699
0.76699
0.76699
0.76699
0.76699
0.76699
0.76699
0.76699
0.76699
0.76699
0.76699
0.76699
0.76699
0.76699
0.76699
0.76699
0.76699
0.76699
0.76699
0.76699
0.76699
0.76699
0.76699
0.76699
0.76699
0.76699
0.76699
0.76699
0.76699
0.76699
0.76699
0.76699
0.76699
0.76699
0.76699
0.76699
0.76699
0.76699
0.76699
0.76699
0.76699
0.76699
0.76699
0.76699
0.76699
0.76699
0.76699
0.76699
0.76699
0.76699
0.76699
0.76699
0.76699
0.76699
0.76699
0.76699
0.76699
0.76699
0.76699
0.76699
0.76699
0.76699
0.76699
0.76699
0.76699
0.76699
0.76699
0.76699
0.76699
0.76699
0.76699
0.76699
0.76699
0.76699
0.76699
0.76699
0.76699
0.76699
0.76699
0.76699
0.76699
0.76699
0.76699
0.76699
0.76699
0.76699
0.76699
0.76699
0.76699
0.76699
0.76699
0.76699
0.76699
0.76699
0.76699
0.76699
0.76699
0.76699
0.76699
0.76699
0.76699
0.76699
0.76699
0.76699
0.76699
0.76699
0.76699
0.76699
0.76699
0.76699
0.76699
0.76699
0.76699
0.76699
0.76699
0.76699
0.76699
0.76699
0.76699
0.76699
0.76699
0.76699
0.76699
0.76699
0.76699
0.76699
0.76699
0.76699
0.76699
0.76699
0.76699
0.76699
0.76699
0.76699
0.76699
0.76699
0.76699
0.76699
0.76699
0.76699
0.76699
0.76699
0.76699
0.76699
0.76699
0.76699
0.76699
0.76699
0.76699
0.76699
0.76699
0.76699
0.76699
0.76699
0.76699
0.76699
0.76699
0.76699
0.76699
0.76699
0.76699
0.76699
0.76699
0.76699
0.76699
0.76699
0.76699
0.76699
0.76699
0.76699
0.76699
0.76699
0.76699
0.76699
0.76699
0.76699
0.76699
0.76699
0.76699
0.76699
0.76699
0.76699
0.76699
0.76699
0.76699
0.76699
0.76699
0.76699
0.76699
0.76699
0.76699
0.76699
0.76699
0.76699
0.76699
0.76699
0.76699
0.76699
0.76699
0.76699
0.76699
0.76699
0.76699
0.76699
0.76699
0.76699
0.76699
0.76699
0.76699
0.76699
0.76699
0.76699
0.76699
0.76699
0.76699
0.76699
0.76699
0.76699
0.76699
0.76699
0.76699
0.76699
0.76699
0.76699
0.76699
0.76699
0.76699
0.76699
0.76699
0.76699
0.76699
0.76699
0.76699
0.76699
0.76699
0.76699
0.76699
0.76699
0.76699
0.76699
0.76699
0.76699
0.76699
0.76699
0.76699
0.76699
0.76699
0.76699
0.76699
0.76699
0.76699
0.76699
0.76699
0.76699
0.76699
0.76699
0.76699
0.76699
0.76699
0.76699
0.76699
0.76699
0.76699
0.76699
0.76699
0.76699
0.76699
0.76699
0.76699
0.76699
0.76699
0.76699
0.76699
0.76699
0.76699
0.76699
0.76699
0.76699
0.76699
0.76699
0.76699
0.76699
0.76699
0.76699
0.76699
0.76699
0.76699
0.76699
0.76699
0.76699
0.76699
0.76699
0.76699
0.76699
0.76699
0.76699
0.76699
0.76699
0.76699
0.76699
0.76699
0.76699
0.76699
0.76699
0.76699
0.76699
0.76699
0.76699
0.76699
0.76699
0.76699
0.76699
0.76699
0.76699
0.76699
0.76699
0.76699
0.76699
0.76699
0.76699
0.76699
0.76699
0.76699
0.76699
0.76699
0.76699
0.76699
0.76699
0.76699
0.76699
0.76699
0.76699
0.76699
0.76699
0.76699
0.76699
0.76699
0.76699
0.76699
0.76699
0.76699
0.76699
0.76699
0.76699
0.76699
0.76699
0.76699
0.76699
0.76699
0.76699
0.76699
0.76699
0.76699
0.76699
0.76699
0.76699
0.76699
0.76699
0.76699
0.76699
0.76699
0.76699
0.76699
0.76699
0.76699
0.76699
0.76699
0.76699
0.76699
0.76699
0.76699
0.76699
0.76699
0.76699
0.76699
0.76699
0.76699
0.76699
0.76699
0.76699
0.76699
0.76699
0.76699
0.76699
0.76699
0.76699
0.76699
0.76699
0.76699
0.76699
0.76699
0.76699
0.76699
0.76699
0.76699
0.76699
0.76699
0.76699
0.76699
0.76699
0.76699
0.76699
0.76699
0.76699
0.76699
0.76699
0.76699
0.76699
0.76699
0.76699
0.76699
0.76699
0.76699
0.76699
0.76699
0.76699
0.76699
0.76699
0.76699
0.76699
0.76699
0.76699
0.76699
0.76699
0.76699
0.76699
0.76699
0.76699
0.76699
0.76699
0.76699
0.76699
0.76699
0.76699
0.76699
0.76699
0.76699
0.76699
0.76699
0.76699
0.76699
0.76699
0.76699
0.76699
0.76699
0.76699
0.76699
0.76699
0.76699
0.76699
0.76699
0.76699
0.76699
0.76699
0.76699
0.76699
0.76699
0.76699
0.76699
0.76699
0.76699
0.76699
0.76699
0.76699
0.76699
0.76699
0.76699
0.766989
0.76699
0.766989
0.76699
0.76699
0.76699
0.76699
0.76699
0.76699
0.76699
0.76699
0.76699
0.76699
0.76699
0.76699
0.76699
0.76699
0.76699
0.76699
0.76699
0.76699
0.76699
0.76699
0.76699
0.76699
0.76699
0.76699
0.76699
0.76699
0.76699
0.76699
0.76699
0.76699
0.76699
0.76699
0.76699
0.76699
0.76699
0.76699
0.76699
0.76699
0.76699
0.76699
0.76699
0.76699
0.76699
0.76699
0.76699
0.76699
0.76699
0.76699
0.766988
0.766986
0.766981
0.766989
0.766988
0.766989
0.766987
0.766989
0.766987
0.766989
0.766987
0.766989
0.766987
0.766989
0.766987
0.766989
0.766988
0.76699
0.766989
0.76699
0.76699
0.76699
0.76699
0.76699
0.76699
0.76699
0.76699
0.76699
0.76699
0.76699
0.76699
0.76699
0.76699
0.76699
0.76699
0.76699
0.76699
0.76699
0.76699
0.76699
0.76699
0.76699
0.76699
0.76699
0.76699
0.76699
0.76699
0.76699
0.76699
0.76699
0.76699
0.76699
0.76699
0.76699
0.76699
0.76699
0.76699
0.76699
0.76699
0.76699
0.766989
0.766987
0.766975
0.766965
0.766962
0.766938
0.766984
0.766975
0.766982
0.766971
0.766981
0.766969
0.766981
0.766968
0.766982
0.766969
0.766984
0.766973
0.766986
0.766978
0.766988
0.766983
0.76699
0.766987
0.76699
0.76699
0.76699
0.76699
0.76699
0.76699
0.76699
0.76699
0.76699
0.76699
0.76699
0.76699
0.76699
0.76699
0.76699
0.76699
0.76699
0.76699
0.76699
0.76699
0.76699
0.76699
0.76699
0.76699
0.76699
0.76699
0.76699
0.76699
0.76699
0.76699
0.76699
0.76699
0.76699
0.76699
0.76699
0.76699
0.76699
0.76699
0.76699
0.766989
0.766976
0.76695
0.766963
0.766911
0.766871
0.76686
0.7668
0.766948
0.76691
0.766941
0.766889
0.766937
0.766877
0.766939
0.766875
0.766946
0.766884
0.766956
0.766903
0.766968
0.766925
0.766979
0.766951
0.766987
0.766974
0.766986
0.76699
0.766987
0.766988
0.76699
0.76699
0.76699
0.76699
0.76699
0.76699
0.76699
0.76699
0.76699
0.76699
0.76699
0.76699
0.76699
0.76699
0.76699
0.76699
0.76699
0.76699
0.76699
0.76699
0.76699
0.76699
0.76699
0.76699
0.76699
0.76699
0.76699
0.76699
0.76699
0.76699
0.76699
0.76699
0.76699
0.76699
0.76699
0.766989
0.766971
0.76682
0.766841
0.766767
0.766735
0.766669
0.766651
0.766561
0.766819
0.766738
0.766797
0.766698
0.766784
0.766675
0.766782
0.766661
0.766796
0.76666
0.76683
0.766679
0.76688
0.766727
0.76693
0.766819
0.76697
0.766907
0.766968
0.766989
0.766971
0.766978
0.76699
0.76699
0.76699
0.76699
0.76699
0.76699
0.76699
0.76699
0.76699
0.76699
0.76699
0.76699
0.76699
0.76699
0.76699
0.76699
0.76699
0.76699
0.76699
0.76699
0.76699
0.76699
0.76699
0.76699
0.76699
0.76699
0.76699
0.76699
0.76699
0.76699
0.76699
0.76699
0.76699
0.76699
0.766989
0.766972
0.76681
0.766502
0.766458
0.766607
0.766547
0.766473
0.766392
0.766373
0.766267
0.766592
0.766481
0.766556
0.766428
0.76653
0.76639
0.76651
0.766356
0.766508
0.766332
0.766532
0.766327
0.766603
0.766362
0.766746
0.766471
0.766889
0.766678
0.766884
0.766984
0.766896
0.766925
0.76699
0.766988
0.76699
0.76699
0.76699
0.76699
0.76699
0.76699
0.76699
0.76699
0.76699
0.76699
0.76699
0.76699
0.76699
0.76699
0.76699
0.76699
0.76699
0.76699
0.76699
0.76699
0.76699
0.76699
0.76699
0.76699
0.76699
0.76699
0.76699
0.76699
0.76699
0.76699
0.76699
0.76699
0.766975
0.766812
0.766437
0.766457
0.766202
0.766164
0.766316
0.766252
0.766169
0.766081
0.766057
0.765945
0.766301
0.766174
0.766248
0.766105
0.766203
0.766049
0.766158
0.765993
0.766128
0.765941
0.766128
0.76591
0.766186
0.765923
0.766345
0.766022
0.766631
0.76624
0.766624
0.766961
0.766661
0.766711
0.766879
0.76699
0.766981
0.76699
0.76699
0.76699
0.76699
0.76699
0.76699
0.76699
0.76699
0.76699
0.76699
0.76699
0.76699
0.76699
0.76699
0.76699
0.76699
0.76699
0.76699
0.76699
0.76699
0.76699
0.76699
0.76699
0.76699
0.76699
0.76699
0.76699
0.76699
0.76699
0.76699
0.76699
0.76698
0.766825
0.766288
0.766149
0.766102
0.765912
0.765905
0.766002
0.765948
0.765851
0.765782
0.765734
0.765659
0.765971
0.765844
0.765902
0.765767
0.765839
0.765698
0.765771
0.765625
0.765718
0.765555
0.765696
0.765506
0.765734
0.765501
0.765886
0.765581
0.76618
0.765807
0.765991
0.76641
0.766174
0.766799
0.766937
0.766839
0.766487
0.766226
0.766206
0.766552
0.76699
0.766988
0.7669
0.766941
0.766979
0.76699
0.766989
0.76699
0.766989
0.76699
0.76699
0.76699
0.76699
0.76699
0.76699
0.76699
0.76699
0.76699
0.76699
0.76699
0.76699
0.76699
0.76699
0.76699
0.76699
0.76699
0.76699
0.76699
0.76699
0.76699
0.76699
0.76699
0.76699
0.76699
0.76699
0.76699
0.76699
0.766985
0.766857
0.766324
0.765941
0.76598
0.765911
0.765921
0.765777
0.765806
0.765754
0.765759
0.765631
0.765641
0.765522
0.765529
0.765645
0.765561
0.765575
0.765481
0.765503
0.765406
0.765422
0.765323
0.765354
0.765239
0.765316
0.765174
0.765485
0.765376
0.765286
0.765195
0.765655
0.765498
0.765326
0.765245
0.765372
0.765796
0.765972
0.76576
0.765616
0.765973
0.766625
0.766718
0.766289
0.766034
0.765992
0.766361
0.766987
0.766809
0.766888
0.766969
0.76699
0.766989
0.766989
0.766988
0.766988
0.76699
0.76699
0.76699
0.76699
0.76699
0.76699
0.76699
0.76699
0.76699
0.76699
0.76699
0.76699
0.76699
0.76699
0.76699
0.76699
0.76699
0.76699
0.76699
0.76699
0.76699
0.76699
0.76699
0.76699
0.76699
0.76699
0.76699
0.766987
0.766901
0.766403
0.765965
0.765894
0.765908
0.765837
0.765863
0.765774
0.765835
0.765669
0.765718
0.765558
0.765619
0.765445
0.7655
0.765425
0.765422
0.765342
0.765318
0.765255
0.765217
0.765159
0.765113
0.765071
0.765002
0.765123
0.765054
0.765001
0.764952
0.765216
0.765124
0.765044
0.76546
0.765319
0.765143
0.765081
0.765194
0.765586
0.765764
0.765573
0.765424
0.765773
0.766453
0.76656
0.766097
0.765801
0.765849
0.766177
0.766982
0.766679
0.766801
0.766943
0.76699
0.766989
0.766986
0.766984
0.766982
0.76699
0.76699
0.76699
0.76699
0.76699
0.76699
0.76699
0.76699
0.76699
0.76699
0.76699
0.76699
0.76699
0.76699
0.76699
0.76699
0.76699
0.76699
0.76699
0.76699
0.76699
0.76699
0.76699
0.76699
0.76699
0.76699
0.766988
0.766937
0.766519
0.766012
0.766001
0.765997
0.765971
0.765987
0.765891
0.765936
0.765929
0.766028
0.765708
0.765817
0.765598
0.765734
0.765456
0.765582
0.76533
0.765373
0.765217
0.765239
0.765097
0.765104
0.764966
0.764961
0.764916
0.764886
0.764866
0.764852
0.764976
0.76492
0.764874
0.764838
0.76505
0.764969
0.764899
0.765278
0.765146
0.764982
0.764921
0.765026
0.765402
0.765575
0.765393
0.765246
0.76559
0.766278
0.766398
0.765916
0.765624
0.765676
0.766002
0.766967
0.76653
0.766665
0.766888
0.76699
0.76698
0.766988
0.76697
0.766965
0.76699
0.76699
0.76699
0.76699
0.76699
0.76699
0.76699
0.76699
0.76699
0.76699
0.76699
0.76699
0.76699
0.76699
0.76699
0.76699
0.76699
0.76699
0.76699
0.76699
0.76699
0.76699
0.76699
0.76699
0.76699
0.766989
0.766961
0.766648
0.766081
0.766053
0.766181
0.766183
0.766184
0.766188
0.766105
0.766156
0.766214
0.766326
0.765897
0.766065
0.76575
0.765952
0.765542
0.765718
0.765301
0.765403
0.765135
0.765206
0.764973
0.765008
0.764845
0.764844
0.764848
0.764859
0.764811
0.764793
0.764782
0.764778
0.764842
0.764798
0.764768
0.764751
0.764897
0.764826
0.764771
0.765105
0.764977
0.764831
0.76477
0.764864
0.765227
0.765398
0.76522
0.765074
0.765418
0.766108
0.766226
0.765747
0.765457
0.765513
0.765835
0.766924
0.766355
0.766483
0.766769
0.76699
0.766973
0.766985
0.766929
0.76693
0.76699
0.76699
0.76699
0.76699
0.76699
0.76699
0.76699
0.76699
0.76699
0.76699
0.766989
0.766989
0.766989
0.766989
0.766989
0.766989
0.766989
0.76699
0.76699
0.76699
0.76699
0.76699
0.76699
0.76699
0.766989
0.766975
0.76676
0.76618
0.76602
0.766317
0.766243
0.766403
0.766361
0.76644
0.76643
0.766399
0.766435
0.766537
0.766634
0.766174
0.766379
0.765937
0.766196
0.765608
0.765818
0.765308
0.76544
0.765078
0.765175
0.764857
0.764919
0.764778
0.764783
0.764791
0.764804
0.764743
0.76474
0.764741
0.764745
0.764737
0.764722
0.764719
0.764721
0.764759
0.764713
0.764696
0.764935
0.764814
0.764701
0.764655
0.764716
0.765055
0.765227
0.765048
0.764903
0.765251
0.765934
0.766043
0.765583
0.765292
0.765347
0.765664
0.766819
0.76616
0.766271
0.76658
0.76698
0.766955
0.766961
0.766827
0.766855
0.76699
0.76699
0.76699
0.76699
0.76699
0.76699
0.76699
0.76699
0.766989
0.766988
0.766986
0.766984
0.766984
0.766985
0.766986
0.766988
0.766989
0.766989
0.76699
0.76699
0.76699
0.76699
0.76699
0.76699
0.766982
0.766846
0.766319
0.766018
0.766234
0.766455
0.766404
0.766579
0.766521
0.766666
0.76663
0.766675
0.76668
0.766807
0.766853
0.766466
0.766684
0.766088
0.766405
0.765634
0.765874
0.765299
0.765449
0.765009
0.765126
0.764815
0.764848
0.764932
0.764885
0.764751
0.76476
0.764772
0.76479
0.764726
0.764733
0.764741
0.76475
0.764696
0.764706
0.764724
0.764746
0.76467
0.764669
0.764686
0.764771
0.764669
0.764638
0.764611
0.764615
0.764882
0.765055
0.764872
0.764737
0.765079
0.765755
0.765854
0.765414
0.765119
0.765173
0.765491
0.766627
0.765957
0.766052
0.766355
0.766843
0.766892
0.766836
0.766642
0.766693
0.76699
0.76699
0.76699
0.76699
0.76699
0.76699
0.766989
0.766988
0.766984
0.766977
0.76697
0.766968
0.76697
0.766976
0.766981
0.766985
0.766987
0.766989
0.766989
0.76699
0.76699
0.76699
0.76699
0.766986
0.766907
0.766492
0.766037
0.76612
0.76642
0.76634
0.766557
0.76649
0.766691
0.766626
0.766802
0.76675
0.766857
0.766842
0.766923
0.766941
0.766693
0.766856
0.766187
0.766541
0.765648
0.765923
0.765266
0.765435
0.764985
0.765048
0.765174
0.764844
0.764882
0.764985
0.764929
0.764761
0.764773
0.76479
0.764813
0.764766
0.764784
0.764798
0.764811
0.764721
0.764766
0.76481
0.764848
0.764653
0.764698
0.764766
0.764628
0.76458
0.764648
0.76465
0.764587
0.764712
0.764876
0.764698
0.764593
0.764897
0.765578
0.76567
0.765242
0.764936
0.764993
0.765321
0.766386
0.765762
0.765839
0.766114
0.766265
0.766704
0.766324
0.766376
0.766346
0.76699
0.76699
0.76699
0.76699
0.76699
0.766989
0.766985
0.766974
0.766954
0.766931
0.766918
0.766919
0.766935
0.766954
0.76697
0.76698
0.766985
0.766988
0.766989
0.76699
0.76699
0.76699
0.766987
0.766944
0.766656
0.766102
0.766049
0.766276
0.766487
0.766423
0.766627
0.766558
0.766758
0.766694
0.766869
0.766817
0.766937
0.766913
0.766954
0.766968
0.766793
0.76691
0.766278
0.766618
0.765783
0.766068
0.765339
0.765541
0.765049
0.765119
0.765333
0.765418
0.764936
0.764985
0.765107
0.765042
0.764825
0.764842
0.764865
0.764896
0.764878
0.7649
0.764917
0.764933
0.764843
0.764916
0.764978
0.765023
0.764728
0.764833
0.764948
0.764547
0.764563
0.764764
0.764798
0.764651
0.764565
0.764696
0.764543
0.764514
0.764713
0.765408
0.765497
0.765067
0.764749
0.764808
0.765152
0.766118
0.765579
0.765643
0.765879
0.766036
0.766195
0.765764
0.766058
0.765926
0.76699
0.76699
0.76699
0.76699
0.766988
0.766979
0.766956
0.766909
0.76685
0.766802
0.766788
0.766812
0.766863
0.766917
0.766953
0.766974
0.766983
0.766988
0.766989
0.76699
0.76699
0.766988
0.766965
0.76677
0.766233
0.766029
0.766149
0.766407
0.766333
0.766546
0.766477
0.766685
0.766616
0.766813
0.766751
0.766914
0.766868
0.766967
0.76695
0.766957
0.766973
0.76682
0.766917
0.76638
0.766643
0.765918
0.766121
0.765492
0.765579
0.765718
0.765178
0.765255
0.765426
0.765485
0.765099
0.765154
0.765271
0.765213
0.764952
0.764977
0.765009
0.76505
0.765054
0.765076
0.765094
0.765114
0.765056
0.765144
0.765205
0.765243
0.76491
0.765066
0.765208
0.764534
0.764641
0.764981
0.765028
0.764816
0.764482
0.764529
0.76445
0.764497
0.764533
0.765243
0.765332
0.764888
0.76456
0.76462
0.76498
0.765863
0.765412
0.765473
0.765672
0.766612
0.765684
0.765728
0.765776
0.765618
0.76699
0.76699
0.76699
0.766987
0.766973
0.766931
0.766848
0.766742
0.766662
0.766632
0.766649
0.766705
0.766786
0.766873
0.766937
0.766968
0.766982
0.766987
0.766989
0.76699
0.766989
0.766976
0.766844
0.766381
0.766039
0.766066
0.766266
0.766469
0.766406
0.766609
0.766539
0.766748
0.76668
0.766872
0.766813
0.766958
0.766921
0.766979
0.766974
0.766941
0.766971
0.766802
0.766887
0.766359
0.766537
0.76567
0.76576
0.765759
0.765545
0.765613
0.765601
0.76553
0.765326
0.765374
0.765389
0.765411
0.765275
0.765298
0.765337
0.765317
0.765138
0.765168
0.765204
0.765241
0.765265
0.765281
0.765297
0.765313
0.765319
0.765392
0.76543
0.765448
0.765173
0.765343
0.765471
0.764613
0.764807
0.765244
0.765266
0.765038
0.764453
0.764417
0.7644
0.764562
0.764394
0.765078
0.765174
0.764702
0.764389
0.764429
0.764802
0.765648
0.765262
0.765324
0.765497
0.766825
0.76546
0.765916
0.765561
0.765428
0.76699
0.76699
0.766986
0.766967
0.766909
0.766785
0.766638
0.766529
0.766486
0.766497
0.766548
0.766631
0.766734
0.766841
0.766928
0.766968
0.766983
0.766988
0.766989
0.766989
0.766982
0.766892
0.766518
0.766077
0.766013
0.766147
0.766407
0.766336
0.766544
0.766475
0.766685
0.766615
0.766822
0.766755
0.766933
0.766882
0.766979
0.766965
0.766982
0.766984
0.766895
0.76696
0.766663
0.766785
0.765955
0.76613
0.765307
0.765384
0.765053
0.765176
0.765444
0.765484
0.765233
0.765172
0.765352
0.765368
0.765111
0.7651
0.765313
0.765287
0.765214
0.765256
0.765326
0.765333
0.765332
0.765326
0.765454
0.765452
0.765443
0.765421
0.76555
0.765582
0.765587
0.765578
0.765433
0.765573
0.765655
0.764763
0.765001
0.765461
0.765419
0.765229
0.764488
0.764347
0.764389
0.764676
0.764299
0.764913
0.765025
0.764514
0.764261
0.764258
0.764627
0.765473
0.765122
0.765193
0.765351
0.76688
0.765411
0.765972
0.765406
0.765324
0.76699
0.766986
0.766965
0.766889
0.766734
0.766547
0.766415
0.766366
0.766375
0.766421
0.766495
0.766596
0.766715
0.766834
0.76693
0.76697
0.766984
0.766988
0.766989
0.766984
0.766924
0.76664
0.766162
0.765994
0.766059
0.766282
0.766496
0.76643
0.766636
0.766565
0.766777
0.766707
0.766904
0.766843
0.766972
0.766949
0.766986
0.766982
0.766982
0.766987
0.766809
0.766938
0.766339
0.766587
0.765287
0.765438
0.765483
0.764851
0.764949
0.764719
0.764839
0.765107
0.76513
0.764764
0.764694
0.765172
0.765137
0.764637
0.764614
0.765137
0.765042
0.764846
0.764942
0.765391
0.76535
0.765294
0.765222
0.765546
0.765504
0.765445
0.76537
0.765678
0.765674
0.765638
0.765578
0.765607
0.765694
0.765714
0.764907
0.765117
0.76556
0.765422
0.765289
0.764544
0.764292
0.764379
0.764749
0.764216
0.764755
0.764881
0.764333
0.764151
0.764125
0.764459
0.76534
0.764994
0.765077
0.765232
0.766901
0.765372
0.765918
0.7653
0.76526
0.766987
0.766965
0.766881
0.766695
0.766476
0.766328
0.766285
0.766297
0.766336
0.7664
0.766489
0.766598
0.766721
0.766842
0.766936
0.766974
0.766985
0.766988
0.766984
0.766944
0.766733
0.766256
0.765998
0.766006
0.766173
0.766488
0.766604
0.766528
0.766745
0.766675
0.766879
0.766813
0.766963
0.766932
0.766985
0.766978
0.766989
0.766988
0.76698
0.766988
0.766683
0.766908
0.765862
0.766297
0.764967
0.765092
0.765287
0.765078
0.764497
0.764605
0.764597
0.764701
0.764616
0.764643
0.764395
0.764299
0.76476
0.764688
0.764154
0.764146
0.764761
0.764617
0.764362
0.764481
0.765278
0.765168
0.765043
0.764906
0.765498
0.7654
0.765281
0.765144
0.765705
0.765654
0.765567
0.76545
0.765649
0.765684
0.765683
0.764936
0.765093
0.765531
0.765338
0.765234
0.76454
0.764229
0.764322
0.764716
0.764122
0.764599
0.764747
0.764161
0.76405
0.764007
0.764282
0.765241
0.764871
0.764978
0.765134
0.766292
0.765314
0.765517
0.765226
0.765207
0.766969
0.76688
0.766679
0.766425
0.766271
0.766232
0.766248
0.766289
0.766351
0.766425
0.766515
0.766623
0.766746
0.766863
0.766949
0.766978
0.766986
0.766984
0.766953
0.766791
0.766354
0.766015
0.765971
0.766087
0.766369
0.766736
0.766666
0.766667
0.766734
0.766867
0.766801
0.766956
0.766922
0.766983
0.766974
0.766989
0.766987
0.766989
0.766989
0.766976
0.766988
0.766571
0.766885
0.765532
0.766052
0.764814
0.764938
0.765193
0.765033
0.764392
0.764495
0.764609
0.764697
0.764166
0.764219
0.764284
0.764169
0.764265
0.764194
0.763824
0.763862
0.764322
0.764173
0.763939
0.764042
0.764991
0.764827
0.764656
0.764486
0.76531
0.765158
0.764992
0.764813
0.765636
0.765534
0.765381
0.765191
0.765591
0.765598
0.765552
0.764873
0.764992
0.765398
0.765112
0.76508
0.764444
0.764134
0.764211
0.764585
0.764026
0.764449
0.764606
0.764022
0.763949
0.763915
0.764111
0.765164
0.764763
0.76489
0.765054
0.765375
0.765211
0.765175
0.765167
0.765149
0.766895
0.766678
0.766402
0.766233
0.766197
0.766216
0.766268
0.766337
0.766411
0.766487
0.766571
0.766674
0.766789
0.766892
0.76696
0.766982
0.766983
0.766955
0.766817
0.766442
0.766055
0.76595
0.766026
0.766272
0.766654
0.766806
0.76688
0.766819
0.766871
0.766954
0.766923
0.766982
0.766972
0.766988
0.766986
0.76699
0.766989
0.766989
0.76699
0.766973
0.766987
0.766561
0.766884
0.765381
0.765623
0.766015
0.764794
0.764904
0.765206
0.765068
0.764425
0.764521
0.764757
0.764813
0.763944
0.764052
0.764315
0.764183
0.763866
0.763826
0.763668
0.763766
0.763963
0.763839
0.763668
0.763739
0.76463
0.764447
0.764272
0.76411
0.764991
0.764797
0.764601
0.764405
0.765437
0.765257
0.76503
0.764787
0.765407
0.765356
0.76522
0.764646
0.764661
0.765109
0.76459
0.764654
0.764335
0.764047
0.764171
0.764363
0.763931
0.764277
0.764479
0.763908
0.763862
0.763816
0.763956
0.765098
0.764658
0.764793
0.764978
0.765764
0.765113
0.765063
0.76511
0.765091
0.766706
0.766399
0.766213
0.766172
0.766192
0.766258
0.766339
0.766417
0.766489
0.766564
0.766645
0.766739
0.76684
0.766921
0.766969
0.76698
0.766954
0.766819
0.76649
0.766105
0.765947
0.765988
0.766194
0.766558
0.766911
0.766929
0.76696
0.766931
0.766957
0.766982
0.766973
0.766988
0.766986
0.76699
0.766989
0.76699
0.76699
0.766989
0.76699
0.766972
0.766987
0.76665
0.766902
0.765458
0.765661
0.766262
0.765992
0.764878
0.764961
0.765301
0.765184
0.764622
0.764699
0.764997
0.765019
0.763897
0.764039
0.764504
0.764336
0.763633
0.763635
0.763613
0.763748
0.763661
0.763574
0.763488
0.763515
0.764222
0.764053
0.7639
0.76377
0.764553
0.764344
0.764144
0.763959
0.765008
0.764771
0.764516
0.764273
0.765023
0.764852
0.764616
0.764352
0.764341
0.764502
0.764285
0.764319
0.764212
0.764003
0.764048
0.764201
0.763883
0.764104
0.764326
0.763802
0.763797
0.763744
0.763821
0.765034
0.764522
0.764707
0.764905
0.766527
0.765028
0.765165
0.765048
0.765023
0.766426
0.766208
0.766156
0.766172
0.766245
0.76634
0.766425
0.766502
0.766572
0.766645
0.766724
0.766813
0.766894
0.766953
0.766973
0.766948
0.766813
0.766493
0.766137
0.76595
0.765968
0.76614
0.766479
0.766866
0.766983
0.766973
0.766976
0.766984
0.766983
0.766989
0.766987
0.76699
0.766989
0.76699
0.76699
0.76699
0.76699
0.766989
0.76699
0.766973
0.766987
0.766342
0.766658
0.766835
0.766934
0.765594
0.765774
0.766126
0.76505
0.765102
0.765455
0.765357
0.764906
0.764967
0.765267
0.765264
0.763918
0.764129
0.764777
0.764552
0.763492
0.763525
0.763599
0.763759
0.763415
0.76338
0.763377
0.763369
0.763802
0.763672
0.763561
0.763477
0.764045
0.763855
0.763687
0.76356
0.764389
0.764168
0.763962
0.763791
0.764338
0.764178
0.76405
0.764223
0.764207
0.764245
0.764215
0.764205
0.764053
0.763901
0.763934
0.764083
0.763792
0.763942
0.76415
0.763735
0.763695
0.763649
0.763759
0.764967
0.764422
0.764595
0.764824
0.766575
0.76496
0.765242
0.764975
0.764942
0.766219
0.76615
0.766156
0.766222
0.766323
0.766413
0.766499
0.766576
0.766649
0.766722
0.766802
0.766879
0.766938
0.766959
0.766931
0.766789
0.766482
0.766138
0.765957
0.765962
0.766107
0.766422
0.766822
0.766976
0.76699
0.766986
0.766989
0.766989
0.766987
0.766989
0.766989
0.76699
0.76699
0.76699
0.76699
0.76699
0.76699
0.76699
0.76699
0.766989
0.76699
0.766977
0.766987
0.766472
0.766747
0.766859
0.766959
0.765774
0.765934
0.766289
0.76527
0.765297
0.765652
0.76557
0.765208
0.765258
0.765537
0.765525
0.763982
0.764258
0.765053
0.76474
0.763404
0.763487
0.763603
0.763798
0.763294
0.763291
0.763323
0.763296
0.763466
0.763397
0.763346
0.763313
0.763637
0.763531
0.763435
0.763368
0.763855
0.763738
0.763603
0.763512
0.764205
0.764153
0.763466
0.7641
0.763688
0.763635
0.763711
0.763697
0.763977
0.763829
0.763863
0.763682
0.76371
0.763827
0.764031
0.763673
0.763648
0.763607
0.763716
0.764882
0.764246
0.764446
0.764714
0.766898
0.764929
0.765591
0.764891
0.764864
0.766152
0.766148
0.766202
0.766282
0.766358
0.766448
0.766544
0.766627
0.766705
0.76678
0.766853
0.76691
0.766927
0.766888
0.766734
0.766447
0.76613
0.765958
0.765964
0.766098
0.766389
0.766784
0.76697
0.766989
0.76699
0.76699
0.76699
0.76699
0.76699
0.76699
0.76699
0.76699
0.76699
0.76699
0.76699
0.76699
0.76699
0.76699