/*--------------------------------*- C++ -*----------------------------------*\
  =========                 |
  \\      /  F ield         | OpenFOAM: The Open Source CFD Toolbox
   \\    /   O peration     | Website:  https://openfoam.org
    \\  /    A nd           | Version:  dev
     \\/     M anipulation  |
\*---------------------------------------------------------------------------*/
FoamFile
{
    version     2.0;
    format      ascii;
    class       volScalarField;
    location    "2500";
    object      nut;
}
// * * * * * * * * * * * * * * * * * * * * * * * * * * * * * * * * * * * * * //

dimensions      [0 2 -1 0 0 0 0];

internalField   nonuniform List<scalar> 
9842
(
0.000132608
0.000135502
0.00012909
0.000122031
0.000163819
0.0001141
0.000111864
0.000171819
0.000154792
0.000107806
0.000107624
0.000164293
0.000176335
0.00013224
0.000105888
0.000104592
0.000146069
0.000188699
0.00016305
0.000119952
0.000104399
0.000102981
0.000129394
0.000187401
0.000184669
0.000138913
0.00011466
0.000103365
0.000102206
0.000119802
0.000177768
0.000196873
0.000165455
0.000125499
0.000111314
0.000102702
0.000102021
0.000113015
0.000157568
0.000202487
0.000188503
0.000141661
0.000119442
0.000108795
0.000102211
0.000101899
0.000109066
0.000137574
0.000198517
0.000201675
0.000164359
0.0001281
0.00011563
0.000107055
0.000101826
0.000101747
0.000106694
0.000126251
0.000185503
0.000211231
0.000189203
0.000142298
0.000121624
0.000112665
0.000105837
0.000101514
0.000101374
0.000105211
0.000118097
0.000161983
0.000211744
0.000206367
0.000161597
0.000129457
0.000117774
0.000110442
0.000104874
0.000101262
0.000100861
0.00010441
0.000113103
0.000141615
0.000205653
0.000214247
0.000187201
0.000141071
0.000122971
0.000114959
0.000108737
0.000104104
0.000101043
0.000100491
0.000103863
0.000110043
0.000129795
0.000188622
0.000221115
0.000206467
0.00015963
0.000129118
0.000119193
0.000112673
0.0001074
0.000103477
0.000100889
0.000100301
0.000103379
0.00010813
0.000121465
0.000163171
0.000219129
0.000218962
0.000182598
0.000139998
0.000123176
0.000116379
0.000110858
0.000106326
0.000102901
0.000100772
0.000100193
0.000102718
0.000106757
0.000116289
0.000144039
0.000209848
0.00022623
0.000206122
0.000156579
0.000128787
0.000119629
0.000114034
0.000109378
0.000105446
0.000102467
0.000100656
0.000100202
0.000102178
0.000105957
0.000112967
0.000132241
0.000188799
0.000229619
0.000220969
0.00017737
0.000138638
0.000123026
0.000116889
0.000112145
0.00010816
0.000104618
0.000102087
0.000100552
0.000100271
0.000101744
0.000105314
0.000110808
0.000124198
0.000163033
0.00022541
0.000229472
0.000201186
0.000153357
0.000128206
0.000119552
0.000114611
0.000110625
0.000107078
0.000103919
0.000101756
0.000100459
0.000100298
0.000101272
0.00010436
0.000109204
0.000118895
0.000145871
0.000213596
0.000236306
0.000220161
0.000172456
0.000137035
0.000122663
0.000117002
0.000112757
0.00010934
0.000106079
0.000103328
0.000101476
0.000100398
0.000100256
0.000100866
0.000103428
0.00010795
0.000115172
0.000134281
0.000189268
0.000237463
0.000232782
0.00019454
0.00015014
0.000127489
0.000119558
0.000114781
0.000111239
0.000108162
0.000105231
0.000102802
0.000101266
0.000100324
0.000100146
0.000100578
0.000102677
0.000106926
0.000112673
0.000126104
0.000163203
0.000231639
0.000238841
0.000217099
0.00016749
0.000135307
0.000122285
0.000117191
0.000113013
0.000109969
0.000107134
0.000104494
0.000102301
0.000101115
0.000100214
0.000100041
0.000100552
0.000102207
0.000105903
0.000110896
0.000120652
0.000147235
0.000217453
0.000245471
0.000232327
0.000187486
0.000147304
0.000126611
0.000119433
0.000115115
0.000111613
0.000108822
0.000106231
0.000103808
0.000101951
0.000100948
0.000100134
9.99748e-05
0.00010053
0.000101647
0.000104911
0.000109548
0.000116812
0.000135991
0.000191191
0.000244641
0.000243337
0.000209689
0.000161849
0.000133847
0.000121819
0.000117205
0.000113416
0.000110416
0.00010783
0.000105423
0.000103108
0.000101703
0.000100707
0.000100088
9.99395e-05
0.000100411
0.000101123
0.000103938
0.000108343
0.000114106
0.000127861
0.00016479
0.000237913
0.000248438
0.000231032
0.000180834
0.00014373
0.000125851
0.000119268
0.000115273
0.000111999
0.000109345
0.000106944
0.000104659
0.000102545
0.000101457
0.000100463
0.000100059
9.99194e-05
0.000100222
0.000100747
0.000103157
0.00010735
0.000111992
0.000122206
0.000148736
0.0002221
0.000254239
0.000243371
0.000201049
0.0001574
0.000131979
0.00012134
0.000117127
0.000113592
0.000110844
0.000108402
0.000106118
0.000103912
0.000102166
0.000101173
0.000100261
0.00010004
9.99026e-05
0.000100027
0.000100615
0.000102585
0.000106393
0.000110311
0.000118135
0.000138053
0.000195093
0.000252391
0.000253161
0.00022284
0.000173164
0.000141169
0.000124846
0.000119006
0.000115272
0.000112239
0.000109834
0.000107521
0.000105337
0.000103214
0.00010184
0.000100848
0.000100107
0.000100023
9.9885e-05
9.98698e-05
0.000100522
0.00010189
0.000105397
0.00010911
0.000115114
0.00012982
0.000168519
0.000244634
0.000257932
0.000243047
0.000192972
0.000151962
0.000130521
0.000120803
0.000116961
0.000113687
0.000111194
0.000108915
0.000106704
0.000104594
0.000102629
0.000101515
0.000100522
9.99984e-05
0.000100002
9.98699e-05
9.97621e-05
0.000100369
0.000101228
0.000104486
0.000108067
0.000112819
0.000123968
0.000151123
0.000227932
0.000262715
0.000253689
0.000213228
0.000167041
0.000137946
0.000124019
0.000118635
0.000115199
0.000112442
0.000110271
0.000108075
0.000105937
0.000103889
0.000102171
0.000101181
0.000100233
9.99377e-05
9.99635e-05
9.98597e-05
9.96849e-05
0.000100177
0.000100749
0.000103685
0.000107122
0.000111033
0.000119667
0.000141063
0.00020188
0.000260527
0.000262309
0.000234386
0.000183468
0.000147966
0.000128828
0.000120355
0.000116741
0.000113753
0.000111495
0.000109419
0.000107292
0.000105196
0.000103196
0.000101779
0.000100823
0.000100005
9.9901e-05
9.99606e-05
9.98551e-05
9.96263e-05
0.000100008
0.000100468
0.000102942
0.000106254
0.000109573
0.000116498
0.000132953
0.000175473
0.000252671
0.000266657
0.000253161
0.000203455
0.000159845
0.000135517
0.0001232
0.000118306
0.000115112
0.000112622
0.000110677
0.000108638
0.000106536
0.000104473
0.000102575
0.000101415
0.000100453
9.98783e-05
9.98487e-05
9.99782e-05
9.98578e-05
9.95828e-05
9.98734e-05
0.000100221
0.000102134
0.000105403
0.000108327
0.000114055
0.000127047
0.000156092
0.000236043
0.000270674
0.000262822
0.000223624
0.000175553
0.00014365
0.000127535
0.000119906
0.000116596
0.00011381
0.000111724
0.000109924
0.000107888
0.000105797
0.000103793
0.00010208
0.000101064
0.000100133
9.97998e-05
9.97938e-05
9.99851e-05
9.98682e-05
9.95565e-05
9.97709e-05
9.9991e-05
0.000101449
0.000104622
0.000107223
0.000112062
0.000122725
0.000145716
0.000213102
0.000268722
0.000270446
0.000244081
0.000192351
0.000154211
0.000133222
0.000122595
0.000117988
0.000115075
0.00011282
0.000111016
0.000109225
0.000107149
0.000105077
0.000103137
0.000101669
0.000100725
9.99168e-05
9.97276e-05
9.97408e-05
9.99475e-05
9.98876e-05
9.95474e-05
9.97008e-05
9.97968e-05
0.000100891
0.000103917
0.000106291
0.000110403
0.000119563
0.000138658
0.000187841
0.000261765
0.000274112
0.00026159
0.000212164
0.000166951
0.000140016
0.000126526
0.00011968
0.000116494
0.00011396
0.000112076
0.000110372
0.000108548
0.000106419
0.000104382
0.000102554
0.000101315
0.000100409
9.98679e-05
9.97829e-05
9.9819e-05
9.9985e-05
9.99047e-05
9.95508e-05
9.96521e-05
9.96396e-05
0.000100477
0.000103301
0.000105492
0.000109002
0.000117109
0.000133203
0.000167456
0.000247016
0.000277895
0.000270408
0.000231497
0.000182659
0.000148834
0.000131164
0.000122254
0.000117931
0.000115246
0.000113161
0.000111449
0.000109781
0.000107845
0.000105683
0.000103702
0.000102015
0.000101007
0.000100171
9.99602e-05
0.000100016
9.99743e-05
0.000100043
0.000100058
9.99235e-05
9.95605e-05
9.96156e-05
9.94951e-05
0.000100157
0.000102729
0.00010482
0.000107823
0.000114859
0.000129824
0.000154476
0.000226969
0.000276611
0.000277357
0.000251426
0.000199544
0.000159633
0.000137054
0.000125612
0.000119682
0.000116662
0.00011433
0.000112581
0.000110924
0.000109166
0.000107069
0.000104988
0.000103118
0.000101619
0.000100736
0.000100014
9.99995e-05
0.000100111
0.000100052
0.000100105
0.000100071
0.000100097
9.99425e-05
9.95717e-05
9.95959e-05
9.93605e-05
9.99011e-05
0.000102248
0.000104253
0.000106847
0.000113047
0.000127612
0.000147126
0.000204796
0.000270794
0.000280294
0.000268127
0.000218819
0.000172733
0.000144085
0.000129678
0.000122092
0.000118106
0.000115712
0.000113793
0.000112114
0.000110474
0.000108536
0.000106288
0.000104232
0.000102488
0.000101285
0.000100484
9.99591e-05
0.000100183
0.000100252
0.000100232
0.00010029
0.00010041
0.000100116
0.000100214
0.000100094
0.000100146
9.99618e-05
9.95904e-05
9.95896e-05
9.9258e-05
9.97152e-05
0.000101863
0.00010376
0.00010606
0.00011162
0.000125278
0.000142482
0.00018397
0.000258387
0.00028347
0.000276481
0.000236851
0.000188342
0.00015299
0.0001344
0.00012507
0.000119961
0.000117084
0.000115261
0.000113388
0.000111754
0.000109911
0.000107747
0.000105611
0.000103745
0.000102091
0.000101197
0.000100583
0.000100248
0.000100257
0.000100432
0.000100392
0.000100618
0.000100647
0.000100192
0.000100374
0.000100108
0.000100212
9.99634e-05
9.96157e-05
9.95886e-05
9.91901e-05
9.95986e-05
0.00010158
0.000103333
0.000105423
0.000110509
0.000122811
0.000139315
0.000168179
0.000240696
0.000282594
0.00028228
0.0002564
0.00020494
0.000164151
0.000140081
0.000128455
0.000122255
0.000118649
0.000116756
0.000114885
0.000113136
0.00011153
0.000109518
0.000107073
0.000104787
0.000103086
0.000101837
0.000101239
0.000100419
0.000100737
0.000100483
0.000100553
0.000100781
0.000100649
0.000100898
0.000100913
0.000100336
0.000100621
0.000100121
0.000100316
9.99604e-05
9.96441e-05
9.95924e-05
9.91368e-05
9.95403e-05
0.000101397
0.000102987
0.000104946
0.000109683
0.000120911
0.000137796
0.000157902
0.00022053
0.000278046
0.000284671
0.000271775
0.000223018
0.000177235
0.000147378
0.000132233
0.000124893
0.000120447
0.000118327
0.000116451
0.000114724
0.000113133
0.000111171
0.000108825
0.000106415
0.000104293
0.000102555
0.000101737
0.000101055
0.000101371
0.000100756
0.000101064
0.000100899
0.000101077
0.000101096
0.000100884
0.000101258
0.000101271
0.000100526
0.000100812
0.00010015
9.83749e-05
9.99631e-05
9.96743e-05
9.95943e-05
9.90836e-05
9.9549e-05
0.000101316
0.000102737
0.000104622
0.00010916
0.000119835
0.0001362
0.000152537
0.000201994
0.000267902
0.000286459
0.000280293
0.000239902
0.000192131
0.000156492
0.000136871
0.000127793
0.000122555
0.000120078
0.000118148
0.000116417
0.000114734
0.000113087
0.000111139
0.000108471
0.000105898
0.000103991
0.000102614
0.000101699
0.00010232
0.00010134
0.000101617
0.000101352
0.000101629
0.000101316
0.000101614
0.000101593
0.000101062
0.000101708
9.91922e-05
9.73048e-05
9.53074e-05
9.03787e-05
8.46513e-05
9.997e-05
9.97014e-05
9.95794e-05
9.90254e-05
9.96285e-05
0.000101325
0.000102594
0.000104462
0.000108915
0.000119404
0.000134489
0.000149423
0.000185383
0.000252419
0.000285912
0.00028495
0.000258376
0.000207993
0.000167517
0.000142593
0.000131101
0.000124871
0.000121987
0.000119936
0.000118184
0.000116831
0.000115292
0.00011339
0.000110913
0.000108162
0.000105958
0.000104417
0.000102867
0.000103767
0.000101964
0.000102705
0.000101847
0.000102104
0.000101889
0.000102098
0.000101931
0.00010223
0.000102101
8.96279e-05
9.32321e-05
8.44424e-05
8.46548e-05
8.28879e-05
7.95179e-05
7.38965e-05
9.99817e-05
9.97121e-05
9.95417e-05
9.89727e-05
9.9764e-05
0.000101404
0.000102553
0.000104472
0.000108983
0.000119446
0.000133202
0.000147205
0.000172785
0.000235248
0.000282827
0.000287111
0.000272804
0.000224504
0.000180195
0.000149866
0.000134639
0.000127231
0.000124078
0.000121858
0.000120321
0.000119013
0.000117596
0.000115813
0.0001136
0.000111103
0.000108707
0.000106937
0.000104601
0.000105759
0.000103302
0.000104347
0.000102494
0.000103305
0.000102295
0.000102653
0.000102433
0.000102581
9.98342e-05
9.81272e-05
8.83668e-05
7.70503e-05
7.90645e-05
7.19838e-05
7.47663e-05
7.29862e-05
7.18975e-05
6.58269e-05
0.000100011
9.97089e-05
9.94782e-05
9.89523e-05
9.99489e-05
0.00010154
0.000102603
0.000104659
0.000109394
0.000119776
0.000132574
0.000145509
0.000164173
0.000218408
0.000274559
0.0002875
0.000281956
0.000241234
0.000194112
0.000158997
0.000139053
0.0001299
0.000126314
0.000123982
0.00012214
0.000121134
0.00012006
0.000118483
0.000116771
0.000114394
0.000111799
0.000109585
0.000106848
0.000108159
0.000105124
0.000106366
0.000104006
0.000104954
0.000103132
0.000103947
0.000102777
0.000103197
9.58946e-05
9.73587e-05
8.50617e-05
8.3606e-05
7.48967e-05
6.67536e-05
6.7339e-05
6.15977e-05
6.72691e-05
6.5107e-05
6.64507e-05
5.9979e-05
0.000100076
9.97035e-05
9.93968e-05
9.89825e-05
0.000100205
0.000101724
0.000102749
0.000105074
0.000110272
0.000120514
0.000132401
0.000143999
0.000159358
0.000203567
0.000261893
0.000287445
0.000285722
0.000257291
0.000209277
0.000169408
0.000145063
0.000132667
0.000128591
0.000126183
0.00012425
0.00012329
0.000122338
0.000120424
0.000111302
0.000104797
0.000101971
0.000106112
0.000109407
0.000110399
0.000107225
0.000108542
0.000105752
0.000106697
0.000104571
0.000105307
0.000103708
0.000104351
9.88211e-05
0.000102315
8.19921e-05
8.29077e-05
7.25137e-05
7.06034e-05
6.36493e-05
5.82757e-05
5.75854e-05
5.30635e-05
6.18016e-05
5.92392e-05
6.35708e-05
5.6688e-05
0.000100218
9.97316e-05
9.93136e-05
9.90545e-05
0.00010054
0.000101938
0.000103008
0.000105719
0.000111643
0.000121874
0.000132769
0.000142742
0.000156304
0.000190362
0.000248171
0.000285215
0.00028745
0.0002714
0.000225284
0.000181368
0.000152254
0.000136022
0.000130701
0.000128452
0.0001265
0.000125874
0.000125269
0.000117778
0.000106446
9.76514e-05
9.04141e-05
8.85958e-05
0.000111833
8.88622e-05
0.000109243
0.000110237
0.000107331
0.000107985
0.000105689
0.000106138
0.000104619
0.000104729
0.000103906
0.000104041
8.37458e-05
8.53925e-05
6.99964e-05
6.99517e-05
6.16438e-05
5.97444e-05
5.43141e-05
5.14006e-05
4.89291e-05
4.54788e-05
5.82203e-05
5.50447e-05
6.46391e-05
5.60557e-05
0.000100551
9.99227e-05
9.92948e-05
9.91817e-05
0.000100894
0.000102164
0.000103428
0.000106632
0.000113407
0.000123278
0.00013321
0.000142004
0.000153755
0.000179687
0.000234564
0.000278486
0.000287198
0.00028108
0.000241383
0.000195432
0.000161392
0.000140612
0.000133054
0.000130614
0.000129005
0.000128499
0.000127724
0.000116835
0.000102999
9.22042e-05
8.50072e-05
8.01929e-05
8.88994e-05
0.000110008
0.000105069
0.000107397
0.000105733
0.000105345
0.000102599
0.000103725
0.000100624
0.000102997
0.000100022
9.04299e-05
0.000100516
6.95712e-05
6.99218e-05
5.93938e-05
5.81408e-05
5.1982e-05
5.13546e-05
4.66928e-05
4.47986e-05
4.23644e-05
3.96771e-05
5.76976e-05
5.07949e-05
7.14484e-05
6.02578e-05
0.000101339
0.000100765
9.9606e-05
9.94388e-05
0.000101229
0.000102414
0.000104066
0.000107872
0.000115485
0.000124961
0.000134129
0.000141796
0.000151767
0.000172199
0.000221967
0.000269766
0.000286584
0.000284956
0.000255336
0.000210302
0.000172148
0.000146723
0.000135893
0.000132873
0.00013105
0.000130479
0.000130686
0.000118065
0.000102583
8.89277e-05
7.96998e-05
7.75956e-05
0.000104316
8.95397e-05
8.94062e-05
0.000100949
9.30896e-05
9.66371e-05
8.7567e-05
9.39601e-05
8.41838e-05
9.33943e-05
8.31236e-05
9.47141e-05
8.45538e-05
7.85268e-05
8.64851e-05
5.8167e-05
6.61569e-05
4.92353e-05
5.12957e-05
4.4558e-05
4.28059e-05
3.95732e-05
3.94886e-05
3.57563e-05
3.33743e-05
6.04918e-05
4.64752e-05
9.80788e-05
7.46659e-05
0.00010353
0.000103995
0.000101186
0.000100076
0.000101607
0.000102725
0.000104907
0.000109449
0.000117906
0.000127078
0.000135724
0.000142068
0.000150547
0.000167311
0.000211136
0.000259925
0.000284726
0.000286027
0.000268981
0.000225625
0.000184714
0.00015446
0.000139104
0.00013541
0.000133227
0.000132928
0.000133587
0.000120842
0.000105253
8.97121e-05
7.72751e-05
8.02276e-05
9.8157e-05
9.37737e-05
0.000104344
9.43809e-05
0.000121709
8.00355e-05
8.36276e-05
7.59568e-05
7.90977e-05
7.50161e-05
7.78272e-05
7.67366e-05
7.76209e-05
7.85505e-05
7.78936e-05
8.12863e-05
7.88402e-05
6.20392e-05
7.9529e-05
4.77977e-05
6.33634e-05
3.83782e-05
4.46633e-05
3.47392e-05
3.4592e-05
3.12925e-05
2.8441e-05
5.84056e-05
4.09369e-05
9.99001e-05
9.13001e-05
0.00011055
0.000112495
0.000106727
0.000102116
0.000102291
0.000103234
0.000105965
0.000111406
0.000120632
0.000129585
0.0001375
0.00014271
0.000150096
0.000164711
0.000202439
0.000250347
0.000281235
0.000285915
0.000278837
0.000241839
0.000199633
0.000164999
0.000144401
0.000138192
0.000135798
0.000135321
0.000135729
0.000126205
0.000108996
9.24036e-05
7.82812e-05
8.76516e-05
0.000125729
0.000133054
8.07934e-05
0.000146402
0.000185767
0.000178701
0.000231128
9.88953e-05
0.000135264
9.8905e-05
0.000143702
9.77216e-05
0.00014631
9.42356e-05
0.000142804
8.87782e-05
0.00013066
8.48728e-05
0.000112573
8.3034e-05
9.702e-05
7.00707e-05
8.75278e-05
4.21913e-05
7.5524e-05
3.92879e-05
2.95631e-05
3.37125e-05
2.73282e-05
4.64297e-05
3.2917e-05
6.29596e-05
3.97322e-05
0.000116775
0.000126435
0.000121428
0.00010854
0.000104347
0.000104201
0.000107339
0.000113764
0.000123542
0.000132483
0.000139737
0.000144303
0.000150394
0.000163683
0.000195759
0.000241935
0.000275418
0.000286217
0.00028446
0.000256838
0.000216774
0.000177791
0.000152116
0.000142907
0.000138598
0.000137903
0.000138541
0.000132602
0.000115351
9.72104e-05
8.06283e-05
8.71153e-05
0.000138679
0.000266104
0.000217809
0.000289602
0.000288288
0.000348367
0.000328945
0.000392392
0.000200544
0.000263527
0.000207339
0.000275341
0.000206682
0.000274074
0.000198546
0.000267563
0.000180896
0.00025383
0.000152162
0.000231072
0.000116371
0.000197507
9.39374e-05
0.000143617
7.88004e-05
0.000100553
7.77275e-05
2.32715e-05
6.88284e-05
5.0487e-05
2.88169e-05
2.21928e-05
2.00265e-05
1.84113e-05
0.000126858
0.000136961
0.000123841
0.000110306
0.000106376
0.000109161
0.000116295
0.000126418
0.000135623
0.000142424
0.000146305
0.000151476
0.000163827
0.000191623
0.000235834
0.000269906
0.000286674
0.000287608
0.000270176
0.000232616
0.000191516
0.000161574
0.000149235
0.000142616
0.000141326
0.00014308
0.000139871
0.000122477
0.000103872
8.59396e-05
8.49764e-05
0.000138322
0.000296085
0.00050091
0.000553255
0.000407308
0.000463184
0.00045095
0.000500915
0.000455424
0.000500521
0.000341864
0.000402799
0.000339038
0.000396292
0.000330407
0.000384109
0.000319827
0.000374788
0.000304183
0.00036453
0.000280792
0.000350555
0.000240833
0.00032636
0.000169974
0.000279412
0.000104527
0.000192546
0.000104852
3.17039e-05
9.881e-05
8.68023e-05
1.94819e-05
2.19022e-05
1.18583e-05
1.13931e-05
0.000131027
0.000142567
0.000124433
0.000111871
0.000111622
0.000118911
0.000129195
0.00013884
0.000145446
0.000148882
0.000153868
0.000164701
0.000190877
0.000232866
0.000266358
0.000285766
0.000291344
0.000282287
0.000249088
0.000207771
0.000173509
0.000157168
0.00014912
0.000144465
0.000147014
0.00014776
0.000130346
0.000112168
9.31516e-05
8.24225e-05
0.000132852
0.000319849
0.000575989
0.000600792
0.000616189
0.000647513
0.000544618
0.000583285
0.000540422
0.000576239
0.000520482
0.000555162
0.000443652
0.000484605
0.00043007
0.000468346
0.00041894
0.000456846
0.000412705
0.000452382
0.000406352
0.000450372
0.000395212
0.000448359
0.000369624
0.000438809
0.000312731
0.000408593
0.000204708
0.000340681
0.000205662
6.98932e-05
0.00018937
0.000178354
0.000109576
1.43426e-05
3.98053e-05
1.12955e-05
1.09809e-05
0.000136266
0.000144255
0.000123241
0.000115575
0.000121508
0.000131843
0.000141893
0.000148788
0.00015199
0.000157023
0.000167716
0.000191626
0.000232834
0.000265596
0.000285982
0.00029526
0.000292205
0.000267539
0.000229695
0.000191985
0.00016909
0.000157289
0.000150405
0.000150842
0.000152085
0.00013999
0.000121178
0.000102099
8.64867e-05
0.00011762
0.000315024
0.000685739
0.000666663
0.000705373
0.000669373
0.000694294
0.000609828
0.000640511
0.000590111
0.000626148
0.000573094
0.000611248
0.000502402
0.000537458
0.000491843
0.000524581
0.000485782
0.000518277
0.000487044
0.000519623
0.000490277
0.000523659
0.000491452
0.00052931
0.000480452
0.000531167
0.00044337
0.000516738
0.00035682
0.000467566
0.000417307
0.000289185
0.00036506
0.000141643
8.75626e-05
0.000132787
0.000268159
0.000355347
0.000358397
0.000246162
1.21061e-05
1.75852e-05
0.000104832
8.73791e-05
4.34783e-05
1.18492e-05
1.29662e-05
1.15094e-05
1.26445e-05
0.000145332
0.000144843
0.000124617
0.000124133
0.000134259
0.000144903
0.000152213
0.00015566
0.000161016
0.000172568
0.000195227
0.000235257
0.000267147
0.000287926
0.000300019
0.000302492
0.00028974
0.000257251
0.000218234
0.000188986
0.000168902
0.000158686
0.000157343
0.000157542
0.000152742
0.000132261
0.000112679
9.60682e-05
0.000109373
0.000290182
0.000691904
0.000750651
0.000759755
0.000716061
0.000737444
0.00072219
0.000747075
0.000661154
0.000693877
0.000650135
0.00069242
0.000636804
0.00067982
0.000560087
0.00059757
0.000552266
0.00058485
0.000547772
0.000578188
0.000551657
0.00057793
0.000557326
0.000580327
0.000565889
0.000586559
0.000537644
0.000559244
0.000574268
0.000584165
0.000507702
0.000541873
0.000567538
0.000582361
0.000566176
0.000472702
0.000428773
0.000485596
0.000518887
0.000430993
0.000224899
0.00019418
0.000341317
0.000423221
0.000429809
0.00032337
2.69037e-05
0.000162957
0.000130425
6.41929e-05
4.88881e-06
1.13824e-05
1.32972e-05
1.9198e-05
2.42952e-05
0.000159283
0.00014249
0.000128496
0.000136369
0.000147685
0.000155811
0.000159758
0.000165741
0.000178573
0.000202741
0.000242599
0.00027365
0.000294433
0.000309234
0.00032417
0.000318758
0.000290105
0.000253728
0.000215562
0.000188341
0.000172629
0.000168802
0.00016647
0.000162094
0.00014633
0.000126162
0.000108796
0.000112921
0.000236572
0.000684153
0.000799207
0.000798379
0.000820636
0.000768169
0.000787065
0.00078101
0.000799604
0.0007272
0.000758395
0.000721243
0.000750802
0.000695551
0.000723742
0.000623457
0.000662845
0.000611618
0.000641907
0.00060138
0.000619946
0.000594874
0.000601797
0.00059188
0.000590917
0.000589734
0.000590724
0.000589691
0.000585597
0.000583142
0.000590662
0.000592214
0.000552928
0.000576646
0.000590793
0.000593953
0.000589682
0.000529237
0.000489644
0.000536113
0.00056233
0.000491816
0.000299059
0.00026827
0.000410914
0.000489985
0.000483076
0.000393261
4.63612e-05
0.000230091
0.00016348
9.07146e-05
2.08127e-06
2.07127e-05
3.98347e-05
4.52183e-05
6.29969e-05
0.00016418
0.000139538
0.000138326
0.0001503
0.000159355
0.000164317
0.000171081
0.000185698
0.000212498
0.000254598
0.000286478
0.000307212
0.000325131
0.000347767
0.000348911
0.000330015
0.000292483
0.000252228
0.000216215
0.000194863
0.000184406
0.000178663
0.000172688
0.000162764
0.000143361
0.000122515
0.000121343
0.000192706
0.000656951
0.000802435
0.000877124
0.000882963
0.000850115
0.000867968
0.000816096
0.000832501
0.000793318
0.000808429
0.000768034
0.000781083
0.000741158
0.000759862
0.00070625
0.000725605
0.000664352
0.000682985
0.000633516
0.000644082
0.000605822
0.00061055
0.000587182
0.000584179
0.000581479
0.000575788
0.000571083
0.000566921
0.000589505
0.000583847
0.000577429
0.000570214
0.000592777
0.000589315
0.000581923
0.000583535
0.000593264
0.000590437
0.000583874
0.000592853
0.000569018
0.000539804
0.000572938
0.000588078
0.000540916
0.000368694
0.000333586
0.000471489
0.00053837
0.000531784
0.000454001
7.46297e-05
0.000257883
0.000198465
0.000122909
1.47119e-06
7.83119e-05
2.28708e-05
8.05406e-05
0.000105436
0.000164922
0.00014344
0.000152547
0.000163113
0.000168926
0.000176973
0.00019388
0.000224378
0.000270973
0.00030499
0.000326303
0.00034862
0.00037793
0.000389993
0.00038081
0.000352066
0.000306629
0.000263133
0.000225165
0.000201035
0.000190799
0.000183966
0.000173499
0.000160909
0.000138787
0.000131167
0.000160073
0.000570273
0.000781862
0.000938795
0.000924287
0.000962861
0.00086689
0.0008952
0.000824825
0.000843454
0.000761695
0.000766186
0.000765317
0.000765698
0.000726387
0.000712891
0.000673857
0.00065758
0.000660785
0.000672071
0.000615581
0.000618719
0.000583174
0.000579853
0.000563488
0.000560844
0.000558252
0.000558229
0.000563882
0.000558355
0.000554095
0.000551062
0.000573121
0.000563883
0.000555656
0.000549135
0.000581636
0.000570299
0.000558495
0.000594279
0.00058872
0.000570331
0.000556768
0.000574539
0.000590449
0.000575042
0.000591555
0.000593483
0.000575055
0.000425284
0.000354001
0.000520685
0.000572463
0.000566747
0.000495641
0.000111446
0.000289117
0.0002433
0.000165933
4.34133e-06
9.10817e-05
4.5745e-05
0.000124943
0.000126055
0.00016082
0.000154935
0.000166164
0.000174304
0.00018278
0.000203036
0.000238473
0.000291495
0.000329828
0.000353374
0.000380222
0.000417616
0.000439106
0.000436447
0.000414472
0.000380575
0.00033135
0.000271421
0.000215196
0.000195749
0.000192004
0.000184487
0.000171815
0.000157555
0.000140806
0.000139594
0.000434404
0.000775845
0.000933342
0.00102822
0.00105068
0.000936122
0.000984493
0.000839493
0.000887166
0.000778115
0.000799336
0.00061294
0.000614577
0.000676922
0.000636775
0.000616545
0.000552841
0.000564357
0.000516026
0.000613532
0.000596254
0.000571226
0.000557642
0.000547881
0.000541064
0.000549141
0.000547664
0.000546478
0.000544798
0.000544695
0.000542277
0.000541306
0.000541582
0.000547855
0.000539689
0.000534555
0.000532552
0.000555456
0.000541603
0.000530804
0.000583102
0.000564028
0.000538693
0.00052103
0.000541888
0.000591878
0.000591734
0.00059014
0.000577265
0.000591077
0.000432793
0.000375324
0.000537987
0.000589142
0.000557069
0.000485483
0.000165371
0.000327218
0.000298342
0.000227444
4.69227e-05
0.0001292
0.000145089
0.0001641
0.000142676
0.000163896
0.000171128
0.000178007
0.000190385
0.000211572
0.00025475
0.000315492
0.000360289
0.000387214
0.00041015
0.000430961
0.000444303
0.000441792
0.000430667
0.000408942
0.000379216
0.000329279
0.000246568
0.000210358
0.000198134
0.000194648
0.000182642
0.000164816
0.00014716
0.0001299
0.000342255
0.000770654
0.000910328
0.00112275
0.00104294
0.00111473
0.0009025
0.000980279
0.000744285
0.000822945
0.00063241
0.000673136
0.000378826
0.000389067
0.00047401
0.000407594
0.000448171
0.000357713
0.000463436
0.000411303
0.000535947
0.000504746
0.000528089
0.000509416
0.000543611
0.000542774
0.000533935
0.000539047
0.000542566
0.000543596
0.00054443
0.000544191
0.000532916
0.00053537
0.000538537
0.000526001
0.00052381
0.000521273
0.000522542
0.00052642
0.000523532
0.000513104
0.000508507
0.000553325
0.000526774
0.000504772
0.000485638
0.000503003
0.000571791
0.000588578
0.000567511
0.000543591
0.000587185
0.000439606
0.000399243
0.000514723
0.000555801
0.00052021
0.000479109
0.00023204
0.000367935
0.000351108
0.000293559
0.000282718
0.000197717
0.000315816
0.000199956
0.000185961
0.000174039
0.000186144
0.000194884
0.00022311
0.000269717
0.000343033
0.000395331
0.000424565
0.000436763
0.000438817
0.000428809
0.000409288
0.000393543
0.000379558
0.000368945
0.000351934
0.000324038
0.000260698
0.000217979
0.000207793
0.000192545
0.000170127
0.000151264
0.000128995
0.000279687
0.000759604
0.000882582
0.00113541
0.00118985
0.00123902
0.00103196
0.00111572
0.000831342
0.000935445
0.000616284
0.000723302
0.000426326
0.000514739
0.000211278
0.000215425
0.00027679
0.000227935
0.000340175
0.00025519
0.000410684
0.000359892
0.000482578
0.000449333
0.000525868
0.000515561
0.000492798
0.000495653
0.000497974
0.000518412
0.000504887
0.000510914
0.000499822
0.000491076
0.000492149
0.00050456
0.000484153
0.000467626
0.000455001
0.000508921
0.0004943
0.000466424
0.000442686
0.000495397
0.000493036
0.000464769
0.000512734
0.0004854
0.000477349
0.00045231
0.000466472
0.000535793
0.000564866
0.00052999
0.000500071
0.000543721
0.000449844
0.000424051
0.000493256
0.000510391
0.000484656
0.000473874
0.000295029
0.000405022
0.000397904
0.000351231
0.000544243
0.000244522
0.000371201
0.00026344
0.000241397
0.000189261
0.000203778
0.000230078
0.000288816
0.00036847
0.000435907
0.000463641
0.000469253
0.000467917
0.000462318
0.000453066
0.00043666
0.000398277
0.00036211
0.000336015
0.000318814
0.000303736
0.000271831
0.000233362
0.000208586
0.000180524
0.000157671
0.000135836
0.00022781
0.000701193
0.000849341
0.00110059
0.00134139
0.00118452
0.00127867
0.000976378
0.00108766
0.000728369
0.000855035
0.000473956
0.000599702
0.000251718
0.000354985
0.000144854
0.000151298
0.000190998
0.000156615
0.000290966
0.000214422
0.000374491
0.000324086
0.000458096
0.000418143
0.000525093
0.000513188
0.000485356
0.000467391
0.00043397
0.000438719
0.000457801
0.0004452
0.000444248
0.000437499
0.000433017
0.000432392
0.00042418
0.000410418
0.000400764
0.000394018
0.000432243
0.000405041
0.000384428
0.000370464
0.0004501
0.000410858
0.000377724
0.000468642
0.00044758
0.00040887
0.000377258
0.000420562
0.000489364
0.000524359
0.000481269
0.000453369
0.000491278
0.000458769
0.000446139
0.000467829
0.000465592
0.000450198
0.000459696
0.00037066
0.000439602
0.000454971
0.000421282
0.000494133
0.000249477
0.000415711
0.000371694
0.000250919
0.000205059
0.000236636
0.000300203
0.000399646
0.000473934
0.000509856
0.000518292
0.000551577
0.000608669
0.000661214
0.000660493
0.000599101
0.000500548
0.000401976
0.000334566
0.00029984
0.000281732
0.000269301
0.000245501
0.000209799
0.000169732
0.000147115
0.000184535
0.000537064
0.000782001
0.00101469
0.0013557
0.00133944
0.00140726
0.00113481
0.00124336
0.000876789
0.00101123
0.00059204
0.000735307
0.00032119
0.000451957
0.000169234
0.000213482
0.000123262
0.000121255
0.00016381
0.000136881
0.00026144
0.000198889
0.000355458
0.000309069
0.000451715
0.000432029
0.000396675
0.000476798
0.000499417
0.000461393
0.000447401
0.000393638
0.000401281
0.000429115
0.000411647
0.0003892
0.000387206
0.000387031
0.000389505
0.000362858
0.000359194
0.000358254
0.000358871
0.000354771
0.000339974
0.000332561
0.000330683
0.000369228
0.000339426
0.000319962
0.000429109
0.000394928
0.000341106
0.000323358
0.000354915
0.000440162
0.000457642
0.000416858
0.000411391
0.000429898
0.000456357
0.000459808
0.000442828
0.000417126
0.000415381
0.000441845
0.000500103
0.00047572