/*--------------------------------*- C++ -*----------------------------------*\
  =========                 |
  \\      /  F ield         | OpenFOAM: The Open Source CFD Toolbox
   \\    /   O peration     | Website:  https://openfoam.org
    \\  /    A nd           | Version:  dev
     \\/     M anipulation  |
\*---------------------------------------------------------------------------*/
FoamFile
{
    version     2.0;
    format      ascii;
    class       volScalarField;
    location    "2500";
    object      O2;
}
// * * * * * * * * * * * * * * * * * * * * * * * * * * * * * * * * * * * * * //

dimensions      [0 0 0 0 0 0 0];

internalField   nonuniform List<scalar> 
9842
(
0.23301
0.23301
0.23301
0.23301
0.23301
0.23301
0.23301
0.23301
0.23301
0.23301
0.23301
0.23301
0.23301
0.23301
0.23301
0.23301
0.23301
0.23301
0.23301
0.23301
0.23301
0.23301
0.23301
0.23301
0.23301
0.23301
0.23301
0.23301
0.23301
0.23301
0.23301
0.23301
0.23301
0.23301
0.23301
0.23301
0.23301
0.23301
0.23301
0.23301
0.23301
0.23301
0.23301
0.23301
0.23301
0.23301
0.23301
0.23301
0.23301
0.23301
0.23301
0.23301
0.23301
0.23301
0.23301
0.23301
0.23301
0.23301
0.23301
0.23301
0.23301
0.23301
0.23301
0.23301
0.23301
0.23301
0.23301
0.23301
0.23301
0.23301
0.23301
0.23301
0.23301
0.23301
0.23301
0.23301
0.23301
0.23301
0.23301
0.23301
0.23301
0.23301
0.23301
0.23301
0.23301
0.23301
0.23301
0.23301
0.23301
0.23301
0.23301
0.23301
0.23301
0.23301
0.23301
0.23301
0.23301
0.23301
0.23301
0.23301
0.23301
0.23301
0.23301
0.23301
0.23301
0.23301
0.23301
0.23301
0.23301
0.23301
0.23301
0.23301
0.23301
0.23301
0.23301
0.23301
0.23301
0.23301
0.23301
0.23301
0.23301
0.23301
0.23301
0.23301
0.23301
0.23301
0.23301
0.23301
0.23301
0.23301
0.23301
0.23301
0.23301
0.23301
0.23301
0.23301
0.23301
0.23301
0.23301
0.23301
0.23301
0.23301
0.23301
0.23301
0.23301
0.23301
0.23301
0.23301
0.23301
0.23301
0.23301
0.23301
0.23301
0.23301
0.23301
0.23301
0.23301
0.23301
0.23301
0.23301
0.23301
0.23301
0.23301
0.23301
0.23301
0.23301
0.23301
0.23301
0.23301
0.23301
0.23301
0.23301
0.23301
0.23301
0.23301
0.23301
0.23301
0.23301
0.23301
0.23301
0.23301
0.23301
0.23301
0.23301
0.23301
0.23301
0.23301
0.23301
0.23301
0.23301
0.23301
0.23301
0.23301
0.23301
0.23301
0.23301
0.23301
0.23301
0.23301
0.23301
0.23301
0.23301
0.23301
0.23301
0.23301
0.23301
0.23301
0.23301
0.23301
0.23301
0.23301
0.23301
0.23301
0.23301
0.23301
0.23301
0.23301
0.23301
0.23301
0.23301
0.23301
0.23301
0.23301
0.23301
0.23301
0.23301
0.23301
0.23301
0.23301
0.23301
0.23301
0.23301
0.23301
0.23301
0.23301
0.23301
0.23301
0.23301
0.23301
0.23301
0.23301
0.23301
0.23301
0.23301
0.23301
0.23301
0.23301
0.23301
0.23301
0.23301
0.23301
0.23301
0.23301
0.23301
0.23301
0.23301
0.23301
0.23301
0.23301
0.23301
0.23301
0.23301
0.23301
0.23301
0.23301
0.23301
0.23301
0.23301
0.23301
0.23301
0.23301
0.23301
0.23301
0.23301
0.23301
0.23301
0.23301
0.23301
0.23301
0.23301
0.23301
0.23301
0.23301
0.23301
0.23301
0.23301
0.23301
0.23301
0.23301
0.23301
0.23301
0.23301
0.23301
0.23301
0.23301
0.23301
0.23301
0.23301
0.23301
0.23301
0.23301
0.23301
0.23301
0.23301
0.23301
0.23301
0.23301
0.23301
0.23301
0.23301
0.23301
0.23301
0.23301
0.23301
0.23301
0.23301
0.23301
0.23301
0.23301
0.23301
0.23301
0.23301
0.23301
0.23301
0.23301
0.23301
0.23301
0.23301
0.23301
0.23301
0.23301
0.23301
0.23301
0.23301
0.23301
0.23301
0.23301
0.23301
0.23301
0.23301
0.23301
0.23301
0.23301
0.23301
0.23301
0.23301
0.23301
0.23301
0.23301
0.23301
0.23301
0.23301
0.23301
0.23301
0.23301
0.23301
0.23301
0.23301
0.23301
0.23301
0.23301
0.23301
0.23301
0.23301
0.23301
0.23301
0.23301
0.23301
0.23301
0.23301
0.23301
0.23301
0.23301
0.23301
0.23301
0.23301
0.23301
0.23301
0.23301
0.23301
0.23301
0.23301
0.23301
0.23301
0.23301
0.23301
0.23301
0.23301
0.23301
0.23301
0.23301
0.23301
0.23301
0.23301
0.23301
0.23301
0.23301
0.23301
0.23301
0.23301
0.23301
0.23301
0.23301
0.23301
0.23301
0.23301
0.23301
0.23301
0.23301
0.23301
0.23301
0.23301
0.23301
0.23301
0.23301
0.23301
0.23301
0.23301
0.23301
0.23301
0.23301
0.23301
0.23301
0.23301
0.23301
0.23301
0.23301
0.23301
0.23301
0.23301
0.23301
0.23301
0.23301
0.23301
0.23301
0.23301
0.23301
0.23301
0.23301
0.23301
0.23301
0.23301
0.23301
0.23301
0.23301
0.23301
0.23301
0.23301
0.23301
0.23301
0.23301
0.23301
0.23301
0.23301
0.23301
0.23301
0.23301
0.23301
0.23301
0.23301
0.23301
0.23301
0.23301
0.23301
0.23301
0.23301
0.23301
0.23301
0.23301
0.23301
0.23301
0.23301
0.23301
0.23301
0.23301
0.23301
0.23301
0.23301
0.23301
0.23301
0.23301
0.23301
0.23301
0.23301
0.23301
0.23301
0.23301
0.23301
0.23301
0.23301
0.23301
0.23301
0.23301
0.23301
0.23301
0.23301
0.23301
0.23301
0.23301
0.23301
0.23301
0.23301
0.23301
0.23301
0.23301
0.23301
0.23301
0.23301
0.23301
0.23301
0.23301
0.23301
0.23301
0.23301
0.23301
0.23301
0.23301
0.23301
0.23301
0.23301
0.23301
0.23301
0.23301
0.23301
0.23301
0.23301
0.23301
0.23301
0.23301
0.23301
0.23301
0.23301
0.23301
0.23301
0.23301
0.23301
0.23301
0.23301
0.23301
0.23301
0.23301
0.23301
0.23301
0.23301
0.23301
0.23301
0.23301
0.23301
0.23301
0.23301
0.23301
0.23301
0.23301
0.23301
0.23301
0.23301
0.23301
0.23301
0.23301
0.23301
0.23301
0.23301
0.23301
0.23301
0.23301
0.23301
0.23301
0.23301
0.23301
0.23301
0.23301
0.23301
0.23301
0.23301
0.23301
0.23301
0.23301
0.23301
0.23301
0.23301
0.23301
0.23301
0.23301
0.23301
0.23301
0.23301
0.23301
0.23301
0.23301
0.23301
0.23301
0.23301
0.23301
0.23301
0.23301
0.23301
0.23301
0.23301
0.23301
0.23301
0.23301
0.23301
0.23301
0.23301
0.23301
0.23301
0.23301
0.23301
0.23301
0.23301
0.23301
0.23301
0.23301
0.23301
0.23301
0.23301
0.23301
0.23301
0.23301
0.23301
0.23301
0.23301
0.23301
0.23301
0.23301
0.23301
0.23301
0.23301
0.23301
0.23301
0.23301
0.23301
0.23301
0.23301
0.23301
0.23301
0.23301
0.23301
0.23301
0.23301
0.23301
0.23301
0.23301
0.23301
0.23301
0.23301
0.23301
0.23301
0.23301
0.23301
0.23301
0.23301
0.23301
0.23301
0.23301
0.23301
0.23301
0.23301
0.23301
0.23301
0.23301
0.23301
0.23301
0.23301
0.23301
0.23301
0.23301
0.23301
0.23301
0.23301
0.23301
0.23301
0.23301
0.23301
0.23301
0.23301
0.23301
0.23301
0.23301
0.23301
0.23301
0.23301
0.23301
0.23301
0.23301
0.23301
0.23301
0.23301
0.23301
0.23301
0.23301
0.23301
0.23301
0.23301
0.23301
0.23301
0.23301
0.23301
0.23301
0.23301
0.23301
0.23301
0.23301
0.23301
0.23301
0.23301
0.23301
0.23301
0.23301
0.23301
0.23301
0.23301
0.23301
0.23301
0.23301
0.23301
0.23301
0.23301
0.23301
0.23301
0.23301
0.23301
0.23301
0.23301
0.23301
0.23301
0.23301
0.23301
0.23301
0.23301
0.23301
0.23301
0.23301
0.23301
0.23301
0.23301
0.23301
0.23301
0.23301
0.23301
0.23301
0.23301
0.23301
0.23301
0.23301
0.23301
0.23301
0.23301
0.23301
0.23301
0.23301
0.23301
0.23301
0.23301
0.23301
0.23301
0.23301
0.23301
0.23301
0.23301
0.23301
0.23301
0.23301
0.23301
0.23301
0.23301
0.23301
0.23301
0.23301
0.23301
0.23301
0.23301
0.23301
0.23301
0.23301
0.23301
0.23301
0.23301
0.23301
0.23301
0.23301
0.23301
0.23301
0.23301
0.23301
0.23301
0.23301
0.23301
0.23301
0.23301
0.23301
0.23301
0.23301
0.23301
0.23301
0.23301
0.23301
0.23301
0.23301
0.23301
0.23301
0.23301
0.23301
0.23301
0.23301
0.23301
0.23301
0.23301
0.23301
0.23301
0.23301
0.23301
0.23301
0.23301
0.23301
0.23301
0.23301
0.23301
0.23301
0.23301
0.23301
0.23301
0.23301
0.23301
0.23301
0.23301
0.23301
0.23301
0.23301
0.23301
0.23301
0.23301
0.23301
0.23301
0.23301
0.23301
0.23301
0.23301
0.23301
0.23301
0.23301
0.23301
0.23301
0.23301
0.23301
0.23301
0.23301
0.23301
0.23301
0.23301
0.23301
0.23301
0.23301
0.23301
0.23301
0.23301
0.23301
0.23301
0.23301
0.23301
0.23301
0.23301
0.23301
0.23301
0.23301
0.23301
0.23301
0.23301
0.23301
0.23301
0.23301
0.23301
0.23301
0.23301
0.23301
0.23301
0.23301
0.23301
0.23301
0.23301
0.23301
0.23301
0.23301
0.23301
0.23301
0.23301
0.23301
0.23301
0.23301
0.23301
0.23301
0.23301
0.23301
0.23301
0.23301
0.23301
0.23301
0.23301
0.23301
0.23301
0.23301
0.23301
0.23301
0.23301
0.23301
0.23301
0.23301
0.23301
0.23301
0.23301
0.23301
0.23301
0.23301
0.23301
0.23301
0.23301
0.23301
0.23301
0.23301
0.23301
0.23301
0.23301
0.23301
0.23301
0.23301
0.23301
0.23301
0.23301
0.23301
0.23301
0.23301
0.23301
0.23301
0.23301
0.23301
0.23301
0.23301
0.23301
0.23301
0.23301
0.23301
0.23301
0.23301
0.23301
0.23301
0.23301
0.23301
0.23301
0.23301
0.23301
0.23301
0.23301
0.23301
0.23301
0.23301
0.23301
0.23301
0.23301
0.23301
0.23301
0.23301
0.23301
0.23301
0.23301
0.23301
0.23301
0.23301
0.23301
0.23301
0.23301
0.23301
0.23301
0.23301
0.23301
0.23301
0.23301
0.23301
0.23301
0.23301
0.23301
0.23301
0.23301
0.23301
0.23301
0.23301
0.23301
0.23301
0.23301
0.23301
0.23301
0.23301
0.23301
0.23301
0.23301
0.23301
0.23301
0.23301
0.23301
0.23301
0.23301
0.23301
0.23301
0.23301
0.23301
0.23301
0.23301
0.23301
0.23301
0.23301
0.23301
0.23301
0.23301
0.23301
0.23301
0.23301
0.23301
0.23301
0.23301
0.23301
0.23301
0.23301
0.23301
0.23301
0.23301
0.23301
0.23301
0.23301
0.23301
0.23301
0.23301
0.23301
0.23301
0.23301
0.23301
0.23301
0.23301
0.23301
0.23301
0.23301
0.23301
0.23301
0.23301
0.23301
0.23301
0.23301
0.23301
0.23301
0.23301
0.23301
0.23301
0.23301
0.23301
0.23301
0.23301
0.23301
0.23301
0.23301
0.23301
0.23301
0.23301
0.23301
0.23301
0.23301
0.23301
0.23301
0.23301
0.23301
0.23301
0.23301
0.23301
0.23301
0.23301
0.23301
0.23301
0.23301
0.23301
0.23301
0.23301
0.23301
0.23301
0.23301
0.23301
0.23301
0.23301
0.23301
0.23301
0.23301
0.23301
0.23301
0.23301
0.23301
0.23301
0.23301
0.23301
0.23301
0.23301
0.23301
0.23301
0.23301
0.23301
0.23301
0.23301
0.23301
0.23301
0.23301
0.23301
0.23301
0.23301
0.23301
0.23301
0.23301
0.23301
0.23301
0.23301
0.23301
0.23301
0.23301
0.23301
0.23301
0.23301
0.23301
0.23301
0.23301
0.23301
0.23301
0.23301
0.23301
0.23301
0.23301
0.23301
0.23301
0.23301
0.23301
0.23301
0.23301
0.23301
0.23301
0.23301
0.23301
0.23301
0.23301
0.23301
0.23301
0.23301
0.23301
0.23301
0.23301
0.23301
0.23301
0.23301
0.23301
0.23301
0.23301
0.23301
0.23301
0.23301
0.233008
0.23301
0.233009
0.233009
0.233009
0.233009
0.233008
0.233009
0.233008
0.233009
0.233008
0.233009
0.233008
0.23301
0.233009
0.23301
0.233009
0.23301
0.23301
0.23301
0.23301
0.23301
0.23301
0.23301
0.23301
0.23301
0.23301
0.23301
0.23301
0.23301
0.23301
0.23301
0.23301
0.23301
0.23301
0.23301
0.23301
0.23301
0.23301
0.23301
0.23301
0.23301
0.23301
0.23301
0.23301
0.23301
0.23301
0.23301
0.23301
0.23301
0.23301
0.23301
0.23301
0.23301
0.23301
0.23301
0.23301
0.23301
0.23301
0.233003
0.232994
0.232976
0.233007
0.233002
0.233006
0.233
0.233005
0.232998
0.233005
0.232997
0.233005
0.232998
0.233007
0.233
0.233008
0.233003
0.233009
0.233006
0.23301
0.233009
0.23301
0.23301
0.23301
0.23301
0.23301
0.23301
0.23301
0.23301
0.23301
0.23301
0.23301
0.23301
0.23301
0.23301
0.23301
0.23301
0.23301
0.23301
0.23301
0.23301
0.23301
0.23301
0.23301
0.23301
0.23301
0.23301
0.23301
0.23301
0.23301
0.23301
0.23301
0.23301
0.23301
0.23301
0.23301
0.23301
0.23301
0.23301
0.23301
0.233008
0.232999
0.232953
0.232916
0.232902
0.232812
0.232986
0.232954
0.23298
0.232938
0.232977
0.232929
0.232977
0.232925
0.232981
0.232932
0.232988
0.232947
0.232996
0.232965
0.233004
0.232985
0.233008
0.233
0.233008
0.23301
0.233008
0.233009
0.23301
0.23301
0.23301
0.23301
0.23301
0.23301
0.23301
0.23301
0.23301
0.23301
0.23301
0.23301
0.23301
0.23301
0.23301
0.23301
0.23301
0.23301
0.23301
0.23301
0.23301
0.23301
0.23301
0.23301
0.23301
0.23301
0.23301
0.23301
0.23301
0.23301
0.23301
0.23301
0.23301
0.23301
0.23301
0.233007
0.232958
0.232859
0.232907
0.232709
0.232558
0.232514
0.232287
0.23285
0.232706
0.232823
0.232625
0.23281
0.232582
0.232816
0.232571
0.232841
0.232607
0.232879
0.232679
0.232925
0.232764
0.232968
0.232864
0.232998
0.232949
0.232996
0.23301
0.232998
0.233003
0.23301
0.23301
0.23301
0.23301
0.23301
0.23301
0.23301
0.23301
0.23301
0.23301
0.23301
0.23301
0.23301
0.23301
0.23301
0.23301
0.23301
0.23301
0.23301
0.23301
0.23301
0.23301
0.23301
0.23301
0.23301
0.23301
0.23301
0.23301
0.23301
0.23301
0.23301
0.23301
0.23301
0.23301
0.23301
0.233007
0.23294
0.232366
0.232445
0.232163
0.23204
0.231789
0.231721
0.23138
0.232361
0.232053
0.232276
0.231901
0.232228
0.231814
0.23222
0.231758
0.232272
0.231756
0.232401
0.231827
0.232592
0.23201
0.232783
0.232359
0.232933
0.232695
0.232927
0.233007
0.232938
0.232963
0.23301
0.233009
0.23301
0.23301
0.23301
0.23301
0.23301
0.23301
0.23301
0.23301
0.23301
0.23301
0.23301
0.23301
0.23301
0.23301
0.23301
0.23301
0.23301
0.23301
0.23301
0.23301
0.23301
0.23301
0.23301
0.23301
0.23301
0.23301
0.23301
0.23301
0.23301
0.23301
0.23301
0.23301
0.233008
0.232942
0.232327
0.231154
0.230988
0.231554
0.231325
0.231046
0.230736
0.230667
0.230264
0.231497
0.231077
0.231359
0.230872
0.23126
0.230731
0.231186
0.230601
0.231179
0.23051
0.231268
0.230492
0.231539
0.230624
0.232084
0.231039
0.232628
0.231823
0.232607
0.232988
0.232655
0.232762
0.23301
0.233002
0.23301
0.23301
0.23301
0.23301
0.23301
0.23301
0.23301
0.23301
0.23301
0.23301
0.23301
0.23301
0.23301
0.23301
0.23301
0.23301
0.23301
0.23301
0.23301
0.23301
0.23301
0.23301
0.23301
0.23301
0.23301
0.23301
0.23301
0.23301
0.23301
0.23301
0.23301
0.233009
0.232954
0.232335
0.230908
0.230986
0.230014
0.229872
0.230449
0.230204
0.229888
0.229556
0.229465
0.229037
0.230392
0.229909
0.23019
0.229648
0.23002
0.229435
0.229848
0.22922
0.229735
0.229023
0.229733
0.228904
0.229953
0.228953
0.230558
0.229331
0.231647
0.230161
0.231617
0.232898
0.231761
0.231951
0.232587
0.233009
0.232974
0.23301
0.23301
0.23301
0.23301
0.23301
0.23301
0.23301
0.23301
0.23301
0.23301
0.23301
0.23301
0.23301
0.23301
0.23301
0.23301
0.23301
0.23301
0.23301
0.23301
0.23301
0.23301
0.23301
0.23301
0.23301
0.23301
0.23301
0.23301
0.23301
0.23301
0.233009
0.232973
0.232381
0.230344
0.229815
0.229634
0.228912
0.228887
0.229256
0.22905
0.22868
0.228418
0.228238
0.227952
0.229136
0.228653
0.228873
0.228363
0.228635
0.228098
0.228376
0.227822
0.228175
0.227554
0.228092
0.22737
0.228236
0.227349
0.228813
0.227656
0.229931
0.228513
0.229213
0.230804
0.229908
0.232285
0.23281
0.232436
0.2311
0.230107
0.230032
0.231344
0.233008
0.233004
0.232668
0.232824
0.232969
0.23301
0.233008
0.233009
0.233008
0.23301
0.23301
0.23301
0.23301
0.23301
0.23301
0.23301
0.23301
0.23301
0.23301
0.23301
0.23301
0.23301
0.23301
0.23301
0.23301
0.23301
0.23301
0.23301
0.23301
0.23301
0.23301
0.23301
0.23301
0.23301
0.23301
0.23301
0.23301
0.232991
0.232504
0.230477
0.229022
0.229173
0.22891
0.228949
0.228399
0.22851
0.228312
0.228332
0.227845
0.227882
0.227432
0.227458
0.227899
0.22758
0.227631
0.227275
0.227357
0.226989
0.227051
0.226674
0.226792
0.226354
0.226647
0.226108
0.227291
0.226878
0.226534
0.226187
0.227936
0.227341
0.226685
0.226378
0.226861
0.228472
0.22914
0.228336
0.227787
0.229144
0.231622
0.231978
0.230345
0.229378
0.229217
0.230619
0.232997
0.232321
0.232622
0.23293
0.23301
0.233006
0.233008
0.233004
0.233003
0.23301
0.23301
0.23301
0.23301
0.23301
0.23301
0.23301
0.23301
0.23301
0.23301
0.23301
0.23301
0.23301
0.23301
0.23301
0.23301
0.23301
0.23301
0.23301
0.23301
0.23301
0.23301
0.23301
0.23301
0.23301
0.23301
0.23301
0.232999
0.232673
0.230779
0.229115
0.228845
0.228898
0.228629
0.228728
0.22839
0.228619
0.227989
0.228175
0.227569
0.227801
0.22714
0.227349
0.227063
0.227052
0.226748
0.226657
0.226416
0.226273
0.226052
0.225875
0.225716
0.225456
0.225914
0.225652
0.22545
0.225264
0.226267
0.225917
0.225613
0.227194
0.22666
0.22599
0.225755
0.226185
0.227672
0.22835
0.227625
0.227059
0.228386
0.230968
0.231375
0.229614
0.228492
0.228675
0.229922
0.232978
0.231828
0.232291
0.232832
0.23301
0.233004
0.232995
0.232989
0.232979
0.23301
0.23301
0.23301
0.23301
0.23301
0.23301
0.23301
0.23301
0.23301
0.23301
0.23301
0.23301
0.23301
0.23301
0.23301
0.23301
0.23301
0.23301
0.23301
0.23301
0.23301
0.23301
0.23301
0.23301
0.23301
0.23301
0.233003
0.232808
0.23122
0.229291
0.229251
0.229236
0.229137
0.229198
0.228834
0.229005
0.228978
0.229354
0.228139
0.228554
0.227718
0.228236
0.227181
0.22766
0.226703
0.226865
0.22627
0.226356
0.225817
0.225844
0.225318
0.225298
0.225128
0.225014
0.224937
0.224884
0.225357
0.225141
0.224968
0.22483
0.225637
0.225328
0.225064
0.226503
0.226
0.225379
0.225145
0.225547
0.226975
0.227631
0.226942
0.226383
0.22769
0.230306
0.230759
0.228928
0.227818
0.228018
0.229257
0.232921
0.231263
0.231776
0.232622
0.23301
0.232972
0.233003
0.232936
0.232916
0.23301
0.23301
0.23301
0.23301
0.23301
0.23301
0.23301
0.23301
0.23301
0.23301
0.23301
0.233009
0.233009
0.233009
0.233009
0.233009
0.233009
0.233009
0.23301
0.23301
0.23301
0.23301
0.23301
0.23301
0.23301
0.233007
0.232898
0.23171
0.229556
0.229448
0.229934
0.229944
0.229946
0.229961
0.229646
0.229841
0.23006
0.230488
0.228856
0.229495
0.228296
0.229065
0.227506
0.228176
0.226589
0.226978
0.225961
0.226229
0.225343
0.225476
0.224857
0.224855
0.224868
0.224911
0.22473
0.224661
0.22462
0.224602
0.224848
0.224681
0.224565
0.224501
0.225055
0.224786
0.224577
0.225846
0.22536
0.224804
0.224574
0.224931
0.22631
0.22696
0.226285
0.225728
0.227037
0.229658
0.230108
0.228286
0.227182
0.227396
0.22862
0.232761
0.230598
0.231081
0.232172
0.233009
0.232946
0.232991
0.232777
0.232781
0.23301
0.23301
0.23301
0.23301
0.23301
0.23301
0.23301
0.23301
0.23301
0.233009
0.233008
0.233006
0.233005
0.233004
0.233005
0.233006
0.233007
0.233009
0.233009
0.23301
0.23301
0.23301
0.23301
0.23301
0.233008
0.232951
0.232136
0.229932
0.229323
0.230451
0.230173
0.230779
0.230618
0.230918
0.230882
0.230763
0.230901
0.23129
0.231655
0.229908
0.230688
0.229009
0.229991
0.227756
0.228557
0.226618
0.227119
0.225745
0.226112
0.224905
0.225141
0.224604
0.224621
0.224654
0.224703
0.224469
0.224459
0.224464
0.224478
0.224448
0.22439
0.224378
0.224385
0.224531
0.224357
0.224291
0.225201
0.224741
0.224311
0.224134
0.224369
0.225655
0.226311
0.225628
0.225078
0.226399
0.228995
0.22941
0.227664
0.226558
0.226767
0.227971
0.232362
0.229854
0.230277
0.231453
0.232972
0.232876
0.2329
0.232389
0.232498
0.23301
0.23301
0.23301
0.23301
0.23301
0.23301
0.23301
0.233009
0.233007
0.233002
0.232995
0.232989
0.232988
0.232991
0.232996
0.233001
0.233005
0.233007
0.233009
0.23301
0.23301
0.23301
0.23301
0.233009
0.23298
0.232464
0.230461
0.229317
0.230135
0.230976
0.230784
0.231449
0.231226
0.231777
0.231642
0.231815
0.231831
0.232315
0.23249
0.231017
0.231848
0.229582
0.230785
0.227858
0.228768
0.226582
0.227154
0.225479
0.225928
0.224745
0.22487
0.22519
0.225011
0.224499
0.224533
0.224582
0.224648
0.224405
0.224433
0.224464
0.224498
0.224292
0.22433
0.224397
0.22448
0.224194
0.224188
0.224254
0.224578
0.22419
0.224073
0.223968
0.223982
0.224997
0.225656
0.22496
0.224448
0.225747
0.228315
0.228693
0.22702
0.2259
0.226105
0.227315
0.23163
0.229085
0.229445
0.230596
0.232452
0.232639
0.232424
0.231688
0.231881
0.23301
0.23301
0.23301
0.23301
0.23301
0.23301
0.233008
0.233001
0.232985
0.23296
0.232935
0.232926
0.232935
0.232956
0.232976
0.232991
0.233
0.233005
0.233008
0.233009
0.23301
0.23301
0.233009
0.232993
0.232693
0.231117
0.229387
0.229704
0.230843
0.230541
0.231366
0.231109
0.231872
0.231626
0.232297
0.232098
0.232506
0.232446
0.232756
0.232825
0.231882
0.2325
0.229959
0.231305
0.22791
0.228955
0.226456
0.227101
0.225388
0.225629
0.226109
0.224853
0.225
0.225391
0.225178
0.224537
0.224586
0.22465
0.224737
0.224558
0.224624
0.224679
0.224728
0.224386
0.224556
0.224724
0.224869
0.224127
0.224299
0.224558
0.224033
0.22385
0.224109
0.224118
0.223877
0.224354
0.224977
0.224298
0.223902
0.225057
0.227644
0.227994
0.226365
0.225205
0.225422
0.226668
0.230713
0.228342
0.228635
0.229679
0.230256
0.231923
0.230478
0.230676
0.230564
0.23301
0.23301
0.23301
0.23301
0.233009
0.233005
0.232989
0.232948
0.232872
0.232785
0.232735
0.232741
0.232801
0.232874
0.232933
0.232971
0.232993
0.233002
0.233007
0.233009
0.23301
0.233009
0.232998
0.232834
0.231739
0.229636
0.229434
0.230295
0.231098
0.230856
0.231629
0.231366
0.232128
0.231886
0.23255
0.232352
0.232808
0.232717
0.232873
0.232926
0.23226
0.232705
0.230303
0.231598
0.228423
0.229507
0.226735
0.227504
0.225632
0.2259
0.226711
0.227035
0.225204
0.22539
0.225855
0.225608
0.22478
0.224847
0.224935
0.225053
0.224982
0.225065
0.22513
0.225192
0.224849
0.225128
0.225361
0.225535
0.224412
0.224812
0.225249
0.223724
0.223785
0.224552
0.224679
0.224121
0.223795
0.224291
0.223712
0.223602
0.224355
0.226997
0.227335
0.225702
0.224494
0.224718
0.226026
0.229695
0.227648
0.227891
0.228787
0.229384
0.229989
0.22835
0.229467
0.228967
0.23301
0.23301
0.23301
0.233009
0.233001
0.232969
0.232881
0.232703
0.232477
0.232295
0.232243
0.232335
0.232529
0.232732
0.23287
0.232948
0.232984
0.233001
0.233007
0.233009
0.233009
0.233003
0.232913
0.232175
0.230134
0.229358
0.229815
0.230793
0.230513
0.231323
0.231061
0.231851
0.231589
0.232337
0.232103
0.232722
0.232546
0.232923
0.232858
0.232884
0.232946
0.232365
0.232731
0.23069
0.231692
0.228936
0.229709
0.227316
0.227648
0.228178
0.226124
0.226414
0.227066
0.22729
0.225822
0.226034
0.226477
0.226257
0.225264
0.225359
0.225483
0.225637
0.225653
0.225734
0.225803
0.225879
0.22566
0.225993
0.226225
0.22637
0.225105
0.225697
0.226239
0.223675
0.224082
0.225375
0.225554
0.224747
0.223479
0.223658
0.223355
0.223536
0.223672
0.226371
0.226709
0.22502
0.223774
0.224002
0.22537
0.228728
0.227013
0.227246
0.228002
0.231574
0.228046
0.228214
0.228395
0.227795
0.23301
0.23301
0.233009
0.232997
0.232946
0.232787
0.232472
0.232069
0.231763
0.231648
0.231715
0.231927
0.232235
0.232567
0.23281
0.232927
0.232981
0.233
0.233007
0.233009
0.233006
0.232956
0.232453
0.230695
0.229395
0.229498
0.230257
0.231031
0.230789
0.231564
0.231297
0.232091
0.23183
0.23256
0.232337
0.232888
0.232749
0.232966
0.232951
0.232825
0.232939
0.232297
0.232618
0.230611
0.231288
0.227992
0.228334
0.228331
0.227517
0.227775
0.22773
0.227462
0.226684
0.22687
0.226924
0.22701
0.22649
0.226581
0.226728
0.226652
0.22597
0.226087
0.226221
0.226361
0.226455
0.226517
0.226577
0.226636
0.226659
0.226935
0.227082
0.227151
0.226103
0.22675
0.227237
0.223977
0.224712
0.226374
0.226459
0.225593
0.223367
0.223232
0.223165
0.223784
0.223144
0.225743
0.226108
0.224314
0.223125
0.223275
0.224696
0.227909
0.226442
0.226677
0.227335
0.232381
0.227197
0.228928
0.227578
0.227074
0.23301
0.233008
0.232995
0.232924
0.2327
0.232232
0.231672
0.231257
0.231093
0.231135
0.231331
0.231645
0.232035
0.232442
0.232774
0.232926
0.232982
0.233001
0.233007
0.233006
0.232979
0.232638
0.231217
0.229539
0.229297
0.229808
0.230795
0.230524
0.231315
0.231054
0.231853
0.231583
0.232371
0.232117
0.232795
0.2326
0.232967
0.232916
0.232979
0.232986
0.232647
0.232896
0.231767
0.232232
0.229076
0.229741
0.226613
0.226905
0.225647
0.226116
0.227135
0.227287
0.226333
0.226102
0.226786
0.226845
0.225868
0.225829
0.226637
0.226536
0.226261
0.22642
0.226686
0.226714
0.226708
0.226685
0.227172
0.227164
0.227132
0.227046
0.227538
0.22766
0.227678
0.227645
0.227093
0.227625
0.227936
0.224547
0.22545
0.2272
0.227041
0.226319
0.223503
0.222964
0.223125
0.224215
0.222782
0.225116
0.225543
0.223601
0.222639
0.222628
0.22403
0.227246
0.225911
0.226182
0.226781
0.232592
0.22701
0.22914
0.22699
0.226678
0.233009
0.232995
0.232915
0.232626
0.232037
0.231325
0.230826
0.23064
0.230673
0.230847
0.23113
0.231514
0.231966
0.232419
0.232781
0.232933
0.232986
0.233003
0.233005
0.232987
0.23276
0.231681
0.229863
0.229223
0.22947
0.230321
0.231131
0.230883
0.231664
0.231396
0.232199
0.231933
0.232681
0.23245
0.23294
0.232854
0.232996
0.232979
0.232979
0.232998
0.232322
0.232813
0.230535
0.231479
0.226539
0.227112
0.227283
0.224879
0.225253
0.224378
0.224836
0.225853
0.225942
0.224549
0.224283
0.2261
0.225968
0.224066
0.22398
0.225967
0.225607
0.22486
0.225226
0.226933
0.226777
0.226565
0.226292
0.227524
0.227361
0.227137
0.226854
0.228023
0.228009
0.227871
0.227642
0.227754
0.228086
0.228159
0.225094
0.225892
0.227574
0.22705
0.226547
0.223713
0.222756
0.223085
0.224494
0.222465
0.224516
0.224996
0.222912
0.222222
0.222123
0.22339
0.22674
0.225425
0.22574
0.226327
0.232673
0.226862
0.228936
0.226588
0.226435
0.232998
0.232913
0.232597
0.231888
0.231056
0.230495
0.23033
0.230376
0.230526
0.230768
0.231105
0.23152
0.231988
0.232446
0.232804
0.232948
0.232992
0.233003
0.232989
0.232834
0.232032
0.23022
0.229239
0.22927
0.229904
0.231104
0.231542
0.231255
0.23208
0.231812
0.232587
0.232338
0.232906
0.232789
0.23299
0.232963
0.233005
0.233001
0.232972
0.233001
0.231844
0.232699
0.228722
0.230377
0.225323
0.225796
0.226538
0.225745
0.223536
0.223947
0.223914
0.224311
0.223987
0.224088
0.223147
0.222781
0.224534
0.224261
0.222233
0.222202
0.224539
0.223993
0.223022
0.223475
0.226502
0.226085
0.22561
0.225089
0.22734
0.226966
0.226515
0.225994
0.228127
0.227932
0.227601
0.227156
0.227915
0.228048
0.228044
0.225202
0.225802
0.227464
0.22673
0.226337
0.223697
0.222516
0.222872
0.224369
0.222112
0.223922
0.224485
0.222258
0.221837
0.221673
0.222716
0.226361
0.224957
0.225363
0.225958
0.230356
0.22664
0.22741
0.226306
0.226233
0.23293
0.232593
0.231827
0.230863
0.230276
0.23013
0.23019
0.230347
0.23058
0.230864
0.231205
0.231616
0.232082
0.232526
0.232853
0.232964
0.232996
0.232988
0.23287
0.232253
0.230591
0.229305
0.229135
0.229577
0.230651
0.232045
0.231778
0.231783
0.232036
0.232544
0.232293
0.232879
0.232752
0.232982
0.232948
0.233005
0.232998
0.233007
0.233008
0.232959
0.233001
0.231417
0.23261
0.227467
0.229447
0.22474
0.225211
0.226179
0.225572
0.223137
0.223529
0.223959
0.224296
0.222277
0.222479
0.222727
0.222287
0.222655
0.222382
0.220977
0.221121
0.222872
0.222303
0.221414
0.221807
0.225415
0.22479
0.224141
0.223495
0.226627
0.226047
0.225417
0.224735
0.227863
0.227477
0.226896
0.226175
0.227693
0.227721
0.227546
0.224965
0.225417
0.226959
0.225873
0.225753
0.223335
0.222157
0.222448
0.223871
0.221746
0.223352
0.22395
0.221728
0.221454
0.221322
0.222069
0.22607
0.224546
0.22503
0.225654
0.226873
0.226249
0.226113
0.22608
0.226012
0.232649
0.231823
0.230774
0.230132
0.229996
0.23007
0.230265
0.23053
0.23081
0.231097
0.231419
0.231808
0.232247
0.232639
0.232895
0.232979
0.232983
0.232877
0.232353
0.230926
0.229458
0.229058
0.229347
0.23028
0.231734
0.232312
0.232594
0.232362
0.232559
0.232873
0.232755
0.232978
0.232942
0.233004
0.232996
0.233009
0.233007
0.233008
0.233009
0.232945
0.232999
0.231379
0.232608
0.226895
0.227815
0.229305
0.224662
0.225081
0.226231
0.225706
0.223263
0.223626
0.224524
0.224737
0.221432
0.221842
0.222842
0.222342
0.221138
0.220985
0.220384
0.220758
0.221506
0.221034
0.220383
0.220653
0.224041
0.223346
0.222679
0.222063
0.225411
0.224677
0.223932
0.223184
0.227108
0.226424
0.22556
0.224637
0.226993
0.226799
0.226283
0.224103
0.224158
0.225861
0.22389
0.224132
0.222921
0.221825
0.222295
0.223027
0.221384
0.222699
0.223468
0.221297
0.221121
0.220949
0.22148
0.225819
0.224147
0.22466
0.225363
0.228351
0.225876
0.225686
0.225864
0.225792
0.23193
0.230762
0.230057
0.229902
0.229977
0.230229
0.230538
0.230832
0.231105
0.231391
0.231698
0.232057
0.232439
0.232747
0.232932
0.232971
0.232873
0.23236
0.231111
0.229648
0.229046
0.229202
0.229986
0.231369
0.232709
0.232777
0.232895
0.232786
0.232886
0.23298
0.232947
0.233004
0.232996
0.233009
0.233007
0.23301
0.23301
0.233007
0.233009
0.23294
0.232997
0.231716
0.232677
0.227187
0.22796
0.230243
0.229216
0.224985
0.225299
0.22659
0.226147
0.224011
0.224303
0.225434
0.225518
0.221254
0.221796
0.223561
0.222924
0.22025
0.220258
0.220177
0.220689
0.220357
0.220029
0.219701
0.219804
0.222491
0.221847
0.221268
0.220774
0.223747
0.222956
0.222195
0.221489
0.225479
0.224578
0.223608
0.222683
0.225533
0.224886
0.223987
0.222986
0.222943
0.223554
0.22273
0.22286
0.222451
0.221656
0.221828
0.222411
0.221203
0.222044
0.222885
0.220896
0.220874
0.220675
0.220966
0.225577
0.223631
0.224334
0.225085
0.231249
0.225555
0.226076
0.22563
0.225535
0.230866
0.230037
0.229841
0.2299
0.230177
0.23054
0.230862
0.231154
0.231421
0.231698
0.231998
0.232339
0.232644
0.232868
0.232945
0.232851
0.232336
0.231122
0.229769
0.229057
0.229126
0.229778
0.231068
0.232539
0.232985
0.232944
0.232956
0.232985
0.232985
0.233005
0.232998
0.233009
0.233008
0.23301
0.23301
0.23301
0.23301
0.233007
0.233009
0.232946
0.232998
0.230546
0.23175
0.232422
0.232796
0.227703
0.228388
0.229728
0.225638
0.225836
0.227175
0.226805
0.22509
0.22532
0.22646
0.226451
0.221334
0.222135
0.2246
0.223743
0.219714
0.219841
0.220121
0.220731
0.219422
0.21929
0.219277
0.219249
0.220896
0.2204
0.219978
0.219658
0.221819
0.221094
0.220458
0.219974
0.223123
0.222286
0.221503
0.220852
0.222932
0.222321
0.221835
0.222494
0.222434
0.222577
0.222463
0.222427
0.221848
0.221271
0.221395
0.22196
0.220857
0.221425
0.222216
0.220641
0.220489
0.220314
0.220731
0.225323
0.223251
0.223906
0.224776
0.231434
0.225294
0.226368
0.22535
0.225226
0.230079
0.229816
0.229838
0.230091
0.230474
0.230816
0.231144
0.231437
0.231713
0.231992
0.232297
0.232588
0.232813
0.232891
0.232788
0.232247
0.231081
0.229774
0.229084
0.229105
0.229655
0.230852
0.232371
0.232958
0.233009
0.232997
0.233007
0.233008
0.233
0.233006
0.233006
0.233009
0.233008
0.23301
0.23301
0.23301
0.23301
0.23301
0.23301
0.233007
0.233009
0.232959
0.232999
0.231042
0.232086
0.232511
0.232891
0.22839
0.228996
0.230345
0.226473
0.226577
0.227926
0.227614
0.226237
0.226427
0.227489
0.227442
0.221577
0.222629
0.225649
0.224457
0.219381
0.219696
0.220136
0.220877
0.218965
0.218953
0.219075
0.218972
0.219618
0.219356
0.219162
0.219036
0.220267
0.219865
0.2195
0.219245
0.221094
0.22065
0.220136
0.219792
0.222424
0.222227
0.219618
0.222027
0.22046
0.220259
0.220547
0.220495
0.221557
0.220997
0.221125
0.220438
0.220545
0.220987
0.221763
0.220405
0.220308
0.220151
0.220568
0.224997
0.222583
0.22334
0.22436
0.232659
0.225178
0.227692
0.225034
0.22493
0.229826
0.229809
0.230013
0.230319
0.230608
0.23095
0.231313
0.231629
0.231925
0.232213
0.232489
0.232707
0.232771
0.232623
0.232038
0.230945
0.229742
0.229089
0.229109
0.229618
0.230725
0.232228
0.232934
0.233008
0.23301
0.23301
0.233009
0.23301
0.233009
0.233009
0.23301
0.23301
0.23301
0.23301
0.23301
0.23301