/*--------------------------------*- C++ -*----------------------------------*\
  =========                 |
  \\      /  F ield         | OpenFOAM: The Open Source CFD Toolbox
   \\    /   O peration     | Website:  https://openfoam.org
    \\  /    A nd           | Version:  dev
     \\/     M anipulation  |
\*---------------------------------------------------------------------------*/
FoamFile
{
    version     2.0;
    format      ascii;
    class       volScalarField;
    location    "2500";
    object      omega;
}
// * * * * * * * * * * * * * * * * * * * * * * * * * * * * * * * * * * * * * //

dimensions      [0 0 -1 0 0 0 0];

internalField   nonuniform List<scalar> 
9842
(
1.27762
1.28801
1.24274
1.19328
1.39391
1.12462
1.08486
1.39933
1.33105
1.05125
1.03653
1.35582
1.39941
1.19418
1.0309
1.01454
1.25279
1.42017
1.32872
1.10059
1.02121
1.00439
1.13875
1.40497
1.39391
1.19435
1.06322
1.0143
0.997594
1.07197
1.35579
1.41345
1.30073
1.10752
1.04492
1.00957
0.991555
1.03155
1.25842
1.4121
1.37135
1.17559
1.07029
1.03166
1.00638
0.98824
1.0082
1.15207
1.39131
1.399
1.26459
1.09952
1.05042
1.02202
1.0041
0.986851
0.995515
1.07795
1.33877
1.40536
1.34109
1.15222
1.06526
1.03615
1.0151
1.00234
0.988024
0.988901
1.03444
1.24939
1.40049
1.37947
1.22531
1.08698
1.04613
1.02577
1.0097
1.001
0.989407
0.981834
1.00882
1.14747
1.37701
1.3941
1.30298
1.12564
1.05542
1.03304
1.01729
1.00542
1.00014
0.989982
0.975831
0.991772
1.07432
1.32369
1.39818
1.35418
1.19018
1.07078
1.03795
1.0227
1.01051
1.00177
0.999182
0.989593
0.972514
0.980626
1.02908
1.23358
1.39237
1.38098
1.26213
1.10075
1.04397
1.02549
1.01409
1.00493
0.99919
0.998261
0.989045
0.972818
0.973742
1.00138
1.13136
1.36625
1.3908
1.32509
1.15433
1.05536
1.02776
1.01579
1.00715
1.00011
0.996595
0.997598
0.988968
0.97336
0.966706
0.984027
1.06281
1.30902
1.39474
1.362
1.22131
1.07797
1.03165
1.01612
1.00811
1.00149
0.996555
0.994385
0.997055
0.989284
0.972583
0.961047
0.97171
1.01896
1.2172
1.38751
1.38298
1.28606
1.12103
1.03957
1.01579
1.00802
1.00204
0.996872
0.993161
0.992512
0.996584
0.989691
0.970921
0.958832
0.96305
0.990975
1.11605
1.35916
1.39146
1.3382
1.18201
1.0563
1.01738
1.00564
1.00176
0.997066
0.992954
0.990117
0.990927
0.996155
0.989988
0.969161
0.957815
0.955339
0.973088
1.05009
1.29947
1.39545
1.36848
1.24495
1.09067
1.02271
1.00204
0.999212
0.996575
0.992712
0.9893
0.987384
0.989546
0.995764
0.990138
0.967982
0.956338
0.948085
0.959968
1.00749
1.20533
1.38684
1.38704
1.30247
1.14394
1.03571
1.00282
0.992419
0.993784
0.99185
0.988772
0.985872
0.984939
0.98832
0.995417
0.990183
0.9673
0.954108
0.942744
0.949882
0.979271
1.10609
1.35656
1.39663
1.34817
1.20444
1.06293
1.00667
0.987936
0.986701
0.988927
0.98761
0.985117
0.982626
0.982778
0.987202
0.995115
0.990232
0.96677
0.951576
0.939664
0.94078
0.960169
1.04064
1.29536
1.39989
1.37652
1.26306
1.10993
1.01685
0.988455
0.979424
0.982363
0.984518
0.983805
0.98155
0.979642
0.98082
0.986196
0.994848
0.990294
0.966193
0.949139
0.93734
0.931895
0.945973
0.997575
1.20247
1.39025
1.39393
1.31581
1.16512
1.03916
0.991551
0.97466
0.974536
0.978519
0.980784
0.980269
0.978074
0.976888
0.979031
0.985294
0.994621
0.990314
0.965602
0.947066
0.934738
0.924342
0.934259
0.968354
1.10669
1.35936
1.40456
1.35853
1.22184
1.07813
0.999838
0.974964
0.96739
0.971031
0.975426
0.977588
0.97674
0.974783
0.974348
0.977402
0.98448
0.994424
0.990262
0.965031
0.945188
0.931775
0.919096
0.924408
0.947636
1.03722
1.29877
1.40745
1.38627
1.27689
1.12786
1.01759
0.977371
0.962466
0.962903
0.968272
0.972879
0.974472
0.97331
0.971709
0.972005
0.975917
0.983768
0.994257
0.990165
0.964514
0.943277
0.928886
0.914965
0.915124
0.93182
0.992373
1.21094
1.39752
1.40306
1.32777
1.18095
1.05022
0.983956
0.962606
0.956185
0.960108
0.966269
0.970467
0.971381
0.970023
0.968814
0.969832
0.974587
0.983153
0.994131
0.990076
0.964042
0.941326
0.926203
0.910986
0.907306
0.919412
0.961044
1.11877
1.36797
1.41417
1.36914
1.2343
1.09202
0.998165
0.964468
0.951438
0.95227
0.958438
0.964565
0.968067
0.968287
0.966823
0.966023
0.967852
0.973429
0.982635
0.994032
0.990007
0.963529
0.939506
0.92358
0.907151
0.900376
0.90939
0.939117
1.04297
1.30951
1.41646
1.3966
1.28722
1.14051
1.02403
0.969666
0.95146
0.945899
0.950235
0.95722
0.962947
0.96559
0.965138
0.963633
0.963424
0.966089
0.972477
0.982271
0.993979
0.989926
0.962964
0.937878
0.920829
0.903669
0.893727
0.900834
0.922853
0.9958
1.23201
1.40699
1.41246
1.33788
1.1904
1.05924
0.980903
0.95292
0.941934
0.942844
0.94937
0.956307
0.961274
0.96288
0.961873
0.960596
0.96108
0.964618
0.971662
0.982104
0.993991
0.989832
0.962357
0.936321
0.918014
0.900482
0.88752
0.892866
0.909891
0.963472
1.14539
1.3806
1.42212
1.37814
1.24143
1.10052
1.001
0.957079
0.941663
0.93715
0.941604
0.948876
0.955578
0.959371
0.959902
0.958636
0.957707
0.958895
0.963474
0.971088
0.982016
0.994046
0.989731
0.961738
0.934797
0.9153
0.897157
0.881972
0.885098
0.899053
0.93987
1.06967
1.32811
1.42322
1.40399
1.29292
1.14657
1.02917
0.965797
0.942834
0.933878
0.93498
0.941296
0.948772
0.954634
0.957133
0.956797
0.955446
0.954972
0.957096
0.962487
0.970769
0.981976
0.994044
0.989648
0.961146
0.933322
0.912816
0.893544
0.877141
0.877652
0.889713
0.921782
1.01435
1.26058
1.41507
1.41818
1.34218
1.19369
1.06413
0.981189
0.946106
0.933364
0.93007
0.934598
0.941634
0.948871
0.953419
0.95457
0.953573
0.952334
0.95253
0.95575
0.962068
0.971228
0.982693
0.994383
0.989502
0.960517
0.931843
0.91053
0.889909
0.872878
0.8708
0.88135
0.907659
0.977789
1.18603
1.39218
1.42517
1.38127
1.24219
1.10333
1.00297
0.952907
0.9343
0.927356
0.929162
0.935029
0.942806
0.948906
0.951733
0.951592
0.950414
0.949553
0.950639
0.95494
0.962222
0.971908
0.983155
0.997694
0.992293
0.98932
0.95975
0.930296
0.908262
0.886472
0.868971
0.8649
0.873836
0.896489
0.951742
1.11446
1.34699
1.42508
1.40515
1.29099
1.14646
1.03031
0.964129
0.936853
0.926813
0.925402
0.929486
0.936646
0.944031
0.948561
0.949637
0.948593
0.947419
0.947263
0.949472
0.955216
0.963652
0.974005
0.986774
0.981734
0.997902
0.992623
0.989096
0.95881
0.928694
0.905926
0.883191
0.865165
0.859886
0.867265
0.887042
0.932534
1.05513
1.28892
1.41815
1.41786
1.33791
1.19049
1.06335
0.980051
0.942015
0.927565
0.92325
0.925503
0.931097
0.939032
0.945025
0.947662
0.947197
0.945604
0.944779
0.945573
0.948941
0.956257
0.967444
0.963375
0.977512
0.967941
0.973651
0.987237
0.982526
0.998062
0.993091
0.988833
0.957762
0.927031
0.903681
0.880092
0.861426
0.855626
0.861602
0.878959
0.920923
1.01029
1.22532
1.3983
1.42126
1.3765
1.23534
1.10075
1.00074
0.94961
0.92955
0.922683
0.923121
0.927008
0.934508
0.941446
0.945663
0.946168
0.944399
0.942307
0.941542
0.942903
0.948055
0.95917
0.9551
0.964544
0.978625
0.970254
0.97554
0.987753
0.983312
0.998323
0.993623
0.98837
0.956553
0.925338
0.901613
0.877201
0.858001
0.852129
0.856799
0.872045
0.911999
0.979382
1.16238
1.35864
1.42031
1.39824
1.2801
1.13998
1.02655
0.96042
0.932896
0.923095
0.922082
0.924501
0.930711
0.938185
0.943679
0.945844
0.944688
0.942234
0.940055
0.939673
0.942545
0.951253
0.947862
0.960724
0.957118
0.967102
0.9803
0.97267
0.978369
0.988371
0.984488
0.998671
0.994179
0.987789
0.955142
0.923646
0.899565
0.874496
0.855016
0.849222
0.852991
0.866216
0.903601
0.958843
1.1021
1.30904
1.41256
1.40963
1.32353
1.17952
1.05737
0.974901
0.937807
0.924028
0.922015
0.923349
0.928624
0.936001
0.942678
0.946175
0.945804
0.943074
0.940389
0.939426
0.941145
0.945123
0.94364
0.953121
0.94996
0.963776
0.960455
0.969687
0.98258
0.976448
0.981877
0.98915
0.986214
0.999064
0.994731
0.987158
0.953596
0.92193
0.897455
0.872052
0.852507
0.846823
0.850049
0.861656
0.895753
0.946476
1.05288
1.25274
1.39198
1.41008
1.3616
1.21941
1.09098
0.993657
0.9444
0.925636
0.922463
0.923357
0.927639
0.934635
0.941664
0.947031
0.948336
0.945531
0.942068
0.940338
0.941449
0.943117
0.943163
0.947608
0.946757
0.957052
0.954462
0.966444
0.96334
0.973862
0.985722
0.981165
0.986136
0.990283
0.988879
0.99937
0.995474
0.986454
0.951972
0.920143
0.895219
0.869744
0.850485
0.845045
0.847849
0.858394
0.889915
0.938288
1.01415
1.19451
1.35676
1.40613
1.38164
1.25954
1.12466
1.01744
0.953734
0.928022
0.923099
0.9238
0.927768
0.935002
0.942255
0.948706
0.952495
0.950698
0.946535
0.9433
0.943383
0.943564
0.945188
0.946519
0.946827
0.952888
0.952378
0.960844
0.959386
0.970764
0.968107
0.979458
0.989407
0.98697
0.99215
0.991859
0.991565
0.99966
0.996292
0.985692
0.950202
0.918232
0.892798
0.867405
0.848964
0.843975
0.84637
0.856345
0.88626
0.930981
0.987704
1.1396
1.31312
1.3941
1.39057
1.29988
1.16082
1.04446
0.966412
0.931069
0.923474
0.924383
0.928356
0.936087
0.943943
0.951699
0.957074
0.957649
0.954203
0.950636
0.948672
0.947064
0.95116
0.947786
0.950661
0.952376
0.953095
0.958829
0.958832
0.966643
0.96616
0.977017
0.975371
0.98705
0.993557
0.995506
1.00044
0.99358
0.994041
0.999881
0.996977
0.984988
0.948291
0.916111
0.890266
0.86511
0.848017
0.843662
0.845733
0.855627
0.884543
0.924754
0.969956
1.08885
1.26514
1.37183
1.38835
1.33358
1.19664
1.07357
0.98225
0.935231
0.923541
0.924711
0.929468
0.937998
0.946767
0.955645
0.962761
0.966737
0.965586
0.962023
0.960836
0.955469
0.962456
0.953589
0.960118
0.955034
0.95992
0.959369
0.961586
0.966235
0.966944
0.975015
0.975126
0.986311
0.985984
0.997401
0.998703
1.00713
1.01154
0.995102
0.99655
0.999975
0.997347
0.984431
0.9463
0.913832
0.887817
0.863046
0.847624
0.843993
0.846043
0.856322
0.884632
0.920071
0.957319
1.04673
1.21524
1.34169
1.37917
1.35416
1.23312
1.10441
1.00316
0.942089
0.923925
0.924446
0.929966
0.939952
0.95018
0.96046
0.970556
0.97688
0.977268
0.976233
0.976281
0.971518
0.980516
0.965753
0.977535
0.965043
0.975535
0.965912
0.974314
0.969202
0.974904
0.976
0.978704
0.986264
0.987338
0.998517
0.999611
1.01165
1.00533
1.02276
1.02616
0.996302
0.999183
0.999727
0.99734
0.984217
0.944369
0.911385
0.885322
0.861387
0.84786
0.844965
0.8474
0.858787
0.886327
0.916998
0.947904
1.01347
1.16641
1.30541
1.36295
1.35932
1.26811
1.13784
1.02828
0.95139
0.924969
0.92402
0.929724
0.941717
0.954606
0.966628
0.977232
0.985385
0.991786
0.998505
0.998664
1.00112
0.991614
0.988251
1.01039
0.986521
1.0072
0.986197
1.00508
0.985455
1.00325
0.985292
1.00025
0.990559
0.999353
1.00152
1.00605
1.01467
1.01816
1.03032
1.01459
1.04314
1.04573
0.997188
1.00251
0.998894
0.997455
0.984963
0.943031
0.908742
0.882678
0.860054
0.848992
0.846707
0.849814
0.863358
0.890132
0.915921
0.940365
0.990115
1.12278
1.26563
1.34267
1.35485
1.29635
1.17031
1.056
0.965271
0.927213
0.924276
0.929083
0.943146
0.957828
0.971098
0.984234
0.996931
1.00884
1.01909
1.05284
1.14941
1.03889
1.13103
1.0398
1.10946
1.04143
1.11824
1.04058
1.12396
1.03383
1.11437
1.02342
1.08881
1.01943
1.06108
1.02557
1.04771
1.03657
1.04852
1.05385
1.02999
1.06554
1.06462
0.99839
1.00907
0.998113
0.99857
0.988271
0.944484
0.906913
0.880171
0.859024
0.850904
0.849288
0.853554
0.869939
0.895087
0.916234
0.935049
0.97383
1.08214
1.22571
1.31735
1.34273
1.31495
1.20194
1.08695
0.98799
0.931706
0.925012
0.929172
0.943229
0.959773
0.977769
0.994096
1.01091
1.02842
1.04597
1.092
1.47919
2.00196
2.88452
1.25187
1.57344
1.29123
1.68701
1.31853
1.76341
1.31182
1.78811
1.26199
1.71159
1.19054
1.55191
1.12427
1.37332
1.08554
1.22402
1.07327
1.13179
1.09425
1.04706
1.10453
1.09693
1.00327
1.02478
0.998378
1.0035
1.00147
0.957023
0.910095
0.879185
0.858624
0.853218
0.852799
0.858945
0.878537
0.901554
0.918541
0.932491
0.962394
1.04849
1.18826
1.28853
1.32578
1.31941
1.23081
1.12079
1.01618
0.940482
0.926391
0.92948
0.943101
0.963597
0.985187
1.00258
1.02237
1.04486
1.07503
1.21844
1.88732
3.79853
5.08561
5.4459
7.4358
2.48984
3.81751
2.7287
4.45394
2.83394
4.7663
2.72277
4.80816
2.45139
4.42345
2.08771
3.69858
1.68433
2.92534
1.36445
2.15697
1.17983
1.53379
1.21511
1.07432
1.22288
1.1961
1.02814
1.07215
1.00082
1.03855
1.04564
1.00245
0.932974
0.884324
0.859702
0.855722
0.857018
0.865949
0.889103
0.91015
0.923697
0.932377
0.955587
1.02305
1.1552
1.25848
1.30666
1.3147
1.25546
1.15282
1.04701
0.95828
0.929545
0.93038
0.943375
0.968689
0.989519
1.00754
1.02927
1.05358
1.09687
1.34284
3.32982
6.27104
7.51404
9.32612
11.22
11.1436
12.6257
6.70292
9.04356
7.30852
9.91541
7.58702
10.2317
7.4682
10.3186
6.86101
10.0998
5.68157
9.4158
4.08765
8.0974
2.74559
5.70955
1.69445
3.36442
1.79378
1.16958
1.78112
1.66154
1.12151
1.20862
1.01073
1.18834
1.09786
1.09238
1.00024
0.912366
0.865314
0.858831
0.861753
0.874408
0.901072
0.920948
0.930779
0.934925
0.953164
1.00607
1.12872
1.23097
1.28799
1.30294
1.27119
1.18184
1.08002
0.984855
0.937628
0.933018
0.944342
0.970694
0.992611
1.01407
1.03405
1.06195
1.10762
1.35849
4.10956
12.248
12.2205
14.1975
13.6746
14.3307
13.9307
14.4209
11.8723
13.1312
12.1307
13.321
12.2875
13.4602
12.3906
13.7087
12.2984
13.9662
11.794
14.0963
10.4106
13.811
7.39059
12.4651
3.87508
8.923
4.13953
1.55513
4.04385
3.60961
1.3524
1.64336
1.06222
1.42581
1.13192
1.10639
0.989827
0.889592
0.86489
0.867292
0.884321
0.913578
0.933118
0.940367
0.941308
0.95411
0.99952
1.11164
1.20897
1.26806
1.2903
1.27772
1.20805
1.11368
1.01662
0.956025
0.939852
0.94682
0.974007
0.999385
1.02155
1.04399
1.07327
1.11456
1.339
4.20487
12.809
15.2497
15.474
14.8225
15.1665
14.7233
14.9229
14.5843
14.688
13.9983
14.3807
14.1347
14.4679
14.4048
14.7538
14.8381
15.2314
15.2847
15.8451
15.6125
16.5147
15.4909
17.0183
14.1184
16.9423
10.004
15.4622
10.4592
3.11008
10.1368
9.01908
1.75249
2.84643
1.10149
1.53235
1.14126
1.10318
0.965369
0.881558
0.87435
0.894574
0.925444
0.945939
0.951868
0.950605
0.959396
0.999312
1.105
1.19603
1.25131
1.28098
1.28179
1.23474
1.15171
1.05907
0.990224
0.955967
0.953361
0.980524
1.00782
1.03286
1.05822
1.08648
1.12526
1.28693
4.04065
12.7888
15.5434
15.7706
15.3131
15.3975
15.0887
15.207
14.7661
14.8253
14.6641
14.6926
14.6167
14.6638
14.8747
14.8689
15.3466
15.3686
16.0803
16.2023
16.9976
17.3183
17.9296
18.5862
18.5535
19.7303
18.3521
20.2853
16.4518
19.7625
17.0299
7.2217
17.1242
16.7858
12.2177
2.59902
5.88852
1.0933
1.71156
1.15951
1.0864
0.931642
0.887221
0.903333
0.936298
0.958377
0.965368
0.96265
0.96988
1.00464
1.10636
1.1932
1.24243
1.2747
1.28739
1.26494
1.20335
1.11925
1.04199
0.991189
0.96881
0.989369
1.01802
1.04611
1.07228
1.09826
1.13698
1.25112
3.54776
12.5428
15.8694
15.4578
15.5412
15.096
15.1685
14.9073
14.9892
14.7838
14.9654
15.0541
15.3406
14.8686
14.9185
15.4061
15.486
16.2852
16.4374
17.5654
17.813
19.1182
19.5555
20.7054
21.4393
21.8928
23.1467
22.1918
24.1512
20.9752
23.7178
22.1988
19.5185
21.8334
15.8308
10.2218
15.2054
19.526
22.2782
21.964
19.3919
2.85568
4.58761
13.768
12.9892
8.39013
1.22206
3.51705
2.25057
3.42236
1.16185
1.05225
0.916562
0.910306
0.945102
0.970852
0.97983
0.977551
0.984341
1.01938
1.11828
1.19933
1.24233
1.27457
1.29759
1.29864
1.26145
1.19402
1.11301
1.04582
1.00401
1.00723
1.0341
1.06481
1.08731
1.10726
1.14346
1.22413
2.86555
11.8185
16.004
15.2888
15.3073
15.2439
15.27
15.6238
15.7566
15.1956
15.4241
15.7293
16.1266
16.3588
16.85
15.661
16.0073
16.6714
16.8831
18.0116
18.2282
19.8225
20.0402
21.9658
22.2971
24.1374
24.7752
24.5234
25.1813
25.7337
26.2898
24.7946
25.9864
26.2826
27.7762
26.8415
24.3832
23.4248
25.2675
25.7683
23.9653
18.9479
18.1642
22.0315
24.3932
24.3172
21.7982
6.8756
17.3465
16.481
11.9815
1.20186
3.27597
3.19372
5.84052
6.20671
1.14012
0.99513
0.924662
0.951622
0.982421
0.995648
0.994608
1.00279
1.04223
1.14631
1.22276
1.25403
1.28468
1.31817
1.34194
1.33188
1.27473
1.20225
1.12352
1.06911
1.05038
1.06415
1.0925
1.11066
1.12109
1.14756
1.20369
2.29021
10.4725
16.0591
15.3288
15.756
15.7292
15.8103
15.8038
16.9994
17.0646
16.5016
16.7976
17.3376
17.7143
18.0545
18.3574
17.212
17.6454
18.4673
18.6594
20.1838
20.268
22.421
22.3851
25.0739
25.0836
26.664
27.0033
27.2112
27.3764
27.0519
27.6619
28.1468
26.9552
28.0103
28.491
29.7907
28.9567
26.6642
25.7545
27.3614
27.9421
26.2424
21.3199
20.669
24.3149
26.551
26.6561
24.0358
11.0581
19.9469
19.3543
15.7698
1.72911
8.08465
8.8062
11.0928
13.08
1.1203
0.962092
0.954436
0.99327
1.01153
1.01393
1.02498
1.07143
1.18608
1.26275
1.28797
1.31638
1.35732
1.39694
1.4102
1.3817
1.31457
1.23746
1.17098
1.12625
1.10926
1.13065
1.14722
1.15139
1.15646
1.19396
1.84635
8.61864
16.0269
14.8854
16.5091
16.1463
16.854
16.6783
17.045
16.9776
17.9263
17.7916
17.9523
17.9823
18.5312
18.5727
19.0223
18.9607
18.9198
19.0368
20.2469
20.1488
22.2615
21.985
24.9571
24.5873
27.4481
27.4693
27.438
27.3482
28.5346
28.8432
29.0793
29.2453
29.1264
29.686
30.181
29.1034
30.155
30.5479
31.9974
31.1042
28.8153
27.9943
29.5999
30.1323
28.4932
23.5515
22.9249
26.5738
28.8233
28.9543
26.2774
15.8893
22.3472
21.9615
19.2235
2.17856
17.6118
11.944
16.9893
19.8484
1.07231
0.969353
1.00129
1.02857
1.03464
1.05043
1.10679
1.23518
1.31714
1.34082
1.37864
1.43474
1.49534
1.52327
1.51373
1.4611
1.38303
1.29625
1.22284
1.17085
1.17646
1.19379
1.2038
1.18009
1.19499
1.54972
6.5694
15.7762
14.6937
16.2032
17.0735
17.0901
17.3516
17.2452
17.6325
17.4881
18.0936
17.832
18.5146
18.3509
18.8882
18.7517
19.2655
18.9728
19.9143
19.5746
21.5365
20.9587
24.1026
23.4235
27.1952
26.9967
26.7323
26.4193
29.3412
29.3721
29.3506
29.2518
30.6184
30.9934
31.299
31.5275
31.2526
31.9179
32.5458
31.3162
32.4014
32.877
34.5494
33.4632
31.0861
30.2823
31.9537
32.4285
30.8303
25.8018
25.2607
28.8822
31.1954
31.3551
28.6191
19.8515
24.7354
24.2628
21.9468
4.95177
25.4463
22.4261
21.0394
25.7073
1.02986
1.00598
1.04322
1.05938
1.07622
1.14694
1.29285
1.38626
1.41756
1.47726
1.57351
1.67709
1.74849
1.73666
1.67861
1.58347
1.46588
1.35865
1.26857
1.2406
1.24517
1.26751
1.23754
1.21462
1.3856
4.75239
14.9289
14.7988
15.5121
17.0942
16.8939
17.229
17.1631
17.34
17.2691
17.6121
17.4488
17.3078
16.8436
18.4588
17.9136
18.6126
18.1341
18.9639
18.2851
20.3039
19.6358
22.5539
21.5951
26.6138
25.6086
29.0851
28.8478
28.557
28.2891
31.669
31.7219
31.6976
31.5777
33.1211
33.6172
34.0097
34.2839
33.7558
34.6204
35.4345
33.6754
34.926
35.6753
37.638
36.2457
33.4709
32.7193
34.4352
34.9012
33.3391
28.2129
27.6801
31.3321
33.7694
34.0222
31.1297
22.3129
27.0109
26.2578
23.9349
33.1489
36.3619
49.281
23.9487
32.7715
1.03404
1.06339
1.07653
1.11037
1.18433
1.358
1.4695
1.52233
1.62928
1.809
2.01861
2.15552
2.17994
2.08951
1.94038
1.76857
1.59361
1.44268
1.35351
1.31602
1.33318
1.3071
1.28149
1.327
3.34474
12.7528
15.013
14.9496
16.8816
17.0191
17.1022
16.8217
16.9615
16.5439
16.6674
16.5825
16.4976
14.9603
14.4576
17.2706
16.0219
17.5772
16.6111
18.7557
17.9218
20.6031
19.6423
24.4524
23.2451
29.7574
29.201
27.9988
28.6416
31.3642
31.0759
30.7238
30.2796
34.4307
34.4473
34.3585
34.1474
36.1474
36.7133
37.101
37.3191
36.8057
37.8698
38.7825
36.366
37.941
39.0392
41.2612
39.6132
36.0588
35.2908
37.1181
37.7467
36.0015
30.7066
30.0341
34.0516
36.5424
36.8701
33.7821
24.0395
29.1233
28.0692
25.5734
73.563
50.6973
77.8395
26.4226
38.2264
1.06911
1.11487
1.1315
1.2348
1.41734
1.56935
1.65486
1.84967
2.20789
2.62581
3.00691
3.20044
3.09374
2.77501
2.39299
2.04881
1.77206
1.56925
1.44743
1.41615
1.38439
1.36875
1.32877
2.39655
9.92827
14.9865
14.5412
16.3817
17.0199
17.0152
16.6714
16.835
16.0238
16.3763
15.1304
15.6
14.4423
14.6565
10.7096
10.6107
14.6971
12.2278
17.1007
15.6761
19.5139
18.3836
21.9808
20.7215
27.3618
26.5773
26.2801
31.8676
31.2462
29.8948
30.5931
33.8453
33.4645
33.0083
32.4621
37.3796
37.3033
37.0985
36.7802
39.4892
39.9629
40.2288
40.3343
40.328
41.3934
42.1603
39.6017
41.5665
42.7114
44.9662
43.4432
39.0328
38.0366
40.172
41.1789
38.7796
33.1837
32.2726
36.8701
39.3102
39.5826
36.4706
25.5844
31.1089
29.8085
27.1254
117.282
59.2079
106.264
28.4353
37.9769
1.12645
1.17237
1.26544
1.4933
1.66605
1.82042
2.14833
2.80573
3.66152
4.47342
4.78264
4.68935
4.28157
3.70612
3.05544
2.45825
2.00652
1.71113
1.5658
1.48889
1.4571
1.36867
1.86766
7.15266
14.6498
14.2328
15.5273
17.0564
16.706
17.0001
16.0911
16.4566
15.0138
15.6093
13.3906
14.2781
11.1978
12.352
7.95192
7.37028
12.8557
9.8397
17.2136
15.467
21.427
19.8912
24.6425
23.0643
29.1564
28.4312
29.4536
28.5436
33.9536
33.2536
31.7924
32.5349
36.3723
35.8759
35.2969
34.6367
40.2788
40.0575
39.67
39.1461
42.7107
42.9921
43.0331
42.7898
43.8281
44.6461
44.9963
43.4751
45.5676
46.0438
47.8922
47.1303
42.6234
41.1056
43.8686
45.2888
41.7873
35.6868
34.5599
39.5087
42.2002
42.2624
39.0036
27.0568
33.1737
31.5431
28.5846
118.531
59.7405
123.671
29.4247
37.1052
1.1786
1.29264
1.54206
1.78732
1.98536
2.52456
3.56411
4.88523
5.87262
6.22122
6.12445
5.73964
5.14717
4.43538
3.64992
2.8968
2.28499
1.86945
1.66864
1.56847
1.46017
1.65339
5.13144
13.764
13.871
14.7065
16.9011
16.9333
17.0175
16.3284
16.6205
15.3642
15.9058
13.8001
14.6727
11.3286
12.697
7.95374
9.69486
7.40959
6.41503
12.4226
9.3882
18.2633
16.0221
24.799
22.8658
27.8131
26.827
26.8629
31.0231
30.2233
32.1666
31.5992
35.6644
35.0062
33.8318
34.4
38.519
37.8229
37.0907
36.3586
42.3116
41.6548
40.897
40.0893
45.0308
44.7431
44.2544
43.5114
46.5201
46.5809
46.2762
47.6961
49.2029
48.0394
49.4452
49.6743
46.9738
44.831
48.4606
49.8004
45.4263
38.1237
36.851
41.9174
45.4883
44.9546
41.2453
28.1807
35.1286
33.0158
29.8628
97.9491
64.8994
109.575
29.6081
37.0186
1.28095
1.58009
1.87846
2.18074
2.87251
4.34671
5.99662
7.02393
7.29381
7.1768
6.83801
6.32051
5.65117
4.87775
4.04113
3.21875
2.5159
2.04354
1.77891
1.59384
1.6301
3.84731
12.0603
13.6398
14.0462
16.3504
17.1635
16.5687
16.9169
15.7784
16.2202
14.4271
15.1855
12.2021
13.4515
8.72693
10.6223
6.19271
6.84538
7.83639
6.37126
12.9976
10.1233
20.7319
18.429
32.0884
30.4138
30.1696
30.9117
30.188
33.2949
34.657
33.2892
32.7286
36.8757
36.6808
36.9626
36.773
36.7999
36.7379
39.2729
38.494
37.837
37.3188
42.5478
41.4947
40.4619
39.6014
45.6073
44.5296
43.2019
41.8543
47.6388
46.6089
45.1008
51.3821
51.7282
48.2134
49.1821
51.0546
51.9311
49.5349
53.8
53.842
49.734
40.1821
38.5958
44.199
48.8999
47.8243
43.0763
28.8022
36.6004
34.2697
30.9128
70.4304
67.6473
91.3273
29.8228
38.0765
1.54687
1.97894
2.30709
3.22638
4.96525
6.93636
7.86669
8.03649
7.88196
7.5643
7.12536
6.566
5.88871
5.10427
4.24816
3.39263
2.6715
2.1559
1.81652
1.68098
3.02026
10.0809
13.4802
13.5584
15.4392
17.1405
16.8404
16.9703
16.1178
16.481
14.9993
15.6307
13.0796
14.168
9.86824
11.6674
6.03847
7.77105
5.67954
5.50954
9.89545
7.1422
15.8879
13.0586
26.8045
23.9021
37.3477
35.6657
37.024
34.4151
36.2341
35.5359
39.1698
40.7855
36.9023
36.9398
43.5278
43.511
39.1895
39.9519
41.752
40.847
38.9609
38.5587
38.4928
38.6603
40.6613
39.7558
39.2283
39.1085
43.4089
41.7785
40.4684
39.5768
46.3808
44.2114
42.0984
54.2109
53.416
46.6753
48.7605
51.278
56.5102
54.426
58.1652
57.1477
53.6925
41.5314
39.8329
46.2072
52.6095
50.4699
44.2856
29.2966
37.7737
35.3
31.8365
62.3791
64.1436
88.2497
30.5266
38.9517
1.97261
2.45276
3.39293
5.51257
7.61107
8.4509
8.5264
8.34106
8.02936
7.61981
7.14436
6.59927
5.95487
5.18429
4.3235
3.46886
2.72241
2.17071
1.84264
2.57521
8.13531
13.1194
13.1887
14.5336
16.9194
17.1041
16.3748
16.7446
15.4226
15.9437
13.7891
14.7222
10.9032
12.5498
6.64825
8.88271
4.94453
5.31526
5.67395
5.08342
13.3053
8.84217
21.1445
17.7133
32.6441
30.4581
28.917
41.6242
39.2305
38.7177
36.2846
43.03
42.128
43.9785
46.1996
42.5845
43.2253
50.6607
50.4681
43.6614
45.2804
48.3244
46.8784
39.2445
39.8602
40.8623
42.1481
39.3099
39.3533
39.8849
40.9217
40.4985
39.866
39.7223
39.8824
44.1162
42.0686
41.026
56.6322
54.8744
46.2946
50.7031
52.7814
59.7592
58.0971
61.2998
60.0042
57.9194
42.6147
40.9996
47.921
55.9529
53.3156
45.9148
30.1868
38.761
36.4612
32.9814
57.3496
59.4675
91.6086
31.9263
38.5928
2.4453
3.56599
5.75538
8.1424
8.84481
8.88674
8.6662
8.3472
7.93714
7.48612
7.02078
6.51735
5.91961
5.18012
4.33652
3.4765
2.72196
2.18508
2.50112
6.5356
12.4624
12.7928
13.7931
16.3813
17.1728
16.3638
15.7094
16.1825
14.2602
15.0772
11.6673
13.1613
7.42348
9.77382
4.64687
5.46944
4.54719
4.42739
6.06391
5.01284
17.1021
11.0132
25.7589
22.2417
34.123
32.2432
29.251
31.0678
44.2349
41.3646
39.1703
36.7557
49.5932
48.1633
47.1576
49.9976
49.5228
50.3678
56.9348
56.3596
49.6576
51.6114
54.9878
53.4291
42.2443
43.8649
45.6998
47.6591
40.7868
42.0933
43.703
45.5488
40.7433
40.8568
41.888
43.4917
44.3215
43.1392
42.9487
59.7787
59.0276
48.9547
57.4932
58.165
63.5818
62.8282
67.5163
65.3948
62.1222
44.3438
42.1467
51.1156
60.6804
59.3249
49.2453
31.5743
39.8921
37.4859
34.2321
102.674
54.8233
82.9209
33.0492
37.4658
3.46598
5.97346
8.38717
9.18836
9.13609
8.93939
8.59512
8.17004
7.70621
7.23699
6.78636
6.3279
5.78682
5.10676
4.30497
3.47141
2.75178
2.60527
5.48222
11.5406
12.3559
13.2188
15.65
17.1055
16.6444
14.4491
15.3539
14.8229
14.5221
12.0646
13.4802
7.95121
10.2813
4.60959
5.78599
3.98438
4.108
4.40704
4.09565
6.77568
5.04586
19.4371
12.7738
27.1694
23.9848
34.6046
32.6934
29.5518
31.0469
44.9937
41.9008
38.6936
36.4589
54.8849
52.7437
48.5141
52.2565
56.1899
56.841
62.3182
61.259
55.7715
57.7028
60.9772
59.4795
47.5235
49.5755
51.6611
53.738
45.4685
47.4653
49.5768
51.7018
43.5736
45.2548
47.7053
50.4821
48.0987
48.1231
49.3717
67.1131
68.6063
57.3595
70.8822
69.5249
72.4126
69.089
76.8534
77.1628
69.8984
46.278
43.6832
57.1236
70.1082
68.0894
52.753
32.7654
41.1633
39.0571
35.387
114.417
46.5527
79.1404
33.8973
36.1346
5.74624
8.64904
9.35325
9.40229
9.13385
8.81162
8.39258
7.91183
7.42013
6.93858
6.50391
6.08223
5.59061
4.971
4.23657
3.44048
3.01096
5.05544
10.6202
12.0109
12.7251
14.9436
16.8431
16.8279
14.5748
13.4632
11.7453
12.8513
12.0607
7.98736
10.2695
4.62195
5.85914
3.72363
3.99909
3.75774
3.668
4.34527
3.95832
7.43781
5.1852
19.8069
13.1375
27.9578
26.4081
24.0564
34.4705
32.6735
29.341
30.7342
44.5312
41.3046
37.1801
35.345
58.9995
55.9778
48.3711
52.7783
62.0524
62.4738
66.8618
65.3063
61.4796
63.2582
66.2857
64.888
53.7621
55.7724
57.7129
59.6071
53.0725
55.4693
57.7155
59.781
51.7853
55.0516
58.7202
62.1791
58.0937
60.5705
64.3576
80.9755
84.4768
73.2753
96.023
89.0035
84.2413
80.0605
90.0947
91.2234
81.7145
49.3411
46.296
63.4065
81.1806
78.6705
59.5411
34.3031
44.0285
42.6867
37.6675
118.232
44.7848
99.2654
34.4394
36.9519
8.51108
9.61538
9.52146
9.34178
8.9648
8.59841
8.17165
7.69414
7.19049
6.682
6.23726
5.80985
5.32745
4.73639
3.98134
3.54895
5.07163
9.96093
11.6519
12.3337
14.3557
16.4389
16.8485
15.2328
8.86802
9.81267
7.0215
8.64011
7.52036
4.49788
5.57586
3.59402
3.89785
3.46535
3.47811
3.68005
3.53132
4.3087
3.89823
7.59506
5.24518
18.937
12.5508
27.5335
26.2122
22.3607
24.1672
33.7028
32.1758
28.8168
30.0643
42.4649
39.4136
35.0444
33.7354
62.0355
57.9172
46.717
52.1874
67.1817
67.4411
70.7522
68.684
67.7723
69.2049
71.5352
70.4338
61.5855
63.2662
64.8244
66.2799
65.2023
67.6951
69.7833
71.3945
69.2325
73.9687
78.5154
82.3503
77.3015
83.5287
93.5738
100.187
113.486
107.069
156.856
130.477
102.179
94.1392
110.951
122.989
96.3177
55.3826
52.9828
77.086
98.049
102.424
72.1595
35.8918
51.1359
46.7704
40.1507
98.4774
48.9232
118.949
36.1974
39.7625
9.59738
9.76411
9.41499
9.08463
8.76518
8.43674
8.05459
7.5989
7.07571
6.51704
6.03346
5.55305
5.0082
4.34199
4.00148
5.31987
9.69958
11.3293
11.9771
13.8618
16.0416
16.7717
15.7442
10.2835
3.84768
5.25584
5.19341
4.09677
4.22859
3.45942
3.7174
3.31734
3.35105
3.38705
3.33267
3.66001
3.49465
4.29085
3.87786
7.40211
5.2095
21.9179
19.0092
15.9151
11.2984
26.9231
25.6468
23.5029
32.5061
31.2881
28.093
29.1857
39.3469
36.6822
32.8095
32.003
64.2462
58.8948
43.8803
51.1319
71.9707
72.0027
74.5595
71.9851
75.5339
76.4067
77.3609
76.9085
72.5027
73.3607
74.2386
74.8642
85.7172
88.1285
89.5317
90.0394
101.85
109.561
114.558
118.693
122.716
149.133
187.453
156.525
186.035
190.187
198.91
198.99
144.384
116.23
151.296
179.758
123.715
73.5055
66.5017
99.9368
142.853
146.813
107.47
39.5902
57.9647
56.7644
46.043
97.0047
61.3111
96.6992
39.2593
46.9084
9.75793
9.57997
9.10305
8.82659
8.64054
8.3745
8.0294
7.62979
7.1417
6.55396
5.98458
5.44105
4.88566
4.74351
6.02009
9.73534
11.083
11.7082
13.4967
15.692
16.602
16.0537
11.5832
4.50145
2.79801
3.54038
3.03041
2.78869
3.52513
3.20948
3.30145
3.19036
3.21762
3.22726
3.19778
3.36971
3.28265
3.66063
3.49076
4.28911
3.87909
7.00598
5.1571
21.0596
17.9224
15.4419
10.1408
26.1113
24.885
22.673
31.1461
30.206
27.2115
28.2133
35.97
33.839
30.8607
30.4062
66.467
59.9697
41.3434
50.7007
77.1504
76.829
78.5062
75.4567
86.076
85.7947
84.6414
84.9978
89.5401
88.3185
87.6651
87.1098
121.861
124.121
125.698
125.756
186.012
200.564
202.146
204.253
193.682
197.448
429.876
178.543
467.567
450.834
432.54
476.592
192.102
157.33
199.55
464.894
183.988
89.4728
77.0092
155.084
194.663
190.466
119.699
43.6042
75.2266
64.3845
51.3971
82.439
60.8574
103.149
46.0152
52.7249
9.5403
9.14364
8.82076
8.71
8.59394
8.37306
8.15071
7.87767
7.49118
7.01127
6.51129
6.1832
6.42757
7.6917
10.0223
10.9479
11.6354
13.3818
15.4208
16.4284
16.1905
12.553
5.09098
2.7277
2.78474
2.62969
2.94562
2.60447
3.09303
3.06155
3.09301
3.06919
3.18996
3.13309
3.37019
3.2674
3.69912
3.51046
4.35541
3.94153
6.777
5.15005
19.9878
16.834
14.3365
13.7894
10.9451
8.41662
25.2234
24.0331
21.6911
29.8244
29.0919
26.2959
27.2594
33.4762
31.5204
29.2989
29.0005
68.8535
61.6323
40.2493
51.3374
83.0255
82.0018
82.8987
79.2386
101.751
99.7566
94.2553
95.8923
120.77
113.081
107.777
106.838
206.001
202.525
201.453
194.691
437.879
435.701
441.547
443.469
457.475
411.713
841.918
467.367
889.721
873.127
838.783
905.598
464.329
193.836
461.444
887.088
451.701
105.602
106.837
148.316
450.356
436.697
155.883
52.5703
85.895
82.5608
63.8201
36.5481
63.7157
120.744
51.9649
59.0512
9.01648
8.79002
8.70532
8.68213
8.63533
8.57422
8.48456
8.33415
8.13785
7.94308
7.90249
8.26616
9.17325
10.4015
10.9345
11.6804
13.4194
15.2636
16.2728
16.203
13.1154
5.61954
2.73583
2.35325
2.82058
2.68289
2.55153
2.94519
2.51837
2.96553
3.0464
3.002
3.16974
3.10096
3.38872
3.26566
3.78093
3.56173
4.48411
4.06029
6.77499
5.24427
18.9214
15.9556
13.1098
10.7146
8.93011
24.3261
23.1143
20.736
28.6326
28.0504
25.4337
26.423
32.3472
29.9785
28.4754
27.9571
71.4592
63.962
39.894
53.1786
90.2365
88.2447
88.4857
83.9304
129.836
123.166
108.899
112.757
189.126
173.174
141.822