/*--------------------------------*- C++ -*----------------------------------*\
  =========                 |
  \\      /  F ield         | OpenFOAM: The Open Source CFD Toolbox
   \\    /   O peration     | Website:  https://openfoam.org
    \\  /    A nd           | Version:  dev
     \\/     M anipulation  |
\*---------------------------------------------------------------------------*/
FoamFile
{
    version     2.0;
    format      ascii;
    class       volScalarField;
    location    "2500";
    object      p_rgh;
}
// * * * * * * * * * * * * * * * * * * * * * * * * * * * * * * * * * * * * * //

dimensions      [1 -1 -2 0 0 0 0];

internalField   nonuniform List<scalar> 
9842
(
0.00448725
0.00593707
0.00489382
0.00593366
0.00870246
0.00425674
0.00520024
0.00990727
0.00862855
0.00325771
0.00490815
0.0104772
0.0114925
0.00772778
0.00268003
0.0037992
0.0100535
0.0128561
0.010879
0.00618184
0.00182178
0.00376635
0.00942189
0.0131443
0.0136789
0.0097302
0.00497484
0.00117995
0.00352789
0.00859904
0.0133822
0.0152033
0.0125985
0.00851149
0.00395139
0.000716832
0.00311354
0.0076376
0.0125329
0.0157082
0.0152006
0.0114274
0.00700687
0.00326064
0.000174144
0.00242518
0.00684816
0.0116272
0.0157245
0.0166665
0.0140498
0.00981985
0.00588097
0.00246592
-0.000350385
0.00231106
0.00615352
0.0106023
0.0149792
0.0171982
0.0162577
0.0126359
0.0085029
0.00458482
0.00169795
-0.000897477
0.00177121
0.00500248
0.00905453
0.0137728
0.0173764
0.0175098
0.0152919
0.0111569
0.00716354
0.00387148
0.00117698
-0.00138441
0.00154611
0.00434962
0.0085858
0.0133131
0.017245
0.0183576
0.0171077
0.0136795
0.00933148
0.00618587
0.00328862
0.000534951
-0.00189588
0.0013603
0.00429068
0.00730113
0.011405
0.0164992
0.0187568
0.0184711
0.0159839
0.0118801
0.00821982
0.00523191
0.00252569
6.46709e-05
-0.0024028
0.00116412
0.00369208
0.00702046
0.0113004
0.0153098
0.0185066
0.0192414
0.0178933
0.014112
0.0103885
0.00729627
0.00454956
0.00199882
-0.000431904
-0.00280045
0.000764128
0.00309062
0.00651807
0.00947504
0.014413
0.0182955
0.019645
0.0191127
0.0162544
0.0127693
0.00932625
0.0063135
0.00380356
0.00134101
-0.000988977
-0.00328432
0.000574303
0.00302935
0.00595521
0.0089839
0.0135992
0.0172891
0.019599
0.0198976
0.018253
0.0146467
0.0113849
0.00821337
0.00564477
0.00324537
0.000851454
-0.00138852
-0.00373623
0.000357181
0.0025899
0.00526587
0.00821153
0.0119692
0.0163049
0.0191452
0.0202674
0.0194019
0.0166355
0.0131528
0.0101948
0.0073933
0.00495902
0.00267523
0.000432315
-0.00177007
-0.00414148
-3.61024e-05
0.00198806
0.00458572
0.0075743
0.0111763
0.0147302
0.0183009
0.0201735
0.0203079
0.0183181
0.015117
0.0122027
0.00918988
0.0067128
0.00436649
0.00216228
-0.000104358
-0.00218498
-0.00445908
-0.000150774
0.00167442
0.00416547
0.00688349
0.00942588
0.0135109
0.0177457
0.0199234
0.0205904
0.0196327
0.0169463
0.0140299
0.0110951
0.00843326
0.00605533
0.00384986
0.00173325
-0.000415589
-0.00260673
-0.00483201
-0.00038692
0.00125459
0.00366433
0.00603671
0.00899852
0.0128557
0.0165616
0.0193492
0.0206355
0.0203332
0.0183663
0.0158407
0.0127168
0.010025
0.00755205
0.00539553
0.00337049
0.00126313
-0.000796741
-0.00289383
-0.00514052
-0.000614974
0.000880161
0.00312633
0.00551536
0.00812518
0.0107316
0.0150947
0.0184517
0.020372
0.020756
0.0195877
0.0172874
0.0143874
0.0116279
0.0092556
0.00709354
0.00499134
0.0028646
0.000926635
-0.00118697
-0.00325857
-0.00546937
-0.000847038
0.000659027
0.00253291
0.00475836
0.00704499
0.0101603
0.0141411
0.017519
0.0197822
0.0207747
0.0203125
0.0186421
0.015892
0.0131959
0.0108396
0.00858226
0.00656513
0.00450067
0.00248649
0.000622821
-0.00138057
-0.00345809
-0.00566371
-0.00107897
0.000297989
0.0017901
0.00409832
0.00639013
0.00941716
0.0119071
0.0163086
0.0189809
0.0204692
0.0207112
0.0195938
0.0172842
0.0146641
0.0123003
0.0101445
0.00805517
0.00602926
0.00417904
0.00221601
0.000345633
-0.00168223
-0.00369938
-0.00587593
-0.00128087
-0.000141748
0.00156536
0.0034319
0.00583911
0.00808247
0.0110367
0.0152988
0.0179223
0.0199359
0.0207188
0.0202034
0.0183699
0.0160091
0.0136093
0.0115826
0.00951274
0.00765049
0.00570105
0.00376028
0.00196974
0.000126452
-0.0018548
-0.0039269
-0.00608275
-0.0015451
-0.000496408
0.00110808
0.00268579
0.0051935
0.00734672
0.0105493
0.0139167
0.0168643
0.0189386
0.0204847
0.0204605
0.0192543
0.0172229
0.0148936
0.0127507
0.0109752
0.00909151
0.00718883
0.00534415
0.00347587
0.00173999
-6.86251e-05
-0.001971
-0.00399389
-0.0061981
-0.00164624
-0.000639417
0.000619782
0.002123
0.00409643
0.00617054
0.00876889
0.0125002
0.0155479
0.0178649
0.0201025
0.0204983
0.0199177
0.0182614
0.0160577
0.0141432
0.0120596
0.0104683
0.00863108
0.00696112
0.00515535
0.00334656
0.0015705
-0.000229734
-0.00214354
-0.00409249
-0.00630868
-0.00182074
-0.00100367
0.00014523
0.00167466
0.00356254
0.00586302
0.00761157
0.0110195
0.0142537
0.0168892
0.0193174
0.0203234
0.0202207
0.0190866
0.01714
0.0152147
0.0133924
0.0116786
0.0100873
0.00829479
0.00667238
0.00497446
0.00329901
0.00151869
-0.00028945
-0.00215307
-0.00411501
-0.00632111
-0.00192101
-0.00120441
-0.000135495
0.00126591
0.00296899
0.00489084
0.00665062
0.0100919
0.0132616
0.0157037
0.0180939
0.0197814
0.0202241
0.0195663
0.0180441
0.0160928
0.0143937
0.012739
0.0111711
0.00970223
0.00811095
0.00648956
0.00485875
0.00323501
0.0015122
-0.000257391
-0.00213438
-0.00410522
-0.00633745
-0.00202453
-0.00154342
-0.000564057
0.000692469
0.00212006
0.00378839
0.00590327
0.00804054
0.011785
0.0144066
0.0167855
0.0189626
0.019869
0.0197723
0.0186963
0.0170981
0.0154342
0.0138622
0.0124235
0.0108715
0.00947719
0.00792318
0.0062773
0.00482452
0.00320105
0.00149687
-0.000213724
-0.00212617
-0.0040257
-0.00624225
-0.00210643
-0.00172508
-0.000960822
8.50539e-05
0.00151743
0.00316578
0.00521014
0.00697017
0.0103259
0.0130772
0.0153923
0.0179571
0.019344
0.0196834
0.018968
0.0177724
0.0162659
0.0146987
0.013354
0.0121734
0.0107167
0.00928082
0.00774105
0.00633693
0.00482354
0.00314892
0.00152934
-0.000148828
-0.00195837
-0.00390825
-0.00610269
-0.00216966
-0.00187496
-0.00127811
-0.000362999
0.000881752
0.00207106
0.0041017
0.00609961
0.00888699
0.0118195
0.014206
0.0167521
0.018459
0.0192227
0.0191106
0.0180922
0.0169283
0.0154836
0.0142589
0.0130594
0.0118097
0.0105458
0.0093089
0.00773623
0.00638154
0.00488977
0.00331739
0.00172743
7.26272e-06
-0.00171737
-0.00366221
-0.00592932
-0.00226724
-0.0020558
-0.00158499
-0.000829617
0.000251274
0.00153087
0.00317234
0.00499428
0.00715019
0.0102519
0.0128304
0.0153825
0.0175037
0.0186372
0.0188998
0.0184382
0.0173647
0.0161357
0.0149815
0.0140128
0.0128952
0.0117122
0.0105546
0.00927856
0.00776809
0.00641978
0.00491113
0.00339821
0.00192666
0.000272975
-0.00143564
-0.00335688
-0.00562703
-0.00222335
-0.00219514
-0.00200898
-0.00133301
-0.000371455
0.000771428
0.00205592
0.0039808
0.00590648
0.00860619
0.0112812
0.0138953
0.01618
0.0177851
0.018436
0.0183654
0.0176476
0.0166592
0.0156325
0.0146438
0.0137278
0.0128046
0.0117293
0.0104007
0.00936213
0.00804945
0.00655416
0.00513152
0.0037491
0.00219206
0.000596983
-0.00112332
-0.00299171
-0.00640379
-0.00492495
-0.00221129
-0.00235841
-0.00214548
-0.00166671
-0.000988005
2.2555e-05
0.00116875
0.00271138
0.0046142
0.00708335
0.0098037
0.0124082
0.0147302
0.0165884
0.0176901
0.0180264
0.0176236
0.0168635
0.0160566
0.0151375
0.0143782
0.0136086
0.0127715
0.0117996
0.0106815
0.00937321
0.00814041
0.00684699
0.00535988
0.00393965
0.0025505
0.00100362
-0.00065878
-0.00355073
-0.00224648
-0.0061861
-0.00471556
-0.00216933
-0.00237977
-0.00235514
-0.00206798
-0.00160505
-0.000867434
0.000190354
0.00137588
0.00343002
0.00566662
0.00819793
0.0107969
0.013245
0.0153503
0.0167096
0.0174392
0.0175068
0.0168746
0.016285
0.01562
0.0150906
0.0144276
0.01368
0.0129215
0.0119648
0.0109182
0.0097074
0.00826396
0.00707663
0.00568185
0.00431044
0.00289726
0.000566089
0.00152933
-0.00106822
0.000772567
0.000123568
-0.0032843
-0.00198242
-0.00594462
-0.00443978
-0.00211896
-0.00258738
-0.00251871
-0.00237272
-0.00198557
-0.00136288
-0.000483846
0.000438733
0.00228729
0.0040157
0.00652046
0.00911896
0.011594
0.0138102
0.0154971
0.0165774
0.0170102
0.0169579
0.0163401
0.0158695
0.0153429
0.0148776
0.0143517
0.0139031
0.0130663
0.0121172
0.0110884
0.00984849
0.00858363
0.00734216
0.00603745
0.00469042
0.00253783
0.00348237
0.00183094
-0.000741073
0.00120924
0.000392857
-0.00296689
-0.00162693
-0.00569995
-0.00413203
-0.00206919
-0.00245074
-0.00277959
-0.00267702
-0.00246971
-0.0020035
-0.00131788
-0.000587238
0.00111198
0.00258286
0.00483216
0.00735185
0.00984976
0.0121569
0.0140757
0.0154601
0.0162501
0.0164504
0.0162443
0.0159194
0.0155984
0.015275
0.0149987
0.0145904
0.0141137
0.013349
0.0123519
0.0113416
0.0102405
0.00898782
0.00768154
0.00636029
0.00437289
0.00522971
0.00273775
0.00368881
0.00223165
-0.000396294
0.00151471
0.000775677
-0.00262652
-0.00123014
-0.00539208
-0.00372457
-0.00198132
-0.00240551
-0.0027508
-0.00283347
-0.00306081
-0.00260106
-0.00207599
-0.00161598
-8.88365e-05
0.00134779
0.00324549
0.00570005
0.00802662
0.0103918
0.0124618
0.0141115
0.0152135
0.0158088
0.0158366
0.0156626
0.0155864
0.0153639
0.0153838
0.0152567
0.0148632
0.0144339
0.0137004
0.0129019
0.0117846
0.0105091
0.00927576
0.00800147
0.0060676
0.00688267
0.0045852
0.00543989
0.00317523
0.00409176
0.00255662
4.00242e-05
0.00192055
0.00125327
-0.00225206
-0.000816492
-0.00507421
-0.00335536
-0.00182263
-0.00239198
-0.00277931
-0.00313644
-0.00339389
-0.00310942
-0.00278516
-0.00231963
-0.00128403
-0.000301841
0.00157416
0.00402243
0.00622049
0.00852491
0.0107042
0.0125671
0.0139584
0.0148574
0.0152534
0.0153452
0.0152717
0.0154333
0.0155555
0.0155806
0.0155064
0.0153335
0.0148597
0.0141768
0.0133047
0.012151
0.010869
0.0096064
0.00769239
0.00848933
0.00626257
0.00706253
0.00495542
0.00577851
0.00353451
0.00444671
0.00297297
0.000537648
0.00240346
0.00179477
-0.00176357
-0.000266227
-0.00471523
-0.00286456
-0.0016836
-0.00237529
-0.00276876
-0.00332295
-0.00347865
-0.00378253
-0.0035615
-0.00327701
-0.00248386
-0.00161911
0.000224554
0.00221067
0.00434518
0.00661347
0.00880754
0.0108219
0.0124684
0.0136384
0.0143621
0.0147614
0.014938
0.0152746
0.0155112
0.0157842
0.0160144
0.0158781
0.0157673
0.0153448
0.0147062
0.0138165
0.0125392
0.0111951
0.00931171
0.0101011
0.00785473
0.00864057
0.00657164
0.00734487
0.0052982
0.00610442
0.00394053
0.00483774
0.00345569
0.00113532
0.00295722
0.00242507
-0.00122181
0.000353206
-0.00429829
-0.00235734
-0.00156179
-0.00218221
-0.00282141
-0.00323804
-0.00366625
-0.00426493
-0.0038765
-0.00402253
-0.00328375
-0.00284366
-0.00116459
0.000456392
0.00245967
0.00465724
0.00680735
0.00892877
0.0107335
0.0121867
0.0132503
0.013848
0.0144376
0.014749
0.0152353
0.0157144
0.0161736
0.0165081
0.0166173
0.0161426
0.0158964
0.0153394
0.0143148
0.0128797
0.0109307
0.0117319
0.00943645
0.0102278
0.00811249
0.00887662
0.00687852
0.00763199
0.00567088
0.00645426
0.00441024
0.00528675
0.00400745
0.00181757
0.00360012
0.00314652
-0.000581508
0.00107872
-0.00383785
-0.00176307
-0.00142111
-0.00209783
-0.00267962
-0.00317692
-0.00377793
-0.00426351
-0.00441062
-0.00471194
-0.00413215
-0.0038768
-0.00265544
-0.00123703
0.000611197
0.00265832
0.00475707
0.00689729
0.00881486
0.0105125
0.0118255
0.0127974
0.0134789
0.0141822
0.0147471
0.0154244
0.0160618
0.0165582
0.0170256
0.0172009
0.0167545
0.0166455
0.0159789
0.0147596
0.0126024
0.0134281
0.0110517
0.0118459
0.00965488
0.0104317
0.00837951
0.00912584
0.00720387
0.00793425
0.00609339
0.00684648
0.00494528
0.00579425
0.0046441
0.00261393
0.00433569
0.00398674
0.000137549
0.00191118
-0.00334082
-0.00109497
-0.00128973
-0.00194162
-0.00261209
-0.00324227
-0.00379764
-0.00442748
-0.00507786
-0.00534451
-0.00510858
-0.00476207
-0.00404771
-0.00288675
-0.00126688
0.000623522
0.00263466
0.00471319
0.00675557
0.00856857
0.0101521
0.0113642
0.0123275
0.0132309
0.013945
0.0147461
0.0157807
0.0166403
0.0172626
0.0176004
0.0179715
0.0175918
0.0174083
0.0165733
0.0143724
0.0153013
0.0127396
0.0135649
0.0112457
0.0120455
0.00989033
0.0106625
0.00865675
0.00938544
0.00756421
0.00826712
0.00656449
0.00727978
0.00555631
0.00636611
0.00537117
0.00353862
0.00518979
0.00496948
0.000962972
0.0028777
-0.00281123
-0.00034811
-0.00111703
-0.00175133
-0.00245111
-0.00316711
-0.0038242
-0.00449759
-0.00537359
-0.00556691
-0.00586922
-0.00559105
-0.00529766
-0.00443879
-0.00310537
-0.00141677
0.000458968
0.00247607
0.00452826
0.00647426
0.00821561
0.00976937
0.0109643
0.0120437
0.0130463
0.0141131
0.0152061
0.0162459
0.0171886
0.0179566
0.0184184
0.018997
0.0185575
0.0180928
0.0163934
0.0172998
0.0145434
0.0154241
0.0129408
0.0138002
0.011473
0.0123022
0.0101405
0.0109233
0.00896135
0.0096818
0.00796019
0.00863909
0.00708933
0.00776142
0.0062511
0.00701221
0.00621245
0.00462315
0.00619122
0.00613151
0.00190985
0.00400752
-0.00225637
0.000477466
-0.000921234
-0.00152947
-0.00222776
-0.00302999
-0.00374835
-0.00460126
-0.00548985
-0.00581771
-0.00631611
-0.00640335
-0.00631285
-0.00589587
-0.00488273
-0.00344897
-0.00174438
0.00015048
0.0021659
0.00415618
0.0060592
0.00778735
0.00928329
0.0105886
0.0118338
0.0130839
0.0142848
0.015654
0.0169588
0.0180726
0.0188484
0.0194943
0.0202736
0.0196233
0.0190832
0.0165727
0.0177961
0.01482
0.0158213
0.0132293
0.0142107
0.0117684
0.0127189
0.0104667
0.0113586
0.00933594
0.0101374
0.00841247
0.00912302
0.00768559
0.00833671
0.0070525
0.00776219
0.00719697
0.00590629
0.00738166
0.00752063
0.0029944
0.00533423
-0.00168806
0.00138088
-0.000695788
-0.00127145
-0.00195549
-0.00279758
-0.00362696
-0.00453735
-0.00528288
-0.00598264
-0.00668329
-0.00721215
-0.00725195
-0.00715592
-0.00655206
-0.00544175
-0.00395449
-0.00223152
-0.000305025
0.00169032
0.00368934
0.00561743
0.00736038
0.00892894
0.0103431
0.0117834
0.0132435
0.0147597
0.0163514
0.01795
0.0192072
0.0201693
0.020942
0.0218137
0.0213782
0.0205308
0.0232511
0.017115
0.018531
0.0154367
0.017027
0.0139049
0.0155495
0.0124829
0.0141697
0.0111858
0.0128073
0.0100287
0.0114521
0.00907994
0.0102375
0.00843298
0.00929759
0.00800188
0.00874087
0.00838253
0.00744325
0.00882676
0.00921353
0.00424459
0.00690848
-0.00115376
0.00238742
-0.00044169
-0.000973309
-0.00164583
-0.00249138
-0.0033344
-0.00429994
-0.00521109
-0.00609128
-0.00690063
-0.0076995
-0.00808567
-0.00825659
-0.00806964
-0.00732679
-0.00613744
-0.00462876
-0.00285776
-0.000913234
0.00113128
0.00318227
0.00514276
0.00695998
0.00864499
0.0102887
0.0119352
0.0136341
0.0153812
0.0173269
0.0188173
0.0202272
0.021782
0.0229173
0.0242603
0.0265547
0.0308976
0.0299289
0.0395749
0.0195074
0.0236356
0.0183058
0.0235496
0.0171243
0.0230387
0.0157964
0.0221656
0.0142146
0.0203637
0.0125706
0.0177911
0.0109845
0.0150682
0.0098308
0.0125118
0.00926891
0.0107217
0.0099676
0.00930448
0.0107246
0.0113759
0.00570208
0.00877383
-0.000688203
0.0035014
-0.00019245
-0.000634643
-0.00128374
-0.00211607
-0.00299624
-0.00400045
-0.00496566
-0.00587151
-0.00698808
-0.00802607
-0.00869917
-0.00919659
-0.00937374
-0.00905419
-0.00824062
-0.00702184
-0.0054657
-0.00363652
-0.00161925
0.00050301
0.00265017
0.00470985
0.00666401
0.00853416
0.0103757
0.0122448
0.0141636
0.0162351
0.0183771
0.0199973
0.0215991
0.0240642
0.0293489
0.0374011
0.033277
0.0502847
0.0650122
0.0680072
0.0902996
0.0334971
0.0486462
0.0348867
0.0557086
0.0351048
0.0594305
0.0335597
0.0602789
0.0301436
0.056325
0.0254078
0.0481786
0.0198326
0.03863
0.0149331
0.0275079
0.0118842
0.018143
0.0131011
0.0116099
0.0141098
0.0147084
0.00736275
0.0110159
-0.000282474
0.00468242
-3.31064e-05
-0.000314548
-0.000869211
-0.00166905
-0.00257984
-0.00355306
-0.00448028
-0.00558053
-0.00689866
-0.00815382
-0.00899157
-0.00989838
-0.0104592
-0.0105825
-0.0102042
-0.00935946
-0.00809572
-0.00646038
-0.00453042
-0.00240309
-0.000117354
0.00216247
0.00437537
0.00649753
0.00856293
0.0106169
0.0126999
0.0148767
0.017255
0.0193321
0.0213147
0.0237306
0.0321759
0.0829437
0.0758987
0.101716
0.113581
0.136484
0.144562
0.175923
0.0825686
0.112935
0.0910452
0.128577
0.0964243
0.138538
0.0979285
0.145928
0.0930346
0.147938
0.0796079
0.142186
0.058893
0.124137
0.0379637
0.0868212
0.0214183
0.0499934
0.023838
0.0147368
0.0243529
0.0228837
0.00922401
0.0138259
-9.65923e-05
0.00589679
-0.000108024
-0.000485783
-0.00117312
-0.00207664
-0.00299503
-0.00399633
-0.00525499
-0.00660254
-0.00794344
-0.00904402
-0.0103234
-0.011279
-0.011867
-0.0119772
-0.0115845
-0.0107004
-0.00935005
-0.00759062
-0.00549992
-0.00317045
-0.000707239
0.00176354
0.00417412
0.00649624
0.0087535
0.0109989
0.0132866
0.0157025
0.0182427
0.0205689
0.0231139
0.031703
0.0856448
0.189262
0.20102
0.157068
0.176206
0.205611
0.231824
0.243713
0.278505
0.167623
0.206803
0.183326
0.229492
0.195816
0.246974
0.206316
0.263889
0.210139
0.277361
0.203968
0.283855
0.178206
0.275212
0.120687
0.236374
0.0602372
0.153905
0.0656186
0.020585
0.0628512
0.0520411
0.0114017
0.0179242
-0.000716006
0.00674741
-0.000213654
-0.000722989
-0.00151613
-0.00238907
-0.00344936
-0.00471523
-0.00610286
-0.00750938
-0.00888212
-0.0104279
-0.0118018
-0.0128562
-0.0134944
-0.0136309
-0.0132222
-0.0122585
-0.0107684
-0.00881932
-0.00650222
-0.00390027
-0.00117711
0.00153847
0.00414537
0.00664143
0.00906319
0.0114734
0.0139498
0.016745
0.0191882
0.0220476
0.0297554
0.0833613
0.205604
0.195098
0.285812
0.293747
0.254885
0.273177
0.30962
0.335444
0.35354
0.388052
0.273416
0.31589
0.297353
0.345883
0.318897
0.372114
0.341255
0.399198
0.358216
0.425016
0.365023
0.444352
0.349936
0.448481
0.293665
0.420458
0.178505
0.343083
0.186963
0.0361549
0.175215
0.155485
0.0766882
0.0137958
0.0251981
-0.00233906
0.00670793
-0.000352736
-0.00100024
-0.0017763
-0.00282707
-0.00406535
-0.00540119
-0.00688501
-0.00846647
-0.0102252
-0.0119702
-0.0135024
-0.01469
-0.0154212
-0.0155895
-0.0151287
-0.0140259
-0.0123281
-0.0101077
-0.00741859
-0.00447883
-0.00146354
0.00147572
0.0042637
0.00690379
0.00946498
0.0120045
0.0147687
0.0174673
0.0202614
0.0264756
0.0772139
0.240922
0.29405
0.304165
0.376267
0.37291
0.357413
0.370194
0.415246
0.432923
0.462559
0.482879
0.390017
0.429725
0.421301
0.463952
0.451016
0.496586
0.483106
0.530511
0.510586
0.56412
0.528341
0.591428
0.526112
0.605728
0.481714
0.591585
0.375728
0.519141
0.44845
0.284478
0.384096
0.116013
0.0498325
0.0988674
0.256621
0.370123
0.374203
0.230413
0.0130872
0.0182939
0.0694569
0.0493473
0.0271915
-0.00347879
0.0137796
0.00362083
0.00861682
-0.000537355
-0.00118643
-0.00210228
-0.00327383
-0.00456742
-0.00610367
-0.00780456
-0.0097114
-0.0117634
-0.0137463
-0.0154967
-0.0168701
-0.0177125
-0.0178868
-0.0173164
-0.0159909
-0.0139787
-0.0113056
-0.00820138
-0.00487914
-0.00155056
0.00160854
0.00452447
0.00727161
0.00987922
0.0125094
0.015443
0.0181207
0.0227196
0.0644915
0.222427
0.343117
0.323752
0.364886
0.355589
0.417696
0.402088
0.437083
0.429567
0.487682
0.479391
0.533905
0.527105
0.501498
0.524953
0.534492
0.561474
0.568397
0.596704
0.60539
0.634457
0.638798
0.672339
0.663969
0.704884
0.620257
0.655355
0.682845
0.709753
0.57417
0.629131
0.677784
0.710565
0.67047
0.528149
0.46541
0.547664
0.594259
0.469861
0.199331
0.157514
0.346538
0.45409
0.466899
0.318068
0.0202782
0.115448
0.0769181
0.033778
-0.00751506
-0.0023938
0.0028491
0.0145578
0.00865223
-0.000571751
-0.00134609
-0.00240684
-0.0036565
-0.00515865
-0.00690734
-0.00888766
-0.0111775
-0.0135472
-0.0158387
-0.0178833
-0.0194829
-0.0204323
-0.020564
-0.0197825
-0.0180786
-0.0156132
-0.012392
-0.00874914
-0.00498641
-0.00137494
0.00188245
0.00485816
0.00756778
0.010189
0.0131503
0.0157611
0.0193847
0.0478568
0.192337
0.316677
0.353743
0.341949
0.385559
0.37032
0.419302
0.393613
0.464889
0.443587
0.512995
0.48881
0.560627
0.53897
0.575959
0.572501
0.613282
0.616828
0.652181
0.660073
0.69333
0.703578
0.731856
0.747583
0.729584
0.747807
0.760834
0.772149
0.711097
0.737387
0.758908
0.648576
0.694838
0.740429
0.766246
0.733441
0.61155
0.551467
0.622271
0.667549
0.553372
0.279799
0.232901
0.432031
0.547858
0.53373
0.401062
0.0235326
0.178474
0.1199
0.0473839
-0.0106225
-0.00378411
0.00363074
0.0163705
0.0111372
-0.000544144
-0.00148737
-0.00266628
-0.00409001
-0.00580156
-0.00779766
-0.0102215
-0.0128842
-0.0156543
-0.0183571
-0.0207719
-0.0226319
-0.0236609
-0.023644
-0.02249
-0.0202481
-0.0170743
-0.01316
-0.00894921
-0.00482063
-0.00111711
0.00217707
0.00506968
0.00776364
0.0104525
0.0132475
0.0162896
0.0340205
0.152794
0.2911
0.30397
0.296822
0.328936
0.316067
0.36879
0.347236
0.373904
0.335923
0.4555
0.415358
0.504298
0.456918
0.560242
0.516853
0.608079
0.590141
0.655282
0.643006
0.703831
0.696262
0.753856
0.750884
0.779834
0.785649
0.789066
0.79062
0.775794
0.789039
0.798684
0.805715
0.765989
0.786976
0.803526
0.71538
0.756036
0.792897
0.818098
0.790149
0.682101
0.62799
0.692059
0.733088
0.628365
0.359822
0.308498
0.511075
0.621621
0.606858
0.478742
0.0311761
0.248662
0.1845
0.0747877
-0.0206008
0.00609296
-0.00883908
0.0229484
0.0193918
-0.000543451
-0.00160843
-0.00293898
-0.00455135
-0.00650134
-0.00893249
-0.0117668
-0.014905
-0.0182058
-0.021439
-0.0243122
-0.0264505
-0.0274692
-0.0271096
-0.0253014
-0.02223
-0.0182176
-0.013615
-0.00891526
-0.00459827
-0.000833814
0.00237329
0.0052116
0.00777652
0.0106367
0.0133963
0.0239363
0.111168
0.261178
0.26728
0.248573
0.239212
0.264266
0.254682
0.304454
0.280697
0.287347
0.244475
0.400178
0.341024
0.460101
0.39131
0.53571
0.476284
0.619217
0.583159
0.681416
0.65456
0.74222
0.726483
0.790666
0.788498
0.785462
0.780622
0.81004
0.812329
0.812848
0.812094
0.8158
0.824151
0.828727
0.829776
0.81412
0.830066
0.840776
0.776358
0.812646
0.839692
0.863936
0.842011
0.747035
0.697336
0.756891
0.794018
0.697029
0.436574
0.386387
0.583571
0.689599
0.674377
0.551732
0.0516544
0.32886
0.268934
0.131518
-0.040717
0.00777762
-0.020766
0.0431206
0.0365604
-0.000549914
-0.0017356
-0.00321958
-0.00503859
-0.00737511
-0.0102349
-0.013593
-0.0173665
-0.0213635
-0.0252715
-0.0287062
-0.0310562
-0.0318026
-0.0307416
-0.0280398
-0.024005
-0.0190712
-0.013775
-0.00870287
-0.00428611
-0.000574196
0.00252457
0.00518625
0.00796288
0.0105275
0.0169647
0.0757215
0.225677
0.26409
0.190215
0.204429
0.180204
0.184768
0.185573
0.18021
0.214084
0.195021
0.184755
0.146783
0.315054
0.242667
0.402463
0.314557
0.515541
0.444727
0.617997
0.572343
0.699712
0.664646
0.77792
0.755128
0.809925
0.806741
0.80249
0.7962
0.82886
0.827012
0.82447
0.821664
0.84536
0.844838
0.841482
0.837346
0.854873
0.861941
0.86092
0.833278
0.864512
0.877254
0.896795
0.886641
0.808252
0.76221
0.818843
0.851516
0.761727
0.513093
0.467629
0.652176
0.754066
0.740238
0.623928
0.101694
0.415924
0.363528
0.219318
-0.0664635
0.0107574
-0.0347497
0.092129
0.0705795
-0.00055539
-0.00185686
-0.00349875
-0.00562871
-0.00837427
-0.0117658
-0.0158201
-0.0204356
-0.0253138
-0.0300979
-0.0339906
-0.0362522
-0.0363848
-0.0344535
-0.0306812
-0.0254577
-0.0194827
-0.013536
-0.0082415
-0.00385523
-0.000309938
0.00261579
0.00515994
0.00775156
0.0120288
0.048673
0.182172
0.254762
0.194833
0.146902
0.153725
0.125039
0.134886
0.114215
0.117323
0.12629
0.117537
0.0950681
0.0736538
0.220674
0.14212
0.353646
0.244879
0.506293
0.425434
0.621104
0.569234
0.722879
0.680686
0.794837
0.783542
0.753967
0.770497
0.818542
0.814714
0.809877
0.803448
0.832861
0.828539
0.824599
0.820973
0.855399
0.84759
0.838316
0.828701
0.879075
0.872777
0.861321
0.885407
0.907983
0.893377
0.906987
0.915043
0.866844
0.824884
0.878808
0.904381
0.825044
0.589286
0.548379
0.720443
0.818783
0.80621
0.694175
0.191652
0.502961
0.458178
0.320736
-0.0382871
0.0292644
0.00512431
0.178251
0.143626
-0.000549274
-0.00196396
-0.00381307
-0.00629567
-0.00953131
-0.0136271
-0.0186086
-0.0242943
-0.0301933
-0.0355389
-0.0394262
-0.0411816
-0.0403596
-0.0374787
-0.0326393
-0.0263349
-0.0193634
-0.0128598
-0.00751152
-0.00328708
3.11545e-05
0.00259433
0.00517449
0.00824584
0.0296255
0.132802
0.24163
0.214644
0.140671
0.157297
0.114094
0.126596
0.0890686
0.101067
0.069447
0.0783392
0.0658825
0.0641458
0.0536871
0.0420363
0.142584
0.0819943
0.318955
0.195688
0.499765
0.406408
0.631407
0.572545
0.735265
0.713124
0.668781
0.789818
0.776823
0.741284
0.76082
0.81722
0.812895
0.807367
0.799875
0.820532
0.814107
0.809193
0.805152
0.845361
0.827709
0.811425
0.798095
0.881462
0.860672
0.834204
0.92823
0.932486
0.886893
0.890502
0.920138
0.921058
0.886471
0.934981
0.947321
0.888295
0.661717
0.624159
0.786449
0.883063
0.870094
0.759991
0.300328
0.583899
0.546834
0.425345
0.102892
0.111785
0.217427
0.297505
0.298437
-0.000519946
-0.00205289
-0.00414787
-0.00704417
-0.0109188
-0.0159439
-0.0220559
-0.0286402
-0.0347351
-0.039259
-0.0421059
-0.0431792
-0.0419042
-0.038618
-0.0331204
-0.0261508
-0.0184388
-0.0117288
-0.00647261
-0.00266322
0.000193082
0.00270002
0.00510754
0.0170585
0.0876039
0.218219
0.225204
0.164832
0.118743
0.129565
0.0915312
0.104811
0.0666801
0.0786661
0.0464989
0.0558263
0.0374998
0.0389954
0.0407083
0.0308636
0.105163
0.060483
0.284845
0.165098
0.453019
0.353691
0.60943
0.537779
0.718794
0.692825
0.624415
0.592807
0.765903
0.749626
0.707345
0.730075
0.801002
0.795742
0.788595
0.778829
0.788252
0.781269
0.776066
0.77137
0.806689
0.781611
0.76124
0.746462
0.854677
0.816522
0.777037
0.950254
0.934029
0.846943
0.840486
0.895255
0.96516
0.944903
0.981323
0.968744
0.948336
0.728134
0.692243
0.849183
0.944267
0.931189
0.821385
0.416284
0.655976
0.624605
0.523297
0.205263
0.342569
0.49231
0.433916
0.480963
-0.000443369
-0.00212427
-0.00448242
-0.00791453
-0.0126134
-0.0186625
-0.025403
-0.0311294
-0.0346117
-0.0361359
-0.0371839
-0.0383967
-0.0383625
-0.0362798
-0.0314191
-0.0243845
-0.0167482
-0.0102496
-0.00557553
-0.00216739
0.000276419
0.00260499
0.00921592
0.0553827
0.178895
0.224148
0.189676
0.128613
0.144295
0.100106
0.113505
0.0728509
0.0862475
0.0485151
0.0601511
0.0303455
0.038376
0.0255182
0.0250197
0.0374568
0.0274055
0.0919863
0.0551367
0.245026
0.15162
0.402825
0.328686
0.563983
0.5311
0.477426
0.681997
0.653804
0.595925
0.5716
0.719592
0.700699
0.658762
0.680059
0.765879
0.758425
0.748407
0.735488
0.736626
0.729914
0.72429
0.718253
0.7411
0.712416
0.692423
0.679853
0.795659
0.743031
0.69573
0.950469
0.904339
0.77664
0.765013
0.839441
0.987705
0.994823
1.00672
0.970009
1.0023
0.788426
0.753043
0.908881
1.00138
0.988421
0.879259
0.521945
0.718249
0.688665
0.605851
0.151081
0.58083
0.567732
0.551285
0.615685
-0.00031444
-0.00214502
-0.00483255
-0.00892284
-0.0144462
-0.020657
-0.0254346
-0.0273729
-0.0280736
-0.0288645
-0.029957
-0.0309934
-0.0315851
-0.0308263
-0.0280048
-0.0216747
-0.0146387
-0.00880345
-0.00457016
-0.0018974
0.00055174
0.00463127
0.0345334
0.137087
0.215468
0.204957
0.154574
0.109799
0.121284
0.0813044
0.0954912
0.0535436
0.0671805
0.0295838
0.0408392
0.0152584
0.0205967
0.0203895
0.0160115
0.040319
0.0265235
0.0937786
0.0619309
0.244492
0.181028
0.476154
0.442119
0.433412
0.546741
0.519362
0.503919
0.533218
0.637644
0.617541
0.606591
0.592676
0.665625
0.656182
0.637981
0.647662
0.710855
0.701261
0.689829
0.677554
0.672079
0.66621
0.660547
0.655077
0.65915
0.634687
0.620692
0.613127
0.711738
0.654607
0.611268
0.919681
0.847483
0.69102
0.685836
0.765296
0.992075
1.02543
1.01721
0.942588
1.04026
0.844452
0.807316
0.965524
1.04809
1.04091
0.933852
0.608789
0.770604
0.742112
0.673229
0.0760643
0.689831
0.497543
0.640695
0.700683
-9.11345e-05
-0.00210529
-0.0051691
-0.00983359
-0.0152176
-0.0188475
-0.0197784
-0.0199557
-0.0210422
-0.0226831
-0.0240251
-0.0244197
-0.0247654
-0.0247756
-0.0242057
-0.0188246
-0.0123758
-0.00724235
-0.00393157
-0.00145031
0.00163122
0.0215351
0.103126
0.200346
0.214006
0.179441
0.118668
0.134347
0.0892194
0.103272
0.0597787
0.0745045
0.0317243
0.0453781
0.0103115
0.0197798
0.0083055
0.00653323
0.0183019
0.0125069
0.0541047
0.0290269
0.136346
0.0933001
0.366349
0.308026
0.581061
0.552249
0.63912
0.599517
0.575323
0.555322
0.610178
0.63628
0.628909
0.618992
0.687911
0.683419
0.651188
0.657394
0.673221
0.664117
0.650493
0.647616
0.647494
0.648618
0.609551
0.608433
0.609814
0.616055
0.58341
0.570109
0.565397
0.565209
0.626371
0.577736
0.547439
0.866392
0.780931
0.617522
0.630937
0.699627
0.972268
1.04176
1.01098
0.899235
1.06277
0.895698
0.854189
1.01742
1.07825
1.08169
0.982705
0.678033
0.815848
0.785574
0.726945
0.0338637
0.712962
0.452719
0.706081
0.744274
0.000258451
-0.00195074
-0.00526322
-0.00961458
-0.0123629
-0.0124336
-0.0124333
-0.014337
-0.0171455
-0.0193523
-0.0202305
-0.0198832
-0.0197714
-0.020642
-0.0206359
-0.0157476
-0.0101982
-0.00600847
-0.00330983
-0.000415822
0.0125219
0.0742876
0.176643
0.214234
0.197526
0.143455
0.0953044
0.108303
0.0649935
0.080187
0.0347055
0.0497448
0.00825796
0.0207361
-0.0010292
0.000160113
0.00593216
0.00160616
0.0176834
0.0111146
0.081566
0.0354808
0.239453
0.157132
0.564776
0.518661
0.502399
0.707888
0.673569
0.726781
0.6902
0.673261
0.657512
0.740212
0.768766
0.681464
0.686531
0.822234
0.820303
0.700236
0.726982
0.779121
0.754249
0.624946
0.637385
0.654216
0.675458
0.572985
0.5846
0.602106
0.624722
0.535505
0.532388
0.540281
0.556184
0.565325
0.531458
0.518959
0.81361
0.73641
0.578128
0.620909
0.672393
0.945039
1.05069
1.00311
0.86633
1.07786
0.940209
0.895919
1.06199
1.09883
1.10781
1.02462
0.729714
0.85381
0.821293
0.768686
-0.0414721
0.714458
0.434839
0.747694
0.760045
0.000784223
-0.00152023
-0.00440278
-0.00642266
-0.00594992
-0.00596152
-0.00906375
-0.0134556
-0.0169293
-0.0185764
-0.0183552
-0.016887
-0.0158615
-0.0166406
-0.0170306
-0.0129858
-0.00828904
-0.00513399
-0.00190556
0.0065696
0.0508245
0.150497
0.208477
0.206839
0.167731
0.0940383
0.0684985
0.0864471
0.0365628
0.0523857
0.00724422
0.0215394
-0.00801659
-0.00359596
-0.00420578
-0.00744607
0.00523659
0.000261286
0.0178943
0.0107336
0.122716
0.0450838
0.387249
0.249897
0.652209
0.615572
0.556046
0.615382
0.798218
0.762408
0.751383
0.720984
0.810205
0.79283
0.834223
0.86987
0.799665
0.814609
0.950251
0.942927
0.805906
0.845799
0.91199
0.882058
0.653046
0.686437
0.723956
0.764402
0.578968
0.608257
0.644069
0.685565
0.516271
0.52828
0.551974
0.58557
0.542235
0.52365
0.517014
0.796765
0.736012