/*--------------------------------*- C++ -*----------------------------------*\
  =========                 |
  \\      /  F ield         | OpenFOAM: The Open Source CFD Toolbox
   \\    /   O peration     | Website:  https://openfoam.org
    \\  /    A nd           | Version:  dev
     \\/     M anipulation  |
\*---------------------------------------------------------------------------*/
FoamFile
{
    version     2.0;
    format      ascii;
    class       surfaceScalarField;
    location    "2500";
    object      phi;
}
// * * * * * * * * * * * * * * * * * * * * * * * * * * * * * * * * * * * * * //

dimensions      [1 0 -1 0 0 0 0];

internalField   nonuniform List<scalar> 
19513
(
1.68754e-07
1.23411e-07
1.45504e-07
3.11864e-07
4.75168e-07
1.13874e-07
1.1867e-07
4.38527e-07
4.67203e-07
3.19851e-07
6.99429e-07
9.86212e-08
9.82968e-08
5.37795e-07
4.30862e-07
4.74859e-07
7.20121e-07
2.99149e-07
8.8535e-07
8.64557e-08
8.25573e-08
6.21087e-07
3.76867e-07
5.91772e-07
7.19389e-07
4.75568e-07
9.15951e-07
2.68551e-07
1.05311e-06
7.83696e-08
7.01153e-08
6.96104e-07
3.18609e-07
6.7932e-07
6.90989e-07
6.20154e-07
9.45523e-07
4.45962e-07
1.0793e-06
2.42381e-07
1.20843e-06
7.23123e-08
6.12867e-08
7.66484e-07
2.66796e-07
7.47785e-07
6.39805e-07
7.30464e-07
9.56426e-07
6.09246e-07
1.11769e-06
4.07552e-07
1.22891e-06
2.2186e-07
1.35428e-06
6.74476e-08
5.45553e-08
8.3504e-07
2.27584e-07
8.05829e-07
5.7473e-07
8.12931e-07
9.38616e-07
7.48259e-07
1.1551e-06
5.71802e-07
1.26375e-06
3.72711e-07
1.3703e-06
2.05837e-07
1.49255e-06
6.30813e-08
4.93039e-08
9.00976e-07
2.01231e-07
8.6137e-07
5.04904e-07
8.75675e-07
8.93744e-07
8.5774e-07
1.17597e-06
7.27395e-07
1.30814e-06
5.27418e-07
1.39748e-06
3.45521e-07
1.50617e-06
1.92214e-07
1.62198e-06
5.95023e-08
4.57184e-08
9.64313e-07
1.84353e-07
9.17824e-07
4.40265e-07
9.2598e-07
8.28885e-07
9.40456e-07
1.16987e-06
8.63833e-07
1.35216e-06
6.83384e-07
1.43767e-06
4.87204e-07
1.5292e-06
3.22536e-07
1.63344e-06
1.80754e-07
1.74524e-06
5.62762e-08
4.29149e-08
1.02743e-06
1.6978e-07
9.78855e-07
3.86685e-07
9.71369e-07
7.52067e-07
1.00278e-06
1.1356e-06
9.7472e-07
1.38239e-06
8.33573e-07
1.48816e-06
6.32881e-07
1.56162e-06
4.54779e-07
1.65283e-06
3.0313e-07
1.75542e-06
1.70576e-07
1.86228e-06
5.30905e-08
4.03213e-08
1.09045e-06
1.56249e-07
1.04093e-06
3.50745e-07
1.01489e-06
6.75329e-07
1.04808e-06
1.07801e-06
1.06032e-06
1.38839e-06
9.68687e-07
1.53911e-06
7.82593e-07
1.60578e-06
5.88733e-07
1.68102e-06
4.26575e-07
1.77301e-06
2.85538e-07
1.87223e-06
1.60598e-07
1.97326e-06
5.01922e-08
3.86322e-08
1.15013e-06
1.47205e-07
1.09944e-06
3.26536e-07
1.06509e-06
6.05276e-07
1.08476e-06
1.00389e-06
1.12212e-06
1.36584e-06
1.08285e-06
1.57851e-06
9.29264e-07
1.66068e-06
7.27679e-07
1.71817e-06
5.51594e-07
1.79752e-06
4.02049e-07
1.88817e-06
2.69599e-07
1.98215e-06
1.51694e-07
2.07867e-06
4.74394e-08
3.73122e-08
1.20698e-06
1.39317e-07
1.15795e-06
3.05504e-07
1.12042e-06
5.49589e-07
1.12077e-06
9.21753e-07
1.16682e-06
1.31774e-06
1.17015e-06
1.59613e-06
1.0652e-06
1.71824e-06
8.71724e-07
1.76575e-06
6.80019e-07
1.82936e-06
5.19709e-07
1.9109e-06
3.79335e-07
1.99773e-06
2.54012e-07
2.0877e-06
1.42661e-07
2.17867e-06
4.47028e-08
3.5715e-08
1.26262e-06
1.32944e-07
1.2135e-06
2.89367e-07
1.17402e-06
5.10227e-07
1.1597e-06
8.41232e-07
1.20132e-06
1.25119e-06
1.23335e-06
1.58729e-06
1.17896e-06
1.76688e-06
1.0165e-06
1.82368e-06
8.13765e-07
1.87074e-06
6.38717e-07
1.94089e-06
4.89698e-07
2.01933e-06
3.57733e-07
2.10212e-06
2.39576e-07
2.18687e-06
1.34516e-07
2.27373e-06
4.20269e-08
3.4228e-08
1.31578e-06
1.28102e-07
1.26742e-06
2.7364e-07
1.22914e-06
4.80392e-07
1.20377e-06
7.7071e-07
1.23016e-06
1.17247e-06
1.27983e-06
1.55191e-06
1.26866e-06
1.79698e-06
1.14884e-06
1.88714e-06
9.53022e-07
1.92221e-06
7.62253e-07
1.9776e-06
6.0196e-07
2.04675e-06
4.62248e-07
2.1226e-06
3.37204e-07
2.20137e-06
2.25067e-07
2.28198e-06
1.26246e-07
2.36335e-06
3.94559e-08
3.31153e-08
1.36653e-06
1.23291e-07
1.32052e-06
2.60053e-07
1.28095e-06
4.57207e-07
1.25228e-06
7.14201e-07
1.2602e-06
1.08832e-06
1.31425e-06
1.49433e-06
1.33737e-06
1.80243e-06
1.26318e-06
1.94568e-06
1.09026e-06
1.98262e-06
8.92592e-07
2.02213e-06
7.17656e-07
2.08081e-06
5.67861e-07
2.14904e-06
4.35833e-07
2.2213e-06
3.17268e-07
2.29565e-06
2.11394e-07
2.37154e-06
1.18011e-07
2.44808e-06
3.69003e-08
3.17116e-08
1.41606e-06
1.17615e-07
1.37215e-06
2.48527e-07
1.33198e-06
4.34599e-07
1.30355e-06
6.71031e-07
1.2952e-06
1.00592e-06
1.34253e-06
1.42058e-06
1.38795e-06
1.78113e-06
1.35868e-06
1.98903e-06
1.21981e-06
2.05019e-06
1.0227e-06
2.07602e-06
8.38657e-07
2.12177e-06
6.76654e-07
2.18131e-06
5.35583e-07
2.24695e-06
4.10185e-07
2.31536e-06
2.97583e-07
2.38573e-06
1.97241e-07
2.45617e-06
1.09917e-07
2.52757e-06
3.42049e-08
3.02868e-08
1.46329e-06
1.12213e-07
1.42142e-06
2.37783e-07
1.38271e-06
4.13372e-07
1.35313e-06
6.37853e-07
1.33656e-06
9.33061e-07
1.36813e-06
1.33843e-06
1.42468e-06
1.73529e-06
1.43375e-06
2.00981e-06
1.33788e-06
2.11701e-06
1.15294e-06
2.13954e-06
9.59098e-07
2.17099e-06
7.8942e-07
2.22011e-06
6.37777e-07
2.27858e-06
5.03917e-07
2.34085e-06
3.84689e-07
2.40517e-06
2.78139e-07
2.46984e-06
1.83562e-07
2.53573e-06
1.01752e-07
2.60184e-06
3.17791e-08
2.90004e-08
1.50764e-06
1.07528e-07
1.4679e-06
2.27052e-07
1.43208e-06
3.94648e-07
1.40128e-06
6.10871e-07
1.38003e-06
8.75104e-07
1.39425e-06
1.25356e-06
1.45291e-06
1.66995e-06
1.48994e-06
2.00412e-06
1.43943e-06
2.1728e-06
1.28212e-06
2.21036e-06
1.0821e-06
2.22859e-06
9.01434e-07
2.26509e-06
7.44433e-07
2.31545e-06
6.00849e-07
2.37099e-06
4.73748e-07
2.42977e-06
3.60076e-07
2.48954e-06
2.58446e-07
2.54964e-06
1.69653e-07
2.6101e-06
9.34989e-08
2.67136e-06
2.89975e-08
2.73728e-08
1.54968e-06
1.02621e-07
1.51249e-06
2.15778e-07
1.47912e-06
3.78462e-07
1.44823e-06
5.85237e-07
1.42699e-06
8.27923e-07
1.42706e-06
1.17088e-06
1.47703e-06
1.59193e-06
1.53088e-06
1.97213e-06
1.52189e-06
2.20876e-06
1.40346e-06
2.28311e-06
1.20927e-06
2.29543e-06
1.01523e-06
2.31785e-06
8.48675e-07
2.35782e-06
7.02068e-07
2.4068e-06
5.65012e-07
2.46032e-06
4.43181e-07
2.51493e-06
3.34685e-07
2.56915e-06
2.38821e-07
2.62434e-06
1.55412e-07
2.67958e-06
8.53015e-08
2.73511e-06
2.6331e-08
2.55849e-08
1.58844e-06
9.8527e-08
1.55371e-06
2.05607e-07
1.52259e-06
3.62837e-07
1.49465e-06
5.58024e-07
1.47514e-06
7.91248e-07
1.46353e-06
1.09807e-06
1.4999e-06
1.50784e-06
1.56108e-06
1.91786e-06
1.5851e-06
2.21982e-06
1.51084e-06
2.34941e-06
1.33722e-06
2.36978e-06
1.13488e-06
2.37869e-06
9.543e-07
2.40701e-06
7.99486e-07
2.44884e-06
6.60016e-07
2.49605e-06
5.29254e-07
2.54548e-06
4.12611e-07
2.59419e-06
3.0975e-07
2.64394e-06
2.19213e-07
2.69361e-06
1.41379e-07
2.74362e-06
7.67742e-08
2.79367e-06
2.35848e-08
2.38165e-08
1.62351e-06
9.3221e-08
1.59369e-06
1.9497e-07
1.56429e-06
3.45405e-07
1.53978e-06
5.34059e-07
1.51847e-06
7.62825e-07
1.50364e-06
1.03581e-06
1.52577e-06
1.42203e-06
1.58556e-06
1.84728e-06
1.63162e-06
2.20453e-06
1.60036e-06
2.40031e-06
1.45992e-06
2.44819e-06
1.25882e-06
2.44833e-06
1.06512e-06
2.46377e-06
8.97502e-07
2.49642e-06
7.51827e-07
2.53682e-06
6.19227e-07
2.58113e-06
4.93575e-07
2.62485e-06
3.81966e-07
2.66968e-06
2.83996e-07
2.71415e-06
1.98678e-07
2.7583e-06
1.26712e-07
2.80244e-06
6.80219e-08
2.84699e-06
2.07404e-08
2.19758e-08
1.65513e-06
8.64969e-08
1.63019e-06
1.85492e-07
1.60308e-06
3.28461e-07
1.58116e-06
5.13581e-07
1.56037e-06
7.3293e-07
1.5483e-06
9.84597e-07
1.55468e-06
1.33986e-06
1.60786e-06
1.76672e-06
1.66608e-06
2.1642e-06
1.67193e-06
2.42866e-06
1.57198e-06
2.52332e-06
1.38475e-06
2.52633e-06
1.18091e-06
2.52858e-06
1.00029e-06
2.55005e-06
8.4383e-07
2.58359e-06
7.04999e-07
2.62196e-06
5.78374e-07
2.6612e-06
4.57211e-07
2.70093e-06
3.50715e-07
2.74007e-06
2.58096e-07
2.77862e-06
1.7837e-07
2.81712e-06
1.12028e-07
2.85582e-06
5.91702e-08
2.89439e-06
1.78472e-08
1.98631e-08
1.68316e-06
7.99957e-08
1.66161e-06
1.76417e-07
1.63916e-06
3.12147e-07
1.61919e-06
4.93842e-07
1.60075e-06
7.03217e-07
1.58984e-06
9.45104e-07
1.58745e-06
1.2648e-06
1.62966e-06
1.68191e-06
1.69265e-06
2.10377e-06
1.72646e-06
2.43137e-06
1.66917e-06
2.58715e-06
1.50813e-06
2.60987e-06
1.30131e-06
2.60145e-06
1.10789e-06
2.61039e-06
9.39942e-07
2.63589e-06
7.91471e-07
2.66843e-06
6.58489e-07
2.70296e-06
5.36544e-07
2.73739e-06
4.20737e-07
2.77151e-06
3.19241e-07
2.8051e-06
2.31624e-07
2.83829e-06
1.57214e-07
2.87089e-06
9.69733e-08
2.90346e-06
5.01044e-08
2.94677e-06
1.54141e-08
1.78291e-08
1.70645e-06
7.41194e-08
1.68896e-06
1.65303e-07
1.67252e-06
2.96649e-07
1.65452e-06
4.72548e-07
1.64043e-06
6.75538e-07
1.62832e-06
9.08967e-07
1.62585e-06
1.19885e-06
1.65344e-06
1.59609e-06
1.71542e-06
2.02956e-06
1.76679e-06
2.40865e-06
1.74914e-06
2.63204e-06
1.62429e-06
2.69295e-06
1.42491e-06
2.68258e-06
1.22012e-06
2.67842e-06
1.03983e-06
2.69417e-06
8.81605e-07
2.71992e-06
7.39899e-07
2.74975e-06
6.11644e-07
2.77934e-06
4.94572e-07
2.80903e-06
3.83177e-07
2.83766e-06
2.86673e-07
2.86539e-06
2.0455e-07
2.89244e-06
1.35693e-07
2.91909e-06
8.13591e-08
2.9556e-06
4.12676e-08
2.98332e-06
1.38126e-08
1.58566e-08
1.72462e-06
6.80792e-08
1.71237e-06
1.52914e-07
1.70128e-06
2.81844e-07
1.68727e-06
4.49867e-07
1.67706e-06
6.50971e-07
1.66487e-06
8.72608e-07
1.66451e-06
1.14409e-06
1.68051e-06
1.51262e-06
1.73689e-06
1.94764e-06
1.79727e-06
2.36324e-06
1.81217e-06
2.65356e-06
1.72754e-06
2.76927e-06
1.54796e-06
2.77085e-06
1.33658e-06
2.75494e-06
1.14358e-06
2.75913e-06
9.74807e-07
2.77717e-06
8.24291e-07
2.80199e-06
6.87602e-07
2.82718e-06
5.6368e-07
2.85223e-06
4.51353e-07
2.87588e-06
3.44938e-07
2.89863e-06
2.53441e-07
2.92048e-06
1.765e-07
2.94131e-06
1.13447e-07
2.9709e-06
6.60687e-08
2.99223e-06
3.23712e-08
3.01412e-06
1.27576e-08
1.37295e-08
1.73765e-06
6.10159e-08
1.73151e-06
1.40042e-07
1.72514e-06
2.67099e-07
1.71583e-06
4.28914e-07
1.70812e-06
6.26757e-07
1.70112e-06
8.38942e-07
1.69839e-06
1.09746e-06
1.71089e-06
1.43564e-06
1.7574e-06
1.86267e-06
1.8218e-06
2.29977e-06
1.86071e-06
2.64985e-06
1.81586e-06
2.83038e-06
1.66637e-06
2.86141e-06
1.45733e-06
2.83918e-06
1.25214e-06
2.83067e-06
1.07199e-06
2.84003e-06
9.11922e-07
2.85899e-06
7.67224e-07
2.88007e-06
6.34699e-07
2.90083e-06
5.15081e-07
2.91993e-06
4.07277e-07
2.93795e-06
3.05586e-07
2.95476e-06
2.1918e-07
2.97007e-06
1.47754e-07
2.99292e-06
9.14634e-08
3.00886e-06
4.94549e-08
3.02266e-06
2.38772e-08
3.03706e-06
1.15126e-08
1.13484e-08
1.74563e-06
5.28812e-08
1.74578e-06
1.27947e-07
1.74359e-06
2.51179e-07
1.74093e-06
4.0684e-07
1.73779e-06
5.97977e-07
1.73675e-06
8.08026e-07
1.7319e-06
1.05115e-06
1.74456e-06
1.36644e-06
1.78005e-06
1.77606e-06
1.84394e-06
2.22395e-06
1.89763e-06
2.622e-06
1.88852e-06
2.87025e-06
1.77602e-06
2.94786e-06
1.57989e-06
2.93052e-06
1.366e-06
2.90979e-06
1.17294e-06
2.90925e-06
1.00264e-06
2.9214e-06
8.49406e-07
2.93795e-06
7.09295e-07
2.95475e-06
5.80703e-07
2.97043e-06
4.64536e-07
2.98356e-06
3.61633e-07
2.99509e-06
2.65248e-07
3.00519e-06
1.84094e-07
3.0217e-06
1.18974e-07
3.03228e-06
6.80535e-08
3.03971e-06
3.24314e-08
3.04636e-06
1.45963e-08
3.05446e-06
7.86923e-09
8.54541e-09
1.74802e-06
4.44889e-08
1.75397e-06
1.15552e-07
1.75807e-06
2.32178e-07
1.76246e-06
3.84075e-07
1.76361e-06
5.69082e-07
1.76654e-06
7.77405e-07
1.76727e-06
1.00618e-06
1.77677e-06
1.30496e-06
1.80572e-06
1.69149e-06
1.8646e-06
2.14169e-06
1.92613e-06
2.57322e-06
1.94624e-06
2.88621e-06
1.87254e-06
3.02345e-06
1.70038e-06
3.0265e-06
1.48397e-06
2.99713e-06
1.27865e-06
2.98524e-06
1.09697e-06
2.98917e-06
9.34796e-07
3.00118e-06
7.86115e-07
3.01426e-06
6.49671e-07
3.02597e-06
5.25111e-07
3.03514e-06
4.12922e-07
3.04184e-06
3.14816e-07
3.0468e-06
2.23635e-07
3.05668e-06
1.4913e-07
3.0625e-06
8.87781e-08
3.06383e-06
4.39447e-08
3.06408e-06
1.47193e-08
3.06527e-06
3.85874e-09
3.06741e-06
3.11396e-09
6.86505e-09
1.74478e-06
3.67955e-08
1.75564e-06
1.02457e-07
1.76694e-06
2.13224e-07
1.77692e-06
3.61133e-07
1.78525e-06
5.40395e-07
1.7921e-06
7.43365e-07
1.80043e-06
9.65492e-07
1.8079e-06
1.24846e-06
1.83326e-06
1.61199e-06
1.88538e-06
2.05629e-06
1.94984e-06
2.50858e-06
1.99068e-06
2.87782e-06
1.9546e-06
3.08108e-06
1.81484e-06
3.12158e-06
1.60532e-06
3.09142e-06
1.38965e-06
3.06792e-06
1.19592e-06
3.06286e-06
1.02332e-06
3.06953e-06
8.66413e-07
3.07853e-06
7.21786e-07
3.08666e-06
5.88907e-07
3.09246e-06
4.67749e-07
3.09517e-06
3.59578e-07
3.09487e-06
2.66736e-07
3.09805e-06
1.82265e-07
3.09988e-06
1.11799e-07
3.09498e-06
5.76702e-08
3.0894e-06
1.86666e-08
3.08273e-06
-2.76025e-09
3.07759e-06
-6.3041e-09
3.06788e-06
-2.95493e-09
4.10995e-09
1.73659e-06
2.92552e-08
1.75223e-06
8.96148e-08
1.76835e-06
1.95095e-07
1.78492e-06
3.37379e-07
1.80044e-06
5.12349e-07
1.81311e-06
7.0706e-07
1.82829e-06
9.25283e-07
1.84052e-06
1.19329e-06
1.86275e-06
1.53638e-06
1.90865e-06
1.96933e-06
1.97224e-06
2.43237e-06
2.02593e-06
2.84606e-06
2.02237e-06
3.11641e-06
1.91923e-06
3.20897e-06
1.72741e-06
3.1909e-06
1.50579e-06
3.15765e-06
1.29986e-06
3.1427e-06
1.11603e-06
3.14276e-06
9.50005e-07
3.14782e-06
7.96979e-07
3.15262e-06
6.55788e-07
3.15507e-06
5.26239e-07
3.1543e-06
4.08581e-07
3.14996e-06
3.04432e-07
3.14592e-06
2.1885e-07
3.14391e-06
1.3821e-07
3.13279e-06
7.39931e-08
3.12148e-06
2.56063e-08
3.1088e-06
-7.32873e-09
3.09565e-06
-2.08006e-08
3.08285e-06
-2.1255e-08
3.06177e-06
-9.15053e-09
1.17521e-09
1.72091e-06
2.22972e-08
1.74345e-06
7.60189e-08
1.7657e-06
1.76353e-07
1.78694e-06
3.13792e-07
1.80834e-06
4.84612e-07
1.82806e-06
6.71806e-07
1.8483e-06
8.86724e-07
1.86672e-06
1.14318e-06
1.89059e-06
1.46611e-06
1.93288e-06
1.88348e-06
1.99444e-06
2.34887e-06
2.05561e-06
2.79415e-06
2.07778e-06
3.1272e-06
2.01147e-06
3.28214e-06
1.84601e-06
3.29207e-06
1.62621e-06
3.25453e-06
1.40886e-06
3.22904e-06
1.21332e-06
3.22144e-06
1.03723e-06
3.22246e-06
8.75375e-07
3.22399e-06
7.25512e-07
3.22351e-06
5.8728e-07
3.21938e-06
4.61107e-07
3.21129e-06
3.47224e-07
3.20085e-06
2.49477e-07
3.19482e-06
1.67859e-07
3.1775e-06
9.34874e-08
3.16037e-06
3.51104e-08
3.14239e-06
-7.95559e-09
3.12298e-06
-3.4619e-08
3.10419e-06
-4.21198e-08
3.08078e-06
-4.02486e-08
3.04424e-06
-2.4205e-09
-8.92796e-09
-1.83563e-09
1.6973e-06
1.60459e-08
1.72703e-06
6.34567e-08
1.75589e-06
1.59105e-07
1.78283e-06
2.91e-07
1.80958e-06
4.53812e-07
1.83898e-06
6.36643e-07
1.86315e-06
8.45008e-07
1.88982e-06
1.09517e-06
1.91457e-06
1.40425e-06
1.95225e-06
1.80121e-06
2.01492e-06
2.26294e-06
2.08008e-06
2.72643e-06
2.12326e-06
3.11289e-06
2.09215e-06
3.33458e-06
1.95899e-06
3.38837e-06
1.74967e-06
3.35682e-06
1.52387e-06
3.32162e-06
1.31634e-06
3.30579e-06
1.12893e-06
3.30158e-06
9.57931e-07
3.30045e-06
7.98854e-07
3.29762e-06
6.51297e-07
3.29072e-06
5.15871e-07
3.27896e-06
3.93371e-07
3.26277e-06
2.85255e-07
3.25302e-06
1.91318e-07
3.23009e-06
1.15333e-07
3.20626e-06
4.76265e-08
3.18285e-06
-5.33195e-09
3.158e-06
-4.29427e-08
3.13374e-06
-6.41206e-08
3.10924e-06
-7.05541e-08
3.06749e-06
-2.981e-08
-3.36711e-08
1.50961e-06
-9.07638e-10
1.51179e-06
-1.10945e-08
-4.70535e-09
1.66682e-06
1.03487e-08
1.7028e-06
5.3164e-08
1.7372e-06
1.43037e-07
1.77181e-06
2.68731e-07
1.80493e-06
4.22123e-07
1.8411e-06
6.01863e-07
1.87346e-06
8.00266e-07
1.90776e-06
1.04811e-06
1.93651e-06
1.34661e-06
1.97199e-06
1.72296e-06
2.03029e-06
2.17851e-06
2.09933e-06
2.65264e-06
2.15381e-06
3.07921e-06
2.1569e-06
3.36364e-06
2.06306e-06
3.47356e-06
1.87377e-06
3.46028e-06
1.64607e-06
3.41988e-06
1.42561e-06
3.39537e-06
1.2267e-06
3.38557e-06
1.04506e-06
3.38177e-06
8.76478e-07
3.37696e-06
7.19403e-07
3.36739e-06
5.74559e-07
3.35314e-06
4.41497e-07
3.33344e-06
3.22655e-07
3.31826e-06
2.19978e-07
3.28997e-06
1.31277e-07
3.25911e-06
6.2498e-08
3.22941e-06
1.09539e-09
3.20001e-06
-4.73193e-08
3.17152e-06
-8.06996e-08
3.14059e-06
-4.7413e-08
-4.80163e-08
1.54845e-06
-4.82605e-08
1.54546e-06
-4.86848e-08
1.51131e-06
-2.93296e-08
1.51984e-06
-4.22021e-08
1.49933e-06
-1.30138e-09
1.50102e-06
-1.27844e-08
-7.64172e-09
1.63149e-06
4.59832e-09
1.67245e-06
4.34327e-08
1.71233e-06
1.26773e-07
1.75332e-06
2.46851e-07
1.79343e-06
3.91638e-07
1.83535e-06
5.68317e-07
1.87459e-06
7.59357e-07
1.91443e-06
1.00303e-06
1.95263e-06
1.29044e-06
1.99269e-06
1.64824e-06
2.04651e-06
2.09204e-06
2.11662e-06
2.57239e-06
2.17942e-06
3.0284e-06
2.20459e-06
3.37236e-06
2.14811e-06
3.54425e-06
1.99232e-06
3.56187e-06
1.77217e-06
3.52344e-06
1.54233e-06
3.48937e-06
1.33148e-06
3.47428e-06
1.13788e-06
3.4676e-06
9.59154e-07
3.46077e-06
7.92595e-07
3.45005e-06
6.36658e-07
3.43418e-06
4.93584e-07
3.41097e-06
3.63881e-07
3.38896e-06
2.51906e-07
3.35699e-06
1.53044e-07
3.31913e-06
7.12367e-08
3.28259e-06
9.35333e-09
3.24766e-06
-4.64783e-08
3.21527e-06
-9.10322e-08
3.18011e-06
-5.92608e-08
-6.09136e-08
1.55651e-06
-5.54676e-08
1.56978e-06
-6.12857e-08
1.52485e-06
-5.32692e-08
1.55436e-06
-6.43578e-08
1.53684e-06
-6.06752e-08
1.50438e-06
-3.26853e-08
1.51116e-06
-4.89795e-08
1.48786e-06
-2.51168e-09
1.4917e-06
-1.66255e-08
-1.04444e-08
1.59046e-06
-4.0217e-10
1.63638e-06
3.32795e-08
1.68247e-06
1.11083e-07
1.72788e-06
2.2482e-07
1.77517e-06
3.62635e-07
1.82237e-06
5.34271e-07
1.86912e-06
7.18409e-07
1.9151e-06
9.56156e-07
1.96107e-06
1.23608e-06
2.00662e-06
1.58022e-06
2.06053e-06
2.00753e-06
2.13084e-06
2.48812e-06
2.20075e-06
2.96271e-06
2.24503e-06
3.35646e-06
2.22044e-06
3.59368e-06
2.09861e-06
3.66044e-06
1.89377e-06
3.63156e-06
1.66401e-06
3.58853e-06
1.44318e-06
3.5671e-06
1.23857e-06
3.55648e-06
1.04887e-06
3.5492e-06
8.7058e-07
3.53835e-06
7.04144e-07
3.52104e-06
5.4968e-07
3.49609e-06
4.08418e-07
3.46731e-06
2.85358e-07
3.43222e-06
1.76652e-07
3.38703e-06
8.51238e-08
3.34295e-06
1.09237e-08
3.30021e-06
-4.32026e-08
3.26253e-06
-9.368e-08
3.22696e-06
-7.03716e-08
-6.74561e-08
1.57726e-06
-6.67206e-08
1.59006e-06
-7.37062e-08
1.56528e-06
-7.21912e-08
1.51935e-06
-6.145e-08
1.54695e-06
-7.44525e-08
1.53048e-06
-7.18071e-08
1.49553e-06
-3.65153e-08
1.50223e-06
-5.56687e-08
1.47621e-06
-4.68111e-09
1.48195e-06
-2.23769e-08
-1.27444e-08
1.54284e-06
-4.37294e-09
1.59431e-06
2.42917e-08
1.64523e-06
9.69121e-08
1.69651e-06
2.02849e-07
1.74986e-06
3.34471e-07
1.80319e-06
4.9807e-07
1.85842e-06
6.77164e-07
1.91015e-06
9.09126e-07
1.96187e-06
1.18451e-06
2.01255e-06
1.51769e-06
2.06923e-06
1.92633e-06
2.14154e-06
2.40251e-06
2.21631e-06
2.88842e-06
2.27491e-06
3.32126e-06
2.28013e-06
3.61827e-06
2.19578e-06
3.74364e-06
2.01536e-06
3.73906e-06
1.78618e-06
3.69598e-06
1.5565e-06
3.6657e-06
1.34448e-06
3.65012e-06
1.14492e-06
3.64213e-06
9.55981e-07
3.63094e-06
7.77774e-07
3.61388e-06
6.11251e-07
3.58802e-06
4.57642e-07
3.55404e-06
3.21754e-07
3.51652e-06
2.00811e-07
3.46423e-06
9.94431e-08
3.41072e-06
1.73094e-08
3.35888e-06
-4.77141e-08
3.31277e-06
-9.34145e-08
3.27364e-06
-7.31236e-08
-6.71919e-08
1.59945e-06
-7.9734e-08
1.61365e-06
-8.1647e-08
1.57602e-06
-7.74474e-08
1.58875e-06
-8.64195e-08
1.55943e-06
-8.46492e-08
1.51199e-06
-7.12042e-08
1.54178e-06
-8.57417e-08
1.52463e-06
-8.44375e-08
1.48492e-06
-3.94845e-08
1.49134e-06
-6.20645e-08
1.46053e-06
-6.10274e-09
1.46532e-06
-2.71588e-08
-1.40847e-08
1.48969e-06
-8.10967e-09
1.54644e-06
1.7255e-08
1.60122e-06
8.26505e-08
1.65935e-06
1.83928e-07
1.71529e-06
3.08536e-07
1.77565e-06
4.6201e-07
1.83909e-06
6.3851e-07
1.89687e-06
8.62514e-07
1.95662e-06
1.1324e-06
2.014e-06
1.4549e-06
2.07475e-06
1.84786e-06
2.14735e-06
2.3161e-06
2.22776e-06
2.80754e-06
2.29704e-06
3.26906e-06
2.327e-06
3.6209e-06
2.27738e-06
3.80867e-06
2.13071e-06
3.84126e-06
1.91318e-06
3.80451e-06
1.67761e-06
3.76832e-06
1.4537e-06
3.74947e-06
1.24508e-06
3.7391e-06
1.04777e-06
3.72814e-06
8.58893e-07
3.7126e-06
6.78918e-07
3.68705e-06
5.1217e-07
3.64958e-06
3.62002e-07
3.61096e-06
2.27299e-07
3.5514e-06
1.1358e-07
3.4879e-06
2.22294e-08
3.42474e-06
-4.85548e-08
3.36796e-06
-1.02873e-07
3.32215e-06
-7.24452e-08
-6.94391e-08
1.62397e-06
-8.34267e-08
1.63866e-06
-8.1868e-08
1.60107e-06
-9.20438e-08
1.61406e-06
-9.46171e-08
1.57286e-06
-9.08657e-08
1.58684e-06
-1.00385e-07
1.55531e-06
-9.81613e-08
1.50125e-06
-8.11202e-08
1.53624e-06
-9.73491e-08
1.51409e-06
-9.72631e-08
1.47061e-06
-4.47748e-08
1.47814e-06
-6.95945e-08
1.44328e-06
-7.16826e-09
1.44801e-06
-3.18732e-08
-1.49108e-08
1.43233e-06
-1.18574e-08
1.49332e-06
1.02824e-08
1.55329e-06
6.84784e-08
1.61515e-06
1.70148e-07
1.67314e-06
2.82317e-07
1.74136e-06
4.27153e-07
1.81033e-06
6.00868e-07
1.87659e-06
8.16062e-07
1.94321e-06
1.07956e-06
2.00921e-06
1.39418e-06
2.07449e-06
1.77307e-06
2.14949e-06
2.22813e-06
2.23512e-06
2.72148e-06
2.31367e-06
3.20178e-06
2.36418e-06
3.60149e-06
2.34635e-06
3.8496e-06
2.23636e-06
3.93399e-06
2.0379e-06
3.91468e-06
1.80292e-06
3.87408e-06
1.57184e-06
3.84984e-06
1.35315e-06
3.83877e-06
1.14542e-06
3.83056e-06
9.45234e-07
3.81702e-06
7.54423e-07
3.79322e-06
5.72657e-07
3.75615e-06
4.05491e-07
3.71475e-06
2.58258e-07
3.65033e-06
1.28331e-07
3.57712e-06
2.43105e-08
3.50064e-06
-5.36917e-08
3.43033e-06
-1.10906e-07
3.37377e-06
-7.87312e-08
-7.57288e-08
1.64884e-06
-8.26164e-08
1.66373e-06
-8.43101e-08
1.62669e-06
-9.60411e-08
1.63998e-06
-9.51451e-08
1.60107e-06
-1.06258e-07
1.6158e-06
-1.09324e-07
1.5705e-06
-1.06044e-07
1.58586e-06
-1.15732e-07
1.55164e-06
-1.13541e-07
1.48892e-06
-9.18877e-08
1.52849e-06
-1.11738e-07
1.50269e-06
-1.1103e-07
1.45557e-06
-5.23242e-08
1.46336e-06
-7.73833e-08
1.42449e-06
-8.22698e-09
1.43032e-06
-3.76961e-08
-1.56404e-08
1.37082e-06
-1.45119e-08
1.43487e-06
4.08484e-09
1.49937e-06
5.89497e-08
1.56271e-06
1.57315e-07
1.62794e-06
2.56574e-07
1.69861e-06
3.96248e-07
1.77204e-06
5.63161e-07
1.84775e-06
7.72952e-07
1.91952e-06
1.02832e-06
1.99414e-06
1.33683e-06
2.06629e-06
1.70137e-06
2.14596e-06
2.14077e-06
2.23664e-06
2.63199e-06
2.32441e-06
3.12311e-06
2.39217e-06
3.56146e-06
2.40409e-06
3.8663e-06
2.32954e-06
4.00829e-06
2.162e-06
4.01953e-06
1.93298e-06
3.98331e-06
1.69365e-06
3.95651e-06
1.4651e-06
3.94082e-06
1.25093e-06
3.93357e-06
1.04231e-06
3.92323e-06
8.38911e-07
3.90457e-06
6.42927e-07
3.87086e-06
4.5781e-07
3.82708e-06
2.93097e-07
3.76307e-06
1.45405e-07
3.68026e-06
2.51329e-08
3.59046e-06
-6.5555e-08
3.50119e-06
-1.24553e-07
3.42843e-06
-8.54207e-08
-8.01123e-08
1.67333e-06
-8.83261e-08
1.6885e-06
-9.0882e-08
1.65243e-06
-9.50536e-08
1.66487e-06
-9.67322e-08
1.6299e-06
-1.10121e-07
1.64374e-06
-1.08972e-07
1.60182e-06
-1.22193e-07
1.61785e-06
-1.25341e-07
1.56975e-06
-1.24142e-07
1.58553e-06
-1.31495e-07
1.54543e-06
-1.30474e-07
1.47444e-06
-1.02968e-07
1.51912e-06
-1.28158e-07
1.4891e-06
-1.25679e-07
1.43954e-06
-6.15433e-08
1.4463e-06
-8.41386e-08
1.40298e-06
-8.92404e-09
1.40802e-06
-4.27339e-08
-1.64836e-08
1.3055e-06
-1.65482e-08
1.37277e-06
-8.5421e-11
1.43891e-06
5.29347e-08
1.50527e-06
1.42932e-07
1.57698e-06
2.39075e-07
1.64533e-06
3.6941e-07
1.72526e-06
5.27156e-07
1.80788e-06
7.32943e-07
1.88765e-06
9.78865e-07
1.96874e-06
1.28127e-06
2.04949e-06
1.63241e-06
2.13511e-06
2.05509e-06
2.23137e-06
2.53993e-06
2.3285e-06
3.03649e-06
2.41085e-06
3.50278e-06
2.45071e-06
3.86039e-06
2.40991e-06
4.05977e-06
2.27797e-06
4.11388e-06
2.06756e-06
4.09011e-06
1.82605e-06
4.06074e-06
1.58936e-06
4.04548e-06
1.36034e-06
4.0388e-06
1.14562e-06
4.03251e-06
9.32944e-07
4.01769e-06
7.25711e-07
3.99013e-06
5.23596e-07
3.94762e-06
3.37122e-07
3.88844e-06
1.67565e-07
3.79934e-06
2.62748e-08
3.69668e-06
-8.11314e-08
3.58758e-06
-1.51985e-07
3.48947e-06
-9.3739e-08
-9.18429e-08
1.69682e-06
-9.37327e-08
1.71208e-06
-9.53677e-08
1.67596e-06
-9.93979e-08
1.68727e-06
-1.02189e-07
1.65643e-06
-1.07731e-07
1.66865e-06
-1.08933e-07
1.63353e-06
-1.25785e-07
1.64834e-06
-1.23764e-07
1.60317e-06
-1.39814e-07
1.62117e-06
-1.43328e-07
1.56477e-06
-1.43468e-07
1.58427e-06
-1.50972e-07
1.53841e-06
-1.49743e-07
1.45699e-06
-1.13648e-07
1.50783e-06
-1.46875e-07
1.47308e-06
-1.41762e-07
1.41634e-06
-6.98587e-08
1.42522e-06
-9.3014e-08
1.37979e-06
-9.47531e-09
1.3837e-06
-4.66349e-08
-1.81015e-08
1.23719e-06
-1.93077e-08
1.30814e-06
-3.13724e-09
1.37573e-06
4.74022e-08
1.44435e-06
1.30706e-07
1.5174e-06
2.28382e-07
1.58755e-06
3.41864e-07
1.67273e-06
4.94409e-07
1.75785e-06
6.95528e-07
1.84514e-06
9.34598e-07
1.93177e-06
1.22757e-06
2.0222e-06
1.56649e-06
2.11519e-06
1.97156e-06
2.21835e-06
2.44583e-06
2.32524e-06
2.94354e-06
2.42126e-06
3.42834e-06
2.48515e-06
3.83246e-06
2.47851e-06
4.08862e-06
2.38098e-06
4.19232e-06
2.19943e-06
4.19257e-06
1.96508e-06
4.16318e-06
1.72356e-06
4.14751e-06
1.48723e-06
4.14428e-06
1.25463e-06
4.14761e-06
1.03041e-06
4.13497e-06
8.15586e-07
4.11338e-06
6.02256e-07
4.07422e-06
3.96958e-07
4.02369e-06
2.01812e-07
3.93383e-06
3.29222e-08
3.8228e-06
-9.98923e-08
3.69329e-06
-1.86887e-07
3.56741e-06
-1.13316e-07
-1.16647e-07
1.72006e-06
-1.01712e-07
1.73849e-06
-1.10266e-07
1.69678e-06
-1.03229e-07
1.70733e-06
-1.05904e-07
1.67952e-06
-1.10258e-07
1.68915e-06
-1.118e-07
1.66229e-06
-1.21669e-07
1.67426e-06
-1.20882e-07
1.63848e-06
-1.43073e-07
1.65506e-06
-1.40333e-07
1.6049e-06
-1.60425e-07
1.62535e-06
-1.63766e-07
1.56017e-06
-1.65216e-07
1.58323e-06
-1.74015e-07
1.5299e-06
-1.71804e-07
1.43617e-06
-1.24594e-07
1.4945e-06
-1.68286e-07
1.4537e-06
-1.59285e-07
1.39165e-06
-7.78052e-08
1.40189e-06
-1.03251e-07
1.35472e-06
-9.10143e-09
1.357e-06
-4.89061e-08
-2.13371e-08
1.16418e-06
-2.32278e-08
1.24103e-06
-6.17972e-09
1.3111e-06
4.34889e-08
1.37958e-06
1.2279e-07
1.45219e-06
2.18776e-07
1.52691e-06
3.17783e-07
1.61168e-06
4.68766e-07
1.69821e-06
6.61782e-07
1.79131e-06
8.94437e-07
1.88513e-06
1.17566e-06
1.98344e-06
1.50279e-06
2.08563e-06
1.88953e-06
2.19694e-06
2.34985e-06
2.31405e-06
2.84587e-06
2.42265e-06
3.34152e-06
2.50789e-06
3.78289e-06
2.5346e-06
4.09312e-06
2.47391e-06
4.2501e-06
2.32312e-06
4.28564e-06
2.10622e-06
4.2656e-06
1.86255e-06
4.24873e-06
1.62225e-06
4.24733e-06
1.38401e-06
4.25454e-06
1.14742e-06
4.25435e-06
9.10912e-07
4.24163e-06
6.87357e-07
4.21267e-06
4.63486e-07
4.16717e-06
2.53401e-07
4.07973e-06
5.58902e-08
3.96498e-06
-1.09372e-07
3.82184e-06
-2.28483e-07
3.67365e-06
-1.50975e-07
-1.42203e-07
1.74854e-06
-1.23369e-07
1.77422e-06
-1.42335e-07
1.71687e-06
-1.11251e-07
1.72966e-06
-1.23048e-07
1.69757e-06
-1.11642e-07
1.70559e-06
-1.13918e-07
1.68478e-06
-1.20771e-07
1.69331e-06
-1.2032e-07
1.66972e-06
-1.36307e-07
1.68274e-06
-1.33893e-07
1.64518e-06
-1.62882e-07
1.66297e-06
-1.58104e-07
1.6073e-06
-1.84481e-07
1.63092e-06
-1.87364e-07
1.55452e-06
-1.89815e-07
1.58177e-06
-2.01249e-07
1.51898e-06
-1.96271e-07
1.4115e-06
-1.34204e-07
1.47797e-06
-1.9254e-07
1.42846e-06
-1.76236e-07
1.36279e-06
-8.35929e-08
1.37016e-06
-1.10612e-07
1.32926e-06
-6.82265e-09
1.32925e-06
-4.88844e-08
-2.67419e-08
1.08336e-06
-2.96557e-08
1.17054e-06
-1.01569e-08
1.24492e-06
4.01512e-08
1.31439e-06
1.17644e-07
1.38464e-06
2.09413e-07
1.46148e-06
3.03343e-07
1.54129e-06
4.49907e-07
1.63003e-06
6.34011e-07
1.72572e-06
8.58004e-07
1.82763e-06
1.12752e-06
1.93306e-06
1.44113e-06
2.04484e-06
1.8096e-06
2.16529e-06
2.25317e-06
2.29335e-06
2.7438e-06
2.41582e-06
3.24408e-06
2.51991e-06
3.71329e-06
2.57735e-06
4.07245e-06
2.55516e-06
4.28508e-06
2.43884e-06
4.36424e-06
2.24447e-06
4.36404e-06
2.00765e-06
4.34864e-06
1.76256e-06
4.34799e-06
1.52159e-06
4.35783e-06
1.28068e-06
4.36727e-06
1.03437e-06
4.36786e-06
7.84521e-07
4.35724e-06
5.42686e-07
4.31692e-06
3.136e-07
4.24117e-06
9.18716e-08
4.12308e-06
-1.02217e-07
3.97634e-06
-2.63954e-07
3.79672e-06
-3.51524e-07
1.78671e-06
-1.63465e-07
1.81944e-06
-1.74944e-07
1.74281e-06
-1.36525e-07
1.76325e-06
-1.62769e-07
1.71363e-06
-1.19287e-07
1.72222e-06
-1.31632e-07
1.70012e-06
-1.18441e-07
1.70582e-06
-1.19605e-07
1.6928e-06
-1.30825e-07
1.70014e-06
-1.27651e-07
1.68009e-06
-1.53413e-07
1.69407e-06
-1.47872e-07
1.65396e-06
-1.85913e-07
1.6757e-06
-1.79823e-07
1.60967e-06
-2.12362e-07
1.63748e-06
-2.15158e-07
1.54739e-06
-2.1821e-07
1.57906e-06
-2.32896e-07
1.50509e-06
-2.23381e-07
1.38019e-06
-1.44226e-07
1.45372e-06
-2.17783e-07
1.39738e-06
-1.93424e-07
1.33189e-06
-8.62278e-08
1.33607e-06
-1.14788e-07
1.30464e-06
-2.5155e-09
1.30104e-06
-4.52766e-08
-3.52429e-08
9.89668e-07
-4.03318e-08
1.09398e-06
-1.67728e-08
1.17709e-06
3.60299e-08
1.24899e-06
1.14536e-07
1.31746e-06
2.0165e-07
1.39223e-06
2.98515e-07
1.46621e-06
4.36648e-07
1.55436e-06
6.13847e-07
1.65017e-06
8.2585e-07
1.75779e-06
1.08469e-06
1.87027e-06
1.38319e-06
1.99076e-06
1.73222e-06
2.12194e-06
2.15606e-06
2.26207e-06
2.6376e-06
2.39926e-06
3.13797e-06
2.52174e-06
3.62582e-06
2.60716e-06
4.02673e-06
2.62297e-06
4.29427e-06
2.54587e-06
4.42352e-06
2.37947e-06
4.45217e-06
2.15618e-06
4.44509e-06
1.91106e-06
4.44625e-06
1.66422e-06
4.46087e-06
1.41846e-06
4.47799e-06
1.16984e-06
4.48897e-06
9.1321e-07
4.48946e-06
6.52271e-07
4.46754e-06
3.9184e-07
4.41966e-06
1.34909e-07
4.3034e-06
-8.8561e-08
4.15356e-06
-2.79488e-07
3.96619e-06
-4.33593e-07
-1.80304e-06
3.75189e-06
-2.2913e-07
-2.51712e-07
1.77706e-06
-1.77277e-07
-2.00923e-07
1.73417e-06
-1.48466e-07
1.74974e-06
-1.78336e-07
1.71215e-06
-1.25623e-07
1.71884e-06
-1.38324e-07
1.70565e-06
-1.23946e-07
1.71115e-06
-1.2511e-07
1.70474e-06
-1.41489e-07
1.71239e-06
-1.35308e-07
1.69486e-06
-1.72566e-07
1.70966e-06
-1.62679e-07
1.66483e-06
-2.13252e-07
1.69107e-06
-2.06059e-07
1.61158e-06
-2.44865e-07
1.64531e-06
-2.48883e-07
1.53741e-06
-2.50513e-07
1.57378e-06
-2.6925e-07
1.4849e-06
-2.54548e-07
1.34342e-06
-1.51576e-07
1.42358e-06
-2.43971e-07
1.359e-06
-2.08993e-07
1.2995e-06
-8.46795e-08
1.29647e-06
-1.11756e-07
1.28027e-06
1.99181e-09
1.27443e-06
-3.94266e-08
-4.63551e-08
8.72259e-07
-5.60848e-08
1.00537e-06
-2.75871e-08
1.10475e-06
3.03459e-08
1.18272e-06
1.12713e-07
1.25076e-06
1.98281e-07
1.32073e-06
3.0106e-07
1.38972e-06
4.30106e-07
1.47264e-06
6.00982e-07
1.5671e-06
8.00658e-07
1.67529e-06
1.04814e-06
1.79416e-06
1.32999e-06
1.92326e-06
1.65777e-06
2.06493e-06
2.06004e-06
2.21765e-06
2.52843e-06
2.37097e-06
3.0245e-06
2.51249e-06
3.52344e-06
2.62394e-06
3.95781e-06
2.67593e-06
4.27512e-06
2.64201e-06
4.45891e-06
2.51038e-06
4.52625e-06
2.30531e-06
4.53671e-06
2.06445e-06
4.54347e-06
1.81368e-06
4.56164e-06
1.5633e-06
4.58569e-06
1.31064e-06
4.60709e-06
1.0515e-06
4.6184e-06
7.84152e-07