/*--------------------------------*- C++ -*----------------------------------*\
  =========                 |
  \\      /  F ield         | OpenFOAM: The Open Source CFD Toolbox
   \\    /   O peration     | Website:  https://openfoam.org
    \\  /    A nd           | Version:  dev
     \\/     M anipulation  |
\*---------------------------------------------------------------------------*/
FoamFile
{
    version     2.0;
    format      ascii;
    class       volScalarField;
    location    "2500";
    object      qr;
}
// * * * * * * * * * * * * * * * * * * * * * * * * * * * * * * * * * * * * * //

dimensions      [1 0 -3 0 0 0 0];

internalField   uniform 0;

boundaryField
{
    lowerOutlet
    {
        type            calculated;
        value           nonuniform List<scalar> 
146
(
1115.44
1119.15
1123.24
1127.73
1132.61
1137.9
1143.6
1149.73
1156.3
1163.32
1170.82
1178.82
1187.34
1196.42
1206.08
1216.36
1227.3
1238.96
1251.39
1264.66
1278.83
1293.99
1310.24
1327.69
1346.51
1366.88
1388.93
1412.9
1439.04
1467.68
1499.21
1534.09
1572.91
1605.96
1653.63
1707.76
1769.84
1841.82
1926.31
2027.01
2148.46
2296.79
2480.61
2683.14
2981.75
3799.43
4519.95
6287.34
-7697.66
3568.44
3013.5
2632.83
2362.68
2143.23
1997.27
1883.01
1790.83
1714.72
1651.03
1596.8
1549.9
1508.86
1472.58
1432.02
1403.65
1377.91
1354.42
1332.88
1313.03
1294.66
1277.61
1261.72
1246.91
1233.07
1220.08
1207.87
1196.37
1185.53
1175.3
1165.63
1156.5
1147.87
1139.71
1132
1124.71
1117.82
1111.32
1105.19
1099.42
1094
1088.91
1084.16
1079.73
1075.61
1071.81
1068.31
1974.36
2084.8
2218.85
2383.54
2590.06
2897.67
3382.31
4424.53
5962.51
5523.29
3753.06
3132.09
2715.58
2422.33
2209.62
2065.51
1936.88
1834.59
1751.02
1681.52
1804.45
1882.3
2749.06
3030.85
4016.62
4835.16
6568.86
4204.83
3407.12
2905.32
2556.88
2307.59
1622.88
1572.53
2820.45
3084.09
4222.62
5436.64
6795.09
3966.8
3262.75
2806.18
2486.91
2256.69
1629.07
1679.79
1737.7
1528.73
1490.19
1455.93
)
;
    }
    top
    {
        type            calculated;
        value           nonuniform List<scalar> 
100
(
1015.07
1018.01
1020.94
1023.82
1026.65
1022.59
1023.65
1025.56
1027.54
1029.34
1030.94
1032.22
1033.29
1034.28
1034.93
1035.02
1034.59
1032.26
1022.36
994.3
947.304
905.929
891.555
891.348
900.933
916.643
932.188
950.606
974.217
998.074
1018.16
1033.18
1043.27
1049.93
1054.87
1058.43
1061.42
1065.57
1070.14
1074.26
1076.96
1078.72
1080.02
1081.07
1081.93
1082.61
1083.15
1083.53
1083.78
1083.92
1083.95
1083.81
1083.57
1083.22
1082.73
1082.19
1081.53
1080.81
1080
1079.11
1078.16
1077.15
1076.11
1075.02
1073.84
1072.55
1071.15
1069.65
1068.01
1066.23
1064.3
1062.2
1059.95
1057.58
1055.18
1052.93
1050.84
1048.95
1048.61
1056.8
1054.01
1051.18
1048.32
1045.42
1042.49
1039.54
1036.58
1033.6
1030.6
1027.6
1024.59
1019.01
1014.95
1010.83
1006.77
1003.08
1000.03
997.642
996.134
995.693
)
;
    }
    sides
    {
        type            calculated;
        value           nonuniform List<scalar> 
100
(
1115.44
1118.41
1121.01
1123.24
1125.1
1126.6
1127.75
1128.56
1129.02
1129.17
1129
1128.52
1127.77
1126.74
1125.45
1123.91
1122.15
1120.17
1118
1115.64
1113.11
1110.42
1107.59
1104.64
1101.57
1098.39
1095.12
1091.77
1088.36
1084.88
1081.35
1077.78
1074.17
1070.54
1066.89
1063.24
1059.59
1055.95
1052.32
1048.71
1045.13
1041.59
1038.08
1034.62
1031.21
1027.86
1024.56
1021.33
1018.16
1015.09
1068.32
1071.22
1073.83
1076.14
1078.16
1079.89
1081.34
1082.51
1083.4
1084.04
1084.41
1084.54
1084.42
1084.08
1083.52
1082.76
1081.79
1080.64
1079.31
1077.81
1076.17
1074.37
1072.45
1070.4
1068.23
1065.96
1063.6
1061.15
1058.61
1056.01
1053.35
1050.62
1047.85
1045.03
1042.17
1039.28
1036.36
1033.42
1030.46
1027.49
1024.51
1021.52
1018.52
1015.52
1012.52
1009.52
1006.52
1003.53
1000.54
997.594
)
;
    }
    front
    {
        type            empty;
    }
    back
    {
        type            empty;
    }
    roller
    {
        type            calculated;
        value           nonuniform List<scalar> 
144
(
5749.59
3937.22
2741.12
2870.58
1702.02
1380.5
1294.49
1256.85
1220.39
1228.99
8450.02
6436.03
3697.05
3024.81
2917.94
2294.9
2201.55
2103.6
1746.43
1491.83
1310.41
1304.39
1264.45
1293.66
5366.96
5768.7
5174.21
2096.32
2325.25
2236.51
1672.26
1364.11
1282.15
1218.13
7990.99
6967.79
6223.04
4213.06
2691.61
2424.86
2178
1828.69
1792.35
1937.17
1515.43
1411.08
1386.13
1367.36
1355.65
1229.92
1239.53
1235.65
7217.85
6687.87
8104.57
2036.55
1574.05
1487.81
1429.31
1413.69
1467.81
1437.42
1215.4
1216.59
1220.93
8883.98
9443.55
9424.98
8679.44
4974.3
1886.2
1599.71
1849.48
1743.02
1506.59
1708.94
1613.4
1441.85
1584.09
1390.5
1266.82
1259.04
1222.42
1225.85
1226.97
1232.15
1215.81
1215.93
1219.61
7617.21
7474.41
4646.21
4301.4
2577.03
1882.8
1992.68
1549.88
1470.83
1547.07
1323.09
1333.59
1283.95
1250.91
1234.59
1248.48
1243.77
1215.31
1217.42
1222.43
9154.05
9346.76
9284.8
9032.11
4632.25
3816.3
3498.55
3208.69
3464.24
3199.97
2403.77
2531.68
2003.76
1941.33
1635.51
1813.61
1777.93
1527.27
1675.85
1643.97
1455.57
1400.23
1344.04
1343.59
1325.94
1313.81
1272.51
1275.06
1245.27
1239.59
1224.61
1253.5
1216.58
1215.49
1218.44
)
;
    }
    burner
    {
        type            calculated;
        value           nonuniform List<scalar> 
16
(
-124757
-119281
-116503
-117452
-120436
-116922
-116715
-123852
-123233
-118317
-116304
-118701
-121800
-117533
-116358
-120689
)
;
    }
}


// ************************************************************************* //
