/*--------------------------------*- C++ -*----------------------------------*\
  =========                 |
  \\      /  F ield         | OpenFOAM: The Open Source CFD Toolbox
   \\    /   O peration     | Website:  https://openfoam.org
    \\  /    A nd           | Version:  dev
     \\/     M anipulation  |
\*---------------------------------------------------------------------------*/
FoamFile
{
    version     2.0;
    format      ascii;
    class       volScalarField;
    location    "2500";
    object      rAU;
}
// * * * * * * * * * * * * * * * * * * * * * * * * * * * * * * * * * * * * * //

dimensions      [-1 3 1 0 0 0 0];

internalField   nonuniform List<scalar> 
9842
(
0.00820935
0.00827528
0.0082247
0.00824873
0.00839324
0.00815457
0.00821089
0.0083874
0.00839754
0.00809303
0.00817951
0.00838498
0.00838153
0.00841062
0.00803452
0.00815412
0.00839064
0.00837414
0.00839151
0.00842036
0.00798031
0.00813311
0.00840131
0.00837548
0.00837648
0.00840689
0.00842503
0.00792991
0.00811259
0.00841314
0.00838324
0.00836785
0.00839
0.00841792
0.00842741
0.00788269
0.00808961
0.00842288
0.00839565
0.00836502
0.00837505
0.00840645
0.00842311
0.00842914
0.0078386
0.00806681
0.00842699
0.00840887
0.00836886
0.00836459
0.00839119
0.00841714
0.00842597
0.00843022
0.00779704
0.00804721
0.00842947
0.00841879
0.00837887
0.0083587
0.00837548
0.00840754
0.0084226
0.0084277
0.00843092
0.0077579
0.00802558
0.00843302
0.00842514
0.00839318
0.00835937
0.00836282
0.00839396
0.00841772
0.00842538
0.00842927
0.00843156
0.00772101
0.00800482
0.00843412
0.00842965
0.00840774
0.00836565
0.00835644
0.00837752
0.00840967
0.00842258
0.00842732
0.00843053
0.00843193
0.00768615
0.00798531
0.00843497
0.00843173
0.00841735
0.00837779
0.00835329
0.00836433
0.00839673
0.00841888
0.00842541
0.00842875
0.00843135
0.0084323
0.00765328
0.00796645
0.00843514
0.00843366
0.0084252
0.00839337
0.00835536
0.0083547
0.0083815
0.00841147
0.00842353
0.00842734
0.00843002
0.00843213
0.00843257
0.00762231
0.00794815
0.00843535
0.0084348
0.00842867
0.00840781
0.00836388
0.00834937
0.00836629
0.00840035
0.00842033
0.00842618
0.00842874
0.00843095
0.00843265
0.00843271
0.00759311
0.00793076
0.00843603
0.00843545
0.00843175
0.00841847
0.00837798
0.00834788
0.00835466
0.00838615
0.00841406
0.00842476
0.00842785
0.00843003
0.00843179
0.00843321
0.0084329
0.00756571
0.00791408
0.0084363
0.00843582
0.00843349
0.00842467
0.00839457
0.00835193
0.00834713
0.00837
0.00840439
0.00842207
0.00842712
0.00842927
0.008431
0.00843249
0.00843373
0.00843304
0.0075401
0.00789802
0.00843634
0.00843627
0.0084348
0.00842928
0.00840794
0.00836194
0.00834283
0.00835623
0.00839057
0.00841701
0.00842655
0.00842867
0.00843048
0.00843185
0.00843314
0.00843406
0.0084331
0.00751614
0.00788327
0.00843668
0.00843696
0.00843576
0.00843141
0.00841809
0.00837827
0.00834317
0.00834617
0.00837465
0.00840782
0.00842466
0.00842872
0.00843001
0.00843141
0.00843261
0.00843373
0.0084345
0.00843309
0.00749399
0.00786941
0.00843678
0.00843744
0.00843626
0.00843382
0.00842526
0.00839528
0.00834877
0.00834066
0.00835924
0.00839495
0.00841957
0.00842847
0.00843003
0.00843089
0.00843212
0.00843328
0.00843421
0.00843481
0.00843311
0.00747352
0.00785668
0.00843683
0.0084378
0.00843714
0.00843525
0.00842863
0.00840858
0.00836038
0.00833731
0.00834764
0.00838025
0.00841091
0.00842615
0.0084305
0.00843125
0.00843183
0.00843288
0.00843378
0.00843468
0.00843502
0.00843306
0.00745478
0.00784515
0.00843705
0.00843804
0.00843766
0.00843591
0.00843217
0.00841882
0.00837746
0.00833871
0.00833891
0.00836461
0.00840012
0.00842115
0.00842963
0.00843195
0.00843224
0.00843251
0.00843344
0.00843433
0.00843515
0.00843528
0.00843313
0.0074378
0.00783483
0.00843712
0.00843805
0.00843821
0.00843685
0.0084346
0.00842443
0.00839505
0.0083452
0.0083344
0.0083502
0.00838643
0.00841419
0.00842712
0.00843155
0.00843318
0.0084331
0.00843302
0.00843403
0.00843488
0.00843553
0.00843542
0.00843317
0.00742259
0.00782583
0.00843709
0.00843861
0.00843868
0.00843788
0.00843578
0.00842938
0.00840902
0.00835773
0.00833167
0.00834
0.00837136
0.00840449
0.0084232
0.00843029
0.00843291
0.00843421
0.00843385
0.00843358
0.00843446
0.0084354
0.00843584
0.00843565
0.00843319
0.00740945
0.0078172
0.00843717
0.00843879
0.00843894
0.00843868
0.00843721
0.00843338
0.00841871
0.00837537
0.00833359
0.00833223
0.00835598
0.00839285
0.00841723
0.00842846
0.00843194
0.00843409
0.00843515
0.00843434
0.00843405
0.00843493
0.00843585
0.00843607
0.00843593
0.00843357
0.00739757
0.0078074
0.00843633
0.00843883
0.00843944
0.00843889
0.00843778
0.00843492
0.00842556
0.00839327
0.00834068
0.00832847
0.00834227
0.00837855
0.00840944
0.00842519
0.00843145
0.00843311
0.00843509
0.00843581
0.00843494
0.00843455
0.00843547
0.00843625
0.00843632
0.00843639
0.00843364
0.00738601
0.00780018
0.00843151
0.00843894
0.0084401
0.00843979
0.00843932
0.00843654
0.00843
0.0084075
0.00835384
0.00832635
0.00833312
0.00836348
0.00839885
0.00842049
0.00843004
0.00843292
0.00843427
0.0084359
0.00843639
0.0084354
0.00843499
0.00843601
0.00843666
0.00843684
0.00843679
0.00842935
0.00737613
0.00779334
0.00842795
0.0084393
0.00844068
0.00844056
0.00843988
0.00843798
0.00843383
0.00841772
0.00837129
0.00832857
0.0083262
0.00834867
0.00838648
0.00841364
0.0084273
0.00843255
0.00843391
0.00843504
0.00843646
0.008437
0.00843586
0.00843542
0.00843648
0.00843724
0.00843723
0.0084331
0.008355
0.00720355
0.00778352
0.00842246
0.00843944
0.00844095
0.00844094
0.0084402
0.0084394
0.00843527
0.00842479
0.00838931
0.00833562
0.00832272
0.00833567
0.00837194
0.00840501
0.00842334
0.00843152
0.00843397
0.00843492
0.00843572
0.00843701
0.00843753
0.00843625
0.00843589
0.00843712
0.00843758
0.00843757
0.008359
0.00812645
0.00736031
0.0077683
0.00841222
0.0084396
0.00844112
0.00844171
0.00844123
0.00844084
0.00843731
0.00842938
0.00840408
0.00834802
0.00832096
0.00832718
0.00835693
0.00839367
0.00841784
0.00842931
0.00843366
0.00843485
0.0084357
0.00843626
0.00843746
0.00843798
0.00843679
0.00843651
0.0084375
0.00843784
0.00843785
0.00833556
0.00840159
0.00735439
0.00774168
0.00839344
0.00843981
0.00844151
0.00844235
0.00844155
0.00844162
0.00843939
0.00843283
0.00841435
0.00836429
0.00832333
0.00832084
0.0083424
0.008381
0.00841026
0.00842597
0.00843271
0.00843496
0.00843571
0.00843607
0.00843661
0.00843803
0.00843855
0.00843744
0.00843706
0.00843792
0.00843819
0.00843813
0.00840756
0.0084316
0.00735204
0.00768502
0.00835775
0.00844004
0.00844178
0.00844284
0.00844257
0.0084425
0.00844085
0.00843499
0.00842127
0.00838164
0.00832978
0.00831793
0.00833019
0.00836635
0.00840103
0.00842142
0.00843086
0.00843467
0.00843583
0.00843631
0.00843644
0.008437
0.00843848
0.00843921
0.00843803
0.00843742
0.00843815
0.00843847
0.00843857
0.00843876
0.0084308
0.00734662
0.00769292
0.00827501
0.00843891
0.00844196
0.00844326
0.00844321
0.00844296
0.00844218
0.00843703
0.00842603
0.00839691
0.00834135
0.00831673
0.00832252
0.00835174
0.00838934
0.00841523
0.00842815
0.00843378
0.00843575
0.00843638
0.00843668
0.00843674
0.00843716
0.00843908
0.00844006
0.00843849
0.00843782
0.00843852
0.00843879
0.008439
0.00843813
0.0084202
0.00626426
0.00815864
0.00770333
0.00827097
0.00842618
0.00844243
0.00844362
0.00844379
0.00844377
0.00844292
0.00843865
0.00842885
0.00840802
0.0083561
0.00831902
0.00831758
0.00833846
0.0083767
0.00840721
0.00842418
0.00843204
0.00843519
0.00843629
0.00843674
0.00843684
0.00843699
0.00843768
0.00843973
0.00844062
0.00843904
0.00843814
0.0084387
0.00843928
0.00842824
0.00851099
0.00818541
0.00818282
0.00624888
0.00812846
0.00771597
0.00826595
0.00841934
0.00844262
0.00844381
0.0084439
0.00844416
0.00844341
0.00844036
0.00843101
0.00841508
0.00837169
0.00832447
0.00831516
0.00832761
0.00836353
0.00839831
0.00841944
0.00842963
0.00843419
0.00843613
0.00843671
0.00843689
0.00843696
0.00843716
0.00843841
0.00844041
0.00844102
0.00843943
0.00843842
0.00843896
0.00842839
0.00839157
0.0081835
0.00818037
0.00836456
0.00818306
0.00815893
0.0081562
0.00625485
0.0081275
0.00773102
0.0082585
0.00840391
0.00844218
0.00844432
0.00844463
0.00844495
0.0084443
0.00844184
0.00843287
0.00842001
0.00838663
0.00833433
0.00831364
0.0083199
0.0083499
0.00838764
0.00841446
0.00842741
0.00843296
0.00843529
0.00843618
0.00843648
0.00843695
0.00843699
0.00843758
0.00843884
0.00844086
0.00844152
0.00843976
0.00843855
0.00842723
0.00818512
0.00818538
0.00815695
0.00815475
0.00815802
0.0081568
0.00815909
0.00815651
0.00626289
0.00812612
0.00774871
0.00824428
0.00838611
0.0084348
0.00844447
0.00844497
0.00844529
0.00844467
0.00844268
0.00843437
0.00842315
0.00839904
0.00834759
0.00831588
0.00831529
0.00833624
0.00837489
0.00840657
0.00842472
0.0084324
0.00843523
0.00843597
0.00843605
0.00843625
0.00843667
0.00843712
0.00843782
0.00843926
0.00844148
0.00844206
0.00844002
0.00842617
0.00818127
0.00817961
0.0081606
0.00816158
0.00815577
0.0081542
0.0081572
0.00815511
0.0081587
0.00815715
0.00627241
0.00812432
0.00776873
0.0082245
0.00836319
0.008428
0.00844426
0.00844525
0.00844573
0.00844499
0.00844329
0.0084358
0.00842479
0.00840763
0.00836183
0.00832063
0.00831384
0.00832636
0.00836169
0.00839657
0.00841937
0.00843054
0.00843514
0.00843671
0.00843651
0.00843612
0.00843586
0.00843637
0.0084372
0.00843825
0.00843976
0.00844184
0.00844241
0.00842773
0.00817778
0.00817888
0.00815815
0.00815573
0.00815937
0.0081605
0.00815507
0.008154
0.00815626
0.00815328
0.00815742
0.00815858
0.00628788
0.00812836
0.00779098
0.0081901
0.00833261
0.00842316
0.0084444
0.00844552
0.0084461
0.00844582
0.00844368
0.00843617
0.00842584
0.00841282
0.00837526
0.00832811
0.00831277
0.00831964
0.00834982
0.00838651
0.00841323
0.00842728
0.00843329
0.00843647
0.00843736
0.00843701
0.00843632
0.00843553
0.0084361
0.00843698
0.00843833
0.00843999
0.00844205
0.00842981
0.00818041
0.00818215
0.00815443
0.00815461
0.00815682
0.00815432
0.00815759
0.00815899
0.00815443
0.00815799
0.00815758
0.00816169
0.0081625
0.00817211
0.006321
0.00816016
0.00781524
0.00819273
0.00827942
0.00841686
0.008445
0.00844515
0.00844608
0.00844587
0.00844375
0.00843669
0.00842752
0.00841614
0.00838727
0.00833881
0.00831321
0.00831453
0.00833698
0.00837536
0.00840653
0.00842466
0.00843198
0.00843479
0.00843623
0.00843715
0.00843736
0.00843629
0.00843529
0.00843562
0.00843667
0.0084382
0.00843977
0.00842874
0.00818095
0.00817999
0.00815669
0.00815763
0.00815306
0.00815323
0.00815585
0.00815313
0.00815527
0.0081584
0.00815894
0.00818567
0.00817866
0.00819984
0.00819489
0.0082068
0.00636299
0.00819415
0.00786855
0.00820341
0.00825757
0.0084035
0.00844511
0.0084449
0.00844687
0.00844605
0.00844431
0.00843694
0.00842882
0.00841863
0.00839714
0.0083515
0.00831663
0.00831196
0.00832568
0.00836196
0.00839712
0.00842048
0.00843163
0.00843491
0.00843472
0.00843524
0.00843609
0.0084368
0.00843624
0.00843506
0.00843529
0.00843628
0.0084376
0.00842483
0.00817572
0.00817063
0.00815711
0.00815534
0.00815517
0.00815585
0.00815163
0.00815165
0.00815779
0.00815395
0.00816126
0.00816981
0.00819228
0.00822497
0.0082199
0.0082406
0.00822527
0.00823764
0.00640216
0.00822017
0.00796343
0.00824333
0.00825533
0.0083836
0.00844517
0.00844572
0.0084468
0.008446
0.00844431
0.00843718
0.00842943
0.00842048
0.00840446
0.0083643
0.00832342
0.0083117
0.00831834
0.00834879
0.00838572
0.00841334
0.00842873
0.00843524
0.00843572
0.00843488
0.00843402
0.00843428
0.00843548
0.0084365
0.0084372
0.00843829
0.00843815
0.00842196
0.00816385
0.00815968
0.00815207
0.00814605
0.00815525
0.00815366
0.00815334
0.00815407
0.00815146
0.00815054
0.00817484
0.00816903
0.00819977
0.00821003
0.00823415
0.00825926
0.00825788
0.00827526
0.00824886
0.00826158
0.0064369
0.00823848
0.0079918
0.00832583
0.00825735
0.00837515
0.00844523
0.00844578
0.00844592
0.00844556
0.00844338
0.00843725
0.00842974
0.00842192
0.00840937
0.00837586
0.00833283
0.00831282
0.00831468
0.00833705
0.00837391
0.00840492
0.00842384
0.00843296
0.00843562
0.00843584
0.00843489
0.00843263
0.00843312
0.00843598
0.00844195
0.00844564
0.00844713
0.00842759
0.00815329
0.00811819
0.008141
0.00813648
0.0081507
0.00814537
0.00815388
0.00815312
0.00815191
0.00815297
0.00816292
0.00815854
0.00821581
0.00821057
0.0082408
0.00825088
0.00827093
0.00828693
0.00828952
0.00830496
0.00826612
0.00827941
0.00646422
0.00824792
0.0080203
0.00833527
0.00826154
0.00837159
0.00844492
0.00844579
0.00844563
0.0084458
0.00844238
0.00843688
0.00842979
0.00842316
0.00841284
0.00838597
0.00834338
0.008316
0.00831309
0.00832734
0.00836183
0.00839583
0.00841841
0.00843015
0.00843373
0.00843503
0.00843558
0.00843377
0.00843264
0.00843689
0.00844426
0.00845182
0.00845678
0.00845641
0.0081296
0.00801845
0.00813409
0.00813727
0.0081416
0.00813981
0.00815171
0.00814946
0.00815447
0.00815688
0.0081563
0.0081548
0.00820609
0.00820274
0.00825573
0.00825305
0.00827686
0.00828613
0.00830169
0.00830922
0.00831668
0.00832976
0.00827647
0.00829409
0.00647678
0.00824493
0.00805394
0.00834178
0.00826899
0.00836979
0.00844465
0.00844524
0.00844534
0.00844533
0.00844153
0.00843603
0.00842987
0.00842397
0.00841551
0.00839433
0.00835399
0.00832149
0.00831335
0.00832051
0.00835004
0.00838539
0.00841194
0.00842712
0.00843209
0.00843305
0.00843344
0.00843364
0.00843382
0.00843979
0.00844798
0.00845496
0.00846141
0.00846132
0.00831123
0.00814689
0.00799341
0.00814338
0.00815807
0.00815191
0.00816108
0.00816189
0.00809723
0.00816232
0.00817607
0.0081877
0.00817314
0.0082512
0.00824698
0.0082916
0.00828962
0.00830832
0.00831637
0.00832724
0.00832903
0.00834028
0.00835124
0.00827883
0.00830793
0.00645777
0.00820703
0.00809593
0.00836274
0.00828114
0.0083711
0.0084442
0.00844485
0.00844561
0.00844448
0.00844022
0.00843446
0.00842946
0.00842456
0.00841751
0.0084006
0.0083639
0.00832845
0.00831477
0.008317
0.00833952
0.00837427
0.00840404
0.00842319
0.00843062
0.00843173
0.00843164
0.00843126
0.00843236
0.00844092
0.00845158
0.00846
0.00846418
0.00846425
0.00842383
0.00816587
0.00818813
0.00817576
0.0081895
0.00817867
0.00820527
0.00790384
0.00771304
0.00808968
0.00786784
0.0081902
0.00817327
0.00822308
0.00820988
0.00828017
0.00825922
0.00831979
0.00830327
0.00833455
0.00833658
0.00834976
0.00834705
0.0083611
0.00837068
0.00827677
0.00832252
0.00624187
0.00790705
0.00815166
0.0084014
0.00833218
0.00837669
0.00844414
0.0084447
0.0084448
0.008443
0.00843855
0.00843296
0.00842843
0.00842472
0.00841881
0.00840501
0.00837247
0.00833615
0.00831718
0.00831575
0.00833019
0.00836264
0.00839454
0.00841768
0.00842871
0.00843068
0.00843061
0.00842952
0.0084293
0.00843806
0.00845057
0.00846235
0.00846865
0.0084622
0.0084189
0.00816372
0.00806251
0.00798071
0.00799075
0.00821694
0.00812049
0.00766608
0.00775843
0.0077035
0.0077216
0.0080104
0.00789694
0.00814953
0.00807205
0.00823138
0.00818806
0.00826897
0.0082341
0.00831577
0.00827164
0.00834906
0.00831698
0.00836046
0.0083638
0.00837216
0.0083833
0.00828632
0.00828285
0.0061813
0.00785145
0.00822969
0.00842829
0.00837391
0.00840676
0.00844365
0.00844424
0.00844399
0.00844192
0.00843644
0.00843099
0.00842708
0.00842434
0.00841952
0.00840784
0.00837942
0.00834383
0.00832065
0.00831575
0.00832317
0.0083505
0.00838332
0.00841011
0.00842519
0.0084293
0.0084296
0.00842839
0.00842728
0.00843348
0.008447
0.00845996
0.00846994
0.00846233
0.00842838
0.00802973
0.00783453
0.0080178
0.00792905
0.00794599
0.00782399
0.00790435
0.00799169
0.00784867
0.00795094
0.00794849
0.00797113
0.00806242
0.00801665
0.00812938
0.00805527
0.0081433
0.00805931
0.00821648
0.0081452
0.00826325
0.00818346
0.00832126
0.0082495
0.0083276
0.0083186
0.00834381
0.00836539
0.00819196
0.00818781
0.00620927
0.00780094
0.00823839
0.00841985
0.00839669
0.00840731
0.00844206
0.00844378
0.00844364
0.00844032
0.00843409
0.0084286
0.00842567
0.00842338
0.0084196
0.00840935
0.00838468
0.00835053
0.00832514
0.00831603
0.00831872
0.00833946
0.0083709
0.00840077
0.00841976
0.00842651
0.00842826
0.00842704
0.00842533
0.00842918
0.008442
0.00845593
0.00846766
0.00846253
0.00842317
0.00813142
0.00773307
0.00745913
0.00770041
0.00757499
0.00762781
0.00750097
0.00791144
0.00776617
0.00789261
0.00776076
0.00789872
0.00775798
0.00793159
0.00778546
0.00797219
0.00783129
0.00802458
0.00787849
0.00807716
0.00794688
0.00815571
0.00802647
0.00824652
0.00814092
0.00824935
0.00833064
0.00825398
0.00827784
0.00807558
0.0082046
0.00647869
0.00837639
0.00832201
0.0083914
0.00838822
0.0084375
0.00844268
0.00844248
0.008438
0.00843173
0.00842643
0.00842387
0.00842192
0.00841895
0.00840973
0.00838787
0.00835546
0.0083295
0.00831648
0.0083156
0.00832969
0.00835857
0.0083901
0.00841275
0.00842221
0.0084259
0.00842542
0.00842265
0.00842453
0.00843659
0.0084512
0.00846415
0.0084632
0.00841951
0.00827535
0.00730263
0.00722036
0.00746471
0.00736355
0.00738821
0.00728492
0.00735497
0.00721366
0.00762613
0.00750093
0.00763987
0.00751471
0.00765928
0.00749928
0.00766616
0.0074989
0.00768061
0.00750924
0.00772218
0.00753592
0.00782175
0.00759378
0.00797987
0.00772498
0.00813127
0.00792435
0.0081081
0.0083493
0.00810941
0.0080968
0.00837158
0.00833494
0.00633189
0.0084
0.00830526
0.00837533
0.00841927
0.00843915
0.00844062
0.00843602
0.00842956
0.00842421
0.00842156
0.00842004
0.00841727
0.00840918
0.00838884
0.00835803
0.00833241
0.00831733
0.00831296
0.00832089
0.00834546
0.00837698
0.00840316
0.00841625
0.00842176
0.00842339
0.00842041
0.00841963
0.00843062
0.00844511
0.00845937
0.00846447
0.00842248
0.00833059
0.00716501
0.00682142
0.00699649
0.00692075
0.00717148
0.00707865
0.00709067
0.00699137
0.00702085
0.0068217
0.00735961
0.00720781
0.00736715
0.00719977
0.00735599
0.00712065
0.0073011
0.007122
0.00725797
0.00711372
0.0073523
0.00741452
0.00754955
0.0074418
0.00775915
0.00753256
0.00793542
0.00749659
0.00776919
0.00830147
0.00783513
0.00663364
0.00739268
0.00834808
0.00834743
0.00600589
0.00838344
0.00827974
0.00839951
0.00843044
0.00843729
0.00843395
0.00842774
0.00842199
0.00841891
0.00841767
0.0084148
0.00840698
0.0083883
0.00835851
0.00833348
0.00831751
0.00831013
0.00831255
0.00833048
0.00835955
0.00838837
0.00840675
0.00841579
0.00841939
0.0084178
0.0084158
0.00842337
0.00843785
0.0084526
0.008462
0.00843084
0.00832838
0.00784339
0.00685611
0.00654705
0.00670597
0.00672357
0.00685513
0.00675308
0.00670816
0.00696999
0.00696656
0.00686639
0.00697635
0.00683674
0.00700872
0.00687002
0.00700658
0.00713718
0.0070239
0.00715791
0.00723354
0.00717324
0.00731091
0.00746984
0.00722222
0.00722641
0.00734528
0.00708083
0.00756746
0.00513786
0.00565447
0.00620683
0.00558546
0.00696744
0.00767875
0.00696285
0.0060749
0.00567843
0.00580166
0.00611783
0.00864959
0.00811502
0.00727128
0.00742073
0.00787305
0.00606229
0.00826467
0.00813107
0.00814286
0.00826433
0.00841509
0.00843064
0.00843203
0.00842613
0.00841964
0.00841607
0.00841484
0.00841178
0.00840338
0.00838536
0.00835647
0.00833208
0.00831561
0.00830496
0.00830202
0.00831252
0.00833747
0.00836739
0.00839118
0.00840618
0.00841266
0.00841277
0.00841172
0.00841511
0.00842901
0.00844405
0.00845518
0.00843774
0.00833551
0.00817967
0.00675952
0.00640833
0.00668837
0.00673581
0.00672611
0.00674551
0.00685823
0.00676575
0.00678587
0.00706805
0.00713105
0.00710384
0.00701376
0.00693102
0.00708202
0.00700878
0.00711119
0.00737894
0.00718438
0.0066152
0.0067726
0.00654661
0.00681621
0.0067253
0.00527044
0.00483053
0.00465608
0.00464777
0.00497768
0.00489819
0.00463769
0.00479406
0.00482809
0.00536669
0.00528554
0.00510704
0.00487083
0.00519445
0.00624357
0.00640433
0.00560677
0.005245
0.00521417
0.00568772
0.00790014
0.00660833
0.00688792
0.00747864
0.00411607
0.00778386
0.00781659
0.00784672
0.00787252
0.00842299
0.00841654
0.00842848
0.00842456
0.00841754
0.00841321
0.00841178
0.00840811
0.00839869
0.00837966
0.00835069
0.00832669
0.00830995
0.00829675
0.00828635
0.00829054
0.00831117
0.00833994
0.00836918
0.00839018
0.00840159
0.0084044
0.00840519
0.00840756
0.00841797
0.00843356
0.00844556
0.00843067
0.00835149
0.00821645
0.00775895
0.00670795
0.00628248
0.00671497
0.0067392
0.00684148
0.00677672
0.00699277
0.00691345
0.00703129
0.00696152
0.00709315
0.0070282
0.007254
0.00717049
0.00732746
0.0072591
0.00637208
0.00707479
0.00716226
0.00740134
0.00712276
0.00725789
0.00477513
0.00479614
0.00482243
0.00485265
0.00449383
0.00449585
0.00468432
0.00475367
0.00469609
0.00451557
0.00467311
0.00467326
0.00485731
0.00497283
0.00482066
0.00473582
0.00495804
0.00580046
0.00595601
0.00528194
0.00498239
0.00499987
0.0053453
0.00767399
0.00621956
0.00662607
0.00720682
0.00384389
0.00763172
0.00754586
0.00769064
0.00748069
0.00841539
0.0084127
0.00842283
0.0084156
0.00841043
0.00840832
0.00840385
0.00839293
0.00837179
0.00834114
0.00831658
0.00829941
0.00828348
0.00826672
0.00826425
0.00827778
0.0083055
0.00833722
0.00836591
0.00838481
0.00839347
0.00839643
0.00839964
0.00840667
0.00842026
0.00843471
0.00842532
0.00835632
0.00822184
0.00823487
0.00666572
0.00639392
0.00663431
0.00659738
0.00672243
0.00667581
0.00676202
0.00669961
0.00689476
0.00682732
0.0069752
0.00690873
0.00706969
0.00702193
0.00719225
0.00713102
0.00731142
0.00726217
0.00739542
0.00739082
0.0072769
0.00728272
0.0048822
0.00491249
0.00493904
0.00495355
0.00469897
0.0047393
0.00478439
0.00482381
0.00451382
0.00470075
0.00474513
0.00466496
0.00465564
0.00469349
0.00472752
0.00467931
0.00472893
0.00479489
0.00470323
0.00466726
0.0047899
0.00545053
0.0056469
0.00503067
0.00481401
0.00482274
0.00509586
0.00735796
0.00603525
0.00637657
0.00690328
0.00332803
0.007364
0.00754159
0.00729334
0.00712011
0.00838352
0.0084187
0.00841396
0.00840753
0.00840453
0.00839909
0.0083862
0.00836207
0.0083281
0.00830173
0.00828356
0.00826452
0.00824255
0.00823294
0.00823976
0.00826065
0.00829303
0.00832844
0.00836148
0.00838249
0.00838861
0.00839155
0.00839751
0.00840685
0.00842265
0.00842914
0.00836529
0.00822845
0.0081965
0.00771198
0.00644077
0.00619398
0.0065371
0.0064852
0.00664477
0.00659228
0.00655955
0.00651202
0.00685226
0.00680166
0.00698836
0.00696247
0.00714265
0.00714769
0.00720817
0.0071648
0.00737054
0.00733974
0.00748957
0.00749472
0.00496812
0.00498234
0.00498731
0.00506948
0.0048565
0.00488545
0.00490349
0.00491071
0.00478325
0.0048391
0.00489115
0.0049285
0.00473251
0.00479684
0.00485888
0.0046507
0.00469347
0.00479512
0.00485568
0.00476569
0.00467137
0.00468101
0.00465055
0.00467686
0.00469134
0.00524637
0.00554758
0.00486625
0.00470887
0.0047336
0.00499355
0.00696949
0.00587562
0.0060948
0.0065482
0.0028242
0.00721171
0.00699207
0.00685921
0.00689369
0.00836423
0.00841214
0.00840491
0.00840039
0.00839415
0.00837876
0.00835063
0.00831195
0.00828225
0.00826305
0.0082442
0.00822148
0.00820811
0.0082098
0.0082241
0.00824762
0.0082805
0.00832608
0.00836736
0.00838333
0.0083865
0.00838976
0.00839857
0.00841106
0.0084249
0.00837654
0.00825033
0.00822108
0.00811543
0.00634383
0.00614673
0.00636536
0.00629305
0.00651324
0.00643574
0.00665316
0.00659118
0.00695366
0.00691184
0.00696544
0.00697001
0.00717389
0.00722988
0.00736828
0.00742503
0.00732054
0.00732907
0.00749085
0.00749111
0.00719954
0.00742513
0.00492037
0.00493121
0.00493063
0.00503117
0.00495327
0.00496816
0.00497049
0.00496365
0.00490487
0.00495699
0.00499592
0.00501385
0.00486102
0.00493507
0.00499176
0.00471875
0.00480752
0.00494786
0.00502656
0.00491589
0.00468186
0.00464213
0.00467612
0.00475975
0.00466702
0.00522036
0.00548021
0.00486225
0.00469469
0.00482731
0.00504013
0.00650582
0.00568869
0.00579459
0.00614157
0.00241335
0.00687169
0.00597039
0.00650427
0.00668872
0.00833383
0.00840261
0.00839675
0.00838843
0.00837131
0.00833787
0.00829315
0.0081858
0.0081928
0.00822418
0.008212
0.00820546
0.00820878
0.0082181
0.00823275
0.00825277
0.00828178
0.00833529
0.0083679
0.00838169
0.00838435
0.00839319
0.00840598
0.00842095
0.00837998
0.00825266
0.00819047
0.00808737
0.00756458
0.00614363
0.00595583
0.00636617
0.00624394
0.00662022
0.00649249
0.00684963
0.0067489
0.00736938
0.00732637
0.00730541
0.00736132
0.00750264
0.00760993
0.00760475
0.00766864
0.00750622
0.00754579
0.00742541
0.00729131
0.00512361
0.00511898
0.00510847
0.00511353
0.00497522
0.00498268
0.00497961
0.0049865
0.00502087
0.00502834
0.00502311
0.00501859
0.00502189
0.00505039
0.00507803
0.00508853
0.00501477
0.00507286
0.00510679
0.00485922
0.00498048
0.00511293
0.00520261
0.00510416
0.00477283
0.00468178
0.0047794
0.00491107
0.00473764
0.00522446
0.00539425
0.00496874
0.0048628
0.00498912
0.00510094
0.00606826
0.00549857
0.00553659
0.00577116
0.00398914
0.00638143
0.00502591
0.00621035
0.00637613
0.00829785
0.00839289
0.00838399
0.00836261
0.00832534
0.00827232
0.00823256
0.0080905
0.00815763
0.00820103
0.0082054
0.00821561
0.00822846
0.00824344
0.00825703
0.00827342
0.00829729
0.0083331
0.00836399
0.00837569
0.00838724
0.0084032
0.00841794
0.00838874
0.00824715
0.00814273
0.00802803
0.0079104
0.00606246
0.00592719
0.00613615
0.00602565
0.0064473
0.00627365
0.00683641
0.00663995
0.00722086
0.00703584
0.00779588
0.00776026
0.00770872
0.00777759
0.0077528
0.00785394
0.00718401
0.00755968
0.00715791
0.00719403
0.00512215
0.00528935
0.0073319
0.00513389
0.00511915
0.00505328
0.00509891
0.00506376
0.00510678
0.00513132
0.00514564
0.00511232
0.00517404
0.00522987
0.00527265
0.00512459
0.00515684
0.0052467
0.00533901
0.00515606
0.00520657
0.00526194
0.00505188
0.00518127
0.00526965
0.00538322
0.00528868
0.00493563
0.00481036
0.0049517
0.00511747
0.00495078
0.00521721
0.00529807
0.00508711
0.00506534
0.00515738
0.00515717
0.00570253
0.00534117
0.00531079
0.00545939
0.00202024
0.00598609
0.00432395
0.00584905
0.00586282
0.00825854
0.00835849
0.0083566
0.00831136
0.00825201
0.00820333
0.00818178
0.00812598
0.00804705
0.00798712
0.00809139
0.00814705
0.0079251
0.00789645
0.00786893
0.00829536
0.00831154
0.00833264
0.00835495
0.00837187
0.00839343
0.00841287
0.00838827
0.00827012
0.00812017
0.00775505
0.00785987
0.00743476
0.00590432
0.00575242
0.00621161
0.00604935
0.00661541
0.00639726
0.00712924
0.00686482
0.00763328
0.00739717
0.00801609
0.00799504
0.00794151
0.00799888
0.00775807
0.0077854
0.00754371
0.00733141
0.00751205
0.00770412
0.00501171
0.00518224
0.00522457
0.00526613
0.00539207
0.00536658
0.00527726
0.00533812
0.00533378
0.00537155
0.00539121
0.00540677
0.0054182
0.00548946
0.00553605
0.00556962
0.00536336
0.00548338
0.00559911
0.00568261
0.00532669
0.0054622
0.00560042
0.00527466
0.00538346
0.00549837
0.00563467
0.00548643
0.00515229
0.00505816
0.00520895
0.00534632
0.00518981
0.00521144
0.00522773
0.00521237
0.00528372
0.00533825
0.00523257
0.00531839
0.00520601
0.00505846
0.0051174
0.00233756
0.00585406
0.00534564
0.00521406
0.00537247
0.0081954
0.00832363
0.0083019
0.00822988
0.00817432
0.00814738
0.00812527
0.00805953
0.00788647
0.00786469
0.0079734
0.00778504
0.00754204
0.00745518
0.00781283
0.00830656
0.00832349
0.0083331
0.00834599
0.00836905
0.0083995
0.00833449
0.00828633
0.00816057
0.00727665
0.00772232
0.0077957
0.00582079
0.00575089
0.00595234
0.00579716
0.0063656
0.00614277
0.00688206
0.00661232
0.0074793
0.00717647
0.0079193
0.00774496
0.00810724
0.00810102
0.00802076
0.00808201
0.00720424
0.00742698
0.00736888
0.00759804
0.00531057
0.00547593
0.00736924
0.00518276
0.00509111
0.00519139
0.00522566
0.00559631
0.00555402
0.00542347
0.00550612
0.00560977
0.00562402
0.00562392
0.00562387
0.0057362
0.00576351
0.00576715
0.00576413
0.0057228
0.00582765
0.0058899
0.00591388
0.00564364
0.00580264
0.0059159
0.00549727
0.0056112
0.00579716
0.00590197
0.00575351
0.00541197
0.00536656
0.00555568
0.00559676
0.00547967
0.00523763
0.00518401
0.00534214
0.00553346
0.00552697
0.00533055
0.00491806
0.00506391
0.00479729
0.00476623
0.00326233
0.00571915
0.00546748
0.00475914
0.00542395
0.00813416
0.00826206
0.00821371
0.00814239
0.00811197
0.00809071
0.0080392
0.00794109
0.00787773
0.00792732
0.00794676
0.00774616
0.00758483
0.00743059
0.00809867
0.00830883
0.00832984
0.00833307
0.00834202
0.00837077
0.00839634
0.008235
0.00817354
0.0070813
0.00791995
0.00770249
0.00735412
0.00574021
0.00563809
0.00609677
0.00590168
0.00661041
0.00633302
0.0072375
0.00691981
0.00774257
0.0074847
0.00806001
0.00797214
0.00813886
0.00814043
0.00805105
0.0081123
0.00740845
0.00743695
0.00568299
0.0058555
0.00743516
0.00527464
0.00552736
0.00560065
0.00555811
0.00530255
0.00518624
0.00530485
0.0053269
0.00566155
0.00560329
0.00544622
0.00553701
0.00577005
0.0057535
0.00572936
0.00570757
0.00591035
0.00588638
0.00584621
0.00580769
0.0059847
0.00602961
0.0060276
0.00599145
0.00594491
0.00604638
0.00609325
0.00575185
0.00588029
0.00602519
0.00607649
0.00599644
0.00574958
0.0057267
0.00594185
0.00591818
0.00579343
0.00526341
0.00513663
0.0054816
0.00578744
0.00572341
0.00540174
0.00476662
0.00492239
0.00472873
0.00471154
0.00378653
0.00604614
0.0056743
0.00488517
0.0051256
0.00804915
0.00816476
0.00811657
0.00807279
0.00804358
0.00798078
0.00790386
0.00786
0.0078592
0.00788504
0.00793223
0.00785353
0.00768979
0.00786863
0.00823367
0.00830995
0.00833321
0.00833467
0.00834354
0.00838083
0.00816009
0.00816445
0.00767251
0.007061
0.00770507
0.00768169
0.00573244
0.0056946
0.00590138
0.00572755
0.00635865
0.00611041
0.00697792
0.00664802
0.007434
0.00719413
0.0080074
0.007761
0.00811924
0.00807609
0.00814833
0.0081568
0.00807329
0.00811969
0.00734052
0.00733497
0.00563134
0.00572951
0.00570203
0.0056225
0.00537184
0.00543971
0.00556261
0.00552692
0.00534269
0.00528372
0.00542416
0.00543091
0.00561019
0.00555063
0.00542911
0.00548881
0.00578126
0.00573633
0.00569553
0.00566322
0.0059342
0.00586396
0.00578505
0.00571797
0.00610134
0.00608572
0.0060269
0.00594527
0.00611365
0.00614694
0.00613721
0.00604201
0.00611014
0.00613104
0.00615098
0.00614204
0.00609413
0.00604591
0.00622505
0.00620269
0.00605571
0.00526029
0.00511001
0.00560923
0.00601308
0.00589327
0.00545555
0.00479922
0.00486077
0.00481106
0.00476309
0.00352714
0.00598628
0.00616056
0.0047118
0.00488407
0.00793299
0.00805419
0.00803996
0.00799633
0.00791921
0.00782106
0.00778315
0.00778593
0.00781235
0.00785458
0.0079114
0.00792288
0.00792091
0.00808538
0.00822971
0.00831256
0.00833567
0.00833742
0.00835496
0.00798214