/*--------------------------------*- C++ -*----------------------------------*\
  =========                 |
  \\      /  F ield         | OpenFOAM: The Open Source CFD Toolbox
   \\    /   O peration     | Website:  https://openfoam.org
    \\  /    A nd           | Version:  dev
     \\/     M anipulation  |
\*---------------------------------------------------------------------------*/
FoamFile
{
    version     2.0;
    format      ascii;
    class       volScalarField;
    location    "2500";
    object      rho;
}
// * * * * * * * * * * * * * * * * * * * * * * * * * * * * * * * * * * * * * //

dimensions      [1 -3 0 0 0 0 0];

internalField   nonuniform List<scalar> 
9842
(
1.17173
1.17156
1.17167
1.17154
1.17126
1.17171
1.1716
1.17111
1.17124
1.17178
1.17161
1.17102
1.17092
1.17131
1.1718
1.17171
1.17103
1.17074
1.17096
1.17144
1.17186
1.17169
1.17107
1.17068
1.17063
1.17105
1.17153
1.17188
1.1717
1.17114
1.17061
1.17043
1.17072
1.17115
1.1716
1.17189
1.17172
1.17121
1.17067
1.17033
1.1704
1.17082
1.17127
1.17163
1.1719
1.17178
1.17128
1.17074
1.17028
1.1702
1.1705
1.17096
1.17136
1.17168
1.17191
1.17177
1.17133
1.17082
1.17033
1.17009
1.17022
1.17063
1.17107
1.17146
1.17171
1.17193
1.17181
1.17144
1.17097
1.17042
1.17002
1.17003
1.1703
1.17076
1.17117
1.17149
1.17173
1.17193
1.17181
1.17148
1.17098
1.17043
1.16998
1.16988
1.17005
1.17045
1.17092
1.17124
1.17151
1.17175
1.17194
1.17181
1.17145
1.1711
1.17062
1.17002
1.16977
1.16984
1.17015
1.17062
1.17101
1.17131
1.17156
1.17176
1.17195
1.1718
1.1715
1.17109
1.17058
1.17011
1.16974
1.16969
1.16988
1.17033
1.17075
1.17108
1.17134
1.17157
1.17177
1.17195
1.17183
1.17154
1.17111
1.17076
1.17016
1.1697
1.16958
1.16968
1.17004
1.17046
1.17084
1.17115
1.17139
1.1716
1.17179
1.17196
1.17182
1.1715
1.17114
1.17077
1.1702
1.16976
1.16951
1.16952
1.16975
1.1702
1.17058
1.17093
1.17119
1.17141
1.17162
1.17179
1.17196
1.17182
1.17152
1.17118
1.17082
1.17035
1.16982
1.1695
1.1694
1.16955
1.16992
1.17035
1.17069
1.17099
1.17123
1.17144
1.17163
1.1718
1.17197
1.17185
1.17157
1.17122
1.17084
1.17039
1.16996
1.16953
1.16934
1.16937
1.16966
1.17008
1.17043
1.17078
1.17104
1.17127
1.17146
1.17165
1.17181
1.17196
1.17183
1.17157
1.17123
1.17087
1.17056
1.17004
1.16952
1.16929
1.16926
1.16943
1.1698
1.17018
1.17054
1.17084
1.17108
1.17129
1.17148
1.17165
1.17182
1.17197
1.17183
1.17158
1.17124
1.17093
1.17055
1.17005
1.16959
1.16927
1.16916
1.16926
1.16957
1.16991
1.17031
1.17064
1.17091
1.17113
1.17132
1.1715
1.17166
1.17182
1.17197
1.17183
1.17159
1.17126
1.17093
1.17059
1.17027
1.16971
1.1693
1.1691
1.16912
1.16934
1.16968
1.17007
1.17042
1.1707
1.17094
1.17115
1.17135
1.17151
1.17168
1.17183
1.17198
1.17183
1.17157
1.17129
1.17097
1.17067
1.17026
1.16974
1.16933
1.16908
1.16902
1.16916
1.16944
1.16983
1.1702
1.17049
1.17076
1.17098
1.17119
1.17137
1.17152
1.17168
1.17182
1.17197
1.17183
1.17158
1.17134
1.171
1.17068
1.17027
1.16997
1.16939
1.16908
1.16896
1.16901
1.16923
1.16959
1.16997
1.17029
1.17056
1.1708
1.17102
1.1712
1.17138
1.17153
1.17169
1.17183
1.17197
1.17183
1.1716
1.17131
1.17102
1.17067
1.17038
1.16999
1.16942
1.16912
1.16892
1.1689
1.16905
1.16937
1.16974
1.17009
1.17036
1.17062
1.17084
1.17105
1.17124
1.17139
1.17154
1.17169
1.17184
1.17197
1.17185
1.17161
1.17131
1.17106
1.17067
1.17038
1.16994
1.1695
1.16915
1.16894
1.16881
1.16891
1.16917
1.16951
1.16987
1.17018
1.17042
1.17066
1.17088
1.17108
1.17126
1.17141
1.17155
1.17169
1.17183
1.17197
1.17183
1.17158
1.17132
1.17106
1.17075
1.17046
1.17011
1.16959
1.16921
1.16896
1.16873
1.16878
1.16897
1.16929
1.16965
1.16996
1.17026
1.17048
1.17071
1.1709
1.17109
1.17126
1.17142
1.17156
1.1717
1.17183
1.17197
1.17183
1.17159
1.17133
1.17104
1.17073
1.17038
1.17017
1.16968
1.16926
1.16896
1.1687
1.16867
1.1688
1.16907
1.16943
1.16976
1.17005
1.1703
1.17052
1.17075
1.17093
1.17111
1.17126
1.17142
1.17156
1.1717
1.17183
1.17197
1.17182
1.17157
1.1713
1.17102
1.17072
1.17042
1.17019
1.16968
1.16926
1.16898
1.16873
1.1686
1.16866
1.16888
1.16921
1.16956
1.16986
1.17013
1.17037
1.17057
1.17077
1.17096
1.17112
1.17127
1.17142
1.17155
1.17169
1.17183
1.17197
1.17182
1.17159
1.17131
1.17102
1.17075
1.17048
1.17016
1.16988
1.16933
1.16902
1.16876
1.16856
1.16856
1.16871
1.169
1.16933
1.16965
1.16993
1.17018
1.17041
1.17061
1.1708
1.17099
1.17113
1.17128
1.17142
1.17155
1.1717
1.17183
1.17197
1.17181
1.17157
1.17131
1.17104
1.17074
1.17044
1.17012
1.16989
1.1694
1.16905
1.16881
1.16853
1.16847
1.16857
1.16882
1.16913
1.16945
1.16976
1.17001
1.17022
1.17044
1.17064
1.17084
1.17099
1.17114
1.1713
1.17143
1.17156
1.17169
1.17182
1.17196
1.17181
1.17156
1.17129
1.17102
1.17073
1.17051
1.17016
1.16986
1.16946
1.16907
1.1688
1.16853
1.16841
1.16846
1.16864
1.16895
1.16925
1.16957
1.16983
1.17007
1.17029
1.17049
1.17066
1.17085
1.171
1.17115
1.17129
1.17142
1.17155
1.17168
1.17182
1.17197
1.17182
1.17155
1.17128
1.17101
1.17072
1.17045
1.17015
1.16987
1.16957
1.16913
1.16882
1.16854
1.16836
1.16836
1.1685
1.16874
1.16906
1.16937
1.16965
1.16988
1.17011
1.17032
1.17051
1.17069
1.17087
1.17102
1.17117
1.1713
1.17142
1.17155
1.17167
1.17181
1.17196
1.1718
1.17154
1.17131
1.17101
1.17071
1.17044
1.17019
1.16986
1.16958
1.1692
1.16886
1.16856
1.16835
1.16827
1.16837
1.16857
1.16887
1.16918
1.16947
1.16973
1.16995
1.17015
1.17035
1.17056
1.17071
1.17087
1.17103
1.17117
1.17128
1.17141
1.17154
1.17167
1.1718
1.17203
1.17195
1.1718
1.17155
1.17126
1.17098
1.17071
1.17043
1.17018
1.1699
1.1696
1.16924
1.16887
1.16857
1.16834
1.16823
1.16826
1.16842
1.16869
1.169
1.16928
1.16957
1.1698
1.17001
1.1702
1.17038
1.17056
1.17074
1.17089
1.17102
1.17117
1.17129
1.1714
1.17153
1.17166
1.17187
1.17179
1.17203
1.17195
1.17179
1.17152
1.17125
1.17097
1.17072
1.17046
1.17019
1.16996
1.16959
1.16925
1.1689
1.16859
1.16833
1.16817
1.16817
1.16828
1.1685
1.16882
1.16911
1.16938
1.16961
1.16983
1.17004
1.17023
1.17041
1.17058
1.17074
1.17091
1.17103
1.17116
1.17128
1.1714
1.17158
1.17152
1.17171
1.17158
1.17164
1.17187
1.17179
1.17203
1.17195
1.17178
1.17156
1.17123
1.17095
1.17067
1.1704
1.17013
1.16993
1.16957
1.16931
1.16894
1.16861
1.16834
1.16815
1.1681
1.16817
1.16835
1.1686
1.16893
1.1692
1.16946
1.16969
1.1699
1.17007
1.17026
1.17044
1.1706
1.17077
1.17091
1.17103
1.17115
1.17127
1.17145
1.17138
1.17151
1.17171
1.17156
1.17164
1.17186
1.17178
1.17203
1.17195
1.17179
1.1715
1.17126
1.17094
1.17066
1.17038
1.17012
1.16992
1.16956
1.16933
1.16898
1.16864
1.16835
1.16814
1.16804
1.16807
1.16821
1.16845
1.16874
1.16902
1.16929
1.16953
1.16973
1.16993
1.17011
1.17029
1.17047
1.17063
1.17076
1.1709
1.17103
1.17115
1.17132
1.17126
1.17145
1.17138
1.17149
1.1717
1.17156
1.17163
1.17186
1.17177
1.17203
1.17194
1.17179
1.17147
1.1712
1.17089
1.1707
1.17037
1.1701
1.16993
1.16955
1.16929
1.16899
1.16863
1.16836
1.16813
1.168
1.16798
1.16808
1.16828
1.16856
1.16886
1.16912
1.16938
1.16958
1.16977
1.16997
1.17014
1.17032
1.17047
1.17063
1.17078
1.1709
1.17102
1.17119
1.17113
1.17132
1.17125
1.17143
1.17136
1.17149
1.1717
1.17155
1.17162
1.17186
1.17177
1.17203
1.17194
1.17176
1.17147
1.17117
1.17092
1.17069
1.17034
1.17008
1.16985
1.16955
1.16936
1.16901
1.16862
1.16835
1.16812
1.16796
1.16791
1.16797
1.16814
1.16839
1.16868
1.16897
1.16921
1.16943
1.16963
1.16982
1.16999
1.17017
1.17033
1.17049
1.17064
1.17078
1.1709
1.17107
1.17101
1.17119
1.17113
1.1713
1.17124
1.17142
1.17135
1.17148
1.17169
1.17154
1.17161
1.17185
1.17176
1.17203
1.17194
1.17174
1.17149
1.17115
1.17092
1.1706
1.1704
1.1701
1.16987
1.16957
1.16935
1.16896
1.16863
1.16835
1.16811
1.16794
1.16785
1.16787
1.16801
1.16823
1.1685
1.16879
1.16904
1.16927
1.16948
1.16967
1.16987
1.17004
1.1702
1.17035
1.17049
1.17064
1.17078
1.17094
1.17088
1.17106
1.171
1.17117
1.17111
1.17128
1.17122
1.17141
1.17134
1.17146
1.17168
1.17152
1.17159
1.17185
1.17175
1.17203
1.17193
1.17174
1.17144
1.17117
1.17084
1.17057
1.17043
1.16999
1.16984
1.16949
1.16933
1.16892
1.16864
1.16835
1.16809
1.16791
1.1678
1.16779
1.16789
1.16807
1.16834
1.1686
1.16888
1.16912
1.16934
1.16953
1.16971
1.16988
1.1701
1.17023
1.17036
1.1705
1.17065
1.17082
1.17076
1.17094
1.17088
1.17105
1.17099
1.17116
1.1711
1.17127
1.17121
1.17139
1.17132
1.17145
1.17166
1.17151
1.17157
1.17184
1.17174
1.17203
1.17193
1.17173
1.17145
1.17113
1.17079
1.17055
1.1703
1.16999
1.16982
1.16944
1.16927
1.16892
1.16863
1.16833
1.16807
1.16788
1.16775
1.16772
1.16778
1.16793
1.16816
1.16844
1.1687
1.16897
1.16919
1.1694
1.16959
1.16976
1.16993
1.17014
1.17024
1.17036
1.1705
1.17069
1.17063
1.17081
1.17076
1.17093
1.17086
1.17103
1.17097
1.17114
1.17108
1.17125
1.17119
1.17137
1.1713
1.17143
1.17165
1.17149
1.17156
1.17183
1.17173
1.17202
1.17192
1.17174
1.17144
1.17115
1.17084
1.17051
1.17027
1.17009
1.16982
1.16947
1.16918
1.1689
1.16861
1.16831
1.16805
1.16785
1.16772
1.16765
1.16769
1.16781
1.16801
1.16828
1.16854
1.16882
1.16907
1.16925
1.16944
1.16963
1.16983
1.16997
1.17016
1.17025
1.17037
1.17056
1.1705
1.17069
1.17063
1.1708
1.17074
1.17091
1.17084
1.17101
1.17095
1.17112
1.17106
1.17123
1.17117
1.17135
1.17128
1.17141
1.17163
1.17147
1.17154
1.17182
1.17172
1.17202
1.17192
1.17173
1.17143
1.17114
1.17084
1.17052
1.17024
1.17009
1.16971
1.16946
1.16911
1.16888
1.16859
1.1683
1.16803
1.16782
1.16767
1.16759
1.1676
1.1677
1.16786
1.16811
1.16838
1.16865
1.16889
1.16911
1.16931
1.16951
1.16969
1.16988
1.16999
1.17018
1.17028
1.17041
1.17036
1.17056
1.1705
1.17067
1.17061
1.17078
1.17071
1.17088
1.17082
1.17099
1.17092
1.1711
1.17103
1.17121
1.17114
1.17133
1.17126
1.17139
1.17161
1.17145
1.17152
1.17181
1.1717
1.17202
1.17191
1.17171
1.1714
1.17111
1.17085
1.17053
1.17029
1.17007
1.16965
1.16939
1.16907
1.16881
1.16857
1.16828
1.16801
1.16779
1.16763
1.16754
1.16753
1.16759
1.16774
1.16795
1.16822
1.16848
1.16874
1.16898
1.16917
1.16936
1.16955
1.16975
1.16992
1.16999
1.17018
1.17025
1.17042
1.17033
1.17054
1.17047
1.17064
1.17057
1.17074
1.17066
1.17085
1.17076
1.17096
1.17088
1.17107
1.17099
1.17118
1.1711
1.17131
1.17123
1.17136
1.17159
1.17142
1.17149
1.1718
1.17169
1.17202
1.1719
1.17169
1.17137
1.17107
1.17084
1.17055
1.1703
1.16995
1.16962
1.16935
1.1691
1.16876
1.16852
1.16825
1.16798
1.16775
1.16759
1.16748
1.16746
1.1675
1.16761
1.1678
1.16805
1.16833
1.16858
1.16882
1.16904
1.16922
1.16938
1.16957
1.16977
1.16993
1.16997
1.17008
1.17006
1.16977
1.17037
1.17025
1.17046
1.17032
1.17055
1.17039
1.17065
1.17047
1.17076
1.17058
1.17089
1.17072
1.17101
1.17087
1.17114
1.17102
1.17127
1.17118
1.17133
1.17157
1.17139
1.17146
1.17179
1.17167
1.17201
1.1719
1.17164
1.1713
1.17101
1.1708
1.17051
1.17027
1.16996
1.16964
1.16932
1.16907
1.16874
1.16847
1.16822
1.16795
1.16772
1.16754
1.16743
1.16739
1.16741
1.1675
1.16767
1.16789
1.16815
1.16842
1.16867
1.16889
1.16909
1.16924
1.16945
1.16965
1.16978
1.16989
1.1698
1.16938
1.16884
1.16878
1.16751
1.17005
1.16957
1.17008
1.16945
1.17013
1.16941
1.17023
1.16945
1.17039
1.16964
1.17059
1.16995
1.17081
1.17031
1.17103
1.17068
1.17122
1.17102
1.17127
1.17155
1.17133
1.17142
1.17178
1.17165
1.17201
1.17189
1.17156
1.17118
1.17092
1.17073
1.17048
1.17026
1.16994
1.16956
1.16932
1.16906
1.16872
1.16843
1.16817
1.16791
1.16767
1.16749
1.16737
1.16732
1.16732
1.1674
1.16753
1.16774
1.16799
1.16825
1.16851
1.16874
1.16895
1.16912
1.16927
1.1695
1.1697
1.16973
1.16917
1.16797
1.16861
1.16604
1.16396
1.16351
1.16041
1.16817
1.16615
1.16789
1.16515
1.16782
1.16467
1.168
1.16461
1.16844
1.16519
1.16905
1.16627
1.16979
1.16752
1.17049
1.16898
1.17102
1.17026
1.17106
1.17152
1.17115
1.17129
1.17177
1.17163
1.17201
1.17189
1.17158
1.17107
1.17076
1.1706
1.17043
1.17019
1.16982
1.16952
1.16932
1.16907
1.16866
1.16839
1.16812
1.16786
1.16762
1.16744
1.16731
1.16725
1.16724
1.1673
1.16741
1.16759
1.16783
1.16808
1.16835
1.16859
1.16881
1.169
1.16915
1.16935
1.16955
1.16968
1.16879
1.16119
1.16238
1.15858
1.15708
1.15371
1.15295
1.14845
1.16154
1.15738
1.1605
1.15547
1.15995
1.15442
1.15994
1.15379
1.16074
1.15387
1.16257
1.15491
1.16523
1.15742
1.16791
1.16215
1.17008
1.16676
1.17005
1.17145
1.17027
1.1707
1.17176
1.17161
1.17201
1.1719
1.1713
1.17069
1.17042
1.17031
1.17006
1.16977
1.16957
1.16932
1.16902
1.1686
1.16836
1.16807
1.16781
1.16757
1.16738
1.16725
1.16718
1.16716
1.1672
1.1673
1.16746
1.16767
1.16792
1.16818
1.16844
1.16867
1.16887
1.16904
1.1692
1.1694
1.16956
1.16876
1.16058
1.14526
1.14307
1.15057
1.14753
1.14406
1.14002
1.1393
1.13414
1.15011
1.14462
1.14842
1.14211
1.14726
1.14042
1.14641
1.1389
1.14644
1.13788
1.1477
1.13778
1.1513
1.13957
1.15853
1.14493
1.1659
1.15515
1.16566
1.17115
1.16637
1.16791
1.17177
1.1715
1.17202
1.17192
1.17118
1.17041
1.17013
1.16989
1.16973
1.16956
1.16931
1.16897
1.16857
1.16831
1.16803
1.16775
1.1675
1.16731
1.16718
1.16711
1.16709
1.16712
1.1672
1.16733
1.16752
1.16775
1.16801
1.16827
1.16852
1.16874
1.16893
1.16906
1.16927
1.16942
1.16881
1.16059
1.14196
1.14294
1.13067
1.12881
1.1363
1.13312
1.12934
1.12513
1.12422
1.11889
1.13594
1.12983
1.13353
1.12673
1.13155
1.12428
1.12957
1.12183
1.12833
1.11962
1.12844
1.11836
1.13127
1.11908
1.1389
1.12374
1.15291
1.13399
1.15258
1.16989
1.15451
1.15708
1.16556
1.17177
1.17112
1.17203
1.17194
1.17105
1.17009
1.16972
1.16968
1.16956
1.16926
1.16892
1.16856
1.16827
1.16799
1.1677
1.16744
1.16724
1.16711
1.16703
1.16701
1.16703
1.1671
1.16721
1.16738
1.1676
1.16785
1.16811
1.16836
1.16859
1.1688
1.16896
1.16913
1.16932
1.16897
1.16113
1.1346
1.12801
1.12568
1.11691
1.11648
1.12131
1.11867
1.11442
1.11115
1.10932
1.10579
1.12037
1.11444
1.11737
1.11118
1.11472
1.10828
1.11185
1.10529
1.10969
1.10245
1.10889
1.10056
1.11071
1.10051
1.1176
1.10412
1.13122
1.11413
1.12246
1.1422
1.13101
1.16156
1.1687
1.16359
1.14603
1.13353
1.13258
1.14921
1.17183
1.17168
1.16683
1.16899
1.17108
1.17203
1.17183
1.17198
1.17191
1.17066
1.16965
1.16955
1.16949
1.1692
1.16891
1.16856
1.16823
1.16795
1.16765
1.16738
1.16717
1.16703
1.16695
1.16692
1.16694
1.16701
1.1671
1.16725
1.16744
1.16768
1.16794
1.1682
1.16844
1.16867
1.16886
1.169
1.16921
1.16911
1.16269
1.13623
1.11793
1.11976
1.1167
1.1171
1.11056
1.11179
1.10969
1.10984
1.10432
1.10464
1.09973
1.0999
1.10554
1.10168
1.1027
1.09844
1.09982
1.09549
1.09664
1.0923
1.09404
1.08914
1.09268
1.08683
1.09998
1.0954
1.09166
1.08795
1.10743
1.10069
1.09341
1.0902
1.09539
1.11371
1.12166
1.11215
1.10578
1.12175
1.15285
1.15755
1.13652
1.12462
1.12265
1.14
1.17159
1.16215
1.16624
1.17054
1.17207
1.17197
1.17196
1.17177
1.17182
1.16981
1.16942
1.16938
1.16916
1.16889
1.16856
1.1682
1.16791
1.16761
1.16732
1.1671
1.16695
1.16686
1.16683
1.16685
1.1669
1.16701
1.16712
1.1673
1.16752
1.16776
1.16803
1.16828
1.16852
1.16874
1.16887
1.16909
1.16913
1.16487
1.14004
1.11887
1.1156
1.11617
1.11314
1.11426
1.11029
1.11292
1.10578
1.10784
1.10104
1.10355
1.09636
1.09854
1.09579
1.09551
1.0926
1.09136
1.0893
1.08749
1.08576
1.0837
1.08265
1.07987
1.08508
1.08237
1.0803
1.07842
1.08893
1.08526
1.08215
1.09911
1.09328
1.08614
1.08385
1.08826
1.10451
1.11235
1.10403
1.09767
1.11279
1.14445
1.14971
1.12752
1.11406
1.11624
1.13132
1.17131
1.15563
1.1618
1.16918
1.17207
1.17195
1.17175
1.17153
1.17144
1.16928
1.16924
1.16911
1.16886
1.16855
1.16817
1.16788
1.16757
1.16727
1.16703
1.16687
1.16678
1.16675
1.16676
1.16681
1.16689
1.16701
1.16716
1.16736
1.1676
1.16787
1.16813
1.16838
1.1686
1.16879
1.16896
1.16909
1.16659
1.14569
1.12101
1.12024
1.12006
1.11895
1.11964
1.11542
1.11742
1.11715
1.12165
1.10735
1.11214
1.10257
1.10844
1.09667
1.10192
1.09173
1.09336
1.08731
1.0881
1.08289
1.08304
1.07831
1.07795
1.07703
1.07585
1.07502
1.07441
1.07958
1.07744
1.07573
1.07436
1.08254
1.07947
1.0769
1.09168
1.08644
1.08011
1.07798
1.08188
1.0968
1.10412
1.0965
1.09048
1.10483
1.13611
1.14184
1.11927
1.10631
1.10861
1.12323
1.17049
1.1483
1.155
1.16631
1.17207
1.17142
1.17193
1.17074
1.1705
1.16906
1.16902
1.16883
1.16854
1.16817
1.16787
1.16754
1.16722
1.16697
1.16679
1.16669
1.16665
1.16666
1.1667
1.16678
1.16688
1.16704
1.16722
1.16744
1.1677
1.16796
1.16823
1.16846
1.16869
1.16883
1.16899
1.16771
1.15202
1.1243
1.12252
1.12855
1.12861
1.12877
1.12891
1.12517
1.12753
1.13034
1.13569
1.11571
1.12339
1.10914
1.1182
1.10025
1.1078
1.09044
1.09451
1.0841
1.08675
1.07825
1.07941
1.07404
1.07393
1.07397
1.07427
1.07335
1.07261
1.07213
1.07183
1.07483
1.07324
1.07212
1.07145
1.07698
1.07445
1.07253
1.08496
1.08016
1.07478
1.07283
1.07609
1.08978
1.09675
1.08959
1.08386
1.09761
1.12812
1.13369
1.11174
1.09924
1.10162
1.11565
1.16825
1.13984
1.14601
1.16026
1.17207
1.17105
1.17177
1.16851
1.16863
1.16889
1.16878
1.16853
1.16817
1.16786
1.16753
1.16719
1.16691
1.16672
1.1666
1.16655
1.16654
1.16657
1.16663
1.16674
1.16687
1.16706
1.16728
1.16753
1.1678
1.16807
1.16832
1.16856
1.16871
1.16889
1.1683
1.15758
1.12902
1.12099
1.13487
1.13131
1.13915
1.13703
1.14101
1.14051
1.13914
1.14084
1.14599
1.15074
1.12846
1.13826
1.11754
1.12949
1.10309
1.11224
1.09075
1.09608
1.08196
1.08559
1.07402
1.07608
1.07173
1.07177
1.07193
1.07225
1.07107
1.07084
1.07074
1.07072
1.07133
1.07077
1.07058
1.07054
1.0723
1.07076
1.07018
1.07873
1.07445
1.07053
1.06918
1.07115
1.08322
1.08991
1.08304
1.07767
1.09088
1.12013
1.12513
1.10463
1.09258
1.09482
1.10813
1.16285
1.13058
1.13586
1.15085
1.17158
1.17006
1.17048
1.16325
1.16476
1.16869
1.16851
1.16818
1.16786
1.16752
1.16716
1.16686
1.16664
1.1665
1.1664
1.16632
1.16628
1.16633
1.16646
1.16663
1.16683
1.16706
1.16733
1.16761
1.1679
1.16817
1.16842
1.16864
1.16878
1.16856
1.16184
1.13574
1.12093
1.13076
1.14152
1.13898
1.14777
1.1448
1.15221
1.15038
1.15279
1.15296
1.1596
1.16194
1.14248
1.15336
1.12449
1.13954
1.10425
1.11476
1.09041
1.09648
1.07924
1.08363
1.07241
1.07345
1.07632
1.07469
1.07076
1.07091
1.07119
1.07165
1.07059
1.07068
1.07078
1.0709
1.07016
1.07044
1.07096
1.07158
1.06956
1.06955
1.07016
1.07309
1.06972
1.06877
1.06814
1.06807
1.077
1.08337
1.07675
1.07203
1.08433
1.11211
1.11655
1.09754
1.08588
1.08797
1.10076
1.15319
1.12123
1.12561
1.1399
1.16452
1.16676
1.164
1.15398
1.15653
1.16847
1.16819
1.16786
1.16753
1.16715
1.16681
1.16656
1.16636
1.16611
1.16579
1.16551
1.16544
1.16564
1.16601
1.16639
1.16674
1.16706
1.16738
1.1677
1.168
1.16827
1.16853
1.16866
1.16863
1.1648
1.14415
1.12186
1.12536
1.13968
1.13578
1.14656
1.14316
1.15336
1.15004
1.1592
1.15646
1.16213
1.16128
1.16572
1.16665
1.15387
1.1622
1.1292
1.14637
1.10486
1.11705
1.08903
1.09588
1.0782
1.08055
1.08538
1.0733
1.07458
1.07823
1.0762
1.07106
1.07131
1.07172
1.07236
1.07211
1.07249
1.07276
1.07297
1.07136
1.07282
1.0742
1.07531
1.06935
1.07101
1.07339
1.06851
1.06715
1.06961
1.07016
1.06766
1.0713
1.07698
1.07091
1.06753
1.07778
1.10443
1.10841
1.09064
1.07921
1.08129
1.0938
1.14143
1.11244
1.1159
1.12851
1.13653
1.15718
1.13897
1.14099
1.13964
1.16818
1.16786
1.16754
1.16715
1.16678
1.16647
1.16614
1.16556
1.16456
1.16344
1.16283
1.16297
1.16385
1.16493
1.16585
1.16653
1.16703
1.16745
1.16779
1.16812
1.1684
1.16857
1.16862
1.1666
1.15222
1.12504
1.12205
1.13258
1.14296
1.13979
1.15005
1.14652
1.15684
1.15352
1.1627
1.15993
1.16639
1.16508
1.16744
1.16817
1.15906
1.16511
1.13363
1.15034
1.11088
1.12385
1.09195
1.10037
1.08058
1.08326
1.09186
1.09537
1.07661
1.07835
1.08292
1.08045
1.07323
1.07365
1.0743
1.07527
1.07608
1.07658
1.07693
1.07727
1.07598
1.07837
1.08028
1.0816
1.07254
1.07625
1.0802
1.06629
1.06718
1.07433
1.07602
1.07065
1.06675
1.07093
1.06615
1.06544
1.07154
1.0973
1.10099
1.08401
1.07281
1.07484
1.08722
1.12875
1.10448
1.10724
1.11773
1.12615
1.13251
1.11344
1.126
1.11998
1.16787
1.16757
1.16717
1.16676
1.16639
1.16582
1.16462
1.16226
1.15929
1.15691
1.15624
1.15752
1.16018
1.16304
1.16505
1.16627
1.16705
1.16754
1.16795
1.16825
1.16849
1.16857
1.16754
1.15789
1.13138
1.12119
1.12655
1.13895
1.13532
1.14592
1.14245
1.15304
1.14949
1.15972
1.15648
1.16516
1.16266
1.16809
1.16714
1.16764
1.1685
1.16056
1.16554
1.13865
1.15166
1.11714
1.12652
1.09846
1.10217
1.10824
1.08566
1.0887
1.09588
1.09835
1.08278
1.0849
1.08951
1.0872
1.07775
1.07849
1.07956
1.08099
1.0824
1.08291
1.08335
1.08391
1.08382
1.08667
1.08856
1.08964
1.0795
1.08493
1.08982
1.06653
1.07075
1.08255
1.08477
1.07717
1.06458
1.06578
1.06369
1.0656
1.06593
1.09072
1.09423
1.0776
1.06679
1.06869
1.08089
1.11705
1.09746
1.09997
1.10851
1.15357
1.10931
1.11235
1.11312
1.10614
1.1676
1.1672
1.16676
1.16631
1.16549
1.16333
1.15917
1.15386
1.14986
1.14836
1.14925
1.15208
1.15624
1.16083
1.16426
1.16613
1.16712
1.16769
1.16805
1.16838
1.16848
1.16798
1.16148
1.13856
1.12172
1.12263
1.13203
1.14206
1.13888
1.14914
1.14557
1.15631
1.15275
1.16284
1.15971
1.16755
1.16553
1.16877
1.1685
1.16694
1.16847
1.15976
1.16413
1.13784
1.14661
1.10653
1.11045
1.11045
1.10087
1.10378
1.10355
1.10057
1.09173
1.09374
1.09462
1.0956
1.08986
1.09083
1.09243
1.09161
1.08469
1.08577
1.08709
1.08851
1.09022
1.09067
1.09116
1.0917
1.09353
1.09588
1.09707
1.09757
1.0893
1.09525
1.09967
1.07024
1.07737
1.09243
1.0938
1.08569
1.06441
1.06273
1.06284
1.06895
1.06201
1.08446
1.08805
1.07139
1.06178
1.06292
1.07476
1.10741
1.09142
1.0938
1.1009
1.16395
1.0999
1.12112
1.10359
1.09801
1.16728
1.16678
1.16628
1.16516
1.16215
1.15597
1.14865
1.14326
1.14113
1.14167
1.1442
1.14834
1.15358
1.15917
1.16392
1.16622
1.16725
1.1678
1.1682
1.16839
1.16815
1.16383
1.14527
1.12359
1.12017
1.12635
1.13897
1.13545
1.14582
1.14236
1.15305
1.14941
1.16017
1.15667
1.16615
1.16338
1.16872
1.16792
1.16901
1.16905
1.16463
1.16796
1.1529
1.15906
1.11923
1.12727
1.09118
1.0943
1.0802
1.08514
1.09697
1.09864
1.08824
1.08588
1.09308
1.09375
1.08377
1.0833
1.09173
1.09072
1.08791
1.08953
1.09218
1.09248
1.09243
1.0922
1.09767
1.09756
1.09722
1.09633
1.10234
1.10335
1.10343
1.10304
1.09912
1.10404
1.10687
1.07644
1.08498
1.10072
1.09985
1.09309
1.0669
1.06118
1.06373
1.074
1.05962
1.07858
1.08256
1.06552
1.05841
1.0582
1.06909
1.09983
1.08608
1.08868
1.0948
1.16668
1.09809
1.12381
1.09695
1.09376
1.16686
1.16628
1.16503
1.16114
1.15338
1.14414
1.13772
1.13534
1.13574
1.13794
1.14158
1.14662
1.15267
1.15894
1.1641
1.16641
1.16742
1.16795
1.16829
1.16818
1.16535
1.15127
1.12772
1.11934
1.12217
1.13284
1.14339
1.14012
1.15048
1.14689
1.15777
1.15413
1.1645
1.16125
1.16824
1.16696
1.16919
1.16888
1.16906
1.16929
1.16032
1.16692
1.13713
1.1492
1.08972
1.09607
1.09785
1.07243
1.07616
1.06646
1.07108
1.08347
1.0843
1.06925
1.0668
1.08625
1.08486
1.06557
1.06452
1.08526
1.08157
1.07392
1.07767
1.09516
1.09355
1.09138
1.08859
1.10176
1.10009
1.09777
1.09486
1.10761
1.1074
1.10594
1.10357
1.10589
1.10899
1.10964
1.08245
1.08992
1.10485
1.10054
1.09592
1.07007
1.06022
1.06457
1.0777
1.05784
1.07329
1.07755
1.06028
1.05586
1.05491
1.06403
1.09424
1.08145
1.08441
1.09003
1.16774
1.0966
1.12141
1.09257
1.09127
1.16636
1.16499
1.16073
1.15143
1.14068
1.13355
1.13147
1.13202
1.13388
1.13694
1.14124
1.14669
1.153
1.15937
1.16453
1.16676
1.16763
1.16814
1.16814
1.16622
1.15581
1.13227
1.11958
1.1197
1.12755
1.14303
1.14885
1.14502
1.15612
1.15248
1.16314
1.15966
1.16768
1.16599
1.16902
1.16856
1.16939
1.16926
1.16903
1.16938
1.15399
1.16545
1.11467
1.13503
1.07614
1.08116
1.08912
1.08032
1.0584
1.06227
1.06147
1.06536
1.06438
1.06512
1.05488
1.05169
1.07055
1.06769
1.04795
1.04738
1.07128
1.06582
1.05615
1.06066
1.09124
1.08696
1.08211
1.07682
1.10045
1.0966
1.09198
1.08666
1.10924
1.10718
1.10375
1.0992
1.10797
1.10915
1.10901
1.0842
1.08965
1.10426
1.09815
1.09456
1.07103
1.05927
1.06416
1.07717
1.05607
1.06839
1.07318
1.05581
1.05375
1.05249
1.05917
1.09023
1.07742
1.08096
1.08635
1.13865
1.09425
1.10359
1.08965
1.08929
1.16522
1.16067
1.15062
1.13822
1.13082
1.12901
1.12977
1.13173
1.13465
1.13826
1.14262
1.148
1.15429
1.16056
1.16536
1.16714
1.16793
1.16806
1.16659
1.15861
1.13702
1.12045
1.11806
1.12344
1.13712
1.1556
1.152
1.15205
1.1555
1.16249
1.15902
1.16725
1.16541
1.16884
1.16827
1.16932
1.16914
1.16949
1.16943
1.16893
1.16944
1.14834
1.16428
1.09961
1.12328
1.06969
1.0746
1.08494
1.0783
1.05427
1.05784
1.06181
1.06506
1.04773
1.04921
1.05065
1.04689
1.05245
1.04964
1.0368
1.03771
1.05561
1.05012
1.04156
1.04536
1.08078
1.07449
1.06804
1.06168
1.09383
1.08798
1.08165
1.07485
1.10708
1.10314
1.09729
1.09013
1.1063
1.10647
1.10464
1.08231
1.08628
1.1002
1.08986
1.08902
1.07006
1.05784
1.06366
1.07511
1.05441
1.06415
1.0692
1.05277
1.05225
1.05118
1.05523
1.08734
1.07408
1.07825
1.08355
1.09913
1.09012
1.08987
1.08753
1.08724
1.1614
1.15055
1.1371
1.12905
1.12741
1.12837
1.13086
1.13423
1.13773
1.14138
1.14553
1.15063
1.15661
1.16226
1.1661
1.1676
1.16791
1.16662
1.15981
1.1413
1.12241
1.11714
1.1206
1.13234
1.15138
1.15924
1.16309
1.15989
1.16265
1.1671
1.1654
1.16871
1.16813
1.16923
1.16903
1.16945
1.16936
1.16955
1.16953
1.16885
1.16954
1.14781
1.16427
1.09288
1.10352
1.12142
1.06874
1.07307
1.08542
1.07965
1.05545
1.05872
1.06754
1.06956
1.04
1.04322
1.05175
1.04746
1.0388
1.03716
1.03224
1.03488
1.04368
1.03927
1.03312
1.0357
1.06801
1.06122
1.0548
1.04892
1.08262
1.07545
1.06825
1.06107
1.10027
1.09356
1.08522
1.07646
1.10044
1.09844
1.09345
1.07784
1.07895
1.0896
1.07883
1.07956
1.06953
1.05783
1.0646
1.07199
1.05362
1.06012
1.0659
1.05117
1.05159
1.05073
1.05281
1.08514
1.07139
1.07596
1.08135
1.11685
1.08654
1.08682
1.08575
1.0855
1.15194
1.13695
1.12815
1.12631
1.12731
1.13057
1.1345
1.13815
1.14157
1.14528
1.14933
1.15408
1.15938
1.16392
1.16683
1.16767
1.16653
1.15985
1.14359
1.12482
1.11703
1.11882
1.1286
1.14651
1.16464
1.16566
1.1673
1.16574
1.16722
1.16866
1.16814
1.16916
1.16897
1.16938
1.16928
1.16955
1.16947
1.16965
1.1696
1.16884
1.16959
1.15222
1.16524
1.09613
1.10515
1.13307
1.12021
1.07204
1.07529
1.08934
1.08442
1.06289
1.06552
1.0771
1.07782
1.03861
1.0429
1.05884
1.05315
1.03167
1.03148
1.03107
1.0347
1.03454
1.03156
1.02835
1.02943
1.05448
1.0484
1.04299
1.03839
1.06813
1.0608
1.0538
1.04733
1.08593
1.07763
1.06883
1.06062
1.08667
1.08148
1.07427
1.07375
1.07575
1.07704
1.07616
1.07615
1.06863
1.05882
1.06485
1.07145
1.05426
1.05675
1.06279
1.05087
1.05256
1.05186
1.05172
1.08332
1.06883
1.07391
1.07946
1.15078
1.08448
1.09262
1.08405
1.08392
1.13827
1.12792
1.1256
1.12644
1.13009
1.1347
1.13877
1.14245
1.14582
1.14943
1.15344
1.15802
1.16238
1.16581
1.16721
1.16618
1.15949
1.14369
1.12631
1.11717
1.1179
1.12599
1.14254
1.16225
1.16858
1.16799
1.16822
1.16864
1.16869
1.1691
1.16894
1.16932
1.16922
1.16948
1.1694
1.16962
1.16955
1.16975
1.16966
1.16896
1.16966
1.1369
1.15266
1.16175
1.16692
1.10204
1.11015
1.12651
1.07899
1.08106
1.09593
1.09173
1.07398
1.07611
1.08825
1.088
1.03959
1.04628
1.06933
1.06131
1.02818
1.02886
1.03115
1.0355
1.02797
1.02663
1.02599
1.026
1.04187
1.03724
1.03335
1.03028
1.05307
1.04681
1.04126
1.03681
1.06712
1.0601
1.05365
1.0481
1.07359
1.06887
1.06532
1.07492
1.07589
1.07555
1.0771
1.07689
1.07043
1.06044
1.06709
1.07218
1.05573
1.05458
1.06008
1.05111
1.05501
1.05288
1.05198
1.08158
1.06647
1.07162
1.07753
1.15304
1.0835
1.09634
1.08235
1.082
1.12843
1.12532
1.12574
1.12914
1.134
1.13831
1.14247
1.14623
1.14982
1.15351
1.15762
1.16165
1.16498
1.16639
1.16527
1.15826
1.14311
1.12634
1.11752
1.11766
1.12445
1.13972
1.15991
1.16813
1.16908
1.1688
1.16905
1.169
1.16892
1.16901
1.16906
1.16925
1.16917
1.16941
1.16933
1.16956
1.16949
1.16967
1.16962
1.1698
1.1698
1.16919
1.16973
1.14329
1.15718
1.16299
1.1683
1.1101
1.11745
1.13427
1.08814
1.08922
1.10461
1.10097
1.0862
1.08805
1.09983
1.09917
1.04221
1.05119
1.08027
1.06863
1.02647
1.0283
1.03197
1.03747
1.0255
1.02512
1.02539
1.02498
1.03329
1.03041
1.02831
1.0267
1.04331
1.03965
1.03637
1.03355
1.05905
1.05474
1.05051
1.0466
1.07413
1.07159
1.07888
1.07459
1.09014
1.08616
1.08677
1.08837
1.06948
1.06275
1.066
1.09023
1.05872
1.0536
1.05764
1.05208
1.05629
1.0541
1.05182
1.07983
1.06392
1.06965
1.07565
1.16785
1.08347
1.11084
1.0807
1.08065
1.12543
1.1254
1.12825
1.13218
1.13582
1.14012
1.14475
1.14885
1.15277
1.15665
1.16044
1.16361
1.16478
1.16305
1.15547
1.14131
1.12592
1.11759
1.11771
1.12399
1.13806
1.15793
1.16771
1.16895
1.16915
1.16916
1.16914
1.16909
1.16912
1.1692
1.16934
1.16927
1.16948
1.16941
1.16962
1.16956
1.1698
1.16967
1.16986
1.16985
1.16946
1.1698
1.14981
1.16098
1.16532
1.16633
1.1687
1.16947
1.11979
1.1263
1.14246
1.0988
1.0991
1.11494
1.11187
1.09766
1.09978
1.11129
1.11104
1.04538
1.05611
1.08959
1.07579
1.02637
1.02854
1.03382
1.03998
1.02546
1.02506
1.02577
1.02515
1.0311
1.02867
1.02706
1.02613
1.04313
1.03981
1.03711
1.03458
1.07443
1.07092
1.06947
1.06734
1.08466
1.07983
1.09705
1.08959
1.10747
1.1032
1.10456
1.10659
1.0898
1.06213
1.08806
1.10872
1.08348
1.05398
1.05771
1.05141
1.08208
1.07977
1.05361
1.07803
1.0623
1.06781
1.07371
1.16896
1.08456
1.12637
1.0792
1.07982
1.1254
1.12784
1.13103
1.13347
1.13628
1.14032
1.14507
1.14974
1.15382
1.15751
1.16034
1.16095
1.15821
1.14969
1.13712
1.12461
1.11759
1.11799
1.12415
1.13756
1.15662
1.16735
1.16882
1.1691
1.16922
1.16922
1.16922
1.16921
1.16916
1.16928
1.16941
1.16935
1.16955
1.16948
1.16968
1.16962
1.16988
1.16979
1.16993
1.1699
1.16974
1.1699
1.15553
1.16356
1.16779
1.16917
1.16949
1.13039
1.13581
1.15007
1.11055
1.11049
1.12641
1.12398
1.10752
1.11065
1.12198
1.12258
1.04888
1.06132
1.09842
1.08289
1.02731
1.02998
1.03543
1.04255
1.02723
1.02676
1.02738
1.02674
1.03349
1.03127
1.02888
1.02784
1.06718
1.06576
1.0659
1.06545
1.0952
1.09261
1.09215
1.09157
1.10164
1.09892
1.12554
1.10822
1.13192
1.12911
1.12987
1.13128
1.10916
1.0843
1.10876
1.13285
1.10646
1.05595
1.05799
1.05704
1.07962
1.10553
1.10396
1.0561
1.07658
1.06257
1.06728
1.07251
0.909917
1.08577
1.11514
1.07789
1.07937
1.12785
1.13077
1.1325
1.13404
1.13612
1.13883
1.14223
1.14619
1.14985
1.1522
1.15199
1.14819
1.14076
1.13126
1.12252
1.11778
1.11874
1.12499
1.13787
1.15623
1.16712
1.16873
1.16897
1.16919
1.16921
1.16929
1.16928
1.16928
1.16927
1.16935
1.16947
1.16941
1.1696
1.16954
1.1698
1.16969
1.16993
1.16987
1.17
1.16997
1.16994
1.16999
1.16007
1.16602
1.16858
1.16947
1.16973
1.14101
1.14505
1.15653
1.1228
1.12292
1.13813
1.13641
1.11643
1.12042
1.13165
1.13313
1.05235
1.06651
1.1071
1.08957
1.0288
1.03166
1.03693
1.04416
1.03164
1.03083
1.02926
1.02896
1.06516
1.03872