/*--------------------------------*- C++ -*----------------------------------*\
  =========                 |
  \\      /  F ield         | OpenFOAM: The Open Source CFD Toolbox
   \\    /   O peration     | Website:  https://openfoam.org
    \\  /    A nd           | Version:  dev
     \\/     M anipulation  |
\*---------------------------------------------------------------------------*/
FoamFile
{
    version     2.0;
    format      ascii;
    class       volScalarField;
    location    "2500";
    object      T;
}
// * * * * * * * * * * * * * * * * * * * * * * * * * * * * * * * * * * * * * //

dimensions      [0 0 0 1 0 0 0];

internalField   nonuniform List<scalar> 
9842
(
300.096
300.138
300.111
300.142
300.216
300.101
300.127
300.254
300.219
300.083
300.123
300.276
300.302
300.202
300.076
300.096
300.271
300.346
300.292
300.169
300.063
300.101
300.26
300.363
300.375
300.268
300.146
300.057
300.099
300.244
300.378
300.427
300.352
300.243
300.128
300.055
300.092
300.223
300.363
300.451
300.433
300.327
300.211
300.12
300.051
300.076
300.206
300.345
300.462
300.485
300.408
300.291
300.19
300.109
300.049
300.078
300.193
300.324
300.451
300.512
300.48
300.376
300.264
300.164
300.099
300.045
300.067
300.164
300.285
300.425
300.529
300.527
300.46
300.342
300.236
300.155
300.095
300.044
300.066
300.151
300.28
300.423
300.538
300.565
300.523
300.421
300.299
300.218
300.149
300.089
300.041
300.066
300.158
300.249
300.373
300.529
300.591
300.576
300.497
300.377
300.277
300.201
300.139
300.087
300.039
300.067
300.146
300.251
300.384
300.505
300.599
300.613
300.566
300.449
300.342
300.26
300.192
300.134
300.084
300.039
300.06
300.135
300.245
300.335
300.491
300.608
300.642
300.616
300.523
300.418
300.32
300.241
300.181
300.126
300.079
300.037
300.06
300.143
300.238
300.333
300.48
300.592
300.657
300.657
300.597
300.482
300.385
300.296
300.231
300.174
300.122
300.078
300.035
300.06
300.138
300.226
300.32
300.44
300.577
300.661
300.686
300.648
300.554
300.444
300.358
300.281
300.22
300.167
300.12
300.078
300.034
300.053
300.125
300.215
300.313
300.43
300.541
300.652
300.702
300.694
300.62
300.514
300.423
300.335
300.269
300.211
300.162
300.114
300.075
300.035
300.058
300.125
300.213
300.304
300.384
300.518
300.654
300.714
300.723
300.679
300.583
300.487
300.397
300.32
300.257
300.204
300.158
300.114
300.072
300.034
300.057
300.12
300.209
300.289
300.388
300.516
300.634
300.717
300.746
300.721
300.644
300.555
300.453
300.371
300.301
300.245
300.198
300.152
300.111
300.072
300.034
300.056
300.117
300.203
300.288
300.376
300.458
300.604
300.71
300.76
300.756
300.702
300.615
300.515
300.425
300.354
300.294
300.24
300.19
300.149
300.107
300.07
300.032
300.055
300.121
300.195
300.277
300.354
300.46
300.595
300.702
300.765
300.781
300.747
300.676
300.575
300.482
300.407
300.339
300.284
300.231
300.185
300.147
300.108
300.07
300.034
300.053
300.119
300.18
300.27
300.351
300.457
300.534
300.685
300.764
300.797
300.785
300.729
300.636
300.54
300.459
300.39
300.328
300.273
300.227
300.182
300.144
300.105
300.069
300.034
300.053
300.112
300.189
300.263
300.353
300.429
300.529
300.676
300.755
300.807
300.813
300.773
300.692
300.598
300.51
300.44
300.374
300.32
300.267
300.219
300.179
300.142
300.104
300.068
300.033
300.049
300.109
300.187
300.252
300.352
300.427
300.541
300.654
300.747
300.802
300.835
300.809
300.745
300.657
300.565
300.486
300.424
300.364
300.308
300.259
300.213
300.176
300.14
300.105
300.069
300.033
300.052
300.117
300.183
300.25
300.33
300.406
300.498
300.632
300.73
300.795
300.855
300.842
300.795
300.714
300.62
300.543
300.465
300.41
300.352
300.303
300.255
300.212
300.173
300.138
300.102
300.069
300.033
300.051
300.113
300.18
300.255
300.336
300.426
300.482
300.606
300.715
300.794
300.862
300.87
300.836
300.769
300.677
300.593
300.519
300.454
300.399
300.342
300.295
300.251
300.211
300.173
300.137
300.103
300.069
300.034
300.053
300.117
300.187
300.261
300.339
300.416
300.476
300.607
300.716
300.787
300.853
300.888
300.872
300.816
300.734
300.642
300.566
300.498
300.438
300.386
300.336
300.289
300.247
300.209
300.173
300.138
300.103
300.069
300.034
300.053
300.112
300.185
300.259
300.329
300.4
300.482
300.555
300.696
300.777
300.844
300.898
300.898
300.859
300.786
300.701
300.619
300.548
300.486
300.426
300.377
300.328
300.281
300.244
300.207
300.171
300.138
300.102
300.07
300.035
300.054
300.115
300.184
300.254
300.332
300.408
300.492
300.551
300.679
300.768
300.833
300.904
300.921
300.895
300.831
300.753
300.671
300.592
300.528
300.475
300.418
300.367
300.319
300.28
300.241
300.203
300.169
300.138
300.104
300.071
300.035
300.054
300.12
300.187
300.259
300.334
300.391
300.482
300.558
300.663
300.764
300.833
300.904
300.934
300.922
300.876
300.798
300.722
300.64
300.574
300.514
300.458
300.408
300.364
300.314
300.277
300.24
300.204
300.172
300.138
300.107
300.073
300.035
300.05
300.12
300.19
300.261
300.335
300.406
300.482
300.555
300.633
300.748
300.828
300.901
300.948
300.949
300.913
300.851
300.77
300.69
300.618
300.56
300.502
300.449
300.401
300.356
300.309
300.273
300.235
300.202
300.173
300.14
300.109
300.074
300.036
300.054
300.122
300.182
300.259
300.336
300.408
300.471
300.558
300.629
300.729
300.817
300.895
300.95
300.97
300.946
300.893
300.819
300.74
300.666
300.6
300.543
300.491
300.441
300.388
300.351
300.311
300.27
300.236
300.206
300.174
300.143
300.11
300.075
300.018
300.038
300.055
300.12
300.193
300.267
300.336
300.409
300.474
300.546
300.624
300.717
300.812
300.892
300.95
300.98
300.973
300.932
300.863
300.785
300.712
300.64
300.582
300.529
300.48
300.433
300.388
300.343
300.306
300.272
300.235
300.205
300.177
300.146
300.112
300.059
300.08
300.018
300.038
300.057
300.127
300.197
300.268
300.334
300.4
300.47
300.53
300.625
300.713
300.804
300.886
300.953
300.994
300.995
300.967
300.911
300.83
300.757
300.688
300.629
300.572
300.519
300.473
300.427
300.384
300.343
300.3
300.27
300.237
300.208
300.178
300.131
300.147
300.098
300.131
300.118
300.06
300.08
300.018
300.038
300.057
300.115
300.201
300.274
300.346
300.416
300.485
300.538
300.63
300.697
300.793
300.88
300.951
300.998
301.013
300.996
300.95
300.886
300.803
300.733
300.666
300.608
300.556
300.513
300.463
300.418
300.377
300.336
300.301
300.27
300.24
300.21
300.165
300.182
300.149
300.1
300.136
300.118
300.061
300.082
300.018
300.039
300.055
300.131
300.193
300.276
300.347
300.419
300.487
300.538
300.633
300.693
300.783
300.872
300.947
301.002
301.027
301.022
300.986
300.925
300.851
300.778
300.71
300.649
300.597
300.547
300.503
300.456
300.41
300.371
300.337
300.303
300.271
300.24
300.198
300.213
300.164
300.182
300.154
300.101
300.137
300.12
300.061
300.083
300.018
300.041
300.055
300.136
300.208
300.287
300.335
300.422
300.492
300.536
300.634
300.702
300.78
300.873
300.944
301.004
301.037
301.043
301.017
300.967
300.895
300.818
300.752
300.686
300.636
300.588
300.537
300.494
300.449
300.412
300.371
300.333
300.302
300.272
300.229
300.245
300.198
300.214
300.17
300.187
300.155
300.103
300.139
300.123
300.062
300.084
300.018
300.041
300.062
300.135
300.213
300.279
300.339
300.427
300.496
300.555
300.633
300.684
300.773
300.875
300.944
301.005
301.046
301.061
301.045
301.004
300.94
300.866
300.79
300.73
300.675
300.622
300.574
300.531
300.487
300.445
300.407
300.368
300.333
300.303
300.26
300.276
300.23
300.246
300.203
300.219
300.173
300.19
300.158
300.105
300.142
300.126
300.063
300.086
300.018
300.042
300.065
300.129
300.219
300.277
300.361
300.412
300.49
300.551
300.628
300.685
300.786
300.87
300.943
301.007
301.052
301.075
301.07
301.037
300.98
300.911
300.836
300.774
300.713
300.661
300.614
300.562
300.52
300.479
300.441
300.406
300.367
300.333
300.292
300.307
300.261
300.277
300.234
300.249
300.206
300.222
300.176
300.193
300.161
300.108
300.146
300.13
300.065
300.088
300.019
300.043
300.065
300.143
300.211
300.297
300.367
300.405
300.517
300.558
300.649
300.689
300.796
300.869
300.944
301.011
301.057
301.088
301.09
301.067
301.02
300.952
300.886
300.812
300.752
300.697
300.649
300.603
300.559
300.504
300.471
300.44
300.404
300.365
300.323
300.338
300.292
300.308
300.265
300.28
300.238
300.254
300.21
300.226
300.179
300.197
300.165
300.111
300.15
300.134
300.067
300.091
300.02
300.044
300.066
300.138
300.222
300.309
300.373
300.437
300.516
300.562
300.661
300.704
300.796
300.871
300.949
301.015
301.065
301.099
301.107
301.094
301.055
300.997
300.925
300.859
300.791
300.734
300.682
300.632
300.589
300.546
300.493
300.468
300.438
300.403
300.355
300.369
300.324
300.338
300.296
300.311
300.269
300.285
300.242
300.258
300.214
300.231
300.184
300.202
300.17
300.115
300.155
300.138
300.069
300.095
300.02
300.046
300.063
300.14
300.216
300.297
300.381
300.444
300.491
300.561
300.652
300.726
300.798
300.874
300.952
301.02
301.072
301.107
301.124
301.116
301.087
301.033
300.967
300.9
300.828
300.766
300.719
300.671
300.622
300.572
300.536
300.488
300.465
300.436
300.387
300.403
300.356
300.37
300.327
300.342
300.301
300.317
300.274
300.29
300.247
300.264
300.219
300.236
300.189
300.207
300.175
300.119
300.16
300.143
300.072
300.098
300.021
300.048
300.065
300.144
300.218
300.294
300.377
300.45
300.489
300.589
300.653
300.744
300.805
300.879
300.955
301.025
301.079
301.118
301.139
301.138
301.114
301.073
301.009
300.941
300.872
300.81
300.755
300.703
300.654
300.606
300.558
300.531
300.484
300.459
300.425
300.437
300.388
300.402
300.36
300.375
300.333
300.349
300.307
300.324
300.28
300.297
300.253
300.27
300.225
300.243
300.195
300.214
300.181
300.124
300.166
300.149
300.075
300.102
300.021
300.049
300.069
300.149
300.225
300.291
300.376
300.439
300.493
300.602
300.67
300.753
300.822
300.884
300.959
301.03
301.087
301.128
301.153
301.156
301.14
301.103
301.048
300.981
300.913
300.849
300.787
300.738
300.691
300.644
300.591
300.548
300.53
300.483
300.467
300.423
300.446
300.394
300.411
300.368
300.387
300.342
300.362
300.315
300.337
300.288
300.309
300.261
300.281
300.232
300.252
300.201
300.221
300.188
300.129
300.173
300.155
300.077
300.106
300.022
300.051
300.075
300.158
300.235
300.295
300.369
300.434
300.524
300.61
300.68
300.746
300.833
300.896
300.965
301.035
301.096
301.138
301.166
301.174
301.164
301.135
301.086
301.024
300.953
300.887
300.826
300.772
300.726
300.686
300.637
300.586
300.546
300.537
300.508
300.513
300.587
300.437
300.465
300.413
300.449
300.39
300.431
300.365
300.41
300.337
300.383
300.307
300.348
300.275
300.311
300.243
300.272
300.21
300.234
300.197
300.134
300.181
300.163
300.08
300.11
300.023
300.052
300.087
300.174
300.248
300.304
300.378
300.441
300.521
300.605
300.687
300.753
300.837
300.908
300.973
301.042
301.104
301.15
301.179
301.191
301.187
301.163
301.121
301.064
300.997
300.929
300.865
300.809
300.759
300.721
300.668
300.617
300.584
300.556
300.578
300.685
300.82
300.836
301.157
300.515
300.638
300.508
300.669
300.496
300.679
300.471
300.667
300.431
300.619
300.382
300.542
300.327
300.453
300.272
300.358
300.224
300.274
300.212
300.141
300.195
300.174
300.082
300.114
300.024
300.054
300.105
300.204
300.272
300.322
300.385
300.443
300.526
300.624
300.688
300.753
300.842
300.917
300.985
301.052
301.114
301.162
301.193
301.209
301.207
301.189
301.154
301.103
301.039
300.971
300.906
300.846
300.793
300.75
300.713
300.655
300.603
300.598
300.737
301.04
300.879
301.528
302.055
302.17
302.962
300.991
301.501
301.06
301.754
301.08
301.877
301.033
301.891
300.923
301.745
300.768
301.471
300.583
301.155
300.407
300.788
300.273
300.465
300.264
300.149
300.241
300.206
300.085
300.119
300.024
300.054
300.1
300.233
300.311
300.354
300.398
300.46
300.556
300.633
300.685
300.75
300.857
300.926
300.997
301.065
301.127
301.175
301.208
301.225
301.228
301.213
301.185
301.139
301.08
301.014
300.947
300.885
300.829
300.781
300.743
300.694
300.641
300.61
300.835
302.763
302.458
303.43
303.815
304.685
304.881
306.051
302.673
303.738
302.938
304.231
303.08
304.501
303.082
304.664
302.877
304.644
302.412
304.376
301.735
303.73
301.057
302.518
300.511
301.349
300.519
300.166
300.464
300.355
300.086
300.126
300.024
300.052
300.173
300.329
300.399
300.428
300.493
300.569
300.62
300.684
300.762
300.871
300.935
301.009
301.078
301.141
301.19
301.224
301.243
301.247
301.238
301.213
301.174
301.12
301.056
300.989
300.924
300.865
300.813
300.77
300.731
300.681
300.64
300.842
302.917
306.883
307.459
305.497
306.291
307.2
308.264
308.455
309.83
305.617
307.052
306.057
307.715
306.362
308.161
306.583
308.563
306.577
308.832
306.246
308.86
305.308
308.386
303.444
306.973
301.567
304.313
301.626
300.24
301.448
301.058
300.086
300.152
300.022
300.048
300.202
300.402
300.473
300.535
300.578
300.622
300.687
300.776
300.878
300.947
301.019
301.092
301.156
301.206
301.241
301.261
301.267
301.26
301.239
301.206
301.158
301.098
301.032
300.965
300.903
300.848
300.799
300.766
300.713
300.675
300.827
302.916
307.752
307.493
310.76
311.26
309.254
310.101
311.118
312.257
312.503
313.96
309.35
310.987
309.994
311.823
310.522
312.486
311.056
313.155
311.39
313.757
311.36
314.104
310.599
313.905
308.562
312.632
304.892
309.868
304.979
300.558
304.48
303.818
301.652
300.085
300.248
300.019
300.042
300.237
300.482
300.578
300.589
300.623
300.699
300.786
300.881
300.957
301.03
301.105
301.172
301.224
301.26
301.28
301.287
301.281
301.264
301.236
301.193
301.138
301.074
301.007
300.943
300.884
300.831
300.791
300.747
300.7
300.788
302.777
309.707
311.477
312.107
314.506
314.626
313.298
314.021
315.192
316.1
316.61
317.597
313.555
315.185
314.376
316.089
315.108
316.898
315.901
317.733
316.503
318.535
316.724
319.067
316.219
319.082
314.313
318.062
310.611
315.268
312.98
307.691
310.667
302.669
300.857
302.152
306.684
309.992
310.247
305.852
300.07
300.108
301.33
300.783
300.258
300.018
300.068
300.03
300.049
300.337
300.597
300.623
300.64
300.714
300.79
300.881
300.965
301.04
301.116
301.187
301.242
301.279
301.3
301.308
301.304
301.287
301.263
301.227
301.177
301.117
301.051
300.983
300.922
300.865
300.815
300.78
300.728
300.752
302.379
309.272
314.227
313.724
314.565
314.455
316.266
315.923
316.507
316.466
318.011
317.922
319.308
319.261
317.666
318.754
318.466
319.672
319.278
320.512
320.181
321.427
320.926
322.335
321.313
323.002
319.231
320.534
321.605
322.674
317.133
319.03
321.103
322.026
320.537
315.385
313.199
315.817
317.594
313.174
304.909
303.696
309.194
312.394
312.929
308.271
300.129
302.518
301.478
300.393
300.01
300.033
300.036
300.084
300.071
300.556
300.656
300.667
300.723
300.794
300.88
300.973
301.048
301.127
301.201
301.259
301.299
301.321
301.33
301.326
301.314
301.288
301.258
301.214
301.158
301.094
301.026
300.962
300.901
300.846
300.813
300.758
300.746
301.824
308.258
313.967
314.868
314.712
315.55
315.239
316.342
315.611
317.602
317.026
318.94
318.23
320.269
319.648
320.43
320.51
321.341
321.699
322.292
322.814
323.315
323.913
324.218
325.03
323.506
324.297
324.902
325.455
322.391
323.453
324.36
319.478
321.138
323.199
323.863
322.585
317.95
315.763
318.088
319.885
315.639
307.097
305.722
311.607
315.288
314.687
310.584
300.201
304.189
302.608
300.735
300.009
300.04
300.089
300.144
300.166
300.69
300.702
300.736
300.8
300.881
300.979
301.054
301.136
301.214
301.276
301.319
301.343
301.352
301.349
301.338
301.318
301.286
301.247
301.197
301.137
301.068
301.002
300.938
300.881
300.832
300.791
300.757
301.387
306.77
313.381
313.593
313.642
313.949
313.758
314.92
314.369
314.444
313.21
317.164
315.829
318.509
316.86
320.181
318.691
321.595
321.127
322.868
322.641
324.152
324.109
325.49
325.598
325.865
326.213
326.457
326.638
325.113
325.742
326.244
326.65
324.245
325.145
325.9
321.598
323.111
324.955
325.579
324.437
320.132
318.06
320.218
321.942
317.861
309.303
307.784
313.855
317.446
316.802
312.771
300.407
306.091
304.353
301.462
300.007
300.173
300.044
300.342
300.403
300.746
300.759
300.807
300.883
300.978
301.057
301.142
301.225
301.292
301.338
301.364
301.375
301.374
301.363
301.345
301.318
301.28
301.234
301.177
301.111
301.043
300.976
300.916
300.858
300.823
300.781
301.106
305.119
312.484
312.972
311.336
311.32
311.278
311.239
312.25
311.611
310.854
309.422
314.841
312.734
316.663
314.155
319.163
317.039
321.966
320.797
323.799
323.03
325.51
325.169
326.749
326.782
326.772
326.684
326.95
327.169
327.314
327.404
326.509
326.98
327.313
327.512
325.874
326.62
327.19
323.54
324.94
326.522
327.098
326.135
322.144
320.148
322.2
323.858
319.901
311.446
309.949
315.931
319.44
318.764
314.848
300.971
308.312
306.687
303.001
300.008
300.265
300.083
300.905
300.875
300.791
300.82
300.885
300.977
301.059
301.146
301.234
301.307
301.357
301.387
301.401
301.405
301.398
301.381
301.356
301.321
301.274
301.218
301.154
301.085
301.017
300.952
300.891
300.853
300.808
300.956
303.686
311.204
313.389
309.638
310.592
308.501
309.064
308.01
308.142
308.505
308.055
306.699
305.46
311.361
308.737
314.337
311.085
318.361
315.801
321.877
320.349
324.423
323.367
326.758
326.151
327.434
327.424
327.375
327.281
327.627
327.695
327.724
327.733
327.544
327.712
327.768
327.782
327.255
327.712
327.885
325.357
326.618
327.779
328.179
327.596
324.044
322.105
324.097
325.669
321.826
313.619
312.255
317.916
321.34
320.699
316.937
302.341
310.783
309.369
305.427
300.132
300.515
300.409
302.237
301.854
300.841
300.89
300.975
301.059
301.146
301.24
301.32
301.376
301.413
301.44
301.461
301.469
301.456
301.424
301.381
301.331
301.272
301.204
301.133
301.059
300.989
300.926
300.871
300.835
300.89
302.593
309.402
313.403
310.741
307.874
308.546
306.232
307.009
305.077
305.553
304.927
304.883
303.175
302.574
307.622
304.781
312.436
308.4
318.035
315.103
321.974
320.235
325.222
323.938
327.237
326.928
326.08
326.563
327.721
327.678
327.595
327.462
327.768
327.743
327.713
327.68
327.892
327.807
327.655
327.47
328.068
328.071
327.887
327.021
328.02
328.301
328.486
328.508
325.865
323.999
325.938
327.333
323.72
315.827
314.6
319.922
323.269
322.666
319.008
304.82
313.316
312.124
308.297
301.913
301.348
302.046
304.614
303.958
300.9
300.973
301.058
301.144
301.243
301.331
301.395
301.449
301.511
301.592
301.666
301.683
301.633
301.54
301.442
301.355
301.274
301.192
301.109
301.033
300.964
300.897
300.865
300.872
301.84
307.173
313.149
312.199
308.36
309.396
306.549
307.441
304.778
305.64
303.275
303.98
302.526
302.744
301.614
301.378
304.647
302.508
311.161
306.599
317.862
314.472
322.373
320.406
325.527
324.839
323.431
326.973
326.595
325.521
326.117
327.633
327.56
327.44
327.251
327.316
327.203
327.126
327.065
327.532
327.097
326.69
326.365
328.127
327.632
326.924
328.378
328.782
328.046
327.88
328.628
327.548
325.87
327.664
328.671
325.635
317.973
316.858
321.897
325.216
324.605
320.989
307.892
315.737
314.781
311.34
309.187
303.791
308.542
308.007
308.365
300.973
301.057
301.139
301.242
301.338
301.417
301.503
301.652
301.904
302.189
302.346
302.311
302.088
301.812
301.58
301.407
301.28
301.173
301.086
301.003
300.93
300.888
300.873
301.386
305.068
312.281
313.099
310.253
307.495
308.332
305.639
306.559
303.882
304.739
302.379
303.088
301.444
301.776
301.179
300.992
303.311
301.767
309.97
305.564
316.179
312.609
321.531
319.128
324.831
324.046
321.557
320.551
325.995
325.485
324.147
324.867
326.989
326.867
326.676
326.391
326.139
325.994
325.894
325.796
326.16
325.459
324.901
324.518
327.173
326.077
324.917
329.037
328.767
326.64
326.135
327.728
328.903
327.659
329.08
329.29
327.476
319.989
318.944
323.813
327.099
326.499
322.884
311.275
317.96
317.186
314.277
311.972
310.264
315.455
312.018
313.659
301.053
301.133
301.236
301.343
301.438
301.583
301.889
302.488
303.25
303.86
304.032
303.703
303.022
302.294
301.783
301.471
301.275
301.149
301.045
300.969
300.906
300.886
301.146
303.605
310.567
313.332
311.876
308.554
309.52
306.716
307.628
304.863
305.783
303.141
303.974
301.754
302.39
301.012
301.253
301.125
300.908
302.928
301.658
308.633
305.22
314.444
311.883
319.671
318.618
316.913
323.347
322.468
320.403
319.7
324.186
323.566
322.231
322.9
325.657
325.44
325.126
324.708
324.286
324.141
324.014
323.852
323.863
323.04
322.498
322.189
325.118
323.537
322.126
328.961
327.695
324.224
323.574
325.794
329.547
329.191
329.815
329.236
329.145
321.874
320.867
325.686
328.888
328.322
324.724
314.462
319.946
319.232
316.832
304.717
316.607
315.753
315.547
317.496
301.123
301.227
301.341
301.458
301.667
302.215
303.279
304.646
305.685
306.076
305.845
305.107
304.033
302.857
301.981
301.506
301.255
301.111
301.019
300.936
300.911
301.035
302.685
308.65
313.187
312.941
310.4
307.731
308.572
305.874
306.808
304.018
304.936
302.344
303.143
301.149
301.66
300.839
300.908
301.303
300.917
303.13
302.015
308.847
306.534
317.39
316.295
316.295
318.985
318.165
318.226
319.066
321.593
321.015
320.761
320.481
322.131
321.85
321.389
321.627
323.628
323.315
322.931
322.52
322.021
321.896
321.754
321.599
321.064
320.396
320.061
319.921
322.269
320.568
319.315
327.843
325.731
321.367
320.972
323.301
329.59
330.102
330.064
328.224
330.319
323.683
322.642
327.52
330.39
330.049
326.522
317.138
321.673
320.989
318.97
302.057
319.251
313.338
318.211
319.791
301.206
301.336
301.464
301.749
302.516
304.1
305.998
307.411
307.972
307.832
307.166
306.081
304.721
303.28
302.068
301.484
301.223
301.084
300.98
300.931
300.992
302.087
306.88
312.676
313.612
311.931
308.549
309.483
306.743
307.651
304.859
305.805
303.025
303.925
301.503
302.206
300.852
301.056
300.779
300.769
301.888
301.043
304.895
303.309
313.868
311.679
321.749
320.854
324.944
323.499
320.092
319.614
322.597
323.28
321.202
321.012
323.892
324.028
321.59
321.881
322.689
322.222
321.461
321.376
321.39
321.456
319.891
319.923
320.021
320.272
318.566
318.282
318.261
318.37
319.466
318.083
317.291
325.999
323.504
319.008
319.25
321.168
328.834
330.565
329.782
326.713
331.037
325.398
324.236
329.267
331.402
331.467
328.201
319.273
323.213
322.463
320.707
301.364
319.763
312.603
320.093
321.004
301.313
301.465
301.783
302.773
304.767
307.178
308.875
309.509
309.402
308.819
307.855
306.531
304.955
303.339
302.022
301.436
301.18
301.043
300.957
300.985
301.701
305.313
311.554
313.84
313.068
310.18
307.38
308.242
305.524
306.46
303.641
304.579
301.921
302.748
300.973
301.297
300.734
300.812
300.767
300.71
302.986
301.306
309.035
305.856
322.172
320.35
319.844
327.237
326.132
329.029
327.648
323.98
323.737
328.185
328.918
323.169
323.575
329.283
329.6
323.455
324.531
326.785
325.675
320.607
321.065
321.688
322.491
318.73
319.201
319.859
320.689
317.086
317.145
317.553
318.217
317.559
316.698
316.517
324.231
322.071
317.844
319.05
320.357
327.875
330.846
329.52
325.615
331.568
326.956
325.701
330.842
332.172
332.461
329.712
320.866
324.558
323.699
322.074
301.096
320.184
313.256
321.346
321.717
301.442
301.791
302.877
305.274
308.09
309.986
310.545
310.397
309.899
309.083
307.944
306.513
304.871
303.23
301.913
301.347
301.124
300.994
300.996
301.479
304.139
310.327
313.772
313.741
311.606
307.474
305.949
306.95
304.065
305.005
302.267
303.154
301.114
301.544
300.777
300.892
300.683
300.715
300.775
300.685
304.613
301.68
315.125
309.594
326.144
324.667
322.35
324.913
331.469
330.296
330.54
329.365
329.643
329.422
332.546
333.525
327.789
328.645
334.671
334.853
327.565
329.201
332.138
330.76
321.726
322.96
324.37
325.924
319.095
320.187
321.508
323.043
316.627
317.202
318.162
319.446
316.974
316.648
316.689
323.717
322.142
318.006
319.721
320.74
327.581
331.126
329.632
325.764
332.097
328.408
326.986
332.191
332.807
333.19
331.171
322.017
325.737
324.703
323.138
308.617
320.855
318.198
322.185
322.285
301.732
302.891
305.482
308.741
310.718
311.205
311.002
310.475
309.694
308.732
307.58
306.169
304.536
302.924
301.699
301.25
301.048
301.015
301.386
303.418
309.057
313.533
314.192
312.72
309.039
304.199
305.129
305.116
304.224
302.432
303.319
301.224
301.689
300.823
300.964
300.702
300.747
300.657
300.672
300.799
300.671
306.08
301.974
319.344
312.762
328.064
326.601
323.564
325.509
332.736
331.644
330.437
329.455
334.747
334.29
333.849
335.014
333.275
334.147
338.17
337.887
332.295
333.987
336.662
335.468
324.755
326.606
328.529
330.446
320.973
322.655
324.493
326.493
317.225
318.33
319.981
322.028
317.437
317.389
317.901
324.263
323.113
319.142
322.087
322.326
327.85
331.545
329.754
326.35
332.59
329.673
328.162
333.107
333.251
333.579
332.358
322.851
326.717
325.491
323.947
319.45
322.043
322.104
322.797
322.877
302.704
305.499
309.036
311.192
311.637
311.378
310.708
309.804
308.871
307.906
306.816
305.484
303.937
302.489
301.512
301.131
301.052
301.377
303.112
307.923
312.996
314.443
313.496
310.315
305.288
303.263
302.279
303.096
302.39
301.261
301.692
300.854
301.002
300.724
300.773
300.666
300.691
300.643
300.647
300.819
300.645
306.22
301.977
321.268
318.238
313.271
328.351
327.058
323.426
325.113
332.375
331.378
328.708
328.103
337.166
336.157
333.512
334.838
337.533
338.056
339.618
338.78
335.985
337.374
339.329
338.505
328.531
330.576
332.538
334.35
324.203
326.306
328.449
330.61
319.132
321.037
323.437
325.997
319.074
319.639
321.058
325.543
325.21
322.161
325.225
325.024
327.978
331.522
329.45
327.235
332.81
330.875
329.141
333.581
333.432
333.692
333.075
323.485
327.509
326.155
324.585
314.491
323.074
322.975
323.309
323.377
305.139
309.075
311.436
311.932
311.662
310.783
309.73
308.759
307.854
306.879
305.821
304.588
303.224
302.066
301.326
301.113
301.4
303.101
307.32
312.339
314.473
313.983
311.319
306.558
301.884
301.624
301.21
301.605
301.229
300.865
300.997
300.741
300.789
300.684
300.709
300.643
300.662
300.616
300.63
300.821
300.632
305.072
301.731
320.337
317.782
310.119
313.603
327.366
326.398
322.287
323.718
330.106
329.315
325.863
325.65
337.602
336.257
331.335
333.073
339.794
339.858
339.984
338.834
338.859
339.814
340.848
340.499
332.622
334.5
336.189
337.639
328.471
330.678
332.814
334.813
323.22
325.641
328.245
330.712
323.005
324.506
326.613
326.695
326.085
325.739
325.943
325.956
328.22
331.197
329.337
327.353
332.593
331.877
330.057
333.642
333.107
333.312
333.379
324.011
328.252
326.753
325.131
305.431
323.664
321.293
323.797
323.828
308.726
311.497
312.125
311.897
310.911
309.675
308.593
307.62
306.736
305.793
304.753
303.574
302.458
301.585
301.23
301.488
303.192
307.293
311.935
314.433
314.233
312.027
307.6
302.491
300.886
301.035
300.977
300.871
300.86
300.755
300.795
300.7
300.724
300.659
300.679
300.625
300.641
300.59
300.613
300.791
300.615
309.097
304.958
302.621
301.307
318.659
316.381
311.888
325.306
324.7
320.395
321.6
326.781
326.154
322.601
322.675
337.291
335.2
328.164
330.579
340.904
340.688
339.955
338.577
340.949
341.383
341.596
341.591
336.522
337.981
339.222
340.206
333.016
334.95
336.683
338.09
328.735
330.844
332.809
334.516
326.739
328.133
329.189
326.302
326.002
326.115
325.637
325.7
327.619
330.661
328.609
327.093
332.104
332.512
330.849
333.548
332.301
332.958
333.277
324.514
328.949
327.418
325.691
304.845
323.935
320.226
324.284
324.379
311.357
312.2
312.085
311.164
309.861
308.713
307.615
306.627
305.692
304.734
303.676
302.643
301.794
301.436
301.72
303.505
307.444
311.924
314.337
314.301
312.444
308.345
303.089
301
300.759
300.83
300.768
300.778
300.801
300.778
300.764
300.716
300.738
300.676
300.695
300.639
300.657
300.61
300.623
300.578
300.577
300.731
300.596
307.406
303.791
302.304
300.956
316.395
314.362
309.798
322.634
322.324
317.935
318.962
323.195
322.658
319.283
319.472
336.465
333.672
324.923
328.369
341.444
340.862
339.685
337.944
341.735
341.859
341.779
341.907
339.211
340.138
340.818
341.342
336.008
337.156
338.195
339.096
331.078
332.396
333.694
334.913
326.534
327.294
324.879
326.365
321.59
322.752
322.592
322.116
327.887
329.92
328.926
321.562
331.141
332.787
331.576
333.222
331.883
332.561
333.316
325.014
329.684
327.976
326.226
301.067
323.937
316.143
324.755
324.761
312.168
312.176
311.404
310.346
309.374
308.233
307.013
305.941
304.923
303.922
302.951
302.141
301.844
302.283
304.224
307.917
312.038
314.317
314.284
312.568
308.786
303.596
301.104
300.792
300.74
300.739
300.744
300.755
300.75
300.73
300.694
300.711
300.657
300.675
300.623
300.638
300.576
300.61
300.563
300.565
300.663
300.578
305.698
302.815
301.711
301.454
300.856
300.661
313.72
311.944
307.623
319.577
319.493
315.053
315.906
319.899
319.298
316.066
316.135
335.466
332.155
322.209
326.237
341.47
340.778
339.084
337.144
341.73
341.866
341.644
341.838
339.887
340.676
341.203
341.508
335.995
337.051
337.905
338.713
326.195
327.245
327.664
328.302
323.193
324.632
319.412
321.759
316.469
317.668
317.291
316.713
321.685
330.088
322.193
316.123
323.539
332.649
331.507
333.436
323.949
324.639
332.744
325.526
330.131
328.5
326.779
300.792
323.613
311.888
325.181
324.992
312.176
311.513
310.655
310
309.252
308.178
306.928
305.707
304.65
303.699
302.974
302.816
303.519
305.721
309.029
312.393
314.315
314.207
312.524
308.917
303.932
301.194
300.823
300.753
300.723
300.723
300.723
300.725
300.738
300.709
300.676
300.692
300.641
300.658
300.609
300.622
300.558
300.579
300.546
300.551
300.593
300.553
304.215
302.157
301.085
300.737
300.655
310.839
309.388
305.631
316.272
316.288
311.915
312.574
317.115
316.243
313.12
312.957
334.371
330.565
319.68
324.147
341.148
340.299
338.557
336.324
341.123
341.285
341.101
341.298
339.062
339.781
340.576
340.919
328.325
328.753
328.699
328.832
319.936
320.675
320.796
320.956
318.109
318.89
311.269
316.264
309.578
310.316
310.122
309.742
316.003
323.304
316.119
309.341
316.778
332.023
331.414
331.645
324.672
317.042
317.493
331.955
325.935
330.026
328.619
327.111
384.575
323.25
314.955
325.548
325.112
311.512
310.723
310.259
309.847
309.294
308.573
307.674
306.634
305.678
305.068
305.123
306.109
308.063
310.595
312.962
314.263
314
312.294
308.834
304.032
301.254
300.845
300.785
300.729
300.725
300.707
300.707
300.708
300.71
300.691
300.66
300.674
300.628
300.643
300.578
300.606
300.545
300.558
300.527
300.534
300.543
300.529
303.048
301.534
300.886
300.661
300.596
308.008
306.943
303.959
312.896
312.863
308.77
309.228
314.643
313.545
310.503
310.106
333.293
328.992
317.233
322.206
340.652
339.745
338.069
335.811
339.653
339.929
340.477
340.561
328.918
337.318
339.322
339.204
320.866