/*--------------------------------*- C++ -*----------------------------------*\
  =========                 |
  \\      /  F ield         | OpenFOAM: The Open Source CFD Toolbox
   \\    /   O peration     | Website:  https://openfoam.org
    \\  /    A nd           | Version:  dev
     \\/     M anipulation  |
\*---------------------------------------------------------------------------*/
FoamFile
{
    version     2.0;
    format      ascii;
    class       volVectorField;
    location    "2500";
    object      U;
}
// * * * * * * * * * * * * * * * * * * * * * * * * * * * * * * * * * * * * * //

dimensions      [0 1 -1 0 0 0 0];

internalField   nonuniform List<vector> 
9842
(
(0.0050689 0.00747365 0)
(0.0123428 0.00669133 8.98524e-28)
(0.00509101 0.0199719 6.99529e-29)
(0.0175879 0.0055023 -1.79187e-34)
(0.0136668 0.0201788 -5.65886e-29)
(0.00449084 0.0293294 -1.91192e-37)
(0.0220931 0.00458251 -1.06565e-27)
(0.0196254 0.0194296 0)
(0.0133349 0.0302902 0)
(0.0038628 0.0374209 -1.08005e-28)
(0.0258435 0.00382976 0)
(0.0239254 0.0173498 0)
(0.0205584 0.0309772 1.18418e-27)
(0.0120322 0.0383603 -5.35656e-28)
(0.0034802 0.0447746 0)
(0.0291809 0.00321803 0)
(0.0273393 0.0147705 1.5643e-27)
(0.0261363 0.0304164 3.10343e-27)
(0.0198304 0.0398554 -2.26033e-27)
(0.0107101 0.045485 -1.14917e-28)
(0.00319917 0.051509 4.36936e-28)
(0.032338 0.00276138 0)
(0.0303892 0.012343 1.6092e-27)
(0.0302279 0.0286344 1.74489e-27)
(0.0265624 0.0409117 -1.58641e-27)
(0.0181425 0.0469083 7.0823e-28)
(0.00978155 0.0520684 -1.24455e-28)
(0.00297388 0.0578059 -5.6246e-28)
(0.0353456 0.00244002 0)
(0.0332451 0.0104072 0)
(0.0332452 0.0260577 0)
(0.0319471 0.0408525 -1.80422e-27)
(0.025378 0.0487038 1.19586e-27)
(0.0164853 0.0532482 4.401e-28)
(0.00905794 0.0582542 -1.42739e-28)
(0.00278102 0.0637495 6.80127e-28)
(0.0382205 0.00221823 0)
(0.0360045 0.00906407 3.29411e-29)
(0.0356228 0.0230795 -9.87129e-28)
(0.0359725 0.0394668 -2.00204e-27)
(0.0318343 0.0501353 -1.6829e-27)
(0.023376 0.054985 9.26264e-28)
(0.0152147 0.0592011 3.03135e-28)
(0.00843876 0.0641454 3.01145e-28)
(0.00261283 0.069323 8.05111e-28)
(0.0409914 0.00205272 0)
(0.0387135 0.00821535 0)
(0.037817 0.0201288 -1.00367e-27)
(0.0388855 0.0370418 -4.89244e-29)
(0.03715 0.0505418 -1.98431e-27)
(0.0302398 0.057036 2.83184e-27)
(0.0215076 0.0606243 6.38671e-28)
(0.0141784 0.0649552 -2.70228e-29)
(0.00791609 0.0696595 1.95486e-28)
(0.00246566 0.074613 5.44808e-28)
(0.0437158 0.00191349 0)
(0.0414159 0.00758831 0)
(0.0400567 0.0175655 0)
(0.0410222 0.0339515 1.38276e-28)
(0.0412477 0.0496792 0)
(0.0365507 0.0587853 1.83976e-27)
(0.028005 0.0626008 -1.31125e-27)
(0.0199958 0.0661333 5.17784e-28)
(0.0132978 0.0703496 -2.35352e-28)
(0.00746025 0.0749177 -2.78788e-28)
(0.00232768 0.0796305 1.09098e-27)
(0.0464133 0.00180331 0)
(0.0441038 0.00701553 0)
(0.0423936 0.0156772 0)
(0.0427812 0.0305718 -9.91078e-28)
(0.0442313 0.0476369 3.8885e-28)
(0.0418553 0.0596657 -1.23993e-27)
(0.0345903 0.0648929 -1.63168e-27)
(0.0259471 0.0677663 0)
(0.0187417 0.0713528 7.70374e-28)
(0.0125222 0.0755515 2.74909e-28)
(0.00702973 0.079921 7.72396e-28)
(0.0021987 0.0843916 3.99114e-35)
(0.0489964 0.00171558 5.85349e-28)
(0.0467267 0.00651108 0)
(0.0448876 0.014457 0)
(0.0445089 0.0273269 -2.31499e-27)
(0.0463522 0.0447688 1.58198e-28)
(0.0460651 0.0593457 -9.16046e-28)
(0.040773 0.066989 -5.426e-28)
(0.0321432 0.0699211 1.04921e-28)
(0.0242483 0.0727417 1.3154e-27)
(0.0176349 0.0764402 1.10181e-28)
(0.0118072 0.0805331 1.05026e-32)
(0.00662599 0.0846516 0)
(0.00207602 0.0889121 8.1782e-28)
(0.0514418 0.00165389 1.18515e-27)
(0.0492453 0.00613269 2.9348e-29)
(0.0473805 0.0135503 0)
(0.0464182 0.0245984 -1.19014e-27)
(0.0479367 0.0413638 0)
(0.0492114 0.0578104 1.32069e-27)
(0.0461349 0.0683377 -3.30572e-28)
(0.0384474 0.0724331 2.23195e-32)
(0.0299234 0.0745779 1.16913e-27)
(0.022801 0.0776435 -4.32883e-28)
(0.0166298 0.081349 -2.34557e-28)
(0.0111362 0.085241 -8.90745e-29)
(0.00624447 0.0891634 1.63978e-27)
(0.00195625 0.0932033 0)
(0.0537994 0.00159239 1.19256e-27)
(0.0516568 0.0058557 0)
(0.0497908 0.0127605 1.06193e-27)
(0.0485122 0.0225871 0)
(0.0493116 0.0377726 0)
(0.0514685 0.0552746 1.41805e-27)
(0.0504902 0.0685902 0)
(0.044529 0.0748711 -9.3418e-28)
(0.0358287 0.0768734 -3.37444e-28)
(0.0280601 0.0792205 -2.16869e-28)
(0.0214993 0.0824572 2.34793e-28)
(0.015692 0.0860207 -6.12431e-28)
(0.0104928 0.0897464 -2.62328e-28)
(0.00587795 0.0934316 3.15941e-37)
(0.00184049 0.0972705 1.67798e-27)
(0.0560701 0.00152544 6.24184e-28)
(0.0540201 0.00563082 0)
(0.0521292 0.0120573 2.10385e-27)
(0.0506925 0.0211844 3.43441e-30)
(0.0507472 0.0344365 0)
(0.05306 0.0520876 1.48442e-27)
(0.0538347 0.0676339 -1.30452e-27)
(0.049964 0.0766978 4.86935e-28)
(0.0418865 0.0795597 -2.32673e-27)
(0.0334897 0.0812124 -4.0682e-28)
(0.0264213 0.0839043 -2.14835e-28)
(0.0202824 0.0870547 5.39369e-29)
(0.0147946 0.0904868 -9.86198e-28)
(0.00987779 0.0940034 0)
(0.00552431 0.0974866 1.43974e-27)
(0.00172532 0.101114 -1.85202e-27)
(0.0582522 0.00147268 0)
(0.0562945 0.00541244 1.82635e-29)
(0.0543937 0.0114395 1.09087e-27)
(0.0529552 0.0201075 4.84538e-30)
(0.0523685 0.0316894 0)
(0.0542159 0.0485448 9.95321e-36)
(0.0562513 0.0655823 -1.54478e-27)
(0.0544827 0.0775382 1.57704e-27)
(0.0478493 0.082314 1.46633e-28)
(0.0391257 0.0836554 -7.55879e-28)
(0.0314501 0.0856768 -8.05728e-28)
(0.0249164 0.0883985 3.86188e-28)
(0.0191281 0.0914622 -1.67195e-28)
(0.013935 0.0947282 6.78362e-28)
(0.00927372 0.0980643 -1.13418e-27)
(0.00516974 0.101322 -2.74353e-27)
(0.00160983 0.104739 2.04182e-27)
(0.0603521 0.00142182 6.11569e-28)
(0.0584733 0.00518312 -1.73471e-27)
(0.0566238 0.0109222 0)
(0.0551507 0.0191396 8.36355e-30)
(0.0542298 0.0296057 -2.16638e-29)
(0.0553268 0.0449064 -1.5888e-27)
(0.0579264 0.0627036 0)
(0.0580406 0.0772087 1.56109e-27)
(0.0533363 0.0846472 -3.16584e-28)
(0.0449434 0.0864937 6.88472e-28)
(0.0366564 0.0878042 -6.62999e-28)
(0.0296342 0.0900366 8.16778e-30)
(0.0235051 0.0927368 -2.01806e-28)
(0.0180243 0.0956726 -8.46714e-33)
(0.0130902 0.0987837 -1.72829e-27)
(0.00867622 0.101909 -1.7769e-27)
(0.00481761 0.104933 1.81538e-27)
(0.00149401 0.108143 0)
(0.0623654 0.00136063 6.04109e-28)
(0.0605854 0.00494646 -1.75487e-27)
(0.058808 0.0104614 8.14511e-30)
(0.0572835 0.0182021 1.47999e-30)
(0.0562839 0.0280276 1.50386e-27)
(0.0565991 0.0414775 -3.13654e-29)
(0.0591478 0.0592972 1.71525e-27)
(0.0606933 0.0757311 0)
(0.0580534 0.0861168 7.32206e-29)
(0.0507564 0.0894876 1.25666e-27)
(0.042061 0.0903505 -7.87674e-28)
(0.0344818 0.0919796 -2.0226e-27)
(0.0279509 0.0942922 1.47864e-27)
(0.0221514 0.0969126 -1.95977e-28)
(0.0169397 0.0997012 -5.56408e-28)
(0.0122494 0.102634 -1.05509e-27)
(0.00808413 0.105525 -1.50897e-27)
(0.00446474 0.108328 0)
(0.00137791 0.111331 2.44728e-27)
(0.0642628 0.00130475 0)
(0.0626005 0.00473085 8.73684e-28)
(0.0609245 0.00999073 1.122e-27)
(0.0593973 0.0173285 1.33953e-27)
(0.0583307 0.0267617 1.49623e-27)
(0.0580989 0.0386298 5.13037e-29)
(0.060128 0.0556429 3.49154e-27)
(0.0625844 0.073268 0)
(0.0618675 0.0864776 1.36124e-28)
(0.0562688 0.0922385 1.48696e-28)
(0.0476436 0.0932947 -8.06484e-28)
(0.039479 0.0942875 6.62472e-28)
(0.0324887 0.0961146 -6.18027e-28)
(0.0263346 0.0984263 6.92775e-28)
(0.0208288 0.100902 -3.56431e-28)
(0.015866 0.10354 -1.70727e-27)
(0.0114133 0.106259 -2.13024e-27)
(0.00748875 0.108937 -1.2987e-27)
(0.00410993 0.111501 2.22865e-27)
(0.0012594 0.114295 3.45323e-27)
(0.0660411 0.00124321 6.00674e-28)
(0.0645089 0.00453886 8.74888e-28)
(0.0629175 0.00949839 -1.18881e-27)
(0.0614557 0.0165765 1.35161e-27)
(0.060382 0.0256548 2.5671e-29)
(0.0597921 0.0364257 1.66801e-27)
(0.0610951 0.0519949 3.83949e-27)
(0.0639294 0.0701337 2.6498e-42)
(0.0648079 0.0856419 1.78148e-27)
(0.0611801 0.0943098 1.37981e-28)
(0.0532943 0.0964719 2.78771e-27)
(0.044655 0.0969932 -3.09002e-28)
(0.03714 0.0982387 7.08956e-28)
(0.0306123 0.100163 -6.27023e-28)
(0.0247764 0.102369 -7.03989e-28)
(0.0195287 0.104722 -7.47664e-28)
(0.0147958 0.107167 -1.47642e-27)
(0.0105769 0.109685 -2.24695e-27)
(0.00688541 0.112123 0)
(0.00375389 0.114455 7.75827e-33)
(0.00113829 0.117031 7.39015e-32)
(0.0676872 0.00116883 5.39865e-28)
(0.0663136 0.0043521 0)
(0.0647945 0.00903232 -2.64135e-29)
(0.0634529 0.0159059 1.43775e-27)
(0.0623926 0.0245368 -2.00487e-29)
(0.0616353 0.0347005 3.61569e-27)
(0.0622648 0.0485836 1.8772e-27)
(0.0649261 0.0666094 1.13781e-28)
(0.0669737 0.0837374 4.21981e-27)
(0.0653 0.0953786 6.48991e-29)
(0.0588032 0.0995657 3.0971e-27)
(0.0500084 0.100069 0)
(0.0419394 0.100701 -2.84722e-28)
(0.0349779 0.102145 -5.65874e-28)
(0.0288123 0.104065 -2.20501e-28)
(0.0232536 0.106183 -5.74362e-28)
(0.0182272 0.108355 0)
(0.013723 0.110583 -2.70269e-27)
(0.00973177 0.112896 -1.68409e-27)
(0.00627949 0.115088 -2.13093e-27)
(0.00338714 0.11718 0)
(0.0010152 0.119537 2.4976e-27)
(0.0691834 0.00109488 0)
(0.0679895 0.00413809 -1.03125e-28)
(0.0665763 0.00860881 2.44137e-27)
(0.0653343 0.0152121 1.36419e-27)
(0.0642985 0.0234393 1.08553e-28)
(0.0635825 0.0333311 1.78913e-27)
(0.0636324 0.0456377 1.94629e-27)
(0.0657905 0.0629137 2.11389e-27)
(0.0685104 0.0809805 2.35951e-27)
(0.0685643 0.0952949 1.23913e-28)
(0.0638882 0.102189 1.26073e-28)
(0.0554991 0.10342 1.55412e-27)
(0.0469069 0.103514 0)
(0.0394503 0.104429 0)
(0.0329276 0.106004 -4.37944e-28)
(0.0270511 0.107861 4.96799e-28)
(0.0217224 0.109832 -6.33765e-28)
(0.0169226 0.111756 -1.1008e-27)
(0.0126432 0.113808 -2.68335e-28)
(0.00887411 0.115886 -2.17865e-27)
(0.00566179 0.117835 0)
(0.00301217 0.119674 -5.98742e-28)
(0.000887417 0.121812 3.38473e-27)
(0.0705285 0.00101945 -5.46476e-28)
(0.069504 0.00387345 -7.00529e-29)
(0.0682699 0.0082079 -1.09779e-28)
(0.0670886 0.0144715 9.05566e-29)
(0.0661454 0.0224876 1.60662e-27)
(0.0654816 0.032084 7.3982e-29)
(0.065159 0.0432372 2.16539e-27)
(0.0667337 0.0592495 -2.11665e-27)
(0.0696435 0.0776827 0)
(0.0710461 0.0940594 4.84193e-28)
(0.0682977 0.103962 2.39676e-28)
(0.0609655 0.106818 1.61297e-27)
(0.0520649 0.106708 1.89541e-42)
(0.0440584 0.107045 -1.12832e-28)
(0.0371089 0.1082 0)
(0.0309231 0.109763 4.19535e-28)
(0.0252979 0.111521 4.4279e-29)
(0.0201828 0.11324 -1.75028e-28)
(0.0156052 0.114994 1.06787e-27)
(0.0115379 0.116818 -3.50224e-27)
(0.00800024 0.118666 -2.59263e-27)
(0.00502834 0.120342 -2.58272e-27)
(0.00262921 0.121938 2.67074e-27)
(0.00075626 0.123841 -9.44344e-28)
(0.0717122 0.000931932 -5.17006e-28)
(0.0708661 0.00359938 -9.0131e-29)
(0.0698281 0.00779685 7.30753e-29)
(0.0687321 0.0137338 6.0385e-29)
(0.0679128 0.0216163 1.74981e-27)
(0.067268 0.0307923 0)
(0.066882 0.0413495 1.97356e-27)
(0.0678017 0.0558055 -2.33093e-27)
(0.0705487 0.0740907 2.60613e-27)
(0.0728781 0.0918383 0)
(0.0719292 0.104663 2.44363e-27)
(0.0661724 0.109896 2.19258e-27)
(0.0573982 0.110227 1.52241e-27)
(0.0488327 0.110024 1.7532e-42)
(0.0413991 0.110668 -9.41016e-29)
(0.0348555 0.111906 5.56723e-28)
(0.02894 0.113414 5.69236e-28)
(0.0235322 0.114961 -5.97256e-28)
(0.0186271 0.116501 0)
(0.0142602 0.118013 -1.13549e-27)
(0.0104149 0.119612 -1.87615e-27)
(0.00710818 0.121206 -2.35874e-27)
(0.00438385 0.122621 0)
(0.00223722 0.123955 -3.02698e-27)
(0.000620971 0.125627 -7.58538e-28)
(0.0727069 0.000845161 -6.09571e-28)
(0.0720696 0.00334464 -8.67497e-28)
(0.0711983 0.00734373 -1.86056e-28)
(0.0702797 0.0130661 1.56178e-28)
(0.0695623 0.0207224 -1.38756e-27)
(0.0689534 0.029572 0)
(0.0686521 0.039759 2.42858e-27)
(0.0690401 0.0527508 -2.44017e-27)
(0.0713769 0.0703935 2.22458e-27)
(0.0742008 0.0888724 0)
(0.0747775 0.104225 2.64307e-27)
(0.0708669 0.112322 -1.99236e-27)
(0.0628057 0.113891 2.08581e-27)
(0.0538141 0.113358 1.83754e-28)
(0.0458402 0.11344 2.35539e-27)
(0.0388734 0.114294 1.57522e-27)
(0.0326495 0.115531 3.82588e-32)
(0.0269529 0.116889 -1.12843e-28)
(0.0217428 0.118243 -4.71672e-28)
(0.0170479 0.119541 0)
(0.0128926 0.120814 -1.20332e-28)
(0.00927071 0.122183 -4.10676e-27)
(0.00619338 0.123523 -2.31926e-27)
(0.00372215 0.124655 -3.05224e-27)
(0.00183233 0.12573 2.94604e-28)
(0.000480967 0.12716 8.33891e-27)
(0.0734846 0.000762262 -5.93123e-28)
(0.0730735 0.00308273 -1.95424e-27)
(0.0723894 0.00684306 -2.30241e-28)
(0.0716897 0.0124456 -9.82535e-29)
(0.071072 0.0197868 -1.48432e-27)
(0.0705743 0.0284915 5.80607e-28)
(0.0703119 0.0382146 0)
(0.0704704 0.0501844 -4.82139e-27)
(0.0722587 0.0667045 5.45042e-28)
(0.0752282 0.0854737 0)
(0.0769394 0.102712 2.5989e-27)
(0.0748541 0.113788 -4.66197e-27)
(0.0680754 0.117425 2.34236e-27)
(0.0589964 0.117035 1.95922e-27)
(0.0504541 0.116543 2.96164e-27)
(0.0430175 0.116959 1.16725e-28)
(0.0364226 0.117876 -7.73717e-28)
(0.0304383 0.119029 -3.44011e-28)
(0.0249432 0.120189 1.41418e-30)
(0.0199276 0.121324 0)
(0.0154332 0.122376 1.2439e-28)
(0.0114956 0.123409 -1.93673e-27)
(0.00809133 0.124536 -4.64838e-27)
(0.00525388 0.1256 2.82798e-27)
(0.00303982 0.126446 0)
(0.00141138 0.12725 6.92364e-27)
(0.000338656 0.128428 1.77631e-26)
(0.0740356 0.00067556 0)
(0.0738635 0.00279418 -6.4552e-28)
(0.0733921 0.00630975 -1.37501e-28)
(0.0729053 0.0118132 -2.4113e-28)
(0.0724507 0.0188572 0)
(0.0721242 0.0274331 7.17937e-28)
(0.0718182 0.0367154 6.0811e-28)
(0.0719952 0.0480407 0)
(0.0732641 0.0632103 3.04738e-27)
(0.0760923 0.0818512 2.89407e-28)
(0.0785487 0.100311 2.52192e-27)
(0.0780928 0.114188 2.65669e-27)
(0.0729726 0.120451 4.86873e-27)
(0.0643065 0.120936 4.16511e-27)
(0.0552681 0.120013 1.69504e-27)
(0.0473086 0.119907 -1.30458e-27)
(0.0402972 0.120477 1.92856e-27)
(0.0339887 0.121393 -6.11709e-28)
(0.0282033 0.122352 0)
(0.0228946 0.123325 -1.64651e-29)
(0.0180685 0.124216 -3.41548e-29)
(0.0137761 0.125005 1.81991e-29)
(0.0100557 0.125789 -2.05127e-27)
(0.00687379 0.126653 2.61582e-27)
(0.00428904 0.127426 0)
(0.00233438 0.127986 -1.10296e-27)
(0.000969276 0.128505 1.47828e-26)
(0.000187047 0.129415 -4.15824e-28)
(0.0743622 0.0005859 4.00038e-28)
(0.0744286 0.00248563 1.5257e-27)
(0.0741952 0.00579122 3.24369e-28)
(0.0739334 0.011142 0)
(0.0736954 0.0179427 -4.99854e-28)
(0.0735339 0.0262737 4.3264e-28)
(0.0733198 0.0353559 7.42947e-28)
(0.0734661 0.046076 3.38227e-28)
(0.0744137 0.0600656 2.90403e-27)
(0.0768929 0.0781437 -2.61266e-27)
(0.0797625 0.0972579 0)
(0.0806444 0.11349 3.10903e-27)
(0.0773154 0.122693 -2.87779e-27)
(0.0695969 0.124837 2.24552e-27)
(0.0603127 0.123818 1.88425e-27)
(0.0517861 0.123155 0)
(0.044315 0.123324 2.36582e-27)
(0.0376332 0.123976 -8.28959e-28)
(0.0315366 0.124747 0)
(0.0259307 0.125538 0)
(0.0207964 0.126276 -3.27756e-28)
(0.0161586 0.1269 1.92759e-28)
(0.0120764 0.12742 0)
(0.00857104 0.127934 -3.70154e-29)
(0.00562462 0.128517 -7.15293e-28)
(0.00329549 0.129013 7.47061e-35)
(0.00160062 0.12926 -1.55447e-27)
(0.000545159 0.129546 0)
(1.87624e-05 0.130102 5.75508e-28)
(0.0744462 0.000492102 -2.24528e-28)
(0.0747693 0.00216643 1.84835e-27)
(0.0747834 0.00527935 2.25279e-27)
(0.0747576 0.0104076 -6.72599e-28)
(0.0747683 0.0170178 -5.96275e-28)
(0.0747853 0.0250395 -4.94317e-27)
(0.0748138 0.0340541 4.52484e-28)
(0.0748791 0.044149 -5.09782e-27)
(0.0756942 0.0572627 -3.59113e-28)
(0.077749 0.0744318 -3.42527e-27)
(0.0807497 0.0938179 0)
(0.0826028 0.111786 3.08768e-27)
(0.0809746 0.123918 -2.94529e-27)
(0.0746688 0.128406 2.54795e-27)
(0.0655305 0.127897 -1.00664e-28)
(0.0564817 0.126728 1.8531e-27)
(0.0484991 0.126445 0)
(0.0414067 0.126784 1.13738e-27)
(0.034959 0.127374 0)
(0.0290379 0.127982 9.45358e-29)
(0.0235982 0.128542 1.72637e-28)
(0.0186414 0.129025 -4.40771e-28)
(0.0141965 0.129369 -8.53506e-29)
(0.0103315 0.129603 -9.77635e-28)
(0.00704622 0.129827 6.41765e-28)
(0.0043417 0.130144 1.94132e-28)
(0.00227026 0.130342 8.01084e-28)
(0.000822297 0.130234 -3.95281e-28)
(6.60725e-05 0.130305 0)
(-0.000173142 0.130538 0)
(0.0742677 0.000395355 -4.5573e-28)
(0.0748559 0.00183947 -2.36958e-28)
(0.075122 0.00475231 2.16021e-27)
(0.0753637 0.00963825 5.95206e-27)
(0.0756399 0.0160774 -2.0962e-27)
(0.0758427 0.0238371 -5.07213e-27)
(0.0761048 0.032694 0)
(0.0762947 0.0423448 -4.68373e-27)
(0.0769827 0.0547292 -8.28088e-28)
(0.0787305 0.0708683 -3.78897e-28)
(0.0815991 0.0901793 -6.89097e-27)
(0.0840941 0.109293 3.88347e-27)
(0.0839524 0.124076 3.19768e-27)
(0.0793207 0.131334 2.67e-27)
(0.0708197 0.132064 0)
(0.0614058 0.130657 2.2349e-27)
(0.0528686 0.129862 0)
(0.0453245 0.129832 1.39189e-27)
(0.0385044 0.130212 -1.11728e-28)
(0.0322397 0.130664 0)
(0.0264735 0.131054 8.19576e-28)
(0.0211989 0.13136 3.42624e-28)
(0.0164191 0.131561 6.17788e-28)
(0.0121833 0.131611 -1.51721e-28)
(0.00853573 0.131537 4.96326e-28)
(0.00548165 0.131483 -5.78209e-28)
(0.00302222 0.131523 0)
(0.00119761 0.131391 1.2251e-27)
(5.00501e-05 0.130974 0)
(-0.000477466 0.130773 -2.00899e-26)
(-0.000392292 0.130572 0)
(0.073826 0.000296395 -2.25181e-31)
(0.0746598 0.00151939 0)
(0.0752005 0.0042288 -4.06182e-27)
(0.0757138 0.00886677 4.01505e-27)
(0.0762562 0.0150969 -7.46605e-27)
(0.0767193 0.0226805 -4.30334e-27)
(0.0771765 0.0312229 0)
(0.0776306 0.0406765 2.09617e-26)
(0.0782319 0.0523959 2.89068e-27)
(0.0797785 0.0675484 -8.67933e-28)
(0.0824034 0.0864756 -6.892e-27)
(0.085245 0.106234 0)
(0.0862883 0.123192 5.14635e-28)
(0.0833907 0.133384 0)
(0.0760161 0.136071 0)
(0.0665277 0.134858 0)
(0.0574672 0.13358 0)
(0.049415 0.133141 0)
(0.0421937 0.133266 0)
(0.0355676 0.133552 -1.90164e-28)
(0.02946 0.1338 1.16701e-27)
(0.0238413 0.133943 -2.36307e-28)
(0.0187252 0.133977 0)
(0.0141294 0.133876 9.18079e-28)
(0.0101139 0.133608 8.74792e-28)
(0.00668682 0.133229 -9.87658e-28)
(0.00387536 0.132887 -7.98262e-28)
(0.00167097 0.132636 0)
(7.51025e-05 0.132184 8.9978e-28)
(-0.00075874 0.13146 -1.97515e-26)
(-0.00109242 0.130804 0)
(-0.000639757 0.130268 2.37693e-26)
(0.0731227 0.000176275 -9.12028e-27)
(0.0742124 0.00121115 2.07488e-27)
(0.0750255 0.00368966 -4.84773e-27)
(0.0757885 0.00809575 -5.54759e-27)
(0.0765955 0.0140982 1.79596e-27)
(0.0773833 0.0215188 0)
(0.0780333 0.0296864 -1.04869e-30)
(0.0787943 0.0390173 2.37201e-26)
(0.0794894 0.0502093 8.48178e-27)
(0.0808191 0.064477 1.97729e-27)
(0.0832324 0.0827845 -1.44902e-26)
(0.086192 0.102827 0)
(0.0880851 0.121394 0)
(0.0867994 0.134403 -4.04409e-28)
(0.0809088 0.139616 2.29805e-28)
(0.0718039 0.139238 -7.47416e-29)
(0.0622945 0.137606 5.03242e-27)
(0.0537235 0.13671 2.06735e-27)
(0.0460496 0.13654 0)
(0.0390455 0.136653 0)
(0.0325729 0.13677 0)
(0.0265932 0.136776 9.66483e-28)
(0.0211216 0.136646 -6.15965e-28)
(0.0161695 0.136371 -6.05332e-28)
(0.0117704 0.135948 -7.9814e-28)
(0.00798123 0.135356 -1.36631e-28)
(0.00480438 0.134651 2.08712e-27)
(0.00224102 0.13405 -1.01889e-27)
(0.000257962 0.133501 -1.52389e-27)
(-0.00107094 0.13269 2.41481e-27)
(-0.00169959 0.13166 -2.13429e-26)
(-0.00174444 0.130481 -2.22895e-26)
(-0.000916475 0.129534 0)
(0.0721316 2.32132e-05 -9.97481e-27)
(0.0735075 0.000899826 -9.01462e-27)
(0.0745864 0.00312111 0)
(0.075618 0.0073462 -6.3711e-27)
(0.0766601 0.0131278 1.41743e-26)
(0.0777485 0.0202983 3.7952e-27)
(0.0786822 0.0281992 0)
(0.0796978 0.0372862 3.06746e-27)
(0.0806555 0.0481424 -2.63564e-27)
(0.0818506 0.0616611 -2.30919e-27)
(0.0840715 0.0791691 -1.72524e-26)
(0.0870257 0.0992334 3.10358e-26)
(0.0895054 0.118872 1.40146e-27)
(0.0895604 0.134377 -3.05848e-26)
(0.0853391 0.142414 -2.83394e-28)
(0.0770616 0.143571 1.01487e-28)
(0.0673479 0.141913 5.86427e-27)
(0.0582574 0.140568 2.43888e-27)
(0.0501014 0.140044 0)
(0.0426878 0.139962 9.73226e-28)
(0.0358328 0.139953 1.06563e-27)
(0.0294769 0.139865 1.23825e-27)
(0.0236193 0.139589 0)
(0.0182965 0.139133 -7.59032e-28)
(0.0135188 0.13853 -1.35255e-27)
(0.00934125 0.137768 0)
(0.00580017 0.136826 0)
(0.00288295 0.135851 2.45988e-27)
(0.00056401 0.134982 -1.65343e-27)
(-0.00120842 0.134131 -1.32016e-27)
(-0.00230692 0.13302 -1.68245e-26)
(-0.00281665 0.131491 -3.8431e-26)
(-0.00260814 0.129786 -1.07764e-27)
(-0.000642218 0.128702 6.77601e-27)
(-0.0016434 0.128324 1.0414e-26)
(0.0708641 -0.000114185 1.43042e-29)
(0.0725223 0.000626275 -1.13049e-26)
(0.0738586 0.00260145 7.05758e-27)
(0.07517 0.00661477 2.43115e-27)
(0.076477 0.0121717 -2.29277e-27)
(0.0778228 0.0189815 4.2833e-27)
(0.0791302 0.0267435 1.55309e-26)
(0.0803353 0.0354541 0)
(0.081613 0.0461316 1.35051e-26)
(0.082854 0.0590915 -3.23358e-26)
(0.0848799 0.0757025 0)
(0.0877889 0.0955633 3.04258e-26)
(0.0906275 0.115814 3.30548e-26)
(0.0917501 0.133354 1.21593e-27)
(0.0892114 0.144297 0)
(0.0821507 0.147598 0)
(0.0726045 0.146433 1.00403e-28)
(0.0630288 0.144695 0)
(0.0543772 0.143794 -4.29135e-28)
(0.0465249 0.143477 1.89556e-27)
(0.0392718 0.143351 -8.12607e-29)
(0.032512 0.143166 -1.8709e-27)
(0.026259 0.142802 4.66026e-28)
(0.0205189 0.142205 0)
(0.0153479 0.141408 -3.42662e-29)
(0.0107736 0.14042 4.23026e-28)
(0.0068544 0.139306 0)
(0.00360106 0.138058 2.90512e-27)
(0.000931506 0.13682 3.99166e-28)
(-0.0011947 0.135683 -9.03667e-28)
(-0.00276422 0.134612 3.20548e-27)
(-0.00368037 0.133092 -3.8289e-27)
(-0.00400397 0.131008 -2.39346e-27)
(-0.00277571 0.128748 3.87173e-28)
(-0.00358015 0.129312 -1.25114e-27)
(-0.000636466 0.127861 -7.05412e-27)
(-0.00187316 0.127561 -7.06737e-27)
(0.0693672 -0.00024498 6.93749e-29)
(0.0712475 0.000368177 0)
(0.0728297 0.00214547 -2.71222e-27)
(0.0743907 0.00589027 1.50479e-26)
(0.0760295 0.0111993 2.52393e-27)
(0.0776232 0.0176058 -2.38876e-27)
(0.0792897 0.0252581 4.42551e-27)
(0.0807461 0.03361 -1.7872e-30)
(0.0823124 0.0441485 2.72795e-26)
(0.0837602 0.0567068 -1.19209e-29)
(0.0856463 0.0724242 3.26643e-26)
(0.0884903 0.0918675 -4.86346e-27)
(0.0915348 0.112432 3.08421e-26)
(0.0934848 0.131488 -6.16284e-31)
(0.0924424 0.145119 0)
(0.0869286 0.151054 0)
(0.077919 0.150984 0)
(0.0680654 0.149093 4.59045e-28)
(0.058909 0.147782 -8.89709e-28)
(0.0505832 0.14721 -6.51843e-28)
(0.0429083 0.146949 -1.6407e-27)
(0.0357474 0.146684 -3.53072e-27)
(0.0290614 0.146241 -2.55643e-28)
(0.0228962 0.145565 0)
(0.0172826 0.144609 1.79289e-28)
(0.0122929 0.143379 1.02335e-27)
(0.00795268 0.142042 -4.89084e-32)
(0.00432926 0.14057 9.95949e-29)
(0.00136809 0.139071 3.5168e-27)
(-0.00104729 0.137592 -3.03214e-27)
(-0.00302932 0.13629 0)
(-0.00451394 0.134823 3.87561e-27)
(-0.00483037 0.132356 2.29296e-27)
(-0.00518883 0.133362 -7.87758e-31)
(-0.00464464 0.129936 5.11959e-31)
(-0.00527107 0.132182 0)
(-0.00538625 0.130699 0)
(-0.00310405 0.128056 -2.85771e-27)
(-0.00415437 0.128672 -7.02313e-28)
(-0.000664733 0.126924 -2.03672e-27)
(-0.00211786 0.126657 -5.99227e-27)
(0.0676278 -0.000375692 0)
(0.0697409 0.000137185 -3.40643e-28)
(0.0715303 0.00170808 0)
(0.073314 0.00520081 8.05825e-27)
(0.0752521 0.0102226 0)
(0.0771226 0.0162796 -2.62235e-27)
(0.0790984 0.0237676 0)
(0.0808992 0.0318184 0)
(0.0827067 0.0421538 -8.2205e-27)
(0.0844567 0.0543788 3.07237e-26)
(0.0863638 0.0693784 1.93743e-30)
(0.0891043 0.0881776 0)
(0.0922977 0.108874 3.17337e-26)
(0.0948425 0.128934 -4.05759e-26)
(0.0950546 0.144906 -3.65033e-26)
(0.0912356 0.15368 -1.30936e-27)
(0.0831883 0.155354 -2.39409e-28)
(0.0733204 0.153706 0)
(0.0636932 0.152016 0)
(0.0549008 0.151143 1.35127e-27)
(0.0467815 0.150751 0)
(0.0391914 0.150401 4.61834e-27)
(0.0320788 0.149913 4.65916e-27)
(0.0254523 0.149184 -1.25657e-27)
(0.0193646 0.148125 0)
(0.0138956 0.146713 0)
(0.00910777 0.145102 2.2615e-27)
(0.00508343 0.143339 -2.13013e-28)
(0.00182341 0.141589 -2.25326e-28)
(-0.000847113 0.139821 4.06591e-27)
(-0.003081 0.138228 -4.94652e-27)
(-0.00494933 0.13668 0)
(-0.0058324 0.134309 6.15989e-27)
(-0.00610325 0.135283 3.69047e-27)
(-0.00593443 0.133111 4.05667e-27)
(-0.00525068 0.129362 6.55548e-28)
(-0.00629445 0.131648 1.07985e-27)
(-0.00623225 0.130195 1.20471e-27)
(-0.00349625 0.127216 -6.54588e-27)
(-0.00474571 0.127884 0)
(-0.000734736 0.125842 5.53521e-27)
(-0.00238848 0.12559 8.96087e-28)
(0.0656288 -0.000490325 0)
(0.0679816 -6.42048e-05 -8.34412e-29)
(0.0699722 0.00129853 1.19445e-26)
(0.0720062 0.00454776 3.4985e-27)
(0.0741537 0.00925403 -1.17448e-26)
(0.0763182 0.0150425 0)
(0.0785679 0.0222491 -5.44782e-27)
(0.0807129 0.0300542 -3.16989e-28)
(0.0828009 0.0401196 1.36966e-26)
(0.0848663 0.0520714 0)
(0.0869536 0.0665518 -6.85022e-26)
(0.0896177 0.0845612 0)
(0.0929371 0.105206 3.80745e-26)
(0.0958905 0.125886 3.02045e-26)
(0.0971535 0.143768 -3.88421e-26)
(0.0949237 0.155288 3.66317e-27)
(0.0882698 0.159309 -3.60682e-26)
(0.0787114 0.158386 5.14758e-28)
(0.0687587 0.156465 -2.95561e-26)
(0.0594997 0.155286 2.56003e-26)
(0.0509326 0.154716 3.6749e-27)
(0.0429006 0.154324 -4.01282e-27)
(0.0353288 0.153815 1.5643e-26)
(0.0282204 0.153063 5.69904e-27)
(0.0216341 0.151954 -2.9331e-27)
(0.0156448 0.150407 0)
(0.0103713 0.148514 1.19924e-27)
(0.00587016 0.146415 2.42377e-27)
(0.00222628 0.144378 0)
(-0.000654161 0.142347 0)
(-0.00298664 0.140413 1.67555e-27)
(-0.00510344 0.138626 0)
(-0.00655692 0.136255 0)
(-0.00659332 0.137303 -9.49594e-28)
(-0.00661408 0.134138 1.2533e-27)
(-0.0070545 0.135202 0)
(-0.00710554 0.132654 3.67155e-31)
(-0.00596563 0.128635 -3.63447e-27)
(-0.00724078 0.131151 0)
(-0.00715848 0.129549 0)
(-0.00395707 0.126211 -9.16496e-28)
(-0.00539616 0.126927 1.98714e-27)
(-0.000820299 0.124599 3.33675e-27)
(-0.00268838 0.124346 2.03721e-27)
(0.0634063 -0.000569374 -1.18592e-26)
(0.0659479 -0.000244488 -1.21718e-26)
(0.0681643 0.000940559 -6.34639e-28)
(0.0704159 0.00388905 1.24566e-26)
(0.0727608 0.00836995 -1.24713e-26)
(0.0751918 0.0138697 -6.15504e-27)
(0.0777027 0.0206915 0)
(0.0801924 0.0283455 -1.41286e-27)
(0.082579 0.0380896 2.59979e-26)
(0.0849639 0.0498119 1.53953e-26)
(0.0872973 0.0638518 -3.46193e-26)
(0.0900015 0.0810832 0)
(0.0934312 0.101453 0)
(0.096694 0.12249 4.07648e-26)
(0.0988199 0.141845 -7.80629e-27)
(0.0979741 0.155848 0)
(0.092968 0.162539 4.15393e-26)
(0.0841427 0.162936 -3.69128e-26)
(0.0740777 0.161104 -3.33403e-26)
(0.0643708 0.159588 2.94094e-26)
(0.0553885 0.158858 0)
(0.0469053 0.158406 -2.0865e-26)
(0.0388755 0.157936 2.18828e-26)
(0.0312608 0.157174 0)
(0.0241515 0.156042 3.30628e-27)
(0.0175943 0.154438 -3.74762e-27)
(0.0117314 0.152378 9.56248e-29)
(0.00668044 0.149985 -4.37346e-32)
(0.0025952 0.14747 6.19869e-28)
(-0.000566897 0.14503 0)
(-0.00302362 0.142817 -4.36037e-28)
(-0.00511909 0.140872 -2.02624e-28)
(-0.00685947 0.138349 -7.83968e-28)
(-0.00671332 0.139454 -7.62258e-28)
(-0.00744977 0.136295 0)
(-0.00762983 0.137409 -1.00952e-27)
(-0.00780343 0.13378 -6.49454e-27)
(-0.00831288 0.134992 0)
(-0.00818949 0.132237 1.27153e-27)
(-0.00679331 0.127745 1.36939e-27)
(-0.00832683 0.130582 0)
(-0.00817867 0.128757 1.22481e-27)
(-0.00446785 0.12503 5.17938e-27)
(-0.00610404 0.125793 -6.99238e-27)
(-0.000916169 0.123177 1.41591e-27)
(-0.00301921 0.122916 4.35487e-27)
(0.0609887 -0.000615654 -1.31468e-28)
(0.0636813 -0.000396647 -2.41808e-26)
(0.0661196 0.000626862 -1.2857e-26)
(0.068523 0.0032757 1.12207e-27)
(0.0710858 0.00767698 -1.30786e-26)
(0.0737092 0.0127297 -2.61646e-26)
(0.0764803 0.0191637 1.28675e-26)
(0.0793319 0.0266865 3.10799e-27)
(0.081989 0.0360929 1.44843e-26)
(0.0847393 0.047557 1.44765e-26)
(0.0873555 0.0612206 0)
(0.0901981 0.0777592 0)
(0.0937241 0.0976423 2.0466e-26)
(0.0972791 0.118868 3.14373e-27)
(0.10008 0.139211 -2.41658e-27)
(0.100488 0.155451 0)
(0.097094 0.164815 8.47337e-26)
(0.0894836 0.167186 -4.03514e-26)
(0.0795899 0.16578 -7.67102e-26)
(0.0695439 0.164084 -3.34182e-26)
(0.0601073 0.163105 -2.93014e-26)
(0.0512396 0.162629 0)
(0.0427561 0.162195 1.43771e-26)
(0.034649 0.161519 1.34341e-26)
(0.0269503 0.160454 1.31275e-26)
(0.019793 0.158863 -3.57134e-27)
(0.0132771 0.156681 3.6216e-29)
(0.00760061 0.153976 0)
(0.00292853 0.151025 -2.09962e-27)
(-0.000644347 0.14809 0)
(-0.00325714 0.145397 4.33692e-27)
(-0.00526604 0.143104 -5.98622e-28)
(-0.00693394 0.140543 -1.55004e-27)
(-0.00674026 0.141661 7.02146e-28)
(-0.0078106 0.13853 0)
(-0.00781514 0.139663 -1.65573e-27)
(-0.00865935 0.136241 0)
(-0.00886726 0.1375 0)
(-0.00897687 0.133479 4.42511e-27)
(-0.00957273 0.134829 0)
(-0.00942281 0.131782 -3.64179e-27)
(-0.00770249 0.126682 7.04116e-28)
(-0.00953522 0.129904 8.60016e-27)
(-0.00929949 0.1278 4.99554e-27)
(-0.00502238 0.123665 9.93254e-27)
(-0.0068628 0.124466 0)
(-0.00101418 0.121569 0)
(-0.00337156 0.121285 4.95151e-27)
(0.0583755 -0.000649286 1.1195e-26)
(0.0612167 -0.000530368 1.49972e-31)
(0.063821 0.000330448 -1.24477e-26)
(0.0663963 0.00279246 1.53476e-27)
(0.0691625 0.00709549 0)
(0.0718894 0.0116205 -1.88421e-26)
(0.0749169 0.0177378 -1.37404e-26)
(0.0780802 0.0250392 6.75918e-27)
(0.0810533 0.0341774 3.2408e-27)
(0.0841082 0.0453017 0)
(0.0870905 0.0586794 1.72662e-26)
(0.0901488 0.0745957 -2.48463e-27)
(0.0937791 0.0938517 4.19809e-26)
(0.0976363 0.115074 -1.85194e-27)
(0.100979 0.13602 2.93266e-27)
(0.10252 0.154148 2.07371e-26)
(0.1006 0.166039 0)
(0.0945297 0.170843 -4.38459e-26)
(0.0851939 0.170428 -4.12446e-26)
(0.074985 0.168669 -8.37283e-26)
(0.0651617 0.167496 3.36017e-26)
(0.0558657 0.166948 -2.92358e-26)
(0.0469594 0.166606 3.05712e-26)
(0.0383737 0.166074 -7.11572e-27)
(0.0301297 0.165122 4.59546e-26)
(0.0223137 0.163573 -2.98132e-26)
(0.015104 0.161323 4.30328e-27)
(0.00869453 0.158522 -3.04987e-27)
(0.00327341 0.155226 -4.60671e-28)
(-0.000849095 0.151632 0)
(-0.00374396 0.14824 3.50464e-27)
(-0.00580915 0.145466 4.11671e-28)
(-0.00706071 0.142717 0)
(-0.00695341 0.143786 8.17295e-28)
(-0.00789211 0.140768 -1.67329e-27)
(-0.00784799 0.14187 -1.83124e-28)
(-0.00897361 0.138747 0)
(-0.00899275 0.13997 -3.33295e-27)
(-0.00995367 0.136228 -3.53245e-28)
(-0.0101805 0.137634 -3.25744e-28)
(-0.0103258 0.133177 3.47438e-28)
(-0.0110044 0.134692 -2.85731e-27)
(-0.0108035 0.131246 7.2016e-31)
(-0.00868724 0.125414 4.97025e-27)
(-0.0108752 0.129068 9.9795e-27)
(-0.0105308 0.126635 5.22041e-27)
(-0.00560476 0.122097 -2.74133e-26)
(-0.00764539 0.122914 5.51257e-27)
(-0.00110862 0.119775 1.76286e-27)
(-0.00374928 0.119436 0)
(0.0555926 -0.000683221 -1.61278e-28)
(0.0585814 -0.000637965 -2.64294e-28)
(0.0612946 0.00011833 1.59859e-28)
(0.0640449 0.00244478 4.24312e-28)
(0.0669469 0.00648385 1.38034e-26)
(0.0698225 0.0106996 -1.41851e-26)
(0.07301 0.0164484 0)
(0.0764088 0.0234389 0)