/*--------------------------------*- C++ -*----------------------------------*\
  =========                 |
  \\      /  F ield         | OpenFOAM: The Open Source CFD Toolbox
   \\    /   O peration     | Website:  https://openfoam.org
    \\  /    A nd           | Version:  dev
     \\/     M anipulation  |
\*---------------------------------------------------------------------------*/
FoamFile
{
    version     2.0;
    format      ascii;
    class       volScalarField;
    location    "2500";
    object      a;
}
// * * * * * * * * * * * * * * * * * * * * * * * * * * * * * * * * * * * * * //

dimensions      [0 -1 0 0 0 0 0];

internalField   nonuniform List<scalar> 
9851
(
0.100011
0.100011
0.100011
0.100011
0.100011
0.100011
0.100011
0.100011
0.100011
0.100011
0.10001
0.100011
0.100011
0.100011
0.100011
0.10001
0.10001
0.100011
0.100011
0.100011
0.100011
0.10001
0.10001
0.10001
0.100011
0.100011
0.100011
0.100011
0.10001
0.10001
0.10001
0.10001
0.100011
0.100011
0.100011
0.100011
0.100009
0.10001
0.10001
0.10001
0.10001
0.100011
0.100011
0.100011
0.100011
0.100009
0.100009
0.10001
0.10001
0.10001
0.10001
0.100011
0.100011
0.100011
0.100011
0.100009
0.100009
0.100009
0.10001
0.10001
0.10001
0.10001
0.100011
0.100011
0.100011
0.100011
0.100009
0.100009
0.100009
0.100009
0.10001
0.10001
0.10001
0.10001
0.100011
0.100011
0.100011
0.100011
0.100009
0.100009
0.100009
0.100009
0.100009
0.10001
0.10001
0.10001
0.10001
0.100011
0.100011
0.100011
0.100011
0.100008
0.100009
0.100009
0.100009
0.100009
0.100009
0.10001
0.10001
0.10001
0.10001
0.100011
0.100011
0.100011
0.100011
0.100008
0.100008
0.100009
0.100009
0.100009
0.100009
0.100009
0.10001
0.10001
0.10001
0.10001
0.100011
0.100011
0.100011
0.100011
0.100008
0.100008
0.100008
0.100009
0.100009
0.100009
0.100009
0.100009
0.10001
0.10001
0.10001
0.10001
0.100011
0.100011
0.100011
0.100011
0.100008
0.100008
0.100008
0.100008
0.100009
0.100009
0.100009
0.100009
0.100009
0.10001
0.10001
0.10001
0.10001
0.100011
0.100011
0.100011
0.100011
0.100007
0.100008
0.100008
0.100008
0.100008
0.100009
0.100009
0.100009
0.100009
0.100009
0.10001
0.10001
0.10001
0.10001
0.100011
0.100011
0.100011
0.100011
0.100007
0.100007
0.100008
0.100008
0.100008
0.100008
0.100009
0.100009
0.100009
0.100009
0.100009
0.10001
0.10001
0.10001
0.10001
0.100011
0.100011
0.100011
0.100011
0.100007
0.100007
0.100007
0.100008
0.100008
0.100008
0.100008
0.100009
0.100009
0.100009
0.100009
0.100009
0.10001
0.10001
0.10001
0.10001
0.100011
0.100011
0.100011
0.100011
0.100007
0.100007
0.100007
0.100007
0.100008
0.100008
0.100008
0.100008
0.100009
0.100009
0.100009
0.100009
0.100009
0.10001
0.10001
0.10001
0.10001
0.100011
0.100011
0.100011
0.100011
0.100006
0.100007
0.100007
0.100007
0.100007
0.100008
0.100008
0.100008
0.100008
0.100009
0.100009
0.100009
0.100009
0.100009
0.10001
0.10001
0.10001
0.10001
0.100011
0.100011
0.100011
0.100011
0.100006
0.100006
0.100007
0.100007
0.100007
0.100007
0.100008
0.100008
0.100008
0.100008
0.100009
0.100009
0.100009
0.100009
0.100009
0.10001
0.10001
0.10001
0.10001
0.100011
0.100011
0.100011
0.100011
0.100006
0.100006
0.100006
0.100007
0.100007
0.100007
0.100007
0.100008
0.100008
0.100008
0.100008
0.100009
0.100009
0.100009
0.100009
0.100009
0.10001
0.10001
0.10001
0.10001
0.100011
0.100011
0.100011
0.100011
0.100006
0.100006
0.100006
0.100006
0.100007
0.100007
0.100007
0.100007
0.100008
0.100008
0.100008
0.100008
0.100009
0.100009
0.100009
0.100009
0.100009
0.10001
0.10001
0.10001
0.10001
0.100011
0.100011
0.100011
0.100011
0.100006
0.100006
0.100006
0.100006
0.100006
0.100007
0.100007
0.100007
0.100007
0.100008
0.100008
0.100008
0.100008
0.100009
0.100009
0.100009
0.100009
0.100009
0.10001
0.10001
0.10001
0.10001
0.100011
0.100011
0.100011
0.100011
0.100005
0.100006
0.100006
0.100006
0.100006
0.100006
0.100007
0.100007
0.100007
0.100007
0.100008
0.100008
0.100008
0.100008
0.100009
0.100009
0.100009
0.100009
0.100009
0.10001
0.10001
0.10001
0.10001
0.100011
0.100011
0.100011
0.100011
0.100005
0.100005
0.100006
0.100006
0.100006
0.100006
0.100006
0.100007
0.100007
0.100007
0.100007
0.100008
0.100008
0.100008
0.100008
0.100009
0.100009
0.100009
0.100009
0.100009
0.10001
0.10001
0.10001
0.10001
0.100011
0.100011
0.100011
0.100011
0.100005
0.100005
0.100005
0.100006
0.100006
0.100006
0.100006
0.100006
0.100007
0.100007
0.100007
0.100007
0.100008
0.100008
0.100008
0.100008
0.100009
0.100009
0.100009
0.100009
0.100009
0.10001
0.10001
0.10001
0.10001
0.100011
0.100011
0.100011
0.100011
0.100005
0.100005
0.100005
0.100005
0.100006
0.100006
0.100006
0.100006
0.100006
0.100007
0.100007
0.100007
0.100007
0.100008
0.100008
0.100008
0.100008
0.100008
0.100009
0.100009
0.100009
0.100009
0.10001
0.10001
0.10001
0.10001
0.100011
0.100011
0.100011
0.100011
0.100004
0.100005
0.100005
0.100005
0.100005
0.100006
0.100006
0.100006
0.100006
0.100006
0.100007
0.100007
0.100007
0.100007
0.100008
0.100008
0.100008
0.100008
0.100008
0.100009
0.100009
0.100009
0.100009
0.10001
0.10001
0.10001
0.10001
0.100011
0.100011
0.100011
0.100011
0.100004
0.100004
0.100005
0.100005
0.100005
0.100005
0.100006
0.100006
0.100006
0.100006
0.100006
0.100007
0.100007
0.100007
0.100007
0.100008
0.100008
0.100008
0.100008
0.100008
0.100009
0.100009
0.100009
0.100009
0.10001
0.10001
0.10001
0.10001
0.100011
0.100011
0.100011
0.100011
0.100004
0.100004
0.100004
0.100005
0.100005
0.100005
0.100005
0.100006
0.100006
0.100006
0.100006
0.100006
0.100007
0.100007
0.100007
0.100007
0.100008
0.100008
0.100008
0.100008
0.100008
0.100009
0.100009
0.100009
0.100009
0.10001
0.10001
0.10001
0.10001
0.100011
0.100011
0.100011
0.100011
0.100004
0.100004
0.100004
0.100004
0.100005
0.100005
0.100005
0.100005
0.100006
0.100006
0.100006
0.100006
0.100006
0.100007
0.100007
0.100007
0.100007
0.100008
0.100008
0.100008
0.100008
0.100008
0.100009
0.100009
0.100009
0.100009
0.10001
0.10001
0.10001
0.10001
0.100011
0.100011
0.100011
0.100011
0.100011
0.100004
0.100004
0.100004
0.100004
0.100004
0.100005
0.100005
0.100005
0.100005
0.100006
0.100006
0.100006
0.100006
0.100006
0.100007
0.100007
0.100007
0.100007
0.100008
0.100008
0.100008
0.100008
0.100008
0.100009
0.100009
0.100009
0.100009
0.10001
0.10001
0.10001
0.10001
0.100011
0.100011
0.100011
0.100011
0.100011
0.100011
0.100003
0.100004
0.100004
0.100004
0.100004
0.100004
0.100005
0.100005
0.100005
0.100005
0.100006
0.100006
0.100006
0.100006
0.100006
0.100007
0.100007
0.100007
0.100007
0.100008
0.100008
0.100008
0.100008
0.100008
0.100009
0.100009
0.100009
0.100009
0.10001
0.10001
0.10001
0.10001
0.100011
0.10001
0.100011
0.100011
0.100011
0.100011
0.100011
0.100011
0.100011
0.100003
0.100003
0.100004
0.100004
0.100004
0.100004
0.100004
0.100005
0.100005
0.100005
0.100005
0.100006
0.100006
0.100006
0.100006
0.100006
0.100007
0.100007
0.100007
0.100007
0.100008
0.100008
0.100008
0.100008
0.100008
0.100009
0.100009
0.100009
0.100009
0.10001
0.10001
0.10001
0.10001
0.10001
0.10001
0.100011
0.100011
0.100011
0.100011
0.100011
0.100011
0.100011
0.100003
0.100003
0.100003
0.100004
0.100004
0.100004
0.100004
0.100004
0.100005
0.100005
0.100005
0.100005
0.100006
0.100006
0.100006
0.100006
0.100006
0.100007
0.100007
0.100007
0.100007
0.100008
0.100008
0.100008
0.100008
0.100008
0.100009
0.100009
0.100009
0.100009
0.10001
0.10001
0.10001
0.10001
0.10001
0.10001
0.10001
0.100011
0.100011
0.100011
0.100011
0.100011
0.100011
0.100011
0.100003
0.100003
0.100003
0.100003
0.100004
0.100004
0.100004
0.100004
0.100004
0.100005
0.100005
0.100005
0.100005
0.100006
0.100006
0.100006
0.100006
0.100006
0.100007
0.100007
0.100007
0.100007
0.100008
0.100008
0.100008
0.100008
0.100009
0.100009
0.100009
0.100009
0.100009
0.10001
0.10001
0.10001
0.10001
0.10001
0.10001
0.10001
0.10001
0.100011
0.100011
0.100011
0.100011
0.100011
0.100011
0.100011
0.100002
0.100003
0.100003
0.100003
0.100003
0.100004
0.100004
0.100004
0.100004
0.100004
0.100005
0.100005
0.100005
0.100005
0.100006
0.100006
0.100006
0.100006
0.100006
0.100007
0.100007
0.100007
0.100007
0.100008
0.100008
0.100008
0.100008
0.100009
0.100009
0.100009
0.100009
0.100009
0.10001
0.10001
0.10001
0.10001
0.10001
0.10001
0.10001
0.10001
0.100011
0.100011
0.100011
0.100011
0.100011
0.100011
0.100011
0.100011
0.100002
0.100002
0.100003
0.100003
0.100003
0.100003
0.100004
0.100004
0.100004
0.100004
0.100004
0.100005
0.100005
0.100005
0.100005
0.100006
0.100006
0.100006
0.100006
0.100007
0.100007
0.100008
0.100008
0.100009
0.100009
0.100009
0.100009
0.100009
0.100009
0.100009
0.100009
0.100009
0.10001
0.100011
0.100011
0.100012
0.100011
0.100013
0.100011
0.100013
0.100011
0.100011
0.100011
0.100011
0.100011
0.100011
0.100011
0.100011
0.100011
0.100011
0.100002
0.100002
0.100002
0.100003
0.100003
0.100003
0.100003
0.100004
0.100004
0.100004
0.100004
0.100004
0.100005
0.100005
0.100005
0.100005
0.100006
0.100006
0.100006
0.100007
0.100009
0.100011
0.100015
0.100018
0.100018
0.100017
0.100014
0.100012
0.100011
0.10001
0.10001
0.10001
0.100012
0.100014
0.100015
0.100023
0.100018
0.100033
0.100019
0.100038
0.100016
0.100032
0.100012
0.100021
0.100013
0.100011
0.100014
0.100014
0.100011
0.100011
0.100011
0.100011
0.100002
0.100002
0.100002
0.100002
0.100003
0.100003
0.100003
0.100003
0.100004
0.100004
0.100004
0.100004
0.100004
0.100005
0.100005
0.100005
0.100005
0.100006
0.100007
0.10001
0.10002
0.100034
0.100059
0.100085
0.100093
0.100086
0.100064
0.100043
0.100028
0.100019
0.100014
0.100012
0.100017
0.100023
0.100037
0.100066
0.100066
0.100145
0.10009
0.100218
0.100087
0.100244
0.100057
0.100188
0.100027
0.100094
0.100033
0.100013
0.100035
0.100032
0.100011
0.100012
0.100011
0.100011
0.100001
0.100002
0.100002
0.100002
0.100002
0.100003
0.100003
0.100003
0.100003
0.100004
0.100004
0.100004
0.100004
0.100004
0.100005
0.100005
0.100005
0.100006
0.100008
0.100021
0.100055
0.100147
0.100314
0.100521
0.100657
0.100634
0.100472
0.10029
0.100159
0.100084
0.100045
0.100024
0.100028
0.100037
0.100099
0.100165
0.100269
0.10051
0.100489
0.101063
0.100636
0.101527
0.100587
0.101618
0.100361
0.101218
0.100137
0.100592
0.100169
0.100026
0.100175
0.100149
0.100012
0.10002
0.100011
0.100012
0.100001
0.100001
0.100002
0.100002
0.100002
0.100002
0.100003
0.100003
0.100003
0.100003
0.100004
0.100004
0.100004
0.100004
0.100004
0.100005
0.100005
0.100005
0.100011
0.100046
0.100153
0.100533
0.101428
0.10278
0.104059
0.104304
0.103338
0.102018
0.101034
0.100495
0.100238
0.100114
0.100057
0.100008
0.100225
0.100325
0.100805
0.101266
0.101924
0.103295
0.103219
0.106167
0.103933
0.108548
0.103522
0.108768
0.102181
0.106595
0.100833
0.10333
0.100985
0.100103
0.100976
0.10079
0.100015
0.10006
0.100011
0.100013
0.100001
0.100001
0.100001
0.100002
0.100002
0.100002
0.100002
0.100003
0.100003
0.100003
0.100003
0.100004
0.100004
0.100004
0.100004
0.100004
0.100005
0.100005
0.100014
0.100083
0.100336
0.101417
0.104375
0.109756
0.116087
0.119327
0.116619
0.111134
0.106003
0.102756
0.101228
0.10056
0.100545
0.100411
0.100658
0.101755
0.10248
0.105008
0.107257
0.110187
0.115575
0.115776
0.125772
0.118987
0.1339
0.116832
0.135957
0.11073
0.127984
0.104385
0.115125
0.104915
0.100505
0.104667
0.103619
0.100033
0.100252
0.100012
0.10002
0.100001
0.100001
0.100001
0.100001
0.100002
0.100002
0.100002
0.100002
0.100003
0.100003
0.100003
0.100003
0.100004
0.100004
0.100004
0.100004
0.100004
0.100005
0.100016
0.100118
0.100568
0.102715
0.10896
0.121171
0.135679
0.146737
0.148788
0.139886
0.124012
0.112019
0.105314
0.102336
0.101641
0.105176
0.107133
0.103162
0.104239
0.109778
0.113035
0.121916
0.12918
0.137501
0.150575
0.152213
0.172142
0.160812
0.187966
0.158275
0.193316
0.140795
0.18267
0.118607
0.152304
0.119813
0.102185
0.118106
0.113556
0.100106
0.100996
0.100013
0.100044
0.100001
0.100001
0.100001
0.100001
0.100001
0.100002
0.100002
0.100002
0.100002
0.100003
0.100003
0.100003
0.100003
0.100004
0.100004
0.100004
0.100004
0.100005
0.100016
0.100141
0.100781
0.104135
0.114213
0.132833
0.155436
0.173172
0.183149
0.181327
0.16554
0.138266
0.117958
0.108107
0.105294
0.109551
0.11378
0.125453
0.132271
0.11646
0.120985
0.136799
0.145408
0.164004
0.177193
0.191638
0.210306
0.214779
0.23955
0.228246
0.260153
0.226886
0.267934
0.205471
0.257577
0.159784
0.223196
0.160814
0.107953
0.154348
0.141155
0.100376
0.103546
0.100018
0.100116
0.1
0.100001
0.100001
0.100001
0.100001
0.100001
0.100002
0.100002
0.100002
0.100002
0.100003
0.100003
0.100003
0.100003
0.100004
0.100004
0.100004
0.100005
0.100015
0.100139
0.100912
0.105348
0.118987
0.143933
0.171729
0.195985
0.212572
0.220456
0.214256
0.188768
0.149731
0.123058
0.116064
0.123174
0.124248
0.139088
0.149487
0.172535
0.182814
0.154162
0.163358
0.189683
0.202071
0.227328
0.242414
0.261156
0.280118
0.28817
0.311985
0.303959
0.334249
0.303895
0.343158
0.282701
0.333919
0.233966
0.300741
0.234949
0.124372
0.222312
0.194636
0.101196
0.110785
0.100028
0.100293
0.1
0.1
0.100001
0.100001
0.100001
0.100001
0.100001
0.100002
0.100002
0.100002
0.100002
0.100003
0.100003
0.100003
0.100003
0.100004
0.100004
0.100004
0.100012
0.10014
0.100955
0.106055
0.122627
0.152316
0.186154
0.212662
0.232766
0.247652
0.254433
0.242978
0.205978
0.15799
0.137408
0.170106
0.157831
0.17804
0.192992
0.204147
0.234931
0.24566
0.213724
0.224643
0.255806
0.26822
0.296386
0.310061
0.331566
0.347862
0.359214
0.379146
0.375385
0.400997
0.376062
0.410523
0.356824
0.402422
0.310108
0.371658
0.308951
0.159332
0.295107
0.265434
0.103395
0.12859
0.100042
0.100622
0.1
0.1
0.100001
0.100001
0.100001
0.100001
0.100001
0.100002
0.100002
0.100002
0.100002
0.100003
0.100003
0.100003
0.100003
0.100004
0.100004
0.10001
0.100124
0.10093
0.106219
0.124579
0.158388
0.195047
0.221297
0.240187
0.256907
0.272193
0.279484
0.262123
0.21586
0.176538
0.195781
0.240148
0.25514
0.215112
0.228298
0.256039
0.266832
0.299031
0.308354
0.279461
0.289528
0.321842
0.33222
0.361085
0.371553
0.394569
0.406614
0.420949
0.435593
0.4362
0.453315
0.437726
0.458746
0.421328
0.456317
0.378433
0.431617
0.375303
0.2173
0.360228
0.330541
0.108624
0.160759
0.100058
0.101462
0.1
0.1
0.100001
0.100001
0.100001
0.100001
0.100001
0.100002
0.100002
0.100002
0.100002
0.100003
0.100003
0.100003
0.100003
0.100004
0.100007
0.100089
0.10085
0.106067
0.124918
0.161442
0.198289
0.219134
0.235443
0.252796
0.271724
0.289305
0.297284
0.274627
0.233703
0.235487
0.269187
0.281348
0.30088
0.311929
0.277716
0.289063
0.317227
0.326347
0.355924
0.36161
0.341273
0.348782
0.380156
0.387048
0.41568
0.422201
0.446082
0.453663
0.463908
0.471022
0.469141
0.474672
0.470352
0.474732
0.467501
0.477066
0.435788
0.47431
0.431063
0.281727
0.416663
0.3962
0.346653
0.12008
0.209617
0.100078
0.102703
0.1
0.100001
0.100001
0.100001
0.100001
0.100001
0.100001
0.100002
0.100002
0.100002
0.100002
0.100003
0.100003
0.100003
0.100003
0.100005
0.100055
0.100665
0.105636
0.124532
0.161726
0.197133
0.213588
0.224045
0.236267
0.256903
0.283656
0.304886
0.312752
0.292579
0.286161
0.320563
0.319728
0.329709
0.344748
0.344545
0.334736
0.341843
0.367675
0.371029
0.399538
0.400331
0.392517
0.396082
0.426986
0.429945
0.458697
0.461384
0.476156
0.479701
0.478294
0.481452
0.47636
0.477111
0.47661
0.471775
0.483154
0.476414
0.477598
0.487224
0.485759
0.449874
0.475149
0.376535
0.294291
0.355297
0.432228
0.46593
0.470108
0.421212
0.135908
0.323964
0.287662
0.215249
0.10005
0.102153
0.1
0.100001
0.100001
0.100001
0.100001
0.100001
0.100002
0.100002
0.100002
0.100002
0.100002
0.100003
0.100003
0.100003
0.100004
0.10003
0.100464
0.104632
0.123178
0.160689
0.194372
0.207648
0.21251
0.209271
0.212068
0.246896
0.295196
0.320524
0.330037
0.330168
0.335359
0.340493
0.33958
0.343357
0.341825
0.359629
0.353105
0.369834
0.366313
0.397864
0.391444
0.427853
0.420471
0.431574
0.430831
0.462356
0.461397
0.481376
0.48124
0.484524
0.48677
0.478323
0.481124
0.464972
0.463888
0.459002
0.453444
0.448099
0.483183
0.471919
0.444861
0.459116
0.489088
0.488025
0.491928
0.484722
0.48867
0.404108
0.381369
0.456461
0.482438
0.486736
0.444883
0.239809
0.129911
0.187275
0.351925
0.314292
0.100011
0.135922
0.107946
0.100884
0.1
0.100001
0.100001
0.100002
0.100002
0.100002
0.100002
0.100002
0.100002
0.100002
0.100002
0.100003
0.100003
0.100004
0.100016
0.100285
0.103423
0.120176
0.157879
0.190395
0.201998
0.201506
0.185085
0.167101
0.183098
0.244592
0.309439
0.336259
0.34694
0.348658
0.341096
0.337043
0.331791
0.346724
0.341061
0.358765
0.345667
0.381441
0.370646
0.40841
0.394867
0.43904
0.42476
0.458025
0.450864
0.479794
0.475553
0.487556
0.486792
0.484736
0.487613
0.468917
0.476787
0.447362
0.450304
0.454545
0.46133
0.436085
0.431298
0.439683
0.43933
0.472275
0.456001
0.428541
0.440264
0.487139
0.494381
0.490465
0.473482
0.496187
0.428674
0.40707
0.475783
0.496546
0.494975
0.465682
0.266585
0.207721
0.378582
0.341369
0.101183
0.100013
0.100101
0.146354
0.111934
0.100002
0.100005
0.100005
0.100005
0.100004
0.100003
0.100002
0.100002
0.100002
0.100002
0.100002
0.100003
0.100003
0.100009
0.100156
0.102241
0.116376
0.152751
0.185953
0.196558
0.191786
0.165501
0.137839
0.140663
0.174851
0.248851
0.31941
0.344629
0.351281
0.341415
0.30804
0.310115
0.314535
0.310028
0.333004
0.322276
0.339158
0.319074
0.378658
0.359659
0.407235
0.385617
0.439544
0.419312
0.466873
0.455067
0.484115
0.477569
0.489251
0.488405
0.484964
0.492123
0.468283
0.476593
0.484479
0.493235
0.443271
0.449982
0.458942
0.46949
0.424873
0.42757
0.432861
0.438626
0.455054
0.436526
0.41972
0.423157
0.476461
0.494101
0.480964
0.456081
0.497549
0.451288
0.43138
0.490834
0.50012
0.501428
0.483383
0.292987
0.231545
0.404483
0.368492
0.101957
0.100014
0.100192
0.163047
0.119749
0.100014
0.100026
0.100024
0.100016
0.100009
0.100005
0.100003
0.100003
0.100002
0.100002
0.100002
0.100003
0.100006
0.100076
0.1013
0.112336
0.146262
0.181127
0.191504
0.183513
0.151331
0.122684
0.118563
0.132337
0.173486
0.250491
0.320722
0.3424
0.334927
0.284113
0.270772
0.26439
0.278377
0.273447
0.301411
0.287616
0.306249
0.280834
0.360638
0.333598
0.394491
0.365759
0.431407
0.407376
0.466659
0.451302
0.484627
0.476604
0.498654
0.500067
0.500909
0.509061
0.515717
0.522171
0.480644
0.492361
0.504146
0.515864
0.448385
0.460661
0.474496
0.489267
0.423774
0.435996
0.435325
0.44933
0.434623
0.419376
0.421061
0.415824
0.459441
0.486534
0.465051
0.435121
0.492687
0.471569
0.454123
0.50072
0.498509
0.502976
0.496819
0.320644
0.258894
0.429635
0.396045
0.103869
0.100016
0.100368
0.187444
0.132669
0.100096
0.100125
0.100092
0.100049
0.100023
0.10001
0.100005
0.100003
0.100003
0.100002
0.100003
0.100004
0.100038
0.100791
0.108449
0.138671
0.175867
0.186991
0.177077
0.141452
0.114941
0.108585
0.112407
0.129705
0.172706
0.240011
0.296505
0.304753
0.257155
0.209728
0.197232
0.222555
0.217282
0.232344
0.226241
0.259284
0.242982
0.269622
0.24015
0.334293
0.301645
0.37983
0.349354
0.42779
0.403354
0.464615
0.448334
0.4973
0.490524
0.542205
0.547204
0.527
0.53738
0.546532
0.55258
0.504656
0.520262
0.535693
0.550454
0.465181
0.482532
0.501002
0.520115
0.435435
0.451897
0.455251
0.471295
0.4175
0.413108
0.435532
0.418963
0.438471
0.472553
0.44471
0.417615
0.48147
0.488903
0.475067
0.505435
0.49064
0.49919
0.505324
0.350678
0.291504
0.454017
0.424482
0.107244
0.100074
0.101356
0.221224
0.152559
0.100441
0.100444
0.100265
0.10012
0.100048
0.100019
0.100008
0.100004
0.100003
0.100002
0.100003
0.10002
0.100396
0.105184
0.130456
0.169839
0.182953
0.172718
0.135423
0.11095
0.104373
0.104504
0.110289
0.128157
0.163325
0.203629
0.218205
0.184881
0.13828
0.145945
0.131726
0.164531
0.156365
0.181021
0.171706
0.214691
0.194885
0.251142
0.220351
0.316926
0.28377
0.375599
0.345217
0.441558
0.417262
0.478634
0.4622
0.54483
0.539198
0.598423
0.601733
0.598363
0.601112
0.564
0.575916
0.585935
0.593419
0.539384
0.558199
0.575938
0.591885
0.492392
0.514557
0.537172
0.559549
0.458399
0.4781
0.484841
0.502928
0.41164
0.417354
0.460633
0.43519
0.420033
0.453617
0.425076
0.411902
0.464733
0.501871
0.493239
0.505959
0.477112
0.489892
0.509987
0.38433
0.331916
0.477426
0.453759
0.116523
0.103443
0.110208
0.26822
0.192755
0.101512
0.101214
0.100621
0.100242
0.100083
0.100028
0.100009
0.100004
0.100003
0.100003
0.100011
0.10017
0.102774
0.122284
0.162491
0.17912
0.170182
0.132955
0.109177
0.102727
0.101689
0.1032
0.109089
0.122408
0.139027
0.14435
0.132454
0.113998
0.106065
0.103623
0.114134
0.108483
0.127336
0.120204
0.150051
0.13663
0.192509
0.168736
0.247198
0.215716
0.313064
0.28007
0.389912
0.359923
0.487049
0.461213
0.526697
0.508976
0.593705
0.5861
0.579057
0.627093
0.622991
0.608533
0.61631
0.605416
0.616027
0.623867
0.62775
0.580982
0.60064
0.617746
0.631524
0.528648
0.554296
0.579099
0.602143
0.490489
0.513184
0.522315
0.542073
0.415661
0.433884
0.494408
0.46135
0.413097
0.433572
0.416039
0.414713
0.445405
0.510505
0.507424
0.501481
0.4602
0.476245
0.510695
0.420503
0.378486
0.498629
0.481986
0.150281
0.160255
0.168078
0.329127
0.274364
0.104012
0.102697
0.101153
0.100383
0.100117
0.100034
0.10001
0.100005
0.100003
0.100006
0.100086
0.101323
0.114681
0.153203
0.175305
0.168756
0.133012
0.108914
0.102266
0.100867
0.100968
0.102532
0.106423
0.110871
0.112385
0.109196
0.103921
0.100809
0.101692
0.100778
0.10553
0.103045
0.115748
0.109464
0.140747
0.125667
0.186904
0.16161
0.257463
0.222246
0.327544
0.293116
0.431956
0.399634
0.533769
0.512828
0.565516
0.549566
0.601097
0.59343
0.575063
0.567719
0.635001
0.626168
0.604406
0.615603
0.641669
0.647244
0.647248
0.642689
0.622565
0.639563
0.652581
0.660665
0.570331
0.596827
0.620621
0.640834
0.529489
0.554054
0.564056
0.584434
0.431123
0.459949
0.534301
0.496023
0.414615
0.421423
0.416001
0.427542
0.429854
0.516327
0.517862
0.492469
0.443312
0.460724
0.507326
0.457182
0.42776
0.515361
0.50656
0.25276
0.320727
0.355974
0.401618
0.390763
0.108515
0.10462
0.101664
0.100491
0.100137
0.100036
0.10001
0.100005
0.100005
0.100046
0.100746
0.108494
0.142043
0.171315
0.168396
0.134038
0.10929
0.102302
0.100738
0.100445
0.10065
0.101537
0.102414
0.102812
0.102124
0.100913
0.100217
0.100255
0.100111
0.100938
0.100428
0.103758
0.101901
0.113293
0.107181
0.139618
0.123635
0.1896
0.161628
0.281316
0.23933
0.363434
0.323531
0.486128
0.452027
0.54015
0.526928
0.563145
0.558498
0.547699
0.592864
0.583167
0.544818
0.540185
0.631732
0.615356
0.57996
0.597397
0.662466
0.660068
0.653374
0.644148
0.656835
0.668173
0.673272
0.673566
0.612141
0.636075
0.65561
0.670254
0.571653
0.596306
0.605814
0.624865
0.456326
0.494659
0.576687
0.536323
0.424206
0.419442
0.422013
0.450353
0.424572
0.519018
0.525602
0.480514
0.43349
0.447603
0.50064
0.491419
0.474769
0.527852
0.525833
0.410435
0.292189
0.439529
0.467501
0.478057
0.114174
0.106292
0.101967
0.100531
0.100135
0.100033
0.10001
0.100005
0.100024
0.100428
0.104433
0.130183
0.166
0.168695
0.136962
0.110849
0.102838
0.100842
0.100372
0.100306
0.100397
0.100497
0.100541
0.10041
0.100193
0.100078
0.100046
0.100153
0.10009
0.100672
0.100298
0.103047
0.101453
0.112333
0.106241
0.140544
0.123127
0.200076
0.166235
0.309766
0.25731
0.41039
0.362056
0.509514
0.484965
0.512522
0.51419
0.504526
0.538128
0.537824
0.509993
0.506884
0.564756
0.552807
0.503151
0.501034
0.615604
0.592121
0.543913
0.567257
0.669527
0.662036
0.651441
0.635675
0.679502
0.682417
0.681875
0.677505
0.648767
0.66741
0.680735
0.687796
0.613061
0.63527
0.643533
0.659038
0.490028
0.534794
0.617901
0.578723
0.443258
0.422742
0.436532
0.481958
0.426198
0.518178
0.530921
0.46843
0.431995
0.441924
0.492689
0.519475
0.512438
0.537659
0.540683
0.494832
0.155497
0.401966
0.513123
0.52453
0.119438
0.107135
0.101965
0.1005
0.100122
0.100028
0.100008
0.100013
0.10018
0.102171
0.119219
0.157621
0.168792
0.142485
0.114771
0.1045
0.10142
0.100459
0.100194
0.100178
0.100197
0.10019
0.100141
0.100066
0.100027
0.100015
0.100049
0.100023
0.100135
0.100087
0.100594
0.100256
0.102736
0.1013
0.111715
0.105738
0.141548
0.122774
0.209515
0.170362
0.3489
0.28928
0.450726
0.4048
0.500016
0.484758
0.482227
0.489561
0.4563
0.46229
0.501486
0.503868
0.475715
0.46946
0.524317
0.510341
0.459036
0.457962
0.597185
0.567122
0.505717
0.535264
0.670235
0.659324
0.643449
0.622819
0.689609
0.688623
0.684255
0.677336
0.677007
0.689093
0.694423
0.695544
0.65007
0.667482
0.674405
0.684703
0.529184
0.577077
0.654757
0.620027
0.471453
0.432406
0.460216
0.519306
0.431363
0.515798
0.53445
0.460087
0.434947
0.443234
0.486004
0.541078
0.541678
0.54593
0.552723
0.51352
0.144163
0.417874
0.544873
0.548705
0.122866
0.106932
0.101759
0.100432
0.100098
0.100022
0.100012
0.100091
0.101032
0.110873
0.145997
0.167985
0.149245
0.120299
0.108496
0.10298
0.100923
0.100256
0.100087
0.100056
0.100052
0.100036
0.100019
0.10001
0.100008
0.10001
0.100046
0.100021
0.100144
0.100093
0.100681
0.100285
0.103219
0.101466
0.114273
0.106922
0.151135
0.127936
0.233397
0.186357
0.380567
0.330467
0.459488
0.424246
0.464955
0.465224
0.447092
0.440691
0.448746
0.412671
0.42177
0.459606
0.463878
0.432426
0.425186
0.481476
0.46534
0.416336
0.414632
0.579877
0.545767
0.472766
0.508872
0.666687
0.651969
0.633014
0.609082
0.694422
0.690354
0.68361
0.673867
0.695749
0.699853
0.700568
0.69962
0.680331
0.691425
0.697641
0.701154
0.570961
0.618677
0.685231
0.657291
0.506304
0.449853
0.489766
0.560253
0.442321
0.512996
0.536199
0.458005
0.441351
0.448024
0.4832
0.55824
0.56351
0.552931
0.56406
0.533713
0.341182
0.509599
0.568376
0.567727
0.123593
0.106195
0.101492
0.100335
0.100074
0.100019
0.100048
0.100647
0.105589
0.132535
0.164724
0.156104
0.126971
0.113875
0.106773
0.10231
0.100621
0.100118
0.100035
0.100015
0.10001
0.100007
0.100006
0.100006
0.100007
0.100011
0.100054
0.100024
0.10018
0.100112
0.100924
0.100384
0.105322
0.102317
0.12421
0.111709
0.179495
0.146036
0.276505
0.224245
0.381217
0.342897
0.433834
0.411963
0.429217
0.435902
0.386778
0.38662
0.393816
0.403148
0.359912
0.368702
0.415377
0.419406
0.385371
0.378781
0.442938
0.42387
0.378481
0.37455
0.56065
0.522572
0.443675
0.482252
0.660517
0.643063
0.621022
0.593633
0.695577
0.689454
0.68033
0.668206
0.704691
0.705433
0.704607
0.700555
0.703249
0.706341
0.711273
0.709447
0.612517
0.655838
0.706132
0.687589
0.542536
0.472232
0.519277
0.597647
0.457843
0.512309
0.538484
0.462214
0.450987
0.457373
0.486226
0.572318
0.579546
0.560035
0.574406
0.563792
0.407598
0.555861
0.584284
0.585141
0.122297
0.105048
0.101112
0.100246
0.100052
0.100035
0.100334
0.102695
0.120113
0.156672
0.160535
0.1348
0.12005
0.11262
0.105822
0.101729
0.100307
0.100058
0.100014
0.100006
0.100005
0.100005
0.100005
0.100006
0.100006
0.100014
0.100027
0.100009
0.100061
0.100194
0.100119
0.10115
0.100449
0.107199
0.102906
0.135018
0.116618
0.206391
0.165345
0.299195
0.252667
0.339638
0.317417
0.364249
0.355866
0.377122
0.38373
0.342028
0.333748
0.344192
0.351438
0.305474
0.311128
0.373702
0.374866
0.338634
0.335279
0.411621
0.3895
0.345615
0.339087
0.540948
0.498661
0.413466
0.45451
0.652599
0.632752
0.608067
0.577559
0.694655
0.686248
0.67524
0.661304
0.710168
0.708851
0.705282
0.699593
0.71542
0.714118
0.718057
0.714721
0.646268
0.684917
0.719041
0.709085
0.574295
0.495478
0.547883
0.629297
0.475702
0.514913
0.54438
0.473915
0.469431
0.477759
0.499408
0.585449
0.592614
0.567741
0.586342
0.583457
0.17462
0.489582
0.596982
0.598553
0.119533
0.103782
0.100786
0.100167
0.100048
0.100153
0.10125
0.111088
0.144529
0.161181
0.143943
0.126534
0.119111
0.112252
0.104544
0.100938
0.100174
0.100028
0.100007
0.100005
0.100005
0.100005
0.100005
0.100005
0.100006
0.100026
0.100013
0.100008
0.10006
0.100194
0.10012
0.101161
0.100449
0.107383
0.102966
0.136641
0.117252
0.209008
0.168171
0.288324
0.251438
0.257434
0.247251
0.282164
0.283805
0.26432
0.318177
0.325912
0.277788
0.27149
0.297319
0.30078
0.257419
0.259488
0.336142
0.335079
0.295434
0.295693
0.380965
0.359615
0.314854
0.305861
0.522628
0.475723
0.383063
0.427338
0.643964
0.622345
0.595636
0.562532
0.691843
0.681883
0.669476
0.654265
0.713352
0.709644
0.704125
0.697043
0.721548
0.718834
0.723247
0.718158
0.67875
0.708833
0.723305
0.719141
0.609387
0.522048
0.588965
0.673424
0.507723
0.528533
0.557859
0.500942
0.510242
0.524805
0.528955
0.597111
0.60409
0.581917
0.596984
0.583712
0.11944
0.363982
0.607056
0.605895
0.11579
0.102693
0.100533
0.10011
0.100106
0.100729
0.105585
0.130265
0.159647
0.152506
0.13345
0.125595
0.119948
0.111238
0.102879
0.100566
0.10008
0.100014
0.100005
0.100005
0.100005
0.100005
0.100005
0.100005
0.100006
0.100024
0.100011
0.100008
0.100054
0.10018
0.100111
0.100997
0.100388
0.106193
0.102532
0.130151
0.114341
0.186142
0.155346
0.233109
0.213607
0.226469
0.208704
0.248703
0.251746
0.234603
0.241816
0.262434
0.266374
0.244777
0.240983
0.256119
0.256034
0.230131
0.232218
0.30018
0.297064
0.256761
0.258472
0.349346
0.328969
0.284311
0.274596
0.508586
0.458533
0.353992
0.403924
0.635791
0.613148
0.585291
0.550474
0.68798
0.677036
0.663868
0.648091
0.714858
0.709099
0.701994
0.693983
0.727363
0.723452
0.728117
0.720878
0.708455
0.717286
0.735442
0.729191
0.664808
0.579055
0.660439
0.704351
0.573354
0.557496
0.577204
0.539619
0.573205
0.576599
0.566909
0.609892
0.615183
0.594853
0.612609
0.560877
0.116257
0.330575
0.614959
0.605632
0.112034
0.101819
0.10034
0.10012
0.100455
0.102671
0.117852
0.153823
0.156991
0.141371
0.131875
0.127741
0.120101
0.108461
0.101807
0.100252
0.100036
0.100008
0.100005
0.100004
0.100005
0.100005
0.100005
0.100005
0.100006
0.100007
0.100006
0.100019
0.100009
0.100041
0.10016
0.100092
0.10065
0.100261
0.103649
0.101582
0.116006
0.107979
0.145062
0.128593
0.18639
0.164058
0.250481
0.283052
0.255288
0.236799
0.245545
0.245598
0.266486
0.234588
0.23729
0.243191
0.239854
0.228873
0.229281
0.227301
0.229988
0.267042
0.261674
0.22896
0.230458
0.316966
0.297951
0.255922
0.246551
0.503432
0.45311
0.338225
0.394131
0.629246
0.606563
0.579156
0.5453
0.684364
0.673067
0.659998
0.644773
0.715425
0.708429
0.700547
0.691781
0.737719
0.727023
0.737563
0.721746
0.716641
0.724167
0.73714
0.736876
0.696206
0.648834
0.6829
0.709726
0.632928
0.58328
0.597971
0.580706
0.624099
0.614781
0.593261
0.620882
0.623606
0.613077
0.6223
0.53724
0.103894
0.246783
0.62079
0.600389
0.1087
0.101176
0.100234