/*--------------------------------*- C++ -*----------------------------------*\
  =========                 |
  \\      /  F ield         | OpenFOAM: The Open Source CFD Toolbox
   \\    /   O peration     | Website:  https://openfoam.org
    \\  /    A nd           | Version:  dev
     \\/     M anipulation  |
\*---------------------------------------------------------------------------*/
FoamFile
{
    version     2.0;
    format      ascii;
    class       volScalarField;
    location    "2500";
    object      alphat;
}
// * * * * * * * * * * * * * * * * * * * * * * * * * * * * * * * * * * * * * //

dimensions      [1 -1 -1 0 0 0 0];

internalField   nonuniform List<scalar> 
9851
(
0.00014786
0.000152802
0.000143789
0.000141729
0.000180768
0.00012885
0.000131186
0.000192286
0.000170258
0.000123118
0.00012671
0.000187703
0.000194523
0.000146082
0.000120556
0.000122916
0.000172354
0.000210137
0.000179137
0.000133256
0.000119317
0.0001211
0.000153517
0.000211293
0.000203889
0.000153837
0.000127213
0.000118801
0.000120382
0.000142759
0.00020602
0.000217571
0.000181169
0.000139273
0.00012353
0.000118591
0.000119942
0.000133824
0.000189816
0.000226754
0.00020642
0.00015654
0.000131953
0.000121491
0.000118377
0.000119377
0.000128254
0.000168026
0.000226053
0.000222864
0.000178985
0.000142105
0.000127126
0.000120555
0.000118117
0.000118887
0.000124915
0.000153335
0.000219009
0.000233281
0.000204134
0.000156284
0.000134624
0.00012374
0.00012
0.000117765
0.000118373
0.000122972
0.000142227
0.000201139
0.000239783
0.000224363
0.000175302
0.000143354
0.000129637
0.00012197
0.000119531
0.000117547
0.000117945
0.000122013
0.000134872
0.000178385
0.000237967
0.00023715
0.000198887
0.000154484
0.000136407
0.000125744
0.000121118
0.000118918
0.000117446
0.000117668
0.000121446
0.000130321
0.000161447
0.00022939
0.000245802
0.000221796
0.000171714
0.000143188
0.000131509
0.000123242
0.000120478
0.000118329
0.000117413
0.000117526
0.000121055
0.000127602
0.000149781
0.000210027
0.00025007
0.000238946
0.00019212
0.000153155
0.000136934
0.000127543
0.000121986
0.000119782
0.000117927
0.000117392
0.000117476
0.000120765
0.000125909
0.000141825
0.000186616
0.00024714
0.000248516
0.000216307
0.000167102
0.000142975
0.000132398
0.000124526
0.000121127
0.000119033
0.000117697
0.000117363
0.000117476
0.000120514
0.000124803
0.00013675
0.00016898
0.00023705
0.000256414
0.000236416
0.000186802
0.000151016
0.000137077
0.000128565
0.000122678
0.000120389
0.00011839
0.00011757
0.00011732
0.00011751
0.000120266
0.000124043
0.000133928
0.00015722
0.000216979
0.000258474
0.000250803
0.000208219
0.000163298
0.000142182
0.000132685
0.000125513
0.000121589
0.000119589
0.00011793
0.000117498
0.000117275
0.00011755
0.000120117
0.000123578
0.000132448
0.000149133
0.000193802
0.000254904
0.00025794
0.000231073
0.000180669
0.000148869
0.000136725
0.000129029
0.000123315
0.000120751
0.00011879
0.000117646
0.000117436
0.000117236
0.000117583
0.000120051
0.000123266
0.000131301
0.000143835
0.000176164
0.000244112
0.000265271
0.000248334
0.000201074
0.000159874
0.000141082
0.00013255
0.000126131
0.0001219
0.000119938
0.000118147
0.000117484
0.000117367
0.000117206
0.00011763
0.000120003
0.000123022
0.000130148
0.00014084
0.000163942
0.000223454
0.000266583
0.000260719
0.000222653
0.000174591
0.000147226
0.000136173
0.000129171
0.000123836
0.000120933
0.000119087
0.000117693
0.000117388
0.000117284
0.000117184
0.000117705
0.000119953
0.000122789
0.000129049
0.000139017
0.000155193
0.000199873
0.000262691
0.000267204
0.000243774
0.000193797
0.000156187
0.000140113
0.00013235
0.00012648
0.000122133
0.000120107
0.000118325
0.000117413
0.000117302
0.000117204
0.000117157
0.000117805
0.000119918
0.000122614
0.000128085
0.000137625
0.000149362
0.000181965
0.000251656
0.000274987
0.000259408
0.000213945
0.0001697
0.00014552
0.000135507
0.000129186
0.00012431
0.000121028
0.00011927
0.000117739
0.000117253
0.000117193
0.000117147
0.000117134
0.000117911
0.000119896
0.000122501
0.000127326
0.000136317
0.000145497
0.000169014
0.000230033
0.000275749
0.000271311
0.000235278
0.000185854
0.000153467
0.000139302
0.000132055
0.000126609
0.000122452
0.000120169
0.000118471
0.000117347
0.000117139
0.000117091
0.000117085
0.000117114
0.000118008
0.000119883
0.000122447
0.000126775
0.000135034
0.000143208
0.00015973
0.000205328
0.000271651
0.000277497
0.000255374
0.000205671
0.000164459
0.000143948
0.000135085
0.000129117
0.000124547
0.000121111
0.000119381
0.000117809
0.000117115
0.000117024
0.000117013
0.000117026
0.000117098
0.00011811
0.000119879
0.000122433
0.00012642
0.000133853
0.000141688
0.000153235
0.000187332
0.000260632
0.000285847
0.000270635
0.00022573
0.000179383
0.00015097
0.000138283
0.000131849
0.000126667
0.000122762
0.000120191
0.0001186
0.000117334
0.00011698
0.000116919
0.000116935
0.000116972
0.000117092
0.000118205
0.000119908
0.000122425
0.000126214
0.000132818
0.000140558
0.000149022
0.000173792
0.00023874
0.000286518
0.000282505
0.00024679
0.000196593
0.000160345
0.000142902
0.000134443
0.000129071
0.000124688
0.000121278
0.000119432
0.000117909
0.000117049
0.00011688
0.000116843
0.000116845
0.000116914
0.000117088
0.000118271
0.000119964
0.000122397
0.000126052
0.000131963
0.000139615
0.000146325
0.000163912
0.000212941
0.000282502
0.000288741
0.000266968
0.000216566
0.000173068
0.000148598
0.000137702
0.000131475
0.000126712
0.000122988
0.000120251
0.000118721
0.000117406
0.000116907
0.000116796
0.000116793
0.000116774
0.000116875
0.000117097
0.000118313
0.000120007
0.000122344
0.000125887
0.000131299
0.000138692
0.000144624
0.000157238
0.000193892
0.000272051
0.000297757
0.000281971
0.000237089
0.000188763
0.00015704
0.00014154
0.000133947
0.00012891
0.000124755
0.000121504
0.000119501
0.000118054
0.000117095
0.000116849
0.000116753
0.000116751
0.000116735
0.000116881
0.000117134
0.000118336
0.000120018
0.00012225
0.000125732
0.000130768
0.000137775
0.000143688
0.000152834
0.000180572
0.000251518
0.000299485
0.000294497
0.000257645
0.000207022
0.000167617
0.000147185
0.000136935
0.000131025
0.00012671
0.000123097
0.000120385
0.00011888
0.000117564
0.000116953
0.000116837
0.000116775
0.000116757
0.00011677
0.000116957
0.000117217
0.000118341
0.000120004
0.000122123
0.000125563
0.000130291
0.000136867
0.000143101
0.000150011
0.000170235
0.000226173
0.000295539
0.000301183
0.000278457
0.000226907
0.000181785
0.000153962
0.000140899
0.000133451
0.000128597
0.00012485
0.000121696
0.000119608
0.000118298
0.000117313
0.000116966
0.000116875
0.000116854
0.00011685
0.000116919
0.000117165
0.000117375
0.00011831
0.000119952
0.000121975
0.000125332
0.000129823
0.000136027
0.000142584
0.00014828
0.000163187
0.000204575
0.00028757
0.000309812
0.000293751
0.000247887
0.000198271
0.000163817
0.000145775
0.000136519
0.000130591
0.000126561
0.000123269
0.000120564
0.000119027
0.000117878
0.000117293
0.000117118
0.000117032
0.000117019
0.00011706
0.000117217
0.000117528
0.000117598
0.000118256
0.000119854
0.000121796
0.000125013
0.000129301
0.000135302
0.000141863
0.000147193
0.000158367
0.000191204
0.000270973
0.000316357
0.000306323
0.000268144
0.000217171
0.000175852
0.000152326
0.000140468
0.00013322
0.000128283
0.000124811
0.000121927
0.000119875
0.000118586
0.000117712
0.000117479
0.000117439
0.000117382
0.000117386
0.000117516
0.000117807
0.000118176
0.000117951
0.000118211
0.000119699
0.000121547
0.000124586
0.000128749
0.000134638
0.000141013
0.000146657
0.000155254
0.000180312
0.00024765
0.000313036
0.000316399
0.000288636
0.00023733
0.000190981
0.000160896
0.000145317
0.000136672
0.000130619
0.000126434
0.000123351
0.000120907
0.00011946
0.000118338
0.00011782
0.000117872
0.000117939
0.000118
0.000118137
0.000118484
0.000118976
0.000119297
0.000117765
0.000118881
0.00011814
0.000119456
0.000121224
0.000124114
0.000128159
0.000133906
0.000140235
0.000146205
0.000153185
0.00017226
0.000223594
0.000307804
0.000324471
0.00030665
0.000257917
0.000208484
0.000171898
0.000151808
0.000140863
0.000133757
0.000128514
0.000124872
0.000122135
0.000120437
0.000119281
0.000118428
0.000118199
0.000118454
0.000118672
0.00011897
0.000119471
0.000120168
0.000120758
0.000119887
0.00012092
0.00011781
0.000119183
0.000118024
0.00011917
0.000120859
0.000123634
0.000127501
0.000133056
0.000139489
0.000145726
0.000151799
0.000166543
0.000206821
0.000298399
0.000334869
0.00032006
0.000278656
0.00022741
0.000185746
0.000159855
0.000146175
0.000137703
0.000131546
0.000126843
0.000123522
0.000121399
0.000120355
0.000119456
0.000118952
0.000119009
0.000119418
0.000119867
0.000120471
0.000121388
0.000121468
0.000122075
0.000119965
0.000122217
0.00011353
0.000117775
0.000112918
0.000104968
0.000104648
0.000117875
0.000118813
0.000120394
0.000123107
0.0001268
0.000132132
0.000138681
0.000145129
0.000150826
0.000162659
0.000195694
0.000279612
0.000339903
0.000333695
0.000299145
0.000247873
0.000201438
0.000170586
0.000152891
0.000142639
0.000135471
0.000130029
0.000125767
0.000122584
0.000121299
0.000120704
0.000120123
0.000119938
0.00012025
0.000120838
0.000121599
0.000122278
0.000122802
0.000115521
0.00011823
0.000108331
0.000103847
0.000103579
0.000102927
9.93063e-05
9.25275e-05
9.20978e-05
0.000117698
0.0001184
0.000119855
0.000122515
0.000126049
0.000131148
0.000137803
0.000144361
0.000150254
0.000159955
0.00018611
0.000254885
0.000335653
0.00034534
0.000320082
0.000268654
0.00021999
0.000182995
0.000161749
0.000149051
0.000140394
0.000133921
0.000128997
0.000125008
0.000122501
0.00012176
0.000121547
0.000121512
0.000121788
0.000121073
0.000115461
0.000107672
0.000107192
0.000100589
0.000113076
0.000103922
0.000100464
9.59762e-05
9.74243e-05
9.20943e-05
9.04396e-05
8.84389e-05
8.29836e-05
8.23687e-05
0.000117489
0.000117993
0.000119338
0.000121897
0.000125241
0.000130118
0.000136792
0.000143467
0.000149712
0.000158049
0.00017914
0.00023246
0.000329835
0.000357052
0.000338169
0.000290235
0.000239341
0.000198901
0.000172467
0.000157383
0.000147209
0.000139615
0.000133555
0.000128733
0.000124968
0.00012327
0.000123085
0.000123218
0.000113895
0.000106244
0.000100516
9.54847e-05
9.51921e-05
9.02843e-05
9.87434e-05
9.14922e-05
9.70605e-05
9.25493e-05
9.24945e-05
8.58134e-05
8.80793e-05
8.29368e-05
8.12713e-05
7.99695e-05
7.49237e-05
7.47171e-05
0.000117261
0.000117614
0.000118871
0.000121265
0.000124393
0.000129038
0.000135572
0.000142449
0.000149032
0.000156693
0.00017417
0.000217243
0.000321109
0.00036973
0.000354072
0.000312358
0.000260461
0.0002159
0.000186155
0.000167919
0.000156419
0.000147464
0.000140239
0.000134346
0.000129353
0.000126024
0.000123732
0.000108737
9.95309e-05
9.43962e-05
8.95885e-05
8.52897e-05
8.59824e-05
8.20084e-05
8.8484e-05
8.3383e-05
8.83961e-05
8.43963e-05
8.82728e-05
8.46028e-05
8.41784e-05
7.78811e-05
7.98988e-05
7.56458e-05
7.40163e-05
7.28134e-05
6.85211e-05
6.85999e-05
0.000117047
0.000117295
0.000118476
0.000120686
0.00012352
0.00012791
0.00013416
0.000141221
0.000148123
0.00015555
0.000170567
0.000207576
0.000302134
0.000376041
0.000371307
0.000335294
0.000282823
0.000235645
0.00020178
0.000180991
0.000167991
0.000157902
0.00014936
0.000142353
0.0001365
0.000131104
0.000111091
9.54683e-05
8.62445e-05
7.97125e-05
7.83413e-05
7.69728e-05
7.89026e-05
7.58096e-05
8.13767e-05
7.73211e-05
8.1325e-05
7.86993e-05
8.09354e-05
7.80912e-05
8.05553e-05
7.75891e-05
7.66546e-05
7.15203e-05
7.32238e-05
6.98092e-05
6.81755e-05
6.7206e-05
6.36055e-05
6.40374e-05
0.000116939
0.000117164
0.00011828
0.000120173
0.00012261
0.000126771
0.000132582
0.00013979
0.000147021
0.000154628
0.000167907
0.000199338
0.000276721
0.000373115
0.000388278
0.000359629
0.00030588
0.000256969
0.000219973
0.000197247
0.000182997
0.000172248
0.000162785
0.000153785
0.000146182
0.000123842
0.000100936
8.52446e-05
7.52338e-05
6.99635e-05
6.77534e-05
6.93534e-05
7.32913e-05
6.96768e-05
7.53272e-05
7.34324e-05
7.63521e-05
7.43169e-05
7.59121e-05
7.43397e-05
7.49787e-05
7.32761e-05
7.38389e-05
7.18048e-05
7.05793e-05
6.64366e-05
6.77495e-05
6.4994e-05
6.36007e-05
6.2837e-05
6.00606e-05
6.05506e-05
0.000117029
0.000117242
0.00011836
0.000119757
0.000121751
0.000125686
0.000130897
0.000138269
0.000145801
0.000153658
0.000165814
0.000192724
0.000253595
0.000366483
0.000404615
0.000381757
0.000330657
0.000279733
0.00024069
0.000216571
0.000202756
0.000192029
0.000179823
0.000168426
0.000158014
0.000131236
0.000101783
8.33725e-05
7.23962e-05
6.68505e-05
6.32392e-05
6.518e-05
6.85971e-05
6.18409e-05
7.16527e-05
7.16465e-05
7.36215e-05
7.64466e-05
7.40633e-05
7.72498e-05
7.27705e-05
7.61135e-05
7.0833e-05
7.26851e-05
6.84538e-05
6.82759e-05
6.56341e-05
6.22715e-05
6.29133e-05
6.0257e-05
6.02005e-05
5.97997e-05
5.79e-05
5.8421e-05
0.000117578
0.000117722
0.000118551
0.000119492
0.000121053
0.000124718
0.000129339
0.000136833
0.00014448
0.000152527
0.000164268
0.000187743
0.000237699
0.000358445
0.000420233
0.000403025
0.000356772
0.000304227
0.000262711
0.000238667
0.000226114
0.000215083
0.000198883
0.000178852
0.00016033
0.000149234
0.000142561
0.000124867
8.31099e-05
6.66953e-05
6.02178e-05
5.78107e-05
7.03605e-05
5.83488e-05
6.95424e-05
7.25766e-05
8.05199e-05
9.23335e-05
8.67956e-05
0.000111429
8.71969e-05
0.00010824
8.17618e-05
0.000107421
7.36232e-05
9.276e-05
6.58183e-05
7.50848e-05
6.36449e-05
5.86021e-05
6.09192e-05
5.79711e-05
5.81694e-05
5.79303e-05
5.73537e-05
5.77785e-05
0.000118432
0.000119116
0.000119036
0.000119654
0.000120692
0.000123976
0.000128182
0.000135623
0.000143171
0.000151501
0.00016359
0.000184269
0.000227196
0.000341363
0.000429165
0.00042634
0.000385114
0.00032972
0.000286687
0.000260828
0.00025118
0.000242922
0.000225267
0.000206953
0.000196691
0.000181885
0.000163937
0.000148158
0.00013728
9.75406e-05
6.76318e-05
5.6602e-05
6.97434e-05
4.45718e-05
7.8036e-05
7.56561e-05
0.000106302
0.000112943
0.00011109
0.000117142
0.00011036
0.000123117
0.000108608
0.00012446
0.000106595
0.000117579
0.000103799
0.000109421
7.62182e-05
0.000101797
7.54626e-05
5.60762e-05
7.10819e-05
6.35734e-05
5.80347e-05
5.66962e-05
5.85776e-05
5.89268e-05
0.000120025
0.000122771
0.000120786
0.0001206
0.000120907
0.000123677
0.000127411
0.000134556
0.000142015
0.000150647
0.000163453
0.000181812
0.000220347
0.000315127
0.000427737
0.000449631
0.000415152
0.00035657
0.000310048
0.000283063
0.000275412
0.000278037
0.000291146
0.00031963
0.000341598
0.000342276
0.000288746
0.000221597
0.000172347
0.000151609
0.000129862
8.01484e-05
8.93419e-05
9.38974e-05
0.000107018
0.000115381
0.000115743
0.000124389
0.000134406
0.000139047
0.000160806
0.000150859
0.00018354
0.000150995
0.000194765
0.000134162
0.000187686
0.000115306
0.00015402
0.000100103
0.000120116
9.71753e-05
5.71868e-05
9.29485e-05
8.88224e-05
6.01339e-05
5.4567e-05
6.09867e-05
6.29867e-05
0.000123514
0.000130245
0.000125905
0.000122675
0.000122085
0.000124018
0.000127173
0.000133639
0.000140949
0.000149903
0.000163261
0.00018047
0.000214336
0.000288549
0.00042019
0.000470736
0.00044354
0.000385577
0.000333865
0.000303381
0.000298144
0.000317071
0.000377273
0.000472707
0.000596623
0.000665634
0.00063903
0.000523457
0.000364517
0.00022286
0.000165559
0.000150201
0.000129443
0.000133589
0.000146989
0.000122012
0.000124551
0.000148145
0.000159982
0.000183199
0.000208572
0.000219739
0.000259632
0.000246091
0.000302775
0.000253015
0.000323239
0.000231473
0.00031666
0.00017526
0.000276414
0.00012199
0.000192426
0.000118562
8.02767e-05
0.000110147
9.97535e-05
6.11655e-05
6.02271e-05
6.80999e-05
7.20902e-05
0.000131393
0.00014689
0.000137774
0.000127644
0.000124745
0.000125281
0.000127538
0.000133009
0.000139982
0.000149241
0.000163058
0.000179772
0.000208911
0.000268256
0.000411218
0.000488674
0.000471213
0.000417228
0.000359093
0.000321981
0.000317754
0.000355181
0.000453502
0.000624655
0.000790388
0.000834063
0.000809405
0.000755734
0.000653374
0.000495944
0.000305786
0.000190628
0.000155361
0.000164623
0.000201443
0.000219189
0.000253927
0.000176994
0.000195112
0.000236339
0.000268708
0.000303056
0.000346902
0.000356852
0.000406398
0.000387405
0.000439406
0.000391498
0.000448421
0.00036805
0.000436663
0.000309766
0.000401201
0.000199397
0.000327693
0.000190851
8.63923e-05
0.000165199
0.000137231
6.15527e-05
7.98625e-05
8.28874e-05
8.13572e-05
0.000149243
0.000178775
0.000164441
0.000140657
0.000129702
0.000127893
0.000128497
0.000132755
0.000139227
0.00014865
0.000162654
0.000178686
0.000203766
0.000254941
0.000394308
0.00049838
0.000500674
0.000452332
0.000386277
0.000341531
0.000334308
0.000387815
0.000519461
0.000748128
0.000875546
0.000904441
0.000879413
0.000824421
0.000749446
0.000660811
0.000544942
0.00038562
0.000276822
0.000250433
0.000285788
0.000297614
0.00035702
0.000389974
0.000433352
0.000305156
0.000345766
0.000389221
0.000428559
0.000447199
0.000479761
0.000477796
0.000504425
0.000488022
0.000514802
0.000484472
0.000514878
0.000465035
0.000505617
0.000420995
0.000482425
0.000331073
0.000430177
0.000320214
0.000108188
0.000287354
0.000227831
7.29841e-05
8.79204e-05
0.00011583
0.000100051
0.000153287
0.000201325
0.000204501
0.00017001
0.000141567
0.000131351
0.000130249
0.000132782
0.000138649
0.000148023
0.000161762
0.000176768
0.000199027
0.000244836
0.000364039
0.000495842
0.000528647
0.000488904
0.000416405
0.00036079
0.000347786
0.000412151
0.000578123
0.000819765
0.00091635
0.000912483
0.00086911
0.00080147
0.000732545
0.000663406
0.000616089
0.000548699
0.000469791
0.000501475
0.000400056
0.000483921
0.000476023
0.000511998
0.000517122
0.000541588
0.000463221
0.000491856
0.000503203
0.0005229
0.000523658
0.000538223
0.000531427
0.000543075
0.000533349
0.000544472
0.000529493
0.000541836
0.000517771
0.000535587
0.000491799
0.0005238
0.000429617
0.000495592
0.000416692
0.000160801
0.000388254
0.000338085
7.52625e-05
0.000113797
0.000112872
7.10618e-05
0.000165876
0.00021687
0.000208562
0.000169154
0.00014032
0.000133021
0.000133104
0.000138163
0.000147322
0.000160618
0.000175051
0.00019566
0.00023546
0.000335124
0.000487063
0.000552195
0.000523126
0.000451265
0.000382204
0.000358637
0.000426999
0.000613483
0.000859585
0.000919938
0.000903916
0.000824277
0.000723558
0.000683442
0.000644068
0.000613967
0.000585673
0.000563226
0.000586295
0.000604877
0.000639877
0.000549083
0.000580834
0.000566223
0.000589311
0.000570397
0.000588011
0.00054036
0.000555877
0.000549757
0.000560065
0.000552055
0.000560232
0.000551115
0.000555951
0.000548263
0.000552268
0.000544716
0.000549483
0.000537366
0.000546198
0.000526307
0.000538248
0.000492832
0.000526477
0.000482698
0.00025861
0.000462041
0.000424038
8.08892e-05
0.000165583
4.47418e-05
6.38939e-05
0.000157646
0.000216299
0.000206359
0.000162167
0.000138588
0.000134462
0.0001381
0.000146832
0.000159931
0.000174325
0.000194412
0.000228675
0.000312098
0.000477296
0.000569801
0.000555654
0.000490916
0.000408762
0.000366849
0.000428702
0.000631233
0.000866695
0.000920757
0.000871069
0.000738444
0.000620107
0.000623254
0.000631315
0.000613296
0.000584727
0.000576941
0.000608312
0.000654961
0.000663877
0.000660092
0.000685213
0.000612475
0.000635655
0.000606818
0.000630892
0.000599025
0.000620628
0.000571433
0.000584123
0.000567818
0.000576424
0.000560873
0.000566504
0.000554892
0.000558921
0.000555732
0.000563339
0.000556886
0.000571876
0.000550025
0.000569389
0.000537723
0.000552129
0.000523696
0.000535011
0.000517156
0.000358019
0.000505507
0.000485721
0.000440162
0.000100476
0.000249284
1.95819e-05
6.05655e-05
0.000148499
0.000212904
0.000197067
0.000154283
0.000139349
0.000139199
0.000147166
0.000160168
0.00017474
0.000194811
0.000226729
0.000296608
0.000456254
0.00057579
0.000588001
0.000533518
0.000440031
0.00037656
0.000427621
0.000630974
0.000870581
0.000908492
0.000827048
0.000660509
0.000532677
0.000528057
0.000598163
0.000607054
0.000594574
0.000587335
0.000629741
0.000719883
0.000702461
0.000737425
0.000715215
0.000745951
0.000657242
0.000685265
0.000645669
0.000674705
0.000621551
0.000649394
0.000587377
0.000602269
0.00057248
0.000582047
0.000564837
0.000571231
0.000572635
0.000582201
0.000588927
0.000609078
0.000596657
0.00063107
0.000583216
0.00062212
0.00055156
0.000586633
0.000531163
0.000549153
0.000539552
0.000521936
0.00052623
0.00046663
0.000374959
0.000445041
0.000509936
0.00052044
0.000522879
0.000501621
0.000129502
0.000410002
0.000364889
0.000265532
1.60729e-05
4.53779e-05
0.000151143
0.000212117
0.000185932
0.000153992
0.000145119
0.000150476
0.000162783
0.000178919
0.000200666
0.000230136
0.000291322
0.000430329
0.000569739
0.000616021
0.000574574
0.000477604
0.000392336
0.000421794
0.000622064
0.000862822
0.00089458
0.000790995
0.000604187
0.000462188
0.000432876
0.000507163
0.00058863
0.000613384
0.000620424
0.000648578
0.000749042
0.000812658
0.000831498
0.000772273
0.000796428
0.000773977
0.000800254
0.000705421
0.000740303
0.000680777
0.00071029
0.000641099
0.000666863
0.000595702
0.000614944
0.00057895
0.000590308
0.000588908
0.000593275
0.000627581
0.000635664
0.000660559
0.000677596
0.000662334
0.000682774
0.000628516
0.000645168
0.00064222
0.000564177
0.000583921
0.000560557
0.000598443
0.000545346
0.000531332
0.000538533
0.000559478
0.000527337
0.000489321
0.000470136
0.000517357
0.000522146
0.000524477
0.000512279
0.000301541
0.000120738
0.000222879
0.000441655
0.000400035
8.38101e-06
0.000130929
7.68555e-05
3.46126e-05
0.000165589
0.00021793
0.000185219
0.000162876
0.000162106
0.000172261
0.000191479
0.000216904
0.000246791
0.000294029
0.000412344
0.000563
0.000637966
0.000610973
0.000522682
0.000412054
0.000410991
0.000597618
0.000853227
0.000882162
0.0007716
0.000576775
0.00041507
0.000360483
0.000390364
0.000512231
0.000606699
0.000651047
0.000685712
0.00076939
0.000841085
0.000846849
0.000858412
0.000821555
0.000837488
0.000792145
0.00081591
0.000739008
0.000767969
0.000690204
0.000716092
0.000643203
0.0006611
0.00060499
0.000625548
0.000600204
0.000606734
0.000636753
0.000633292
0.000679759
0.000677237
0.000688806
0.00068314
0.000669898
0.000623931
0.00067341
0.000657095
0.000592848
0.000540765
0.000570394
0.00061947
0.000576547
0.000578324
0.000542721
0.000545278
0.000551266
0.000532922
0.000542633
0.000563426
0.000527743
0.000503928
0.000489857
0.000519675
0.000523315
0.000519952
0.000516895
0.000341375
0.000258506
0.000467167
0.000431564
3.20309e-05
3.77038e-06
6.46305e-06
0.000158905
8.35972e-05
0.000194484
0.000226525
0.000200251
0.00019276
0.000200347
0.000214581
0.000236836
0.000268547
0.000303054
0.000402686
0.000548791
0.000648823
0.000643372
0.000571353
0.000441239
0.000403236
0.000559153
0.000838368
0.000876838
0.000763161
0.00057421
0.000417443
0.000319684
0.000299888
0.000376761
0.00053394
0.000641962
0.000699835
0.000773284
0.000841296
0.000833967
0.000839513
0.000847565
0.000845647
0.000832632
0.000841271
0.000780078
0.000784265
0.000744412
0.000768211
0.000683349
0.000696582
0.000630276
0.00063605
0.000614978
0.000623923
0.000626914
0.000620364
0.000664447
0.000648486
0.000668317
0.000650182
0.00066394
0.000653705
0.000641996
0.00062845
0.000615243
0.000644933
0.000642369
0.000629773
0.000529917
0.000558098
0.000564527
0.000581326
0.000534007
0.000510637
0.00050749
0.000500159
0.000540446
0.000534027
0.00051397
0.000502466
0.000526429
0.000512284
0.000503606
0.000517805
0.000520123
0.000515621
0.000516447
0.000377322
0.000298756
0.000487391
0.000458668
3.52082e-05
1.88777e-06
6.01118e-06
0.000194713
0.00010254
0.000247211
0.00026016
0.000247515
0.000247091
0.000250165
0.000264655
0.00029091
0.000329849
0.000403811
0.000528092
0.000646389
0.000672449
0.00061814
0.000490973
0.000404798
0.000514241
0.000814708
0.000874127
0.000772668
0.000587008
0.000429197
0.000306624
0.000241691
0.000278694
0.000383307
0.00053849
0.000665743
0.000747774
0.000810207
0.000753574
0.000735194
0.000701918
0.000760753
0.000746818
0.000782352
0.000772613
0.000681355
0.000657924
0.000702541
0.000698135
0.000633889
0.000620692
0.000595312
0.00057914
0.00061379
0.00060571
0.000629527
0.000609836
0.000629133
0.000609679
0.000616054
0.000602181
0.000590982
0.000578782
0.000615828
0.000600228
0.000584649
0.00056971
0.000613786
0.00060295
0.000586974
0.000569133
0.000525656
0.000576283
0.00055714
0.000577845
0.000476885
0.000469879
0.000509721
0.000480034
0.000477082
0.000495385
0.000454998
0.000451697
0.000484259
0.000514974
0.000511353
0.000512985
0.000479905
0.000483563
0.000512203
0.000411051
0.000337144
0.000501879
0.000480917
5.85403e-05
1.30396e-06
6.38421e-06
0.000237492
0.000141344
0.000329817
0.000327388
0.000308332
0.00029951
0.000302948
0.000321535
0.000356128
0.000409993
0.000515859
0.000641933
0.000694986
0.000658669
0.000543002
0.000421585
0.000473161
0.000776031
0.000873131
0.000782095
0.000603045
0.000447958
0.000312117
0.000220596
0.00021479
0.000276412
0.00039279
0.000530154
0.000644044
0.00069846
0.000642891
0.000492013
0.000446137
0.000548947
0.000522545
0.000582215
0.000563724
0.000631162
0.000604554
0.000513606
0.00046369
0.000595734
0.000559282
0.000554885
0.000521905
0.000550005
0.000528995
0.000589599
0.000568849
0.00058907
0.000568976
0.000541666
0.000527917
0.000556136
0.000544075
0.000533514
0.00052573
0.000551086
0.000533274
0.000517164
0.0005034
0.000559366
0.000540539
0.000520587
0.000500348
0.00052275
0.000537272
0.000499832
0.00051661
0.000446034
0.000459698
0.000491685
0.000492935
0.000430738
0.000440417
0.000414791
0.00042873
0.000431575
0.00051271
0.000513013
0.000492534
0.000428473
0.000432752
0.000504332
0.000441113
0.00035371
0.000509681
0.000496728
7.3403e-05
1.8743e-06
1.38411e-05
0.000256928
0.000153056
0.000416931
0.000399459
0.000366784
0.000351757
0.000358788
0.000384402
0.000422229
0.000511768
0.000631092
0.00070947
0.000691232
0.00059924
0.00045079
0.000441018
0.000714297
0.00087122
0.000797964
0.000634642
0.000484605
0.000319672
0.000223537
0.000191213
0.000207347
0.000278022
0.000385608
0.000482942
0.000523451
0.000450465
0.000278153
0.000260422
0.000232275
0.000303031
0.000284263
0.000342828
0.000320657
0.000414531
0.00037345
0.000389759
0.000339888
0.000482831
0.000438265
0.000502927
0.000470516
0.00050507
0.000481544
0.00054851
0.000526417
0.00051497
0.000504114
0.000466186
0.000461677
0.000458195
0.000460436
0.000492117
0.000483092
0.0004757
0.00046988
0.000481599
0.000465525
0.000452314
0.000442072
0.000495154
0.000473713
0.000452416
0.000434102
0.000466736
0.000477117
0.000442715
0.000454257
0.00044363
0.000477267
0.000438959
0.00046569
0.000411948
0.000403271
0.000399057
0.000429358
0.000394024
0.00050617
0.000509021
0.000442661
0.000390488
0.000391867
0.000455064
0.000429082
0.000352217
0.000504812
0.000472092
9.93856e-05
1.83094e-05
6.30614e-05
0.000250603
0.000160328
0.000504277
0.000466658
0.000421355
0.000407297
0.000419182
0.000448544
0.000515599
0.000618654
0.000711295
0.000718472
0.000651388
0.000480038
0.000422589
0.000633808
0.00086281
0.000826606
0.000676729
0.000529279
0.000339266
0.000230609
0.000194429
0.000182418
0.000205727
0.000270224
0.00033953
0.00035975
0.000300062
0.000207547
0.000149278
0.000144742
0.000159204
0.000149137
0.000180405
0.000169469
0.000218067
0.000195477
0.000291884
0.000250265
0.0003439
0.000296625
0.000432083
0.000389392
0.000454877
0.000424794
0.000479622
0.000465253
0.000498105
0.000490019
0.000458599
0.000461103
0.000457274
0.000423248
0.000423208
0.000428532
0.000424512
0.000434571
0.000429371
0.000425694
0.000423832
0.000418851
0.000406875
0.000397983
0.00039192
0.000431072
0.000410059
0.000392646
0.000378716
0.000413061
0.000418163
0.000387672
0.000394163
0.00046294
0.000444875
0.000389068
0.000416211
0.000414868
0.000387859
0.000402603
0.000447697
0.000378588
0.000465459
0.000472832
0.000400008
0.000372712
0.000370334
0.000410596
0.000418905
0.000350721
0.000472829
0.000453128
0.000151293
0.000243549
0.000203247
0.000261511
0.000184418
0.00059044
0.000530477
0.000471305
0.000463579
0.00048639
0.000523678
0.000614009
0.000709464
0.000740365
0.000695602
0.000549426
0.000430248
0.000550922
0.000843685
0.000852501
0.000723731
0.000586216
0.000379904
0.000249313
0.000203514
0.000186949
0.000180391
0.000201438
0.000236129
0.000240595
0.000210951
0.000164917
0.000129299
0.000122426
0.000120766
0.000122786
0.000121927
0.000133406
0.000125803
0.00017278
0.000148254
0.000249591
0.000207104
0.000314651
0.000272706
0.000391373
0.000354607
0.00044732
0.000425669
0.000468702
0.000464579
0.000462951
0.00046857
0.000433815
0.000440583
0.000441277
0.000454289
0.000389824
0.000393154
0.000407169
0.000399541
0.000388372
0.000386894
0.000386754
0.000387834
0.000368036
0.000360397
0.000355529
0.000353226
0.00037388
0.000357556
0.000344661
0.000334919
0.000362377
0.000363071
0.000337731
0.000343627
0.00042906
0.000398203
0.000342564
0.000369976
0.000433922
0.000390064
0.00042092
0.000419019
0.000380029
0.000423048
0.000438423
0.000372146
0.00037105
0.000364915
0.000378848
0.000412299
0.000354798
0.000449507
0.000444611
0.000178803
0.000407516
0.00026953
0.000279503
0.000199496
0.000672578
0.000583876
0.00051693
0.000527493
0.000547356
0.00061497
0.000704082
0.000756393
0.000730116
0.000621323
0.000465759
0.000484696
0.000799919
0.000871255
0.000774055
0.000657824
0.000453765
0.000290108
0.000228234
0.0001988
0.000186043
0.000179582
0.000184347
0.000178016
0.000165284
0.000144749
0.000127086
0.000117072
0.00011905
0.000115059
0.000115632
0.000114206
0.000114297
0.000123927
0.000116437
0.000161158
0.000138498
0.000230865
0.00019246
0.000329359
0.000285088
0.000399601
0.000367828
0.000455805
0.000440799
0.000501024
0.000498862
0.000465269
0.000476255
0.000497032
0.000417115
0.000428837
0.000451039
0.000470795
0.000363723
0.000371017
0.000393703
0.000379813
0.000353029
0.000354074
0.000355715
0.000359214
0.000327926
0.000323624
0.000321712
0.000321749
0.000327915
0.00031558
0.000305933
0.000298867
0.000316795
0.000318282
0.00029717
0.000302761
0.000385962
0.000356682
0.000300309
0.000327402
0.000414563
0.000407858
0.000414758
0.000379526
0.000393995
0.000393233
0.000413714
0.000361198
0.000381297
0.000369076
0.000363337
0.000416467
0.000374296
0.000437822
0.000450295
0.00018954
0.000425517
0.000290903