/*--------------------------------*- C++ -*----------------------------------*\
  =========                 |
  \\      /  F ield         | OpenFOAM: The Open Source CFD Toolbox
   \\    /   O peration     | Website:  https://openfoam.org
    \\  /    A nd           | Version:  dev
     \\/     M anipulation  |
\*---------------------------------------------------------------------------*/
FoamFile
{
    version     2.0;
    format      ascii;
    class       volScalarField;
    location    "2500";
    object      CO2;
}
// * * * * * * * * * * * * * * * * * * * * * * * * * * * * * * * * * * * * * //

dimensions      [0 0 0 0 0 0 0];

internalField   nonuniform List<scalar> 
9851
(
5.72037e-26
1.70799e-25
1.20106e-25
3.03911e-25
4.39077e-25
8.19142e-26
5.74448e-25
9.06053e-25
4.41452e-25
2.94936e-26
8.57313e-25
1.54633e-24
1.04283e-24
3.5372e-25
1.36889e-26
1.20541e-24
2.96107e-24
1.93282e-24
7.52349e-25
1.9238e-25
1.50276e-26
1.57924e-24
4.1147e-24
4.44782e-24
1.76525e-24
5.92899e-25
1.1331e-25
6.23953e-27
2.04056e-24
5.6372e-24
7.61884e-24
4.83412e-24
1.30105e-24
3.69146e-25
4.95927e-26
1.46247e-27
2.61669e-24
9.23119e-24
1.22395e-23
8.9753e-24
4.39295e-24
1.00361e-24
1.98324e-25
1.92741e-26
4.85197e-28
1.80867e-24
1.20702e-23
1.85016e-23
1.56215e-23
7.96912e-24
3.30668e-24
5.20156e-25
6.06301e-26
6.12728e-27
2.33206e-28
2.44391e-24
1.38187e-23
2.59705e-23
2.53224e-23
1.69079e-23
7.40199e-24
2.46217e-24
2.22969e-25
2.25068e-26
1.92457e-27
7.20742e-29
1.46037e-24
1.40628e-23
2.89638e-23
3.79167e-23
2.85479e-23
1.36028e-23
5.00897e-24
1.18134e-24
1.46769e-25
8.87365e-27
5.89924e-28
1.88054e-29
2.2189e-24
1.31935e-23
3.18228e-23
5.85602e-23
4.71305e-23
2.76009e-23
1.07652e-23
2.99175e-24
6.04929e-25
7.1859e-26
3.19332e-27
1.2714e-28
6.7585e-30
1.25984e-24
1.15286e-23
4.54535e-23
8.14893e-23
7.29522e-23
4.51304e-23
2.02582e-23
6.53908e-24
1.54108e-24
2.97337e-25
2.85601e-26
1.02319e-27
6.59162e-29
5.93817e-31
1.54462e-24
1.35514e-23
4.54586e-23
9.93053e-23
1.12427e-22
7.6567e-23
4.30681e-23
1.61395e-23
4.73428e-24
7.45803e-25
1.19114e-25
1.11007e-26
5.60067e-28
1.21067e-29
3.4044e-31
1.18735e-24
9.52973e-24
4.06831e-23
1.29595e-22
1.58051e-22
1.2736e-22
6.42542e-23
3.41417e-23
1.15543e-23
3.12515e-24
4.66116e-25
5.33714e-26
3.64836e-27
1.45674e-28
3.46381e-30
8.14397e-32
2.1277e-24
7.48278e-24
5.47357e-23
1.52308e-22
2.25358e-22
1.98686e-22
1.21876e-22
5.23703e-23
2.06558e-23
7.53399e-24
1.7147e-24
2.12131e-25
1.27021e-26
1.02573e-27
5.29174e-29
1.34001e-30
2.58859e-31
2.07464e-24
1.1889e-23
4.1288e-23
1.69783e-22
2.87439e-22
2.94179e-22
2.07863e-22
9.53505e-23
4.78629e-23
1.44482e-23
4.70375e-24
8.34371e-25
6.87491e-26
5.55164e-27
3.40283e-28
8.97403e-30
2.96468e-30
1.45387e-30
2.37632e-24
1.02146e-23
5.04851e-23
1.83871e-22
3.4357e-22
3.91891e-22
3.32846e-22
2.00074e-22
8.26249e-23
3.64897e-23
1.06968e-23
2.55404e-24
2.98197e-25
2.29441e-26
1.99216e-27
9.95421e-29
1.69834e-29
2.10079e-29
1.48833e-29
2.78559e-24
1.17833e-23
5.70612e-23
1.73451e-22
3.71456e-22
5.41879e-22
5.01501e-22
3.06272e-22
1.67464e-22
6.34798e-23
2.42649e-23
6.63497e-24
9.28265e-25
7.46576e-26
7.66554e-27
3.83324e-28
1.68324e-28
1.60994e-28
1.48155e-28
1.01142e-28
1.80003e-24
1.57444e-23
6.82367e-23
1.72017e-22
4.24843e-22
7.61759e-22
6.87807e-22
5.05711e-22
2.80726e-22
1.35959e-22
4.83558e-23
1.57069e-23
2.85556e-24
2.54599e-25
3.04414e-26
2.13184e-27
9.64526e-28
1.12177e-27
1.52982e-27
9.10564e-28
6.79032e-28
2.05684e-24
2.09005e-23
8.80238e-23
1.72305e-22
5.08411e-22
9.45763e-22
9.8255e-22
7.77409e-22
4.09131e-22
2.28955e-22
8.78653e-23
3.20767e-23
8.33707e-24
9.49637e-25
9.50717e-26
1.30694e-26
7.44439e-27
6.68051e-27
1.04141e-26
8.55619e-27
1.21392e-26
4.07706e-27
2.96627e-24
2.25302e-23
7.76975e-23
2.60371e-22
5.11444e-22
9.84082e-22
1.35618e-21
1.09267e-21
7.43482e-22
3.26523e-22
1.77649e-22
5.64503e-23
1.98792e-23
3.97637e-24
4.30429e-25
4.47802e-26
2.78248e-26
6.32973e-26
6.67533e-26
9.74083e-26
9.92697e-26
8.22586e-26
4.06705e-26
1.74283e-24
2.14801e-23
1.01606e-22
3.45694e-22
6.51098e-22
1.2563e-21
1.66989e-21
1.69091e-21
1.15746e-21
6.19969e-22
2.53739e-22
1.07847e-22
4.0378e-23
9.91133e-24
1.58351e-24
2.35152e-25
1.05484e-25
3.30313e-25
4.5995e-25
5.41199e-25
7.78784e-25
7.76456e-25
8.53432e-25
2.69999e-25
4.42241e-24
1.36925e-23
9.3029e-23
3.96433e-22
8.16276e-22
1.30614e-21
2.12184e-21
2.26484e-21
1.71631e-21
1.06177e-21
4.81523e-22
2.06552e-22
7.2112e-23
2.1697e-23
3.28543e-24
8.70597e-25
6.82486e-25
1.0431e-24
3.428e-24
5.50772e-24
6.54411e-24
6.63254e-24
7.10519e-24
7.86121e-24
4.21673e-24
4.91072e-24
2.56647e-23
7.51944e-23
3.95729e-22
9.15885e-22
1.69673e-21
2.83349e-21
3.07833e-21
2.35799e-21
1.61469e-21
8.92165e-22
3.63409e-22
1.51879e-22
4.16107e-23
1.07043e-23
2.42918e-24
3.11216e-24
5.34567e-24
1.34129e-23
3.62529e-23
5.8881e-23
6.88293e-23
7.55003e-23
6.02945e-23
7.61666e-23
4.88897e-23
1.90423e-24
3.2004e-23
8.69728e-23
3.76859e-22
9.62143e-22
2.21194e-21
3.19842e-21
4.08919e-21
3.69532e-21
2.40841e-21
1.42757e-21
6.33474e-22
2.31439e-22
9.4489e-23
2.61894e-23
9.98177e-24
1.55901e-23
3.81883e-23
9.53902e-23
1.67187e-22
4.45774e-22
6.67524e-22
6.51822e-22
6.39605e-22
8.12094e-22
4.88272e-22
4.77632e-22
6.88384e-25
1.79551e-23
1.40019e-22
3.99333e-22
8.45322e-22
2.68853e-21
4.00449e-21
6.16071e-21
5.08275e-21
3.67611e-21
1.93469e-21
1.16368e-21
5.25912e-22
1.56164e-22
6.98395e-23
6.40315e-23
1.25526e-22
2.17044e-22
6.35777e-22
1.35012e-21
3.12133e-21
5.0993e-21
8.61142e-21
6.89291e-21
6.13149e-21
7.78447e-21
6.41246e-21
3.35528e-21
5.52321e-25
1.074e-23
9.74731e-23
5.07995e-22
8.74974e-22
2.61733e-21
4.68034e-21
7.70413e-21
7.76972e-21
4.89413e-21
3.33809e-21
1.60253e-21
8.74529e-22
3.8828e-22
2.07254e-22
3.51172e-22
9.94117e-22
2.54443e-21
3.52437e-21
1.13641e-20
1.99527e-20
4.10077e-20
6.93779e-20
9.62377e-20
9.02684e-20
5.95517e-20
6.85643e-20
3.94478e-20
2.06575e-20
1.3332e-24
7.99007e-24
9.59112e-23
5.03796e-22
1.32086e-21
2.50624e-21
6.11476e-21
9.94239e-21
1.09348e-20
7.62376e-21
5.34185e-21
2.9699e-21
1.40068e-21
7.88337e-22
8.79461e-22
2.47555e-21
7.81488e-21
2.17683e-20
4.24491e-20
6.96974e-20
1.94815e-19
3.67491e-19
5.20701e-19
6.84669e-19
8.08234e-19
6.14198e-19
6.57854e-19
5.03079e-19
2.37029e-19
1.31486e-19
2.90668e-24
1.31135e-23
6.73549e-23
3.99037e-22
1.4071e-21
3.16726e-21
7.34251e-21
1.2097e-20
1.39566e-20
1.37659e-20
8.36722e-21
4.33708e-21
2.5894e-21
2.53797e-21
5.8466e-21
1.66888e-20
5.50564e-20
1.50425e-19
3.73325e-19
9.13905e-19
1.27473e-18
2.9299e-18
3.77638e-18
4.55565e-18
5.46102e-18
6.4972e-18
5.84255e-18
4.09723e-18
4.28372e-18
1.87018e-18
4.80058e-19
1.64905e-23
3.95823e-23
9.47954e-23
3.53308e-22
1.12013e-21
3.23493e-21
7.75899e-21
1.29448e-20
1.84673e-20
1.77755e-20
1.4068e-20
1.00983e-20
9.07493e-21
1.50957e-20
3.89227e-20
1.51039e-19
4.45027e-19
1.16806e-18
3.76925e-18
7.16989e-18
1.23076e-17
1.84137e-17
3.40322e-17
2.51172e-17
3.09686e-17
4.1848e-17
4.90596e-17
3.42452e-17
3.46559e-17
1.97288e-17
6.81001e-18
1.3398e-18
9.69027e-23
2.59833e-22
2.12848e-22
3.25568e-22
1.28725e-21
3.78013e-21
9.03094e-21
1.69205e-20
2.51465e-20
3.2298e-20
2.45956e-20
2.40097e-20
4.37924e-20
9.64277e-20
3.06329e-19
1.20165e-18
3.17937e-18
1.21739e-17
2.83177e-17
5.43031e-17
9.51583e-17
1.71975e-16
2.00664e-16
2.7684e-16
2.79264e-16
2.46179e-16
2.97739e-16
2.53039e-16
1.92081e-16
1.598e-16
4.75945e-17
1.47526e-17
1.39222e-18
4.23421e-22
1.52129e-21
1.14989e-21
1.09358e-21
1.49958e-21
4.5354e-21
1.0529e-20
2.35358e-20
3.98174e-20
5.01757e-20
4.86658e-20
7.26523e-20
2.17567e-19
7.56746e-19
2.23354e-18
8.02891e-18
2.88799e-17
8.14963e-17
2.10763e-16
3.66623e-16
6.72014e-16
1.0559e-15
1.43375e-15
1.79373e-15
2.06668e-15
1.97767e-15
1.87099e-15
1.76544e-15
1.42206e-15
9.22156e-16
5.17126e-16
1.49878e-16
3.28002e-17
1.89837e-18
1.89658e-17
4.24843e-21
5.58701e-21
5.55982e-21
3.82157e-21
3.25835e-21
9.7119e-21
1.5919e-20
3.67418e-20
8.50732e-20
1.13139e-19
1.20751e-19
2.49352e-19
9.7007e-19
4.54354e-18
1.54171e-17
4.98615e-17
1.89874e-16
5.70984e-16
1.33579e-15
3.20371e-15
5.85694e-15
8.94589e-15
1.29866e-14
1.67501e-14
1.86408e-14
1.83589e-14
1.76116e-14
1.55667e-14
1.32345e-14
9.22215e-15
5.92805e-15
2.49386e-15
3.06933e-16
1.45335e-16
1.20978e-15
7.70322e-18
7.49089e-17
2.22062e-20
2.33906e-20
1.7072e-20
1.92723e-20
1.41558e-20
2.37969e-20
4.34637e-20
6.37038e-20
1.43383e-19
2.80278e-19
3.35538e-19
9.77857e-19
4.70988e-18
2.43464e-17
1.04113e-16
3.63333e-16
1.15503e-15
3.94846e-15
1.15469e-14
2.74512e-14
5.36981e-14
8.74329e-14
1.22111e-13
1.56582e-13
1.74194e-13
1.73421e-13
1.68025e-13
1.44654e-13
1.16877e-13
8.6376e-14
6.63818e-14
4.98262e-14
1.07078e-14
5.66403e-14
8.65987e-15
6.76682e-14
8.028e-14
9.11115e-16
7.81776e-15
3.3353e-17
4.77117e-16
5.09324e-20
1.80962e-19
1.08955e-19
8.2751e-20
5.16621e-20
7.13883e-20
1.16911e-19
2.69318e-19
4.34175e-19
5.83302e-19
1.04463e-18
2.48496e-18
1.85907e-17
1.02906e-16
5.62797e-16
2.21021e-15
8.81016e-15
3.16857e-14
9.99192e-14
2.57408e-13
5.33049e-13
9.0308e-13
1.23779e-12
1.53118e-12
1.78915e-12
1.58557e-12
1.51642e-12
1.29909e-12
1.01642e-12
7.39978e-13
6.41423e-13
8.34701e-13
3.08626e-13
1.374e-12
4.20628e-13
7.8793e-14
6.09207e-13
7.28685e-13
5.56588e-15
6.50355e-14
2.06304e-16
3.14537e-15
3.37652e-19
8.53572e-19
5.10374e-19
5.11187e-19
2.6653e-19
2.08792e-19
4.07536e-19
6.23969e-19
1.07417e-18
1.98545e-18
2.20728e-18
6.74127e-18
5.29442e-17
4.21558e-16
2.37772e-15
1.28282e-14
6.06415e-14
2.5064e-13
8.59248e-13
2.34569e-12
5.06685e-12
8.87245e-12
1.27454e-11
1.5124e-11
1.72619e-11
1.40696e-11
1.30423e-11
1.08755e-11
8.17128e-12
5.75454e-12
5.09923e-12
9.96437e-12
6.04986e-12
2.52277e-11
2.52224e-12
1.39215e-11
4.32895e-12
7.01255e-13
5.99647e-12
6.72329e-12
4.46611e-14
5.58491e-13
1.0539e-15
2.49934e-14
9.83952e-19
2.70302e-18
2.5406e-18
2.72437e-18
1.27187e-18
9.87855e-19
9.96653e-19
2.44073e-18
3.95294e-18
4.14933e-18
8.06885e-18
1.31414e-17
1.54049e-16
1.50488e-15
1.02011e-14
6.64401e-14
3.7894e-13
1.83577e-12
6.96734e-12
2.04621e-11
4.61982e-11
8.26309e-11
1.23677e-10
1.5183e-10
1.63753e-10
1.24537e-10
1.08367e-10
8.54522e-11
6.12276e-11
4.14137e-11
3.4988e-11
8.02882e-11
9.15343e-11
3.03578e-10
6.64922e-11
2.77435e-10
2.66905e-11
1.46225e-10
4.3302e-11
6.21766e-12
5.65978e-11
6.06728e-11
3.7164e-13
4.76112e-12
8.35598e-15
2.00312e-13
2.86154e-18
1.17072e-17
8.32386e-18
9.00672e-18
6.86868e-18
3.10885e-18
3.46897e-18
5.31388e-18
1.09584e-17
1.2641e-17
1.91301e-17
3.25193e-17
3.02302e-16
4.32592e-15
3.74714e-14
2.97561e-13
2.06129e-12
1.17395e-11
5.20142e-11
1.67493e-10
4.00255e-10
7.35921e-10
1.1168e-09
1.51434e-09
1.5119e-09
1.11198e-09
8.91165e-10
6.46847e-10
4.42253e-10
2.85344e-10
2.24152e-10
5.07356e-10
8.8421e-10
2.39442e-09
1.02649e-09
3.37045e-09
6.98815e-10
2.9117e-09
2.68888e-10
1.459e-09
4.12117e-10
5.3741e-11
5.12734e-10
5.26323e-10
3.03472e-12
3.92384e-11
6.4089e-14
1.5813e-12
2.17292e-17
5.03575e-17
4.19395e-17
2.90243e-17
3.17852e-17
1.42938e-17
9.44621e-18
1.76672e-17
2.80605e-17
4.14934e-17
5.15428e-17
7.03041e-17
4.3237e-16
8.03241e-15
1.21524e-13
1.0645e-12
8.90143e-12
6.51543e-11
3.4417e-10
1.26051e-09
3.20916e-09
6.17454e-09
9.60632e-09
1.33685e-08
1.21731e-08
9.99109e-09
7.43739e-09
4.94808e-09
3.17962e-09
1.97618e-09
1.28511e-09
2.27009e-09
5.93824e-09
1.49615e-08
9.92245e-09
2.669e-08
1.06566e-08
3.45498e-08
6.90499e-09
2.82549e-08
2.55895e-09
1.35783e-08
3.70641e-09
4.43604e-10
4.40967e-09
4.31396e-09
2.39311e-11
3.07569e-10
4.91645e-13
1.20173e-11
6.16618e-17
1.03897e-16
1.73054e-16
1.32389e-16
1.11906e-16
7.05893e-17
4.75415e-17
4.1526e-17
8.59949e-17
8.52161e-17
1.08464e-16
1.72131e-16
6.26629e-16
1.25371e-14
2.23498e-13
3.1022e-12
3.12128e-11
2.80358e-10
1.96926e-09
8.70194e-09
2.30818e-08
4.59845e-08
7.89296e-08
1.10575e-07
1.03556e-07
8.90019e-08
6.31975e-08
4.02222e-08
2.36094e-08
1.39118e-08
7.82625e-09
7.88449e-09
2.92726e-08
6.27003e-08
6.62639e-08
1.63306e-07
1.00583e-07
2.67792e-07
1.01137e-07
3.19887e-07
6.29402e-08
2.49662e-07
2.26939e-08
1.16854e-07
3.1234e-08
3.44123e-09
3.54336e-08
3.29197e-08
1.7894e-10
2.25974e-09
3.64556e-12
8.70371e-11
3.45388e-16
5.41555e-16
6.44681e-16
4.9074e-16
3.66536e-16
2.38369e-16
1.23473e-16
1.35658e-16
2.03857e-16
2.74317e-16
2.77507e-16
3.53331e-16
7.61139e-16
1.58661e-14
3.39106e-13
6.10581e-12
8.86349e-11
9.71526e-10
8.39732e-09
4.51082e-08
1.44134e-07
2.88516e-07
5.42935e-07
7.99804e-07
8.56239e-07
7.64421e-07
5.45657e-07
3.35468e-07
1.86346e-07
9.9015e-08
5.27168e-08
3.03333e-08
9.78653e-08
1.73425e-07
3.21647e-07
6.66342e-07
6.51024e-07
1.5534e-06
9.07134e-07
2.35343e-06
8.61774e-07
2.61979e-06
5.22122e-07
1.97197e-06
1.8558e-07
9.16949e-07
2.42938e-07
2.47847e-08
2.62623e-07
2.31577e-07
1.25383e-09
1.53778e-08
2.55718e-11
5.8592e-10
1.82109e-15
3.78632e-15
2.90216e-15
2.14835e-15
1.46724e-15
7.52092e-16
5.07807e-16
3.28396e-16
4.71955e-16
6.55024e-16
8.33418e-16
7.80541e-16
1.17128e-15
1.75346e-14
4.28824e-13
9.09633e-12
1.66328e-10
2.5812e-09
2.67373e-08
1.64636e-07
5.34692e-07
1.50058e-06
3.20703e-06
5.2798e-06
6.5382e-06
6.15991e-06
4.47744e-06
2.67933e-06
1.41701e-06
7.07721e-07
3.4842e-07
1.51479e-07
2.38508e-07
3.40698e-07
1.06734e-06
1.84592e-06
2.9869e-06
5.74133e-06
5.42335e-06
1.18802e-05
6.99667e-06
1.69102e-05
6.38378e-06
1.77645e-05
3.85805e-06
1.32427e-05
1.37728e-06
6.34585e-06
1.71428e-06
1.6406e-07
1.76834e-06
1.48177e-06
8.03415e-09
9.49698e-08
1.65098e-10
3.57485e-09
1.88741e-14
3.46334e-14
2.35265e-14
1.26692e-14
7.08411e-15
3.95566e-15
1.67815e-15
1.20865e-15
1.2596e-15
1.82018e-15
2.01706e-15
2.09842e-15
2.38649e-15
1.77643e-14
4.70803e-13
1.0747e-11
2.30967e-10
4.58608e-09
6.28045e-08
4.53339e-07
1.62111e-06
5.73286e-06
1.51067e-05
2.88052e-05
4.13022e-05
4.27019e-05
3.2303e-05
1.91245e-05
9.64589e-06
4.55366e-06
2.14469e-06
9.98903e-07
5.65192e-07
0
2.55875e-06
3.76061e-06
9.15555e-06
1.44411e-05
2.15644e-05
3.68933e-05
3.57101e-05
6.82823e-05
4.32717e-05
9.40166e-05
3.8446e-05
9.58726e-05
2.36459e-05
7.1657e-05
8.90991e-06
3.59184e-05
1.0494e-05
9.83695e-07
1.03425e-05
8.30396e-06
4.61731e-08
5.24403e-07
9.48414e-10
1.91977e-08
1.77814e-13
3.5077e-13
2.33203e-13
1.07688e-13
4.83336e-14
2.51525e-14
9.55332e-15
4.84847e-15
4.40089e-15
6.12257e-15
6.78764e-15
7.73599e-15
7.18235e-15
1.85955e-14
4.61239e-13
1.15361e-11
2.67101e-10
6.10933e-09
1.0514e-07
8.90936e-07
3.71335e-06
1.55495e-05
4.7195e-05
0.000103385
0.000167486
0.000196392
0.00016472
0.000107784
5.68186e-05
2.56902e-05
1.13655e-05
5.17711e-06
6.01197e-06
4.77336e-06
7.57928e-06
2.00765e-05
2.84348e-05
5.61523e-05
8.13497e-05
0.00011275
0.000172169
0.000173327
0.000282788
0.000207691
0.000370445
0.000183167
0.000391737
0.000116083
0.000303619
4.70889e-05
0.000163015
5.25515e-05
5.24031e-06
4.96324e-05
3.82737e-05
2.32131e-07
2.55009e-06
4.68365e-09
8.80532e-08
1.35246e-12
3.08637e-12
2.313e-12
1.01803e-12
3.96477e-13
1.87327e-13
6.25203e-14
2.33638e-14
1.91497e-14
2.23142e-14
2.63111e-14
2.82216e-14
2.65078e-14
2.90819e-14
3.96532e-13
1.1122e-11
2.72106e-10
6.61766e-09
1.34433e-07
1.32675e-06
6.3865e-06
3.01659e-05
9.77301e-05
0.000227454
0.000378619
0.000490243
0.000502219
0.000398717
0.000232595
0.000113932
4.95388e-05
2.1724e-05
1.67168e-05
5.89239e-05
8.03431e-05
3.62327e-05
4.85359e-05
0.000109614
0.000146094
0.000242184
0.000322299
0.000411297
0.000554767
0.000570945
0.000790521
0.000663967
0.000964348
0.000634278
0.0010219
0.000441883
0.000901393
0.000199837
0.00056595
0.000211981
2.29705e-05
0.00019262
0.000143398
1.00388e-06
1.03771e-05
1.97123e-08
3.4282e-07
7.29193e-12
2.03731e-11
1.91236e-11
9.70891e-12
3.46518e-12
1.47946e-12
3.81211e-13
1.19119e-13
8.01209e-14
9.15692e-14
1.05041e-13
1.13509e-13
1.05388e-13
8.3632e-14
3.16195e-13
9.31257e-12
2.4841e-10
6.38679e-09
1.40852e-07
1.54012e-06
8.90416e-06
4.62862e-05
0.00015598
0.000355025
0.000594466
0.000780771
0.000880219
0.000846744
0.000660638
0.000368602
0.00016994
7.57914e-05
5.17966e-05
0.000105722
0.000149094
0.000282879
0.000355947
0.000184195
0.000233982
0.000406296
0.00050094
0.000702775
0.000848839
0.00100704
0.00121615
0.00126518
0.0015474
0.001416
0.00178391
0.00139787
0.00187227
0.00115355
0.00174874
0.000645903
0.00135112
0.000655061
8.37062e-05
0.000581302
0.000437275
3.84012e-06
3.71927e-05
6.72537e-08
1.11457e-06
2.19443e-11
8.17771e-11
1.12999e-10
7.57545e-11
3.07584e-11
1.12386e-11
2.4631e-12
6.74734e-13
3.33882e-13
3.63504e-13
4.7635e-13
4.648e-13
4.61007e-13
3.11473e-13
3.72352e-13
6.29362e-12
1.96997e-10
5.39394e-09
1.34092e-07
1.5432e-06
1.05973e-05
6.0277e-05
0.000209197
0.000477431
0.000775152
0.00103614
0.00121437
0.0012902
0.0011995
0.000898069
0.000476764
0.000218348
0.000157713
0.000246441
0.000251497
0.000428538
0.000538334
0.000798222
0.000910711
0.000597103
0.000697778
0.000987741
0.00112596
0.00140897
0.00158161
0.00179719
0.00201926
0.00211397
0.00239981
0.00230026
0.00267006
0.00229644
0.00277787
0.00204091
0.00266118
0.00147082
0.00225267
0.00147919
0.000257136
0.00133202
0.00101925
1.24722e-05
0.000113336
1.83101e-07
3.00254e-06
3.29891e-11
1.70626e-10
3.27898e-10
3.97399e-10
2.46866e-10
7.87601e-11
1.5894e-11
3.91943e-12
1.72881e-12
1.41188e-12
1.43626e-12
1.6224e-12
1.73874e-12
1.26536e-12
9.03548e-13
4.40813e-12
1.27325e-10
3.86708e-09
1.08245e-07
1.55436e-06
1.11698e-05
6.87424e-05
0.000250423
0.0005707
0.000936201
0.00122598
0.0014497
0.0016142
0.0016745
0.0015102
0.00106853
0.000555244
0.000368991
0.000747273
0.000626922
0.000845519
0.00102246
0.00114481
0.00149669
0.0016189
0.00125676
0.00137992
0.00173612
0.0018804
0.00221238
0.00237654
0.00263842
0.00283953
0.00298134
0.00323363
0.00318159
0.00351431
0.00318719
0.00363376
0.00294269
0.00353022
0.00236228
0.00312528
0.00234435
0.000631235
0.00217434
0.00182149
3.56101e-05
0.00030153
3.34274e-07
6.54786e-06
1.6702e-10
5.65409e-10
9.74431e-10
1.14531e-09
4.34482e-10
9.32763e-11
2.21408e-11
8.9958e-12
6.93119e-12
6.28504e-12
6.49646e-12
6.94373e-12
4.8892e-12
3.36042e-12
4.17485e-12
8.20327e-11
2.30044e-09
7.26624e-08
1.46316e-06
1.09393e-05
7.09698e-05
0.000273319
0.000639953
0.0010373
0.00132709
0.00154155
0.00173404
0.00190709
0.001965
0.0017142
0.0011638
0.000761983
0.00101939
0.00154468
0.00171314
0.00126589
0.00141202
0.00173776
0.00186153
0.00224395
0.00235507
0.00201218
0.00213089
0.00251915
0.00264575
0.00300478
0.00313667
0.00343091
0.00358632
0.00377313
0.00396318
0.00396334
0.00417556
0.00398125
0.00423383
0.00377041
0.00420361
0.00320781
0.00390048
0.00316334
0.00126923
0.00296912
0.00259765
9.07506e-05
0.000645992
5.23207e-07
1.55705e-05
3.86393e-10
1.46458e-09
2.30901e-09
1.65221e-09
4.61366e-10
1.16921e-10
4.70187e-11
3.45922e-11
3.0039e-11
2.33532e-11
1.82864e-11
1.75529e-11
1.3153e-11
7.83941e-12
4.87628e-11
1.48891e-09
4.30301e-08
1.0674e-06
1.00025e-05
6.9488e-05
0.000277919
0.000675507
0.00107103
0.00130229
0.00149077
0.00169591
0.00191194
0.00211225
0.00216911
0.0018431
0.00136904
0.00144783
0.00187224
0.00201035
0.00225787
0.00238635
0.00198728
0.00211906
0.00246151
0.00257007
0.0029388
0.0030097
0.00275704
0.00284972
0.00324573
0.00333366
0.0037046
0.00378997
0.00409989
0.00419937
0.00430989
0.00440182
0.00436105
0.00443132
0.00436996
0.00442142
0.00433948
0.00444646
0.00395042
0.00442735
0.00387802
0.00200892
0.00368634
0.00341819
0.00279363
0.000211809
0.00118165
7.42199e-07
2.8769e-05
7.19545e-10
2.87884e-09
3.20124e-09
1.71219e-09
5.4738e-10
2.45568e-10
1.79726e-10
1.47352e-10
1.11202e-10
7.47387e-11
7.43475e-11
6.81136e-11
2.5539e-11
3.68418e-11
8.01542e-10
2.3372e-08
6.58026e-07
7.95514e-06
6.49791e-05
0.000274028
0.00067903
0.00105711
0.00123625
0.00135813
0.00151141
0.00175751
0.00206459
0.00229813
0.00234405
0.00205483
0.00201108
0.00246461
0.00247637
0.00259029
0.00279065
0.00278289
0.00267174
0.00275877
0.00308497
0.00312844
0.00349589
0.00350752
0.00340438
0.00345061
0.00385315
0.00389326
0.00426666
0.00430312
0.00447044
0.00452028
0.00447939
0.00452709
0.00444081
0.00445567
0.00443214
0.00436537
0.00451709
0.00441233
0.00446998
0.00456077
0.00455926
0.00411654
0.00444186
0.0031658
0.00215586
0.00289776
0.0038829
0.00432113
0.00437549
0.00373791
0.000379417
0.00251099
0.00207498
0.00124292
4.38095e-07
2.31927e-05
1.18752e-09
4.09742e-09
4.18493e-09
2.2865e-09
1.31207e-09
9.89885e-10
7.60243e-10
5.35383e-10
3.35968e-10
1.9375e-10
1.68005e-10
9.31184e-11
5.05721e-11
4.34873e-10
1.10173e-08
3.44116e-07
5.606e-06
5.41683e-05
0.000260022
0.000667886
0.00102461
0.00116684
0.00121994
0.00119234
0.00125757
0.00169711
0.00221397
0.00248405
0.00255377
0.00254443
0.0026233
0.00271052
0.00268932
0.00276353
0.00273561
0.00297762
0.00288907
0.00311315
0.00306666
0.00347683
0.00339532
0.00386972
0.0037753
0.0039168
0.00390778
0.00431696
0.00430484
0.00454753
0.00454902
0.00457449
0.00461275
0.00448012
0.00453255
0.00429002
0.00430561
0.00418521
0.00413611
0.00408987
0.00449139
0.00433249
0.00401146
0.00417362
0.00458413
0.00459372
0.00462081
0.00450562
0.00460683
0.00351476
0.00322241
0.00419602
0.00453003
0.00458428
0.00404264
0.00151853
0.000314288
0.000931772
0.00285148
0.00238958
0
0.000376963
8.36408e-05
9.18571e-06
2.59936e-09
9.13031e-09
9.5808e-09
7.62099e-09
5.92569e-09
4.21074e-09
2.69506e-09
1.57007e-09
8.27052e-10
5.51823e-10
3.72172e-10
1.38397e-10
2.8047e-10
6.30424e-09
1.64273e-07
3.49302e-06
4.05949e-05
0.000228399
0.000638086
0.000979709
0.00110194
0.00109027
0.000907762
0.00073496
0.000961313
0.00170026
0.00239106
0.00267339
0.00278119
0.0027885
0.00269178
0.00265987
0.00258204
0.00280139
0.00272015
0.00296743
0.00279456
0.0032647
0.00312363
0.00361899
0.00344368
0.00401902
0.00383476
0.00426262
0.00417054
0.00453443
0.00448568
0.00463233
0.00462643
0.00459399
0.00464509
0.00440257
0.00452899
0.00410847
0.00417269
0.00424624
0.0043504
0.00393002
0.00391497
0.00399934
0.00402713
0.00433257
0.00412781
0.00384346
0.00394837
0.00453531
0.00465843
0.00458098
0.00434459
0.0046848
0.00382873
0.00354657
0.0044434
0.00469504
0.00468131
0.00431019
0.00182392
0.00115398
0.0031807
0.00271437
1.21612e-05
1.6017e-08
8.93831e-07
0.000487038
0.000123915
1.53504e-08
4.44702e-08
4.73367e-08
3.80284e-08
2.50703e-08
1.44241e-08
7.60916e-09
3.77877e-09
1.72489e-09
1.14184e-09
5.02011e-10
2.92024e-10
3.50655e-09
8.12937e-08
1.92124e-06
2.71427e-05
0.000187211
0.000583728
0.000930526
0.00104025
0.000978157
0.000684945
0.00040582
0.000467251
0.000888845
0.00177282
0.00251638
0.00277298
0.00283832
0.00269903
0.00227672
0.0022996
0.00237283
0.00230706
0.00262584
0.00248064
0.00272575
0.00246683
0.00323467
0.00298975
0.00360956
0.00333256
0.00402749
0.00376779
0.00437814
0.00422687
0.00459671
0.00451951
0.0046791
0.00467416
0.00466172
0.0047769
0.00446101
0.00459381
0.00471511
0.00484968
0.00410111
0.00421494
0.00435971
0.00452144
0.00384292
0.00391627
0.00396178
0.00406912
0.00411083
0.0038986
0.00378471
0.00378456
0.00438088
0.00463333
0.00443953
0.00411854
0.00468593
0.00411912
0.00385596
0.0046309
0.00472681
0.00474982
0.00453537
0.00212851
0.00141719
0.00350442
0.0030439
1.95932e-05
2.81587e-08
1.7544e-06
0.000661602
0.000201274
1.42761e-07
2.6349e-07
2.39161e-07
1.54614e-07
8.16428e-08
3.88737e-08
1.78446e-08
7.77893e-09
3.12696e-09
2.00854e-09
6.54135e-10
1.80936e-09
3.95121e-08
9.41906e-07
1.60722e-05
0.000142874
0.000514741
0.000878011
0.000983396
0.000884262
0.000528131
0.00023742
0.000210344
0.000385897
0.000884965
0.00179888
0.00254307
0.00275341
0.00263452
0.00200155
0.00183086
0.00175716
0.0019331
0.00186478
0.00223796
0.00205702
0.00232911
0.00201057
0.00301438
0.00267252
0.0034515
0.00308851
0.00392934
0.0036229
0.00438092
0.00418432
0.00463193
0.00453058
0.00487708
0.00490061
0.00496538
0.00508746
0.00518387
0.00527504
0.00469104
0.00486835
0.00504547
0.00521934
0.00423026
0.00441818
0.00462641
0.00484838
0.00388606
0.00406698
0.00408027
0.00427255
0.00387061
0.00374154
0.0038685
0.00374239
0.00415618
0.00451481
0.00422417
0.00387021
0.00460099
0.00437932
0.00414705
0.00474644
0.00468573
0.00475534
0.00470027
0.0024519
0.00172127
0.00382161
0.00338248
3.7838e-05
3.96826e-08
3.07858e-06
0.000912799
0.000326579
9.88208e-07
1.25949e-06
9.09548e-07
4.73541e-07
2.09281e-07
8.83444e-08
3.54117e-08
1.29466e-08
5.87594e-09
2.39396e-09
1.56672e-09
1.89301e-08
4.59468e-07
9.34526e-06
9.95605e-05
0.000433721
0.000821856
0.000933096
0.000811511
0.000420861
0.000152936
9.49729e-05
0.000148219
0.00036192
0.000878818
0.00167544
0.002291
0.00231967
0.00173185
0.00115132
0.00102935
0.0012789
0.00122556
0.00140003
0.00132211
0.00174098
0.00153598
0.00190329
0.00154928
0.00269541
0.00229288
0.00327346
0.00289119
0.00389496
0.00357968
0.00437441
0.00416209
0.00486163
0.00476734
0.00556274
0.00561454
0.00538168
0.00552957
0.00565519
0.00573658
0.00507825
0.00530931
0.0055345
0.00574538
0.0045098
0.00476817
0.00504297
0.00532539
0.00409849
0.00433035
0.00439315
0.00461744
0.00371635
0.00371036
0.0041113
0.00385004
0.00390357
0.00431951
0.0039713
0.00371113
0.00443817
0.00459849
0.00441458
0.004796
0.00456486
0.00468671
0.00479961
0.00280518
0.00207925
0.0041313
0.00373352
6.54901e-05
3.16262e-07
9.12583e-06
0.00125629
0.000504391
4.50709e-06
4.46126e-06
2.61437e-06
1.15982e-06
4.54236e-07
1.64776e-07
5.67744e-08
1.73328e-08
8.69768e-09
2.95994e-09
1.02241e-08
2.21246e-07
5.15718e-06
6.24308e-05
0.000345032
0.000758814
0.000888805
0.000762221
0.00035521
0.000110011
4.66781e-05
5.34332e-05
0.000126807
0.000345455
0.000763094
0.00122246
0.001378
0.000957599
0.000411363
0.00046854
0.000328218
0.000651987
0.00056986
0.000839911
0.000730561
0.00124432
0.00100605
0.00169828
0.00133676
0.00249047
0.00208773
0.00322573
0.00284411
0.00409986
0.00377779
0.00460269
0.00437773
0.0055578
0.00545502
0.00634393
0.00635179
0.00621849
0.00630133
0.00593295
0.00609175
0.00621552
0.0063019
0.00560711
0.00587756
0.00612583
0.00634061
0.00492964
0.00525591
0.00558665
0.00591
0.00444839
0.00472965
0.00483547
0.00509363
0.00368904
0.00382946
0.00448686
0.00411183
0.00372993
0.00407603
0.00377342
0.00368299
0.00421756
0.00475827
0.0046439
0.0047878
0.004377
0.00454948
0.00485032
0.00320495
0.00253283
0.00442838
0.00410385
0.000138404
1.83761e-05
6.95335e-05
0.00174105
0.000868277
1.53453e-05
1.21326e-05
6.11191e-06
2.33913e-06
7.83164e-07
2.49507e-07
7.38359e-08
2.54964e-08
1.06305e-08
7.97741e-09
1.12191e-07
2.1841e-06
3.43331e-05
0.000255917
0.000683479
0.000847472
0.000733947
0.00032738
9.06146e-05
2.78543e-05
1.94809e-05
3.96706e-05
0.000113427
0.00027417
0.000468043
0.000523178
0.000371463
0.000155321
6.45983e-05
3.927e-05
0.000145026
8.83032e-05
0.000280617
0.000206188
0.000531977
0.000381973
0.00101487
0.000743364
0.00165717
0.00128972
0.0024473
0.00204776
0.00342148
0.0030387
0.00471835
0.00436661
0.0052729
0.00502155
0.00614149
0.00601633
0.0059001
0.00662369
0.00652543
0.00629165
0.00641366
0.00651079
0.00663624
0.00670262
0.00669179
0.00621338
0.00648256
0.00670421
0.00687047
0.00546887
0.00584047
0.00619472
0.00651552
0.00492082
0.00524723
0.0053799
0.00566561
0.00380253
0.004094
0.00497814
0.00450047
0.00368755
0.00385288
0.00371421
0.003774
0.00398358
0.00486208
0.00482246
0.00471333
0.00415676
0.00436673
0.00484436
0.00365046
0.00308073
0.00470117
0.00447018
0.000410534
0.000393637
0.000497762
0.00240949
0.00164865
4.05294e-05
2.68254e-05
1.12663e-05
3.67255e-06
1.09532e-06
3.1001e-07
7.906e-08
3.42823e-08
1.16301e-08
5.57515e-08
1.05848e-06
1.66049e-05
0.000172224
0.000588531
0.00080696
0.00071842
0.00032754
8.69776e-05
2.22928e-05
9.16167e-06
1.17922e-05
3.21155e-05
8.00157e-05
0.000133116
0.000148938
0.000107815
4.47141e-05
8.94382e-06
1.80273e-05
8.32681e-06
5.84028e-05
3.22417e-05
0.000167731
0.000100118
0.000442381
0.000276011
0.00095916
0.000674587
0.00178583
0.001372
0.0026341
0.002213
0.00397408
0.00355056
0.00529376
0.0050173
0.00571854
0.00550391
0.00617668
0.00606442
0.00572753
0.0056447
0.00665243
0.00648728
0.00611465
0.00629533
0.00696327
0.00696541
0.00690751
0.00678909
0.00678861
0.00700146
0.00713933
0.00717946
0.00607158
0.00644571
0.00677169
0.00703454
0.00548115
0.00583648
0.0059755
0.00626962
0.00405091
0.00448185
0.00554684
0.00500067
0.00374631
0.00375962
0.0037449
0.00398932
0.00384006
0.00492984
0.00495237
0.00457981
0.00396982
0.00416908
0.00478677
0.00412152
0.00369385
0.00491938
0.00479575
0.00128689
0.00217226
0.00235765
0.00327679
0.00302401
8.58061e-05
4.56945e-05
1.61405e-05
4.67675e-06
1.27177e-06
3.20888e-07
8.02666e-08
2.93003e-08
3.3896e-08
5.67856e-07
8.74021e-06
0.000102095
0.000471995
0.00076549
0.000715611
0.000337456
9.0185e-05
2.23234e-05
7.43666e-06
4.87644e-06
7.95181e-06
1.93603e-05
3.00161e-05
3.44084e-05
2.53882e-05
1.06512e-05
2.38284e-06
2.71167e-06
1.14755e-06
9.99463e-06
4.55661e-06
4.01114e-05
2.02661e-05
0.000143212
7.69552e-05
0.000431919
0.000256194
0.000995044
0.000677086
0.00207421
0.00157333
0.00308812
0.00258957
0.00466739
0.00422377
0.00533311
0.00516564
0.0056007
0.00555608
0.00541414
0.0059504
0.00582249
0.00524897
0.00521806
0.00647364
0.00619077
0.00565829
0.00590865
0.0071478
0.00705133
0.00691594
0.00672703
0.00722617
0.00732056
0.00732982
0.00728583
0.00665695
0.00698015
0.00722927
0.0073935
0.00607812
0.00643221
0.00655918
0.00682811
0.00442761
0.00498019
0.00614379
0.00557223
0.00392088
0.00376435
0.00386454
0.00433623
0.00381368
0.00495137
0.00504927
0.00441763
0.00389428
0.0040324
0.00468309
0.0045775
0.00432318
0.00508161
0.00505375
0.00322709
0.00240382
0.0039395
0.00418018
0.00428723
0.000142507
6.18435e-05
1.89104e-05
5.00135e-06
1.24644e-06
2.96039e-07
8.6704e-08
3.48906e-08
2.81429e-07
5.30815e-06
5.41884e-05
0.000345046
0.000713005
0.000720157
0.000366613
0.000104471
2.69018e-05
8.11349e-06
3.8085e-06
3.52654e-06
4.71804e-06
6.08936e-06
6.60975e-06
4.88667e-06
2.19749e-06
8.17013e-07
4.40205e-07
1.61168e-06
9.16989e-07
7.3178e-06
3.22201e-06
3.30078e-05
1.57806e-05
0.000133797
6.75809e-05
0.000444129
0.000251909
0.00111647
0.000731641
0.00242524
0.00179503
0.00368565
0.00307092
0.00493463
0.00460469
0.00490941
0.00493867
0.00480504
0.00521709
0.00523829
0.00486347
0.00480497
0.00545994
0.0053241
0.00466874
0.0046669
0.00613282
0.00575606
0.00508137
0.005392
0.00717133