/*--------------------------------*- C++ -*----------------------------------*\
  =========                 |
  \\      /  F ield         | OpenFOAM: The Open Source CFD Toolbox
   \\    /   O peration     | Website:  https://openfoam.org
    \\  /    A nd           | Version:  dev
     \\/     M anipulation  |
\*---------------------------------------------------------------------------*/
FoamFile
{
    version     2.0;
    format      ascii;
    class       volScalarField;
    location    "2500";
    object      G;
}
// * * * * * * * * * * * * * * * * * * * * * * * * * * * * * * * * * * * * * //

dimensions      [1 0 -3 0 0 0 0];

internalField   nonuniform List<scalar> 
9851
(
4069.72
4075.64
4077.14
4080.79
4083.08
4085.41
4085.17
4088.25
4091.37
4094.5
4088.78
4092.65
4096.55
4100.46
4104.41
4091.62
4096.26
4100.93
4105.64
4110.38
4115.16
4093.73
4099.11
4104.53
4110.02
4115.56
4121.14
4126.78
4095.12
4101.2
4107.36
4113.59
4119.91
4126.31
4132.77
4139.28
4095.8
4102.58
4109.43
4116.38
4123.45
4130.63
4137.92
4145.28
4152.71
4095.81
4103.24
4110.76
4118.4
4126.18
4134.12
4142.2
4150.41
4158.7
4167.09
4095.16
4103.22
4111.38
4119.68
4128.14
4136.79
4145.62
4154.64
4163.8
4173.08
4182.46
4093.89
4102.55
4111.31
4120.23
4129.34
4138.66
4148.21
4157.98
4167.97
4178.14
4188.45
4198.86
4092.02
4101.24
4110.58
4120.09
4129.81
4139.76
4149.97
4160.46
4171.23
4182.24
4193.47
4204.85
4216.36
4089.59
4099.34
4109.22
4119.28
4129.56
4140.11
4150.95
4162.1
4173.58
4185.38
4197.47
4209.82
4222.34
4235.01
4086.62
4096.87
4107.25
4117.82
4128.63
4139.73
4151.15
4162.92
4175.07
4187.59
4200.48
4213.72
4227.24
4240.98
4254.88
4083.15
4093.85
4104.7
4115.75
4127.05
4138.66
4150.62
4162.96
4175.71
4188.9
4202.52
4216.57
4231.02
4245.8
4260.83
4276.05
4079.2
4090.34
4101.62
4113.11
4124.86
4136.93
4149.37
4162.23
4175.54
4189.33
4203.62
4218.41
4233.69
4249.43
4265.55
4281.97
4298.6
4074.82
4086.35
4098.03
4109.91
4122.08
4134.57
4147.45
4160.78
4174.59
4188.92
4203.81
4219.27
4235.3
4251.89
4269.01
4286.58
4304.48
4322.64
4070.03
4081.92
4093.96
4106.21
4118.74
4131.62
4144.9
4158.64
4172.89
4187.71
4203.13
4219.18
4235.89
4253.24
4271.24
4289.84
4308.96
4328.48
4348.28
4064.86
4077.08
4089.45
4102.03
4114.9
4128.11
4141.74
4155.85
4170.49
4185.73
4201.61
4218.18
4235.47
4253.51
4272.28
4291.79
4312
4332.8
4354.06
4375.66
4059.35
4071.86
4084.53
4097.41
4110.57
4124.08
4138.02
4152.45
4167.43
4183.03
4199.31
4216.33
4234.12
4252.73
4272.18
4292.48
4313.62
4335.56
4358.2
4381.37
4404.94
4053.54
4066.29
4079.23
4092.37
4105.79
4119.57
4133.78
4148.48
4163.75
4179.66
4196.28
4213.66
4231.87
4250.96
4270.99
4291.97
4313.91
4336.81
4360.64
4385.28
4410.55
4436.29
4047.45
4060.42
4073.59
4086.96
4100.61
4114.61
4129.04
4143.98
4159.49
4175.65
4192.54
4210.23
4228.78
4248.27
4268.76
4290.3
4312.92
4336.64
4361.46
4387.36
4414.2
4441.79
4469.92
4041.11
4054.27
4067.64
4081.21
4095.05
4109.24
4123.86
4138.99
4154.69
4171.06
4188.17
4206.09
4224.92
4244.71
4265.56
4287.54
4310.7
4335.1
4360.74
4387.66
4415.83
4445.12
4475.28
4506.11
4034.57
4047.88
4061.41
4075.15
4089.15
4103.5
4118.27
4133.54
4149.4
4165.92
4183.2
4201.3
4220.32
4240.35
4261.47
4283.77
4307.34
4332.26
4358.58
4386.33
4415.55
4446.23
4478.22
4511.29
4545.2
4027.84
4041.28
4054.94
4068.81
4082.95
4097.42
4112.31
4127.69
4143.66
4160.29
4177.68
4195.9
4215.06
4235.25
4256.55
4279.08
4302.93
4328.21
4355.02
4383.43
4413.48
4445.24
4478.72
4513.76
4550.14
4587.53
4020.96
4034.5
4048.27
4062.24
4076.47
4091.04
4106.01
4121.47
4137.5
4154.2
4171.65
4189.95
4209.18
4229.46
4250.87
4273.54
4297.57
4323.08
4350.2
4379.06
4409.75
4442.33
4476.91
4513.51
4552.04
4592.19
4633.48
4013.95
4027.57
4041.41
4055.46
4069.76
4084.39
4099.41
4114.92
4130.98
4147.7
4165.17
4183.49
4202.75
4223.05
4244.5
4267.22
4291.33
4316.95
4344.24
4373.35
4404.44
4437.62
4473
4510.72
4550.9
4593.39
4637.78
4683.55
4006.83
4020.5
4034.4
4048.5
4062.85
4077.51
4092.56
4108.07
4124.14
4140.84
4158.29
4176.57
4195.8
4216.07
4237.49
4260.19
4284.29
4309.93
4337.26
4366.45
4397.71
4431.22
4467.15
4505.64
4546.93
4591.17
4638.13
4687.41
4738.37
3999.63
4013.33
4027.27
4041.39
4055.76
4070.43
4085.47
4100.97
4117.01
4133.66
4151.05
4169.25
4188.4
4208.58
4229.92
4252.53
4276.55
4302.11
4329.37
4358.51
4389.75
4423.32
4459.49
4498.45
4540.45
4585.8
4634.61
4686.71
4741.66
4798.7
3992.37
4006.09
4020.04
4034.17
4048.53
4063.18
4078.2
4093.66
4109.63
4126.21
4143.49
4161.58
4180.59
4200.64
4221.83
4244.3
4268.16
4293.56
4320.66
4349.64
4380.72
4414.15
4450.25
4489.32
4531.67
4577.64
4627.54
4681.58
4739.65
4801.26
4865.47
3985.07
3998.78
4012.73
4026.84
4041.18
4055.8
4070.77
4086.16
4102.04
4118.52
4135.67
4153.61
4172.45
4192.3
4213.29
4235.55
4259.2
4284.38
4311.24
4339.96
4370.76
4403.9
4439.69
4478.52
4520.81
4566.98
4617.38
4672.46
4732.55
4797.61
4867.1
4939.86
3977.75
3991.43
4005.36
4019.45
4033.75
4048.31
4063.21
4078.51
4094.28
4110.62
4127.62
4145.38
4164.01
4183.63
4204.37
4226.35
4249.73
4274.63
4301.18
4329.57
4359.99
4392.72
4428.04
4466.37
4508.19
4554.08
4604.48
4659.88
4720.91
4788.06
4861.39
4940.33
5023.35
3970.42
3984.07
3997.95
4012
4026.24
4040.74
4055.55
4070.74
4086.39
4102.57
4119.39
4136.94
4155.33
4174.68
4195.12
4216.79
4239.82
4264.36
4290.56
4318.56
4348.53
4380.75
4415.49
4453.14
4494.2
4539.34
4589.19
4644.31
4705.42
4773.34
4848.74
4932.05
5022.33
5092.76
5094.51
3963.1
3976.7
3990.53
4004.52
4018.69
4033.11
4047.82
4062.89
4078.39
4094.4
4111.01
4128.32
4146.44
4165.5
4185.61
4206.91
4229.55
4253.68
4279.44
4307
4336.48
4368.11
4402.18
4439.04
4479.16
4523.21
4571.96
4626.16
4686.62
4754.27
4830.24
4915.35
5011.13
5093.2
5088.72
5143.26
5144.73
3955.8
3969.34
3983.11
3997.02
4011.12
4025.44
4040.04
4054.97
4070.31
4086.14
4102.53
4119.58
4137.41
4156.13
4175.87
4196.78
4218.99
4242.65
4267.91
4294.95
4323.9
4354.92
4388.27
4424.25
4463.31
4506.08
4553.36
4606.01
4665.07
4731.59
4806.79
4892.25
4977.05
4964.67
5081.46
5016.03
5071.14
5142.74
5137.37
5197.31
5198.47
3948.54
3962
3975.7
3989.54
4003.54
4017.75
4032.23
4047.02
4062.19
4077.81
4093.97
4110.75
4128.26
4146.63
4165.97
4186.44
4208.17
4231.33
4256.06
4282.52
4310.87
4341.24
4373.85
4408.93
4446.87
4488.26
4533.84
4584.53
4641.46
4705.96
4779.36
4863.32
4950.75
4934.92
5002.72
5128.79
5058.16
5117.08
5195.76
5189.31
5255.31
5256.12
3941.33
3954.71
3968.32
3982.07
3995.97
4010.07
4024.41
4039.05
4054.04
4069.45
4085.37
4101.86
4119.05
4137.04
4155.96
4175.95
4197.17
4219.78
4243.93
4269.78
4297.48
4327.16
4359
4393.19
4430.01
4469.96
4513.75
4562.26
4616.61
4678.24
4748.82
4830.12
4918.03
4899.71
4987.07
4969.51
5042.9
5179.31
5102.49
5165.93
5252.59
5244.89
5317.69
5318.12
3934.17
3947.46
3960.98
3974.63
3988.42
4002.4
4016.61
4031.09
4045.89
4061.09
4076.75
4092.96
4109.81
4127.41
4145.88
4165.38
4186.04
4208.05
4231.58
4256.78
4283.8
4312.77
4343.81
4377.11
4412.86
4451.39
4493.37
4539.61
4591.15
4649.43
4716.22
4793.64
4880.56
4860.27
4950.63
4930.45
5025.27
5005.67
5085.25
5233.26
5149.4
5217.94
5313.67
5304.52
5384.99
5384.98
3927.08
3940.27
3953.69
3967.23
3980.91
3994.77
4008.83
4023.14
4037.76
4052.74
4068.15
4084.06
4100.57
4117.77
4135.79
4154.77
4174.85
4196.23
4219.07
4243.56
4269.87
4298.11
4328.38
4360.78
4395.48
4432.7
4472.92
4516.89
4565.57
4620.28
4682.75
4755.18
4839.4
4817.71
4909.21
4887
4984.62
4962.26
5065.44
5043.53
5129.96
5291.01
5199.18
5273.43
5379.46
5368.67
5457.75
5457.27
3920.06
3933.14
3946.46
3959.89
3973.45
3987.18
4001.09
4015.24
4029.67
4044.43
4059.58
4075.2
4091.36
4108.17
4125.73
4144.17
4163.66
4184.36
4206.47
4230.19
4255.72
4283.19
4312.7
4344.29
4377.99
4413.98
4452.55
4494.35
4540.22
4591.35
4649.33
4716.23
4795.9
4773.8
4864.03
4840.46
4938.77
4914.31
5020.04
4995.21
5107.79
5083.28
5177.26
5352.98
5252.09
5332.79
5450.54
5437.89
5536.67
5535.62
3913.12
3926.09
3939.3
3952.62
3966.05
3979.64
3993.41
4007.39
4021.63
4036.17
4051.07
4066.4
4082.22
4098.63
4115.73
4133.65
4152.52
4172.52
4193.86
4216.75
4241.42
4268.05
4296.76
4327.58
4360.45
4395.34
4432.43
4472.19
4515.39
4563.02
4616.55
4677.86
4752
4730.25
4816.65
4792.78
4889.1
4863.41
4969.21
4942.23
5056.98
5029.34
5152.41
5124.93
5227.31
5419.67
5308.47
5396.42
5527.51
5512.71
5622.42
5620.72
3906.26
3919.12
3932.22
3945.41
3958.72
3972.17
3985.79
3999.6
4013.65
4027.97
4042.63
4057.67
4073.16
4089.18
4105.83
4123.22
4141.48
4160.78
4181.32
4203.32
4227.04
4252.73
4280.57
4310.61
4342.76
4376.8
4412.67
4450.62
4491.28
4535.62
4584.86
4640.69
4708.97
4688.01
4769.17
4745.84
4837.5
4811.65
4914.58
4886.55
5000.55
4970.8
5095.45
5064.68
5199.35
5168.49
5280.37
5491.57
5368.64
5464.77
5611.06
5593.82
5716
5713.59
3899.49
3912.24
3925.22
3938.29
3951.47
3964.78
3978.24
3991.89
4005.74
4019.86
4034.27
4049.03
4064.2
4079.85
4096.06
4112.94
4130.6
4149.2
4168.92
4189.99
4212.7
4237.34
4264.17
4293.34
4324.79
4358.22
4393.24
4429.78
4468.2
4509.4
4554.58
4605.18
4667.64
4647.66
4722.97
4700.65
4786.14
4761.07
4858.37
4830.37
4940.47
4909.89
5032.81
5000.05
5135.53
5101.33
5248.84
5214.19
5336.74
5569.37
5433.02
5538.47
5702.14
5682.08
5818.46
5815.22
3892.82
3905.45
3918.31
3931.25
3944.3
3957.47
3970.78
3984.25
3997.93
4011.83
4026
4040.49
4055.35
4070.64
4086.44
4102.82
4119.9
4137.82
4156.73
4176.87
4198.5
4221.98
4247.65
4275.79
4306.44
4339.33
4373.87
4409.54
4446.27
4484.68
4526.03
4571.68
4628.37
4609.85
4678.92
4657.74
4736.56
4712.75
4802.86
4775.96
4879.3
4849.08
4966.88
4933.69
5066.16
5030.34
5177.42
5139.65
5301.15
5262.38
5396.81
5653.81
5502.12
5618.2
5801.69
5778.36
5930.95
5926.74
3886.25
3898.75
3911.49
3924.3
3937.22
3950.24
3963.4
3976.71
3990.2
4003.9
4017.84
4032.07
4046.63
4061.58
4076.97
4092.89
4109.42
4126.68
4144.82
4164.02
4184.57
4206.81
4231.18
4258.08
4287.65
4319.8
4354
4389.41
4425.24
4461.56
4499.49
4540.6
4586.29
4637.32
4617.83
4689.64
4667.19
4749.77
4724.43
4819.55
4790.8
4900.7
4868.28
4994.39
4958.64
5101.28
5062.56
5221.77
5180.65
5356.81
5313.98
5461.19
5745.78
5576.71
5704.96
5910.84
5883.83
6054.9
6049.51
3879.77
3892.15
3904.76
3917.45
3930.23
3943.12
3956.12
3969.27
3982.58
3996.08
4009.8
4023.77
4038.05
4052.67
4067.68
4083.16
4099.17
4115.82
4133.22
4151.53
4171.01
4192
4214.98
4240.39
4268.51
4299.45
4333.02
4368.37
4404.24
4439.58
4474.91
4511.98
4552.57
4605.09
4586.15
4645.59
4624.94
4699.93
4676.21
4762.93
4736.06
4836.72
4806.11
4923.26
4888.63
5023.89
4985.66
5139.32
5097.88
5269.94
5225.83
5416.92
5370.76
5531.12
5846.38
5658.19
5800.05
6030.9
5999.65
6191.99
6185.17
3873.4
3885.65
3898.14
3910.7
3923.34
3936.09
3948.94
3961.92
3975.06
3988.36
4001.87
4015.6
4029.6
4043.91
4058.57
4073.63
4089.16
4105.24
4121.95
4139.44
4157.9
4177.67
4199.23
4223.03
4249.37
4278.51
4310.64
4345.48
4381.8
4417.53
4451.68
4485.57
4521.66
4568.1
4550.89
4610.99
4591.14
4653.44
4631.74
4710.14
4685.1
4776.51
4748.04
4855.05
4822.55
4948
4911.21
5056.81
5016.27
5181.97
5138.26
5323.99
5277.51
5483.46
5435.12
5608.84
5956.83
5749.07
5905.94
6163.37
6127.36
6344.28
6335.81
3867.12
3879.26
3891.62
3904.05
3916.56
3929.16
3941.86
3954.69
3967.65
3980.76
3994.06
4007.56
4021.3
4035.31
4049.63
4064.31
4079.4
4094.95
4111.04
4127.77
4145.3
4163.92
4184.12
4206.32
4230.78
4257.73
4287.58
4320.69
4356.61
4393.45
4428.28
4460.63
4492.97
4534.46
4518.7
4572.18
4554.11
4616.38
4595.41
4661.09
4638.23
4720.61
4694.12
4791.14
4760.91
4875.5
4840.85
4976.21
4936.87
5094.74
5051.42
5231.33
5184.89
5386.43
5337.44
5559.28
5509.45
5697.91
6079.27
5853.3
6026.34
6310.22
6268.77
6513.94
6503.69
3861.04
3872.96
3885.2
3897.5
3909.88
3922.34
3934.89
3947.56
3960.35
3973.28
3986.37
3999.65
4013.14
4026.87
4040.88
4055.19
4069.87
4084.94
4100.46
4116.51
4133.21
4150.8
4169.76
4190.5
4213.18
4237.79
4264.87
4295.17
4329.12
4365.85
4402.41
4435.49
4465.77
4496.17
4536.9
4520.17
4575.37
4556.27
4621.32
4599.01
4668.71
4644.51
4731.75
4703.53
4807.28
4774.88
4898.49
4861.1
5008.26
4965.58
5138.14
5091.1
5288.08
5237.87
5458.42
5405.91
5646.95
5594.66
5801.06
6216.76
5973.66
6164.15
6473.86
6426.89
6702.7
6690.74
3866.86
3878.89
3891.06
3903.3
3915.63
3928.03
3940.54
3953.17
3965.92
3978.82
3991.88
4005.14
4018.6
4032.3
4046.28
4060.58
4075.21
4090.22
4105.66
4121.62
4138.31
4156.18
4175.68
4196.81
4219.3
4243.48
4270.37
4301.07
4335.76
4372.67
4407.84
4438.36
4465.98
4503.03
4485.98
4537.96
4520.24
4577.64
4557.24
4625.7
4601.75
4676.43
4650.55
4743.54
4713.19
4824.79
4789.67
4923.76
4882.93
5043.88
4996.95
5186.71
5134.75
5351.98
5296.43
5539.94
5482.28
5747.13
5690.37
5918.35
6373.81
6109.66
6320.47
6656.45
6605.75
6912.31
6899.25
3872.77
3884.73
3896.84
3909.03
3921.29
3933.64
3946.1
3958.68
3971.4
3984.26
3997.28
4010.5
4023.92
4037.59
4051.52
4065.76
4080.31
4095.21
4110.53
4126.43
4143.37
4161.83
4181.77
4202.58
4224.2
4247.51
4274.2
4305.42
4340.47
4376.46
4408.8
4435.76
4469.84
4453.45
4500.39
4482.55
4537.65
4518.73
4578.78
4556.83
4629.22
4603.36
4684.02
4656.09
4755.63
4722.73
4843.26
4804.88
4950.83
4905.84
5082.32
5030.13
5239.37
5181.14
5421.91
5359.21
5630.05
5565.22
5859.61
5795.76
6049.43
6554.04
6262.94
6437.23
6468.61
6861.16
6809.44
7144.86
7131.39
3878.61
3890.49
3902.54
3914.66
3926.86
3939.16
3951.57
3964.11
3976.77
3989.58
4002.56
4015.72
4029.09
4042.71
4056.57
4070.71
4085.14
4099.89
4115.11
4131.26
4148.88
4167.93
4187.63
4207.39
4227.56
4249.79
4276.58
4308.37
4342.9
4376.31
4404.4
4427.01
4465.37
4448.54
4496
4477.31
4535.77
4515.49
4578.6
4554.94
4631.77
4603.8
4691.17
4660.92
4767.68
4731.88
4862.21
4820.1
4978.89
4929.03
5122.3
5063.85
5294.69
5228.76
5496.54
5424.56
5727.7
5653.55
5984.74
5863.98
5901.07
6176.89
6141.52
6561
6720.6
6690.06
6406.54
6371.84
6253.31
6529.97
7090.19
6826.25
6966.57
6996.73
7401.08
7386.27
3884.36
3896.16
3908.14
3920.2
3932.35
3944.59
3956.95
3969.43
3982.03
3994.78
4007.7
4020.8
4034.11
4047.64
4061.41
4075.42
4089.69
4104.31
4119.77
4136.7
4155.11
4174.09
4192.75
4210.86
4229.41
4251.01
4278.17
4309.82
4342.37
4371.52
4395.01
4425.92
4409.77
4459.44
4442.3
4490.32
4470.94
4532.34
4510.8
4577.16
4551.84
4633.35
4603.27
4697.66
4664.87
4779.41
4740.42
4880.92
4834.72
5006.68
4951.4
5162.33
5096.72
5351.14
5276.2
5574.5
5495.06
5454.88
5825.75
5785.84
5701.02
5743.9
5961.45
6105.77
6066.81
5922.27
6216.78
6660.34
6797.17
6496.49
6460.29
6335.2
6627.86
7115.55
7294.7
7266.85
6939.7
7088.79
7683.38
7425.25
7585.31
7602.54
3890.02
3901.75
3913.66
3925.65
3937.74
3949.93
3962.23
3974.64
3987.17
3999.86
4012.7
4025.73
4038.95
4052.38
4066.02
4079.86
4093.98
4108.8
4125.14
4143.08
4161.63
4179.71
4196.78
4213.26
4230.87
4252.12
4279.11
4309.43
4338.49
4363.29
4383.35
4419.02
4403.31
4452.64
4435.38
4483.81
4463.86
4527.84
4505.16
4574.82
4547.95
4634.05
4602.05
4703.32
4667.86
4790.34
4748.05
4898.4
4847.91
5032.98
4971.83
5201.18
5127.61
5413.89
5372.98
5331.4
5290.14
5656.39
5611.41
5529.89
5486.76
5881.08
5837.8
5745.97
5792.54
6025.6
6177.91
6136.27
5982.6
6295.65
6765.79
6910.11
6592.1
6421.05
6553.1
6731.41
7242.85
7401.75
7060.73
7217.08
7746.49
7913.66
7910.94
7564.07
7729.56
3895.6
3907.25
3919.08
3931.01
3943.04
3955.17
3967.4
3979.73
3992.19
4004.79
4017.55
4030.48
4043.6
4056.9
4070.37
4084.05
4098.31
4114.06
4131.64
4149.94
4167.77
4184.38
4199.97
4215.52
4232.46
4253.28
4279.27
4307.09
4332.43
4353.67
4381.87
4367.38
4411.98
4396.61
4445.34
4428.13
4476.88
4456.58
4522.65
4498.93
4571.92
4543.62
4634.12
4600.38
4708.05
4670.07
4799.82
4754.39
4913.7
4858.83
5056.75
4989.39
5248.93
5208.27
5168.21
5128.88
5443.07
5399.22
5355.13
5311.19
5698.19
5649.46
5565.12
5518.64
5937.81
5890.86
5791.73
5841.93
6091.65
6253.27
6208.09
6044.66
6378.13
6877.32
7030.02
6693.08
6510.7
6650.69
6840.77
7378.11
7542.46
7188.92
7353
7899.58
8075.46
8072.5
7708.96
7881.31
3901.09
3912.64
3924.4
3936.28
3948.25
3960.3
3972.44
3984.69
3997.06
4009.56
4022.22
4035.05
4048.04
4061.18
4074.49
4088.24
4103.4
4120.62
4138.79
4156.55
4172.98
4188.24
4202.91
4217.81
4234.3
4254.5
4278.65
4303.35
4325.41
4344.38
4375.9
4362.34
4405.04
4390.09
4438.01
4420.92
4470.06
4449.57
4517.15
4492.61
4568.8
4539.28
4633.76
4598.61
4711.71
4671.49
4807.21
4758.99
4925.94
4866.85
5090.78
5053.42
5017.46
4982.4
5267.56
5224.51
5182.18
5140.79
5471.86
5425.05
5378.25
5331.6
5740.34
5600.08
5687.92
5550.34
5995.9
5945.04
5838.26
5892.28
6159.66
6331.81
6282.54
6108.54
6464.25
6995.56
7157.18
6799.56
6604.5
6753.41
6956.45
7520.8
7690.56
7324.95
7497.46
8060.41
8246.09
8242.6
7862.32
8041.93
3906.46
3917.92
3929.63
3941.45
3953.35
3965.31
3977.36
3989.51
4001.77
4014.17
4026.72
4039.42
4052.26
4065.24
4078.54
4093.1
4109.9
4127.99
4145.79
4162.17
4177.3
4191.67
4205.79
4220.3
4236.52
4255.83
4277.63
4299.28
4319.27
4345.53
4333.92
4370.64
4357.82
4398.54
4384.15
4431
4414.07
4463.84
4443.23
4511.88
4486.7
4565.85
4535.35
4633.01
4596.79
4714.03
4672.05
4812.07
4761.5
4933.93
4871.06
5100.63
5061.59
5023.84
4987.79
5285.39
5239.85
5195.15
5151.52
5500.31
5450.43
5400.75
5351.27
5782.98
5635.06
5726.67
5581.88
6055.53
6000.57
5885.68
5943.81
6230.05
6413.74
6359.86
6174.58
6554.08
7120.79
7292.24
6911.87
6702.74
6861.52
7078.69
7672.55
7848.68
7470.13
7652.26
8229.7
8426.33
8421.95
8027.11
8213.19
3911.68
3923.08
3934.76
3946.52
3958.34
3970.2
3982.13
3994.16
4006.31
4018.6
4031.02
4043.59
4056.27
4069.18
4083.13
4099.41
4117.4
4135.3
4151.74
4166.78
4181.04
4194.93
4208.74
4223.14
4239.25
4257.65
4277.48
4297.46
4317.08
4342.94
4332.37
4366.32
4354.3
4392.85
4379.1
4424.65
4407.92
4458.44
4437.67
4507.21
4481.58
4563.11
4531.84
4631.66
4594.69
4714.77
4671.56
4813.66
4761.27
4954.36
4919.13
4854.69
4886.42
5109.25
5068.28
5028.67
4990.75
5302.29
5254.1
5206.86
5160.85
5528.47
5475.34
5422.52
5369.97
5826.14
5670.05
5765.63
5613.19
6117.01
6057.67
5933.92
5996.6
6302.94
6498.93
6440.01
6242.86
6647.62
7253.67
7436.61
7030.26
6805.84
6975.44
7208.26
7836.45
8021.29
7626.41
7820.42
8409.16
8620.64
8616.86
8208.04
8401.04
3916.76
3928.15
3939.81
3951.5
3963.2
3974.94
3986.74
3998.65
4010.68
4022.84
4035.14
4047.55
4060.13
4073.48
4089.11
4106.92
4124.94
4141.53
4156.54
4170.74
4184.56
4198.18
4211.91
4226.47
4242.63
4260.5
4279.45
4298.56
4321.51
4312.6
4341.13
4331.14
4362.93
4351.71
4388.04
4374.95
4419.08
4402.61
4453.58
4432.62
4503.12
4477.06
4560.35
4528.53
4629.37
4591.98
4713.53
4669.72
4825.8
4797.81
4757.27
4954.4
4918.34
4852.62
4884.46
5116.36
5073.33
5031.81
4992.17
5318.03
5266.99
5217.06
5168.53
5556.15
5499.5
5443.28
5387.42
5869.74
5704.9
5804.64
5644.03
6180.45
6116.42
5982.79
6050.57
6378.31
6587.52
6523.48
6313.46
6745.51
7395.53
7592.06
7155.65
6914.57
7095.9
7346.26
8017.09
8215.19
7796.13
8006.16
8611.08
8870.23
8865.7
8415.41
8626.08
3921.7
3933.14
3944.78
3956.36
3967.92
3979.52
3991.19
4002.97
4014.87
4026.9
4039.05
4051.34
4064.15
4079.01
4096.5
4114.64
4131.44
4146.5
4160.65
4174.42
4187.97
4201.5
4215.39
4230.28
4246.6
4264.13
4282.17
4299.67
4320.95
4312.3
4339.49
4330.02
4360.02
4349.46
4383.88
4371.39
4414.11
4397.96
4448.89
4427.77
4499.33
4472.77
4557.28
4525.1
4626.01
4588.62
4709.81
4666.18
4823.09
4795.37
4765.18
4739.53
4952.78
4915.75
4848.94
4881.11
5121.71
5076.55
5033.12
4991.86
5332.32
5278.28
5225.54
5174.4
5583.06
5522.61
5462.73
5403.37
5913.51
5739.39
5843.43
5674.12
6246.02
6176.81
6032.01
6105.48
6456.74
6680.3
6611.09
6386.83
6848.48
7547.77
7760.21
7288.74
7029.44
7223.23
7493.69
8220.75
8440.25
7982.7
8214.23
8879.19
9306.61
9274.3
8669.66
8931.74
3926.52
3938.06
3949.64
3961.08
3972.49
3983.93
3995.47
4007.11
4018.88
4030.77
4042.8
4055.16
4069.16
4086.11
4104.31
4121.4
4136.61
4150.76
4164.46
4177.95
4191.36
4204.95
4219.12
4234.29
4250.51
4267.32
4283.99
4303.63
4296.01
4320.08
4311.74
4337.73
4328.73
4357.2
4347.18
4380
4368.02
4409.42
4393.63
4444.23
4423.07
4495.44
4468.42
4553.85
4521.43
4621.29
4584.4
4716.66
4694.17
4660.5
4819.15
4791.38
4760.2
4735.46
4949.54
4911.53
4843.81
4876.25
5125.23
5077.99
5032.74
4989.92
5344.95
5287.82
5232.24
5178.54
5608.89
5544.37
5480.62
5417.61
5957.19
5773.26
5881.78
5703.16
6313.93
6238.65
6081.37
6161.04
6538.67
6777.83
6702.89
6463.1
6957.12
7711.77
7943.7
7430.15
7150.54
7357.9
7651.78
8455.15
8709.84
8189.92
8449.98
9297.2
9991.8
9907.07
8995.17
9354.54
3931.28
3942.92
3954.38
3965.64
3976.87
3988.17
3999.56
4011.07
4022.71
4034.47
4046.47
4059.63
4075.77
4093.9
4111.32
4126.81
4141.03
4154.69
4168.08
4181.38
4194.75
4208.47
4222.83
4237.97
4253.69
4269.49
4284.69
4303.26
4295.76
4319.01
4311.02
4335.83
4327.26
4354.33
4344.8
4376.19
4364.67
4404.89
4389.42
4439.76
4418.65
4491.41
4464.07
4550.03
4517.69
4626.12
4607.75
4579.01
4712.39
4690.22
4645.13
4665.61
4813.96
4786.28
4754.44
4730.32
4944.79
4905.86
4837.41
4870.03
5127.09
5077.82
5030.76
4986.39
5355.82
5295.62
5237.27
5181.09
5633.41
5564.62
5496.82
5430.12
6000.54
5806.29
5919.34
5730.99
6383.99
6301.77
6130.78
6217.16
6624.14
6880.34
6799.14
6541.97
7071.92
7889.61
8145.96
7581.06
7278.56
7501.26
7822.04
8728.1
9035.7
8421.34
8718.69
9864.84
10540.7
10497
9400.34
9868.4
3935.99
3947.66
3958.94
3970.01
3981.07
3992.22
4003.47
4014.85
4026.36
4038.05
4050.5
4065.57
4083.37
4101.12
4116.99
4131.43
4145.11
4158.41
4171.55
4184.72
4198.08
4211.86
4226.19
4241.01
4256.01
4270.71
4288.13
4281.31
4302.6
4295.29
4317.75
4310.08
4333.78
4325.63
4351.4
4342.31
4372.46
4361.31
4400.63
4385.39
4435.87
4414.75
4487.59
4460.19
4545.55
4513.52
4622.19
4603.74
4582.78
4565.99
4707.66
4686.13
4641.11
4660.9
4807.63
4780.14
4747.96
4724.42
4938.72
4898.95
4829.95
4862.64
5127.4
5076.13
5027.33
4981.5
5364.99
5301.77
5240.7
5182.06
5656.52
5583.31
5511.36
5440.95
6043.4
5838.1
5955.78
5757.4
6455.83
6365.98
6180.01
6273.72
6713.46
6988.31
6900.12
6623.48
7193.37
8084.02
8369.81
7742.9
7414.89
7654.75
8006.75
9045.99
9420.39
8681.02
9024.51
10447.8
11002.9
11022.1
9871.54
10418.5
3940.66
3952.25
3963.3
3974.18
3985.08
3996.08
4007.2
4018.45
4029.86
4041.74
4055.65
4072.78
4090.71
4107.03
4121.83
4135.67
4148.93
4161.92
4174.86
4187.92
4201.25
4214.96
4229.06
4243.37
4257.56
4271.16
4287.8
4281.09
4301.72
4294.68
4316.27
4308.92
4331.56
4323.8
4348.34
4339.67
4368.78
4357.89
4396.73
4381.54
4432.48
4411.32
4483.75
4456.65
4549.55
4533.96
4508.7
4617.99
4600.1
4579.08
4562.58
4702.27
4681.21
4636.47
4655.72
4800.38
4773.19
4740.92
4717.94
4931.45
4890.97
4821.65
4854.32
5126.21
5073.03
5022.57
4975.33
5372.5
5306.29
5242.52
5181.48
5678.09
5600.34
5524.21
5450.07
6085.42
5868.43
5990.85
5782.26
6529.18
6430.94
6228.42
6330.31
6806.54
7102.34
7005.88
6707.55
7322.15
8297.46
8617.84
7917.44
7560.1
7819.44
8208.45
9410.93
9858.24
8972.83
9370.4
11023.7
11605.7
11667.8
10387
10991.3
3945.24
3956.64
3967.46
3978.16
3988.9
3999.76
4010.74
4021.88
4033.33
4046.16
4062.23
4080.11
4096.86
4112.06
4126.26
4139.64
4152.51
4165.23
4177.99
4190.94
4204.15
4217.67
4231.4
4245.11
4258.48
4271.18
4287.33
4280.81
4300.73
4293.97
4314.62
4307.61
4329.13
4321.77
4345.09
4336.82
4365.06
4354.34
4393.14
4377.83
4428.88
4407.75
4479.56
4452.87
4546.38
4530.42
4497.79
4512.01
4613.44
4596
4575.08
4558.9
4696.31
4675.67
4631.43
4650.13
4792.37
4765.62
4733.3
4710.94
4923.05
4882.1
4812.71
4845.3
5123.54
5068.57
5016.53
4967.9
5378.28
5309.09
5242.68
5179.34
5698.02
5615.61
5535.23
5457.31
6126.04
5897.18
6024.3
5805.51
6603.88
6496.47
6275.83
6386.66
6903.25
7222.58
7116.25
6794.12
7458.28
8532.2
8893.79
8107.17
7714.27
7996.91
8429.1
9820.56
10340.9
9299.86
9755.54
11664.3
12634.7
12518.6
10936.5
11607.4
3949.69
3960.82
3971.41
3981.93
3992.53
4003.25
4014.11
4025.2
4037.16
4051.91
4069.35
4086.48
4102.07
4116.69
4130.41
4143.31
4155.83
4168.3
4180.9
4193.7
4206.74
4219.96
4233.24
4246.32
4258.93
4273.93
4280.46
4268.02
4286.78
4299.68
4293.19
4312.91
4306.25
4326.61
4319.68
4341.72
4333.85
4361.29
4350.69
4389.51
4374.1
4424.78
4403.78
4474.95
4448.59
4542.99
4527.31
4494.68
4509.21
4608.59
4591.61
4570.94
4555.09
4689.83
4669.61
4626.11
4644.27
4783.67
4757.37
4725.31
4703.58
4913.79
4872.5
4803.27
4835.68
5119.4
5062.77
5009.34
4959.49
5382.2
5310.08
5241.11
5175.55
5716.13
5628.88
5544.17
5462.47
6165.28
5924.27
6056.14
5826.83
6679.87
6562.29
6322.24
6442.51
7002.85
7348.52
7230.43
6882.17
7601.32
8791.7
9201.76
8314.05
7878.49
8189.3
8672.4
10272.5
10861
9663.16
10179.7
12390.2
13422
13321.6
11522.2
12268.2
3953.96
3964.78
3975.15
3985.51
3995.96
4006.55
4017.33
4028.63
4042.01
4058.59
4075.88
4091.86
4106.86
4121.06
4134.26
4146.68
4158.88
4171.14
4183.56
4196.18
4208.97
4221.84
4234.62
4247.1
4259
4280.02
4273.62
4267.76
4286.16
4298.61
4292.36
4311.25
4304.9
4324.21
4317.67
4338.53
4331.06
4357.54
4347.15
4385.62
4370.25
4420.14
4399.36
4477.92
4464.93
4443.75
4539.51
4524.18
4491.99
4506.32
4603.66
4587.11
4566.86
4551.29
4683.01
4663.24
4620.73
4638.4
4774.53
4748.74
4717.24
4696.1
4903.89
4862.3
4793.42
4825.54
5113.69
5055.56
5001.04
4950.28
5384.04
5309.05
5237.64
5169.98
5731.98
5639.74
5550.66
5465.15
6203.06
5949.56
6085.99
5845.97
6756.17
6627.28
6367.09
6497.07
7104.29
7479.32
7347.66
6970.65
7751.87
9080.78
9544.4
8541.41
8055.6
8399.71
8942.89
10763.1
11415.8
10062.8
10643.1
13116.9
13972.3
13932.2
12141.6
12941.6
3958.02
3968.51
3978.69
3988.89
3999.2
4009.68
4020.49
4032.66
4048.02
4065.09
4081.43
4096.74
4111.41
4125.14
4137.73
4149.72
4161.66
4173.72
4185.96
4198.35
4210.85
4223.33
4235.63
4247.53
4258.92
4279.53
4273.24
4267.51
4285.49
4297.51
4291.49
4309.65
4303.57
4322.04
4315.79
4335.71
4328.57
4353.99
4343.96
4381.46
4366.39
4414.34
4393.97
4475.32
4461.85
4433.7
4445.47
4535.99
4520.99
4489.22
4503.36
4598.89
4582.72
4562.88
4547.54
4676.04
4656.8
4615.53
4632.7
4765.16
4740.02
4709.17
4688.66
4893.5
4851.64
4783.19
4814.97
5106.34
5046.89
4991.6
4940.35
5383.45
5305.67
5231.94
5162.38
5745.2
5647.72
5554.16
5464.85
6238.52
5972.31
6112.59
5862.18
6831.68
6691.14
6403.57
6550.05
7206.52
7615.22
7466.86
7058.39
7912
9403.46
9922.36
8792.68
8247.2
8630.12
9244.6
11289.3
12002.3
10500.6
11142.9
13776.4
14471.4
14470.4
12779.7
13600.9
3961.85
3972.03
3982.02
3992.07
4002.26
4012.68
4023.92
4037.78
4054.26
4070.81
4086.39
4101.41
4115.72
4128.84
4140.83
4152.46
4164.17
4176.04
4188.07
4200.21
4212.4
4224.48
4236.31
4247.75
4261.47
4267.23
4256.08
4279
4272.82
4284.79
4296.41
4290.59
4308.09
4302.24
4320.02
4313.99
4333.19
4326.32
4350.58
4341.08
4376.61
4362.26
4430.07
4414.23
4404.13
4387.46
4472.27
4458.71
4442.28
4532.5
4517.78
4486.11
4500.15
4594.32
4578.47
4558.71
4543.61
4669.14
4650.51
4610.56
4627.3
4755.56
4731.19
4701.24
4681.41
4882.78
4840.87
4772.85
4804.31
5097.23
5036.76
4981.04
4929.69
5379.92
5299.44
5223.5
5152.18
5755.26
5652.32
5554.18
5461.08
6263.65
5991.3
6133.56
5869.74
6906.08
6750.54
6459.65
6599.64
7307.85
7756.15
7584.56
7142.05
8082.23
9760.06
10335.8
9069.46
8454.09
8880.21
9576.92
11847.6
12613.8
10974.9
11675.8
14377.8
14938.3
14971.4
13427.6
14242.9
3965.44
3975.34
3985.16
3995.06
4005.15
4015.72
4028.11
4043.59
4060.03
4075.85
4091.1
4105.9
4119.71
4132.09
4143.55
4154.9
4166.41
4178.09
4189.9
4201.78
4213.64
4225.34
4236.78
4247.82
4266.93
4261.31
4255.95
4278.44
4272.41
4284.06
4295.3
4289.68
4306.53
4300.91
4317.98
4312.19
4330.56
4324.02
4346.84
4337.99
4371.1
4357.69
4426.05
4410.36
4400.06
4378.16
4386.25
4468.73
4455.3
4438.34
4528.84
4514.38
4482.43
4496.34
4589.66
4574.08
4554.06
4539.19
4662.55
4644.58
4605.57
4621.95
4745.9
4722.44
4693.49
4674.38
4871.47
4829.93
4762.7
4793.73
5085.8
5024.68
4968.91
4917.97
5372.99
5289.88
5211.78
5138.7
5755.62
5649.98
5549.61
5454.23
6260.27
6012.98
6134.75
5903.82
6976.89
6825.98
6437.21
6613.68
7406.56
7902.69
7714.5
7239.72
8261.95
10149.3
10784.3
9372.58
8674.33
9149.86
9938.32
12435.5
13246.9
11482.6
12239.4
14960.2
15353.8
15483
14084.5
14890.2
3968.8
3978.44
3988.09
3997.87
4007.94
4019.14
4033.24
4049.22
4065.17
4080.57
4095.69
4110.13
4123.26
4134.87
4145.92
4157.07
4168.4
4179.88
4191.46
4203.07
4214.62
4225.99
4237.11
4247.94
4266.67
4261.17
4255.88
4277.88
4272.02
4283.33
4294.17
4288.76
4304.93
4299.56
4315.8
4310.32
4327.58
4321.47
4342.54
4334.44
4364.79
4352.47
4421.65
4405.71
4395.71
4374.25
4382.2
4464.35
4451.16
4433.56
4524.68
4510.43
4477.79
4491.45
4584.55
4569.2
4548.24
4533.63
4656.19
4638.8
4600.21
4616.27
4736.43
4713.84
4685.58
4667.18
4859.01
4818.36
4752.49
4782.9
5071.22
5009.74
4954.46
4904.56
5363.88
5278.68
5198.91
5124.47
5743.03
5640.32
5541.91
5447.27
6255.45
6021.95
6130.18
5885.09
7002.29
6805.23
6431.76
6609.09
7446.22
8060.98
7695.62
7219.05
8455.41
10570.5
11265.3
9700.59
8908.8
9434.07
10339.2
13050.8
13903.6
12021.8
12834.8
15587.9
15904.1
16274.6
14762
15590.1
3971.93
3981.34
3990.82
4000.51
4010.84
4023.38
4038.57
4054.39
4069.9
4085.18
4100.1
4114.01
4126.26
4137.21
4148
4158.98
4170.13
4181.41
4192.77
4204.12
4215.38
4226.49
4237.4
4248.09
4255.84
4266.43
4261.06
4277.35
4271.68
4282.64
4293.08
4287.89
4303.32
4298.22
4313.46
4308.38
4324.2
4318.66
4337.79
4330.42
4358
4346.86
4416.43
4400.35
4390.96
4370.06
4377.57
4458.71
4445.96
4427.73
4519.34
4505.3
4471.73
4484.98
4578.29
4563.14
4540.4
4526.14
4649.65
4632.74
4593.75
4609.55
4726.92
4705.14
4676.93
4659.19
4844.4
4805.09
4741.63
4771.09
5056.46
4995.2
4939.91
4889.03
5356.81
5271.23
5191.21
5116.7
5738.72
5636.18
5537.9
5443.37
6251.29
6018.14
6126.17
5880.15
6997.52
6799.4
6427.19
6604.83
7440.95
8048.29
7689.95
7213.07
8447.3
11021.5
11779
10047.9
8906.62
9438.45
10757.1
13696.9
14588.4
12595.7
13463.8
16426.3
18829.4
17721.9
15486
16415.2
3974.82
3984.02
3993.37
4003.08
4014.22
4028.23
4043.62
4059.13
4074.47
4089.69
4104.24
4117.38
4128.69
4139.2
4149.82
4160.64
4171.62
4182.71
4193.85
4204.96
4216
4226.91
4237.68
4248.32
4255.83
4255.85
4266.24
4260.98
4276.88
4271.39
4282.02
4292.07
4287.09
4301.76
4296.97
4311.06
4306.45
4320.63
4315.71
4332.8
4326.18
4354.98
4365.72
4349.76
4340.81
4410.36
4394.35
4385.67
4372.56
4451.65
4439.5
4420.91
4512.17
4498.45
4464.08
4476.73
4569.89
4554.98
4530.06
4516.29
4642.22
4625.71
4585.13
4600.69
4716.78
4695.75
4666.18
4649.1
4827.77
4790.25
4728.37
4756.82
5048.95
4988.29
4913
4869.12
5353.03
5267.57
5187.7
5113.31
5735.05
5632.62
5534.46