/*--------------------------------*- C++ -*----------------------------------*\
  =========                 |
  \\      /  F ield         | OpenFOAM: The Open Source CFD Toolbox
   \\    /   O peration     | Website:  https://openfoam.org
    \\  /    A nd           | Version:  dev
     \\/     M anipulation  |
\*---------------------------------------------------------------------------*/
FoamFile
{
    version     2.0;
    format      ascii;
    class       volScalarField;
    location    "2500";
    object      H2O;
}
// * * * * * * * * * * * * * * * * * * * * * * * * * * * * * * * * * * * * * //

dimensions      [0 0 0 0 0 0 0];

internalField   nonuniform List<scalar> 
9851
(
5.45195e-26
1.62784e-25
1.14471e-25
2.8965e-25
4.18474e-25
7.80705e-26
5.47493e-25
8.63538e-25
4.20738e-25
2.81096e-26
8.17086e-25
1.47377e-24
9.93894e-25
3.37122e-25
1.30466e-26
1.14885e-24
2.82213e-24
1.84213e-24
7.17047e-25
1.83353e-25
1.43225e-26
1.50513e-24
3.92163e-24
4.23911e-24
1.68241e-24
5.65078e-25
1.07993e-25
5.94675e-27
1.94481e-24
5.37269e-24
7.26134e-24
4.60729e-24
1.24e-24
3.51824e-25
4.72656e-26
1.39385e-27
2.49391e-24
8.79803e-24
1.16652e-23
8.55415e-24
4.18682e-24
9.56517e-25
1.89018e-25
1.83697e-26
4.6243e-28
1.7238e-24
1.15038e-23
1.76335e-23
1.48885e-23
7.59518e-24
3.15152e-24
4.95749e-25
5.77852e-26
5.83977e-27
2.22263e-28
2.32923e-24
1.31703e-23
2.47519e-23
2.41342e-23
1.61145e-23
7.05467e-24
2.34664e-24
2.12507e-25
2.14507e-26
1.83426e-27
6.86922e-29
1.39185e-24
1.34029e-23
2.76047e-23
3.61375e-23
2.72084e-23
1.29645e-23
4.77393e-24
1.12591e-24
1.39882e-25
8.45727e-27
5.62243e-28
1.7923e-29
2.11478e-24
1.25745e-23
3.03296e-23
5.58124e-23
4.4919e-23
2.63058e-23
1.026e-23
2.85137e-24
5.76544e-25
6.84871e-26
3.04348e-27
1.21174e-28
6.44137e-30
1.20073e-24
1.09876e-23
4.33206e-23
7.76656e-23
6.9529e-23
4.30128e-23
1.93076e-23
6.23225e-24
1.46877e-24
2.83385e-25
2.72199e-26
9.75182e-28
6.28232e-29
5.65953e-31
1.47214e-24
1.29155e-23
4.33255e-23
9.46456e-23
1.07151e-22
7.29743e-23
4.10473e-23
1.53822e-23
4.51213e-24
7.10808e-25
1.13525e-25
1.05798e-26
5.33787e-28
1.15386e-29
3.24466e-31
1.13163e-24
9.08257e-24
3.87741e-23
1.23514e-22
1.50635e-22
1.21383e-22
6.12392e-23
3.25396e-23
1.10121e-23
2.9785e-24
4.44244e-25
5.0867e-26
3.47717e-27
1.38839e-28
3.30128e-30
7.76183e-32
2.02786e-24
7.13166e-24
5.21673e-23
1.45161e-22
2.14783e-22
1.89363e-22
1.16157e-22
4.99129e-23
1.96866e-23
7.18047e-24
1.63424e-24
2.02177e-25
1.21061e-26
9.77601e-28
5.04344e-29
1.27713e-30
2.46712e-31
1.97729e-24
1.13312e-23
3.93507e-23
1.61816e-22
2.73952e-22
2.80375e-22
1.98109e-22
9.08763e-23
4.56171e-23
1.37703e-23
4.48303e-24
7.9522e-25
6.55232e-26
5.29114e-27
3.24316e-28
8.55294e-30
2.82557e-30
1.38565e-30
2.26482e-24
9.7353e-24
4.81162e-23
1.75243e-22
3.27448e-22
3.73502e-22
3.17228e-22
1.90686e-22
7.87479e-23
3.47774e-23
1.01948e-23
2.4342e-24
2.84205e-25
2.18675e-26
1.89868e-27
9.48713e-29
1.61865e-29
2.00222e-29
1.4185e-29
2.65488e-24
1.12304e-23
5.43837e-23
1.65313e-22
3.54026e-22
5.16453e-22
4.77969e-22
2.91901e-22
1.59606e-22
6.05012e-23
2.31263e-23
6.32364e-24
8.84708e-25
7.11544e-26
7.30584e-27
3.65337e-28
1.60426e-28
1.5344e-28
1.41203e-28
9.63962e-29
1.71556e-24
1.50056e-23
6.50348e-23
1.63946e-22
4.04908e-22
7.26015e-22
6.55533e-22
4.81982e-22
2.67553e-22
1.29579e-22
4.60868e-23
1.49699e-23
2.72156e-24
2.42653e-25
2.9013e-26
2.0318e-27
9.19267e-28
1.06913e-27
1.45804e-27
8.67837e-28
6.47169e-28
1.96032e-24
1.99198e-23
8.38935e-23
1.6422e-22
4.84555e-22
9.01385e-22
9.36446e-22
7.4093e-22
3.89933e-22
2.18212e-22
8.37424e-23
3.05716e-23
7.94587e-24
9.05077e-25
9.06107e-26
1.24561e-26
7.09508e-27
6.36704e-27
9.92548e-27
8.15471e-27
1.15696e-26
3.88575e-27
2.82709e-24
2.1473e-23
7.40517e-23
2.48154e-22
4.87445e-22
9.37905e-22
1.29254e-21
1.0414e-21
7.08596e-22
3.11202e-22
1.69313e-22
5.38015e-23
1.89464e-23
3.78979e-24
4.10232e-25
4.2679e-26
2.65191e-26
6.03272e-26
6.36211e-26
9.28376e-26
9.46117e-26
7.83988e-26
3.87621e-26
1.66105e-24
2.04722e-23
9.6838e-23
3.29473e-22
6.20547e-22
1.19735e-21
1.59154e-21
1.61157e-21
1.10315e-21
5.90878e-22
2.41833e-22
1.02787e-22
3.84833e-23
9.44626e-24
1.5092e-24
2.24118e-25
1.00534e-25
3.14814e-25
4.38368e-25
5.15804e-25
7.42241e-25
7.40023e-25
8.13386e-25
2.5733e-25
4.2149e-24
1.305e-23
8.86638e-23
3.77831e-22
7.77974e-22
1.24486e-21
2.02228e-21
2.15857e-21
1.63578e-21
1.01194e-21
4.58928e-22
1.9686e-22
6.87283e-23
2.06789e-23
3.13126e-24
8.29746e-25
6.50462e-25
9.94153e-25
3.26715e-24
5.24928e-24
6.23704e-24
6.32132e-24
6.7718e-24
7.49233e-24
4.01887e-24
4.68029e-24
2.44604e-23
7.1666e-23
3.7716e-22
8.72908e-22
1.61711e-21
2.70053e-21
2.93389e-21
2.24735e-21
1.53892e-21
8.50302e-22
3.46357e-22
1.44752e-22
3.96582e-23
1.0202e-23
2.3152e-24
2.96613e-24
5.09484e-24
1.27835e-23
3.45518e-23
5.61181e-23
6.55997e-23
7.19576e-23
5.74653e-23
7.25926e-23
4.65956e-23
1.81488e-24
3.05023e-23
8.28917e-23
3.59176e-22
9.16996e-22
2.10815e-21
3.04834e-21
3.89731e-21
3.52193e-21
2.2954e-21
1.36058e-21
6.0375e-22
2.20579e-22
9.00553e-23
2.49605e-23
9.5134e-24
1.48585e-23
3.63964e-23
9.09142e-23
1.59343e-22
4.24857e-22
6.36202e-22
6.21236e-22
6.09593e-22
7.73988e-22
4.65361e-22
4.5522e-22
6.56083e-25
1.71126e-23
1.33449e-22
3.80595e-22
8.05657e-22
2.56238e-21
3.81658e-21
5.87163e-21
4.84426e-21
3.50361e-21
1.84391e-21
1.10907e-21
5.01234e-22
1.48836e-22
6.65624e-23
6.1027e-23
1.19635e-22
2.0686e-22
6.05944e-22
1.28677e-21
2.97487e-21
4.86003e-21
8.20734e-21
6.56947e-21
5.84378e-21
7.4192e-21
6.11157e-21
3.19784e-21
5.26404e-25
1.0236e-23
9.28993e-23
4.84159e-22
8.33918e-22
2.49451e-21
4.46073e-21
7.34263e-21
7.40514e-21
4.66449e-21
3.18146e-21
1.52734e-21
8.33493e-22
3.70061e-22
1.97529e-22
3.34694e-22
9.4747e-22
2.42504e-21
3.359e-21
1.08308e-20
1.90164e-20
3.90835e-20
6.61225e-20
9.17219e-20
8.60327e-20
5.67573e-20
6.5347e-20
3.75967e-20
1.96882e-20
1.27064e-24
7.61515e-24
9.14107e-23
4.80157e-22
1.25888e-21
2.38864e-21
5.82783e-21
9.47586e-21
1.04217e-20
7.26603e-21
5.0912e-21
2.83054e-21
1.33495e-21
7.51346e-22
8.38194e-22
2.35939e-21
7.44819e-21
2.07469e-20
4.04573e-20
6.6427e-20
1.85674e-19
3.50247e-19
4.96268e-19
6.52543e-19
7.70309e-19
5.85378e-19
6.26985e-19
4.79473e-19
2.25907e-19
1.25316e-19
2.77029e-24
1.24982e-23
6.41944e-23
3.80313e-22
1.34107e-21
3.01864e-21
6.99798e-21
1.15294e-20
1.33017e-20
1.312e-20
7.9746e-21
4.13357e-21
2.4679e-21
2.41888e-21
5.57225e-21
1.59057e-20
5.2473e-20
1.43366e-19
3.55807e-19
8.71022e-19
1.21492e-18
2.79242e-18
3.59918e-18
4.34189e-18
5.20477e-18
6.19233e-18
5.5684e-18
3.90498e-18
4.08272e-18
1.78243e-18
4.57532e-19
1.57167e-23
3.7725e-23
9.03473e-23
3.3673e-22
1.06757e-21
3.08314e-21
7.39491e-21
1.23374e-20
1.76008e-20
1.69414e-20
1.34079e-20
9.6245e-21
8.64911e-21
1.43874e-20
3.70964e-20
1.43952e-19
4.24144e-19
1.11325e-18
3.59238e-18
6.83345e-18
1.17301e-17
1.75497e-17
3.24353e-17
2.39387e-17
2.95155e-17
3.98843e-17
4.67576e-17
3.26383e-17
3.30298e-17
1.88031e-17
6.49046e-18
1.27694e-18
9.23557e-23
2.47641e-22
2.02861e-22
3.10291e-22
1.22685e-21
3.60276e-21
8.60718e-21
1.61265e-20
2.39665e-20
3.07824e-20
2.34415e-20
2.28831e-20
4.17376e-20
9.1903e-20
2.91955e-19
1.14527e-18
3.03018e-18
1.16026e-17
2.69889e-17
5.17551e-17
9.06931e-17
1.63905e-16
1.91248e-16
2.6385e-16
2.6616e-16
2.34627e-16
2.83769e-16
2.41166e-16
1.83068e-16
1.52302e-16
4.53612e-17
1.40604e-17
1.32689e-18
4.03553e-22
1.4499e-21
1.09593e-21
1.04227e-21
1.42921e-21
4.32259e-21
1.00349e-20
2.24315e-20
3.79491e-20
4.78213e-20
4.63822e-20
6.92433e-20
2.07358e-19
7.21237e-19
2.12873e-18
7.65217e-18
2.75248e-17
7.76723e-17
2.00873e-16
3.4942e-16
6.40481e-16
1.00636e-15
1.36647e-15
1.70957e-15
1.9697e-15
1.88487e-15
1.7832e-15
1.6826e-15
1.35533e-15
8.78886e-16
4.92861e-16
1.42845e-16
3.12612e-17
1.80929e-18
1.80759e-17
4.04908e-21
5.32485e-21
5.29894e-21
3.64225e-21
3.10546e-21
9.25619e-21
1.5172e-20
3.50178e-20
8.10813e-20
1.0783e-19
1.15085e-19
2.37652e-19
9.24552e-19
4.33034e-18
1.46937e-17
4.75219e-17
1.80964e-16
5.44192e-16
1.27311e-15
3.05338e-15
5.58211e-15
8.52613e-15
1.23772e-14
1.59642e-14
1.77662e-14
1.74974e-14
1.67852e-14
1.48362e-14
1.26135e-14
8.78942e-15
5.64988e-15
2.37684e-15
2.92531e-16
1.38515e-16
1.15302e-15
7.34177e-18
7.1394e-17
2.11642e-20
2.22931e-20
1.6271e-20
1.83679e-20
1.34916e-20
2.26803e-20
4.14242e-20
6.07146e-20
1.36655e-19
2.67126e-19
3.19793e-19
9.31973e-19
4.48888e-18
2.3204e-17
9.92274e-17
3.46284e-16
1.10083e-15
3.76318e-15
1.10051e-14
2.61631e-14
5.11784e-14
8.33302e-14
1.16381e-13
1.49235e-13
1.6602e-13
1.65284e-13
1.6014e-13
1.37867e-13
1.11393e-13
8.2323e-14
6.3267e-14
4.74882e-14
1.02054e-14
5.39825e-14
8.25352e-15
6.4493e-14
7.6513e-14
8.68363e-16
7.45093e-15
3.1788e-17
4.54729e-16
4.85425e-20
1.72471e-19
1.03843e-19
7.88681e-20
4.9238e-20
6.80386e-20
1.11425e-19
2.56681e-19
4.13802e-19
5.55931e-19
9.95612e-19
2.36836e-18
1.77184e-17
9.80778e-17
5.36389e-16
2.1065e-15
8.39676e-15
3.01989e-14
9.52306e-14
2.4533e-13
5.08037e-13
8.60704e-13
1.17971e-12
1.45933e-12
1.70519e-12
1.51117e-12
1.44527e-12
1.23813e-12
9.68727e-13
7.05256e-13
6.11325e-13
7.95534e-13
2.94144e-13
1.30953e-12
4.00891e-13
7.50958e-14
5.80621e-13
6.94493e-13
5.30471e-15
6.19839e-14
1.96624e-16
2.99778e-15
3.21808e-19
8.1352e-19
4.86426e-19
4.87201e-19
2.54024e-19
1.98994e-19
3.88413e-19
5.94691e-19
1.02377e-18
1.89229e-18
2.10371e-18
6.42495e-18
5.04599e-17
4.01778e-16
2.26615e-15
1.22262e-14
5.7796e-14
2.38879e-13
8.18929e-13
2.23563e-12
4.8291e-12
8.45612e-12
1.21473e-11
1.44144e-11
1.6452e-11
1.34094e-11
1.24304e-11
1.03652e-11
7.78786e-12
5.48452e-12
4.85996e-12
9.49681e-12
5.76598e-12
2.40439e-11
2.40389e-12
1.32683e-11
4.12583e-12
6.6835e-13
5.7151e-12
6.40781e-12
4.25655e-14
5.32285e-13
1.00444e-15
2.38206e-14
9.37782e-19
2.57619e-18
2.42138e-18
2.59653e-18
1.21219e-18
9.41501e-19
9.49887e-19
2.3262e-18
3.76746e-18
3.95463e-18
7.69024e-18
1.25248e-17
1.4682e-16
1.43427e-15
9.72241e-15
6.33226e-14
3.61159e-13
1.74963e-12
6.64041e-12
1.95019e-11
4.40304e-11
7.87536e-11
1.17874e-10
1.44706e-10
1.56069e-10
1.18693e-10
1.03282e-10
8.14425e-11
5.83546e-11
3.94704e-11
3.33462e-11
7.65208e-11
8.72392e-11
2.89333e-10
6.33722e-11
2.64417e-10
2.54381e-11
1.39364e-10
4.12702e-11
5.9259e-12
5.3942e-11
5.78258e-11
3.54201e-13
4.53771e-12
7.96389e-15
1.90912e-13
2.72726e-18
1.11578e-17
7.93328e-18
8.5841e-18
6.54638e-18
2.96297e-18
3.30619e-18
5.06454e-18
1.04442e-17
1.20479e-17
1.82325e-17
3.09934e-17
2.88117e-16
4.12293e-15
3.57132e-14
2.83599e-13
1.96456e-12
1.11886e-11
4.95735e-11
1.59634e-10
3.81474e-10
7.01389e-10
1.0644e-09
1.44328e-09
1.44095e-09
1.0598e-09
8.49349e-10
6.16495e-10
4.21501e-10
2.71955e-10
2.13634e-10
4.8355e-10
8.4272e-10
2.28207e-09
9.7832e-10
3.2123e-09
6.66024e-10
2.77508e-09
2.56271e-10
1.39054e-09
3.9278e-10
5.12193e-11
4.88675e-10
5.01626e-10
2.89233e-12
3.73972e-11
6.10817e-14
1.5071e-12
2.07096e-17
4.79946e-17
3.99716e-17
2.76624e-17
3.02938e-17
1.36231e-17
9.00297e-18
1.68382e-17
2.67438e-17
3.95464e-17
4.91242e-17
6.70052e-17
4.12082e-16
7.65551e-15
1.15821e-13
1.01455e-12
8.48374e-12
6.20971e-11
3.28021e-10
1.20136e-09
3.05858e-09
5.88481e-09
9.15557e-09
1.27413e-08
1.16019e-08
9.52228e-09
7.0884e-09
4.7159e-09
3.03042e-09
1.88345e-09
1.22481e-09
2.16357e-09
5.6596e-09
1.42595e-08
9.45686e-09
2.54376e-08
1.01565e-08
3.29286e-08
6.58098e-09
2.69291e-08
2.43888e-09
1.29412e-08
3.5325e-09
4.22789e-10
4.20276e-09
4.11153e-09
2.28082e-11
2.93137e-10
4.68575e-13
1.14534e-11
5.87684e-17
9.90215e-17
1.64934e-16
1.26177e-16
1.06655e-16
6.72771e-17
4.53107e-17
3.95775e-17
8.19598e-17
8.12175e-17
1.03374e-16
1.64054e-16
5.97226e-16
1.19488e-14
2.13011e-13
2.95664e-12
2.97482e-11
2.67203e-10
1.87685e-09
8.29362e-09
2.19988e-08
4.38268e-08
7.5226e-08
1.05387e-07
9.86965e-08
8.48257e-08
6.02321e-08
3.83349e-08
2.25016e-08
1.3259e-08
7.45902e-09
7.51452e-09
2.7899e-08
5.97582e-08
6.31546e-08
1.55643e-07
9.58631e-08
2.55227e-07
9.63916e-08
3.04877e-07
5.99868e-08
2.37947e-07
2.1629e-08
1.11371e-07
2.97684e-08
3.27975e-09
3.37709e-08
3.1375e-08
1.70543e-10
2.15371e-09
3.4745e-12
8.2953e-11
3.29181e-16
5.16143e-16
6.14431e-16
4.67713e-16
3.49337e-16
2.27184e-16
1.17679e-16
1.29293e-16
1.94291e-16
2.61445e-16
2.64486e-16
3.36752e-16
7.25424e-16
1.51216e-14
3.23194e-13
5.81931e-12
8.44759e-11
9.25939e-10
8.00329e-09
4.29916e-08
1.37371e-07
2.74978e-07
5.17459e-07
7.62275e-07
8.16062e-07
7.28552e-07
5.20053e-07
3.19727e-07
1.77602e-07
9.43689e-08
5.02431e-08
2.89099e-08
9.32731e-08
1.65287e-07
3.06555e-07
6.35075e-07
6.20476e-07
1.48051e-06
8.64568e-07
2.243e-06
8.21336e-07
2.49686e-06
4.97622e-07
1.87944e-06
1.76872e-07
8.73923e-07
2.31539e-07
2.36217e-08
2.503e-07
2.20711e-07
1.19499e-09
1.46562e-08
2.43719e-11
5.58427e-10
1.73564e-15
3.60866e-15
2.76598e-15
2.04755e-15
1.39839e-15
7.16802e-16
4.83979e-16
3.12986e-16
4.49809e-16
6.24289e-16
7.94312e-16
7.43915e-16
1.11632e-15
1.67118e-14
4.08702e-13
8.6695e-12
1.58524e-10
2.46008e-09
2.54827e-08
1.56911e-07
5.09603e-07
1.43017e-06
3.05655e-06
5.03206e-06
6.23141e-06
5.87087e-06
4.26734e-06
2.55361e-06
1.35052e-06
6.74513e-07
3.32071e-07
1.44371e-07
2.27317e-07
3.24712e-07
1.01725e-06
1.7593e-06
2.84674e-06
5.47192e-06
5.16887e-06
1.13227e-05
6.66836e-06
1.61167e-05
6.08423e-06
1.69309e-05
3.67702e-06
1.26214e-05
1.31265e-06
6.04808e-06
1.63384e-06
1.56362e-07
1.68536e-06
1.41224e-06
7.65716e-09
9.05135e-08
1.57351e-10
3.40711e-09
1.79885e-14
3.30083e-14
2.24225e-14
1.20747e-14
6.7517e-15
3.77004e-15
1.59941e-15
1.15193e-15
1.20049e-15
1.73477e-15
1.92242e-15
1.99995e-15
2.27451e-15
1.69308e-14
4.48712e-13
1.02428e-11
2.20129e-10
4.37089e-09
5.98576e-08
4.32067e-07
1.54504e-06
5.46385e-06
1.43978e-05
2.74536e-05
3.93642e-05
4.06982e-05
3.07872e-05
1.82272e-05
9.19328e-06
4.33998e-06
2.04405e-06
9.52032e-07
5.38671e-07
0
2.43869e-06
3.58415e-06
8.72594e-06
1.37635e-05
2.05525e-05
3.51622e-05
3.40345e-05
6.50783e-05
4.12413e-05
8.96051e-05
3.6642e-05
9.1374e-05
2.25364e-05
6.82946e-05
8.49183e-06
3.4233e-05
1.00015e-05
9.37537e-07
9.85718e-06
7.91431e-06
4.40065e-08
4.99797e-07
9.03912e-10
1.82969e-08
1.6947e-13
3.3431e-13
2.2226e-13
1.02635e-13
4.60657e-14
2.39723e-14
9.10505e-15
4.62097e-15
4.19439e-15
5.83528e-15
6.46914e-15
7.37299e-15
6.84533e-15
1.7723e-14
4.39596e-13
1.09948e-11
2.54568e-10
5.82266e-09
1.00206e-07
8.4913e-07
3.53911e-06
1.48199e-05
4.49805e-05
9.85336e-05
0.000159627
0.000187177
0.000156991
0.000102727
5.41525e-05
2.44847e-05
1.08322e-05
4.93419e-06
5.72987e-06
4.54938e-06
7.22364e-06
1.91344e-05
2.71005e-05
5.35174e-05
7.75325e-05
0.000107459
0.00016409
0.000165194
0.000269519
0.000197945
0.000353063
0.000174572
0.000373355
0.000110636
0.000289372
4.48793e-05
0.000155366
5.00856e-05
4.99442e-06
4.73035e-05
3.64778e-05
2.21238e-07
2.43043e-06
4.46388e-09
8.39215e-08
1.289e-12
2.94155e-12
2.20447e-12
9.70263e-13
3.77873e-13
1.78537e-13
5.95867e-14
2.22675e-14
1.82511e-14
2.12672e-14
2.50765e-14
2.68973e-14
2.5264e-14
2.77173e-14
3.77926e-13
1.06001e-11
2.59337e-10
6.30714e-09
1.28125e-07
1.26449e-06
6.08682e-06
2.87504e-05
9.31443e-05
0.000216781
0.000360853
0.000467239
0.000478653
0.000380008
0.000221681
0.000108586
4.72143e-05
2.07046e-05
1.59324e-05
5.6159e-05
7.65732e-05
3.45325e-05
4.62585e-05
0.000104471
0.000139238
0.00023082
0.000307175
0.000391997
0.000528736
0.000544155
0.000753428
0.000632811
0.000919098
0.000604516
0.00097395
0.000421149
0.000859097
0.00019046
0.000539394
0.000202034
2.18927e-05
0.000183581
0.000136669
9.56774e-07
9.89015e-06
1.87874e-08
3.26734e-07
6.94977e-12
1.94172e-11
1.82263e-11
9.25333e-12
3.30259e-12
1.41004e-12
3.63323e-13
1.1353e-13
7.63614e-14
8.72725e-14
1.00112e-13
1.08183e-13
1.00442e-13
7.97077e-14
3.01358e-13
8.8756e-12
2.36754e-10
6.0871e-09
1.34243e-07
1.46785e-06
8.48635e-06
4.41143e-05
0.000148661
0.000338366
0.000566572
0.000744134
0.000838916
0.000807012
0.000629639
0.000351306
0.000161966
7.2235e-05
4.93661e-05
0.000100761
0.000142098
0.000269605
0.000339245
0.000175552
0.000223003
0.000387231
0.000477435
0.000669799
0.000809009
0.000959787
0.00115909
0.00120582
0.0014748
0.00134956
0.0017002
0.00133227
0.00178442
0.00109942
0.00166668
0.000615595
0.00128772
0.000624323
7.97785e-05
0.000554026
0.000416757
3.65993e-06
3.54475e-05
6.4098e-08
1.06227e-06
2.09146e-11
7.79399e-11
1.07697e-10
7.21999e-11
2.93151e-11
1.07112e-11
2.34753e-12
6.43074e-13
3.18215e-13
3.46448e-13
4.53999e-13
4.4299e-13
4.39375e-13
2.96858e-13
3.5488e-13
5.99831e-12
1.87753e-10
5.14084e-09
1.278e-07
1.47079e-06
1.01001e-05
5.74487e-05
0.000199381
0.000455029
0.00073878
0.000987521
0.00115738
0.00122966
0.00114322
0.000855929
0.000454393
0.000208102
0.000150313
0.000234877
0.000239696
0.000408429
0.000513074
0.000760767
0.000867978
0.000569085
0.000665036
0.000941393
0.00107313
0.00134286
0.0015074
0.00171287
0.00192451
0.00201478
0.00228721
0.00219232
0.00254477
0.00218869
0.00264752
0.00194514
0.00253631
0.00140181
0.00214697
0.00140978
0.00024507
0.00126951
0.000971425
1.1887e-05
0.000108018
1.74509e-07
2.86165e-06
3.14412e-11
1.6262e-10
3.12512e-10
3.78752e-10
2.35283e-10
7.50644e-11
1.51482e-11
3.73551e-12
1.64769e-12
1.34563e-12
1.36886e-12
1.54627e-12
1.65716e-12
1.20598e-12
8.61151e-13
4.20129e-12
1.21351e-10
3.68563e-09
1.03166e-07
1.48142e-06
1.06457e-05
6.55168e-05
0.000238672
0.000543921
0.000892272
0.00116845
0.00138168
0.00153845
0.00159593
0.00143934
0.00101839
0.00052919
0.000351677
0.000712208
0.000597505
0.000805845
0.000974484
0.0010911
0.00142646
0.00154293
0.00119779
0.00131517
0.00165465
0.00179217
0.00210857
0.00226502
0.00251462
0.00270629
0.00284145
0.0030819
0.0030323
0.00334941
0.00303764
0.00346326
0.00280461
0.00336457
0.00225144
0.00297863
0.00223434
0.000601616
0.00207232
0.00173602
3.39391e-05
0.000287382
3.18589e-07
6.24061e-06
1.59182e-10
5.38878e-10
9.28708e-10
1.09157e-09
4.14095e-10
8.88995e-11
2.11019e-11
8.57369e-12
6.60596e-12
5.99012e-12
6.19163e-12
6.61791e-12
4.65979e-12
3.20274e-12
3.97895e-12
7.81835e-11
2.1925e-09
6.92529e-08
1.3945e-06
1.0426e-05
6.76397e-05
0.000260494
0.000609925
0.00098863
0.00126482
0.00146921
0.00165267
0.00181761
0.0018728
0.00163376
0.00110919
0.000726228
0.000971553
0.0014722
0.00163275
0.00120649
0.00134576
0.00165622
0.00177418
0.00213866
0.00224456
0.00191776
0.0020309
0.00240095
0.0025216
0.00286379
0.00298948
0.00326992
0.00341804
0.00359608
0.00377721
0.00377737
0.00397963
0.00379444
0.00403516
0.00359349
0.00400636
0.00305729
0.00371746
0.0030149
0.00120968
0.0028298
0.00247576
8.64923e-05
0.00061568
4.98657e-07
1.48399e-05
3.68262e-10
1.39585e-09
2.20066e-09
1.57468e-09
4.39717e-10
1.11434e-10
4.48124e-11
3.2969e-11
2.86294e-11
2.22574e-11
1.74283e-11
1.67293e-11
1.25359e-11
7.47156e-12
4.64747e-11
1.41905e-09
4.1011e-08
1.01731e-06
9.53315e-06
6.62274e-05
0.000264878
0.00064381
0.00102078
0.00124118
0.00142082
0.00161633
0.00182223
0.00201313
0.00206733
0.00175662
0.0013048
0.00137989
0.00178439
0.00191602
0.00215192
0.00227437
0.00189403
0.00201963
0.00234601
0.00244948
0.0028009
0.00286848
0.00262767
0.002716
0.00309343
0.00317723
0.00353077
0.00361213
0.00390751
0.00400232
0.00410766
0.00419527
0.00415642
0.00422339
0.00416491
0.00421395
0.00413585
0.00423782
0.00376505
0.0042196
0.00369605
0.00191465
0.00351337
0.0032578
0.00266255
0.00020187
0.0011262
7.07373e-07
2.74191e-05
6.85781e-10
2.74376e-09
3.05102e-09
1.63185e-09
5.21695e-10
2.34046e-10
1.71293e-10
1.40437e-10
1.05984e-10
7.12317e-11
7.08589e-11
6.49175e-11
2.43406e-11
3.5113e-11
7.63932e-10
2.22753e-08
6.2715e-07
7.58186e-06
6.19301e-05
0.00026117
0.000647168
0.00100751
0.00117824
0.0012944
0.00144049
0.00167504
0.00196772
0.00219029
0.00223406
0.00195841
0.00191671
0.00234896
0.00236017
0.00246875
0.0026597
0.00265231
0.00254638
0.00262932
0.00294021
0.00298164
0.00333186
0.00334293
0.00324464
0.0032887
0.00367235
0.00371057
0.00406646
0.00410121
0.00426068
0.00430818
0.0042692
0.00431467
0.00423243
0.0042466
0.00422417
0.00416053
0.00430513
0.00420529
0.00426023
0.00434676
0.00434533
0.00392338
0.00423343
0.00301725
0.0020547
0.00276179
0.0037007
0.00411837
0.00417018
0.00356252
0.000361614
0.00239317
0.00197762
0.0011846
4.17538e-07
2.21045e-05
1.1318e-09
3.90515e-09
3.98856e-09
2.17921e-09
1.25051e-09
9.43437e-10
7.24571e-10
5.10261e-10
3.20203e-10
1.84658e-10
1.60121e-10
8.8749e-11
4.81991e-11
4.14468e-10
1.05004e-08
3.27969e-07
5.34295e-06
5.16266e-05
0.000247821
0.000636547
0.000976536
0.00111209
0.0011627
0.00113639
0.00119856
0.00161748
0.00211008
0.00236749
0.00243394
0.00242504
0.00250021
0.00258333
0.00256313
0.00263385
0.00260724
0.0028379
0.00275351
0.00296707
0.00292276
0.00331369
0.003236
0.00368814
0.00359815
0.00373301
0.00372442
0.0041144
0.00410284
0.00433415
0.00433556
0.00435984
0.00439631
0.0042699
0.00431986
0.00408872
0.00410358
0.00398883
0.00394203
0.00389796
0.00428064
0.00412919
0.00382323
0.00397778
0.00436903
0.00437817
0.00440399
0.0042942
0.00439066
0.00334984
0.0030712
0.00399913
0.00431747
0.00436917
0.00385294
0.00144727
0.00029954
0.000888051
0.00271768
0.00227745
0
0.000359275
7.97162e-05
8.75469e-06
2.47739e-09
8.70189e-09
9.13124e-09
7.26339e-09
5.64763e-09
4.01316e-09
2.5686e-09
1.4964e-09
7.88244e-10
5.2593e-10
3.54709e-10
1.31903e-10
2.6731e-10
6.00842e-09
1.56564e-07
3.32912e-06
3.86901e-05
0.000217682
0.000608145
0.000933738
0.00105024
0.00103911
0.000865167
0.000700473
0.000916205
0.00162047
0.00227886
0.00254795
0.00265069
0.00265766
0.00256548
0.00253506
0.00246088
0.00266994
0.00259251
0.00282819
0.00266343
0.00311151
0.00297706
0.00344918
0.00328209
0.00383044
0.00365482
0.0040626
0.00397485
0.00432166
0.00427519
0.00441496
0.00440934
0.00437842
0.00442713
0.00419599
0.00431648
0.00391569
0.0039769
0.004047
0.00414627
0.00374561
0.00373127
0.00381168
0.00383817
0.00412927
0.00393412
0.00366311
0.0037631
0.0043225
0.00443984
0.00436602
0.00414073
0.00446498
0.00364907
0.00338016
0.0042349
0.00447473
0.00446165
0.00410795
0.00173833
0.00109983
0.00303145
0.00258701
1.15906e-05
1.52654e-08
8.5189e-07
0.000464184
0.000118101
1.46301e-08
4.23835e-08
4.51155e-08
3.62439e-08
2.38939e-08
1.37473e-08
7.25211e-09
3.60146e-09
1.64395e-09
1.08826e-09
4.78455e-10
2.78321e-10
3.34201e-09
7.74792e-08
1.83109e-06
2.58691e-05
0.000178426
0.000556338
0.000886862
0.000991438
0.000932259
0.000652805
0.000386778
0.000445327
0.000847138
0.00168963
0.0023983
0.00264286
0.00270514
0.00257239
0.00216989
0.0021917
0.00226149
0.00219881
0.00250263
0.00236424
0.00259785
0.00235108
0.00308289
0.00284946
0.00344019
0.00317619
0.00383851
0.003591
0.0041727
0.00402854
0.00438101
0.00430744
0.00445954
0.00445483
0.00444298
0.00455275
0.00425169
0.00437826
0.00449386
0.00462211
0.00390867
0.00401716
0.00415514
0.00430928
0.0036626
0.00373251
0.00377588
0.00387818
0.00391793
0.00371566
0.00360712
0.00360698
0.00417531
0.00441592
0.00423122
0.00392528
0.00446605
0.00392583
0.00367503
0.00441361
0.00450502
0.00452694
0.00432256
0.00202863
0.00135069
0.00333999
0.00290107
1.86738e-05
2.68374e-08
1.67208e-06
0.000630558
0.00019183
1.36063e-07
2.51126e-07
2.27938e-07
1.47359e-07
7.78118e-08
3.70496e-08
1.70073e-08
7.41391e-09
2.98024e-09
1.91429e-09
6.23441e-10
1.72446e-09
3.76581e-08
8.97709e-07
1.5318e-05
0.00013617
0.000490588
0.000836812
0.000937252
0.000842769
0.000503349
0.000226279
0.000200474
0.000367789
0.00084344
0.00171447
0.00242374
0.00262421
0.0025109
0.00190763
0.00174495
0.00167471
0.00184239
0.00177728
0.00213295
0.0019605
0.00221982
0.00191623
0.00287293
0.00254712
0.00328954
0.00294359
0.00374497
0.00345291
0.00417535
0.00398798
0.00441458
0.00431799
0.00464823
0.00467066
0.00473239
0.00484874
0.00494063
0.00502752
0.00447092
0.00463991
0.00480872
0.00497443
0.00403176
0.00421087
0.00440933
0.00462088
0.00370372
0.00387614
0.00388881
0.00407207
0.00368899
0.00356598
0.00368697
0.00356679
0.00396116
0.00430296
0.00402596
0.00368861
0.0043851
0.00417383
0.00395246
0.00452372
0.00446586
0.0045322
0.00447972
0.00233685
0.0016405
0.00364229
0.00322377
3.60625e-05
3.78206e-08
2.93412e-06
0.000869968
0.000311255
9.41838e-07
1.20039e-06
8.66869e-07
4.51321e-07
1.99461e-07
8.4199e-08
3.375e-08
1.23392e-08
5.60022e-09
2.28163e-09
1.49321e-09
1.80419e-08
4.37908e-07
8.90675e-06
9.48889e-05
0.000413369
0.000783292
0.000889312
0.000773433
0.000401113
0.00014576
9.05164e-05
0.000141264
0.000344938
0.000837581
0.00159682
0.0021835
0.00221082
0.00165059
0.0010973
0.000981049
0.00121889
0.00116806
0.00133434
0.00126007
0.00165929
0.00146391
0.00181398
0.00147658
0.00256894
0.00218529
0.00311986
0.00275553
0.0037122
0.00341171
0.00416915
0.00396679
0.00463351
0.00454364
0.00530172
0.00535109
0.00512915
0.0052701
0.00538984
0.0054674
0.00483996
0.00506018
0.0052748
0.00547579
0.00429819
0.00454443
0.00480634
0.0050755
0.00390618
0.00412716
0.00418701
0.00440077
0.00354197
0.00353626
0.00391838
0.00366938
0.0037204
0.00411683
0.00378495
0.00353699
0.00422992
0.00438271
0.00420744
0.00457095
0.00435066
0.00446679
0.0045744
0.00267355
0.00198168
0.00393745
0.00355833
6.24171e-05
3.01422e-07
8.69762e-06
0.00119734
0.000480723
4.29561e-06
4.25193e-06
2.4917e-06
1.1054e-06
4.32921e-07
1.57044e-07
5.41103e-08
1.65195e-08
8.28956e-09
2.82105e-09
9.74437e-09
2.10864e-07
4.91519e-06
5.95013e-05
0.000328842
0.000723208
0.000847099
0.000726455
0.000338543
0.000104849
4.44879e-05
5.0926e-05
0.000120856
0.000329246
0.000727288
0.0011651
0.00131334
0.000912665
0.000392061
0.000446555
0.000312817
0.000621394
0.000543121
0.0008005
0.000696281
0.00118593
0.000958844
0.00161859
0.00127404
0.00237361
0.00198976
0.00307437
0.00271066
0.00390748
0.00360052
0.00438671
0.00417232
0.00529701
0.00519906
0.00604625
0.00605375
0.0059267
0.00600565
0.00565456
0.0058059
0.00592387
0.0060062
0.00534401
0.00560177
0.00583838
0.00604308
0.00469833
0.00500929
0.00532451
0.00563268
0.00423966
0.00450772
0.00460857
0.00485462
0.00351594
0.00364977
0.00427632
0.00391889
0.00355491
0.00388477
0.00359636
0.00351017
0.00401965
0.004535
0.00442599
0.00456314
0.00417162
0.00433601
0.00462273
0.00305456
0.00241398
0.00422059
0.00391129
0.00013191
1.75138e-05
6.62708e-05
0.00165936
0.000827534
1.46253e-05
1.15633e-05
5.82512e-06
2.22937e-06
7.46416e-07
2.378e-07
7.03713e-08
2.43001e-08
1.01317e-08
7.60308e-09
1.06927e-07
2.08161e-06
3.27221e-05
0.000243909
0.000651408
0.000807706
0.000699508
0.000312019
8.63627e-05
2.65472e-05
1.85668e-05
3.78091e-05
0.000108105
0.000261305
0.000446081
0.000498629
0.000354033
0.000148033
6.15672e-05
3.74273e-05
0.000138221
8.41598e-05
0.00026745
0.000196513
0.000507015
0.00036405
0.000967251
0.000708483
0.00157941
0.0012292
0.00233246
0.00195167
0.00326094
0.00289612
0.00449695
0.00416171
0.00502548
0.00478592
0.00585331
0.00573402
0.00562325
0.00631289
0.00621924
0.00599643
0.00611271
0.00620529
0.00632485
0.00638811
0.00637779
0.00592183
0.00617838
0.00638963
0.00654809
0.00521225
0.00556642
0.00590404
0.00620979
0.00468992
0.00500101
0.00512746
0.00539976
0.00362411
0.0039019
0.00474455
0.00428929
0.00351452
0.00367209
0.00353993
0.00359692
0.00379666
0.00463393
0.00459618
0.00449217
0.00396171
0.00416183
0.00461705
0.00347917
0.00293617
0.00448058
0.00426042
0.00039127
0.000375167
0.000474406
0.00229643
0.00157129
3.86276e-05
2.55667e-05
1.07376e-05
3.50022e-06
1.04392e-06
2.95463e-07
7.53503e-08
3.26736e-08
1.10844e-08
5.31354e-08
1.00881e-06
1.58257e-05
0.000164143
0.000560915
0.000769095
0.00068471
0.000312171
8.28963e-05
2.12468e-05
8.73178e-06
1.12389e-05
3.06085e-05
7.62611e-05
0.00012687
0.000141949
0.000102756
4.2616e-05
8.52415e-06
1.71814e-05
7.93609e-06
5.56623e-05
3.07288e-05
0.000159861
9.54197e-05
0.000421623
0.00026306
0.000914153
0.000642933
0.00170204
0.00130762
0.0025105
0.00210916
0.00378761
0.00338395
0.00504536
0.00478188
0.00545021
0.00524565
0.00588685
0.00577986
0.00545878
0.00537984
0.00634028
0.00618288
0.00582773
0.00599993
0.00663653
0.00663857
0.00658339
0.00647052
0.00647007
0.00667293
0.00680434
0.00684258
0.00578668
0.00614326
0.00645394
0.00670446
0.00522396
0.00556262
0.00569511
0.00597543
0.00386083
0.00427155
0.00528656
0.00476602
0.00357052
0.0035832
0.00356918
0.00380213
0.00365987
0.00469851
0.00471999
0.00436491
0.00378355
0.00397345
0.00456216
0.00392813
0.00352052
0.00468855
0.00457072
0.00122651
0.00207033
0.00224703
0.00312303
0.00288211
8.17798e-05
4.35504e-05
1.53832e-05
4.4573e-06
1.2121e-06
3.05831e-07
7.65002e-08
2.79254e-08
3.23055e-08
5.41211e-07
8.33009e-06
9.73045e-05
0.000449848
0.000729571
0.000682032
0.000321622
8.59533e-05
2.12759e-05
7.08771e-06
4.64763e-06
7.57869e-06
1.84519e-05
2.86077e-05
3.27939e-05
2.41969e-05
1.01514e-05
2.27103e-06
2.58443e-06
1.0937e-06
9.52565e-06
4.3428e-06
3.82292e-05
1.93152e-05
0.000136492
7.33443e-05
0.000411652
0.000244173
0.000948354
0.000645315
0.00197688
0.0014995
0.00294322
0.00246806
0.00444838
0.00402558
0.00508286
0.00492325
0.0053379
0.00529537
0.00516009
0.00567119
0.00554928
0.00500267
0.00497322
0.00616988
0.00590028
0.00539278
0.0056314
0.0068124
0.00672046
0.00659142
0.00641138
0.0068871
0.00697706
0.00698588
0.00694396
0.00634458
0.00665262
0.00689005
0.00704658
0.00579292
0.00613039
0.0062514
0.00650771
0.00421985
0.0047465
0.00585551
0.00531077
0.0037369
0.00358771
0.0036832
0.00413276
0.00363473
0.00471904
0.00481234
0.00421034
0.00371155
0.00384319
0.00446335
0.00436271
0.00412033
0.00484316
0.00481661
0.00307567
0.00229102
0.00375464
0.00398403
0.00408606
0.00013582
5.89417e-05
1.8023e-05
4.76667e-06
1.18795e-06
2.82148e-07
8.26356e-08
3.32534e-08
2.68224e-07
5.05908e-06
5.16458e-05
0.000328855
0.000679548
0.000686365
0.000349411
9.95689e-05
2.56395e-05
7.73278e-06
3.62979e-06
3.36107e-06
4.49666e-06
5.80362e-06
6.2996e-06
4.65737e-06
2.09438e-06
7.78676e-07
4.19549e-07
1.53606e-06
8.73961e-07
6.97443e-06
3.07083e-06
3.1459e-05
1.50401e-05
0.000127519
6.44098e-05
0.000423289
0.000240088
0.00106408
0.00069731
0.00231144
0.00171081
0.00351271
0.00292683
0.00470308
0.00438862
0.00467904
0.00470693
0.00457957
0.00497229
0.00499249
0.00463526
0.00457951
0.00520374
0.00507428
0.00444967
0.00444792
0.00584505
0.00548596
0.00484293
0.00513899