/*--------------------------------*- C++ -*----------------------------------*\
  =========                 |
  \\      /  F ield         | OpenFOAM: The Open Source CFD Toolbox
   \\    /   O peration     | Website:  https://openfoam.org
    \\  /    A nd           | Version:  dev
     \\/     M anipulation  |
\*---------------------------------------------------------------------------*/
FoamFile
{
    version     2.0;
    format      ascii;
    class       volScalarField;
    location    "2500";
    object      k;
}
// * * * * * * * * * * * * * * * * * * * * * * * * * * * * * * * * * * * * * //

dimensions      [0 2 -2 0 0 0 0];

internalField   nonuniform List<scalar> 
9851
(
0.000154138
0.000162028
0.000145691
0.000141754
0.000204378
0.000118983
0.000120837
0.00021974
0.000183138
0.00010745
0.000111578
0.000209769
0.000220844
0.000140903
0.000103573
0.000105686
0.000181004
0.000242872
0.00019166
0.000118854
0.000101883
0.000102581
0.000148311
0.000242952
0.000229947
0.000148293
0.000109874
0.000100985
0.000100747
0.000129559
0.000231344
0.000249651
0.000189515
0.000124407
0.000105202
0.000100462
9.96519e-05
0.000116456
0.000202063
0.000261124
0.000228237
0.000148456
0.000113661
0.000102578
0.000100124
9.87902e-05
0.000108458
0.000166737
0.000258643
0.000252522
0.000181545
0.000125957
0.000107632
0.000101046
9.98502e-05
9.82164e-05
0.000103868
0.000141552
0.000245436
0.000266416
0.000219023
0.00014491
0.000115237
0.000103658
0.000100093
9.95272e-05
9.78229e-05
0.000101208
0.000124986
0.00021612
0.0002743
0.000249018
0.000171811
0.00012556
0.000108955
0.000101249
9.94417e-05
9.93214e-05
9.75548e-05
9.96134e-05
0.000114587
0.00017969
0.000271002
0.000267577
0.000205906
0.000139823
0.000115847
0.000104434
9.98361e-05
9.88002e-05
9.92215e-05
9.74e-05
9.86235e-05
0.00010839
0.000151319
0.000256799
0.000278948
0.000239401
0.000162925
0.000123619
0.000109608
0.000101357
9.8873e-05
9.8223e-05
9.9186e-05
9.7345e-05
9.80148e-05
0.00010474
0.00013305
0.000226325
0.000284424
0.000264494
0.000191762
0.00013574
0.000115098
0.000104978
9.94932e-05
9.80272e-05
9.7842e-05
9.91682e-05
9.7354e-05
9.76625e-05
0.000102556
0.000121522
0.000189419
0.000280057
0.000278875
0.000225843
0.000153776
0.000121738
0.000109318
0.000101444
9.8214e-05
9.72474e-05
9.76287e-05
9.91431e-05
9.74035e-05
9.74724e-05
0.000101248
0.000114568
0.000160011
0.000264504
0.00028971
0.000255149
0.000180309
0.000131073
0.000113938
0.000104813
9.90455e-05
9.72381e-05
9.66219e-05
9.75117e-05
9.91098e-05
9.75075e-05
9.74051e-05
0.000100434
0.000110724
0.000141023
0.000233667
0.000292647
0.000276919
0.000210015
0.000146306
0.000119281
0.000108448
0.000101272
9.75401e-05
9.63382e-05
9.6178e-05
9.74491e-05
9.90758e-05
9.76335e-05
9.74506e-05
9.99197e-05
0.000108612
0.000129056
0.000197307
0.000287691
0.000288331
0.000242101
0.000168519
0.000126833
0.000112279
0.000104177
9.86398e-05
9.64059e-05
9.55151e-05
9.59109e-05
9.74007e-05
9.90493e-05
9.77559e-05
9.75566e-05
9.96263e-05
0.000107124
0.000121604
0.00016776
0.000271735
0.000298487
0.000267612
0.000196214
0.000139498
0.000116664
0.000107204
0.00010084
9.68457e-05
9.54175e-05
9.48799e-05
9.57623e-05
9.73539e-05
9.90292e-05
9.78907e-05
9.7674e-05
9.94671e-05
0.000105896
0.000117408
0.000148035
0.000240868
0.000301183
0.000286925
0.000225735
0.000157972
0.000123102
0.000110438
0.000103292
9.81665e-05
9.55535e-05
9.44977e-05
9.4439e-05
9.56841e-05
9.72965e-05
9.9012e-05
9.80611e-05
9.78157e-05
9.93727e-05
0.000104855
0.000114977
0.000135182
0.000204122
0.000296169
0.000298255
0.00025568
0.000182643
0.000133144
0.000114144
0.00010585
0.000100196
9.61423e-05
9.44978e-05
9.37131e-05
9.41747e-05
9.562e-05
9.724e-05
9.89901e-05
9.82608e-05
9.80115e-05
9.93508e-05
0.000104014
0.000113231
0.00012709
0.000174026
0.000280399
0.000309341
0.000279477
0.00021034
0.000148987
0.000119508
0.000108466
0.000102223
9.76445e-05
9.4719e-05
9.35359e-05
9.31342e-05
9.40289e-05
9.55408e-05
9.71991e-05
9.89739e-05
9.84659e-05
9.82505e-05
9.94161e-05
0.000103401
0.000111731
0.000121953
0.000153329
0.000249154
0.00031246
0.000298985
0.000239571
0.000169753
0.000127937
0.00011178
0.000104311
9.93302e-05
9.55168e-05
9.35958e-05
9.26855e-05
9.27567e-05
9.39306e-05
9.54701e-05
9.71494e-05
9.89585e-05
9.86682e-05
9.85042e-05
9.95669e-05
0.000103003
0.000110405
0.000118893
0.00013954
0.000211259
0.000307653
0.000310818
0.000268559
0.000195668
0.000140655
0.000116187
0.000106729
0.00010103
9.69304e-05
9.39283e-05
9.26418e-05
9.20176e-05
9.25359e-05
9.38438e-05
9.54186e-05
9.70994e-05
9.89448e-05
9.88854e-05
9.87559e-05
9.97714e-05
0.000102815
0.000109278
0.000116957
0.000130552
0.000180426
0.000292541
0.000323303
0.000292835
0.000223563
0.000158919
0.000123347
0.000109435
0.000102923
9.83587e-05
9.4879e-05
9.2756e-05
9.17862e-05
9.15548e-05
9.24176e-05
9.37791e-05
9.53595e-05
9.70507e-05
9.89407e-05
9.91055e-05
9.90224e-05
9.999e-05
0.000102804
0.00010838
0.000115614
0.000124941
0.000158561
0.000261659
0.000327524
0.000313137
0.000252986
0.000181516
0.000134019
0.000113627
0.000104944
9.98687e-05
9.61206e-05
9.32063e-05
9.18037e-05
9.10762e-05
9.12872e-05
9.23523e-05
9.3738e-05
9.52841e-05
9.70002e-05
9.89432e-05
9.92955e-05
9.92903e-05
0.000100214
0.000102849
0.000107732
0.00011462
0.000121523
0.000143736
0.000222849
0.000323362
0.000326221
0.000282651
0.000208264
0.000149343
0.000119433
0.000107624
0.000101503
9.7344e-05
9.41819e-05
9.19745e-05
9.09888e-05
9.058e-05
9.11677e-05
9.23176e-05
9.37178e-05
9.52164e-05
9.6966e-05
9.89596e-05
9.94545e-05
9.95136e-05
0.000100433
0.000102873
0.00010731
0.000113778
0.000119515
0.000134301
0.000190325
0.000309572
0.000340236
0.000307782
0.000237028
0.000169362
0.000128715
0.000111083
0.000103407
9.86665e-05
9.51934e-05
9.25211e-05
9.10398e-05
9.03031e-05
9.02991e-05
9.11462e-05
9.23311e-05
9.37135e-05
9.51919e-05
9.69915e-05
9.90152e-05
9.95899e-05
9.96857e-05
0.000100599
0.000102885
0.00010704
0.000113035
0.000118476
0.000128526
0.000167487
0.000281175
0.000346599
0.000329566
0.000266613
0.000193672
0.000141428
0.000116633
0.000105842
0.000100122
9.62697e-05
9.33542e-05
9.12597e-05
9.02944e-05
8.98285e-05
9.02172e-05
9.12009e-05
9.23988e-05
9.37535e-05
9.52616e-05
9.71132e-05
9.91422e-05
9.96918e-05
9.98135e-05
0.000100688
0.000102865
0.000106813
0.000112349
0.000117898
0.000125063
0.000151718
0.000243862
0.000344117
0.000344263
0.000297542
0.000220955
0.000159038
0.000124327
0.00010936
0.000101989
9.74379e-05
9.42467e-05
9.18212e-05
9.03647e-05
8.96908e-05
8.96117e-05
9.03094e-05
9.13479e-05
9.25502e-05
9.38928e-05
9.54614e-05
9.73927e-05
9.93652e-05
9.97392e-05
9.98875e-05
0.000100707
0.000102772
0.000106549
0.000111712
0.00011747
0.000123089
0.000141448
0.000209409
0.000334205
0.000359241
0.000323933
0.000250552
0.000180757
0.000135766
0.000114298
0.000104501
9.88898e-05
9.52275e-05
9.25399e-05
9.05962e-05
8.97162e-05
8.93276e-05
8.96603e-05
9.05707e-05
9.16492e-05
9.28534e-05
9.42265e-05
9.58907e-05
9.79078e-05
9.96812e-05
9.97492e-05
9.98854e-05
0.000100643
0.000102589
0.000106189
0.000111192
0.000116883
0.000121989
0.000134903
0.000184759
0.000312251
0.000372136
0.000346966
0.000280504
0.000206413
0.000150845
0.000121611
0.000108086
0.000100947
9.6417e-05
9.33634e-05
9.11163e-05
8.9813e-05
8.93026e-05
8.92734e-05
8.99703e-05
9.10379e-05
9.21762e-05
9.34252e-05
9.49231e-05
9.67692e-05
9.88624e-05
0.000100188
9.97576e-05
9.97903e-05
0.000100478
0.000102277
0.000105729
0.000110736
0.000116229
0.00012151
0.00013098
0.000166683
0.000279833
0.000373842
0.000366818
0.000311705
0.000234625
0.000170452
0.000131795
0.000113205
0.000103887
9.82022e-05
9.44465e-05
9.18304e-05
9.0052e-05
8.93739e-05
8.91773e-05
8.95685e-05
9.05722e-05
9.17374e-05
9.30149e-05
9.44419e-05
9.62514e-05
9.83923e-05
0.00010047
0.000100393
0.000101148
9.97254e-05
9.95872e-05
0.000100205
0.000101857
0.00010516
0.000110169
0.000115681
0.000121172
0.00012862
0.00015423
0.000243632
0.000370143
0.000384492
0.000341957
0.000264459
0.000194106
0.000145502
0.000120656
0.000108008
0.000100797
9.60193e-05
9.28291e-05
9.0606e-05
8.9545e-05
8.92786e-05
8.94687e-05
9.02466e-05
9.14702e-05
9.27879e-05
9.43458e-05
9.6245e-05
9.85855e-05
0.000101
0.000101773
0.000102436
0.00010062
0.000101629
9.9621e-05
9.9308e-05
9.9834e-05
0.000101365
0.000104471
0.000109418
0.00011514
0.000120856
0.000127177
0.000145842
0.000214289
0.000358645
0.000404447
0.000368497
0.000295629
0.00022075
0.000163497
0.000130457
0.000113986
0.000104528
9.85036e-05
9.43261e-05
9.15356e-05
8.99219e-05
8.95188e-05
8.96418e-05
9.03005e-05
9.1456e-05
9.28851e-05
9.45166e-05
9.6514e-05
9.91079e-05
0.000100837
0.00010105
0.000103167
0.000102068
0.000103915
0.000102598
0.000103566
0.000100693
0.000101966
9.94664e-05
9.89168e-05
9.93027e-05
0.000100777
0.000103709
0.00010851
0.000114471
0.000120444
0.000126279
0.000140582
0.000192565
0.000334209
0.000419016
0.000395468
0.000328145
0.000250194
0.000185085
0.000143956
0.000122051
0.000110009
0.000102198
9.69535e-05
9.3268e-05
9.07826e-05
8.99839e-05
9.00705e-05
9.06332e-05
9.17835e-05
9.33202e-05
9.50308e-05
9.71387e-05
0.000100051
0.000101561
0.000102309
0.00010289
0.000104512
0.00010479
0.000105479
0.000103213
0.000104437
0.000100756
0.000102191
9.92743e-05
9.84349e-05
9.86334e-05
0.000100071
0.00010287
0.000107492
0.000113654
0.000119838
0.000125822
0.000137176
0.000176199
0.000300032
0.000422111
0.000420887
0.000363345
0.000281373
0.000211127
0.000160784
0.000133135
0.000117651
0.000107695
0.000100721
9.60265e-05
9.27227e-05
9.09473e-05
9.08235e-05
9.14342e-05
9.25602e-05
9.42983e-05
9.6242e-05
9.82281e-05
0.000100875
0.000102932
0.000103523
0.000103651
0.000104544
0.000105707
0.000105701
0.000106607
0.000107078
0.000103649
0.000105166
0.000100829
0.000102382
9.90338e-05
9.79335e-05
9.79283e-05
9.93029e-05
0.000101934
0.000106355
0.000112626
0.000119058
0.000125411
0.000135003
0.000165053
0.000264593
0.000419844
0.000447308
0.000398071
0.000314974
0.00023981
0.000182709
0.000147524
0.000128215
0.000115942
0.000107154
0.000100558
9.60442e-05
9.30798e-05
9.21574e-05
9.27698e-05
9.40852e-05
9.5718e-05
9.75824e-05
9.94381e-05
0.000101794
0.000103991
0.000104549
0.000105275
0.000105982
0.000106592
0.000107473
0.000107808
0.000106832
0.000108561
0.000108672
0.000104018
0.000105855
0.00010089
0.000102524
9.87628e-05
9.74341e-05
9.72482e-05
9.85199e-05
0.000100931
0.000105058
0.00011128
0.000118069
0.000124843
0.000133627
0.000157401
0.000236833
0.000410222
0.000475886
0.000432592
0.000351248
0.000271836
0.000207913
0.000166534
0.000142399
0.00012771
0.00011678
0.000108369
0.000101819
9.72431e-05
9.48316e-05
9.49247e-05
9.60562e-05
9.73345e-05
9.89575e-05
0.000100928
0.000103131
0.000105041
0.000105752
0.000106557
0.000107152
0.000108214
0.000108855
0.000108979
0.000110019
0.000110076
0.000107992
0.000110597
0.000110378
0.000104333
0.00010653
0.000100948
0.000102617
9.85007e-05
9.69707e-05
9.66584e-05
9.77702e-05
9.98769e-05
0.000103589
0.000109638
0.000116727
0.000123987
0.000132566
0.000152271
0.000215948
0.000385632
0.000497417
0.00046996
0.000391549
0.000306866
0.000237839
0.000189706
0.000161053
0.000143629
0.000130586
0.000120072
0.000111629
0.000104898
0.000100113
9.82877e-05
9.84822e-05
9.95918e-05
0.000101298
0.000102797
0.000105137
0.000106433
0.000107622
0.000107785
0.00010858
0.000109457
0.000110152
0.000110883
0.000111657
0.000111506
0.000112717
0.000112492
0.000109258
0.00011283
0.000112329
0.000104597
0.000107263
0.000100992
0.000102646
9.83383e-05
9.67293e-05
9.63077e-05
9.70493e-05
9.87682e-05
0.000101997
0.00010775
0.000115063
0.000122803
0.000131674
0.000148839
0.000199944
0.000350574
0.00050644
0.000509055
0.000437363
0.000344874
0.000271701
0.00021798
0.000185699
0.000165987
0.000151287
0.000138525
0.000127417
0.000118081
0.000110455
0.000104919
0.000102734
0.000102697
0.000104031
0.000105309
0.000107372
0.000108721
0.000110571
0.000109672
0.000111377
0.000111074
0.000112825
0.000112583
0.000114233
0.000113829
0.000115336
0.000114182
0.000115717
0.000115099
0.000110778
0.000115326
0.000114623
0.000104796
0.000108112
0.00010102
0.000102568
9.83934e-05
9.68055e-05
9.63371e-05
9.64839e-05
9.77021e-05
0.00010043
0.00010569
0.000113214
0.000121386
0.000130672
0.000146331
0.000188379
0.000313885
0.000507115
0.00054978
0.000484975
0.000387504
0.00030923
0.000251758
0.000217204
0.000198248
0.000184279
0.000169826
0.000157
0.000144279
0.000131825
0.000119922
0.000111949
0.000108494
0.000107909
0.000108702
0.000109937
0.000111998
0.000115281
0.000113575
0.000117496
0.000115665
0.000122088
0.000117787
0.000125733
0.000118785
0.000127506
0.000118439
0.000125467
0.00011719
0.000121617
0.000118046
0.00011266
0.000117998
0.00011666
0.000104901
0.000109261
0.00010101
0.000102418
9.90039e-05
9.74706e-05
9.66629e-05
9.62011e-05
9.68198e-05
9.90737e-05
0.000103735
0.00011141
0.000119819
0.000129491
0.000144529
0.000180093
0.000283895
0.000501071
0.000591384
0.00053534
0.000435374
0.000350712
0.000289662
0.000255658
0.000242457
0.000239329
0.000236217
0.000231482
0.000217093
0.00019405
0.000165105
0.000141182
0.000125669
0.00011803
0.000115854
0.000115186
0.000117089
0.000119869
0.000122399
0.000129986
0.000131497
0.000150388
0.000142371
0.000178436
0.000148646
0.000196704
0.000145261
0.000196463
0.000134689
0.000174048
0.000124394
0.000145059
0.000125972
0.000114004
0.000125611
0.000122788
0.000105069
0.000109901
0.00010093
0.000102269
0.000100286
9.93215e-05
9.76116e-05
9.6451e-05
9.63053e-05
9.80206e-05
0.000102209
0.000109835
0.000118265
0.000128372
0.000143957
0.000174393
0.000260981
0.000478484
0.000624414
0.000591244
0.00049106
0.000395491
0.000331767
0.000297726
0.000299629
0.000339098
0.000413689
0.00050813
0.000582276
0.000547854
0.000418504
0.000287069
0.000198455
0.000157892
0.000138713
0.000129976
0.000125997
0.000119634
0.00013861
0.000151144
0.000175317
0.000211461
0.000233071
0.000323989
0.000289923
0.000459063
0.000312342
0.000546504
0.000280436
0.000525213
0.000213928
0.000405159
0.000154287
0.000255918
0.000158591
0.000117489
0.000155532
0.000145035
0.000105021
0.000110685
0.00010081
0.000101994
0.000102955
0.000103973
0.000100219
9.77551e-05
9.64514e-05
9.7449e-05
0.000101094
0.000108399
0.000116889
0.00012744
0.000144098
0.00017075
0.00024307
0.000440473
0.000641052
0.000650371
0.000555108
0.000444743
0.000374789
0.000341965
0.000367565
0.000500913
0.000829624
0.00138086
0.00191108
0.0020876
0.00167699
0.00107134
0.000601182
0.000336686
0.000228267
0.000181103
0.000197156
0.000164252
0.000203651
0.000261601
0.000318413
0.000442097
0.00059706
0.000693089
0.00101267
0.000924699
0.00145201
0.00101123
0.00172678
0.000853226
0.00170013
0.000558789
0.00126759
0.0002888
0.000704084
0.000297999
0.000130181
0.000277208
0.000231457
0.000104851
0.000115853
0.000100655
0.000101796
0.000108972
0.000114825
0.000106716
0.000100823
9.77084e-05
9.75874e-05
0.000100513
0.000107099
0.00011554
0.000126696
0.000144379
0.000169054
0.000229196
0.00039794
0.000643883
0.000709703
0.000623634
0.00050068
0.000419255
0.000384522
0.000441722
0.000719273
0.00146479
0.00278146
0.004295
0.00512996
0.00490312
0.00374299
0.00224543
0.00107817
0.000549344
0.000349712
0.000344759
0.000612535
0.000846176
0.000403031
0.000500661
0.00079313
0.00102474
0.00139758
0.00184063
0.00206998
0.00274465
0.00259454
0.00350149
0.00278229
0.00390405
0.00250649
0.00386022
0.00169589
0.00326671
0.000797044
0.00202495
0.000796387
0.00017789
0.00069201
0.000515591
0.000106396
0.000135403
0.000100451
0.000102204
0.000124086
0.000141273
0.00012322
0.000107833
0.000100831
9.87052e-05
0.00010056
0.00010611
0.000114199
0.000125987
0.00014444
0.000168374
0.000218352
0.000358838
0.000637835
0.000765702
0.000696416
0.000565729
0.000467044
0.000422961
0.000512182
0.000962017
0.00217855
0.00431243
0.00625778
0.00690454
0.00675324
0.00616657
0.00501142
0.0033792
0.00173551
0.000880188
0.000749336
0.00110422
0.00167276
0.00209818
0.00263964
0.00132335
0.00165977
0.00232446
0.00285756
0.00342939
0.00408752
0.00433798
0.00506811
0.00491027
0.005702
0.0050679
0.00598493
0.00474998
0.00590082
0.00384853
0.00537326
0.0021709
0.00418879
0.00208245
0.000331187
0.00173673
0.0012728
0.000113621
0.000201448
0.000100437
0.000104471
0.000157581
0.000198854
0.000165578
0.000125791
0.000107532
0.000101206
0.000101136
0.000105511
0.000113044
0.000125212
0.000144027
0.000167132
0.000208761
0.00032715
0.000613082
0.000807853
0.000775441
0.000643318
0.000519888
0.000461467
0.000569086
0.00118516
0.0028428
0.00555182
0.007184
0.00765029
0.00745459
0.00687734
0.00605187
0.00510353
0.00391871
0.00256639
0.00202124
0.00223835
0.00287506
0.00328528
0.00409211
0.00463139
0.00521353
0.00342037
0.00401061
0.00469863
0.00524204
0.00564681
0.00606956
0.00625469
0.0066101
0.00660641
0.00699152
0.00670835
0.00723473
0.00648118
0.00726217
0.00577258
0.00694321
0.00429476
0.00602228
0.00414284
0.000764494
0.00362962
0.00272113
0.000136112
0.00038878
0.000100537
0.000110163
0.000166069
0.000245109
0.00024068
0.000172004
0.000124073
0.000105118
0.000102352
0.000105164
0.000112054
0.000124216
0.000142743
0.000164552
0.000200628
0.000299292
0.000563809
0.000826031
0.000855183
0.000732109
0.000581529
0.00049823
0.000607608
0.00134871
0.00340267
0.00627033
0.00754482
0.00767813
0.00723905
0.00652469
0.00583992
0.00520033
0.00476849
0.00428279
0.00412565
0.00569178
0.00465091
0.00581653
0.00578296
0.00623082
0.0063545
0.00663558
0.00569494
0.00605084
0.00635794
0.00656842
0.00683521
0.00696661
0.00721013
0.00733585
0.00757306
0.00780545
0.00783911
0.00826465
0.00781604
0.0085251
0.00734644
0.00840153
0.00610308
0.00767144
0.00596021
0.00169557
0.00553174
0.00469818
0.00019689
0.000874037
0.000101208
0.000123292
0.000185676
0.000268345
0.000244867
0.000167116
0.000116035
0.000104617
0.000105038
0.000111106
0.000122918
0.000140825
0.000162189
0.000195472
0.000275695
0.000510782
0.00082609
0.000929912
0.000825418
0.000656253
0.000539897
0.000627928
0.0014301
0.00374007
0.00659249
0.00752394
0.00742247
0.00646951
0.00547044
0.00516366
0.0049629
0.00479613
0.00475927
0.00522221
0.00663741
0.00731509
0.00771181
0.00669028
0.00706455
0.00691824
0.0071856
0.00701977
0.00720656
0.00673988
0.00688304
0.00704962
0.00712092
0.00742342
0.00750382
0.00795486
0.00806529
0.00859906
0.00886664
0.00916699
0.00970643
0.00931489
0.0102588
0.00896174
0.0101627
0.00783981
0.00941343
0.00778553
0.00336147
0.00743733
0.00669333
0.000358109
0.0018374
0.000103719
0.000162037
0.000168172
0.000262315
0.00023402
0.000146842
0.000110385
0.000105885
0.00011046
0.000121695
0.00013956
0.000161423
0.00019428
0.000262059
0.000461402
0.000814471
0.000993529
0.000920756
0.000746413
0.000591626
0.000637029
0.00143301
0.00386808
0.00659367
0.00737323
0.00681934
0.0054063
0.00436739
0.0045117
0.0046975
0.00472862
0.00478827
0.00535915
0.00676535
0.00785213
0.00784772
0.00806499
0.00839934
0.00746429
0.00774688
0.00744542
0.00777164
0.00755927
0.00786937
0.00721934
0.00735874
0.00758382
0.00769133
0.0081641
0.00825417
0.00904085
0.00918961
0.0102259
0.010664
0.0112646
0.0122574
0.0115541
0.0131165
0.0109398
0.0127489
0.00965043
0.011472
0.00960077
0.00542373
0.00928718
0.00880422
0.0073232
0.00074541
0.00344725
0.000106671
0.000232376
0.000148261
0.000246109
0.000203693
0.000129673
0.000110571
0.000111094
0.000121615
0.000139882
0.000163365
0.000197469
0.000258886
0.000422686
0.000777364
0.00103199
0.00101742
0.000851579
0.000655646
0.000635562
0.0014006
0.00383777
0.00650154
0.00705838
0.00614326
0.00450483
0.00345802
0.00361558
0.00433441
0.00467748
0.00493035
0.00542889
0.00675726
0.00861371
0.00863721
0.00917482
0.00913911
0.00966748
0.00816145
0.00862864
0.00827676
0.00879101
0.00836947
0.00884595
0.00784597
0.00806352
0.00834231
0.00847569
0.00932338
0.009417
0.0110142
0.0112478
0.0131218
0.0138286
0.0147754
0.0162652
0.0150757
0.0171343
0.0137473
0.0163286
0.0116742
0.0143102
0.0128986
0.0104582
0.0116158
0.00831409
0.00595807
0.00780694
0.00998205
0.0112452
0.011425
0.00970167
0.00138785
0.00699842
0.0060626
0.00383151
0.000106562
0.000272025
0.000147944
0.000232973
0.000174928
0.000127797
0.000117388
0.000125382
0.000143916
0.00017202
0.00021014
0.00026456
0.00040224
0.000725873
0.00103895
0.00110628
0.000964361
0.000737641
0.000635331
0.00130695
0.00370664
0.0063131
0.00674172
0.00559659
0.00385201
0.00273268
0.002659
0.00349118
0.00449136
0.00517519
0.00579835
0.00684001
0.00889995
0.0107439
0.0109837
0.0101127
0.0105079
0.0106333
0.0111166
0.00935788
0.0100151
0.00941726
0.00998403
0.00938172
0.00980412
0.00867914
0.00897369
0.00950465
0.00960543
0.0113346
0.0112866
0.0142698
0.0143532
0.0172243
0.0175634
0.0185937
0.0190706
0.0183309
0.0187361
0.0191972
0.0155307
0.0169153
0.0183849
0.0176539
0.0143281
0.0127605
0.0142544
0.0157027
0.0126487
0.00930427
0.00875878
0.0109417
0.0121606
0.0124293
0.0106319
0.00476097
0.00135663
0.00332591
0.00804664
0.00708646
0.000109256
0.00168622
0.000722818
0.000231693
0.000166763
0.000232205
0.000170879
0.000139809
0.000141539
0.000158949
0.000190791
0.000235778
0.000292472
0.000400964
0.000679215
0.00103159
0.00118181
0.00107494
0.000841546
0.000647416
0.0011565
0.00341415
0.00611943
0.00647043
0.00524426
0.00348055
0.00225712
0.00193552
0.00235204
0.00372334
0.00510258
0.00612927
0.00720824
0.00906619
0.0110549
0.0116808
0.0117452
0.0114458
0.0116373
0.0113515
0.0116559
0.0105078
0.0109858
0.010176
0.0105289
0.0100854
0.0102172
0.00973166
0.00993734
0.0111784
0.0109938
0.0141276
0.0136397
0.0174047
0.0169936
0.0190263
0.0187052
0.019285
0.0192956
0.0191371
0.0189353
0.0185994
0.0186392
0.0191471
0.0191193
0.016936
0.017744
0.0182227
0.0181465
0.0155994
0.0139891
0.0153748
0.0168184
0.0137416
0.0102429
0.00974055
0.0118651
0.0134278
0.0130949
0.0115375
0.005853
0.0042381
0.00907571
0.00817669
0.000265048
0.000101785
0.000128167
0.0024236
0.0010022
0.000208881
0.000241114
0.000194126
0.000187185
0.000200138
0.000224873
0.000266878
0.000330802
0.000414147
0.000648327
0.00100343
0.00123061
0.00117845
0.000963376
0.000688475
0.00100107
0.00299711
0.00589794
0.00629777
0.00504325
0.00334598
0.00214133
0.00151204
0.00144579
0.00229231
0.00424268
0.00596659
0.00729928
0.0089908
0.0105931
0.0110532
0.0110179
0.0117511
0.0115295
0.0118263
0.0118272
0.0112476
0.0111755
0.0108859
0.0111661
0.0103649
0.0103681
0.0103373
0.0100678
0.0107969
0.0105925
0.0129974
0.0123006
0.0162559
0.0153393
0.01816
0.0175709
0.0186564
0.0184021
0.0181762
0.0179728
0.0188743
0.0185092
0.0181544
0.0178102
0.0179074
0.0173256
0.0184077
0.0179544
0.017549
0.0178352
0.0170363
0.0176421
0.0165718
0.0150813
0.0162604
0.0172688
0.0147352
0.0111636
0.0107047
0.012755
0.0143463
0.0139579
0.0124076
0.0069639
0.00535681
0.0101027
0.00928053
0.000398906
0.000101824
0.000148881
0.00334448
0.00156274
0.00029604
0.000297371
0.000275969
0.000272335
0.000279401
0.000310202
0.000367932
0.000457152
0.000639496
0.000956368
0.00124182
0.00127134
0.00109266
0.000780908
0.000868585
0.00251525
0.00561548
0.00619369
0.00502016
0.00336697
0.00217196
0.00133326
0.000935461
0.00125997
0.0024153
0.00453661
0.00662351
0.00835522
0.00980839
0.00930232
0.00935791
0.00862112
0.010195
0.0097459
0.0109649
0.0106001
0.00947284
0.008863
0.0102646
0.00997412
0.00966603
0.00908946
0.0100918
0.00928525
0.0115851
0.0108451
0.0142755
0.0131523
0.0169095
0.0160763
0.0178444
0.0176864
0.01759
0.0173877
0.0175533
0.0173664
0.0172792
0.0172693
0.0174376
0.0169954
0.016651
0.0164142
0.016237
0.0167216
0.0154772
0.0161503
0.0174448
0.0170221
0.0151762
0.0161555
0.0169358
0.0159083
0.0165909
0.01703
0.0155133
0.0120476
0.0116354
0.0135739
0.0150933
0.0146785
0.013209
0.00813521
0.00653609
0.0111074
0.0103771
0.000744278
0.000101902
0.00018751
0.00450554
0.00261746
0.000445421
0.000441518
0.000391652
0.000365546
0.000372592
0.000416265
0.000499621
0.0006435
0.000916586
0.00123513
0.00134589
0.00121521
0.000904886
0.000785822
0.00203154
0.00521696
0.00613515
0.00506063
0.00345989
0.00227371
0.00131318
0.00072853
0.00074111
0.00124638
0.00250142
0.00451661
0.00652923
0.00784352
0.00731976
0.00517578
0.00469618
0.00627956
0.00578269
0.00705821
0.0066162
0.00821122
0.00758361
0.00645891
0.0054717
0.00834381
0.00744812
0.0084118
0.00746342
0.00981887
0.00880366
0.012009
0.010869
0.01502
0.0138374
0.0170897
0.0164849
0.0173141
0.0173724
0.0173966
0.0173521
0.0163192
0.0163313
0.0164532
0.0166516
0.0156808
0.0153645
0.0152123
0.0151994
0.0143329
0.0148625
0.0136973
0.0144062
0.0164466
0.015382
0.0133567
0.0142599
0.0166606
0.0162442
0.0163379
0.0159756
0.0158887
0.012862
0.0124962
0.0142702
0.0155353
0.0151725
0.0139001
0.00931951
0.00780259
0.0120416
0.011419
0.00140022
0.00011179
0.000408338
0.0059277
0.00416224
0.00067205
0.000638558
0.000527932
0.000474325
0.000484612
0.000548139
0.000660782
0.000893124
0.00121005
0.00139743
0.00131998
0.00104824
0.000766911
0.0015845
0.00462826
0.0060873
0.00517072
0.00366545
0.00249166
0.00134419
0.000683883
0.000547691
0.00069673
0.00125973
0.00243184
0.00389823
0.00488913
0.00422341
0.0021617
0.00215549
0.00171685
0.00274047
0.00247039
0.00335188
0.00300084
0.00457092
0.00385947
0.00445966
0.00355591
0.00646044
0.00544355
0.00778777
0.0067626
0.0100703
0.00890436
0.0125842
0.0112911
0.0155442
0.014442
0.0171319
0.0168235
0.0160399
0.0165237
0.0168795
0.0170847
0.0172087
0.0172164
0.0153175
0.0155567
0.0158757
0.0162283
0.0141449
0.014072
0.0141315
0.014349
0.0127065
0.0132728
0.0123227
0.0130815
0.0147817
0.0135503
0.0119158
0.0125843
0.0156494
0.0160572
0.015451
0.0143799
0.0157996
0.0135633
0.0132287
0.0147934
0.0155517
0.0152954
0.0144361
0.0105108
0.00922833
0.0128402
0.012338
0.00307293
0.00109062
0.00235923
0.00771046
0.00642001
0.000981338
0.000882163
0.00068464
0.000603158
0.000620003
0.000704527
0.00088993
0.00117186
0.00141222
0.00140696
0.00119244
0.000798741
0.00121857
0.00385408
0.00599993
0.00538637
0.00396543
0.0027924
0.00144383
0.000694718
0.000507021
0.000499473
0.000686888
0.00120165
0.00196166
0.00244026
0.00201075
0.0011519
0.000756993
0.00066846
0.000925275
0.000790948
0.00120632
0.00105264
0.00172037
0.0014132
0.00277734
0.00216499
0.00385889
0.00302241
0.00574879
0.0047743
0.00779889
0.00675131
0.0110517
0.00990528
0.0133503
0.012211
0.0156373
0.0151147
0.0144696
0.0167581
0.0164185
0.015566
0.0160011
0.0165613
0.0168235
0.0169542
0.0169341
0.0146813
0.0150905
0.0155324
0.0159601
0.0130568
0.0131896
0.0134763
0.0138721
0.0115617
0.0121855
0.0114546
0.0121938
0.0130585
0.0120217
0.0109765
0.01132
0.0141811
0.0153652
0.0141478
0.0127784
0.0153207
0.0141072
0.0137811
0.0150327
0.0152604
0.0151473
0.014756
0.0116431
0.0107274
0.0134333
0.0130378
0.00786327
0.0233195
0.012715
0.00978809
0.00962275
0.00136703
0.00115731
0.000849338
0.000747429
0.000782265
0.00090309
0.00114918
0.00140845
0.00147401
0.00132331
0.000927035
0.000986114
0.0029887
0.00582197
0.00561331
0.00433298
0.0032081
0.00167158
0.000756004
0.000517564
0.000459096
0.000485732
0.000658673
0.000952295
0.00111491
0.000974845
0.000698143
0.000502614
0.000535504
0.000485469
0.000615065
0.000566701
0.000800261
0.000683695
0.00128665
0.000990403
0.00229604
0.00171541
0.00387799
0.00302179
0.00575543
0.00479914
0.00880426
0.00774843
0.0120306
0.0110391
0.0136884
0.0129267
0.0151646
0.0148617
0.0143637
0.0143015
0.0162064
0.0157466
0.0148302
0.015253
0.0163223
0.0165674
0.0166304
0.0165257
0.0143358
0.0148303
0.0153186
0.0157584
0.0123834
0.0127115
0.0131317
0.0136094
0.0108764
0.0114829
0.0109194
0.0117045
0.0116586
0.0109047
0.0104501
0.0105516
0.0127073
0.0142548
0.0128092
0.0114947
0.0144342
0.0144557
0.0141226
0.0149871
0.0146232
0.0147481
0.0147995
0.0125552
0.0120195
0.013786
0.0134448
0.012949
0.0457743
0.0334455
0.0117108
0.0123348
0.00178591
0.00140918
0.00100547
0.000912363
0.000956407
0.00114825
0.00139374
0.00152153
0.00142953
0.00110143
0.000902345
0.00218123
0.00543564
0.00580858
0.00474697
0.0037544
0.00214636
0.000909072
0.000582548
0.000470799
0.000444648
0.00047348
0.000555312
0.000593592
0.000564678
0.000490609
0.000424872
0.000429447
0.000406816
0.000476329
0.000442914
0.000551584
0.000507478
0.000736521
0.000620607
0.00123272
0.000929229
0.00227636
0.00167606
0.00461011
0.0035682
0.00671827
0.00567625
0.0100065
0.008915
0.0136885
0.0127176
0.014328
0.0142234
0.0144032
0.0145527
0.0144171
0.0143743
0.0147413
0.0154529
0.014863
0.0139853
0.0143181
0.0160962
0.016244
0.0162025
0.0159346
0.0141127
0.0146176
0.0150917
0.0154889
0.0120413
0.0124509
0.0128971
0.0133633
0.0104742
0.0111384
0.0106766
0.0114547
0.0106617
0.0102736
0.010157
0.0101506
0.0115219
0.0130663
0.0117246
0.0105953
0.0134212
0.0145651
0.0142525
0.0147817
0.0138006
0.0141356
0.0146921
0.0130943
0.0127707
0.0138899
0.0135472
0.0170191
0.043878
0.0452567
0.012596
0.0132069
0.00216177
0.00158832
0.00114984
0.00108621
0.00117256
0.00138894
0.00154425
0.00150578
0.00126465
0.000902438
0.0015598
0.00464074
0.00597276
0.00518787
0.0043836
0.00291903
0.00118634
0.000718545
0.000540372
0.000456469
0.000434597
0.00043003
0.000426736
0.000414637
0.000390541
0.000368779
0.000357214
0.000401642
0.000369311
0.000451058
0.000424116
0.000538105
0.00048759
0.000739657
0.000615193
0.00131037
0.000953466
0.00262902
0.00186357
0.00537471
0.00413066
0.00780538
0.0066249
0.0115754
0.0103194
0.0156781
0.0152901
0.0151523
0.0150069
0.0151492
0.0158525
0.0158903
0.0139231
0.0140702
0.0144417
0.0149923
0.0146056
0.0138961
0.0131822
0.0133378
0.01575
0.0157903
0.0156344
0.01523
0.0138349
0.0142909
0.0147055
0.0150473
0.01182
0.0122
0.0125858
0.0129791
0.0103166
0.0109527
0.0105409
0.0112468
0.0101437
0.00998691
0.0100697
0.00996947
0.0107027
0.0120918
0.0109947
0.0101692
0.0125558
0.01449
0.0142079
0.0143695
0.0130595
0.0135349
0.0144498
0.0131993
0.0128134
0.0138268
0.0134392
0.0180967
0.0105828
0.040388
0.0124738
0.0128213
0.0024356
0.00167558
0.0012858
0.0012619
0.00140054
0.00156582
0.00155819
0.00139504
0.000960237
0.00118935
0.00358812
0.00597842
0.00562768
0.00503405
0.00385652
0.00173407
0.000915316
0.000665201
0.000525936
0.000442588
0.000403717
0.000378914
0.000363475
0.000348003
0.000333201
0.000324929
0.000338187