/*--------------------------------*- C++ -*----------------------------------*\
  =========                 |
  \\      /  F ield         | OpenFOAM: The Open Source CFD Toolbox
   \\    /   O peration     | Website:  https://openfoam.org
    \\  /    A nd           | Version:  dev
     \\/     M anipulation  |
\*---------------------------------------------------------------------------*/
FoamFile
{
    version     2.0;
    format      ascii;
    class       volScalarField;
    location    "2500";
    object      nut;
}
// * * * * * * * * * * * * * * * * * * * * * * * * * * * * * * * * * * * * * //

dimensions      [0 2 -1 0 0 0 0];

internalField   nonuniform List<scalar> 
9851
(
0.000126192
0.000130428
0.000122728
0.00012098
0.000154344
0.000109972
0.000111982
0.000164208
0.000145373
0.000105072
0.000108158
0.000160306
0.00016614
0.000124725
0.000102882
0.000104919
0.000147201
0.000179507
0.00015299
0.000113762
0.000101824
0.000103366
0.000131106
0.000180514
0.000174179
0.000131377
0.000108596
0.000101382
0.000102751
0.000121911
0.000176019
0.000185907
0.000154759
0.000118926
0.000105446
0.0001012
0.000102376
0.000114281
0.000162174
0.000193775
0.000176382
0.000133708
0.000112667
0.000103703
0.000101016
0.00010189
0.000109521
0.000143552
0.000193186
0.000190465
0.000152926
0.000121364
0.000108535
0.000102901
0.000100795
0.000101472
0.000106667
0.000130994
0.00018717
0.000199398
0.000174457
0.000133519
0.000114967
0.000105641
0.000102424
0.000100493
0.000101031
0.000105002
0.000121492
0.00017189
0.000204972
0.000191778
0.000149802
0.000122455
0.000110703
0.000104127
0.000102022
0.000100306
0.000100667
0.00010418
0.000115201
0.000152448
0.000203431
0.000202741
0.000169995
0.000131995
0.000116511
0.000107373
0.000103396
0.000101496
0.000100219
0.000100428
0.000103691
0.000111316
0.000137967
0.000196096
0.000210158
0.000189612
0.000146751
0.000122329
0.00011232
0.000105232
0.000102848
0.000100993
0.000100189
0.000100308
0.00010336
0.000108989
0.000127985
0.00017954
0.000213823
0.000204312
0.000164231
0.000130878
0.000116976
0.000108926
0.000104157
0.000102253
0.000100649
0.000100172
0.000100265
0.000103106
0.000107536
0.000121185
0.000159525
0.000211323
0.000212513
0.000184947
0.000142831
0.000122167
0.000113095
0.000106345
0.000103421
0.000101612
0.000100451
0.000100147
0.000100264
0.00010289
0.000106592
0.000116841
0.000144438
0.000202696
0.000219286
0.000202168
0.0001597
0.000129066
0.000117116
0.000109814
0.000104762
0.000102788
0.000101062
0.000100343
0.00010011
0.000100293
0.000102678
0.000105937
0.000114423
0.000134379
0.000185528
0.000221059
0.000214501
0.000178051
0.000139592
0.000121504
0.000113355
0.000107202
0.000103831
0.000102103
0.000100667
0.000100281
0.000100072
0.000100327
0.000102549
0.000105537
0.000113155
0.000127456
0.000165694
0.000218009
0.000220629
0.000197624
0.000154479
0.000127245
0.00011683
0.000110226
0.000105322
0.000103112
0.00010142
0.000100424
0.000100227
0.000100039
0.000100354
0.00010249
0.000105269
0.000112167
0.000122917
0.00015061
0.000208783
0.00022691
0.000212418
0.000171955
0.000136682
0.000120578
0.000113253
0.000107743
0.00010411
0.000102415
0.00010087
0.000100286
0.000100168
0.000100013
0.000100392
0.000102448
0.000105059
0.000111177
0.000120353
0.000140156
0.000191105
0.000228043
0.000223035
0.000190445
0.000149293
0.000125855
0.00011637
0.000110359
0.000105781
0.000103281
0.000101688
0.000100481
0.000100204
0.000100096
9.99935e-05
0.000100456
0.000102406
0.000104857
0.000110232
0.000118792
0.000132668
0.000170929
0.000224716
0.000228597
0.000208539
0.000165745
0.000133541
0.000119762
0.000113096
0.000108057
0.000104324
0.000102575
0.000101036
0.000100241
0.00010013
0.000100029
9.99701e-05
0.000100542
0.000102375
0.000104703
0.000109408
0.000117595
0.000127669
0.0001556
0.000215273
0.00023527
0.000221933
0.000183013
0.000145119
0.00012441
0.000115816
0.000110387
0.000106199
0.000103376
0.000101859
0.000100535
0.000100105
0.000100037
9.998e-05
9.99509e-05
0.00010063
0.000102354
0.000104605
0.000108759
0.000116473
0.000124361
0.000144515
0.000196768
0.000235927
0.000232141
0.000201284
0.000158967
0.000131228
0.000119081
0.000112857
0.00010818
0.000104608
0.000102641
0.000101175
0.0001002
0.000100007
9.99493e-05
9.99276e-05
9.99335e-05
0.000100714
0.000102339
0.000104555
0.000108284
0.000115371
0.000122392
0.000136567
0.00017563
0.000232421
0.000237448
0.000218507
0.000175947
0.000140651
0.000123073
0.000115463
0.000110341
0.000106416
0.00010346
0.000101967
0.00010061
0.000100002
9.9908e-05
9.9883e-05
9.98775e-05
9.99197e-05
0.0001008
0.000102336
0.000104542
0.000107977
0.000114357
0.000121088
0.000131008
0.00016022
0.000222992
0.000244603
0.000231589
0.000193135
0.000153444
0.000129101
0.00011822
0.000112692
0.000108243
0.000104887
0.000102674
0.000101299
0.000100203
9.98862e-05
9.98193e-05
9.98156e-05
9.98308e-05
9.99152e-05
0.00010088
0.000102359
0.000104531
0.000107797
0.000113467
0.000120119
0.000127392
0.000148631
0.000204251
0.00024518
0.000241762
0.00021118
0.000168188
0.000137144
0.00012219
0.000114927
0.000110314
0.000106549
0.000103618
0.000102024
0.000100709
9.99595e-05
9.98004e-05
9.97542e-05
9.974e-05
9.97811e-05
9.99126e-05
0.000100935
0.000102405
0.000104507
0.000107655
0.000112731
0.000119308
0.000125079
0.000140172
0.000182168
0.000241741
0.000247109
0.000228474
0.000185311
0.000148048
0.000127082
0.000117735
0.000112385
0.000108294
0.000105093
0.000102739
0.000101417
0.000100279
9.9839e-05
9.97291e-05
9.97116e-05
9.96799e-05
9.97482e-05
9.99206e-05
0.00010097
0.00010244
0.000104458
0.000107511
0.000112159
0.000118514
0.000123617
0.000134453
0.000165858
0.000232795
0.000254832
0.000241328
0.000202896
0.000161506
0.000134324
0.000121035
0.000114517
0.000110189
0.000106617
0.000103824
0.000102096
0.000100846
0.000100013
9.979e-05
9.96935e-05
9.96758e-05
9.96464e-05
9.97542e-05
9.99525e-05
0.00010099
0.000102448
0.000104377
0.000107376
0.000111704
0.000117723
0.000122815
0.00013068
0.000154452
0.000215216
0.000256314
0.000252066
0.000220508
0.000177151
0.000143395
0.000125883
0.000117089
0.000112013
0.000108304
0.000105199
0.000102866
0.000101566
0.000100428
9.98929e-05
9.97801e-05
9.97125e-05
9.96825e-05
9.96768e-05
9.98189e-05
0.000100023
0.000100993
0.000102434
0.000104266
0.000107228
0.000111293
0.000116943
0.000122309
0.000128255
0.000145601
0.000193519
0.000252935
0.000257796
0.00023834
0.000194192
0.000155539
0.000131699
0.000120497
0.000114103
0.000109933
0.000106712
0.000104
0.000102201
0.000101069
0.000100214
9.99039e-05
9.98126e-05
9.97808e-05
9.97622e-05
9.98056e-05
9.99981e-05
0.000100159
0.000100965
0.000102389
0.000104138
0.000107028
0.000110888
0.000116219
0.000121859
0.000126765
0.000139555
0.00017503
0.000246109
0.000265188
0.00025145
0.00021217
0.000169669
0.000140151
0.000124684
0.000116742
0.000111654
0.00010819
0.000105358
0.000103031
0.000101705
0.000100709
0.000100196
0.000100034
9.99475e-05
9.99225e-05
9.99433e-05
0.000100061
0.000100309
0.00010035
0.000100919
0.000102304
0.000103982
0.000106751
0.000110441
0.000115598
0.000121238
0.000125829
0.000135427
0.000163578
0.000231897
0.000270791
0.000262224
0.00022953
0.000185867
0.000150469
0.000130307
0.000120138
0.000113916
0.000109676
0.00010669
0.00010421
0.000102442
0.000101327
0.000100567
0.000100355
0.000100309
0.000100248
0.000100237
0.000100334
0.000100566
0.000100864
0.000100651
0.000100879
0.000102172
0.000103769
0.000106387
0.000109967
0.000115026
0.000120506
0.000125364
0.000132756
0.000154247
0.000211924
0.000267946
0.000270858
0.00024709
0.000203145
0.000163437
0.000137658
0.000124302
0.000116884
0.000111687
0.000108092
0.000105441
0.000103337
0.000102087
0.000101115
0.00010066
0.000100692
0.000100737
0.000100776
0.00010088
0.000101162
0.000101566
0.000101821
0.000100483
0.000101448
0.00010082
0.000101963
0.000103492
0.000105982
0.000109459
0.000114398
0.000119835
0.000124973
0.000130981
0.000147346
0.000191325
0.000263462
0.000277772
0.000262527
0.000220787
0.000178437
0.000147092
0.000129871
0.000120483
0.000114385
0.000109884
0.000106754
0.0001044
0.000102935
0.000101934
0.000101192
0.000100984
0.00010119
0.000101365
0.000101606
0.000102021
0.000102601
0.000103085
0.000102317
0.000103211
0.000100522
0.000101705
0.00010072
0.000101715
0.000103177
0.000105569
0.000108896
0.000113669
0.000119195
0.000124558
0.000129788
0.000142443
0.000176961
0.000255402
0.000286676
0.000274019
0.000238561
0.000194659
0.00015896
0.000136772
0.000125043
0.000117775
0.000112491
0.000108453
0.000105599
0.00010377
0.000102865
0.000102083
0.000101641
0.000101678
0.000102016
0.000102387
0.000102891
0.00010366
0.000103709
0.000104235
0.000102406
0.000104343
9.69228e-05
0.000100516
9.63809e-05
8.95642e-05
8.9302e-05
0.000100592
0.000101411
0.000102779
0.000105117
0.000108294
0.000112876
0.0001185
0.000124043
0.00012895
0.000139113
0.000167427
0.000239308
0.000290982
0.000285702
0.00025612
0.000212197
0.000172411
0.000145972
0.000130803
0.000122011
0.000115862
0.000111191
0.000107531
0.000104797
0.000103685
0.000103163
0.000102655
0.000102485
0.00010274
0.000103231
0.00010387
0.000104436
0.000104864
9.86543e-05
0.00010095
9.24754e-05
8.86645e-05
8.84289e-05
8.78443e-05
8.4764e-05
7.89498e-05
7.85931e-05
0.000100441
0.00010106
0.000102317
0.00010461
0.000107651
0.000112031
0.000117745
0.000123382
0.000128453
0.00013679
0.000159216
0.000218131
0.000287339
0.000295676
0.000274059
0.000230008
0.000188311
0.00015661
0.000138397
0.000127511
0.000120086
0.000114533
0.000110307
0.000106882
0.000104725
0.000104078
0.000103884
0.000103842
0.000104067
0.000103445
9.86399e-05
9.19747e-05
9.15484e-05
8.59159e-05
9.65578e-05
8.8749e-05
8.57846e-05
8.19309e-05
8.31827e-05
7.86257e-05
7.71878e-05
7.54896e-05
7.08064e-05
7.02915e-05
0.000100263
0.000100711
0.000101876
0.000104082
0.000106956
0.000111149
0.000116878
0.000122612
0.000127984
0.00013515
0.00015324
0.000198927
0.000282346
0.000305705
0.000289558
0.000248502
0.000204896
0.000170241
0.000147585
0.000134653
0.000125928
0.000119416
0.000114218
0.000110081
0.000106848
0.000105383
0.000105212
0.000105314
9.73344e-05
9.07867e-05
8.58827e-05
8.15747e-05
8.13118e-05
7.7125e-05
8.43338e-05
7.81469e-05
8.28858e-05
7.90404e-05
7.89814e-05
7.32572e-05
7.5206e-05
7.08097e-05
6.93642e-05
6.8262e-05
6.39295e-05
6.37626e-05
0.000100068
0.000100387
0.000101475
0.00010354
0.000106231
0.000110224
0.000115831
0.000121738
0.000127397
0.000133982
0.000148979
0.000185888
0.000274858
0.000316557
0.000303184
0.000267461
0.000222997
0.00018481
0.000159315
0.000143682
0.00013382
0.000126142
0.000119947
0.000114894
0.00011061
0.00010775
0.000105778
9.29481e-05
8.50692e-05
8.06721e-05
7.65556e-05
7.2874e-05
7.34549e-05
7.00643e-05
7.55832e-05
7.12309e-05
7.54996e-05
7.20889e-05
7.53837e-05
7.22561e-05
7.18826e-05
6.64877e-05
6.82234e-05
6.45871e-05
6.31735e-05
6.21553e-05
5.84668e-05
5.85432e-05
9.98865e-05
0.000100116
0.000101138
0.000103046
0.000105487
0.000109257
0.000114622
0.000120683
0.000126614
0.000132999
0.000145884
0.000177603
0.000258602
0.00032195
0.000317946
0.000287116
0.000242161
0.00020173
0.000172704
0.000154881
0.000143734
0.000135084
0.000127762
0.000121755
0.000116735
0.000112108
9.49834e-05
8.16163e-05
7.37224e-05
6.81314e-05
6.69527e-05
6.57759e-05
6.74155e-05
6.47761e-05
6.95217e-05
6.60608e-05
6.94706e-05
6.72322e-05
6.91297e-05
6.67056e-05
6.87954e-05
6.62683e-05
6.54603e-05
6.10596e-05
6.25265e-05
5.96064e-05
5.81897e-05
5.73706e-05
5.42729e-05
5.46504e-05
9.97938e-05
0.000100002
0.000100972
0.000102606
0.000104709
0.000108283
0.000113273
0.000119458
0.000125668
0.000132204
0.000143599
0.000170542
0.00023683
0.00031943
0.000332479
0.000307969
0.000261923
0.000220005
0.000188291
0.000168805
0.000156585
0.000147368
0.000139258
0.000131546
0.00012503
0.000105911
8.63114e-05
7.28854e-05
6.43184e-05
5.98061e-05
5.79108e-05
5.9272e-05
6.26284e-05
5.9543e-05
6.43619e-05
6.27461e-05
6.52315e-05
6.34966e-05
6.48491e-05
6.35105e-05
6.40444e-05
6.25953e-05
6.3062e-05
6.13308e-05
6.0275e-05
5.67218e-05
5.78547e-05
5.54977e-05
5.42865e-05
5.3643e-05
5.12484e-05
5.16757e-05
9.98714e-05
0.000100069
0.00010104
0.000102249
0.000103972
0.000107355
0.000111829
0.000118155
0.00012462
0.000131369
0.000141801
0.000164867
0.000217023
0.000313735
0.000346464
0.000326928
0.000283161
0.000239516
0.000206041
0.000185355
0.000173503
0.000164305
0.000153847
0.000144085
0.000135166
0.000112249
8.7048e-05
7.12942e-05
6.19007e-05
5.71522e-05
5.40588e-05
5.57118e-05
5.86237e-05
5.28529e-05
6.12296e-05
6.12278e-05
6.29071e-05
6.53256e-05
6.32793e-05
6.60073e-05
6.21687e-05
6.50312e-05
6.05065e-05
6.20953e-05
5.8466e-05
5.83205e-05
5.6055e-05
5.31683e-05
5.37282e-05
5.1456e-05
5.13858e-05
5.10523e-05
4.94053e-05
4.98593e-05
0.00010034
0.000100479
0.000101202
0.000102023
0.000103376
0.000106523
0.000110494
0.000116925
0.000123487
0.000130396
0.00014047
0.000160593
0.000203405
0.000306838
0.000359828
0.000345146
0.000305543
0.000260515
0.000224915
0.000204282
0.000193506
0.000184046
0.000170174
0.000153029
0.000137174
0.00012767
0.000121945
0.000106795
7.1072e-05
5.70275e-05
5.14825e-05
4.94187e-05
6.01376e-05
4.98751e-05
5.94335e-05
6.20308e-05
6.88122e-05
7.89163e-05
7.41728e-05
9.52409e-05
7.45119e-05
9.25161e-05
6.98606e-05
9.18105e-05
6.28973e-05
7.92665e-05
5.62196e-05
6.41472e-05
5.43611e-05
5.00383e-05
5.20302e-05
4.95086e-05
4.96538e-05
4.94589e-05
4.89395e-05
4.9312e-05
0.000101069
0.00010167
0.000101617
0.000102162
0.000103067
0.000105885
0.000109504
0.000115887
0.000122364
0.000129515
0.000139884
0.00015761
0.000194398
0.000292192
0.000367455
0.000365112
0.000329831
0.00028237
0.000245472
0.000223278
0.000214982
0.000207901
0.000192805
0.000177162
0.000168406
0.000155723
0.000140318
0.000126769
0.000117429
8.34183e-05
5.78301e-05
4.83917e-05
5.96195e-05
3.81026e-05
6.67019e-05
6.4672e-05
9.08655e-05
9.65569e-05
9.49733e-05
0.00010018
9.43664e-05
0.000105343
9.28747e-05
0.000106536
9.11381e-05
0.000100642
8.8715e-05
9.36103e-05
6.51165e-05
8.70222e-05
6.44703e-05
4.78854e-05
6.07246e-05
5.43044e-05
4.95408e-05
4.84084e-05
4.99841e-05
5.02931e-05
0.00010243
0.000104791
0.000103113
0.000102971
0.000103252
0.000105628
0.000108842
0.000114973
0.000121374
0.00012878
0.00013976
0.0001555
0.00018852
0.000269715
0.000366218
0.000385052
0.000355566
0.000305387
0.000265504
0.000242342
0.000235756
0.000238018
0.000249358
0.000274017
0.000293181
0.000293903
0.000247776
0.000189938
0.000147571
0.000129725
0.000111074
6.85359e-05
7.63918e-05
8.02729e-05
9.15009e-05
9.86567e-05
9.89867e-05
0.000106421
0.00011505
0.000119077
0.000137867
0.000129327
0.000157664
0.000129516
0.000167562
0.000115018
0.000161524
9.87244e-05
0.000132331
8.55891e-05
0.00010293
8.30921e-05
4.88414e-05
7.94701e-05
7.59213e-05
5.13349e-05
4.65951e-05
5.20402e-05
5.37593e-05
0.00010541
0.000111175
0.000107487
0.000104746
0.00010426
0.00010592
0.000108635
0.000114188
0.000120461
0.00012814
0.00013959
0.000154344
0.000183362
0.000246946
0.000359733
0.000403118
0.000379882
0.000330246
0.000285922
0.000259763
0.000255252
0.000271529
0.000323449
0.000406206
0.000514093
0.000574705
0.000551823
0.000451124
0.000313157
0.000191022
0.000141722
0.000128492
0.000110712
0.000114331
0.000125854
0.000104369
0.000106569
0.000126881
0.000137117
0.000157272
0.000179322
0.000189207
0.000224144
0.000212495
0.00026248
0.000218826
0.000281073
0.000200077
0.000275618
0.000150956
0.000240063
0.000104604
0.00016611
0.000101684
6.859e-05
9.44306e-05
8.54374e-05
5.22184e-05
5.14392e-05
5.81103e-05
6.15308e-05
0.000112138
0.00012539
0.000117627
0.000108993
0.000106533
0.000107001
0.000108946
0.000113653
0.000119634
0.000127572
0.000139414
0.000153741
0.000178709
0.000229559
0.000352025
0.000418463
0.000403584
0.000357361
0.000307542
0.000275711
0.000272073
0.000304274
0.000389243
0.00053807
0.000683793
0.00072401
0.000703838
0.000656711
0.000565777
0.000427117
0.000262364
0.000163257
0.000132979
0.000141024
0.00017271
0.000188354
0.000218501
0.00015181
0.000167508
0.000203511
0.000231788
0.000262338
0.000301088
0.000310565
0.000355006
0.000338674
0.00038605
0.000343139
0.000395565
0.000322469
0.00038576
0.000270228
0.00035366
0.000172372
0.000286856
0.000165008
7.39045e-05
0.000142636
0.000118174
5.2554e-05
6.82481e-05
7.0729e-05
6.94428e-05
0.000127378
0.00015262
0.000140406
0.000120111
0.000110767
0.000109233
0.000109766
0.000113437
0.00011899
0.000127067
0.000139066
0.000152807
0.000174296
0.000218147
0.000337525
0.00042675
0.000428814
0.000387439
0.000330834
0.000292466
0.000286275
0.000332336
0.000446315
0.000645905
0.000760005
0.000788797
0.000769418
0.000722231
0.000655388
0.000574644
0.000470211
0.000331144
0.00023742
0.000215098
0.000245501
0.000256438
0.000308243
0.000338224
0.000376612
0.000263693
0.000299335
0.000338664
0.000373819
0.000391986
0.000421813
0.000421617
0.000446837
0.000432961
0.00045896
0.000431147
0.000461078
0.000413801
0.000453566
0.000372969
0.000431902
0.000290415
0.000382471
0.000280923
9.28504e-05
0.000251437
0.000198247
6.23267e-05
7.52441e-05
9.88404e-05
8.54026e-05
0.000130828
0.000171878
0.000174624
0.000145187
0.000120905
0.000112191
0.000111268
0.000113466
0.0001185
0.000126533
0.000138303
0.000151165
0.000170238
0.000209491
0.000311587
0.000424551
0.000452763
0.000418776
0.000356659
0.000308972
0.000297835
0.000353266
0.000497117
0.00070899
0.000797792
0.000798589
0.000763683
0.000706287
0.000646158
0.000583328
0.000537329
0.000474087
0.000404511
0.000434642
0.000345962
0.000420132
0.000414531
0.000446839
0.000454067
0.000476583
0.000405001
0.000430984
0.000443631
0.000462167
0.00046543
0.000479733
0.000475707
0.000487789
0.000480107
0.000492167
0.000478156
0.000491947
0.000467581
0.000487147
0.000442334
0.000475613
0.000382666
0.000447061
0.000371024
0.000138944
0.000344688
0.000298321
6.43018e-05
9.77285e-05
9.63162e-05
6.06616e-05
0.000141588
0.000185182
0.000178122
0.000144487
0.000119868
0.000113652
0.000113751
0.000118092
0.000125938
0.000137327
0.000149695
0.000167354
0.000201455
0.000286816
0.000417013
0.000472916
0.000448094
0.000386543
0.000327332
0.000307136
0.00036602
0.000527767
0.000744401
0.000802408
0.000792572
0.000725525
0.000639047
0.000605419
0.000570998
0.000541715
0.000511573
0.000488398
0.000510674
0.000531678
0.000564127
0.000480246
0.000509341
0.000499313
0.000520813
0.000507376
0.000524067
0.000478706
0.000493482
0.000491223
0.000501528
0.000497241
0.000505732
0.000499791
0.000505462
0.000499848
0.000505023
0.000498023
0.00050404
0.000491387
0.000501393
0.000479671
0.000493814
0.000445139
0.000480768
0.00043564
0.000225993
0.000415642
0.000379081
6.918e-05
0.000143086
3.81797e-05
5.45519e-05
0.000134561
0.00018472
0.000176292
0.000138579
0.00011844
0.000114928
0.000118049
0.000125527
0.000136745
0.000149077
0.000166288
0.000195646
0.000267093
0.000408623
0.000487973
0.000475956
0.000420526
0.00035011
0.000314181
0.000367478
0.000543099
0.000751072
0.000803645
0.000763445
0.000649398
0.000547322
0.000552176
0.000561212
0.000545564
0.000516948
0.000505675
0.00053388
0.000579045
0.00058837
0.000587465
0.00061121
0.00054249
0.000564333
0.00054184
0.000564419
0.000539159
0.000559317
0.000512696
0.000524933
0.000513535
0.000522102
0.000510938
0.000516805
0.000508531
0.000513048
0.00051084
0.000518591
0.000512198
0.000526573
0.000505876
0.000524103
0.000494288
0.000508319
0.000478556
0.000492392
0.00047201
0.000316866
0.000459951
0.000440022
0.000394732
8.61223e-05
0.000217459
1.67096e-05
5.17192e-05
0.000126753
0.000181867
0.000168422
0.000131887
0.000119123
0.000119003
0.000125825
0.000136956
0.000149438
0.000166631
0.000193973
0.000253823
0.00039058
0.000493082
0.000503659
0.000457034
0.000376922
0.000322517
0.000366534
0.000542844
0.000754508
0.000792755
0.000724015
0.000579494
0.000468624
0.000466577
0.000531328
0.000541309
0.000530389
0.00052105
0.00055813
0.000643071
0.000627596
0.000660171
0.000642411
0.000669978
0.000589053
0.000615123
0.00058266
0.000609389
0.000564621
0.000590123
0.000532686
0.000546659
0.000522835
0.000531954
0.000519079
0.0005253
0.000527747
0.000537038
0.000542722
0.000561772
0.000549402
0.000581301
0.000536834
0.000572123
0.000508244
0.000539707
0.00048911
0.000506266
0.000497447
0.000478058
0.000484322
0.000420977
0.000332648
0.000399732
0.000465346
0.00047809
0.000480732
0.000456688
0.000111331
0.000365879
0.000323219
0.000231849
1.37148e-05
3.87438e-05
0.000129019
0.000181269
0.000158975
0.000131664
0.000124083
0.000128671
0.000139206
0.000153021
0.000171645
0.00019689
0.0002493
0.000368366
0.000487877
0.000527647
0.000492214
0.000409134
0.000336049
0.000361495
0.000535049
0.000747642
0.000780173
0.000691602
0.000528774
0.000404301
0.000379091
0.000447599
0.000524152
0.000548605
0.000555333
0.000580238
0.000670984
0.000729102
0.000745738
0.000693425
0.000714813
0.000697452
0.00072011
0.000637017
0.00066805
0.000618386
0.000644406
0.000585927
0.000608642
0.000544725
0.000562301
0.000532599
0.000543002
0.000543558
0.000547666
0.00057934
0.000587253
0.000608816
0.000625144
0.000608567
0.000627687
0.00057637
0.000591329
0.000588338
0.00051955
0.000536461
0.00051267
0.000548551
0.000502892
0.000490069
0.000496847
0.000515274
0.000486448
0.000443896
0.000424471
0.000474339
0.000481094
0.00048364
0.000468558
0.000264537
0.000103661
0.000193508
0.000396327
0.000356209
7.15122e-06
0.000112533
6.56948e-05
2.95423e-05
0.000141381
0.000186317
0.000158406
0.000139292
0.000138638
0.00014733
0.000163779
0.000185547
0.000211145
0.000251613
0.000352955
0.000482073
0.000546426
0.000523397
0.000447772
0.00035296
0.000352183
0.000513747
0.000738938
0.000768735
0.000673868
0.000503616
0.000361228
0.00031273
0.000340019
0.000452049
0.000541804
0.000584082
0.000616158
0.00069129
0.000754487
0.000759217
0.000768608
0.000738231
0.000751558
0.000713808
0.000733151
0.000669091
0.000693758
0.000628451
0.000650254
0.000589298
0.000604021
0.000556215
0.000574385
0.000554004
0.0005597
0.000588553
0.000585377
0.000627856
0.000626142
0.000634314
0.000630432
0.000613965
0.000572484
0.000618655
0.000604691
0.000541651
0.000494062
0.000521819
0.000567052
0.000529626
0.00052969
0.000495175
0.000498177
0.000507891
0.000491916
0.000500238
0.000517612
0.000487301
0.000459367
0.000444532
0.000478184
0.000483272
0.000480061
0.000474654
0.000301049
0.00022531
0.000421435
0.000386331
2.734e-05
3.21693e-06
5.51482e-06
0.000136847
7.15103e-05
0.000166127
0.000193753
0.000171304
0.000164889
0.000171382
0.000183565
0.000202617
0.000229773
0.000259341
0.000344685
0.000469882
0.000555709
0.000551149
0.000489485
0.000377984
0.000345491
0.000480348
0.000725368
0.000763433
0.000665771
0.000500371
0.000361834
0.000275678
0.000258879
0.000327712
0.000471742
0.000574469
0.000628873
0.000695544
0.000754893
0.000742941
0.000748185
0.000756255
0.000753709
0.000746092
0.000752003
0.000700212
0.00070093
0.000673754
0.000692558
0.000622208
0.000631506
0.000577611
0.00058062
0.000566477
0.000573474
0.000579302
0.000572684
0.00061474
0.000600013
0.000618104
0.000602461
0.000612073
0.000603901
0.000594195
0.000582856
0.000563905
0.000592227
0.00059124
0.000581109
0.00048359
0.000509988
0.000516238
0.000532559
0.000488923
0.000466134
0.000462677
0.000455897
0.000496719
0.000492658
0.000472753
0.000460045
0.00048601
0.00046903
0.000459185
0.000477714
0.000480462
0.000476453
0.000475775
0.000334454
0.000261577
0.000441918
0.000412776
3.0056e-05
1.61065e-06
5.12924e-06
0.000168208
8.78384e-05
0.000211339
0.000222612
0.000211791
0.000211417
0.000214046
0.000226449
0.000248931
0.000282287
0.00034565
0.000452144
0.000553599
0.00057605
0.000529581
0.000420613
0.0003468
0.000441441
0.000704032
0.000760366
0.000673388
0.000510669
0.000370968
0.000263606
0.000207663
0.000240205
0.00033334
0.000475933
0.000595978
0.000671722
0.000726282
0.000668245
0.000649949
0.000619744
0.00067373
0.000660604
0.000696509
0.000685703
0.000607584
0.0005835
0.000633656
0.00062615
0.000575803
0.00056055
0.000544854
0.000527546
0.000565524
0.000556498
0.00058218
0.000563192
0.000583891
0.000566105
0.00057236
0.000560499
0.000550871
0.000540236
0.000569718
0.000556772
0.000543752
0.000531216
0.000563755
0.000555426
0.000542432
0.0005277
0.000480088
0.000527906
0.000510434
0.000531051
0.000435093
0.000427973
0.000465366
0.000437321
0.000436997
0.000456131
0.00041714
0.000412056
0.000446426
0.000473293
0.000468288
0.000473983
0.000442947
0.000446774
0.000472934
0.000366304
0.000296725
0.000457279
0.000435122
4.99902e-05
1.11253e-06
5.44759e-06
0.000206077
0.000121354
0.000282241
0.000280233
0.000263903
0.000256332
0.000259266
0.000275177
0.000304805
0.000350955
0.000441669
0.000549762
0.000595348
0.000564311
0.000465211
0.000361171
0.000405894
0.000669644
0.000758743
0.000681
0.000523945
0.000386442
0.000267922
0.000189141
0.000184324
0.000238106
0.000341509
0.000467495
0.000574023
0.000622809
0.00056745
0.000429792
0.000388871
0.00048061
0.000457063
0.000510844
0.000493928
0.000557146
0.000531732
0.000454703
0.000407978
0.000534552
0.000498462
0.000502656
0.000469851
0.000503167
0.000481571
0.00054329
0.000522526
0.00054672
0.000527397
0.00050771
0.000495262
0.000519791
0.000509612
0.000500633
0.000493917
0.000512705
0.000497808
0.000484339
0.000472869
0.000515941
0.000500515
0.000484
0.000467099
0.000479003
0.000494142
0.000460076
0.000477207
0.000406048
0.000418538
0.000450557
0.000449856
0.000393075
0.000404299
0.000378848
0.000390208
0.000396839
0.000472679
0.000471649
0.000455327
0.000394694
0.000399331
0.000466249
0.000395365
0.000313192
0.000466556
0.000451883
6.2713e-05
1.59913e-06
1.18117e-05
0.000224285
0.000131829
0.000357
0.000342045
0.000314022
0.000301122
0.000307122
0.000329049
0.000361456
0.000438174
0.000540466
0.000607747
0.000592211
0.000513414
0.000386196
0.000378106
0.000615406
0.000756234
0.000694279
0.000550924
0.000417573
0.000274205
0.000191503
0.000163813
0.00017785
0.000239395
0.000334534
0.000422422
0.000459113
0.000392143
0.000239726
0.00022468
0.000199875
0.000262326
0.000245707
0.000297808
0.000277987
0.000362751
0.000325397
0.000343841
0.000297933
0.000431784
0.000389255
0.000455258
0.00042327
0.000463563
0.000439768
0.000507233
0.000485192
0.000482811
0.000472018
0.000441654
0.000437469
0.000433474
0.000436037
0.0004635
0.00045602
0.000449827
0.000444871
0.000451414
0.00043802
0.000427068
0.000418638
0.000459511
0.000441709
0.000423856
0.000408558
0.000429893
0.000441386
0.00041012
0.00042249
0.000403717
0.000435353
0.000404462
0.000426666
0.000374979
0.000368843
0.000363417
0.000390628
0.000361091
0.000467664
0.000469505
0.000409075
0.000358651
0.000360799
0.000420919
0.00038706
0.000314232
0.000464124
0.000431899
8.50258e-05
1.56265e-05
5.38777e-05
0.000220597
0.000138992
0.000432034
0.000399752
0.000360853
0.000348748
0.000358891
0.00038403
0.000441478
0.000529813
0.000609304
0.000615546
0.000558109
0.000411274
0.000362166
0.000545211
0.000747927
0.000718676
0.000587175
0.000455862
0.000290928
0.000197507
0.000166476
0.000156227
0.0001764
0.000232359
0.000292965
0.000310705
0.000258429
0.000178023
0.000127816
0.000123873
0.000136523
0.000127753
0.0001551
0.000145494
0.000188365
0.000168378
0.000254377
0.000217025
0.000303165
0.000259791
0.000386126
0.000345611
0.000413072
0.000383363
0.000444431
0.000428838
0.000465248
0.000456079
0.000433451
0.000435126
0.000430898
0.000402416
0.000401885
0.000405763
0.00040257
0.000412495
0.000408253
0.000405125
0.000403308
0.000395869
0.000385968
0.000378661
0.000373711
0.0004031
0.000385474
0.000370927
0.000359337
0.000383045
0.000389704
0.000361893
0.000369537
0.00042203
0.000407409
0.000361012
0.000383498
0.0003774
0.000353574
0.000366324
0.000407879
0.000345729
0.000430617
0.000437192
0.000369161
0.000341177
0.000339999
0.000379656
0.00038054
0.000315705
0.000436416
0.000416806
0.000130082
0.000209299
0.000175019
0.00023281
0.000162074
0.000506249
0.00045466
0.000403752
0.00039702
0.000416507
0.00044844
0.000525852
0.000607731
0.000634298
0.000596005
0.000470745
0.000368658
0.000473232
0.000730108
0.000740662
0.000627794
0.000504916
0.000325768
0.000213516
0.000174234
0.000160039
0.000154457
0.000172606
0.000202507
0.000206379
0.000180799
0.000141165
0.000110591
0.000104726
0.000103287
0.000105116
0.000104328
0.000114445
0.000107784
0.000148992
0.000127444
0.000217297
0.000179366
0.000277993
0.000239181
0.000350838
0.000315618
0.00040981
0.000387361
0.000438165
0.000432588
0.000435258
0.000439295
0.000410181
0.000416001
0.000414699
0.000426528
0.000370675
0.000373043
0.000384473
0.000378147
0.00037077
0.000369363
0.000368955
0.00036942
0.000350481
0.00034416
0.000340102
0.000338053
0.000352518
0.00033886
0.000328069
0.000319892
0.000338684
0.000341124
0.000317847
0.000324797
0.000392591
0.000366723
0.000320378
0.000343325
0.000395075
0.000355087
0.000383148
0.000382968
0.000346297
0.000391678
0.000406051
0.000342698
0.000338696
0.000334009
0.000349917
0.000377253
0.000322495
0.000416137
0.000410876
0.00015615
0.000361164
0.000239661
0.000252382
0.000179412
0.000577316
0.000500701
0.000442948
0.000451833
0.000468791
0.000526721
0.000603125
0.000648028
0.000625586
0.000532371
0.000399067
0.000415861
0.000690794
0.000756402
0.000671429
0.00056671
0.000389138
0.000248463
0.000195401
0.000170175
0.000159243
0.000153721
0.000157812
0.000152388
0.000141449
0.000123827
0.000108687
0.000100112
0.000101802
9.84013e-05
9.88816e-05
9.77279e-05
9.77684e-05
0.000106257
9.97078e-05
0.000138937
0.000119006
0.000201114
0.000166684
0.000292424
0.000250914
0.000360911
0.000329464
0.000422201
0.000405506
0.000468744
0.000465655
0.00043665
0.000446768
0.000465424
0.000393042
0.000403455
0.000420913
0.000439264
0.000344833
0.000350413
0.000369241
0.000357381
0.000337708
0.000338277
0.000339252
0.000341732
0.000313968
0.000310195
0.000308369
0.000308213
0.000311573
0.000301131
0.000292851
0.000286653
0.000298482
0.000301424
0.000281828
0.000288245
0.000355085
0.000330806
0.000283118
0.000306222
0.000378422
0.000371289
0.000378195
0.000348613
0.000358861
0.000364078
0.000383613
0.000331764
0.000347635
0.000337108
0.000335
0.000383646
0.000343503
0.000406165
0.000417587
0.000170994
0.000378448
0.00026542