/*--------------------------------*- C++ -*----------------------------------*\
  =========                 |
  \\      /  F ield         | OpenFOAM: The Open Source CFD Toolbox
   \\    /   O peration     | Website:  https://openfoam.org
    \\  /    A nd           | Version:  dev
     \\/     M anipulation  |
\*---------------------------------------------------------------------------*/
FoamFile
{
    version     2.0;
    format      ascii;
    class       volScalarField;
    location    "2500";
    object      O2;
}
// * * * * * * * * * * * * * * * * * * * * * * * * * * * * * * * * * * * * * //

dimensions      [0 0 0 0 0 0 0];

internalField   nonuniform List<scalar> 
9851
(
0.23301
0.23301
0.23301
0.23301
0.23301
0.23301
0.23301
0.23301
0.23301
0.23301
0.23301
0.23301
0.23301
0.23301
0.23301
0.23301
0.23301
0.23301
0.23301
0.23301
0.23301
0.23301
0.23301
0.23301
0.23301
0.23301
0.23301
0.23301
0.23301
0.23301
0.23301
0.23301
0.23301
0.23301
0.23301
0.23301
0.23301
0.23301
0.23301
0.23301
0.23301
0.23301
0.23301
0.23301
0.23301
0.23301
0.23301
0.23301
0.23301
0.23301
0.23301
0.23301
0.23301
0.23301
0.23301
0.23301
0.23301
0.23301
0.23301
0.23301
0.23301
0.23301
0.23301
0.23301
0.23301
0.23301
0.23301
0.23301
0.23301
0.23301
0.23301
0.23301
0.23301
0.23301
0.23301
0.23301
0.23301
0.23301
0.23301
0.23301
0.23301
0.23301
0.23301
0.23301
0.23301
0.23301
0.23301
0.23301
0.23301
0.23301
0.23301
0.23301
0.23301
0.23301
0.23301
0.23301
0.23301
0.23301
0.23301
0.23301
0.23301
0.23301
0.23301
0.23301
0.23301
0.23301
0.23301
0.23301
0.23301
0.23301
0.23301
0.23301
0.23301
0.23301
0.23301
0.23301
0.23301
0.23301
0.23301
0.23301
0.23301
0.23301
0.23301
0.23301
0.23301
0.23301
0.23301
0.23301
0.23301
0.23301
0.23301
0.23301
0.23301
0.23301
0.23301
0.23301
0.23301
0.23301
0.23301
0.23301
0.23301
0.23301
0.23301
0.23301
0.23301
0.23301
0.23301
0.23301
0.23301
0.23301
0.23301
0.23301
0.23301
0.23301
0.23301
0.23301
0.23301
0.23301
0.23301
0.23301
0.23301
0.23301
0.23301
0.23301
0.23301
0.23301
0.23301
0.23301
0.23301
0.23301
0.23301
0.23301
0.23301
0.23301
0.23301
0.23301
0.23301
0.23301
0.23301
0.23301
0.23301
0.23301
0.23301
0.23301
0.23301
0.23301
0.23301
0.23301
0.23301
0.23301
0.23301
0.23301
0.23301
0.23301
0.23301
0.23301
0.23301
0.23301
0.23301
0.23301
0.23301
0.23301
0.23301
0.23301
0.23301
0.23301
0.23301
0.23301
0.23301
0.23301
0.23301
0.23301
0.23301
0.23301
0.23301
0.23301
0.23301
0.23301
0.23301
0.23301
0.23301
0.23301
0.23301
0.23301
0.23301
0.23301
0.23301
0.23301
0.23301
0.23301
0.23301
0.23301
0.23301
0.23301
0.23301
0.23301
0.23301
0.23301
0.23301
0.23301
0.23301
0.23301
0.23301
0.23301
0.23301
0.23301
0.23301
0.23301
0.23301
0.23301
0.23301
0.23301
0.23301
0.23301
0.23301
0.23301
0.23301
0.23301
0.23301
0.23301
0.23301
0.23301
0.23301
0.23301
0.23301
0.23301
0.23301
0.23301
0.23301
0.23301
0.23301
0.23301
0.23301
0.23301
0.23301
0.23301
0.23301
0.23301
0.23301
0.23301
0.23301
0.23301
0.23301
0.23301
0.23301
0.23301
0.23301
0.23301
0.23301
0.23301
0.23301
0.23301
0.23301
0.23301
0.23301
0.23301
0.23301
0.23301
0.23301
0.23301
0.23301
0.23301
0.23301
0.23301
0.23301
0.23301
0.23301
0.23301
0.23301
0.23301
0.23301
0.23301
0.23301
0.23301
0.23301
0.23301
0.23301
0.23301
0.23301
0.23301
0.23301
0.23301
0.23301
0.23301
0.23301
0.23301
0.23301
0.23301
0.23301
0.23301
0.23301
0.23301
0.23301
0.23301
0.23301
0.23301
0.23301
0.23301
0.23301
0.23301
0.23301
0.23301
0.23301
0.23301
0.23301
0.23301
0.23301
0.23301
0.23301
0.23301
0.23301
0.23301
0.23301
0.23301
0.23301
0.23301
0.23301
0.23301
0.23301
0.23301
0.23301
0.23301
0.23301
0.23301
0.23301
0.23301
0.23301
0.23301
0.23301
0.23301
0.23301
0.23301
0.23301
0.23301
0.23301
0.23301
0.23301
0.23301
0.23301
0.23301
0.23301
0.23301
0.23301
0.23301
0.23301
0.23301
0.23301
0.23301
0.23301
0.23301
0.23301
0.23301
0.23301
0.23301
0.23301
0.23301
0.23301
0.23301
0.23301
0.23301
0.23301
0.23301
0.23301
0.23301
0.23301
0.23301
0.23301
0.23301
0.23301
0.23301
0.23301
0.23301
0.23301
0.23301
0.23301
0.23301
0.23301
0.23301
0.23301
0.23301
0.23301
0.23301
0.23301
0.23301
0.23301
0.23301
0.23301
0.23301
0.23301
0.23301
0.23301
0.23301
0.23301
0.23301
0.23301
0.23301
0.23301
0.23301
0.23301
0.23301
0.23301
0.23301
0.23301
0.23301
0.23301
0.23301
0.23301
0.23301
0.23301
0.23301
0.23301
0.23301
0.23301
0.23301
0.23301
0.23301
0.23301
0.23301
0.23301
0.23301
0.23301
0.23301
0.23301
0.23301
0.23301
0.23301
0.23301
0.23301
0.23301
0.23301
0.23301
0.23301
0.23301
0.23301
0.23301
0.23301
0.23301
0.23301
0.23301
0.23301
0.23301
0.23301
0.23301
0.23301
0.23301
0.23301
0.23301
0.23301
0.23301
0.23301
0.23301
0.23301
0.23301
0.23301
0.23301
0.23301
0.23301
0.23301
0.23301
0.23301
0.23301
0.23301
0.23301
0.23301
0.23301
0.23301
0.23301
0.23301
0.23301
0.23301
0.23301
0.23301
0.23301
0.23301
0.23301
0.23301
0.23301
0.23301
0.23301
0.23301
0.23301
0.23301
0.23301
0.23301
0.23301
0.23301
0.23301
0.23301
0.23301
0.23301
0.23301
0.23301
0.23301
0.23301
0.23301
0.23301
0.23301
0.23301
0.23301
0.23301
0.23301
0.23301
0.23301
0.23301
0.23301
0.23301
0.23301
0.23301
0.23301
0.23301
0.23301
0.23301
0.23301
0.23301
0.23301
0.23301
0.23301
0.23301
0.23301
0.23301
0.23301
0.23301
0.23301
0.23301
0.23301
0.23301
0.23301
0.23301
0.23301
0.23301
0.23301
0.23301
0.23301
0.23301
0.23301
0.23301
0.23301
0.23301
0.23301
0.23301
0.23301
0.23301
0.23301
0.23301
0.23301
0.23301
0.23301
0.23301
0.23301
0.23301
0.23301
0.23301
0.23301
0.23301
0.23301
0.23301
0.23301
0.23301
0.23301
0.23301
0.23301
0.23301
0.23301
0.23301
0.23301
0.23301
0.23301
0.23301
0.23301
0.23301
0.23301
0.23301
0.23301
0.23301
0.23301
0.23301
0.23301
0.23301
0.23301
0.23301
0.23301
0.23301
0.23301
0.23301
0.23301
0.23301
0.23301
0.23301
0.23301
0.23301
0.23301
0.23301
0.23301
0.23301
0.23301
0.23301
0.23301
0.23301
0.23301
0.23301
0.23301
0.23301
0.23301
0.23301
0.23301
0.23301
0.23301
0.23301
0.23301
0.23301
0.23301
0.23301
0.23301
0.23301
0.23301
0.23301
0.23301
0.23301
0.23301
0.23301
0.23301
0.23301
0.23301
0.23301
0.23301
0.23301
0.23301
0.23301
0.23301
0.23301
0.23301
0.23301
0.23301
0.23301
0.23301
0.23301
0.23301
0.23301
0.23301
0.23301
0.23301
0.23301
0.23301
0.23301
0.23301
0.23301
0.23301
0.23301
0.23301
0.23301
0.23301
0.23301
0.23301
0.23301
0.23301
0.23301
0.23301
0.23301
0.23301
0.23301
0.23301
0.23301
0.23301
0.23301
0.23301
0.23301
0.23301
0.23301
0.23301
0.23301
0.23301
0.23301
0.23301
0.23301
0.23301
0.23301
0.23301
0.23301
0.23301
0.23301
0.23301
0.23301
0.23301
0.23301
0.23301
0.23301
0.23301
0.23301
0.23301
0.23301
0.23301
0.23301
0.23301
0.23301
0.23301
0.23301
0.23301
0.23301
0.23301
0.23301
0.23301
0.23301
0.23301
0.23301
0.23301
0.23301
0.23301
0.23301
0.23301
0.23301
0.23301
0.23301
0.23301
0.23301
0.23301
0.23301
0.23301
0.23301
0.23301
0.23301
0.23301
0.23301
0.23301
0.23301
0.23301
0.23301
0.23301
0.23301
0.23301
0.23301
0.23301
0.23301
0.23301
0.23301
0.23301
0.23301
0.23301
0.23301
0.23301
0.23301
0.23301
0.23301
0.23301
0.23301
0.23301
0.23301
0.23301
0.23301
0.23301
0.23301
0.23301
0.23301
0.23301
0.23301
0.23301
0.23301
0.23301
0.23301
0.23301
0.23301
0.23301
0.23301
0.23301
0.23301
0.23301
0.23301
0.23301
0.23301
0.23301
0.23301
0.23301
0.23301
0.23301
0.23301
0.23301
0.23301
0.23301
0.23301
0.23301
0.23301
0.23301
0.23301
0.23301
0.23301
0.23301
0.23301
0.23301
0.23301
0.23301
0.23301
0.23301
0.23301
0.23301
0.23301
0.23301
0.23301
0.23301
0.23301
0.23301
0.23301
0.23301
0.23301
0.23301
0.23301
0.23301
0.23301
0.23301
0.23301
0.23301
0.23301
0.23301
0.23301
0.23301
0.23301
0.23301
0.23301
0.23301
0.23301
0.23301
0.23301
0.23301
0.23301
0.23301
0.23301
0.23301
0.23301
0.23301
0.23301
0.23301
0.23301
0.23301
0.23301
0.23301
0.23301
0.23301
0.23301
0.23301
0.23301
0.23301
0.23301
0.23301
0.23301
0.23301
0.23301
0.23301
0.23301
0.23301
0.23301
0.23301
0.23301
0.23301
0.23301
0.23301
0.23301
0.23301
0.23301
0.23301
0.23301
0.23301
0.23301
0.23301
0.23301
0.23301
0.23301
0.23301
0.23301
0.23301
0.23301
0.23301
0.23301
0.23301
0.23301
0.23301
0.23301
0.23301
0.23301
0.23301
0.23301
0.23301
0.23301
0.23301
0.23301
0.23301
0.23301
0.23301
0.23301
0.23301
0.23301
0.23301
0.23301
0.23301
0.23301
0.23301
0.23301
0.23301
0.23301
0.23301
0.23301
0.23301
0.23301
0.23301
0.23301
0.23301
0.23301
0.23301
0.23301
0.23301
0.23301
0.23301
0.23301
0.23301
0.23301
0.23301
0.23301
0.23301
0.23301
0.23301
0.23301
0.23301
0.23301
0.23301
0.23301
0.23301
0.23301
0.23301
0.23301
0.23301
0.23301
0.23301
0.23301
0.23301
0.23301
0.23301
0.23301
0.23301
0.23301
0.23301
0.23301
0.233009
0.233009
0.233009
0.233009
0.233009
0.233009
0.23301
0.23301
0.23301
0.23301
0.23301
0.23301
0.23301
0.233009
0.233009
0.233008
0.233009
0.233006
0.233009
0.233006
0.233009
0.233007
0.23301
0.233009
0.23301
0.23301
0.23301
0.23301
0.23301
0.23301
0.23301
0.23301
0.23301
0.23301
0.23301
0.23301
0.23301
0.23301
0.23301
0.23301
0.23301
0.23301
0.23301
0.23301
0.23301
0.23301
0.23301
0.23301
0.23301
0.23301
0.23301
0.23301
0.233009
0.233008
0.233005
0.233002
0.233
0.233
0.233003
0.233006
0.233008
0.233009
0.233009
0.23301
0.23301
0.233009
0.233008
0.233007
0.233005
0.233001
0.233002
0.232992
0.232999
0.232984
0.233
0.232983
0.233004
0.23299
0.233008
0.233
0.233007
0.23301
0.233007
0.233008
0.23301
0.23301
0.23301
0.23301
0.23301
0.23301
0.23301
0.23301
0.23301
0.23301
0.23301
0.23301
0.23301
0.23301
0.23301
0.23301
0.23301
0.23301
0.23301
0.23301
0.23301
0.23301
0.23301
0.233009
0.233007
0.233001
0.232987
0.232965
0.232946
0.232944
0.23296
0.23298
0.232995
0.233003
0.233007
0.233008
0.233009
0.23301
0.233006
0.233004
0.232996
0.232988
0.232977
0.232953
0.232955
0.232904
0.232943
0.232865
0.232951
0.232862
0.232973
0.232899
0.232996
0.232954
0.232994
0.233008
0.232994
0.232997
0.23301
0.233009
0.23301
0.23301
0.23301
0.23301
0.23301
0.23301
0.23301
0.23301
0.23301
0.23301
0.23301
0.23301
0.23301
0.23301
0.23301
0.23301
0.23301
0.23301
0.23301
0.23301
0.23301
0.233009
0.233004
0.232986
0.232937
0.23285
0.232751
0.232706
0.232755
0.232843
0.232922
0.23297
0.232992
0.233002
0.233001
0.233003
0.232998
0.232979
0.232966
0.232923
0.232884
0.232836
0.232744
0.232742
0.232573
0.232689
0.232437
0.232727
0.232404
0.232831
0.232541
0.232937
0.232758
0.232929
0.233002
0.232933
0.232951
0.23301
0.233006
0.23301
0.23301
0.23301
0.23301
0.23301
0.23301
0.23301
0.23301
0.23301
0.23301
0.23301
0.23301
0.23301
0.23301
0.23301
0.23301
0.23301
0.23301
0.23301
0.23301
0.23301
0.233008
0.233
0.232963
0.232859
0.232658
0.232425
0.232252
0.232233
0.232393
0.23265
0.232834
0.232933
0.232976
0.232984
0.232919
0.232886
0.232954
0.232935
0.232841
0.232784
0.232636
0.232512
0.232374
0.232152
0.232127
0.231788
0.231983
0.231519
0.232029
0.23143
0.232327
0.231616
0.232701
0.232135
0.232682
0.232974
0.232712
0.232788
0.233008
0.232994
0.23301
0.233009
0.23301
0.23301
0.23301
0.23301
0.23301
0.23301
0.23301
0.23301
0.23301
0.23301
0.23301
0.23301
0.23301
0.23301
0.23301
0.23301
0.23301
0.23301
0.23301
0.233008
0.232996
0.232938
0.232769
0.232461
0.232091
0.231803
0.231649
0.231701
0.231989
0.23244
0.232747
0.232893
0.23293
0.232847
0.232779
0.232573
0.23246
0.232725
0.232648
0.232382
0.232235
0.231923
0.231697
0.231453
0.23113
0.231054
0.230617
0.230821
0.230252
0.230849
0.230115
0.231226
0.230306
0.232011
0.230921
0.231997
0.232881
0.232111
0.232334
0.233004
0.232952
0.23301
0.233008
0.23301
0.23301
0.23301
0.23301
0.23301
0.23301
0.23301
0.23301
0.23301
0.23301
0.23301
0.23301
0.23301
0.23301
0.23301
0.23301
0.23301
0.23301
0.23301
0.233008
0.232994
0.232917
0.232687
0.232272
0.231811
0.231408
0.231132
0.231015
0.231155
0.231621
0.232273
0.232672
0.232766
0.232629
0.232621
0.232347
0.232178
0.231776
0.231602
0.232087
0.231931
0.231483
0.231269
0.230831
0.230564
0.230231
0.229888
0.229741
0.229299
0.229453
0.228881
0.229459
0.228715
0.229854
0.228895
0.230736
0.229527
0.230723
0.232612
0.23095
0.231434
0.232991
0.232835
0.23301
0.233005
0.23301
0.23301
0.23301
0.23301
0.23301
0.23301
0.23301
0.23301
0.23301
0.23301
0.23301
0.23301
0.23301
0.23301
0.23301
0.23301
0.23301
0.23301
0.23301
0.233008
0.232993
0.232904
0.232623
0.232128
0.231562
0.231114
0.230768
0.230514
0.230421
0.230675
0.231358
0.232151
0.232439
0.231855
0.232041
0.231703
0.231429
0.23124
0.230696
0.230507
0.231067
0.230876
0.230326
0.230102
0.229589
0.229335
0.22893
0.228619
0.2284
0.22801
0.228091
0.227576
0.228082
0.227391
0.22846
0.227551
0.229357
0.228178
0.229385
0.232034
0.229648
0.230194
0.232955
0.232544
0.233009
0.233
0.23301
0.23301
0.23301
0.23301
0.23301
0.23301
0.23301
0.23301
0.23301
0.23301
0.23301
0.23301
0.23301
0.23301
0.23301
0.23301
0.23301
0.23301
0.233008
0.232993
0.2329
0.232587
0.23202
0.231406
0.230958
0.230626
0.230329
0.230061
0.229972
0.230359
0.231211
0.231832
0.231434
0.230622
0.230361
0.231053
0.230827
0.230323
0.230132
0.22954
0.229369
0.229899
0.229715
0.229115
0.228919
0.228364
0.22816
0.227705
0.227465
0.227176
0.226882
0.226882
0.226554
0.226854
0.226464
0.22718
0.22651
0.22805
0.226979
0.228119
0.231047
0.228419
0.228993
0.23287
0.232011
0.233009
0.232986
0.23301
0.23301
0.23301
0.23301
0.23301
0.23301
0.23301
0.23301
0.23301
0.23301
0.23301
0.23301
0.23301
0.23301
0.23301
0.23301
0.23301
0.233008
0.232995
0.232903
0.23258
0.231966
0.231354
0.230996
0.230705
0.230388
0.230054
0.229744
0.229656
0.23016
0.230893
0.230771
0.230115
0.229902
0.229519
0.22932
0.229937
0.229733
0.229204
0.229036
0.228466
0.228356
0.228747
0.228604
0.227991
0.227855
0.227282
0.22715
0.226671
0.226517
0.226346
0.226204
0.226267
0.226158
0.226253
0.226173
0.2263
0.226135
0.226902
0.226164
0.227014
0.229904
0.22731
0.227725
0.22869
0.232682
0.231183
0.233009
0.232966
0.23301
0.23301
0.23301
0.23301
0.23301
0.23301
0.23301
0.23301
0.23301
0.23301
0.23301
0.23301
0.23301
0.23301
0.23301
0.23301
0.233009
0.232998
0.23291
0.232586
0.23196
0.231375
0.231098
0.23091
0.230673
0.230292
0.229818
0.229457
0.229386
0.229833
0.2299
0.229199
0.229181
0.229005
0.228695
0.228707
0.228879
0.228744
0.22824
0.228173
0.227605
0.227587
0.227746
0.227675
0.227052
0.22699
0.226413
0.226356
0.226098
0.226021
0.226084
0.22601
0.226143
0.226121
0.226157
0.22626
0.226026
0.226188
0.226098
0.225958
0.22596
0.226645
0.226142
0.228115
0.229677
0.228529
0.227006
0.226329
0.226244
0.22723
0.232423
0.229127
0.229802
0.231088
0.233009
0.232974
0.23301
0.23301
0.23301
0.23301
0.23301
0.23301
0.23301
0.23301
0.23301
0.23301
0.23301
0.23301
0.23301
0.23301
0.23301
0.233009
0.233001
0.232926
0.232608
0.231977
0.231426
0.231206
0.231124
0.231166
0.231066
0.230386
0.229587
0.229169
0.229061
0.229076
0.228954
0.228819
0.228852
0.228737
0.22878
0.228406
0.228543
0.228196
0.228268
0.227634
0.22776
0.227027
0.227173
0.226954
0.226968
0.226335
0.226354
0.225978
0.225976
0.225937
0.225878
0.226083
0.226002
0.226377
0.226353
0.226539
0.226615
0.226686
0.226065
0.226311
0.226807
0.226557
0.225922
0.225907
0.225865
0.226043
0.225887
0.227575
0.228027
0.226522
0.226006
0.225922
0.226759
0.230662
0.232524
0.231569
0.228601
0.229315
0.23301
0.232427
0.232881
0.232996
0.23301
0.23301
0.23301
0.23301
0.23301
0.23301
0.23301
0.23301
0.23301
0.23301
0.23301
0.23301
0.23301
0.23301
0.23301
0.233005
0.232947
0.232657
0.232023
0.231495
0.231306
0.231324
0.231606
0.231874
0.231524
0.230381
0.229313
0.228876
0.22871
0.228698
0.228848
0.228897
0.229018
0.228678
0.228804
0.228422
0.228689
0.227962
0.22818
0.227414
0.227685
0.226796
0.227081
0.226419
0.226561
0.225999
0.226074
0.225847
0.225856
0.225907
0.225828
0.226203
0.226007
0.226657
0.226558
0.226444
0.226283
0.226933
0.226957
0.226826
0.226783
0.226311
0.226627
0.227067
0.226905
0.225997
0.225807
0.225927
0.226292
0.225766
0.22709
0.227526
0.226139
0.22575
0.225772
0.226345
0.23019
0.231226
0.228092
0.228813
0.232991
0.23301
0.233009
0.232257
0.232818
0.23301
0.23301
0.23301
0.23301
0.23301
0.23301
0.23301
0.23301
0.23301
0.23301
0.23301
0.23301
0.23301
0.23301
0.233007
0.232968
0.232721
0.232107
0.231571
0.231402
0.231498
0.231951
0.232383
0.232288
0.231636
0.230269
0.229119
0.228722
0.228621
0.228837
0.22949
0.229454
0.229341
0.229443
0.22895
0.229174
0.228795
0.229196
0.228008
0.228387
0.227429
0.227857
0.226783
0.227184
0.22624
0.226474
0.225902
0.226022
0.225775
0.225783
0.225802
0.225624
0.226112
0.225907
0.225719
0.225511
0.226669
0.226493
0.226269
0.226019
0.227068
0.226955
0.226884
0.226718
0.226654
0.226982
0.227158
0.227158
0.226236
0.225846
0.226145
0.226642
0.225764
0.226641
0.227048
0.22585
0.225701
0.225666
0.225997
0.229719
0.230819
0.227591
0.228303
0.23298
0.23301
0.233007
0.231987
0.232699
0.23301
0.23301
0.23301
0.23301
0.23301
0.23301
0.23301
0.23301
0.23301
0.23301
0.23301
0.23301
0.23301
0.233009
0.232985
0.232789
0.232214
0.231652
0.231489
0.231643
0.232193
0.232643
0.232685
0.232413
0.231642
0.230229
0.229078
0.228753
0.228936
0.229915
0.230179
0.230293
0.230021
0.230127
0.22955
0.229829
0.229409
0.229901
0.228349
0.228878
0.227673
0.228234
0.226934
0.227408
0.226236
0.22654
0.225848
0.226005
0.225469
0.225433
0.225332
0.225144
0.224995
0.224854
0.225757
0.225482
0.225209
0.22494
0.226469
0.226178
0.225856
0.225513
0.227001
0.226722
0.226701
0.226404
0.227025
0.227225
0.227028
0.227223
0.226584
0.226029
0.226478
0.227026
0.225896
0.226239
0.226598
0.225671
0.225765
0.225657
0.225742
0.229219
0.230349
0.227101
0.22778
0.232952
0.23301
0.233005
0.231599
0.232505
0.233008
0.233008
0.233009
0.233009
0.23301
0.23301
0.23301
0.23301
0.23301
0.23301
0.23301
0.23301
0.233009
0.232996
0.232856
0.232339
0.231739
0.231567
0.231755
0.232359
0.232774
0.232863
0.232781
0.23245
0.231651
0.230419
0.229468
0.229423
0.230332
0.23123
0.231418
0.231033
0.231115
0.230845
0.230966
0.230318
0.230635
0.230067
0.230614
0.228842
0.229465
0.227948
0.22854
0.226987
0.227475
0.226246
0.226574
0.225493
0.225639
0.224409
0.224329
0.224689
0.22446
0.224266
0.22414
0.225158
0.224801
0.224452
0.224126
0.226037
0.225637
0.225212
0.224776
0.226673
0.226314
0.226217
0.22587
0.227264
0.227273
0.226653
0.227057
0.226974
0.226331
0.226869
0.227272
0.226148
0.2259
0.226184
0.225594
0.225952
0.225763
0.225589
0.228673
0.229795
0.226622
0.227237
0.232909
0.23301
0.232996
0.231067
0.23223
0.233003
0.233003
0.233006
0.233008
0.233009
0.23301
0.23301
0.23301
0.23301
0.23301
0.23301
0.23301
0.233002
0.232913
0.232477
0.231837
0.231636
0.231831
0.232461
0.23284
0.232938
0.232927
0.232814
0.232476
0.23183
0.23112
0.230879
0.231529
0.232374
0.232286
0.232502
0.232002
0.232129
0.231711
0.23188
0.231086
0.231454
0.230384
0.230943
0.229159
0.229782
0.228022
0.228612
0.226671
0.227169
0.225893
0.226241
0.224416
0.224575
0.223201
0.223189
0.223395
0.223267
0.223836
0.223591
0.223399
0.223266
0.22434
0.223922
0.223538
0.223206
0.225388
0.224883
0.224372
0.223872
0.226132
0.225697
0.225533
0.225134
0.227306
0.227089
0.226072
0.226652
0.227243
0.226708
0.227175
0.227315
0.226489
0.225653
0.225829
0.225607
0.226242
0.225975
0.22551
0.228054
0.229094
0.226163
0.226664
0.232796
0.232982
0.232902
0.230318
0.231667
0.232986
0.232991
0.233001
0.233006
0.233009
0.23301
0.23301
0.23301
0.23301
0.23301
0.23301
0.233007
0.232957
0.232614
0.231953
0.2317
0.231875
0.232504
0.23287
0.232967
0.23298
0.232949
0.232835
0.232586
0.232286
0.232201
0.232436
0.23277
0.23291
0.232949
0.232786
0.232873
0.232576
0.232691
0.232187
0.232419
0.231441
0.231861
0.230448
0.231016
0.229226
0.229844
0.22772
0.228311
0.225714
0.226258
0.224857
0.225246
0.223514
0.223707
0.223887
0.222768
0.22292
0.223282
0.223093
0.222943
0.222749
0.222646
0.222663
0.223403
0.222986
0.222644
0.222387
0.224554
0.223979
0.223432
0.222936
0.225401
0.224897
0.224691
0.22425
0.22713
0.22668
0.225313
0.226051
0.227308
0.227053
0.227267
0.227175
0.22685
0.225492
0.225553
0.225722
0.226583
0.226258
0.22552
0.227366
0.228246
0.225741
0.226098
0.232375
0.232401
0.23224
0.229284
0.230461
0.232947
0.232969
0.232993
0.233004
0.233008
0.23301
0.23301
0.23301
0.23301
0.23301
0.233008
0.232984
0.232744
0.2321
0.231762
0.231899
0.232504
0.232876
0.232976
0.232996
0.232992
0.23296
0.232886
0.232804
0.23278
0.232843
0.232941
0.232996
0.232982
0.232997
0.23292
0.23296
0.232751
0.232855
0.232326
0.232583
0.231527
0.231967
0.230249
0.230889
0.228937
0.229588
0.226865
0.22752
0.224825
0.225252
0.224168
0.2245
0.223459
0.223633
0.224154
0.224282
0.222724
0.222979
0.223555
0.223276
0.222243
0.22224
0.222329
0.222513
0.222513
0.222184
0.221971
0.221909
0.223622
0.223043
0.222539
0.222133
0.224535
0.223985
0.223771
0.223316
0.226746
0.22608
0.224433
0.225278
0.227217
0.227197
0.22722
0.226842
0.227072
0.225387
0.225352
0.225929
0.226872
0.226564
0.225609
0.226637
0.227298
0.225404
0.225595
0.23102
0.229651
0.229365
0.227943
0.228334
0.232877
0.232939
0.232985
0.233003
0.233008
0.23301
0.23301
0.23301
0.23301
0.233009
0.232996
0.232852
0.23228
0.231826
0.231904
0.232488
0.232871
0.232975
0.232999
0.233002
0.232998
0.23298
0.232964
0.232957
0.232971
0.232994
0.233006
0.233006
0.233008
0.232995
0.233003
0.232948
0.232979
0.232789
0.232891
0.232342
0.232614
0.231471
0.231963
0.229803
0.230577
0.228235
0.229006
0.225793
0.226479
0.224764
0.225023
0.22435
0.224419
0.224638
0.223809
0.224007
0.224894
0.224942
0.223
0.223438
0.224261
0.223874
0.221958
0.222107
0.222316
0.222608
0.221837
0.221691
0.221676
0.221744
0.222717
0.222217
0.221832
0.221578
0.223612
0.223064
0.222868
0.222452
0.226164
0.225309
0.22351
0.224394
0.226947
0.227189
0.227035
0.226305
0.227113
0.225354
0.225203
0.226179
0.226989
0.226775
0.225769
0.225932
0.226325
0.225153
0.225196
0.22802
0.229293
0.226919
0.226546
0.226381
0.23279
0.232914
0.232981
0.233002
0.233008
0.23301
0.23301
0.23301
0.23301
0.233002
0.232926
0.232476
0.231908
0.231896
0.232443
0.232848
0.232968
0.232997
0.233004
0.233005
0.233003
0.233001
0.233
0.233002
0.233007
0.233009
0.233009
0.233008
0.233009
0.232999
0.233005
0.232959
0.232986
0.232803
0.232906
0.232323
0.23262
0.231284
0.231879
0.22926
0.230234
0.227311
0.228262
0.22538
0.22589
0.225419
0.225374
0.22558
0.224943
0.22491
0.22549
0.22558
0.224568
0.224778
0.225791
0.225794
0.223527
0.22411
0.225153
0.224673
0.221921
0.222163
0.222526
0.222988
0.221486
0.22149
0.221584
0.221747
0.221959
0.2216
0.221389
0.22133
0.222722
0.222241
0.222077
0.221755
0.225415
0.224432
0.222627
0.223473
0.226481
0.22708
0.226669
0.2256
0.227056
0.225391
0.225106
0.226417
0.226967
0.22683
0.225943
0.225338
0.225502
0.224958
0.224891
0.225941
0.232127
0.227552
0.22551
0.225256
0.232709
0.232902
0.232981
0.233003
0.233008
0.23301
0.23301
0.23301
0.233006
0.232968
0.232663
0.232035
0.231889
0.232354
0.23279
0.232945
0.23299
0.233003
0.233007
0.233007
0.233006
0.233007
0.233008
0.233009
0.23301
0.23301
0.233009
0.23301
0.233008
0.233009
0.233
0.233006
0.232963
0.232988
0.232809
0.232911
0.232295
0.232619
0.2311
0.231793
0.228525
0.229633
0.226577
0.227468
0.225664
0.22597
0.226089
0.225924
0.226656
0.226529
0.225746
0.225666
0.22624
0.226389
0.225513
0.225719
0.226705
0.226699
0.224048
0.224767
0.226026
0.225453
0.221996
0.222361
0.222823
0.223388
0.221345
0.221442
0.221603
0.22185
0.221413
0.221245
0.221204
0.221224
0.22195
0.221592
0.221461
0.221269
0.224558
0.223512
0.221856
0.222587
0.225844
0.226815
0.226118
0.224777
0.226907
0.225467
0.225067
0.226558
0.226895
0.226778
0.226091
0.224881
0.224865
0.224801
0.224644
0.225374
0.232362
0.22731
0.224784
0.224651
0.232657
0.232906
0.232984
0.233004
0.233009
0.23301
0.23301
0.233008
0.23299
0.232809
0.232217
0.231896
0.232243
0.232704
0.232887
0.232968
0.232997
0.233006
0.233009
0.233009
0.233009
0.233009
0.23301
0.23301
0.23301
0.23301
0.233009
0.23301
0.233008
0.233008
0.232998
0.233005
0.232952
0.232984
0.232755
0.232886
0.232105
0.232513
0.23065
0.231485
0.228016
0.228933
0.22648
0.227174
0.226474
0.226471
0.226869
0.226987
0.226817
0.227597
0.227417
0.226634
0.226523
0.227162
0.227318
0.226442
0.226646
0.227568
0.227579
0.224505
0.225298
0.226754
0.226078
0.222185
0.222615
0.223143
0.223776
0.221319
0.221472
0.221708
0.222015
0.22113
0.221099
0.221118
0.22121
0.221339
0.221147
0.221044
0.221032
0.223645
0.222615
0.221235
0.221802
0.225071
0.226386
0.225451
0.223876
0.226617
0.225544
0.225054
0.226559
0.226733
0.226683
0.226144
0.224523
0.224397
0.224665
0.224423
0.22492
0.228887
0.225418
0.224256
0.224211
0.232648
0.232918
0.232988
0.233005
0.233009
0.23301
0.233009
0.232999
0.232905
0.232436
0.231937
0.232124
0.232598
0.232802
0.232913
0.232978
0.233002
0.233008
0.23301
0.23301
0.23301
0.23301
0.23301
0.23301
0.23301
0.23301
0.233009
0.23301
0.233007
0.233008
0.232993
0.233003
0.232914
0.232968
0.232574
0.232798
0.231596
0.232186
0.229891
0.23081
0.228099
0.228792
0.227126
0.227538
0.227269
0.227138
0.228181
0.228187
0.227962
0.227783
0.228675
0.228518
0.227541
0.227446
0.228126
0.228256
0.227242
0.227485
0.228312
0.228358
0.224997
0.225852
0.227362
0.226669
0.222409
0.222899
0.223493
0.224197
0.221363
0.221581
0.221867
0.222224
0.221004
0.221024
0.221118
0.221274
0.220957
0.220935
0.220851
0.220912
0.22274
0.221821
0.220891
0.221189
0.224261
0.225865
0.224771
0.223043
0.22624
0.22558
0.225033
0.226472
0.226496
0.226496
0.226075
0.22423
0.22405
0.224572
0.224222
0.224241
0.227319
0.22431
0.223906
0.223821
0.23267
0.232936
0.232994
0.233007
0.233009
0.233009
0.233003
0.232959
0.232647
0.232051
0.232036
0.232475
0.232703
0.232822
0.232928
0.232986
0.233006
0.233009
0.23301
0.23301
0.23301
0.23301
0.23301
0.23301
0.23301
0.23301
0.23301
0.23301
0.233009
0.233007
0.233008
0.23299
0.233002
0.232885
0.232959
0.232408
0.232723
0.231191
0.231891
0.229573
0.230392
0.229043
0.229391
0.228617
0.228771
0.228365
0.228242
0.229053
0.229214
0.228943
0.22882
0.22969
0.229601
0.228367
0.228336
0.229039
0.229102
0.227868
0.228178
0.228955
0.229048
0.225483
0.226406
0.227972
0.227267
0.222664
0.223203
0.223849
0.224616
0.221475
0.221738
0.222061
0.222451
0.220936
0.221044
0.221186
0.221381
0.220782
0.220831
0.22076
0.220855
0.221995
0.221248
0.220739
0.220856
0.223528
0.225323
0.224116
0.222316
0.225844
0.225542
0.22496
0.226263
0.226134
0.226107
0.225831
0.223959
0.223767
0.224427
0.223999
0.223763
0.231606
0.225517
0.223633
0.223518
0.232715
0.232955
0.232999
0.233008
0.233009
0.233007
0.232986
0.232806
0.232241
0.232013
0.232328
0.232599
0.232717
0.232829
0.232947
0.232997
0.233008
0.23301
0.23301
0.23301
0.23301
0.23301
0.23301
0.23301
0.23301
0.23301
0.23301
0.23301
0.233009
0.233007
0.233008
0.23299
0.233002
0.232884
0.232959
0.232392
0.232717
0.231186
0.231867
0.229874
0.230483
0.230437
0.230666
0.230075
0.230056
0.230307
0.22949
0.229356
0.230141
0.23023
0.229817
0.229764
0.230482
0.23044
0.229094
0.22911
0.229847
0.229844
0.228461
0.228763
0.229544
0.229679
0.225923
0.226926
0.228573
0.227845
0.222921
0.22349
0.224173
0.224991
0.221622
0.221914
0.22226
0.222669
0.220969
0.221116
0.221304
0.221526
0.220704
0.220776
0.220704
0.220875
0.22136
0.220899
0.220697
0.22076
0.222724
0.224745
0.223204
0.221534
0.225208
0.225294
0.224698
0.225793
0.225351
0.225235
0.225307
0.223725
0.223501
0.224196
0.223804
0.223702
0.232644
0.228024
0.223391
0.22333
0.232774
0.232971
0.233002
0.233008
0.233008
0.232997
0.232906
0.232474
0.232031
0.23218
0.232489
0.232612
0.232707
0.232849
0.23297
0.233002
0.233009
0.23301
0.23301
0.23301
0.23301
0.23301
0.23301
0.23301
0.23301
0.23301
0.23301
0.23301
0.233009
0.233007
0.233008
0.232993
0.233004
0.232908
0.232968
0.232522
0.232776
0.23165
0.232125
0.230924
0.231233
0.230672
0.231082
0.230366
0.230355
0.230521
0.230348
0.230383
0.230313
0.230411
0.230479
0.230516
0.230511
0.230742
0.230685
0.229773
0.229823
0.230511
0.230492
0.229057
0.229335
0.230092
0.230242
0.226212
0.227272
0.229144
0.228322
0.223152
0.22373
0.22442
0.225254
0.221791
0.222095
0.222448
0.222856
0.221028
0.221229
0.221451
0.221685
0.220678
0.220778
0.220748
0.220921
0.221018
0.220839
0.220644
0.220666
0.221766
0.223599
0.221978
0.221151
0.223908
0.224729
0.224286
0.224984
0.224128
0.224161
0.224583
0.223464
0.22326
0.223901
0.223485
0.224136
0.232704
0.228683
0.223202
0.223304
0.232832
0.232984
0.233005
0.233008
0.233002
0.23296
0.232687
0.232106
0.23209
0.232363
0.232509
0.232578
0.232707
0.232893
0.232985
0.233007
0.23301
0.23301
0.23301
0.23301
0.23301
0.23301
0.23301
0.23301
0.23301
0.23301
0.23301
0.23301
0.23301
0.233009
0.233007
0.233009
0.233
0.233006
0.232953
0.232985
0.232766
0.232887
0.232301
0.232572
0.231534
0.231956
0.229936
0.229172
0.229784
0.230216
0.230219
0.230232
0.229564
0.230624
0.230556
0.23025
0.230323
0.230816
0.230782
0.230658
0.230582
0.230365
0.230448
0.230833
0.230832
0.229647
0.229887
0.230549
0.230677
0.226295
0.227371
0.229452
0.228508
0.223325
0.223873
0.224529
0.225326
0.221952
0.222249
0.222581
0.222951
0.221119
0.221358
0.221591
0.221833
0.220663
0.220898
0.220759
0.22112
0.220931
0.220787
0.220651
0.220648
0.221374
0.222347
0.2217
0.221129
0.222757
0.224168
0.223852
0.224149
0.223075
0.223329
0.223907
0.223231
0.223069
0.223517
0.223244
0.224619
0.232938
0.230318
0.223062
0.223374
0.232882
0.232993
0.233007
0.233005
0.232987
0.232835
0.232308
0.232076
0.232228
0.232407
0.232463
0.232553
0.232732
0.232935
0.232999
0.233009
0.23301
0.23301
0.23301
0.23301
0.23301
0.23301
0.23301
0.23301
0.23301
0.23301
0.23301
0.23301
0.23301
0.23301
0.233008
0.233009
0.233005
0.233007
0.232983
0.232998
0.232875
0.232949
0.232447
0.232725
0.231236
0.231977
0.228597
0.227624
0.228408
0.228671
0.227655
0.229324
0.229345
0.228152
0.230498
0.230412
0.229361
0.229449
0.230783
0.230725
0.230011
0.229871
0.230761
0.230813
0.230833
0.230848
0.230102
0.230385
0.230716
0.2308
0.226264
0.227326
0.229491
0.228495
0.22338
0.223906
0.224534
0.225276
0.222074
0.222341
0.222629
0.222961
0.22133
0.221561
0.221765
0.22199
0.220824
0.220868
0.220975
0.22102
0.22095
0.220795
0.220766
0.220686
0.221463
0.222103
0.221831
0.221289
0.222511
0.223617
0.223424
0.22348
0.22288
0.223172
0.223438
0.223024
0.222886
0.223246
0.223008
0.225033
0.232902
0.230268
0.222971
0.223481
0.232923
0.232999
0.233006
0.232996
0.232922
0.232556
0.232103
0.232127
0.232301
0.232362
0.232402
0.232552
0.232796
0.232972
0.233005
0.233009
0.23301
0.23301
0.23301
0.23301