/*--------------------------------*- C++ -*----------------------------------*\
  =========                 |
  \\      /  F ield         | OpenFOAM: The Open Source CFD Toolbox
   \\    /   O peration     | Website:  https://openfoam.org
    \\  /    A nd           | Version:  dev
     \\/     M anipulation  |
\*---------------------------------------------------------------------------*/
FoamFile
{
    version     2.0;
    format      ascii;
    class       volScalarField;
    location    "2500";
    object      omega;
}
// * * * * * * * * * * * * * * * * * * * * * * * * * * * * * * * * * * * * * //

dimensions      [0 0 -1 0 0 0 0];

internalField   nonuniform List<scalar> 
9851
(
1.22146
1.24228
1.18711
1.17172
1.32417
1.08195
1.07908
1.33818
1.25978
1.02263
1.03162
1.30856
1.32926
1.12972
1.00671
1.00731
1.22963
1.353
1.25276
1.04476
1.00058
0.992406
1.13123
1.34589
1.32017
1.12876
1.01177
0.99609
0.980497
1.06273
1.31431
1.34288
1.22458
1.04609
0.99768
0.99271
0.973394
1.01904
1.24597
1.34756
1.29399
1.1103
1.00883
0.989155
0.991167
0.969582
0.990301
1.16151
1.33883
1.32582
1.18715
1.03784
0.991675
0.981979
0.99063
0.967914
0.973762
1.0806
1.3113
1.3361
1.25546
1.08532
1.00235
0.981227
0.977246
0.990391
0.968248
0.963867
1.02875
1.25732
1.33823
1.29847
1.14692
1.02535
0.984214
0.972367
0.974713
0.990181
0.969088
0.956165
0.994667
1.1787
1.33216
1.31979
1.21125
1.0593
0.994304
0.972625
0.965566
0.973442
0.990044
0.96985
0.951129
0.973718
1.09678
1.30956
1.32732
1.26258
1.11022
1.01055
0.975859
0.963178
0.961347
0.972577
0.989984
0.970458
0.94829
0.961016
1.03957
1.26058
1.33019
1.29456
1.16764
1.03715
0.983948
0.963758
0.95522
0.958672
0.972115
0.989975
0.970972
0.947204
0.953686
1.00279
1.18739
1.32525
1.31227
1.22112
1.07663
0.996482
0.966599
0.953919
0.949657
0.957049
0.971901
0.989979
0.971466
0.947346
0.949866
0.980548
1.10782
1.30493
1.32115
1.26206
1.12905
1.01554
0.972858
0.954458
0.945435
0.946003
0.956061
0.97178
0.990006
0.972223
0.948643
0.948053
0.967675
1.04944
1.25947
1.32384
1.29099
1.17952
1.0481
0.981701
0.956707
0.944683
0.939415
0.94354
0.955405
0.971757
0.99005
0.973154
0.950288
0.946773
0.959849
1.01256
1.19079
1.31963
1.30685
1.22506
1.09089
0.996762
0.961045
0.945124
0.936556
0.93496
0.941779
0.955056
0.9718
0.990112
0.974108
0.951864
0.946395
0.955037
0.989317
1.11387
1.30152
1.31544
1.25984
1.14108
1.0206
0.967541
0.946593
0.935934
0.930228
0.931677
0.940615
0.954892
0.97191
0.990162
0.975085
0.953399
0.946773
0.952504
0.975525
1.05621
1.26039
1.32073
1.28646
1.18531
1.05813
0.978126
0.949019
0.935967
0.928019
0.925177
0.929291
0.939873
0.954893
0.972027
0.990185
0.976158
0.955172
0.947697
0.951218
0.967891
1.01895
1.19419
1.31797
1.30472
1.22605
1.10195
0.997024
0.95309
0.935931
0.92725
0.921574
0.921255
0.927526
0.939479
0.954962
0.972121
0.990197
0.977313
0.957377
0.948879
0.950701
0.962889
0.995466
1.11842
1.30252
1.31483
1.25928
1.14931
1.02665
0.960599
0.936541
0.926044
0.919452
0.916258
0.918287
0.926387
0.939304
0.955057
0.972185
0.990226
0.97849
0.959913
0.950398
0.950744
0.959293
0.980635
1.06099
1.26623
1.32439
1.28794
1.19021
1.06785
0.974921
0.938691
0.924277
0.918195
0.91309
0.911872
0.916092
0.925712
0.939243
0.955184
0.972197
0.990243
0.979689
0.962525
0.952289
0.951231
0.956953
0.971408
1.02177
1.20286
1.32369
1.30899
1.22906
1.11208
1.00003
0.944049
0.924353
0.915621
0.910862
0.90787
0.908543
0.9146
0.925345
0.939303
0.955304
0.972186
0.990243
0.981006
0.965018
0.95437
0.952196
0.955583
0.965889
0.996518
1.12611
1.31189
1.32175
1.26446
1.15755
1.03568
0.955428
0.925692
0.913309
0.908681
0.904583
0.903406
0.906089
0.91369
0.925229
0.939489
0.955356
0.972152
0.990247
0.982413
0.9674
0.956556
0.953676
0.955171
0.962497
0.980763
1.06681
1.28107
1.33585
1.29523
1.19796
1.07924
0.977215
0.929922
0.913136
0.905315
0.902124
0.899521
0.899823
0.90435
0.913242
0.92537
0.93969
0.955325
0.972131
0.990297
0.983756
0.969582
0.958924
0.955357
0.955658
0.960702
0.97157
1.02542
1.22332
1.33764
1.32015
1.23713
1.12386
1.00875
0.93981
0.914125
0.903176
0.898887
0.896177
0.895224
0.897177
0.903284
0.913148
0.925684
0.939888
0.955222
0.972107
0.990383
0.984993
0.971435
0.961468
0.956866
0.956758
0.96004
0.966816
0.998871
1.14752
1.3298
1.33514
1.27537
1.16822
1.04864
0.958242
0.917777
0.902988
0.895429
0.892851
0.891135
0.891707
0.895454
0.902874
0.91338
0.926149
0.940183
0.955296
0.972306
0.990623
0.986137
0.973034
0.963804
0.958172
0.958246
0.96018
0.964665
0.983519
1.0844
1.30648
1.35225
1.30746
1.20908
1.09326
0.986283
0.926521
0.903945
0.893845
0.888886
0.887409
0.88717
0.889022
0.894461
0.903139
0.914019
0.926652
0.940521
0.955705
0.972894
0.991193
0.98712
0.974418
0.965686
0.959307
0.959748
0.960719
0.963939
0.97511
1.04201
1.26015
1.3605
1.3354
1.24839
1.13782
1.0225
0.944019
0.907577
0.893835
0.886341
0.883185
0.882897
0.884184
0.887424
0.894207
0.903962
0.915194
0.927535
0.941166
0.956473
0.973946
0.992079
0.987858
0.975571
0.967052
0.960235
0.960868
0.961213
0.963984
0.971
1.01356
1.19642
1.35795
1.35466
1.28826
1.1809
1.06535
0.968712
0.916701
0.895143
0.885681
0.880191
0.878339
0.879307
0.882124
0.886985
0.894848
0.905399
0.916974
0.929254
0.9428
0.958323
0.976061
0.993333
0.988412
0.976358
0.967892
0.961014
0.961501
0.961888
0.964078
0.969479
0.996132
1.12949
1.34651
1.37425
1.32317
1.22208
1.11054
1.0025
0.933268
0.899683
0.886149
0.879108
0.875087
0.874354
0.876721
0.881328
0.887697
0.896517
0.907571
0.919482
0.932039
0.94607
0.962248
0.980157
0.995402
0.988879
0.976694
0.968285
0.961371
0.96147
0.962703
0.964508
0.969257
0.986627
1.08062
1.32044
1.39521
1.35428
1.2615
1.15497
1.04292
0.957407
0.910731
0.888809
0.879264
0.87376
0.870919
0.871439
0.875467
0.881939
0.889811
0.899497
0.910665
0.922985
0.936185
0.95146
0.968752
0.986724
0.999104
0.997048
0.989144
0.976698
0.968235
0.961083
0.960721
0.96303
0.965335
0.969584
0.981975
1.04672
1.27339
1.40492
1.3842
1.30256
1.1978
1.08781
0.989194
0.929047
0.89646
0.881203
0.873824
0.869558
0.867876
0.869921
0.875851
0.884145
0.89367
0.903941
0.915383
0.928542
0.943382
0.96086
0.97977
0.99468
0.992491
0.999992
0.999258
0.989088
0.976333
0.967595
0.960176
0.959372
0.962598
0.965981
0.970276
0.979881
1.02386
1.21094
1.40424
1.41082
1.34479
1.23922
1.13404
1.02854
0.953827
0.911577
0.887526
0.875658
0.869744
0.866824
0.866551
0.870255
0.878123
0.888425
0.899471
0.910497
0.923127
0.93802
0.956082
0.972307
0.969443
0.991091
0.978191
0.991153
0.998339
0.998529
1.00082
1.00198
0.988813
0.975403
0.966173
0.958717
0.957659
0.96132
0.965995
0.970991
0.979286
1.01056
1.15014
1.39656
1.44001
1.3842
1.28122
1.17906
1.07351
0.986183
0.933087
0.901636
0.882066
0.871958
0.867356
0.866273
0.867862
0.873087
0.882895
0.895583
0.908313
0.920565
0.935198
0.953225
0.968505
0.968964
0.978513
0.999387
0.992403
1.0014
1.00365
1.00649
1.00196
1.00543
0.988379
0.974026
0.963994
0.956608
0.955589
0.959479
0.965256
0.971276
0.979519
1.00283
1.10666
1.37547
1.46904
1.42347
1.32579
1.22332
1.12116
1.02666
0.961974
0.922679
0.896812
0.87941
0.870537
0.867526
0.86844
0.872645
0.880153
0.891356
0.906129
0.921031
0.936075
0.954622
0.970263
0.972775
0.979603
0.982517
0.995419
1.0107
1.00562
1.01685
1.0101
1.01657
1.00324
1.00904
0.987741
0.972423
0.961254
0.954086
0.953037
0.956867
0.963626
0.971015
0.979893
0.998914
1.07709
1.3301
1.48698
1.4632
1.37476
1.26749
1.1704
1.07323
0.999587
0.952189
0.920702
0.897319
0.880402
0.872489
0.871146
0.874502
0.881744
0.892653
0.907113
0.923275
0.939498
0.958897
0.975876
0.980122
0.986198
0.99135
0.99964
1.00491
1.01248
1.0256
1.02582
1.0376
1.01687
1.02814
1.00462
1.01248
0.98696
0.970581
0.958349
0.951513
0.950111
0.953133
0.960709
0.969859
0.979952
0.997353
1.05653
1.27406
1.49249
1.50332
1.42683
1.31327
1.21901
1.12501
1.04531
0.991073
0.954341
0.925779
0.903472
0.886202
0.879154
0.880106
0.886593
0.897473
0.91144
0.928682
0.947014
0.968065
0.984874
0.992243
0.996729
1.00295
1.0107
1.01726
1.02088
1.02991
1.03738
1.04384
1.05306
1.06422
1.02373
1.04126
1.00604
1.01547
0.986126
0.968586
0.955706
0.948805
0.946819
0.948126
0.956525
0.967217
0.979253
0.996741
1.04378
1.2159
1.49122
1.54501
1.47811
1.36373
1.2672
1.179
1.09845
1.03985
0.999272
0.966704
0.939813
0.916832
0.898597
0.893009
0.896989
0.907812
0.922697
0.942907
0.96121
0.98586
1.00044
1.01354
1.01112
1.02144
1.02508
1.03506
1.0395
1.05047
1.05102
1.06508
1.07137
1.06642
1.08864
1.09851
1.03044
1.05659
1.00729
1.01779
0.985415
0.967278
0.953808
0.945846
0.943264
0.941946
0.951249
0.963204
0.977197
0.99599
1.03649
1.1724
1.48028
1.58545
1.53109
1.42015
1.3167
1.23498
1.15768
1.10008
1.06005
1.02659
0.994736
0.968612
0.944421
0.926141
0.921254
0.928646
0.944291
0.967169
0.987383
1.00946
1.02616
1.04675
1.03696
1.05749
1.04877
1.07485
1.06455
1.08941
1.08079
1.10341
1.09156
1.11377
1.11547
1.0956
1.13422
1.14285
1.03644
1.07497
1.00806
1.01988
0.985201
0.967384
0.953453
0.943618
0.939692
0.935491
0.945098
0.958187
0.974042
0.9947
1.03195
1.14261
1.44632
1.61638
1.58683
1.48343
1.3685
1.29106
1.22188
1.17183
1.14262
1.12157
1.10386
1.08963
1.06742
1.03084
0.996214
0.979468
0.982798
0.998715
1.0218
1.03917
1.06294
1.10174
1.08606
1.13128
1.11288
1.19467
1.13954
1.24837
1.15311
1.27288
1.1532
1.25235
1.14585
1.21025
1.17364
1.13399
1.19228
1.19363
1.04294
1.09808
1.00822
1.02108
0.986689
0.970059
0.955144
0.942936
0.936576
0.930068
0.93883
0.952834
0.970293
0.993062
1.0289
1.12142
1.39571
1.63301
1.64352
1.55106
1.42492
1.34623
1.28787
1.25149
1.25296
1.30038
1.38809
1.51267
1.58261
1.51994
1.35392
1.19631
1.10641
1.07848
1.0899
1.10055
1.12033
1.15675
1.19161
1.28242
1.31533
1.53027
1.46301
1.87352
1.54994
2.12616
1.51631
2.13988
1.39332
1.90319
1.26746
1.55901
1.31332
1.17038
1.33461
1.31856
1.04954
1.118
1.00758
1.02097
0.992256
0.976901
0.960582
0.944103
0.934396
0.92573
0.933387
0.947771
0.966497
0.991178
1.02912
1.10648
1.34251
1.63757
1.69929
1.61935
1.48883
1.40061
1.35155
1.33343
1.39374
1.63106
2.14563
2.86817
3.45758
3.51813
2.98253
2.2645
1.69
1.38521
1.27495
1.24884
1.23195
1.16952
1.37953
1.54452
1.81094
2.19001
2.45407
3.23406
3.07231
4.35778
3.36305
5.12977
3.07704
5.21864
2.4114
4.32815
1.71933
2.94084
1.82593
1.25401
1.83772
1.73069
1.05585
1.15302
1.0062
1.01937
1.00512
0.992192
0.97193
0.949349
0.934139
0.922571
0.928809
0.94282
0.963053
0.989594
1.03104
1.09807
1.28935
1.6331
1.75046
1.68905
1.5612
1.45633
1.41161
1.41108
1.55909
2.10452
3.32703
5.03931
6.51842
7.10303
6.7682
5.64045
4.07385
2.59539
1.8849
1.63829
2.00971
1.69265
2.13218
2.65163
3.21673
4.15422
5.18958
5.8205
7.34527
7.1501
9.2095
7.8078
10.3053
7.41817
10.5255
5.66009
9.57895
3.37426
6.84043
3.58638
1.52361
3.48821
3.04865
1.0653
1.28899
1.00474
1.02046
1.0338
1.03284
0.992824
0.962547
0.937162
0.921328
0.925239
0.937915
0.959149
0.988729
1.03431
1.09531
1.24997
1.61145
1.78989
1.76054
1.64165
1.51608
1.46633
1.48028
1.73053
2.64898
4.52864
6.84741
8.35452
8.92625
8.88531
8.29702
7.1703
5.64423
3.8762
2.72165
3.11401
5.35758
6.72346
3.86161
4.69798
6.25096
7.47347
8.88639
10.2644
10.9403
12.245
12.2099
13.34
12.7146
13.8898
12.5276
14.0057
11.2344
13.6077
7.61963
12.1904
7.83195
2.39626
7.32823
6.03473
1.11648
1.74708
1.00372
1.03486
1.10655
1.12667
1.04755
0.989356
0.946475
0.922473
0.92303
0.933635
0.954569
0.987569
1.03606
1.09518
1.22183
1.56317
1.8119
1.8298
1.72558
1.58307
1.51864
1.53408
1.88252
3.16168
5.59689
8.01463
9.15157
9.53652
9.59488
9.39007
8.85757
7.91166
6.61488
5.39143
5.63501
7.82999
9.68535
11.1396
12.0807
8.71714
9.9086
11.4218
12.3283
13.0724
13.5759
13.968
14.2761
14.4985
14.7701
14.7692
15.1301
14.73
15.2966
14.2418
15.1933
12.5943
14.6024
12.6203
4.48129
12.1759
10.7705
1.30737
2.9517
1.00603
1.10341
1.23711
1.30293
1.17928
1.04729
0.970794
0.926514
0.921377
0.930127
0.950026
0.985398
1.03568
1.09375
1.19774
1.49968
1.8164
1.89303
1.80834
1.66044
1.57145
1.57785
1.9879
3.56615
6.3695
8.59541
9.45257
9.69867
9.6886
9.52236
9.23402
8.88119
8.33392
7.75007
8.51334
10.4062
11.711
12.8112
13.2756
13.6933
13.8433
12.971
13.3984
13.874
14.0229
14.4056
14.3892
14.835
14.7931
15.2587
15.2334
15.5593
15.6909
15.6626
16.0113
15.4774
16.0759
14.7884
15.7457
14.7472
8.23362
14.4355
13.726
1.84303
5.16691
1.01717
1.28993
1.26937
1.42607
1.37827
1.1847
1.02621
0.936956
0.919868
0.926832
0.9456
0.981687
1.03211
1.08856
1.17851
1.42867
1.80947
1.94566
1.88881
1.74821
1.63049
1.61254
2.04008
3.81784
6.8448
8.84403
9.45713
9.61462
9.47912
9.23802
9.03792
8.91494
8.87444
9.03377
10.1991
13.0953
13.4434
13.8445
13.9506
13.9442
13.9947
13.9232
14.0616
14.0396
14.3316
14.2122
14.6858
14.5218
15.1567
15.039
15.7737
15.8594
16.3945
16.7999
16.7159
17.5
16.6083
17.6646
15.9488
17.1597
16.0642
12.2033
16.0485
15.7487
3.06196
8.94352
1.05079
1.72695
1.31138
1.44908
1.37472
1.15662
0.968023
0.9205
0.923404
0.940847
0.976014
1.02547
1.08346
1.16802
1.36852
1.78087
1.98097
1.96634
1.84207
1.69775
1.64938
2.04446
3.90718
7.0866
8.8561
9.3767
9.36503
8.917
8.56031
8.52908
8.69163
8.85359
9.30322
10.6925
12.9974
13.7585
13.6703
13.931
13.87
13.8555
13.7969
13.8354
13.7512
14.0794
13.9479
14.3512
14.1984
14.9292
14.8376
15.9164
15.9563
17.2034
17.5569
18.4068
19.2573
18.9563
20.4605
18.6831
20.58
17.6121
19.58
17.8715
14.8742
17.8936
17.6567
5.17648
12.8412
1.16303
2.84218
1.24978
1.42007
1.32746
1.05963
0.931995
0.92132
0.935716
0.969472
1.02059
1.08282
1.16833
1.33946
1.72749
1.99321
2.03603
1.93454
1.77495
1.68983
2.02758
3.89957
7.12225
8.77902
9.17474
8.93233
8.32509
7.97956
8.17078
8.37027
8.66739
9.26257
10.598
12.6721
13.5605
13.3381
13.7285
13.7422
13.7593
13.7275
13.741
13.7693
14.0205
14.0696
14.0811
14.0184
14.7679
14.7315
15.9786
15.9715
17.7784
17.9118
20.0179
20.5634
21.9926
23.2777
22.8398
25.0266
22.1325
25.0805
20.1657
23.2985
20.3402
17.1168
20.1916
20.0086
18.5523
8.65525
15.8524
1.34214
4.24961
1.16968
1.35323
1.20942
0.983217
0.928206
0.933537
0.966537
1.02136
1.0932
1.18507
1.33465
1.66527
1.99028
2.09295
2.02006
1.86327
1.73947
1.97063
3.8212
7.06975
8.61692
8.90361
8.48498
7.77373
7.37909
7.74916
8.1577
8.64104
9.29571
10.4191
12.107
13.3947
13.7624
13.8976
14.2263
14.4295
13.8552
14.0275
14.2051
14.4259
14.8232
14.99
14.7291
14.7506
15.9559
15.9331
17.9614
17.9269
20.8701
20.9441
24.1778
24.616
26.8935
27.9808
28.0825
29.9486
27.0487
30.2547
23.8682
28.2661
25.9296
21.8763
23.9837
19.7495
17.911
19.5304
21.4508
23.5212
23.7659
21.2436
12.4659
19.1277
18.7569
16.5259
1.40805
5.65439
1.14669
1.28523
1.10035
0.970625
0.946044
0.974443
1.03384
1.12416
1.22427
1.34369
1.61348
1.97052
2.12953
2.09663
1.95923
1.80293
1.89059
3.61541
6.92767
8.44402
8.64131
8.09221
7.28481
6.75902
7.01414
7.7998
8.56882
9.43337
10.4412
11.7883
13.264
14.7358
14.7286
14.5836
14.7002
15.2459
15.4374
14.6901
14.9916
15.2288
15.4934
16.0118
16.1082
15.9331
15.9589
17.8458
17.6895
20.8527
20.6086
24.6312
24.4413
28.2914
28.095
30.5532
30.3824
31.8041
31.6846
31.635
29.8927
31.5313
32.6325
32.1827
28.4914
26.0382
28.6897
30.4744
26.0021
20.9605
20.6346
23.0673
25.2771
25.6995
22.6906
17.9974
13.0872
17.1874
20.303
19.8941
1.91517
14.9843
11.0027
5.38788
1.17953
1.24629
1.07874
1.00372
1.02092
1.07886
1.16493
1.27072
1.38517
1.59357
1.92437
2.1399
2.1628
2.05378
1.87941
1.83425
3.2838
6.6456
8.28138
8.41698
7.78232
6.91111
6.24847
6.1891
6.91739
8.23658
9.41777
10.4939
11.6987
13.1149
14.6522
15.3853
15.2812
15.5043
15.4843
15.9027
15.8983
15.7046
15.8351
16.1922
16.192
17.1142
16.9152
17.4962
17.3008
20.1774
19.6423
24.004
23.3006
27.7209
27.1402
29.995
29.6704
31.4106
31.1601
30.836
30.6375
32.4806
32.3005
32.1716
31.7648
31.9773
32.8188
32.7759
32.9849
30.714
28.438
30.7351
32.3369
28.1993
22.2978
21.9119
24.8128
27.7852
27.2775
24.3072
19.442
18.8101
21.5353
21.165
6.20568
1.27115
3.2282
17.7103
14.0147
1.25736
1.24444
1.13323
1.13522
1.16779
1.22503
1.31716
1.43969
1.59692
1.88093
2.13549
2.21449
2.13818
1.96814
1.82144
2.89751
6.23947
8.13096
8.24927
7.57505
6.687
5.91799
5.4848
5.5848
6.9949
8.99365
10.3863
11.6069
12.9263
14.0326
14.8776
14.7262
15.5385
15.2971
15.851
15.7276
16.0632
15.9438
16.1571
16.1229
16.6583
16.418
17.8966
17.3397
19.0598
18.4707
22.4364
21.4789
26.4435
25.565
29.3801
29.1653
30.4806
30.4721
30.5895
30.8357
31.3601
30.9472
30.7056
30.6487
32.2436
31.4669
31.8372
31.2585
33.2171
33.3448
32.1013
32.9594
32.5316
30.6121
32.5866
33.5133
30.3187
23.8015
23.3124
26.7001
29.8595
29.2954
26.0787
20.8217
20.4789
22.8609
22.4832
9.04348
1.43757
4.5742
19.883
17.7911
1.40079
1.33583
1.30303
1.28814
1.30533
1.36985
1.47804
1.61946
1.85013
2.11519
2.24318
2.20699
2.06325
1.85659
2.50457
5.69781
7.97617
8.14567
7.45508
6.59325
5.85483
5.05776
4.50471
5.24537
7.24575
9.53202
11.1137
12.4385
13.5049
13.9205
14.3979
13.9108
15.1322
14.753
15.7426
15.4588
15.591
15.1894
16.1991
15.9293
16.787
16.2153
18.5221
17.6008
20.4857
19.4881
24.5208
23.3532
28.9601
28.3981
31.1769
31.5547
31.9313
32.1854
30.8105
31.1912
31.7777
32.5089
30.7547
30.5987
30.697
31.1052
31.1167
30.8162
30.3216
30.412
33.639
33.082
30.7032
31.927
33.7172
32.4962
33.8305
33.88
32.2309
25.4549
24.8466
28.6379
31.7994
31.2276
27.9298
22.2089
22.0274
24.2901
23.8488
14.6204
1.5515
6.1476
21.8634
21.5687
1.57816
1.57554
1.48408
1.42606
1.4371
1.51272
1.63915
1.83357
2.07528
2.24667
2.26067
2.15343
1.94511
2.17576
5.00511
7.79064
8.08594
7.43117
6.60355
5.88369
4.90136
3.85178
4.02069
5.23457
7.32461
9.66128
11.3745
12.5938
12.8994
12.0425
12.0764
13.0658
12.6519
13.8168
13.3951
14.738
14.2621
14.2047
13.4117
15.609
14.9422
16.7347
15.8847
19.5141
18.2811
22.1043
20.8008
27.4729
26.2371
33.6604
33.2852
33.3098
34.0895
34.7492
35.1317
31.8296
32.8063
33.9705
35.2139
30.3926
30.6975
31.4303
32.54
29.9224
30.0774
29.7718
30.1886
33.1873
31.7972
29.6448
30.378
34.0769
33.8436
34.2339
33.323
33.728
27.2108
26.4948
30.5405
33.4695
33.0008
29.7924
23.5719
23.4965
25.8095
25.2601
21.2237
2.91226
11.9698
23.7769
25.8967
1.88249
1.86688
1.68119
1.57519
1.57791
1.66583
1.82811
2.03829
2.23891
2.29937
2.22891
2.04171
1.98581
4.19062
7.52066
8.0495
7.44761
6.65328
5.96699
4.90215
3.57113
3.34339
3.91751
5.26215
7.26932
9.22827
10.6491
10.7701
9.01737
9.59361
8.58962
10.4468
10.0542
11.2552
10.7949
12.6007
11.8608
12.9701
11.9352
14.9622
13.9846
17.1063
15.977
21.7236
20.2479
24.8095
23.2714
32.1953
30.5963
38.7903
38.4566
37.003
37.8952
36.4174
37.4648
38.2562
38.6997
33.9322
35.516
37.1737
38.7646
30.7826
31.858
33.3403
35.121
29.5574
30.0707
30.0465
30.9628
31.7769
30.2202
29.4608
29.4945
33.5419
34.3531
33.8247
31.9024
34.4117
29.0022
28.1758
32.3675
34.3927
34.2315
31.6245
24.9435
24.9376
27.3652
26.7074
31.1426
20.4402
31.6676
25.8941
30.5376
2.27144
2.20678
1.89728
1.7295
1.72755
1.83457
2.0158
2.21184
2.31777
2.28571
2.13657
1.94212
3.36467
7.06897
8.02208
7.49485
6.7534
6.12554
4.96285
3.51744
3.04561
3.19709
3.89392
5.17155
6.6959
7.85394
7.78066
6.47048
5.92252
5.39633
6.77743
6.19121
7.77768
7.23493
9.13319
8.39302
10.9182
9.97578
12.7287
11.634
14.8884
13.8141
18.8802
17.6107
24.867
23.0979
28.695
26.7739
36.0761
34.7363
33.5801
41.6437
40.8537
38.3624
39.7475
40.1492
41.2084
41.8494
41.9881
37.0864
39.0979
41.0194
42.707
32.3911
34.2167
36.3314
38.6048
30.1837
31.2687
31.652
32.9975
30.2232
29.5077
30.4048
29.5179
32.2378
34.1643
32.7156
30.4218
34.4842
30.7979
29.8564
33.8997
34.6933
34.7694
33.3533
26.2994
26.3576
28.9072
28.1052
45.8441
86.749
62.9788
27.8268
34.1029
2.70031
2.54545
2.10361
1.8826
1.87816
2.01385
2.18537
2.31755
2.32385
2.2203
1.96929
2.67487
6.31551
7.97412
7.57878
6.90192
6.35373
5.1312
3.54074
2.97052
2.86865
3.14476
3.81605
4.70254
5.40223
5.39186
4.94558
4.54481
5.1134
4.7002
5.85132
5.43193
6.99252
6.34321
8.63572
7.77127
10.5664
9.56373
13.95
12.6339
16.4048
15.2055
21.4837
20.0032
27.4567
25.5187
31.449
29.4261
36.9706
35.7251
34.6363
33.53
43.7214
42.2112
38.5728
40.3363
44.0227
44.8539
45.0744
44.7342
40.9033
43.0914
45.0412
46.6151
35.1284
37.5126
40.027
42.5438
32.1137
33.6621
34.3541
36.0363
29.6964
29.7354
32.6181
30.7336
30.8177
33.3199
31.3766
30.0146
33.9286
32.5506
31.485
34.7903
34.4775
34.9514
34.6109
27.5618
27.6077
30.3972
29.4143
49.3885
108.924
89.6913
29.2269
34.3671
3.09347
2.81441
2.26995
2.01925
2.04016
2.17999
2.31087
2.34793
2.28511
2.06892
2.26114
5.24509
7.86868
7.67922
7.06996
6.6249
5.51567
3.65878
2.9813
2.76655
2.79227
3.08012
3.51882
3.89528
3.9921
3.96205
3.90912
4.28966
3.99617
4.84068
4.47923
5.64408
5.19062
6.93152
6.22426
8.87248
7.80825
11.3188
10.0553
15.7652
14.2208
18.6148
17.2288
23.7007
21.9849
29.2025
27.3112
32.8134
31.8362
30.9464
37.0257
35.734
34.1504
33.5591
44.8127
42.4156
37.8757
40.0641
47.663
48.0197
47.7594
46.6289
44.9497
47.124
48.9404
50.254
38.6468
41.3472
44.04
46.6185
35.0918
36.9525
37.8833
39.7395
30.0259
31.0562
35.8753
33.1479
30.4472
32.1124
31.0013
30.3927
32.9806
34.0484
33.0194
35.2319
33.9282
34.7743
35.3242
28.6721
28.4861
31.8
30.6258
51.2986
115.942
97.2528
29.6019
33.9072
3.3917
2.98151
2.38401
2.15129
2.19668
2.31036
2.36025
2.32978
2.17378
2.0973
4.05641
7.6054
7.82504
7.22954
6.89841
6.02348
4.01656
3.06112
2.76683
2.66545
2.70311
2.88439
3.10059
3.22864
3.32521
3.40976
3.51959
4.0756
3.74247
4.67925
4.35582
5.59045
5.08636
7.13663
6.24942
9.65322
8.29371
12.6574
11.1292
17.1562
15.3946
20.3966
18.8166
25.4413
23.602
30.9834
29.9631
29.1485
32.9972
32.4451
31.6033
32.3061
36.1711
34.9751
33.3288
33.1756
45.1973
41.9643
36.1971
38.7286
50.8213
50.7633
49.8136
47.9101
48.9892
51.0219
52.5966
53.5395
42.6092
45.445
48.1809
50.7205
38.8924
40.8561
42.0327
43.866
31.408
33.68
39.9959
36.7067
30.849
31.6854
31.411
31.7857
32.4785
35.1008
34.341
35.4215
33.374
34.4573
35.7412
29.5956
28.9684
33.1148
31.8344
50.7868
68.0266
97.1931
29.478
32.8996
3.58078
3.04663
2.45998
2.27774
2.32538
2.37397
2.35377
2.25557
2.06894
3.08701
6.91403
7.9066
7.38093
7.13715
6.53101
4.82333
3.30463
2.82367
2.65088
2.52604
2.53765
2.66152
2.78593
2.89956
2.99959
3.10346
3.46078
3.22001
3.89302
3.6194
4.55767
4.18258
5.59822
5.01914
7.33205
6.34709
10.0985
8.58593
13.5733
11.7883
18.4509
16.6695
21.8528
20.1638
27.2152
25.2872
31.7685
31.1166
31.0216
29.9963
33.0238
32.7177
32.2517
32.5664
34.5477
33.7108
32.3163
32.5728
45.5105
41.3836
34.2384
37.2954
53.7026
53.3332
51.7385
49.1188
52.9549
54.7774
56.1187
56.7641
46.853
49.7356
52.4451
54.8744
43.3754
45.2224
46.7438
48.3478
34.1952
37.5706
44.9226
41.225
32.2445
32.0679
32.6956
34.7407
32.7927
35.7502
35.3663
35.4585
33.5934
34.5377
35.9966
30.6267
29.3475
34.4484
33.5062
50.5119
57.9502
86.9815
29.3537
32.9108
3.67217
3.02977
2.51396
2.38842
2.4023
2.37752
2.30582
2.09466
2.5001
5.67714
7.8946
7.53072
7.32184
6.97089
5.64865
3.93629
3.01654
2.68092
2.46987
2.35776
2.39587
2.48183
2.56159
2.64418
2.75793
2.89507
3.32026
3.11052
3.80144
3.54823
4.522
4.12112
5.71199
5.0285
7.87579
6.64684
11.109
9.38217
14.8142
12.9497
19.8316
18.1172
23.4157
21.5995
29.222
27.9951
27.157
32.0008
31.5716
31.1638
30.6942
32.7368
32.7543
32.2927
32.361
32.7238
32.308
31.1115
31.6373
46.1952
41.1999
32.6633
36.3975
56.7948
55.9302
53.831
50.5208
56.9483
58.66
59.9197
60.3134
51.4028
54.2939
56.94
59.2909
48.5599
50.0714
52.1184
53.3091
38.5795
42.7004
50.8311
46.8306
35.2323
33.1065
35.2193
39.2752
33.5613
36.2845
36.4716
35.585
34.2684
35.236
36.4491
32.0964
30.2931
36.4521
35.7772
45.7802
82.7774
81.8029
29.9463
32.6808
3.67048
2.97798
2.56863
2.46654
2.41699
2.34754
2.17516
2.23698
4.29749
7.72942
7.68497
7.44713
7.30684
6.36939
4.88833
3.53583
2.80205
2.47007
2.29751
2.23808
2.25154
2.29269
2.36087
2.47116
2.59032
2.77077
3.26141
3.06596
3.76421
3.48322
4.54401
4.10799
6.06561
5.15755
9.07328
7.37248
12.9142
10.9928
16.418
14.7106
21.4925
19.6297
25.2351
23.3784
30.1333
29.3323
27.8324
29.0981
31.534
31.43
30.7517
30.6697
32.0837
32.2945
31.4695
31.3149
31.1831
30.9608
29.8612
30.2934
47.0329
41.3601
31.7837
35.995
60.1583
58.8194
56.0349
52.0848
61.3699
63.1014
64.1509
64.3378
56.4322
59.3437
62.0169
64.4511
54.7127
55.6292
58.5215
59.0428
43.6894
48.0617
56.6526
52.3667
39.1893
35.1506
38.9701
43.9565
35.5052
37.3864
38.5519
36.3999
36.2209
37.3967
37.9162
34.4524
32.6899
39.3558
39.2662
41.3617
95.6626
106.022
31.212
33.1092
3.6314
2.89171
2.62456
2.48244
2.39923
2.2537
2.14956
3.21465
7.14715
7.78349
7.53467
7.53891
6.94798
5.79735
4.49979
3.13497
2.51815
2.2997
2.16309
2.08056
2.09503
2.15173
2.23105
2.32089
2.47246
2.81117
2.98931
2.60463
3.22953
3.74839
3.45563
4.65009
4.12759
6.64075
5.43777
10.405
8.3401
14.4091
12.5034
17.8621
16.1552
22.9675
20.8213
27.0011
25.0598
30.3395
29.8462
28.9443
29.5954
30.4998
30.6795
29.8315
29.9973
30.7634
31.0905
30.1561
29.7955
30.0964
29.7856
29.018
29.1052
48.3253
41.9218
31.439
35.9164
63.9766
62.024
58.7016
54.051
66.6326
68.3136
69.0903
69.1921
62.3361
65.459
68.3277
70.9717
61.0471
62.294
65.6277
66.1001
49.0557
54.5779
67.2438
60.5816
44.5155
39.261
45.9329
51.4726
39.8876
39.9313
42.5381
39.3086
41.1326
43.608
42.1615
38.3472
35.2223
44.2487
44.0741
44.9657
65.9041
113.595
33.1358
34.7493
3.53892
2.84342
2.63388
2.46495
2.33804
2.14343
2.57243
5.68249
7.76537
7.60146
7.67169
7.37768
6.54613
5.50322
3.99606
2.71946
2.34539
2.14992
1.97558
1.95182
1.9933
2.03364
2.09838
2.22363
2.36482
2.94781
2.71335
2.54504
3.17258
3.74014
3.42834
4.72742
4.14676
6.8689
5.59004
10.7711
8.64496
14.8262
12.8905
18.7169
16.7227
24.4009
21.7277
28.9841
27.6458
26.8031
30.064
29.9401
29.6485
29.9271
29.1739
29.5522
29.403
29.6451
29.3019
29.5326
28.7955
28.5382
29.6392
29.1088
28.7406
28.639
50.3317
43.2369
31.3838
36.4863
68.3657
66.0355
62.0822
56.7838
73.1887
74.7971
75.3637
75.3724
70.0192
73.7013
76.9879
79.902
74.2403
70.4029
80.6074
75.663
59.5067
68.7202
90.3151
79.0147
55.5762
47.5318
60.1136
68.3515
49.5912
46.3753
49.4713
48.0605
53.9606
59.2517
52.9275
41.1841
38.9623
49.8826
47.163
53.5555
52.5451
93.385
35.3592
38.7891
3.39703
2.80134
2.61511
2.40936
2.19236
2.27733
4.15822
7.57122
7.63601
7.69112
7.67485
7.11246
6.34984
5.14118
3.35127
2.4962
2.16779
1.93727
1.85428
1.86494
1.87686
1.92617
2.02347
2.12324
2.27484
2.91805
2.6639
2.50148
3.12425
3.71185
3.38674
4.73344
4.14101
6.86889
5.60198
10.6683
8.6033
14.7894
12.7603
19.2064
16.9047
28.1141
24.3648
30.2735
29.4142
29.3213
31.1796
29.8285
29.9034
30.6821
30.6615
28.7193
29.0799
29.81
30.105
28.4969
28.4543
28.3971
28.2274
29.5664
28.9081
28.7958
28.6039
53.6011
45.7358
32.0037
38.1748
74.1719
71.2364
66.8667
60.7697
82.3129
83.774
84.3095
84.2282
81.1146
86.096
90.4805
93.9679
105.03
87.2666
119.556
94.9992
83.087
100.299
169.348
126.671
77.5156
65.0632
88.7195
97.7824
72.5777
55.8902
56.1614
62.5815
76.1243
77.0087
64.2451
45.8246
41.692
53.9882
53.3599
56.0206
47.6403
76.9863
38.8091
43.5849
3.25114
2.7508
2.55989
2.28344
2.20253
3.09129
6.91804
7.65353
7.67806
7.82293
7.51706
6.99349
6.14585
4.60123
2.90667
2.24682
1.94004
1.80405
1.75951
1.75194
1.79301
1.8616
1.93292
2.03843
2.27938
2.42823
2.12702
2.83826
2.60469
3.06867
3.65771
3.32649
4.68367
4.09037
6.69053
5.51953
10.0889
8.23189
14.69
12.2506
20.6218
17.4135
32.9998
35.8366
33.0705
30.9539
32.7722
32.2555
34.7158
30.3498
30.5456
32.9151
32.8768
29.0554
29.4334
31.8065
32.2253
28.3499
28.2217
28.7563
28.6283
29.8754
29.0611
29.4706
29.19
58.9174
50.1827
33.9519
42.0024
82.3017
78.6982
73.6685
66.9306
96.6284
98.0743
98.6143
98.396
104.33
111.213
117.131
120.757
204.892
138.692
210.691
168.129
125.325
163.354
196.839
203.536
123.845
101.463
154.492
171.963
104.737
64.1805
62.417
77.5669
104.955
104.783
77.3885
48.8433
46.4503
63.2472
57.4922
53.4428
45.3305
82.5853
42.8703
45.5349
3.11479
2.67467
2.45235
2.20688
2.52642
5.2413
7.5892
7.64491
7.8304
7.79809
7.45627
6.90437
5.80649
3.97654
2.48688
1.9818
1.79561
1.68503
1.65113
1.68564
1.72589
1.78539
1.8653
1.95124
2.37827
2.19571
2.08745
2.78113
2.52701
2.98856
3.57004
3.24868
4.56403
3.99434
6.37669
5.3384
9.76662
7.81565
15.7964
12.326
25.2451
20.1379
37.6242
39.2379
37.0379
34.9912
38.308
36.3942
35.8824
39.0369
32.5135
32.754
36.5888
36.5893
30.9188
31.3327
35.4128
35.925
28.8267
28.6459
30.6433
30.5047
31.0323
29.9147
31.3141
30.9874
67.7545
57.5623
38.8163
49.6317
95.1969
90.3184
83.6235
76.2471
123.095
124.391
125.032
123.775
207.108
202.307
209.474
205.773
485.5
234.917
499.224
253.773
213.359
229.062
511.252
499.956
210.22
161.581
224.014
205.174
162.409
75.5025
79.1637
103.999
161.502
161.729
100.751
55.0822
49.9069
69.5449
66.3967
53.5121
27.8839
108.065
45.7848
46.1029
2.98032
2.56286
2.28862
2.30522
3.75702
7.26587
7.58465
7.78211
7.93569
7.77386
7.43535
6.73823
5.33051
3.20986
2.12052
1.81247
1.65172
1.57397
1.59505
1.61223
1.66127
1.73213
1.79868
1.88762
2.33365
2.15728
2.04861
2.70259
2.46702
2.90829
3.46178
3.15171
4.40322
3.86468
6.21366
5.12796
10.2154
7.79709
19.6122
14.0638
32.3077
25.9414
41.171
42.4109
40.3213
37.5886
39.9638
40.4562
39.96
42.6462
36.2922
36.4979
40.7205
40.8745
34.5294
34.9101
39.91
40.2972
30.6555
30.4981
34.3188
34.1795
34.1989
32.0603
35.0966
34.5311
82.4506
69.2207
49.7698
62.5998
118.661
111.763
99.9145
89.9195
199.895
195.099
182.64
174.905
430.151
448.618
434.85
437.227
874.318
491.739
877.49
491.387
523.515
534.855
885.156
888.371
518.307
229.494
515.548
525.615
231.156
109.584
88.8656
160.32
233.82
237.394
168.606
58.5734
53.9489
84.1359
71.5754
55.2862
208.502
159.063
48.8072
45.6186
2.83669
2.39849
2.27961
2.88031
6.22438
7.51918
7.67711
7.94033
7.97944
7.7969
7.38759
6.45949
4.6356
2.52249
1.87675
1.65103
1.52795
1.51728
1.52125
1.55177
1.61762
1.67312
1.74983
1.82248
2.00009
2.26751
2.11231
2.6295
2.40764
2.82078
3.34404
3.05388
4.24539
3.72708
6.27489
5.03431
12.1119
8.38805
25.0103
17.9403
36.2683
31.1194
44.2683
44.7884
42.4922
39.2372
41.8501
44.1399
43.57
45.7219
40.6684
40.8214
44.5804
44.8835
39.4863
39.6079
44.6422
44.6199
34.2509
34.1332
39.4958
39.4432
41.664
36.9869
42.5793
40.4639
105.65
88.6026
70.6032
80.7654
161.637
154.179
135.167
110.587
422.211
423.728
410.229
405.679
827.782
834.466
818.37
821.532
2483.83
843.033
2506.81
850.823
903.349
911.237
2460.7
2488.07
917.968
508.189
926.478
918.251
501.888
120.444
115.257
228.115
503.355
502.034