/*--------------------------------*- C++ -*----------------------------------*\
  =========                 |
  \\      /  F ield         | OpenFOAM: The Open Source CFD Toolbox
   \\    /   O peration     | Website:  https://openfoam.org
    \\  /    A nd           | Version:  dev
     \\/     M anipulation  |
\*---------------------------------------------------------------------------*/
FoamFile
{
    version     2.0;
    format      ascii;
    class       volScalarField;
    location    "2500";
    object      p_rgh;
}
// * * * * * * * * * * * * * * * * * * * * * * * * * * * * * * * * * * * * * //

dimensions      [1 -1 -2 0 0 0 0];

internalField   nonuniform List<scalar> 
9851
(
0.00465299
0.00611808
0.00550607
0.00620783
0.00922583
0.00472943
0.00628112
0.0109893
0.00924496
0.00373364
0.00584848
0.0115129
0.0122638
0.00854391
0.00314477
0.00562764
0.0116076
0.0138437
0.0114717
0.00718168
0.00290096
0.0052546
0.0107501
0.0147489
0.0142907
0.0107916
0.00629506
0.00245251
0.00490634
0.00991133
0.0150058
0.0162434
0.0134115
0.00938727
0.00548324
0.00194722
0.00475998
0.00974608
0.0146962
0.0170882
0.0162909
0.0122557
0.00834257
0.00500524
0.00166582
0.00432096
0.00921925
0.0140578
0.0172855
0.0177259
0.0152474
0.0108576
0.00718974
0.00446459
0.00150658
0.00430688
0.00878957
0.0132804
0.0171792
0.018967
0.0175639
0.0141902
0.00984219
0.00665831
0.00397058
0.00125656
0.00397182
0.00814554
0.0120996
0.0164303
0.0193436
0.0189835
0.0163935
0.0126343
0.00920022
0.00616217
0.00361128
0.0010191
0.00401841
0.00770522
0.0112238
0.0162787
0.0195435
0.0202511
0.0184761
0.0149868
0.0115267
0.00854415
0.00572204
0.0031645
0.000806859
0.00374355
0.00717887
0.0112135
0.0156436
0.0190946
0.0208337
0.0199842
0.0170613
0.0135811
0.0106723
0.00793406
0.00536552
0.00299176
0.000475229
0.00379624
0.00725544
0.0106476
0.0145382
0.0186066
0.0211763
0.0214695
0.0192632
0.0160309
0.0125174
0.00988961
0.00753585
0.00508089
0.00270696
0.000430281
0.00364897
0.00673552
0.00994769
0.014165
0.0181895
0.0210906
0.0219586
0.0210582
0.0182245
0.0149898
0.0118925
0.00939151
0.00703607
0.00478759
0.00246231
0.000207636
0.0036115
0.00647705
0.00983207
0.0134403
0.0173063
0.0207964
0.0224185
0.0219985
0.0197955
0.0169885
0.0138881
0.0111874
0.00867282
0.00669661
0.0045589
0.00236857
0.000129855
0.00351306
0.00641607
0.009305
0.0128005
0.0166029
0.020216
0.0225486
0.0229619
0.0217272
0.0187027
0.0158579
0.0130131
0.0105659
0.00843433
0.00637244
0.00420667
0.00217801
-6.74711e-05
0.00341001
0.00613289
0.00904991
0.0123983
0.0157042
0.0191474
0.022401
0.0236468
0.0228506
0.0207677
0.0177389
0.0148408
0.0122932
0.0100508
0.00806755
0.00611754
0.0039898
0.00200018
-0.000148882
0.00330126
0.00596026
0.00887306
0.0117535
0.0148812
0.0187062
0.0222724
0.0237539
0.0238844
0.022141
0.0195678
0.0166851
0.0138696
0.0114833
0.00958151
0.00760524
0.00586519
0.00386845
0.00180258
-0.000252178
0.00309231
0.00584061
0.00867167
0.0113332
0.0144942
0.0182734
0.0216651
0.023875
0.0244866
0.0235837
0.021224
0.0185067
0.0155656
0.0131275
0.0111614
0.00919272
0.00740265
0.00558801
0.00373315
0.00160238
-0.000380508
0.00302275
0.0058524
0.00845691
0.0108988
0.0141476
0.0176713
0.0210635
0.0237391
0.0247756
0.0245461
0.0225842
0.0201527
0.017415
0.0148056
0.0126691
0.0108438
0.00898251
0.00715956
0.00540027
0.00353283
0.00163976
-0.00048769
0.00297519
0.00567075
0.00810542
0.0107956
0.0136554
0.0167027
0.0201746
0.0234262
0.0250777
0.0250933
0.0241546
0.0215174
0.0192131
0.0165684
0.0142314
0.0122008
0.0102823
0.00875983
0.00700078
0.00536111
0.00348879
0.00154399
-0.000525868
0.00280342
0.00548832
0.00798393
0.0107206
0.0133626
0.0164227
0.0195437
0.0229508
0.02508
0.0257584
0.02492
0.0232137
0.02076
0.0181223
0.0157144
0.0136597
0.0117053
0.0100807
0.00840633
0.00682904
0.00518565
0.00340809
0.0015132
-0.000622538
0.00276833
0.00527362
0.00777113
0.0104873
0.0130706
0.0156964
0.0189942
0.0225928
0.0249354
0.0260835
0.0259266
0.0245387
0.0221798
0.019601
0.0169547
0.0150734
0.0132437
0.011294
0.00987921
0.0082888
0.00669739
0.00505638
0.00333138
0.00150599
-0.000584912
0.002664
0.00523553
0.00765434
0.010266
0.0127827
0.0154174
0.018681
0.0217869
0.0247837
0.0262412
0.0266491
0.0256161
0.0237272
0.0211276
0.0186627
0.0163507
0.0145726
0.0127162
0.0111196
0.00963144
0.008111
0.0066065
0.00503495
0.00327554
0.00151417
-0.000501271
0.00249567
0.00511935
0.00747806
0.0101088
0.0125262
0.0153222
0.0179463
0.0213766
0.024371
0.0262949
0.0270508
0.0265749
0.024822
0.0226811
0.0201445
0.017764
0.0158575
0.0141258
0.0124318
0.0107984
0.0094428
0.00800939
0.00651116
0.00501339
0.00335947
0.00145036
-0.00044589
0.00235714
0.0049847
0.0074401
0.00995826
0.0122737
0.0151252
0.0176244
0.0209871
0.0239435
0.0262083
0.0273293
0.0275016
0.0263211
0.023974
0.0216633
0.0193065
0.0171538
0.0153076
0.0135987
0.0120962
0.0106497
0.00926677
0.00794674
0.00651006
0.00500912
0.00343048
0.00162056
-0.000329694
0.00224043
0.00483065
0.00727592
0.00980236
0.0121221
0.0149153
0.0173305
0.020466
0.0234746
0.0261255
0.0275527
0.0279476
0.0273037
0.0256186
0.0230896
0.0206795
0.0184953
0.0165825
0.0147226
0.0132183
0.0117206
0.0104743
0.00919625
0.00797056
0.00660228
0.00510611
0.00353182
0.00175847
-0.000172576
0.00214832
0.0046953
0.00721653
0.00971685
0.0121517
0.0146876
0.0173908
0.0202897
0.0230407
0.0259563
0.027712
0.0285187
0.0281306
0.0267537
0.0244925
0.0221019
0.0198242
0.0178095
0.0159271
0.0142616
0.0128505
0.0115929
0.0103617
0.00918926
0.00797665
0.00667377
0.00530363
0.00370976
0.00192835
4.52485e-05
0.00197838
0.00453882
0.00705903
0.00954499
0.012053
0.01461
0.0173424
0.0199197
0.0228511
0.0257525
0.0277908
0.0288787
0.028898
0.0279015
0.0258909
0.0234938
0.0211565
0.0189709
0.0171116
0.0154082
0.0138606
0.0125929
0.0113892
0.0102886
0.00918201
0.00808325
0.00685091
0.00547313
0.00403412
0.00227212
0.000305981
0.00183087
0.00439189
0.00694734
0.00943849
0.0118697
0.0144709
0.0171232
0.0196532
0.0222686
0.0256027
0.027839
0.029229
0.0296384
0.0289495
0.0272146
0.0249732
0.0224932
0.0202377
0.0183111
0.0164718
0.0148426
0.0134714
0.0123259
0.0112055
0.0102162
0.00926464
0.00824183
0.00708958
0.00584414
0.00435532
0.00268645
0.000710005
0.00168742
0.00425238
0.00673145
0.00923083
0.011851
0.0144834
0.0170892
0.0195969
0.0222643
0.0253977
0.0278776
0.0295134
0.0302481
0.0299237
0.0285489
0.0263832
0.023948
0.0216122
0.019431
0.0175207
0.0158039
0.0143803
0.0131354
0.0121273
0.0111855
0.01027
0.00941094
0.00847064
0.00737584
0.00623032
0.00477016
0.00314108
0.00106966
0.00150796
0.00413132
0.00663528
0.00921979
0.0117486
0.0143578
0.0170014
0.0195183
0.022141
0.0252218
0.027787
0.0297653
0.0308047
0.0308573
0.0298271
0.0278677
0.025472
0.0229938
0.0206397
0.0185331
0.0167478
0.0151758
0.0138883
0.0128479
0.0119518
0.0111843
0.0104011
0.00962376
0.00874313
0.00776409
0.00669903
0.00533309
0.00363405
0.000219039
0.00174565
0.00137502
0.00393685
0.00646612
0.00904949
0.0116205
0.0143353
0.016868
0.0195149
0.0221615
0.0250256
0.0277328
0.0300001
0.0313197
0.0317033
0.0310223
0.0293069
0.0270013
0.0244199
0.0219198
0.0196778
0.0176763
0.0159786
0.0145848
0.0134922
0.01263
0.0119358
0.0112881
0.0106704
0.00996796
0.00917932
0.00832954
0.00720038
0.00559682
0.00311732
0.00444238
0.000466454
0.00194962
0.00118997
0.00362025
0.00618887
0.0088417
0.0114984
0.0142246
0.0168803
0.0194876
0.0221461
0.0248725
0.0277251
0.0301753
0.0318138
0.0325161
0.0322044
0.0307993
0.0285432
0.0259492
0.0233268
0.0208632
0.018653
0.0167486
0.0152206
0.0140541
0.0131902
0.01254
0.0120112
0.0115343
0.0110056
0.0103982
0.00970841
0.0088362
0.00728215
0.00804876
0.00560212
0.00694986
0.00678318
0.00345456
0.0047507
0.000708948
0.002302
0.000964955
0.0034464
0.00596276
0.00858508
0.0112891
0.0140337
0.0167791
0.0194252
0.022114
0.0248742
0.027688
0.0302926
0.0322471
0.0332912
0.0333302
0.0322676
0.0302403
0.0276231
0.0248536
0.0221792
0.019716
0.0175539
0.0158183
0.0145125
0.01359
0.012984
0.0125627
0.0122271
0.0118683
0.0114351
0.0109
0.0102103
0.00877039
0.00957086
0.0080174
0.00602308
0.0078214
0.00722212
0.00378827
0.0052087
0.00101212
0.00265517
0.000783187
0.00323055
0.00566343
0.00834047
0.0110332
0.0138131
0.0165862
0.0193502
0.0220248
0.0247912
0.0277013
0.030402
0.032677
0.0340025
0.0343872
0.0337188
0.0319619
0.0294412
0.0265426
0.0236558
0.0209043
0.0184285
0.0163986
0.0148814
0.0138489
0.0132443
0.0129249
0.0127426
0.012558
0.0122947
0.0119077
0.0113469
0.0102275
0.010869
0.00897003
0.00981094
0.00879333
0.00654305
0.00833216
0.00779005
0.00424112
0.00573391
0.00127482
0.00308199
0.000578028
0.00293252
0.00538077
0.00804088
0.0106852
0.0135543
0.0163795
0.0191788
0.0219599
0.0247205
0.0276236
0.0305225
0.0329897
0.0346627
0.0354233
0.0351256
0.0337212
0.0313583
0.0284346
0.0253265
0.0222759
0.0194269
0.0170103
0.0151743
0.0139513
0.013294
0.0130581
0.0130455
0.0130663
0.0129927
0.01276
0.0123066
0.0114046
0.0119233
0.010549
0.0111975
0.00969028
0.0104961
0.00934989
0.00713749
0.00894275
0.00844555
0.00476304
0.00634005
0.00160489
0.00351671
0.000365385
0.00264607
0.00498093
0.00764174
0.0103385
0.0132162
0.0160619
0.0189808
0.0218216
0.024594
0.0276318
0.0304924
0.0331631
0.0352598
0.0363938
0.0364892
0.0354643
0.0333628
0.0304965
0.0272531
0.0238852
0.0206313
0.0177298
0.015435
0.0138967
0.0131005
0.0129072
0.013082
0.0133608
0.013528
0.0134831
0.0131115
0.0123558
0.0127471
0.011758
0.0122423
0.011197
0.0118021
0.0102696
0.0110844
0.00999035
0.00782054
0.00964767
0.00919686
0.00530884
0.00699413
0.00195021
0.003987
0.000203076
0.00236023
0.0046404
0.00723845
0.00997972
0.0127812
0.0156996
0.0186518
0.0215952
0.0245112
0.0274784
0.0305218
0.0333944
0.0357085
0.0372549
0.0377926
0.0371766
0.035399
0.032701
0.0294091
0.0257996
0.0221118
0.0186592
0.0157635
0.0137295
0.01264
0.0124054
0.0127677
0.0133646
0.0138693
0.0140799
0.0138521
0.0131783
0.0134519
0.0126763
0.0130055
0.0123175
0.0127523
0.0117781
0.0123646
0.0109234
0.0117431
0.0107316
0.00857447
0.0104563
0.0100383
0.00590203
0.00771298
0.00230837
0.00448648
2.07137e-05
0.00200768
0.00425937
0.00674056
0.00951477
0.0123268
0.0153105
0.0183083
0.0213481
0.0243299
0.027316
0.0304743
0.0334284
0.0360493
0.0379956
0.0390103
0.03885
0.0374512
0.0349793
0.0317426
0.0280176
0.0239556
0.0199211
0.0162906
0.0135223
0.0119224
0.011488
0.011978
0.0129522
0.0139295
0.0145163
0.0145517
0.0138433
0.014157
0.0134319
0.0136756
0.0131497
0.0134386
0.0128608
0.0132871
0.0124355
0.0130294
0.0116872
0.0125282
0.0115879
0.00941389
0.0113755
0.0109904
0.00654628
0.00850598
0.00267535
0.00501452
-0.000109246
0.00171936
0.00384551
0.00619456
0.00889639
0.0117633
0.014721
0.0178355
0.0209295
0.0240063
0.0271072
0.0302397
0.033469
0.0362942
0.0386069
0.0400757
0.0404516
0.0395075
0.0373332
0.034258
0.0305295
0.0262873
0.0216969
0.0172556
0.0135198
0.0111024
0.0101945
0.0106248
0.0119695
0.0135543
0.0147416
0.0151695
0.0145015
0.0148799
0.0140754
0.0144135
0.0138569
0.0142201
0.0137342
0.0141919
0.0135903
0.0142491
0.0132787
0.0140848
0.0125968
0.0135713
0.0126006
0.0103575
0.0124615
0.0121057
0.00724529
0.00938286
0.0030428
0.0055622
-0.000205561
0.00142634
0.00337245
0.00564052
0.00826232
0.0109965
0.0140374
0.0172278
0.0203941
0.0235802
0.026763
0.0299967
0.0333986
0.0364725
0.0390674
0.0409328
0.0418693
0.041547
0.0398182
0.0369818
0.0334838
0.0292372
0.0243779
0.0192627
0.0144963
0.0109072
0.00902549
0.00889405
0.0103169
0.012563
0.0145857
0.0156376
0.0152081
0.0158319
0.0148217
0.0153032
0.0147528
0.0154892
0.0149961
0.0163004
0.0153127
0.0172176
0.0153033
0.0176472
0.0147964
0.0170521
0.0138431
0.0156519
0.0140139
0.0114392
0.0139641
0.0135879
0.00799458
0.0103571
0.00340025
0.00611558
-0.000246668
0.00117757
0.00293047
0.00505062
0.00753828
0.0101668
0.0132702
0.0164649
0.0197434
0.0230506
0.026347
0.0296325
0.0331263
0.036423
0.0392643
0.0416051
0.0430614
0.0433693
0.0422956
0.0399634
0.0368159
0.033037
0.0288085
0.0243966
0.0197528
0.0148839
0.010753
0.00844873
0.00863523
0.010954
0.0138643
0.0159038
0.0163463
0.0164277
0.0158508
0.0163931
0.0163713
0.0175707
0.0181375
0.0208966
0.0206257
0.0262869
0.0223619
0.0313287
0.0220028
0.0324984
0.0195665
0.0288842
0.0164928
0.022508
0.0170535
0.0127854
0.017064
0.0163703
0.00878591
0.0114853
0.00373933
0.00665697
-0.000218789
0.000958186
0.00250337
0.00444863
0.0068059
0.00931065
0.0123526
0.0156046
0.0189363
0.0223344
0.0257389
0.0291922
0.0327102
0.0362584
0.0394162
0.0420503
0.0439882
0.0449112
0.044534
0.0428113
0.0403447
0.0377359
0.0361385
0.0363439
0.0372203
0.0343782
0.0256809
0.0169413
0.0112471
0.0103839
0.0129442
0.0158615
0.0182666
0.0172392
0.0182969
0.0188879
0.0206409
0.0242846
0.0286107
0.0337903
0.0435926
0.0449117
0.063172
0.0522572
0.0801251
0.0493048
0.0862648
0.0380745
0.0726136
0.02524
0.0479421
0.0267809
0.0149773
0.0264195
0.0239436
0.00961816
0.0130157
0.00407028
0.00720582
-0.000126801
0.000792286
0.00209836
0.00383294
0.00601131
0.00840804
0.0112838
0.0146035
0.0179786
0.0214544
0.0249816
0.0285604
0.0321636
0.0358882
0.0393024
0.0423263
0.0446294
0.0460965
0.0463543
0.0453177
0.0436759
0.0428158
0.0454776
0.0541182
0.0650731
0.0717381
0.0675206
0.0510782
0.0300879
0.0177175
0.0144304
0.0162828
0.0195917
0.0267509
0.0302664
0.0223809
0.0247081
0.0333913
0.0394208
0.0549002
0.0675931
0.0840327
0.106703
0.113385
0.148559
0.132801
0.182155
0.13134
0.197302
0.0996709
0.18143
0.0560099
0.124538
0.0593033
0.0200092
0.0561774
0.0465311
0.0105857
0.0158013
0.00438822
0.00778563
9.74735e-07
0.000682881
0.00172921
0.00321506
0.00515853
0.00742648
0.0101829
0.0135059
0.0168798
0.0204251
0.0240708
0.0277852
0.0314812
0.0353373
0.0389705
0.0423205
0.0450258
0.0468994
0.0477311
0.0474096
0.0466059
0.0476448
0.0551598
0.0716699
0.0927671
0.108324
0.114243
0.105598
0.0809339
0.0457742
0.0255208
0.0202091
0.023142
0.0340015
0.039995
0.0609895
0.0717732
0.0456293
0.0534918
0.0806201
0.0950115
0.129411
0.151163
0.181944
0.212985
0.229475
0.271752
0.26124
0.31782
0.265482
0.341435
0.229454
0.329898
0.141498
0.268257
0.145223
0.0338063
0.132828
0.105854
0.0120042
0.0225216
0.00466916
0.00842733
9.17135e-05
0.000589984
0.00139996
0.00259544
0.00425319
0.00636403
0.00897945
0.0122384
0.0156249
0.019203
0.0229338
0.0267619
0.0305701
0.0345949
0.0384619
0.0420375
0.0451614
0.0474649
0.048735
0.0490207
0.0490206
0.0517914
0.0635946
0.0874919
0.11523
0.139647
0.155256
0.159427
0.145068
0.108524
0.0595628
0.0338839
0.0346391
0.0531916
0.052593
0.0819528
0.0968908
0.137983
0.153365
0.109277
0.123852
0.171218
0.190658
0.240433
0.263914
0.307192
0.337066
0.365654
0.404455
0.405827
0.457735
0.41668
0.487784
0.384797
0.482604
0.293465
0.426448
0.298653
0.0699827
0.27492
0.21867
0.0145918
0.0392014
0.00492786
0.00916777
6.69155e-05
0.000423899
0.00106602
0.00199437
0.00336229
0.00525695
0.00772137
0.010863
0.0142058
0.017799
0.0216129
0.0255692
0.0295414
0.0337104
0.037661
0.0415055
0.0449921
0.0477647
0.0495438
0.0502348
0.0508831
0.0548445
0.0699407
0.0988788
0.133607
0.161813
0.183389
0.198674
0.201891
0.180183
0.128798
0.0712339
0.0574786
0.118168
0.108017
0.136821
0.167962
0.183241
0.239476
0.254613
0.208448
0.22465
0.284021
0.302199
0.361664
0.381296
0.434512
0.457902
0.498047
0.52769
0.542746
0.58395
0.559179
0.618626
0.535387
0.620462
0.450793
0.572476
0.453032
0.144729
0.427887
0.368034
0.0199948
0.0780063
0.00510187
0.0100264
0.000125503
0.000665406
0.00141132
0.00255287
0.00419125
0.00647023
0.0093945
0.0126351
0.0162057
0.0200575
0.0240973
0.0282217
0.0324949
0.0366285
0.0407635
0.0445048
0.0476897
0.0500239
0.0511763
0.0521473
0.0567047
0.0736359
0.106444
0.14371
0.172465
0.194116
0.213656
0.230655
0.233919
0.203624
0.141499
0.100849
0.146711
0.228527
0.246165
0.197612
0.214486
0.268647
0.282642
0.344679
0.356748
0.318213
0.33207
0.397369
0.410887
0.475517
0.488058
0.5482
0.562092
0.612173
0.629365
0.657345
0.677261
0.679074
0.70553
0.666211
0.721512
0.593174
0.695473
0.592719
0.267488
0.566006
0.50636
0.0317005
0.146724
0.00539512
0.0120984
0.000137549
0.000813878
0.00174994
0.00325131
0.0052455
0.00784196
0.0109191
0.0144237
0.0182837
0.0224024
0.0266974
0.0310993
0.0353813
0.0397021
0.0437108
0.0472645
0.0500776
0.0518379
0.0530462
0.057709
0.0748815
0.109441
0.145761
0.168724
0.18829
0.20984
0.23293
0.253075
0.256784
0.219888
0.169338
0.192049
0.261374
0.273388
0.323108
0.334185
0.296135
0.309542
0.367678
0.378531
0.439214
0.44505
0.422183
0.431052
0.49752
0.504126
0.570751
0.574976
0.638604
0.64265
0.685247
0.687066
0.713048
0.712085
0.7356
0.732731
0.751752
0.757936
0.711973
0.775075
0.708705
0.40416
0.684686
0.644337
0.540561
0.0566601
0.250365
0.00516291
0.0143092
0.000120638
0.000925549
0.00210821
0.0038954
0.00618293
0.00906526
0.0124597
0.0162861
0.0204486
0.0248318
0.0293284
0.0338301
0.0383222
0.0426181
0.0464872
0.0497156
0.052034
0.0535971
0.0580724
0.0748049
0.108622
0.142181
0.159819
0.17359
0.190605
0.217405
0.25007
0.273907
0.277948
0.24761
0.25224
0.321522
0.339541
0.347195
0.393341
0.386695
0.387776
0.394328
0.451058
0.453122
0.512475
0.510629
0.508821
0.510671
0.576892
0.576046
0.642968
0.639485
0.685789
0.682374
0.707869
0.703511
0.725344
0.717222
0.746537
0.727478
0.779172
0.755642
0.79135
0.793285
0.797178
0.74749
0.793483
0.603677
0.430124
0.559775
0.717275
0.782495
0.787259
0.696126
0.0901576
0.492878
0.415566
0.260723
0.00444461
0.0125199
9.18847e-05
0.00101606
0.00249546
0.00447096
0.00710509
0.0103361
0.0140832
0.0182474
0.0227044
0.0273465
0.0320656
0.0366698
0.0411914
0.0453277
0.0489419
0.0517574
0.0537198
0.0577261
0.0735342
0.106056
0.136429
0.150187
0.157394
0.158239
0.167369
0.213501
0.267219
0.295748
0.304274
0.307836
0.329182
0.35787
0.349577
0.377931
0.367757
0.419662
0.402789
0.446809
0.436123
0.502865
0.488789
0.559815
0.544542
0.574352
0.56867
0.634219
0.626085
0.676995
0.668273
0.699095
0.693928
0.710454
0.706968
0.708807
0.702533
0.716057
0.701525
0.692701
0.779172
0.752552
0.701363
0.726692
0.802207
0.812347
0.812152
0.786446
0.818074
0.66165
0.614339
0.766092
0.813976
0.81868
0.744422
0.312129
0.0756143
0.199552
0.551965
0.47129
0.00358313
0.0876014
0.0253764
0.00809885
3.73543e-05
0.00108887
0.00283631
0.0051287
0.00810932
0.0117105
0.0158248
0.0203177
0.0250528
0.0299126
0.0346943
0.0393821
0.0438092
0.0477486
0.0510138
0.0534016
0.0568838
0.0707411
0.101855
0.129385
0.140795
0.142019
0.128734
0.114657
0.139475
0.216049
0.287614
0.319104
0.33275
0.339065
0.34123
0.354489
0.337451
0.385585
0.368828
0.421701
0.394651
0.468308
0.446148
0.521848
0.496732
0.577856
0.552203
0.615454
0.599867
0.65842
0.645847
0.686733
0.676299
0.704362
0.700127
0.70591
0.711998
0.691648
0.696773
0.702348
0.711865
0.687308
0.683034
0.688999
0.688506
0.758033
0.725978
0.681316
0.698151
0.795706
0.82208
0.806925
0.764814
0.829829
0.712219
0.667655
0.803715
0.834951
0.836089
0.785652
0.368627
0.241877
0.607492
0.527747
0.00809623
0.00032737
0.00280622
0.109362
0.0332734
-8.54275e-05
0.00125573
0.00327101
0.00588564
0.00923145
0.0132169
0.01769
0.0224866
0.0274635
0.032443
0.0372642
0.0419531
0.0461722
0.0498111
0.0526485
0.0557409
0.0671594
0.0957948
0.121949
0.131835
0.128541
0.10542
0.0816403
0.0892514
0.134043
0.225841
0.303625
0.332399
0.341942
0.333776
0.2994
0.297844
0.323131
0.30844
0.367622
0.343131
0.395358
0.35777
0.467313
0.432871
0.521929
0.485007
0.578082
0.544124
0.627732
0.605359
0.664091
0.647996
0.693404
0.681974
0.717721
0.719802
0.721568
0.734037
0.743865
0.754965
0.694861
0.706496
0.721694
0.738437
0.678777
0.686649
0.686644
0.697887
0.728736
0.696488
0.676054
0.67838
0.774723
0.818718
0.787363
0.734508
0.830238
0.757719
0.717195
0.831355
0.839524
0.845714
0.819263
0.423496
0.29118
0.660696
0.583637
0.00889548
-0.00306914
0.000847696
0.143432
0.0484396
-2.84555e-05
0.00156659
0.00378981
0.00675142
0.0104885
0.0148594
0.0196651
0.0247236
0.0298434
0.0348345
0.0396928
0.0441957
0.0481691
0.0514376
0.0543745
0.0632978
0.088781
0.114382
0.12344
0.117161
0.0890342
0.064413
0.0632495
0.0826648
0.135604
0.230898
0.308708
0.3328
0.322479
0.259073
0.248813
0.234988
0.272738
0.258192
0.323341
0.294506
0.348704
0.30362
0.442415
0.396093
0.503134
0.455866
0.565264
0.52576
0.626163
0.598845
0.667216
0.647319
0.718943
0.708826
0.7628
0.770859
0.775216
0.778464
0.755359
0.772503
0.78864
0.803396
0.716217
0.737359
0.760312
0.78404
0.688031
0.70448
0.712325
0.728987
0.697189
0.677037
0.690649
0.674897
0.744043
0.801934
0.757342
0.701145
0.81771
0.79726
0.762445
0.847642
0.832927
0.84573
0.842926
0.480381
0.346962
0.711374
0.639543
0.0112107
-0.0125404
-0.00519451
0.19158
0.0723938
0.000188052
0.00189949
0.00438286
0.00773787
0.0118863
0.0166236
0.0217108
0.0269355
0.0320945
0.0371003
0.0418549
0.0461032
0.0497577
0.0527878
0.0594624
0.0811553
0.106823
0.115704
0.107912
0.0778289
0.0557681
0.0513826
0.0578126
0.0814349
0.136358
0.219816
0.284306
0.288155
0.226848
0.163616
0.148651
0.184452
0.174394
0.20949
0.194389
0.26407
0.232364
0.29654
0.246802
0.40401
0.349957
0.480826
0.431231
0.558753
0.518601
0.62295
0.593568
0.692674
0.672429
0.799752
0.789264
0.815844
0.825645
0.832019
0.832303
0.80766
0.830264
0.850934
0.86865
0.756765
0.786304
0.816765
0.846803
0.72007
0.743137
0.757161
0.777697
0.677477
0.674485
0.726373
0.69236
0.709315
0.774119
0.721813
0.680078
0.793893
0.829357
0.80266
0.853866
0.814513
0.834227
0.856151
0.540998
0.411099
0.759322
0.695816
0.0129652
-0.0329645
-0.0186824
0.255927
0.105186
0.000339594
0.00223841
0.00506243
0.00885939
0.0134163
0.0184621
0.0237471
0.0290291
0.0341888
0.0391492
0.0436357
0.0476119
0.0508947
0.0558832
0.0733232
0.0990904
0.108514
0.100725
0.0705505
0.051302
0.0460701
0.04732
0.0561842
0.080348
0.125183
0.173658
0.189389
0.141714
0.0758982
0.0825522
0.0649612
0.109028
0.0963471
0.140697
0.122418
0.202707
0.166939
0.270884
0.220146
0.378432
0.324335
0.473568
0.424475
0.580559
0.540444
0.646623
0.616005
0.769021
0.746598
0.890147
0.880167
0.846402
0.86494
0.882464
0.891833
0.896259
0.895794
0.875338
0.901047
0.922638
0.938887
0.81419
0.851028
0.88687
0.920132
0.769476
0.798428
0.817568
0.841643
0.674826
0.693066
0.778824
0.73029
0.685506
0.739174
0.693822
0.676761
0.761484
0.851618
0.835726
0.850881
0.786095
0.812436
0.861623
0.607724
0.490281
0.803664
0.753169
0.018885
-0.063668
-0.0342303
0.344482
0.171741
0.000453789
0.00260052
0.00585259
0.0101153
0.0150288
0.0203104
0.0256798
0.0309639
0.0360978
0.0407939
0.0450315
0.048653
0.0526211
0.0658122
0.0908404
0.101605
0.0950595
0.0664796
0.0488404
0.0437517
0.042965
0.0457631
0.0548138
0.0731637
0.0943999
0.0989989
0.0785071
0.049116
0.0346013
0.0324057
0.0438956
0.0368187
0.0636539
0.0524123
0.102369
0.0793718
0.173942
0.134085
0.265901
0.214663
0.372542
0.319189
0.496056
0.447738
0.650435
0.608597
0.719373
0.687146
0.830525
0.810422
0.786617
0.916376
0.893809
0.847654
0.870827
0.948734
0.952368
0.948523
0.935591
0.949311
0.972788
0.989199
0.997882
0.884505
0.925098
0.96173
0.992499
0.833323
0.866948
0.888842
0.915128
0.691972
0.730949
0.844705
0.784123
0.679497
0.706857
0.685021
0.690079
0.72682
0.864819
0.859996
0.837527
0.752627
0.783614
0.857888
0.679583
0.582684
0.842396
0.807407
0.0603853
-0.0433948
0.0249446
0.46207
0.313647
0.000533674
0.00302463
0.00676345
0.0114666
0.0166655
0.0220789
0.0274495
0.0327133
0.0375913
0.0420632
0.0459899
0.049577
0.0589311
0.0818344
0.0947895
0.0900452
0.0642732
0.0472573
0.0420798
0.0408094
0.0412709
0.0444586
0.0510373
0.0579812
0.0590638
0.0512084
0.0391406
0.0303209
0.0291435
0.028606
0.0341118
0.030616
0.0505235
0.0402623
0.0918825
0.0669529
0.167569
0.126179
0.282841
0.225988
0.395655
0.340271
0.561584
0.509857
0.713269
0.682619
0.762293
0.736623
0.826748
0.807169
0.75824
0.747049
0.913397
0.882342
0.818899
0.849009
0.997236
0.985739
0.96709
0.941221
1.0159
1.03078
1.03588
1.02922
0.959641
0.99824
1.02916
1.05092
0.906028
0.941689
0.963537
0.989274
0.727278
0.784317
0.917974
0.850826
0.68744
0.69262
0.688279
0.720312
0.704789
0.871849
0.87565
0.815114
0.723603
0.752228
0.846052
0.752285
0.681245
0.871206
0.852631
0.218213
0.149008
0.331151
0.60678
0.550733
0.000611566
0.00353288
0.00778019
0.0128566
0.0182567
0.0237126
0.0290328
0.034073
0.0387424
0.0429219
0.0465361
0.0528898
0.072121
0.0877915
0.0855093
0.0622418
0.0456593
0.0403682
0.0388917
0.0387646
0.0398225
0.0423762
0.0449588
0.0455926
0.0425242
0.0368393
0.0313723
0.0277281
0.027897
0.0278506
0.0274334
0.0322172
0.0291894
0.04824
0.0379757
0.091584
0.0654226
0.173063
0.127517
0.320232
0.252782
0.45197
0.388009
0.642853
0.590673
0.714338
0.698173
0.741466
0.737162
0.719994
0.792573
0.772427
0.696284
0.691891
0.884696
0.839087
0.757083
0.795148
1.01396
0.990822
0.962723
0.9277
1.06301
1.06319
1.05323
1.03678
1.02904
1.05915
1.0789
1.08763
0.980166
1.01375
1.03318
1.05418
0.778933
0.850529
0.991515
0.924085
0.711607
0.691629
0.704039
0.767701
0.698919
0.870636
0.885568
0.788114
0.710148
0.729399
0.826727
0.818543
0.776137
0.889945
0.885129
0.55105
0.206318
0.630421
0.74644
0.748919
0.000693957
0.00412387
0.00886837
0.0142299
0.0197246
0.0250847
0.0302535
0.035109
0.0394788
0.0432599
0.0478742
0.0623213
0.0803333
0.0811129
0.0607419
0.044301
0.0386979
0.0368202
0.0367178
0.0370682
0.0382987
0.0397607
0.0404108
0.0392474
0.0361421
0.0319577
0.0278305
0.0264928
0.0265802
0.0269657
0.0264834
0.031201
0.0282954
0.0473272
0.036878
0.0939312
0.065341
0.189785
0.135467
0.365239
0.281811
0.52533
0.448408
0.673934
0.636588
0.662671
0.669174
0.65644
0.691899
0.694708
0.654259
0.644614
0.727501
0.707422
0.622394
0.622235
0.836339
0.779566
0.681097
0.725983
1.01138
0.980679
0.939341
0.890592
1.08399
1.0729
1.05444
1.03059
1.08331
1.10069
1.10618
1.10025
1.04794
1.0744
1.09022
1.10257
0.843167
0.923096
1.05804
0.997049
0.752577
0.699654
0.735612
0.828195
0.701412
0.862062
0.888602
0.762135
0.708999
0.721047
0.805747
0.869601
0.849497
0.901853
0.90638
0.778101
0.0541084
0.623416
0.840635
0.857509
0.000769965
0.00475728
0.00995295
0.0154929
0.020946
0.0261864
0.0311857
0.0357349
0.0397309
0.043599
0.0534113
0.0718929
0.0764646
0.0602078
0.0437793
0.0373253
0.0349406
0.0343295
0.0348044
0.0354131
0.0364397
0.0371802
0.036844
0.0349805
0.0318259
0.0282319
0.0253662
0.0254968
0.0253408
0.0252922
0.0262314
0.0255728
0.0307459
0.0277377
0.0471398
0.0364873
0.0967548
0.0658872
0.205751
0.143205
0.425951
0.332377
0.583846
0.512804
0.654176
0.632885
0.609759
0.624883
0.57107
0.58443
0.627316
0.635388
0.595087
0.580344
0.648017
0.629206
0.546538
0.547817
0.788185
0.721003
0.606239
0.658029
0.999146
0.957582
0.908653
0.851838
1.08826
1.06948
1.04557
1.01359
1.11821
1.1204
1.1132
1.10074
1.10253
1.11797
1.13
1.13175
0.91401
0.995664
1.11138
1.06314
0.807098
0.721572
0.782348
0.896153
0.711943
0.84912
0.884083
0.745224
0.712357
0.722304
0.786797
0.904293
0.900809
0.908297
0.920411
0.855098
0.0149359
0.641668
0.903471
0.91978
0.000848641
0.00540474
0.0109809
0.016582
0.0219272
0.0270102
0.031715
0.0359292
0.0396211
0.0460638
0.062215
0.0711712
0.0596721
0.0435071
0.0366294
0.0331525
0.0319747
0.0320885
0.032886
0.0337306
0.0344007
0.0345254
0.0336103
0.0313125
0.0281679
0.0248282
0.0237692
0.0238231
0.0238954
0.0237247
0.0252742
0.0243269
0.0309695
0.027205
0.0514227
0.0381191
0.113122
0.0748526
0.244015
0.169682
0.46889
0.39096
0.594159
0.538579
0.591884
0.595014
0.566476
0.538015
0.554876
0.494421
0.512978
0.5553
0.566852
0.520462
0.504241
0.569396
0.551461
0.472934
0.473455
0.743291
0.670688
0.541464
0.600854
0.974639
0.928272
0.874322
0.812129
1.08153
1.05808
1.02677
0.989891
1.13157
1.12334
1.11047
1.09117
1.14018
1.14262
1.15061
1.14024
0.985904
1.06199
1.14733
1.11606
0.870924
0.75729
0.837329
0.96711
0.735481
0.834056
0.876485
0.741067
0.723491
0.727347
0.775316
0.927806
0.935588
0.90907
0.930045
0.896676
0.209496
0.771962
0.948062
0.95812
0.000998681
0.00606799
0.011891
0.0174397
0.0226324
0.0274626
0.0318463
0.0356198
0.0401561
0.0522086
0.0649309
0.0585638
0.0430013
0.0359856
0.0318173
0.0295525
0.0292538
0.0299159
0.0309452
0.0318086
0.0321593
0.0318314
0.0303692
0.0277327
0.0246828
0.021201
0.0218838
0.0219612
0.0221914
0.02194
0.024126
0.0227766
0.0328362
0.027
0.0660139
0.0444283
0.156205
0.10225
0.307945
0.226823
0.465229
0.40427
0.547587
0.513687
0.528354
0.541385
0.46325
0.459689
0.456227
0.47516
0.402399
0.420506
0.479263
0.490458
0.438533
0.423589
0.499408
0.479113
0.406065
0.404286
0.693492
0.616226
0.483362
0.543781
0.946109
0.894769
0.835668
0.767775
1.06671
1.03624
1.00042
0.959079
1.13091
1.117
1.09587
1.0694
1.15524
1.14695
1.14999
1.13642
1.05257
1.11464
1.15613
1.14926
0.934966
0.800614
0.891812
1.02833
0.765309
0.82066
0.866005
0.744207
0.741752
0.739733
0.774218
0.944656
0.960046
0.904541
0.936008
0.946074
0.370385
0.893869
0.975823
0.987755
0.0012194
0.00669597
0.0126206
0.0180252
0.023009
0.0275144
0.0314505
0.0351808
0.043233
0.0570551
0.056114
0.0422894
0.0347982
0.0308989
0.0273945
0.026166
0.0267093
0.0278221
0.0288676
0.0295669
0.0296927
0.0289391
0.0270211
0.0242655
0.0211349
0.0183343
0.0201242
0.0184894
0.0200703
0.0204198
0.0201257
0.0225717
0.0210671
0.0334987
0.0259656
0.078766
0.0492102
0.189894
0.126329
0.33497
0.261773
0.391281
0.357114
0.429789
0.416844
0.437694
0.451774
0.390144
0.372923
0.369733
0.38521
0.31127
0.324803
0.406424
0.412956
0.356598
0.346436
0.440567
0.41596
0.343812
0.338794
0.641501
0.558992
0.422045
0.483217
0.911465
0.856511
0.793546
0.720766
1.03987
1.00515
0.966138
0.922211
1.12161
1.09692
1.07086
1.04019
1.15043
1.13847
1.13857
1.12262
1.10017
1.14067
1.14559
1.15036
0.988552
0.842146
0.936518
1.07163
0.796584
0.813324
0.85566
0.755817
0.768838
0.764821
0.785156
0.959181
0.978768
0.898129
0.940497
0.994305
0.139761
0.848333
0.997698
1.01501
0.00148604
0.00726275
0.0131076
0.0183278
0.0230005
0.0271527
0.0306777
0.0359886
0.0478671
0.0516951
0.041597
0.0329854
0.0293034
0.026067
0.0230267
0.0230179
0.0244351
0.0257347
0.026671
0.0271596
0.0270144
0.0259056
0.0237212
0.0207522
0.0177363
0.0183307
0.0165932
0.0166795
0.0181913
0.0184559
0.0182255
0.0205062
0.0190486
0.0314764
0.0238758
0.0780194
0.0475581
0.188837
0.126532
0.310669
0.253534
0.274635
0.250009
0.304068