/*--------------------------------*- C++ -*----------------------------------*\
  =========                 |
  \\      /  F ield         | OpenFOAM: The Open Source CFD Toolbox
   \\    /   O peration     | Website:  https://openfoam.org
    \\  /    A nd           | Version:  dev
     \\/     M anipulation  |
\*---------------------------------------------------------------------------*/
FoamFile
{
    version     2.0;
    format      ascii;
    class       surfaceScalarField;
    location    "2500";
    object      phi;
}
// * * * * * * * * * * * * * * * * * * * * * * * * * * * * * * * * * * * * * //

dimensions      [1 0 -1 0 0 0 0];

internalField   nonuniform List<scalar> 
19533
(
1.55063e-07
1.00014e-07
1.36748e-07
2.45259e-07
4.29682e-07
8.87257e-08
1.14315e-07
3.28791e-07
4.28655e-07
2.46284e-07
6.1045e-07
7.20234e-08
9.51028e-08
3.82007e-07
4.02822e-07
3.54614e-07
6.35636e-07
2.21115e-07
7.47261e-07
5.84086e-08
7.94551e-08
4.14526e-07
3.5786e-07
4.26996e-07
6.43649e-07
3.46549e-07
7.81145e-07
1.87247e-07
8.63461e-07
4.9349e-08
6.62225e-08
4.34562e-07
3.03736e-07
4.68776e-07
6.26867e-07
4.43861e-07
8.15921e-07
3.11792e-07
8.92664e-07
1.57968e-07
9.67669e-07
4.27901e-08
5.55081e-08
4.49175e-07
2.50244e-07
4.88163e-07
5.86852e-07
5.08832e-07
8.35994e-07
4.23862e-07
9.35096e-07
2.69494e-07
9.89289e-07
1.36364e-07
1.05959e-06
3.78423e-08
4.76783e-08
4.58222e-07
2.07945e-07
4.91581e-07
5.31527e-07
5.43499e-07
8.31578e-07
5.13262e-07
9.78946e-07
3.80058e-07
1.02677e-06
2.3207e-07
1.07695e-06
1.19033e-07
1.14328e-06
3.36289e-08
4.19723e-08
4.62294e-07
1.7864e-07
4.87593e-07
4.67972e-07
5.55177e-07
8.01116e-07
5.74002e-07
1.01053e-06
4.81697e-07
1.07509e-06
3.31697e-07
1.10598e-06
2.03063e-07
1.15607e-06
1.06283e-07
1.21895e-06
3.01637e-08
3.78689e-08
4.63307e-07
1.58243e-07
4.82782e-07
4.03953e-07
5.51702e-07
7.4893e-07
6.07449e-07
1.01965e-06
5.64935e-07
1.12678e-06
4.29974e-07
1.14823e-06
2.89481e-07
1.17902e-06
1.80143e-07
1.23005e-06
9.51801e-08
1.28856e-06
2.71014e-08
3.46126e-08
4.6236e-07
1.43012e-07
4.78605e-07
3.46801e-07
5.40039e-07
6.81918e-07
6.18789e-07
1.0019e-06
6.25181e-07
1.16856e-06
5.23279e-07
1.20149e-06
3.76742e-07
1.21247e-06
2.56076e-07
1.24909e-06
1.61178e-07
1.29789e-06
8.58806e-08
1.35223e-06
2.45047e-08
3.207e-08
4.59388e-07
1.29145e-07
4.7633e-07
3.00433e-07
5.25053e-07
6.09728e-07
6.12307e-07
9.59508e-07
6.61234e-07
1.18955e-06
6.04188e-07
1.25851e-06
4.66338e-07
1.25738e-06
3.31739e-07
1.27611e-06
2.29073e-07
1.31378e-06
1.45309e-07
1.36011e-06
7.80296e-08
1.41088e-06
2.23611e-08
3.01875e-08
4.5447e-07
1.17713e-07
4.7093e-07
2.68356e-07
5.0853e-07
5.40465e-07
5.94465e-07
8.98962e-07
6.72936e-07
1.18494e-06
6.65931e-07
1.3091e-06
5.5363e-07
1.31255e-06
4.11376e-07
1.31195e-06
2.95936e-07
1.33648e-06
2.06428e-07
1.37355e-06
1.31907e-07
1.41793e-06
7.09861e-08
1.46575e-06
2.02635e-08
2.90098e-08
4.47673e-07
1.10145e-07
4.6215e-07
2.44114e-07
4.95275e-07
4.78472e-07
5.7066e-07
8.27252e-07
6.66263e-07
1.1553e-06
7.0264e-07
1.34207e-06
6.32922e-07
1.37301e-06
4.93247e-07
1.35856e-06
3.64863e-07
1.36655e-06
2.65916e-07
1.39325e-06
1.86771e-07
1.42994e-06
1.19942e-07
1.4718e-06
6.49631e-08
1.51611e-06
1.85982e-08
2.85969e-08
4.40114e-07
1.03094e-07
4.54854e-07
2.22703e-07
4.83742e-07
4.29413e-07
5.4442e-07
7.51641e-07
6.46401e-07
1.10499e-06
7.1662e-07
1.35141e-06
6.93361e-07
1.43107e-06
5.7486e-07
1.41476e-06
4.37053e-07
1.4047e-06
3.26766e-07
1.4191e-06
2.40047e-07
1.44682e-06
1.69933e-07
1.48211e-06
1.09672e-07
1.52159e-06
5.95045e-08
1.56429e-06
1.71559e-08
2.83622e-08
4.33486e-07
9.67878e-08
4.46558e-07
2.07111e-07
4.70605e-07
3.92274e-07
5.20998e-07
6.78175e-07
6.18066e-07
1.03997e-06
7.11489e-07
1.33635e-06
7.31736e-07
1.47549e-06
6.48923e-07
1.47721e-06
5.1245e-07
1.45187e-06
3.89917e-07
1.4514e-06
2.94584e-07
1.46897e-06
2.1796e-07
1.49623e-06
1.55863e-07
1.53045e-06
1.00827e-07
1.56913e-06
5.46846e-08
1.60941e-06
1.56414e-08
2.85261e-08
4.26595e-07
9.3487e-08
4.36925e-07
1.94815e-07
4.59014e-07
3.61915e-07
5.01139e-07
6.14735e-07
5.84616e-07
9.66341e-07
6.9179e-07
1.29927e-06
7.48633e-07
1.49979e-06
7.07485e-07
1.54014e-06
5.86002e-07
1.5077e-06
4.56647e-07
1.49065e-06
3.50723e-07
1.49616e-06
2.67464e-07
1.5147e-06
1.99532e-07
1.54315e-06
1.43248e-07
1.57711e-06
9.28846e-08
1.61381e-06
5.02965e-08
1.65202e-06
1.43031e-08
2.86717e-08
4.20666e-07
9.0688e-08
4.29547e-07
1.84439e-07
4.47468e-07
3.37984e-07
4.83116e-07
5.64145e-07
5.51874e-07
8.87582e-07
6.63496e-07
1.24419e-06
7.46974e-07
1.50034e-06
7.481e-07
1.59413e-06
6.53546e-07
1.5712e-06
5.226e-07
1.53756e-06
4.09771e-07
1.52916e-06
3.17792e-07
1.53857e-06
2.43689e-07
1.56002e-06
1.82722e-07
1.58814e-06
1.32279e-07
1.62085e-06
8.58794e-08
1.65608e-06
4.62569e-08
1.69199e-06
1.29614e-08
2.87687e-08
4.17012e-07
8.8423e-08
4.23087e-07
1.77934e-07
4.36229e-07
3.17987e-07
4.67638e-07
5.23069e-07
5.24346e-07
8.11874e-07
6.27755e-07
1.17706e-06
7.30721e-07
1.47851e-06
7.68867e-07
1.63139e-06
7.10798e-07
1.63692e-06
5.87801e-07
1.59256e-06
4.67641e-07
1.5688e-06
3.70188e-07
1.56643e-06
2.89961e-07
1.57968e-06
2.24104e-07
1.60253e-06
1.68394e-07
1.63045e-06
1.2273e-07
1.66272e-06
7.92646e-08
1.69612e-06
4.21061e-08
1.72994e-06
1.17616e-08
2.84275e-08
4.15266e-07
8.76456e-08
4.1795e-07
1.73475e-07
4.2773e-07
3.00937e-07
4.53409e-07
4.91091e-07
4.99766e-07
7.48684e-07
5.87722e-07
1.10293e-06
7.01997e-07
1.4368e-06
7.72538e-07
1.64612e-06
7.54262e-07
1.69725e-06
6.50549e-07
1.65474e-06
5.25667e-07
1.61492e-06
4.21564e-07
1.59916e-06
3.37566e-07
1.60345e-06
2.66233e-07
1.62036e-06
2.06295e-07
1.64301e-06
1.55895e-07
1.67188e-06
1.13626e-07
1.70236e-06
7.30555e-08
1.73406e-06
3.80176e-08
1.76579e-06
1.03988e-08
2.83286e-08
4.1512e-07
8.86525e-08
4.1442e-07
1.69542e-07
4.22066e-07
2.88381e-07
4.40489e-07
4.65983e-07
4.78688e-07
6.98679e-07
5.49992e-07
1.02538e-06
6.65409e-07
1.37874e-06
7.60133e-07
1.63934e-06
7.79365e-07
1.74572e-06
7.05785e-07
1.72144e-06
5.83883e-07
1.66825e-06
4.72369e-07
1.63844e-06
3.82361e-07
1.63142e-06
3.09659e-07
1.64128e-06
2.45349e-07
1.659e-06
1.90369e-07
1.68356e-06
1.44266e-07
1.71106e-06
1.05021e-07
1.74052e-06
6.66202e-08
1.76991e-06
3.3913e-08
1.79933e-06
8.78863e-09
2.88804e-08
4.1758e-07
8.97396e-08
4.14206e-07
1.65547e-07
4.18606e-07
2.80129e-07
4.30505e-07
4.44142e-07
4.62485e-07
6.59436e-07
5.18155e-07
9.51315e-07
6.24229e-07
1.31015e-06
7.34102e-07
1.61355e-06
7.85988e-07
1.77538e-06
7.49743e-07
1.78621e-06
6.40953e-07
1.72828e-06
5.23906e-07
1.68381e-06
4.27049e-07
1.66359e-06
3.50316e-07
1.66484e-06
2.86262e-07
1.67731e-06
2.27124e-07
1.69717e-06
1.76844e-07
1.72236e-06
1.33011e-07
1.74915e-06
9.64506e-08
1.77703e-06
5.95387e-08
1.8044e-06
2.88997e-08
1.83004e-06
7.20161e-09
2.95534e-08
4.23879e-07
9.04947e-08
4.17015e-07
1.6379e-07
4.16153e-07
2.75324e-07
4.23555e-07
4.27071e-07
4.47747e-07
6.29569e-07
4.92536e-07
8.86292e-07
5.83444e-07
1.23583e-06
6.98683e-07
1.56958e-06
7.78174e-07
1.78291e-06
7.78513e-07
1.84313e-06
6.92944e-07
1.79349e-06
5.75693e-07
1.73529e-06
4.72438e-07
1.70064e-06
3.90011e-07
1.69135e-06
3.23867e-07
1.69785e-06
2.65811e-07
1.71316e-06
2.11248e-07
1.73557e-06
1.6371e-07
1.76002e-06
1.222e-07
1.78626e-06
8.72631e-08
1.81189e-06
5.2074e-08
1.8355e-06
2.34116e-08
1.85805e-06
5.29636e-09
3.03105e-08
4.34355e-07
9.19355e-08
4.22612e-07
1.64341e-07
4.1663e-07
2.71629e-07
4.20041e-07
4.14241e-07
4.36624e-07
6.04417e-07
4.73142e-07
8.34816e-07
5.44236e-07
1.16051e-06
6.58912e-07
1.50979e-06
7.58582e-07
1.7717e-06
7.89457e-07
1.88609e-06
7.35613e-07
1.8607e-06
6.25764e-07
1.79315e-06
5.17849e-07
1.7429e-06
4.30272e-07
1.72113e-06
3.60304e-07
1.72088e-06
3.0091e-07
1.73154e-06
2.47475e-07
1.75019e-06
1.96721e-07
1.77304e-06
1.50745e-07
1.79762e-06
1.109e-07
1.82177e-06
7.74336e-08
1.84424e-06
4.34005e-08
1.86439e-06
1.70836e-08
1.88426e-06
3.7117e-09
3.13523e-08
4.48666e-07
9.42927e-08
4.3216e-07
1.6594e-07
4.2122e-07
2.68968e-07
4.19509e-07
4.04625e-07
4.29865e-07
5.84273e-07
4.56958e-07
7.97983e-07
5.10206e-07
1.08861e-06
6.16291e-07
1.44179e-06
7.27038e-07
1.74413e-06
7.86246e-07
1.91024e-06
7.65328e-07
1.92451e-06
6.71954e-07
1.85659e-06
5.62409e-07
1.7908e-06
4.70033e-07
1.75474e-06
3.967e-07
1.74588e-06
3.35383e-07
1.75145e-06
2.81087e-07
1.76585e-06
2.3188e-07
1.78757e-06
1.82282e-07
1.81072e-06
1.37733e-07
1.8343e-06
9.84374e-08
1.85599e-06
6.57383e-08
1.87487e-06
3.29252e-08
1.89087e-06
1.04899e-08
1.90946e-06
9.30344e-10
3.23519e-08
4.66989e-07
9.70247e-08
4.46103e-07
1.68859e-07
4.29453e-07
2.68997e-07
4.21377e-07
3.98558e-07
4.25757e-07
5.70295e-07
4.44066e-07
7.6957e-07
4.85599e-07
1.02509e-06
5.7386e-07
1.37127e-06
6.87019e-07
1.70031e-06
7.70968e-07
1.91613e-06
7.80488e-07
1.9787e-06
7.11195e-07
1.92358e-06
6.05006e-07
1.84528e-06
5.07999e-07
1.79355e-06
4.3132e-07
1.77315e-06
3.6952e-07
1.77279e-06
3.14114e-07
1.7833e-06
2.63722e-07
1.80266e-06
2.16845e-07
1.82484e-06
1.68239e-07
1.84872e-06
1.23389e-07
1.87027e-06
8.4219e-08
1.88879e-06
5.18899e-08
1.90284e-06
2.09732e-08
1.91846e-06
1.4904e-09
1.92516e-06
-2.02846e-09
3.31833e-08
4.90207e-07
9.96016e-08
4.64585e-07
1.73211e-07
4.4194e-07
2.71072e-07
4.2756e-07
3.95226e-07
4.24884e-07
5.60507e-07
4.35775e-07
7.4796e-07
4.65922e-07
9.76955e-07
5.33941e-07
1.30085e-06
6.44543e-07
1.6444e-06
7.43072e-07
1.90531e-06
7.81899e-07
2.01901e-06
7.40144e-07
1.9913e-06
6.43513e-07
1.90644e-06
5.43855e-07
1.83772e-06
4.63875e-07
1.80326e-06
4.01242e-07
1.79526e-06
3.47135e-07
1.80137e-06
2.96132e-07
1.81777e-06
2.48714e-07
1.83965e-06
2.02119e-07
1.8638e-06
1.53236e-07
1.88639e-06
1.07337e-07
1.90544e-06
6.76194e-08
1.91912e-06
3.56836e-08
1.93342e-06
6.04172e-09
1.93512e-06
-8.44464e-09
1.9349e-06
-6.11911e-09
3.40564e-08
5.18352e-07
1.02569e-07
4.87412e-07
1.7829e-07
4.59692e-07
2.73755e-07
4.39461e-07
3.95032e-07
4.27963e-07
5.53923e-07
4.31696e-07
7.33605e-07
4.50322e-07
9.43188e-07
4.99903e-07
1.23442e-06
6.00609e-07
1.58376e-06
7.0534e-07
1.88014e-06
7.68331e-07
2.04421e-06
7.56825e-07
2.05481e-06
6.76661e-07
1.97284e-06
5.77102e-07
1.88775e-06
4.93883e-07
1.83694e-06
4.30271e-07
1.81851e-06
3.78065e-07
1.81941e-06
3.29183e-07
1.83267e-06
2.81326e-07
1.85391e-06
2.34542e-07
1.87865e-06
1.87353e-07
1.90355e-06
1.36162e-07
1.92443e-06
8.84247e-08
1.93943e-06
4.73449e-08
1.95353e-06
1.5619e-08
1.95266e-06
-1.14648e-08
1.9468e-06
-2.03223e-08
1.93649e-06
-1.0639e-08
3.49866e-08
5.51352e-07
1.05964e-07
5.15123e-07
1.83735e-07
4.8219e-07
2.78051e-07
4.55591e-07
3.99086e-07
4.35609e-07
5.50688e-07
4.31424e-07
7.26524e-07
4.38992e-07
9.22097e-07
4.71729e-07
1.17793e-06
5.56637e-07
1.522e-06
6.62556e-07
1.84266e-06
7.42968e-07
2.05457e-06
7.58093e-07
2.10987e-06
7.01847e-07
2.04263e-06
6.06948e-07
1.94378e-06
5.21124e-07
1.87498e-06
4.55929e-07
1.84347e-06
4.05384e-07
1.83721e-06
3.60332e-07
1.84642e-06
3.15518e-07
1.86664e-06
2.68691e-07
1.89302e-06
2.20259e-07
1.92083e-06
1.70148e-07
1.9448e-06
1.15875e-07
1.96239e-06
6.55386e-08
1.97745e-06
2.3479e-08
1.97719e-06
-8.88887e-09
1.96733e-06
-3.19577e-08
1.95142e-06
-3.52286e-08
1.9301e-06
-1.59169e-08
3.58394e-08
5.89046e-07
1.09391e-07
5.48088e-07
1.89308e-07
5.09736e-07
2.84478e-07
4.75909e-07
4.05689e-07
4.49185e-07
5.52393e-07
4.34109e-07
7.2534e-07
4.32798e-07
9.10676e-07
4.50636e-07
1.13545e-06
5.14477e-07
1.46207e-06
6.16752e-07
1.79732e-06
7.08044e-07
2.05021e-06
7.4745e-07
2.15367e-06
7.14362e-07
2.11316e-06
6.31408e-07
2.00632e-06
5.44503e-07
1.91858e-06
4.7759e-07
1.87064e-06
4.28829e-07
1.85422e-06
3.88447e-07
1.8586e-06
3.48233e-07
1.87739e-06
3.04848e-07
1.90534e-06
2.56428e-07
1.93667e-06
2.04503e-07
1.96507e-06
1.49958e-07
1.98705e-06
9.12959e-08
2.0048e-06
3.82608e-08
2.00727e-06
-6.5461e-09
1.99644e-06
-3.79588e-08
1.97557e-06
-5.60663e-08
1.94706e-06
-5.21649e-08
1.91356e-06
-2.2119e-08
3.64483e-08
6.31311e-07
1.12706e-07
5.85898e-07
1.95361e-07
5.42231e-07
2.91626e-07
5.0274e-07
4.12048e-07
4.69754e-07
5.57562e-07
4.44218e-07
7.25825e-07
4.33844e-07
9.04945e-07
4.38781e-07
1.10797e-06
4.78415e-07
1.40699e-06
5.69733e-07
1.74883e-06
6.65413e-07
2.03372e-06
7.24662e-07
2.18572e-06
7.15505e-07
2.18096e-06
6.46592e-07
2.0765e-06
5.61306e-07
1.96874e-06
4.94395e-07
1.90123e-06
4.47087e-07
1.87139e-06
4.11743e-07
1.86901e-06
3.78101e-07
1.88501e-06
3.40701e-07
1.91374e-06
2.96554e-07
1.94951e-06
2.43674e-07
1.98395e-06
1.85711e-07
2.01218e-06
1.2491e-07
2.03464e-06
6.15188e-08
2.04228e-06
3.33723e-09
2.03307e-06
-4.31133e-08
2.01003e-06
-7.23618e-08
1.97571e-06
-8.46782e-08
1.93285e-06
-7.14232e-08
1.88557e-06
-2.94054e-08
3.68207e-08
6.77515e-07
1.15979e-07
6.28209e-07
2.00868e-07
5.80551e-07
2.98472e-07
5.35564e-07
4.19784e-07
4.95235e-07
5.65638e-07
4.61883e-07
7.29569e-07
4.4065e-07
9.05417e-07
4.33654e-07
1.09495e-06
4.5203e-07
1.36061e-06
5.25035e-07
1.70041e-06
6.18346e-07
2.0087e-06
6.90582e-07
2.20582e-06
7.04663e-07
2.24253e-06
6.54049e-07
2.15056e-06
5.72584e-07
2.02699e-06
5.03148e-07
1.93672e-06
4.58956e-07
1.89001e-06
4.28566e-07
1.87735e-06
4.03496e-07
1.88876e-06
3.7443e-07
1.91768e-06
3.36872e-07
1.95777e-06
2.8839e-07
1.99948e-06
2.28238e-07
2.03629e-06
1.61683e-07
2.06548e-06
9.4153e-08
2.08105e-06
2.28283e-08
2.0761e-06
-3.9633e-08
2.05376e-06
-8.68006e-08
2.01631e-06
-1.12909e-07
1.96616e-06
-1.17945e-07
1.90784e-06
-9.36702e-08
1.84483e-06
-3.74237e-08
3.70308e-08
7.26712e-07
1.18953e-07
6.74703e-07
2.05766e-07
6.23466e-07
3.06504e-07
5.72701e-07
4.29241e-07
5.26295e-07
5.75493e-07
4.8558e-07
7.37756e-07
4.5393e-07
9.11056e-07
4.35297e-07
1.09353e-06
4.35309e-07
1.32764e-06
4.85268e-07
1.65481e-06
5.70848e-07
1.97899e-06
6.48223e-07
2.21503e-06
6.8149e-07
2.29683e-06
6.50425e-07
2.22747e-06
5.7724e-07
2.09341e-06
5.06261e-07
1.97939e-06
4.60584e-07
1.91143e-06
4.37627e-07
1.88405e-06
4.21966e-07
1.88836e-06
4.03987e-07
1.91584e-06
3.76364e-07
1.95954e-06
3.35173e-07
2.00916e-06
2.78783e-07
2.05677e-06
2.0785e-07
2.09584e-06
1.31423e-07
2.12233e-06
5.29488e-08
2.1243e-06
-2.53348e-08
2.10611e-06
-9.19174e-08
2.06789e-06
-1.38316e-07
2.0139e-06
-1.60609e-07
1.94608e-06
-1.5613e-07
1.86934e-06
-1.18177e-07
1.78866e-06
-1.32628e-08
-3.12582e-08
3.72591e-08
7.78316e-07
1.21342e-07
7.24465e-07
2.10696e-07
6.69925e-07
3.14513e-07
6.15623e-07
4.38176e-07
5.63935e-07
5.86097e-07
5.15888e-07
7.49092e-07
4.74457e-07
9.2036e-07
4.44873e-07
1.10003e-06
4.29065e-07
1.30916e-06
4.54031e-07
1.61399e-06
5.26366e-07
1.94822e-06
6.01817e-07
2.21629e-06
6.47106e-07
2.34354e-06
6.34892e-07
2.30538e-06
5.72581e-07
2.16848e-06
5.02234e-07
2.03045e-06
4.55305e-07
1.93739e-06
4.34719e-07
1.89108e-06
4.30697e-07
1.88395e-06
4.2647e-07
1.90703e-06
4.12886e-07
1.95267e-06
3.83311e-07
2.01051e-06
3.33906e-07
2.07049e-06
2.65148e-07
2.12222e-06
1.81558e-07
2.16366e-06
9.01755e-08
2.1766e-06
7.67295e-10
2.16554e-06
-8.47034e-08
2.13031e-06
-1.54284e-07
2.07378e-06
-1.98133e-07
2.00047e-06
-2.14978e-07
1.91431e-06
-2.01025e-07
1.81668e-06
-6.54526e-08
-8.07161e-08
8.61866e-07
-1.01356e-08
8.67771e-07
-3.71553e-08
3.69395e-08
8.3264e-07
1.21771e-07
7.78021e-07
2.13781e-07
7.2153e-07
3.20439e-07
6.64123e-07
4.4709e-07
6.0688e-07
5.97311e-07
5.52899e-07
7.6252e-07
5.02669e-07
9.33379e-07
4.61658e-07
1.11294e-06
4.32191e-07
1.30513e-06
4.33363e-07
1.58168e-06
4.86629e-07
1.91929e-06
5.55508e-07
2.21213e-06
6.0613e-07
2.38267e-06
6.08088e-07
2.38283e-06
5.57508e-07
2.25272e-06
4.88443e-07
2.09256e-06
4.40207e-07
1.97047e-06
4.22309e-07
1.89997e-06
4.25937e-07
1.87646e-06
4.38283e-07
1.89111e-06
4.42475e-07
1.93634e-06
4.29318e-07
2.00182e-06
3.92091e-07
2.07499e-06
3.29485e-07
2.14311e-06
2.44329e-07
2.2024e-06
1.42892e-07
2.23095e-06
3.59015e-08
2.23112e-06
-6.47321e-08
2.20214e-06
-1.56465e-07
2.14668e-06
-2.27118e-07
2.06896e-06
-2.66547e-07
1.97226e-06
-1.30472e-07
-1.42391e-07
9.33679e-07
-1.1444e-07
9.26457e-07
-1.30015e-07
8.68362e-07
-6.60298e-08
8.80944e-07
-9.32858e-08
8.43015e-07
-9.5855e-09
8.45968e-07
-4.01017e-08
3.57312e-08
8.87822e-07
1.21185e-07
8.33384e-07
2.15088e-07
7.7686e-07
3.25253e-07
7.16872e-07
4.55615e-07
6.55792e-07
6.07823e-07
5.96543e-07
7.76552e-07
5.39051e-07
9.49764e-07
4.86477e-07
1.12983e-06
4.45014e-07
1.31278e-06
4.24838e-07
1.56073e-06
4.54634e-07
1.89391e-06
5.12257e-07
2.20604e-06
5.61778e-07
2.41576e-06
5.73168e-07
2.45841e-06
5.32609e-07
2.34503e-06
4.65263e-07
2.16778e-06
4.13304e-07
2.01426e-06
3.96531e-07
1.91339e-06
4.09e-07
1.86702e-06
4.35494e-07
1.86826e-06
4.61235e-07
1.90852e-06
4.70393e-07
1.97966e-06
4.51571e-07
2.06676e-06
4.00404e-07
2.15446e-06
3.18221e-07
2.23406e-06
2.12747e-07
2.28399e-06
8.99316e-08
2.30071e-06
-3.36095e-08
2.28255e-06
-1.45056e-07
2.23134e-06
-2.4105e-07
2.15248e-06
-3.10561e-07
2.04896e-06
-1.66246e-07
-1.7692e-07
9.47537e-07
-1.44309e-07
9.68245e-07
-1.63076e-07
8.87928e-07
-1.21412e-07
9.39968e-07
-1.57806e-07
9.05079e-07
-1.47151e-07
8.51433e-07
-7.1487e-08
8.60318e-07
-1.02153e-07
8.21889e-07
-1.02891e-08
8.25017e-07
-4.32169e-08
3.40571e-08
9.41528e-07
1.19735e-07
8.89389e-07
2.14251e-07
8.34345e-07
3.2861e-07
7.73672e-07
4.61908e-07
7.10732e-07
6.17148e-07
6.46629e-07
7.89983e-07
5.83288e-07
9.68074e-07
5.20946e-07
1.14866e-06
4.67883e-07
1.32984e-06
4.28236e-07
1.55299e-06
4.32838e-07
1.87346e-06
4.75358e-07
2.2011e-06
5.17403e-07
2.44491e-06
5.3277e-07
2.5319e-06
4.99779e-07
2.44447e-06
4.33252e-07
2.25775e-06
3.7538e-07
2.07193e-06
3.55743e-07
1.93589e-06
3.74148e-07
1.85922e-06
4.16928e-07
1.83839e-06
4.65477e-07
1.86865e-06
5.0122e-07
1.9409e-06
5.09247e-07
2.04141e-06
4.77006e-07
2.15066e-06
4.04277e-07
2.25505e-06
2.97307e-07
2.33288e-06
1.6393e-07
2.37173e-06
1.89891e-08
2.37005e-06
-1.21031e-07
2.32756e-06
-2.41192e-07
2.25017e-06
-3.38658e-07
2.14254e-06
-1.98646e-07
-2.05419e-07
9.84855e-07
-1.82833e-07
1.01013e-06
-2.02168e-07
9.56983e-07
-1.80072e-07
8.71178e-07
-1.32257e-07
9.20785e-07
-1.73495e-07
8.85741e-07
-1.61695e-07
8.30961e-07
-7.74178e-08
8.39373e-07
-1.10551e-07
7.97554e-07
-1.13263e-08
8.0096e-07
-4.66127e-08
3.18816e-08
9.93005e-07
1.15839e-07
9.45532e-07
2.1092e-07
8.9284e-07
3.284e-07
8.34673e-07
4.64769e-07
7.70906e-07
6.24702e-07
7.03332e-07
8.01775e-07
6.35011e-07
9.86163e-07
5.65382e-07
1.16973e-06
5.00097e-07
1.3533e-06
4.44683e-07
1.55722e-06
4.24287e-07
1.85965e-06
4.46953e-07
2.19885e-06
4.77844e-07
2.47192e-06
4.90554e-07
2.60349e-06
4.61293e-07
2.55032e-06
3.94005e-07
2.3633e-06
3.27785e-07
2.14753e-06
2.99872e-07
1.97206e-06
3.19702e-07
1.85758e-06
3.7592e-07
1.80582e-06
4.49636e-07
1.81652e-06
5.1773e-07
1.88371e-06
5.58518e-07
1.99418e-06
5.56563e-07
2.12641e-06
5.01328e-07
2.26003e-06
3.9936e-07
2.37264e-06
2.57604e-07
2.44121e-06
9.45089e-08
2.46178e-06
-7.26736e-08
2.43474e-06
-2.28138e-07
2.36196e-06
-3.52893e-07
2.25322e-06
-2.2253e-07
-2.26719e-07
1.03174e-06
-2.20234e-07
1.06146e-06
-2.3512e-07
9.76368e-07
-2.02195e-07
9.99682e-07
-2.25459e-07
9.40011e-07
-1.99276e-07
8.50966e-07
-1.43832e-07
9.02922e-07
-1.90656e-07
8.65503e-07
-1.76213e-07
8.06717e-07
-8.31618e-08
8.15499e-07
-1.19317e-07
7.7147e-07
-1.1907e-08
7.7519e-07
-5.03229e-08
2.85832e-08
1.04089e-06
1.09203e-07
9.9974e-07
2.0484e-07
9.51745e-07
3.22996e-07
8.98363e-07
4.64809e-07
8.34793e-07
6.29308e-07
7.66476e-07
8.10764e-07
6.94497e-07
1.00252e-06
6.1884e-07
1.19181e-06
5.4353e-07
1.37873e-06
4.74936e-07
1.57366e-06
4.28556e-07
1.85424e-06
4.30035e-07
2.19983e-06
4.46187e-07
2.49846e-06
4.51502e-07
2.67327e-06
4.20909e-07
2.66123e-06
3.50477e-07
2.48489e-06
2.72496e-07
2.24462e-06
2.308e-07
2.02741e-06
2.44646e-07
1.86814e-06
3.09286e-07
1.77541e-06
4.06476e-07
1.75508e-06
5.11211e-07
1.80725e-06
5.94313e-07
1.92108e-06
6.31717e-07
2.0748e-06
6.08258e-07
2.24113e-06
5.20293e-07
2.39699e-06
3.75068e-07
2.50378e-06
1.95096e-07
2.55423e-06
2.12545e-09
2.54998e-06
-1.87834e-07
2.48875e-06
-3.54848e-07
2.38071e-06
-2.38906e-07
-2.4139e-07
1.0884e-06
-2.49436e-07
1.12266e-06
-2.60954e-07
1.0251e-06
-2.45624e-07
1.05414e-06
-2.64131e-07
9.62521e-07
-2.24682e-07
9.87656e-07
-2.50568e-07
9.23227e-07
-2.19559e-07
8.27415e-07
-1.5573e-07
8.83575e-07
-2.08705e-07
8.42596e-07
-1.91372e-07
7.80758e-07
-8.87161e-08
7.89455e-07
-1.27996e-07
7.42958e-07
-1.28905e-08
7.46595e-07
-5.39497e-08
2.43255e-08
1.08204e-06
9.99386e-08
1.05025e-06
1.94804e-07
1.00987e-06
3.125e-07
9.62355e-07
4.61391e-07
9.01828e-07
6.29114e-07
8.35049e-07
8.16399e-07
7.60978e-07
1.01567e-06
6.81499e-07
1.21234e-06
5.9851e-07
1.40523e-06
5.17282e-07
1.59971e-06
4.49172e-07
1.85734e-06
4.25771e-07
2.20499e-06
4.25219e-07
2.52636e-06
4.18524e-07
2.74214e-06
3.82788e-07
2.77647e-06
3.05776e-07
2.62216e-06
2.13296e-07
2.36573e-06
1.51487e-07
2.10783e-06
1.505e-07
1.89817e-06
2.14762e-07
1.75441e-06
3.30447e-07
1.68975e-06
4.71965e-07
1.71262e-06
6.0598e-07
1.81896e-06
6.96558e-07
1.98864e-06
7.17959e-07
2.19065e-06
6.58808e-07
2.39601e-06
5.21317e-07
2.55445e-06
3.24437e-07
2.64946e-06
9.99061e-08
2.66863e-06
-1.16465e-07
2.62912e-06
-3.28141e-07
2.52489e-06
-2.49712e-07
-2.49248e-07
1.15466e-06
-2.70886e-07
1.19315e-06
-2.7985e-07
1.0851e-06
-2.8037e-07
1.11926e-06
-2.95081e-07
1.0155e-06
-2.73444e-07
1.04634e-06
-2.94936e-07
9.46948e-07
-2.48378e-07
9.73868e-07
-2.77459e-07
9.04944e-07
-2.40903e-07
8.01341e-07
-1.67596e-07
8.6127e-07
-2.27355e-07
8.16699e-07
-2.06707e-07
7.52677e-07
-9.47839e-08
7.61078e-07
-1.36379e-07
7.14013e-07
-1.47042e-08
7.16885e-07
-5.68115e-08
1.91284e-08
1.11347e-06
8.74937e-08
1.09457e-06
1.79831e-07
1.06538e-06
2.97528e-07
1.02497e-06
4.53211e-07
9.70617e-07
6.24783e-07
9.06371e-07
8.1858e-07
8.33033e-07
1.02491e-06
7.51888e-07
1.23067e-06
6.63406e-07
1.43132e-06
5.72636e-07
1.62942e-06
4.87905e-07
1.87088e-06
4.3594e-07
2.21307e-06
4.1797e-07
2.55619e-06
3.95689e-07
2.81011e-06
3.50749e-07
2.89443e-06
2.64942e-07
2.77338e-06
1.54641e-07
2.51248e-06
6.66369e-08
2.21857e-06
4.0875e-08
1.95652e-06
9.23047e-08
1.75303e-06
2.16314e-07
1.62896e-06
3.91421e-07
1.60463e-06
5.80124e-07
1.68734e-06
7.37732e-07
1.86428e-06
8.21028e-07
2.10193e-06
8.06751e-07
2.36306e-06
6.91811e-07
2.58752e-06
4.88274e-07
2.74423e-06
2.29697e-07
2.8062e-06
-3.7622e-08
2.78524e-06
-2.72523e-07
2.68915e-06
-2.47522e-07
-2.44816e-07
1.22995e-06
-2.86479e-07
1.27212e-06
-2.9139e-07
1.15513e-06
-3.06723e-07
1.19374e-06
-3.18429e-07
1.07984e-06
-3.13833e-07
1.11583e-06
-3.31031e-07
1.00398e-06
-3.03523e-07
1.03682e-06
-3.27745e-07
9.30303e-07
-2.73708e-07
9.58471e-07
-3.05594e-07
8.83619e-07
-2.63225e-07
7.72594e-07
-1.7909e-07
8.35999e-07
-2.46629e-07
7.88197e-07
-2.22285e-07
7.22532e-07
-1.00416e-07
7.30444e-07
-1.44272e-07
6.81895e-07
-1.58046e-08
6.84981e-07
-5.98869e-08
1.21585e-08
1.13368e-06
7.04733e-08
1.13057e-06
1.58624e-07
1.11589e-06
2.77772e-07
1.08522e-06
4.39171e-07
1.03907e-06
6.15777e-07
9.79723e-07
8.14726e-07
9.10307e-07
1.0293e-06
8.2877e-07
1.24471e-06
7.38026e-07
1.4544e-06
6.40521e-07
1.66089e-06
5.41471e-07
1.89282e-06
4.66265e-07
2.22481e-06
4.2459e-07
2.58827e-06
3.86205e-07
2.87774e-06
3.28276e-07
3.01359e-06
2.31706e-07
2.9367e-06
1.01687e-07
2.68477e-06
-1.75778e-08
2.36356e-06
-7.82435e-08
2.05191e-06
-5.43542e-08
1.78405e-06
6.14732e-08
1.58603e-06
2.59441e-07
1.49267e-06
5.03569e-07
1.52639e-06
7.41234e-07
1.68855e-06
9.1359e-07
1.95124e-06
9.71792e-07
2.26599e-06
9.03862e-07
2.57477e-06
7.04582e-07
2.81615e-06
4.16364e-07
2.9538e-06
8.21125e-08
2.96525e-06
-2.17581e-07
2.87899e-06
-2.35591e-07
-2.26713e-07
1.31384e-06
-2.89221e-07
1.36097e-06
-2.91915e-07
1.2343e-06
-3.26996e-07
1.27722e-06
-3.3428e-07
1.15435e-06
-3.45206e-07
1.19515e-06
-3.59185e-07
1.07276e-06
-3.49735e-07
1.11186e-06
-3.7008e-07
9.908e-07
-3.35815e-07
1.02621e-06
-3.63112e-07
9.10148e-07
-3.00204e-07
9.41029e-07
-3.36437e-07
8.59644e-07
-2.86839e-07
7.4144e-07
-1.90063e-07
8.08155e-07
-2.66556e-07
7.57016e-07
-2.37833e-07
6.9022e-07
-1.0564e-07
6.9736e-07
-1.51393e-07
6.50175e-07
-1.67374e-08
6.52957e-07
-6.26576e-08
3.03333e-09
1.13875e-06
4.7987e-08
1.15627e-06
1.30109e-07
1.15919e-06
2.51639e-07
1.14207e-06
4.18327e-07
1.10614e-06
5.99483e-07
1.05546e-06
8.03185e-07
9.91341e-07
1.02696e-06
9.12762e-07
1.2522e-06
8.21406e-07
1.47317e-06
7.19467e-07
1.69118e-06
6.10482e-07
1.92108e-06
5.13585e-07
2.24226e-06
4.49197e-07
2.62099e-06
3.92194e-07
2.94452e-06
3.19683e-07
3.13245e-06
2.09588e-07
3.10908e-06
5.93808e-08
2.88075e-06
-9.42787e-08
2.54466e-06
-1.98612e-07
2.19129e-06
-2.17487e-07
1.86151e-06
-1.3162e-07
1.58188e-06
6.5837e-08
1.39426e-06
3.58062e-07
1.34597e-06
6.84175e-07
1.46218e-06
9.67732e-07
1.72756e-06
1.13734e-06
2.08637e-06
1.15143e-06
2.47678e-06
1.00184e-06
2.82071e-06
6.99989e-07
3.05831e-06
3.11826e-07
3.1505e-06
-1.03133e-07
3.092e-06
-2.24027e-07
-2.06505e-07
1.40874e-06
-2.83344e-07
1.46579e-06
-2.83743e-07
1.3225e-06
-3.34459e-07
1.37106e-06
-3.40431e-07
1.23894e-06
-3.70738e-07
1.28547e-06
-3.80734e-07
1.15381e-06
-3.87101e-07
1.2001e-06
-4.05391e-07
1.06574e-06
-3.89204e-07
1.11116e-06
-4.1542e-07
9.76205e-07
-3.70942e-07
1.01696e-06
-4.03793e-07
8.87874e-07
-3.28395e-07
9.22191e-07
-3.70699e-07
8.33245e-07
-3.1189e-07
7.07748e-07
-2.00426e-07
7.77795e-07
-2.87299e-07
7.23048e-07
-2.531e-07
6.56894e-07
-1.09561e-07
6.62797e-07
-1.57275e-07
6.19005e-07
-1.76037e-08
6.20953e-07
-6.45936e-08
-8.61126e-09
1.12283e-06
1.92927e-08
1.16751e-06
9.41496e-08
1.19232e-06
2.17696e-07
1.19317e-06
3.88551e-07
1.1719e-06
5.73101e-07
1.13257e-06
7.83104e-07
1.0756e-06
1.01542e-06
1.003e-06
1.25204e-06
9.13077e-07
1.48549e-06
8.09303e-07
1.71738e-06
6.93473e-07
1.95322e-06
5.78576e-07
2.26387e-06
4.92324e-07
2.654e-06
4.164e-07
3.00935e-06
3.27652e-07
3.24877e-06
2.03572e-07
3.28612e-06
3.26425e-08
3.09673e-06
-1.56619e-07
2.76068e-06
-3.10357e-07
2.37744e-06
-3.84694e-07
1.99695e-06
-3.52753e-07
1.64397e-06
-1.93477e-07
1.36414e-06
9.6195e-08
1.22067e-06
4.83521e-07
1.26399e-06
8.8236e-07
1.52407e-06
1.17105e-06
1.90825e-06
1.31523e-06
2.35585e-06
1.27216e-06
2.79368e-06
1.02871e-06
3.14134e-06
6.16855e-07
3.32976e-06
1.32506e-07
3.3402e-06
-1.95921e-07
-1.55399e-07
1.51804e-06
-2.76264e-07
1.5853e-06
-2.73769e-07
1.42378e-06
-3.36009e-07
1.48152e-06
-3.41411e-07
1.33584e-06
-3.84727e-07
1.39093e-06
-3.95373e-07
1.25207e-06
-4.22568e-07
1.31089e-06
-4.39306e-07
1.16443e-06
-4.40212e-07
1.22862e-06
-4.69284e-07
1.06765e-06
-4.39757e-07
1.13444e-06
-4.81931e-07
9.64828e-07
-4.13484e-07
1.02393e-06
-4.6269e-07
8.64842e-07
-3.59934e-07
9.08928e-07
-4.14667e-07
8.05656e-07
-3.39693e-07
6.71833e-07
-2.09434e-07
7.45471e-07
-3.09669e-07
6.86639e-07
-2.67862e-07
6.22712e-07
-1.11304e-07
6.26721e-07
-1.61263e-07
5.87779e-07
-1.77553e-08
5.88387e-07
-6.51885e-08
-2.3749e-08
1.08076e-06
-1.75455e-08
1.15973e-06
5.02419e-08
1.21147e-06
1.74792e-07
1.23527e-06
3.47442e-07
1.23435e-06
5.3548e-07
1.20964e-06
7.51984e-07
1.1638e-06
9.9261e-07
1.09853e-06
1.24196e-06
1.01322e-06
1.48903e-06
9.09669e-07
1.73711e-06
7.89788e-07
1.98557e-06
6.6136e-07
2.28905e-06
5.53768e-07
2.68709e-06
4.59633e-07
3.07268e-06
3.53378e-07
3.36127e-06
2.15384e-07
3.46335e-06
2.64825e-08
3.32662e-06
-1.97237e-07
3.00681e-06
-4.0283e-07
2.60827e-06
-5.41215e-07
2.1946e-06
-5.82191e-07
1.7973e-06
-5.05722e-07
1.46841e-06
-2.97258e-07
1.28076e-06
3.62969e-08
1.27688e-06
4.70079e-07
1.47351e-06
9.31337e-07
1.84809e-06
1.22929e-06
2.33707e-06
1.3325e-06
2.8335e-06
1.23144e-06
3.26938e-06
9.00169e-07
3.54872e-06
3.97613e-07
3.63885e-06
-1.66267e-07
1.64281e-06
-2.53399e-07
1.72788e-06
-2.40487e-07
1.54035e-06
-3.35004e-07
1.61907e-06
-3.52384e-07
1.4532e-06
-3.98048e-07
1.51815e-06
-4.0604e-07
1.37815e-06
-4.51577e-07
1.45464e-06
-4.71233e-07
1.30894e-06
-5.0232e-07
1.40775e-06
-5.37147e-07
1.22546e-06
-5.30638e-07
1.34841e-06
-5.91061e-07
1.11334e-06
-5.28684e-07
1.24962e-06
-6.17137e-07
9.79219e-07
-4.8348e-07
1.10145e-06
-5.8418e-07
8.4786e-07
-4.02008e-07
9.29861e-07
-4.96295e-07
7.84018e-07
-3.7811e-07
6.33109e-07
-2.15789e-07
7.18064e-07
-3.4098e-07
6.54062e-07
-2.88728e-07
5.88964e-07
-1.11865e-07
5.89404e-07
-1.6168e-07
5.58879e-07
-1.74033e-08
5.58482e-07
-6.47759e-08
-4.22215e-08
1.00554e-06
-6.41077e-08
1.12738e-06
-3.76376e-09
1.21378e-06
1.20147e-07
1.26614e-06
2.93094e-07
1.28965e-06
4.85588e-07
1.28431e-06
7.08222e-07
1.25347e-06
9.5825e-07
1.19823e-06
1.2198e-06
1.12077e-06
1.48239e-06
1.02e-06
1.74807e-06
8.98882e-07
2.0145e-06
7.61074e-07
2.31739e-06
6.33369e-07
2.71932e-06
5.21921e-07
3.13338e-06
3.99248e-07
3.4677e-06
2.47195e-07
3.63649e-06
4.24291e-08
3.56453e-06
-2.11371e-07
3.27727e-06
-4.67775e-07
2.87857e-06
-6.73117e-07
2.45137e-06
-7.97711e-07
2.04643e-06
-8.30462e-07
1.74475e-06
-7.80437e-07
1.63164e-06
-6.4647e-07
1.69448e-06
-3.81581e-07
1.84678e-06
9.20819e-08
2.07374e-06
6.98189e-07
2.46591e-06
1.0934e-06
2.97914e-06
1.18203e-06
3.47093e-06
1.02734e-06
3.84001e-06
6.07655e-07
4.00093e-06
3.49692e-08
-1.78091e-06
3.91802e-06
-2.84698e-07
-2.90447e-07
1.6877e-06
-3.21907e-07
-3.33514e-07
1.5952e-06
-4.11617e-07
1.67581e-06
-4.32375e-07
1.54216e-06
-4.84638e-07
1.63873e-06
-5.01318e-07
1.52515e-06
-5.67483e-07
1.66001e-06
-6.03963e-07
1.5062e-06
-6.58147e-07
1.69199e-06
-7.20071e-07
1.43795e-06
-7.16867e-07
1.67133e-06
-8.21222e-07
1.29643e-06
-7.21971e-07
1.55937e-06
-8.76969e-07
1.09012e-06
-6.42709e-07
1.34545e-06
-8.37184e-07
8.7068e-07
-4.88257e-07
1.06195e-06
-6.86328e-07
8.02032e-07
-4.6168e-07
5.97577e-07
-2.23907e-07
7.24973e-07
-4.11567e-07
6.45442e-07
-3.36376e-07
5.56863e-07
-1.10231e-07
5.54875e-07
-1.59662e-07
5.32907e-07
-1.61657e-08
5.31734e-07
-6.35847e-08
-6.28008e-08
8.85283e-07
-1.19358e-07
1.06085e-06
-7.08363e-08
1.19449e-06
5.00491e-08
1.2839e-06
2.23157e-07
1.33612e-06
4.21718e-07
1.35358e-06
6.51498e-07
1.34104e-06
9.11952e-07
1.29977e-06
1.18507e-06
1.23301e-06
1.46404e-06
1.13922e-06
1.74894e-06
1.01927e-06
2.03686e-06
8.76711e-07
2.34717e-06
7.31572e-07
2.75082e-06
6.02277e-07
3.19041e-06
4.65343e-07
3.5671e-06
3.00114e-07
3.80149e-06
8.23972e-08
3.80327e-06
-1.96155e-07
3.56421e-06
-4.98314e-07
3.18086e-06
-7.69988e-07
2.75794e-06
-9.79194e-07
2.37963e-06
-1.12915e-06
2.17298e-06
-1.25481e-06
2.22608e-06
-1.36968e-06
2.4366e-06
-1.38554e-06
2.62617e-06
-1.16347e-06
2.76162e-06
-6.06809e-07
2.94572e-06
2.0037e-07