/*--------------------------------*- C++ -*----------------------------------*\
  =========                 |
  \\      /  F ield         | OpenFOAM: The Open Source CFD Toolbox
   \\    /   O peration     | Website:  https://openfoam.org
    \\  /    A nd           | Version:  dev
     \\/     M anipulation  |
\*---------------------------------------------------------------------------*/
FoamFile
{
    version     2.0;
    format      ascii;
    class       volScalarField;
    location    "2500";
    object      qr;
}
// * * * * * * * * * * * * * * * * * * * * * * * * * * * * * * * * * * * * * //

dimensions      [1 0 -3 0 0 0 0];

internalField   uniform 0;

boundaryField
{
    lowerOutlet
    {
        type            calculated;
        value           nonuniform List<scalar> 
144
(
1114.59
1118.29
1122.43
1126.96
1131.91
1137.28
1143.09
1149.33
1156.03
1163.22
1170.89
1179.09
1187.82
1197.14
1207.06
1217.63
1228.89
1240.9
1253.7
1267.38
1281.99
1297.65
1314.44
1332.51
1352.03
1373.16
1396.11
1421.11
1448.48
1478.6
1511.93
1549.08
1590.76
1626.64
1678.89
1739.06
1809.05
1891.34
1989.3
2107.44
2252.04
2431.15
2652.11
2921.21
3203.58
3551.61
4696.57
6314.82
-8700.19
3373.11
2867.26
2537.14
2301.9
2104.15
1970.7
1864.03
1776.86
1704.57
1643.38
1590.83
1545.07
1504.85
1469.16
1429.23
1401.21
1375.75
1352.47
1331.09
1311.37
1293.09
1276.11
1260.28
1245.5
1231.68
1218.71
1206.52
1195.03
1184.21
1173.99
1164.33
1155.21
1146.59
1138.43
1130.72
1123.44
1116.55
1110.05
1103.93
1098.16
1092.74
1087.66
1082.9
1078.47
1074.35
1070.55
1067.08
2045.51
2175.94
2336.83
2535.9
2780.14
3118.29
3450.79
4581
6065.35
5304.48
3554.88
2971.69
2609.06
2354.13
2184.62
2033.46
1914.59
1818.3
1739.13
1672.77
1938.1
3293.67
3975.21
5163.83
6548.35
4032.51
3220.25
2772.89
2471.07
2253.3
1616.15
3037.41
3390.77
4349.87
5789.42
6755.85
3773.6
3088.16
2687.28
2410.32
1651.88
1707.88
1772.69
1848.49
1567.19
1524.33
1486.49
1452.77
)
;
    }
    top
    {
        type            calculated;
        value           nonuniform List<scalar> 
100
(
1010.44
1013.35
1016.3
1019.21
1022.09
1024.92
1027.71
1023.46
1022.31
1022.72
1023.1
1022.49
1020.46
1017.71
1015.44
1014.71
1016.15
1019.3
1023.53
1028.51
1033.43
1037.91
1041.76
1044.98
1047.68
1049.97
1051.78
1052.98
1053.48
1052.65
1049.02
1041.11
1029.77
1020.14
1011.84
1003.74
996.051
990.414
988.925
993.475
1005.77
1027.41
1056.42
1075.96
1080.86
1081.9
1082.35
1082.62
1082.75
1082.77
1082.7
1082.53
1082.27
1081.93
1081.5
1081
1080.42
1079.76
1079.02
1078.18
1077.24
1076.25
1075.07
1073.79
1072.38
1070.9
1069.24
1067.46
1065.67
1063.79
1061.91
1060.09
1058.41
1057.11
1068.35
1065.84
1063.27
1060.65
1057.98
1055.25
1052.49
1049.68
1046.84
1043.97
1041.07
1038.14
1035.19
1032.22
1029.24
1023.43
1019.4
1015.08
1010.84
1006.88
1003.32
1000.29
997.798
995.812
994.846
996.249
)
;
    }
    sides
    {
        type            calculated;
        value           nonuniform List<scalar> 
100
(
1114.61
1117.56
1120.12
1122.31
1124.1
1125.52
1126.58
1127.27
1127.61
1127.61
1127.29
1126.66
1125.72
1124.51
1123.03
1121.29
1119.32
1117.13
1114.74
1112.17
1109.42
1106.52
1103.49
1100.33
1097.07
1093.71
1090.28
1086.78
1083.23
1079.64
1076.02
1072.38
1068.72
1065.07
1061.41
1057.77
1054.15
1050.55
1046.98
1043.44
1039.94
1036.47
1033.05
1029.67
1026.34
1023.06
1019.83
1016.65
1013.52
1010.48
1067.09
1069.99
1072.6
1074.91
1076.93
1078.66
1080.1
1081.27
1082.16
1082.79
1083.16
1083.28
1083.17
1082.82
1082.26
1081.49
1080.52
1079.36
1078.03
1076.53
1074.87
1073.07
1071.14
1069.08
1066.91
1064.63
1062.26
1059.8
1057.26
1054.66
1051.98
1049.26
1046.48
1043.66
1040.81
1037.92
1035
1032.07
1029.11
1026.14
1023.16
1020.18
1017.18
1014.19
1011.19
1008.2
1005.21
1002.22
999.235
996.292
)
;
    }
    front
    {
        type            empty;
    }
    back
    {
        type            empty;
    }
    roller
    {
        type            calculated;
        value           nonuniform List<scalar> 
144
(
7015.43
5607.62
4102.54
3096.58
1695.45
1388.7
1341.32
1271.62
1275.93
1231.95
8331.21
9199.77
8371.53
6669.68
6071.27
2863.17
2152.67
2292.28
1733.97
2017.11
1505.58
1426.65
1354.23
1359.67
1301.64
1234.02
1246.1
1270.46
5780.21
7480.52
2621.36
2049.02
2574.87
2475.78
1668.2
1461.16
1409.92
1394.28
1328.11
1221.4
1236.22
7974.79
9110.56
8746.94
4678.69
6198.78
5376.56
6715.36
4505.07
3099.28
2381.06
1774.81
2086.34
1440.13
1362.94
1294.97
1228.21
8653.16
9171.62
7918.32
2204.5
1614.17
1584.67
1505.16
1442.08
1485.68
1217.72
5019.55
4054.63
3689.31
3361.46
2682.26
1920.39
1946.67
1799.37
1523.63
1754.31
1634.72
1456.2
1601.02
1398.89
1374.96
1311.18
1282.46
1295.15
1281.21
1220.1
1228.04
8920.9
9019.07
7413.49
5003.56
4382.48
3790.94
3295.85
2920.39
1866.99
1818.61
2141.98
1563.36
1487.75
1429.09
1413.01
1332.24
1313.16
1258.23
1263.05
1257.27
1216.57
1215.62
1215.75
1216.01
1217.24
1217.81
1223.58
3525.29
2430.79
2277.43
2796.07
1980.64
1644.08
1895.53
1846.53
1543.05
1711.67
1671.86
1471.49
1570.88
1535.48
1342.38
1379.08
1322.22
1288.68
1240.86
1248.94
1223.74
1241
1251.64
1215.97
1216.76
1216.36
1219.6
1218.56
1225.54
)
;
    }
    burner
    {
        type            calculated;
        value           nonuniform List<scalar> 
16
(
-124616
-118332
-115569
-116896
-119561
-115940
-116036
-123708
-122804
-117326
-115437
-118279
-121041
-116529
-115577
-120402
)
;
    }
}


// ************************************************************************* //
