/*--------------------------------*- C++ -*----------------------------------*\
  =========                 |
  \\      /  F ield         | OpenFOAM: The Open Source CFD Toolbox
   \\    /   O peration     | Website:  https://openfoam.org
    \\  /    A nd           | Version:  dev
     \\/     M anipulation  |
\*---------------------------------------------------------------------------*/
FoamFile
{
    version     2.0;
    format      ascii;
    class       volScalarField;
    location    "2500";
    object      rAU;
}
// * * * * * * * * * * * * * * * * * * * * * * * * * * * * * * * * * * * * * //

dimensions      [-1 3 1 0 0 0 0];

internalField   nonuniform List<scalar> 
9851
(
0.00822312
0.0082919
0.00824747
0.00828595
0.00840043
0.00819125
0.00827394
0.00839408
0.00840521
0.00814544
0.00826162
0.00839432
0.00839032
0.00841719
0.00810384
0.00825639
0.00839831
0.00838212
0.00839991
0.00842591
0.00806633
0.00825324
0.00840665
0.00838181
0.00838554
0.00841425
0.00843029
0.00803289
0.00825108
0.00841532
0.00838621
0.00837714
0.00839896
0.0084241
0.00843243
0.00800246
0.00824972
0.00842324
0.00839531
0.00837261
0.00838541
0.008414
0.00842937
0.00843367
0.00797502
0.0082491
0.00842762
0.00840694
0.00837358
0.00837472
0.00840124
0.00842373
0.00843212
0.00843416
0.00794999
0.00825059
0.00843039
0.00841674
0.00837936
0.00836858
0.00838735
0.00841605
0.00842906
0.00843415
0.00843428
0.00792704
0.00825333
0.00843277
0.00842411
0.00838947
0.00836582
0.00837527
0.00840448
0.00842473
0.00843241
0.0084353
0.00843436
0.00790589
0.00825609
0.00843542
0.00842914
0.00840241
0.00836808
0.00836719
0.00839097
0.00841797
0.0084295
0.00843469
0.00843586
0.00843439
0.00788613
0.00825821
0.00843656
0.00843292
0.00841341
0.00837444
0.00835364
0.00837816
0.00840788
0.00842566
0.00843259
0.00843614
0.00843622
0.00843459
0.00786771
0.00826079
0.00843714
0.00843481
0.00842141
0.00838554
0.00835209
0.00836819
0.00839605
0.00842027
0.0084299
0.00843487
0.00843706
0.00843659
0.00843461
0.0078503
0.00826297
0.00843699
0.0084357
0.00842736
0.00839882
0.00836336
0.00831501
0.00838278
0.00841244
0.00842729
0.0084329
0.00843668
0.00843752
0.00843695
0.00843456
0.00783395
0.00826522
0.00843703
0.0084366
0.00843078
0.00841004
0.00837074
0.00830061
0.0083706
0.00840099
0.00842322
0.00843104
0.00843515
0.00843765
0.00843795
0.00843728
0.00843454
0.00781846
0.00826718
0.00843722
0.00843673
0.0084327
0.00841855
0.00838234
0.00834608
0.00828522
0.00838822
0.00841626
0.00842924
0.00843364
0.00843688
0.00843851
0.00843839
0.00843743
0.0084344
0.00780387
0.00826831
0.00843711
0.00843695
0.00843385
0.00842402
0.00839508
0.0083595
0.00824447
0.00837462
0.00840632
0.00842614
0.00843266
0.00843573
0.00843813
0.00843903
0.00843884
0.00843756
0.00843424
0.00779001
0.00826592
0.00843713
0.00843718
0.00843426
0.00842741
0.00840676
0.00836754
0.00831612
0.00836387
0.00839338
0.00841997
0.00843148
0.00843498
0.00843721
0.00843895
0.00843941
0.00843921
0.00843768
0.00843404
0.00777691
0.0082633
0.00842923
0.00843735
0.00843476
0.00842973
0.00841571
0.00837942
0.0083522
0.00821448
0.00838013
0.00841073
0.00842851
0.00843445
0.00843689
0.00843864
0.00843952
0.00843998
0.00843944
0.00843773
0.00843385
0.00776462
0.00826338
0.00842133
0.00843743
0.00843511
0.00843124
0.00842183
0.00839279
0.00835569
0.00816715
0.00836761
0.00839884
0.00842299
0.00843316
0.00843674
0.00843856
0.00843966
0.0084401
0.00844044
0.00843963
0.0084377
0.00843381
0.00775321
0.00826109
0.00842848
0.00842748
0.00843568
0.00843195
0.00842557
0.00840433
0.00836375
0.00830324
0.00820401
0.00838637
0.0084146
0.00843036
0.00843607
0.00843867
0.00843986
0.00844017
0.00844063
0.00844087
0.00843985
0.00843778
0.00843367
0.00774282
0.00825579
0.00843621
0.008424
0.00843616
0.00843257
0.00842831
0.00841371
0.00837628
0.00834727
0.00805045
0.00837304
0.00840477
0.00842564
0.00843432
0.00843806
0.00844021
0.00844084
0.00844078
0.00844101
0.00844116
0.0084399
0.00843781
0.00843356
0.00773376
0.00824916
0.0084364
0.00843359
0.00842849
0.00843311
0.00842936
0.00842004
0.00839074
0.00835098
0.00815358
0.00836109
0.00839267
0.00841893
0.00843178
0.00843659
0.0084398
0.00844156
0.00844159
0.00844128
0.00844147
0.00844136
0.00843996
0.00843784
0.00843357
0.00765988
0.00824106
0.00843629
0.00843701
0.00842731
0.00843353
0.0084303
0.00842442
0.00840232
0.00835979
0.0082999
0.00818698
0.00837981
0.00841005
0.00842803
0.00843537
0.00843861
0.00844133
0.00844257
0.00844231
0.00844171
0.00844176
0.00844152
0.00844008
0.00843793
0.00833463
0.00765441
0.00823109
0.00843605
0.00843679
0.00843511
0.00842534
0.00843112
0.00842676
0.00841171
0.00837223
0.00834195
0.00813136
0.0083667
0.00839902
0.00842258
0.00843334
0.00843762
0.00844036
0.00844263
0.00844357
0.00844276
0.00844211
0.00844199
0.00844162
0.00844021
0.00841595
0.00833339
0.00771852
0.00821925
0.00843578
0.00843677
0.00843622
0.00842384
0.00843156
0.00842846
0.00841847
0.00838624
0.00834526
0.00828918
0.00835474
0.00838677
0.00841476
0.00843038
0.00843661
0.00843948
0.00844178
0.00844365
0.00844427
0.00844327
0.00844238
0.00844211
0.00844177
0.00844049
0.00841509
0.00843375
0.00771803
0.00820568
0.00843547
0.00843656
0.00843609
0.00843248
0.00842628
0.00842936
0.00842275
0.00839834
0.0083527
0.00833492
0.00833675
0.00837367
0.00840518
0.00842554
0.00843491
0.0084388
0.00844105
0.00844293
0.00844462
0.00844475
0.00844368
0.00844259
0.00844225
0.00844214
0.0084406
0.00843835
0.00843375
0.00772024
0.0081905
0.00843523
0.00843655
0.00843605
0.00843446
0.00842315
0.00836581
0.00842584
0.0084078
0.00836469
0.00833385
0.00832784
0.00836147
0.00839379
0.008419
0.00843204
0.0084378
0.00844055
0.0084423
0.00844401
0.0084454
0.00844534
0.00844403
0.00844273
0.00844251
0.00844221
0.00844067
0.00843836
0.00843371
0.00772586
0.00817362
0.00843497
0.00843642
0.00843589
0.00843455
0.008429
0.00830272
0.00842738
0.0084151
0.00837883
0.00833663
0.00833078
0.00834882
0.00838198
0.00841089
0.00842811
0.00843598
0.00843985
0.00844198
0.00844347
0.00844494
0.00844604
0.00844576
0.00844423
0.00844291
0.00844258
0.00844224
0.00844063
0.00843837
0.00843369
0.00773529
0.00815541
0.00843476
0.00843641
0.00843587
0.0084345
0.00843245
0.00836604
0.00834807
0.00841932
0.00839179
0.00834278
0.00832642
0.00833819
0.00836123
0.00840111
0.00842323
0.00843352
0.0084386
0.00844163
0.00844322
0.00844442
0.00844569
0.00844651
0.00844607
0.0084444
0.00844291
0.00844252
0.00844219
0.00844061
0.00843822
0.0084336
0.00774862
0.0081362
0.00843462
0.00843628
0.00843577
0.00843475
0.00843282
0.00843062
0.00833584
0.00832627
0.00840148
0.00835339
0.00832361
0.00832918
0.00835256
0.00838156
0.00841608
0.0084309
0.00843694
0.00844061
0.00844296
0.00844425
0.00844531
0.00844623
0.00844689
0.00844643
0.00844441
0.00844275
0.00844234
0.00844198
0.00844035
0.0084379
0.00843335
0.00775825
0.00811605
0.0084346
0.00843645
0.00843611
0.00843492
0.00843295
0.0084308
0.00841584
0.00826143
0.00840917
0.00836636
0.00832543
0.008322
0.00834158
0.00837313
0.00840598
0.00842614
0.00843553
0.00843601
0.00841978
0.00844402
0.00844514
0.00844592
0.00844657
0.00844719
0.00844654
0.0084442
0.00844243
0.00844197
0.00844157
0.00843968
0.00843729
0.00842028
0.00696472
0.0081649
0.00809539
0.00843451
0.00843659
0.00843627
0.00843515
0.00843334
0.00843089
0.00842901
0.00835768
0.0082999
0.00837965
0.00832942
0.00831671
0.0083301
0.00835812
0.00839432
0.00841858
0.00843216
0.00840079
0.00830385
0.0084191
0.0084449
0.00844589
0.00844628
0.00844677
0.00844741
0.00844636
0.00844387
0.00844199
0.00844145
0.00844089
0.008422
0.00846864
0.00817509
0.00817381
0.00696475
0.00814248
0.00807459
0.00843423
0.0084366
0.00843643
0.00843549
0.00843369
0.00843129
0.00842911
0.00842673
0.00819107
0.00839047
0.00833633
0.00831133
0.00832058
0.00834092
0.00837855
0.00840941
0.00842649
0.00840122
0.00825959
0.00839916
0.00844233
0.00844564
0.00844636
0.00844639
0.00844694
0.00844719
0.00844593
0.00844329
0.00844128
0.00844071
0.00842201
0.00830154
0.00816492
0.00817361
0.00828915
0.00818562
0.00816137
0.00817045
0.00700811
0.00817407
0.00805426
0.00843437
0.00843686
0.0084366
0.0084358
0.00843403
0.00843161
0.00842921
0.0084271
0.00830395
0.0083988
0.00834745
0.00830895
0.00831121
0.00833466
0.00836157
0.00839917
0.00841952
0.00843103
0.00834899
0.00844177
0.00843856
0.00844498
0.00844616
0.00844643
0.00844639
0.0084466
0.00844659
0.00844529
0.00844323
0.00844238
0.0084242
0.00816978
0.00818417
0.00816156
0.00818101
0.00818764
0.00819484
0.00819584
0.00820463
0.00705713
0.00820696
0.00803505
0.00843451
0.00843707
0.00843698
0.00843617
0.00843447
0.00843191
0.00842946
0.00842719
0.0084209
0.00826949
0.00836081
0.00831115
0.00830317
0.00832135
0.00835483
0.00838721
0.00841134
0.00842522
0.00842791
0.00843894
0.00844272
0.00844481
0.00844538
0.00844617
0.00844621
0.00844586
0.00844665
0.00844805
0.00844836
0.00844876
0.00843051
0.00819661
0.00821072
0.00817911
0.00820002
0.00820075
0.00821397
0.00821164
0.00822453
0.00822923
0.00823512
0.00710482
0.00823291
0.00801747
0.0084345
0.00843743
0.00843737
0.00843646
0.00843499
0.00843239
0.00842972
0.00842735
0.00842318
0.00824624
0.00821306
0.00831515
0.00829609
0.00830933
0.00834042
0.00837441
0.00840117
0.00841825
0.00842782
0.00843418
0.00843902
0.00844291
0.00844502
0.0084453
0.0084457
0.00844684
0.00844858
0.00845328
0.00845702
0.00845919
0.00843998
0.0082232
0.00823486
0.00821451
0.00822998
0.0082164
0.00823101
0.00822554
0.008242
0.00823627
0.00825002
0.00825494
0.00825953
0.00715257
0.00825344
0.00800241
0.00843456
0.00843753
0.00843765
0.00843697
0.00843559
0.00843292
0.00843018
0.00842754
0.00842375
0.00838469
0.00806763
0.00832142
0.00828922
0.00829804
0.00832579
0.00836041
0.00838979
0.00840936
0.00842099
0.00842812
0.00843362
0.00843819
0.00844229
0.00844455
0.00844618
0.00844908
0.00845626
0.00846169
0.00846593
0.00846908
0.00845005
0.0082474
0.00825936
0.00824138
0.00825334
0.00824035
0.00825087
0.00824118
0.00825373
0.00824783
0.00826463
0.00825899
0.00827061
0.00827483
0.00827936
0.00720047
0.00827023
0.00799109
0.00843463
0.00843787
0.00843803
0.00843766
0.00843615
0.00843368
0.0084307
0.00842783
0.00842432
0.00841543
0.00821707
0.00814497
0.00828549
0.00828621
0.0083108
0.00834554
0.00837676
0.00839889
0.0084122
0.00842036
0.00842649
0.00843177
0.00843644
0.00844216
0.00844764
0.00845681
0.00846467
0.00847115
0.00847547
0.00847705
0.0084582
0.00826952
0.00827745
0.00826372
0.0082756
0.00825944
0.0082686
0.00826154
0.00826813
0.00826081
0.00827256
0.00826816
0.0082831
0.00827777
0.00828752
0.00829048
0.00829485
0.00724692
0.00828314
0.00798403
0.0084344
0.00843807
0.00843828
0.00843829
0.00843694
0.00843471
0.00843153
0.00842842
0.00842477
0.00841699
0.00838376
0.00809557
0.00828667
0.00827515
0.00829522
0.00832997
0.00836247
0.00838654
0.00840111
0.00841001
0.00841682
0.00842309
0.0084289
0.00843548
0.00844898
0.00846336
0.0084734
0.00847847
0.00848227
0.00848399
0.00846479
0.00828428
0.00829113
0.00828429
0.00829002
0.00827587
0.00828244
0.00827418
0.00827933
0.00827892
0.00828099
0.00827753
0.00828728
0.0082852
0.00829823
0.00829339
0.00830208
0.00830242
0.00830649
0.00729407
0.00829315
0.0079825
0.00843429
0.00843813
0.00843845
0.00843864
0.00843764
0.00843552
0.00843239
0.00842898
0.00842513
0.00841816
0.00840094
0.00829316
0.0082905
0.00826521
0.00828028
0.00831341
0.00834728
0.00837262
0.0083879
0.00839671
0.00840409
0.00841261
0.00842114
0.00842843
0.00844081
0.00845719
0.00847256
0.00848298
0.00848606
0.00848852
0.00847012
0.00829957
0.00830436
0.00829212
0.00829229
0.00828404
0.00827464
0.00827789
0.00826585
0.00827906
0.00826598
0.00828906
0.00827662
0.00829108
0.00829307
0.00829801
0.00831092
0.00830556
0.0083143
0.00831154
0.00831482
0.00733876
0.00829938
0.00789687
0.00842577
0.00843788
0.0084386
0.00843905
0.00843791
0.00843628
0.00843319
0.0084296
0.00842553
0.00841883
0.00840408
0.00836844
0.00829645
0.00825625
0.00826536
0.00829611
0.00833112
0.00835799
0.00837326
0.00838116
0.00836897
0.00839856
0.00840994
0.00840685
0.00841733
0.00843944
0.00844978
0.00847326
0.00848553
0.00849041
0.00847818
0.00829864
0.00827844
0.00829148
0.00828339
0.00826441
0.00824426
0.0082487
0.00821187
0.00824431
0.00820667
0.00825088
0.00821241
0.00827248
0.00823755
0.00829323
0.00826838
0.00829756
0.00832064
0.00830524
0.00831663
0.00831705
0.0083203
0.00737854
0.00830088
0.00800457
0.00830925
0.0084294
0.00843848
0.00843917
0.00843805
0.00843691
0.00843381
0.00843027
0.00842597
0.00841919
0.00840608
0.00837606
0.00830657
0.0082506
0.00824974
0.00827766
0.0083142
0.00834264
0.00835876
0.00836438
0.00836713
0.00835285
0.00836161
0.00830227
0.0082515
0.00822428
0.0082278
0.00819988
0.00846345
0.00848206
0.00848931
0.00827731
0.0081515
0.00827334
0.00827853
0.00821937
0.00819252
0.00819167
0.00817288
0.00818739
0.00815396
0.00818661
0.00814467
0.00819998
0.00815567
0.00822244
0.00818331
0.00826576
0.00822229
0.00826965
0.00832404
0.00828061
0.00829713
0.00831775
0.00832342
0.0074125
0.00829707
0.00803194
0.00841475
0.00840914
0.00843795
0.00843911
0.00843812
0.00843723
0.00843445
0.00843086
0.00842627
0.00841913
0.00840752
0.00838174
0.0083206
0.00825077
0.00823492
0.00825824
0.00829621
0.00832734
0.00834441
0.00834798
0.00834226
0.0083302
0.008295
0.00825152
0.00817254
0.00801632
0.007952
0.00792517
0.00833578
0.00844722
0.00847243
0.00833505
0.00815353
0.00797099
0.00818016
0.00818144
0.00815038
0.00812002
0.00811475
0.00806907
0.00809346
0.00802762
0.00809029
0.00800538
0.0081174
0.00802227
0.00816937
0.00807902
0.00821926
0.00815793
0.00820977
0.00830385
0.00821046
0.0082146
0.00831461
0.00831683
0.00743813
0.0082869
0.00807393
0.00842515
0.00841706
0.00843654
0.00843838
0.00843792
0.00843709
0.00843499
0.00843144
0.00842655
0.00841905
0.00840832
0.00838622
0.00833454
0.00825465
0.00822214
0.00823912
0.00827672
0.00831156
0.00833106
0.0083326
0.0083174
0.00828183
0.00823523
0.00817763
0.0081549
0.00811818
0.0080117
0.00788501
0.00815383
0.00841374
0.00843694
0.0084216
0.00812019
0.00808747
0.00816517
0.00814646
0.00808984
0.00806663
0.00801928
0.00796287
0.00795287
0.00787672
0.00791363
0.00781717
0.00790514
0.00779041
0.00794838
0.00781255
0.00804749
0.00788972
0.00813305
0.00802065
0.00811212
0.00822654
0.0081063
0.00811596
0.0083087
0.00826983
0.00744464
0.00826762
0.00813269
0.00841381
0.00842439
0.00843292
0.00843659
0.00843714
0.00843687
0.00843554
0.00843205
0.00842692
0.00841919
0.00840899
0.00838984
0.0083463
0.0082609
0.00821155
0.0082201
0.00825563
0.00829446
0.00831833
0.00831924
0.00829444
0.00823956
0.00816715
0.0081117
0.00810422
0.00812695
0.00813912
0.00802863
0.00806097
0.00825043
0.00838963
0.00838085
0.008041
0.00795671
0.00792286
0.00785495
0.0080291
0.00798234
0.00790426
0.00785047
0.00779688
0.00771523
0.00772103
0.00764004
0.00769235
0.0076115
0.00769396
0.0075828
0.00774177
0.00761667
0.00785888
0.00771107
0.0079942
0.00783613
0.00799541
0.00815729
0.00802293
0.00807017
0.00829492
0.00820509
0.00741546
0.00823762
0.00821346
0.00839585
0.00840707
0.00842366
0.00843285
0.00843555
0.00843626
0.00843579
0.00843264
0.00842733
0.00841945
0.00840969
0.00839295
0.00835604
0.00827198
0.0082055
0.00820108
0.00823315
0.00827614
0.00830554
0.00830815
0.00827486
0.00820638
0.00811671
0.00807699
0.00808791
0.00812659
0.00817229
0.00820966
0.00815369
0.00816374
0.00827957
0.00834026
0.00785961
0.00749224
0.00776769
0.00765823
0.00761872
0.00754748
0.00778159
0.00770026
0.00764227
0.00758569
0.00756959
0.00747171
0.00749129
0.00739789
0.00747143
0.00739257
0.00749091
0.00737695
0.00756187
0.00749864
0.00768836
0.00762136
0.00783865
0.00769152
0.00786623
0.00808983
0.00792061
0.00794055
0.00823436
0.0081228
0.00734863
0.00820872
0.00820404
0.00838488
0.00838392
0.00840463
0.00842422
0.00843292
0.00843539
0.00843606
0.00843323
0.00842787
0.00842004
0.00841078
0.00839596
0.00836431
0.00828818
0.00820654
0.00818454
0.00821055
0.00825668
0.00829305
0.00829983
0.00826108
0.00818015
0.0080874
0.00806957
0.00806648
0.00812281
0.00822537
0.0082753
0.0082962
0.00827136
0.0082318
0.0082631
0.0079843
0.00748798
0.00714732
0.00747037
0.00735517
0.00730766
0.0072576
0.00751299
0.00741542
0.0073908
0.00729001
0.00732436
0.00721507
0.00722458
0.0070384
0.00729815
0.00740052
0.0074705
0.00741671
0.0075287
0.00753044
0.00761355
0.00760917
0.00770356
0.00762519
0.00773606
0.00801507
0.00778646
0.00784234
0.00818317
0.00805749
0.00735974
0.00814433
0.00827323
0.0083694
0.00838162
0.00840709
0.00842721
0.00843456
0.00843656
0.00843415
0.00842878
0.00842098
0.00841187
0.00839832
0.00837096
0.00830456
0.00821279
0.00817204
0.00818942
0.00823528
0.00828013
0.00829402
0.00825415
0.00816501
0.00807312
0.00800877
0.00802814
0.00801272
0.0082034
0.00833542
0.00836983
0.00835931
0.00830297
0.00821467
0.00811202
0.00704126
0.00698834
0.0072483
0.00714987
0.00717275
0.00704874
0.00697043
0.00692574
0.00725244
0.00713134
0.00707962
0.00697931
0.006992
0.00697058
0.00730247
0.0071699
0.00741608
0.00758083
0.00758728
0.00759833
0.00760731
0.00760768
0.0076179
0.00763245
0.0076438
0.00762261
0.00767202
0.00791454
0.00770196
0.00757781
0.00805881
0.00799602
0.00739439
0.0080521
0.00824708
0.00834762
0.00838614
0.00841515
0.00843221
0.00843681
0.00843532
0.00843007
0.00842221
0.00841304
0.00840004
0.00837614
0.00831851
0.00822109
0.0081628
0.00816875
0.00821111
0.00826405
0.00828863
0.00825265
0.00815845
0.00805611
0.00795465
0.00792011
0.00795488
0.00778718
0.00833814
0.00840507
0.00842471
0.00836966
0.00804221
0.00800059
0.00669418
0.00647419
0.00690436
0.00693689
0.00691142
0.00683154
0.00684426
0.0070509
0.00706973
0.00702521
0.00696699
0.00688896
0.00718065
0.00714882
0.00716629
0.00719366
0.00757943
0.00757504
0.00760361
0.00759807
0.00743183
0.00741529
0.0071401
0.00698721
0.00729161
0.00722321
0.00764296
0.00730895
0.00742297
0.00765317
0.00740547
0.00536054
0.00573035
0.00798339
0.00777643
0.00736277
0.00817518
0.00821305
0.00833766
0.00839502
0.00842266
0.00843417
0.00843536
0.00843066
0.0084226
0.00841287
0.00839976
0.0083778
0.00832848
0.00823279
0.00815799
0.00814778
0.00818396
0.00824313
0.00828121
0.0082524
0.00815796
0.0080236
0.00791056
0.00778092
0.0081103
0.00817701
0.0071884
0.00791356
0.00844731
0.00845662
0.008063
0.00781154
0.0076814
0.00678873
0.00645374
0.00698413
0.00704725
0.00694434
0.00688608
0.00696546
0.0072115
0.00689991
0.00731128
0.00712746
0.00665791
0.00751249
0.00749429
0.00756283
0.00754926
0.00757974
0.00756196
0.00755344
0.00752221
0.00739208
0.00747327
0.00749778
0.00721037
0.00728962
0.00731265
0.00736221
0.00498013
0.00526193
0.0054434
0.00518223
0.00553906
0.00600135
0.00553574
0.00524513
0.00522291
0.00536535
0.00520003
0.00800175
0.00575082
0.00590835
0.00652763
0.00705218
0.00811849
0.00818159
0.00836598
0.00840357
0.00842442
0.00843084
0.0084282
0.00842016
0.00840896
0.0083945
0.00837466
0.0083326
0.00824535
0.00815865
0.00812933
0.00815624
0.00821754
0.0082706
0.00825429
0.00816036
0.00798393
0.00784494
0.00800455
0.0080248
0.0083807
0.00746389
0.00712911
0.00824734
0.00835823
0.00819241
0.00757673
0.00736035
0.00624106
0.00602743
0.0070045
0.00696122
0.00701348
0.00696139
0.00714582
0.00707715
0.00723845
0.00716601
0.00736814
0.0073036
0.00745584
0.00741281
0.00754513
0.0075169
0.00754447
0.00753188
0.0074892
0.00746953
0.00742577
0.00739153
0.00715009
0.00711346
0.00714243
0.00499806
0.00475298
0.00503468
0.00498637
0.00500587
0.00497226
0.00526341
0.00516921
0.00516484
0.00499643
0.00512505
0.00523274
0.00530321
0.00514299
0.00512853
0.00514184
0.00516656
0.0061957
0.00743595
0.00664934
0.00541431
0.00558943
0.0070897
0.00706862
0.00753942
0.00822435
0.00817133
0.0083846
0.00840435
0.00841771
0.00841416
0.00841178
0.00839996
0.00838384
0.00836425
0.00833067
0.0082548
0.00816267
0.00811596
0.00813112
0.00818826
0.00825636
0.00825851
0.00816912
0.00797629
0.00778853
0.00796921
0.00828848
0.0082671
0.00781874
0.00787866
0.00816726
0.00835835
0.00837655
0.00755566
0.00707758
0.00782559
0.00585358
0.00612724
0.00691747
0.00635759
0.00697693
0.00692639
0.00709494
0.00702943
0.00722782
0.00715719
0.00738197
0.00731826
0.00747182
0.00742936
0.00752914
0.00750548
0.00746243
0.00746793
0.00737669
0.00738105
0.00709162
0.00707092
0.00473451
0.00480128
0.00474184
0.00475163
0.00499513
0.00508068
0.00503764
0.00481031
0.00495299
0.00494809
0.00505696
0.00500872
0.00505459
0.0051
0.00509096
0.00501685
0.00513953
0.00518048
0.0052311
0.00515243
0.0051447
0.00514897
0.00515186
0.0058601
0.00627908
0.00531318
0.0054535
0.00792262
0.0050531
0.00813481
0.00684773
0.00741339
0.00819438
0.00837703
0.00839203
0.00839258
0.00838876
0.00837169
0.00836986
0.0083492
0.00832233
0.00825998
0.00817089
0.00810896
0.00810943
0.00815724
0.00823552
0.00826166
0.00818497
0.00799879
0.00779842
0.00794608
0.00827554
0.00813415
0.00800024
0.00827585
0.00834069
0.00844006
0.00846824
0.00823704
0.00777659
0.00824083
0.00688964
0.00679704
0.00684493
0.0068548
0.00688216
0.00685362
0.00699744
0.00696562
0.0070899
0.00703427
0.00725311
0.00720398
0.00741467
0.00737465
0.00747221
0.00744738
0.00748421
0.00748486
0.00740219
0.00743834
0.00706745
0.00713548
0.00472362
0.00473524
0.00476789
0.00479884
0.00477585
0.00475428
0.00471989
0.00473524
0.00507017
0.00504543
0.00498554
0.00491964
0.00506273
0.00514216
0.00519213
0.00520118
0.00511123
0.00512986
0.00518596
0.00518253
0.00518114
0.00515952
0.00518431
0.00517067
0.005187
0.0052024
0.00516233
0.00568896
0.00606878
0.00523898
0.00534532
0.00782907
0.00449057
0.00801266
0.00661987
0.00722513
0.0083948
0.00835251
0.00836112
0.00835881
0.00833975
0.00835085
0.00833319
0.0083074
0.00825942
0.00818049
0.00810846
0.00809142
0.00812773
0.00820636
0.00825908
0.00820415
0.00804655
0.00783478
0.00795596
0.0082549
0.00809671
0.00784525
0.00810224
0.00840313
0.00840466
0.008436
0.00845998
0.0084332
0.00838095
0.00805539
0.0069929
0.00693355
0.00697167
0.00699182
0.00694767
0.00695301
0.00715433
0.0071652
0.00717042
0.00715412
0.00734848
0.00734599
0.00748213
0.00747946
0.00748396
0.00748832
0.00747683
0.0075053
0.00747428
0.0075284
0.00483135
0.00487915
0.00492044
0.00515762
0.00475593
0.00480989
0.00486577
0.00491563
0.00486089
0.00481371
0.00485593
0.00491793
0.00515184
0.00498449
0.00507614
0.00495293
0.00527497
0.00533282
0.00523176
0.0053143
0.00530486
0.00525959
0.00538839
0.00539999
0.00531363
0.00515892
0.00516357
0.00521121
0.00531554
0.00532874
0.00519082
0.00553885
0.00589073
0.00519168
0.00526452
0.00765885
0.00371842
0.00789978
0.00641322
0.00698887
0.00833564
0.00831027
0.00832145
0.00831969
0.00831482
0.00831331
0.00829117
0.00825414
0.00818702
0.00811149
0.0080784
0.00810121
0.00817381
0.00824807
0.00822282
0.00808226
0.00789116
0.00796417
0.00823019
0.00811256
0.00783535
0.00778252
0.00839259
0.00840251
0.00839946
0.0084222
0.00843995
0.00840431
0.00831836
0.00736257
0.00734956
0.00724804
0.00728139
0.00725311
0.00724285
0.00719302
0.00722911
0.00743924
0.00747994
0.00736199
0.00739334
0.00749684
0.00753329
0.00757454
0.00758987
0.00753657
0.00756248
0.00757102
0.00760961
0.00732601
0.0074785
0.00496255
0.00502325
0.00506804
0.00530398
0.00499031
0.00506456
0.00513514
0.00519239
0.00496133
0.00500979
0.00510367
0.00519781
0.00517391
0.00505645
0.00519853
0.00511891
0.00543532
0.00540842
0.00527504
0.00532241
0.00550973
0.00546999
0.00557604
0.00553855
0.00550794
0.00517521
0.00516835
0.00529912
0.00551639
0.00551769
0.00526567
0.00544297
0.00582809
0.0051758
0.00523423
0.00748706
0.00311399
0.00726673
0.00631129
0.00688903
0.00826794
0.00826381
0.00828335
0.00828265
0.00828908
0.00827265
0.0082454
0.00818991
0.00811805
0.00807117
0.00807986
0.0081407
0.00823098
0.00823824
0.00812284
0.00794334
0.00797084
0.00820284
0.00814007
0.00801344
0.00784335
0.00809558
0.00841328
0.00839965
0.00838945
0.00839214
0.00837659
0.00828072
0.0080438
0.00748425
0.00743483
0.00743296
0.00741061
0.0075594
0.00748082
0.0075243
0.00755498
0.00769512
0.00774422
0.00757785
0.00763029
0.00761936
0.00766074
0.00769091
0.00771309
0.00764568
0.00767198
0.00752281
0.00781165
0.00540459
0.00543963
0.00547005
0.0054697
0.00524176
0.00529942
0.00533829
0.00535881
0.00528852
0.00537268
0.005445
0.00549818
0.00520323
0.00529743
0.00541367
0.00552069
0.00533899
0.00527638
0.00544873
0.0053966
0.00548133
0.00539851
0.00546178
0.00537403
0.00561655
0.00565018
0.00567124
0.00556756
0.00568495
0.00523962
0.00522243
0.00547154
0.00570427
0.00570825
0.00542183
0.00548986
0.00583337
0.0052124
0.00532861
0.00726631
0.00273254
0.00634009
0.00631478
0.00680711
0.00820443
0.00822094
0.00824896
0.00825901
0.00825062
0.00823076
0.00818914
0.00812503
0.00807075
0.00806442
0.00810802
0.00820664
0.00824669
0.0081555
0.00800139
0.00798855
0.00817346
0.00816738
0.00806877
0.00777602
0.00753855
0.00841724
0.00841328
0.00839571
0.00837822
0.00835011
0.00800266
0.00797695
0.00797346
0.00785877
0.00761258
0.00781088
0.0074485
0.00744991
0.00773604
0.00757974
0.00777371
0.00777705
0.00782641
0.00789341
0.00770574
0.00775973
0.0077424
0.00777542
0.00781805
0.00781944
0.00782094
0.00781875
0.00547257
0.00561301
0.00759976
0.00563021
0.00564804
0.00561707
0.00563802
0.00553913
0.00558384
0.00560738
0.00561403
0.00561343
0.0056918
0.00575249
0.00578983
0.00550962
0.00562076
0.00574224
0.00584312
0.00560655
0.00556907
0.00574362
0.00571022
0.00546426
0.0054572
0.00573031
0.00556801
0.00562395
0.00574334
0.00567717
0.00554433
0.00577645
0.00537823
0.00534054
0.00566355
0.00581481
0.00582445
0.00561322
0.00554944
0.00585627
0.0053329
0.00541697
0.00691734
0.00371409
0.00528177
0.00628515
0.00669966
0.00814609
0.00818312
0.00821768
0.00822353
0.0082094
0.008183
0.00812851
0.00807229
0.00805281
0.00808168
0.0081677
0.00824296
0.00819024
0.00800721
0.00801374
0.00814241
0.00818295
0.00815411
0.00784379
0.00752369
0.00776487
0.0084185
0.00841257
0.00839722
0.00839045
0.00802652
0.00814599
0.0083137
0.00815671
0.00803165
0.00796387
0.0081587
0.00780011
0.00779757
0.00796618
0.00777563
0.00794338
0.00797467
0.00790982
0.00796348
0.00781112
0.00785666
0.00782535
0.00783698
0.00790871
0.00789173
0.00773412
0.00792482
0.00558487
0.00571174
0.00563509
0.00558792
0.00582421
0.00582033
0.00574101
0.00578461
0.00581319
0.00583858
0.0058388
0.00582444
0.0059236
0.00598513
0.00602583
0.00604067
0.00583258
0.00594121
0.00605222
0.00613649
0.00589371
0.00588191
0.00604864
0.00602579
0.00552866
0.00564803
0.00601183
0.00583109
0.00558256
0.00574649
0.00563442
0.00559326
0.00578246
0.00555769
0.00548537
0.00580763
0.0058381
0.00586191
0.00577184
0.00558477
0.00583544
0.00544016
0.00545783
0.0065734
0.00219882
0.00475748
0.00620475
0.00649247
0.00808971
0.00815123
0.00818834
0.00818408
0.00816712
0.0081271
0.00807339
0.00804305
0.00805947
0.00812964
0.0082237
0.00821895
0.00808326
0.00798655
0.00811044
0.00813717
0.00822736
0.00824339
0.00800631
0.00779637
0.00841227
0.00841761
0.00841595
0.00841654
0.00839148
0.00843373
0.00844532
0.00808536
0.00794484
0.00817674
0.00817449
0.00818465
0.00818083
0.00783767
0.0081358
0.00811568
0.0077039
0.00801645
0.00806891
0.00792082
0.00796365
0.00785636
0.00788552
0.00764494
0.00740915
0.00767016
0.00785762
0.0055455
0.0057059
0.00762298
0.00568666
0.005647
0.00559418
0.00551465
0.00598358
0.0059532
0.00581912
0.00588908
0.00604022
0.0060448
0.00602691
0.00599803
0.006198
0.00623923
0.00625662
0.00625009
0.00613846
0.00623436
0.0063299
0.00639674
0.00618522
0.00618937
0.00634176
0.0063187
0.00571886
0.00589934
0.00629729
0.0061015
0.00560537
0.00568221
0.00563225
0.00575083
0.00573758
0.00570044
0.00560388
0.00587688
0.00579655
0.00584342
0.00586004
0.00556099
0.00572327
0.00549661
0.005457
0.0062197
0.00368816
0.00550484
0.00592213
0.00575168
0.00803231
0.00811636
0.00815924
0.00814483
0.00811923
0.00807226
0.0080362
0.00804153
0.00809493
0.00819904
0.00823291
0.00812806
0.00799739
0.00806505
0.00808833
0.00816112
0.00829154
0.00834781
0.00822088
0.00839983
0.0084099
0.00841853
0.00842636
0.00843291
0.00844013
0.00844749
0.00830454
0.00817949
0.008046
0.00818329
0.00818135
0.00818826
0.00818607
0.00782692
0.00818781
0.00776392
0.00746679
0.00779101
0.00774731
0.00790549
0.00794024
0.00763485
0.00788923
0.00784243
0.0078547
0.00520123
0.00536393
0.00763789
0.00544266
0.00563451
0.00553075
0.00561921
0.00573571
0.00566387
0.00562246
0.00563138
0.00610775
0.00605232
0.00584796
0.00595754
0.00623264
0.00622268
0.00618987
0.00614199
0.0064395
0.00646168
0.00646464
0.00636534
0.00641732
0.00650476
0.00658648
0.00663852
0.00646846
0.00647774
0.00661816
0.00658921
0.00595652
0.00616145
0.00657995
0.00637991
0.00574464
0.00564794
0.00574417
0.00595854
0.0056988
0.00579044
0.00566308
0.00588235
0.00574179
0.0057918
0.00587545
0.00549005
0.00555616
0.00552309
0.00550155
0.00572745
0.00295521
0.00554982
0.0050136
0.00529907
0.00796377
0.00805123
0.00813089
0.00810614
0.00806945
0.00803008
0.00802711
0.0080639
0.0081647
0.00822957
0.00816394
0.00804552
0.00799832
0.00804227
0.00808638
0.00823067
0.00831338
0.00834798
0.00837606
0.00839656
0.00840979
0.00842213
0.00843167
0.00843893
0.0084456
0.00845117
0.00807048
0.00795369
0.00819189
0.00818989
0.0081929
0.00819335
0.00818838
0.00819194
0.00797331
0.00818189
0.00746227
0.00762746
0.00748958
0.00743378
0.00789971
0.00793569
0.0078695
0.00788105
0.00755778
0.00776949
0.00565078
0.00591562
0.00577087
0.00565636
0.00562917
0.00558903
0.00571533
0.00578461
0.00572649
0.00565401
0.00581352
0.00585337
0.00597832
0.00606744
0.00584713
0.00600745
0.00618027
0.00608049
0.00598487
0.00592803
0.00666915
0.00658931
0.00634386
0.00609483
0.00668167
0.00676949
0.00683986
0.00688486
0.00674794
0.00675168
0.00689543
0.00685522
0.00620155
0.00643799
0.00686025
0.0066613
0.00594813
0.00571498
0.00590658
0.00618973
0.00571151
0.00579935
0.00566073
0.0058261
0.00571086
0.00573481
0.00580112
0.00550348
0.00511321
0.00562121
0.00564245
0.005339
0.00276739
0.00495719
0.00530056
0.00512797
0.00785577
0.00798515
0.00810194
0.00806513
0.0080247
0.00801061
0.00803986
0.00811992
0.00820996
0.00819697
0.00806806
0.00801956
0.00800252
0.00801387
0.00813942
0.00827051
0.00831817
0.00834458
0.00837378