/*--------------------------------*- C++ -*----------------------------------*\
  =========                 |
  \\      /  F ield         | OpenFOAM: The Open Source CFD Toolbox
   \\    /   O peration     | Website:  https://openfoam.org
    \\  /    A nd           | Version:  dev
     \\/     M anipulation  |
\*---------------------------------------------------------------------------*/
FoamFile
{
    version     2.0;
    format      ascii;
    class       volScalarField;
    location    "2500";
    object      rDeltaT;
}
// * * * * * * * * * * * * * * * * * * * * * * * * * * * * * * * * * * * * * //

dimensions      [0 0 -1 0 0 0 0];

internalField   nonuniform List<scalar> 
9851
(
100
100
100
100
100
100
100
100
100
100
100
100
100
100
100
100
100
100
100
100
100
100
100
100
100
100
100
100
100
100
100
100
100
100
100
100
100
100
100
100
100
100
100
100
100
100
100
100
100
100
100
100
100
100
100
100
100
100
100
100
100
100
100
100
100
100
100
100
100
100
100
100
100
100
100
100
100
100
100
100
100
100
100
100
100
100
100
100
100
100
100
100
100
100
100
100
100
100
100
100
100
100
100
100
100
100
100
100
100
100
100
100
100
100
100
100
100
100
100
100
100
100
100
100
100
100
100
100
100
100
100
100
100
100
100
100
100
100
100
100
100
100
100
100
100
100
100
100
100
100
100
100
100
100
100
100
100
100
100
100
100
100
100
100
100
100
100
100
100
100
100
100
100
100
100
100
100
100
100
100
100
100
100
100
100
100
100
100
100
100
100
100
100
100
100
100
100
100
100
100
100
100
100
100
100
100
100
100
100
100
100
100
100
100
100
100
100
100
100
100
100
100
100
100
100
100
100
100
100
100
100
100
100
100
100
100
100
100
100
100
100
100
100
100
100
100
100
100
100
100
100
100
100
100
100
100
100
100
100
100
100
100
100
100
100
100
100
100
100
100
100
100
100
100
100
100
100
100
100
100
100
100
100
100
100
100
100
100
100
100
100
100
100
100
100
100
100
100
100
100
100
100
100
100
100
100
100
100
100
100
100
100
100
100
100
100
100
100
100
100
100
100
100
100
100
100
100
100
100
100
100
100
100
100
100
100
100
100
100
100
100
100
100
100
100
100
100
100
100
100
100
100
100
100
100
100
100
100
100
100
100
100
100
100
100
100
100
100
100
100
100
100
100
100
100
100
100
100
100
100
100
100
100
100
100
100
100
100
100
100
100
100
100
100
100
100
100
100
100
100
100
100
100
100
100
100
100
100
100
100
100
100
100
100
100
100
100
100
100
100
100
100
100
100
100
100
100
100
100
100
100
100
100
100
100
100
100
100
100
100
100
100
100
100
100
100
100
100
100
100
100
100
100
100
100
100
100
100
100
100
100
100
100
100
100
100
100
100
100
100
100
100
100
100
100
100
100
100
100
100
100
100
100
100
100
100
100
100
100
100
100
100
100
100
100
100
100
100
100
100
100
100
100
100
100
100
100
100
100
100
100
100
100
100
100
100
100
100
100
100
100
100
100
100
100
100
100
100
100
100
100
100
100
100
100
100
100
100
100
100
100
100
100
100
100
100
100
100
100
100
100
100
100
100
100
100
100
100
100
100
100
100
100
100
100
100
100
100
100
100
100
100
100
100
100
100
100
100
100
100
100
100
100
100
100
100
100
100
100
100
100
100
100
100
100
100
100
100
100
100
100
100
100
100
100
100
100
100
100
100
100
100
100
100
100
100
100
100
100
100
100
100
100
100
100
100
100
100
100
100
100
100
100
100
100
100
100
100
100
100
100
100
100
100
100
100
100
100
100
100
100
100
100
100
100
100
100
100
100
100
100
100
100
100
100
100
100
100
100
100
100
100
100
100
100
100
100
100
100
100
100
100
100
100
100
100
100
100
100
100
100
100
100
100
100
100
100
100
100
100
100
100
100
100
100
100
100
100
100
100
100
100
100
100
100
100
100
100
100
100
100
100
100
100
100
100
100
100
100
100
100
100
100
100
100
100
100
100
100
100
100
100
100
100
100
100
100
100
100
100
100
100
100
100
100
100
100
100
100
100
100
100
100
100
100
100
100
100
100
100
100
100
100
100
100
100
100
100
100
100
100
100
100
100
100
100
100
100
100
100
100
100
100
100
100
100
100
100
100
100
100
100
100
100
100
100
100
100
100
100
100
100
100
100
100
100
100
100
100
100
100
100
100
100
100
100
100
100
100
100
100
100
100
100
100
100
100
100
100
100
100
100
100
100
100
100
100
100
100
100
100
100
100
100
100
100
100
100
100
100
100
100
100
100
100
100
100
100
100
100
100
100
100
100
100
100
100
100
100
100
100
100
100
100
100
100
100
100
100
100
100
100
100
100
100
100
100
100
100
100
100
100
100
100
100
100
100
100
100
100
100
100
100
100
100
100
100
100
100
100
100
100
100
100
100
100
100
100
100
100
100
100
100
100
100
100
100
100
100
100
100
100
100
100
100
100
100
100
100
100
100
100
100
100
100
100
100
100
100
100
100
100
100
100
100
100
100
100
100
100
100
100
100
100
100
100
100
100
100
100
100
100
100
100
100
100
100
100
100
100
100
100
100
100
100
100
100
100
100
100
100
100
100
100
100
100
100
100
100
100
100
100
100
100
100
100
100
100
100
100
100
100
100
100
100
100
100
100
100
100
100
100
100
100
100
100
100
100
100
100
100
100
100
100
100
100
100
100
100
100
100
100
100
100
100
100
100
100
100
100
100
100
100
100
100
100
100
100
100
100
100
100
100
100
100
100
100
100
100
100
100
100
100
100
100
100
100
100
100
100
100
100
100
100
100
100
100
100
100
100
100
100
100
100
100
100
100
100
100
100
100
100
100
100
100
100
100
100
100
100
100
100
100
100
100
100
100
100
100
100
100
100
100
100
100
100
100
100
100
100
100
100
100
100
100
100
100
100
100
100
100
100
100
100
100
100
100
100
100
100
100
100
100
100
100
100
100
100
100
100
100
100
100
100
100
100
100
100
100
100
100
100
100
100
100
100
100
100
100
100
100
100
100
100
100
100
100
100
100
100
100
100
100
100
100
100
100
100
100
100
100
100
100
100
100
100
100
100
100
100
100
100
100
100
100
100
100
100
100
100
100
100
100
100
100
100
100
100
100
100
100
100
100
100
100
100
100
100
100
100
100
100
100
100
100
100
100
100
100
100
100
100
100
100
100
100
100
100
100
100
100
100
100
100
100
100
100
100
100
100
100
100
100
100
100
100
100
100
100
100
100
100
100
100
100
100
100
100
100
100
100
100
100
100
100
100
100
100
100
100
100
100
100
100
100
100
100
100
100
100
100
100
100
100
100
100
100
100
100
100
100
100
100
100
100
100
100
100
100
100
100
100
100
100
100
100
100
100
100
100
100
100
100
100
100
100
100
100
100
100
100
100
100
100
100
100
100
100
100
100
100
100
100
100
100
100
100
100
100
100
100
100
100
100
100
100
100
100
100
100
100
100
100
100
100
100
100
100
100
100
100
100
100
100
100
100
100
100
100
100
100
100
100
100
100
100
100
100
100
100
100
100
100
100
100
100
100
100
100
100
100
100
100
100
100
100
100
100
100
100
100
100
100
100
100
100
100
100
100
100
100
100
100
100
100
100
100
100
100
100
100
100
100
100
100
100
100
100
100
100
100
100
100
100
100
100
100
100
100
100
100
100
100
100
100
100
100
100
100
100
100
100
100
100
100
100
100
100
100
100
100
100
100
100
100
100
100
100
100
100
100
100
100
100
100
100
100
100
100
100
100
100
100
100
100
100
100
100
100
100
100
100
100
100
100
100
100
100
100
100
100
100
100
100
100
100
100
100
100
100
100
100
100
100
100
100
100
100
100
100
100
100
100
100
100
100
100
100
100
100
100
100
100
100
100
100
100
100
100
100
100
100
100
100
100
100
100
100
100
100
100
100
100
100
100
100
100
100
100
100
100
100
100
100
100
100
100
100
100
100
100
100
100
100
100
100
100
100
100
100
100
100
100
100
100
100
100
100
100
100
100
100
100
100
100
100
100
100
100
100
100
100
100
100
100
100
100
100
100
100
100
100
100
100
100
100
100
100
100
100
100
100
100
100
100
100
100
100
100
100
100
100
100
100
100
100
100
100
100
100
100
100
100
100
100
100
100
100
100
100
100
100
100
100
100
100
100
100
100
100
100
100
100
100
100
100
100
100
100
100
100
100
100
100
100
100
100
100
100
100
100
100
100
100
100
100
100
100
100
100
100
100
100
100
100
100
100
100
100
100
100
100
100
100
100
100
100
100
100
100
100
100
100
100
100
100
100
100
100
100
100
100
100
100
100
100
100
100
100
100
100
100
100
100
100
100
100
100
100
100
100
100
100
100
100
100
100
100
100
100
100
100
100
100
100
100
100
100
100
100
100
100
100
100
100
100
100
100
100
100
100
100
100
100
100
100
100
100
100
100
100
100
100
100
100
100
100
100
100
100
100
100
100
100
100
100
100
100
100
100
100
100
100
100
100
100
100
100
100
100
100
100
100
100
100
100
100
100
100
100
100
100
100
100
100
100
100
100
100
100
100
100
100
100
100
100
100
100
100
100
100
100
100
100
100
100
100
100
100
100
100
100
100
100
100
100
100
100
100
100
100
100
100
100
100
100
100
100
100
100
100
100
100
100
100
100
100
100
100
100
100
100
100
100
100
100
100
100
100
100
100
100
100
100
100
100
100
100
100
100
100
100
100
100
100
100
100
100
100
100
100
100
100
100
100
100
100
100
100
100
100
100
100
100
100
100
100
100
100
100
100
100
100
100
100
100
100
100
100
100
100
100
100
100
100
100
100
100
100
100
100
100
100
100
100
100
100
100
100
100
100
100
100
100
100
100
100
100
100
100
100
100
100
100
100
100
100
100
100
100
100
100
100
100
100
100
100
100
100
100
100
100
100
100
100
100
100
100
100
100
100
100
100
100
100
100
100
100
100
100
100
100
100
100
100
100
100
100
100
100
100
100
100
100
100
100
100
100
100
100
100
100
100
100
100
100
100
100
100
100
100
100
100
100
100
100
100
100
100
100
100
100
100
100
100
100
100
100
100
100
100
100
100
100
100
100
100
100
100
100
100
100
100
100
100
100
100
100
100
100
100
100
100
100
100
100
100
100
100
100
100
100
100
100
100
100
100
100
100
100
100
100
100
100
100
100
100
100
100
100
100
100
100
100
100
100
100
100
100
100
100
100
100
100
100
100
100
100
100
100
100
100
100
100
100
100
100
100
100
100
100
100
100
100
100
100
100
100
100
100
100
100
100
100
100
100
100
100
100
100
100
100
100
100
100
100
100
100
100
100
100
100
100
100
100
100
100
100
100
100
100
100
100
100
100
100
100
100
100
100
100
100
100
100
100
100
100
100
100
100
100
100
100
100
100
100
100
100
100
100
100
100
100
100
100
100
100
100
100
100
100
100
100
100
100
100
100
100
100
100
108.197
100
100
100
100
100
100
100
100
100
100
100
100
100
100
100
100
100
100
100
100
100
100
100
100
100
100
100
100
100
100
100
100
100
100
100
100
100
100
100
100
100
100
100
100
100
100
100
100
100
100
100
100
100
100
100
100
100
100
100
100
100
100
100
100
100
100
100
100
100
100
100
100
100
100
100
100
100
100
100
100
100
100
100
100
100
100
100
100
100
100
100
100
100
100
100
213.954
115.531
100
100
100
100
100
100
100
100
100
100
100
100
100
100
100
100
100
100
100
100
100
100
100
100
100
100
100
100
100
100
100
100
100
100
100
100
100
100
100
100
100
100
100
100
100
100
100
100
100
100
100
100
100
100
100
100
100
100
100
100
100
100
100
100
100
100
100
100
100
100
100
100
100
100
100
100
100
100
100
100
100
100
100
100
100
100
100
100
100
100
100
100
100
100
100
100
125.208
100
100
100
100
100
100
100
100
100
100
100
100
100
100
100
100
100
100
100
100
100
100
100
100
100
100
100
100
100
100
100
100
100
100
100
100
100
100
100
100
100
100
100
100
100
100
100
100
100
100
100
100
100
100
100
100
100
100
100
100
100
100
100
100
100
100
100
100
100
100
101.806
100
100
100
100
100
100
100
100
100
100
100
100
100
100
100
100
100
100
100
100
100
100
100
100
100
100
100
100
100
100
100
100
100
100
100
100
100
100
100
100
100
100
100
100
100
100
100
100
100
100
100
100
100
100
100
100
100
100
100
100
100
100
100
100
100
100
100
100
100
100
100
100
100
100
100
100
100
100
100
100
100
100
100
100
100
100
100
100
100
100
106.045
101.692
100
100
105.599
107.594
108.768
108.728
100
102.045
107.465
112.832
100
100
100
100
100
100
100
100
100
100
100
100
100
100
100
100
100
100
100
100
100
100
100
100
100
100
100
100
100
100
100
100
100
100
100
100
100
100
100
100
100
100
100
100
100
100
100
100
100
100
100
100
100
100
100
100
100
100
100
100
100
100
100
100
100
100
100
100
100
100
100
100
100
100
100
100
100
100
100
100
100
100
100
100
100
100
100
100
100
100
100
120.891
116.595
106.278
111.654
117.831
120.797
122.823
123.256
104.195
110.788
117.341
123.891
100
100
100
104.368
100
100
100
100
100
100
100
100
100
100
100
100
100
100
100
100
100
100
100
100
100
100
100
100
183.288
107.736
100
100
100
100
100
100
100
100
100
100
100
100
100
100
100
100
100
100
100
100
100
100
100
100
100
100
100
100
100
100
100
100
100
100
100
100
100
100
100
100
100
100
100
100
100
100
100
100
100
100
100
100
100
100
100
100
100
102.188
100.884
100
109.884
109.673
136.285
132.047
119.575
126.231
130.158
134.174
136.965
137.814
111.817
119.451
127.122
134.902
100
100
102.962
111.093
100
100
100
100
100
100
100.663
100
100
100
100
100
100
100
100
100
100
100
100
100
100
100
100
100
227.431
106.631
100
100
100
100
100
100
100
100
100
100
100
100
100
100
100
100
100
100
100
100
100
100
100
100
100
100
100
100
100
100
100
100
100
100
100
100
100
100
100
100
100
100
100
100
100
100
100
100
100
100
100
110.269
104.936
114.109
107.265
108.615
105.539
114.77
118.154
112.911
110.094
122.203
122.584
152.611
148.307
132.935
141.225
142.461
147.835
151.641
153.237
119.478
128.119
136.9
145.803
100
100.569
109.354
118.379
105.692
100
111.387
103.779
100
102.719
115.47
108.517
100
100.646
105.665
103.452
105.057
100
100
100.165
108.121
113.262
102.673
100
100
100
100
100
100
100
100
100
100
100
100
100
100
100
100
100
100
100
100
100
100
100
100
100
100
100
100
100
100
100
100
100
100
100
100
100
100
100
100
100
100
100
100
100
100
100
100
100
100
100
100
100
100
100
100
100
100
100.773
125.349
120.437
127.262
120.865
121.831
119.855
128.781
131.791
124.716
122.648
134.346
134.388
169.018
165.106
147.064
157.131
154.59
161.728
166.892
169.139
127.625
137.139
146.9
156.909
106.534
110.7
117.238
127.196
122.136
117.941
129.455
123.675
110.554
120.456
147.585
132.783
112.527
112.77
123.073
122.878
120.165
103.788
103.798
119.001
129.851
137.894
121.123
100
100
102.176
100
100
100
100
100
100
100
100
100
100
100
100
100
100
100
100
100
100
100
100
100
100
100
100
100
100
100
100
100
100
100
100
100
100
100
100
100
100
100
100
100
100
100
100
100
100
100
100
100
100
100
100
100
113.852
107.041
104.369
112.571
138.08
133.359
137.379
131.149
133.407
132.747
141.18
143.761
137.234
135.278
146.724
145.941
186.225
182.884
162.421
174.449
167.022
176.196
183.171
186.126
136.966
146.948
157.492
168.601
127.722
129.603
131.476
138.29
158.183
139.011
165.628
148.393
138.663
158.407
192.925
177.861
138.735
137.205
158.814
160.31
150.82
120.943
118.07
141.424
159.332
163.704
140.617
100
100
110.833
104.994
100
100
100
100
100
100
100
100
100
100
100
100
100
100
100
100
100
100
100
100
100
100
100
100
100
100
100
100
100
100
100
100
100
100
100
100
100
100
100
100
100
100
100
100
100
100
100
100
100
100
100
104.716
100
100
125.073
119.201
112.67
120.891
148.488
143.695
145.608
140.036
145.093
145.241
152.095
154.601
150.98
148.068
159.136
157.072
205.017
202.242
180.115
193.675
180.276
191.574
200.88
204.832
148.2
158.15
169.065
181.161
153.354
153.539
154.027
155.589
187.817
178.168
195.594
188.538
181.057
196.72
216.379
203.714
181.935
176.647
204.834
202.36
185.359
136.695
128.929
162.542
189.145
189.458
158.357
100
100
121.067
110.915
100
100
100
100
100
100
100
100
100
100
100
100
100
100
100
100
100
100
100
100
100
100
100
100
100
100
100
100
100
100
100
100
100
100
100
100
100
100
100
100
100
100
100
100
100
100
100
100
100
100
100
100
109.306
100.868
100
134.706
128.488
117.385
125.632
157.3
152.288
152.675
147.749
156.957
156.805
161.18
164.297
166.811
161.557
171.235
168.73
225.527
223.123
200.159
214.389
195.128
208.662
219.682
225.283
162.704
172.291
182.664
194.726
188.263
188.561
185.967
183.698
240.773
210.021
257.062
220.446
207.503
219.429
152.319
268.042
209.63
214.959
222.153
223.78
217.267
151.154
142.056
185.662
219.553
217.814
178.872
100.773
100
128.817
117.704
100
129.257
100
100
100
100
100
100
100
100
100
100
100
100
100
100
100
100
100
100
100
100
100
100
100
100
100
100
100
100
100
100
100
100
100
100
100
100
100
100
100
100
100
100
100
100
100
100
100
100
100
100
112.575
103.872
100
141.763
134.072
121.159
129.521
165.167
159.285
158.313
153.233
168.999
167.352
169.637
173.352
184.468
175.616
183.014
180.467
247.497
245.959
223.485
237.399
211.962
229.289
240.011
247.422
184.86
192.47
201.07
209.506
243.996
244.962
238.63
236.702
290.429
267.924
306.563
149.718
262.984
155.55
184.268
324.248
269.039
228.586
149.576
154.475
230.145
168.613
151.889
212.021
232.06
226.984
201.618
103.585
100
138.691
122.281
100
416.805
145.489
100
100
100
100
100
100
100
100
100
100
100
100
100
100
100
100
100
100
100
100
100
100
100
100
100
100
100
100
100
100
100
100
100
100
100
100
100
100
100
100
100
100
100
100
100
100
100
100
100
115.044
105.567
100
146.307
137.85
124.265
133.384
170.971
164.122
164.006
157.665
180.14
177.18
177.031
181.337
205.479
191.266
197.394
192.359
271.146
269.861
250.424
262.787
226.965
246.296
260.386
269.9
234.532
239.08
246.428
249.59
286.988
283.942
278.363
273.203
340.444
321.417
358.682
177.826
323.016
187.031
215.369
381.044
327.129
151.819
183.085
187.869
152.212
180.888
164.151
215.5
154.024
150.927
206.418
107.199
100
146.258
129.792
100
206.081
100
100
100
100
100
100
100
100
100
100
100
100
100
100
100
100
100
100
100
100
100
100
100
100
100
100
100
100
100
100
100
100
100
100
100
100
100
100
100
100
100
100
100
100
100
100
100
100
100
100
100
100
118.298
107.629
100.848
150.166
141.682
128.384
138.048
176.394
169.417
170.356
162.388
190.342
186.492
183.606
189.149
231.837
211.121
217.657
204.711
288.575
287.689
279.768
288.353
260.734
283.5
300.858
296.521
271.307
272.479
279.213
281.656
333.226
328.275
321.545
314.617
388.807
376.991
407.843
205.863
383.821
219.715
243.582
433.566
388.588
184.241
218.681
222.089
184.319
191.814
174.8
148.078
186.432
182.483
213.59
271.905
111.408
100
156.882
134.695
100
100
100
100
100
100
100
100
100
100
100
100
100
100
100
100
100
100
100
100
100
100
100
100
100
100
100
100
100
100
100
100
100
100
100
100
100
100
100
100
100
100
100
100
100
100
100
100
100
100
100
100
100
100
122.788
111.808
105.707
154.847
146.498
134.074
144.73
183.708
176.655
177.42
168.551
199.803
195.884
189.619
196.518
263.547
237.971
249.747
224.448
315.087
324.192
299.541
316.908
295.11
310.58
173.535
311.928
312.39
311.858
317.712
319.511
380.064
374.731
366.142
358.645
427.096
234.173
437.7
249.891
444.048
220.192
249.381
252.618
220.454
199.228
185.14
178.524
222.476
218.462
147.88
327.812
116.221
100.516
163.968
142.092
100
100
100
100
100
100
100
100
100
100
100
100
100
100
100
100
100
100
100
100
100
100
100
100
100
100
100
100
100
100
100
100
100
100
100
100
100
100
100
100
100
100
100
100
100
100
100
100
100
100
100
100
100
100
100
100
100
129.083
117.93
110.744
161.261
153.15
140.442
151.733
192.631
184.815
186.712
177.173
211.112
205.1
197.069
205.897
295.225
275.572
292.787
255.938
180.521
341.559
317.746
325.894
335.643
345.437
193.089
347.193
355.179
354.574
359.219
360.193
251.429
251.891
207.533
266.558
190.3
213.161
253.942
250.708
179.193
392.293
121.448
101.58
173.297
149.779
100
100
100
100
100
100
100
100
100
100
100
100
100
100
100
100
100
100
100
100
100
100
100
100
100
100
100
100
100
100
100
100
100
100
100
100
100
100
100
100
100
100
100
100
100
100
100
100
100
100
100
100
100
101.962
100
100
100
136.933
124.361
117.357
169.661
161.03
148.391
159.054
202.205
194.38
197.44
187.013
228.057
216.278
207.806
221.808
324.155
305.055
306.994
294.922
198.241
376.806
346.594
189.755
358.787
377.164
384.15
216.018
392.676
144.85
321.277
200.574
252.593
244.274
214.699
451.05
124.481
100.925
176.728
154.301
100
100
108.4
100
100
100
100
100
100
100
100
100
100
100
100
100
100
100
100
100
100
100
100
100
100
100
100
100
100
100
100
100
100
100
100
100
100
100
100
100
100
100
100
100
100
100
100
100
100
100
100
100
100
100
108.522
104.359
100
100
146.292
132.082
124.011
178.581
168.8
159.073
169.692
215.675
205.943
210.064
198.138
257.695
235.928
226.36
246.266
322.577
180.45
309.168
221.878
411.655
388.364
205.08
406.763
238.837
434.817
176.676
383.512
142.579
309.878
247.435
126.987
100
188.02
249.319
161.377
100
100
127.947
100
100
100
100
100
100
100
100
100
100
100
100
100
100
100
100
100
100
100
100
100
100
100
100
100
100
100
100
100
100
100
100
100
100
100
100
100
100
100
100
100
100
100
100
100
100
100
100
100
100
100
100
100
115.058
108.198
100
100
155.821
140.227
131.018
188.085
178.853
169.28
180.443
235.736
220.348
225.025
211.379
289.311
264.66
254.596
279.478
360.812
177.429
199.896
243.26
425.392
228.301
447.913
212.221
441.668
174.983
374.481
129.738
100
199.265
249.325
301.154
160.72
103.319
100
141.56
100
100
100
100
100
100
100
100
100
100
100
100
100
100
100
100
100
100
100
100
100
100
100
100
100
100
100
100
100
100
100
100
100
100
100
100
100
100
100
100
100
100
100
100
100
100
100
100
100
100
100
100
100
100
121.852
111.064
100
100
166.13
148.436
140.154
199.771
190.643
180.364
191.719
259.722
238.68
243.277
228.857
316.702
287.833
285.86
288.535
412.676
186.952
201.176
226.537
249.184
245.255
209.896
434.12
126.017
100
139.754
307.107
357.002
155.177
227.888
127.741
100
148.607
100
101.046
100
100
100
100
100
100
100
100
100
100
100
100
100
100
100
100
100
100
100
100
100
100
100
100
100
100
100
100
100
100
100
100
100
100
100
100
100
100
100
100
100
100
100
100
100
100
100
100
100
100
100
100
100
128.679
115.956
100
100
176.486
158.082
149.434
214.824
203.332
190.719
203.148
281.836
260.399
261.636
247.618
320.848
283.766
175.973
457.347
211.072
230.145
250.146
241.271
121.969
100
170.476
369.848
409.348
152.1
213.811
275.741
148.288
100
151.733
100
118.623
100
100
100
100
100
100
100
100
100
100
100
100
100
100
100
100
100
100
100
100
100
100
100
100
100
100
100
100
100
100
100
100
100
100
100
100
100
100
100
100
100
100
100
100
100
100
100
100
100
100
100
100
100
100
135.289
125.231
107.591
100.254
189.193
169.471
156.779
231.322
216.855
202.515
215.808
291.154
279.92
280.443
267.57
362.448
172.74
200.448
238.816
256.173
120.081
103.374
205.282
429.972
151.591
211.835
262.36
330.605
164.901
100
151.466
106.14
135.287
100
100
100
100
100
100
100
100
100
100
100
100
100
100
100
100
100
100
100
100
100
100
100
100
100
100
100
100
100
100
100
100
100
100
100
100
100
100
100
100
100
100
100
100
100
110.843
108.96
106.44
102.605
100
100
100
100
100
100
144.614
132.608
115.072
111.486
201.869
179.239
165.507
250.192
232.693
216.07
231.255
301.873
345.271
292.834
292.598
285.039
410.237
198.361
225.624
265.045
124.606
110.528
236.804
154.733
208.245
259.505
320.087
382.07
176.638
100
149.978
117.067
149.476
100
100
100
100
100
100
100
100
100
100
100
100
100
100
100
100
100
100
100
100
100
100
100
100
100
100
100
100
100
100
100
100
100
100
100
100
100
100
100
100
100
100
100
100
122.007
119.699
117.297
113.541
108.182
102.276
100
100
100
100
100
103.94
153.024
139.533
124.17
212.002
187.862
175.597
269.409
250.599
228.122
247.53
191.47
386.659
296.159
299.604
299.831
458.488
222.622
250.742
129.424
117.252
158.836
207.609
254.501
314.991
374.594
183.689
100
148.111
127.274
161.578
100
100
100
100
100
100
100
100
100
100
100
100
100
100
100
100
100
100
100
100
100
100
100
100
100
100
100
100
100
100
100
100
100
100
100
100
100
100
100
100
100
100
100
100
133.695
130.189
127.564
124.051
118.578
112.237
100
100
100
100
100
103.449
100.079
113.028
158.968
147.629
223.505
199.409
182.634
287.859
269.253
239.193
263.309
216.091
188.265
425.196
308.825
356.131
309.709
246.663
133.07
124.014
161.764
208.362
253.276
308.846
366.176
186.776
100
143.969
135.631
168.282
100
100
100
100
100
100
100
100
100
100
100
100
100
100
100
100
100
100
100
100
100
100
100
100
100
100
100
100
100
100
100
100
100
100
100
100
100
100
100
100
100
100
100
100
100
141.305
137.618
134.246
128.618
121.872
100
100
100
100
100
100
100
111.683
107.224
122.078
165.831
154.578
237.129
209.55
189.411
306.845
288.6
256.187
285.616
237.762
205.416
468.162
194.34
383.619
322.486
137.311
129.569
167.047
207.766
253.019
306.675
358.92
181.619
100
139.208
141.897
169.209
100
100
100
100
100
100
100
100
100
100
100
100
100
100
100
100
100
100
100
100
100
100
100
100
100
100
100
100
100
100
100
100
100
100
100
100
100
100
100
100
100
100
100
100
148.055
144.132
138.669
130.767
100
100
100
100
100
100
100
101.778
100
120.044
114.783
130.638
172.521
160.231
247.948
217.852
196.214
321.848
310.511
271.773
307.606
260.436
223.043
375.624
211.343
411.366
338.716
140.558
135.006
170.284
213.844
252.07
305.842
355.233
166.504
138.942
156.699
143.032
158.826
100
100
100
100
100
100
100
100
100
100
100
100
100
100
100
100
100
100
100
100
100
100
100
100
100
100
100
100
100
100
100
100
100
100
100
100
100
100
100
100
100
100
100
100
100
153.804
148.327
139.843
100
100
100
100
100
100
100
100
100
108.564
102.253
128.233
122.344
139.543
177.072
164.391
256.88
225.048
200.049
332.002
331.123
286.589
327.584
244.479
395.901
215.491
228.425
448.236
144.874
137.294
175.468
214.955
257.825
305.316
353.652
167.441
328.388
197.994
139.209
145.19
100
100
100
100
100
100
100
100
100
100
100
100
100
100
100
100
100
100
100
100
100
100
100
100
100
100
100
100
100
100
100
100
100
100
100
100
100
100
100
100
100
100
100
100
100
157.454
149.151
100
100
100
100
100
100
100
100
100
100
100
115.31
108.105
136.792
130.37
148.818
179.65
167.155
265.873
230.138
201.473
350.355
347.823
300.92
341.495
415.131
226.403
395.151
248.478
147.12
137.359
178.629
222.287
260.296
310.236
353.658
175.367
782.612
281.665
128.868
129.81
100
100
100
100
100
100
100
100
100
100
100
100
100
100
100
100
100
100
100
100
100
100
100
100
100
100
100
100
100
100
100
100
100
100
100
100
100
100
100
100
100
100
100
100
100
158.365
100
100
100
100
100
100
100
100
100
100
101.191
100
122.536
114.35
145.285
138.306
158.443
181.185
168.245
272.528
232.711
201.625
369.72
353.013
310.464
347.837
443.18
236.377
412.993
227.695
149.485
133.095
178.281
231.35
267.416
314.593
357.045
135.041
164.691
100
114.532
100
100
100
100
100
100
100
100
100
100
100
100
100
100
100
100
100
100
100
100
100
100
100
100
100
100
100
100
100
100
100
100
100
100
100
100
100
100
100
100
100
100
100
100
100
100
100
100
100
100
100
100
100
100
100
100
100
100
106.496
100
129.743
120.634
154.237
146.958
169.153
181.794
277.412
233.527
200.524
351.45
318.748
354.208
250.092
427.621
235.499
372.846
146.297
124.813
178.949
228.877
276.774
321.714
362.158
100
100
100
100
100
100
100
100
100
100
100
100
100
100
100
100
100
100
100
100
100
100
100
100
100
100
100
100
100
100
100
100
100
100
100
100
100
100
100
100
100
100
100
100
100
100
100
100
100
100
100
100
100
100
100
100
100
100
100
100
100
100
100
100
111.911
104
137.817
127.838
164.888
156.788
182.1
281.075
232.344
198.461
367.759
329.578
368.551
446.561
241.394
390.43
388.087
139.461
114.779
168.603
208.784
141.705
275.945
331.114
369.641
100
100
100
100
100
100
100
100
100
100
100
100
100
100
100
100
100
100
100
100
100
100
100
100
100
100
100
100
100
100
100
100
100
100
100
100
100
100
100
100
100
100
100
100
100
100
100
100
100
100
100
100
100
100
100
100
100
100
100
100
100
100
100
100
100
103.344
118.458
110.413
146.37
135.719
176.1
166.196
280.85
228.947
190.598
397.591
338.091
375.726
248.192
402.341
404.391
425.091
130.375
107.77
201.914
158.044
266.659
171.996
332.149
378.867
100
100
100
100
100
100
100
100
100
100
100
100
100
100
100
100
100
100
100
100
100
100
100
100
100
100
100
100
100
100
100
100
100
100
100
100
100
100
100
100
100
100
100
100
100
100
100
100
100
100
100
100
100
100
100
100
100
100
100
100
100
100.648
100.307
105.868
107.174
108.624
112.941
126.325
118.47
155.452
145.448
180.038
273.93
220.036
415.59
333.619
367.494
412.415
416.829
440.417
229.57
123.52
109.26
185.66
148.063
239.281
318.594
206.321
382.869
100
100
100
100
100
100
100
100
100
100
100
100
100
100
100
100
100
100
100
100
100
100
100
100
100
100
100
100
100
100
100
100
100
100
100
100
100
100
100
100
100
100
100
100
100
100
100
100
100
100
100
100
100
100
100
100
100
100
100
100
100
100
100
108.645
107.65
116.394
117.691
119.347
124.311
136.663
128.952
169.575
159.969
208.822
262.126
321.62
358.503
371.904
425.013
448.569
240.152
119.956
114.942
182.9
139.11
290.826
142.902
377.083
237.009
100
100
100
100
100
100
100
100
100
100
100
100
100
100
100
100
100
100
100
100
100
100
100
100
100
100
100
100
100
100
100
100
100
100
100
100
100
100
100
100
100
100
100
100
100
100
100
100
100
100
100
100
100
100
100
100
100
100
100
100
102.236
100
105.921
104.026
119.032
117.846
128.679
130.135
132.237
138.115
151.5
143.574
197.25
186.578
247.755
307.045
345.743
365.701
387.69
451.109
248.169
126.027
109.385
204.178
174.032
136.421
351.012
172.757
250.904
431.984
100
100
100
100
100
100
100
100
100
100
100
100
100
100
100
100
100
100
100
100
100
100
100
100
100
100
100
100
100
100
100
100
100
100
100
100
100
100
100
100
100
100
100
100
100
100
100
100
100
100
100
100
100
100
100
100
100.064
100
100
100
100
103.516
108.444
115.525
112.376
131.434
130.656
143.388
145.237
148.869
155.774
176.652
166.876
233.247
290.039
327.611
359.495
381.244
402.781
251.591
132.814
100
198.764
161.494
140.881
407.214
207.024
308.404
145.827
100
100
100
100
100
100
100
100
100
100
100
100
100
100
100
100
100
100
100
100
100
100
100
100
100
100
100
100
100
100
100
100
100
100
100
100
100
100
100
100
100
100
100
100
100
100
100
100
100
100
100
100.334
101.002
100
102.615
100
100.846
100.289
100.57
102.454
100
100
100.422
110.934
118.147
128.417
124.253
146.818
146.872
161.72
163.889
173.77
180.86
219.61
210.061
275.26
317.431
344.494
374.104
397.168
409.737
127.794
100
194.154
152.659
147.031
239.225
372.735
176.756
218.167
257.905
100
100
100
100
100
100
100
100
100
100
100
100
100
100
100
100
100
100
100
100
100
100
100
100
100
100
100
100
100
100
100
100
100
100
100
100
100
100
100
100
100
100
100
100
100
100
100
100
100
100
100
100
100
105.695
103.854
100
103.755
102.703
105.006
102.591
102.729
102.973
104.577
100.377
100.146
103.041
123.627
132.776
145.084
140.523
165.731
166.481
186.673
188.717
216.593
221.425
272.796
322.146
346.274
359.006
388.613
404.558
110.863
100
182.4
155.657
142.937
433.013
212.287
314.559
207.125
149.874
100
100
100
100
100
100
100
100
100
100
100
100
100
100
100
100
100
100
100
100
100
100
100
100
100
100
100
100
100
100
100
100
100
100
100
100
100
100
100
100
100
100
100
100