/*--------------------------------*- C++ -*----------------------------------*\
  =========                 |
  \\      /  F ield         | OpenFOAM: The Open Source CFD Toolbox
   \\    /   O peration     | Website:  https://openfoam.org
    \\  /    A nd           | Version:  dev
     \\/     M anipulation  |
\*---------------------------------------------------------------------------*/
FoamFile
{
    version     2.0;
    format      ascii;
    class       volScalarField;
    location    "2500";
    object      rho;
}
// * * * * * * * * * * * * * * * * * * * * * * * * * * * * * * * * * * * * * //

dimensions      [1 -3 0 0 0 0 0];

internalField   nonuniform List<scalar> 
9851
(
1.17171
1.17154
1.17161
1.17151
1.1712
1.17167
1.17149
1.17099
1.17118
1.17175
1.17152
1.17091
1.17084
1.17124
1.17179
1.17153
1.17087
1.17064
1.17091
1.17136
1.17179
1.17156
1.17094
1.17051
1.17057
1.17096
1.17143
1.17182
1.17159
1.17101
1.17044
1.17032
1.17065
1.17109
1.1715
1.17185
1.17159
1.17101
1.17044
1.17019
1.1703
1.17076
1.17118
1.17153
1.17186
1.17163
1.17105
1.17049
1.17013
1.1701
1.1704
1.17089
1.17129
1.17157
1.17186
1.17162
1.17108
1.17055
1.17011
1.16992
1.17011
1.1705
1.17099
1.17133
1.1716
1.17187
1.17166
1.17114
1.17067
1.17016
1.16984
1.16991
1.17023
1.17066
1.17104
1.17136
1.17162
1.17188
1.17164
1.17118
1.17075
1.17014
1.16977
1.16972
1.16995
1.17037
1.17077
1.1711
1.17139
1.17165
1.17189
1.17167
1.17123
1.17073
1.17019
1.16978
1.1696
1.16974
1.17011
1.17052
1.17085
1.17115
1.17142
1.17166
1.17191
1.17165
1.17121
1.17078
1.1703
1.16981
1.16952
1.16952
1.16981
1.17021
1.17062
1.17092
1.17117
1.17143
1.17167
1.1719
1.17166
1.17127
1.17086
1.17032
1.16982
1.16949
1.16942
1.16956
1.16993
1.17032
1.17068
1.17096
1.17121
1.17145
1.17168
1.17191
1.17166
1.17129
1.17086
1.1704
1.16991
1.16948
1.16931
1.1694
1.16971
1.17006
1.17043
1.17074
1.17102
1.17123
1.17146
1.17168
1.1719
1.17166
1.17129
1.17092
1.17046
1.16997
1.16952
1.16926
1.16924
1.16943
1.16983
1.17018
1.17052
1.1708
1.17103
1.17125
1.17148
1.17169
1.17191
1.17167
1.17132
1.17094
1.1705
1.17008
1.16964
1.16924
1.16911
1.16925
1.16954
1.16993
1.17029
1.17059
1.17084
1.17106
1.17127
1.17149
1.17169
1.17191
1.17168
1.17134
1.17096
1.17058
1.17018
1.16967
1.16922
1.16906
1.16908
1.16934
1.16968
1.17005
1.17039
1.17067
1.17088
1.1711
1.17128
1.17149
1.1717
1.17191
1.1717
1.17135
1.17098
1.17064
1.17022
1.16971
1.16927
1.169
1.16896
1.16912
1.16945
1.16981
1.17017
1.17046
1.17069
1.17091
1.1711
1.1713
1.17149
1.17171
1.17191
1.1717
1.17134
1.17101
1.1707
1.17026
1.16978
1.16933
1.16899
1.16889
1.16896
1.16925
1.16958
1.16993
1.17025
1.1705
1.17071
1.17092
1.17112
1.17131
1.1715
1.1717
1.17192
1.1717
1.17136
1.17106
1.17071
1.17033
1.16992
1.16944
1.16901
1.16881
1.16885
1.16901
1.16938
1.16969
1.17002
1.1703
1.17054
1.17076
1.17093
1.17112
1.1713
1.1715
1.1717
1.17192
1.17172
1.17139
1.17108
1.17072
1.17038
1.16996
1.16953
1.16906
1.16879
1.16873
1.16888
1.16914
1.16947
1.16981
1.17011
1.17035
1.17058
1.17076
1.17095
1.17113
1.17131
1.1715
1.1717
1.17192
1.17172
1.17142
1.17112
1.17077
1.17043
1.17007
1.16961
1.1691
1.16879
1.16866
1.16872
1.16894
1.16927
1.16961
1.16994
1.17017
1.17038
1.17061
1.17077
1.17095
1.17113
1.17131
1.1715
1.1717
1.17192
1.17172
1.17143
1.17114
1.17081
1.17048
1.17013
1.16966
1.16922
1.1688
1.16862
1.1686
1.16877
1.16904
1.1694
1.16971
1.17
1.17021
1.17042
1.17061
1.17078
1.17096
1.17113
1.17131
1.17151
1.1717
1.17191
1.17174
1.17144
1.17118
1.17085
1.17054
1.17015
1.16979
1.16929
1.16886
1.1686
1.16852
1.16862
1.16888
1.16918
1.16951
1.16981
1.17003
1.17024
1.17044
1.17063
1.17079
1.17096
1.17114
1.17131
1.1715
1.17171
1.17191
1.17176
1.17146
1.17119
1.17088
1.1706
1.17021
1.16986
1.16936
1.16893
1.16861
1.16848
1.16848
1.16867
1.169
1.1693
1.1696
1.16986
1.17008
1.17028
1.17045
1.17063
1.1708
1.17096
1.17113
1.17131
1.17149
1.1717
1.1719
1.17176
1.17149
1.17122
1.17092
1.17065
1.17026
1.16994
1.16947
1.16902
1.16863
1.16844
1.16841
1.16853
1.16877
1.16911
1.16941
1.16968
1.1699
1.17012
1.17029
1.17048
1.17063
1.17079
1.17095
1.17112
1.17131
1.17149
1.17169
1.1719
1.17176
1.1715
1.17123
1.17095
1.17066
1.17033
1.16995
1.16953
1.16912
1.16868
1.16843
1.16834
1.16841
1.16862
1.16892
1.16922
1.1695
1.16973
1.16995
1.17014
1.17031
1.17047
1.17063
1.17079
1.17095
1.17112
1.17129
1.17149
1.17169
1.1719
1.17178
1.17152
1.17126
1.17099
1.1707
1.17038
1.17
1.16963
1.16919
1.16874
1.16844
1.1683
1.16832
1.16847
1.16874
1.16904
1.16932
1.16957
1.16978
1.16997
1.17016
1.17031
1.17048
1.17063
1.17079
1.17094
1.17111
1.17129
1.17147
1.17167
1.17189
1.17179
1.17154
1.17128
1.17102
1.17076
1.17043
1.17007
1.16972
1.16934
1.1688
1.16847
1.16827
1.16823
1.16834
1.16858
1.16886
1.16915
1.1694
1.16961
1.16981
1.17
1.17017
1.17032
1.17048
1.17063
1.17078
1.17093
1.1711
1.17127
1.17146
1.17166
1.17188
1.17179
1.17155
1.17132
1.17107
1.17077
1.17045
1.17012
1.16978
1.16939
1.16889
1.1685
1.16827
1.16817
1.16823
1.16842
1.16869
1.16898
1.16923
1.16946
1.16965
1.16984
1.17001
1.17017
1.17032
1.17048
1.17063
1.17077
1.17092
1.17109
1.17125
1.17144
1.17164
1.17188
1.1718
1.17155
1.17132
1.17106
1.17081
1.1705
1.17017
1.16985
1.16947
1.16898
1.16858
1.16828
1.16814
1.16814
1.16828
1.16853
1.1688
1.16907
1.1693
1.16951
1.16969
1.16986
1.17003
1.17018
1.17033
1.17047
1.17062
1.17076
1.17091
1.17107
1.17123
1.17142
1.17163
1.17199
1.17185
1.17179
1.17156
1.17134
1.17109
1.17084
1.17053
1.17024
1.16989
1.16952
1.16909
1.16866
1.16831
1.16812
1.16807
1.16817
1.16839
1.16865
1.16891
1.16915
1.16935
1.16954
1.16971
1.16988
1.17003
1.17018
1.17032
1.17047
1.1706
1.17074
1.17089
1.17104
1.17121
1.17143
1.17172
1.17159
1.17199
1.17185
1.1718
1.1716
1.17137
1.17112
1.17086
1.17056
1.17026
1.16994
1.16959
1.16919
1.16874
1.16835
1.16811
1.16802
1.16807
1.16825
1.16851
1.16877
1.169
1.16921
1.16939
1.16957
1.16973
1.16988
1.17003
1.17018
1.17032
1.17045
1.17058
1.17072
1.17086
1.17102
1.17124
1.17115
1.17147
1.1713
1.17135
1.17171
1.17158
1.17199
1.17184
1.17181
1.17159
1.17138
1.17115
1.17088
1.1706
1.1703
1.16999
1.16965
1.16926
1.16883
1.16842
1.16812
1.16798
1.16799
1.16813
1.16836
1.16862
1.16886
1.16907
1.16925
1.16942
1.16958
1.16973
1.16989
1.17003
1.17017
1.1703
1.17043
1.17056
1.17069
1.17084
1.17106
1.17096
1.17118
1.17145
1.17123
1.17133
1.1717
1.17156
1.17198
1.17183
1.17181
1.17159
1.1714
1.17116
1.17091
1.17064
1.17035
1.17004
1.16972
1.16935
1.16891
1.16849
1.16814
1.16797
1.16793
1.16802
1.16823
1.16848
1.16873
1.16893
1.16911
1.16928
1.16944
1.16959
1.16974
1.16988
1.17002
1.17016
1.17029
1.17041
1.17053
1.17067
1.17088
1.17079
1.17107
1.17096
1.17112
1.17143
1.17121
1.1713
1.17168
1.17154
1.17198
1.17182
1.17181
1.1716
1.17141
1.17116
1.17095
1.17066
1.17038
1.17009
1.16977
1.16943
1.16902
1.16857
1.16819
1.16796
1.16788
1.16794
1.16811
1.16835
1.16859
1.16881
1.16899
1.16915
1.1693
1.16944
1.16959
1.16974
1.16988
1.17001
1.17014
1.17026
1.17038
1.17052
1.1707
1.17062
1.17086
1.17077
1.17101
1.17091
1.17109
1.1714
1.17117
1.17126
1.17166
1.17151
1.17197
1.1718
1.17182
1.1716
1.17144
1.17119
1.17096
1.17069
1.17043
1.17013
1.16983
1.16951
1.16909
1.16868
1.16827
1.16797
1.16785
1.16786
1.168
1.16823
1.16847
1.16869
1.16887
1.16903
1.16917
1.16931
1.16945
1.16959
1.16973
1.16987
1.17
1.17012
1.17024
1.17037
1.17055
1.17047
1.17068
1.1706
1.17081
1.17072
1.17098
1.17087
1.17105
1.17136
1.17113
1.17122
1.17163
1.17147
1.17197
1.17178
1.1718
1.1716
1.17143
1.17119
1.17096
1.17073
1.17046
1.17018
1.16988
1.16956
1.16919
1.16876
1.16834
1.16801
1.16783
1.1678
1.16791
1.16812
1.16836
1.16858
1.16876
1.16892
1.16905
1.16918
1.16931
1.16944
1.16958
1.16972
1.16986
1.16998
1.1701
1.17023
1.17039
1.17033
1.17052
1.17045
1.17064
1.17056
1.17078
1.17068
1.17094
1.17083
1.17101
1.17132
1.17108
1.17117
1.17161
1.17144
1.17196
1.17176
1.17181
1.17162
1.17142
1.17121
1.17096
1.17074
1.17047
1.1702
1.16991
1.16961
1.16927
1.16885
1.16844
1.16807
1.16783
1.16775
1.16782
1.16802
1.16826
1.16849
1.16868
1.16882
1.16894
1.16906
1.16918
1.1693
1.16943
1.16957
1.16971
1.16984
1.16996
1.17009
1.17026
1.17019
1.17037
1.17031
1.17048
1.17041
1.1706
1.17051
1.17073
1.17063
1.17089
1.17078
1.17096
1.17127
1.17103
1.17111
1.17158
1.17139
1.17195
1.17174
1.1718
1.17161
1.17141
1.17123
1.17099
1.17075
1.17051
1.17023
1.16996
1.16967
1.16934
1.16897
1.16852
1.16813
1.16784
1.16771
1.16774
1.16791
1.16817
1.16841
1.1686
1.16874
1.16884
1.16894
1.16904
1.16915
1.16928
1.16941
1.16955
1.16969
1.16982
1.16995
1.17012
1.17006
1.17023
1.17016
1.17032
1.17024
1.17042
1.17032
1.17053
1.17041
1.17067
1.17054
1.17083
1.1707
1.17089
1.17121
1.17096
1.17104
1.17154
1.17134
1.17194
1.17172
1.1718
1.17161
1.17143
1.17123
1.171
1.17081
1.17055
1.17026
1.17
1.16972
1.16942
1.16906
1.1686
1.16819
1.16787
1.1677
1.16767
1.16779
1.16804
1.16832
1.16851
1.16863
1.1687
1.16875
1.16881
1.16891
1.16905
1.16921
1.16938
1.16953
1.16968
1.16981
1.16999
1.1699
1.17009
1.17001
1.17014
1.17002
1.17018
1.16997
1.17024
1.16996
1.17036
1.17003
1.17053
1.17023
1.17074
1.17051
1.17078
1.17115
1.17084
1.17093
1.1715
1.17128
1.17193
1.17169
1.17179
1.17159
1.17142
1.17123
1.17101
1.17086
1.17057
1.1703
1.17003
1.16976
1.16947
1.16914
1.16871
1.16828
1.16794
1.1677
1.16761
1.16769
1.1679
1.16817
1.16838
1.16845
1.16837
1.16816
1.16796
1.168
1.16832
1.16872
1.16905
1.1693
1.16949
1.16966
1.16981
1.16979
1.16992
1.16984
1.16988
1.16971
1.1697
1.16931
1.16948
1.16872
1.16941
1.16825
1.1696
1.16829
1.17003
1.1689
1.17049
1.16978
1.1705
1.17105
1.17056
1.17069
1.17145
1.17121
1.17192
1.17167
1.17178
1.17157
1.17139
1.1712
1.17099
1.17087
1.1706
1.17032
1.17006
1.1698
1.16953
1.16921
1.16882
1.16837
1.16798
1.16772
1.16758
1.1676
1.16777
1.16803
1.1682
1.16813
1.16758
1.16646
1.16515
1.16459
1.16535
1.16668
1.1679
1.1687
1.16915
1.16944
1.16952
1.16973
1.16958
1.16952
1.16928
1.16884
1.16824
1.16771
1.16639
1.16649
1.16412
1.16584
1.16234
1.16644
1.16197
1.16796
1.1639
1.16957
1.16698
1.16949
1.17087
1.1696
1.16993
1.1714
1.17109
1.17192
1.17164
1.17175
1.17153
1.17135
1.17117
1.17097
1.17086
1.17065
1.17033
1.17009
1.16984
1.16957
1.16927
1.16892
1.16847
1.16806
1.16774
1.16757
1.16755
1.16768
1.16791
1.16804
1.16772
1.16641
1.16371
1.16054
1.15822
1.15803
1.16034
1.16401
1.16668
1.16819
1.16895
1.16918
1.16844
1.16793
1.16905
1.16873
1.16758
1.16675
1.16485
1.16311
1.16137
1.15832
1.1581
1.15351
1.15624
1.15002
1.15692
1.14891
1.161
1.15143
1.16621
1.15842
1.16598
1.17038
1.16644
1.16756
1.17134
1.17084
1.17191
1.17161
1.17171
1.17146
1.17129
1.17112
1.17095
1.17085
1.17065
1.17032
1.17009
1.16985
1.1696
1.16931
1.169
1.16857
1.16815
1.16778
1.16757
1.16752
1.16762
1.16782
1.1679
1.16731
1.16509
1.16092
1.15589
1.152
1.14999
1.15079
1.15483
1.16114
1.1655
1.16765
1.16831
1.16734
1.16636
1.16371
1.16213
1.16589
1.16479
1.1613
1.15928
1.15521
1.15216
1.14904
1.14476
1.14389
1.13821
1.14093
1.13362
1.14135
1.13196
1.14631
1.13442
1.15678
1.14236
1.15662
1.16897
1.15819
1.16126
1.17123
1.17018
1.1719
1.17157
1.17165
1.17137
1.17118
1.17106
1.17094
1.17082
1.17064
1.1703
1.17007
1.16986
1.16962
1.16936
1.16908
1.16867
1.16823
1.16785
1.16758
1.16749
1.16759
1.16776
1.16779
1.16693
1.16389
1.15826
1.15203
1.14661
1.14296
1.14149
1.14352
1.14995
1.15893
1.16451
1.16596
1.16428
1.1641
1.16057
1.15824
1.15301
1.15066
1.15724
1.15511
1.14928
1.14643
1.14085
1.13738
1.13325
1.12888
1.12717
1.12167
1.12368
1.11668
1.12381
1.11476
1.12877
1.11698
1.14
1.12473
1.13986
1.16519
1.14285
1.14923
1.17099
1.16847
1.17189
1.17152
1.17167
1.17133
1.17109
1.17097
1.17089
1.17078
1.17059
1.17024
1.17003
1.16984
1.16962
1.16937
1.16911
1.16872
1.16834
1.16792
1.1676
1.16746
1.16751
1.16771
1.16771
1.16669
1.16295
1.15624
1.14861
1.14262
1.13805
1.13476
1.13369
1.13728
1.14658
1.15738
1.16138
1.15377
1.15636
1.15183
1.14834
1.14582
1.13887
1.1364
1.14375
1.14124
1.13428
1.13141
1.12511
1.12192
1.11713
1.11334
1.1109
1.10627
1.10736
1.10141
1.10734
1.09943
1.11183
1.10132
1.12269
1.10856
1.12309
1.15731
1.12639
1.13329
1.17046
1.16442
1.17189
1.17145
1.17153
1.17112
1.1709
1.17072
1.17062
1.17043
1.17014
1.16996
1.1698
1.1696
1.16938
1.16914
1.1688
1.16843
1.16798
1.16764
1.16745
1.16744
1.16763
1.16768
1.1666
1.16241
1.15473
1.14647
1.14048
1.13611
1.13225
1.12887
1.12797
1.13338
1.14485
1.15321
1.14808
1.13768
1.13428
1.14334
1.14036
1.134
1.13152
1.12421
1.12201
1.12879
1.12644
1.11916
1.11672
1.11023
1.10776
1.10269
1.09989
1.09686
1.09355
1.09376
1.09016
1.09357
1.08936
1.09723
1.08998
1.10714
1.09507
1.10802
1.14433
1.11163
1.1186
1.16926
1.15723
1.17187
1.17125
1.17156
1.17096
1.17055
1.17022
1.17011
1.16998
1.16985
1.16972
1.16956
1.16936
1.16912
1.16882
1.1685
1.16806
1.16769
1.16745
1.16738
1.16752
1.16763
1.1666
1.16228
1.15394
1.14573
1.14097
1.13712
1.13298
1.12872
1.12491
1.12415
1.13111
1.14093
1.13942
1.13111
1.12833
1.12363
1.12108
1.12901
1.12638
1.11992
1.11777
1.11104
1.10962
1.11457
1.11276
1.10571
1.10404
1.09773
1.09617
1.09117
1.08941
1.08788
1.08629
1.08725
1.08604
1.08727
1.08641
1.08787
1.08619
1.09432
1.08655
1.09565
1.12988
1.09904
1.10386
1.11509
1.16667
1.14635
1.1719
1.17105
1.17156
1.17065
1.17008
1.16982
1.16979
1.16971
1.16961
1.16948
1.16932
1.16912
1.16887
1.16856
1.16815
1.16774
1.16746
1.16735
1.16743
1.16757
1.16666
1.16235
1.15384
1.14599
1.14231
1.1398
1.13668
1.13177
1.12579
1.12146
1.12101
1.12721
1.12831
1.11945
1.11929
1.11702
1.11333
1.1134
1.11576
1.11403
1.10814
1.10718
1.10083
1.10044
1.10267
1.10173
1.09495
1.09417
1.08815
1.08744
1.08505
1.0841
1.08514
1.08421
1.08601
1.08562
1.0864
1.08739
1.08523
1.08695
1.08598
1.08471
1.08464
1.09178
1.08653
1.10844
1.12719
1.11335
1.09582
1.08858
1.08767
1.09839
1.16321
1.12059
1.12892
1.14528
1.17193
1.17123
1.17148
1.17018
1.16957
1.16958
1.16954
1.16946
1.16937
1.16924
1.16908
1.16886
1.16856
1.16821
1.16779
1.16749
1.16733
1.16735
1.16749
1.1668
1.16263
1.15406
1.14664
1.14371
1.14262
1.14318
1.14188
1.13308
1.12301
1.11808
1.11721
1.11778
1.11633
1.1146
1.115
1.11371
1.11418
1.10972
1.11129
1.10738
1.10815
1.10089
1.10224
1.09416
1.09566
1.09358
1.09362
1.08703
1.08712
1.08343
1.08328
1.08327
1.08244
1.08499
1.0839
1.08835
1.08776
1.09048
1.09105
1.09158
1.0859
1.08847
1.09341
1.09095
1.08442
1.0842
1.0839
1.08579
1.08405
1.10233
1.10758
1.09069
1.08533
1.08444
1.09331
1.13988
1.16474
1.15178
1.11437
1.12303
1.17197
1.16347
1.16989
1.17163
1.17123
1.16967
1.16927
1.16931
1.16928
1.16921
1.16913
1.169
1.16882
1.16857
1.16826
1.16787
1.16753
1.16732
1.16729
1.16742
1.16698
1.16325
1.15467
1.14755
1.14503
1.14527
1.14905
1.1527
1.14807
1.13313
1.11978
1.11465
1.11288
1.11298
1.11478
1.11542
1.11684
1.11287
1.11434
1.10975
1.11288
1.1045
1.10697
1.09826
1.10125
1.09147
1.0945
1.08769
1.08908
1.08339
1.08404
1.0819
1.08185
1.08267
1.0816
1.08591
1.08361
1.0911
1.08987
1.08851
1.08666
1.09452
1.09453
1.09309
1.09244
1.08859
1.09182
1.09602
1.09455
1.0854
1.08336
1.08475
1.08851
1.08299
1.097
1.10196
1.08677
1.08286
1.0831
1.08899
1.13395
1.14733
1.10851
1.11708
1.17158
1.17204
1.17194
1.16119
1.16902
1.1707
1.16914
1.16898
1.16903
1.16901
1.16896
1.16888
1.16875
1.16855
1.16827
1.16793
1.16756
1.16733
1.16725
1.16735
1.16714
1.16406
1.15578
1.14855
1.14628
1.14757
1.15369
1.15963
1.15841
1.14967
1.13185
1.11749
1.11284
1.11177
1.11446
1.12252
1.12207
1.12074
1.12198
1.11599
1.11871
1.11406
1.11889
1.10487
1.10924
1.09826
1.10305
1.09118
1.09547
1.08562
1.08797
1.08219
1.08326
1.08086
1.08079
1.08124
1.07921
1.08474
1.08247
1.08045
1.07823
1.09104
1.089
1.08648
1.08374
1.0958
1.09434
1.09354
1.09157
1.09221
1.09547
1.09686
1.09709
1.08803
1.08397
1.08719
1.09221
1.08317
1.09222
1.09674
1.08392
1.08255
1.08221
1.08549
1.12817
1.14213
1.1029
1.11118
1.17142
1.17206
1.17194
1.15758
1.16737
1.16974
1.16867
1.16868
1.16873
1.16874
1.16872
1.16863
1.16849
1.16827
1.16797
1.16761
1.16734
1.16722
1.16728
1.16724
1.16492
1.1572
1.14961
1.14743
1.14949
1.15696
1.16319
1.16386
1.16023
1.1499
1.13144
1.11706
1.11322
1.11555
1.12769
1.13116
1.13259
1.12917
1.13051
1.12325
1.12675
1.12142
1.12755
1.10871
1.11497
1.10088
1.10729
1.09261
1.0978
1.08535
1.08843
1.08133
1.08282
1.07748
1.07697
1.07634
1.07436
1.07281
1.07135
1.08094
1.07805
1.07521
1.07246
1.08875
1.08556
1.08212
1.07852
1.09492
1.09164
1.0915
1.08812
1.09606
1.09792
1.09531
1.09767
1.09173
1.08606
1.09076
1.0962
1.08475
1.08807
1.09196
1.08228
1.08344
1.08234
1.08303
1.12216
1.13622
1.09753
1.10525
1.17104
1.17207
1.17194
1.15244
1.16473
1.16856
1.16827
1.16835
1.16844
1.16848
1.16846
1.16838
1.16822
1.16798
1.16766
1.16736
1.16721
1.16722
1.16727
1.16573
1.15887
1.15076
1.14845
1.15097
1.15918
1.16495
1.1663
1.16528
1.16087
1.15016
1.13403
1.12198
1.12147
1.13295
1.14477
1.14726
1.14219
1.14327
1.13971
1.14131
1.13285
1.13695
1.12954
1.13656
1.11446
1.12202
1.10391
1.11079
1.09309
1.09848
1.08524
1.08865
1.07746
1.07884
1.06688
1.06593
1.06992
1.06762
1.06568
1.06441
1.07486
1.07124
1.06777
1.06456
1.08417
1.07997
1.07559
1.07118
1.09133
1.08728
1.08641
1.08257
1.09848
1.09834
1.09128
1.09576
1.09582
1.08934
1.09488
1.09872
1.08753
1.08469
1.0877
1.08171
1.08558
1.08369
1.08168
1.11571
1.12937
1.09243
1.09924
1.17046
1.17207
1.17181
1.14554
1.16101
1.16788
1.16786
1.16802
1.16816
1.16823
1.16822
1.16813
1.16796
1.16768
1.16738
1.16721
1.16717
1.16726
1.16639
1.16069
1.15205
1.14934
1.15196
1.16053
1.16581
1.16728
1.16727
1.16586
1.16135
1.15267
1.14327
1.14014
1.14873
1.16029
1.15908
1.1621
1.15517
1.15692
1.15117
1.1535
1.14274
1.14768
1.13355
1.14082
1.11822
1.12591
1.10471
1.11162
1.08954
1.09499
1.08138
1.08497
1.06661
1.068
1.05555
1.05534
1.05703
1.05596
1.06174
1.05937
1.05752
1.05621
1.06687
1.06279
1.05911
1.05598
1.07757
1.07245
1.06738
1.06252
1.0857
1.08095
1.07948
1.07519
1.09887
1.09628
1.08529
1.09146
1.09859
1.09334
1.09807
1.09915
1.0912
1.08234
1.08416
1.0821
1.08877
1.08611
1.08112
1.10857
1.12088
1.08767
1.09306
1.16888
1.17169
1.17045
1.13602
1.1535
1.16722
1.16737
1.16766
1.16788
1.16799
1.16799
1.16789
1.16768
1.16739
1.16721
1.16713
1.1672
1.16684
1.1625
1.1536
1.15018
1.15252
1.16105
1.16615
1.1676
1.16791
1.16765
1.16625
1.16296
1.15894
1.15785
1.1611
1.16584
1.16791
1.16847
1.16613
1.16738
1.16315
1.16478
1.15769
1.16094
1.14745
1.15316
1.13437
1.14178
1.11902
1.12668
1.10121
1.10807
1.07918
1.08492
1.07062
1.07442
1.05802
1.0597
1.06121
1.05177
1.05306
1.05612
1.0545
1.05352
1.05173
1.05077
1.05089
1.05805
1.05417
1.05103
1.04873
1.06939
1.06378
1.05855
1.05393
1.07836
1.07303
1.07123
1.06664
1.09694
1.09196
1.07772
1.0853
1.09928
1.09697
1.09903
1.09762
1.09504
1.08091
1.08152
1.08356
1.09243
1.08922
1.0815
1.10082
1.11091
1.08344
1.08714
1.16305
1.16364
1.16128
1.12328
1.13786
1.1663
1.16676
1.16731
1.16765
1.16778
1.16778
1.16765
1.1674
1.16722
1.16711
1.16714
1.16706
1.16417
1.15556
1.151
1.15282
1.16102
1.16618
1.16766
1.16805
1.16814
1.1679
1.16704
1.16603
1.16579
1.16677
1.16825
1.16917
1.16901
1.16923
1.16811
1.16869
1.16567
1.16718
1.15966
1.16329
1.14862
1.15465
1.13187
1.14017
1.11554
1.12353
1.09153
1.0989
1.06969
1.07395
1.06362
1.06664
1.05762
1.05909
1.06409
1.06509
1.05166
1.05391
1.05903
1.05658
1.04747
1.04746
1.04824
1.04984
1.05009
1.04718
1.04536
1.04489
1.0606
1.05517
1.05057
1.04698
1.06996
1.06434
1.06256
1.05798
1.09289
1.08584
1.06925
1.07763
1.09833
1.0985
1.09858
1.09413
1.09741
1.08009
1.07972
1.08593
1.09552
1.09253
1.08268
1.0929
1.10017
1.08019
1.0821
1.14508
1.12834
1.12464
1.10746
1.11195
1.16501
1.16612
1.16702
1.16745
1.16759
1.16755
1.16739
1.16722
1.16709
1.16709
1.16712
1.16552
1.15797
1.15184
1.15285
1.16078
1.16608
1.16761
1.16803
1.16821
1.1683
1.16824
1.16814
1.16818
1.16851
1.16896
1.16927
1.16941
1.16944
1.16929
1.1694
1.16861
1.16906
1.16629
1.16778
1.15994
1.16379
1.14793
1.15464
1.12631
1.1362
1.1072
1.11645
1.07959
1.08703
1.06886
1.07131
1.06554
1.066
1.06791
1.06125
1.06291
1.07157
1.07178
1.05478
1.0588
1.06625
1.06277
1.04537
1.0467
1.04853
1.05116
1.04446
1.0433
1.04327
1.04392
1.05245
1.04798
1.04467
1.04261
1.06135
1.05593
1.05444
1.05036
1.08696
1.07822
1.06072
1.06917
1.0955
1.09849
1.09668
1.08867
1.09791
1.08008
1.07847
1.08872
1.09683
1.09483
1.08459
1.08555
1.08964
1.07794
1.07833
1.10847
1.12437
1.09601
1.09195
1.09004
1.16355
1.1656
1.16682
1.16728
1.1674
1.16736
1.16722
1.16708
1.16704
1.16711
1.16638
1.16058
1.15292
1.15274
1.16012
1.16572
1.16744
1.16795
1.16815
1.16831
1.16843
1.16854
1.16866
1.16885
1.16908
1.16927
1.16943
1.16949
1.1695
1.16942
1.16948
1.16887
1.16925
1.16661
1.16809
1.15975
1.16398
1.14551
1.15357
1.11963
1.13189
1.09641
1.10752
1.07491
1.0803
1.07558
1.07497
1.07694
1.07155
1.07098
1.07649
1.07765
1.06895
1.07071
1.0808
1.0806
1.0604
1.06577
1.07536
1.07096
1.04555
1.04772
1.05113
1.05543
1.04196
1.04211
1.04303
1.0445
1.04605
1.04305
1.04142
1.04108
1.05345
1.04882
1.04774
1.04464
1.07956
1.06984
1.05296
1.06071
1.09075
1.09742
1.09296
1.0817
1.09741
1.08077
1.07787
1.09132
1.09671
1.09547
1.08659
1.0797
1.08127
1.07634
1.07567
1.08521
1.16039
1.10383
1.08126
1.07844
1.16228
1.16532
1.16671
1.16717
1.16727
1.1672
1.16706
1.167
1.16705
1.1668
1.16302
1.15462
1.15262
1.15886
1.16483
1.16702
1.16773
1.16803
1.16819
1.16837
1.16853
1.16867
1.16884
1.16904
1.16922
1.16936
1.1695
1.16945
1.16952
1.16951
1.16946
1.16951
1.16895
1.1693
1.16673
1.16821
1.15944
1.16401
1.14317
1.1525
1.1106
1.12427
1.08786
1.09805
1.07768
1.08094
1.08266
1.08075
1.08864
1.08714
1.07984
1.07877
1.08444
1.08622
1.07861
1.08035
1.09046
1.09022
1.06594
1.07263
1.08443
1.07905
1.04681
1.05029
1.0546
1.05982
1.04136
1.04235
1.04387
1.0463
1.04188
1.04067
1.0405
1.04083
1.04702
1.04364
1.04297
1.04112
1.07138
1.06143
1.04665
1.05299
1.08445
1.09476
1.08752
1.07385
1.09598
1.08186
1.078
1.09285
1.09603
1.09499
1.08829
1.07553
1.07532
1.07526
1.07374
1.0795
1.16351
1.10125
1.07438
1.07269
1.16147
1.16531
1.16668
1.16707
1.16713
1.16704
1.16697
1.16699
1.16695
1.16488
1.15706
1.1527
1.15731
1.16356
1.1661
1.16728
1.16779
1.16806
1.16821
1.16839
1.16857
1.16872
1.16889
1.16908
1.16927
1.16939
1.16951
1.16948
1.16956
1.16955
1.16948
1.16955
1.16884
1.16928
1.16601
1.16789
1.15686
1.16258
1.13732
1.14839
1.10429
1.1154
1.08655
1.09443
1.08647
1.08639
1.0908
1.09251
1.09051
1.09936
1.09722
1.08927
1.08785
1.09458
1.09647
1.08829
1.09008
1.0999
1.09989
1.07093
1.07833
1.09221
1.08572
1.04951
1.05352
1.05838
1.06419
1.0419
1.04341
1.0458
1.04878
1.04019
1.04014
1.04053
1.0416
1.04246
1.0406
1.04034
1.03992
1.06305
1.05368
1.04224
1.04669
1.07706
1.09052
1.0811
1.06561
1.09306
1.08309
1.0784
1.09292
1.09444
1.09402
1.0891
1.07262
1.07139
1.07475
1.07234
1.07512
1.12006
1.08023
1.06991
1.06893
1.16131
1.16544
1.16668
1.16698
1.16699
1.16693
1.16693
1.16697
1.16603
1.15997
1.15324
1.15568
1.16204
1.16481
1.16639
1.16735
1.16783
1.16808
1.16824
1.1684
1.16857
1.16873
1.16891
1.16913
1.1693
1.16946
1.16957
1.16953
1.16961
1.1696
1.16946
1.16958
1.16836
1.16913
1.1635
1.1667
1.14989
1.15804
1.12741
1.13935
1.10512
1.1135
1.09371
1.09848
1.09546
1.09392
1.10612
1.10621
1.1037
1.10156
1.11219
1.11027
1.09929
1.09804
1.10568
1.10729
1.09692
1.0992
1.10838
1.1088
1.07636
1.0844
1.09896
1.09221
1.05251
1.05706
1.06251
1.06897
1.04326
1.04556
1.04844
1.05187
1.03998
1.04048
1.04177
1.04365
1.04041
1.0398
1.04001
1.03995
1.05523
1.04738
1.04085
1.04257
1.06958
1.08538
1.07468
1.05838
1.08937
1.08406
1.07907
1.0921
1.09199
1.09216
1.08869
1.07056
1.06883
1.07486
1.07142
1.06869
1.10217
1.06914
1.06722
1.0659
1.16161
1.16567
1.16668
1.16689
1.16689
1.16688
1.16695
1.16659
1.16273
1.15478
1.15449
1.16031
1.16336
1.16498
1.16651
1.16744
1.16787
1.1681
1.16827
1.16842
1.16858
1.16874
1.16895
1.16918
1.16935
1.16954
1.16956
1.16947
1.1696
1.16964
1.16963
1.16946
1.1696
1.16799
1.16904
1.16118
1.16566
1.14435
1.15392
1.12322
1.13375
1.11655
1.12087
1.11135
1.11322
1.10841
1.1069
1.11679
1.11881
1.11548
1.11397
1.12482
1.12369
1.10882
1.10832
1.11669
1.11751
1.10397
1.10705
1.11602
1.11703
1.08188
1.09062
1.1059
1.09893
1.05599
1.06094
1.06683
1.07385
1.04583
1.04854
1.05167
1.05534
1.04053
1.04223
1.044
1.04625
1.04046
1.04023
1.04064
1.04088
1.04948
1.04404
1.04141
1.04199
1.0632
1.08035
1.06927
1.05313
1.08541
1.08437
1.07978
1.09026
1.08849
1.0888
1.08698
1.06896
1.06701
1.07524
1.07083
1.06466
1.15401
1.08253
1.06524
1.06377
1.16226
1.16591
1.16668
1.16681
1.16683
1.16687
1.1668
1.16474
1.15732
1.15419
1.1583
1.16187
1.16344
1.165
1.16673
1.16757
1.1679
1.16812
1.1683
1.16847
1.16861
1.16876
1.169
1.16925
1.16938
1.16957
1.16954
1.16949
1.16963
1.16966
1.16965
1.16948
1.16963
1.16799
1.16906
1.16096
1.1656
1.14425
1.15357
1.12697
1.13487
1.13438
1.13736
1.12974
1.12947
1.13268
1.1223
1.1206
1.13061
1.1318
1.12643
1.12575
1.1351
1.13454
1.11752
1.11769
1.12686
1.12683
1.11086
1.11398
1.12329
1.12486
1.08705
1.09667
1.11294
1.1056
1.05966
1.0648
1.07096
1.07843
1.04885
1.05182
1.05517
1.05895
1.04289
1.04483
1.04719
1.04977
1.04155
1.0413
1.0423
1.04358
1.04675
1.04419
1.04359
1.04328
1.058
1.07528
1.06324
1.05049
1.08025
1.08292
1.07873
1.08697
1.08275
1.08339
1.08369
1.06786
1.06565
1.07478
1.07055
1.06443
1.16718
1.11043
1.06364
1.06241
1.1631
1.16611
1.16666
1.16676
1.1668
1.16683
1.16592
1.16039
1.15442
1.15632
1.16033
1.16192
1.16316
1.16521
1.16703
1.16763
1.16792
1.16813
1.16832
1.1685
1.16863
1.16879
1.16907
1.16928
1.16943
1.1696
1.16957
1.16951
1.16966
1.1697
1.16969
1.16957
1.16968
1.16838
1.16923
1.16284
1.16648
1.15058
1.1572
1.14075
1.14488
1.13761
1.14301
1.13364
1.13344
1.13564
1.13343
1.1338
1.13288
1.13423
1.13515
1.13556
1.13548
1.13865
1.13789
1.12598
1.12658
1.1355
1.13524
1.11798
1.12096
1.13028
1.13211
1.09072
1.10087
1.11981
1.11133
1.06327
1.06838
1.07447
1.08201
1.0526
1.05567
1.05903
1.06274
1.04584
1.0486
1.05147
1.05415
1.04491
1.04462
1.04851
1.04696
1.04771
1.04694
1.05124
1.04845
1.05491
1.06846
1.05964
1.05176
1.07298
1.08008
1.07656
1.08246
1.07658
1.07847
1.08037
1.0672
1.06455
1.07308
1.06944
1.06882
1.16793
1.11804
1.06244
1.06227
1.16393
1.16626
1.16665
1.16675
1.16681
1.16648
1.16316
1.15545
1.15513
1.15861
1.16047
1.16129
1.16311
1.16579
1.16723
1.1677
1.16794
1.16815
1.16834
1.16852
1.16864
1.16885
1.16913
1.16932
1.1695
1.16954
1.16941
1.16963
1.16959
1.16969
1.16975
1.16973
1.16971
1.16976
1.1691
1.16954
1.1664
1.16815
1.15973
1.1636
1.14909
1.1549
1.12821
1.11855
1.12625
1.13178
1.13187
1.13199
1.12355
1.13708
1.13617
1.13228
1.13327
1.13967
1.13917
1.13773
1.1367
1.13363
1.1347
1.13986
1.13985
1.12523
1.12789
1.1363
1.13795
1.09214
1.10225
1.12366
1.11376
1.06674
1.07117
1.07656
1.08349
1.05699
1.05981
1.06281
1.06573
1.04992
1.05379
1.05668
1.05949
1.05314
1.05223
1.05578
1.0567
1.05116
1.05156
1.05354
1.05429
1.05608
1.06485
1.06131
1.05474
1.06952
1.07816
1.07532
1.0791
1.07345
1.0763
1.07834
1.06618
1.06357
1.07199
1.06837
1.07379
1.17106
1.13782
1.06155
1.06303
1.16465
1.16637
1.16666
1.16673
1.16668
1.16501
1.15814
1.15495
1.15683
1.15906
1.15966
1.16086
1.16339
1.16636
1.16742
1.16775
1.16797
1.16817
1.16836
1.16853
1.16865
1.16892
1.16917
1.16934
1.16955
1.16951
1.16945
1.16965
1.16962
1.16971
1.16981
1.16977
1.16983
1.16982
1.16958
1.16978
1.16805
1.16911
1.16188
1.16587
1.1452
1.15528
1.11146
1.09952
1.10899
1.11205
1.09966
1.12067
1.12087
1.1061
1.1356
1.13445
1.12118
1.12236
1.13941
1.1386
1.1297
1.12786
1.13895
1.13965
1.14003
1.14024
1.13098
1.13436
1.13866
1.13975
1.09252
1.10211
1.12434
1.11396
1.06882
1.07264
1.07753
1.08378
1.0617
1.06396
1.0658
1.06792
1.06216
1.06312
1.06577
1.06674
1.08627
1.05729
1.0864
1.061
1.05603
1.05759
1.08368
1.08458
1.0604
1.06566
1.06425
1.06017
1.06995
1.077
1.07444
1.07788
1.0737
1.07698
1.07797
1.06546
1.06262
1.07103
1.06722
1.07838
1.17036
1.13729
1.06118
1.06439
1.16523
1.16645
1.16666
1.1667
1.166
1.16139
1.15532
1.15551
1.15762
1.15825
1.15871
1.1608
1.16426
1.16688
1.16752
1.16779
1.168
1.16819
1.16839
1.16854
1.16869
1.16898
1.16918
1.16938
1.16958
1.16954
1.16946
1.16968
1.16964
1.16974
1.16985
1.1698
1.16989
1.16989
1.16971
1.16986
1.16804
1.16926
1.15732
1.16485
1.12254
1.14329
1.0921
1.08145
1.08999
1.09543
1.08461
1.10333
1.10342
1.0869
1.12597
1.124
1.10396
1.10547
1.1332
1.1315
1.11458
1.11201
1.14018
1.14037
1.13462
1.13592
1.13297
1.1367
1.13746
1.13778
1.09052
1.09867
1.12143
1.11032
1.07042
1.07394
1.07786
1.08264
1.06787
1.06892
1.07014
1.07157
1.08951
1.08974
1.08965
1.09001
1.10998
1.08663
1.11029
1.08756
1.08428
1.08411
1.10919
1.10908
1.0844
1.06847
1.08552
1.08234
1.07269
1.07696
1.07429
1.07848
1.07661
1.07919
1.07855
1.06444
1.06193
1.07032
1.06672
1.07696
0.896671
1.11498
1.06118
1.06422
1.16566
1.16653
1.16665
1.16644
1.16392
1.15666
1.15506
1.15619
1.15701
1.15697
1.15831
1.16128
1.16548
1.16719
1.1676
1.16782
1.16803
1.16823
1.16841
1.16854
1.16875
1.16901
1.1692
1.1694
1.16948
1.1696
1.16955
1.16971
1.16967
1.16977
1.16988
1.16982
1.16992
1.16992
1.16967
1.16988
1.16605
1.16882
1.14301
1.15862
1.09297
1.11933
1.07465
1.06733
1.07516
1.08264
1.07263
1.08456
1.08467
1.0701
1.10972
1.10751
1.08513
1.08642
1.11976
1.11722
1.09533
1.09266
1.13761
1.13681
1.12195
1.12418
1.13137
1.13585
1.12927
1.12935
1.08466
1.09033
1.11024
1.09935
1.07307
1.07536
1.0782
1.07996
1.09008
1.09036
1.09041
1.09029
1.11061
1.11081
1.11038
1.11047
1.13522
1.11017
1.13532
1.11054
1.10859
1.1092
1.13485
1.13481
1.10774
1.08672
1.10811
1.10781
1.08834
1.07666
1.07503
1.07972
1.09039
1.0922
1.0777
1.06389
1.06134
1.0699
1.06601
1.07119
0.477186
1.02771
1.06105
1.06316
1.16598
1.16655
1.16656
1.1654
1.15975
1.15521
1.15512
1.15585
1.15562
1.15603
1.15834
1.16256
1.16647
1.16736
1.16765
1.16786
1.16806
1.16826
1.16843
1.16855
1.1688
1.16904
1.1692
1.16941
1.16949
1.1695
1.16962
1.16956
1.16973
1.16968
1.16979
1.16989
1.16984
1.16994
1.16993
1.16936
1.16985
1.16149
1.16743
1.1244
1.14771
1.07529
1.07277
1.08727
1.09877
1.06127
1.05752
1.06434
1.0648
1.0677
1.06816
1.05734
1.09021
1.08817
1.06792
1.06853
1.10063
1.09808
1.07507
1.07304
1.12812
1.12622
1.10325
1.1061
1.12104
1.12762
1.11168
1.11253
1.0807
1.08199
1.08857
1.08382
1.08998
1.08954
1.07943
1.0797
1.10984
1.10981