/*--------------------------------*- C++ -*----------------------------------*\
  =========                 |
  \\      /  F ield         | OpenFOAM: The Open Source CFD Toolbox
   \\    /   O peration     | Website:  https://openfoam.org
    \\  /    A nd           | Version:  dev
     \\/     M anipulation  |
\*---------------------------------------------------------------------------*/
FoamFile
{
    version     2.0;
    format      ascii;
    class       volScalarField;
    location    "2500";
    object      T;
}
// * * * * * * * * * * * * * * * * * * * * * * * * * * * * * * * * * * * * * //

dimensions      [0 0 0 1 0 0 0];

internalField   nonuniform List<scalar> 
9851
(
300.101
300.143
300.127
300.149
300.23
300.112
300.155
300.284
300.235
300.091
300.146
300.304
300.323
300.221
300.08
300.143
300.313
300.373
300.305
300.19
300.079
300.135
300.294
300.407
300.39
300.292
300.171
300.072
300.127
300.275
300.422
300.453
300.37
300.258
300.154
300.064
300.125
300.276
300.421
300.486
300.459
300.342
300.234
300.146
300.061
300.114
300.265
300.409
300.501
300.509
300.433
300.308
300.207
300.136
300.061
300.116
300.256
300.393
300.507
300.555
300.508
300.407
300.284
300.197
300.127
300.059
300.106
300.24
300.362
300.493
300.576
300.559
300.477
300.367
300.27
300.188
300.122
300.057
300.11
300.229
300.339
300.497
300.593
300.607
300.547
300.44
300.339
300.256
300.18
300.114
300.055
300.102
300.215
300.345
300.484
300.588
300.635
300.601
300.508
300.403
300.319
300.243
300.175
300.113
300.05
300.106
300.221
300.33
300.455
300.582
300.657
300.657
300.582
300.481
300.376
300.301
300.236
300.171
300.11
300.053
300.103
300.205
300.31
300.448
300.577
300.664
300.683
300.647
300.553
300.453
300.361
300.29
300.226
300.166
300.107
300.05
300.103
300.198
300.31
300.429
300.554
300.664
300.709
300.686
300.609
300.519
300.424
300.345
300.274
300.22
300.164
300.107
300.051
300.101
300.198
300.293
300.411
300.537
300.653
300.723
300.727
300.679
300.578
300.488
300.401
300.33
300.271
300.215
300.158
300.106
300.049
300.099
300.189
300.286
300.4
300.51
300.623
300.728
300.76
300.724
300.65
300.551
300.46
300.384
300.319
300.264
300.212
300.155
300.104
300.049
300.096
300.183
300.281
300.378
300.484
300.614
300.732
300.773
300.768
300.702
300.614
300.521
300.434
300.363
300.309
300.255
300.208
300.155
300.101
300.049
300.089
300.18
300.275
300.364
300.472
300.603
300.718
300.786
300.797
300.758
300.674
300.583
300.489
300.415
300.358
300.302
300.253
300.204
300.154
300.099
300.048
300.088
300.182
300.267
300.347
300.461
300.585
300.701
300.789
300.816
300.798
300.725
300.641
300.551
300.47
300.406
300.353
300.3
300.25
300.202
300.152
300.102
300.047
300.088
300.175
300.252
300.343
300.442
300.549
300.672
300.784
300.834
300.825
300.785
300.691
300.613
300.528
300.456
300.396
300.34
300.298
300.249
300.204
300.153
300.101
300.048
300.082
300.167
300.247
300.34
300.43
300.538
300.649
300.771
300.841
300.856
300.817
300.753
300.668
300.581
300.505
300.443
300.386
300.339
300.291
300.247
300.201
300.153
300.102
300.046
300.083
300.158
300.236
300.328
300.416
300.507
300.628
300.76
300.84
300.873
300.859
300.804
300.719
300.632
300.547
300.49
300.435
300.378
300.337
300.291
300.246
300.2
300.152
300.102
300.048
300.08
300.157
300.23
300.316
300.4
300.493
300.614
300.728
300.837
300.883
300.89
300.846
300.776
300.686
300.606
300.533
300.48
300.425
300.378
300.334
300.29
300.246
300.201
300.151
300.103
300.049
300.074
300.152
300.22
300.306
300.385
300.485
300.579
300.71
300.821
300.887
300.908
300.883
300.816
300.741
300.657
300.581
300.523
300.472
300.422
300.373
300.332
300.289
300.245
300.201
300.153
300.1
300.05
300.07
300.146
300.217
300.296
300.369
300.471
300.56
300.69
300.802
300.884
300.919
300.919
300.872
300.787
300.709
300.634
300.568
300.513
300.462
300.417
300.373
300.331
300.29
300.246
300.201
300.154
300.103
300.051
300.067
300.14
300.208
300.285
300.356
300.455
300.54
300.661
300.777
300.878
300.927
300.935
300.907
300.846
300.759
300.681
300.614
300.557
300.502
300.457
300.411
300.372
300.331
300.292
300.248
300.202
300.155
300.104
300.052
300.067
300.134
300.204
300.278
300.352
300.437
300.535
300.646
300.751
300.866
300.93
300.955
300.936
300.884
300.806
300.729
300.659
300.6
300.545
300.496
300.453
300.413
300.372
300.333
300.292
300.249
300.205
300.157
300.105
300.053
300.062
300.128
300.196
300.265
300.342
300.426
300.524
300.618
300.733
300.849
300.927
300.964
300.96
300.922
300.852
300.775
300.704
300.64
300.588
300.539
300.492
300.452
300.412
300.373
300.333
300.294
300.252
300.207
300.161
300.109
300.054
300.059
300.124
300.19
300.258
300.326
300.411
300.503
300.594
300.694
300.832
300.919
300.97
300.981
300.954
300.893
300.822
300.746
300.683
300.631
300.579
300.532
300.489
300.45
300.41
300.372
300.335
300.296
300.255
300.212
300.164
300.113
300.057
300.058
300.121
300.18
300.244
300.321
300.404
300.491
300.578
300.68
300.809
300.909
300.97
300.995
300.981
300.933
300.863
300.791
300.727
300.669
300.619
300.571
300.529
300.487
300.45
300.412
300.373
300.337
300.299
300.258
300.216
300.168
300.117
300.057
300.054
300.12
300.179
300.245
300.312
300.39
300.476
300.561
300.658
300.785
300.889
300.967
301.004
301.004
300.968
300.905
300.835
300.768
300.708
300.656
300.61
300.566
300.525
300.486
300.448
300.412
300.375
300.34
300.302
300.262
300.222
300.174
300.119
300.029
300.065
300.056
300.117
300.174
300.238
300.304
300.384
300.459
300.548
300.644
300.757
300.867
300.959
301.008
301.021
300.996
300.941
300.875
300.807
300.746
300.695
300.648
300.604
300.563
300.523
300.486
300.45
300.414
300.38
300.344
300.308
300.27
300.226
300.17
300.098
300.131
300.03
300.064
300.054
300.105
300.164
300.23
300.298
300.375
300.453
300.535
300.627
300.73
300.846
300.947
301.009
301.033
301.021
300.976
300.911
300.844
300.784
300.732
300.685
300.641
300.6
300.561
300.523
300.487
300.452
300.418
300.384
300.35
300.315
300.275
300.219
300.241
300.161
300.204
300.192
300.1
300.132
300.03
300.067
300.05
300.107
300.161
300.222
300.29
300.364
300.442
300.521
300.61
300.711
300.822
300.929
301.005
301.042
301.041
301.006
300.948
300.881
300.82
300.768
300.721
300.678
300.637
300.598
300.56
300.524
300.489
300.455
300.423
300.39
300.357
300.32
300.264
300.289
300.234
300.165
300.221
300.196
300.102
300.137
300.031
300.069
300.05
300.108
300.155
300.219
300.283
300.354
300.429
300.509
300.591
300.687
300.8
300.909
300.999
301.046
301.056
301.032
300.981
300.917
300.854
300.801
300.755
300.713
300.674
300.635
300.597
300.561
300.525
300.492
300.46
300.429
300.397
300.362
300.311
300.333
300.263
300.289
300.249
300.171
300.227
300.204
300.107
300.143
300.032
300.073
300.049
300.103
300.154
300.216
300.272
300.346
300.419
300.495
300.577
300.666
300.773
300.889
300.986
301.046
301.068
301.054
301.011
300.95
300.887
300.833
300.787
300.746
300.708
300.671
300.634
300.598
300.562
300.528
300.496
300.465
300.435
300.401
300.354
300.375
300.314
300.338
300.276
300.302
300.257
300.179
300.236
300.213
300.113
300.151
300.033
300.077
300.047
300.102
300.145
300.209
300.268
300.338
300.406
300.484
300.563
300.645
300.753
300.86
300.965
301.043
301.077
301.072
301.037
300.98
300.918
300.863
300.816
300.777
300.741
300.706
300.671
300.635
300.599
300.565
300.532
300.501
300.471
300.438
300.394
300.413
300.36
300.38
300.327
300.35
300.285
300.312
300.266
300.188
300.246
300.224
300.119
300.16
300.035
300.082
300.049
300.103
300.147
300.207
300.269
300.329
300.397
300.47
300.548
300.631
300.727
300.837
300.948
301.032
301.08
301.088
301.06
301.008
300.946
300.89
300.843
300.804
300.771
300.738
300.706
300.672
300.637
300.602
300.568
300.536
300.507
300.474
300.433
300.448
300.4
300.418
300.371
300.391
300.337
300.36
300.295
300.323
300.278
300.199
300.259
300.237
300.126
300.17
300.037
300.087
300.047
300.096
300.148
300.202
300.268
300.326
300.394
300.463
300.539
300.617
300.704
300.814
300.922
301.017
301.08
301.101
301.082
301.033
300.97
300.912
300.865
300.828
300.797
300.769
300.739
300.708
300.674
300.64
300.605
300.572
300.541
300.51
300.467
300.483
300.439
300.454
300.412
300.429
300.382
300.403
300.348
300.373
300.308
300.336
300.292
300.212
300.273
300.252
300.134
300.181
300.039
300.092
300.048
300.098
300.149
300.196
300.259
300.322
300.383
300.455
300.526
300.601
300.686
300.783
300.9
301.001
301.075
301.11
301.104
301.059
300.994
300.931
300.883
300.849
300.823
300.8
300.774
300.745
300.713
300.679
300.644
300.609
300.576
300.544
300.5
300.517
300.474
300.491
300.451
300.471
300.427
300.451
300.398
300.428
300.364
300.396
300.323
300.356
300.309
300.226
300.292
300.271
300.144
300.194
300.042
300.099
300.047
300.098
300.145
300.196
300.257
300.306
300.373
300.447
300.515
300.587
300.666
300.76
300.877
300.985
301.067
301.113
301.122
301.09
301.025
300.955
300.907
300.875
300.858
300.847
300.833
300.807
300.77
300.73
300.689
300.65
300.613
300.579
300.534
300.558
300.51
300.53
300.497
300.528
300.487
300.539
300.472
300.543
300.443
300.525
300.399
300.475
300.347
300.405
300.336
300.244
300.32
300.298
300.154
300.21
300.044
300.105
300.049
300.101
300.147
300.197
300.253
300.293
300.367
300.436
300.506
300.577
300.653
300.737
300.848
300.96
301.049
301.112
301.134
301.116
301.061
300.992
300.94
300.921
300.942
300.996
301.046
301.035
300.954
300.855
300.771
300.709
300.66
300.617
300.58
300.586
300.551
300.571
300.562
300.606
300.608
300.706
300.663
300.855
300.682
300.975
300.634
300.964
300.526
300.81
300.41
300.588
300.407
300.268
300.392
300.361
300.166
300.229
300.046
300.111
300.053
300.106
300.153
300.202
300.257
300.288
300.358
300.43
300.497
300.566
300.637
300.72
300.819
300.937
301.037
301.106
301.142
301.137
301.095
301.028
300.984
301.001
301.141
301.425
301.758
301.9
301.706
301.37
301.063
300.86
300.746
300.673
300.652
300.601
300.637
300.653
300.713
300.825
300.975
301.11
301.444
301.418
302.02
301.584
302.472
301.432
302.569
301.047
302.077
300.641
301.297
300.662
300.315
300.633
300.552
300.178
300.258
300.048
300.118
300.059
300.115
300.162
300.21
300.262
300.289
300.345
300.426
300.491
300.556
300.624
300.703
300.793
300.91
301.016
301.1
301.143
301.151
301.118
301.058
301.025
301.104
301.438
302.122
302.933
303.527
303.574
302.984
302.048
301.371
300.987
300.797
300.738
300.925
301.054
300.771
300.852
301.142
301.351
301.833
302.275
302.721
303.5
303.557
304.74
304.037
305.647
303.863
305.937
302.816
305.282
301.491
303.476
301.549
300.437
301.434
301.149
300.195
300.321
300.05
300.126
300.07
300.132
300.179
300.222
300.266
300.293
300.344
300.431
300.49
300.551
300.617
300.691
300.772
300.883
300.993
301.088
301.143
301.156
301.131
301.081
301.06
301.21
301.772
302.834
304.126
305.131
305.656
305.448
304.401
302.778
301.668
301.123
300.957
301.202
301.45
302.123
302.525
301.57
301.849
302.737
303.254
304.301
305.089
305.901
307.02
307.251
308.751
308.031
309.975
307.921
310.421
306.615
309.761
303.898
307.654
303.941
300.793
303.538
302.75
300.223
300.488
300.052
300.136
300.083
300.156
300.204
300.237
300.267
300.298
300.346
300.435
300.493
300.549
300.61
300.679
300.751
300.858
300.971
301.07
301.141
301.163
301.14
301.095
301.088
301.303
302.076
303.514
305.124
306.537
307.497
307.884
307.35
305.665
303.344
301.92
301.553
301.979
302.023
302.924
303.52
304.87
305.479
303.778
304.325
305.838
306.582
308.05
308.972
310.075
311.248
311.709
313.205
312.657
314.574
312.622
315.105
311.28
314.493
308.279
312.372
308.314
301.751
307.526
305.855
300.283
300.92
300.054
300.149
300.078
300.166
300.227
300.258
300.279
300.309
300.359
300.448
300.502
300.553
300.61
300.675
300.743
300.843
300.943
301.051
301.134
301.171
301.158
301.107
301.107
301.365
302.314
304.033
306.013
307.585
308.795
309.671
309.957
309
306.545
303.741
302.716
304.673
304.004
305.174
306.082
306.741
308.575
309.232
307.285
307.948
309.797
310.567
312.269
313.137
314.45
315.497
316.176
317.467
317.161
318.836
317.169
319.396
315.918
318.863
312.928
316.829
312.82
303.763
311.922
310.064
300.417
301.944
300.054
300.167
300.112
300.219
300.276
300.323
300.348
300.399
300.474
300.52
300.564
300.614
300.671
300.735
300.823
300.918
301.035
301.123
301.174
301.176
301.127
301.114
301.387
302.451
304.422
306.572
308.149
309.311
310.346
311.253
311.497
310.041
306.996
304.816
306.15
308.891
309.797
307.394
308.179
309.871
310.536
312.513
313.111
311.271
311.908
313.892
314.564
316.36
317.05
318.475
319.268
320.128
321.075
321.015
322.049
321.068
322.279
320.024
322.1
317.224
320.638
316.978
307.137
315.971
314.048
300.719
303.783
300.058
300.217
300.107
300.26
300.365
300.452
300.479
300.515
300.547
300.582
300.625
300.675
300.738
300.816
300.9
301.014
301.11
301.173
301.19
301.154
301.126
301.386
302.484
304.626
306.766
308.019
309.041
310.147
311.294
312.326
312.532
310.646
308.027
308.428
310.647
311.395
312.671
313.367
311.213
311.922
313.684
314.274
316.137
316.533
315.158
315.659
317.627
318.094
319.881
320.327
321.759
322.265
322.707
323.169
322.889
323.241
322.882
323.133
322.708
323.196
320.852
323.089
320.474
310.98
319.506
318.145
315.012
301.372
306.605
300.053
300.267
300.106
300.339
300.485
300.555
300.563
300.584
300.61
300.644
300.686
300.739
300.803
300.883
300.991
301.096
301.169
301.199
301.178
301.143
301.371
302.466
304.652
306.696
307.666
308.328
309.158
310.473
312.088
313.267
313.386
311.696
311.401
313.813
313.857
314.48
315.501
315.483
314.829
315.307
316.946
317.214
319.003
319.114
318.482
318.748
320.674
320.899
322.63
322.838
323.527
323.807
323.503
323.774
323.247
323.363
323.134
322.847
323.473
322.973
323.256
323.622
323.643
321.58
323.096
316.858
311.703
315.493
320.423
322.502
322.765
319.691
302.25
313.498
311.236
306.884
300.043
300.22
300.126
300.46
300.619
300.616
300.627
300.647
300.672
300.705
300.749
300.806
300.883
300.974
301.082
301.161
301.204
301.197
301.161
301.334
302.394
304.595
306.525
307.295
307.584
307.437
307.78
310.122
312.842
314.191
314.429
314.27
314.669
315.149
315.039
315.396
315.267
316.505
316.067
317.159
316.943
318.986
318.605
320.903
320.476
321.067
321.058
322.957
322.931
324.002
324.047
324.048
324.293
323.546
323.864
322.571
322.743
321.955
321.792
321.639
323.277
322.532
321.112
321.816
323.707
323.773
323.858
323.308
323.814
318.574
317.099
321.893
323.443
323.703
321.14
308.307
301.861
305.187
315.21
312.831
300.034
302.182
300.558
300.121
300.191
300.591
300.694
300.684
300.694
300.711
300.734
300.768
300.814
300.879
300.959
301.061
301.151
301.204
301.212
301.179
301.289
302.235
304.437
306.287
306.948
306.887
305.897
304.95
306.155
310.107
313.726
315.136
315.625
315.598
315.101
314.922
314.532
315.63
315.223
316.499
315.628
317.97
317.275
319.733
318.886
321.675
320.808
322.766
322.366
324.015
323.828
324.452
324.465
324.226
324.538
323.282
323.953
321.779
322.135
322.529
323.064
320.795
320.794
321.207
321.395
322.495
321.567
320.367
320.785
323.419
324.015
323.609
322.518
324.123
320.084
318.678
323.025
324.162
324.092
322.381
309.884
306.345
316.836
314.461
300.133
300.016
300.041
302.766
300.776
300.327
300.726
300.768
300.758
300.763
300.775
300.797
300.832
300.884
300.956
301.044
301.142
301.202
301.222
301.198
301.25
302.03
304.149
306.026
306.619
306.283
304.692
303.163
303.476
305.736
310.45
314.354
315.637
315.935
315.189
312.975
313.099
313.462
313.123
314.767
314.02
315.302
313.969
317.865
316.642
319.734
318.379
321.762
320.532
323.368
322.687
324.368
324.057
324.757
324.78
324.647
325.243
323.623
324.285
324.879
325.531
321.798
322.388
323.118
323.914
320.432
320.851
321.079
321.646
321.453
320.521
320.13
320.062
322.656
323.835
322.901
321.452
324.07
321.451
320.158
323.852
324.251
324.35
323.396
311.436
307.71
318.412
316.093
300.172
300.012
300.041
303.69
301.193
300.573
300.848
300.847
300.834
300.831
300.839
300.861
300.899
300.957
301.034
301.127
301.197
301.228
301.215
301.224
301.812
303.782
305.747
306.317
305.782
303.846
302.253
302.082
303.008
305.677
310.559
314.471
315.532
314.886
311.571
310.637
310.25
311.173
310.811
312.778
311.828
313.279
311.612
316.79
315.052
318.994
317.188
321.352
319.868
323.448
322.555
324.622
324.186
325.751
325.903
326.087
326.672
327.133
327.569
324.735
325.583
326.42
327.236
322.46
323.383
324.389
325.444
320.685
321.626
321.664
322.642
320.354
319.826
320.571
319.898
321.59
323.227
321.869
320.311
323.608
322.648
321.524
324.327
323.99
324.309
324.109
313.069
309.278
319.931
317.749
300.269
300.009
300.043
305.015
301.864
300.875
300.952
300.93
300.908
300.899
300.904
300.926
300.968
301.031
301.115
301.192
301.232
301.23
301.216
301.606
303.353
305.449
306.051
305.395
303.275
301.804
301.462
301.72
302.843
305.607
309.863
313.12
313.262
310.155
307.019
306.365
307.699
307.414
308.354
307.932
310.184
309.088
311.075
309.194
315.194
313.116
318.139
316.212
321.215
319.676
323.482
322.492
325.759
325.354
328.906
329.191
327.993
328.681
329.266
329.65
326.524
327.598
328.635
329.6
323.789
325.018
326.306
327.615
321.713
322.883
323.135
324.254
319.667
319.706
321.726
320.441
320.421
322.277
320.688
319.595
322.798
323.627
322.753
324.492
323.363
323.912
324.503
314.837
311.112
321.389
319.445
300.414
300.008
300.075
306.813
302.809
301.052
301.058
301.016
300.982
300.965
300.967
300.99
301.036
301.108
301.187
301.232
301.242
301.22
301.439
302.886
305.113
305.818
305.138
302.931
301.585
301.215
301.218
301.575
302.72
304.954
307.411
308.239
305.982
302.993
303.305
302.53
304.311
303.86
305.348
304.744
307.555
306.259
309.999
308.064
314.156
312.057
317.914
315.98
322.237
320.669
324.61
323.563
328.99
328.574
332.342
332.407
331.891
332.217
330.454
331.175
331.739
332.137
328.906
330.134
331.25
332.208
325.722
327.235
328.751
330.214
323.34
324.727
325.157
326.423
319.556
320.294
323.457
321.673
319.632
321.126
319.779
319.475
321.738
324.311
323.778
324.377
322.439
323.208
324.665
316.819
313.416
322.761
321.207
300.81
300.103
300.416
309.33
304.74
301.221
301.183
301.108
301.052
301.025
301.026
301.052
301.107
301.183
301.23
301.251
301.234
301.325
302.425
304.71
305.599
304.993
302.797
301.5
301.133
301.055
301.121
301.473
302.31
303.337
303.617
302.785
301.578
301.055
300.914
301.507
301.189
302.265
301.849
303.664
302.83
306.32
304.832
309.78
307.808
313.937
311.849
318.902
316.97
325.255
323.578
327.79
326.662
331.59
331.078
330.62
333.502
333.105
332.168
332.662
332.962
333.514
333.808
333.773
331.572
332.761
333.727
334.44
328.147
329.833
331.418
332.832
325.483
327.062
327.594
328.97
320.105
321.529
325.672
323.453
319.437
320.091
319.505
319.908
320.638
324.726
324.548
323.95
321.384
322.307
324.552
318.997
316.164
323.989
322.912
302.289
302.138
302.739
312.761
308.839
301.454
301.339
301.198
301.113
301.079
301.081
301.116
301.18
301.227
301.257
301.249
301.267
302
304.203
305.385
304.914
302.805
301.492
301.119
301.019
300.996
301.056
301.273
301.53
301.59
301.343
300.968
300.737
300.777
300.722
301.006
300.857
301.623
301.242
303.158
302.23
306.013
304.448
310.449
308.236
314.895
312.703
321.664
319.557
328.071
326.803
329.892
328.985
331.71
331.263
329.748
329.448
333.532
332.84
331.276
332.024
334.828
334.831
334.588
334.092
334.016
334.918
335.483
335.631
330.794
332.449
333.864
334.979
327.973
329.661
330.196
331.591
321.26
323.295
328.182
325.697
319.706
319.654
319.633
320.903
319.964
324.965
325.072
323.258
320.499
321.354
324.205
321.253
319.181
324.937
324.377
306.934
311.384
312.389
317.127
315.877
301.784
301.502
301.272
301.163
301.128
301.141
301.182
301.225
301.26
301.262
301.253
301.656
303.583
305.166
304.906
302.866
301.518
301.13
301.023
300.979
300.955
300.972
300.995
300.987
300.903
300.789
300.71
300.674
300.669
300.707
300.678
300.879
300.765
301.465
301.089
303.086
302.103
306.193
304.449
311.948
309.289
317.213
314.644
325.138
322.964
328.321
327.59
329.313
329.176
328.604
330.603
330.101
327.502
327.442
332.567
331.34
329.088
330.136
335.48
335.065
334.497
333.683
335.763
336.125
336.132
335.928
333.284
334.664
335.694
336.337
330.559
332.214
332.668
333.925
322.97
325.52
330.749
328.205
320.51
319.657
320.174
322.472
319.822
324.966
325.44
322.449
320.126
320.695
323.646
323.373
322.188
325.595
325.482
316.846
312.458
320.361
321.525
322.074
302.155
301.633
301.324
301.206
301.177
301.188
301.224
301.262
301.273
301.256
301.438
302.914
304.887
304.934
303.033
301.608
301.172
301.044
300.994
300.952
300.922
300.896
300.865
300.818
300.759
300.709
300.67
300.654
300.652
300.674
300.657
300.813
300.717
301.385
301.009
303.133
302.053
306.828
304.725
313.768
310.441
320.265
317.123
326.522
324.932
326.322
326.504
325.921
327.514
327.685
326.052
325.708
328.281
327.756
324.775
324.836
330.846
329.224
326.368
327.673
335.417
334.741
333.684
332.363
336.54
336.493
336.202
335.741
335.264
336.197
336.706
336.812
332.968
334.401
334.733
335.698
325.124
328.001
333.117
330.75
321.87
319.961
321.235
324.497
319.961
324.76
325.614
321.7
320.16
320.512
323.063
325.079
324.619
326.063
326.263
323.476
302.964
318.141
324.623
325.453
302.481
301.704
301.353
301.236
301.211
301.231
301.266
301.284
301.27
301.333
302.292
304.445
304.963
303.355
301.832
301.278
301.1
301.023
300.983
300.937
300.898
300.862
300.82
300.769
300.722
300.687
300.653
300.664
300.648
300.648
300.664
300.65
300.792
300.703
301.354
300.98
303.213
302.044
307.441
305.002
316.264
312.5
322.726
319.8
325.703
324.744
324.239
324.8
322.502
322.937
325.06
325.377
323.719
323.202
325.414
324.907
321.968
322.04
329.168
327.172
323.708
325.278
335.02
333.938
332.61
331.015
336.723
336.411
335.933
335.173
336.56
336.939
336.991
336.883
334.952
336.008
336.213
336.796
327.539
330.527
335.064
333.104
323.693
320.719
322.801
326.805
320.368
324.44
325.57
321.259
320.352
320.649
322.569
326.303
326.366
326.379
326.828
325.142
302.169
318.869
326.646
327.15
302.686
301.708
301.361
301.261
301.249
301.271
301.29
301.286
301.295
301.818
303.817
304.942
303.754
302.157
301.512
301.213
301.084
301.016
300.979
300.933
300.888
300.849
300.807
300.757
300.71
300.68
300.648
300.658
300.637
300.639
300.659
300.641
300.82
300.708
301.535
301.059
303.874
302.41
308.99
306.07
318.032
314.933
323.108
320.834
323.131
323.154
321.88
321.384
321.96
319.43
320.037
322.314
322.725
320.789
320.251
322.591
322.077
319.27
319.275
327.67
325.481
321.456
323.327
334.175
332.935
331.448
329.688
336.547
336.072
335.322
334.392
337.085
337.099
336.975
336.633
336.369
336.955
337.03
337.164
330.035
332.889
336.432
335.045
325.853
321.933
324.664
329.26
321.201
324.077
325.449
321.238
320.805
320.925
322.333
327.161
327.528
326.523
327.238
326.431
313.63
324.926
327.97
328.268
302.727
301.675
301.361
301.286
301.283
301.299
301.3
301.29
301.528
303.07
304.802
304.173
302.542
301.839
301.439
301.197
301.075
301.011
300.971
300.931
300.888
300.848
300.801
300.744
300.702
300.662
300.633
300.645
300.624
300.626
300.662
300.631
300.941
300.746
302.173
301.359
305.679
303.572
311.649
308.451
317.801
315.459
321.042
319.679
320.54
320.981
317.52
317.495
318.199
318.805
315.823
316.36
319.445
319.802
317.643
317.192
320.115
319.468
316.884
316.768
326.053
323.703
319.528
321.452
333.239
331.843
330.188
328.248
336.112
335.387
334.491
333.427
337.144
336.982
336.572
335.977
337.002
337.197
337.121
337.146
332.408
334.826
336.852
336.322
328.068
323.416
326.552
331.442
322.261
323.788
325.246
321.473
321.509
321.457
322.449
327.768
328.285
326.483
327.504
328.342
318.601
328.209
328.769
329.169
302.651
301.618
301.361
301.309
301.309
301.314
301.296
301.386
302.365
304.404
304.479
302.984
302.206
301.795
301.409
301.174
301.064
301.005
300.962
300.924
300.885
300.844
300.791
300.732
300.688
300.641
300.637
300.658
300.625
300.618
300.618
300.663
300.626
301.034
300.768
302.767
301.623
307.131
304.632
312.788
309.944
314.617
313.431
316.059
315.537
316.879
317.302
314.552
313.995
314.912
315.332
312.353
312.661
316.762
316.902
314.579
314.352
318.118
317.254
314.763
314.485
324.43
321.898
317.569
319.531
332.161
330.653
328.877
326.788
335.294
334.449
333.476
332.348
336.958
336.419
335.858
335.151
336.97
337.047
336.911
336.838
334.171
335.853
336.659
336.482
329.979
324.881
328.154
333.037
323.405
323.695
325.026
322.001
322.514
322.419
322.939
328.236
328.822
326.356
327.667
329.547
304.601
324.243
329.359
329.805
302.486
301.557
301.362
301.329
301.324
301.314
301.333
301.853
303.749
304.555
303.498
302.586
302.186
301.791
301.354
301.14
301.058
301.001
300.954
300.913
300.878
300.838
300.779
300.714
300.681
300.634
300.641
300.653
300.62
300.611
300.613
300.657
300.62
301.033
300.764
302.822
301.64
307.157
304.723
311.769
309.643
309.775
308.98
311.022
311.094
310.231
313.041
313.504
310.787
310.468
311.918
312.102
309.584
309.732
314.35
314.304
311.802
311.808
316.189
315.325
312.77
312.343
322.919
320.164
315.606
317.646
331.031
329.476
327.634
325.428
334.34
333.419
332.387
331.234
336.2
335.585
334.846
334.039
336.611
336.699
336.368
335.969
334.994
335.776
335.954
336.058
331.537
326.366
329.941
333.813
324.903
324.109
325.321
322.939
324.163
323.963
323.877
328.557
329.222
326.476
327.739
329.614
301.239
316.287
329.835
330.211
302.272
301.505
301.367
301.341
301.332
301.324
301.554
302.96
304.495
304.007
302.98
302.573
302.258
301.739
301.277
301.124
301.052
300.999
300.949
300.904
300.872
300.83
300.758
300.706
300.669
300.625
300.632
300.648
300.612
300.6
300.602
300.633
300.605
300.934
300.719
302.342
301.416
305.5
303.788
308.079
306.99
308.912
307.482
309.974
310.027
309.437
310.029
309.932
310.178
309.814
309.569
309.461
309.483
308.638
308.839
312.038
311.875
309.478
309.546
314.22
313.405
310.877
310.385
321.856
318.967
313.712
316.044
329.924
328.391
326.583
324.371
333.161
332.218
331.19
330.065
335.256
334.39
333.494
332.664
335.528
335.626
334.379
334.887
334.658
334.889
333.504
334.394
332.432
328.36
330.965
333.379
327.001
324.917
325.946
324.222
325.925
325.357
324.818
328.74
329.542
326.974
328.053
328.295
301.051
314.182
330.192
330.253
302.06
301.467
301.369
301.345
301.328
301.412
302.254
304.229
304.313
303.418
302.944
302.737
302.272
301.592
301.228
301.107
301.046
300.994
300.945
300.899
300.869
300.815
300.744
300.697
300.652
300.642
300.673
300.619
300.627
300.604
300.587
300.592
300.599
300.587
300.754
300.643
301.436
300.992
303.136
302.147
305.889
304.38
311.431
314.063
311.962
310.47
310.447
310.414
312.697
309.056
309.297
310.335
310.071
308.367
308.498
308.881
309.154
309.976
309.691
308.318
308.319
312.237
311.52
309.263
308.825
321.443
318.577
312.659
315.368
328.866
327.548
325.958
323.935
331.791
330.932
330.024
329.147
333.959
332.753
331.859
330.999
332.903
333.209
332.079
331.818
333.551
333.415
332.777
332.54
332.033
329.377
330.425
332.437
327.969
325.453
326.286
325.167
326.793
325.949
325.376
329.036
329.831
327.274
328.363
326.811
300.262
308.84
330.458
330.023
301.876
301.44
301.367
301.349
301.362
301.785
303.537
304.359
303.876
303.304
303.154
302.845
302.201
301.447
301.179
301.095
301.039
300.989
300.939
300.895
300.866
300.799
300.734
300.69
300.637
300.647
300.664
300.612
300.621
300.598
300.574
300.584
300.569
300.57
300.63
300.582
301.02
300.751
302.586
301.57
306.907
304.281
316.024
319.381
316.714
315.861
319.343
313.481
313.427
317.523
309.448
309.755
313.341
313.019
308.435
308.65
311.03
311.524
308.559
308.374
308.272
308.214
310.684
309.778
308.633
308.344
321.329
318.614
312.473
315.311
328.231
327.101
325.665
323.845
330.328
329.648
329.1
328.473
330.128
329.847
329.043
328.76
322.764
331.614
322.736
330.464
332.016
331.512
323.53
323.256
330.688
329.106
329.522
330.745
327.818
325.76
326.52
325.483
326.703
325.73
325.452
329.244
330.111
327.547
328.698
325.454
300.44
308.981
330.568
329.611
301.731
301.419
301.366
301.357
301.533
302.703
304.261
304.216
303.673
303.513
303.397
302.861
301.979
301.316
301.152
301.085
301.032
300.982
300.932
300.893
300.856
300.783
300.731
300.68
300.63
300.641
300.66
300.606
300.614
300.591
300.562
300.576
300.553
300.553
300.598
300.56
301.022
300.713
303.756
301.829
312.973
307.408
321.505
324.6
322.115
320.55
323.676
318.3
318.275
323.007
312.037
312.573
318.122
317.697
310.089
310.543
315.155
315.869
308.231
308.182
309.708
309.361
310.15
309.155
308.951
308.865
321.892
319.579
313.262
316.314
327.737
326.698
325.556
324.165
328.429
328.121
327.763
327.345
321.836
321.777
321.818
321.716
315.866
322.67
315.784
322.403
323.346
323.394
316.089
316.116
323.323
328.249
322.998
323.933
326.986
325.755
326.551
325.285
325.808
325.05
325.261
329.543
330.314
327.745
328.837
325.871
390.141
315.028
330.564
329.659
301.621
301.401
301.369
301.421
302.061
303.916
304.33
304.041
303.831
303.842
303.5
302.738
301.669
301.236
301.133
301.076
301.024
300.974
300.926
300.894
300.841
300.775
300.727
300.676
300.656
300.626
300.638
300.599
300.609
300.584
300.556
300.569
300.544
300.545
300.609
300.554
301.524
300.823
307.481
303.42
321.257
313.852
326.605
328.797
326.456
324.255
327.211
323.686
323.657
327.961
316.508
317.126
323.52
323.143
313.727
314.425
320.571
321.335
308.911
309.123
313.129
312.519
310.577
309.378
311.14
311.117
323.562
321.945
316.336
319.379
326.907
326.242
325.428
324.933
321.704
321.631
321.624
321.678
315.711
315.661
315.792
315.77
308.842
315.828
308.818
315.724
316.25
316.078
308.937
308.946
316.493
322.659
316.391
316.474
322.193
325.831
326.313
324.899
321.6
321.079
325.519
329.7
330.492
327.858
329.039
327.581
718.757
341.205
330.599
329.978
301.539
301.393
301.392
301.683
303.122
304.29
304.316
304.13
304.189
304.086
303.493
302.412
301.418
301.193
301.121
301.067
301.016
300.966
300.921
300.891
300.827
300.766
300.725
300.672
300.653
300.65
300.621
300.635
300.593
300.605
300.578
300.552
300.564
300.539
300.541
300.687
300.562
302.686
301.174
312.466
306.248
326.421
327.171
322.906
319.6
330.627
331.773
329.698
329.559
328.681
328.544
331.826
322.044
322.634
328.614
328.427
319.058
319.784
326.471
327.076
311.451
311.965
318.316
317.51
313.367
311.585
315.944
315.711
324.698
324.337
322.458
323.822
321.779
321.918
325.032
324.983
315.959
315.969
316.231
316.397