/*--------------------------------*- C++ -*----------------------------------*\
  =========                 |
  \\      /  F ield         | OpenFOAM: The Open Source CFD Toolbox
   \\    /   O peration     | Website:  https://openfoam.org
    \\  /    A nd           | Version:  dev
     \\/     M anipulation  |
\*---------------------------------------------------------------------------*/
FoamFile
{
    version     2.0;
    format      ascii;
    class       volVectorField;
    location    "2500";
    object      U;
}
// * * * * * * * * * * * * * * * * * * * * * * * * * * * * * * * * * * * * * //

dimensions      [0 1 -1 0 0 0 0];

internalField   nonuniform List<vector> 
9851
(
(0.00416184 0.00689458 0)
(0.00969077 0.00627263 0)
(0.00411848 0.0178938 3.50907e-27)
(0.0130669 0.00533845 -4.35822e-28)
(0.0107114 0.0183182 -3.21314e-27)
(0.00346911 0.0253944 4.15298e-27)
(0.0154663 0.00442323 -4.18472e-28)
(0.014781 0.0179037 0)
(0.0101473 0.0265292 -7.73899e-27)
(0.00279161 0.0313828 0)
(0.0170075 0.00371312 0)
(0.0172038 0.0163858 -1.33977e-27)
(0.015281 0.0274817 0)
(0.00869911 0.0324689 -4.20053e-27)
(0.00235439 0.0365533 -3.00855e-28)
(0.0179783 0.00307982 0)
(0.0185307 0.014117 -1.33821e-27)
(0.0188962 0.0273917 0)
(0.0142471 0.0341567 0)
(0.00726293 0.0373609 -1.36004e-27)
(0.00203614 0.0411226 1.83678e-27)
(0.018708 0.00256216 0)
(0.0192884 0.0117449 0)
(0.0210584 0.0261317 1.63292e-27)
(0.0188575 0.0355171 0)
(0.0123714 0.0389747 -1.03959e-27)
(0.00622973 0.0417095 -3.24601e-27)
(0.00179554 0.0451307 2.2254e-27)
(0.0192151 0.00217526 0)
(0.0197306 0.00967784 1.14621e-29)
(0.0220511 0.0240262 1.65342e-27)
(0.0222012 0.0359446 0)
(0.0173057 0.0410042 0)
(0.0105875 0.0430023 -1.71428e-27)
(0.00544924 0.0455763 -6.91569e-28)
(0.00160109 0.0487506 1.55836e-28)
(0.0194791 0.00190947 0)
(0.0199106 0.00816027 1.34823e-28)
(0.0221832 0.0214095 -7.77953e-28)
(0.0242127 0.0351861 0)
(0.0215391 0.0427891 7.94224e-28)
(0.0150898 0.0449147 -1.69963e-27)
(0.00920673 0.0466083 1.40079e-27)
(0.0048213 0.0490924 3.71003e-28)
(0.00143454 0.0520229 0)
(0.0195883 0.00171732 2.19642e-29)
(0.0199622 0.00715784 1.36128e-28)
(0.0218978 0.0186292 -7.29542e-28)
(0.0250435 0.0333679 -6.30335e-29)
(0.0247083 0.0437456 7.99238e-28)
(0.0195381 0.0471918 6.99597e-28)
(0.0130847 0.048171 1.17101e-28)
(0.00813155 0.0498944 4.79722e-28)
(0.00431222 0.0523051 6.19118e-28)
(0.00129227 0.055025 0)
(0.0195849 0.00156532 0)
(0.0199512 0.00643593 1.75018e-29)
(0.0215396 0.0159865 2.15541e-36)
(0.0249973 0.0307756 8.84387e-29)
(0.026719 0.0435834 -1.00937e-27)
(0.0235015 0.0493293 1.49887e-27)
(0.0171001 0.0502603 0)
(0.0115103 0.0511414 -3.42489e-28)
(0.00724933 0.0529861 1.892e-27)
(0.00388147 0.0552509 0)
(0.00116755 0.0577725 -8.34361e-28)
(0.0194868 0.00143866 4.40292e-29)
(0.019898 0.00582872 0)
(0.0211739 0.0137606 1.24161e-27)
(0.0244212 0.0277256 -8.18819e-28)
(0.0276189 0.0422571 -9.51192e-28)
(0.026618 0.0507759 -1.54664e-28)
(0.0211546 0.0527151 -4.81308e-29)
(0.0149758 0.0528272 0)
(0.0102452 0.0540298 -1.52769e-27)
(0.00650706 0.0558285 4.32597e-29)
(0.00351559 0.0579526 0)
(0.00106066 0.0603015 7.34764e-33)
(0.0193063 0.00134385 0)
(0.0197312 0.00529716 4.05565e-29)
(0.0208472 0.0121205 1.09138e-27)
(0.023637 0.024601 -7.86769e-28)
(0.0276018 0.0399835 0)
(0.0287044 0.0511919 0)
(0.0249136 0.0551504 -1.63716e-28)
(0.0186197 0.0549905 -9.79103e-29)
(0.0132922 0.0553889 -7.95422e-28)
(0.00918773 0.0567183 -1.82102e-27)
(0.00588533 0.0584465 3.40068e-28)
(0.00319683 0.0604412 4.95494e-29)
(0.000965783 0.0626585 1.42439e-27)
(0.019046 0.00127933 0)
(0.0194547 0.00489071 0)
(0.0205207 0.0109455 0)
(0.0227947 0.0217252 -1.26467e-29)
(0.0269512 0.0371099 0)
(0.0297304 0.0504268 1.04792e-27)
(0.0280093 0.0570463 2.69426e-28)
(0.0223213 0.0575485 0)
(0.0164481 0.057147 -9.75072e-29)
(0.0119161 0.0578669 0)
(0.00828741 0.0592215 -3.79591e-28)
(0.00534203 0.0608837 -6.93009e-28)
(0.0029154 0.0627712 6.3418e-29)
(0.000882345 0.0648324 7.77844e-28)
(0.0187556 0.00124592 0)
(0.0191459 0.00457758 7.13122e-29)
(0.0201221 0.00999888 0)
(0.0219817 0.0193505 -1.28628e-27)
(0.02586 0.0338942 0)
(0.0298267 0.0486734 1.04041e-27)
(0.0301703 0.058068 1.92662e-28)
(0.0258556 0.0602044 2.83761e-28)
(0.019722 0.0593613 5.62759e-28)
(0.0146798 0.0593275 0)
(0.010732 0.0602153 0)
(0.00750581 0.0615858 0)
(0.00486124 0.0631513 1.61876e-28)
(0.00266739 0.0649166 6.91405e-28)
(0.000809475 0.0669041 3.38293e-28)
(0.0184805 0.00123427 0)
(0.0188054 0.00430072 0)
(0.0196949 0.00921693 1.33768e-28)
(0.0212834 0.0175469 -1.12434e-27)
(0.0245997 0.0306277 0)
(0.029199 0.0461436 1.79495e-27)
(0.0313597 0.0578752 1.0883e-28)
(0.028897 0.0625263 2.1771e-28)
(0.023077 0.0619753 6.37989e-28)
(0.017516 0.0611573 -1.77854e-28)
(0.0132007 0.0614651 0)
(0.0097092 0.062446 0)
(0.00682968 0.0637689 3.40339e-28)
(0.00445173 0.0652504 3.84775e-28)
(0.00244472 0.0669704 3.66379e-28)
(0.00074027 0.0688352 3.19628e-28)
(0.0182041 0.00123262 0)
(0.0184699 0.00409356 1.08592e-28)
(0.0192724 0.00860646 0)
(0.0206549 0.0161398 5.9669e-29)
(0.023374 0.0276216 0)
(0.0280263 0.0431187 3.30237e-27)
(0.0315801 0.0568181 0)
(0.0311268 0.0640651 0)
(0.0263777 0.0647711 1.20974e-28)
(0.0204709 0.0633868 0)
(0.0156994 0.0630055 -4.74633e-36)
(0.0119418 0.0635007 0)
(0.00884336 0.0644999 0)
(0.00625493 0.06581 -1.54705e-27)
(0.00408911 0.0672651 3.69397e-28)
(0.00224349 0.0688918 0)
(0.00067399 0.0706671 0)
(0.0179507 0.00124452 0)
(0.018151 0.00396195 0)
(0.0188364 0.0081247 2.08309e-28)
(0.0200712 0.0149915 7.83498e-29)
(0.0222667 0.0251582 0)
(0.0265493 0.0398074 1.4638e-27)
(0.0310495 0.0547472 0)
(0.0324397 0.0646897 -1.73456e-27)
(0.029288 0.067391 0)
(0.0235144 0.0659958 -4.46022e-28)
(0.018284 0.0648638 -2.30719e-28)
(0.0141831 0.0648024 4.99534e-28)
(0.0108698 0.0653887 -4.70328e-28)
(0.00809267 0.0664718 3.87176e-28)
(0.00575134 0.0677777 -2.71995e-27)
(0.00376281 0.0691498 5.86558e-28)
(0.00205916 0.0707147 3.20352e-28)
(0.000611092 0.072381 1.39643e-28)
(0.0177684 0.00125067 6.07294e-27)
(0.0178692 0.00385826 -6.11627e-28)
(0.0184512 0.00777861 2.50818e-28)
(0.0194933 0.0140492 9.81632e-29)
(0.0213408 0.0232477 9.80431e-28)
(0.0249862 0.0364435 1.29019e-27)
(0.0299625 0.0520677 1.98721e-29)
(0.0328194 0.0641232 -8.28685e-44)
(0.0315392 0.0694292 -4.63748e-29)
(0.026513 0.0688542 -4.12937e-28)
(0.0209488 0.0670719 7.39747e-28)
(0.0164626 0.0663734 -1.76736e-28)
(0.0128992 0.0665044 -7.92215e-28)
(0.00994381 0.0672442 1.92901e-28)
(0.00743199 0.0683623 9.15484e-32)
(0.00530079 0.0696198 -1.16576e-27)
(0.00346742 0.0709473 8.1872e-28)
(0.00188094 0.0724271 -3.85818e-29)
(0.000551785 0.0740085 -9.23993e-30)
(0.0176699 0.00124045 1.34789e-26)
(0.0176626 0.00379106 5.68872e-27)
(0.0181386 0.00755057 -1.32865e-27)
(0.0189428 0.013266 1.21222e-27)
(0.0205455 0.0217356 5.19998e-28)
(0.0235116 0.0333828 1.03733e-27)
(0.0284479 0.0489916 6.77846e-29)
(0.0325174 0.0628199 1.57085e-27)
(0.0330087 0.0706624 3.97739e-31)
(0.0292609 0.0716477 0)
(0.0236676 0.0696228 4.97568e-28)
(0.0188056 0.0682266 -1.87204e-28)
(0.0149421 0.067839 -2.82566e-28)
(0.0118009 0.0681898 0)
(0.00913873 0.0690279 -1.9246e-28)
(0.00686085 0.0701498 -4.22198e-29)
(0.00489066 0.071396 3.14882e-28)
(0.00318858 0.0726483 0)
(0.00170085 0.0740547 -7.40978e-28)
(0.000491506 0.0755402 0)
(0.017677 0.0012279 -1.61932e-28)
(0.0175385 0.00379002 1.30633e-26)
(0.0178969 0.00737211 -5.68792e-28)
(0.0184849 0.0126532 6.53268e-28)
(0.0198255 0.020524 9.01095e-28)
(0.0221987 0.0309182 -3.20154e-28)
(0.0266745 0.0456962 0)
(0.031544 0.0605831 5.7891e-29)
(0.0336204 0.0706891 0)
(0.0315255 0.0740882 8.33894e-30)
(0.0263637 0.0724404 0)
(0.0211845 0.0703745 -2.99543e-28)
(0.0170193 0.069394 3.60239e-28)
(0.0136654 0.0693227 -7.84476e-28)
(0.0108472 0.0698595 -6.14465e-28)
(0.0084331 0.070735 1.79618e-28)
(0.0063409 0.0719039 3.59226e-28)
(0.00450476 0.0730851 3.36603e-28)
(0.00290887 0.0742743 -1.14406e-27)
(0.00151933 0.0755956 3.16606e-29)
(0.000422379 0.0769668 0)
(0.0178125 0.00124104 -1.62298e-28)
(0.0175113 0.00382955 7.42459e-27)
(0.0177332 0.00720275 0)
(0.0181601 0.0122184 0)
(0.0192026 0.0195183 -2.18005e-27)
(0.0211095 0.0290504 1.64202e-27)
(0.024894 0.0423936 -1.39434e-28)
(0.0300721 0.0578162 0)
(0.033445 0.0700673 2.4696e-29)
(0.0331084 0.0757902 0)
(0.0288904 0.0753497 -1.01755e-27)
(0.0235774 0.0728366 1.30356e-28)
(0.0190992 0.0712103 0)
(0.0155273 0.0706311 3.91658e-28)
(0.0125684 0.0708523 -1.88861e-27)
(0.0100117 0.0714617 -4.08384e-28)
(0.00780577 0.0724315 4.92873e-33)
(0.00584823 0.0735838 3.94087e-28)
(0.00412973 0.0747137 3.68725e-28)
(0.00261498 0.0758205 2.939e-32)
(0.00132122 0.0770489 0)
(0.000345986 0.0782772 0)
(0.0180879 0.00127264 1.87634e-26)
(0.0176025 0.00386663 0)
(0.0176757 0.00707133 7.30605e-27)
(0.0179522 0.0119227 -1.935e-28)
(0.0186784 0.0186795 2.93699e-28)
(0.0202663 0.027623 -4.77262e-27)
(0.0232951 0.0393468 7.25859e-28)
(0.0283002 0.0547236 9.52153e-28)
(0.0327384 0.0686018 1.11735e-27)
(0.033921 0.0767073 3.69707e-29)
(0.0310791 0.0780338 -9.62014e-28)
(0.0259569 0.075569 -5.15388e-29)
(0.0211784 0.0733088 1.61436e-28)
(0.0173721 0.0721334 0)
(0.0142842 0.0719554 0)
(0.0116226 0.0723275 -8.72966e-28)
(0.00929076 0.0730565 0)
(0.0072321 0.0740873 1.24199e-36)
(0.0053776 0.075211 -2.32555e-28)
(0.00374112 0.0762795 -6.966e-28)
(0.00230173 0.0773027 1.19428e-28)
(0.00109155 0.0783764 -8.64402e-29)
(0.000264252 0.0794679 -3.54786e-29)
(0.01854 0.00130656 0)
(0.0178435 0.00391162 1.87093e-26)
(0.0177469 0.00703065 0)
(0.0178302 0.0117239 -7.20341e-27)
(0.0182865 0.0180407 -9.13088e-31)
(0.0195919 0.026474 1.55943e-27)
(0.0219115 0.036828 -1.11189e-27)
(0.0264189 0.051464 6.89254e-28)
(0.0314185 0.0662235 1.13663e-27)
(0.0338934 0.0764656 0)
(0.0327293 0.0802842 1.37866e-29)
(0.0282377 0.0784629 7.03352e-29)
(0.0232764 0.0756789 -7.21466e-29)
(0.0191993 0.0738376 -1.9354e-28)
(0.0159719 0.0731737 0)
(0.013238 0.0732918 -6.743e-28)
(0.0108035 0.0738114 9.00055e-28)
(0.00864658 0.0746696 -4.20884e-28)
(0.00668102 0.0757016 -1.8377e-28)
(0.00490592 0.076811 -1.11634e-28)
(0.00332272 0.077782 -1.37803e-27)
(0.00195148 0.078668 -3.41409e-28)
(0.00083377 0.0795908 -7.61729e-28)
(0.000168949 0.0804957 0)
(0.0191632 0.00134864 9.0054e-29)
(0.0182547 0.00399101 0)
(0.0179657 0.00707339 0)
(0.0178221 0.0115911 -7.96784e-27)
(0.0180614 0.0175674 -7.21422e-27)
(0.019016 0.0255096 -1.44086e-27)
(0.0208115 0.0349497 2.25994e-27)
(0.0245941 0.0482498 0)
(0.029745 0.0634479 0)
(0.0334525 0.0757153 -7.5532e-28)
(0.0337258 0.0816974 6.55082e-28)
(0.0302751 0.0813507 5.62515e-28)
(0.025336 0.0783088 1.22825e-28)
(0.0210209 0.0757801 0)
(0.0176175 0.0745361 7.0783e-29)
(0.0148217 0.0743356 8.13913e-28)
(0.0123323 0.0746627 2.30674e-28)
(0.0100865 0.0753495 9.22764e-28)
(0.00802846 0.0762681 -1.92913e-35)
(0.00613073 0.0773224 3.3724e-28)
(0.00439657 0.0783598 5.20085e-28)
(0.00286002 0.0791964 4.80698e-28)
(0.00153383 0.0799339 -7.69607e-28)
(0.000533872 0.0806522 -9.93162e-29)
(5.77775e-05 0.081356 6.23861e-30)
(0.0199452 0.00139839 2.48439e-26)
(0.0188379 0.00409784 0)
(0.0183447 0.00717367 0)
(0.0179596 0.0115365 -9.11154e-27)
(0.0179713 0.017217 -7.92715e-27)
(0.0185811 0.0247551 0)
(0.0199905 0.033581 -8.47253e-28)
(0.0229446 0.0452957 1.03311e-27)
(0.0278749 0.0604568 3.0515e-27)
(0.0324148 0.0741896 2.18904e-31)
(0.0339355 0.0824226 7.53792e-28)
(0.0318768 0.0839446 3.73694e-28)
(0.0273081 0.0811519 -1.74781e-28)
(0.022789 0.0779918 8.83493e-29)
(0.0192018 0.0760963 4.27536e-28)
(0.0163397 0.0754641 5.34507e-28)
(0.0138439 0.0755655 1.31089e-27)
(0.0115507 0.076089 5.22474e-28)
(0.00942834 0.0769295 0)
(0.00742314 0.077881 7.78553e-28)
(0.00554784 0.0789287 9.54153e-28)
(0.00382624 0.0798542 1.01732e-27)
(0.00231049 0.080539 9.64835e-28)
(0.00103273 0.0810756 -7.64316e-29)
(0.000175644 0.0815653 5.773e-29)
(-7.84925e-05 0.0820208 -6.23375e-29)
(0.0209303 0.00144416 0)
(0.0195972 0.00420908 2.46317e-26)
(0.0189076 0.00732985 0)
(0.0182746 0.0115707 -1.01437e-26)
(0.0180046 0.0169998 -2.16636e-31)
(0.0183041 0.02423 7.92035e-28)
(0.0193523 0.0325437 7.28117e-28)
(0.0215479 0.0428484 -3.20998e-28)
(0.0259403 0.0573847 1.75205e-27)
(0.0308255 0.0719099 3.10693e-27)
(0.0335893 0.0822281 5.78715e-28)
(0.0329307 0.0860529 -9.92259e-29)
(0.0290718 0.0840947 1.76842e-28)
(0.0244892 0.0804945 -3.10828e-28)
(0.0206982 0.0778792 0)
(0.0177585 0.0767103 2.84957e-28)
(0.0152851 0.0765154 -4.8578e-36)
(0.0130143 0.0768604 0)
(0.0108678 0.0776207 0)
(0.00879241 0.0785207 -1.91579e-28)
(0.00680086 0.079529 1.48874e-27)
(0.00490027 0.080515 0)
(0.00316425 0.0813082 -4.05838e-28)
(0.00164946 0.0817758 4.22005e-28)
(0.000431085 0.0820656 0)
(-0.000213048 0.0822588 0)
(-0.000242433 0.0823879 3.89461e-29)
(0.0221328 0.00148375 1.43167e-26)
(0.0205624 0.0043244 -2.34936e-28)
(0.0196711 0.00753026 0)
(0.0187997 0.0116661 0)
(0.0182057 0.016933 -9.53513e-27)
(0.0181884 0.0238822 9.75115e-27)
(0.0188682 0.0317819 0)
(0.0204143 0.0410839 8.29181e-28)
(0.0240641 0.0543916 -1.05629e-28)
(0.029018 0.0693829 4.23025e-33)
(0.0327756 0.0814948 2.61202e-27)
(0.033367 0.0874194 -1.28954e-29)
(0.0305294 0.086981 -2.66053e-28)
(0.0260698 0.0832644 -2.9589e-33)
(0.0220972 0.079918 -2.2875e-28)
(0.0190582 0.0780871 0)
(0.0166273 0.0775176 0)
(0.0144275 0.0776464 -6.84671e-28)
(0.0123222 0.07828 0)
(0.0102429 0.0791904 -2.08622e-28)
(0.00816313 0.0801935 0)
(0.00611499 0.0811947 1.62958e-28)
(0.00415516 0.0820947 -9.97723e-28)
(0.00237977 0.0826771 8.8847e-29)
(0.000856062 0.0828852 -4.79563e-28)
(-0.000273192 0.0828297 6.09213e-28)
(-0.000690537 0.0827125 4.51364e-28)
(-0.000433819 0.0824387 5.21024e-28)
(0.023544 0.00152536 0)
(0.0217424 0.00445924 1.41944e-26)
(0.0206356 0.00775096 0)
(0.0195349 0.0118135 -1.22379e-26)
(0.0186275 0.0170206 4.91275e-28)
(0.0182526 0.0236682 6.26515e-28)
(0.0185402 0.0313077 1.47886e-27)
(0.019531 0.0399426 1.33391e-27)
(0.0223482 0.0517006 0)
(0.0270357 0.0667326 7.0217e-28)
(0.0313643 0.0800984 -1.69297e-27)
(0.0330939 0.0882611 -2.8177e-28)
(0.0315263 0.0895742 -3.98237e-28)
(0.0274877 0.0862363 -1.02992e-27)
(0.0233957 0.0822137 2.11494e-28)
(0.0202333 0.0796362 0)
(0.0178294 0.078566 -5.41519e-29)
(0.0157559 0.0784285 -3.9151e-28)
(0.0137546 0.0789035 -6.0375e-28)
(0.011746 0.0797908 -1.31359e-27)
(0.00964706 0.0808674 5.22592e-28)
(0.00748522 0.0819442 -1.8816e-28)
(0.00532362 0.0828969 -4.29741e-28)
(0.00327096 0.0836333 2.29165e-32)
(0.00142589 0.0839478 2.32558e-28)
(-0.000107641 0.0837987 -6.3784e-29)
(-0.00106869 0.0833995 2.1819e-27)
(-0.0012872 0.082807 7.17417e-28)
(-0.000659638 0.0821363 1.51612e-27)
(0.0251497 0.00156914 1.60682e-26)
(0.023131 0.00460247 -1.54308e-26)
(0.0218124 0.00798183 -3.91148e-29)
(0.0204659 0.0120401 -1.98258e-28)
(0.0192717 0.0172339 4.89044e-28)
(0.0185003 0.0236249 1.16131e-26)
(0.0183929 0.0311023 1.68953e-27)
(0.0188996 0.0392792 5.87516e-27)
(0.0208253 0.0495344 0)
(0.0249731 0.0640834 2.69859e-27)
(0.029565 0.078253 1.14126e-27)
(0.0323387 0.0883247 1.16194e-27)
(0.0319611 0.0917471 -1.34032e-28)
(0.0286461 0.0892949 -1.6299e-27)
(0.0245524 0.0847892 0)
(0.021271 0.0813919 -1.71713e-32)
(0.0188674 0.07969 -3.63324e-28)
(0.0169425 0.0792003 0)
(0.0151216 0.0794714 -1.36451e-27)
(0.0132488 0.0802989 -7.95959e-28)
(0.0112303 0.0814559 -5.56841e-32)
(0.0090234 0.0827019 -1.56419e-34)
(0.00669506 0.0837715 -9.96334e-28)
(0.00437596 0.0846186 5.81813e-28)
(0.00218968 0.0851208 -4.01299e-29)
(0.000253558 0.0850568 6.08662e-28)
(-0.00123995 0.0845024 2.29596e-27)
(-0.00202898 0.0836532 -1.72484e-29)
(-0.00198084 0.0825511 9.70779e-28)
(-0.000916525 0.0813935 1.02715e-27)
(0.0269442 0.00160487 -1.49553e-28)
(0.0247193 0.00474422 3.18129e-26)
(0.0232084 0.00822996 -8.25686e-29)
(0.0216299 0.0123267 -2.67449e-28)
(0.0201384 0.0175064 4.45719e-28)
(0.019014 0.0237769 1.20591e-26)
(0.0184458 0.0310875 1.05999e-26)
(0.0185528 0.0389375 2.14352e-27)
(0.0196024 0.0480312 3.94153e-27)
(0.0229672 0.061578 1.98739e-27)
(0.0275517 0.0761984 4.89688e-28)
(0.0310573 0.087854 3.61809e-27)
(0.0317941 0.0933823 2.06131e-27)
(0.0294146 0.092311 1.37378e-27)
(0.0255114 0.0876498 0)
(0.022123 0.0834172 2.25863e-27)
(0.0197073 0.0809373 -8.5796e-28)
(0.0179356 0.0799493 2.23537e-28)
(0.0163629 0.0799785 -5.18626e-28)
(0.014712 0.0806964 -4.83113e-28)
(0.0128565 0.0819119 -8.17329e-28)
(0.0107114 0.0833469 2.46645e-27)
(0.00829924 0.0846636 -1.36525e-27)
(0.0057398 0.0856868 3.61869e-28)
(0.0032064 0.0863458 0)
(0.000845271 0.0865033 0)
(-0.00116494 0.0860028 -9.69614e-29)
(-0.00258067 0.0849444 3.47799e-27)
(-0.00316661 0.0835366 -1.39975e-32)
(-0.00276863 0.0818755 3.78848e-27)
(-0.00121973 0.0801474 -1.32484e-27)
(0.0289065 0.00162891 -1.65651e-28)
(0.0265033 0.00489002 -2.60842e-28)
(0.0248234 0.00847302 1.60554e-26)
(0.0230204 0.0126325 1.52203e-26)
(0.0212509 0.0178137 -1.46689e-26)
(0.0198249 0.02407 0)
(0.0187943 0.0311864 0)
(0.018475 0.0388333 -1.05293e-30)
(0.0188252 0.047163 0)
(0.0212052 0.0593477 3.78245e-27)
(0.0254312 0.0741031 0)
(0.0293563 0.0869359 3.06427e-27)
(0.0310551 0.0944813 3.20117e-27)
(0.0296959 0.0951208 0)
(0.0261981 0.0907601 -7.37827e-28)
(0.0227426 0.0857476 1.41693e-26)
(0.0203108 0.0823659 -1.29428e-27)
(0.0186776 0.0807211 -7.33715e-28)
(0.0174076 0.080393 5.47234e-28)
(0.0160723 0.0809692 -1.17017e-27)
(0.0144871 0.0821926 5.12979e-28)
(0.0125146 0.0838074 0)
(0.0101239 0.0854381 -4.76931e-28)
(0.00740592 0.0867928 -5.70141e-28)
(0.00454201 0.0876854 1.1258e-28)
(0.00173503 0.0880495 -5.58823e-28)
(-0.00081725 0.0877673 0)
(-0.00286344 0.0867204 9.64387e-29)
(-0.00417607 0.085067 -4.55745e-27)
(-0.00448873 0.0830035 5.55516e-27)
(-0.00365864 0.0807155 3.23617e-27)
(-0.00157716 0.0783503 -1.64566e-27)
(0.0309999 0.0016445 0)
(0.0284626 0.00502007 3.19893e-28)
(0.0266357 0.00869277 2.04592e-28)
(0.0246349 0.012954 0)
(0.0226174 0.0181732 -2.3744e-28)
(0.0208763 0.0244468 -1.42989e-26)
(0.0194772 0.031433 0)
(0.0186608 0.0389272 -2.4645e-27)
(0.0184244 0.0468947 0)
(0.0197871 0.0575923 -3.00881e-27)
(0.0233422 0.0720452 3.0957e-31)
(0.0273415 0.0857135 3.15718e-27)
(0.0297961 0.0951049 2.86752e-27)
(0.0294418 0.0976315 3.48616e-28)
(0.026547 0.0940481 0)
(0.0230799 0.0884282 8.86979e-27)
(0.0206088 0.0840399 5.0839e-27)
(0.0191254 0.0815787 4.80168e-27)
(0.0181568 0.0807241 -5.27723e-28)
(0.0172522 0.081058 0)
(0.0160445 0.0822492 -1.33885e-32)
(0.0143739 0.0840347 5.24514e-28)
(0.0121471 0.0859933 -1.50673e-31)
(0.00937845 0.0877921 8.61715e-28)
(0.00624993 0.0890984 -2.65986e-28)
(0.00300784 0.0897524 -7.98651e-28)
(-0.000110243 0.0897056 -1.33303e-27)
(-0.00284096 0.0888429 8.89492e-28)
(-0.00488911 0.0871518 -2.34361e-27)
(-0.00604605 0.084803 -5.75622e-27)
(-0.00601005 0.0819959 3.39183e-27)
(-0.00463738 0.0789699 0)
(-0.00195172 0.0759099 -9.83525e-28)
(0.0332034 0.00165894 0)
(0.0305535 0.00512147 -1.77512e-26)
(0.0286262 0.0089034 2.86839e-28)
(0.0264666 0.0132796 -1.46683e-28)
(0.0242223 0.0185634 -6.2184e-29)
(0.0221869 0.0248748 1.58101e-26)
(0.0204444 0.0318469 0)
(0.0191451 0.0392337 1.21625e-27)
(0.0183654 0.0470026 1.29885e-26)
(0.0187718 0.0564369 -6.75144e-27)
(0.0214396 0.0701553 0)
(0.0252319 0.0843656 -3.74591e-27)
(0.0281039 0.0953006 0)
(0.0286437 0.099809 4.75608e-27)
(0.0264469 0.0974148 5.38848e-27)
(0.023105 0.0914915 -5.45194e-27)
(0.0205373 0.0860519 5.24453e-27)
(0.019179 0.0825984 0)
(0.0185483 0.0810264 3.82634e-27)
(0.0181305 0.0809799 3.30568e-27)
(0.0174633 0.0820578 -1.58613e-27)
(0.0162512 0.0839602 1.35463e-27)
(0.0143256 0.0862426 2.74e-27)
(0.0116675 0.0885387 0)
(0.00838046 0.0904209 -2.7138e-28)
(0.00473001 0.0915651 1.29808e-28)
(0.00104013 0.0918381 -1.28808e-27)
(-0.00239334 0.0912329 0)
(-0.00527379 0.089656 9.00731e-28)
(-0.00726665 0.0872191 -3.06765e-31)
(-0.00818825 0.0840695 3.87353e-28)
(-0.00773734 0.0804414 4.20824e-27)
(-0.00578278 0.0765475 -1.18167e-27)
(-0.00116231 0.0735949 -3.03507e-27)
(-0.00331471 0.0735008 0)
(0.0354976 0.00166194 2.22501e-28)
(0.0327694 0.00518411 -1.85671e-26)
(0.0307795 0.00907293 -3.65814e-26)
(0.0284941 0.0135752 -2.555e-28)
(0.0260617 0.0189493 1.71611e-26)
(0.0237756 0.0253317 2.29989e-28)
(0.0217085 0.0323833 1.54334e-26)
(0.0199249 0.0397096 1.11046e-27)
(0.0186792 0.0474266 -1.29424e-26)
(0.0182384 0.0559834 7.87905e-27)
(0.0198764 0.0685468 4.05294e-27)
(0.0231988 0.083061 -4.31698e-27)
(0.026186 0.0951901 0)
(0.0273467 0.101641 1.09615e-26)
(0.0258873 0.100778 1.26588e-26)
(0.0227706 0.0949404 1.28009e-32)
(0.0200898 0.0884909 6.82888e-27)
(0.0187555 0.0838754 5.01575e-27)
(0.0184476 0.081377 -3.99545e-27)
(0.0185305 0.0807098 0)
(0.0185444 0.081532 3.86844e-27)
(0.0179941 0.0834868 -1.73483e-27)
(0.0165888 0.0861187 3.08079e-27)
(0.014216 0.0889529 9.14039e-28)
(0.0109417 0.0915008 0)
(0.00699494 0.0933473 1.07164e-28)
(0.00273422 0.0941749 -5.74044e-29)
(-0.00144067 0.0938803 1.71903e-27)
(-0.00516655 0.0925193 -3.67279e-28)
(-0.00815056 0.0901201 -2.88887e-27)
(-0.0100041 0.0868149 3.11195e-27)
(-0.0105585 0.0827373 3.12958e-27)
(-0.00958214 0.078275 5.05249e-27)
(-0.00565575 0.0739084 2.59057e-27)
(-0.00780326 0.0746409 1.28449e-27)
(-0.00125896 0.0717962 2.08031e-30)
(-0.00359423 0.0718153 0)
(0.0378161 0.00162984 2.38909e-28)
(0.0350957 0.00519101 5.30421e-28)
(0.0330791 0.00916178 -3.75269e-26)
(0.0307212 0.0138219 -1.83024e-26)
(0.0281272 0.0193161 -4.3002e-28)
(0.0256261 0.0257949 1.73535e-26)
(0.0232796 0.0329706 -1.69567e-26)
(0.021061 0.0403409 -1.55387e-26)
(0.0193456 0.0480777 1.29574e-26)
(0.0181297 0.056094 -1.09169e-26)
(0.01875 0.0673629 4.28951e-27)
(0.0213287 0.0818766 -5.09379e-27)
(0.0241861 0.0949272 2.24525e-27)
(0.0256968 0.103169 4.29244e-27)
(0.0248601 0.104074 7.18261e-27)
(0.0220566 0.0987533 1.63617e-26)
(0.019235 0.0914448 0)
(0.0178186 0.0855263 6.63865e-27)
(0.0177694 0.0818559 7.08225e-27)
(0.0184511 0.0803647 1.71545e-26)
(0.0192136 0.0807006 -9.89816e-28)
(0.0194816 0.0825476 0)
(0.0188292 0.085471 4.92254e-27)
(0.0169715 0.0888998 0)
(0.0138952 0.0922177 3.9096e-27)
(0.00980937 0.0949058 8.50608e-28)
(0.00507431 0.0965389 -7.43558e-28)
(0.0001416 0.0968418 -9.12898e-29)
(-0.00450785 0.0957593 4.64043e-27)
(-0.00847489 0.0934843 0)
(-0.0115141 0.0901235 -3.98392e-27)
(-0.0131393 0.0857574 2.0696e-27)
(-0.0118778 0.0802755 1.26691e-27)
(-0.0134584 0.0818716 2.18527e-27)
(-0.010024 0.0754885 0)
(-0.0128418 0.0796713 -1.93442e-29)
(-0.0121279 0.0765621 0)
(-0.00614353 0.0722945 -4.7217e-31)
(-0.00848309 0.0730141 2.83692e-27)
(-0.00128648 0.0699105 2.22146e-27)
(-0.00389742 0.0699722 0)
(0.0400894 0.00156629 1.87654e-26)
(0.0374602 0.00513906 6.06586e-28)
(0.0354741 0.00917272 0)
(0.0331134 0.0139975 -1.87456e-26)
(0.0304135 0.01963 -1.85677e-26)
(0.0277443 0.0262267 -1.74503e-26)
(0.0251457 0.0335532 -1.75132e-26)
(0.0225865 0.0410864 -1.60228e-26)
(0.020337 0.0488339 -3.13562e-26)
(0.0184955 0.0565974 1.59559e-26)
(0.0181626 0.0666831 0)
(0.0197546 0.0808588 1.08204e-26)
(0.0222284 0.0946515 -5.24914e-27)
(0.0238419 0.104473 -4.35496e-27)
(0.0234664 0.107281 6.21981e-27)
(0.0209497 0.102886 1.8479e-26)
(0.017983 0.0949965 1.00934e-26)
(0.016355 0.0876906 1.98064e-26)
(0.0164222 0.0826296 8.46269e-27)
(0.0176909 0.0799973 0)
(0.0193229 0.0795758 1.70033e-26)
(0.0206201 0.0811089 0)
(0.0209514 0.0842066 2.34645e-27)
(0.0198861 0.088213 0)
(0.0172583 0.0924136 8.38303e-27)
(0.0132 0.0961054 1.05024e-27)
(0.00809434 0.0987502 1.96576e-33)
(0.00248008 0.0999253 3.62271e-29)
(-0.00316628 0.0994222 2.98151e-32)
(-0.00821054 0.0973648 2.63794e-27)
(-0.0123349 0.0940257 7.93327e-28)
(-0.0152565 0.0894749 3.27703e-27)
(-0.0150778 0.0833433 -5.3043e-27)
(-0.0164531 0.0853239 2.07155e-27)
(-0.0147049 0.0810097 -2.81575e-27)
(-0.0109604 0.0739128 0)
(-0.0142951 0.0779248 0)
(-0.013283 0.0750102 0)
(-0.0066067 0.0704865 -5.8902e-27)
(-0.00925798 0.0712223 -5.07853e-28)
(-0.00137423 0.0678401 0)
(-0.00421423 0.0679163 -5.8806e-27)
(0.0422636 0.00148299 0)
(0.0397848 0.00501611 1.88588e-26)
(0.0379122 0.0090882 1.81728e-26)
(0.0356299 0.0140468 -1.97277e-26)
(0.0329184 0.0198316 1.96099e-26)
(0.0301278 0.0265827 1.44073e-27)
(0.0273165 0.0340893 -2.34541e-28)
(0.0244904 0.0418699 -5.11246e-31)
(0.0217396 0.0496834 0)
(0.0194469 0.0575292 -1.58398e-26)
(0.0180614 0.0666428 -2.0442e-27)
(0.0186116 0.0801015 0)
(0.0205126 0.0944629 4.3855e-31)
(0.0219535 0.105651 5.43156e-31)
(0.0218018 0.110379 1.67994e-26)
(0.0195104 0.107303 1.01141e-26)
(0.0163531 0.099198 1.15405e-26)
(0.0143669 0.0905446 2.40354e-26)
(0.0143628 0.0838745 1.11034e-26)
(0.0159969 0.0797988 8.67355e-27)
(0.0185299 0.0782536 0)
(0.0210663 0.0791383 0)
(0.0227385 0.0821696 0)
(0.0228288 0.0867107 0)
(0.020996 0.0918744 4.85445e-27)
(0.0172469 0.0967945 8.22669e-28)
(0.011924 0.100668 1.09872e-27)
(0.00564377 0.102969 4.04367e-28)
(-0.000925686 0.103375 1.4033e-27)
(-0.00723964 0.101763 -5.01952e-28)
(-0.0125835 0.0984875 9.75503e-28)
(-0.016763 0.0938368 1.77153e-27)
(-0.0178704 0.0871281 1.10786e-27)
(-0.0189717 0.0895931 9.69512e-28)
(-0.0165891 0.0825641 -1.06796e-26)
(-0.0182786 0.0844071 7.6525e-29)
(-0.0163785 0.079485 -5.79777e-27)
(-0.0119229 0.0721448 3.01651e-27)
(-0.0156565 0.0763599 1.57727e-27)
(-0.014544 0.0732807 2.90134e-29)
(-0.00714821 0.068436 -3.92633e-27)
(-0.0100487 0.0691863 -5.84329e-28)
(-0.00146832 0.0655938 0)
(-0.00452345 0.0656686 -6.20108e-27)
(0.0442625 0.00136242 1.80569e-26)
(0.0420199 0.00479869 7.49257e-28)
(0.0403424 0.0088887 -1.65971e-27)
(0.0382297 0.0139216 1.91629e-26)
(0.0355944 0.0198927 7.36268e-28)
(0.0327635 0.026831 2.05471e-26)
(0.0298003 0.0345304 1.91561e-26)
(0.0267386 0.0426109 1.88071e-26)
(0.0236126 0.0506052 3.6697e-26)
(0.0207979 0.0585706 0)
(0.0184697 0.0670336 -1.85228e-27)
(0.0181116 0.07963 0)
(0.0191681 0.0944217 0)
(0.02023 0.106779 7.66818e-28)
(0.0200267 0.113399 -5.46931e-31)
(0.017856 0.111962 1.00396e-27)
(0.0144408 0.104077 -1.26318e-28)
(0.0119078 0.0942379 2.79423e-26)
(0.0115626 0.0858167 1.38425e-26)
(0.0133886 0.0799798 2.38857e-26)
(0.0166872 0.0769081 8.2984e-27)
(0.0205373 0.0767341 7.88774e-27)
(0.0238228 0.0793233 -2.25287e-27)
(0.025541 0.0841553 -7.32277e-27)
(0.024979 0.0903035 1.09135e-26)
(0.021911 0.0966668 0)
(0.0166346 0.102138 3.03519e-31)
(0.00975606 0.105829 3.47636e-28)
(0.00219027 0.107333 1.6963e-27)
(-0.00537346 0.106669 7.94996e-28)
(-0.0121353 0.103731 0)
(-0.0175853 0.099041 -6.8893e-28)
(-0.0201238 0.0917625 -9.29037e-28)
(-0.0208982 0.0946892 2.67435e-28)
(-0.0199402 0.0865055 9.88178e-29)
(-0.0213718 0.0888556 9.92958e-28)
(-0.0184339 0.0812717 -1.10876e-26)
(-0.0204139 0.0833102 1.78548e-28)
(-0.0180248 0.0779765 -2.82307e-27)
(-0.0129502 0.0701302 -2.9934e-31)
(-0.0171721 0.0746836 1.72463e-27)
(-0.0158343 0.0713032 0)
(-0.00768571 0.0661867 -1.75354e-27)
(-0.0108275 0.0669426 -2.02219e-27)
(-0.00156138 0.0632046 -2.39915e-27)
(-0.00482214 0.0632708 2.46782e-27)
(0.045978 0.00119454 0)
(0.0441083 0.00446161 3.77985e-26)
(0.0427143 0.0085432 -9.44959e-28)
(0.0408562 0.0135955 9.55543e-35)
(0.0383864 0.0198089 -1.95424e-26)
(0.0355977 0.026926 -3.25693e-31)
(0.0325656 0.0348368 2.09253e-26)
(0.0293375 0.0432366 -1.95353e-26)
(0.0259315 0.0515184 8.37495e-29)
(0.0226354 0.0596765 1.84174e-26)
(0.0196587 0.0680078 0)
(0.0181542 0.0795854 7.78354e-27)
(0.0182962 0.0945444 0)
(0.018785 0.107913 0)
(0.0183451 0.116359 1.29971e-30)
(0.0161143 0.116821 1.31196e-27)
(0.0123615 0.109637 1.42786e-26)
(0.0090956 0.0989053 1.55147e-26)
(0.00809146 0.0887053 1.64561e-26)
(0.00976017 0.0808198 1.54665e-26)
(0.013623 0.0758005 -3.58204e-27)
(0.018746 0.0740306 7.05897e-27)
(0.0238813 0.075694 9.71961e-27)
(0.0276517 0.0804446 -4.86621e-26)
(0.0289622 0.0874008 1.17665e-26)
(0.0271794 0.0952764 -2.9748e-26)
(0.0223582 0.102686 0)
(0.0151228 0.108369 -3.09613e-27)
(0.00659529 0.111374 0)
(-0.00228806 0.111704 9.12892e-28)
(-0.0107202 0.109494 1.62029e-27)
(-0.0177808 0.104941 3.66011e-29)
(-0.0216998 0.097223 -1.09297e-27)
(-0.0221191 0.100593 5.78373e-28)
(-0.0226668 0.091446 -6.88706e-29)
(-0.0237502 0.0942479 -3.6351e-31)
(-0.0222597 0.0856034 -2.30517e-28)
(-0.0239533 0.0881342 1.12863e-27)
(-0.0203576 0.0798826 -5.61979e-27)
(-0.0226083 0.0820747 2.95566e-27)
(-0.0197902 0.0763681 -7.52027e-28)
(-0.0139899 0.0678892 -4.2543e-27)
(-0.0187461 0.0727612 -1.91537e-27)
(-0.0171527 0.0690874 -4.88605e-29)
(-0.00820366 0.0637755 7.05385e-27)
(-0.0115846 0.0645151 0)
(-0.00164967 0.0606879 -5.30497e-27)
(-0.00510313 0.0607436 -5.52554e-27)
(0.0472782 0.000988163 2.38006e-28)
(0.0459381 0.00400136 2.17729e-31)
(0.0449618 0.00801311 3.49147e-26)
(0.043447 0.0130476 -2.3401e-27)
(0.0412452 0.0195463 1.94763e-26)
(0.0385551 0.0268302 -3.98919e-26)
(0.0355628 0.0349972 6.79081e-31)
(0.0322506 0.0437009 4.0403e-26)
(0.0286626 0.0523458 9.85143e-32)
(0.0249898 0.0607944 2.92044e-28)
(0.0214225 0.0692189 0)
(0.018827 0.0798686 1.85891e-27)
(0.017977 0.0948229 1.35603e-26)
(0.0177656 0.10912 -7.91336e-27)
(0.0169209 0.119272 8.32811e-27)
(0.0144727 0.121827 7.50007e-27)
(0.0102781 0.115832 1.48848e-26)
(0.0061136 0.104644 0)
(0.00408782 0.0927731 -1.86651e-26)
(0.00514779 0.0826745 0)
(0.00916874 0.0752832 -1.67688e-26)
(0.0153838 0.0713159 1.87604e-26)
(0.0224722 0.0713693 -4.50714e-27)
(0.0287718 0.0754673 7.61845e-27)
(0.0326203 0.0829101 -7.9591e-26)
(0.032876 0.0923654 3.79387e-29)
(0.0291288 0.101976 0)
(0.0218689 0.11003 -4.18083e-27)
(0.0120939 0.115398 4.898e-27)
(0.00162068 0.117075 -2.43315e-27)
(-0.00823299 0.115717 -1.05153e-27)
(-0.0171072 0.111678 2.99434e-28)
(-0.0225163 0.103478 7.60002e-29)
(-0.0226968 0.107238 -2.78232e-28)
(-0.0246099 0.0972642 -2.47285e-27)
(-0.0253248 0.100468 2.54268e-33)
(-0.0254272 0.090896 -9.67816e-28)
(-0.0267176 0.0938895 7.70533e-28)
(-0.0247087 0.0845309 2.66878e-28)
(-0.0266525 0.087242 3.24686e-28)
(-0.0224144 0.0783734 -1.3023e-27)
(-0.0249575 0.0806964 3.25578e-27)
(-0.0216513 0.0745109 -5.16074e-28)
(-0.0150209 0.0654443 -5.4657e-28)
(-0.0203784 0.0705909 -2.06513e-27)
(-0.0184906 0.0666564 -2.6606e-28)
(-0.00869152 0.0612209 2.80925e-27)
(-0.0123026 0.061915 8.06796e-27)