/*--------------------------------*- C++ -*----------------------------------*\
  =========                 |
  \\      /  F ield         | OpenFOAM: The Open Source CFD Toolbox
   \\    /   O peration     | Website:  https://openfoam.org
    \\  /    A nd           | Version:  dev
     \\/     M anipulation  |
\*---------------------------------------------------------------------------*/
FoamFile
{
    version     2.0;
    format      ascii;
    class       volScalarField;
    location    "2500";
    object      a;
}
// * * * * * * * * * * * * * * * * * * * * * * * * * * * * * * * * * * * * * //

dimensions      [0 -1 0 0 0 0 0];

internalField   nonuniform List<scalar> 
9714
(
0.100011
0.100011
0.100011
0.100011
0.100011
0.100011
0.100011
0.100011
0.100011
0.100011
0.10001
0.100011
0.100011
0.100011
0.100011
0.10001
0.10001
0.100011
0.100011
0.100011
0.100011
0.10001
0.10001
0.10001
0.100011
0.100011
0.100011
0.100011
0.10001
0.10001
0.10001
0.10001
0.100011
0.100011
0.100011
0.100011
0.100009
0.10001
0.10001
0.10001
0.10001
0.100011
0.100011
0.100011
0.100011
0.100009
0.100009
0.10001
0.10001
0.10001
0.10001
0.100011
0.100011
0.100011
0.100011
0.100009
0.100009
0.100009
0.10001
0.10001
0.10001
0.10001
0.100011
0.100011
0.100011
0.100011
0.100009
0.100009
0.100009
0.100009
0.10001
0.10001
0.10001
0.10001
0.100011
0.100011
0.100011
0.100011
0.100009
0.100009
0.100009
0.100009
0.100009
0.10001
0.10001
0.10001
0.10001
0.100011
0.100011
0.100011
0.100011
0.100008
0.100009
0.100009
0.100009
0.100009
0.100009
0.10001
0.10001
0.10001
0.10001
0.100011
0.100011
0.100011
0.100011
0.100008
0.100008
0.100009
0.100009
0.100009
0.100009
0.100009
0.10001
0.10001
0.10001
0.10001
0.100011
0.100011
0.100011
0.100011
0.100008
0.100008
0.100008
0.100009
0.100009
0.100009
0.100009
0.100009
0.10001
0.10001
0.10001
0.10001
0.100011
0.100011
0.100011
0.100011
0.100008
0.100008
0.100008
0.100008
0.100009
0.100009
0.100009
0.100009
0.100009
0.10001
0.10001
0.10001
0.10001
0.100011
0.100011
0.100011
0.100011
0.100007
0.100008
0.100008
0.100008
0.100008
0.100009
0.100009
0.100009
0.100009
0.100009
0.10001
0.10001
0.10001
0.10001
0.100011
0.100011
0.100011
0.100011
0.100007
0.100007
0.100008
0.100008
0.100008
0.100008
0.100008
0.100009
0.100009
0.100009
0.100009
0.10001
0.10001
0.10001
0.10001
0.100011
0.100011
0.100011
0.100011
0.100007
0.100007
0.100007
0.100008
0.100008
0.100008
0.100008
0.100008
0.100009
0.100009
0.100009
0.100009
0.10001
0.10001
0.10001
0.10001
0.100011
0.100011
0.100011
0.100011
0.100007
0.100007
0.100007
0.100007
0.100008
0.100008
0.100008
0.100008
0.100008
0.100009
0.100009
0.100009
0.100009
0.10001
0.10001
0.10001
0.10001
0.100011
0.100011
0.100011
0.100011
0.100006
0.100007
0.100007
0.100007
0.100007
0.100008
0.100008
0.100008
0.100008
0.100008
0.100009
0.100009
0.100009
0.100009
0.10001
0.10001
0.10001
0.10001
0.100011
0.100011
0.100011
0.100011
0.100006
0.100006
0.100007
0.100007
0.100007
0.100007
0.100008
0.100008
0.100008
0.100008
0.100008
0.100009
0.100009
0.100009
0.100009
0.10001
0.10001
0.10001
0.10001
0.100011
0.100011
0.100011
0.100011
0.100006
0.100006
0.100006
0.100007
0.100007
0.100007
0.100007
0.100008
0.100008
0.100008
0.100008
0.100008
0.100009
0.100009
0.100009
0.100009
0.10001
0.10001
0.10001
0.10001
0.100011
0.100011
0.100011
0.100011
0.100006
0.100006
0.100006
0.100006
0.100007
0.100007
0.100007
0.100007
0.100008
0.100008
0.100008
0.100008
0.100008
0.100009
0.100009
0.100009
0.100009
0.10001
0.10001
0.10001
0.10001
0.100011
0.100011
0.100011
0.100011
0.100006
0.100006
0.100006
0.100006
0.100006
0.100007
0.100007
0.100007
0.100007
0.100008
0.100008
0.100008
0.100008
0.100008
0.100009
0.100009
0.100009
0.100009
0.10001
0.10001
0.10001
0.10001
0.100011
0.100011
0.100011
0.100011
0.100005
0.100006
0.100006
0.100006
0.100006
0.100006
0.100007
0.100007
0.100007
0.100007
0.100008
0.100008
0.100008
0.100008
0.100008
0.100009
0.100009
0.100009
0.100009
0.10001
0.10001
0.10001
0.10001
0.100011
0.100011
0.100011
0.100011
0.100005
0.100005
0.100006
0.100006
0.100006
0.100006
0.100006
0.100007
0.100007
0.100007
0.100007
0.100008
0.100008
0.100008
0.100008
0.100008
0.100009
0.100009
0.100009
0.100009
0.10001
0.10001
0.10001
0.10001
0.100011
0.100011
0.100011
0.100011
0.100005
0.100005
0.100005
0.100006
0.100006
0.100006
0.100006
0.100006
0.100007
0.100007
0.100007
0.100007
0.100008
0.100008
0.100008
0.100008
0.100008
0.100009
0.100009
0.100009
0.100009
0.10001
0.10001
0.10001
0.10001
0.100011
0.100011
0.100011
0.100011
0.100005
0.100005
0.100005
0.100005
0.100006
0.100006
0.100006
0.100006
0.100006
0.100007
0.100007
0.100007
0.100007
0.100008
0.100008
0.100008
0.100008
0.100008
0.100009
0.100009
0.100009
0.100009
0.10001
0.10001
0.10001
0.10001
0.100011
0.100011
0.100011
0.100011
0.100004
0.100005
0.100005
0.100005
0.100005
0.100006
0.100006
0.100006
0.100006
0.100006
0.100007
0.100007
0.100007
0.100007
0.100008
0.100008
0.100008
0.100008
0.100008
0.100009
0.100009
0.100009
0.100009
0.10001
0.10001
0.10001
0.10001
0.100011
0.100011
0.100011
0.100011
0.100004
0.100004
0.100005
0.100005
0.100005
0.100005
0.100006
0.100006
0.100006
0.100006
0.100006
0.100007
0.100007
0.100007
0.100007
0.100008
0.100008
0.100008
0.100008
0.100008
0.100009
0.100009
0.100009
0.100009
0.10001
0.10001
0.10001
0.10001
0.100011
0.100011
0.100011
0.100011
0.100004
0.100004
0.100004
0.100005
0.100005
0.100005
0.100005
0.100006
0.100006
0.100006
0.100006
0.100006
0.100007
0.100007
0.100007
0.100007
0.100008
0.100008
0.100008
0.100008
0.100008
0.100009
0.100009
0.100009
0.100009
0.10001
0.10001
0.10001
0.10001
0.100011
0.100011
0.100011
0.100011
0.100004
0.100004
0.100004
0.100004
0.100005
0.100005
0.100005
0.100005
0.100006
0.100006
0.100006
0.100006
0.100006
0.100007
0.100007
0.100007
0.100007
0.100008
0.100008
0.100008
0.100008
0.100008
0.100009
0.100009
0.100009
0.100009
0.10001
0.10001
0.10001
0.10001
0.100011
0.100011
0.100011
0.100011
0.100011
0.100004
0.100004
0.100004
0.100004
0.100004
0.100005
0.100005
0.100005
0.100005
0.100006
0.100006
0.100006
0.100006
0.100006
0.100007
0.100007
0.100007
0.100007
0.100008
0.100008
0.100008
0.100008
0.100008
0.100009
0.100009
0.100009
0.100009
0.10001
0.10001
0.10001
0.10001
0.100011
0.100011
0.100011
0.100011
0.100011
0.100011
0.100011
0.100011
0.100003
0.100004
0.100004
0.100004
0.100004
0.100004
0.100005
0.100005
0.100005
0.100005
0.100006
0.100006
0.100006
0.100006
0.100006
0.100007
0.100007
0.100007
0.100007
0.100008
0.100008
0.100008
0.100008
0.100008
0.100009
0.100009
0.100009
0.100009
0.10001
0.10001
0.10001
0.10001
0.100011
0.10001
0.100011
0.100011
0.100011
0.100011
0.100011
0.100011
0.100003
0.100003
0.100004
0.100004
0.100004
0.100004
0.100004
0.100005
0.100005
0.100005
0.100005
0.100006
0.100006
0.100006
0.100006
0.100006
0.100007
0.100007
0.100007
0.100007
0.100008
0.100008
0.100008
0.100008
0.100008
0.100009
0.100009
0.100009
0.100009
0.10001
0.10001
0.10001
0.10001
0.10001
0.100011
0.10001
0.100011
0.100011
0.100011
0.100011
0.100011
0.100011
0.100003
0.100003
0.100003
0.100004
0.100004
0.100004
0.100004
0.100004
0.100005
0.100005
0.100005
0.100005
0.100006
0.100006
0.100006
0.100006
0.100006
0.100007
0.100007
0.100007
0.100007
0.100008
0.100008
0.100008
0.100008
0.100008
0.100009
0.100009
0.100009
0.100009
0.10001
0.10001
0.10001
0.10001
0.10001
0.10001
0.100011
0.10001
0.100011
0.100011
0.100011
0.100011
0.100011
0.100011
0.100003
0.100003
0.100003
0.100003
0.100004
0.100004
0.100004
0.100004
0.100004
0.100005
0.100005
0.100005
0.100005
0.100006
0.100006
0.100006
0.100006
0.100006
0.100007
0.100007
0.100007
0.100007
0.100008
0.100008
0.100008
0.100008
0.100008
0.100009
0.100009
0.100009
0.100009
0.10001
0.10001
0.10001
0.10001
0.10001
0.10001
0.10001
0.100011
0.10001
0.100011
0.100011
0.100011
0.100011
0.100011
0.100011
0.100002
0.100003
0.100003
0.100003
0.100003
0.100004
0.100004
0.100004
0.100004
0.100004
0.100005
0.100005
0.100005
0.100005
0.100006
0.100006
0.100006
0.100006
0.100006
0.100007
0.100007
0.100007
0.100007
0.100008
0.100008
0.100008
0.100008
0.100008
0.100009
0.100009
0.100009
0.100009
0.10001
0.10001
0.10001
0.10001
0.10001
0.10001
0.10001
0.10001
0.100011
0.10001
0.100011
0.100011
0.100011
0.100011
0.100011
0.100011
0.100002
0.100002
0.100003
0.100003
0.100003
0.100003
0.100004
0.100004
0.100004
0.100004
0.100004
0.100005
0.100005
0.100005
0.100005
0.100006
0.100006
0.100006
0.100006
0.100006
0.100007
0.100007
0.100007
0.100007
0.100008
0.100008
0.100008
0.100008
0.100009
0.100009
0.100009
0.100009
0.10001
0.10001
0.10001
0.10001
0.10001
0.10001
0.10001
0.10001
0.10001
0.10001
0.100011
0.10001
0.100011
0.100011
0.100011
0.100011
0.100011
0.100011
0.100002
0.100002
0.100002
0.100003
0.100003
0.100003
0.100003
0.100004
0.100004
0.100004
0.100004
0.100004
0.100005
0.100005
0.100005
0.100005
0.100006
0.100006
0.100006
0.100006
0.100006
0.100007
0.100007
0.100007
0.100007
0.100008
0.100008
0.100008
0.10001
0.100011
0.100013
0.100013
0.10001
0.100013
0.10001
0.100012
0.10001
0.100011
0.10001
0.10001
0.10001
0.10001
0.10001
0.10001
0.100011
0.10001
0.100011
0.100011
0.100011
0.100011
0.100011
0.100011
0.100002
0.100002
0.100002
0.100002
0.100003
0.100003
0.100003
0.100003
0.100004
0.100004
0.100004
0.100004
0.100004
0.100005
0.100005
0.100005
0.100005
0.100006
0.100006
0.100006
0.100006
0.100006
0.100007
0.100007
0.100007
0.100007
0.100008
0.10001
0.100019
0.100037
0.100039
0.100049
0.100024
0.10006
0.100019
0.100044
0.100014
0.10003
0.100012
0.100019
0.10001
0.100013
0.10001
0.100011
0.10001
0.10001
0.100011
0.100011
0.100011
0.100011
0.100011
0.100011
0.100011
0.100011
0.100001
0.100002
0.100002
0.100002
0.100002
0.100003
0.100003
0.100003
0.100003
0.100004
0.100004
0.100004
0.100004
0.100004
0.100005
0.100005
0.100005
0.100005
0.100006
0.100006
0.100006
0.100006
0.100006
0.100007
0.100007
0.100007
0.100009
0.100019
0.100067
0.100213
0.100526
0.100312
0.100177
0.100621
0.100128
0.100404
0.100087
0.100286
0.10005
0.100177
0.100026
0.100088
0.100015
0.100038
0.100011
0.100017
0.100011
0.100011
0.100011
0.100011
0.100011
0.100011
0.100011
0.100011
0.100011
0.100011
0.100001
0.100001
0.100002
0.100002
0.100002
0.100002
0.100003
0.100003
0.100003
0.100003
0.100004
0.100004
0.100004
0.100004
0.100004
0.100005
0.100005
0.100005
0.100005
0.100006
0.100006
0.100006
0.100006
0.100006
0.100007
0.100007
0.100012
0.100055
0.100291
0.101121
0.103241
0.107792
0.102947
0.100008
0.101291
0.104137
0.100925
0.102922
0.100625
0.102073
0.100344
0.101284
0.100149
0.100628
0.100052
0.100238
0.100019
0.100069
0.100012
0.10002
0.100011
0.100011
0.100011
0.100011
0.100011
0.100011
0.100011
0.100011
0.100001
0.100001
0.100001
0.100002
0.100002
0.100002
0.100002
0.100003
0.100003
0.100003
0.100003
0.100003
0.100004
0.100004
0.100004
0.100004
0.100005
0.100005
0.100005
0.100005
0.100006
0.100006
0.100006
0.100006
0.100007
0.100008
0.10002
0.10017
0.101137
0.104833
0.114566
0.133202
0.174767
0.113135
0.153958
0.108997
0.125587
0.106473
0.118996
0.104362
0.113529
0.102438
0.108455
0.101062
0.104228
0.100349
0.101646
0.100083
0.100462
0.10002
0.100088
0.100011
0.100018
0.100011
0.100011
0.100011
0.100011
0.100011
0.100011
0.100001
0.100001
0.100001
0.100001
0.100002
0.100002
0.100002
0.100002
0.100003
0.100003
0.100003
0.100003
0.100003
0.100004
0.100004
0.100004
0.100004
0.100005
0.100005
0.100005
0.100005
0.100006
0.100006
0.100007
0.100008
0.100012
0.100041
0.100441
0.103732
0.116749
0.145394
0.195619
0.264529
0.277529
0.356012
0.159287
0.222543
0.147943
0.205101
0.136978
0.186382
0.125911
0.166232
0.114849
0.144634
0.106732
0.123634
0.102326
0.109841
0.100551
0.102968
0.100082
0.100576
0.100015
0.100066
0.100013
0.100011
0.100012
0.100011
0.100011
0.100011
0.100001
0.100001
0.100001
0.100001
0.100001
0.100002
0.100002
0.100002
0.100002
0.100003
0.100003
0.100003
0.100003
0.100003
0.100004
0.100004
0.100004
0.100004
0.100005
0.100005
0.100005
0.100005
0.100006
0.100009
0.100016
0.100036
0.100106
0.100977
0.109053
0.143989
0.212925
0.292954
0.391585
0.42199
0.469747
0.415456
0.495936
0.272344
0.346835
0.258172
0.339012
0.23743
0.323748
0.206895
0.301049
0.168634
0.258237
0.134863
0.196366
0.113172
0.147351
0.103426
0.11594
0.100521
0.103495
0.100044
0.100393
0.100026
0.100011
0.100016
0.100012
0.100011
0.100011
0.1
0.100001
0.100001
0.100001
0.100001
0.100001
0.100002
0.100002
0.100002
0.100002
0.100003
0.100003
0.100003
0.100003
0.100003
0.100004
0.100004
0.100004
0.100004
0.100005
0.100005
0.100005
0.100008
0.10002
0.100058
0.100157
0.100394
0.10205
0.117367
0.178567
0.28981
0.413525
0.530004
0.662863
0.549205
0.648208
0.570877
0.642598
0.417826
0.497553
0.413304
0.50399
0.398141
0.50063
0.368426
0.486043
0.312844
0.445031
0.228967
0.367811
0.159177
0.260018
0.117778
0.167633
0.103126
0.117724
0.100229
0.102332
0.100101
0.100011
0.100038
0.100018
0.100011
0.100011
0.1
0.1
0.100001
0.100001
0.100001
0.100001
0.100001
0.100002
0.100002
0.100002
0.100002
0.100003
0.100003
0.100003
0.100003
0.100004
0.100004
0.100004
0.100004
0.100004
0.100005
0.100006
0.100018
0.100073
0.100266
0.100752
0.10169
0.104908
0.128596
0.215341
0.360031
0.505968
0.625778
0.711555
0.75369
0.751629
0.704797
0.740862
0.728797
0.761058
0.58687
0.664402
0.597427
0.687401
0.594246
0.701729
0.575265
0.700469
0.523812
0.671071
0.425954
0.599244
0.287555
0.479761
0.17308
0.304156
0.115791
0.171461
0.101276
0.111646
0.100492
0.100012
0.100147
0.100042
0.100011
0.100011
0.1
0.1
0.100001
0.100001
0.100001
0.100001
0.100001
0.100002
0.100002
0.100002
0.100002
0.100003
0.100003
0.100003
0.100003
0.100004
0.100004
0.100004
0.100004
0.100005
0.100012
0.100062
0.100315
0.101243
0.103442
0.106805
0.113389
0.144928
0.247686
0.416917
0.565083
0.646016
0.700469
0.746498
0.736007
0.767039
0.754362
0.774789
0.772851
0.797487
0.793758
0.754982
0.786297
0.780027
0.814826
0.799665
0.841808
0.803496
0.865874
0.771978
0.877201
0.677152
0.862149
0.528022
0.753429
0.316061
0.561124
0.163285
0.311404
0.105963
0.146475
0.102157
0.100017
0.100571
0.100098
0.100012
0.100013
0.1
0.1
0.100001
0.100001
0.100001
0.100001
0.100001
0.100002
0.100002
0.100002
0.100002
0.100003
0.100003
0.100003
0.100003
0.100004
0.100004
0.100004
0.100005
0.100027
0.100224
0.101287
0.105011
0.11323
0.122963
0.134661
0.171669
0.278506
0.453669
0.578026
0.637278
0.672689
0.648405
0.725856
0.661807
0.740376
0.691052
0.786704
0.771414
0.807361
0.788348
0.823247
0.816927
0.851893
0.845458
0.883561
0.874808
0.915192
0.911096
0.93553
0.949165
0.927628
0.981705
0.817088
0.981711
0.586729
0.858101
0.291432
0.576407
0.122349
0.247356
0.107884
0.100033
0.100548
0.10222
0.101156
0.100167
0.100731
0.100011
0.100013
0.100011
0.1
0.1
0.100001
0.100001
0.100001
0.100001
0.100001
0.100002
0.100002
0.100002
0.100002
0.100003
0.100003
0.100003
0.100003
0.100004
0.100004
0.100005
0.10004
0.100521
0.103833
0.115752
0.138635
0.160916
0.175189
0.207607
0.30848
0.475102
0.57156
0.614703
0.614057
0.523913
0.482234
0.385769
0.628331
0.554417
0.628651
0.558061
0.749985
0.694521
0.756978
0.691799
0.831627
0.806402
0.860681
0.827694
0.896598
0.864316
0.937424
0.909642
0.977653
0.958519
1.02284
1.00693
1.0291
1.06326
0.892093
0.97798
1.06263
0.385909
0.56987
0.904844
0.717198
0.129275
0.181709
0.513191
0.297963
0.511173
0.154895
0.137839
0.109028
0.100024
0.100108
0.100299
0.105457
0.103122
0.101325
0.100011
0.100011
0.100011
0.100015
0.1
0.1
0.100001
0.100001
0.100001
0.100001
0.100001
0.100002
0.100002
0.100002
0.100002
0.100003
0.100003
0.100003
0.100003
0.100004
0.100005
0.100044
0.100758
0.107008
0.130894
0.172356
0.205129
0.222247
0.252975
0.342772
0.485515
0.558251
0.577956
0.519878
0.363772
0.315428
0.238724
0.323765
0.246094
0.482294
0.403873
0.474092
0.403641
0.618812
0.545674
0.602742
0.521613
0.767895
0.688067
0.795769
0.69746
0.845663
0.734099
0.907404
0.809972
0.977132
0.901548
1.0422
0.992955
1.08587
1.09118
1.08452
1.06942
0.999051
1.09263
1.05871
1.09945
0.715377
1.01316
0.892231
0.260149
0.71218
0.459147
0.67149
0.22226
0.183821
0.123288
0.100045
0.100228
0.100556
0.113722
0.106981
0.103235
0.100012
0.100011
0.100011
0.100017
0.1
0.1
0.100001
0.100001
0.100001
0.100001
0.100001
0.100002
0.100002
0.100002
0.100002
0.100003
0.100003
0.100003
0.100003
0.100004
0.10004
0.100824
0.109357
0.145469
0.206058
0.251302
0.273965
0.302035
0.382314
0.491693
0.542653
0.54274
0.434505
0.254596
0.147667
0.187418
0.142401
0.192004
0.1473
0.330515
0.255554
0.320638
0.25414
0.448845
0.384192
0.417884
0.351033
0.593013
0.497312
0.60948
0.492659
0.670005
0.532656
0.769835
0.624018
0.88597
0.743783
1.03961
0.983438
0.934451
0.864985
1.1049
1.09638
1.08057
1.0446
1.09439
1.12799
1.11684
1.11865
0.887761
1.10025
1.01687
0.400815
0.863854
0.627282
0.837574
0.331069
0.267808
0.153471
0.100069
0.101318
0.100475
0.131012
0.116556
0.10785
0.100012
0.100011
0.100012
0.100027
0.1
0.1
0.100001
0.100001
0.100001
0.100001
0.100001
0.100002
0.100002
0.100002
0.100002
0.100003
0.100003
0.100003
0.100004
0.100028
0.100754
0.110179
0.156121
0.235567
0.295475
0.325301
0.356135
0.425389
0.497243
0.528836
0.510203
0.376945
0.208431
0.128985
0.105568
0.103508
0.121967
0.108654
0.123533
0.109538
0.195269
0.151241
0.191741
0.153088
0.293957
0.238982
0.264394
0.219603
0.395982
0.321502
0.416385
0.32871
0.496074
0.391941
0.617405
0.505341
0.818681
0.748064
0.702727
0.635575
0.992294
0.93714
0.879781
0.823373
1.10933
1.09229
1.05498
1.00449
1.13736
1.13115
1.1432
1.12194
1.00784
1.14526
1.09989
0.568423
0.997945
0.7978
0.976431
0.493146
0.402539
0.211874
0.100163
0.103275
0.101231
0.168339
0.137714
0.118675
0.100015
0.100011
0.100012
0.100055
0.1
0.1
0.100001
0.100001
0.100001
0.100001
0.100001
0.100002
0.100002
0.100002
0.100002
0.100003
0.100003
0.100004
0.100022
0.100535
0.109618
0.160847
0.258596
0.333917
0.3735
0.408869
0.457011
0.496934
0.515807
0.482396
0.342087
0.191823
0.123704
0.101987
0.100882
0.100315
0.10378
0.101532
0.104589
0.101919
0.126215
0.111333
0.129468
0.114343
0.183503
0.152903
0.180364
0.153826
0.263258
0.215347
0.309449
0.246846
0.406575
0.324811
0.592668
0.531894
0.448223
0.766269
0.711687
0.657977
0.606085
0.951163
0.896705
0.842196
0.78827
1.10484
1.06782
1.01922
0.968828
1.15484
1.13453
1.14753
1.11804
1.09952
1.16591
1.15207
0.744885
1.09203
0.945947
1.07886
0.674502
0.58394
0.313739
0.100424
0.108218
0.103188
0.238868
0.180586
0.141727
0.100023
0.100011
0.100014
0.100138
0.1
0.1
0.100001
0.100001
0.100001
0.100001
0.100001
0.100002
0.100002
0.100002
0.100003
0.100004
0.100008
0.100028
0.100373
0.108259
0.160732
0.271827
0.366785
0.414903
0.445222
0.474127
0.494354
0.502295
0.454226
0.32042
0.184185
0.12172
0.102307
0.100204
0.100176
0.100324
0.100202
0.10091
0.1005
0.101451
0.100802
0.106402
0.102897
0.109587
0.104773
0.133521
0.118796
0.142492
0.125847
0.200454
0.166426
0.260658
0.2118
0.364241
0.295476
0.556798
0.508125
0.404152
0.452614
0.735609
0.684586
0.634867
0.586173
0.917307
0.865937
0.815842
0.766676
1.08285
1.03715
0.989619
0.942116
1.16092
1.13183
1.14649
1.0996
1.15422
1.17369
1.17658
0.904032
1.15341
1.05887
1.14819
0.844368
0.766326
0.472299
0.101116
0.119207
0.107798
0.353932
0.257291
0.18567
0.100047
0.100012
0.100019
0.100378
0.1
0.1
0.100001
0.100001
0.100001
0.100001
0.100001
0.100002
0.100002
0.100003
0.100006
0.10002
0.100075
0.100376
0.106202
0.157138
0.274628
0.387925
0.439862
0.462716
0.477086
0.488643
0.482855
0.421701
0.292572
0.175877
0.118949
0.102136
0.100112
0.100125
0.100079
0.100224
0.100158
0.100478
0.100316
0.100875
0.10055
0.10249
0.10142
0.104429
0.102551
0.114769
0.108064
0.126164
0.1146
0.174121
0.145478
0.241156
0.198182
0.369845
0.32937
0.269804
0.301911
0.539083
0.493762
0.401158
0.442387
0.718144
0.670132
0.622547
0.575493
0.895557
0.849183
0.802788
0.756376
1.05717
1.01378
0.971223
0.928655
1.16133
1.11761
1.13654
1.07931
1.18477
1.17567
1.18688
1.02791
1.19038
1.13694
1.19191
0.983517
0.922868
0.663048
0.102882
0.141424
0.117435
0.526051
0.377817
0.261739
0.100122
0.100013
0.100037
0.101053
0.1
0.1
0.100001
0.100001
0.100001
0.100001
0.100002
0.100002
0.100004
0.100015
0.100067
0.100243
0.100699
0.105544
0.149684
0.272412
0.395781
0.450985
0.46759
0.474872
0.475715
0.449389
0.375011
0.252267
0.160747
0.114218
0.101596
0.100098
0.100046
0.100029
0.100101
0.100062
0.100189
0.100141
0.100352
0.100247
0.100669
0.100438
0.101561
0.101004
0.102908
0.101832
0.108206
0.104767
0.119568
0.110445
0.163714
0.137016
0.234658
0.193771
0.363685
0.328981
0.270904
0.298384
0.529546
0.484998
0.39887
0.439071
0.710026
0.663787
0.617409
0.571061
0.885848
0.842746
0.798207
0.753166
1.04092
1.00236
0.963867
0.924193
1.15585
1.10255
1.1264
1.06869
1.19904
1.17448
1.19117
1.11767
1.20982
1.18912
1.21851
1.08842
1.04409
0.837189
0.106737
0.181002
0.135006
0.716292
0.552334
0.376082
0.100361
0.100019
0.100109
0.102566
0.1
0.1
0.100001
0.100001
0.100001
0.100001
0.100003
0.100009
0.100049
0.100233
0.100772
0.101926
0.106324
0.144356
0.263667
0.395736
0.453383
0.466856
0.467257
0.448561
0.397446
0.309811
0.210324
0.141943
0.108634
0.100931
0.100065
0.100018
0.100031
0.100025
0.100065
0.100046
0.100171
0.100108
0.100285
0.10021
0.10053
0.100344
0.101207
0.100814
0.102344
0.101513
0.106
0.103673
0.117354
0.109125
0.160327
0.134302
0.247933
0.221961
0.20524
0.183426
0.361691
0.327725
0.270637
0.297404
0.525632
0.481502
0.400014
0.439762
0.70781
0.662309
0.616565
0.570897
0.883606
0.842527
0.801205
0.75866
1.03457
0.999024
0.96339
0.928314
1.14914
1.09619
1.12275
1.06551
1.2062
1.17047
1.19178
1.18018
1.22021
1.22258
1.23261
1.16293
1.13322
0.977836
0.113205
0.245164
0.162762
0.87781
0.735487
0.535783
0.100878
0.100101
0.100282
0.104766
0.1
0.1
0.100001
0.100001
0.100001
0.100005
0.100027
0.10016
0.100763
0.102508
0.105565
0.11081
0.143369
0.250612
0.391889
0.452069
0.464115
0.449223
0.403162
0.328937
0.240401
0.170592
0.124605
0.104539
0.100436
0.100036
0.100012
0.100012
0.100027
0.10002
0.100051
0.100038
0.100122
0.100077
0.100232
0.100186
0.100425
0.100274
0.101004
0.100667
0.102095
0.101328
0.105288
0.103284
0.117057
0.108889
0.16068
0.134295
0.248628
0.227212
0.207327
0.189585
0.363261
0.329774
0.272859
0.299737
0.525884
0.482003
0.407189
0.446983
0.714808
0.669986
0.624427
0.578609
0.892495
0.855023
0.815489
0.773871
1.03467
1.00512
0.97565
0.945014
1.14724
1.09569
1.12451
1.07065
1.20879
1.17013
1.19076
1.22178
1.22575
1.24256
1.24121
1.21458
1.19703
1.08368
0.123219
0.337657
0.207073
1.00791
0.890534
0.71016
0.101275
0.100018
0.1001
0.106691
0.1
0.1
0.100001
0.100002
0.100012
0.100079
0.100516
0.102493
0.107565
0.115254
0.123424
0.146929
0.239358
0.380094
0.448632
0.457844
0.426213
0.355345
0.263921
0.188478
0.139795
0.11202
0.102103
0.100185
0.100019
0.100008
0.100008
0.100012
0.100017
0.100008
0.100021
0.100044
0.10003
0.100095
0.100063
0.100208
0.100154
0.100368
0.100241
0.100876
0.100582
0.101992
0.101241
0.105119
0.103172
0.120039
0.109453
0.177776
0.158554
0.131858
0.146673
0.255015
0.232727
0.212529
0.194031
0.370462
0.33696
0.279607
0.306771
0.533403
0.489344
0.422382
0.462585
0.730494
0.685919
0.640482
0.594712
0.912228
0.876928
0.839014
0.798644
1.04714
1.02334
0.998432
0.971482
1.15097
1.10545
1.13692
1.08752
1.20996
1.17557
1.1926
1.24857
1.22936
1.25432
1.24749
1.24983
1.24292
1.1643
0.136781
0.463304
0.269878
1.10742
1.01285
0.863374
0.10107
0.100015
0.100097
0.108314
0.1
0.100001
0.100004
0.100027
0.100236
0.101511
0.107486
0.120583
0.133815
0.141855
0.159036
0.234558
0.364948
0.441509
0.451203
0.406653
0.318709
0.218501
0.156046
0.121269
0.105458
0.100859
0.100098
0.100012
0.100007
0.100007
0.100007
0.100014
0.10001
0.100008
0.100019
0.100035
0.100025
0.100075
0.100051
0.100186
0.100117
0.100333
0.100219
0.100803
0.100532
0.101968
0.101205
0.105288
0.103202
0.136761
0.129713
0.118717
0.113555
0.108831
0.181892
0.165244
0.149661
0.265416
0.242013
0.220554
0.200536
0.385039
0.350764
0.291169
0.319543
0.549456
0.505236
0.447791
0.489083
0.756258
0.712484
0.667641
0.622239
0.941785
0.909186
0.873691
0.835476
1.06973
1.05114
1.03088
1.00812
1.16514
1.12447
1.15717
1.11283
1.21448
1.19139
1.20051
1.26467
1.23757
1.26267
1.25769
1.27218
1.274
1.22277
0.15401
0.622997
0.352193
1.18338
1.1111
0.980116
0.101267
0.100019
0.100173
0.113019
0.100001
0.100005
0.100071
0.100562
0.104329
0.118152
0.140494
0.15609
0.163023
0.176293
0.235159
0.352301
0.433102
0.44507
0.394428
0.296798
0.198458
0.140203
0.112546
0.102693
0.100372
0.100048
0.100008
0.100006
0.100006
0.100006
0.100007
0.100006
0.100012
0.100009
0.100008
0.100015
0.10003
0.100021
0.100065
0.100044
0.100156
0.100098
0.100305
0.100208
0.10077
0.100497
0.102063
0.101199
0.105856
0.103412
0.141191
0.133116
0.122751
0.114944
0.110271
0.190861
0.172326
0.1557
0.280662
0.25538
0.232284
0.210845
0.408852
0.372682
0.30856
0.339246
0.576994
0.532418
0.485005
0.528355
0.794915
0.752574
0.708728
0.663832
0.982432
0.953704
0.921884
0.886995
1.10095
1.08802
1.07323
1.05589
1.18624
1.15094
1.18389
1.14536
1.22584
1.21368
1.2168
1.27541
1.25206
1.2742
1.27103
1.28733
1.2943
1.26635
0.192087
0.769412
0.474849
1.24232
1.18718
1.08026
0.102324
0.100029
0.100317
0.124514
0.10001
0.100115
0.101386
0.108639
0.13271
0.16175
0.179677
0.186762
0.196922
0.242197
0.345958
0.424267
0.439259
0.388276
0.290652
0.196862
0.136429
0.109625
0.101712
0.100241
0.100025
0.100007
0.100005
0.100005
0.100006
0.100006
0.100007
0.100006
0.100011
0.100008
0.100007
0.100014
0.100026
0.100018
0.100056
0.100038
0.100135
0.100086
0.100293
0.10019
0.100761
0.100472
0.102199
0.101248
0.10855
0.105752
0.103813
0.146922
0.139236
0.126509
0.117573
0.11188
0.202286
0.182048
0.163507
0.30133
0.273049
0.247452
0.224002
0.443224
0.40385
0.332618
0.366879
0.61845
0.573131
0.535485
0.581942
0.849152
0.808781
0.76618
0.721668
1.03571
1.01241
0.985827
0.955683
1.13969
1.13319
1.12507
1.1146
1.21313
1.18306
1.21426
1.1829
1.25057
1.25897
1.25323
1.28961
1.27112
1.28895
1.29131
1.30136
1.31185
1.29672
0.259293
0.903729
0.646219
1.2881
1.25233
1.16219
0.104463
0.100037
0.100522
0.146461
0.100213
0.102045
0.115035
0.147115
0.18256
0.203633
0.212076
0.221101
0.257491
0.345541
0.416639
0.433065
0.385959
0.292125
0.200868
0.138221
0.109428
0.101501
0.100172
0.100018
0.100006
0.100005
0.100005
0.100005
0.100006
0.100006
0.100006
0.100006
0.10001
0.100008
0.100007
0.100012
0.100022
0.100016
0.100049
0.100033
0.100117
0.100076
0.100285
0.100174
0.100776
0.100461
0.102572
0.101345
0.109324
0.106706
0.105596
0.103694
0.155061
0.146789
0.131908
0.120816
0.113602
0.21623
0.194081
0.173699
0.327763
0.295178
0.266067
0.239986
0.489479
0.445404
0.363932
0.403285
0.675828
0.629152
0.601091
0.65171
0.921631
0.883819
0.842463
0.797979
1.1016
1.0854
1.06584
1.04244
1.18323
1.18342
1.18288
1.1798
1.26567
1.21817
1.27233
1.22223
1.27566
1.29939
1.28649
1.30636
1.3002
1.31156
1.32626
1.32266
1.33417
1.31992
0.364655
1.02356
0.826041
1.32126
1.30525
1.23586
0.108505
0.100038
0.100816
0.186899
0.103441
0.119499
0.161311
0.202185
0.226873
0.238099
0.248106
0.277923
0.348779
0.410501
0.426456
0.384446
0.297734
0.212307
0.145642
0.110376
0.101473
0.100144
0.100014
0.100005
0.100005
0.100005
0.100005
0.100005
0.100006
0.100006
0.100006
0.100006
0.100006
0.100009
0.100007
0.100007
0.100011
0.100019
0.100014
0.100043
0.100028
0.100107
0.100067
0.100281
0.10016
0.100795
0.100459
0.103445
0.104168
0.102287
0.101534
0.110836
0.107656
0.106074
0.164776
0.155739
0.138529
0.125214
0.116198
0.232394
0.208019
0.185683
0.360876
0.322394
0.28839
0.258734
0.549347
0.498942
0.403688
0.449893
0.75124
0.702574
0.685341
0.740971
1.01413
0.980395
0.940812
0.895883
1.17462
1.1668
1.15622
1.14245
1.22465
1.22596
1.22863
1.2292
1.31445
1.27743
1.33217
1.27963
1.3196
1.3743
1.34087
1.3321
1.35321
1.35313
1.39041
1.34982
1.36768
1.34664
0.518621
1.14779
1.00223
1.35718
1.34372
1.30297
0.115525
0.100039
0.101087
0.250475
0.126967
0.172179
0.219659
0.248877
0.263654
0.275546
0.304063
0.360335
0.40562
0.419228
0.381731
0.30356
0.223654
0.153598
0.112258
0.101548
0.100132
0.100012
0.100005
0.100004
0.100005
0.100005
0.100005
0.100005
0.100006
0.100006
0.100006
0.100006
0.100006
0.100008
0.100007
0.100007
0.10001
0.100017
0.100013
0.100039
0.100025
0.100099
0.100062
0.100278
0.100151
0.100795
0.100487
0.104773
0.103723
0.102584
0.101996
0.101247
0.11258
0.108603
0.10706
0.175995
0.16617
0.146464
0.130578
0.119384
0.250788
0.223728
0.199384
0.402724
0.35613
0.315149
0.280524
0.626171
0.567685
0.454568
0.509741
0.847599
0.797068
0.794136
0.855622
1.12382
1.09856
1.06424
1.01955
1.22898
1.22576
1.22157
1.21662
1.28377
1.28792
1.28724
1.28541
1.4211
1.34796
1.46805
1.36763
1.39084
1.49716
1.4435
1.37602
1.45635
1.4251
1.48988
1.40593
1.42399
1.37676
0.692808
1.27435
1.12562
1.38107
1.37781
1.38367
0.124921
0.100254
0.10277
0.342856
0.184619
0.233708
0.268654
0.287393
0.302276
0.32932
0.371391
0.400434
0.410839
0.376649
0.305277
0.230471
0.158964
0.1139
0.10163
0.100123
0.100011
0.100004
0.100004
0.100004
0.100005
0.100005
0.100005
0.100005
0.100006
0.100006
0.100006
0.100006
0.100006
0.100008
0.100007
0.100006
0.100009
0.100015
0.100011
0.100035
0.100022
0.100092
0.100056
0.100274
0.100145
0.100885
0.100497
0.105319
0.104228
0.103017
0.102121
0.10146
0.114977
0.110014
0.108098
0.188856
0.178451
0.155956
0.137203
0.123516
0.271983
0.241365
0.21497
0.457001
0.399609
0.348549
0.306606
0.725713
0.657088
0.520768
0.587303
0.967938
0.918362
0.934163
1.0019
1.2087
1.19806
1.18077
1.15363
1.28171
1.27894
1.27364
1.26825
1.3978
1.43508
1.43279
1.43576
1.49844
1.4673
1.8641
1.49078
1.52076
1.85954
1.5217
1.48637
1.55262
1.56767
1.57615
1.5055
1.51816
1.43102
0.860008
1.34432
1.22325
1.4361
1.43723
1.42664
0.151197
0.114812
0.144556
0.516799
0.248669
0.284435
0.308263
0.325869
0.34952
0.375206
0.395192
0.400452
0.367074
0.303669
0.231814
0.160169
0.114581
0.101647
0.100112
0.100009
0.100004
0.100004
0.100004
0.100004
0.100005
0.100005
0.100005
0.100005
0.100006
0.100006
0.100006
0.100006
0.100006
0.100007
0.100007
0.100006
0.100009
0.100014
0.10001
0.100032
0.10002
0.100087
0.100052
0.100271
0.100141
0.100958
0.100498
0.106124
0.104732
0.103304