/*--------------------------------*- C++ -*----------------------------------*\
  =========                 |
  \\      /  F ield         | OpenFOAM: The Open Source CFD Toolbox
   \\    /   O peration     | Website:  https://openfoam.org
    \\  /    A nd           | Version:  dev
     \\/     M anipulation  |
\*---------------------------------------------------------------------------*/
FoamFile
{
    version     2.0;
    format      ascii;
    class       volScalarField;
    location    "2500";
    object      alphat;
}
// * * * * * * * * * * * * * * * * * * * * * * * * * * * * * * * * * * * * * //

dimensions      [1 -1 -1 0 0 0 0];

internalField   nonuniform List<scalar> 
9714
(
0.000153255
0.000174842
0.000136795
0.000148633
0.000214894
0.000131006
0.00013437
0.000240993
0.000188873
0.000126243
0.000129781
0.00023044
0.000237523
0.000154337
0.000125047
0.00012482
0.000197479
0.000266455
0.000205764
0.000142836
0.000122409
0.000122226
0.000167957
0.000273025
0.000253637
0.000167245
0.000136632
0.000121022
0.000120519
0.000153975
0.000260121
0.000278199
0.000210304
0.000150443
0.000131471
0.000120198
0.000119576
0.000140428
0.000226594
0.000297027
0.00025796
0.00017398
0.000141554
0.000127791
0.000119578
0.000118987
0.000132952
0.000185173
0.000296111
0.000289521
0.000207161
0.000155907
0.000135494
0.000125183
0.000119103
0.00011868
0.000128252
0.000168724
0.000281786
0.000306946
0.000253334
0.000173505
0.000145297
0.000131186
0.000123339
0.000118722
0.000118635
0.000125596
0.000152249
0.000246526
0.000320324
0.000290085
0.000204199
0.00015619
0.000137988
0.000128004
0.000121982
0.000118419
0.000118601
0.000123973
0.000142408
0.000199213
0.000317937
0.00031486
0.000241395
0.000172881
0.000146127
0.00013301
0.000125548
0.000120925
0.000118176
0.000118578
0.000122847
0.00013612
0.000182333
0.000303475
0.00032923
0.000284201
0.00019693
0.000155682
0.000139094
0.000129424
0.000123699
0.00012007
0.000117976
0.000118554
0.000121982
0.000132002
0.000165563
0.00026804
0.000341275
0.000314106
0.000229953
0.00016977
0.000145426
0.000133798
0.000126735
0.00012227
0.000119419
0.00011779
0.000118504
0.000121294
0.000129245
0.000152936
0.000224371
0.000338971
0.000336117
0.000267167
0.000189308
0.00015441
0.000138597
0.000129901
0.000124646
0.000121156
0.000118912
0.000117632
0.000118163
0.000120625
0.000127172
0.000144894
0.000196047
0.000327509
0.000347976
0.000306465
0.000217637
0.000164984
0.000144532
0.000133691
0.000127032
0.000122983
0.000120244
0.000118515
0.000117513
0.000117728
0.000120127
0.000125472
0.000139247
0.000180891
0.000297576
0.00035961
0.0003331
0.000249736
0.000182368
0.000151535
0.000137734
0.00013
0.000124771
0.000121655
0.000119493
0.000118164
0.00011742
0.000117384
0.000119846
0.000124213
0.000135242
0.000166448
0.000256146
0.000360764
0.000353218
0.00028636
0.000203978
0.000161026
0.000142923
0.000132999
0.000127163
0.000123021
0.000120577
0.000118921
0.000117886
0.000117337
0.000117095
0.00011963
0.000123231
0.000132463
0.000156379
0.000215145
0.000352937
0.00036409
0.000320686
0.00023348
0.000174195
0.000148644
0.000136723
0.000129534
0.000124893
0.000121616
0.000119702
0.000118418
0.000117654
0.000117273
0.000116807
0.000119438
0.000122494
0.000130287
0.000149604
0.000196861
0.000331804
0.000375903
0.000348045
0.000263867
0.00019262
0.000156747
0.000140952
0.000132178
0.000126696
0.000123057
0.000120549
0.000118965
0.00011801
0.000117453
0.000117216
0.000116602
0.000119255
0.000121898
0.000128692
0.000144744
0.000185645
0.000294057
0.000382519
0.00036695
0.000298656
0.000215838
0.000167044
0.000146052
0.000135535
0.000128733
0.000124459
0.000121561
0.0001197
0.000118419
0.000117675
0.000117303
0.000117176
0.000116585
0.000119087
0.000121308
0.000127475
0.000141337
0.000174808
0.00025602
0.000378229
0.000381602
0.000329082
0.000243248
0.000181431
0.000152431
0.000139011
0.00013139
0.000126061
0.000122657
0.000120443
0.000118905
0.000117952
0.000117407
0.000117172
0.00011715
0.000116598
0.000118644
0.000120768
0.000126482
0.000139008
0.000166808
0.000223659
0.000366318
0.000391961
0.000359285
0.000272568
0.000199782
0.000160744
0.000143319
0.000133984
0.000128087
0.000123943
0.000121298
0.000119542
0.000118296
0.000117576
0.000117199
0.000117065
0.00011713
0.000116599
0.000118208
0.000120271
0.00012559
0.000137386
0.000161331
0.000208045
0.000342988
0.000399545
0.000378978
0.000301523
0.000222853
0.00017139
0.000148794
0.000136978
0.000130129
0.000125563
0.000122336
0.00012026
0.000118744
0.000117811
0.00011727
0.000117038
0.000116993
0.000117109
0.000116586
0.000117868
0.000119873
0.000124894
0.000136192
0.000157715
0.000199377
0.000312003
0.000400732
0.000393265
0.000333179
0.000246888
0.000186152
0.000154883
0.000140982
0.000132411
0.000127147
0.000123605
0.00012107
0.000119343
0.000118144
0.000117444
0.000117047
0.000116923
0.000116941
0.000117096
0.000116553
0.000117617
0.000119565
0.000124358
0.00013543
0.000155496
0.000193609
0.000282076
0.0003966
0.000401905
0.000359302
0.000273937
0.000203281
0.000163485
0.000144993
0.000135407
0.000129001
0.000124925
0.000122085
0.000120042
0.000118566
0.000117674
0.000117157
0.000116887
0.000116837
0.000116936
0.000117094
0.00011649
0.000117434
0.000119335
0.000124054
0.00013506
0.000154966
0.000188748
0.00025687
0.000386596
0.000409103
0.000382275
0.000301308
0.000223746
0.000173762
0.000150353
0.000138358
0.000131305
0.000126441
0.000123187
0.000120818
0.000119209
0.000118064
0.000117347
0.000116942
0.000116784
0.000116822
0.000116961
0.000117112
0.000116403
0.00011738
0.000119179
0.000123972
0.000135117
0.000155391
0.000185778
0.000238048
0.000370647
0.000415388
0.000396562
0.000325941
0.000247189
0.000187069
0.00015636
0.000142049
0.000133614
0.000128257
0.000124446
0.000121773
0.000119884
0.000118539
0.000117669
0.000117094
0.000116829
0.000116776
0.000116856
0.000117012
0.000117162
0.00011631
0.00011745
0.000119143
0.00012418
0.000135619
0.000156717
0.000184694
0.000227927
0.000353486
0.000418383
0.00040766
0.000350725
0.000269417
0.000203392
0.000164282
0.000146033
0.000136311
0.000130098
0.000125929
0.000122813
0.000120641
0.000119189
0.000118064
0.00011737
0.000116954
0.000116844
0.000116864
0.000116988
0.000117102
0.000117226
0.00011628
0.000117618
0.000119209
0.000124625
0.000136857
0.00015926
0.000186383
0.000223572
0.000333298
0.000417673
0.000416554
0.000371689
0.000292148
0.000221349
0.000173868
0.000151029
0.000139278
0.000132146
0.000127404
0.00012405
0.000121608
0.000119889
0.000118713
0.000117744
0.000117238
0.000116986
0.000116947
0.000117022
0.000117208
0.000117252
0.000117262
0.000116314
0.000117811
0.000119459
0.000125573
0.000138748
0.000162635
0.000188233
0.000222048
0.000314116
0.000414151
0.000421533
0.000389772
0.000313145
0.000240499
0.000185771
0.000156546
0.000142712
0.000134482
0.00012904
0.000125332
0.000122648
0.000120744
0.000119358
0.000118374
0.000117591
0.000117291
0.000117185
0.000117245
0.000117347
0.000117611
0.000117642
0.000117421
0.000116406
0.00011804
0.000119979
0.000126915
0.000141897
0.00016652
0.000190049
0.000221929
0.000297357
0.000406705
0.000426167
0.000405323
0.000332621
0.000259321
0.000199495
0.000163553
0.00014629
0.000137028
0.000130903
0.000126754
0.000123866
0.000121677
0.000120098
0.000118985
0.000118237
0.000117719
0.000117479
0.000117463
0.000117674
0.000117794
0.000118087
0.000118279
0.000117677
0.000116569
0.000118338
0.00012067
0.000128771
0.000146008
0.000170164
0.000191971
0.00022249
0.000283445
0.000396372
0.00043058
0.000414717
0.000351251
0.000277786
0.000214341
0.000171921
0.000150653
0.000139617
0.000132914
0.000128303
0.000125066
0.000122798
0.000121004
0.000119684
0.000118852
0.000118356
0.000118089
0.00011806
0.000118119
0.00011858
0.00011889
0.000119025
0.000118899
0.00011664
0.000115124
0.000116841
0.000118659
0.000121663
0.000131515
0.000150701
0.000173527
0.000193746
0.00022181
0.000272304
0.000384974
0.000432684
0.000421974
0.000369135
0.000294804
0.000229805
0.000181844
0.0001556
0.00014264
0.000134931
0.000129866
0.00012649
0.00012386
0.000122058
0.000120589
0.00011956
0.000118984
0.000118713
0.000118687
0.000118931
0.00011913
0.000119629
0.00012009
0.000119599
0.000120206
0.000111232
0.000119978
0.000106969
0.000100868
0.000101479
0.00011717
0.000118908
0.000123092
0.000135332
0.000155818
0.000176667
0.000195136
0.000220798
0.000263992
0.000372752
0.000432802
0.000427944
0.000384051
0.000311122
0.00024512
0.000192839
0.000161653
0.000145848
0.000137231
0.000131593
0.000127774
0.000125155
0.000123094
0.000121607
0.000120465
0.000119757
0.000119408
0.000119374
0.000119666
0.00012008
0.000120788
0.000121584
0.000120842
0.000121641
0.000120728
9.83752e-05
9.87204e-05
9.54854e-05
8.91243e-05
8.76256e-05
0.000117493
0.000119189
0.000125011
0.000140468
0.000160609
0.000179394
0.000196199
0.000219731
0.000259025
0.00036116
0.00043235
0.000432138
0.000397159
0.000326509
0.000260133
0.000204466
0.000168545
0.000149651
0.000139611
0.000133431
0.000129244
0.000126351
0.000124268
0.000122666
0.0001215
0.000120674
0.000120326
0.00012019
0.000120527
0.000121326
0.000121738
0.000122651
0.000116302
0.00010994
0.000115173
0.000110367
9.7964e-05
8.55783e-05
9.19205e-05
8.34536e-05
7.785e-05
7.66036e-05
0.000117775
0.000119767
0.00012777
0.000146125
0.000164308
0.000181428
0.000196838
0.000218682
0.000255866
0.000349149
0.000430192
0.000435397
0.000408185
0.000340397
0.000274464
0.000216855
0.000176042
0.000153878
0.000142236
0.00013531
0.000130677
0.000127632
0.0001254
0.000123777
0.000122585
0.000121777
0.000121291
0.000121346
0.000121797
0.000122206
0.000123585
0.000111433
0.000107871
0.000103251
0.000104829
0.000100825
9.60798e-05
9.35997e-05
8.92541e-05
7.51028e-05
8.09426e-05
7.38453e-05
6.81615e-05
6.74921e-05
0.000118036
0.000120872
0.000131551
0.000151573
0.000167412
0.000182703
0.000197001
0.000217566
0.000253507
0.000337973
0.000426407
0.000438279
0.000418482
0.000353325
0.000287938
0.000229208
0.000184524
0.000158599
0.000145013
0.000137299
0.000132013
0.000128815
0.000126552
0.000124931
0.000123704
0.000122973
0.000122422
0.000122346
0.000122776
0.000124234
0.000124819
0.000108092
9.73909e-05
9.22565e-05
9.56541e-05
9.28572e-05
9.01582e-05
8.73005e-05
8.67629e-05
8.42078e-05
7.8892e-05
6.63323e-05
7.17471e-05
6.57569e-05
6.02401e-05
5.98791e-05
0.000118332
0.0001225
0.000136817
0.000156441
0.000169955
0.000183566
0.000196991
0.000216499
0.000251564
0.000328027
0.000421583
0.000441549
0.000425324
0.000364704
0.000300522
0.000241418
0.000193711
0.000163895
0.000148225
0.000139083
0.000133659
0.000129836
0.000127652
0.000126044
0.000125026
0.000124231
0.00012388
0.000123787
0.00012414
0.000125205
0.000117388
9.74759e-05
9.32015e-05
8.84387e-05
8.82173e-05
8.58838e-05
8.44516e-05
8.17417e-05
8.09145e-05
7.85842e-05
7.69361e-05
7.51299e-05
7.03698e-05
5.90957e-05
6.40036e-05
5.87127e-05
5.35942e-05
5.32564e-05
0.00011859
0.000124661
0.000142511
0.000160294
0.000171957
0.000184042
0.000196971
0.000215719
0.00024995
0.000319312
0.000416434
0.000444944
0.000430793
0.000376933
0.000311785
0.000253306
0.000203233
0.000170012
0.000151626
0.000141592
0.000135018
0.000131044
0.000128535
0.000127159
0.000126328
0.000125703
0.000125504
0.000125504
0.000125886
0.000127209
0.000122248
9.88983e-05
8.33887e-05
7.90891e-05
8.12405e-05
7.98645e-05
7.9289e-05
7.65659e-05
7.60506e-05
7.35608e-05
7.24635e-05
7.06459e-05
6.84803e-05
6.74209e-05
6.32209e-05
5.31109e-05
5.75e-05
5.26173e-05
4.80242e-05
4.79177e-05
0.000118751
0.000127659
0.000148302
0.00016381
0.00017349
0.000184409
0.000197051
0.000215333
0.000248858
0.000312031
0.000411042
0.000447948
0.000436061
0.000387807
0.000322355
0.000264536
0.000213151
0.00017662
0.000155757
0.000143815
0.000136958
0.000132156
0.000129409
0.000128042
0.000127501
0.000127363
0.000127169
0.00012743
0.000127953
0.000128103
0.000121713
8.78385e-05
8.36916e-05
7.87674e-05
7.54243e-05
7.50609e-05
7.38782e-05
7.17048e-05
7.17627e-05
6.92155e-05
6.87905e-05
6.6426e-05
6.5072e-05
6.38193e-05
6.13348e-05
6.10165e-05
5.68566e-05
4.79707e-05
5.20683e-05
4.7466e-05
4.3474e-05
4.35124e-05
0.000119015
0.000131771
0.000154196
0.000167112
0.000174979
0.000184868
0.000197235
0.000215191
0.000248254
0.000306709
0.000405727
0.000450513
0.00044131
0.000397657
0.000332336
0.000274903
0.000223132
0.000183744
0.000160137
0.000147128
0.000138743
0.000133476
0.000130196
0.000128736
0.000128584
0.000128999
0.000129534
0.000129661
0.000129584
0.000129071
0.000128649
9.20483e-05
7.37082e-05
7.21553e-05
7.02443e-05
6.93504e-05
6.88312e-05
6.74162e-05
6.71724e-05
6.48847e-05
6.56049e-05
6.31889e-05
6.23158e-05
6.06678e-05
5.87275e-05
5.8301e-05
5.53821e-05
5.54284e-05
5.12042e-05
4.35629e-05
4.71196e-05
4.30306e-05
3.98383e-05
4.00199e-05
0.000119483
0.000136849
0.000159669
0.000170192
0.00017666
0.000185458
0.000197588
0.000215408
0.000247882
0.000303437
0.000401046
0.000452743
0.000446417
0.000406843
0.000341628
0.000284571
0.000232817
0.000191254
0.000165298
0.000150108
0.000141287
0.00013498
0.000131064
0.000129399
0.000129511
0.000130712
0.000132104
0.000132711
0.000131282
0.000128379
0.000124631
0.000107851
8.60307e-05
0.000114363
7.38747e-05
9.84423e-05
6.73038e-05
8.11397e-05
6.32726e-05
6.92798e-05
6.15549e-05
6.0989e-05
6.01784e-05
5.83954e-05
5.66142e-05
5.62831e-05
5.32887e-05
5.37832e-05
5.05306e-05
5.02013e-05
4.63697e-05
4.00266e-05
4.2757e-05
3.93639e-05
3.72016e-05
3.71827e-05
0.00012019
0.00014185
0.000164177
0.000173223
0.000178283
0.000186165
0.000198085
0.000215945
0.000247982
0.000301397
0.000397449
0.000454937
0.000451428
0.00041568
0.000350398
0.000293251
0.000242093
0.000199023
0.000170503
0.000154456
0.000143907
0.000137195
0.000132342
0.000130105
0.000130266
0.000132254
0.000134822
0.000135362
0.000132884
0.000130036
0.000138382
0.000161359
0.000145285
9.56073e-07
0.000104938
0.000108643
0.000107797
0.000105609
0.000100536
0.000105608
7.3115e-05
0.000106317
6.02165e-05
8.24135e-05
5.51253e-05
6.0463e-05
5.19049e-05
5.24883e-05
4.92806e-05
4.95816e-05
4.61173e-05
4.55918e-05
4.18724e-05
3.72861e-05
3.88751e-05
3.60471e-05
3.49965e-05
3.51212e-05
0.000120862
0.000145991
0.000168169
0.000176089
0.000180069
0.000187295
0.000198906
0.000216451
0.000248425
0.000300328
0.000394693
0.000457372
0.00045637
0.000424695
0.000358932
0.000301156
0.000250488
0.000206737
0.000176446
0.000158487
0.000147692
0.000139693
0.000134308
0.00013107
0.000131006
0.000133565
0.000123225
0.000138026
0.000141724
0.000169575
0.000219052
0.000264998
0.000312888
0.000146598
0.000286176
0.00012681
0.000173181
0.000117804
0.000153837
0.000110878
0.000138668
0.00010643
0.000122881
9.50226e-05
0.000108372
5.83825e-05
0.000101483
4.85227e-05
5.81047e-05
4.59331e-05
4.50603e-05
4.21547e-05
4.13924e-05
3.80534e-05
3.43756e-05
3.6005e-05
3.38307e-05
3.35906e-05
3.26283e-05
0.000121333
0.000149037
0.000171812
0.000178596
0.000182094
0.000188398
0.000200341
0.000217276
0.000249071
0.000299734
0.000392511
0.000459865
0.000461402
0.000433485
0.00036734
0.000308562
0.000258154
0.000213958
0.00018212
0.000163489
0.000151904
0.000143825
0.000137855
0.000133382
0.000132325
0.000134728
0.00012155
0.000142861
0.000176821
0.000254511
0.000372338
0.000542857
0.000677106
0.000626053
0.000799138
0.000269157
0.000470552
0.000227764
0.000399114
0.000192998
0.000324426
0.000165571
0.00024784
0.000140712
0.000194157
0.000111971
0.000152529
9.92839e-05
0.000115593
5.53069e-05
9.69584e-05
4.20571e-05
4.92361e-05
3.81816e-05
3.76982e-05
3.4471e-05
3.18663e-05
3.29686e-05
3.11226e-05
3.42743e-05
2.99539e-05
0.000121278
0.000150574
0.000174246
0.000180764
0.000183814
0.000189716
0.000201981
0.000219079
0.000249767
0.000299541
0.000390638
0.000462069
0.000466587
0.000442245
0.000375987
0.000315423
0.000265189
0.000220588
0.000187696
0.000168186
0.000157334
0.000149848
0.000143557
0.000139391
0.000135133
0.00013578
0.000135212
0.000151133
0.000250687
0.000419478
0.000672168
0.000840007
0.00089627
0.000841742
0.00090656
0.000805248
0.000849605
0.000588053
0.000731077
0.000519332
0.000675286
0.000438311
0.000607021
0.000344697
0.00052991
0.000232176
0.000423993
0.000163912
0.000275269
0.000118102
0.000171649
9.38586e-05
0.000117562
4.3641e-05
8.25733e-05
3.48855e-05
3.76664e-05
3.20555e-05
2.89755e-05
2.97603e-05
2.61113e-05
4.4969e-05
2.87898e-05
0.000120984
0.000150098
0.000175014
0.00018186
0.000185072
0.000191073
0.000203413
0.000221301
0.000251545
0.000300717
0.000389361
0.00046414
0.000472265
0.000450182
0.000384982
0.000322215
0.000271537
0.000226829
0.000192645
0.000172896
0.000162663
0.000156418
0.000151209
0.000144951
0.000139156
0.000133713
0.000127881
0.000166666
0.000328641
0.000646969
0.000916826
0.000968693
0.000892992
0.000826376
0.000855558
0.000822676
0.000806607
0.000790015
0.000751721
0.000800811
0.000695709
0.00074562
0.000635046
0.000684256
0.000568548
0.000616512
0.000477623
0.000553909
0.000321465
0.000479667
0.000174783
0.000343397
0.000112751
0.000172963
6.53498e-05
0.000103843
3.4454e-05
4.90678e-05
3.28694e-05
2.16785e-05
2.95627e-05
2.23553e-05
2.22178e-05
1.61216e-05
0.000127924
0.000148983
0.000173826
0.000181707
0.000185578
0.000191929
0.000204792
0.000223442
0.000254185
0.000302347
0.000389487
0.000466169
0.000478485
0.000457676
0.000394889
0.000329081
0.000277605
0.000232286
0.000197072
0.000176139
0.000165915
0.000161345
0.000158279
0.000150629
0.000138197
0.000127872
0.000134909
0.000199824
0.000440288
0.000834271
0.00102477
0.000980422
0.000876622
0.000772584
0.000705177
0.000717955
0.000754605
0.000717747
0.000707799
0.000679665
0.000754944
0.000738373
0.000701902
0.000684841
0.000649572
0.0006325
0.000600156
0.000585106
0.000537606
0.000541257
0.000464985
0.000504932
0.000352609
0.000437519
0.000161248
0.00033194
9.37572e-05
0.000143208
3.92662e-05
8.43896e-05
3.4672e-05
1.61056e-05
3.11877e-05
3.50329e-05
2.39195e-05
1.0592e-05
0.000164169
0.000170832
0.000179926
0.000185331
0.000192125
0.000205862
0.000225592
0.000256794
0.000304884
0.000390211
0.000468591
0.000485031
0.000465166
0.000404692
0.00033636
0.000283123
0.000237815
0.000201147
0.000178039
0.000167332
0.000163527
0.000162242
0.000152416
0.000140659
0.000152308
0.000181188
0.000270476
0.000552162
0.00100801
0.00109269
0.00097887
0.000878872
0.000808859
0.000732902
0.000763025
0.000694677
0.000728491
0.00066943
0.000678151
0.000634845
0.000644349
0.000658011
0.000639719
0.00060915
0.000599326
0.000565771
0.000558581
0.000523867
0.000518562
0.000489096
0.000482735
0.000462659
0.000446753
0.00040553
0.000417746
0.000301511
0.000371635
0.000123531
0.000254271
6.90199e-05
0.000107119
4.89484e-05
2.46774e-05
4.80186e-05
3.68991e-05
1.95616e-05
2.41876e-05
0.000180035
0.000177558
0.000183898
0.000192052
0.000206462
0.000227365
0.000259302
0.000308596
0.000391713
0.000471231
0.000492162
0.000472668
0.000414729
0.000343663
0.000289419
0.000242661
0.000204658
0.000180192
0.000168039
0.00016548
0.000168103
0.000162396
0.000180118
0.000234631
0.000306381
0.000442983
0.000821834
0.00110642
0.00110911
0.000976693
0.000888027
0.000875497
0.000931651
0.000798256
0.000926115
0.000766385
0.000862815
0.000660848
0.000696041
0.000630579
0.000667517
0.000598633
0.000613473
0.000563406
0.000581226
0.000526585
0.000544979
0.000489498
0.000507087
0.000453073
0.000468314
0.000412758
0.000427925
0.000378639
0.000384896
0.000337085
0.0003462
0.000189635
0.000302212
8.04972e-05
0.000136547
6.56555e-05
2.62284e-05
4.63499e-05
5.2363e-05
3.64003e-05
3.04229e-05
2.81038e-05
4.04493e-05
1.14465e-05
9.60458e-06
0.000182684
0.000183087
0.000192081
0.000207076
0.000228671
0.000261637
0.000312526
0.000393846
0.000474374
0.000499784
0.000480758
0.000424432
0.000352148
0.000295042
0.000249232
0.000208059
0.000182247
0.000168956
0.000167794
0.000188238
0.000227492
0.000319107
0.000461721
0.000640658
0.0008404
0.00105719
0.00119572
0.00112148
0.000977953
0.000919316
0.000930467
0.00101766
0.00104371
0.00105889
0.00093746
0.00100521
0.000870948
0.000944488
0.000731797
0.000814173
0.0007102
0.000759911
0.000603142
0.0006436
0.000573193
0.000626532
0.00053891
0.000597338
0.000502136
0.000557709
0.000466023
0.000518447
0.000415295
0.000484755
0.000363817
0.000418737
0.000318982
0.000337486
0.000362232
0.000216976
0.000278969
0.000305894
0.000287231
7.96499e-05
0.00010062
0.000252654
0.000165136
0.000237805
8.91688e-05
7.28068e-05
6.32539e-05
2.68489e-05
4.71279e-05
1.88105e-05
5.05696e-05
3.53689e-05
3.40311e-05
1.79395e-05
1.13636e-05
9.44743e-06
2.60218e-05
0.000188549
0.000193368
0.00020838
0.000229957
0.000263487
0.000316084
0.000396546
0.000478188
0.00050816
0.000489114
0.000434736
0.000360017
0.000302727
0.00025453
0.000213482
0.000184145
0.000169927
0.000169354
0.000209153
0.000318041
0.00051486
0.000788003
0.00104845
0.0011851
0.00122493
0.00122768
0.00111961
0.000995981
0.000953503
0.00100736
0.00107231
0.00102646
0.000931866
0.000948546
0.000808732
0.000989704
0.00099316
0.000903923
0.000899822
0.000814898
0.000876313
0.00076958
0.000797498
0.000672769
0.000713229
0.000634035
0.000682095
0.000591684
0.000637914
0.000547766
0.000587514
0.00050896
0.000538349
0.000475869
0.000502258
0.000386016
0.000422507
0.000446239
0.000474256
0.000319084
0.000348446
0.000356424
0.000385075
0.000269229
0.00030363
0.000282539
0.000142203
0.000250722
0.000203568
0.00022765
0.000108579
8.20452e-05
6.33774e-05
7.57348e-05
7.38704e-05
5.22922e-05
5.33587e-05
3.8905e-05
3.53105e-05
1.45945e-05
8.64918e-06
1.13289e-05
2.4436e-05
0.000202623
0.000211092
0.000231607
0.000265636
0.000318746
0.00039939
0.00048293
0.000517166
0.000498356
0.000444289
0.000369743
0.000309102
0.000262615
0.000218227
0.000187979
0.000170903
0.000169604
0.000221162
0.000382346
0.00067578
0.00109376
0.00134838
0.001366
0.00135913
0.00123796
0.00110799
0.00101233
0.00100806
0.00109081
0.00109536
0.000509052
0.000609734
0.000412995
0.000517593
0.000373432
0.000851821
0.000717965
0.000720095
0.000598952
0.000805913
0.000786832
0.000715093
0.000646146
0.000712361
0.000728513
0.000664395
0.00067103
0.000614693
0.000615922
0.000563752
0.000571542
0.000519102
0.000528634
0.000484375
0.000494185
0.000500288
0.000507097
0.000417125
0.000447304
0.000466397
0.000478814
0.000338661
0.000373515
0.000380475
0.000413101
0.000262639
0.000328365
0.000289459
0.000178826
0.000242858
0.00021008
0.000227279
0.000148798
0.000111597
6.607e-05
3.03152e-05
3.65259e-05
3.33299e-05
5.62612e-05
4.73602e-05
3.4889e-05
1.60922e-05
1.2314e-05
1.37377e-05
2.04838e-05
0.000221366
0.000234665
0.000268074
0.000321609
0.000402392
0.000488539
0.000527037
0.000508121
0.00045505
0.000377571
0.000317987
0.000269363
0.000226328
0.000190559
0.000172701
0.000168918
0.000221061
0.000420676
0.000805877
0.00133606
0.00152423
0.00150704
0.00136588
0.0012308
0.00109956
0.0010597
0.00108049
0.00118549
0.00108157
0.000419304
0.000185785
0.000161667
0.000278959
0.000202839
0.000251293
0.000185342
0.00043656
0.000329969
0.00035155
0.000282734
0.000563467
0.000447637
0.000415972
0.000341611
0.000617999
0.000524801
0.000557599
0.000452955
0.000525445
0.000450134
0.000505726
0.000455569
0.000498856
0.000489861
0.000481028
0.00046402
0.000484977
0.000490495
0.000490137
0.000482342
0.00044193
0.000460103
0.000470458
0.000475182
0.000366804
0.000407942
0.000401556
0.000435416
0.000273834
0.000357224
0.000315687
0.000189418
0.000257919
0.000208625
0.000237978
0.000166378
0.000141091
7.65658e-05
2.38863e-05
2.72791e-05
2.46082e-05
5.91396e-05
5.28456e-05
4.40221e-05
1.60132e-05
1.54084e-05
1.57907e-05
1.84737e-05
0.000244211
0.000270926
0.000324934
0.000405187
0.000494822
0.000538178
0.000519877
0.000465022
0.000388089
0.000324377
0.000278899
0.000234008
0.000197553
0.000176361
0.000168098
0.000210718
0.000426464
0.000898752
0.00150072
0.00163158
0.0015499
0.00136374
0.00120933
0.00113149
0.0011083
0.00122707
0.001295
0.0010666
0.000391038
0.000131378
0.000104727
9.03543e-05
0.000141926
0.000114741
0.000133638
0.000113707
0.000220144
0.000166911
0.000189055
0.000150795
0.00028405
0.000236969
0.000254085
0.000203309
0.000379587
0.000315732
0.00038801
0.000324782
0.000411341
0.000363417
0.000456125
0.000436303
0.000404574
0.000474373
0.000465005
0.000455264
0.000442753
0.000478667
0.000476726
0.000471711
0.000465
0.000452301
0.000461021
0.000464979
0.000466861
0.000393626
0.000427692
0.000419321
0.000443304
0.000301263
0.000384048
0.000346012
0.000190085
0.000283085
0.000218217
0.000263276
0.000170442
0.000149675
0.000109375
2.22377e-05
2.91042e-05
2.4052e-05
7.22775e-05
5.6463e-05
5.09827e-05
1.63763e-05
2.05581e-05
1.76849e-05
1.82904e-05
0.000278246
0.000327525
0.000408753
0.000501316
0.000550579
0.000532096
0.000478735
0.000395848
0.000334461
0.000286686
0.000244933
0.000204804
0.00018202
0.000168583
0.000185358
0.000411993
0.000939279
0.00160735
0.0017003
0.00154557
0.0013345
0.00121767
0.00117461
0.00120548
0.00138264
0.00145145
0.00103852
0.000386249
0.000135378
9.12727e-05
9.36634e-05
9.17799e-05
9.02263e-05
0.000101962
9.48936e-05
0.000104437
9.89144e-05
0.000125129
0.000111443
0.000118132
0.000107857
0.000164521
0.000136492
0.000163952
0.000132375
0.000264043
0.00020925
0.000316687
0.000267124
0.000371387
0.000334778
0.000431293
0.000416176
0.000372023
0.00038735
0.000457051
0.000447992
0.000438301
0.00042663
0.000464768
0.000461104
0.000455856
0.000448756
0.000450759
0.000454097
0.000454778
0.000453022
0.000410145
0.000433811
0.000423877
0.000440097
0.000331807
0.00039965
0.000372585
0.000198512
0.000314735
0.000242092
0.000294375
0.000177926
0.000157536
0.000128482
2.12859e-05
3.99361e-05
2.79835e-05
0.000102359
6.90642e-05
5.323e-05
1.61311e-05
3.12844e-05
1.72355e-05
1.78667e-05
0.000332717
0.000411882
0.000507725
0.000563109
0.000548063
0.000491013
0.000408916
0.000340668
0.000297408
0.000255045
0.000218246
0.000186078
0.000169077
0.000168232
0.000363854
0.000935468
0.00166365
0.00175069
0.0015336
0.00132492
0.00125272
0.0012402
0.00138515
0.00152399
0.00151727
0.000933303
0.000388049
0.000136793
9.45308e-05
9.03024e-05
9.13216e-05
8.96263e-05
8.97402e-05
9.40512e-05
9.08612e-05
9.83796e-05
9.47456e-05
0.000102961
0.000100519
0.000100651
9.88963e-05
0.000113777
0.000104434
0.000128826
0.000107544
0.000215807
0.000167115
0.000295412
0.000249588
0.000357733
0.000340683
0.000305211
0.000325098
0.000414428
0.000400976
0.0003683
0.000381058
0.000440341
0.000431391
0.000422101
0.00041282
0.000449397
0.000444394
0.000438606
0.000432923
0.000442324
0.00044235
0.000439563
0.000436072
0.000413618
0.000429021
0.000417617
0.00042999
0.000358872
0.000402975
0.000388242
0.000219767
0.000341752
0.000271615
0.000321323
0.000196686
0.000172624
0.00013631
2.48495e-05
4.9878e-05
3.82645e-05
0.000113661
8.96554e-05
6.29423e-05
1.37905e-05
2.58138e-05
9.34201e-06
2.31048e-05
0.000415612
0.000514489
0.000577221
0.000562236
0.000510209
0.000417828
0.000351751
0.000305497
0.000271263
0.000230213
0.000189161
0.00016515
0.000158312
0.000330557
0.000908887
0.00167931
0.00177691
0.00152368
0.00134636
0.00129538
0.00138815
0.00154959
0.00166681
0.00150451
0.000740721
0.000355437
0.000133868
9.82591e-05
9.28967e-05
9.48063e-05
9.02982e-05
9.18231e-05
8.88196e-05
8.92309e-05
9.10955e-05
8.92107e-05
9.53668e-05
9.17894e-05
9.80658e-05
9.72475e-05
9.69173e-05
9.62596e-05
9.93064e-05
9.71889e-05
0.000116623
0.000100284
0.000200588
0.000152773
0.000273451
0.000230132
0.000354616
0.000339715
0.000306702
0.000323989
0.000403071
0.000392521
0.000367903
0.000379946
0.000427418
0.000421799
0.000415623
0.00040852
0.000432667
0.000429659
0.000426967
0.000424291
0.000428811
0.000425939
0.000423112
0.000421026
0.00040614
0.000417399
0.000404499
0.000414974
0.000374906
0.000394684
0.000391675
0.00024743
0.000358586
0.000297967
0.000339025
0.000221803
0.000196127
0.000148308
3.77676e-05
5.31041e-05
4.73032e-05
0.000124187
9.97414e-05
7.6989e-05
1.95921e-05
1.82814e-05
1.38224e-05
4.15379e-05
0.000520965
0.000587609
0.000582913
0.000525783
0.000435414
0.000358405
0.000315937
0.000280824
0.000236367
0.000186601
0.000159507
0.000174418
0.000312463
0.00086899
0.00167634
0.00178827
0.00152184
0.00137438
0.00136216
0.00150397
0.00167032
0.00169999
0.00137984
0.0006305
0.000280571
0.000127088
0.000101537
9.73035e-05
9.36358e-05
9.48681e-05
9.11459e-05
9.23793e-05
8.80633e-05
8.94786e-05
8.88194e-05
8.77569e-05
9.23961e-05
8.92019e-05
9.51664e-05
9.43419e-05
9.44138e-05
9.32057e-05
9.60118e-05
9.52608e-05
0.000107907
9.57968e-05
0.000183236
0.000139249
0.000292166
0.000269432
0.000252089
0.000226086
0.000354646
0.000340406
0.000309167
0.000325219
0.000400292
0.000390785
0.000369019
0.000380721
0.000421302
0.000417699
0.000413094
0.000407197
0.000419926
0.00041938
0.000418909
0.000418177
0.000411818
0.00040931
0.000407901
0.000407607
0.000391564
0.00040088
0.000386677
0.000397035
0.000379148
0.00037905
0.00038324
0.000272641
0.000363772
0.000316229
0.000345375
0.000247281
0.000221229
0.000169613
4.44097e-05
6.00013e-05
4.09765e-05
0.000140478
0.000111638
8.44688e-05
3.15936e-05
2.22606e-05
2.42895e-05
3.97627e-05
0.000606657
0.000597591
0.000551205
0.000447914
0.000371559
0.000324678
0.00029182
0.000231989
0.000177638
0.000177074
0.000217206
0.000346036
0.000871833
0.00165291
0.00179521
0.00153188
0.00140397
0.00144704
0.00162988
0.00171971
0.00166891
0.00102553
0.000537021
0.000222805
0.000120138
0.000104407
0.000100699
9.76206e-05
9.38367e-05
9.52055e-05
9.15133e-05
9.25976e-05
8.87632e-05
9.03646e-05
8.74971e-05
8.73213e-05
9.00898e-05
8.73394e-05
9.27393e-05
9.22407e-05
9.17769e-05
9.08567e-05
9.24291e-05
9.1928e-05
0.000107203
9.37647e-05
0.000193884
0.000144483
0.000294492
0.000276157
0.000256264
0.000235017
0.00035613
0.000342188
0.000311495
0.000327332
0.00039987
0.000391058
0.00037136
0.000382493
0.000416899
0.000414761
0.000411393
0.000406586
0.000408401
0.000409646
0.000410806
0.000411691
0.000394159
0.000392673
0.000392516
0.000393497
0.000372248
0.00038165
0.00036568
0.000377729
0.000370935
0.000358974
0.000367013
0.000291959
0.000356374
0.000323592
0.000339338
0.000267173
0.000240984
0.00019241
3.56309e-05
6.4138e-05
3.93295e-05
0.000160364
0.000128404
9.4507e-05
2.76395e-05
2.56906e-05
8.93849e-06