/*--------------------------------*- C++ -*----------------------------------*\
  =========                 |
  \\      /  F ield         | OpenFOAM: The Open Source CFD Toolbox
   \\    /   O peration     | Website:  https://openfoam.org
    \\  /    A nd           | Version:  dev
     \\/     M anipulation  |
\*---------------------------------------------------------------------------*/
FoamFile
{
    version     2.0;
    format      ascii;
    class       volScalarField;
    location    "2500";
    object      CO2;
}
// * * * * * * * * * * * * * * * * * * * * * * * * * * * * * * * * * * * * * //

dimensions      [0 0 0 0 0 0 0];

internalField   nonuniform List<scalar> 
9714
(
1.54602e-35
3.98112e-35
2.94419e-35
7.93869e-35
9.59965e-35
1.33767e-35
1.01854e-34
2.03398e-34
1.0399e-34
4.40064e-36
1.34775e-34
3.40367e-34
2.47257e-34
7.43618e-35
3.51874e-36
6.36573e-35
5.11761e-34
4.41451e-34
2.25682e-34
2.64904e-35
6.43481e-37
9.34329e-35
7.20366e-34
7.90963e-34
4.89938e-34
1.66655e-34
1.52467e-35
1.6007e-37
7.29775e-35
8.83858e-34
1.25385e-33
8.05993e-34
4.43867e-34
6.38172e-35
4.81099e-36
5.52131e-38
8.77529e-35
1.06614e-33
1.73858e-33
1.65748e-33
8.53258e-34
2.96226e-34
2.67407e-35
1.93515e-36
4.19883e-38
2.07592e-34
1.20303e-33
2.37018e-33
2.44162e-33
1.59921e-33
6.838e-34
1.14898e-34
1.07704e-35
6.18589e-37
5.45064e-39
1.28497e-34
1.23387e-33
2.95334e-33
3.294e-33
2.69481e-33
1.31871e-33
4.50163e-34
6.2419e-35
4.32769e-36
1.05786e-37
1.55651e-39
6.48876e-35
6.95794e-34
3.4602e-33
5.02584e-33
4.0448e-33
2.51625e-33
9.91574e-34
2.42421e-34
1.72681e-35
1.30461e-36
3.64887e-38
3.75748e-40
1.66719e-34
5.09184e-34
3.4082e-33
6.28131e-33
5.68219e-33
3.69898e-33
2.05413e-33
5.89685e-34
1.10172e-34
7.30887e-36
3.72137e-37
4.58308e-39
8.52794e-41
3.06987e-34
7.94734e-34
3.84502e-33
8.44482e-33
9.31422e-33
6.58986e-33
3.54281e-33
1.41011e-33
2.83181e-34
4.01148e-35
2.75751e-36
7.58169e-38
1.07778e-39
8.30511e-41
3.56887e-34
1.93746e-33
4.88376e-33
9.8963e-33
1.20972e-32
9.02185e-33
5.96624e-33
2.62922e-33
8.97957e-34
1.29613e-34
1.21282e-35
7.682e-37
1.74116e-38
1.29969e-39
9.62153e-40
3.01526e-34
1.66305e-33
6.38652e-33
1.28848e-32
1.62556e-32
1.55292e-32
7.98451e-33
4.43488e-33
1.90191e-33
4.50035e-34
3.82913e-35
4.05802e-36
1.14293e-37
1.29766e-38
1.30368e-38
1.09413e-38
8.80777e-34
2.79229e-33
9.66631e-33
1.48921e-32
2.25558e-32
2.15171e-32
1.40246e-32
7.40589e-33
2.88132e-33
7.16398e-34
1.52974e-34
1.09866e-35
9.61689e-37
1.14781e-37
1.52031e-37
1.44644e-37
1.05927e-37
3.7141e-34
5.94685e-33
1.13586e-32
2.39751e-32
3.27999e-32
2.86426e-32
2.32529e-32
1.21127e-32
5.82067e-33
1.5241e-33
3.19505e-34
4.19422e-35
2.78547e-36
7.22422e-37
1.11866e-36
2.07078e-36
3.49935e-36
2.2948e-36
1.4242e-33
8.85221e-33
1.96796e-32
3.8927e-32
4.87318e-32
4.69674e-32
3.30435e-32
2.11976e-32
1.05107e-32
3.85752e-33
8.36834e-34
1.10239e-34
1.29877e-35
5.63233e-36
1.12836e-35
2.43891e-35
4.37219e-35
7.2529e-35
9.22774e-35
7.49202e-34
1.03191e-32
3.23649e-32
5.29067e-32
7.05228e-32
6.79414e-32
5.0941e-32
3.15304e-32
1.70709e-32
7.84641e-33
2.22152e-33
3.83765e-34
5.47147e-35
2.55284e-35
7.96719e-35
1.46204e-34
4.02776e-34
7.02683e-34
1.17735e-33
1.39315e-33
1.29395e-33
8.35545e-33
3.55941e-32
8.00957e-32
1.0789e-31
1.05951e-31
7.86227e-32
4.85737e-32
2.47991e-32
1.25295e-32
5.16014e-33
9.4419e-34
1.69663e-34
1.77962e-34
4.84605e-34
1.24944e-33
2.71138e-33
6.66093e-33
1.50897e-32
1.61833e-32
2.30044e-32
7.16886e-34
9.29084e-33
2.07257e-32
6.93069e-32
1.54834e-31
1.64997e-31
1.23685e-31
7.66522e-32
4.0386e-32
1.85424e-32
8.96326e-33
2.29344e-33
4.79521e-34
6.79234e-34
2.82922e-33
9.48775e-33
1.9607e-32
8.50644e-32
1.27099e-31
2.58807e-31
2.20753e-31
4.00689e-31
9.66776e-34
6.66253e-33
3.0835e-32
5.2998e-32
1.53064e-31
2.43652e-31
1.95056e-31
1.22847e-31
6.06582e-32
2.95722e-32
1.35031e-32
4.23308e-33
2.05486e-33
4.95618e-33
1.77255e-32
7.60886e-32
1.87562e-31
4.26185e-31
1.58873e-30
3.36394e-30
3.09688e-30
6.60766e-30
4.4668e-30
9.75391e-34
6.73513e-33
1.7366e-32
6.36471e-32
1.3243e-31
3.29352e-31
2.83398e-31
1.95464e-31
1.03804e-31
4.88001e-32
2.12982e-32
8.69263e-33
6.33725e-33
2.243e-32
9.7767e-32
3.6057e-31
1.62475e-30
3.88055e-30
7.63013e-30
2.67721e-29
6.43547e-29
8.27647e-29
1.27126e-28
8.14729e-29
1.26327e-33
8.13096e-33
2.69173e-32
7.01736e-32
1.76039e-31
4.33328e-31
4.87862e-31
2.9922e-31
1.75178e-31
8.89397e-32
3.64456e-32
1.5263e-32
2.35599e-32
7.28858e-32
6.26285e-31
1.65765e-30
6.7095e-30
3.77407e-29
1.2309e-28
1.73446e-28
7.13474e-28
1.6207e-27
1.85388e-27
1.93056e-27
3.64555e-28
1.38063e-33
9.79531e-33
2.50475e-32
8.09074e-32
2.31954e-31
5.15646e-31
6.46858e-31
4.94973e-31
2.8134e-31
1.34711e-31
7.95484e-32
5.63895e-32
7.26669e-32
5.83167e-31
2.06525e-30
1.29944e-29
3.58127e-29
1.07223e-28
9.27286e-28
2.24624e-27
5.30122e-27
1.40771e-26
2.89788e-26
2.48589e-26
2.22765e-26
4.81125e-27
1.68104e-33
7.23211e-33
4.4658e-32
1.31672e-31
3.1987e-31
5.86101e-31
8.08993e-31
7.38297e-31
4.59562e-31
2.63839e-31
1.7037e-31
2.18462e-31
5.13791e-31
1.69244e-30
1.41687e-29
6.22211e-29
2.74321e-28
8.65041e-28
3.30561e-27
2.08582e-26
3.64271e-26
1.23334e-25
2.89081e-25
4.52715e-25
3.84789e-25
2.28288e-25
1.28721e-25
5.27025e-33
2.767e-32
6.37166e-32
1.48154e-31
3.76918e-31
7.43308e-31
1.01503e-30
1.05367e-30
7.28074e-31
5.0329e-31
4.47817e-31
8.46602e-31
3.05103e-30
7.32053e-30
4.04856e-29
3.7807e-28
1.7178e-27
6.23437e-27
1.6748e-26
8.07796e-26
4.57588e-25
1.0942e-24
2.08738e-24
5.40006e-24
8.30014e-24
6.97519e-24
4.53126e-24
1.52089e-24
9.48766e-32
1.06226e-31
1.15595e-31
1.40835e-31
4.21299e-31
9.8878e-31
1.34909e-30
1.45037e-30
1.2813e-30
1.12142e-30
1.68264e-30
3.4059e-30
9.59434e-30
5.71745e-29
2.19863e-28
1.02375e-27
8.58673e-27
3.94981e-26
1.57063e-25
5.74826e-25
2.12045e-24
8.38458e-24
2.44642e-23
2.83098e-23
1.07345e-22
1.20213e-22
8.81771e-23
3.55156e-23
9.57331e-24
9.43868e-31
3.88713e-31
3.79274e-31
3.12642e-31
4.99038e-31
1.1634e-30
1.72574e-30
2.2305e-30
2.39646e-30
3.02756e-30
6.43104e-30
1.6226e-29
4.53364e-29
1.97175e-28
1.35323e-27
5.50727e-27
2.62071e-26
2.5914e-25
1.0671e-24
4.57221e-24
2.0067e-23
7.05254e-23
2.67943e-22
4.78171e-22
6.58215e-22
1.96499e-21
1.69975e-21
5.2781e-22
2.61981e-22
7.48191e-23
7.32896e-30
3.07904e-30
2.77128e-30
1.06166e-30
8.87783e-31
1.45832e-30
2.16871e-30
4.04814e-30
6.87196e-30
1.04627e-29
2.71381e-29
6.27709e-29
2.19828e-28
6.91622e-28
3.50982e-27
3.23149e-26
1.27345e-25
1.11068e-24
7.15799e-24
3.14688e-23
1.64168e-22
5.77689e-22
1.94008e-21
5.2154e-21
7.4643e-21
1.90721e-20
2.33628e-20
1.56459e-20
5.83516e-21
1.84895e-21
2.3735e-22
4.91796e-29
2.89955e-29
1.66188e-29
4.79194e-30
1.84896e-30
1.98102e-30
4.35497e-30
6.27807e-30
2.19554e-29
4.38101e-29
8.90438e-29
2.90575e-28
7.80429e-28
3.69801e-27
1.90556e-26
9.47973e-26
8.73801e-25
4.83158e-24
3.21553e-23
1.97004e-22
1.08875e-21
5.01003e-21
1.68032e-20
5.13996e-20
1.20785e-19
1.94191e-19
1.9218e-19
2.64292e-19
1.23471e-19
3.60122e-20
5.66613e-21
3.3406e-22
3.08106e-28
1.6142e-28
8.80538e-29
3.62353e-29
8.11561e-30
6.43622e-30
1.16368e-29
2.32307e-29
5.3626e-29
1.6882e-28
3.83365e-28
1.20488e-27
3.93862e-27
1.34056e-26
7.7531e-26
4.91466e-25
3.51979e-24
2.58182e-23
1.46605e-22
1.01681e-21
4.97103e-21
3.18186e-20
1.32805e-19
5.02297e-19
9.46688e-19
2.18959e-18
3.29419e-18
3.29632e-18
2.40235e-18
7.21168e-19
1.16712e-19
1.77568e-20
8.61879e-22
1.79359e-27
1.17441e-27
8.98948e-28
2.65941e-28
4.69336e-29
3.59709e-29
4.22546e-29
1.28721e-28
1.76707e-28
7.21727e-28
1.18284e-27
4.51975e-27
1.58333e-26
5.92427e-26
2.37066e-25
1.5603e-24
1.25713e-23
1.10314e-22
7.64852e-22
4.7756e-21
2.68114e-20
1.51801e-19
8.34266e-19
3.4791e-18
1.26486e-17
1.84659e-17
2.9184e-17
3.25184e-17
2.80499e-17
1.6557e-17
4.86326e-18
5.15022e-19
1.42183e-20
3.89343e-22
4.72073e-21
5.43387e-27
1.06171e-26
5.26384e-27
1.57005e-27
3.25345e-28
1.46549e-28
2.86649e-28
4.01432e-28
1.10042e-27
1.67816e-27
6.28054e-27
1.40242e-26
5.32025e-26
2.34e-25
1.22018e-24
6.06129e-24
4.42588e-23
4.20752e-22
3.40922e-21
2.12298e-20
1.33659e-19
8.88095e-19
3.50787e-18
2.10494e-17
8.17589e-17
2.75535e-16
2.75747e-16
2.70664e-16
2.71737e-16
1.79722e-16
1.01983e-16
1.58888e-17
1.68212e-19
1.20028e-18
4.22233e-20
8.53494e-19
5.07295e-19
1.53509e-21
1.59444e-20
5.91662e-26
8.86026e-26
2.81799e-26
9.79362e-27
1.91543e-27
7.25156e-28
9.00617e-28
2.17945e-27
5.45721e-27
9.37746e-27
1.91607e-26
5.78753e-26
2.08803e-25
9.13513e-25
5.20452e-24
3.31639e-23
2.34718e-22
1.83516e-21
1.16984e-20
8.9043e-20
5.44914e-19
3.56063e-18
2.15285e-17
7.07661e-17
4.68557e-16
1.69641e-15
4.78582e-15
4.94238e-15
4.81607e-15
3.36704e-15
1.71546e-15
3.94688e-16
1.1765e-17
7.88178e-17
6.65936e-18
1.97411e-19
5.35463e-18
2.83079e-18
5.29077e-21
5.71213e-20
3.09407e-25
5.42831e-25
2.07153e-25
5.72201e-26
1.14254e-26
3.52983e-27
5.83415e-27
8.53663e-27
1.58586e-26
3.82631e-26
5.5459e-26
2.17593e-25
7.87782e-25
3.03573e-24
1.66834e-23
1.53979e-22
9.84766e-22
5.86729e-21
5.44936e-20
2.64017e-19
2.23032e-18
1.72066e-17
7.17049e-17
5.12241e-16
2.48349e-15
1.82452e-14
4.18347e-14
9.45717e-14
8.73332e-14
7.40833e-14
4.07962e-14
1.25316e-14
3.13107e-16
2.56165e-15
6.30705e-17
3.86277e-16
2.7076e-17
9.7909e-19
2.51784e-17
8.89033e-18
3.07569e-20
4.53893e-19
1.49045e-24
3.83916e-24
1.14425e-24
2.78823e-25
6.61767e-26
1.88061e-26
2.24949e-26
3.86031e-26
7.37389e-26
1.62455e-25
3.25683e-25
6.60231e-25
2.59425e-24
1.30478e-23
6.57798e-23
5.68345e-22
4.86226e-21
3.50117e-20
2.7765e-19
1.64713e-18
7.56039e-18
6.70251e-17
3.93888e-16
1.79597e-15
1.31524e-14
8.60404e-14
5.17302e-13
8.85658e-13
1.58384e-12
1.36994e-12
9.86264e-13
4.06839e-13
1.83387e-14
1.38314e-13
2.48678e-15
2.10907e-14
3.16869e-16
2.10582e-15
1.6115e-16
4.29849e-18
1.36528e-16
4.53401e-17
9.67802e-20
2.41485e-18
1.07869e-23
2.70483e-23
8.2398e-24
1.75707e-24
2.84289e-25
9.09458e-26
9.25671e-26
1.6367e-25
4.50244e-25
7.99428e-25
1.28652e-24
3.21172e-24
9.30126e-24
3.58314e-23
2.65583e-22
1.52128e-21
1.76122e-20
1.56614e-19
1.21269e-18
7.21471e-18
5.19889e-17
1.95317e-16
1.32371e-15
8.79117e-15
7.15095e-14
5.36531e-13
2.51447e-12
1.18355e-11
1.60421e-11
2.35252e-11
1.86072e-11
1.0631e-11
8.51291e-13
5.27444e-12
1.67512e-13
1.21097e-12
2.09328e-14
1.89068e-13
1.94738e-15
1.82258e-14
1.09289e-15
2.93686e-17
6.00142e-16
3.21799e-16
2.04e-19
9.18372e-18
9.76072e-23
1.84687e-22
5.01159e-23
1.25743e-23
2.0551e-24
4.00831e-25
3.34622e-25
7.83723e-25
1.71901e-24
2.46458e-24
6.1362e-24
1.28922e-23
3.75415e-23
1.45509e-22
1.13315e-21
8.33204e-21
6.07709e-20
5.70667e-19
5.22627e-18
3.61103e-17
2.50817e-16
1.01955e-15
5.87815e-15
4.04491e-14
3.69983e-13
3.47691e-12
1.99685e-11
6.53147e-11
2.17217e-10
2.48017e-10
3.0051e-10
2.10902e-10
2.81465e-11
1.48609e-10
7.84389e-12
4.62995e-11
1.5212e-12
1.10139e-11
1.90502e-13
1.746e-12
1.40171e-14
1.65474e-13
9.12567e-15
1.13502e-16
4.99294e-15
2.26785e-15
9.14909e-19
3.34656e-17
1.29027e-21
1.22809e-21
3.66996e-22
7.77631e-23
1.31038e-23
1.75663e-24
1.39318e-24
2.56563e-24
6.58174e-24
9.22909e-24
1.3979e-23
4.825e-23
1.36017e-22
4.77605e-22
3.21365e-21
3.26636e-20
3.09669e-19
2.43543e-18
1.79499e-17
1.47079e-16
9.89469e-16
5.34826e-15
3.03047e-14
1.87936e-13
1.7235e-12
1.91359e-11
1.40608e-10
6.03031e-10
1.37139e-09
3.19812e-09
3.2472e-09
3.24186e-09
6.75039e-10
2.98388e-09
2.51147e-10
1.26406e-09
7.10941e-11
4.14848e-10
1.40949e-11
1.01432e-10
1.76469e-12
1.62751e-11
1.26697e-13
1.53015e-12
7.99422e-14
8.32667e-16
4.0409e-14
1.68309e-14
1.35038e-17
2.23627e-16
9.53661e-21
7.13773e-21
2.58246e-21
4.06024e-22
8.06906e-23
8.84684e-24
6.01952e-24
9.52505e-24
2.12906e-23
3.9209e-23
6.81221e-23
1.5487e-22
4.11775e-22
1.71173e-21
1.30533e-20
9.85449e-20
1.08324e-18
1.16296e-17
7.96179e-17
6.04894e-16
4.19818e-15
2.7551e-14
1.60533e-13
8.96505e-13
7.24202e-12
9.13245e-11
8.00724e-10
4.44882e-09
1.45049e-08
2.28626e-08
3.79678e-08
3.70692e-08
1.15205e-08
4.34523e-08
5.8184e-09
2.46444e-08
2.22141e-09
1.09669e-08
6.48495e-10
3.73612e-09
1.30874e-10
9.32372e-10
1.64604e-11
1.51276e-10
1.15334e-12
1.41608e-11
6.97847e-13
5.86662e-15
3.41578e-13
1.34653e-13
7.50384e-17
1.72327e-15
3.02578e-20
4.37189e-20
1.4478e-20
3.40291e-21
4.65846e-22
6.32852e-23
1.82625e-23
4.00716e-23
7.92466e-23
1.45319e-22
2.77803e-22
4.87848e-22
1.37323e-21
5.50519e-21
3.41388e-20
3.9192e-19
4.22861e-18
3.78586e-17
4.7406e-16
3.07266e-15
2.39838e-14
1.58412e-13
9.01999e-13
4.64442e-12
2.93889e-11
3.67983e-10
3.93085e-09
2.55516e-08
1.07649e-07
2.88021e-07
3.02089e-07
3.97552e-07
1.47275e-07
5.09496e-07
9.56069e-08
3.50195e-07
4.9725e-08
2.08183e-07
1.96828e-08
9.53574e-08
5.87272e-09
3.33609e-08
1.20299e-09
8.43713e-09
1.52025e-10
1.38072e-09
1.04275e-11
1.29002e-10
6.04548e-12
4.2722e-14
2.8228e-12
1.04642e-12
2.48868e-16
1.06929e-14
1.83192e-19
2.51859e-19
8.27732e-20
1.90903e-20
3.08429e-21
2.64743e-22
7.4906e-23
1.33046e-22
2.04006e-22
5.43445e-22
9.11331e-22
1.61068e-21
4.74429e-21
1.29224e-20
9.64806e-20
1.02038e-18
1.40809e-17
1.7343e-16
1.6788e-15
1.6443e-14
1.37028e-13
9.30447e-13
5.2606e-12
2.5458e-11
1.22529e-10
1.31933e-09
1.59997e-08
1.26811e-07
6.12982e-07
2.05825e-06
5.1341e-06
2.99093e-06
1.68548e-06
6.11328e-06
1.2165e-06
4.01417e-06
8.05714e-07
2.85574e-06
4.2602e-07
1.75012e-06
1.72599e-07
8.17757e-07
5.20325e-08
2.9061e-07
1.07945e-08
7.38439e-08
1.37023e-09
1.21785e-08
9.18493e-11
1.14044e-09
5.09079e-11
3.13891e-13
2.25312e-11
7.86941e-12
1.5265e-15
7.2734e-14
6.98745e-19
1.17179e-18
3.9967e-19
1.06113e-19
1.68877e-20
1.79117e-21
3.47569e-22
4.18199e-22
7.83892e-22
1.37027e-21
3.09312e-21
6.26282e-21
1.74828e-20
5.28882e-20
2.96768e-19
2.38116e-18
4.3252e-17
5.62779e-16
7.22602e-15
8.30359e-14
7.55932e-13
5.46781e-12
3.11425e-11
1.4692e-10
5.75414e-10
4.14593e-09
5.71035e-08
5.27827e-07
2.98534e-06
1.13661e-05
3.24997e-05
7.77872e-05
2.91692e-05
0
1.30097e-05
4.16664e-05
9.45653e-06
2.99892e-05
6.42202e-06
2.1521e-05
3.5121e-06
1.33815e-05
1.46331e-06
6.5016e-06
4.44659e-07
2.39998e-06
9.30325e-08
6.15836e-07
1.18484e-08
1.02416e-07
7.77934e-10
9.63331e-09
4.12937e-10
2.19297e-12
1.71816e-10
5.6031e-11
9.68087e-15
4.71893e-13
4.44786e-18
7.15638e-18
2.7616e-18
6.15109e-19
1.12209e-19
1.3744e-20
1.75823e-21
1.77609e-21
2.61105e-21
6.17375e-21
1.03808e-20
2.06363e-20
5.62642e-20
1.71671e-19
7.67609e-19
9.43048e-18
1.08673e-16
1.88601e-15
2.98584e-14
3.95958e-13
3.98758e-12
3.09384e-11
1.85256e-10
8.62125e-10
3.05771e-09
1.35927e-08
1.62151e-07
1.88792e-06
1.23012e-05
5.03057e-05
0.000148712
0.000339542
0.000773851
0.000132094
0.000554722
9.22681e-05
0.000262926
6.73278e-05
0.00019785
4.57093e-05
0.000142073
2.5588e-05
8.90855e-05
1.10791e-05
4.44701e-05
3.55697e-06
1.71969e-05
7.58692e-07
4.74268e-06
9.72077e-08
8.12348e-07
6.29611e-09
7.69765e-08
3.18624e-09
1.43634e-11
1.2315e-09
3.72501e-10
5.46423e-14
2.79615e-12
9.13946e-18
2.45769e-17
1.19791e-17
3.11642e-18
6.19883e-19
7.50547e-20
1.15309e-20
5.91985e-21
1.24001e-20
2.17127e-20
3.85156e-20
7.81774e-20
1.95303e-19
6.67578e-19
2.64063e-18
2.02875e-17
3.72907e-16
5.74505e-15
1.10122e-13
1.68144e-12
1.95158e-11
1.65372e-10
1.04596e-09
5.06196e-09
1.68666e-08
5.63932e-08
4.00163e-07
5.21079e-06
4.18119e-05
0.000179656
0.000476313
0.00100396
0.00179068
0.00194399
0.00290413
0.000613958
0.00130913
0.000503486
0.00112453
0.000390809
0.000926801
0.000274412
0.000709881
0.000157044
0.000476453
7.08402e-05
0.000250478
2.43289e-05
0.000103536
5.66314e-06
3.1008e-05
7.51423e-07
5.90791e-06
4.81803e-08
5.76982e-07
2.3056e-08
8.67738e-11
8.24514e-09
2.28182e-09
3.04603e-13
1.50685e-11
3.82094e-17
8.45987e-17
4.35896e-17
1.42015e-17
2.71841e-18
4.62062e-19
5.89446e-20
2.05065e-20
4.58505e-20
5.27533e-20
1.23271e-19
2.42165e-19
8.0516e-19
2.32131e-18
8.84837e-18
3.63163e-17
7.23225e-16
1.98564e-14
3.64089e-13
6.58857e-12
8.66691e-11
8.15894e-10
5.55632e-09
2.75875e-08
9.28779e-08
2.74756e-07
1.06201e-06
1.17187e-05
0.000104979
0.000486199
0.00123124
0.00213962
0.00334804
0.00377331
0.00442589
0.00369564
0.00481892
0.00189625
0.00280389
0.00174369
0.00272021
0.00151087
0.00254152
0.00116491
0.00226691
0.000738424
0.00175776
0.00037029
0.00104542
0.000138654
0.000504251
3.57515e-05
0.000167511
5.32335e-06
3.64071e-05
3.45584e-07
3.98401e-06
1.54554e-07
4.80852e-10
5.0991e-08
1.29757e-08
1.62876e-12
7.4125e-11
1.61656e-16
2.28168e-16
1.31244e-16
5.04915e-17
1.25974e-17
1.47477e-18
2.77302e-19
6.66453e-20
1.56093e-19
2.96248e-19
3.01371e-19
6.33386e-19
2.65051e-18
8.00486e-18
2.64724e-17
1.10585e-16
1.17662e-15
4.27368e-14
1.37285e-12
2.34946e-11
3.62898e-10
3.75991e-09
2.73883e-08
1.37098e-07
4.83552e-07
1.3908e-06
3.70576e-06
2.37084e-05
0.000203277
0.00089348
0.00216715
0.00369197
0.00533906
0.0074815
0.0056159
0.00722862
0.00596893
0.00713297
0.00374571
0.00485829
0.00369865
0.00496608
0.0035015
0.00492369
0.00311026
0.00470719
0.00240994
0.00412689
0.00141314
0.00309459
0.000632251
0.00176966
0.000186684
0.000722481
3.24939e-05
0.000185788
2.2697e-06
2.41793e-05
9.33889e-07
2.50551e-09
2.85542e-07
6.83563e-08
6.98144e-12
3.53569e-10
3.22345e-16
4.85978e-16
3.39977e-16
1.42728e-16
3.72873e-17
8.80196e-18
1.05057e-18
2.68294e-19
4.29456e-19
7.85237e-19
1.30013e-18
2.45619e-18
6.77117e-18
2.76274e-17
6.97409e-17
2.75086e-16
1.90084e-15
5.67452e-14
3.08164e-12
9.67999e-11
1.42135e-09
1.66731e-08
1.26597e-07
6.47472e-07
2.41984e-06
6.82145e-06
1.55338e-05
5.20003e-05
0.000329992
0.0013363
0.00309411
0.00506721
0.00692381
0.00844278
0.0091998
0.00919101
0.0082334
0.00891882
0.00867089
0.00928401
0.00623596
0.0075162
0.00641028
0.00791902
0.00635268
0.00816231
0.0060305
0.00811261
0.00523489
0.00757528
0.003849
0.00637189
0.0020954
0.00457731
0.000781468
0.00228675
0.000165245
0.000762924
1.31692e-05
0.000121597
5.01186e-06
1.31515e-08
1.4181e-06
3.17842e-07
1.0068e-10
2.41752e-09
9.07176e-16
8.18596e-16
3.41754e-16
1.75361e-16
4.01927e-17
4.46601e-18
9.33949e-19
1.06856e-18
2.54129e-18
3.86331e-18
6.84981e-18
2.18267e-17
7.7336e-17
2.88128e-16
8.99374e-16
4.76418e-15
7.1103e-14
3.8256e-12
2.28457e-10
6.54295e-09
7.28794e-08
5.58788e-07
2.98699e-06
1.15982e-05
3.15205e-05
6.2246e-05
0.000133052
0.000501381
0.0017275
0.00388973
0.00602644
0.00735405
0.00828698
0.00911651
0.00894944
0.00948328
0.00927731
0.00958169
0.00957035
0.0100023
0.00995098
0.00914941
0.00975836
0.00960378
0.0102915
0.00994753
0.0107928
0.00998144
0.0112285
0.00933215
0.0114027
0.00761884
0.0110327
0.00526255
0.00891242
0.00243106
0.00573681
0.000673382
0.00237248
6.20875e-05
0.000491513
2.23529e-05
6.36929e-08
5.83421e-06
9.01394e-07
4.21065e-09
2.02381e-08
1.85409e-15
1.02625e-15
4.53504e-16
1.47702e-16
1.82174e-17
3.19807e-18
2.45086e-18
7.51821e-18
1.19916e-17
1.71498e-17
5.75501e-17
2.03676e-16
7.50168e-16
3.28181e-15
1.61096e-14
1.24946e-13
3.73344e-12
2.80984e-10
1.61854e-08
2.54058e-07
2.28108e-06
1.26279e-05
4.81576e-05
0.000124067
0.000213296
0.0003333
0.000777455
0.00209277
0.00443287
0.00627082
0.00722808
0.0078509
0.0075404
0.00881238
0.00774897
0.00904894
0.00821831
0.00983673
0.00957635
0.0102218
0.00987566
0.010491
0.0104038
0.011035
0.0109321
0.0116422
0.0115035
0.0122382
0.0122026
0.0125708
0.012945
0.012311
0.0135451
0.010053
0.0133875
0.00611529
0.0108015
0.00213169
0.00595109
0.000234443
0.00161446
8.22346e-05
2.23068e-07
5.59051e-06
2.30251e-05
1.1918e-05
1.61819e-06
7.49731e-06
2.20695e-11
1.62778e-08
9.11426e-10
2.57069e-15
1.08083e-15
3.51414e-16
9.30214e-17
1.63335e-17
9.62969e-18
1.9091e-17
3.4267e-17
6.32829e-17
2.10678e-16
5.73281e-16
2.54467e-15
1.20992e-14
5.92597e-14
3.68657e-13
4.26111e-12
2.46572e-10
2.0131e-08
4.54881e-07
5.98687e-06
4.06362e-05
0.000159616
0.000381703
0.000596688
0.000752016
0.00115547
0.00245342
0.00474705
0.00616975
0.0068794
0.00692395
0.00558145
0.00493025
0.00356898
0.00718729
0.00601449
0.00715016
0.00602858
0.0091976
0.00824397
0.00930047
0.00816228
0.0106839
0.0101918
0.0112432
0.0106209
0.0119499
0.011338
0.0127482
0.0122393
0.0135338
0.0131963
0.0144006
0.0141494
0.0143539
0.0152363
0.0114281
0.013198
0.0150551
0.00329875
0.00584828
0.0116535
0.00819938
0.000307955
0.000875116
0.00501569
0.00220884
0.00498723
0.000582281
0.000399324
9.42449e-05
1.36618e-07
1.00811e-06
2.98815e-06
5.68289e-05
3.24419e-05
1.3676e-05
2.4875e-09
5.13054e-12
2.42375e-10
3.55919e-08
2.86826e-15
1.12101e-15
2.24438e-16
4.81491e-17
2.74348e-17
4.61495e-17
9.0373e-17
1.77951e-16
5.44676e-16
2.35398e-15
9.20769e-15
4.53727e-14
2.32571e-13
1.33108e-12
9.07332e-12
1.92703e-10
1.81273e-08
5.41106e-07
9.39081e-06
7.9584e-05
0.000332429
0.000757424
0.00108574
0.00126478
0.00165516
0.00285669
0.00486991
0.00595865
0.00626553
0.00539062
0.00322889
0.00262272
0.00165651
0.00272853
0.00175652
0.00489171
0.00378294
0.00471565
0.0037275
0.00694182
0.00578291
0.00664792
0.00536617
0.00950716
0.00808542
0.0100661
0.00828181
0.0110482
0.00899476
0.0122519
0.0104509
0.0136021
0.0121947
0.0148772
0.0139538
0.0156222
0.0158198
0.0157252
0.015447
0.0135885
0.0156551
0.0149485
0.0159085
0.00816027
0.0138618
0.0113858
0.00176235
0.00810107
0.0042628
0.00742018
0.0013282
0.000898651
0.000244497
3.47954e-07
2.25477e-06
5.66288e-06
0.000143568
7.27818e-05
3.36014e-05
4.63122e-09
2.45597e-11
7.38437e-10
6.06594e-08
2.83914e-15
6.79062e-16
1.5615e-16
7.06978e-17
1.01845e-16
1.82677e-16
5.15919e-16
1.4174e-15
6.66729e-15
3.25263e-14
1.71959e-13
9.51008e-13
5.09617e-12
3.00553e-11
2.48205e-10
1.09551e-08
5.13672e-07
1.08017e-05
0.000111547
0.000507589
0.00114992
0.00162094
0.00186017
0.00222548
0.00333516
0.00493041
0.00570395
0.00567662
0.004061
0.00176365
0.000538528
0.00103421
0.000495193
0.00108176
0.000557762
0.00277232
0.00184683
0.00258654
0.00178127
0.00429398
0.00340399
0.0038194
0.00291149
0.00649891
0.00498394
0.00682406
0.00494763
0.00793695
0.00565336
0.00976716
0.00722553
0.0119535
0.00935462
0.0148847
0.0138258
0.0129015
0.0115985
0.0161038
0.0159676
0.0156795
0.0150067
0.015661
0.0164787
0.0162579
0.0163793
0.0112851
0.0157556
0.0139132
0.0034896
0.0108089
0.00671196
0.0103026
0.00260967
0.0018527
0.000567475
5.97888e-07
1.36097e-05
4.82224e-06
0.000326558
0.000173428
8.19166e-05
1.30691e-08
9.58723e-11
2.44996e-09
1.61627e-07
2.20849e-15
3.91653e-16
1.77708e-16
2.84948e-16
4.81505e-16
1.39683e-15
4.73672e-15
2.17255e-14
1.14476e-13
6.34203e-13
3.69224e-12
1.93549e-11
1.11261e-10
6.54931e-10
8.16128e-09
3.62501e-07
1.03326e-05
0.000126391
0.00064633
0.00151234
0.00216242
0.00249312
0.00288946
0.00388888
0.00498625
0.00547681
0.00515408
0.00321552
0.00117127
0.000306214
6.21006e-05
3.74382e-05
0.000258855
0.000100729
0.000274093
0.000111747
0.00109062
0.000590156
0.00101147
0.000587626
0.00219369
0.00154527
0.00180714
0.00128756
0.00352738
0.00251988
0.00388954
0.00267519
0.0051603
0.00360478
0.00716999
0.00534215
0.0107401
0.00945828
0.00865129
0.00749072
0.0140136
0.0129657
0.0118858
0.0108385
0.016229
0.0159183
0.0152193
0.0142582
0.0166506
0.0166306
0.0168652
0.0164821
0.0136978
0.0167873
0.0157069
0.00581155
0.0134667
0.00956465
0.0129992
0.00472706
0.00351035
0.00121131
1.57964e-06
3.4049e-05
1.27072e-05
0.000729233
0.000398375
0.000195948
3.89176e-08
3.68571e-10
8.24841e-09
4.57225e-07
1.43197e-15
5.59918e-16
6.19452e-16
1.46182e-15
3.8733e-15
1.33377e-14
6.9734e-14
3.86825e-13
2.26159e-12
1.37276e-11
7.34418e-11
4.19286e-10
2.31338e-09
1.358e-08
2.45571e-07
7.92426e-06
0.000122977
0.000721324
0.0018155
0.00266244
0.00311881
0.00359482
0.00433823
0.00497248
0.00526692
0.00472672
0.00273437
0.000963123
0.000238553
1.96438e-05
9.39439e-06
3.22288e-06
4.37174e-05
1.71226e-05
5.21772e-05
2.14887e-05
0.000293371
0.000128428
0.00031456
0.000154904
0.000888326
0.000561313
0.000846639
0.000558641
0.0018303
0.00124841
0.00246442
0.00166088
0.00384293
0.00269303
0.00676805
0.00577424
0.00446322
0.00979643
0.00881996
0.00787768
0.00699413
0.0132431
0.0122137
0.0111968
0.0102047
0.0161708
0.0154774
0.0145507
0.0135886
0.0170872
0.0167312
0.0169852
0.0164331
0.0156653
0.017292
0.0168873
0.0086276
0.0154644
0.0123636
0.0151424
0.00744773
0.00603552
0.00239959
4.29376e-06
8.58183e-05
3.3138e-05
0.00151885
0.000864283
0.000441669
1.19452e-07
1.35348e-09
2.68885e-08
1.31365e-06
2.13022e-15
2.06652e-15
3.53425e-15
1.11723e-14
3.92107e-14
2.12438e-13
1.25417e-12
7.68714e-12
4.93584e-11
2.7431e-10
1.5827e-09
8.55398e-09
4.28883e-08
2.69988e-07
5.22393e-06
0.000110461
0.000729815
0.00201296
0.00311567
0.00370482
0.00414493
0.00460287
0.0049355
0.00505967
0.00432178
0.00246667
0.000876655
0.000216129
2.24434e-05
2.02818e-06
1.71565e-06
3.35208e-06
2.04216e-06
9.9e-06
5.28866e-06
1.56217e-05
8.52666e-06
6.97653e-05
3.15248e-05
0.000100426
5.03248e-05
0.000346516
0.000195207
0.000442237
0.000265736
0.00109991
0.000706983
0.00185147
0.00124991
0.00323613
0.00230127
0.00617086
0.00539107
0.00379754
0.00451768
0.00925201
0.00834327
0.00747622
0.00664945
0.0126108
0.0116438
0.0107084
0.00980322
0.0157751
0.0149029
0.0139926
0.0130859
0.0172451
0.0167046
0.0169917
0.0161049
0.0168891
0.0174906
0.0174678
0.0115221
0.0168229
0.0146813
0.0166568
0.0103801
0.00897278
0.00443811
1.15076e-05
0.000201622
8.14097e-05
0.00289407
0.00173241
0.000920747
3.67711e-07
4.67315e-09
8.32363e-08
3.81047e-06
1.13597e-14
1.24318e-14
2.95514e-14
1.12513e-13
6.23828e-13
3.85556e-12
2.50555e-11
1.68645e-10
1.00018e-09
5.89297e-09
3.18197e-08
1.54312e-07
6.52135e-07
4.614e-06
8.36139e-05
0.00070202
0.00207778
0.00344015
0.00409719
0.00442566
0.00466071
0.00485465
0.00478408
0.00388186
0.00215973
0.000796001
0.000190806
2.09827e-05
1.06132e-06
1.24362e-06
7.64599e-07
2.30252e-06
1.59121e-06
5.01388e-06
3.2578e-06
9.17213e-06
5.73803e-06
2.62912e-05
1.49454e-05
4.60084e-05
2.6575e-05
0.000151724
8.32861e-05
0.000273683
0.000151139
0.000808173
0.000485022
0.00160829
0.00109087
0.0033055
0.00274545
0.00196214
0.00237834
0.00587287
0.00515082
0.00373609
0.00434363
0.00892434
0.00807392
0.00724923
0.00645297
0.0122013
0.011327
0.0104599
0.00960381
0.015294
0.0144613
0.0136445
0.0128289
0.0172787
0.0164562
0.0168252
0.0157256
0.0175974
0.0175509
0.0177307
0.0139993
0.0176643
0.0163629
0.0176354
0.0130603
0.0118368
0.00725025
2.99244e-05
0.000438474
0.000182867
0.00518545
0.00319389
0.00178414
1.15245e-06
1.46898e-08
2.71197e-07
1.08428e-05
7.26773e-14
9.1013e-14
3.80818e-13
1.6581e-12
1.14461e-11
7.70682e-11
5.52185e-10
3.46162e-09
2.14705e-08
1.16108e-07
5.79017e-07
2.13848e-06
6.77853e-06
6.98839e-05
0.000618644
0.00206399
0.00358969
0.00428328
0.00451798
0.00463546
0.00467696
0.00432515
0.00329
0.00171217
0.000647336
0.000146685
1.6201e-05
9.24107e-07
4.13677e-07
2.34656e-07
9.94979e-07
5.86487e-07
1.92687e-06
1.41759e-06
3.64405e-06
2.4994e-06
6.93671e-06
4.53196e-06
1.62748e-05
1.04558e-05
3.01965e-05
1.90317e-05
8.48374e-05
4.93984e-05
0.000206278
0.000109136
0.000693409
0.000396094
0.00152419
0.00103741
0.00320321
0.00272722
0.00196922
0.00232139
0.00569983
0.00499483
0.00369515
0.00428479
0.00876263
0.00794134
0.00713996
0.00636374
0.0120123
0.0111962
0.0103656
0.00953331
0.0149872
0.0142433
0.0135008
0.0127385
0.0171941
0.0161782
0.0166383
0.015524
0.0179424
0.0175427
0.0178384
0.015898
0.0181186
0.0175148
0.0182369
0.0152285
0.0142579
0.0102095
7.02441e-05
0.000869141
0.000369568
0.00810006
0.00555599
0.00316986
3.63015e-06
7.6835e-08
1.01506e-06
2.66182e-05
4.43007e-13
8.07141e-13
4.24804e-12
2.9931e-11
2.29962e-10
1.68317e-09
1.15696e-08
7.36566e-08
4.30978e-07
2.0746e-06
6.8095e-06
1.71534e-05
7.21891e-05
0.000542757
0.00198361
0.00360891
0.00434013
0.00451444
0.00453526
0.00431318
0.00363487
0.00248878
0.00124375
0.000455469
9.15564e-05
9.71077e-06
6.12886e-07
1.28052e-07
2.55225e-07
1.97479e-07
6.15341e-07
4.12655e-07
1.72135e-06
1.0717e-06
2.92823e-06
2.12251e-06
5.47278e-06
3.52527e-06
1.25189e-05
8.43415e-06
2.43551e-05
1.57024e-05
6.24737e-05
3.82052e-05
0.000183442
9.57189e-05
0.000654894
0.000367
0.00167773
0.00136291
0.00116537
0.000913325
0.00316923
0.00270528
0.00196149
0.00230468
0.00562457
0.00493029
0.00370049
0.00427945
0.00870901
0.0078996
0.00710725
0.00633912
0.0119606
0.0111773
0.0103926
0.00959985
0.0148643
0.0141747
0.0134828
0.0127986
0.017072
0.0160569
0.0165663
0.0154598
0.0181084
0.0174748
0.017864
0.0172612
0.0183526
0.01826
0.018555
0.0168278
0.016131
0.0128767
0.000138181
0.00159133
0.000668764
0.0109226
0.00839577
0.00530802
9.0171e-06
9.34354e-07
2.81003e-06
4.96079e-05
3.00259e-12
9.81042e-12
7.76273e-11
5.92728e-10
5.02177e-09
3.71551e-08
2.48937e-07
1.48321e-06
6.86227e-06
2.19739e-05
4.9201e-05
0.000105991
0.000511099
0.00182487
0.00357371
0.00432817
0.00447939
0.00429099
0.00369047
0.00274521
0.00164545
0.000801866
0.000273442
4.9422e-05
4.66805e-06
3.25554e-07
6.20421e-08
6.19621e-08
2.14106e-07
1.48103e-07
4.71632e-07
3.28719e-07
1.21078e-06
7.39097e-07
2.35606e-06
1.87309e-06
4.37965e-06
2.78129e-06
1.03971e-05
6.89816e-06
2.17777e-05
1.37872e-05
5.52161e-05
3.42202e-05
0.000180176
9.32477e-05
0.000656693
0.000366118
0.00168555
0.00142486
0.00118853
0.000982409
0.00318375
0.00272835
0.00198789
0.00233232
0.00560717
0.00491765
0.00380577
0.00438604
0.00879962
0.00800197
0.00721421
0.00644665
0.0121027
0.0113801
0.0106274
0.00984934
0.0148591
0.0142785
0.0136977
0.0130935
0.0170334
0.0160422
0.0165944
0.0155525
0.0181725
0.0174646
0.0178495
0.0181774
0.0184703
0.0186997
0.0187336
0.0179542
0.0175035
0.0150258
0.000243897
0.00268745
0.00115695
0.0134218
0.0111133
0.00794979
1.31505e-05
6.79118e-08
9.16892e-07
6.97042e-05
2.84388e-11
1.45468e-10
1.57692e-09
1.27148e-08
1.10081e-07
7.60213e-07
4.82815e-06
2.25995e-05
6.73871e-05
0.000134164
0.000217551
0.000527158
0.00167008
0.00345074
0.00428783
0.00439441
0.0039508
0.00302955
0.00191311
0.00101766
0.000453968
0.000136135
2.34503e-05
1.95733e-06
1.49074e-07
2.86366e-08
2.55814e-08
5.57613e-08
1.09815e-07
2.45691e-08
1.50534e-07
3.95916e-07
2.47279e-07
9.24107e-07
5.93803e-07
2.11002e-06
1.53944e-06
3.78704e-06
2.444e-06
9.05729e-06
6.00971e-06
2.07105e-05
1.28726e-05
5.34594e-05
3.30547e-05
0.000211129
9.89962e-05
0.000846395
0.000630385
0.000338089
0.000499289
0.00176651
0.00149244
0.00125005
0.00103311
0.00328765
0.00282939
0.00207662
0.00242811
0.00571452
0.00502552
0.00403537
0.00462783