/*--------------------------------*- C++ -*----------------------------------*\
  =========                 |
  \\      /  F ield         | OpenFOAM: The Open Source CFD Toolbox
   \\    /   O peration     | Website:  https://openfoam.org
    \\  /    A nd           | Version:  dev
     \\/     M anipulation  |
\*---------------------------------------------------------------------------*/
FoamFile
{
    version     2.0;
    format      ascii;
    class       volScalarField;
    location    "2500";
    object      G;
}
// * * * * * * * * * * * * * * * * * * * * * * * * * * * * * * * * * * * * * //

dimensions      [1 0 -3 0 0 0 0];

internalField   nonuniform List<scalar> 
9714
(
9873.12
9894.48
9899.79
9913.15
9921.25
9929.45
9929.08
9939.99
9950.95
9961.96
9942.3
9955.97
9969.71
9983.5
9997.38
9952.85
9969.2
9985.66
10002.3
10019
10035.8
9960.8
9979.73
9998.84
10018.2
10037.7
10057.4
10077.2
9966.22
9987.65
10009.3
10031.3
10053.5
10076.1
10098.8
10121.8
9969.17
9993.02
10017.1
10041.6
10066.5
10091.8
10117.5
10143.4
10169.6
9969.73
9995.9
10022.4
10049.3
10076.7
10104.6
10133.1
10162
10191.2
10220.7
9968
9996.38
10025.1
10054.3
10084.1
10114.5
10145.6
10177.4
10209.7
10242.4
10275.4
9964.05
9994.55
10025.4
10056.8
10088.9
10121.7
10155.3
10189.7
10224.9
10260.7
10297
10333.7
9957.98
9990.48
10023.4
10056.9
10091
10126.1
10162
10198.9
10236.8
10275.6
10315.2
10355.3
10395.9
9949.89
9984.26
10019.1
10054.5
10090.7
10127.9
10166
10205.3
10245.7
10287.2
10329.8
10373.3
10417.5
10462.1
9939.9
9976
10012.7
10050
10088
10127.1
10167.3
10208.7
10251.4
10295.5
10340.9
10387.5
10435.2
10483.7
10532.7
9928.12
9965.83
10004.2
10043.2
10083
10123.9
10165.9
10209.4
10254.2
10300.6
10348.6
10398.1
10449
10501.1
10554.1
10607.9
9914.68
9953.87
9993.78
10034.4
10075.8
10118.3
10162.1
10207.4
10254.2
10302.7
10353
10405.1
10458.9
10514.4
10571.3
10629.2
10687.9
9899.67
9940.23
9981.56
10023.6
10066.5
10110.6
10155.9
10202.8
10251.4
10301.8
10354.2
10408.6
10465.1
10523.6
10583.9
10645.9
10709.1
10773.2
9883.23
9925.04
9967.66
10011
10055.3
10100.7
10147.5
10195.9
10246
10298.1
10352.3
10408.8
10467.6
10528.8
10592.2
10657.8
10725.3
10794.3
10864.3
9865.44
9908.39
9952.2
9996.74
10042.2
10088.9
10137
10186.6
10238.1
10291.7
10347.6
10405.8
10466.7
10530.2
10596.4
10665.2
10736.4
10809.9
10885.1
10961.4
9846.44
9890.42
9935.28
9980.89
10027.5
10075.2
10124.4
10175.2
10228
10282.8
10340
10399.8
10462.4
10527.9
10596.4
10668
10742.6
10820.1
10900.1
10982
11065.3
9826.32
9871.22
9917.04
9963.59
10011.1
10059.8
10110
10161.8
10215.6
10271.5
10329.9
10391
10455
10522.2
10592.7
10666.6
10744.1
10824.9
10909.1
10996.2
11085.6
11176.6
9805.2
9850.91
9897.57
9944.96
9993.31
10042.9
10093.9
10146.5
10201.2
10258
10317.4
10379.5
10444.7
10513.2
10585.3
10661.1
10740.9
10824.7
10912.4
11003.9
11098.8
11196.4
11295.9
9783.16
9829.6
9876.99
9925.11
9974.18
10024.4
10076.1
10129.5
10184.9
10242.5
10302.6
10365.6
10431.7
10501.2
10574.5
10651.8
10733.4
10819.5
10910.2
11005.4
11104.9
11208.5
11315.3
11424.2
9760.32
9807.38
9855.4
9904.15
9953.84
10004.7
10057
10111
10166.9
10225
10285.7
10349.3
10416.1
10486.4
10560.6
10639
10721.9
10809.8
10902.8
11001
11104.3
11212.8
11326
11442.9
11562.7
9736.77
9784.35
9832.92
9882.2
9932.4
9983.76
10036.5
10090.9
10147.3
10205.9
10267
10331
10398.2
10469
10543.8
10622.9
10706.8
10795.8
10890.5
10990.9
11097.3
11209.8
11328.1
11452
11580.6
11712.6
9712.6
9760.62
9809.64
9859.36
9909.98
9961.73
10014.9
10069.6
10126.3
10185.1
10246.5
10310.7
10378.2
10449.3
10524.3
10603.9
10688.3
10778.1
10873.7
10975.6
11084.3
11199.8
11322.2
11451.6
11587.8
11729.6
11875.3
9687.89
9736.27
9785.66
9835.73
9886.67
9938.72
9992.11
10047.1
10104
10163
10224.5
10288.8
10356.3
10427.4
10502.5
10582.1
10666.7
10756.8
10852.9
10955.6
11065.6
11183.2
11308.7
11442.4
11584.3
11734.4
11891.1
12052.3
9662.73
9711.39
9761.07
9811.4
9862.59
9914.85
9968.42
10023.5
10080.5
10139.5
10201
10265.3
10332.7
10403.6
10478.5
10558
10642.4
10732.4
10828.5
10931.4
11041.9
11160.6
11288.1
11424.8
11571
11727.3
11893
12066.6
12245.7
9637.2
9686.07
9735.95
9786.47
9837.83
9890.23
9943.89
9999.05
10056
10115
10176.3
10240.4
10307.5
10378.2
10452.7
10531.7
10615.6
10705.1
10800.9
10903.5
11013.8
11132.7
11260.9
11399.4
11548.6
11709.2
11881.4
12065
12258.2
12458.1
9611.37
9660.37
9710.39
9761.04
9812.49
9864.94
9918.61
9973.75
10030.6
10089.4
10150.6
10214.3
10281.1
10351.2
10425.2
10503.5
10586.7
10675.4
10770.4
10872.3
10981.9
11100.2
11228.2
11367
11517.6
11681
11857.6
12048.1
12252.2
12468.2
12692.6
9585.32
9634.39
9684.48
9735.17
9786.64
9839.08
9892.7
9947.73
10004.4
10063
10123.8
10187.2
10253.5
10323
10396.3
10473.8
10556
10643.7
10737.5
10838.1
10946.6
11063.7
11190.6
11328.6
11479.1
11643.4
11822.6
12017.4
12228.9
12457
12699.7
12953
9559.1
9608.18
9658.27
9708.96
9760.39
9812.76
9866.25
9921.1
9977.54
10035.8
10096.3
10159.2
10224.8
10293.7
10366.1
10442.6
10523.8
10610.2
10702.5
10801.6
10908.4
11023.8
11149
11285.3
11434.2
11597.7
11777.4
11974.3
12189.9
12425.8
12681.7
12956.4
13244.3
9532.79
9581.81
9631.86
9682.47
9733.8
9786.03
9839.35
9893.97
9950.11
10008
10068
10130.3
10195.3
10263.4
10334.9
10410.4
10490.3
10575.2
10665.9
10763.1
10867.8
10981
11104
11237.9
11384.3
11545.4
11723.3
11919.9
12136.9
12376.5
12640.8
12929
13243.9
13484.2
13490.9
9506.43
9555.35
9605.29
9655.78
9706.96
9759
9812.08
9866.41
9922.19
9979.68
10039.1
10100.8
10165.1
10232.3
10302.9
10377.1
10455.7
10539
10627.9
10723
10825.3
10935.9
11056.1
11187
11330.2
11487.8
11662.3
11856
12071.6
12311.6
12579
12876.4
13148.6
13122.6
13487.9
13294.1
13474.2
13658.4
13664.3
9480.1
9528.86
9578.64
9628.95
9679.93
9731.73
9784.53
9838.51
9893.89
9950.9
10009.8
10070.8
10134.3
10200.6
10270.1
10343.1
10420.2
10501.9
10588.8
10681.7
10781.5
10889.1
11005.9
11133.3
11272.7
11426.1
11595.9
11784.8
11996
12233.2
12499.6
12799.2
13090.2
13049.9
13266.1
13659
13450.5
13642.7
13844.4
13849.3
9453.82
9502.38
9551.96
9602.04
9652.77
9704.29
9756.76
9810.36
9865.29
9921.77
9980.04
10040.4
10103
10168.4
10236.7
10308.5
10384.1
10464
10548.9
10639.5
10736.5
10841.1
10954.3
11077.6
11212.6
11361.2
11525.5
11708.3
11912.9
12143.8
12405.3
12702.3
13004.7
12952.8
13229.2
13184.5
13418
13841.6
13615.8
13822.1
14042.9
14046.8
9427.66
9475.97
9525.3
9575.12
9625.56
9676.75
9728.85
9782.03
9836.47
9892.38
9950
10009.6
10071.4
10135.7
10202.9
10273.4
10347.5
10425.6
10508.5
10596.6
10690.9
10792.2
10901.6
11020.6
11150.7
11293.8
11452.2
11628
11824.7
12046.6
12299.3
12588.8
12896.8
12834.9
13133.3
13076
13376.3
13326.1
13578.7
14036.7
13791.1
14013.5
14255.4
14258.5
9401.66
9449.69
9498.72
9548.24
9598.34
9649.17
9700.86
9753.58
9807.5
9862.82
9919.75
9978.54
10039.4
10102.8
10168.8
10237.9
10310.5
10386.9
10467.7
10553.4
10644.8
10742.8
10848.4
10962.9
11087.9
11225
11376.7
11545.2
11733.2
11944.8
12185.6
12462.7
12770
12699.9
13013.4
12945.7
13268.5
13204.7
13531.7
13475.2
13748.9
14245.7
13977.6
14218
14483.7
14485.8
9375.86
9423.56
9472.27
9521.44
9571.18
9621.6
9672.86
9725.08
9778.45
9833.14
9889.36
9947.34
10007.3
10069.6
10134.4
10202.2
10273.2
10347.9
10426.7
10510
10598.6
10693.2
10794.9
10904.9
11024.6
11155.6
11300.2
11460.8
11639.8
11840.4
12067.8
12329.1
12628.1
12552.9
12873.7
12797.5
13135.2
13060.5
13410.5
13339.3
13695.8
13632.2
13929.5
14469.9
14176.5
14437.1
14729.4
14730.1
9350.3
9397.64
9445.99
9494.78
9544.11
9594.11
9644.89
9696.6
9749.39
9803.43
9858.92
9916.07
9975.11
10036.3
10100
10166.4
10235.9
10308.8
10385.5
10466.6
10552.5
10643.8
10741.6
10847
10961.3
11086.3
11223.7
11376
11545.4
11735
11948.7
12192.7
12477.7
12400.7
12718.4
12637.1
12981.1
12897.5
13262.2
13179.5
13559.7
13480.3
13869.4
13797.8
14121.6
14710.7
14389
14672.3
14994.4
14993.6
9325.01
9371.96
9419.91
9468.29
9517.19
9566.72
9617.01
9668.18
9720.37
9773.74
9828.48
9884.78
9942.87
10003
10065.4
10130.5
10198.4
10269.6
10344.5
10423.3
10506.5
10594.8
10688.8
10789.6
10898.6
11017.3
11147.7
11291.6
11451.4
11629.7
11829.8
12056.7
12325
12248.4
12554.8
12472.1
12811
12722.4
13092
13000.3
13394.6
13303.1
13716.6
13628
14053.6
13973
14326.4
14970.5
14616.8
14925.8
15281.2
15278.7
9300
9346.54
9394.07
9442.01
9490.45
9539.49
9589.25
9639.86
9691.43
9744.13
9798.11
9853.55
9910.68
9969.71
10030.9
10094.6
10161
10230.5
10303.5
10380.1
10460.9
10546.2
10636.7
10733.2
10836.9
10949.4
11072.5
11208.3
11358.7
11525.9
11712.9
11922.9
12173.6
12098.7
12389.8
12308
12632.9
12543.3
12905.5
12808.9
13206.6
13105.7
13532.7
13431.3
13881.9
13782.9
14249.4
14158.6
14545.1
15251.3
14861.5
15199.5
15592.4
15587.7
9275.31
9321.42
9368.5
9415.97
9463.91
9512.44
9561.65
9611.68
9662.62
9714.62
9767.83
9822.42
9878.57
9936.52
9996.51
10058.8
10123.7
10191.5
10262.6
10337.2
10415.7
10498.3
10585.4
10677.8
10776.5
10882.9
10998.8
11126.5
11267.8
11424.4
11598.4
11793.8
12025.9
11953.5
12227.4
12148
12454.5
12366.6
12711.5
12614.5
13001.9
12896.4
13324.7
13213.8
13676.7
13564.3
14056.5
13945.5
14458
14356
14779.4
15555.3
15125.1
15495.5
15931.2
15923.8
9250.97
9296.63
9343.23
9390.21
9437.64
9485.62
9534.25
9583.66
9633.96
9685.25
9737.68
9791.41
9846.61
9903.47
9962.23
10023.2
10086.6
10152.7
10221.9
10294.5
10370.8
10450.9
10535.1
10623.8
10717.8
10818.3
10927
11046.5
11178.8
11325.5
11488
11668.2
11883.9
11816.8
12070.1
11994.2
12280.2
12195.4
12518.5
12424
12790.4
12685.2
13099.9
12984.7
13446.5
13324.3
13827.1
13702.2
14241.2
14116.4
14680.7
14565.9
15030.9
15885.4
15410
15816.6
16301.5
16290.7
9227.03
9272.22
9318.32
9364.78
9411.68
9459.1
9507.13
9555.89
9605.52
9656.09
9707.74
9760.61
9814.85
9870.64
9928.19
9987.77
10049.6
10114.1
10181.4
10252.1
10326.2
10404
10485.6
10571
10660.8
10755.9
10857.8
10968.9
11092.1
11229.7
11381.8
11548.4
11730.9
11921.7
11849.1
12112.6
12031.9
12331.5
12241
12581.7
12480.3
12869.5
12755.7
13199.5
13073.8
13571.8
13437.2
13984
13845.1
14436.7
14296.2
14918.5
14788.9
15301.6
16244.7
15718.3
16165.2
16707.9
16692.9
9203.51
9248.2
9293.8
9339.73
9386.07
9432.91
9480.34
9528.45
9577.37
9627.2
9678.07
9730.09
9783.39
9838.14
9894.5
9952.72
10013.1
10075.8
10141.3
10209.9
10282
10357.6
10436.8
10519.5
10605.8
10696
10791.5
10894.4
11008.2
11136.8
11279.2
11431.8
11592.8
11796.7
11715.5
11953.8
11875.8
12152
12063.7
12380.9
12281.9
12643.9
12533.4
12948.8
12824.9
13300.6
13163.8
13700.6
13552.7
14147.8
13993.2
14643.4
14485.4
15173.4
15026.5
15593.8
16637.5
16052.5
16544.8
17154.5
17134.7
9180.39
9224.6
9269.68
9315.07
9360.85
9407.09
9453.89
9501.33
9549.54
9598.63
9648.71
9699.88
9752.26
9805.99
9861.21
9918.12
9976.96
10038
10101.7
10168.2
10238.1
10311.6
10388.6
10469
10552.4
10638.8
10728.6
10823.8
10928.1
11046.5
11177.8
11316.7
11458.6
11638.2
11561.1
11802.2
11715.7
11976
11889.1
12182
12082.3
12422.1
12309.4
12700.9
12574.5
13026.4
12886.2
13403.1
13251.1
13833.5
13670.4
14318.9
14147.3
14862.4
14684.4
15447.1
15280
15909.9
17068.2
16415.6
16959.6
17646.9
17621.9
9157.69
9201.41
9245.98
9290.83
9336.03
9381.66
9427.81
9474.57
9522.06
9570.39
9619.66
9669.98
9721.46
9774.19
9828.31
9883.97
9941.38
10000.8
10062.6
10127.1
10194.8
10266
10341
10419.3
10500.6
10584
10669.5
10757.9
10853.2
10959.8
11078.2
11204.3
11329
11444.8
11631.8
11550
11792.1
11699.4
11984
11887.2
12195.6
12082.8
12446
12316.4
12741.9
12594.5
13093.5
12928.1
13502.5
13325.5
13970.1
13785.2
14498.1
14306.7
15094.2
14893.9
15742.2
15551.4
16253
17542.5
16811
17414.4
18192.5
18161.2
9135.92
9178.65
9222.7
9267.01
9311.63
9356.64
9402.13
9448.19
9494.94
9542.49
9590.95
9640.42
9690.99
9742.76
9795.82
9850.29
9906.33
9964.16
10024.1
10086.5
10152
10220.9
10293.6
10370.2
10449.8
10531.4
10613.8
10697.1
10784.3
10879.4
10985.4
11097.8
11207.1
11306.4
11443.6
11370.8
11609.8
11523.9
11763.4
11665.6
11972.8
11866.1
12186.7
12059.8
12445.1
12295.9
12757.6
12584.7
13137.5
12940.6
13587.7
13374
14104.9
13885.3
14685.1
14466.2
15340.5
15115.3
16061.9
15843.5
16626.3
18066.6
17242.5
17914.8
18800
18760.4
9156.91
9199.89
9243.65
9287.69
9332.08
9376.9
9422.25
9468.24
9514.99
9562.61
9611.22
9660.9
9711.72
9763.77
9817.11
9871.87
9928.19
9986.35
10046.7
10109.8
10176.2
10246.6
10321.1
10399.4
10480.1
10561.1
10641.1
10721.6
10806.9
10902.2
11002.9
11099.8
11186.2
11303.8
11243.8
11410.5
11340
11574
11488.6
11717.7
11619.8
11938.4
11824
12149.4
12011
12412
12244.3
12739.3
12540.3
13148.2
12915.9
13645
13386.9
14226
13956.4
14876.9
14614.6
15604
15348.1
16409.4
16159.8
17032.2
18648.1
17711.9
18466.7
19482.8
19429.9
9178.14
9220.77
9264.24
9308.01
9352.16
9396.78
9442
9487.94
9534.71
9582.43
9631.2
9681.09
9732.16
9784.45
9838.02
9892.96
9949.46
10007.8
10068.5
10132.2
10199.8
10272
10349
10429.3
10510
10588.3
10664.4
10742.5
10829.1
10921.1
11009.9
11087.7
11151.8
11276.2
11219.6
11373.3
11307.4
11529.8
11447.5
11662
11566.7
11883.5
11767.4
12087.4
11944.6
12349.7
12172
12687.9
12472.2
13122
12863.7
13665.5
13366.4
14317.9
13992.6
15063.2
14736.3
15885.6
15581.4
16784.5
16507.1
17469.2
19297.8
18161.2
18031.9
18431.3
18983.4
18858.4
20259.6
19966.2
20025.9
9198.99
9241.27
9284.43
9327.92
9371.83
9416.27
9461.37
9507.26
9554.08
9601.92
9650.88
9700.99
9752.28
9804.76
9858.46
9913.46
9969.98
10028.4
10089.3
10153.8
10223.1
10298.3
10378.2
10458.9
10537
10611.1
10684.9
10765.1
10851.3
10935
11008.3
11069.2
11151.4
11113.7
11248.9
11197.3
11337.3
11278.4
11481
11404.6
11600.9
11512.2
11816.3
11701.9
12010.6
11867.4
12271
12087.5
12618.6
12391.1
13075.4
12798.4
13658.8
13331.8
14378.8
14008.1
15228.8
14906.4
14709.9
16192.2
16014.9
15640.5
15839.4
17157.7
17008.8
16343.3
16861.2
16676.5
17361.8
17741.6
17895.2
19886.4
19781.1
19306.5
18293.9
18720.8
19174.2
20425.8
20910.1
20900.3
20363
9219.44
9261.37
9304.21
9347.4
9391.06
9435.31
9480.31
9526.19
9573.08
9621.09
9670.25
9720.58
9772.06
9824.64
9878.33
9933.22
9989.56
10047.8
10109
10174.8
10247.4
10326.1
10407.1
10486.1
10560.3
10632.1
10708.2
10790.5
10871.8
10944
11005.5
11079
11050.2
11142
11108.4
11226.6
11181.3
11308.5
11257.1
11434.8
11367.3
11544.3
11466.1
11742.6
11635.6
11926.4
11789.7
12183.4
12002.2
12540.2
12307.4
13020.1
12728.8
13643.2
13292.5
14513.2
14312.5
14115.5
13919
15438.5
15222
14956.5
14748.7
16154.1
15735.5
15951.3
17207.7
16486.5
17040.2
16845.6
17580.9
17981.8
18143.4
20274
20159.7
19654.7
18569.9
19024.3
19508.3
20857.2
21374.2
21363
20786.7
9239.47
9281.04
9323.53
9366.42
9409.82
9453.9
9498.81
9544.71
9591.72
9639.92
9689.31
9739.85
9791.45
9844.02
9897.53
9952.08
10008
10066
10127.9
10197
10273.9
10355.3
10435.5
10510.8
10582.6
10656.5
10735.9
10816
10888.9
10951.7
11011.5
11078.4
11052.1
11139
11109
11212.1
11173
11289.4
11244.9
11398.7
11340.3
11501.8
11433.8
11675.9
11581.3
11851.3
11728.2
12104.9
11935.8
12467.4
12241.3
12966
12672.9
13726.9
13538.8
13358.1
13184.5
14539.7
14330.7
14124.7
13922.1
15512.5
15283.6
15004.2
14785.4
16280
15825.3
16058.5
17412
16632.2
17224.6
17009.9
17810.6
18234.6
18406.5
20688.3
20022
20562.9
18860.2
19343.6
19861.5
21316.9
21872.3
21859.6
21239.2
9259.07
9300.24
9342.37
9384.93
9428.08
9471.99
9516.85
9562.82
9610.01
9658.46
9708.11
9758.83
9810.46
9862.84
9915.92
9969.79
10025
10083.1
10148.1
10222.7
10304
10385.3
10462.3
10535
10608.2
10685.5
10764.4
10838.1
10902.4
10962
11030.8
11006.4
11081.5
11055.8
11141
11112.6
11206
11171.8
11280.1
11241
11375.2
11324.5
11474.5
11414.6
11627.6
11544.5
11798.7
11687.7
12050.3
11892.6
12417.3
12197.5
13019.4
12863.7
12717
12579.8
13724.4
13533
13349.2
13173.6
14566.8
14349.3
14136.1
13928.2
15586.5
15053.2
15345.2
14823.7
16404.3
15914.8
16163.9
17623.2
16774.8
17411
17174.3
18048
18500.4
18685.5
21130.6
20411.4
20992.1
19166.1
19682
20236
21808.7
22406.4
22391.9
21722.9
9278.21
9318.95
9360.69
9402.91
9445.8
9489.58
9534.44
9580.56
9628
9676.75
9726.65
9777.49
9829
9880.95
9933.23
9986.04
10040.7
10101.5
10173.1
10254
10336.3
10414.9
10489.1
10562.4
10638
10715.3
10789
10854.3
10913.9
10971.2
11034.7
11010
11085.8
11059.9
11144.6
11116.5
11206
11174.2
11277.4
11241.1
11362.8
11317.5
11458
11403.6
11597
11521.6
11764.7
11661.1
12013.7
11862.9
12452.6
12336.2
12165.4
13007.1
12850.5
12703.4
12565.7
13726.2
13531.3
13344.6
13166.6
14595.7
14370.4
14151.1
13938.4
15662.3
15103.7
15409.2
14863.9
16526.8
16006.1
16269.3
17836.2
16918.3
17599.1
17340.5
18292.8
18778.3
18980.7
21603.1
20824.9
21450
19492.7
20043.5
20634.1
22335.9
22979.9
22963.3
22241.1
9296.85
9337.14
9378.45
9420.31
9462.96
9506.64
9551.58
9597.93
9645.72
9694.82
9744.97
9795.82
9846.99
9898.15
9949.2
10001
10057.8
10125.8
10205.9
10289
10369.1
10444.9
10518.6
10592.8
10668
10740.5
10806.3
10866.2
10923.2
10989.1
10965.2
11038.3
11013.5
11089.7
11063.7
11147.6
11119.7
11207.9
11176.9
11276.5
11241.6
11356.3
11314.4
11446.4
11395.8
11576
11505.5
11740.3
11640.8
11986.1
11839.5
12438.3
12321.5
12099.7
12198.8
12998.3
12840.4
12692.2
12553.7
13732
13533.4
13343.4
13162.7
14627.2
14395.1
14170
13952.2
15741.2
15156.4
15475.9
14907
16650.9
16100.7
16377.4
18053.8
17064.3
17790.7
17509.8
18543.5
19065.5
19292.8
22108.9
21265.8
21940.1
19842.1
20431.4
21061
22901.5
23596.3
23577.8
22797.4
9314.95
9354.73
9395.57
9437.06
9479.48
9523.14
9568.27
9614.98
9663.22
9712.73
9763.09
9813.79
9864.31
9914.23
9963.86
10017
10081.5
10160
10244
10325.7
10402.9
10476.8
10549.6
10622.4
10692.6
10758.2
10818.6
10875.9
10930.9
10992.3
10968.2
11041.4
11016.6
11092.8
11066.8
11149.6
11121.9
11209.2
11178.6
11275
11241
11351.5
11311.6
11436
11388.2
11559.1
11491.8
11719.4
11622.2
12010.1
11929.4
11792.6
11857.2
12425.7
12307.9
12088
12186.9
12992.1
12832.3
12682.6
12543
13741.2
13538.3
13344.6
13160.7
14662.4
14423.6
14192.4
13968.9
15823.1
15212.2
15545.8
14953.7
16778.4
16199.2
16489.5
18277.2
17214.3
17988.4
17685.3
18801.5
19363
19621.6
22652
21739.6
22467.2
20214.5
20847.7
21524.5
23509.7
24258.2
24237.7
23396
9332.43
9371.64
9411.97
9453.08
9495.34
9539.08
9584.56
9631.82
9680.64
9730.6
9781.09
9831.39
9880.82
9929.18
9979.37
10040.1
10116.6
10201.4
10284.7
10363.3
10437.4
10508.5
10578.4
10646.1
10710.7
10771.5
10829.2
10884.4
10947.9
10925.1
10995.1
10971.3
11044
11019.3
11095.1
11069.2
11150.5
11123.1
11209.2
11179.1
11271.9
11238.8
11345.9
11307.4
11424.9
11379.3
11542.9
11478.2
11698.6
11603.5
11998.6
11918.1
11781.3
11846
12414.2
12295.8
12076.4
12175.3
12987.4
12825.4
12674.1
12533.1
13752.8
13545.2
13347.3
13159.9
14701.4
14455.2
14217.3
13987.6
15908.4
15271.7
15619.4
15004
16911
16301.8
16606.6
18508.7
17371.2
18195.1
17869.2
19069.9
19673.8
19964.7
23238.2
22253
23038.4
20610.7
21296.3
22028
24164.4
24969.5
24946.5
24041.2
9349.21
9387.78
9427.56
9468.31
9510.5
9554.52
9600.57
9648.58
9698.12
9748.56
9799.03
9848.59
9896.48
9944.72
10001.6
10075.9
10160.8
10246
10326.2
10400.4
10469.8
10536.3
10601.4
10664.5
10725.3
10783.2
10838.7
10892.3
10951.1
10928.3
10997.6
10974.2
11045.9
11021.5
11096.6
11070.9
11150.3
11123.3
11207.7
11178.3
11267
11235
11338.5
11301.4
11411.9
11368.1
11525.7
11463.2
11710.7
11657.5
11610.5
11568.5
11987.1
11906.6
11769.8
11834.6
12403.4
12284.4
12064.5
12163.6
12983.6
12819.3
12666
12523.7
13765.9
13553.3
13351
13159.7
14743.1
14489
14243.9
14007.6
15997.4
15334.9
15696.5
15057.3
17050.4
16408.5
16728.8
18750.6
17535.8
18412
18062.3
19350.9
20001.2
20325.8
23870.8
22813.6
23657.6
21029
21779.1
22573.9
24868.3
25736.6
25710.3
24737.7
9365.21
9403.04
9442.24
9482.69
9524.98
9569.54
9616.47
9665.48
9715.92
9766.84
9817.02
9865.31
9912.47
9966.21
10037.3
10122.1
10208.8
10291
10365.7
10433.1
10496.4
10558.6
10620.1
10680.2
10738
10793.8
10847.7
10899.9
10954.1
10931.6
10999.9
10976.8
11047.3
11023.3
11097.1
11071.8
11148.8
11122.4
11204.9
11176.2
11260.4
11229.7
11329
11293.4
11396.6
11354.5
11506.4
11446.2
11699.2
11646.5
11599.6
11557.6
11975.2
11894.7
11758
11822.7
12392.9
12273.2
12051.7
12151.2
12980.2
12813.2
12657.9
12514
13779.8
13561.7
13354.5
13159.1
14787
14524.3
14271.3
14027.8
16090.1
15401.3
15776.6
15113.1
17196.3
16519.3
16856.1
19004.3
17707.3
18640.7
18266.3
19647.3
20349.1
20708.7
24554.1
23424.6
24327.8
21472.1
22291.5
23164.7
25625.2
26564.4
26534.5
25485.1
9380.28
9417.29
9455.87
9496.15
9538.83
9584.32
9632.52
9682.91
9734.47
9785.59
9834.82
9882.03
9933.6
10001
10084.6
10172.6
10256.7
10332.3
10398.1
10458.8
10518.1
10577.5
10636.5
10693.8
10749.6
10803.7
10856.1
10915.9
10934.6
10894.7
10956.8
11001.8
10979.2
11048.3
11024.8
11096.9
11072.2
11146.3
11120.8
11200.6
11172.8
11252.1
11222.7
11317.2
11283.4
11378.1
11338.4
11507.9
11474.4
11419
11445.1
11686.9
11634.5
11587.8
11545.9
11962.3
11882
11745.4
11810.1
12382.1
12261.5
12037.8
12137.8
12976.3
12806.6
12649.2
12503.6
13793.3
13569.3
13357.1
13157.5
14832.1
14559.9
14298.3
14046.8
16186.1
15469.8
15858.5
15169.5
17348
16634.3
16988.8
19272.3
17887.7
18882.3
18481.8
19961.6
20717.9
21114.3
25288.5
24083.4
25053.5
21942.3
22837.3
23794.9
26437.9
27456.8
27421.5
26280.2
9394.28
9430.33
9468.33
9508.69
9552.23
9599.22
9649.38
9701.5
9753.65
9804.23
9852.62
9903.1
9967.04
10048.3
10136.6
10222.4
10299
10364.3
10422.8
10479.6
10536.8
10594.1
10650.7
10706.2
10760.3
10813
10864
10937.5
10919
10897.8
10959.3
11003.5
10981.3
11048.9
11026
11096.1
11072.2
11143
11118.5
11194.9
11168.4
11242
11214.4
11303.3
11271.5
11408.3
11373.4
11352.4
11333.4
11316.1
11496
11463.2
11434.2
11673.1
11621.3
11575
11533.3
11948.2
11867.9
11731.2
11796
12370.4
12248.8
12022.3
12122.8
12971.1
12798.7
12639
12491.7
13805.2
13575.1
13357.7
13153.6
14876.9
14594.6
14323.6
14063.2
16284.6
15537.9
15940.6
15224.1
17507.1
16751.8
17127.2
19555.5
18077.2
19136.6
18708.4
20295
21111
21544.8
26064.2
24793.2
25827.3
22444.8
23421.3
24463.4
27310.1
28420
28379
27127.3
9406.97
9441.91
9479.47
9520.42
9565.61
9615.12
9667.42
9720.75
9773.11
9823.28
9873.98
9935.24
10013.2
10100.6
10187.3
10265
10330.9
10388.1
10442.7
10497.6
10553.1
10608.6
10663.7
10717.7
10770.5
10821.9
10880.4
10859.9
10940.2
10921.9
10901.1
10961.7
11004.9
10983.2
11049.1
11026.9
11094.8
11071.7
11138.9
11115.6
11188.1
11163
11230.5
11204.8
11287.3
11257.8
11396.7
11361.8
11341.6
11323.3
11306.5
11483.2
11450.9
11422.3
11657.7
11606.6
11560.9
11519.8
11932.3
11852
11715.4
11780.1
12357
12234.3
12004.3
12105.2
12963.6
12788.1
12626.2
12477
13814.1
13577.5
13354.6
13145.9
14919.2
14626.2
14344.9
14075
16382.2
15603.7
16018.9
15274.7
17672.5
16868.3
17268.4
19855.6
18275.2
19405
18945.4
20651.2
21531.4
22005.3
26887.9
25552.2
26645.6
22984.3
24045.5
25177.8
28251.7
29464.5
29418.3
28041.5
9418.02
9451.73
9489.27
9531.87
9579.89
9632.05
9686.62
9740.97
9793.35
9845.35
9904.98
9979.61
10064.9
10151.5
10230.2
10297.1
10354
10406.9
10459.7
10513.5
10567.8
10622.1
10675.8
10728.6
10780.2
10830.6
10884.1
10863.7
10942.8
10925
10904.5
10963.8
11006.1
10984.9
11049
11027.4
11093
11070.8
11134.3
11112.3
11180.3
11156.9
11217.7
11194.3
11281.4
11267.2
11242.6
11384.4
11349.5
11330
11312.5
11296.5
11469.1
11437.5
11409.5
11640.6
11590.1
11545.1
11504.8
11914.1
11833.8
11697.7
11762
12340.7
12217.1
11983
12083.9
12952
12773.2
12609
12458.2
13817.7
13574.3
13345.6
13132.1
14956.8
14651.8
14359
14078.9
16475.1
15663.6
16089.8
15318.2
17842.3
16983
17411
20174.6
18479
19686.9
19190.4
21031.1
21980
22499.8
27788.9
26352.6
27538
23563.1
24715
25944.7
29276.6
30601.7
30549.5
29040.8
9426.89
9459.46
9498.18
9543.75
9595.33
9650.87
9707.3
9762.31
9816.42
9875.61
9947.39
10029.9
10115.2
10194.3
10262.4
10319.9
10371.7
10422.9
10475.1
10528.1
10581.4
10634.6
10687.2
10739
10789.7
10839.5
10887.8
10867.7
10945.4
10928
10908
10965.9
11007
10986.4
11048.5
11027.7
11090.7
11069.5
11129.1
11108.5
11171.8
11150.2
11203.9
11183
11271.6
11258
11236.2
11224.6
11371.3
11336.5
11317.9
11301.3
11285.9
11453.6
11422.9
11395.7
11621.2
11571.6
11527.4
11488.2
11892.7
11812.5
11677.4
11741
12320.5
12196
11957.1
12057.7
12934.2
12752.1
12585.7
12433.6
13813
13562.3
13327.5
13109.1
14985.8
14667.3
14361.7
14070.6
16562.1
15714.3
16151.6
15350.8
18013
17091.2
17550.6
20511.9
18686.7
19980.8
19441.6
21432.9
22457.8
23030
28789.2
27216.4
28534.4
24183.6
25439.7
26778.8
30393.3
31843.8
31783.6
30141.8
9432.74
9465.12
9506.8
9556.95
9613.13
9671.66
9729.59
9786.52
9846.54
9916.22
9995.72
10078.9
10157.7
10226.8
10285.2
10336.7
10386.7
10437.6
10489.4
10541.8
10594.3
10646.5
10698.2
10749.1
10799.2
10856.2
10871.7
10836.6
10891.6
10948.1
10931.2
10911.5
10968.1
11008
10988
11047.9
11027.9
11088.2
11068
11123.7
11104.6
11162.7
11143
11197.9
11216.2
11188.5
11171.1
11261.3
11248.5
11227.3
11357.4
11322.8
11305.2
11289.4
11274.9
11436.7
11407.2
11380.8
11599.2
11550.7
11507.8
11470
11867.4
11787.7
11654.1
11716.7
12294.9
12169.7
11925
12024.7
12907.2
12722
12553.4
12400.6
13795.5
13537
13295.7
13072.2
15001.9
14667.8
14348.3
14045.4
16639.8
15753.5
16202.1
15370.4
18182.7
17189.1
17683.7
20864.5
18895.3
20284.6
19698.8
21855.3
22967.3
23597.9
29908.8
28181.3
29661.6
24853.9
26231
27706
31610.8
33201.4
33123.8
31362.8
9434.23
9469.02
9516.5
9572.86
9633.54
9694.73
9755.09
9817.05
9885.69
9962.45
10043.2
10120.8
10190.3
10249.8
10301.6
10351
10400.9
10451.6
10503
10554.8
10606.5
10657.9
10708.8
10759.2
10808.7
10875.9
10860.6
10840.9
10895.5
10950.8
10934.4
10915
10970.3
11009
10989.7
11047.3
11028.2
11085.5
11066.4
11118.1
11100.5
11153.3
11135.7
11207.9
11190.2
11181.3
11166.1
11158.3
11250.7
11238.7
11218.1
11342.6
11308.5
11292
11277.1
11263.4
11418.2
11390.1
11364.9
11574.3
11527.3
11486
11449.9
11836.6
11758.3
11627.6
11688.7
12261.7
12136.5
11885.2
11983.1
12866.6
12678.7
12508.6
12355.6
13760.4
13493.5
13245.3
13016.4
15003
14651.1
14315.5
13999.9
16679.8
15780.1
16213.2
15375.2
18348.4
17281.3
17795.5
21229.7
19082.8
20595.2
19967
22300.8
23508.4
24205.7
31171.3
29289.4
30953.9
25583.6
27106.8
28766.8
32923.1
34701.3
34577.5
32710.3
9430.94
9473.25
9529.22
9592.22
9657.18
9721.63
9786.5
9855.42
9930.02
10008.1
10084.1
10153.3
10213.4
10266.1
10315.4
10364.6
10414.5
10465
10516
10567.1
10618.1
10668.8
10719.2
10769.2
10818.8
10880.1
10865.2
10845.7
10899.5
10953.6
10937.8
10918.7
10972.7
11010.2
10991.5
11046.9
11028.6
11082.8
11064.9
11112.6
11096.6
11143.8
11128.3
11199.4
11182.4
11174.2
11159.9
11152.5
11239.8
11228.7
11208.8
11327
11293.6
11278.2
11264.3
11251.6
11398
11371.6
11348
11545.8
11501
11461.9
11427.9
11798.9
11722.8
11597.1
11655.7
12217.7
12093.6
11835
11929.5
12807.1
12617.2
12446.6
12294.4
13704.8
13429.2
13173.4
12938.6
14967.9
14595.4
14254.8
13935.3
16816.2
15790.4
16139.7
15396
18506.8
17273.4
17994.9
21591.3
19354.9
20903.7
20310.3
22768.1
24082.4
24860.1
32601.9
30572.7
32450.3
26387.2
28096.2
29988.1
34331.1
36540.1
36374.4
34227.5
9426.81
9480.98
9546.64
9616.13
9685.55
9754.41
9824.83
9898.21
9973.74
10047.8
10116.2
10176.5
10230
10279.7
10328.7
10377.9
10427.7
10477.9
10528.4
10578.9
10629.3
10679.5
10729.5
10779.4
10829.2
10850.6
10884.6
10870
10903.8
10956.6
10941.5
10922.8
10975.2
11011.6
10993.6
11046.7
11029.3
11080.3
11063.7
11107.6
11093.2
11134.6
11121.3
11190.8
11174.6
11167.2
11153.6
11147
11228.7
11218.5
11199.3
11310.7
11277.9
11263.9
11251.1
11239.5
11376.1
11351.7
11330
11513.2
11471.3
11435.1
11403.7
11752.2
11679.6
11561.3
11616.3
12158.7
12037.2
11769.7
11859.4
12725.3
12533.4
12363
12212.6
13635
13353.7
13091.7
12851.8
15039.7
14497.5
14173.9
13866.4
16706.8
15745.9
16095.2
15388.7
18524.8
17227.6
17888.2
22028.1
19237.8
21001.9
20217.1
23307
24734.9
25571.6
34312.9
32068.9
34269.4
27306.1
29212.9
31396
36052.7
38630.6
38522
36159.6
9427.33
9495.12
9570.38
9646.09
9720.25
9793.33
9866.64
9940.23
10012
10079.2
10139.4
10193.4
10243.8
10292.8
10341.8
10391
10440.5
10490.3
10540.2
10590.2
10640.1
10690
10739.9
10789.8
10847.2
10855.7
10861
10827.8
10889.3
10875.1
10908.3
10960
10945.5
10927.1
10978.1
11013.3
10995.9
11046.9
11030.3
11078.3
11062.9
11103.2
11090.5
11141.4
11130.9
11125.5
11115.1
11182.2
11166.9
11160.3
11147.4
11217.4
11208.2
11189.8
11293.4
11261.5
11249.1
11237.7
11227.1
11352.1
11330.1
11310.8
11475.3
11437.8
11405.2
11376.9
11692.4
11625.8
11518.6
11568.4
12080.5
11963.1
11685.9
11769.6
12634.8
12440.4
12267.5
12114.5
13572.2
13292.7
13029.7
12788.5
14954
14457.8
14134.9
13828.4
16659.2
15702.8
16053.7
15348.5
18476
17184.1
17837.5
21913.6
19184.1
20948.3
20159.9
23214
24657.6
26382.7
36515
33863.3
36552.2
28339
30469.5
33132.7
38363.8
40746.8
40667.7
38796.9
9436.9
9518.07
9602.15
9683.27
9760.48
9834.9
9907.28
9976.98
10042.5
10102.3
10156.8
10207.8
10257.1
10305.9
10354.7
10403.6
10452.8
10502.1
10551.6
10601.1
10650.7
10700.4
10750.3
10800.5
10866.6
10852.8
10880.3
10833.2
10894.2
10913.1
10963.7
10949.9
10931.7
10981.4
11015.6
10998.8
11047.6
11031.9
11077
11062.6
11099.8
11088.7
11136.3
11126.6
11121.6
11109.8
11173.6
11159.2
11153.3
11141.5
11205.9
11197.7
11180.3
11275.1
11244.2
11233.6
11223.8
11214.5
11325.8
11306.9
11290.2
11430.2
11398.8
11371.3
11347.2
11616.5
11558
11466.6
11508.8
11983.4
11869.4
11585
11667.5
12569.7
12372.3
12194.6
11999.5
13535.1
13256.6
12994.4
12754
14910.8
14420.6
14098.6
13792.9
16615.8
15662.5
16016.2
15310.1
18429.5
17144.5
17791.1
21852.8
19134.6
20896.7
20107.5
23150.3
26324.8
24592
39393.3
36054.4
39433.3
29426.6
27846
31938.5
35113.5
40959.1
42972.9
43178.4
42197.1
9458.53
9551.71
9642.46
9725.83
9802.69
9874.66
9942.67
10006.3
10065.5
10120.3
10171.8
10221.5
10270.3
10318.8
10367.3
10415.8
10464.6
10513.5
10562.5
10611.7
10661
10710.7
10760.8
10811.8
10885.9
10872.3
10858.7
10899.4
10838.9
10918.2
10967.8
10954.8
10936.7
10985.2
11018.5
11002.1
11049.1
11034.1
11076.4
11063.2
11097.8
11088.1
11131.3
11122.5
11118.2
11114.9
11108.7
11104.9
11165
11151.6
11146.6
11135.8
11194.3
11187.2
11170.9
11255.6
11225.8
11217.5
11209.4
11201.7
11296.8
11281.7
11268.1
11375.3
11352.4
11331.9
11313.5
11523.9
11474.1
11402.1
11434.5
11882.7
11769.7
11485.2
11588.5
12535.9
12339.2
11988.7
12162.6
13500.3
13222.6
12961.1
12721.4
14871.4
14387
14065.8
13760.7
16577.1
15626.1
15275
18387.1
17749.7
21796.6
19090.5
20849.2
20060.7
23091.1
26256.4
24530.5
43148.8
38827.2
43112.6
29435.2
27774.5
31993.7
37306.9
34566
44637.5
46434.6
48009.7
47006.2
9493.98
9595.96
9688.61
9769.62
9842.19
9908.86
9971.01
10029.3
10084.2
10136
10186
10235
10283.3
10331.4
10379.5