/*--------------------------------*- C++ -*----------------------------------*\
  =========                 |
  \\      /  F ield         | OpenFOAM: The Open Source CFD Toolbox
   \\    /   O peration     | Website:  https://openfoam.org
    \\  /    A nd           | Version:  dev
     \\/     M anipulation  |
\*---------------------------------------------------------------------------*/
FoamFile
{
    version     2.0;
    format      ascii;
    class       volScalarField;
    location    "2500";
    object      H2O;
}
// * * * * * * * * * * * * * * * * * * * * * * * * * * * * * * * * * * * * * //

dimensions      [0 0 0 0 0 0 0];

internalField   nonuniform List<scalar> 
9714
(
1.47348e-35
3.79432e-35
2.80604e-35
7.56618e-35
9.14921e-35
1.2749e-35
9.70744e-35
1.93854e-34
9.91104e-35
4.19415e-36
1.28451e-34
3.24396e-34
2.35655e-34
7.08725e-35
3.35363e-36
6.06703e-35
4.87748e-34
4.20736e-34
2.15092e-34
2.52474e-35
6.13287e-37
8.90488e-35
6.86564e-34
7.53848e-34
4.66949e-34
1.58835e-34
1.45312e-35
1.5256e-37
6.95532e-35
8.42385e-34
1.19502e-33
7.68174e-34
4.2304e-34
6.08227e-35
4.58524e-36
5.26224e-38
8.36353e-35
1.01612e-33
1.657e-33
1.57971e-33
8.13221e-34
2.82326e-34
2.5486e-35
1.84435e-36
4.00181e-38
1.97851e-34
1.14658e-33
2.25897e-33
2.32705e-33
1.52417e-33
6.51714e-34
1.09506e-34
1.02651e-35
5.89563e-37
5.19488e-39
1.22468e-34
1.17597e-33
2.81477e-33
3.13943e-33
2.56836e-33
1.25684e-33
4.2904e-34
5.94901e-35
4.12462e-36
1.00823e-37
1.48347e-39
6.18429e-35
6.63145e-34
3.29784e-33
4.79002e-33
3.85501e-33
2.39818e-33
9.45046e-34
2.31046e-34
1.64578e-35
1.24339e-36
3.47766e-38
3.58117e-40
1.58896e-34
4.85292e-34
3.24828e-33
5.98658e-33
5.41556e-33
3.52541e-33
1.95774e-33
5.62016e-34
1.05002e-34
6.96592e-36
3.54676e-37
4.36803e-39
8.12778e-41
2.92582e-34
7.57443e-34
3.6646e-33
8.04856e-33
8.87717e-33
6.28065e-33
3.37658e-33
1.34394e-33
2.69894e-34
3.82325e-35
2.62812e-36
7.22594e-38
1.02721e-39
7.91541e-41
3.40141e-34
1.84655e-33
4.6546e-33
9.43194e-33
1.15296e-32
8.59852e-33
5.68628e-33
2.50585e-33
8.55823e-34
1.23532e-34
1.15591e-35
7.32154e-37
1.65946e-38
1.2387e-39
9.17005e-40
2.87377e-34
1.58502e-33
6.08684e-33
1.22802e-32
1.54929e-32
1.48005e-32
7.60986e-33
4.22678e-33
1.81267e-33
4.28918e-34
3.64945e-35
3.8676e-36
1.0893e-37
1.23677e-38
1.24251e-38
1.04279e-38
8.39448e-34
2.66127e-33
9.21274e-33
1.41933e-32
2.14975e-32
2.05075e-32
1.33666e-32
7.05839e-33
2.74612e-33
6.82783e-34
1.45796e-34
1.04711e-35
9.16564e-37
1.09395e-37
1.44897e-37
1.37857e-37
1.00957e-37
3.53982e-34
5.66781e-33
1.08256e-32
2.28501e-32
3.12609e-32
2.72986e-32
2.21618e-32
1.15443e-32
5.54754e-33
1.45258e-33
3.04513e-34
3.99741e-35
2.65477e-36
6.88523e-37
1.06617e-36
1.97362e-36
3.33515e-36
2.18712e-36
1.35737e-33
8.43684e-33
1.87562e-32
3.71004e-32
4.64452e-32
4.47635e-32
3.1493e-32
2.0203e-32
1.00175e-32
3.67651e-33
7.97568e-34
1.05066e-34
1.23783e-35
5.36804e-36
1.07542e-35
2.32447e-35
4.16703e-35
6.91257e-35
8.79474e-35
7.14048e-34
9.83493e-33
3.08463e-32
5.04241e-32
6.72137e-32
6.47534e-32
4.85507e-32
3.00509e-32
1.62699e-32
7.47823e-33
2.11728e-33
3.65757e-34
5.21473e-35
2.43305e-35
7.59334e-35
1.39343e-34
3.83877e-34
6.69711e-34
1.1221e-33
1.32778e-33
1.23324e-33
7.96339e-33
3.3924e-32
7.63374e-32
1.02828e-31
1.00979e-31
7.49335e-32
4.62945e-32
2.36354e-32
1.19415e-32
4.91801e-33
8.99886e-34
1.61702e-34
1.69611e-34
4.61866e-34
1.19081e-33
2.58416e-33
6.34838e-33
1.43816e-32
1.54239e-32
2.1925e-32
6.83247e-34
8.85488e-33
1.97532e-32
6.60549e-32
1.47569e-31
1.57255e-31
1.17881e-31
7.30555e-32
3.8491e-32
1.76724e-32
8.54268e-33
2.18583e-33
4.57021e-34
6.47363e-34
2.69647e-33
9.04255e-33
1.8687e-32
8.10729e-32
1.21135e-31
2.46663e-31
2.10394e-31
3.81888e-31
9.21412e-34
6.3499e-33
2.93881e-32
5.05112e-32
1.45881e-31
2.32219e-31
1.85903e-31
1.17083e-31
5.7812e-32
2.81845e-32
1.28695e-32
4.03445e-33
1.95844e-33
4.72362e-33
1.68937e-32
7.25183e-32
1.78761e-31
4.06187e-31
1.51418e-30
3.20609e-30
2.95157e-30
6.29761e-30
4.2572e-30
9.29622e-34
6.4191e-33
1.65511e-32
6.06606e-32
1.26216e-31
3.13898e-31
2.701e-31
1.86293e-31
9.89329e-32
4.65103e-32
2.02988e-32
8.28474e-33
6.03989e-33
2.13775e-32
9.31795e-32
3.43651e-31
1.54852e-30
3.69846e-30
7.2721e-30
2.55158e-29
6.1335e-29
7.88811e-29
1.2116e-28
7.765e-29
1.204e-33
7.74942e-33
2.56543e-32
6.68808e-32
1.67779e-31
4.12995e-31
4.6497e-31
2.8518e-31
1.66958e-31
8.47664e-32
3.47354e-32
1.45468e-32
2.24544e-32
6.94658e-32
5.96898e-31
1.57987e-30
6.39467e-30
3.59698e-29
1.17315e-28
1.65307e-28
6.79996e-28
1.54466e-27
1.76689e-27
1.83997e-27
3.47449e-28
1.31584e-33
9.33568e-33
2.38722e-32
7.7111e-32
2.2107e-31
4.9145e-31
6.16505e-31
4.71747e-31
2.68138e-31
1.2839e-31
7.58157e-32
5.37435e-32
6.92571e-32
5.55803e-31
1.96834e-30
1.23846e-29
3.41322e-29
1.02192e-28
8.83775e-28
2.14084e-27
5.05247e-27
1.34165e-26
2.7619e-26
2.36924e-26
2.12312e-26
4.58549e-27
1.60216e-33
6.89276e-33
4.25625e-32
1.25494e-31
3.04861e-31
5.58599e-31
7.71032e-31
7.03654e-31
4.37998e-31
2.51459e-31
1.62376e-31
2.08212e-31
4.89682e-31
1.61303e-30
1.35038e-29
5.93015e-29
2.61449e-28
8.24451e-28
3.1505e-27
1.98795e-26
3.47178e-26
1.17547e-25
2.75516e-25
4.31472e-25
3.66734e-25
2.17576e-25
1.22681e-25
5.02295e-33
2.63716e-32
6.07268e-32
1.41202e-31
3.59232e-31
7.0843e-31
9.67405e-31
1.00423e-30
6.93911e-31
4.79674e-31
4.26804e-31
8.06877e-31
2.90787e-30
6.97703e-30
3.85859e-29
3.6033e-28
1.6372e-27
5.94183e-27
1.59621e-26
7.69892e-26
4.36117e-25
1.04286e-24
1.98944e-24
5.14667e-24
7.91067e-24
6.64789e-24
4.31864e-24
1.44953e-24
9.04247e-32
1.01241e-31
1.10171e-31
1.34227e-31
4.0153e-31
9.42384e-31
1.28579e-30
1.38231e-30
1.22118e-30
1.0688e-30
1.60368e-30
3.24609e-30
9.14415e-30
5.44917e-29
2.09546e-28
9.7571e-28
8.18381e-27
3.76447e-26
1.49693e-25
5.47853e-25
2.02096e-24
7.99115e-24
2.33163e-23
2.69814e-23
1.02308e-22
1.14572e-22
8.40396e-23
3.38491e-23
9.1241e-24
8.99579e-31
3.70474e-31
3.61477e-31
2.97972e-31
4.75621e-31
1.10881e-30
1.64476e-30
2.12584e-30
2.28401e-30
2.88549e-30
6.12928e-30
1.54647e-29
4.32091e-29
1.87922e-28
1.28973e-27
5.24885e-27
2.49774e-26
2.4698e-25
1.01703e-24
4.35767e-24
1.91254e-23
6.72162e-23
2.5537e-22
4.55734e-22
6.2733e-22
1.87279e-21
1.61999e-21
5.03044e-22
2.49688e-22
7.13084e-23
6.98507e-30
2.93457e-30
2.64124e-30
1.01184e-30
8.46125e-31
1.38989e-30
2.06694e-30
3.85819e-30
6.5495e-30
9.9718e-30
2.58647e-29
5.98255e-29
2.09513e-28
6.59169e-28
3.34513e-27
3.07986e-26
1.21369e-25
1.05856e-24
6.82212e-24
2.99922e-23
1.56465e-22
5.50582e-22
1.84905e-21
4.97068e-21
7.11405e-21
1.81772e-20
2.22666e-20
1.49117e-20
5.56135e-21
1.76219e-21
2.26212e-22
4.6872e-29
2.76349e-29
1.5839e-29
4.56709e-30
1.7622e-30
1.88807e-30
4.15062e-30
5.98348e-30
2.09252e-29
4.17544e-29
8.48656e-29
2.76941e-28
7.43809e-28
3.52449e-27
1.81615e-26
9.03492e-26
8.328e-25
4.60486e-24
3.06465e-23
1.8776e-22
1.03766e-21
4.77495e-21
1.60147e-20
4.89878e-20
1.15118e-19
1.85079e-19
1.83162e-19
2.5189e-19
1.17678e-19
3.43224e-20
5.40026e-21
3.18385e-22
2.93649e-28
1.53846e-28
8.39221e-29
3.4535e-29
7.7348e-30
6.13421e-30
1.10908e-29
2.21407e-29
5.11097e-29
1.60898e-28
3.65376e-28
1.14834e-27
3.75381e-27
1.27766e-26
7.3893e-26
4.68405e-25
3.35463e-24
2.46067e-23
1.39726e-22
9.69095e-22
4.73778e-21
3.03256e-20
1.26574e-19
4.78728e-19
9.02266e-19
2.08685e-18
3.13962e-18
3.14164e-18
2.28962e-18
6.87329e-19
1.11235e-19
1.69236e-20
8.21437e-22
1.70943e-27
1.1193e-27
8.56767e-28
2.53462e-28
4.47314e-29
3.4283e-29
4.02718e-29
1.22681e-28
1.68416e-28
6.87861e-28
1.12734e-27
4.30767e-27
1.50903e-26
5.64629e-26
2.25942e-25
1.48708e-24
1.19814e-23
1.05138e-22
7.28963e-22
4.55151e-21
2.55533e-20
1.44678e-19
7.95119e-19
3.31585e-18
1.20551e-17
1.75994e-17
2.78146e-17
3.09925e-17
2.67337e-17
1.57801e-17
4.63506e-18
4.90856e-19
1.35511e-20
3.71073e-22
4.49922e-21
5.1789e-27
1.01189e-26
5.01685e-27
1.49637e-27
3.10079e-28
1.39672e-28
2.73198e-28
3.82595e-28
1.04879e-27
1.59941e-27
5.98584e-27
1.33661e-26
5.07061e-26
2.2302e-25
1.16292e-24
5.77688e-24
4.21821e-23
4.01009e-22
3.24925e-21
2.02336e-20
1.27387e-19
8.46423e-19
3.34327e-18
2.00617e-17
7.79225e-17
2.62606e-16
2.62808e-16
2.57964e-16
2.58986e-16
1.71289e-16
9.71973e-17
1.51432e-17
1.60319e-19
1.14396e-18
4.0242e-20
8.13446e-19
4.83491e-19
1.46306e-21
1.51962e-20
5.63899e-26
8.44451e-26
2.68576e-26
9.33407e-27
1.82555e-27
6.9113e-28
8.58358e-28
2.07718e-27
5.20115e-27
8.93744e-27
1.82616e-26
5.51596e-26
1.99006e-25
8.70648e-25
4.96031e-24
3.16077e-23
2.23704e-22
1.74905e-21
1.11494e-20
8.48648e-20
5.19344e-19
3.39355e-18
2.05183e-17
6.74455e-17
4.46571e-16
1.61681e-15
4.56126e-15
4.71047e-15
4.59009e-15
3.20905e-15
1.63497e-15
3.76168e-16
1.1213e-17
7.51194e-17
6.34688e-18
1.88148e-19
5.10338e-18
2.69796e-18
5.04251e-21
5.4441e-20
2.94889e-25
5.17359e-25
1.97433e-25
5.45352e-26
1.08893e-26
3.3642e-27
5.56039e-27
8.13606e-27
1.51145e-26
3.64677e-26
5.28567e-26
2.07383e-25
7.50817e-25
2.89329e-24
1.59005e-23
1.46754e-22
9.38558e-22
5.59197e-21
5.19366e-20
2.51628e-19
2.12567e-18
1.63992e-17
6.83402e-17
4.88205e-16
2.36696e-15
1.73891e-14
3.98717e-14
9.01341e-14
8.32352e-14
7.06071e-14
3.88819e-14
1.19435e-14
2.98415e-16
2.44145e-15
6.0111e-17
3.68152e-16
2.58055e-17
9.33148e-19
2.39969e-17
8.47317e-18
2.93137e-20
4.32595e-19
1.42052e-24
3.65902e-24
1.09056e-24
2.6574e-25
6.30715e-26
1.79237e-26
2.14393e-26
3.67917e-26
7.02788e-26
1.54832e-25
3.10401e-25
6.29251e-25
2.47252e-24
1.24356e-23
6.26932e-23
5.41677e-22
4.63411e-21
3.33688e-20
2.64622e-19
1.56985e-18
7.20563e-18
6.38801e-17
3.75405e-16
1.7117e-15
1.25353e-14
8.20031e-14
4.93028e-13
8.441e-13
1.50952e-12
1.30566e-12
9.39986e-13
3.87749e-13
1.74782e-14
1.31824e-13
2.37009e-15
2.0101e-14
3.02001e-16
2.00701e-15
1.53588e-16
4.09679e-18
1.30121e-16
4.32126e-17
9.2239e-20
2.30154e-18
1.02808e-23
2.57791e-23
7.85316e-24
1.67462e-24
2.70949e-25
8.66783e-26
8.82235e-26
1.55991e-25
4.29117e-25
7.61917e-25
1.22616e-24
3.06102e-24
8.86482e-24
3.41501e-23
2.53121e-22
1.44989e-21
1.67858e-20
1.49265e-19
1.15579e-18
6.87617e-18
4.95494e-17
1.86152e-16
1.2616e-15
8.37866e-15
6.81541e-14
5.11355e-13
2.39648e-12
1.12801e-11
1.52893e-11
2.24213e-11
1.77341e-11
1.01322e-11
8.11346e-13
5.02695e-12
1.59652e-13
1.15415e-12
1.99506e-14
1.80197e-13
1.856e-15
1.73706e-14
1.0416e-15
2.79905e-17
5.71981e-16
3.06699e-16
1.94427e-19
8.75279e-18
9.30272e-23
1.76021e-22
4.77643e-23
1.19842e-23
1.95867e-24
3.82023e-25
3.18921e-25
7.46948e-25
1.63835e-24
2.34893e-24
5.84827e-24
1.22873e-23
3.57799e-23
1.38681e-22
1.07998e-21
7.94108e-21
5.79193e-20
5.4389e-19
4.98104e-18
3.44159e-17
2.39048e-16
9.71707e-16
5.60233e-15
3.85511e-14
3.52623e-13
3.31376e-12
1.90316e-11
6.22499e-11
2.07024e-10
2.36379e-10
2.86409e-10
2.01006e-10
2.68258e-11
1.41636e-10
7.47583e-12
4.41269e-11
1.44982e-12
1.04971e-11
1.81563e-13
1.66407e-12
1.33593e-14
1.57709e-13
8.69746e-15
1.08176e-16
4.75866e-15
2.16144e-15
8.71979e-19
3.18953e-17
1.22973e-21
1.17046e-21
3.49776e-22
7.41143e-23
1.2489e-23
1.67421e-24
1.32781e-24
2.44524e-24
6.2729e-24
8.79603e-24
1.3323e-23
4.59859e-23
1.29635e-22
4.55195e-22
3.06285e-21
3.1131e-20
2.95139e-19
2.32115e-18
1.71076e-17
1.40177e-16
9.4304e-16
5.09731e-15
2.88827e-14
1.79117e-13
1.64263e-12
1.8238e-11
1.3401e-10
5.74735e-10
1.30704e-09
3.04806e-09
3.09483e-09
3.08974e-09
6.43364e-10
2.84387e-09
2.39362e-10
1.20475e-09
6.77582e-11
3.95382e-10
1.34336e-11
9.66722e-11
1.68188e-12
1.55114e-11
1.20752e-13
1.45835e-12
7.61911e-14
7.93596e-16
3.85128e-14
1.60412e-14
1.28701e-17
2.13134e-16
9.08913e-21
6.80281e-21
2.46129e-21
3.86972e-22
7.69044e-23
8.43172e-24
5.73707e-24
9.0781e-24
2.02916e-23
3.73692e-23
6.49256e-23
1.47603e-22
3.92453e-22
1.63141e-21
1.24408e-20
9.39209e-20
1.03242e-18
1.10839e-17
7.5882e-17
5.76511e-16
4.00119e-15
2.62582e-14
1.53e-13
8.54439e-13
6.90221e-12
8.70392e-11
7.63152e-10
4.24007e-09
1.38243e-08
2.17898e-08
3.61862e-08
3.53298e-08
1.098e-08
4.14134e-08
5.54538e-09
2.3488e-08
2.11718e-09
1.04523e-08
6.18065e-10
3.56081e-09
1.24733e-10
8.88622e-10
1.5688e-11
1.44177e-10
1.09923e-12
1.34963e-11
6.65102e-13
5.59134e-15
3.2555e-13
1.28334e-13
7.15174e-17
1.6424e-15
2.8838e-20
4.16675e-20
1.37987e-20
3.24324e-21
4.43987e-22
6.03156e-23
1.74056e-23
3.81913e-23
7.55281e-23
1.385e-22
2.64767e-22
4.64957e-22
1.3088e-21
5.24687e-21
3.25369e-20
3.7353e-19
4.03019e-18
3.60822e-17
4.51816e-16
2.92848e-15
2.28584e-14
1.50979e-13
8.59674e-13
4.42649e-12
2.80099e-11
3.50717e-10
3.7464e-09
2.43526e-08
1.02598e-07
2.74506e-07
2.87914e-07
3.78897e-07
1.40365e-07
4.85589e-07
9.11207e-08
3.33763e-07
4.73918e-08
1.98414e-07
1.87592e-08
9.08829e-08
5.59716e-09
3.17955e-08
1.14654e-09
8.04123e-09
1.44891e-10
1.31593e-09
9.93821e-12
1.22949e-10
5.76181e-12
4.07173e-14
2.69035e-12
9.97319e-13
2.37191e-16
1.01911e-14
1.74596e-19
2.40041e-19
7.88893e-20
1.81945e-20
2.93956e-21
2.5232e-22
7.13912e-23
1.26803e-22
1.94433e-22
5.17945e-22
8.68569e-22
1.5351e-21
4.52168e-21
1.2316e-20
9.19535e-20
9.72504e-19
1.34202e-17
1.65292e-16
1.60003e-15
1.56715e-14
1.30598e-13
8.86788e-13
5.01376e-12
2.42634e-11
1.16779e-10
1.25742e-09
1.52489e-08
1.20861e-07
5.84219e-07
1.96167e-06
4.8932e-06
2.85058e-06
1.6064e-06
5.82642e-06
1.15942e-06
3.82581e-06
7.67907e-07
2.72174e-06
4.0603e-07
1.668e-06
1.645e-07
7.79385e-07
4.9591e-08
2.76974e-07
1.0288e-08
7.03789e-08
1.30594e-09
1.1607e-08
8.75394e-11
1.08693e-09
4.85192e-11
2.99163e-13
2.14739e-11
7.50015e-12
1.45487e-15
6.93211e-14
6.65958e-19
1.1168e-18
3.80916e-19
1.01134e-19
1.60952e-20
1.70712e-21
3.3126e-22
3.98576e-22
7.47109e-22
1.30598e-21
2.94798e-21
5.96895e-21
1.66625e-20
5.04065e-20
2.82843e-19
2.26943e-18
4.12225e-17
5.36371e-16
6.88696e-15
7.91396e-14
7.20461e-13
5.21124e-12
2.96812e-11
1.40026e-10
5.48414e-10
3.95139e-09
5.4424e-08
5.0306e-07
2.84526e-06
1.08328e-05
3.09747e-05
7.41372e-05
2.78005e-05
0
1.23992e-05
3.97113e-05
9.0128e-06
2.8582e-05
6.12068e-06
2.05112e-05
3.3473e-06
1.27536e-05
1.39464e-06
6.19652e-06
4.23795e-07
2.28736e-06
8.86671e-08
5.86939e-07
1.12924e-08
9.76105e-08
7.41431e-10
9.18129e-09
3.93561e-10
2.09007e-12
1.63754e-10
5.34019e-11
9.22661e-15
4.4975e-13
4.23915e-18
6.82059e-18
2.63202e-18
5.86246e-19
1.06944e-19
1.3099e-20
1.67573e-21
1.69275e-21
2.48853e-21
5.88406e-21
9.89374e-21
1.9668e-20
5.36241e-20
1.63615e-19
7.3159e-19
8.98797e-18
1.03574e-16
1.79751e-15
2.84574e-14
3.77378e-13
3.80047e-12
2.94867e-11
1.76563e-10
8.21671e-10
2.91423e-09
1.29549e-08
1.54542e-07
1.79934e-06
1.1724e-05
4.79452e-05
0.000141734
0.00032361
0.000737539
0.000125896
0.000528693
8.79386e-05
0.000250589
6.41685e-05
0.000188567
4.35645e-05
0.000135406
2.43874e-05
8.49053e-05
1.05592e-05
4.23834e-05
3.39007e-06
1.639e-05
7.23092e-07
4.52014e-06
9.26464e-08
7.7423e-07
6.00067e-09
7.33646e-08
3.03673e-09
1.36894e-11
1.17371e-09
3.55022e-10
5.20783e-14
2.66495e-12
8.71061e-18
2.34236e-17
1.1417e-17
2.97019e-18
5.90796e-19
7.15329e-20
1.09899e-20
5.64207e-21
1.18183e-20
2.06938e-20
3.67083e-20
7.4509e-20
1.86139e-19
6.36253e-19
2.51673e-18
1.93356e-17
3.55409e-16
5.47548e-15
1.04954e-13
1.60254e-12
1.86e-11
1.57612e-10
9.96878e-10
4.82444e-09
1.60752e-08
5.3747e-08
3.81386e-07
4.96628e-06
3.985e-05
0.000171226
0.000453963
0.000956847
0.00170665
0.00185277
0.00276786
0.000585149
0.0012477
0.000479861
0.00107176
0.000372471
0.000883313
0.000261536
0.000676572
0.000149675
0.000454096
6.75162e-05
0.000238725
2.31873e-05
9.86778e-05
5.39741e-06
2.9553e-05
7.16164e-07
5.63069e-06
4.59195e-08
5.49908e-07
2.19741e-08
8.27021e-11
7.85825e-09
2.17475e-09
2.9031e-13
1.43615e-11
3.64165e-17
8.0629e-17
4.15442e-17
1.35351e-17
2.59085e-18
4.4038e-19
5.61788e-20
1.95442e-20
4.36991e-20
5.0278e-20
1.17487e-19
2.30802e-19
7.6738e-19
2.21239e-18
8.43318e-18
3.46122e-17
6.89289e-16
1.89247e-14
3.47005e-13
6.27941e-12
8.26024e-11
7.7761e-10
5.2956e-09
2.6293e-08
8.85198e-08
2.61864e-07
1.01218e-06
1.11688e-05
0.000100053
0.000463385
0.00117347
0.00203922
0.00319094
0.00359625
0.00421821
0.00352223
0.0045928
0.00180727
0.00267232
0.00166187
0.00259257
0.00143998
0.00242226
0.00111025
0.00216054
0.000703775
0.00167528
0.000352915
0.000996369
0.000132148
0.00048059
3.4074e-05
0.000159651
5.07356e-06
3.46988e-05
3.29368e-07
3.79707e-06
1.47302e-07
4.58289e-10
4.85983e-08
1.23668e-08
1.55233e-12
7.06468e-11
1.5407e-16
2.17462e-16
1.25086e-16
4.81223e-17
1.20063e-17
1.40557e-18
2.6429e-19
6.35181e-20
1.48768e-19
2.82347e-19
2.8723e-19
6.03666e-19
2.52614e-18
7.62925e-18
2.52302e-17
1.05396e-16
1.12141e-15
4.07314e-14
1.30843e-12
2.23921e-11
3.4587e-10
3.58348e-09
2.61031e-08
1.30665e-07
4.60862e-07
1.32554e-06
3.53188e-06
2.25959e-05
0.000193739
0.000851555
0.00206546
0.00351873
0.00508853
0.00713044
0.00535239
0.00688944
0.00568885
0.00679827
0.00356995
0.00463032
0.0035251
0.00473306
0.0033372
0.00469266
0.00296432
0.00448631
0.00229686
0.00393324
0.00134683
0.00294938
0.000602584
0.00168662
0.000177924
0.00068858
3.09692e-05
0.000177071
2.16319e-06
2.30447e-05
8.90068e-07
2.38795e-09
2.72143e-07
6.51488e-08
6.65385e-12
3.36978e-10
3.0722e-16
4.63174e-16
3.24025e-16
1.36031e-16
3.55377e-17
8.38895e-18
1.00128e-18
2.55705e-19
4.09305e-19
7.48392e-19
1.23913e-18
2.34094e-18
6.45345e-18
2.63311e-17
6.64684e-17
2.62178e-16
1.81164e-15
5.40826e-14
2.93704e-12
9.22577e-11
1.35466e-09
1.58907e-08
1.20657e-07
6.1709e-07
2.30629e-06
6.50137e-06
1.48049e-05
4.95602e-05
0.000314508
0.00127359
0.00294893
0.00482944
0.00659893
0.00804662
0.00876812
0.00875974
0.00784706
0.00850033
0.00826402
0.00884838
0.00594335
0.00716352
0.00610949
0.00754743
0.00605459
0.00777931
0.00574753
0.00773194
0.00498926
0.00721982
0.00366839
0.0060729
0.00199707
0.00436253
0.000744799
0.00217945
0.000157492
0.000727126
1.25512e-05
0.000115891
4.77669e-06
1.25344e-08
1.35156e-06
3.02927e-07
9.59558e-11
2.30409e-09
8.64608e-16
7.80185e-16
3.25718e-16
1.67132e-16
3.83068e-17
4.25645e-18
8.90125e-19
1.01842e-18
2.42205e-18
3.68203e-18
6.5284e-18
2.08025e-17
7.37071e-17
2.74608e-16
8.57173e-16
4.54063e-15
6.77666e-14
3.64609e-12
2.17737e-10
6.23594e-09
6.94597e-08
5.32568e-07
2.84683e-06
1.1054e-05
3.00415e-05
5.93252e-05
0.000126808
0.000477855
0.00164644
0.00370721
0.00574366
0.00700897
0.00789813
0.00868873
0.0085295
0.0090383
0.00884199
0.00913209
0.00912128
0.00953298
0.00948405
0.00872009
0.00930046
0.00915314
0.00980861
0.00948076
0.0102864
0.00951308
0.0107016
0.00889426
0.0108676
0.00726134
0.010515
0.00501561
0.00849422
0.00231699
0.00546762
0.000641784
0.00226116
5.91742e-05
0.00046845
2.1304e-05
6.07042e-08
5.56045e-06
8.59098e-07
4.01307e-09
1.92885e-08
1.76709e-15
9.78099e-16
4.32225e-16
1.40771e-16
1.73626e-17
3.04801e-18
2.33585e-18
7.16543e-18
1.14289e-17
1.63451e-17
5.48497e-17
1.94118e-16
7.14967e-16
3.12782e-15
1.53537e-14
1.19083e-13
3.55826e-12
2.678e-10
1.54259e-08
2.42137e-07
2.17405e-06
1.20353e-05
4.58979e-05
0.000118245
0.000203287
0.000317661
0.000740975
0.00199457
0.00422486
0.00597657
0.00688891
0.00748251
0.00718658
0.00839887
0.00738536
0.00862434
0.00783268
0.00937516
0.009127
0.00974213
0.00941226
0.00999876
0.00991559
0.0105172
0.0104192
0.0110959
0.0109637
0.0116639
0.0116301
0.0119809
0.0123376
0.0117334
0.0129095
0.00958125
0.0127593
0.00582834
0.0102946
0.00203167
0.00567184
0.000223442
0.0015387
7.83759e-05
2.12601e-07
5.32819e-06
2.19447e-05
1.13588e-05
1.54226e-06
7.14551e-06
2.1034e-11
1.5514e-08
8.68659e-10
2.45007e-15
1.03011e-15
3.34925e-16
8.86566e-17
1.55671e-17
9.17783e-18
1.81952e-17
3.2659e-17
6.03134e-17
2.00792e-16
5.4638e-16
2.42527e-15
1.15315e-14
5.64791e-14
3.51359e-13
4.06116e-12
2.35002e-10
1.91864e-08
4.33537e-07
5.70595e-06
3.87295e-05
0.000152126
0.000363793
0.000568689
0.000716729
0.00110125
0.00233829
0.00452431
0.00588025
0.0065566
0.00659906
0.00531955
0.0046989
0.00340152
0.00685004
0.00573227
0.00681465
0.00574571
0.00876602
0.00785714
0.00886406
0.00777928
0.0101826
0.00971356
0.0107156
0.0101225
0.0113891
0.010806
0.01215
0.011665
0.0128987
0.0125771
0.0137249
0.0134855
0.0136803
0.0145214
0.0108919
0.0125787
0.0143487
0.00314397
0.00557386
0.0111067
0.00781464
0.000293505
0.000834053
0.00478034
0.00210519
0.00475321
0.000554959
0.000380587
8.98226e-05
1.30207e-07
9.60802e-07
2.84793e-06
5.41623e-05
3.09197e-05
1.30343e-05
2.37078e-09
4.8898e-12
2.31002e-10
3.39218e-08
2.73367e-15
1.06841e-15
2.13907e-16
4.58898e-17
2.61474e-17
4.3984e-17
8.61324e-17
1.69601e-16
5.19118e-16
2.24352e-15
8.77564e-15
4.32436e-14
2.21658e-13
1.26862e-12
8.64757e-12
1.83661e-10
1.72767e-08
5.15716e-07
8.95016e-06
7.58497e-05
0.000316831
0.000721884
0.00103479
0.00120543
0.0015775
0.00272264
0.0046414
0.00567905
0.00597154
0.00513767
0.00307738
0.00249965
0.00157878
0.0026005
0.0016741
0.00466217
0.00360543
0.00449438
0.0035526
0.00661609
0.00551156
0.00633598
0.00511437
0.00906105
0.00770603
0.00959373
0.0078932
0.0105298
0.0085727
0.011677
0.00996048
0.0129638
0.0116224
0.0141791
0.013299
0.0148892
0.0150775
0.0149873
0.0147222
0.0129509
0.0149205
0.0142471
0.015162
0.00777737
0.0132113
0.0108515
0.00167966
0.00772095
0.00406278
0.007072
0.00126588
0.000856484
0.000233025
3.31627e-07
2.14897e-06
5.39716e-06
0.000136831
6.93667e-05
3.20247e-05
4.41391e-09
2.34073e-11
7.03787e-10
5.78131e-08
2.70592e-15
6.47199e-16
1.48823e-16
6.73804e-17
9.70662e-17
1.74105e-16
4.9171e-16
1.35089e-15
6.35444e-15
3.1e-14
1.6389e-13
9.06384e-13
4.85705e-12
2.8645e-11
2.36559e-10
1.0441e-08
4.89569e-07
1.02948e-05
0.000106313
0.000483771
0.00109596
0.00154488
0.00177288
0.00212106
0.00317866
0.00469906
0.00543631
0.00541026
0.00387045
0.00168089
0.000513259
0.00098568
0.000471957
0.001031
0.00053159
0.00264224
0.00176017
0.00246517
0.00169769
0.00409249
0.00324427
0.00364018
0.00277487
0.00619396
0.00475008
0.00650385
0.00471547
0.00756452
0.00538808
0.00930886
0.00688648
0.0113926
0.00891568
0.0141863
0.0131771
0.0122961
0.0110543
0.0153482
0.0152183
0.0149438
0.0143025
0.0149261
0.0157055
0.0154951
0.0156108
0.0107556
0.0150163
0.0132603
0.00332586
0.0103017
0.00639702
0.00981921
0.00248722
0.00176577
0.000540847
5.69833e-07
1.29711e-05
4.59597e-06
0.000311235
0.00016529
7.80728e-05
1.24558e-08
9.13737e-11
2.335e-09
1.54043e-07
2.10486e-15
3.73276e-16
1.69369e-16
2.71578e-16
4.58911e-16
1.33128e-15
4.51446e-15
2.07061e-14
1.09105e-13
6.04444e-13
3.51899e-12
1.84467e-11
1.0604e-10
6.24199e-10
7.77832e-09
3.45491e-07
9.84776e-06
0.00012046
0.000616002
0.00144138
0.00206096
0.00237613
0.00275388
0.0037064
0.00475228
0.00521982
0.00491223
0.00306464
0.00111631
0.000291846
5.91866e-05
3.56815e-05
0.000246709
9.60028e-05
0.000261232
0.000106503
0.00103945
0.000562465
0.000964012
0.000560053
0.00209076
0.00147276
0.00172235
0.00122715
0.00336186
0.00240164
0.00370703
0.00254966
0.00491816
0.00343563
0.00683355
0.00509148
0.0102361
0.00901447
0.00824534
0.00713924
0.0133561
0.0123573
0.0113281
0.01033
0.0154675
0.0151714
0.0145051
0.0135891
0.0158693
0.0158503
0.0160738
0.0157087
0.013055
0.0159996
0.0149699
0.00553886
0.0128348
0.00911585
0.0123892
0.00450525
0.00334563
0.00115448
1.50552e-06
3.24513e-05
1.21109e-05
0.000695015
0.000379682
0.000186754
3.70915e-08
3.51276e-10
7.86137e-09
4.3577e-07
1.36478e-15
5.33645e-16
5.90385e-16
1.39323e-15
3.69155e-15
1.27118e-14
6.64619e-14
3.68674e-13
2.15547e-12
1.30834e-11
6.99957e-11
3.99612e-10
2.20483e-09
1.29428e-08
2.34048e-07
7.55243e-06
0.000117206
0.000687478
0.00173031
0.00253751
0.00297246
0.00342614
0.00413467
0.00473915
0.00501978
0.00450493
0.00260607
0.00091793
0.00022736
1.8722e-05
8.95358e-06
3.07165e-06
4.16661e-05
1.63192e-05
4.97288e-05
2.04804e-05
0.000279605
0.000122402
0.0002998
0.000147636
0.000846643
0.000534975
0.000806912
0.000532428
0.00174442
0.00118983
0.00234878
0.00158295
0.00366261
0.00256666
0.00645048
0.00550329
0.00425379
0.00933675
0.0084061
0.00750803
0.00666595
0.0126217
0.0116406
0.0106714
0.0097259
0.015412
0.0147512
0.013868
0.012951
0.0162854
0.0159461
0.0161882
0.015662
0.0149302
0.0164806
0.0160949
0.00822276
0.0147387
0.0117835
0.0144319
0.00709826
0.00575232
0.00228699
4.09229e-06
8.17915e-05
3.15831e-05
0.00144758
0.000823729
0.000420944
1.13847e-07
1.28997e-09
2.56268e-08
1.25201e-06
2.03026e-15
1.96955e-15
3.36841e-15
1.0648e-14
3.73708e-14
2.0247e-13
1.19532e-12
7.32644e-12
4.70424e-11
2.61439e-10
1.50844e-09
8.1526e-09
4.08758e-08
2.5732e-07
4.97881e-06
0.000105278
0.00069557
0.00191851
0.00296948
0.00353098
0.00395043
0.00438689
0.00470391
0.00482226
0.00411899
0.00235093
0.00083552
0.000205988
2.13903e-05
1.93301e-06
1.63514e-06
3.19479e-06
1.94633e-06
9.43546e-06
5.0405e-06
1.48886e-05
8.12657e-06
6.64917e-05
3.00455e-05
9.57138e-05
4.79634e-05
0.000330256
0.000186047
0.000421485
0.000253267
0.0010483
0.000673809
0.00176459
0.00119126
0.00308428
0.00219329
0.00588131
0.0051381
0.00361935
0.00430569
0.00881788
0.00795178
0.00712541
0.00633744
0.0120191
0.0110974
0.0102059
0.00934322
0.0150349
0.0142036
0.013336
0.0124719
0.0164359
0.0159208
0.0161944
0.0153492
0.0160966
0.0166699
0.0166482
0.0109815
0.0160335
0.0139924
0.0158752
0.00989303
0.00855175
0.00422986
1.09676e-05
0.000192161
7.75897e-05
0.00275827
0.00165112
0.000877543
3.50457e-07
4.45387e-09
7.93306e-08
3.63167e-06
1.08267e-14
1.18485e-14
2.81647e-14
1.07234e-13
5.94556e-13
3.67465e-12
2.38799e-11
1.60732e-10
9.53252e-10
5.61646e-09
3.03266e-08
1.47071e-07
6.21535e-07
4.3975e-06
7.96905e-05
0.000669079
0.00198029
0.00327873
0.00390494
0.00421799
0.00444201
0.00462685
0.0045596
0.00369971
0.00205838
0.00075865
0.000181853
1.99981e-05
1.01152e-06
1.18526e-06
7.28721e-07
2.19448e-06
1.51654e-06
4.77861e-06
3.10494e-06
8.74174e-06
5.46878e-06
2.50576e-05
1.42442e-05
4.38496e-05
2.5328e-05
0.000144604
7.9378e-05
0.000260841
0.000144047
0.000770251
0.000462263
0.00153282
0.00103968
0.0031504
0.00261662
0.00187007
0.00226674
0.0055973
0.00490912
0.00356078
0.00413981
0.00850558
0.00769507
0.00690908
0.00615018
0.0116288
0.0107955
0.00996908
0.00915317
0.0145764
0.0137828
0.0130043
0.0122269
0.0164679
0.015684
0.0160357
0.0149877
0.0167717
0.0167274
0.0168987
0.0133424
0.0168355
0.0155951
0.0168079
0.0124475
0.0112814
0.00691004
2.85202e-05
0.0004179
0.000174286
0.00494214
0.00304403
0.00170043
1.09837e-06
1.40005e-08
2.58471e-07
1.0334e-05
6.92671e-14
8.67424e-14
3.62949e-13
1.5803e-12
1.09091e-11
7.34519e-11
5.26275e-10
3.29919e-09
2.0463e-08
1.1066e-07
5.51848e-07
2.03814e-06
6.46046e-06
6.66047e-05
0.000589615
0.00196714
0.00342125
0.0040823
0.00430598
0.00441795
0.0044575
0.0041222
0.00313562
0.00163183
0.000616961
0.000139802
1.54408e-05
8.80745e-07
3.94266e-07
2.23645e-07
9.48292e-07
5.58967e-07
1.83645e-06
1.35108e-06
3.47306e-06
2.38212e-06
6.61122e-06
4.3193e-06
1.55111e-05
9.96521e-06
2.87796e-05
1.81387e-05
8.08565e-05
4.70805e-05
0.000196599
0.000104015
0.000660872
0.000377508
0.00145267
0.000988732
0.00305291
0.00259926
0.00187682
0.00221247
0.00543238
0.00476046
0.00352176
0.00408373
0.00835146
0.00756871
0.00680493
0.00606513
0.0114487
0.0106708
0.00987924
0.00908597
0.014284
0.013575
0.0128673
0.0121408
0.0163873
0.0154191
0.0158575
0.0147956
0.0171005
0.0167195
0.0170014
0.015152
0.0172684
0.0166929
0.0173812
0.014514
0.0135889
0.00973044
6.69481e-05
0.000828358
0.000352226
0.00771998
0.00529528
0.00302112
3.45981e-06
7.32296e-08
9.67431e-07
2.53692e-05
4.2222e-13
7.69268e-13
4.04871e-12
2.85265e-11
2.19171e-10
1.60419e-09
1.10267e-08
7.02004e-08
4.10755e-07
1.97726e-06
6.48998e-06
1.63485e-05
6.88018e-05
0.000517289
0.00189054
0.00343957
0.00413648
0.00430261
0.00432245
0.00411079
0.00346431
0.00237199
0.00118539
0.000434097
8.72603e-05
9.25511e-06
5.84127e-07
1.22044e-07
2.43249e-07
1.88213e-07
5.86468e-07
3.93292e-07
1.64058e-06
1.02141e-06
2.79083e-06
2.02291e-06
5.21598e-06
3.35985e-06
1.19314e-05
8.03839e-06
2.32122e-05
1.49656e-05
5.95422e-05
3.64125e-05
0.000174835
9.12275e-05
0.000624165
0.000349779
0.00159901
0.00129896
0.00111068
0.000870469
0.00302052
0.00257834
0.00186946
0.00219653
0.00536065
0.00469895
0.00352685
0.00407865
0.00830036
0.00752893
0.00677376
0.00604167
0.0113994
0.0106528
0.00990499
0.00914939
0.0141668
0.0135096
0.0128501
0.0121981
0.0162709
0.0153035
0.015789
0.0147344
0.0172587
0.0166548
0.0170257
0.0164512
0.0174915
0.0174032
0.0176843
0.0160382
0.0153741
0.0122725
0.000131697
0.00151666
0.000637384
0.0104101
0.00800181
0.00505895
8.59399e-06
8.90511e-07
2.67817e-06
4.72802e-05
2.8617e-12
9.35008e-12
7.39848e-11
5.64915e-10
4.78613e-09
3.54116e-08
2.37257e-07
1.41361e-06
6.54027e-06
2.09428e-05
4.68924e-05
0.000101018
0.000487117
0.00173924
0.00340602
0.00412508
0.00426921
0.00408964
0.0035173
0.0026164
0.00156824
0.00076424
0.000260611
4.7103e-05
4.44901e-06
3.10278e-07
5.91309e-08
5.90546e-08
2.0406e-07
1.41153e-07
4.49502e-07
3.13295e-07
1.15397e-06
7.04417e-07
2.24551e-06
1.7852e-06
4.17414e-06
2.65078e-06
9.9092e-06
6.57448e-06
2.07558e-05
1.31402e-05
5.26252e-05
3.26145e-05
0.000171721
8.88722e-05
0.000625879
0.000348939
0.00160646
0.00135801
0.00113276
0.000936311
0.00303435
0.00260033
0.00189462
0.00222288
0.00534406
0.0046869
0.0036272
0.00418023
0.00838671
0.00762649
0.0068757
0.00614415
0.0115348
0.0108461
0.0101288
0.00938718
0.0141618
0.0136085
0.0130549
0.0124791
0.0162342
0.0152894
0.0158158
0.0148227
0.0173197
0.0166451
0.017012
0.0173245
0.0176036
0.0178222
0.0178546
0.0171117
0.0166822
0.0143208
0.000232453
0.00256134
0.00110266
0.012792
0.0105919
0.00757676
1.25334e-05
6.47252e-08
8.73868e-07
6.64335e-05
2.71043e-11
1.38642e-10
1.50293e-09
1.21182e-08
1.04916e-07
7.24541e-07
4.6016e-06
2.15391e-05
6.42251e-05
0.000127868
0.000207343
0.000502422
0.00159171
0.00328882
0.00408663
0.00418821
0.00376541
0.0028874
0.00182334
0.00096991
0.000432667
0.000129747
2.23499e-05
1.86549e-06
1.42079e-07
2.72929e-08
2.43811e-08
5.31448e-08
1.04662e-07
2.34163e-08
1.43471e-07
3.77339e-07
2.35676e-07
8.80746e-07
5.6594e-07
2.01101e-06
1.4672e-06
3.60934e-06
2.32932e-06
8.63229e-06
5.72772e-06
1.97387e-05
1.22685e-05
5.0951e-05
3.15037e-05
0.000201222
9.4351e-05
0.000806679
0.000600806
0.000322224
0.000475861
0.00168362
0.00142241
0.00119139
0.000984629
0.00313338
0.00269662
0.00197918
0.00231418
0.00544638
0.00478971
0.00384602
0.00441068
0.00863141