/*--------------------------------*- C++ -*----------------------------------*\
  =========                 |
  \\      /  F ield         | OpenFOAM: The Open Source CFD Toolbox
   \\    /   O peration     | Website:  https://openfoam.org
    \\  /    A nd           | Version:  dev
     \\/     M anipulation  |
\*---------------------------------------------------------------------------*/
FoamFile
{
    version     2.0;
    format      ascii;
    class       volScalarField;
    location    "2500";
    object      k;
}
// * * * * * * * * * * * * * * * * * * * * * * * * * * * * * * * * * * * * * //

dimensions      [0 2 -2 0 0 0 0];

internalField   nonuniform List<scalar> 
9714
(
0.000171384
0.000223568
0.000146111
0.000177585
0.000303364
0.000122529
0.000137786
0.000362721
0.000244162
0.000113296
0.000120846
0.000339953
0.000351382
0.00016644
0.000111369
0.000111114
0.000267842
0.000416839
0.00027522
0.000138767
0.000107466
0.000106514
0.000194962
0.000430943
0.000381778
0.000186194
0.000127528
0.000105291
0.000103927
0.000157912
0.0003996
0.000437985
0.000279045
0.000149787
0.00011935
0.000103984
0.000102566
0.000133304
0.000321266
0.000480193
0.000384037
0.000193155
0.00013424
0.00011376
0.000103002
0.000101766
0.00012042
0.000229245
0.000477543
0.000457708
0.00026517
0.000155933
0.000124432
0.000109923
0.000102257
0.000101275
0.000113204
0.000181697
0.00044264
0.000496162
0.000368348
0.000188771
0.000138044
0.000117673
0.000107236
0.000101681
0.000100931
0.00010925
0.000150289
0.000361463
0.000527323
0.000451191
0.000250006
0.000154943
0.000126636
0.000112879
0.000105276
0.000101228
0.000100659
0.00010687
0.000132913
0.000259135
0.000522167
0.000509648
0.000334001
0.000182964
0.000137917
0.0001191
0.000109274
0.000103759
0.000100871
0.000100451
0.000105236
0.000122913
0.000205644
0.000487581
0.000541797
0.000431096
0.000229891
0.000151916
0.000126893
0.000113752
0.000106603
0.000102567
0.000100577
0.000100298
0.000104001
0.000116774
0.000170727
0.000408296
0.00057059
0.0005003
0.000299943
0.000174665
0.000135427
0.000118976
0.000109834
0.000104576
0.000101636
0.000100325
0.000100159
0.000103023
0.000112791
0.000148278
0.000308742
0.000566954
0.000552811
0.000385231
0.000210291
0.000147968
0.000124896
0.000113325
0.000106831
0.000102995
0.00010091
0.00010011
9.99336e-05
0.000102158
0.000109913
0.000134743
0.000239457
0.000539473
0.000581567
0.000474891
0.000266859
0.000164425
0.000132547
0.000117571
0.000109217
0.000104496
0.00010172
0.000100338
9.99428e-05
9.96568e-05
0.00010134
0.000107632
0.000126074
0.000198037
0.000471241
0.000609448
0.000538581
0.000337315
0.000193489
0.000142037
0.000122429
0.000112274
0.000106093
0.000102645
0.000100685
9.98566e-05
9.98142e-05
9.94353e-05
0.000100708
0.000105752
0.000120228
0.000170007
0.000377446
0.000614452
0.00058744
0.00042076
0.000234489
0.000155954
0.000128789
0.000115558
0.000108299
0.000103624
0.00010116
9.98802e-05
9.94726e-05
9.97048e-05
9.92418e-05
0.000100236
0.000104228
0.000116038
0.000152223
0.00028803
0.00059672
0.000617004
0.000500896
0.000294179
0.000176764
0.000136408
0.00011977
0.000110629
0.000105133
0.000101681
9.99738e-05
9.92039e-05
9.91527e-05
9.96166e-05
9.90514e-05
9.9819e-05
0.000103088
0.00011277
0.000140613
0.000237902
0.000548473
0.000644213
0.000567195
0.000361124
0.000208792
0.000147522
0.000124835
0.000113389
0.000106736
0.000102621
0.000100177
9.89995e-05
9.86561e-05
9.88805e-05
9.9542e-05
9.89217e-05
9.93917e-05
0.000102147
0.000110365
0.000132707
0.000205308
0.000464535
0.000662861
0.000614449
0.000439845
0.000252712
0.000162973
0.000131277
0.000117007
0.000108634
0.000103633
0.000100617
9.90077e-05
9.82538e-05
9.82044e-05
9.86728e-05
9.9488e-05
9.89395e-05
9.89979e-05
0.000101246
0.000108572
0.000127331
0.000182661
0.000379294
0.000654752
0.000653401
0.000512741
0.000308687
0.000185982
0.000139714
0.000121053
0.00011121
0.000104944
0.000101189
9.91111e-05
9.79848e-05
9.76288e-05
9.78477e-05
9.85006e-05
9.94499e-05
9.89425e-05
9.84222e-05
0.000100407
0.000107101
0.000123741
0.000167608
0.000306177
0.000628073
0.000678788
0.000585376
0.000372705
0.000217987
0.000151375
0.000126246
0.000113943
0.000106733
0.000102053
9.93767e-05
9.79129e-05
9.71744e-05
9.71302e-05
9.75692e-05
9.83652e-05
9.94237e-05
9.89219e-05
9.78894e-05
9.96172e-05
0.000105829
0.00012127
0.000157765
0.000263838
0.000574316
0.000698305
0.000636568
0.000438901
0.000261278
0.000167337
0.000133122
0.000117274
0.00010865
0.000103297
9.9902e-05
9.79972e-05
9.68821e-05
9.65379e-05
9.67317e-05
9.7359e-05
9.82731e-05
9.93968e-05
9.88901e-05
9.74524e-05
9.89404e-05
0.000104794
0.000119524
0.000151391
0.000236596
0.000503426
0.00070387
0.000673779
0.000512803
0.000310684
0.000190768
0.000141347
0.00012182
0.000110954
0.000104667
0.000100712
9.82355e-05
9.67998e-05
9.60999e-05
9.60538e-05
9.64446e-05
9.72118e-05
9.82072e-05
9.93788e-05
9.88389e-05
9.70784e-05
9.84186e-05
0.000103976
0.000118281
0.000147435
0.000218422
0.000435944
0.000695384
0.000698124
0.000576212
0.000368837
0.000220689
0.000153175
0.000126777
0.000114052
0.000106335
0.000101672
9.87404e-05
9.68815e-05
9.58109e-05
9.5504e-05
9.56911e-05
9.62398e-05
9.7102e-05
9.82044e-05
9.93726e-05
9.87625e-05
9.67556e-05
9.80034e-05
0.000103447
0.000117614
0.000146654
0.000205714
0.000379842
0.000673338
0.000716526
0.000632449
0.000429381
0.000259031
0.000168612
0.00013344
0.000117351
0.0001085
0.000102915
9.93992e-05
9.71096e-05
9.57965e-05
9.51615e-05
9.50834e-05
9.54231e-05
9.61122e-05
9.70895e-05
9.82553e-05
9.93805e-05
9.86677e-05
9.65394e-05
9.76834e-05
0.000103192
0.000117554
0.00014728
0.000198323
0.000335284
0.000636834
0.000731847
0.000671261
0.00048573
0.000304842
0.00018975
0.000141462
0.000121625
0.000110844
0.00010449
0.00010028
9.75564e-05
9.58916e-05
9.49728e-05
9.46704e-05
9.47621e-05
9.5288e-05
9.61174e-05
9.714e-05
9.83665e-05
9.94178e-05
9.85486e-05
9.64055e-05
9.75296e-05
0.000103357
0.000118125
0.00014924
0.000194948
0.000306159
0.000595485
0.000740153
0.000701203
0.000542577
0.000351641
0.000217233
0.000152339
0.000126474
0.00011372
0.000106182
0.000101433
9.81633e-05
9.61316e-05
9.50174e-05
9.44031e-05
9.43047e-05
9.4601e-05
9.53241e-05
9.62619e-05
9.72943e-05
9.85523e-05
9.95211e-05
9.8411e-05
9.63868e-05
9.75638e-05
0.000103805
0.000119767
0.000152851
0.000195734
0.000288485
0.000547388
0.000738758
0.000725138
0.000593105
0.000399882
0.000249611
0.00016647
0.000132593
0.000117031
0.000108148
0.000102666
9.90061e-05
9.66154e-05
9.51832e-05
9.44203e-05
9.40199e-05
9.41517e-05
9.468e-05
9.54821e-05
9.65492e-05
9.75785e-05
9.87743e-05
9.96735e-05
9.82772e-05
9.64754e-05
9.78145e-05
0.000104862
0.000122455
0.000157538
0.000197632
0.000277276
0.000501203
0.000730733
0.000738882
0.000638158
0.000445824
0.000285768
0.000184778
0.000139867
0.000120888
0.000110503
0.000104077
9.99813e-05
9.72466e-05
9.55517e-05
9.45318e-05
9.40152e-05
9.38604e-05
9.42673e-05
9.49799e-05
9.58581e-05
9.70591e-05
9.816e-05
9.92e-05
9.99337e-05
9.81464e-05
9.6644e-05
9.83515e-05
0.000106527
0.000126844
0.000162941
0.000200218
0.000269355
0.000460014
0.000713201
0.000750065
0.000677104
0.000489214
0.000323013
0.000207064
0.000149345
0.000125139
0.000113146
0.000105761
0.000101103
9.81053e-05
9.60596e-05
9.47974e-05
9.41004e-05
9.38736e-05
9.40581e-05
9.45704e-05
9.54627e-05
9.64524e-05
9.77339e-05
9.89973e-05
0.000100021
0.000100223
9.8047e-05
9.69607e-05
9.92424e-05
0.000108949
0.000132566
0.000168079
0.000202911
0.000263533
0.000425062
0.000686934
0.000758201
0.000703562
0.000530468
0.000360478
0.000232419
0.000161224
0.000130453
0.000115941
0.000107689
0.000102404
9.89936e-05
9.67984e-05
9.52565e-05
9.43229e-05
9.39801e-05
9.40904e-05
9.45582e-05
9.5328e-05
9.6415e-05
9.76693e-05
9.90683e-05
0.000100386
0.000101114
0.000100372
0.000101068
9.80372e-05
9.74315e-05
0.000100538
0.000112648
0.000139266
0.000172773
0.000205009
0.000258824
0.000395628
0.000657141
0.000761566
0.00072298
0.000570393
0.000395981
0.000260072
0.000175873
0.000136766
0.000119301
0.000109676
0.000103777
0.000100106
9.75111e-05
9.5911e-05
9.47926e-05
9.42387e-05
9.42262e-05
9.46455e-05
9.54091e-05
9.64977e-05
9.78432e-05
9.93739e-05
0.000100906
0.00010139
0.000101848
0.00010173
0.000102041
0.000102436
0.000100443
0.000101227
9.81062e-05
9.79561e-05
0.000102441
0.000118044
0.00014659
0.000177011
0.000206248
0.000254552
0.000371119
0.000625638
0.000760354
0.000737567
0.000605662
0.000430029
0.000288698
0.000192878
0.000144716
0.000123007
0.000112007
0.000105328
0.000101115
9.84806e-05
9.65997e-05
9.54008e-05
9.4702e-05
9.45804e-05
9.48673e-05
9.56218e-05
9.68274e-05
9.82004e-05
0.000100056
0.000102151
0.000102326
0.000103031
0.000102728
0.000102041
0.000103264
0.00010282
0.000100463
0.000101365
9.82112e-05
9.86056e-05
0.000105094
0.000125034
0.000153114
0.000180415
0.000206693
0.000250409
0.00035302
0.000594953
0.000756662
0.00074732
0.000636975
0.000462179
0.000317461
0.000211777
0.000154104
0.000127495
0.000114525
0.000107027
0.000102326
9.93769e-05
9.74536e-05
9.61307e-05
9.53394e-05
9.50589e-05
9.53904e-05
9.60407e-05
9.72603e-05
9.91247e-05
0.000100864
0.00010314
0.000103634
0.000104568
0.000103505
0.000104272
0.000104087
0.000102305
0.000103661
0.000103177
0.000100516
0.000101507
9.83904e-05
9.96071e-05
0.000108665
0.000132722
0.000157986
0.000182592
0.000206405
0.00024637
0.000338924
0.000563891
0.000749189
0.000753946
0.000663708
0.00049146
0.000345471
0.000232535
0.000164774
0.00013267
0.000117347
0.000108835
0.000103535
0.00010033
9.82653e-05
9.69454e-05
9.61121e-05
9.58219e-05
9.59699e-05
9.68019e-05
9.82593e-05
9.98481e-05
0.000102518
0.000105123
0.000105263
0.000106337
0.000105134
0.000105952
0.000104889
0.00010575
0.000104567
0.000102605
0.000104119
0.000103543
0.00010057
0.000101646
9.86578e-05
0.000101119
0.000113513
0.000140131
0.000161793
0.000183557
0.000205392
0.000242374
0.000327247
0.000534917
0.000738241
0.000758816
0.00068803
0.000518541
0.000371993
0.000254019
0.000177149
0.000138657
0.00012043
0.000110741
0.000104673
0.000101198
9.90628e-05
9.77866e-05
9.69699e-05
9.67396e-05
9.68505e-05
9.75627e-05
9.90298e-05
0.000101683
0.000103749
0.000106812
0.000107128
0.000108441
0.000106907
0.000107849
0.000106658
0.000107549
0.000105465
0.000106426
0.00010513
0.000102934
0.000104648
0.000103935
0.000100613
0.000101843
9.90518e-05
0.00010317
0.000120397
0.000146742
0.000164729
0.000183643
0.000204038
0.00023861
0.000317282
0.000508996
0.000724923
0.00076376
0.000705839
0.000542797
0.000396625
0.00027588
0.000191042
0.000145569
0.000124081
0.000112543
0.000106039
0.000101931
9.98098e-05
9.85622e-05
9.80395e-05
9.77943e-05
9.80728e-05
9.8764e-05
0.000100158
0.00010257
0.00010634
0.000108957
0.000109218
0.000110555
0.000108943
0.00010998
0.000108504
0.000109561
0.00010747
0.000108423
0.000106155
0.000107241
0.000105721
0.000103258
0.000105249
0.00010444
0.000100653
0.000102087
9.95694e-05
0.000105985
0.000128194
0.000151915
0.000166856
0.000183214
0.000202559
0.000235341
0.000308943
0.00048641
0.000710453
0.000768443
0.000719805
0.000567666
0.000418746
0.000297558
0.000205976
0.00015381
0.000128134
0.00011507
0.000107205
0.000102795
0.00010035
9.93424e-05
9.90877e-05
9.90915e-05
9.95654e-05
0.00010033
0.000101718
0.000104429
0.000107601
0.000110915
0.000111386
0.000112926
0.000111186
0.000112326
0.000110621
0.000111819
0.000109552
0.000110701
0.000108397
0.000109524
0.000106946
0.000108146
0.000106375
0.000103582
0.00010587
0.000105035
0.000100697
0.000102369
0.000100116
0.000109906
0.000136283
0.000156596
0.000168342
0.000182677
0.000201248
0.000232706
0.000302383
0.000467484
0.000695722
0.000772701
0.00073204
0.00059095
0.000439048
0.000318263
0.000222036
0.000162998
0.000133164
0.000117564
0.000108944
0.00010359
0.000100831
9.98719e-05
0.000100003
0.000100676
0.000101266
0.000102394
0.000103901
0.000105679
0.000109118
0.00011282
0.000113899
0.000115109
0.000113621
0.000114889
0.000112988
0.000114379
0.000111955
0.000113278
0.000110783
0.000112131
0.000109448
0.000110848
0.000107879
0.000109128
0.000107228
0.000103955
0.000106582
0.000105719
0.000100755
0.000102652
0.000100811
0.000115244
0.000144589
0.000160985
0.000169814
0.00018237
0.000200275
0.000230662
0.000297591
0.000452587
0.00068165
0.000776507
0.00074341
0.000612945
0.000457954
0.000337462
0.000238632
0.000173185
0.000138797
0.000121235
0.000110784
0.000104599
0.000101206
0.000100159
0.000100831
0.000102297
0.0001039
0.000105136
0.000106852
0.000109448
0.00011262
0.00011744
0.00011677
0.000120572
0.000116319
0.000119243
0.00011562
0.000117767
0.000114726
0.000116233
0.000113616
0.00011507
0.000112166
0.000113977
0.00011078
0.000112211
0.000108868
0.000110423
0.000108198
0.000104454
0.00010739
0.000106332
0.000100771
0.000103064
0.000101713
0.000122001
0.00015259
0.000165167
0.000171688
0.00018241
0.000199813
0.000229475
0.00029408
0.000441677
0.000669353
0.000780127
0.000754261
0.000633865
0.000475426
0.000355146
0.000255064
0.000184304
0.00014544
0.000124937
0.000113477
0.000105872
0.000101687
0.000100374
0.000101415
0.000103974
0.000107008
0.000109975
0.000114689
0.000126728
0.000150458
0.000138363
0.000130622
0.000167063
0.00012675
0.000149181
0.000123175
0.000139193
0.000119656
0.000130005
0.000117098
0.000122558
0.000115321
0.000118048
0.000114141
0.000115662
0.00011219
0.00011421
0.000110097
0.000111821
0.000109444
0.000104736
0.000108536
0.000107375
0.000100985
0.000103124
0.000102728
0.000129049
0.000159607
0.000169537
0.000173946
0.000182997
0.000199829
0.000229222
0.000292037
0.000433695
0.000659635
0.000784047
0.000764972
0.000654184
0.00049194
0.000370823
0.000270923
0.000195989
0.000152554
0.000130143
0.000116562
0.000108049
0.000102652
0.00010063
0.000101757
0.000105577
0.000111069
0.000119033
0.000143378
0.000216356
0.000383648
0.000702795
0.000358562
5.26458e-06
0.000221324
0.000459165
0.00018997
0.000352193
0.000164607
0.000276212
0.000141735
0.000210858
0.000126573
0.000159825
0.000119087
0.000131488
0.000115928
0.000120005
0.000114216
0.000116041
0.000111338
0.000113962
0.000110523
0.000105508
0.000109229
0.000107922
0.000101084
0.000103403
0.000103666
0.000135471
0.000166164
0.000174063
0.000176649
0.000184265
0.000200428
0.000229398
0.000291349
0.000428104
0.000652087
0.000788642
0.000775716
0.000674711
0.000508164
0.000384703
0.000285449
0.000207835
0.000160613
0.000135476
0.000121096
0.000110969
0.00010448
0.000101312
0.000102232
0.000107045
0.000115641
0.000141662
0.000252639
0.00061837
0.00152225
0.00310335
0.00595448
0.00125358
0.00491829
0.000863624
0.00233115
0.000630197
0.00168134
0.00044517
0.00115378
0.000287269
0.000726191
0.000184645
0.000396232
0.000136594
0.000213064
0.000120582
0.000140571
0.000115888
0.000120547
0.000113443
0.00011548
0.000112547
0.000106158
0.000110742
0.000108733
0.000100903
0.000104102
0.00010427
0.000140316
0.000172232
0.000178302
0.000179871
0.000185903
0.000201927
0.00023017
0.000291456
0.000424192
0.000646236
0.0007939
0.000786862
0.000695158
0.000524551
0.000397218
0.000298596
0.000219061
0.000168616
0.000141883
0.000126499
0.000116128
0.000108501
0.000103571
0.000103439
0.000108747
0.000121731
0.000197538
0.000609473
0.0020022
0.00509396
0.0106008
0.0168984
0.01652
0.0227222
0.00549098
0.0114791
0.00423388
0.00955609
0.00309374
0.00736369
0.00207711
0.00513959
0.00114081
0.00331427
0.00053271
0.00166454
0.000240685
0.000674373
0.000142203
0.000258918
0.000119915
0.000140531
0.000114806
0.000118831
0.000113964
0.000106399
0.000112428
0.00011041
0.000100794
0.000104252
0.00010409
0.000142761
0.00017632
0.000182214
0.000182903
0.000188172
0.0002041
0.00023223
0.000292173
0.000421595
0.00064155
0.000799339
0.000798752
0.000715702
0.000541659
0.000408651
0.000310319
0.00022949
0.000176344
0.000148244
0.000133684
0.000124012
0.000115957
0.00011026
0.000107265
0.000113297
0.000134677
0.000316115
0.00151588
0.00538175
0.01315
0.0201571
0.0240355
0.0245182
0.0268618
0.0240447
0.025858
0.0159304
0.0210271
0.0138651
0.0195355
0.0113046
0.0174209
0.00829472
0.0148698
0.00480653
0.011294
0.00225764
0.00640328
0.000798041
0.00278026
0.000262074
0.000857972
0.00013604
0.000246334
0.000117425
0.000130405
0.000115649
0.000106893
0.000113765
0.000112153
0.000100569
0.0001032
0.000103318
0.000141693
0.00017762
0.000184462
0.000185314
0.000190631
0.000206559
0.000235364
0.000294477
0.000421674
0.000638528
0.000805077
0.000811895
0.00073511
0.000559868
0.000419721
0.000320642
0.000239127
0.000183274
0.000154507
0.000140819
0.000132913
0.000126435
0.000119651
0.000118446
0.000129666
0.000173045
0.00055799
0.00300898
0.0112971
0.0208034
0.024615
0.0243958
0.0240225
0.0261599
0.0247182
0.0252346
0.0244943
0.022711
0.0247697
0.0211041
0.0233574
0.0191322
0.0215356
0.016821
0.0193427
0.0135469
0.0170878
0.0080866
0.0142085
0.00315096
0.00911973
0.000838895
0.00324141
0.000217779
0.000735376
0.000124844
0.000186295
0.000120759
0.00010841
0.000119231
0.000120692
0.000101279
0.000106941
0.000113422
0.000138438
0.000175553
0.000184413
0.000186313
0.000192426
0.000209133
0.000239243
0.00029841
0.000423125
0.00063879
0.00081136
0.000826401
0.000753526
0.00057989
0.000431019
0.000330211
0.000247572
0.000189328
0.000158451
0.000144882
0.000139825
0.000137284
0.000137329
0.000150502
0.000193559
0.000329658
0.00107388
0.005618
0.0168158
0.0245653
0.025201
0.0232264
0.0206389
0.0193734
0.0192714
0.0225732
0.0202943
0.0215935
0.019776
0.0239962
0.0233547
0.0225346
0.0219726
0.0209107
0.0205211
0.0192861
0.0191372
0.0171164
0.0177486
0.0142681
0.0164014
0.00972909
0.0137815
0.00301545
0.00931202
0.000587711
0.00251165
0.000158074
0.000432498
0.000141394
0.000121509
0.000141669
0.000165855
0.000102365
0.000118837
0.000164058
0.000169742
0.00018169
0.000185912
0.00019307
0.000211289
0.000243229
0.000303223
0.000426511
0.000640495
0.000819277
0.000841911
0.000772006
0.000600529
0.000443051
0.000338538
0.000255819
0.000194785
0.000160563
0.000146286
0.000143113
0.000150398
0.000180133
0.000268933
0.000480935
0.000943593
0.00252746
0.00881548
0.0217793
0.0265029
0.0247765
0.0223469
0.0209254
0.0195125
0.0201431
0.0189463
0.0200217
0.0189257
0.0186753
0.0185094
0.0183304
0.0204222
0.0190999
0.0192779
0.0183567
0.018282
0.0176398
0.0172838
0.0169091
0.0163647
0.0162169
0.0153052
0.0153512
0.0130179
0.0141506
0.00849315
0.0120824
0.00187182
0.00707588
0.000293838
0.00125417
0.000215893
0.000181413
0.000212171
0.0002347
0.000152522
0.000243504
0.000185506
0.000176833
0.000183705
0.000193053
0.000212628
0.00024671
0.000308132
0.000432057
0.000644112
0.00082826
0.000859237
0.000790619
0.000622391
0.000455526
0.000347899
0.000263239
0.000199185
0.000162669
0.000146727
0.000146773
0.00018146
0.000319183
0.000733512
0.00161899
0.00304337
0.00589564
0.0148415
0.0245614
0.0267782
0.0235636
0.0218068
0.0226349
0.0270695
0.0226072
0.027864
0.0223122
0.0262991
0.018586
0.0197441
0.0183949
0.0196271
0.018022
0.0180494
0.0175376
0.0177101
0.0169565
0.017287
0.016312
0.0167611
0.0155459
0.0161286
0.0144631
0.0152662
0.0131062
0.0139424
0.0110961
0.0122082
0.00506429
0.0100042
0.000720789
0.00331115
0.000400238
0.000224427
0.000251682
0.000286271
0.000253833
0.00022662
0.00021859
0.000102098
0.00012437
0.000110804
0.000185475
0.000182224
0.000193124
0.000213877
0.000249593
0.000312674
0.000438281
0.000649747
0.00083935
0.00087801
0.000810734
0.000644257
0.000470559
0.000356249
0.000272942
0.000203673
0.000164704
0.000146966
0.000150926
0.000255081
0.000746412
0.00221555
0.00503219
0.00884267
0.013709
0.0206477
0.0265907
0.0264079
0.0227739
0.021751
0.0241474
0.0302092
0.032338
0.0320044
0.0293249
0.0315351
0.0270894
0.029425
0.0219684
0.0250667
0.0220754
0.0236068
0.0183786
0.0197466
0.0182563
0.0201932
0.0179584
0.0202945
0.0174903
0.0199669
0.0169114
0.0195656
0.0155883
0.0190091
0.0137217
0.0168379
0.0115071
0.0125547
0.0141464
0.00637319
0.00932777
0.0112297
0.00995674
0.00087854
0.0020759
0.008143
0.00451364
0.00770046
0.00140028
0.000939878
0.000402115
0.000125018
0.000127687
0.000175169
0.000310685
0.000232508
0.000172586
0.000106877
0.000101273
0.00010895
0.000114517
0.000191568
0.000195062
0.000216307
0.00025267
0.0003164
0.000444157
0.000657185
0.000852544
0.000899727
0.000831534
0.000667968
0.000484917
0.000368186
0.000281156
0.000210941
0.000166725
0.00014733
0.000153527
0.000337847
0.00147285
0.00499666
0.0111614
0.0173326
0.0215823
0.0247602
0.0270529
0.0254695
0.0223507
0.0221848
0.0256541
0.0296374
0.0299387
0.0267431
0.0280261
0.0224924
0.0307218
0.0302199
0.0273897
0.0266959
0.0251564
0.0269035
0.023794
0.0240382
0.0216714
0.0225365
0.0212898
0.0222766
0.0209385
0.0218492
0.0206055
0.0214517
0.020542
0.021193
0.0206089
0.0216056
0.0158691
0.0184311
0.0201093
0.0218301
0.0122128
0.0142962
0.0141149
0.0164065
0.00928335
0.0116737
0.0102656
0.0037323
0.00858419
0.00628666
0.00758425
0.00260232
0.00161807
0.00058693
0.00011752
0.000121415
0.000133832
0.00036146
0.000224007
0.000159535
0.000115452
0.00010207
0.000108949
0.000118665
0.000211142
0.000221561
0.000256437
0.000321243
0.000448769
0.000665245
0.000868868
0.000924351
0.00085544
0.000690552
0.000503313
0.000378169
0.000293484
0.000217925
0.000170674
0.000148086
0.000153639
0.000392191
0.00217884
0.00811446
0.0179013
0.0245353
0.0264066
0.0276579
0.0265435
0.023758
0.0220324
0.022898
0.0269152
0.0273088
0.0101482
0.0155991
0.00850491
0.0129196
0.00769604
0.0244768
0.0195463
0.0194706
0.0152908
0.0235406
0.0221678
0.0199223
0.0167704
0.0223836
0.0217204
0.0215773
0.0200738
0.0211482
0.0191939
0.0210074
0.0193053
0.0214016
0.0200812
0.0222313
0.0223115
0.0220857
0.0215329
0.0188544
0.02089
0.02212
0.0225919
0.0141113
0.0169225
0.0168329
0.0193058
0.00947267
0.0139012
0.0111464
0.00529048
0.00860507
0.00682751
0.00792055
0.00411924
0.00279297
0.00094258
0.000121379
0.000133587
0.000127803
0.000518815
0.000303979
0.000198888
0.000115091
0.000102336
0.000107734
0.000118795
0.000242168
0.000262674
0.00032689
0.000453993
0.000673644
0.000888167
0.000953684
0.00088106
0.000716875
0.00051859
0.000392683
0.000304355
0.000229958
0.000174097
0.000149782
0.000151813
0.000399433
0.00269218
0.0110485
0.023734
0.0291699
0.0297743
0.0276855
0.0253204
0.0227701
0.0222265
0.0243955
0.0284627
0.0245926
0.00621244
0.0015616
0.00113534
0.0043013
0.00207686
0.00346901
0.00182143
0.0101961
0.00632304
0.00722683
0.00472733
0.0136491
0.0101742
0.00884232
0.00648701
0.0165835
0.0125416
0.0150806
0.010466
0.0154241
0.0112714
0.0170266
0.0135353
0.0203299
0.0189486
0.0177967
0.0161222
0.0225534
0.0222172
0.0214364
0.0202627
0.0213063
0.022467
0.0228675
0.0227904
0.0170212
0.0195673
0.0197844
0.0215901
0.0104979
0.0168837
0.0135092
0.00595962
0.00983169
0.00710395
0.00894824
0.005011
0.0039845
0.00160375
0.000123203
0.000156348
0.000136651
0.000912085
0.000509864
0.00030307
0.00011352
0.000101923
0.00010643
0.000117829
0.00028266
0.000333168
0.000461115
0.000682012
0.000909953
0.000986929
0.000913615
0.000741602
0.000540027
0.00040316
0.000319576
0.000242
0.000182988
0.00015362
0.000150434
0.000370395
0.00287192
0.0133506
0.0279952
0.0321644
0.0308282
0.0269547
0.0238638
0.0226436
0.0231424
0.0279918
0.0306895
0.0224417
0.00486952
0.000733713
0.000538644
0.000413435
0.00104056
0.000661183
0.000948146
0.000671923
0.00274609
0.0015482
0.00209691
0.00132503
0.0047539
0.00326019
0.00360783
0.0024731
0.00743811
0.0052441
0.0082999
0.00592845
0.010673
0.00815728
0.01509
0.0135546
0.011508
0.0190885
0.0178457
0.0166517
0.0153759
0.0224339
0.0216738
0.0207174
0.0196672
0.0227566
0.0231604
0.0231051
0.022774
0.0198541
0.0218223
0.0219817
0.0230056
0.012977
0.0197543
0.0165618
0.00629483
0.0121605
0.00805146
0.0111897
0.00544742
0.00456701
0.0027992
0.000126481
0.000201416
0.000157211
0.00156973
0.000898351
0.00049859
0.000111984
0.000101347
0.000105078
0.000119224
0.000349762
0.00046704
0.000692386
0.000933435
0.00102729
0.000947741
0.000776445
0.000556746
0.000420752
0.000332902
0.000260121
0.000193998
0.000160492
0.000152774
0.000311372
0.0027918
0.014569
0.030846
0.0340868
0.0304678
0.025461
0.0232918
0.0230574
0.0254439
0.0324661
0.0342702
0.0205653
0.00428678
0.000725678
0.000398612
0.000393378
0.000427594
0.00040077
0.000539362
0.000465527
0.000591452
0.000527493
0.000887799
0.000685612
0.000870907
0.000706808
0.00169821
0.00117911
0.00185817
0.00126936
0.00412294
0.00279279
0.0061402
0.00448149
0.00929842
0.0073286
0.0142079
0.012977
0.0106166
0.0118158
0.0185615
0.0174362
0.0163096
0.0151451
0.0221071
0.0213163
0.0204322
0.0194566
0.0234501
0.0234333
0.023156
0.0226325
0.022058
0.0232151
0.0233852
0.0237203
0.0159803
0.0219897
0.019452
0.00714032
0.0151458
0.0101107
0.0140531
0.00617076
0.00520486
0.00367413
0.000138354
0.000296539
0.000208105
0.00261753
0.00147764
0.000823869
0.000112037
0.000100734
0.000105261
0.000129305
0.000478848
0.000702007
0.00095909
0.00106762
0.000995267
0.000808073
0.00058575
0.000431749
0.000351056
0.000277235
0.000212711
0.000169578
0.00016468
0.000289493
0.00243378
0.0147446
0.0324576
0.0352997
0.0294605
0.0245764
0.0234625
0.0244876
0.0301434
0.0363336
0.0354629
0.0175971
0.00388697
0.000684719
0.000385414
0.000389341
0.000381228
0.000413294
0.000398485
0.000475117
0.000437163
0.000544154
0.00050056
0.000624796
0.000580374
0.000669591
0.000620307
0.000933268
0.0007576
0.00134931
0.000950029
0.00313184
0.00207695
0.00563774
0.00415185
0.00968833
0.00859356
0.00677276
0.00777119
0.0140033
0.0128633
0.0110278
0.0120796
0.0184246
0.0173733
0.0163123
0.0152572
0.021978
0.0212308
0.0204242
0.0195966
0.0237638
0.0235599
0.0231369
0.0226371
0.0234856
0.0239529
0.0241343
0.024057
0.0189272
0.0234892
0.0217768
0.00894178
0.0180901
0.0127927
0.0169584
0.00771076
0.00642129
0.00422162
0.000175402
0.000479231
0.000313466
0.00324641
0.00224782
0.00128654
0.000123074
0.000101273
0.000115134
0.000172581
0.00071265
0.000983678
0.00111975
0.00103851
0.000859539
0.000606757
0.000452474
0.000365499
0.000303832
0.000233606
0.000188533
0.000197414
0.000330604
0.00224316
0.0143639
0.0329759
0.0358044
0.028544
0.0244168
0.0240009
0.0279469
0.0353096
0.0397268
0.0341729
0.0127928
0.00310155
0.000616225
0.000380635
0.000383981
0.000377528
0.000394126
0.000389655
0.000410187
0.000400403
0.000457924
0.000428107
0.000529875
0.000486642
0.000586215
0.000559896
0.000638248
0.000603135
0.000765843
0.000683631
0.00120502
0.000872008
0.00289837
0.00188685
0.00563113
0.00416242
0.00999627
0.00900462
0.00717085
0.00805699
0.0142004
0.013139
0.0116061
0.0126997
0.0187447
0.0178558
0.0169152
0.0159179
0.0221074
0.0215604
0.0209785
0.0203358
0.0239246
0.0236403
0.0233317
0.0230327
0.0242513
0.0243083
0.0244891
0.024245
0.0213318
0.0242799
0.0233535
0.011426
0.0205761
0.0156085
0.0195024
0.00992926
0.00841023
0.00516137
0.000265238
0.000755189
0.000474909
0.00394869
0.00282623
0.00183932
0.000190319
0.000108662
0.000188354
0.000296157
0.00101586
0.00115743
0.00110561
0.000902651
0.000649016
0.000465589
0.000383885
0.000323428
0.000259398
0.000229835
0.000284236
0.000556155
0.00236111
0.0136737
0.0328676
0.0357877
0.0278214
0.0245057
0.0252215
0.0312605
0.0379136
0.0396107
0.0294729
0.0094939
0.00204686
0.000525231
0.000372436
0.00037104
0.000387969
0.000379479
0.000402284
0.000394632
0.000412729
0.000406596
0.000448352
0.000425092
0.000516663
0.000474369
0.000574122
0.000550479
0.00063251
0.00059608
0.000735899
0.000673477
0.00118148
0.000863511
0.00289416
0.00186704
0.00676173
0.00577145
0.00512277
0.00425719
0.0105319
0.00949642
0.00759325
0.00851387
0.0148746
0.013797
0.0124151
0.0135702
0.0196113
0.0187985
0.0178929
0.0168998
0.0227265
0.0223848
0.021972
0.0214575
0.0240969
0.0239631
0.0238676
0.0237917
0.0245859
0.0244956
0.0246545
0.0244509
0.0230165
0.024607
0.0241976
0.0140943
0.0223418
0.0181769
0.0213658
0.0125473
0.0108573
0.00681749
0.000374502
0.00107038
0.000621535
0.00514683
0.0036005
0.00231702
0.000372335
0.000261859
0.000423108
0.00037024
0.00123418
0.00115345
0.000976988
0.000680628
0.000492519
0.000401034
0.000352664
0.000298599
0.00033012
0.000568563
0.00124867
0.00324552
0.0135937
0.0321329
0.0355996
0.0274417
0.0246252
0.0268149
0.0338459
0.0380844
0.0369901
0.0193394
0.00649186
0.00132611
0.000444346
0.000362362
0.000360552
0.000369685
0.000389414
0.00037996
0.000407201
0.000397626
0.000420481
0.000415189
0.000444492
0.000427245
0.00050636
0.000468204
0.000568119
0.000542782
0.000632146
0.000592501
0.000736707
0.000676521
0.00131697
0.000925262
0.00342352
0.00218097
0.00718598
0.00632411
0.00549897
0.00474985
0.0112766
0.0101729
0.00812519
0.00912088
0.015836
0.0147196
0.0135272
0.0147539
0.0208216
0.0200639
0.019185
0.0181962
0.0236881
0.0235218
0.0232527
0.0228593
0.0244555
0.0245332
0.0246552
0.0247801
0.024693
0.0246759
0.0247478
0.0247756
0.0239109
0.0246813
0.0245224
0.0167329
0.023304
0.0201509
0.022424
0.0151674
0.0133416
0.00890752
0.000406135
0.00135118
0.000698283
0.00677633
0.00486577
0.00302672
0.000366791
0.00010571
0.000136514
0.000263074
0.00126206
0.00102876
0.000743318
0.000511561
0.000422101
0.00037914
0.00038296
0.000642805
0.00147914
0.00304334
0.00610076
0.0145772
0.0308768
0.0350706
0.027204
0.0246857
0.0276369
0.0338383
0.0370534
0.0294187
0.0120006
0.00367761
0.000856157
0.00039088
0.000350423
0.000349124
0.00035788
0.000373168
0.000378792
0.000363438
0.000389918
0.000409148
0.000398802
0.000427551
0.000419102
0.000444469
0.00043441
0.000497463
0.000465628
0.000562209
0.000534418
0.000635908
0.000589261
0.000772436
0.000694523
0.00160176
0.00103297
0.00447179
0.00356177
0.00219784
0.00297138
0.00786627
0.00691805
0.00604144
0.00521989
0.0123065
0.0111115
0.00888423
0.00996708
0.0171153
0.0159607
0.0150619
0.0163711
0.0223216
0.0216432
0.0208223
0.0198716
0.0248441
0.0248406
0.0247228
0.0244872
0.0249729
0.0252449
0.0255401
0.0258218
0.0246988
0.0248926
0.0247846
0.025154
0.0242413
0.0245537
0.024554
0.018858
0.023652
0.0213886
0.0228338
0.017439
0.0156884
0.0111363
0.000331414
0.00165133
0.000782586
0.00882143
0.00647644
0.00408122
0.000146624
0.000102844
0.000110007
0.000166716
0.00114896
0.000789585
0.000550089
0.000439465
0.000432529
0.000601656
0.00158971
0.00392026
0.00733311
0.011106
0.0176027