/*--------------------------------*- C++ -*----------------------------------*\
  =========                 |
  \\      /  F ield         | OpenFOAM: The Open Source CFD Toolbox
   \\    /   O peration     | Website:  https://openfoam.org
    \\  /    A nd           | Version:  dev
     \\/     M anipulation  |
\*---------------------------------------------------------------------------*/
FoamFile
{
    version     2.0;
    format      ascii;
    class       volScalarField;
    location    "2500";
    object      N2;
}
// * * * * * * * * * * * * * * * * * * * * * * * * * * * * * * * * * * * * * //

dimensions      [0 0 0 0 0 0 0];

internalField   nonuniform List<scalar> 
9714
(
0.76699
0.76699
0.76699
0.76699
0.76699
0.76699
0.76699
0.76699
0.76699
0.76699
0.76699
0.76699
0.76699
0.76699
0.76699
0.76699
0.76699
0.76699
0.76699
0.76699
0.76699
0.76699
0.76699
0.76699
0.76699
0.76699
0.76699
0.76699
0.76699
0.76699
0.76699
0.76699
0.76699
0.76699
0.76699
0.76699
0.76699
0.76699
0.76699
0.76699
0.76699
0.76699
0.76699
0.76699
0.76699
0.76699
0.76699
0.76699
0.76699
0.76699
0.76699
0.76699
0.76699
0.76699
0.76699
0.76699
0.76699
0.76699
0.76699
0.76699
0.76699
0.76699
0.76699
0.76699
0.76699
0.76699
0.76699
0.76699
0.76699
0.76699
0.76699
0.76699
0.76699
0.76699
0.76699
0.76699
0.76699
0.76699
0.76699
0.76699
0.76699
0.76699
0.76699
0.76699
0.76699
0.76699
0.76699
0.76699
0.76699
0.76699
0.76699
0.76699
0.76699
0.76699
0.76699
0.76699
0.76699
0.76699
0.76699
0.76699
0.76699
0.76699
0.76699
0.76699
0.76699
0.76699
0.76699
0.76699
0.76699
0.76699
0.76699
0.76699
0.76699
0.76699
0.76699
0.76699
0.76699
0.76699
0.76699
0.76699
0.76699
0.76699
0.76699
0.76699
0.76699
0.76699
0.76699
0.76699
0.76699
0.76699
0.76699
0.76699
0.76699
0.76699
0.76699
0.76699
0.76699
0.76699
0.76699
0.76699
0.76699
0.76699
0.76699
0.76699
0.76699
0.76699
0.76699
0.76699
0.76699
0.76699
0.76699
0.76699
0.76699
0.76699
0.76699
0.76699
0.76699
0.76699
0.76699
0.76699
0.76699
0.76699
0.76699
0.76699
0.76699
0.76699
0.76699
0.76699
0.76699
0.76699
0.76699
0.76699
0.76699
0.76699
0.76699
0.76699
0.76699
0.76699
0.76699
0.76699
0.76699
0.76699
0.76699
0.76699
0.76699
0.76699
0.76699
0.76699
0.76699
0.76699
0.76699
0.76699
0.76699
0.76699
0.76699
0.76699
0.76699
0.76699
0.76699
0.76699
0.76699
0.76699
0.76699
0.76699
0.76699
0.76699
0.76699
0.76699
0.76699
0.76699
0.76699
0.76699
0.76699
0.76699
0.76699
0.76699
0.76699
0.76699
0.76699
0.76699
0.76699
0.76699
0.76699
0.76699
0.76699
0.76699
0.76699
0.76699
0.76699
0.76699
0.76699
0.76699
0.76699
0.76699
0.76699
0.76699
0.76699
0.76699
0.76699
0.76699
0.76699
0.76699
0.76699
0.76699
0.76699
0.76699
0.76699
0.76699
0.76699
0.76699
0.76699
0.76699
0.76699
0.76699
0.76699
0.76699
0.76699
0.76699
0.76699
0.76699
0.76699
0.76699
0.76699
0.76699
0.76699
0.76699
0.76699
0.76699
0.76699
0.76699
0.76699
0.76699
0.76699
0.76699
0.76699
0.76699
0.76699
0.76699
0.76699
0.76699
0.76699
0.76699
0.76699
0.76699
0.76699
0.76699
0.76699
0.76699
0.76699
0.76699
0.76699
0.76699
0.76699
0.76699
0.76699
0.76699
0.76699
0.76699
0.76699
0.76699
0.76699
0.76699
0.76699
0.76699
0.76699
0.76699
0.76699
0.76699
0.76699
0.76699
0.76699
0.76699
0.76699
0.76699
0.76699
0.76699
0.76699
0.76699
0.76699
0.76699
0.76699
0.76699
0.76699
0.76699
0.76699
0.76699
0.76699
0.76699
0.76699
0.76699
0.76699
0.76699
0.76699
0.76699
0.76699
0.76699
0.76699
0.76699
0.76699
0.76699
0.76699
0.76699
0.76699
0.76699
0.76699
0.76699
0.76699
0.76699
0.76699
0.76699
0.76699
0.76699
0.76699
0.76699
0.76699
0.76699
0.76699
0.76699
0.76699
0.76699
0.76699
0.76699
0.76699
0.76699
0.76699
0.76699
0.76699
0.76699
0.76699
0.76699
0.76699
0.76699
0.76699
0.76699
0.76699
0.76699
0.76699
0.76699
0.76699
0.76699
0.76699
0.76699
0.76699
0.76699
0.76699
0.76699
0.76699
0.76699
0.76699
0.76699
0.76699
0.76699
0.76699
0.76699
0.76699
0.76699
0.76699
0.76699
0.76699
0.76699
0.76699
0.76699
0.76699
0.76699
0.76699
0.76699
0.76699
0.76699
0.76699
0.76699
0.76699
0.76699
0.76699
0.76699
0.76699
0.76699
0.76699
0.76699
0.76699
0.76699
0.76699
0.76699
0.76699
0.76699
0.76699
0.76699
0.76699
0.76699
0.76699
0.76699
0.76699
0.76699
0.76699
0.76699
0.76699
0.76699
0.76699
0.76699
0.76699
0.76699
0.76699
0.76699
0.76699
0.76699
0.76699
0.76699
0.76699
0.76699
0.76699
0.76699
0.76699
0.76699
0.76699
0.76699
0.76699
0.76699
0.76699
0.76699
0.76699
0.76699
0.76699
0.76699
0.76699
0.76699
0.76699
0.76699
0.76699
0.76699
0.76699
0.76699
0.76699
0.76699
0.76699
0.76699
0.76699
0.76699
0.76699
0.76699
0.76699
0.76699
0.76699
0.76699
0.76699
0.76699
0.76699
0.76699
0.76699
0.76699
0.76699
0.76699
0.76699
0.76699
0.76699
0.76699
0.76699
0.76699
0.76699
0.76699
0.76699
0.76699
0.76699
0.76699
0.76699
0.76699
0.76699
0.76699
0.76699
0.76699
0.76699
0.76699
0.76699
0.76699
0.76699
0.76699
0.76699
0.76699
0.76699
0.76699
0.76699
0.76699
0.76699
0.76699
0.76699
0.76699
0.76699
0.76699
0.76699
0.76699
0.76699
0.76699
0.76699
0.76699
0.76699
0.76699
0.76699
0.76699
0.76699
0.76699
0.76699
0.76699
0.76699
0.76699
0.76699
0.76699
0.76699
0.76699
0.76699
0.76699
0.76699
0.76699
0.76699
0.76699
0.76699
0.76699
0.76699
0.76699
0.76699
0.76699
0.76699
0.76699
0.76699
0.76699
0.76699
0.76699
0.76699
0.76699
0.76699
0.76699
0.76699
0.76699
0.76699
0.76699
0.76699
0.76699
0.76699
0.76699
0.76699
0.76699
0.76699
0.76699
0.76699
0.76699
0.76699
0.76699
0.76699
0.76699
0.76699
0.76699
0.76699
0.76699
0.76699
0.76699
0.76699
0.76699
0.76699
0.76699
0.76699
0.76699
0.76699
0.76699
0.76699
0.76699
0.76699
0.76699
0.76699
0.76699
0.76699
0.76699
0.76699
0.76699
0.76699
0.76699
0.76699
0.76699
0.76699
0.76699
0.76699
0.76699
0.76699
0.76699
0.76699
0.76699
0.76699
0.76699
0.76699
0.76699
0.76699
0.76699
0.76699
0.76699
0.76699
0.76699
0.76699
0.76699
0.76699
0.76699
0.76699
0.76699
0.76699
0.76699
0.76699
0.76699
0.76699
0.76699
0.76699
0.76699
0.76699
0.76699
0.76699
0.76699
0.76699
0.76699
0.76699
0.76699
0.76699
0.76699
0.76699
0.76699
0.76699
0.76699
0.76699
0.76699
0.76699
0.76699
0.76699
0.76699
0.76699
0.76699
0.76699
0.76699
0.76699
0.76699
0.76699
0.76699
0.76699
0.76699
0.76699
0.76699
0.76699
0.76699
0.76699
0.76699
0.76699
0.76699
0.76699
0.76699
0.76699
0.76699
0.76699
0.76699
0.76699
0.76699
0.76699
0.76699
0.76699
0.76699
0.76699
0.76699
0.76699
0.76699
0.76699
0.76699
0.76699
0.76699
0.76699
0.76699
0.76699
0.76699
0.76699
0.76699
0.76699
0.76699
0.76699
0.76699
0.76699
0.76699
0.76699
0.76699
0.76699
0.76699
0.76699
0.76699
0.76699
0.76699
0.76699
0.76699
0.76699
0.76699
0.76699
0.76699
0.76699
0.76699
0.76699
0.76699
0.76699
0.76699
0.76699
0.76699
0.76699
0.76699
0.76699
0.76699
0.76699
0.76699
0.76699
0.76699
0.76699
0.76699
0.76699
0.76699
0.76699
0.76699
0.76699
0.76699
0.76699
0.76699
0.76699
0.76699
0.76699
0.76699
0.76699
0.76699
0.76699
0.76699
0.76699
0.76699
0.76699
0.76699
0.76699
0.76699
0.76699
0.76699
0.76699
0.76699
0.76699
0.76699
0.76699
0.76699
0.76699
0.76699
0.76699
0.76699
0.76699
0.76699
0.76699
0.76699
0.76699
0.76699
0.76699
0.76699
0.76699
0.76699
0.76699
0.76699
0.76699
0.76699
0.76699
0.76699
0.76699
0.76699
0.76699
0.76699
0.76699
0.76699
0.76699
0.76699
0.76699
0.76699
0.76699
0.76699
0.76699
0.76699
0.76699
0.76699
0.76699
0.76699
0.76699
0.76699
0.76699
0.76699
0.76699
0.76699
0.76699
0.76699
0.76699
0.76699
0.76699
0.76699
0.76699
0.76699
0.76699
0.76699
0.76699
0.76699
0.76699
0.76699
0.76699
0.76699
0.76699
0.76699
0.76699
0.76699
0.76699
0.76699
0.76699
0.76699
0.76699
0.76699
0.76699
0.76699
0.76699
0.76699
0.76699
0.76699
0.76699
0.76699
0.76699
0.76699
0.76699
0.76699
0.76699
0.76699
0.76699
0.76699
0.76699
0.76699
0.76699
0.76699
0.76699
0.76699
0.76699
0.76699
0.76699
0.76699
0.76699
0.76699
0.76699
0.76699
0.76699
0.76699
0.76699
0.76699
0.76699
0.76699
0.76699
0.76699
0.76699
0.76699
0.76699
0.76699
0.76699
0.76699
0.76699
0.76699
0.76699
0.76699
0.76699
0.76699
0.76699
0.76699
0.76699
0.76699
0.76699
0.76699
0.76699
0.76699
0.76699
0.76699
0.76699
0.76699
0.76699
0.76699
0.76699
0.76699
0.76699
0.76699
0.76699
0.76699
0.76699
0.76699
0.76699
0.76699
0.76699
0.76699
0.76699
0.76699
0.76699
0.76699
0.76699
0.76699
0.76699
0.76699
0.76699
0.76699
0.76699
0.76699
0.76699
0.76699
0.76699
0.76699
0.76699
0.76699
0.76699
0.76699
0.76699
0.76699
0.76699
0.76699
0.76699
0.76699
0.76699
0.76699
0.76699
0.76699
0.76699
0.76699
0.76699
0.76699
0.76699
0.76699
0.76699
0.76699
0.76699
0.76699
0.76699
0.76699
0.76699
0.76699
0.76699
0.76699
0.76699
0.76699
0.76699
0.76699
0.76699
0.76699
0.76699
0.76699
0.76699
0.76699
0.76699
0.76699
0.76699
0.76699
0.76699
0.76699
0.76699
0.76699
0.76699
0.76699
0.76699
0.76699
0.76699
0.76699
0.76699
0.76699
0.76699
0.76699
0.76699
0.76699
0.76699
0.76699
0.76699
0.76699
0.76699
0.76699
0.76699
0.76699
0.76699
0.76699
0.76699
0.76699
0.76699
0.76699
0.76699
0.76699
0.76699
0.76699
0.76699
0.76699
0.76699
0.76699
0.76699
0.76699
0.76699
0.76699
0.76699
0.76699
0.76699
0.76699
0.76699
0.76699
0.76699
0.76699
0.76699
0.76699
0.76699
0.76699
0.76699
0.76699
0.766989
0.766988
0.766989
0.766989
0.766988
0.76699
0.766988
0.76699
0.766989
0.76699
0.766989
0.76699
0.76699
0.76699
0.76699
0.76699
0.76699
0.76699
0.76699
0.76699
0.76699
0.76699
0.76699
0.76699
0.76699
0.76699
0.76699
0.76699
0.76699
0.76699
0.76699
0.76699
0.76699
0.76699
0.76699
0.76699
0.76699
0.76699
0.76699
0.76699
0.76699
0.76699
0.76699
0.76699
0.76699
0.76699
0.76699
0.76699
0.76699
0.76699
0.76699
0.76699
0.76699
0.76699
0.76699
0.766989
0.766985
0.766977
0.766958
0.766978
0.766979
0.766985
0.766973
0.766986
0.766978
0.766987
0.766981
0.766989
0.766985
0.766989
0.766987
0.76699
0.766989
0.76699
0.76699
0.76699
0.76699
0.76699
0.76699
0.76699
0.76699
0.76699
0.76699
0.76699
0.76699
0.76699
0.76699
0.76699
0.76699
0.76699
0.76699
0.76699
0.76699
0.76699
0.76699
0.76699
0.76699
0.76699
0.76699
0.76699
0.76699
0.76699
0.76699
0.76699
0.76699
0.76699
0.76699
0.76699
0.76699
0.76699
0.76699
0.76699
0.766989
0.766985
0.766969
0.766929
0.766852
0.766675
0.766936
0.766764
0.766952
0.766883
0.766963
0.76691
0.766971
0.766932
0.76698
0.766954
0.766985
0.766972
0.766989
0.766983
0.76699
0.766988
0.76699
0.76699
0.76699
0.76699
0.76699
0.76699
0.76699
0.76699
0.76699
0.76699
0.76699
0.76699
0.76699
0.76699
0.76699
0.76699
0.76699
0.76699
0.76699
0.76699
0.76699
0.76699
0.76699
0.76699
0.76699
0.76699
0.76699
0.76699
0.76699
0.76699
0.76699
0.76699
0.76699
0.76699
0.76699
0.76699
0.76699
0.766988
0.766973
0.766917
0.766796
0.766581
0.766261
0.766199
0.765808
0.76674
0.766457
0.766785
0.766532
0.766831
0.766613
0.766878
0.766701
0.766926
0.766796
0.766961
0.766888
0.76698
0.766948
0.766988
0.766977
0.76699
0.766988
0.76699
0.76699
0.76699
0.76699
0.76699
0.76699
0.76699
0.76699
0.76699
0.76699
0.76699
0.76699
0.76699
0.76699
0.76699
0.76699
0.76699
0.76699
0.76699
0.76699
0.76699
0.76699
0.76699
0.76699
0.76699
0.76699
0.76699
0.76699
0.76699
0.76699
0.76699
0.76699
0.76699
0.76699
0.76699
0.766985
0.766947
0.766792
0.766489
0.766119
0.765628
0.765455
0.765189
0.765486
0.765029
0.766219
0.765849
0.766281
0.765883
0.766375
0.765956
0.766516
0.766068
0.76669
0.766275
0.766839
0.766565
0.766934
0.766785
0.766975
0.766922
0.766988
0.766975
0.76699
0.766988
0.76699
0.76699
0.76699
0.76699
0.76699
0.76699
0.76699
0.76699
0.76699
0.76699
0.76699
0.76699
0.76699
0.76699
0.76699
0.76699
0.76699
0.76699
0.76699
0.76699
0.76699
0.76699
0.76699
0.76699
0.76699
0.76699
0.76699
0.76699
0.76699
0.76699
0.76699
0.766989
0.766988
0.76698
0.766907
0.766626
0.766108
0.765488
0.764818
0.763946
0.764705
0.764049
0.764562
0.764088
0.765466
0.765013
0.765485
0.76497
0.765565
0.764987
0.765725
0.765075
0.76601
0.765311
0.766415
0.765731
0.766733
0.76627
0.766914
0.766696
0.766977
0.766914
0.766989
0.76698
0.76699
0.76699
0.76699
0.76699
0.76699
0.76699
0.76699
0.76699
0.76699
0.76699
0.76699
0.76699
0.76699
0.76699
0.76699
0.76699
0.76699
0.76699
0.76699
0.76699
0.76699
0.76699
0.76699
0.76699
0.76699
0.76699
0.76699
0.76699
0.76699
0.76699
0.766989
0.766987
0.766984
0.766969
0.766856
0.766446
0.765731
0.764928
0.764173
0.763555
0.763247
0.763251
0.76364
0.763361
0.763462
0.763213
0.764453
0.763932
0.764382
0.763768
0.764405
0.763669
0.764537
0.763689
0.76486
0.763908
0.765424
0.764398
0.766137
0.765128
0.766672
0.76606
0.766923
0.76668
0.766985
0.766941
0.766988
0.76699
0.766989
0.76699
0.76699
0.76699
0.76699
0.76699
0.76699
0.76699
0.76699
0.76699
0.76699
0.76699
0.76699
0.76699
0.76699
0.76699
0.76699
0.76699
0.76699
0.76699
0.76699
0.76699
0.76699
0.76699
0.76699
0.76699
0.766989
0.766985
0.766977
0.766965
0.766936
0.766786
0.766287
0.765407
0.764538
0.763998
0.763618
0.763281
0.763349
0.763132
0.763216
0.763092
0.763096
0.762921
0.762941
0.763268
0.76302
0.763083
0.762803
0.762943
0.762599
0.762929
0.762422
0.763193
0.762351
0.76389
0.762501
0.764849
0.763364
0.766001
0.764656
0.766716
0.766025
0.766965
0.76679
0.766981
0.76699
0.766988
0.76699
0.76699
0.76699
0.76699
0.76699
0.76699
0.76699
0.76699
0.76699
0.76699
0.76699
0.76699
0.76699
0.76699
0.76699
0.76699
0.76699
0.76699
0.76699
0.76699
0.76699
0.76699
0.76699
0.766989
0.766985
0.76697
0.76694
0.766903
0.766854
0.766674
0.766138
0.765186
0.764439
0.764049
0.763796
0.763922
0.763405
0.763837
0.763308
0.763646
0.762988
0.763094
0.762831
0.762972
0.762722
0.762757
0.7625
0.762542
0.762253
0.76231
0.762011
0.762025
0.761876
0.761723
0.761981
0.761479
0.7629
0.761543
0.764502
0.762595
0.766123
0.764569
0.766895
0.766333
0.766957
0.76699
0.766988
0.766981
0.766985
0.766989
0.766987
0.76699
0.76699
0.76699
0.76699
0.76699
0.76699
0.76699
0.76699
0.76699
0.76699
0.76699
0.76699
0.76699
0.76699
0.76699
0.76699
0.76699
0.76699
0.76699
0.76699
0.76699
0.76699
0.766988
0.766973
0.766925
0.766835
0.766747
0.766684
0.76652
0.765992
0.765058
0.76448
0.764191
0.764173
0.764719
0.764984
0.765538
0.764066
0.764543
0.764081
0.764537
0.763248
0.763636
0.763206
0.763669
0.762643
0.762843
0.762416
0.762669
0.762128
0.762377
0.761803
0.76201
0.761484
0.761621
0.761131
0.761233
0.76115
0.760791
0.76234
0.76162
0.760865
0.765648
0.764611
0.762249
0.763654
0.766865
0.766634
0.764949
0.766091
0.764961
0.766753
0.766828
0.766952
0.76699
0.76699
0.766989
0.766967
0.766977
0.766984
0.76699
0.76699
0.76699
0.76699
0.76699
0.76699
0.76699
0.76699
0.76699
0.76699
0.76699
0.76699
0.76699
0.76699
0.76699
0.76699
0.76699
0.76699
0.76699
0.76699
0.76699
0.76699
0.766986
0.766958
0.766855
0.766682
0.766548
0.766475
0.766316
0.765828
0.765008
0.764566
0.764441
0.764797
0.765676
0.765923
0.766316
0.76588
0.766275
0.765
0.765451
0.765071
0.765473
0.764166
0.764637
0.764285
0.764807
0.763122
0.7637
0.762895
0.763621
0.762495
0.76333
0.762005
0.762738
0.761456
0.762029
0.760937
0.761313
0.760634
0.760554
0.760592
0.760705
0.761462
0.760621
0.760908
0.760518
0.76367
0.76135
0.762358
0.766273
0.763694
0.765256
0.763971
0.76645
0.766624
0.766891
0.76699
0.766989
0.766988
0.766932
0.76696
0.766976
0.76699
0.76699
0.76699
0.76699
0.76699
0.76699
0.76699
0.76699
0.76699
0.76699
0.76699
0.76699
0.76699
0.76699
0.76699
0.76699
0.76699
0.76699
0.76699
0.76699
0.76699
0.766986
0.766945
0.766783
0.766522
0.76633
0.766233
0.766084
0.765633
0.764984
0.764669
0.76468
0.765338
0.766272
0.766771
0.766569
0.766789
0.76655
0.766763
0.765862
0.766239
0.765938
0.766265
0.765243
0.765605
0.765436
0.765805
0.764346
0.764962
0.764214
0.764977
0.763761
0.76469
0.763016
0.76405
0.762127
0.763184
0.760934
0.761365
0.761741
0.762271
0.760438
0.760494
0.760611
0.760885
0.760618
0.760286
0.760376
0.760326
0.762399
0.76058
0.761329
0.76557
0.762592
0.764259
0.762798
0.765928
0.766236
0.766759
0.76699
0.766984
0.766988
0.766857
0.766919
0.766957
0.76699
0.76699
0.76699
0.76699
0.76699
0.76699
0.76699
0.76699
0.76699
0.76699
0.76699
0.76699
0.76699
0.76699
0.76699
0.76699
0.76699
0.76699
0.76699
0.76699
0.766986
0.766939
0.766727
0.766375
0.76611
0.765976
0.765814
0.765408
0.764961
0.764762
0.764893
0.765682
0.766513
0.766865
0.766965
0.766975
0.766885
0.766949
0.766878
0.766945
0.766546
0.76675
0.766578
0.766751
0.766097
0.766361
0.766255
0.766466
0.765555
0.765965
0.765408
0.765902
0.764891
0.765523
0.764073
0.764817
0.76262
0.763142
0.76347
0.763942
0.761289
0.761715
0.762154
0.76258
0.760387
0.760514
0.760798
0.761189
0.760216
0.760224
0.760128
0.760284
0.761417
0.76016
0.7606
0.764626
0.761511
0.763099
0.761701
0.765067
0.765562
0.766497
0.766989
0.766976
0.766985
0.766693
0.766828
0.76691
0.76699
0.76699
0.76699
0.76699
0.76699
0.76699
0.76699
0.76699
0.76699
0.76699
0.76699
0.76699
0.76699
0.76699
0.76699
0.76699
0.76699
0.76699
0.76699
0.766987
0.76694
0.766697
0.766251
0.765907
0.765721
0.765527
0.765225
0.764967
0.764847
0.765067
0.765878
0.766598
0.766893
0.766982
0.766986
0.766989
0.766972
0.766983
0.766969
0.766981
0.766871
0.766938
0.766862
0.766927
0.766629
0.766762
0.766646
0.766763
0.766245
0.766482
0.765987
0.766314
0.765426
0.765894
0.764236
0.764641
0.765174
0.763004
0.763402
0.763785
0.764144
0.761602
0.762021
0.762435
0.762838
0.760411
0.760693
0.76107
0.761462
0.760038
0.760183
0.76008
0.760304
0.760617
0.759955
0.760119
0.76348
0.760698
0.76196
0.760829
0.76396
0.764534
0.766014
0.766988
0.766955
0.766977
0.766372
0.766638
0.76681
0.76699
0.76699
0.76699
0.766989
0.76699
0.76699
0.76699
0.76699
0.76699
0.76699
0.76699
0.76699
0.76699
0.76699
0.76699
0.76699
0.76699
0.76699
0.766988
0.766945
0.766693
0.766171
0.765722
0.765483
0.765304
0.765117
0.764982
0.764931
0.765232
0.765986
0.766633
0.766902
0.766981
0.766989
0.766989
0.766989
0.766989
0.766986
0.766988
0.766984
0.766987
0.766962
0.766977
0.766949
0.76697
0.766849
0.766911
0.76681
0.766882
0.766542
0.766702
0.766237
0.766481
0.765673
0.766054
0.764479
0.764797
0.765445
0.765152
0.763226
0.763596
0.763948
0.764285
0.761859
0.762253
0.762633
0.763002
0.760572
0.760927
0.761297
0.761666
0.759974
0.760194
0.760077
0.760438
0.760119
0.759874
0.759883
0.762302
0.760146
0.761017
0.760213
0.762767
0.763339
0.765184
0.766985
0.766908
0.766957
0.765813
0.766285
0.766615
0.76699
0.76699
0.76699
0.766988
0.76699
0.76699
0.76699
0.76699
0.76699
0.76699
0.76699
0.76699
0.76699
0.76699
0.76699
0.76699
0.76699
0.766988
0.766956
0.766704
0.766145
0.76559
0.765323
0.765189
0.765094
0.765015
0.765044
0.765411
0.766111
0.766666
0.766912
0.766981
0.76699
0.766989
0.76699
0.766989
0.766989
0.766988
0.766989
0.766986
0.766988
0.766979
0.766984
0.766971
0.766979
0.766928
0.766956
0.766879
0.766929
0.766661
0.766793
0.766336
0.766546
0.765645
0.765873
0.766192
0.766022
0.764601
0.764894
0.76547
0.765223
0.763359
0.763705
0.764041
0.764365
0.762026
0.762382
0.762734
0.763083
0.760768
0.761106
0.761439
0.761771
0.75996
0.760295
0.760145
0.760592
0.759831
0.759849
0.759776
0.761294
0.759803
0.760333
0.759815
0.761676
0.762174
0.76404
0.766978
0.766812
0.766916
0.76488
0.765691
0.766264
0.76699
0.76699
0.76699
0.766986
0.76699
0.76699
0.76699
0.76699
0.76699
0.76699
0.76699
0.76699
0.76699
0.76699
0.76699
0.766989
0.766987
0.766962
0.766738
0.76615
0.765529
0.765247
0.765152
0.765104
0.765087
0.76523
0.765651
0.766293
0.766727
0.76693
0.766983
0.76699
0.76699
0.76699
0.76699
0.76699
0.766989
0.766989
0.766989
0.766989
0.766987
0.766988
0.766983
0.766986
0.766978
0.766982
0.766955
0.76697
0.766906
0.766946
0.766708
0.766829
0.76637
0.766568
0.765687
0.76588
0.766189
0.766046
0.764671
0.764958
0.765487
0.765247
0.763425
0.763759
0.764085
0.764401
0.762103
0.762435
0.762773
0.763111
0.760892
0.761195
0.761497
0.761807
0.759995
0.760408
0.760221
0.760674
0.75969
0.759853
0.759733
0.760522
0.759619
0.759864
0.75957
0.760794
0.761189
0.762836
0.766961
0.766636
0.76684
0.763695
0.76473
0.7657
0.766989
0.76699
0.76699
0.766979
0.76699
0.76699
0.76699
0.76699
0.76699
0.76699
0.76699
0.76699
0.76699
0.766989
0.766987
0.766983
0.766961
0.766769
0.766183
0.765522
0.765224
0.765153
0.765145
0.765235
0.765511
0.765977
0.766484
0.766805
0.766953
0.766986
0.76699
0.76699
0.76699
0.76699
0.76699
0.76699
0.766989
0.76699
0.766989
0.766989
0.766988
0.766989
0.766985
0.766987
0.76698
0.766984
0.766965
0.766974
0.766915
0.766951
0.766724
0.766841
0.766307
0.766435
0.766516
0.766618
0.765701
0.765889
0.766192
0.766052
0.764702
0.764984
0.765484
0.765249
0.763447
0.763776
0.764098
0.764411
0.762124
0.762443
0.762762
0.763084
0.760943
0.761223
0.761505
0.761783
0.760044
0.760457
0.76025
0.7607
0.759623
0.75988
0.759722
0.759967
0.759523
0.759561
0.759441
0.760144
0.760427
0.761751
0.766934
0.766343
0.766718
0.762546
0.763574
0.76483
0.766986
0.76699
0.766989
0.76697
0.76699
0.76699
0.76699
0.76699
0.76699
0.76699
0.76699
0.766989
0.766987
0.766981
0.76697
0.766947
0.766782
0.766247
0.765536
0.765229
0.765167
0.765244
0.765488
0.765873
0.766321
0.766664
0.766879
0.76697
0.766988
0.76699
0.76699
0.76699
0.76699
0.76699
0.76699
0.76699
0.76699
0.76699
0.766989
0.766989
0.766988
0.766989
0.766986
0.766987
0.766981
0.766984
0.766968
0.766976
0.766917
0.766952
0.766723
0.766841
0.766304
0.76641
0.766506
0.76659
0.765695
0.76588
0.766181
0.766041
0.764709
0.764989
0.765442
0.765206
0.76341
0.763734
0.764055
0.764367
0.762066
0.76236
0.762666
0.762983
0.760945
0.761181
0.761417
0.761663
0.76006
0.760463
0.760239
0.760663
0.759597
0.759885
0.759728
0.759595
0.759475
0.759382
0.759368
0.759685
0.759869
0.760877
0.766891
0.765897
0.766519
0.761529
0.762469
0.763756
0.766985
0.76699
0.76699
0.766962
0.76699
0.76699
0.76699
0.76699
0.76699
0.76699
0.766988
0.766981
0.766963
0.766935
0.766901
0.766776
0.76631
0.765586
0.765245
0.765202
0.765383
0.765757
0.766212
0.766576
0.766805
0.766935
0.76698
0.766989
0.76699
0.76699
0.76699
0.76699
0.76699
0.76699
0.76699
0.76699
0.76699
0.76699
0.76699
0.766989
0.766989
0.766988
0.766989
0.766986
0.766988
0.766982
0.766985
0.766968
0.766977
0.766904
0.76695
0.766646
0.766734
0.766852
0.766787
0.766271
0.766383
0.766481
0.76657
0.765652
0.765839
0.766145
0.766002
0.764665
0.764945
0.765348
0.765107
0.763305
0.763628
0.763948
0.764261
0.761925
0.762204
0.762499
0.762807
0.760853
0.761046
0.761248
0.761467
0.760034
0.760391
0.760147
0.760537
0.759587
0.759847
0.759717
0.759357
0.759448
0.759282
0.759322
0.759375
0.759466
0.760185
0.766832
0.765243
0.766229
0.760706
0.761519
0.762694
0.766986
0.76699
0.76699
0.766955
0.76699
0.76699
0.76699
0.76699
0.766989
0.766984
0.766962
0.766913
0.76686
0.766825
0.766736
0.766348
0.765668
0.76528
0.765242
0.765503
0.765967
0.766449
0.766735
0.766892
0.766965
0.766986
0.76699
0.76699
0.76699
0.76699
0.76699
0.76699
0.76699
0.76699
0.76699
0.76699
0.76699
0.76699
0.76699
0.766989
0.76699
0.766989
0.766989
0.766987
0.766988
0.766982
0.766985
0.766968
0.766976
0.766831
0.766862
0.76691
0.766932
0.766953
0.766627
0.766703
0.766774
0.766217
0.766336
0.766442
0.766539
0.765565
0.765759
0.766083
0.765931
0.76456
0.764843
0.76519
0.764937
0.763123
0.763441
0.763759
0.764072
0.761706
0.761964
0.762241
0.762534
0.760683
0.760836
0.761003
0.761189
0.75993
0.760248
0.759995
0.760345
0.759559
0.759733
0.759664
0.75922
0.759396
0.75922
0.759257
0.759184
0.759199
0.759678
0.766757
0.764324
0.765829
0.76006
0.760716
0.761816
0.766985
0.76699
0.766989
0.766935
0.76699
0.76699
0.76699
0.766988
0.766973
0.766918
0.766828
0.766765
0.766735
0.766666
0.766353
0.765742
0.765325
0.765277
0.76558
0.766092
0.76656
0.766816
0.766935
0.766978
0.766988
0.76699
0.76699
0.76699
0.76699
0.76699
0.76699
0.76699
0.76699
0.76699
0.76699
0.76699
0.76699
0.76699
0.76699
0.76699
0.766989
0.76699
0.766989
0.766989
0.766987
0.766988
0.766981
0.766985
0.766965
0.766976
0.766812
0.766848
0.766893
0.766926
0.766946
0.766585
0.766671
0.766747
0.766138
0.766269
0.766385
0.76649
0.765422
0.765632
0.765989
0.765821
0.764375
0.764664
0.764956
0.764682
0.762839
0.76315
0.763465
0.76378
0.761396
0.761625
0.761874
0.762144
0.760445
0.760554
0.760677
0.760819
0.759775
0.760049
0.759797
0.760098
0.759486
0.759578
0.759554
0.759138
0.759305
0.759145
0.759176
0.759066
0.759036
0.759303
0.766589
0.763384
0.76519
0.759557
0.760082
0.761023
0.76698
0.76699
0.766989
0.766886
0.76699
0.766989
0.766984
0.766954
0.766854
0.766733
0.76666
0.766631
0.766577
0.766336
0.765789
0.765373
0.765308
0.765618
0.766134
0.766578
0.76684
0.76695
0.766983
0.766989
0.76699
0.76699
0.76699
0.76699
0.76699
0.76699
0.76699
0.76699
0.76699
0.76699
0.76699
0.76699
0.76699
0.76699
0.76699
0.76699
0.766989
0.76699
0.766989
0.766989
0.766987
0.766988
0.766981
0.766985
0.766954
0.766966
0.766974
0.766787
0.766821
0.766877
0.766915
0.76694
0.766532
0.766627
0.766712
0.76603
0.76618
0.766311
0.766428
0.765213
0.765449
0.765858
0.765664
0.76409
0.764391
0.76463
0.764324
0.762431
0.762732
0.763044
0.763364
0.760982
0.761168
0.761378
0.761612
0.760149
0.760206
0.760275
0.760361
0.759583
0.759808
0.759573
0.759814
0.759323
0.759277
0.759313
0.759045
0.759184
0.759057
0.759056
0.75897
0.758913
0.759053
0.766281
0.762438
0.7642
0.759177
0.759539
0.76036
0.766971
0.76699
0.766988
0.766791
0.766989
0.766981
0.766924
0.766787
0.766637
0.76655
0.766516
0.76647
0.766275
0.765798
0.765417
0.76534
0.765631
0.766129
0.766564
0.766836
0.766952
0.766984
0.766989
0.76699
0.76699
0.76699
0.76699
0.76699
0.76699
0.76699
0.76699
0.76699
0.76699
0.76699
0.76699
0.76699
0.76699
0.76699
0.76699
0.76699
0.76699
0.76699
0.766989
0.766989
0.766987
0.766988
0.766979
0.766984
0.766951
0.766962
0.766966
0.766974
0.766751
0.766789
0.766854
0.766902
0.766933
0.766468
0.766573
0.766667
0.765889
0.766067
0.766219
0.766352
0.764924
0.765199
0.765684
0.765454
0.763686
0.764007
0.764191
0.763843
0.761874
0.762161
0.762472
0.7628
0.760465
0.760594
0.760748
0.760931
0.759818
0.759819
0.759828
0.759854
0.759235
0.759553
0.759196
0.759518
0.759165
0.759023
0.759101
0.758946
0.759011
0.758929
0.758851
0.758843
0.758776
0.758882
0.765771
0.761538
0.763028
0.758919
0.759114
0.759761
0.766954
0.76699
0.766987
0.766613
0.766974
0.766902
0.76672
0.766544
0.766439
0.766393
0.766345
0.766186
0.76579
0.765454
0.765375
0.765635
0.766102
0.766515
0.766808
0.76695
0.766984
0.766989
0.76699
0.76699
0.76699
0.76699
0.76699
0.76699
0.76699
0.76699
0.76699
0.76699
0.76699
0.76699
0.76699
0.76699
0.76699
0.76699
0.76699
0.76699
0.76699
0.76699
0.76699
0.766989
0.766989
0.766987
0.766988
0.766975
0.766972
0.76698
0.766984
0.766944
0.766958
0.766964
0.766709
0.766751
0.766826
0.766884
0.766922
0.766393
0.76651
0.766614
0.765707
0.765924
0.766107
0.766261
0.764537
0.764865
0.765456
0.765175
0.76314
0.763488
0.763603
0.763202
0.761151
0.761411
0.761714
0.762055
0.759894
0.759955
0.760035
0.760142
0.759511
0.759508
0.759488
0.759485
0.758933
0.759168
0.75883
0.759159
0.758901
0.758597
0.758781
0.758806
0.758711
0.758703
0.758515
0.758697
0.758595
0.758714
0.764957
0.760563
0.76175
0.758678
0.758828
0.759231
0.766924
0.76699
0.766985
0.766325
0.766865
0.766667
0.766458
0.766331
0.766268
0.766211
0.76606
0.765745
0.765483
0.765413
0.765643
0.766066
0.766458
0.766772
0.766942
0.766984
0.766989
0.76699
0.76699
0.76699
0.76699
0.76699
0.76699
0.76699
0.76699
0.76699
0.76699
0.76699
0.76699
0.76699
0.76699
0.76699
0.76699
0.76699
0.76699
0.76699
0.76699
0.76699
0.76699
0.766989
0.766989
0.766987
0.766988
0.76697
0.766974
0.766979
0.766982
0.766985
0.766937
0.766954
0.76696
0.76666
0.766706
0.766793
0.766861
0.766909
0.766305
0.766438
0.766553
0.765468
0.765741
0.765969
0.766153
0.764017
0.764417
0.765152
0.764799
0.762418
0.762794
0.762807
0.762342
0.760284
0.760479
0.760743
0.761088
0.759486
0.759508
0.759535
0.759571
0.759118
0.759095
0.759095
0.759104
0.758352
0.758739
0.758119
0.758626
0.758513
0.757994
0.75825
0.758578
0.758195
0.758342
0.758047
0.758421
0.758318
0.758547
0.763926
0.759553
0.760799
0.75854
0.758614
0.758667
0.766884
0.766989
0.766978
0.765884
0.766605
0.766388
0.76623
0.766147
0.766076
0.76593
0.765686
0.765513
0.765457
0.765663
0.766049
0.766419
0.766745
0.766935
0.766984
0.76699
0.76699
0.76699
0.76699
0.76699
0.76699
0.76699
0.76699
0.76699
0.76699
0.76699
0.76699
0.76699
0.76699
0.76699
0.76699
0.76699
0.76699
0.76699
0.76699
0.76699
0.76699
0.76699
0.76699
0.766989
0.766989
0.766986
0.766988
0.766968
0.766972
0.766977
0.766981
0.766984
0.766927
0.766948
0.766956
0.766603
0.766651
0.766751
0.766833
0.766891
0.766201
0.766354
0.766482
0.765142
0.765493
0.765788
0.766019
0.763308
0.763803
0.764734
0.764287
0.761487
0.76187
0.761736
0.761202
0.759625
0.759702
0.759829
0.760031
0.759125
0.759141
0.759172
0.759203
0.758454
0.758255
0.758259
0.758235
0.757984
0.758117
0.756435
0.757994
0.7579
0.756509
0.757892
0.758058
0.757767
0.757712
0.757669
0.757971
0.757908
0.758273
0.76282
0.759008
0.760032
0.75824
0.758309
0.758383
0.766771
0.766927
0.7668
0.764978
0.766308
0.766148
0.766037
0.765948
0.765815
0.765658
0.765541
0.765511
0.765705
0.766051
0.766405
0.766735
0.766931
0.766983
0.76699
0.76699
0.76699
0.76699
0.76699
0.76699
0.76699
0.76699
0.76699
0.76699
0.76699
0.76699
0.76699
0.76699
0.76699
0.76699
0.76699
0.76699
0.76699
0.76699
0.76699
0.76699
0.76699
0.76699
0.76699
0.766989
0.766989
0.766986
0.766988
0.766964
0.76697
0.766976
0.76698
0.766983
0.766914
0.766941
0.76695
0.766534
0.766582
0.766699
0.766796
0.766869
0.766068
0.766253
0.766395
0.764686
0.765147
0.765538
0.76584
0.762337
0.762949
0.764151
0.763576
0.760364
0.760702
0.760409
0.760021
0.759237
0.759278
0.759334
0.759372
0.758239
0.758349
0.758398
0.758523
0.758002
0.756294
0.756312
0.756344
0.756531
0.756461
0.755484
0.756457
0.756549
0.755589
0.756612
0.757627
0.756578
0.756607
0.756695
0.757556
0.757506
0.757877
0.761296
0.75862
0.759177
0.757752
0.758021
0.758209
0.766123
0.766986
0.766823
0.763196
0.766053
0.765945
0.765855
0.765755
0.765664
0.765582
0.765588
0.76578
0.766079
0.766414
0.766742
0.766932
0.766984
0.76699
0.76699
0.76699
0.76699
0.76699
0.76699
0.76699
0.76699
0.76699
0.76699
0.76699
0.76699
0.76699
0.76699
0.76699
0.76699
0.76699
0.76699
0.76699
0.76699
0.76699
0.76699
0.76699
0.76699
0.76699
0.76699
0.76699
0.76699
0.766989
0.766989
0.766983
0.766985
0.766987
0.766988
0.76696
0.766967
0.766974
0.766979
0.766896
0.766931
0.766942
0.766446
0.766494
0.766629
0.766746
0.766837