/*--------------------------------*- C++ -*----------------------------------*\
  =========                 |
  \\      /  F ield         | OpenFOAM: The Open Source CFD Toolbox
   \\    /   O peration     | Website:  https://openfoam.org
    \\  /    A nd           | Version:  dev
     \\/     M anipulation  |
\*---------------------------------------------------------------------------*/
FoamFile
{
    version     2.0;
    format      ascii;
    class       volScalarField;
    location    "2500";
    object      nut;
}
// * * * * * * * * * * * * * * * * * * * * * * * * * * * * * * * * * * * * * //

dimensions      [0 2 -1 0 0 0 0];

internalField   nonuniform List<scalar> 
9714
(
0.000130875
0.000149354
0.000116836
0.000126975
0.000183684
0.000111866
0.000114779
0.000206075
0.000161448
0.000107782
0.000110852
0.000197082
0.000203168
0.000131898
0.000106755
0.000106593
0.000168885
0.000228003
0.000175987
0.00012203
0.000104492
0.000104374
0.000143631
0.000233664
0.000217066
0.00014301
0.000116717
0.000103304
0.000102909
0.000131652
0.000222635
0.000238183
0.000179961
0.000128596
0.000112292
0.000102598
0.000102099
0.000120053
0.000193934
0.000254381
0.000220864
0.000148839
0.000120977
0.000109141
0.000102067
0.0001016
0.000113646
0.000158463
0.000253616
0.000247992
0.000177338
0.000133324
0.000115781
0.000106905
0.000101657
0.000101333
0.000109612
0.000144362
0.000241337
0.000262992
0.000216978
0.000148487
0.000124231
0.000112089
0.000105324
0.000101331
0.000101287
0.000107321
0.000130243
0.000211121
0.000274506
0.000248568
0.000174856
0.000133629
0.000117956
0.000109361
0.000104162
0.000101072
0.000101259
0.000105925
0.0001218
0.000170572
0.000272467
0.000269877
0.00020682
0.000147993
0.00012499
0.000113693
0.000107254
0.000103253
0.000100863
0.000101237
0.000104959
0.000116414
0.000156107
0.000260074
0.000282268
0.000243605
0.000168679
0.000133231
0.000118952
0.000110618
0.00010567
0.000102521
0.00010069
0.000101215
0.000104221
0.000112882
0.000141719
0.000229665
0.000292614
0.000269335
0.000197069
0.000145378
0.000124429
0.000114407
0.000108311
0.000104444
0.000101965
0.000100531
0.000101165
0.000103622
0.000110509
0.000130897
0.000192222
0.000290681
0.000288276
0.000229056
0.000162202
0.00013219
0.000118562
0.000111065
0.000106516
0.000103489
0.00010153
0.000100396
0.000100877
0.000103049
0.000108734
0.000123984
0.000167944
0.000280842
0.00029851
0.000262866
0.000186544
0.000141296
0.000123703
0.000114348
0.000108604
0.000105093
0.000102708
0.000101187
0.000100293
0.000100501
0.000102624
0.000107268
0.000119148
0.000154942
0.000255144
0.000308536
0.000285792
0.000214182
0.000156267
0.000129746
0.000117858
0.000111182
0.000106662
0.000103953
0.000102063
0.000100888
0.000100212
0.000100209
0.000102382
0.000106188
0.000115721
0.000142553
0.0002196
0.000309519
0.000303125
0.000245692
0.000174894
0.000137953
0.000122353
0.000113797
0.000108753
0.000105164
0.000103031
0.000101574
0.00010065
0.000100142
9.99598e-05
0.000102194
0.000105348
0.000113326
0.000133919
0.00018443
0.000302798
0.000312492
0.000275226
0.000200291
0.000149312
0.000127322
0.000117032
0.000110822
0.000106805
0.000103957
0.000102279
0.000101142
0.000100451
0.000100088
9.9715e-05
0.000102027
0.000104712
0.000111462
0.000128095
0.000168732
0.000284654
0.00032265
0.000298769
0.00022644
0.000165194
0.000134319
0.000120704
0.000113134
0.000108388
0.000105231
0.000103038
0.000101647
0.000100793
0.000100279
0.00010004
9.9538e-05
0.000101869
0.000104183
0.000110073
0.000123926
0.000159098
0.000252252
0.00032834
0.000315063
0.000256372
0.000185189
0.000143207
0.000125125
0.00011605
0.000110173
0.000106469
0.000103946
0.000102314
0.000101178
0.000100505
0.000100149
0.000100005
9.95243e-05
0.000101723
0.00010369
0.000109027
0.000120989
0.000149792
0.000219608
0.000324666
0.000327685
0.000282567
0.000208781
0.000155599
0.000130653
0.000119079
0.000112493
0.000107882
0.000104922
0.000102987
0.000101633
0.000100779
0.000100276
0.000100037
9.99823e-05
9.95347e-05
0.000101344
0.000103219
0.000108177
0.000118983
0.000142924
0.000191836
0.000314441
0.00033661
0.000308575
0.000234023
0.000171426
0.000137834
0.000122816
0.00011476
0.000109657
0.000106064
0.000103755
0.000102214
0.000101109
0.000100458
0.000100098
9.99476e-05
9.99656e-05
9.9536e-05
0.000100972
0.000102801
0.00010742
0.000117596
0.000138241
0.000178445
0.000294408
0.000343145
0.00032555
0.000258964
0.000191299
0.000147018
0.000127558
0.000117369
0.000111446
0.00010749
0.000104685
0.000102867
0.00010153
0.000100697
0.000100197
9.99622e-05
9.98862e-05
9.99475e-05
9.95246e-05
0.000100682
0.000102458
0.000106823
0.00011658
0.000135133
0.000170984
0.000267814
0.000344174
0.000337864
0.000286236
0.000212019
0.000159755
0.000132837
0.000120841
0.000113445
0.000108886
0.000105807
0.000103598
0.000102081
0.000101017
0.000100382
0.000100007
9.9864e-05
9.9843e-05
9.99364e-05
9.94939e-05
0.000100462
0.000102202
0.000106376
0.000115936
0.000133224
0.000166015
0.000242126
0.000340638
0.000345331
0.000308742
0.000235325
0.000174533
0.000140267
0.000124331
0.000116051
0.000110514
0.000106978
0.000104501
0.000102717
0.000101413
0.000100616
0.000100137
9.98708e-05
9.97911e-05
9.98387e-05
9.99361e-05
9.94383e-05
0.000100313
0.00010201
0.000106118
0.000115619
0.000132772
0.000161857
0.000220488
0.000332062
0.000351546
0.00032854
0.000258909
0.000192173
0.000149147
0.000128974
0.000118625
0.000112529
0.000108314
0.000105483
0.000103415
0.000102003
0.000100986
0.000100336
9.99544e-05
9.97841e-05
9.97802e-05
9.98622e-05
9.9953e-05
9.93674e-05
0.00010027
0.000101875
0.000106042
0.000115669
0.000133148
0.000159306
0.000204325
0.00031839
0.000356976
0.000340871
0.000280144
0.000212373
0.000160635
0.00013418
0.000121831
0.000114545
0.000109909
0.000106601
0.00010427
0.000102615
0.000101426
0.000100647
0.00010012
9.98596e-05
9.97787e-05
9.9811e-05
9.99063e-05
9.99952e-05
9.92917e-05
0.00010032
0.000101841
0.000106229
0.000116109
0.000134287
0.000158375
0.000195638
0.000303651
0.000359582
0.000350458
0.00030151
0.000231548
0.000174711
0.000141034
0.000125298
0.000116895
0.000111524
0.000107909
0.000105198
0.0001033
0.000102022
0.000101023
0.000100393
0.000100002
9.98744e-05
9.98561e-05
9.99247e-05
9.99852e-05
0.000100052
9.92672e-05
0.000100465
0.000101913
0.000106628
0.000117188
0.000136477
0.000159834
0.00019191
0.000286319
0.000359003
0.000358151
0.000319593
0.000251149
0.000190195
0.000149314
0.000129631
0.000119486
0.000113319
0.00010921
0.000106294
0.000104163
0.000102656
0.000101614
0.00010075
0.000100281
0.000100033
9.9965e-05
9.99942e-05
0.000100117
0.000100116
0.000100084
9.92988e-05
0.000100638
0.000102129
0.00010742
0.000118814
0.000139375
0.000161444
0.000190605
0.000269857
0.000356004
0.000362475
0.000335201
0.000269261
0.00020672
0.000159592
0.000134409
0.000122476
0.00011536
0.000110648
0.000107429
0.000105089
0.000103424
0.000102201
0.000101326
0.000100622
0.000100331
0.000100205
0.000100224
0.000100275
0.000100464
0.000100451
0.00010022
9.93785e-05
0.000100833
0.000102546
0.000108596
0.000121536
0.000142724
0.000163022
0.000190525
0.000255475
0.000349637
0.000366506
0.000348631
0.000286075
0.000222961
0.000171442
0.000140479
0.000125589
0.000117584
0.000112282
0.000108684
0.000106168
0.000104257
0.00010287
0.000101884
0.00010121
0.000100734
0.000100496
0.000100449
0.000100595
0.000100662
0.000100873
0.000100998
0.000100441
9.95187e-05
0.000101088
0.000103184
0.000110217
0.000125063
0.000145882
0.000164692
0.00019103
0.000243547
0.00034079
0.000370343
0.000356768
0.000302159
0.0002389
0.000184253
0.000147714
0.000129374
0.000119845
0.000114046
0.000110046
0.000107232
0.000105253
0.00010368
0.000102517
0.000101773
0.000101316
0.000101056
0.000100998
0.000101015
0.000101375
0.000101604
0.000101679
0.000101528
9.95336e-05
9.82644e-05
9.97465e-05
0.000101373
0.000104042
0.000112554
0.000129113
0.000148786
0.000166249
0.000190468
0.000234
0.000331019
0.000372203
0.000363064
0.000317601
0.000253599
0.000197608
0.000156285
0.000133662
0.000122478
0.000115813
0.000111424
0.000108489
0.000106198
0.000104618
0.000103327
0.000102414
0.00010189
0.000101625
0.000101571
0.000101748
0.000101885
0.000102278
0.000102633
0.000102155
0.000102694
9.49653e-05
0.000102475
9.13477e-05
8.60754e-05
8.66183e-05
0.000100037
0.000101614
0.000105242
0.000115848
0.000133526
0.000151506
0.00016747
0.00018963
0.000226886
0.00032055
0.000372351
0.000368255
0.000330498
0.000267695
0.000210832
0.000165791
0.000138913
0.000125271
0.000117822
0.000112939
0.000109622
0.000107342
0.000105541
0.00010423
0.000103219
0.000102585
0.000102255
0.000102196
0.000102415
0.000102738
0.000103309
0.000103953
0.000103262
0.000103968
0.000103142
8.39898e-05
8.43255e-05
8.15438e-05
7.60544e-05
7.4794e-05
0.000100314
0.000101867
0.000106936
0.000120263
0.000137656
0.000153875
0.000168412
0.000188743
0.000222643
0.000310616
0.000372007
0.000371922
0.000341835
0.000280992
0.000223798
0.000175838
0.000144877
0.000128574
0.000119902
0.000114549
0.000110917
0.000108401
0.00010658
0.000105175
0.00010414
0.000103403
0.000103077
0.000102931
0.00010319
0.000103843
0.000104164
0.000104909
9.94246e-05
9.40068e-05
9.84198e-05
9.43333e-05
8.36978e-05
7.30662e-05
7.85187e-05
7.127e-05
6.6434e-05
6.53879e-05
0.000100555
0.000102371
0.000109305
0.000125132
0.000140871
0.000155645
0.000168989
0.000187869
0.000219961
0.000300323
0.000370206
0.000374781
0.000351386
0.000293006
0.000236198
0.000186542
0.000151367
0.00013225
0.000122194
0.000116201
0.000112182
0.000109534
0.000107586
0.000106158
0.000105105
0.000104382
0.000103937
0.000103957
0.000104315
0.000104636
0.000105785
9.53526e-05
9.22573e-05
8.83246e-05
8.96194e-05
8.6216e-05
8.21083e-05
8.00062e-05
7.62588e-05
6.41235e-05
6.91441e-05
6.30667e-05
5.81664e-05
5.76117e-05
0.00010078
0.000103329
0.000112569
0.000129839
0.000143541
0.000156781
0.000169156
0.000186939
0.000217971
0.000290754
0.000366998
0.000377321
0.00036031
0.000304185
0.000247847
0.000197217
0.000158704
0.000136347
0.000124616
0.000117943
0.000113367
0.000110578
0.000108603
0.000107181
0.000106097
0.00010544
0.00010494
0.000104848
0.00010519
0.00010641
0.000106883
9.25302e-05
8.33295e-05
7.8953e-05
8.18123e-05
7.94375e-05
7.70825e-05
7.46565e-05
7.41485e-05
7.19821e-05
6.74085e-05
5.66374e-05
6.12909e-05
5.61611e-05
5.14068e-05
5.11143e-05
0.000101034
0.000104735
0.000117061
0.000134029
0.000145738
0.00015754
0.000169178
0.000186055
0.000216333
0.00028224
0.000362901
0.000380192
0.000366263
0.00031405
0.000258733
0.000207779
0.000166647
0.000140939
0.000127413
0.000119513
0.000114812
0.000111488
0.000109579
0.000108168
0.000107264
0.000106551
0.000106223
0.000106118
0.000106394
0.00010728
0.000100555
8.34742e-05
7.97783e-05
7.5717e-05
7.54846e-05
7.35038e-05
7.22366e-05
6.99343e-05
6.91837e-05
6.72072e-05
6.57539e-05
6.42265e-05
6.01302e-05
5.04597e-05
5.46786e-05
5.01473e-05
4.57359e-05
4.54617e-05
0.000101271
0.000106599
0.000121964
0.000137363
0.000147477
0.000157969
0.000169189
0.000185416
0.000214977
0.000274779
0.000358513
0.000383175
0.000371034
0.000324634
0.000268483
0.000218066
0.00017489
0.000146239
0.000130371
0.000121701
0.000116009
0.000112558
0.000110369
0.000109156
0.000108413
0.000107847
0.000107648
0.000107622
0.000107927
0.000109033
0.000104756
8.47235e-05
7.14077e-05
6.77392e-05
6.95447e-05
6.83811e-05
6.7851e-05
6.55351e-05
6.50556e-05
6.29403e-05
6.19625e-05
6.0423e-05
5.85309e-05
5.76405e-05
5.40247e-05
4.53514e-05
4.91255e-05
4.49434e-05
4.09837e-05
4.09054e-05
0.000101423
0.00010916
0.000126968
0.000140402
0.000148829
0.000158306
0.000169283
0.000185113
0.000214067
0.000268553
0.000353933
0.000385818
0.000375628
0.000334065
0.000277642
0.000227778
0.000183471
0.00015196
0.000133959
0.000123641
0.000117707
0.000113544
0.000111152
0.000109947
0.000109452
0.000109303
0.000109108
0.000109307
0.000109732
0.000109837
0.000104332
7.5276e-05
7.16949e-05
6.74893e-05
6.45927e-05
6.42944e-05
6.32484e-05
6.14009e-05
6.14158e-05
5.92493e-05
5.88504e-05
5.6841e-05
5.56467e-05
5.45893e-05
5.24273e-05
5.21695e-05
4.85897e-05
4.09637e-05
4.44879e-05
4.05457e-05
3.7101e-05
3.71459e-05
0.000101642
0.000112689
0.000132033
0.000143239
0.000150127
0.000158728
0.000169462
0.000185018
0.000213578
0.000264013
0.000349408
0.000388086
0.000380214
0.000342606
0.000286292
0.000236763
0.000192107
0.00015813
0.000137764
0.000126523
0.000119272
0.00011471
0.000111859
0.000110573
0.000110414
0.00011074
0.00011117
0.000111253
0.000111163
0.0001107
0.000110317
7.89113e-05
6.31665e-05
6.18478e-05
6.01807e-05
5.94268e-05
5.89528e-05
5.77529e-05
5.75133e-05
5.5567e-05
5.61517e-05
5.40966e-05
5.33166e-05
5.19194e-05
5.02259e-05
4.98744e-05
4.73431e-05
4.73962e-05
4.37627e-05
3.72015e-05
4.02627e-05
3.67595e-05
3.39986e-05
3.41657e-05
0.00010205
0.000117052
0.000136726
0.000145885
0.000151568
0.000159253
0.000169787
0.000185226
0.000213281
0.000261237
0.000345424
0.000390061
0.000384676
0.000350574
0.000294352
0.000245134
0.000200491
0.000164637
0.000142233
0.000129119
0.000121491
0.000116033
0.000112634
0.000111173
0.00011124
0.000112243
0.00011341
0.000113903
0.000112654
0.000110143
0.000106912
9.24979e-05
7.37566e-05
9.80753e-05
6.3317e-05
8.43947e-05
5.7669e-05
6.95411e-05
5.41986e-05
5.93586e-05
5.27101e-05
5.22383e-05
5.15134e-05
4.99996e-05
4.8444e-05
4.81734e-05
4.55795e-05
4.60153e-05
4.32e-05
4.29313e-05
3.96345e-05
3.41836e-05
3.65383e-05
3.36299e-05
3.1749e-05
3.17449e-05
0.000102649
0.000121305
0.000140595
0.000148477
0.00015298
0.000159872
0.000170232
0.000185704
0.000213394
0.000259514
0.000342374
0.000392013
0.000389053
0.000358257
0.00030196
0.000252661
0.000208524
0.000171364
0.000146745
0.00013289
0.000123775
0.000117967
0.000113762
0.000111809
0.000111919
0.000113599
0.000115776
0.000116213
0.000114065
0.000111618
0.000118809
0.000138623
0.000124674
8.19965e-07
8.99963e-05
9.32426e-05
9.24177e-05
9.05954e-05
8.61647e-05
9.05566e-05
6.26422e-05
9.11257e-05
5.15728e-05
7.06075e-05
4.7195e-05
5.17804e-05
4.44207e-05
4.49328e-05
4.21566e-05
4.24268e-05
3.94313e-05
3.89944e-05
3.57945e-05
3.18453e-05
3.32244e-05
3.0799e-05
2.98676e-05
2.99863e-05
0.000103236
0.000124885
0.000144047
0.000150952
0.000154536
0.000160843
0.00017096
0.000186156
0.000213801
0.000258623
0.000340045
0.000394166
0.00039337
0.000366083
0.00030937
0.000259534
0.000215797
0.000178043
0.0001519
0.000136389
0.00012706
0.000120144
0.000115482
0.000112668
0.000112585
0.000114756
0.000105848
0.000118536
0.000121712
0.000145708
0.000188539
0.000228915
0.000272464
0.00012606
0.000248139
0.000108933
0.000149277
0.000101123
0.000132404
9.51152e-05
0.000119192
9.12395e-05
0.00010549
8.14119e-05
9.29317e-05
4.99955e-05
8.6952e-05
4.15336e-05
4.97541e-05
3.9299e-05
3.85653e-05
3.6048e-05
3.54083e-05
3.2534e-05
2.93617e-05
3.07752e-05
2.89085e-05
2.86685e-05
2.78594e-05
0.000103629
0.000127484
0.000147155
0.000153121
0.000156275
0.000161799
0.000172207
0.000186881
0.000214373
0.000258137
0.000338209
0.000396371
0.000397764
0.000373721
0.00031668
0.000265963
0.000222458
0.000184301
0.000156819
0.000140728
0.000130714
0.000123727
0.00011856
0.000114684
0.000113748
0.000115785
0.000104438
0.000122733
0.000151982
0.000219308
0.00032265
0.000474972
0.000601354
0.000557212
0.0007241
0.000233593
0.000413838
0.000197205
0.00034966
0.000166707
0.00028308
0.000142669
0.000215316
0.000120951
0.000167903
9.60597e-05
0.00013133
8.50739e-05
9.92284e-05
4.73552e-05
8.30849e-05
3.599e-05
4.21529e-05
3.26557e-05
3.22548e-05
2.94759e-05
2.72208e-05
2.8184e-05
2.65978e-05
2.92526e-05
2.55775e-05
0.000103589
0.000128821
0.000149238
0.000154983
0.000157746
0.000162936
0.000173617
0.000188442
0.000214983
0.000257993
0.000336633
0.000398322
0.000402299
0.000381331
0.000324186
0.00027192
0.000228561
0.000190057
0.000161658
0.000144803
0.00013542
0.000128937
0.000123493
0.00011988
0.000116191
0.00011672
0.000116208
0.00012989
0.000215809
0.000363777
0.000591233
0.000751556
0.000819208
0.000774964
0.000844655
0.000739857
0.000796614
0.000522718
0.000660826
0.000460142
0.000609115
0.000386542
0.000545458
0.000301965
0.000473573
0.000201742
0.000375304
0.000141428
0.000240512
0.000101447
0.000148474
8.04329e-05
0.000101025
3.73577e-05
7.07569e-05
2.98427e-05
3.22379e-05
2.74158e-05
2.47541e-05
2.54459e-05
2.23187e-05
3.83811e-05
2.45849e-05
0.000103367
0.000128426
0.000149902
0.00015593
0.000158824
0.000164094
0.000174837
0.00019036
0.000216524
0.000259028
0.000335559
0.000400154
0.000407251
0.000388238
0.000331997
0.000277827
0.000234079
0.00019548
0.000165957
0.000148895
0.000140037
0.000134624
0.000130105
0.000124692
0.00011968
0.000114975
0.00010994
0.000143311
0.000283538
0.000565761
0.000821518
0.000892424
0.000847183
0.000812778
0.000813734
0.000805223
0.000771342
0.00077104
0.000690862
0.000750728
0.000638403
0.000699696
0.000580285
0.00064102
0.000515643
0.000574854
0.00042756
0.00051096
0.000282646
0.000434469
0.00015155
0.000303802
9.69295e-05
0.000150184
5.59881e-05
8.92678e-05
2.94825e-05
4.20271e-05
2.81194e-05
1.85226e-05
2.52833e-05
1.91128e-05
1.89636e-05
1.37684e-05
0.000109323
0.000127475
0.00014888
0.000155797
0.000159257
0.000164823
0.000176028
0.000192208
0.000218803
0.000260443
0.000335699
0.000401954
0.000412665
0.00039476
0.00034059
0.000283795
0.00023935
0.000200226
0.000169813
0.000151717
0.000142868
0.000138896
0.000136223
0.000129609
0.00011889
0.000109993
0.000116039
0.000171958
0.000380912
0.000736137
0.000934923
0.000927202
0.000855886
0.000774241
0.000714955
0.00072844
0.00075109
0.000723277
0.000708891
0.000688282
0.000724563
0.000724549
0.000674935
0.000675715
0.000623212
0.000625679
0.000572042
0.000577341
0.000504907
0.000528655
0.00042634
0.000482968
0.00031378
0.000405815
0.00014017
0.000296268
8.05612e-05
0.000124456
3.36196e-05
7.24476e-05
2.96747e-05
1.37642e-05
2.66839e-05
2.99648e-05
2.04171e-05
9.04852e-06
0.000140509
0.000146353
0.000154289
0.000159044
0.000164994
0.000176946
0.000194052
0.00022105
0.000262636
0.000336345
0.000404082
0.000418369
0.000401276
0.000349107
0.00029012
0.000244151
0.00020503
0.000173368
0.000153403
0.000144125
0.000140807
0.000139667
0.000131187
0.000121061
0.000131113
0.000156033
0.000233188
0.000479431
0.000896528
0.00101245
0.000942385
0.000866166
0.00080958
0.000743302
0.000772483
0.000708311
0.000741139
0.000682337
0.000691789
0.000650851
0.000660792
0.000663415
0.00065207
0.000617835
0.000615276
0.000575896
0.000577104
0.000532418
0.000538155
0.000490696
0.000501098
0.000450927
0.000459856
0.000380329
0.000414897
0.000269741
0.000351022
0.00010718
0.000227262
5.91804e-05
9.26338e-05
4.19305e-05
2.1102e-05
4.11139e-05
3.15815e-05
1.67139e-05
2.06858e-05
0.000154284
0.000152265
0.000157816
0.00016493
0.000177449
0.000195569
0.000223205
0.000265841
0.000337659
0.000406388
0.000424569
0.000407797
0.000357808
0.000296469
0.000249624
0.000209242
0.000176424
0.000155286
0.000144773
0.000142527
0.000144756
0.000139841
0.000155181
0.000202418
0.000264728
0.000383553
0.000717686
0.000991328
0.00103857
0.00094548
0.000873882
0.000871124
0.000925199
0.000807722
0.000923054
0.00077828
0.00086659
0.000677158
0.000711217
0.000649618
0.000685007
0.000617821
0.00063298
0.000585695
0.000603964
0.000551557
0.000570677
0.000516113
0.000535492
0.000478199
0.000498849
0.000432365
0.000458251
0.000382256
0.0004088
0.000320121
0.000353027
0.000168798
0.000286157
6.9287e-05
0.000120467
5.63424e-05
2.24402e-05
3.96959e-05
4.48775e-05
3.11759e-05
2.60433e-05
2.40669e-05
3.45241e-05
9.77931e-06
8.20241e-06
0.000156693
0.000157123
0.000164951
0.00017796
0.000196678
0.000225203
0.000269223
0.000339509
0.000409132
0.000431189
0.000414828
0.000366232
0.000303835
0.000254519
0.000214947
0.000179384
0.000157084
0.000145588
0.000144549
0.000162146
0.000196058
0.000275636
0.000400555
0.000558056
0.000734014
0.000930416
0.00107908
0.00105674
0.000945495
0.000899999
0.000912857
0.000978794
0.000994034
0.000983231
0.000927372
0.000975639
0.000861875
0.000918206
0.000744941
0.000818494
0.000724336
0.000763416
0.000625318
0.000663654
0.000598808
0.000650255
0.000568113
0.000625695
0.00053445
0.000590886
0.000500289
0.000555361
0.000449616
0.000524726
0.000391082
0.00045786
0.000327827
0.000356068
0.000392802
0.000196893
0.000263646
0.000315094
0.000281313
6.86648e-05
8.76433e-05
0.000235593
0.000147153
0.000221647
7.72442e-05
6.28757e-05
5.4303e-05
2.29467e-05
4.02993e-05
1.60968e-05
4.33677e-05
3.03135e-05
2.91392e-05
1.53179e-05
9.69696e-06
8.06471e-06
2.22293e-05
0.000161823
0.000166053
0.000179065
0.000197768
0.000226782
0.000272283
0.000341843
0.000412446
0.000438455
0.000422095
0.000375175
0.000310672
0.000261193
0.000219558
0.000184095
0.00015875
0.000146444
0.00014592
0.000180208
0.000274372
0.000446409
0.000689024
0.000922544
0.001046
0.00108895
0.00111696
0.00105777
0.00095981
0.000924377
0.000963337
0.000988013
0.000935359
0.000832338
0.000867118
0.000724307
0.000943399
0.000927221
0.000860348
0.000840685
0.000804415
0.000849498
0.000756784
0.000768486
0.000688713
0.000716261
0.000654451
0.000687661
0.000619136
0.000650696
0.000581819
0.000611648
0.000548461
0.000572426
0.000519619
0.000544117
0.000422649
0.000465112
0.00049149
0.000521376
0.000337891
0.00038018
0.00038567
0.000423049
0.000263417
0.000322466
0.000289714
0.00012575
0.000245026
0.000187534
0.000220139
9.5325e-05
7.14825e-05
5.45636e-05
6.47281e-05
6.31682e-05
4.47408e-05
4.58437e-05
3.3363e-05
3.02424e-05
1.24636e-05
7.3809e-06
9.67156e-06
2.08777e-05
0.000174002
0.000181383
0.000199173
0.000228617
0.000274565
0.000344294
0.000416555
0.000446259
0.000430115
0.000383471
0.000319112
0.000266736
0.000226572
0.000188225
0.000162083
0.00014732
0.000146154
0.000190586
0.000330119
0.000588149
0.000964179
0.00119945
0.00122023
0.0012222
0.00113687
0.00104854
0.000971687
0.000967991
0.00101915
0.000980605
0.000443579
0.000537464
0.000359489
0.000457001
0.000325635
0.000780585
0.000644975
0.000658587
0.000538116
0.000762359
0.000731883
0.000671307
0.000596031
0.000699605
0.000698136
0.000657033
0.000643687
0.000619162
0.000599119
0.000582751
0.0005707
0.000551372
0.000544402
0.000530067
0.000535758
0.000537317
0.000536965
0.000460598
0.000493903
0.000514058
0.000525008
0.000369121
0.000412537
0.000419402
0.000457332
0.00026878
0.00035793
0.000307342
0.000162711
0.000246691
0.000200946
0.000229088
0.00013344
9.8823e-05
5.72214e-05
2.59138e-05
3.12582e-05
2.85088e-05
4.84966e-05
4.06944e-05
2.99165e-05
1.37441e-05
1.05085e-05
1.17288e-05
1.75033e-05
0.000190198
0.000201782
0.000230697
0.000277013
0.000346877
0.000421407
0.000454813
0.00043859
0.00039281
0.000325915
0.000274446
0.000232434
0.000195248
0.000164341
0.000148897
0.000145596
0.000190522
0.000363377
0.000703485
0.00118658
0.00137073
0.00136335
0.00124454
0.00114283
0.00104198
0.00101359
0.00102868
0.00109092
0.000956452
0.000363353
0.000159947
0.000139082
0.00024145
0.000174835
0.000217621
0.000159803
0.000385904
0.00028809
0.000310536
0.000246991
0.000511924
0.000400687
0.000375094
0.000304232
0.000577666
0.000480692
0.000525714
0.000416652
0.000507655
0.000422468
0.000505188
0.00044188
0.000522847
0.000505279
0.000490815
0.000465746
0.000526965
0.000527311
0.000520739
0.00050623
0.000489209
0.000508342
0.000516986
0.000517631
0.000405523
0.00045267
0.000446409
0.000483131
0.000289638
0.0003951
0.000343415
0.000178662
0.000271707
0.000207969
0.000248886
0.000154299
0.000128342
6.70574e-05
2.04224e-05
2.33618e-05
2.10574e-05
5.13561e-05
4.56106e-05
3.78434e-05
1.3678e-05
1.31495e-05
1.34823e-05
1.57881e-05
0.00020997
0.000233126
0.000279855
0.00034927
0.000426833
0.000464456
0.000448782
0.000401468
0.000335041
0.000280005
0.000240703
0.000201911
0.000170407
0.00015208
0.000144921
0.000181641
0.000368402
0.000785878
0.00134115
0.00148199
0.0014196
0.00125994
0.00113299
0.00107289
0.00105669
0.00116001
0.00118122
0.00093892
0.000338244
0.000112959
9.0008e-05
7.76408e-05
0.000122124
9.86455e-05
0.000115017
9.77616e-05
0.000190787
0.000143983
0.000163972
0.000130179
0.000250351
0.000206979
0.000223672
0.000177551
0.000342545
0.000280879
0.000355362
0.000291787
0.000388004
0.000334542
0.000452838
0.000426279
0.000386298
0.00049149
0.000475644
0.000459613
0.000441181
0.000516147
0.000508388
0.000497224
0.0004843
0.000500926
0.000507901
0.000508016
0.000505251
0.000438263
0.000475571
0.000467192
0.000492115
0.000327165
0.000428092
0.000382528
0.00018687
0.000306222
0.000226079
0.000283238
0.000164634
0.000141533
9.77181e-05
1.90179e-05
2.49582e-05
2.05959e-05
6.36353e-05
4.91518e-05
4.40398e-05
1.39897e-05
1.75444e-05
1.51004e-05
1.56343e-05
0.000239396
0.000282051
0.000352322
0.000432437
0.000475182
0.000459371
0.000413354
0.000341786
0.000288752
0.000247465
0.000211375
0.000176696
0.000156993
0.000145361
0.000159806
0.000355862
0.000821523
0.00144237
0.00155837
0.00143201
0.00124646
0.00114695
0.00111342
0.00114563
0.00129811
0.00131717
0.000912168
0.000333871
0.000116407
7.8408e-05
8.04628e-05
7.88465e-05
7.75061e-05
8.7622e-05
8.1529e-05
8.97559e-05
8.49788e-05
0.000107742
9.58372e-05
0.000101796
9.27935e-05
0.000142806
0.000117953
0.000142615
0.000114586
0.000233812
0.000183345
0.000285766
0.000237358
0.000346013
0.000305413
0.00042424
0.00040407
0.000350703
0.00037027
0.000470253
0.000455297
0.000439951
0.000422898
0.000497815
0.000488573
0.000477716
0.000465021
0.000497968
0.000497819
0.000494182
0.000487683
0.00045786
0.000482683
0.000472713
0.000487615
0.000366272
0.000446917
0.000415369
0.000203159
0.000346573
0.000258583
0.000322925
0.000179126
0.000155409
0.000118548
1.82112e-05
3.43344e-05
2.39937e-05
9.21714e-05
6.10221e-05
4.63838e-05
1.37818e-05
2.66984e-05
1.47173e-05
1.52761e-05
0.000286481
0.000354982
0.000437958
0.000486012
0.000473192
0.000424004
0.000353113
0.000294155
0.000256758
0.00022014
0.000188329
0.000160525
0.000145817
0.000145061
0.000314174
0.000817805
0.00149502
0.00161504
0.00143201
0.00124451
0.00118197
0.00117431
0.00131064
0.00141968
0.00136837
0.000817965
0.000335202
0.000117622
8.12055e-05
7.75528e-05
7.8432e-05
7.69717e-05
7.70692e-05
8.07836e-05
7.80352e-05
8.44984e-05
8.13576e-05
8.85062e-05
8.6365e-05
8.65602e-05
8.49903e-05
9.81679e-05
8.99228e-05
0.000111506
9.2763e-05
0.000189515
0.000145481
0.000264907
0.000220796
0.000333825
0.000314034
0.000276122
0.000297118
0.0004057
0.000387721
0.000346761
0.000363069
0.000451087
0.000436767
0.000422263
0.000407946
0.000479141
0.000469095
0.000458208
0.000447432
0.000486674
0.000482876
0.000475896
0.000468073
0.000462263
0.000476761
0.000465457
0.000474934
0.000400013
0.000451173
0.000434664
0.000232398
0.000380513
0.000296397
0.000356895
0.000205224
0.000177044
0.000131129
2.12751e-05
4.30832e-05
3.28853e-05
0.000106022
8.10972e-05
5.56564e-05
1.1784e-05
2.20301e-05
7.97797e-06
1.97639e-05
0.000358155
0.000443766
0.000498199
0.000485464
0.000440621
0.000360857
0.000303763
0.000263785
0.000234174
0.000198692
0.000163217
0.000142465
0.000136539
0.000285388
0.000793352
0.00150879
0.00164436
0.0014282
0.00126743
0.00122198
0.00131068
0.00145457
0.00153561
0.00134422
0.000646849
0.000306708
0.000115098
8.44122e-05
7.97689e-05
8.14131e-05
7.753e-05
7.88411e-05
7.62593e-05
7.66123e-05
7.82142e-05
7.65945e-05
8.18773e-05
7.87977e-05
8.42387e-05
8.35093e-05
8.32763e-05
8.2674e-05
8.5487e-05
8.35675e-05
0.000100725
8.63669e-05
0.000175564
0.000132643
0.000244635
0.000203244
0.000330186
0.000312994
0.000277493
0.00029568
0.000393447
0.0003785
0.000346095
0.0003616
0.000436862
0.000426224
0.000415078
0.000403108
0.000460255
0.000452782
0.000445477
0.000438059
0.000470403
0.000463869
0.000457308
0.000451392
0.000453881
0.000462807
0.000450163
0.000457436
0.000419991
0.000442048
0.000439211
0.00026803
0.000401711
0.000329833
0.000379399
0.000237912
0.000207514
0.000148669
3.23747e-05
4.62311e-05
4.08077e-05
0.000120812
9.34914e-05
6.95904e-05
1.67477e-05
1.5603e-05
1.18086e-05
3.55602e-05
0.000449316
0.000507163
0.000503345
0.000454116
0.000376082
0.000309557
0.000272834
0.000242471
0.000204035
0.000161043
0.000137638
0.000150494
0.000269819
0.000757466
0.00150387
0.00165573
0.00142846
0.00129401
0.00128293
0.00141108
0.00154816
0.00154193
0.00122054
0.000548143
0.00024179
0.000109258
8.72323e-05
8.35581e-05
8.03902e-05
8.14451e-05
7.82485e-05
7.93085e-05
7.55966e-05
7.68133e-05
7.62455e-05
7.5333e-05
7.93058e-05
7.65583e-05
8.1712e-05
8.09881e-05
8.10846e-05
8.00197e-05
8.25671e-05
8.18539e-05
9.31171e-05
8.24485e-05
0.000160171
0.000120779
0.000262329
0.000239918
0.000223297
0.000198927
0.000329966
0.00031346
0.000279635
0.000296661
0.000390228
0.000376385
0.000347166
0.000362281
0.000430248
0.000421782
0.000412304
0.000401607
0.00044635
0.000441753
0.000437086
0.000431993
0.000451122
0.000445338
0.000440648
0.000437095
0.00043718
0.000443926
0.00042997
0.000437279
0.00042565
0.000424363
0.000430012
0.000300319
0.000408668
0.000353202
0.000387983
0.000270473
0.000239515
0.000176076
3.81345e-05
5.2877e-05
3.55443e-05
0.000141971
0.00010892
7.88225e-05
2.70267e-05
1.90158e-05
2.07683e-05
3.40711e-05
0.000523587
0.000516036
0.000476111
0.000386929
0.000320949
0.000280429
0.000251996
0.000200297
0.000153349
0.000152872
0.000187575
0.000299075
0.00075955
0.00147838
0.00166118
0.00143776
0.00132125
0.00135712
0.0015119
0.00156713
0.00148826
0.000898508
0.000464926
0.00019182
0.000103275
8.97048e-05
8.6482e-05
8.37937e-05
8.05438e-05
8.1725e-05
7.85466e-05
7.94781e-05
7.61826e-05
7.75602e-05
7.50937e-05
7.49431e-05
7.7303e-05
7.49406e-05
7.96018e-05
7.91595e-05
7.87923e-05
7.79774e-05
7.94464e-05
7.89594e-05
9.24801e-05
8.06741e-05
0.000169437
0.000125283
0.000264431
0.00024627
0.000227096
0.000207131
0.000331429
0.00031524
0.000281882
0.00029875
0.000389672
0.000376536
0.000350086
0.000364675
0.000426159
0.000419326
0.000411183
0.00040162
0.000434598
0.000432344
0.000429717
0.000426518
0.000431591
0.000427433
0.000424726
0.000423098
0.000415382
0.000422416
0.000406532
0.000416103
0.000416798
0.000401732
0.000411778
0.000325092
0.000400807
0.000363215
0.000381811
0.000296103
0.000265121
0.000205145
3.0662e-05
5.75091e-05
3.4394e-05
0.000167305
0.000129857
9.15054e-05
2.36518e-05
2.19259e-05
7.635e-06
2.04895e-05