/*--------------------------------*- C++ -*----------------------------------*\
  =========                 |
  \\      /  F ield         | OpenFOAM: The Open Source CFD Toolbox
   \\    /   O peration     | Website:  https://openfoam.org
    \\  /    A nd           | Version:  dev
     \\/     M anipulation  |
\*---------------------------------------------------------------------------*/
FoamFile
{
    version     2.0;
    format      ascii;
    class       volScalarField;
    location    "2500";
    object      O2;
}
// * * * * * * * * * * * * * * * * * * * * * * * * * * * * * * * * * * * * * //

dimensions      [0 0 0 0 0 0 0];

internalField   nonuniform List<scalar> 
9714
(
0.23301
0.23301
0.23301
0.23301
0.23301
0.23301
0.23301
0.23301
0.23301
0.23301
0.23301
0.23301
0.23301
0.23301
0.23301
0.23301
0.23301
0.23301
0.23301
0.23301
0.23301
0.23301
0.23301
0.23301
0.23301
0.23301
0.23301
0.23301
0.23301
0.23301
0.23301
0.23301
0.23301
0.23301
0.23301
0.23301
0.23301
0.23301
0.23301
0.23301
0.23301
0.23301
0.23301
0.23301
0.23301
0.23301
0.23301
0.23301
0.23301
0.23301
0.23301
0.23301
0.23301
0.23301
0.23301
0.23301
0.23301
0.23301
0.23301
0.23301
0.23301
0.23301
0.23301
0.23301
0.23301
0.23301
0.23301
0.23301
0.23301
0.23301
0.23301
0.23301
0.23301
0.23301
0.23301
0.23301
0.23301
0.23301
0.23301
0.23301
0.23301
0.23301
0.23301
0.23301
0.23301
0.23301
0.23301
0.23301
0.23301
0.23301
0.23301
0.23301
0.23301
0.23301
0.23301
0.23301
0.23301
0.23301
0.23301
0.23301
0.23301
0.23301
0.23301
0.23301
0.23301
0.23301
0.23301
0.23301
0.23301
0.23301
0.23301
0.23301
0.23301
0.23301
0.23301
0.23301
0.23301
0.23301
0.23301
0.23301
0.23301
0.23301
0.23301
0.23301
0.23301
0.23301
0.23301
0.23301
0.23301
0.23301
0.23301
0.23301
0.23301
0.23301
0.23301
0.23301
0.23301
0.23301
0.23301
0.23301
0.23301
0.23301
0.23301
0.23301
0.23301
0.23301
0.23301
0.23301
0.23301
0.23301
0.23301
0.23301
0.23301
0.23301
0.23301
0.23301
0.23301
0.23301
0.23301
0.23301
0.23301
0.23301
0.23301
0.23301
0.23301
0.23301
0.23301
0.23301
0.23301
0.23301
0.23301
0.23301
0.23301
0.23301
0.23301
0.23301
0.23301
0.23301
0.23301
0.23301
0.23301
0.23301
0.23301
0.23301
0.23301
0.23301
0.23301
0.23301
0.23301
0.23301
0.23301
0.23301
0.23301
0.23301
0.23301
0.23301
0.23301
0.23301
0.23301
0.23301
0.23301
0.23301
0.23301
0.23301
0.23301
0.23301
0.23301
0.23301
0.23301
0.23301
0.23301
0.23301
0.23301
0.23301
0.23301
0.23301
0.23301
0.23301
0.23301
0.23301
0.23301
0.23301
0.23301
0.23301
0.23301
0.23301
0.23301
0.23301
0.23301
0.23301
0.23301
0.23301
0.23301
0.23301
0.23301
0.23301
0.23301
0.23301
0.23301
0.23301
0.23301
0.23301
0.23301
0.23301
0.23301
0.23301
0.23301
0.23301
0.23301
0.23301
0.23301
0.23301
0.23301
0.23301
0.23301
0.23301
0.23301
0.23301
0.23301
0.23301
0.23301
0.23301
0.23301
0.23301
0.23301
0.23301
0.23301
0.23301
0.23301
0.23301
0.23301
0.23301
0.23301
0.23301
0.23301
0.23301
0.23301
0.23301
0.23301
0.23301
0.23301
0.23301
0.23301
0.23301
0.23301
0.23301
0.23301
0.23301
0.23301
0.23301
0.23301
0.23301
0.23301
0.23301
0.23301
0.23301
0.23301
0.23301
0.23301
0.23301
0.23301
0.23301
0.23301
0.23301
0.23301
0.23301
0.23301
0.23301
0.23301
0.23301
0.23301
0.23301
0.23301
0.23301
0.23301
0.23301
0.23301
0.23301
0.23301
0.23301
0.23301
0.23301
0.23301
0.23301
0.23301
0.23301
0.23301
0.23301
0.23301
0.23301
0.23301
0.23301
0.23301
0.23301
0.23301
0.23301
0.23301
0.23301
0.23301
0.23301
0.23301
0.23301
0.23301
0.23301
0.23301
0.23301
0.23301
0.23301
0.23301
0.23301
0.23301
0.23301
0.23301
0.23301
0.23301
0.23301
0.23301
0.23301
0.23301
0.23301
0.23301
0.23301
0.23301
0.23301
0.23301
0.23301
0.23301
0.23301
0.23301
0.23301
0.23301
0.23301
0.23301
0.23301
0.23301
0.23301
0.23301
0.23301
0.23301
0.23301
0.23301
0.23301
0.23301
0.23301
0.23301
0.23301
0.23301
0.23301
0.23301
0.23301
0.23301
0.23301
0.23301
0.23301
0.23301
0.23301
0.23301
0.23301
0.23301
0.23301
0.23301
0.23301
0.23301
0.23301
0.23301
0.23301
0.23301
0.23301
0.23301
0.23301
0.23301
0.23301
0.23301
0.23301
0.23301
0.23301
0.23301
0.23301
0.23301
0.23301
0.23301
0.23301
0.23301
0.23301
0.23301
0.23301
0.23301
0.23301
0.23301
0.23301
0.23301
0.23301
0.23301
0.23301
0.23301
0.23301
0.23301
0.23301
0.23301
0.23301
0.23301
0.23301
0.23301
0.23301
0.23301
0.23301
0.23301
0.23301
0.23301
0.23301
0.23301
0.23301
0.23301
0.23301
0.23301
0.23301
0.23301
0.23301
0.23301
0.23301
0.23301
0.23301
0.23301
0.23301
0.23301
0.23301
0.23301
0.23301
0.23301
0.23301
0.23301
0.23301
0.23301
0.23301
0.23301
0.23301
0.23301
0.23301
0.23301
0.23301
0.23301
0.23301
0.23301
0.23301
0.23301
0.23301
0.23301
0.23301
0.23301
0.23301
0.23301
0.23301
0.23301
0.23301
0.23301
0.23301
0.23301
0.23301
0.23301
0.23301
0.23301
0.23301
0.23301
0.23301
0.23301
0.23301
0.23301
0.23301
0.23301
0.23301
0.23301
0.23301
0.23301
0.23301
0.23301
0.23301
0.23301
0.23301
0.23301
0.23301
0.23301
0.23301
0.23301
0.23301
0.23301
0.23301
0.23301
0.23301
0.23301
0.23301
0.23301
0.23301
0.23301
0.23301
0.23301
0.23301
0.23301
0.23301
0.23301
0.23301
0.23301
0.23301
0.23301
0.23301
0.23301
0.23301
0.23301
0.23301
0.23301
0.23301
0.23301
0.23301
0.23301
0.23301
0.23301
0.23301
0.23301
0.23301
0.23301
0.23301
0.23301
0.23301
0.23301
0.23301
0.23301
0.23301
0.23301
0.23301
0.23301
0.23301
0.23301
0.23301
0.23301
0.23301
0.23301
0.23301
0.23301
0.23301
0.23301
0.23301
0.23301
0.23301
0.23301
0.23301
0.23301
0.23301
0.23301
0.23301
0.23301
0.23301
0.23301
0.23301
0.23301
0.23301
0.23301
0.23301
0.23301
0.23301
0.23301
0.23301
0.23301
0.23301
0.23301
0.23301
0.23301
0.23301
0.23301
0.23301
0.23301
0.23301
0.23301
0.23301
0.23301
0.23301
0.23301
0.23301
0.23301
0.23301
0.23301
0.23301
0.23301
0.23301
0.23301
0.23301
0.23301
0.23301
0.23301
0.23301
0.23301
0.23301
0.23301
0.23301
0.23301
0.23301
0.23301
0.23301
0.23301
0.23301
0.23301
0.23301
0.23301
0.23301
0.23301
0.23301
0.23301
0.23301
0.23301
0.23301
0.23301
0.23301
0.23301
0.23301
0.23301
0.23301
0.23301
0.23301
0.23301
0.23301
0.23301
0.23301
0.23301
0.23301
0.23301
0.23301
0.23301
0.23301
0.23301
0.23301
0.23301
0.23301
0.23301
0.23301
0.23301
0.23301
0.23301
0.23301
0.23301
0.23301
0.23301
0.23301
0.23301
0.23301
0.23301
0.23301
0.23301
0.23301
0.23301
0.23301
0.23301
0.23301
0.23301
0.23301
0.23301
0.23301
0.23301
0.23301
0.23301
0.23301
0.23301
0.23301
0.23301
0.23301
0.23301
0.23301
0.23301
0.23301
0.23301
0.23301
0.23301
0.23301
0.23301
0.23301
0.23301
0.23301
0.23301
0.23301
0.23301
0.23301
0.23301
0.23301
0.23301
0.23301
0.23301
0.23301
0.23301
0.23301
0.23301
0.23301
0.23301
0.23301
0.23301
0.23301
0.23301
0.23301
0.23301
0.23301
0.23301
0.23301
0.23301
0.23301
0.23301
0.23301
0.23301
0.23301
0.23301
0.23301
0.23301
0.23301
0.23301
0.23301
0.23301
0.23301
0.23301
0.23301
0.23301
0.23301
0.23301
0.23301
0.23301
0.23301
0.23301
0.23301
0.23301
0.23301
0.23301
0.23301
0.23301
0.23301
0.23301
0.23301
0.23301
0.23301
0.23301
0.23301
0.23301
0.23301
0.23301
0.23301
0.23301
0.23301
0.23301
0.23301
0.23301
0.23301
0.23301
0.23301
0.23301
0.23301
0.23301
0.23301
0.23301
0.23301
0.23301
0.23301
0.23301
0.23301
0.23301
0.23301
0.23301
0.23301
0.23301
0.23301
0.23301
0.23301
0.23301
0.23301
0.23301
0.23301
0.23301
0.23301
0.23301
0.23301
0.23301
0.23301
0.23301
0.23301
0.23301
0.23301
0.23301
0.23301
0.23301
0.23301
0.23301
0.23301
0.23301
0.23301
0.23301
0.23301
0.23301
0.23301
0.23301
0.23301
0.23301
0.23301
0.23301
0.23301
0.23301
0.23301
0.23301
0.23301
0.23301
0.23301
0.23301
0.23301
0.23301
0.23301
0.23301
0.23301
0.23301
0.23301
0.23301
0.23301
0.23301
0.23301
0.23301
0.23301
0.23301
0.23301
0.23301
0.23301
0.23301
0.23301
0.23301
0.23301
0.23301
0.23301
0.23301
0.23301
0.23301
0.23301
0.23301
0.23301
0.23301
0.23301
0.23301
0.23301
0.23301
0.23301
0.23301
0.23301
0.23301
0.23301
0.23301
0.23301
0.23301
0.23301
0.23301
0.23301
0.23301
0.23301
0.23301
0.23301
0.23301
0.23301
0.23301
0.23301
0.23301
0.23301
0.23301
0.23301
0.23301
0.23301
0.23301
0.23301
0.23301
0.23301
0.23301
0.23301
0.23301
0.23301
0.23301
0.23301
0.23301
0.23301
0.23301
0.23301
0.23301
0.23301
0.23301
0.23301
0.23301
0.23301
0.23301
0.23301
0.23301
0.23301
0.23301
0.23301
0.23301
0.23301
0.23301
0.23301
0.23301
0.23301
0.23301
0.23301
0.23301
0.23301
0.23301
0.23301
0.23301
0.23301
0.23301
0.23301
0.23301
0.23301
0.23301
0.23301
0.23301
0.23301
0.23301
0.23301
0.23301
0.23301
0.23301
0.23301
0.23301
0.23301
0.23301
0.23301
0.23301
0.23301
0.23301
0.23301
0.23301
0.23301
0.23301
0.23301
0.23301
0.23301
0.23301
0.23301
0.23301
0.23301
0.23301
0.23301
0.23301
0.23301
0.23301
0.23301
0.23301
0.23301
0.23301
0.23301
0.23301
0.23301
0.23301
0.23301
0.233009
0.23301
0.233009
0.23301
0.233009
0.23301
0.23301
0.23301
0.23301
0.23301
0.23301
0.23301
0.23301
0.23301
0.23301
0.23301
0.23301
0.23301
0.23301
0.23301
0.23301
0.23301
0.23301
0.23301
0.23301
0.23301
0.23301
0.23301
0.23301
0.23301
0.23301
0.23301
0.23301
0.23301
0.23301
0.23301
0.23301
0.23301
0.23301
0.23301
0.23301
0.23301
0.23301
0.23301
0.23301
0.23301
0.23301
0.23301
0.23301
0.23301
0.23301
0.233009
0.233007
0.233002
0.233005
0.233007
0.233001
0.233008
0.233004
0.233009
0.233006
0.233009
0.233007
0.23301
0.233009
0.23301
0.23301
0.23301
0.23301
0.23301
0.23301
0.23301
0.23301
0.23301
0.23301
0.23301
0.23301
0.23301
0.23301
0.23301
0.23301
0.23301
0.23301
0.23301
0.23301
0.23301
0.23301
0.23301
0.23301
0.23301
0.23301
0.23301
0.23301
0.23301
0.23301
0.23301
0.23301
0.23301
0.23301
0.23301
0.23301
0.23301
0.23301
0.23301
0.23301
0.23301
0.233009
0.233005
0.232992
0.23296
0.23289
0.232965
0.233021
0.23299
0.232946
0.232995
0.232964
0.233
0.232977
0.233005
0.232989
0.233008
0.233
0.233009
0.233006
0.23301
0.233009
0.23301
0.23301
0.23301
0.23301
0.23301
0.23301
0.23301
0.23301
0.23301
0.23301
0.23301
0.23301
0.23301
0.23301
0.23301
0.23301
0.23301
0.23301
0.23301
0.23301
0.23301
0.23301
0.23301
0.23301
0.23301
0.23301
0.23301
0.23301
0.23301
0.23301
0.23301
0.23301
0.23301
0.23301
0.23301
0.23301
0.23301
0.233007
0.232991
0.232932
0.23278
0.232485
0.231814
0.232806
0.232152
0.232867
0.232603
0.232906
0.232704
0.232939
0.23279
0.23297
0.232872
0.232993
0.232941
0.233005
0.232983
0.233009
0.233003
0.23301
0.233009
0.23301
0.23301
0.23301
0.23301
0.23301
0.23301
0.23301
0.23301
0.23301
0.23301
0.23301
0.23301
0.23301
0.23301
0.23301
0.23301
0.23301
0.23301
0.23301
0.23301
0.23301
0.23301
0.23301
0.23301
0.23301
0.23301
0.23301
0.23301
0.23301
0.23301
0.23301
0.23301
0.23301
0.23301
0.233009
0.233002
0.232945
0.232732
0.232274
0.231458
0.230241
0.230004
0.22852
0.232061
0.230986
0.232231
0.231271
0.232406
0.231577
0.232586
0.231912
0.232767
0.232273
0.2329
0.232623
0.232972
0.23285
0.233001
0.232962
0.233009
0.233001
0.23301
0.233009
0.23301
0.23301
0.23301
0.23301
0.23301
0.23301
0.23301
0.23301
0.23301
0.23301
0.23301
0.23301
0.23301
0.23301
0.23301
0.23301
0.23301
0.23301
0.23301
0.23301
0.23301
0.23301
0.23301
0.23301
0.23301
0.23301
0.23301
0.23301
0.23301
0.23301
0.23301
0.23301
0.233008
0.232992
0.232848
0.232258
0.231107
0.229702
0.227833
0.227176
0.226167
0.227296
0.225559
0.230078
0.228675
0.230314
0.228804
0.230674
0.22908
0.231209
0.229505
0.231868
0.230292
0.232437
0.231394
0.232796
0.23223
0.232955
0.232751
0.233002
0.232954
0.233009
0.233004
0.23301
0.23301
0.23301
0.23301
0.23301
0.23301
0.23301
0.23301
0.23301
0.23301
0.23301
0.23301
0.23301
0.23301
0.23301
0.23301
0.23301
0.23301
0.23301
0.23301
0.23301
0.23301
0.23301
0.23301
0.23301
0.23301
0.23301
0.23301
0.23301
0.23301
0.233009
0.233008
0.233004
0.232973
0.232696
0.231629
0.229659
0.227302
0.224755
0.221442
0.224327
0.221833
0.223781
0.221981
0.227218
0.225498
0.227291
0.225331
0.227596
0.225397
0.228201
0.225732
0.229284
0.226629
0.230825
0.228225
0.232032
0.230274
0.232721
0.231893
0.23296
0.232723
0.233006
0.232973
0.233009
0.23301
0.23301
0.23301
0.23301
0.23301
0.23301
0.23301
0.23301
0.23301
0.23301
0.23301
0.23301
0.23301
0.23301
0.23301
0.23301
0.23301
0.23301
0.23301
0.23301
0.23301
0.23301
0.23301
0.23301
0.23301
0.23301
0.23301
0.23301
0.233009
0.233006
0.232999
0.232986
0.23293
0.2325
0.230944
0.228226
0.225175
0.222304
0.219956
0.218785
0.218799
0.220279
0.219219
0.219603
0.218655
0.223368
0.221388
0.223098
0.220765
0.223187
0.220389
0.223685
0.220466
0.224916
0.221297
0.227059
0.223158
0.22977
0.225932
0.231802
0.229474
0.232754
0.23183
0.23299
0.232822
0.233002
0.23301
0.233008
0.23301
0.23301
0.23301
0.23301
0.23301
0.23301
0.23301
0.23301
0.23301
0.23301
0.23301
0.23301
0.23301
0.23301
0.23301
0.23301
0.23301
0.23301
0.23301
0.23301
0.23301
0.23301
0.23301
0.23301
0.233009
0.233005
0.232992
0.232961
0.232914
0.232804
0.232235
0.230339
0.226996
0.223692
0.221639
0.220196
0.218914
0.219172
0.218347
0.218665
0.218195
0.218212
0.217544
0.217623
0.218863
0.217921
0.21816
0.217097
0.217629
0.216322
0.217576
0.215648
0.21858
0.215379
0.22123
0.215951
0.224873
0.219229
0.229251
0.22414
0.231969
0.229342
0.232914
0.23225
0.232975
0.23301
0.233001
0.233009
0.23301
0.23301
0.23301
0.23301
0.23301
0.23301
0.23301
0.23301
0.23301
0.23301
0.23301
0.23301
0.23301
0.23301
0.23301
0.23301
0.23301
0.23301
0.23301
0.23301
0.23301
0.23301
0.233006
0.23299
0.232936
0.232818
0.23268
0.232495
0.231808
0.229774
0.226156
0.223314
0.221834
0.220871
0.221351
0.219384
0.221028
0.219018
0.220303
0.2178
0.218203
0.217205
0.21774
0.216788
0.216923
0.215947
0.216106
0.215008
0.215223
0.214087
0.214142
0.213573
0.212994
0.213974
0.212066
0.217466
0.21231
0.223554
0.216308
0.229714
0.223808
0.232647
0.230514
0.232883
0.23301
0.233001
0.232974
0.232992
0.233007
0.232998
0.23301
0.23301
0.23301
0.23301
0.23301
0.23301
0.23301
0.23301
0.23301
0.23301
0.23301
0.23301
0.23301
0.23301
0.23301
0.23301
0.23301
0.23301
0.23301
0.23301
0.23301
0.233009
0.233001
0.232947
0.232763
0.23242
0.232087
0.231847
0.231224
0.229217
0.22567
0.22347
0.222373
0.222304
0.22438
0.225387
0.227492
0.221897
0.22371
0.221954
0.223688
0.218788
0.220263
0.218629
0.220389
0.21649
0.217251
0.215625
0.216588
0.214533
0.215479
0.213298
0.214085
0.212084
0.212605
0.210743
0.211132
0.210816
0.209451
0.215339
0.212603
0.209731
0.227909
0.223967
0.214991
0.220332
0.232534
0.231657
0.225255
0.229595
0.225299
0.23211
0.232393
0.232864
0.23301
0.233008
0.233005
0.232922
0.23296
0.232989
0.23301
0.23301
0.23301
0.23301
0.23301
0.23301
0.23301
0.23301
0.23301
0.23301
0.23301
0.23301
0.23301
0.23301
0.23301
0.23301
0.23301
0.23301
0.23301
0.23301
0.23301
0.233009
0.232995
0.232887
0.232496
0.231839
0.231331
0.231054
0.230451
0.228593
0.22548
0.223797
0.223322
0.224675
0.228017
0.228955
0.230449
0.228791
0.230294
0.225446
0.227161
0.225719
0.227246
0.222276
0.224068
0.222731
0.224713
0.21831
0.220508
0.217446
0.220204
0.215927
0.219102
0.214066
0.216851
0.211978
0.214154
0.210006
0.211434
0.208854
0.208549
0.208695
0.209125
0.211999
0.208804
0.209896
0.208412
0.220392
0.211576
0.215405
0.230285
0.220484
0.226419
0.221537
0.230956
0.23162
0.232632
0.233009
0.233007
0.233001
0.232788
0.232897
0.232958
0.23301
0.23301
0.23301
0.23301
0.23301
0.23301
0.23301
0.23301
0.23301
0.23301
0.23301
0.23301
0.23301
0.23301
0.23301
0.23301
0.23301
0.23301
0.23301
0.23301
0.233009
0.232993
0.232838
0.232225
0.231232
0.230504
0.230134
0.229569
0.227853
0.225387
0.224191
0.224233
0.226731
0.230283
0.232177
0.231411
0.232244
0.231337
0.232148
0.228723
0.230154
0.229011
0.230256
0.226371
0.227747
0.227104
0.228508
0.222961
0.225304
0.222458
0.22536
0.220738
0.224269
0.217908
0.221838
0.214527
0.218546
0.209995
0.211632
0.213061
0.215076
0.20811
0.20832
0.208766
0.209806
0.208795
0.20753
0.207871
0.207684
0.215561
0.208648
0.211497
0.227614
0.216297
0.222632
0.21708
0.228975
0.230145
0.232133
0.233009
0.232989
0.233003
0.232505
0.232742
0.232883
0.23301
0.23301
0.23301
0.23301
0.23301
0.23301
0.23301
0.23301
0.23301
0.23301
0.23301
0.23301
0.23301
0.23301
0.23301
0.23301
0.23301
0.23301
0.23301
0.233009
0.232994
0.232815
0.232011
0.230672
0.229666
0.229155
0.228542
0.226997
0.2253
0.224542
0.225041
0.228038
0.231199
0.232537
0.232914
0.232952
0.23261
0.232854
0.232586
0.232837
0.231324
0.232097
0.231446
0.232101
0.229618
0.230621
0.230216
0.231019
0.227556
0.229114
0.226996
0.228874
0.225031
0.227436
0.221924
0.22475
0.216403
0.218385
0.219633
0.221428
0.211342
0.212962
0.214632
0.216251
0.207916
0.208397
0.209478
0.210964
0.207264
0.207295
0.206933
0.207525
0.21183
0.207053
0.208723
0.224024
0.212187
0.218221
0.21291
0.225701
0.227582
0.231137
0.233008
0.232957
0.23299
0.231882
0.232394
0.232707
0.23301
0.23301
0.23301
0.233009
0.23301
0.23301
0.23301
0.23301
0.23301
0.23301
0.23301
0.23301
0.23301
0.23301
0.23301
0.23301
0.23301
0.23301
0.23301
0.232998
0.23282
0.231895
0.230203
0.228893
0.228188
0.227452
0.226302
0.225322
0.224866
0.225701
0.228782
0.231521
0.232641
0.23298
0.232995
0.233005
0.232942
0.232984
0.232929
0.232977
0.232556
0.232811
0.232524
0.23277
0.231636
0.232142
0.231701
0.232146
0.23018
0.23108
0.229199
0.230442
0.227068
0.228846
0.222545
0.224082
0.226109
0.217862
0.219372
0.220829
0.222195
0.212533
0.214125
0.215697
0.217231
0.208006
0.209078
0.210511
0.211999
0.206589
0.20714
0.206747
0.207601
0.208788
0.206273
0.206898
0.21967
0.209099
0.213893
0.209596
0.221494
0.223678
0.2293
0.233003
0.232877
0.232959
0.230662
0.231674
0.232327
0.23301
0.23301
0.23301
0.233008
0.23301
0.23301
0.23301
0.23301
0.23301
0.23301
0.23301
0.23301
0.23301
0.23301
0.23301
0.23301
0.23301
0.23301
0.233002
0.232839
0.231882
0.229898
0.228193
0.227282
0.226601
0.225893
0.225379
0.225187
0.226328
0.229196
0.231654
0.232676
0.232975
0.233007
0.233007
0.233005
0.233007
0.232995
0.233002
0.232986
0.232997
0.232902
0.232961
0.232855
0.232932
0.232474
0.232708
0.232326
0.232599
0.231309
0.231917
0.230147
0.231077
0.228006
0.229452
0.223468
0.224674
0.227138
0.226025
0.218704
0.220109
0.22145
0.222728
0.213511
0.215006
0.216452
0.217852
0.208618
0.209967
0.211374
0.212776
0.206345
0.207181
0.206737
0.208108
0.206896
0.205965
0.206001
0.215194
0.206998
0.210309
0.207255
0.21696
0.219136
0.226148
0.232992
0.232698
0.232884
0.228535
0.230331
0.231586
0.233009
0.23301
0.23301
0.233004
0.23301
0.23301
0.23301
0.23301
0.23301
0.23301
0.23301
0.23301
0.23301
0.23301
0.23301
0.23301
0.233009
0.233003
0.232881
0.231925
0.229797
0.227691
0.226675
0.226167
0.225804
0.225504
0.225613
0.227008
0.229671
0.231779
0.232715
0.232978
0.233008
0.233008
0.233009
0.233006
0.233008
0.233002
0.233005
0.232996
0.233001
0.232969
0.232987
0.232939
0.232969
0.232775
0.232881
0.232587
0.232776
0.23176
0.23226
0.230523
0.231323
0.227899
0.228765
0.229976
0.229333
0.223929
0.225046
0.227233
0.226294
0.219211
0.220526
0.221801
0.223032
0.214144
0.215496
0.216837
0.21816
0.209362
0.210649
0.211912
0.213174
0.206293
0.207565
0.206994
0.208695
0.2058
0.205872
0.205594
0.211364
0.205697
0.207709
0.205742
0.212816
0.214708
0.221799
0.232964
0.232332
0.232727
0.224992
0.228072
0.230251
0.233008
0.23301
0.23301
0.232993
0.23301
0.23301
0.23301
0.23301
0.23301
0.23301
0.23301
0.23301
0.23301
0.23301
0.233009
0.233007
0.233
0.232902
0.232053
0.229819
0.22746
0.226387
0.226024
0.225843
0.225778
0.226322
0.227923
0.230363
0.232009
0.232783
0.232985
0.233009
0.233009
0.23301
0.233008
0.233009
0.233007
0.233008
0.233004
0.233006
0.232999
0.233003
0.232985
0.232994
0.232963
0.232981
0.232879
0.232934
0.232691
0.232841
0.231938
0.232398
0.230653
0.231406
0.228057
0.228793
0.229965
0.229421
0.224197
0.225287
0.227296
0.226385
0.219461
0.220731
0.22197
0.22317
0.214436
0.215698
0.216982
0.218269
0.209836
0.210987
0.212135
0.213313
0.206424
0.207995
0.207283
0.209006
0.205267
0.205885
0.205428
0.208428
0.204994
0.205928
0.204812
0.209463
0.210964
0.217224
0.232901
0.231666
0.232439
0.220485
0.224419
0.228109
0.233004
0.23301
0.233008
0.232969
0.23301
0.23301
0.23301
0.23301
0.23301
0.23301
0.23301
0.23301
0.233009
0.233007
0.232999
0.232983
0.232898
0.232171
0.229943
0.22743
0.226299
0.22603
0.225998
0.226341
0.22739
0.229162
0.231087
0.232306
0.232868
0.232995
0.233009
0.23301
0.23301
0.23301
0.233009
0.233009
0.233007
0.233008
0.233005
0.233007
0.233002
0.233005
0.232991
0.232997
0.232972
0.232986
0.232913
0.232951
0.232726
0.232862
0.231997
0.232443
0.230416
0.230903
0.231208
0.231598
0.22811
0.228827
0.229977
0.229446
0.224313
0.225387
0.227288
0.226393
0.219544
0.220795
0.222021
0.223208
0.214516
0.215727
0.216941
0.218166
0.210026
0.211093
0.212163
0.21322
0.206613
0.208182
0.207395
0.209106
0.20501
0.20599
0.205388
0.20632
0.204633
0.204776
0.20432
0.20699
0.208068
0.2131
0.232796
0.230549
0.231976
0.216121
0.220028
0.224803
0.232996
0.233009
0.233006
0.232933
0.23301
0.23301
0.23301
0.23301
0.23301
0.23301
0.23301
0.233008
0.232999
0.232976
0.232934
0.232846
0.23222
0.230188
0.227484
0.226318
0.226084
0.226375
0.227304
0.228765
0.230466
0.23177
0.232587
0.232934
0.233003
0.233009
0.23301
0.23301
0.23301
0.23301
0.233009
0.233009
0.233008
0.233009
0.233006
0.233007
0.233003
0.233006
0.232994
0.232999
0.232976
0.232989
0.232925
0.232957
0.232731
0.232866
0.231995
0.232444
0.230404
0.230807
0.231172
0.231491
0.228087
0.228791
0.229936
0.229404
0.22434
0.225406
0.227125
0.226228
0.219404
0.220637
0.221855
0.223042
0.214296
0.215414
0.216578
0.217781
0.210034
0.210932
0.21183
0.212764
0.206672
0.208205
0.207351
0.208962
0.204911
0.206006
0.205411
0.204904
0.204451
0.204096
0.204044
0.205249
0.205946
0.209777
0.232633
0.228855
0.231221
0.212257
0.215826
0.220718
0.23299
0.23301
0.233009
0.232902
0.23301
0.23301
0.23301
0.23301
0.23301
0.233009
0.233003
0.232975
0.232906
0.232803
0.232674
0.232195
0.230428
0.227674
0.22638
0.226215
0.226901
0.228326
0.230052
0.231436
0.232308
0.2328
0.232974
0.233007
0.23301
0.23301
0.23301
0.23301
0.23301
0.23301
0.23301
0.233009
0.23301
0.233009
0.233009
0.233007
0.233008
0.233004
0.233006
0.232996
0.233001
0.232978
0.23299
0.232927
0.232959
0.232684
0.232857
0.231701
0.232035
0.232487
0.232238
0.230279
0.230702
0.231077
0.231413
0.227927
0.228635
0.229799
0.229256
0.224174
0.225239
0.22677
0.225854
0.219007
0.220235
0.221451
0.222639
0.213759
0.214819
0.21594
0.217111
0.209685
0.210418
0.211188
0.212019
0.206573
0.207932
0.207002
0.208484
0.204875
0.205861
0.20537
0.204
0.204348
0.203716
0.203868
0.204067
0.204414
0.207149
0.23241
0.226372
0.230116
0.209127
0.212217
0.216683
0.232993
0.23301
0.233009
0.232876
0.23301
0.23301
0.23301
0.23301
0.233006
0.232988
0.232904
0.232719
0.232517
0.232384
0.232046
0.230572
0.227985
0.226511
0.226366
0.227358
0.229121
0.230954
0.232041
0.232639
0.232915
0.232995
0.233008
0.23301
0.23301
0.23301
0.23301
0.23301
0.23301
0.23301
0.23301
0.23301
0.23301
0.233009
0.233009
0.233007
0.233008
0.233005
0.233007
0.232997
0.233002
0.232978
0.232991
0.232925
0.232958
0.232406
0.232525
0.232706
0.232791
0.232868
0.231629
0.23192
0.232188
0.230073
0.230525
0.230928
0.231295
0.227596
0.228332
0.229562
0.228985
0.223776
0.224851
0.226171
0.225209
0.218313
0.219523
0.220731
0.22192
0.212926
0.213909
0.214963
0.216076
0.209039
0.209621
0.210255
0.210962
0.206178
0.207388
0.206426
0.207756
0.204767
0.20543
0.205166
0.20348
0.204149
0.203479
0.203621
0.203343
0.203402
0.205219
0.232126
0.222878
0.228598
0.206672
0.209167
0.213346
0.23299
0.23301
0.233007
0.2328
0.23301
0.23301
0.233009
0.233001
0.232945
0.232737
0.232396
0.232154
0.23204
0.231777
0.230591
0.228266
0.226681
0.226499
0.22765
0.229596
0.231376
0.232348
0.232801
0.232964
0.233004
0.233009
0.23301
0.23301
0.23301
0.23301
0.23301
0.23301
0.23301
0.23301
0.23301
0.23301
0.23301
0.23301
0.233009
0.233009
0.233008
0.233009
0.233005
0.233007
0.232998
0.233002
0.232977
0.232991
0.232916
0.232955
0.232332
0.232469
0.232641
0.232769
0.232844
0.231471
0.231798
0.232086
0.229772
0.23027
0.230711
0.231109
0.227052
0.227849
0.229206
0.228566
0.223071
0.224171
0.225279
0.224238
0.217234
0.218416
0.219613
0.220809
0.21175
0.212619
0.213567
0.214591
0.208137
0.20855
0.209018
0.209558
0.205589
0.206629
0.205672
0.206817
0.20449
0.204842
0.204749
0.203169
0.203803
0.203196
0.203314
0.202894
0.20278
0.203796
0.231486
0.219304
0.22617
0.204761
0.206756
0.210333
0.232973
0.23301
0.233005
0.232614
0.23301
0.233008
0.232987
0.232871
0.232492
0.232034
0.231755
0.231644
0.231442
0.230524
0.228448
0.226865
0.226618
0.227796
0.229756
0.231445
0.232439
0.23286
0.232983
0.233006
0.23301
0.23301
0.23301
0.23301
0.23301
0.23301
0.23301
0.23301
0.23301
0.23301
0.23301
0.23301
0.23301
0.23301
0.233009
0.23301
0.233008
0.233009
0.233005
0.233007
0.232998
0.233003
0.232975
0.23299
0.232873
0.232918
0.232949
0.232237
0.232369
0.23258
0.232727
0.232819
0.23127
0.231631
0.231954
0.22936
0.22993
0.23043
0.230873
0.226256
0.227153
0.228708
0.227971
0.221988
0.223134
0.22404
0.22288
0.215682
0.216827
0.218013
0.219228
0.210178
0.210884
0.21168
0.212572
0.207012
0.207227
0.207489
0.207816
0.204859
0.205713
0.204822
0.205737
0.20387
0.203696
0.203833
0.202815
0.203344
0.202861
0.202855
0.20253
0.202312
0.202847
0.230317
0.215711
0.222406
0.203315
0.204692
0.207812
0.232939
0.23301
0.233002
0.232254
0.233006
0.232975
0.232758
0.232238
0.23167
0.231336
0.231207
0.231035
0.230294
0.22848
0.227034
0.22674
0.227844
0.229736
0.231389
0.232423
0.232867
0.232987
0.233007
0.23301
0.23301
0.23301
0.23301
0.23301
0.23301
0.23301
0.23301
0.23301
0.23301
0.23301
0.23301
0.23301
0.23301
0.23301
0.233009
0.23301
0.233008
0.233009
0.233006
0.233007
0.232998
0.233003
0.232969
0.232988
0.23286
0.232902
0.23292
0.232951
0.232102
0.232247
0.232494
0.232675
0.232792
0.231026
0.231425
0.231783
0.228825
0.2295
0.230082
0.230584
0.225158
0.226203
0.228047
0.227171
0.220453
0.221673
0.222372
0.221051
0.213567
0.214659
0.215838
0.217087
0.208213
0.208703
0.209288
0.209984
0.205752
0.205758
0.205792
0.205889
0.203539
0.204744
0.203388
0.204614
0.203273
0.202731
0.203027
0.202438
0.202685
0.202375
0.202078
0.202045
0.201792
0.202196
0.228378
0.212291
0.217952
0.202337
0.203078
0.205538
0.232874
0.23301
0.232997
0.231578
0.232948
0.232676
0.231984
0.231316
0.230917
0.230741
0.230559
0.229953
0.228449
0.227173
0.226872
0.227861
0.229634
0.231205
0.232319
0.232857
0.232988
0.233008
0.23301
0.23301
0.23301
0.23301
0.23301
0.23301
0.23301
0.23301
0.23301
0.23301
0.23301
0.23301
0.23301
0.23301
0.23301
0.23301
0.23301
0.233009
0.23301
0.233008
0.233009
0.233006
0.233008
0.232997
0.233003
0.232955
0.232943
0.232973
0.232986
0.232837
0.232887
0.232913
0.231943
0.232101
0.232388
0.232606
0.232751
0.23074
0.231185
0.231581
0.228135
0.228959
0.229656
0.230241
0.223686
0.224934
0.227181
0.22611
0.218378
0.219699
0.220138
0.218614
0.210818
0.211807
0.212959
0.214255
0.206043
0.206272
0.206579
0.206982
0.204587
0.204575
0.204497
0.204487
0.202389
0.203283
0.201996
0.203248
0.202268
0.201113
0.201812
0.201907
0.201545
0.201513
0.200801
0.201494
0.201103
0.201555
0.225284
0.208584
0.213097
0.201419
0.201991
0.20352
0.23276
0.23301
0.232993
0.230482
0.232537
0.231783
0.230988
0.230506
0.230266
0.230051
0.229477
0.228279
0.227284
0.227017
0.227893
0.229497
0.230987
0.232181
0.232828
0.232987
0.233008
0.23301
0.23301
0.23301
0.23301
0.23301
0.23301
0.23301
0.23301
0.23301
0.23301
0.23301
0.23301
0.23301
0.23301
0.23301
0.23301
0.23301
0.23301
0.233009
0.23301
0.233009
0.233009
0.233006
0.233008
0.232997
0.233002
0.232934
0.23295
0.232969
0.232978
0.23299
0.232809
0.232872
0.232897
0.231757
0.231929
0.23226
0.232521
0.232701
0.230407
0.230911
0.231349
0.227227
0.228262
0.229129
0.22983
0.22171
0.22323
0.226023
0.224685
0.215636
0.217062
0.217114
0.215344
0.207523
0.208263
0.20927
0.210581
0.204492
0.204576
0.204678
0.204812
0.203093
0.203003
0.203005
0.203039
0.20018
0.201651
0.199294
0.201223
0.200792
0.19882
0.199792
0.20104
0.199585
0.200144
0.199022
0.200444
0.200052
0.200922
0.221366
0.204744
0.209483
0.200895
0.201175
0.20138
0.232608
0.233006
0.232966
0.228808
0.231545
0.230722
0.230122
0.229805
0.229538
0.228982
0.228055
0.227398
0.227185
0.227967
0.229432
0.230839
0.232078
0.2328
0.232986
0.233008
0.23301
0.23301
0.23301
0.23301
0.23301
0.23301
0.23301
0.23301
0.23301
0.23301
0.23301
0.23301
0.23301
0.23301
0.23301
0.23301
0.23301
0.23301
0.23301
0.23301
0.23301
0.233009
0.233009
0.233006
0.233008
0.232996
0.233002
0.232925
0.232942
0.232962
0.232976
0.232987
0.232772
0.23285
0.232881
0.231539
0.231721
0.232103
0.232414
0.232635
0.230011
0.230592
0.231078
0.225986
0.227322
0.228441
0.229319
0.219018
0.220897
0.224436
0.222736
0.212095
0.213551
0.213043
0.211013
0.205021
0.20531
0.205794
0.206561
0.20312
0.203178
0.203297
0.203416
0.20057
0.199813
0.199829
0.199738
0.198782
0.199289
0.192896
0.198821
0.198464
0.193176
0.198433
0.199063
0.197959
0.197749
0.197585
0.198734
0.198495
0.199879
0.21716
0.202675
0.206566
0.199755
0.200018
0.200298
0.232179
0.232772
0.232288
0.225362
0.23042
0.229811
0.229388
0.229051
0.228545
0.227949
0.227505
0.227389
0.228126
0.22944
0.230788
0.232041
0.232785
0.232985
0.233008
0.23301
0.23301
0.23301
0.23301
0.23301
0.23301
0.23301
0.23301
0.23301
0.23301
0.23301
0.23301
0.23301
0.23301
0.23301
0.23301
0.23301
0.23301
0.23301
0.23301
0.23301
0.23301
0.233009
0.233009
0.233006
0.233008
0.232995
0.233002
0.232912
0.232934
0.232957
0.232973
0.232984
0.232723
0.232824
0.232857
0.231275
0.23146
0.231903
0.232274
0.232549
0.229507
0.230207
0.230749
0.224253
0.226006
0.227493
0.228639
0.215325
0.21765
0.222221
0.220036
0.207827
0.209111
0.207999
0.206523
0.203543
0.203701
0.203913
0.204057
0.199752
0.200171
0.200357
0.200833
0.19885
0.19236
0.192428
0.192551
0.193259
0.192992
0.189282
0.192979
0.193329
0.189682
0.193568
0.197426
0.193437
0.19355
0.193882
0.197157
0.196964
0.198376
0.211368
0.201198
0.203318
0.1979
0.198924
0.199639
0.229716
0.232994
0.232377
0.218589
0.22945
0.229038
0.228696
0.228318
0.227973
0.227659
0.227684
0.22841
0.229548
0.230822
0.232068
0.23279
0.232986
0.233009
0.23301
0.23301
0.23301
0.23301
0.23301
0.23301
0.23301
0.23301
0.23301
0.23301
0.23301
0.23301
0.23301
0.23301
0.23301
0.23301
0.23301
0.23301
0.23301
0.23301
0.23301
0.23301
0.23301
0.23301
0.23301
0.233009
0.233009
0.233006
0.233008
0.232983
0.23299
0.232997
0.233002
0.232895
0.232922
0.232949
0.232967