/*--------------------------------*- C++ -*----------------------------------*\
  =========                 |
  \\      /  F ield         | OpenFOAM: The Open Source CFD Toolbox
   \\    /   O peration     | Website:  https://openfoam.org
    \\  /    A nd           | Version:  dev
     \\/     M anipulation  |
\*---------------------------------------------------------------------------*/
FoamFile
{
    version     2.0;
    format      ascii;
    class       volScalarField;
    location    "2500";
    object      omega;
}
// * * * * * * * * * * * * * * * * * * * * * * * * * * * * * * * * * * * * * //

dimensions      [0 0 -1 0 0 0 0];

internalField   nonuniform List<scalar> 
9714
(
1.30952
1.4969
1.25057
1.39858
1.65156
1.09532
1.20045
1.76014
1.51232
1.05117
1.09015
1.72493
1.72951
1.26188
1.04322
1.04242
1.58594
1.82822
1.56386
1.13715
1.02845
1.0205
1.35738
1.84428
1.75881
1.30197
1.09263
1.01923
1.00989
1.19947
1.79486
1.83886
1.55058
1.16478
1.06286
1.01351
1.00457
1.11038
1.65657
1.8877
1.73879
1.29774
1.10963
1.04232
1.00916
1.00164
1.05961
1.44668
1.88294
1.84565
1.49528
1.16958
1.07472
1.02823
1.00591
0.999426
1.03278
1.25863
1.83412
1.88661
1.69763
1.27129
1.11119
1.04982
1.01816
1.00345
0.996482
1.01797
1.15391
1.71211
1.92099
1.81516
1.42978
1.1595
1.07359
1.03217
1.0107
1.00155
0.994078
1.00892
1.09124
1.51921
1.91644
1.88845
1.61494
1.2363
1.10342
1.04755
1.01883
1.0049
1.00008
0.992231
1.00264
1.05583
1.31732
1.87478
1.91944
1.76965
1.36289
1.14025
1.06676
1.02833
1.00884
1.00045
0.998875
0.99094
0.997884
1.03448
1.20469
1.77779
1.94998
1.85754
1.52202
1.20146
1.08838
1.03994
1.01405
1.00126
0.996773
0.997944
0.99005
0.99422
1.02065
1.13279
1.60617
1.95043
1.91764
1.68182
1.29647
1.11936
1.05343
1.02034
1.00296
0.995227
0.993895
0.997149
0.990644
0.991356
1.01084
1.08678
1.42581
1.92092
1.94823
1.80659
1.43054
1.16369
1.0715
1.02819
1.00565
0.994324
0.99038
0.991604
0.996513
0.991602
0.987489
1.00339
1.05813
1.27813
1.84696
1.97529
1.88452
1.5749
1.2382
1.09473
1.03879
1.00982
0.994664
0.98742
0.986499
0.98978
0.996028
0.992276
0.983646
0.995895
1.03894
1.19258
1.71879
1.98518
1.93795
1.71255
1.34075
1.13048
1.0526
1.01548
0.995832
0.985358
0.981842
0.983323
0.988304
0.995629
0.992817
0.980835
0.989368
1.02393
1.13669
1.56173
1.97068
1.97446
1.81995
1.46876
1.18386
1.07136
1.02339
0.99826
0.984344
0.9781
0.977459
0.980841
0.987077
0.99529
0.993344
0.978356
0.98449
1.01174
1.09773
1.40994
1.92681
1.99663
1.89844
1.59479
1.26392
1.09829
1.03423
1.00226
0.984756
0.975197
0.972231
0.973956
0.978803
0.986057
0.995025
0.993808
0.975677
0.980453
1.00264
1.07086
1.29045
1.84155
2.01882
1.95024
1.71565
1.36462
1.13802
1.04917
1.00825
0.986032
0.973364
0.967974
0.967685
0.971102
0.977106
0.985264
0.994825
0.994124
0.973207
0.976429
0.995827
1.05241
1.21943
1.72715
2.01669
1.99399
1.81458
1.47852
1.19527
1.06935
1.01658
0.988596
0.972771
0.964421
0.962365
0.964102
0.968738
0.975788
0.984639
0.994675
0.994051
0.971167
0.97276
0.990052
1.03999
1.17271
1.59603
1.99743
2.01654
1.89703
1.5926
1.27161
1.09824
1.02793
0.992884
0.973337
0.962185
0.957803
0.957922
0.96109
0.966875
0.974741
0.984168
0.99458
0.993831
0.96947
0.969028
0.985186
1.03124
1.14123
1.47854
1.95075
2.03502
1.95536
1.69484
1.36581
1.13821
1.04362
0.999192
0.974916
0.96099
0.95431
0.952655
0.954219
0.958699
0.965418
0.973958
0.983851
0.994489
0.993625
0.967927
0.965671
0.981002
1.02526
1.12031
1.38374
1.87976
2.0451
1.99424
1.79154
1.46535
1.19413
1.06406
1.0081
0.978046
0.961252
0.951845
0.948235
0.94826
0.951324
0.956883
0.964377
0.973442
0.983616
0.99442
0.993417
0.966317
0.962985
0.977438
1.02023
1.10667
1.31568
1.80048
2.04142
2.02161
1.86632
1.56735
1.26446
1.09203
1.01968
0.982777
0.962186
0.950405
0.944877
0.943187
0.944759
0.949196
0.955601
0.963644
0.973052
0.98363
0.994361
0.993204
0.964536
0.960727
0.974831
1.01726
1.10456
1.27096
1.72273
2.02775
2.03822
1.92503
1.65842
1.3479
1.13051
1.03463
0.989257
0.964202
0.950153
0.942328
0.939024
0.939152
0.942328
0.947651
0.954666
0.963202
0.973034
0.98391
0.994273
0.992958
0.962798
0.958853
0.973118
1.0163
1.10614
1.24492
1.64094
2.00017
2.05013
1.96925
1.73386
1.43541
1.18125
1.05427
0.998306
0.967686
0.950695
0.940713
0.935609
0.934478
0.936372
0.940617
0.946486
0.954219
0.963306
0.973239
0.984588
0.994226
0.992516
0.96098
0.957662
0.972967
1.01736
1.11135
1.23093
1.56493
1.96108
2.05837
2.00082
1.79953
1.51865
1.24338
1.08016
1.00938
0.972843
0.952092
0.939983
0.933128
0.930609
0.931346
0.934473
0.939353
0.945995
0.95444
0.964006
0.973676
0.985669
0.994694
0.991375
0.959407
0.957328
0.973526
1.02201
1.11998
1.22461
1.50323
1.91181
2.05781
2.02467
1.85581
1.59221
1.3124
1.1149
1.02285
0.979451
0.954362
0.940071
0.931436
0.927541
0.927207
0.92921
0.933201
0.938875
0.946484
0.955155
0.965547
0.974649
0.9866
0.9959
0.989712
0.958635
0.957752
0.976183
1.03064
1.13032
1.22415
1.45471
1.85729
2.0526
2.03843
1.90381
1.65573
1.38239
1.15781
1.04061
0.987028
0.957897
0.940619
0.930672
0.92537
0.923886
0.92496
0.927846
0.932801
0.939564
0.947852
0.956441
0.967927
0.977068
0.987544
0.997142
0.987602
0.958454
0.959093
0.980945
1.04368
1.14164
1.22817
1.41376
1.80062
2.03983
2.04653
1.94218
1.71009
1.44874
1.20777
1.06311
0.996424
0.962255
0.941927
0.930243
0.924055
0.921372
0.921522
0.923606
0.927512
0.933724
0.941032
0.950363
0.95882
0.970914
0.981402
0.990329
0.99783
0.985212
0.95917
0.961798
0.988495
1.05999
1.15216
1.23206
1.37954
1.7453
2.01571
2.04729
1.97205
1.7556
1.50891
1.26141
1.09146
1.00834
0.967427
0.944262
0.930559
0.923172
0.919672
0.918751
0.920073
0.923433
0.928685
0.935705
0.943859
0.95446
0.963448
0.975047
0.987283
0.995921
1.00023
1.00039
0.982863
0.961121
0.966325
1.00083
1.07864
1.16122
1.23315
1.35888
1.69072
1.98521
2.0461
1.99133
1.79594
1.56145
1.3161
1.12533
1.02322
0.974058
0.947016
0.931376
0.922726
0.918203
0.916774
0.917407
0.920171
0.924784
0.931324
0.939338
0.9484
0.960329
0.971607
0.983172
0.992507
0.991755
1.00069
0.995757
1.0013
1.00115
1.00232
0.980698
0.963998
0.973381
1.01896
1.09783
1.16834
1.23156
1.34236
1.63571
1.95177
2.04203
2.00287
1.83257
1.60642
1.36932
1.16338
1.04177
0.981926
0.950644
0.932604
0.92239
0.917449
0.915283
0.915291
0.91749
0.92197
0.927749
0.935672
0.94544
0.955834
0.968511
0.982664
0.990929
0.990986
0.995986
1.00402
1.00285
1.00558
1.00177
1.00476
0.979037
0.967984
0.982776
1.03968
1.1123
1.17248
1.22731
1.32672
1.58559
1.9154
2.034
2.00935
1.8634
1.64481
1.41852
1.20439
1.06369
0.991615
0.955152
0.934336
0.922552
0.916753
0.914369
0.914007
0.915488
0.91931
0.925427
0.933058
0.942537
0.954564
0.968321
0.983141
0.991453
0.992729
0.996735
0.997893
1.00511
1.00843
1.00815
1.01153
1.00289
1.00763
0.978471
0.973003
0.994139
1.06065
1.12149
1.17313
1.22141
1.31139
1.54084
1.87762
2.02371
2.0117
1.88883
1.6773
1.46263
1.24655
1.08858
1.00317
0.960338
0.936616
0.922919
0.915973
0.913366
0.913222
0.914439
0.91799
0.923347
0.931175
0.94195
0.954244
0.969119
0.985568
0.994017
0.996602
1.00028
1.00232
1.00737
1.01051
1.01174
1.01416
1.01611
1.01864
1.00426
1.011
0.978941
0.978605
1.00838
1.07926
1.12716
1.17079
1.21422
1.29654
1.50133
1.83976
2.01157
2.01106
1.90955
1.70469
1.5009
1.28801
1.11622
1.01694
0.966403
0.938937
0.923312
0.915177
0.912153
0.912353
0.913975
0.917486
0.922913
0.930518
0.94144
0.95558
0.970685
0.988689
0.999181
1.00456
1.00609
1.00956
1.01434
1.01846
1.0156
1.02044
1.02166
1.02123
1.02629
1.02725
1.00554
1.01573
0.980382
0.985064
1.0285
1.09485
1.13031
1.16569
1.20605
1.28247
1.46664
1.80342
1.99758
2.00888
1.92714
1.72838
1.53295
1.32776
1.14639
1.03285
0.973851
0.941681
0.923589
0.914273
0.910849
0.911197
0.914003
0.917813
0.923274
0.930701
0.941388
0.956096
0.975036
0.996203
1.0077
1.01391
1.01557
1.02024
1.02322
1.02974
1.02668
1.03255
1.02803
1.0351
1.03347
1.02912
1.03896
1.03867
1.00672
1.0222
0.983197
0.994242
1.05108
1.10594
1.13141
1.15981
1.19724
1.26926
1.4371
1.77019
1.98166
2.00546
1.94
1.74864
1.55967
1.36453
1.17775
1.05177
0.982841
0.945516
0.924107
0.913259
0.909221
0.910093
0.913982
0.918818
0.924916
0.932241
0.942472
0.957767
0.977888
1.00136
1.01843
1.02762
1.02838
1.03466
1.03635
1.04454
1.04029
1.04963
1.04405
1.05277
1.0436
1.05326
1.04779
1.03785
1.05358
1.05356
1.00828
1.02981
0.98711
1.00684
1.07337
1.11534
1.13111
1.15395
1.18882
1.2571
1.41256
1.74075
1.96569
2.00276
1.94884
1.76897
1.58135
1.39725
1.2102
1.07264
0.994065
0.950845
0.925552
0.912334
0.907145
0.908368
0.913669
0.921075
0.92812
0.936762
0.946868
0.962136
0.985074
1.01264
1.03216
1.04
1.04454
1.05216
1.05366
1.0642
1.05933
1.07158
1.06403
1.07655
1.06551
1.07913
1.06341
1.07508
1.06711
1.04854
1.0712
1.07139
1.01037
1.03799
0.991827
1.02267
1.0951
1.12389
1.13113
1.14895
1.18183
1.2467
1.39336
1.71426
1.95087
2.00086
1.95524
1.78907
1.59961
1.42532
1.24218
1.09521
1.0075
0.95821
0.928832
0.911856
0.904768
0.90582
0.913209
0.92375
0.934603
0.945017
0.961222
0.988689
1.02088
1.06228
1.05658
1.10171
1.06632
1.09965
1.07552
1.09965
1.08385
1.10079
1.09203
1.10586
1.09316
1.11316
1.0938
1.11039
1.08682
1.10433
1.09135
1.0627
1.09308
1.09021
1.01155
1.04976
0.996699
1.04228
1.11603
1.13217
1.13275
1.14541
1.17685
1.2389
1.37883
1.69071
1.93777
2.00001
1.96077
1.80808
1.61516
1.44878
1.2722
1.11946
1.02254
0.967615
0.934035
0.912425
0.902804
0.902858
0.911673
0.926331
0.943555
0.965514
1.01807
1.15058
1.40731
1.49585
1.23753
1.70342
1.19803
1.51161
1.16781
1.38405
1.14284
1.27922
1.13107
1.20286
1.12959
1.16524
1.13387
1.15442
1.12801
1.15438
1.11654
1.14042
1.12265
1.07462
1.12336
1.11864
1.01658
1.05566
1.00078
1.06384
1.13523
1.14184
1.13705
1.14465
1.17386
1.23434
1.36853
1.67118
1.92665
2.00005
1.96624
1.82602
1.62916
1.46767
1.29924
1.1437
1.03959
0.979333
0.941724
0.915924
0.902337
0.900013
0.909199
0.929382
0.959348
1.02427
1.25698
1.93837
3.22913
5.06983
2.876
6.42049
2.45925
4.92441
2.05556
3.88753
1.73453
3.05015
1.45661
2.31392
1.2812
1.71877
1.20212
1.37532
1.17966
1.23998
1.17531
1.20407
1.1513
1.19275
1.15577
1.09528
1.14905
1.14025
1.02075
1.0641
1.00417
1.08477
1.15354
1.1531
1.14309
1.14562
1.17237
1.23229
1.36271
1.65532
1.91765
2.00078
1.97198
1.84306
1.64258
1.48229
1.32276
1.16733
1.05736
0.993312
0.953059
0.923628
0.904733
0.899203
0.908042
0.9328
0.984848
1.1951
2.07571
4.2439
8.07389
13.5568
21.8542
9.94432
19.8207
7.92804
15.6163
6.23198
12.6986
4.68032
9.67997
3.14851
6.88395
2.06375
4.26369
1.47744
2.45036
1.27548
1.57059
1.22542
1.30393
1.2052
1.24284
1.20974
1.11759
1.19235
1.16878
1.01715
1.08464
1.00619
1.10066
1.17041
1.16445
1.15099
1.14898
1.17258
1.23164
1.35958
1.64328
1.91076
2.00292
1.97821
1.8601
1.65641
1.49351
1.34226
1.1886
1.07523
1.0082
0.967759
0.938587
0.915159
0.903097
0.909371
0.939214
1.03341
1.6095
4.01016
9.12962
15.7879
22.3189
28.1007
29.6477
31.3799
23.5066
27.7382
21.4694
27.3297
18.5579
26.0128
14.5589
23.87
9.43199
19.7391
5.54562
12.6745
2.82913
6.79617
1.63824
3.1163
1.32347
1.66479
1.25384
1.33362
1.25875
1.13158
1.24608
1.22188
1.01617
1.09007
1.00483
1.10821
1.18147
1.1757
1.15948
1.15488
1.17557
1.23237
1.35905
1.63413
1.90578
2.00677
1.98547
1.87685
1.67083
1.50284
1.35771
1.20748
1.09085
1.02376
0.987178
0.961803
0.938974
0.919757
0.923177
0.970674
1.15893
2.43371
7.0242
14.7941
22.2416
26.8204
29.34
31.6378
31.8021
32.4991
32.4599
30.476
31.8194
30.1322
32.072
29.2455
31.9381
27.4691
31.3992
23.8252
30.093
15.9632
26.6235
7.86662
18.7255
3.25829
8.49266
1.64526
3.2082
1.33427
1.59519
1.32289
1.15718
1.30955
1.31406
1.00977
1.07188
0.999527
1.1033
1.18491
1.18299
1.16679
1.16172
1.18143
1.23641
1.36002
1.62791
1.90288
2.01192
1.9936
1.89345
1.68637
1.51073
1.36981
1.22328
1.10434
1.03769
1.00558
0.987292
0.971788
0.959576
0.989686
1.12778
1.57399
3.89357
10.6123
19.9681
25.3231
27.5822
28.7964
29.556
32.1479
30.6974
32.7152
31.7679
32.8735
32.9942
33.0576
33.3821
32.9704
33.5958
32.6214
33.648
31.6841
33.4426
28.6104
32.7032
20.7916
30.0187
8.65469
21.583
2.97533
8.23786
1.53215
2.63467
1.48804
1.23571
1.51251
1.68615
1.04216
1.25592
1.03749
1.086
1.17916
1.18368
1.16989
1.16747
1.18806
1.24471
1.36383
1.62464
1.90286
2.01854
2.0026
1.90882
1.70261
1.51877
1.37961
1.23646
1.11492
1.04438
1.0141
1.00669
1.00779
1.05956
1.2659
1.75973
2.84093
6.245
14.7488
22.8433
26.2753
27.1797
27.1372
26.6569
27.0974
26.4558
30.0539
28.0588
30.461
28.7323
33.1182
32.2335
33.3878
32.5176
33.5531
32.7981
33.7145
33.1472
33.9002
33.5731
33.4665
33.9597
31.006
33.96
21.5128
31.4311
7.29521
20.181
2.28783
5.9698
2.07626
1.85699
2.23138
3.13137
1.0804
1.91782
1.1676
1.15981
1.17759
1.16894
1.17016
1.19409
1.25342
1.37174
1.62397
1.90428
2.0275
2.01236
1.92388
1.72019
1.52713
1.3866
1.24772
1.12353
1.04668
1.015
1.01638
1.07683
1.37311
2.22147
3.6681
6.0474
10.8387
18.3874
24.293
26.1769
26.2913
25.7998
25.8473
26.2512
26.0758
26.7486
27.0148
27.7365
26.9957
28.4388
27.74
30.7835
29.2912
31.2024
29.8349
31.7453
30.5661
32.4628
31.4205
33.3499
32.3627
33.9415
33.3827
34.2281
34.1064
31.4863
34.4206
17.4642
31.1353
4.6951
13.539
3.82276
3.89425
3.97722
4.51083
2.50867
4.87276
1.20237
1.16135
1.16405
1.17052
1.19825
1.2615
1.38049
1.62525
1.90758
2.0381
2.02379
1.93875
1.73946
1.53651
1.39369
1.25806
1.12901
1.04754
1.01349
1.02979
1.25356
2.28248
4.7268
7.99825
11.4962
15.3711
20.6797
24.7762
25.7838
24.9223
24.9539
25.9836
29.258
27.9889
30.1868
28.6686
30.3478
27.4471
27.761
28.3164
28.6524
29.1702
28.515
29.9432
29.3232
30.743
30.2922
31.6054
31.3004
32.5093
32.3317
33.4511
33.3141
34.2865
34.1057
34.6621
34.5815
30.0021
34.9606
10.4029
27.486
7.10366
4.44368
4.71398
5.29037
4.82548
4.3944
4.21354
1.04899
2.11954
1.54249
1.18369
1.15975
1.17079
1.20182
1.26905
1.38841
1.62795
1.91379
2.05154
2.03625
1.95438
1.75915
1.54873
1.3997
1.26981
1.1354
1.0485
1.00947
1.04412
1.57316
3.8071
8.03797
12.563
15.8455
18.6767
22.1919
24.6421
24.99
24.0867
24.1678
26.4526
30.8637
32.5321
32.5502
31.6215
32.3225
31.4308
32.0462
29.4902
30.6253
30.4767
30.9225
29.3909
29.7544
30.4878
31.0543
31.6106
32.4351
32.7257
33.7915
33.8032
35.2304
34.6702
36.2267
35.0864
36.7753
35.1012
35.2592
36.014
32.3688
35.38
35.6391
35.3938
12.7946
23.6858
34.5638
30.673
34.742
18.1279
14.9482
7.40502
2.07959
2.12179
3.2791
5.98278
4.63804
3.33978
1.30091
1.06896
1.55197
1.64943
1.18381
1.17469
1.20798
1.27761
1.39517
1.63123
1.92247
2.06704
2.05204
1.97002
1.78042
1.56087
1.40963
1.28055
1.14583
1.05024
1.00605
1.05213
1.87477
5.36807
11.193
16.1989
18.7878
20.633
22.7376
24.2201
24.0784
23.2866
23.9997
26.6304
29.997
32.0077
32.1301
32.321
31.0537
32.565
32.5919
31.8356
31.7549
31.2729
31.6698
31.4409
31.2799
31.4666
31.464
32.5308
32.3947
33.8189
33.5782
35.4156
35.072
37.4538
37.0232
39.6615
39.7077
37.5467
39.6273
40.9151
41.8701
36.1441
37.6037
36.5985
38.7816
35.242
36.2014
35.4337
29.6803
35.0338
33.5228
34.452
27.2995
22.6358
10.7568
1.79383
1.9221
2.29633
7.43052
4.7727
3.14586
1.86648
1.1595
1.531
1.91505
1.21345
1.22151
1.28751
1.40516
1.63447
1.9322
2.08584
2.07133
1.98886
1.80079
1.57723
1.41777
1.29533
1.15779
1.05301
1.0052
1.05121
2.05782
6.60017
13.7966
18.5663
20.4555
21.6406
22.6297
23.3479
22.6583
22.6744
23.6552
26.4095
27.849
22.8779
29.0235
23.6583
28.2703
23.634
31.357
30.3055
29.5643
28.4154
30.8786
30.2887
29.6769
28.1367
31.9946
31.112
32.8405
31.1856
34.1561
32.0369
36.0487
33.8273
38.8152
36.8868
41.9406
41.6447
41.1037
40.1011
40.9346
42.2959
43.0302
43.0315
38.2294
41.0205
40.1354
42.214
35.2433
38.8378
36.267
32.5146
34.882
33.9768
34.5743
30.8697
28.2623
16.4725
1.96932
2.37153
2.17469
10.698
6.93509
4.49039
1.79149
1.11549
1.36233
1.86959
1.27325
1.30177
1.41697
1.63889
1.94203
2.10762
2.09687
2.00885
1.82499
1.59118
1.43082
1.30942
1.17777
1.05936
1.00595
1.0427
2.09652
7.40879
15.7054
20.002
21.2806
21.8391
22.2455
22.1559
21.8528
21.9285
23.7154
26.0904
25.7123
17.0975
9.76319
8.16309
17.8144
11.879
15.9406
11.398
26.4214
21.9481
23.2721
19.1396
26.6623
25.3918
23.5736
21.3226
28.7078
26.0907
28.6859
25.1193
30.383
26.6798
33.7034
30.6311
38.883
37.5013
36.2595
34.6159
42.7988
42.1329
41.1653
40.0266
43.5527
44.1966
44.2323
44.0282
41.9734
43.2264
44.3191
44.6879
36.2448
42.7327
39.3378
33.3569
36.185
34.1586
35.9532
32.4759
31.046
23.9161
2.00559
3.20977
2.50652
17.76
11.1786
7.24265
1.60996
1.08078
1.26827
1.7817
1.3462
1.42913
1.64769
1.95268
2.13187
2.12491
2.03577
1.84723
1.61182
1.43983
1.32768
1.19854
1.07383
1.01012
1.03804
2.03916
7.7956
16.9882
20.8741
21.7035
21.7161
21.3936
21.0627
21.1053
21.9008
24.1307
25.9811
23.9016
14.3965
6.49542
5.9844
5.32497
8.52049
6.70262
8.24351
6.87308
14.3935
10.7526
12.7882
10.1786
18.9889
15.7513
16.13
13.929
21.7142
18.6703
23.3562
20.3177
27.5074
24.3835
33.3232
31.7974
29.7905
38.8382
37.519
36.2297
34.8517
43.4643
42.6324
41.6661
40.6095
45.4291
45.6002
45.4809
45.0747
45.3019
45.8865
47.0506
46.7483
39.665
46.145
43.2956
33.6857
39.7115
35.6135
39.5062
33.088
32.268
28.6457
2.1147
4.674
3.29284
24.6675
18.2771
11.3214
1.51973
1.04959
1.18656
1.82717
1.46102
1.65587
1.96521
2.15855
2.16188
2.06313
1.8784
1.62893
1.45714
1.34525
1.23062
1.09792
1.02229
1.051
1.94843
7.84518
17.7342
21.3857
21.8733
21.2762
20.4266
20.3075
20.7087
22.2094
25.0103
26.018
22.5455
12.8396
6.23397
5.08381
4.88894
5.42312
5.17082
6.15556
5.70995
6.58956
6.20735
8.24003
7.15392
8.55543
7.617
11.8917
9.99641
13.0293
11.0778
17.6336
15.2325
21.4869
18.8807
26.8731
23.9957
33.4902
32.1157
30.2724
31.9114
39.4713
38.2963
37.0715
35.8127
44.4083
43.6296
42.7706
41.8403
47.0917
47.0719
46.8571
46.4083
48.1763
48.096
49.4702
48.6456
43.6298
49.203
46.8306
35.1464
43.7016
39.1004
43.5182
34.4493
33.4913
30.9928
2.63543
7.27826
5.00362
28.3985
24.2149
17.762
1.52207
1.02369
1.2483
2.38056
1.67148
1.97758
2.18992
2.19669
2.1033
1.90582
1.65882
1.46776
1.36726
1.25936
1.12946
1.05639
1.12936
1.99567
7.7466
18.0295
21.7104
21.8569
20.5727
19.7479
19.8503
20.8528
22.9991
25.5927
25.9162
21.5133
11.5959
5.82133
4.74615
5.02034
4.86061
5.36943
5.17047
5.88136
5.60213
6.43982
6.15259
7.05935
6.72001
7.73555
7.29856
9.50685
8.42501
12.1008
10.2415
16.5255
14.2765
21.282
18.804
29.0222
27.365
24.5281
26.1552
34.5163
33.1766
31.8024
33.2708
40.8449
39.777
38.6307
37.3999
45.8696
45.259
44.5741
43.7979
48.8289
48.7907
48.6175
48.3625
50.8057
50.241
51.8508
50.6533
47.3164
52.0625
50.1002
38.4761
47.5412
43.1607
47.5165
37.5724
36.2695
32.1944
4.13046
11.1234
7.84469
30.6203
27.7176
23.1157
2.27228
1.08159
2.16854
4.56244
1.98978
2.21666
2.2476
2.13921
1.95075
1.68143
1.48956
1.38559
1.29746
1.17572
1.1551
1.3857
2.42132
7.86005
18.1053
21.8558
21.774
19.986
19.2649
19.641
21.3223
24.2749
25.8703
25.4221
19.7771
10.1124
5.35389
4.50925
4.81367
4.63719
5.08352
4.94228
5.37885
5.22635
5.85474
5.58927
6.47158
6.17585
6.95898
6.7046
7.66423
7.29534
8.95858
8.18058
11.9634
10.0966
16.5089
14.225
23.0185
20.48
30.2746
28.7693
25.8416
27.249
36.0923
34.7134
33.5343
35.1207
42.9076
41.893
40.7517
39.4879
48.033
47.6176
47.0921
46.4226
50.8598
50.9634
51.0197
51.0258
53.4309
52.5235
54.4006
53.002
50.7912
54.926
53.1715
42.6296
51.221
47.3224
51.4034
41.735
40.5286
34.7173
6.77261
16.3351
10.8935
32.6847
30.2298
26.4307
5.62082
1.73956
6.79654
7.50746
2.2609
2.28216
2.19652
1.98771
1.72573
1.50405
1.40703
1.33388
1.27134
1.42716
2.0651
3.69554
8.75072
18.0519
21.8553
21.6145
19.4765
18.9378
19.6594
22.1537
24.4894
25.6891
24.1473
17.3201
8.46544
4.80726
4.26947
4.44051
4.82608
4.65932
5.14111
4.97591
5.45962
5.2933
5.88037
5.64283
6.51482
6.19618
7.02617
6.79704
7.80061
7.44917
8.91274
8.22779
12.6881
10.4733
18.0692
15.4583
25.7758
24.0559
22.9415
21.4008
31.918
30.2955
27.1542
28.699
38.1176
36.6567
35.7612
37.4576
45.5813
44.5693
43.3974
42.0805
50.9163
50.6726
50.2692
49.6709
53.4155
53.8089
54.1647
54.4314
56.2374
55.1794
57.34
55.9161
54.0739
57.9858
56.2718
46.9312
54.6699
51.4633
55.069
46.3903
45.3303
38.719
8.95576
20.2428
13.3606
36.2528
33.0565
29.3954
9.47434
6.44993
11.2212
8.89102
2.35717
2.23522
2.05202
1.75905
1.53457
1.43007
1.39948
1.49078
2.15274
3.7192
6.65692
10.8519
17.897
21.7353
21.4303
19.0865
18.6378
19.7586
22.3863
24.302
24.8547
21.5239
13.9632
6.91329
4.30254
4.0395
4.16909
4.41185
4.83481
4.64925
5.1842
5.00297
5.51939
5.35312
5.91916
5.70092
6.55033
6.24768
7.13701
6.85681
8.02294
7.59836
9.273
8.56796
14.2406
11.4691
20.2053
17.4083
27.1753
25.6796
24.2143
22.9316
34.0241
32.2704
28.8248
30.5301
40.6394
39.0922
38.6395
40.4578
48.8588
47.8481
46.6581
45.307
54.5057
54.4052
54.1117
53.595
56.6637
57.3967
58.0496
58.5682
59.4465
58.4162
60.8754
59.542
57.368
61.4372
59.5523
51.4713
58.1426
55.4792
58.7306
51.2234
50.3226
43.4206
9.70354
23.4951
15.1821
40.5028
37.4701
33.077
9.52837
1.42649
3.5798
7.02704
2.32224
2.09545
1.8226
1.55698
1.4641
1.50473
2.0653
3.94808
7.03038
10.0065
12.8224
17.6989
21.3458
21.1643
18.7511
18.3264
19.692
22.1036
23.588
22.75
17.911
10.1979
5.45955
3.90668
3.80858
3.92328
4.11667
4.48853
4.62706
4.25065
4.83563
5.21189
5.0143
5.59367
5.40642
5.99206
5.78219
6.62868
6.3303
7.25197
6.95035
8.28672
7.79189
9.86594
8.94032
16.319
12.8326
23.1839
21.4507
18.2334
20.2794
29.1987
27.4813
25.9098
24.4597
36.7573
34.8316
31.019
32.9073
43.8136
42.1918
42.3865
44.3477
52.8422
51.8752
50.7132
49.3698
58.8186
58.8581
58.7107
58.3336
60.6777
61.7536
62.6924
63.4534
63.2639
62.3777
65.1757
63.9514
60.8542
65.4925
63.2134
55.9534
61.7705
59.5327
62.6464
56.252
55.6974
48.2992
9.05959
26.8602
17.8791
45.6916
42.2969
37.5276
3.73361
1.19367
1.58547
4.41618
2.19629
1.8669
1.60272
1.49738
1.77424
3.36187
7.01357
10.6223
12.6202
14.3672
17.5936
20.6998
20.7939
18.4258
17.9975
19.4453
21.421
22.2458
19.9253
14.0446
7.46034
4.34746
3.58275
3.57895
3.69211
3.82988
3.99449
4.61099
4.39459
4.19631
4.81239
5.22408
5.01712
5.65056
5.44125
6.0768
5.85756
6.7007
6.42098
7.38148
7.03313
8.61505
8.00597
10.6902
9.46571
20.0322
19.7927
17.0391
15.2914
13.1701
24.6983
23.2728
21.648
31.6813
29.7097
27.8969
26.2426
40.3112
38.1519
33.784
35.9592
47.8582
46.1819
47.2011
49.3333
57.7069
56.8536
55.7865
54.4922
63.9623
64.183
64.2271
64.0681
65.4879
66.9194
68.1774
69.2256
67.8572
67.1758
70.3417
69.212
64.6787
70.3465
67.4571
60.6299
65.752
64.1343
67.3568
61.5563
61.4002
53.7281
8.92541
31.3576
22.3953
50.8465
47.5585
43.0194
2.06851
1.15889
1.33057
4.11226
1.97282
1.64026
1.57192
2.21723
5.50656
10.1908
13.2828
14.4741
15.4813
17.5693
19.9846
20.2367
18.1611
17.6793
19.1424
20.7709
20.9052
17.5499
10.9221
5.66062
3.66429
3.31912
3.35831
3.4709
3.56033
3.69589
4.03128
3.82239
4.59865
4.35287
4.16006
4.78782
5.2273
5.00455
5.6973
5.46037
6.16927
5.93231
6.8177
6.54134
7.52527
7.15041
9.0146
8.26598
11.7885
10.1212
21.6234
21.2472
19.0237
16.4493
14.4283
26.7056
25.0666
23.4387
34.7778
32.4389
30.308
28.4124
44.8824
42.4119
37.2785
39.8493
52.9935
51.2751
53.2392
55.5769
63.6498
62.9763
62.0436
60.8473
70.0445
70.5994
70.8664
70.951
71.1801
73.0163
74.6691
76.0893
73.3776
72.8826
76.5073
75.4231
69.0297
76.1613
72.5029
65.9522
70.8152
69.8584
73.9522
67.498
67.421
59.3527
12.045
35.997
28.2365
56.7053
53.6797
48.391
2.03751
1.02137
1.21001
5.82742
1.73074
1.65997
3.20168
7.70964
12.8865
15.1154
15.6842
16.2664
17.5551
19.2606
19.5088
17.7556
17.4381
18.9515
20.3204
19.9639
16.1057
9.15766
4.63435
3.27779
3.10219
3.15948
3.26238
3.32059
3.43729
3.57332
3.929
3.75912
4.53639
4.30271
4.11231
4.76239
5.22196
4.9814
5.72938
5.46936
6.26413
5.99472
6.93421
6.65916
7.69484
7.27569
9.50464
8.56722
13.7445
12.1151
10.9763
23.4455
23.3146
20.7072
18.034
15.5273
28.9295
27.1427
25.3904
38.628
35.7754
33.1701
30.8953
50.6271
47.7759
41.6697
44.7507
59.3846
57.637
60.6546
63.2142
70.826
70.3891
69.6308
68.555
77.2711
78.2115
78.8776
79.2207
77.8939
80.2289
82.3486
84.2074
79.9274
79.6316
83.7685
82.7425
74.7482
84.2282
79.2734
72.2925
78.7432
77.0773
82.6615
74.4147
73.4639
65.2185
17.8355
41.78
34.113
63.5223
60.7936
54.3734
2.48958
1.02916
1.37651
8.60837
1.87287
3.9066
10.0087
14.8861
16.2093
16.5433
16.7511
17.5033
18.5754
18.7074
17.3267
17.1724
18.9227
20.115
19.4798
15.5719
8.56704
4.13514
3.03218
2.92635
2.98123
3.06451
3.10841
3.20627
3.31753
3.47473
3.88376
3.71721
4.50523
4.24634
4.03914
4.71119
5.20319
4.95418
5.75414
5.47194
6.35428
6.05092
7.06137
6.77929
7.88078
7.4124
10.1119
8.91997
14.6071
13.0995
12.5662
11.1055
25.5731
25.5046
22.8578
19.8737
16.9692
31.4545
29.4186
27.5756
43.4107
39.8881
36.6319
33.8104
57.7178
54.4327
47.1519
50.8518
67.1477
65.382
69.6159
72.3836
79.3423
79.2205
78.6652
77.7202
85.8049
87.1479
88.2285
89.0004
85.8087
88.7496
91.3837
93.7058
89.2607
87.5246
93.9495
91.2717
84.3142
96.0816
90.0857
80.0839
89.0646
85.6761
93.2632
81.0168
80.7386
72.0559
24.7334
48.2338
42.3259
72.3702
68.5348
61.0157
3.62309
1.17457
2.0326
12.7797
5.32453
11.5878
16.0391
17.0071
17.0105
17.0711
17.365
17.9397
17.7837
16.9979
16.9838
18.9837
20.1022
19.3811
15.5627
8.56626
3.92784
2.86785
2.76979
2.82606
2.88309
2.91871
2.99803
3.09029
3.20134
3.47468
3.63096
3.29039
3.82695
4.44892
4.18599
3.99568
4.67982
5.17979
4.91492
5.76415
5.46212
6.43394
6.09298
7.18275
6.89093
8.08587
7.55018
11.2619
11.8843
10.1526
9.33452
15.9051
13.8707
13.1873
27.8174
27.8558
25.1277
21.995
18.7298
34.3747
31.9276
29.9142
49.3764
45.0208
40.9119
37.3213
66.3435
62.6061
53.984
58.3887
76.3914
74.6165
80.3309
83.2229
89.3845
89.5097
89.2696
88.4623
95.697
97.3975
98.8452
100.011
95.0638
98.7941
101.987
104.795
103.36
98.289
111.953
102.646
96.6049
121.15
106.385
88.3757
104.208
98.7947
115.089
90.9314
93.7316
82.7892
32.1532
58.2803
50.9253
81.7567
75.6809
72.5362
5.7631
1.31339
3.19626
18.7132
13.5239
16.9182
17.4206
17.4139
17.2041
17.1626
17.1644
16.9575
16.5797
17.0122
19.2001
20.193
19.4564
15.8437
8.90635
3.86804
2.7462
2.64199
2.68181
2.72207
2.74929
2.81249
2.88786
2.96385
3.06128
3.58756
3.36706
3.2275
3.74583
4.40074
4.12658
3.92542
4.62519
5.15151
4.8825
5.76595
5.44778
6.50191
6.11978
7.2992
6.99266
8.30666
7.68687
12.4544
11.6096
10.7194
10.2266
9.2519
17.4458
14.9559
14.1865
30.2517
30.4277
27.644
24.3536
20.764
37.9034
34.7918
32.4916
56.9023
51.5071
46.3091
41.6957
76.7367
72.6178
62.571
67.7225
87.2629
85.4854
92.9867
95.7859
100.75
101.095
101.125
100.532
107.091
108.998
110.673
112.095
107.24
112.587
116.449
120.018
145.37
120.082
173.745
130.878
121.353
182.143
148.859
104.383
146.825
126.381
158.876
112.543
117.369
94.4401
38.5376
73.0102
57.1409
92.8879
90.533
99.4293
9.44187
1.42026
5.21641
26.3519
17.4846
17.8155
17.5847
17.19
16.7427
16.4271
16.3763
16.3994
17.2251
19.6418
20.442
19.7035
16.3341
9.42129
3.88934
2.65929
2.52931
2.55952
2.57615
2.59179
2.64627
2.70223
2.7575
2.84329
2.95603
3.53416
3.31872
3.18072
3.69388
4.33857
4.05736
3.86074
4.57769
5.11652
4.83208
5.75918
5.42417
6.55387
6.13137
7.40168
7.07878
8.56232
7.8218
13.2879
12.3145
11.0206
10.3926
9.65146
19.3139
16.2786
15.3121
32.927
33.2577
30.4025
26.9943
23.1227
42.3607
38.2112
35.3935
66.5073
59.8653
53.2914
47.3237
89.0776
84.748
73.3517
79.1564
99.6173
97.9907
107.212
109.324
113.073
113.573
113.61
112.959
122.244
124.264
125.374
126.736
146.385
168.852
165.915
169.009
191.85
173.735
400.194
190.24
185.072
421.513
194.201
151.432
203.862
196.301
203.763
162.105
169.105
118.766
46.1573
79.339
65.807
117.297
129.031
105.362
14.8913
7.25775
15.3427
35.4749
18.0041
17.7102
16.9827
16.2445
15.9726
15.9734
16.4653
17.7908
20.1131
20.7181
19.9617
16.7568
9.70979
3.95811
2.58525
2.43943
2.44555
2.45119
2.44875
2.4968
2.52996
2.57437
2.6469
2.73209
2.82599
3.0908
3.44871
3.2575
3.62543
4.27626
3.99041
3.79651
4.51352
5.07057
4.78238
5.74067
5.39152
6.58982
6.13536
7.4949
7.1597
8.85318
7.9567
14.2984
13.0735
11.544
10.8742
9.84614
21.5575
17.873
16.7126
35.9453
36.4255
33.4723
29.9832
25.8657
48.2698
42.5727
38.8281
78.6289
70.6484
62.4154
54.7614
103.241
99.1436
86.622
92.8431
112.373
111.319
121.083
122.121
127.522
127.822
127.389
125.372
168.13
164.58
161.851
157.485
192.534
371.544
374.405
360.303
429.002
409.842
816.043
403.711
448.497
833.084
448.8
219.656
456.24
477.305
473.511
235.873
248.081
172.016
57.9524
90.7137
87.2093
180.635
136.71
123.189
25.3489
10.762
22.6066
42.0968
17.5904
16.7316
15.7724
15.6281
15.9228
16.7512
18.718
20.5119
20.9511
20.1018
16.979
9.65568
3.95906
2.52182
2.35971
2.35044
2.33237
2.32304
2.36201
2.37315
2.41188
2.46692
2.52819
2.59351
2.81103
3.04639
2.95602
2.65857
3.40192
3.17576
3.55532
4.20614
3.92097
3.72966
4.4483
5.01527
4.71565
5.70933
5.34554
6.61262
6.12924
7.57295
7.22253
10.1664
9.58203
8.66529
8.09741
15.535
14.0843
12.1331
11.265
24.2864
19.8739
18.4456
39.4509
40.0067
36.8746
33.3564
29.0482
56.2414
48.3884
43.0921
93.6535
84.4487
74.3062
64.5392
117.715
114.916
102.552
108.618
124.068
124.052
132.564
133.737
155.765
151.568
150.288
145.773
363.705
354.061
353.15
346.822
384.916
788.8
791.976
771.94
834.803
820.673
2517.74
814.882
862.034
2517.45
848.589
476.016
866.396
900.224
873.19
478.439
486.401
244.243
64.747
126.45
95.7471
168.695
186.646
190.971
31.1207
16.4859
42.0324
51.5757
16.1327
15.555
15.4151
16.0372
17.4037
19.5273
20.7682
21.0423
20.0882
16.9353
9.06784
3.8297
2.45129
2.2932
2.26348
2.23221
2.20979
2.23806
2.23551
2.26939
2.30617
2.3489
2.39969
2.47203
2.90587
2.69886
3.12399
2.58919
3.32584
3.49391
4.13625
3.8511
3.66
4.37574
4.95136
4.64969
5.66411
5.29125
6.62077
6.09924
7.62258
7.26164
10.4734
9.65911
8.93309
8.21295
17.1068
15.3735
12.8612
11.8363
27.5719
22.3817
20.6459
43.7007
44.1663
40.5981
37.0694
32.683
66.9034
56.3802
48.7023
111.36
101.704
89.6827
77.3528
129.872
128.748
119.755
124.092
135.318
135.817
146.193
149.22
348.676
345.844
345.94
181.687
779.651
767.993
765.4
756.362
787.906
2508.2
2519.55
2500.3
2521.3
2518.98
15726.5
2519.86
2525.93
15727.1
2526.69
892.675
2527.85
2568
2521.77
895.615
487.915
899.317
80.9067
134.929
123.369
318.106
492.736
274.925
181.003
45.5407
35.1112
88.1603
58.3958
15.1951
15.3771
16.3411
18.2726
19.9587
20.8202
20.9992
19.8853
16.2937
8.08201
3.4823
2.38588
2.22197
2.19332
2.13484
2.11925
2.12619
2.11614
2.14348
2.16551
2.19433
2.23504
2.29552
2.36008
3.03122
2.84826
2.6461
3.25976
2.55056