/*--------------------------------*- C++ -*----------------------------------*\
  =========                 |
  \\      /  F ield         | OpenFOAM: The Open Source CFD Toolbox
   \\    /   O peration     | Website:  https://openfoam.org
    \\  /    A nd           | Version:  dev
     \\/     M anipulation  |
\*---------------------------------------------------------------------------*/
FoamFile
{
    version     2.0;
    format      ascii;
    class       volScalarField;
    location    "2500";
    object      p_rgh;
}
// * * * * * * * * * * * * * * * * * * * * * * * * * * * * * * * * * * * * * //

dimensions      [1 -1 -2 0 0 0 0];

internalField   nonuniform List<scalar> 
9714
(
0.0128191
0.0157971
0.0141252
0.0161445
0.0224937
0.0109405
0.0146275
0.0263497
0.0224523
0.00853679
0.0135486
0.0274142
0.0291793
0.0194649
0.00734369
0.0109845
0.0262922
0.0326129
0.0276905
0.0152315
0.0054505
0.0102873
0.0251418
0.0336315
0.0336654
0.0245484
0.0133232
0.00424537
0.00914266
0.0227816
0.0335333
0.0371465
0.0318937
0.0200017
0.0109721
0.00318951
0.00834146
0.0208093
0.0324396
0.0394426
0.0370138
0.0284351
0.0174179
0.00950103
0.00239988
0.00823782
0.0188782
0.0303604
0.0392823
0.0405571
0.0345709
0.0235039
0.0151066
0.00798346
0.00122544
0.00743858
0.0168226
0.0278881
0.037922
0.0424736
0.0391828
0.0311171
0.0211338
0.013381
0.00661704
0.000455712
0.0064521
0.0144836
0.0254291
0.0362109
0.0433039
0.0428262
0.0363264
0.0272779
0.0181454
0.011787
0.00558911
-0.00022772
0.00613508
0.0132125
0.0228553
0.0335685
0.0424934
0.0446897
0.0409539
0.0325193
0.0242051
0.0167464
0.0102939
0.00432879
-0.000967429
0.00552505
0.0122674
0.0214234
0.0319562
0.0414257
0.0461119
0.044423
0.03769
0.0289172
0.0215284
0.0151497
0.00910219
0.00353817
-0.00173794
0.00501233
0.0118343
0.0199544
0.0290847
0.0386841
0.0455917
0.0467737
0.0420135
0.0345088
0.0261726
0.0194414
0.0137113
0.00806879
0.00282161
-0.00231794
0.00412003
0.0103754
0.0179992
0.0272746
0.0363691
0.0457271
0.0478183
0.0449611
0.0393472
0.0312295
0.0234374
0.0179245
0.0120896
0.00709429
0.00208522
-0.00286004
0.00397926
0.0097009
0.0171538
0.0243478
0.0346816
0.0441672
0.048462
0.0480116
0.0419949
0.0342665
0.0281146
0.0212856
0.0165425
0.0113054
0.00632665
0.00118246
-0.00352317
0.00320898
0.00921103
0.0155009
0.0231557
0.032576
0.0418786
0.048477
0.0493486
0.0463417
0.0385033
0.0312742
0.0252606
0.0198939
0.0151003
0.010188
0.00550808
0.000755567
-0.00407932
0.00305566
0.00861108
0.0144615
0.0223139
0.0304585
0.0398171
0.0469064
0.0501241
0.0488992
0.0434554
0.0360806
0.0290846
0.0238462
0.019054
0.0143258
0.00959984
0.00497555
0.000330606
-0.00423091
0.00248661
0.00779499
0.0137638
0.0202075
0.0287151
0.0377134
0.0453895
0.0497225
0.0502507
0.0469676
0.0400121
0.0337456
0.0274486
0.0223517
0.0179724
0.0133048
0.00878925
0.00423853
-0.00015012
-0.00456916
0.00221662
0.00705648
0.012649
0.0191464
0.0263472
0.0352595
0.0435998
0.0487715
0.0506621
0.0489083
0.0439577
0.0368978
0.0308819
0.0261711
0.0213104
0.0170314
0.0121152
0.00802995
0.00376601
-0.000577413
-0.00485059
0.0017708
0.00642194
0.0106432
0.0166363
0.0247648
0.0330084
0.0415547
0.0475641
0.0509329
0.0502016
0.0467757
0.0400848
0.0341536
0.0290906
0.0246176
0.0202805
0.0159812
0.0118017
0.00736405
0.00338294
-0.00105228
-0.00506904
0.00147318
0.00572618
0.0106391
0.0154119
0.022496
0.0307765
0.0395983
0.0462011
0.0504213
0.0510265
0.0486047
0.0423495
0.037736
0.0325157
0.0279177
0.0236868
0.0193775
0.0152428
0.0112623
0.00712966
0.00295966
-0.00117608
-0.00532714
0.00110494
0.00515059
0.00931247
0.0144599
0.0206679
0.0288033
0.0376004
0.0445997
0.0494779
0.0514385
0.0499803
0.0457105
0.0403168
0.0352264
0.0309861
0.0267362
0.0226929
0.0183921
0.0145751
0.0105372
0.00675405
0.00269988
-0.00124127
-0.00532903
0.000851837
0.0046769
0.00908735
0.0139923
0.0196242
0.0280308
0.0361464
0.0428086
0.0482597
0.0512836
0.0510018
0.0478183
0.0425523
0.0378759
0.0336665
0.0294994
0.0257294
0.0219108
0.0180367
0.0140661
0.0104404
0.00657476
0.00270833
-0.00127252
-0.00545059
0.000575686
0.00419546
0.00815755
0.0129822
0.0188771
0.0262297
0.0335266
0.0411814
0.0467217
0.0504836
0.0517283
0.0498294
0.0453035
0.0407256
0.0359302
0.0323663
0.0284585
0.0246514
0.021171
0.0175327
0.0137025
0.0100737
0.00642302
0.00257789
-0.00124357
-0.00543292
0.000204761
0.0034488
0.00792475
0.012768
0.0182328
0.0244886
0.0310847
0.0395029
0.0452156
0.0496182
0.0515871
0.0508891
0.0476555
0.0427497
0.038613
0.0345925
0.0311654
0.027638
0.0237728
0.0206362
0.0168351
0.0134821
0.00991679
0.00630823
0.00259715
-0.00125164
-0.00519278
-0.000124921
0.00340193
0.00748769
0.0119399
0.0170992
0.0232199
0.0299491
0.0377516
0.043725
0.04835
0.0510883
0.051344
0.049086
0.0449905
0.0406709
0.0370141
0.0336219
0.0301869
0.0265934
0.0232892
0.0201792
0.0166733
0.0132708
0.00990713
0.00640984
0.00284052
-0.000905077
-0.00488575
-0.000120819
0.00309285
0.00678743
0.0107848
0.0159968
0.0224404
0.0282512
0.0357474
0.0423976
0.0470033
0.0502876
0.0513883
0.0498824
0.046936
0.0428161
0.0389124
0.035681
0.0325874
0.0293569
0.0261106
0.0228928
0.0195883
0.0164325
0.0131067
0.00996648
0.00655103
0.00308648
-0.000634301
-0.00460429
-0.000138377
0.0022296
0.00594047
0.010339
0.0153958
0.0212175
0.0266497
0.0339843
0.0405879
0.045642
0.0492609
0.0510685
0.0507246
0.0481562
0.0446902
0.0411331
0.037423
0.0347751
0.0318371
0.028711
0.0256566
0.0226768
0.0195521
0.0164099
0.0130743
0.0101452
0.00686361
0.00334045
-0.000216612
-0.00408985
-0.000195894
0.00193093
0.00604999
0.0103127
0.0150897
0.020289
0.0254649
0.0325462
0.0388817
0.0441911
0.0481414
0.0504306
0.0507913
0.0489086
0.0459307
0.0428149
0.0397132
0.0367671
0.03401
0.0310665
0.0280964
0.0252764
0.0223073
0.0194265
0.0163335
0.0135007
0.0104371
0.00731347
0.00397349
0.000416318
-0.00348884
-0.000229806
0.00194121
0.00553996
0.00858629
0.0142898
0.0190958
0.0246921
0.0308654
0.0372892
0.0426465
0.0468275
0.0496201
0.0505264
0.0496705
0.0471115
0.0439617
0.0414548
0.0384996
0.0358413
0.0333039
0.0304347
0.0278101
0.0249489
0.022323
0.0195224
0.0165722
0.0136413
0.0109715
0.00791476
0.00467278
0.00115838
-0.00284956
-0.000251112
0.0016035
0.00372856
0.00897972
0.0141633
0.0184607
0.0238129
0.0296923
0.0357031
0.041136
0.0454995
0.0485694
0.0501369
0.0498413
0.0480975
0.045496
0.0427778
0.0401704
0.0375932
0.0352416
0.0325883
0.0301136
0.0274793
0.0248469
0.0221905
0.0196473
0.0170345
0.0143368
0.0116375
0.00867225
0.00547708
0.00207973
-0.00192284
-0.000288712
0.00132914
0.00517795
0.0094219
0.0132321
0.0182587
0.0228601
0.0285482
0.0342762
0.0396798
0.0440177
0.0474166
0.0493879
0.0497495
0.0483943
0.046321
0.0437958
0.0415567
0.0393161
0.0369597
0.0346342
0.0323098
0.0297532
0.0272655
0.0248297
0.0223042
0.0199435
0.0174732
0.015035
0.0125038
0.00971066
0.00649704
0.0028532
-0.00380641
-0.00101842
-0.000485796
0.00142945
0.0048924
0.00810655
0.0131358
0.0175166
0.0222758
0.0273577
0.0328854
0.0380627
0.0426304
0.0461268
0.0484301
0.0493753
0.0487271
0.0467855
0.0445792
0.0426891
0.0406909
0.038619
0.0365404
0.0343055
0.0319399
0.0295605
0.0272189
0.0248982
0.0224764
0.0201972
0.0180484
0.0158386
0.0135155
0.0106614
0.00559669
0.0075459
0.00161841
0.00555304
0.00421689
-0.0032991
-0.000546824
-0.000145998
0.00219047
0.00354701
0.00820106
0.0128859
0.0169215
0.0214583
0.0263482
0.0315709
0.036625
0.0411411
0.0447836
0.0474398
0.0487219
0.0485485
0.047399
0.0456155
0.0435858
0.0418099
0.0399531
0.0379767
0.036149
0.0340056
0.0314755
0.029037
0.0270614
0.0248806
0.022831
0.0208514
0.0189395
0.0168897
0.0144512
0.00989421
0.012002
0.00806052
0.00221003
0.00684266
0.00497776
-0.0027613
3.11895e-05
-0.000115148
0.00230718
0.00482797
0.00790747
0.0124243
0.0163837
0.0206496
0.0252902
0.030191
0.0351005
0.0396028
0.0434311
0.04623
0.0478972
0.0481164
0.0474608
0.0459507
0.0440786
0.042732
0.0409476
0.0393883
0.037814
0.0357924
0.0337785
0.0312613
0.0290626
0.0271098
0.0251621
0.0233762
0.0217171
0.0200362
0.0179418
0.0138357
0.0157712
0.0104643
0.0125426
0.00903999
0.0029779
0.00750753
0.00564332
-0.0021604
0.000856483
-9.24748e-05
0.0023171
0.00454119
0.00779044
0.0125106
0.015629
0.0197537
0.0241281
0.0289201
0.0336084
0.0381891
0.0419697
0.0449816
0.0470103
0.0479088
0.0473272
0.0462249
0.0448123
0.0434062
0.0420865
0.0407048
0.0392766
0.0376727
0.035466
0.0333405
0.0311045
0.029046
0.0272511
0.025585
0.0241413
0.0228024
0.0211216
0.0175921
0.0193466
0.0144852
0.0164912
0.0114544
0.0134805
0.00982777
0.00368792
0.00842171
0.00653014
-0.00157802
0.00165165
-3.37788e-05
0.00242118
0.00478721
0.00800243
0.0115263
0.015257
0.0188176
0.0229943
0.0277375
0.0322297
0.0366606
0.0405598
0.0436496
0.0457859
0.0471324
0.0469116
0.0461907
0.0450324
0.0438536
0.0427525
0.0419169
0.0403144
0.0390092
0.0373231
0.0353074
0.0330724
0.0309856
0.0290739
0.0275194
0.026193
0.0251376
0.0238877
0.0209998
0.022589
0.0184015
0.020206
0.0156163
0.0176549
0.0122125
0.0144609
0.0107918
0.00466505
0.00923337
0.00749398
-0.000953807
0.00244496
1.02017e-05
0.00246299
0.00385907
0.00761599
0.0107799
0.0143197
0.0179153
0.0219042
0.0264248
0.0307993
0.0351913
0.0390416
0.0423071
0.0448059
0.0462575
0.0465837
0.0458581
0.0450532
0.0440834
0.0433611
0.042524
0.041435
0.0403684
0.0390433
0.0372468
0.0350362
0.0328468
0.0308631
0.0291468
0.0279069
0.0270132
0.0262011
0.0240432
0.0254206
0.0219216
0.0235441
0.019593
0.0214315
0.0166689
0.0187625
0.0132342
0.0156161
0.0118721
0.00551571
0.0103014
0.00859235
-0.000238016
0.00324636
0.000392704
0.00254181
0.00400611
0.0074638
0.0101343
0.0133765
0.0169243
0.0207736
0.0250326
0.029287
0.0335518
0.0375438
0.0408947
0.0434845
0.0452523
0.0460268
0.0457262
0.0448715
0.0440099
0.0433949
0.0427198
0.042177
0.0415216
0.0405986
0.0391525
0.0370759
0.0347402
0.0325245
0.0307049
0.0292404
0.028468
0.0279653
0.0266482
0.027753
0.0250711
0.026482
0.0231819
0.0248454
0.0207564
0.0226523
0.0178752
0.0200219
0.0144009
0.0168517
0.0130262
0.00657591
0.0115031
0.00974256
0.000698712
0.00414147
0.000651588
0.00217875
0.00441707
0.00709644
0.00978312
0.0124888
0.0158679
0.0195649
0.0236077
0.0277855
0.0320832
0.035947
0.0393714
0.0422912
0.0442562
0.0451251
0.0452677
0.044526
0.043816
0.0430971
0.0426708
0.0425283
0.0423524
0.0419358
0.0409713
0.0391917
0.0368417
0.0342963
0.0320342
0.0304471
0.0294127
0.0292227
0.0286777
0.0294679
0.0277767
0.0289096
0.0264135
0.0278731
0.0244621
0.0261864
0.0220737
0.0240327
0.0191824
0.0214014
0.0156625
0.0182113
0.0143398
0.00762734
0.0128087
0.0109987
0.00151807
0.0051805
0.00046371
0.00211114
0.00415584
0.00638014
0.00907788
0.0117027
0.0147111
0.0182835
0.0221573
0.0262576
0.0304606
0.0343235
0.0378781
0.0408778
0.0431117
0.0445004
0.0447299
0.0441577
0.0436016
0.0427619
0.042479
0.0425144
0.0427448
0.0428844
0.0425799
0.0413802
0.0391541
0.0364104
0.0335709
0.03128
0.0301587
0.0298147
0.030131
0.0306348
0.029917
0.0307902
0.0292206
0.0304405
0.0278218
0.0293657
0.0259136
0.0277132
0.0235267
0.0255636
0.0206344
0.0229421
0.0170769
0.019722
0.015773
0.00882644
0.0142433
0.0124093
0.00233335
0.00630202
0.000495297
0.00210492
0.00369649
0.00566889
0.00798072
0.0107169
0.0135609
0.0168976
0.0205632
0.0246809
0.0287265
0.0325783
0.0362575
0.0393461
0.0419382
0.0435024
0.0441731
0.0438939
0.043021
0.0424086
0.0420027
0.0421184
0.0426418
0.0433583
0.0438255
0.0434445
0.0417935
0.0389179
0.0356384
0.0326161
0.0309966
0.0304932
0.0310853
0.0319405
0.0316021
0.0325475
0.0315869
0.0328479
0.0308531
0.0323743
0.0294556
0.0311969
0.0275387
0.0294722
0.0251552
0.0272937
0.0222513
0.0246687
0.018632
0.021395
0.0173678
0.0101765
0.0158614
0.0139793
0.00326099
0.00749318
0.000322651
0.00144189
0.00326275
0.00482422
0.00726001
0.00965126
0.0123418
0.0154187
0.0190097
0.0229663
0.0269507
0.0308164
0.0345305
0.0378802
0.0405794
0.0424975
0.0435021
0.0434628
0.0426052
0.0418941
0.0413896
0.0413564
0.042017
0.0432076
0.0445087
0.0452149
0.0444659
0.0420961
0.0385549
0.035577
0.0356777
0.0415956
0.0357634
0.0286748
0.0342262
0.038792
0.0346983
0.0386336
0.0343653
0.0379415
0.0332552
0.0363819
0.0315271
0.0341989
0.0294425
0.0318449
0.0270063
0.0293607
0.024057
0.0266334
0.0203752
0.023284
0.0191767
0.0116319
0.0176745
0.0157113
0.00423688
0.00877577
0.000331288
0.00152343
0.00307209
0.00430134
0.00657536
0.00843967
0.0111948
0.0139634
0.0174116
0.0211749
0.0250821
0.028923
0.0326618
0.0361527
0.0391465
0.041611
0.0427178
0.0430002
0.0424651
0.0414608
0.0406841
0.0403912
0.0408848
0.0423247
0.0444025
0.0463353
0.0470625
0.045667
0.0435181
0.0437708
0.0535861
0.0821817
0.152171
0.0531254
0.121915
0.0491632
0.0768449
0.0465821
0.0687235
0.0434049
0.0607103
0.0394242
0.0518106
0.0354338
0.0433842
0.032164
0.0370016
0.0292575
0.0324639
0.0261246
0.029032
0.0223714
0.0254863
0.0212358
0.0132306
0.0197211
0.0176518
0.00523684
0.0101521
0.000104126
0.0011034
0.00239615
0.00378922
0.00563323
0.00739187
0.00996452
0.0125084
0.0156908
0.019301
0.0231394
0.0269382
0.0306796
0.0343268
0.0376515
0.0403095
0.0421291
0.0425973
0.0422703
0.0413857
0.04015
0.0393539
0.0394371
0.0407078
0.0432718
0.046436
0.0490376
0.04992
0.0517687
0.0662451
0.104422
0.177655
0.300622
0.33292
0.46924
0.132401
0.24007
0.119165
0.217521
0.10354
0.191005
0.0854368
0.158616
0.0652666
0.120888
0.0487272
0.082857
0.0387149
0.05588
0.0327894
0.040236
0.0286811
0.0328139
0.0246875
0.0281811
0.0236253
0.0149958
0.022061
0.019848
0.00625293
0.0116128
-5.04922e-06
0.000873442
0.00183536
0.00310942
0.00466253
0.00635848
0.00861764
0.0110329
0.0139539
0.0173979
0.0211097
0.0248333
0.028635
0.0323148
0.0358245
0.0387587
0.0410694
0.04223
0.042278
0.0414029
0.0400802
0.038514
0.0378299
0.0385362
0.0410311
0.0451492
0.0498024
0.053915
0.0655118
0.114407
0.213464
0.340036
0.506687
0.585107
0.665321
0.587707
0.734655
0.334999
0.465671
0.320029
0.464779
0.289618
0.447704
0.237813
0.412836
0.168111
0.336876
0.10471
0.223324
0.0634836
0.131124
0.0418785
0.0690994
0.0325802
0.0423806
0.0275146
0.0321285
0.0264826
0.0169696
0.0248129
0.0224632
0.00714974
0.0131363
-3.04646e-05
0.000542739
0.0013288
0.0024686
0.0037781
0.00524184
0.00722009
0.00956329
0.012253
0.0155005
0.0189708
0.0226103
0.0263869
0.0301363
0.0338027
0.0371095
0.0398834
0.0417317
0.0422527
0.041795
0.0403032
0.0382924
0.0364821
0.0360499
0.0378384
0.0423408
0.0489164
0.0571082
0.0828064
0.173763
0.341639
0.539994
0.759009
1.03767
0.830393
1.02632
0.895946
1.03361
0.609481
0.756213
0.616723
0.788459
0.599278
0.798486
0.549848
0.781108
0.445327
0.707601
0.286547
0.559564
0.15725
0.350213
0.074619
0.173773
0.0418839
0.0759013
0.0313955
0.0405772
0.0301192
0.0193493
0.0283203
0.0260213
0.00786703
0.015129
-5.42442e-05
0.000186437
0.000778743
0.00177502
0.00294527
0.00421459
0.00606299
0.00816471
0.0105661
0.013544
0.016863
0.0203772
0.0239866
0.0277659
0.0314922
0.0351184
0.0383002
0.0409112
0.0422511
0.0421405
0.0409636
0.0386302
0.0358486
0.0339769
0.0344387
0.0384867
0.0467878
0.0594582
0.100845
0.233598
0.456725
0.703935
0.934905
1.1343
1.25623
1.24552
1.15998
1.23027
1.23795
1.29891
0.951749
1.10492
0.995716
1.17993
1.00595
1.23437
0.977899
1.24799
0.874887
1.19602
0.679201
1.04582
0.411565
0.794051
0.188066
0.445977
0.0730472
0.18847
0.038312
0.0657518
0.0356538
0.0230458
0.0335753
0.0319309
0.00866267
0.0193115
8.33726e-06
0.000395678
0.00120385
0.00215826
0.00331332
0.00491676
0.00674257
0.00892298
0.0116294
0.0147207
0.0180574
0.0215693
0.0252185
0.0290485
0.0327828
0.0363718
0.0396024
0.0420017
0.0430252
0.0421482
0.039815
0.0361956
0.0326761
0.03178
0.0358389
0.0460344
0.0645972
0.119665
0.279802
0.545691
0.800345
0.970458
1.09769
1.22704
1.20169
1.29602
1.26548
1.3262
1.31457
1.40468
1.38776
1.32319
1.38323
1.4067
1.47569
1.47397
1.56567
1.50059
1.64287
1.43346
1.68713
1.22248
1.66062
0.905908
1.40042
0.475274
0.983099
0.175006
0.472419
0.0545581
0.143601
0.0459302
0.0307051
0.0422887
0.0401629
0.0149978
0.0310335
9.1551e-05
0.000623547
0.00143834
0.00244889
0.00378699
0.00541568
0.00736305
0.0098173
0.0126333
0.0156858
0.0190322
0.022518
0.0262302
0.0301623
0.0340516
0.0377722
0.0409493
0.0430637
0.0435878
0.0418116
0.0380207
0.0336887
0.0324198
0.0398978
0.0550889
0.0798206
0.145556
0.314409
0.594532
0.810568
0.932664
1.03503
1.05341
1.21387
1.09773
1.26966
1.18115
1.36472
1.32748
1.4405
1.39335
1.49304
1.47092
1.58969
1.56513
1.69186
1.66793
1.78694
1.77775
1.83932
1.8895
1.82287
1.97617
1.55824
1.95826
1.04612
1.66423
0.437852
1.03224
0.0962976
0.352833
0.0659886
0.0368864
0.0462351
0.0534627
0.0471561
0.0425216
0.0462215
0.00757803
0.0208063
0.0154921
0.000179834
0.000796323
0.00164724
0.00275538
0.00417114
0.0058798
0.0080688
0.0106096
0.0134164
0.0164992
0.0197564
0.0233444
0.0272178
0.0313101
0.0354666
0.0393435
0.0425612
0.0444081
0.0439213
0.0411066
0.0380213
0.0425405
0.0613915
0.0876697
0.115755
0.177293
0.340642
0.609109
0.775858
0.872463
0.917965
0.828252
0.789284
0.610305
1.06584
0.925801
1.09377
0.959416
1.31931
1.2167
1.36914
1.24377
1.52816
1.46729
1.62921
1.55837
1.74396
1.67362
1.86298
1.80639
1.97453
1.93653
2.08748
2.06465
2.08074
2.19312
1.75306
1.95816
2.17132
0.633268
1.02402
1.78924
1.3495
0.113912
0.222501
0.901074
0.457088
0.902405
0.16617
0.13453
0.0712485
0.0250902
0.0308211
0.0385299
0.0607794
0.0549384
0.0449036
0.0142824
0.00703763
0.0115392
0.0199888
0.000242243
0.000932649
0.00183401
0.00305255
0.00453172
0.00645754
0.00871032
0.0112231
0.0140031
0.0170308
0.0203424
0.0240737
0.0281745
0.0326048
0.0371339
0.0414292
0.0445225
0.0459366
0.0447667
0.0448802
0.0601548
0.0945839
0.128895
0.157695
0.216502
0.365286
0.597347
0.728841
0.785509
0.732549
0.533598
0.475704
0.335388
0.508396
0.360576
0.813296
0.661157
0.81966
0.678763
1.10318
0.960947
1.10604
0.941931
1.43701
1.27752
1.54299
1.34729
1.69173
1.47941
1.85108
1.67898
2.00778
1.88474
2.15866
2.07528
2.23708
2.26786
2.25966
2.23327
2.01481
2.24955
2.16786
2.27818
1.34863
2.05122
1.76048
0.381094
1.34639
0.792795
1.25547
0.308104
0.229457
0.102485
0.0254921
0.0313097
0.0368556
0.0811094
0.0612909
0.0479966
0.016671
0.00875103
0.0134006
0.022076
0.000288621
0.00103763
0.00206676
0.00332047
0.0049782
0.00694238
0.00916797
0.0116189
0.0143173
0.0173404
0.0207765
0.0247097
0.0291946
0.0341783
0.0393152
0.0440981
0.0471557
0.0481895
0.0522718
0.0788023
0.130028
0.173425
0.20502
0.258231
0.392781
0.577444
0.677796
0.701964
0.566633
0.327464
0.15736
0.245714
0.153118
0.260587
0.169002
0.534197
0.387597
0.52845
0.392497
0.793371
0.659779
0.758621
0.613431
1.13189
0.929597
1.22404
0.970947
1.4067
1.11655
1.64837
1.36024
1.90221
1.64197
2.18584
2.10169
2.01804
1.89704
2.3062
2.29418
2.26825
2.21623
2.2549
2.35059
2.3198
2.342
1.75401
2.2694
2.06192
0.673405
1.69837
1.15932
1.63875
0.529522
0.40155
0.167092
0.0277538
0.0397069
0.0347425
0.117181
0.0833581
0.0613562
0.0185059
0.00976723
0.0148633
0.0240977
0.000321241
0.00116629
0.00224246
0.00363526
0.00533945
0.00728054
0.00942411
0.0117622
0.0143927
0.0174607
0.0210407
0.0253536
0.0304717
0.0362676
0.0423359
0.0475858
0.050832
0.0584829
0.0950797
0.162455
0.217847
0.254321
0.306357
0.426614
0.556955
0.631555
0.627242
0.453353
0.229336
0.11171
0.0717994
0.064699
0.113966
0.082181
0.117049
0.0846943
0.26995
0.177272
0.265891
0.180167
0.48911
0.370103
0.445924
0.340252
0.752857
0.579823
0.852555
0.639962
1.08159
0.832428
1.38358
1.13111
1.80699
1.67147
1.57651
1.4366
2.13425
2.0401
1.93685
1.83044
2.32963
2.30267
2.24898
2.16939
2.37292
2.37591
2.40627
2.36384
2.04188
2.39129
2.267
1.0307
2.01919
1.54719
1.96792
0.869782
0.67954
0.287238
0.0305119
0.0481603
0.0398688
0.197622
0.132494
0.0896537
0.0203136
0.0105816
0.0161663
0.0263837
0.000368962
0.00126542
0.00245014
0.00389068
0.00557481
0.00742508
0.00941349
0.0116151
0.0141864
0.0173217
0.0212192
0.0261356
0.0321778
0.0391781
0.0463905
0.0524432
0.0625359
0.106025
0.18881
0.256942
0.300701
0.35746
0.449135
0.534781
0.59
0.565283
0.382301
0.18544
0.089533
0.0556835
0.0580401
0.0545428
0.0695893
0.0620204
0.0696298
0.0622133
0.119967
0.0858481
0.12455
0.0890152
0.253448
0.180099
0.254221
0.184962
0.472719
0.346845
0.61892
0.448569
0.88931
0.675041
1.34081
1.20401
1.00497
1.71866
1.60731
1.4934
1.37971
2.0785
1.98047
1.87805
1.77259
2.33744
2.28467
2.20816
2.12238
2.43394
2.39678
2.42867
2.37221
2.26637
2.45879
2.40254
1.42674
2.24695
1.89608
2.21352
1.26775
1.06814
0.497573
0.0340065
0.0635274
0.0482486
0.345716
0.226016
0.143355
0.0221388
0.0112169
0.0172938
0.029013
0.000397456
0.00137526
0.00261912
0.00406797
0.00565175
0.00732057
0.00910284
0.0111209
0.0136649
0.0169655
0.021319
0.0272171
0.0346747
0.0431653
0.0519527
0.0643725
0.110349
0.205112
0.289154
0.340674
0.392307
0.454574
0.511782
0.550521
0.508663
0.338436
0.161668
0.0760504
0.0503264
0.0491516
0.0471588
0.0533047
0.050913
0.0582883
0.0555377
0.0577254
0.0551195
0.0703098
0.0617752
0.0749412
0.0632487
0.133533
0.0973253
0.158753
0.115363
0.319015
0.223972
0.497309
0.358394
0.788798
0.601243
1.26695
1.15284
0.896857
1.01907
1.6656
1.55773
1.44883
1.33878
2.02984
1.93329
1.83503
1.73507
2.32267
2.25102
2.17022
2.08501
2.46023
2.40682
2.44152
2.36229
2.40473
2.49009
2.47523
1.79693
2.39857
2.16412
2.38053
1.65689
1.47619
0.829026
0.0390528
0.0922578
0.0632711
0.583318
0.38641
0.239124
0.0239903
0.0116223
0.0182694
0.0324863
0.000430183
0.00146799
0.00273999
0.00410218
0.00550143
0.00692428
0.00843462
0.0102291
0.0127104
0.0163211
0.0215469
0.0288127
0.0382414
0.0489098
0.0630373
0.110003
0.208939
0.307724
0.362122
0.401026
0.441826
0.487436
0.509714
0.452419
0.294721
0.14271
0.0660071
0.0447205
0.0430852
0.0460992
0.0444704
0.0495827
0.0478777
0.0530384
0.0512497
0.0522294
0.0502738
0.0575022
0.0544644
0.060509
0.0552666
0.0872811
0.0701312
0.1199
0.0885065
0.251404
0.172161
0.446047
0.322336
0.806074
0.697254
0.529161
0.619916
1.22902
1.12047
0.887035
0.992608
1.63307
1.52926
1.4232
1.315
1.99748
1.90698
1.81339
1.71673
2.2961
2.2225
2.14597
2.0664
2.4751
2.40261
2.44279
2.34338
2.48881
2.50568
2.51507
2.08882
2.49436
2.34919
2.48801
1.98177
1.83729
1.24309
0.0475279
0.144576
0.0897334
0.944727
0.634643
0.397929
0.0263866
0.0119487
0.0198639
0.0382519
0.000464502
0.00153927
0.00275881
0.00396523
0.00508651
0.00617277
0.00732083
0.00886392
0.0113312
0.015438
0.021918
0.0315825
0.0435943
0.0592778
0.10317
0.203977
0.309667
0.364057
0.392839
0.421571
0.453507
0.456261
0.385539
0.239436
0.119981
0.0569926
0.040423
0.0395307
0.0404942
0.0392455
0.0433805
0.0417703
0.0464392
0.0449289
0.0488043
0.0476672
0.0483585
0.0471769
0.0521661
0.049969
0.0546042
0.0509895
0.0705942
0.0604344
0.103511
0.077285
0.224787
0.151439
0.426588
0.308771
0.787967
0.693578
0.529458
0.607948
1.20656
1.09874
0.880395
0.98375
1.61727
1.51543
1.41099
1.30431
1.98344
1.8972
1.80627
1.71113
2.27806
2.20907
2.13733
2.0615
2.48093
2.39089
2.43727
2.33343
2.5352
2.51494
2.53412
2.29927
2.54988
2.47294
2.55497
2.22625
2.11787
1.63614
0.0617793
0.231338
0.132401
1.35966
1.00006
0.631792
0.031153
0.0126828
0.0243994
0.0478323
0.000497737
0.00156612
0.00267146
0.00361513
0.00434492
0.00494279
0.00558669
0.00686963
0.00942463
0.0146254
0.0234666
0.0361985
0.0529627
0.0931981
0.191256
0.298985
0.353067
0.374691
0.39594
0.407024
0.384027
0.302068
0.184683
0.0957278
0.049156
0.0379928
0.0369237
0.0366622
0.0387653
0.0369826
0.0415993
0.0401132
0.0439899
0.0427667
0.0461959
0.0451493
0.0456404
0.0444546
0.0487769
0.0471257
0.0513046
0.0481893
0.0636853
0.0560168
0.097213
0.0727939
0.214619
0.143755
0.459886
0.384863
0.33603
0.275511
0.781898
0.689165
0.526893
0.604007
1.19686
1.08978
0.88102
0.982753
1.61269
1.51149
1.40752
1.30143
1.98111
1.89713
1.80953
1.71816
2.27239
2.20675
2.13815
2.06739
2.47997
2.38695
2.43704
2.33237
2.55863
2.51828
2.54548
2.44432
2.57865
2.55196
2.59168
2.39677
2.32079
1.95855
0.081683
0.364744
0.193632
1.72239
1.39647
0.961362
0.0399218
0.0167218
0.0329952
0.058318
0.000531191
0.00154886
0.00243033
0.00301397
0.00312963
0.00300999
0.00285987
0.00410757
0.00760944
0.014787
0.0274045
0.0448991
0.0819989
0.170424
0.281226
0.33349
0.352585
0.357578
0.342401
0.295132
0.215887
0.135735
0.0749646
0.0444957
0.0369048
0.0353045
0.0346919
0.0329483
0.0365146
0.0356175
0.0391391
0.0377762
0.0414834
0.0404823
0.0434611
0.0424682
0.042647
0.0416101
0.046118
0.0442923
0.0488245
0.0456275
0.0604075
0.0534645
0.0948163
0.0704896
0.212447
0.14153
0.460129
0.397177
0.339532
0.289189
0.784031
0.692793
0.531026
0.608436
1.1946
1.08785
0.898005
0.998894
1.62242
1.52292
1.42008
1.31478
1.99398
1.91591
1.8324
1.74338
2.27444
2.21541
2.15564
2.09259
2.48203
2.38903
2.44152
2.33977
2.57219
2.52173
2.55156
2.5389
2.59379
2.59773
2.61039
2.51192
2.46187
2.1987
0.106122
0.550883
0.283451
2.01579
1.73942
1.33056
0.0436117
0.0121852
0.0225551
0.0616957
0.000584569
0.00148416
0.00201389
0.00201804
0.00123445
-2.61912e-05
-0.000944079
0.000990375
0.0068721
0.019377
0.0377825
0.0703807
0.147007
0.255707
0.309977
0.325083
0.31203
0.273103
0.211453
0.149496
0.0976335
0.0602213
0.0425233
0.0366816
0.0343463
0.0331455
0.0312829
0.0309665
0.0336092
0.0303633
0.0350159
0.0369858
0.0358944
0.0390342
0.0380065
0.0406806
0.0398238
0.0402021
0.0390775
0.0434816
0.041802
0.0467915
0.0434628
0.0583312
0.051677
0.0980778
0.0695284
0.252967
0.2016
0.131
0.169818
0.47601
0.410301
0.351328
0.298388
0.801825
0.711012
0.548183
0.626448
1.20879
1.10315
0.934743
1.03514
1.64943
1.55161
1.4505
1.34697
2.02444
1.95059
1.87086
1.78546
2.29118
2.24126
2.18859
2.13163
2.48817
2.40121
2.45568
2.36171
2.57941
2.52808
2.55514
2.59711
2.60194
2.62164
2.61941
2.58639
2.55839
2.37672
0.131506
0.802246
0.405091
2.23522
2.00812
1.66097
0.0350813
0.0133621
0.0214841
0.0599702
0.000671503
0.00135826
0.00132494
0.000529889
-0.00180768
-0.00411272
-0.00458749
0.00197034
0.0143113
0.0322255
0.0601618
0.124788
0.223784
0.28321
0.296496
0.270367
0.213795
0.14849
0.104534
0.0722986
0.0513669
0.0414866
0.0366277
0.0340372
0.0320592
0.0299983
0.0284561
0.031873
0.0294423
0.0283961
0.0327031
0.0347895
0.0337918
0.0367219
0.0358079
0.0381917
0.0375366
0.0377295
0.0366539
0.0410285
0.0395005
0.0447841
0.0413961
0.0562067
0.0485543
0.141927
0.121011
0.0918308
0.0771852
0.0641466
0.261657
0.216769
0.175778
0.502789
0.433653
0.370779
0.313392
0.838269
0.746349
0.578255
0.659617
1.24263
1.13839
0.995037
1.09583
1.69508
1.60079
1.5031
1.40269
2.0692
2.00102
1.92706
1.84751
2.32136
2.27904
2.23356
2.18366
2.50211
2.42437
2.47765
2.39304
2.58281
2.53946
2.56053
2.62804
2.60461
2.63271
2.62139
2.62847
2.61726
2.4994
0.162132
1.12776
0.565388
2.395
2.21681
1.90949
0.0332359
0.0145739
0.0230084
0.0676851
0.000801642
0.00114932
0.00020733
-0.00187852
-0.0058493
-0.00622857
-0.000431224
0.0105837
0.0266336
0.0515326
0.105304
0.192511
0.253941
0.269668
0.237177
0.172288
0.110574
0.0759115
0.0560375
0.045212
0.0399914
0.0362665
0.0335487
0.0314331
0.0291259
0.0273643
0.0261747
0.0258117
0.0300379
0.027301
0.0268712
0.0309515
0.0326412
0.0317317
0.034344
0.0335008
0.0358036
0.0350925
0.0352882
0.0342515
0.0388053
0.0368001
0.041281
0.0388753
0.055218
0.0467171
0.151134
0.127602
0.100456
0.0793014
0.0663098
0.282097
0.232225
0.188711
0.542225
0.467646
0.399705
0.337783
0.896653
0.801502
0.623313
0.710199
1.30081
1.19825
1.08023
1.1827
1.76287
1.67401
1.58116
1.48482
2.12863
2.06828
2.00246
1.93108
2.36051
2.32612
2.28872
2.24748
2.5204
2.45387
2.50232
2.42977
2.5852
2.55098
2.56669
2.64247
2.60378
2.63562
2.61879
2.64914
2.64779
2.58275
0.23888
1.43213
0.808834
2.50909
2.36737
2.11562
0.0368092
0.0149933
0.0239794
0.0934484
0.000998
0.000813113
-0.00128881
-0.00523041
-0.00573287
-0.00163873
0.00842848
0.0217827
0.0431811
0.0873179
0.165924
0.22608
0.244804
0.212445
0.147594
0.0906066
0.0583425
0.0442931
0.0394743
0.0373354
0.0352301
0.0329376
0.0306851
0.0285201
0.0265781
0.0243716
0.0246142
0.0239918
0.0280935
0.0255933
0.0249205
0.0287608
0.0303703
0.0295883
0.0320059
0.0311978
0.0334536
0.0327719
0.0325645
0.0317156
0.0364526
0.0338651
0.0387794
0.0351721
0.0587704
0.0514253
0.0451731
0.163145
0.140446
0.107963
0.0841088
0.068176
0.30819
0.253643
0.205437
0.595381
0.512636
0.43732
0.369052
0.978158
0.877619
0.684701
0.779501
1.38584
1.28501
1.19027
1.29551
1.8542
1.77225
1.68539
1.5937
2.20187
2.15152
2.09612
2.03512
2.40471
2.37846
2.34967
2.31823
2.53662
2.48428
2.52155
2.46577
2.58786
2.55483
2.57008
2.6469
2.60253
2.63275
2.61164
2.65704
2.65903
2.63043
0.373828
1.71064
1.15245
2.58428
2.48354
2.27127
0.042428
0.0153119
0.0248603
0.139057
0.00143631
4.83414e-05
-0.00292998
-0.00448118
-0.000116393
0.00714877
0.0184351
0.0367943
0.0735616
0.142853
0.202164
0.222659
0.1944
0.132883
0.0782829
0.0465125
0.0345509
0.0331832
0.0336439
0.033243
0.0317773
0.0299826
0.0278068
0.0258622
0.0237771
0.0210728
0.0226474
0.022435
0.0260751
0.0234617
0.023099
0.0267366
0.028062
0.0273535
0.0294874
0.0287652
0.0309361
0.0301934
0.0297978
0.0288367
0.0327082
0.0311143
0.0363312
0.0324381
0.0590357
0.0521661
0.0465301
0.0411554
0.180413
0.156124
0.11927
0.090643
0.0709901
0.340097
0.280017
0.22715
0.662518
0.568822
0.483771
0.407241
1.08307
0.975099
0.762685
0.867857
1.49784
1.39849
1.32459
1.43336
1.96795
1.89436
1.8143
1.72768
2.28345
2.24463
2.2014
2.15301
2.44642
2.42747
2.40556
2.3828
2.53913
2.50572
2.52211
2.48881
2.58233
2.54383
2.56382
2.64175
2.58854
2.61805
2.58888
2.65057
2.65392
2.6501
0.581019
1.94779
1.51519
2.62245
2.55763
2.39507
0.0516339
0.0151891
0.0252008
0.220009
0.0020065
-0.00103131
-0.00131953
0.00137966
0.00773464
0.0169106
0.0334471
0.0639522
0.12234
0.178098
0.202018
0.180369
0.124724
0.073787
0.0401185
0.0260467
0.026559
0.0291787
0.0304208
0.0300751
0.0288609
0.027202
0.0251768
0.0231762
0.020725
0.0185268
0.020463
0.0185079
0.0208953
0.0240117
0.0214783
0.0210781
0.0244842
0.0256263
0.0250596
0.0268914
0.0262467
0.0281992
0.0275487
0.0265405
0.0257873
0.0300429
0.0284117
0.0358616
0.0409468
0.0323965
0.0289131
0.0607386
0.0523992
0.0461468
0.200676
0.174363
0.132887
0.0996062
0.075654
0.377478
0.31056
0.252283
0.745066
0.637552
0.540132
0.452682
1.21148
1.09446
0.858486
0.976363
1.63523
1.5374
1.48412
1.59632
2.09826
2.03577
1.96451
1.88403
2.35773