/*--------------------------------*- C++ -*----------------------------------*\
  =========                 |
  \\      /  F ield         | OpenFOAM: The Open Source CFD Toolbox
   \\    /   O peration     | Website:  https://openfoam.org
    \\  /    A nd           | Version:  dev
     \\/     M anipulation  |
\*---------------------------------------------------------------------------*/
FoamFile
{
    version     2.0;
    format      ascii;
    class       surfaceScalarField;
    location    "2500";
    object      phi;
}
// * * * * * * * * * * * * * * * * * * * * * * * * * * * * * * * * * * * * * //

dimensions      [1 0 -1 0 0 0 0];

internalField   nonuniform List<scalar> 
19254
(
2.70209e-07
1.85648e-07
2.28444e-07
4.54483e-07
7.43945e-07
1.59282e-07
1.84358e-07
6.08986e-07
7.39235e-07
4.59197e-07
1.04631e-06
1.28418e-07
1.51849e-07
7.26008e-07
6.78425e-07
6.69687e-07
1.09402e-06
4.11688e-07
1.28604e-06
1.08711e-07
1.25484e-07
8.17536e-07
5.86433e-07
8.18357e-07
1.10495e-06
6.5885e-07
1.34531e-06
3.5245e-07
1.50358e-06
9.66523e-08
1.04566e-07
8.97977e-07
4.88129e-07
9.15885e-07
1.06803e-06
8.55313e-07
1.40706e-06
5.97134e-07
1.54776e-06
3.08238e-07
1.70301e-06
8.66483e-08
8.9198e-08
9.74772e-07
4.01363e-07
9.84764e-07
9.87176e-07
9.96643e-07
1.43998e-06
8.22369e-07
1.6204e-06
5.24556e-07
1.73612e-06
2.75131e-07
1.88532e-06
7.87278e-08
7.8624e-08
1.04934e-06
3.37347e-07
1.03901e-06
8.79885e-07
1.09221e-06
1.42715e-06
1.00949e-06
1.69735e-06
7.45421e-07
1.79416e-06
4.66458e-07
1.91116e-06
2.49373e-07
2.05362e-06
7.15302e-08
7.16278e-08
1.12142e-06
2.97412e-07
1.08932e-06
7.64779e-07
1.15417e-06
1.36724e-06
1.15203e-06
1.75222e-06
9.54636e-07
1.87696e-06
6.62634e-07
1.95658e-06
4.21068e-07
2.07651e-06
2.26504e-07
2.20845e-06
6.50873e-08
6.62971e-08
1.19001e-06
2.70215e-07
1.14868e-06
6.55482e-07
1.19871e-06
1.26917e-06
1.25225e-06
1.76608e-06
1.13821e-06
1.96725e-06
8.64496e-07
2.02533e-06
5.93725e-07
2.11554e-06
3.82123e-07
2.22823e-06
2.06726e-07
2.34989e-06
5.93579e-08
6.09885e-08
1.25761e-06
2.47599e-07
1.21265e-06
5.70486e-07
1.23381e-06
1.15081e-06
1.31685e-06
1.73269e-06
1.28563e-06
2.04434e-06
1.06124e-06
2.11716e-06
7.72701e-07
2.17203e-06
5.37184e-07
2.26095e-06
3.49417e-07
2.36826e-06
1.88377e-07
2.48063e-06
5.40256e-08
5.72982e-08
1.32448e-06
2.27871e-07
1.27729e-06
5.12736e-07
1.27046e-06
1.02699e-06
1.35762e-06
1.65814e-06
1.39157e-06
2.08763e-06
1.24227e-06
2.22005e-06
9.58463e-07
2.24813e-06
6.96658e-07
2.30953e-06
4.88614e-07
2.39895e-06
3.18821e-07
2.49731e-06
1.71772e-07
2.60096e-06
4.91719e-08
5.38218e-08
1.38871e-06
2.11625e-07
1.34067e-06
4.72591e-07
1.31706e-06
9.1274e-07
1.38475e-06
1.55613e-06
1.45966e-06
2.08789e-06
1.39121e-06
2.31774e-06
1.14474e-06
2.34582e-06
8.61052e-07
2.37568e-06
6.30512e-07
2.44234e-06
4.45203e-07
2.52511e-06
2.90897e-07
2.61611e-06
1.56626e-07
2.71175e-06
4.45865e-08
5.09319e-08
1.44849e-06
2.00255e-07
1.40002e-06
4.44686e-07
1.36861e-06
8.21978e-07
1.40827e-06
1.43786e-06
1.50292e-06
2.04525e-06
1.50226e-06
2.39153e-06
1.31737e-06
2.45823e-06
1.03221e-06
2.46027e-06
7.76605e-07
2.49983e-06
5.73024e-07
2.56512e-06
4.0534e-07
2.64229e-06
2.64756e-07
2.72599e-06
1.42423e-07
2.81298e-06
4.02909e-08
4.84878e-08
1.50547e-06
1.90484e-07
1.45823e-06
4.21713e-07
1.42305e-06
7.52193e-07
1.43788e-06
1.31399e-06
1.53184e-06
1.96862e-06
1.57946e-06
2.42784e-06
1.46588e-06
2.57355e-06
1.20209e-06
2.56537e-06
9.26959e-07
2.5738e-06
7.026e-07
2.61762e-06
5.20613e-07
2.67896e-06
3.68648e-07
2.74943e-06
2.4127e-07
2.82668e-06
1.28699e-07
2.90617e-06
3.60371e-08
4.61015e-08
1.56089e-06
1.81279e-07
1.51461e-06
3.99877e-07
1.48015e-06
6.98598e-07
1.47657e-06
1.19893e-06
1.55299e-06
1.8703e-06
1.63023e-06
2.42351e-06
1.58372e-06
2.67456e-06
1.36479e-06
2.68583e-06
1.08167e-06
2.66181e-06
8.38948e-07
2.68116e-06
6.38897e-07
2.72618e-06
4.73402e-07
2.784e-06
3.34202e-07
2.84932e-06
2.18655e-07
2.91895e-06
1.15859e-07
2.99042e-06
3.22705e-08
4.36608e-08
1.61286e-06
1.74842e-07
1.56724e-06
3.77986e-07
1.5365e-06
6.6074e-07
1.51821e-06
1.10183e-06
1.57364e-06
1.75889e-06
1.66428e-06
2.38193e-06
1.67175e-06
2.74613e-06
1.51173e-06
2.81356e-06
1.23701e-06
2.76823e-06
9.75226e-07
2.76023e-06
7.60024e-07
2.78528e-06
5.79764e-07
2.82819e-06
4.2911e-07
2.88114e-06
3.02354e-07
2.94053e-06
1.97127e-07
3.00237e-06
1.03897e-07
3.0672e-06
2.84509e-08
4.14316e-08
1.66118e-06
1.67668e-07
1.62001e-06
3.57707e-07
1.58785e-06
6.33648e-07
1.56359e-06
1.02375e-06
1.59597e-06
1.64531e-06
1.68718e-06
2.31177e-06
1.73468e-06
2.78335e-06
1.6349e-06
2.93717e-06
1.38828e-06
2.89546e-06
1.10982e-06
2.85488e-06
8.80443e-07
2.8557e-06
6.8963e-07
2.88195e-06
5.26183e-07
2.92318e-06
3.8699e-07
2.97138e-06
2.71447e-07
3.0233e-06
1.76234e-07
3.07945e-06
9.15192e-08
3.13622e-06
2.49915e-08
3.95697e-08
1.70657e-06
1.59301e-07
1.6695e-06
3.41029e-07
1.63667e-06
6.08388e-07
1.61279e-06
9.64766e-07
1.62236e-06
1.53797e-06
1.70309e-06
2.22367e-06
1.77528e-06
2.78508e-06
1.73288e-06
3.04236e-06
1.52953e-06
3.03481e-06
1.2486e-06
2.96558e-06
9.9929e-07
2.94014e-06
7.95902e-07
2.94784e-06
6.23639e-07
2.97546e-06
4.73989e-07
3.0114e-06
3.47002e-07
3.05336e-06
2.41339e-07
3.09915e-06
1.56589e-07
3.14738e-06
8.03595e-08
3.19886e-06
2.13828e-08
3.76015e-08
1.74988e-06
1.53142e-07
1.71268e-06
3.29292e-07
1.68114e-06
5.82044e-07
1.6623e-06
9.18184e-07
1.65921e-06
1.43882e-06
1.72135e-06
2.1271e-06
1.79949e-06
2.7545e-06
1.80578e-06
3.12025e-06
1.65498e-06
3.17594e-06
1.38872e-06
3.09568e-06
1.11867e-06
3.04004e-06
8.99433e-07
3.02519e-06
7.18534e-07
3.03632e-06
5.62897e-07
3.06061e-06
4.24788e-07
3.09166e-06
3.08587e-07
3.12656e-06
2.13949e-07
3.1666e-06
1.37261e-07
3.20984e-06
6.93832e-08
3.25387e-06
1.80488e-08
3.53556e-08
1.78959e-06
1.45814e-07
1.7571e-06
3.15492e-07
1.72636e-06
5.52961e-07
1.71006e-06
8.80707e-07
1.70039e-06
1.35589e-06
1.74205e-06
2.03083e-06
1.81744e-06
2.69942e-06
1.85442e-06
3.16752e-06
1.75868e-06
3.30876e-06
1.52227e-06
3.2424e-06
1.24202e-06
3.1535e-06
1.00522e-06
3.11342e-06
8.11299e-07
3.10712e-06
6.47577e-07
3.11865e-06
5.04906e-07
3.13801e-06
3.78537e-07
3.16275e-06
2.7236e-07
3.1944e-06
1.86307e-07
3.22815e-06
1.18962e-07
3.26489e-06
5.838e-08
3.30198e-06
1.46695e-08
3.32764e-08
1.82486e-06
1.3757e-07
1.79776e-06
3.02138e-07
1.77072e-06
5.26752e-07
1.75226e-06
8.49505e-07
1.74108e-06
1.29136e-06
1.7646e-06
1.93919e-06
1.83347e-06
2.6309e-06
1.88582e-06
3.18374e-06
1.83812e-06
3.42463e-06
1.64287e-06
3.39663e-06
1.36793e-06
3.28199e-06
1.1135e-06
3.21506e-06
9.03327e-07
3.18923e-06
7.29163e-07
3.18552e-06
5.80737e-07
3.1936e-06
4.49376e-07
3.20813e-06
3.33247e-07
3.22936e-06
2.3735e-07
3.25504e-06
1.59389e-07
3.28371e-06
1.00136e-07
3.3127e-06
4.76496e-08
3.34353e-06
1.12398e-08
3.10095e-08
1.85552e-06
1.30259e-07
1.83208e-06
2.88329e-07
1.81141e-06
5.03447e-07
1.79337e-06
8.1933e-07
1.7826e-06
1.24224e-06
1.79004e-06
1.8556e-06
1.84783e-06
2.55793e-06
1.90623e-06
3.17334e-06
1.89612e-06
3.51633e-06
1.74643e-06
3.54956e-06
1.49003e-06
3.42764e-06
1.22205e-06
3.33217e-06
9.96487e-07
3.28136e-06
8.11071e-07
3.26276e-06
6.51833e-07
3.25819e-06
5.16076e-07
3.26096e-06
3.96528e-07
3.27206e-06
2.90558e-07
3.28973e-06
2.0266e-07
3.30944e-06
1.33644e-07
3.33094e-06
8.18856e-08
3.35429e-06
3.68231e-08
3.37821e-06
7.95271e-09
2.85017e-08
1.88079e-06
1.22098e-07
1.86361e-06
2.72572e-07
1.84765e-06
4.83367e-07
1.83111e-06
7.97901e-07
1.81465e-06
1.20921e-06
1.81457e-06
1.78401e-06
1.86115e-06
2.48703e-06
1.91848e-06
3.14511e-06
1.93432e-06
3.58166e-06
1.83063e-06
3.69457e-06
1.60147e-06
3.58863e-06
1.32963e-06
3.46206e-06
1.09217e-06
3.38569e-06
8.92408e-07
3.34917e-06
7.24591e-07
3.33082e-06
5.79185e-07
3.32279e-06
4.54197e-07
3.32289e-06
3.45774e-07
3.33148e-06
2.48779e-07
3.34299e-06
1.68972e-07
3.35765e-06
1.06977e-07
3.37296e-06
6.32576e-08
3.39008e-06
2.48411e-08
3.40701e-06
3.93628e-09
2.618e-08
1.89962e-06
1.13824e-07
1.88893e-06
2.58048e-07
1.87793e-06
4.67111e-07
1.86333e-06
7.84697e-07
1.844e-06
1.18468e-06
1.83864e-06
1.72523e-06
1.87341e-06
2.42182e-06
1.9261e-06
3.10529e-06
1.95809e-06
3.62142e-06
1.89434e-06
3.82532e-06
1.69984e-06
3.75519e-06
1.43467e-06
3.60724e-06
1.18427e-06
3.50422e-06
9.73542e-07
3.44492e-06
7.96658e-07
3.41204e-06
6.43248e-07
3.39294e-06
5.09004e-07
3.38174e-06
3.95193e-07
3.38092e-06
2.96318e-07
3.3847e-06
2.07147e-07
3.39105e-06
1.35523e-07
3.39909e-06
8.08625e-08
3.4089e-06
4.4413e-08
3.41916e-06
1.26786e-08
3.44162e-06
1.20147e-09
2.38287e-08
1.91274e-06
1.03788e-07
1.90952e-06
2.44717e-07
1.90196e-06
4.54647e-07
1.89029e-06
7.72753e-07
1.87538e-06
1.16682e-06
1.86154e-06
1.67994e-06
1.88383e-06
2.36497e-06
1.92994e-06
3.06212e-06
1.96911e-06
3.6412e-06
1.93808e-06
3.93659e-06
1.78279e-06
3.92211e-06
1.53285e-06
3.76736e-06
1.27466e-06
3.63483e-06
1.05357e-06
3.55094e-06
8.67471e-07
3.50207e-06
7.0668e-07
3.47014e-06
5.65881e-07
3.44918e-06
4.41528e-07
3.43755e-06
3.38535e-07
3.43333e-06
2.47693e-07
3.43096e-06
1.6727e-07
3.43268e-06
1.01946e-07
3.43521e-06
5.46331e-08
3.43857e-06
2.5016e-08
3.45101e-06
3.28059e-09
3.45275e-06
-2.75693e-09
2.14451e-08
1.91972e-06
9.53398e-08
1.92103e-06
2.34967e-07
1.91899e-06
4.44344e-07
1.91197e-06
7.61571e-07
1.90082e-06
1.15893e-06
1.88276e-06
1.64989e-06
1.89161e-06
2.31756e-06
1.93059e-06
3.02271e-06
1.96911e-06
3.64571e-06
1.96444e-06
4.02628e-06
1.84824e-06
4.08294e-06
1.62185e-06
3.93708e-06
1.36307e-06
3.77671e-06
1.13265e-06
3.66908e-06
9.35489e-07
3.60096e-06
7.68642e-07
3.55601e-06
6.20913e-07
3.52397e-06
4.91077e-07
3.50157e-06
3.77617e-07
3.48898e-06
2.82848e-07
3.4787e-06
1.99885e-07
3.47384e-06
1.26084e-07
3.46928e-06
6.78839e-08
3.46589e-06
2.73076e-08
3.47008e-06
5.97469e-09
3.46596e-06
-9.93496e-09
3.45741e-06
-6.79246e-09
1.93603e-08
1.9191e-06
8.96496e-08
1.92521e-06
2.22657e-07
1.93301e-06
4.34333e-07
1.92862e-06
7.5341e-07
1.91908e-06
1.1593e-06
1.89992e-06
1.63416e-06
1.89779e-06
2.28006e-06
1.92822e-06
2.98843e-06
1.96452e-06
3.64189e-06
1.97269e-06
4.09655e-06
1.89403e-06
4.23224e-06
1.69888e-06
4.11289e-06
1.44603e-06
3.93263e-06
1.20717e-06
3.79837e-06
1.00317e-06
3.70999e-06
8.26376e-07
3.65002e-06
6.74548e-07
3.60576e-06
5.39101e-07
3.57337e-06
4.19116e-07
3.55191e-06
3.14594e-07
3.53412e-06
2.27398e-07
3.52073e-06
1.52977e-07
3.51024e-06
8.51128e-08
3.50073e-06
3.30047e-08
3.49819e-06
-8.41331e-10
3.4885e-06
-1.65742e-08
3.47329e-06
-2.57626e-08
3.45446e-06
-1.12792e-08
1.78042e-08
1.9114e-06
8.26613e-08
1.92587e-06
2.08332e-07
1.93923e-06
4.27954e-07
1.9389e-06
7.50351e-07
1.93062e-06
1.16666e-06
1.91156e-06
1.63336e-06
1.90028e-06
2.25551e-06
1.92179e-06
2.96246e-06
1.9535e-06
3.63464e-06
1.97148e-06
4.14884e-06
1.9202e-06
4.36589e-06
1.76027e-06
4.29066e-06
1.52097e-06
4.10026e-06
1.27842e-06
3.93769e-06
1.06798e-06
3.82789e-06
8.85089e-07
3.75181e-06
7.24628e-07
3.69531e-06
5.84952e-07
3.65235e-06
4.59896e-07
3.62102e-06
3.49924e-07
3.59522e-06
2.53408e-07
3.57448e-06
1.73515e-07
3.55815e-06
1.05068e-07
3.54258e-06
4.324e-08
3.53338e-06
-2.20605e-09
3.51949e-06
-3.18246e-08
3.49755e-06
-4.08443e-08
3.47141e-06
-4.27181e-08
3.44159e-06
-1.61065e-08
1.66713e-08
1.89618e-06
7.53727e-08
1.91846e-06
2.01262e-07
1.93264e-06
4.26286e-07
1.94054e-06
7.55627e-07
1.93255e-06
1.1794e-06
1.91779e-06
1.64585e-06
1.89815e-06
2.24442e-06
1.91065e-06
2.94599e-06
1.93762e-06
3.62821e-06
1.95964e-06
4.18919e-06
1.93086e-06
4.48188e-06
1.80407e-06
4.46392e-06
1.587e-06
4.27569e-06
1.34552e-06
4.08758e-06
1.12843e-06
3.95486e-06
9.41022e-07
3.86143e-06
7.75311e-07
3.79301e-06
6.26754e-07
3.73865e-06
4.98771e-07
3.69644e-06
3.84371e-07
3.66216e-06
2.83041e-07
3.63556e-06
1.92373e-07
3.61252e-06
1.19079e-07
3.59138e-06
5.62738e-08
3.57501e-06
1.57908e-09
3.55878e-06
-4.15196e-08
3.53158e-06
-6.5856e-08
3.49803e-06
-6.74721e-08
3.46199e-06
-6.30847e-08
3.4189e-06
-2.22734e-08
1.52967e-08
1.87395e-06
7.20623e-08
1.89923e-06
2.00323e-07
1.91888e-06
4.24049e-07
1.93416e-06
7.70326e-07
1.92489e-06
1.19938e-06
1.91189e-06
1.67285e-06
1.89028e-06
2.24846e-06
1.89377e-06
2.93934e-06
1.91669e-06
3.62613e-06
1.9394e-06
4.22153e-06
1.92698e-06
4.58172e-06
1.83072e-06
4.62807e-06
1.63988e-06
4.45689e-06
1.40576e-06
4.24856e-06
1.18466e-06
4.09052e-06
9.92713e-07
3.97935e-06
8.23104e-07
3.89709e-06
6.71244e-07
3.83166e-06
5.33684e-07
3.77845e-06
4.16668e-07
3.73559e-06
3.10924e-07
3.70174e-06
2.1669e-07
3.67262e-06
1.32272e-07
3.64644e-06
6.39855e-08
3.62403e-06
7.23235e-09
3.60573e-06
-4.53949e-08
3.57386e-06
-8.38111e-08
3.53713e-06
-1.04964e-07
3.49191e-06
-9.73435e-08
3.44236e-06
-8.65584e-08
3.3839e-06
-2.90744e-08
1.43991e-08
1.84209e-06
6.99748e-08
1.87545e-06
1.94129e-07
1.90417e-06
4.26475e-07
1.91602e-06
7.96834e-07
1.90699e-06
1.23206e-06
1.89151e-06
1.71321e-06
1.87107e-06
2.26711e-06
1.87067e-06
2.94253e-06
1.88992e-06
3.63045e-06
1.91189e-06
4.2489e-06
1.91173e-06
4.66688e-06
1.84173e-06
4.77984e-06
1.67874e-06
4.63916e-06
1.45763e-06
4.41808e-06
1.23616e-06
4.23473e-06
1.04035e-06
4.10445e-06
8.67471e-07
4.00764e-06
7.1253e-07
3.93026e-06
5.72526e-07
3.86794e-06
4.44335e-07
3.81592e-06
3.36299e-07
3.77386e-06
2.38888e-07
3.73824e-06
1.51034e-07
3.70689e-06
7.17389e-08
3.67875e-06
9.24069e-09
3.6586e-06
-4.56314e-08
3.62445e-06
-9.60133e-08
3.58297e-06
-1.2969e-07
3.5353e-06
-1.48443e-07
3.47832e-06
-1.33395e-07
3.40806e-06
-1.10731e-07
3.33497e-06
-3.50455e-08
1.4322e-08
1.80175e-06
6.73328e-08
1.84441e-06
1.95685e-07
1.87374e-06
4.47249e-07
1.88355e-06
8.33914e-07
1.8777e-06
1.27636e-06
1.8619e-06
1.76048e-06
1.84337e-06
2.29917e-06
1.83819e-06
2.95582e-06
1.85661e-06
3.64174e-06
1.87805e-06
4.27435e-06
1.886e-06
4.74036e-06
1.83799e-06
4.91829e-06
1.70322e-06
4.81804e-06
1.49979e-06
4.59344e-06
1.28209e-06
4.38728e-06
1.08356e-06
4.23589e-06
9.08831e-07
4.12432e-06
7.50682e-07
4.03542e-06
6.07449e-07
3.96369e-06
4.76718e-07
3.90285e-06
3.57376e-07
3.85191e-06
2.58196e-07
3.80858e-06
1.68476e-07
3.77195e-06
8.59713e-08
3.7377e-06
1.27969e-08
3.7175e-06
-4.97313e-08
3.68215e-06
-1.03378e-07
3.64023e-06
-1.53291e-07
3.58578e-06
-1.80132e-07
3.52547e-06
-1.95505e-07
3.44999e-06
-1.75334e-07
3.36526e-06
-1.41012e-07
3.2703e-06
-6.94656e-09
-3.04188e-08
1.40736e-08
1.75554e-06
6.96976e-08
1.799e-06
2.08172e-07
1.83121e-06
4.77144e-07
1.84285e-06
8.78866e-07
1.83769e-06
1.32914e-06
1.82414e-06
1.81474e-06
1.80657e-06
2.34143e-06
1.80011e-06
2.97773e-06
1.81556e-06
3.66008e-06
1.83765e-06
4.30071e-06
1.85132e-06
4.80457e-06
1.82148e-06
5.04353e-06
1.71258e-06
4.99051e-06
1.53064e-06
4.77229e-06
1.32106e-06
4.54636e-06
1.12303e-06
4.37363e-06
9.45863e-07
4.24729e-06
7.85787e-07
4.14662e-06
6.39324e-07
4.06468e-06
5.06425e-07
3.99531e-06
3.84165e-07
3.93681e-06
2.72397e-07
3.88502e-06
1.81732e-07
3.84203e-06
9.83513e-08
3.80334e-06
2.02554e-08
3.78183e-06
-5.15476e-08
3.74495e-06
-1.12567e-07
3.70229e-06
-1.6547e-07
3.65095e-06
-2.18486e-07
3.58304e-06
-2.37766e-07
3.50267e-06
-2.48206e-07
3.40741e-06
-9.79249e-08
-1.19561e-07
1.64697e-06
-7.11327e-08
1.64579e-06
-9.26056e-08
1.59915e-06
-3.81067e-09
1.60535e-06
-3.661e-08
1.48148e-08
1.69841e-06
7.64147e-08
1.74799e-06
2.1991e-07
1.78581e-06
5.15959e-07
1.79207e-06
9.34253e-07
1.7863e-06
1.38862e-06
1.77699e-06
1.8751e-06
1.76288e-06
2.39099e-06
1.75614e-06
3.00788e-06
1.76933e-06
3.68371e-06
1.79139e-06
4.32917e-06
1.80867e-06
4.86255e-06
1.79299e-06
5.15601e-06
1.70856e-06
5.15379e-06
1.54916e-06
4.95199e-06
1.35075e-06
4.71142e-06
1.15579e-06
4.51765e-06
9.78812e-07
4.37497e-06
8.18096e-07
4.26294e-06
6.69374e-07
4.17088e-06
5.33006e-07
4.09333e-06
4.08257e-07
4.02719e-06
2.93717e-07
3.96792e-06
1.89424e-07
3.91679e-06
1.06904e-07
3.8724e-06
2.92337e-08
3.84535e-06
-4.33498e-08
3.81106e-06
-1.17682e-07
3.77162e-06
-1.8194e-07
3.72023e-06
-2.34807e-07
3.65692e-06
-2.92353e-07
3.57257e-06
-3.07691e-07
3.4663e-06
-1.42452e-07
-1.64649e-07
1.66299e-06
-1.13763e-07
1.67891e-06
-1.35423e-07
1.60776e-06
-7.35418e-08
1.65639e-06
-1.24397e-07
1.62031e-06
-1.05196e-07
1.58083e-06
-6.13743e-09
1.58187e-06
-3.76676e-08
1.65284e-08
1.63059e-06
8.47179e-08
1.68958e-06
2.43494e-07
1.72383e-06
5.71915e-07
1.72883e-06
9.9935e-07
1.72543e-06
1.45432e-06
1.71982e-06
1.93991e-06
1.71128e-06
2.44673e-06
1.70619e-06
3.04523e-06
1.71814e-06
3.71294e-06
1.73947e-06
4.36059e-06
1.75946e-06
4.91589e-06
1.75496e-06
5.25761e-06
1.6914e-06
5.30773e-06
1.5545e-06
5.12972e-06
1.37119e-06
4.88009e-06
1.18211e-06
4.66678e-06
1.00656e-06
4.50671e-06
8.4696e-07
4.38351e-06
6.97447e-07
4.28197e-06
5.58224e-07
4.19678e-06
4.29231e-07
4.12358e-06
3.11783e-07
4.05644e-06
2.05102e-07
3.99722e-06
1.08912e-07
3.94504e-06
3.41643e-08
3.91116e-06
-3.66148e-08
3.87882e-06
-1.11176e-07
3.84256e-06
-1.88673e-07
3.79984e-06
-2.61567e-07
3.73559e-06
-3.13563e-07
3.6546e-06
-3.74399e-07
3.55032e-06
-1.87195e-07
-2.04529e-07
1.69374e-06
-1.57268e-07
1.71343e-06
-1.84331e-07
1.67063e-06
-1.49687e-07
1.58734e-06
-7.90084e-08
1.6325e-06
-1.36579e-07
1.59815e-06
-1.16003e-07
1.55233e-06
-8.56147e-09
1.5556e-06
-4.09398e-08
1.95098e-08
1.55475e-06
9.65769e-08
1.61836e-06
2.83886e-07
1.64837e-06
6.39465e-07
1.65492e-06
1.07213e-06
1.65578e-06
1.52489e-06
1.65397e-06
2.00705e-06
1.65172e-06
2.50673e-06
1.65073e-06
3.08781e-06
1.66284e-06
3.7465e-06
1.68391e-06
4.39455e-06
1.70494e-06
4.96653e-06
1.70844e-06
5.34999e-06
1.66239e-06
5.45154e-06
1.54719e-06
5.30356e-06
1.38062e-06
5.05156e-06
1.19967e-06
4.81944e-06
1.02915e-06
4.64121e-06
8.71952e-07
4.50705e-06
7.23309e-07
4.39769e-06
5.81562e-07
4.30658e-06
4.48729e-07
4.22606e-06
3.26658e-07
4.15182e-06
2.1616e-07
4.08374e-06
1.18528e-07
4.02274e-06
3.12316e-08
3.97896e-06
-3.36771e-08
3.94799e-06
-1.05818e-07
3.91467e-06
-1.83333e-07
3.87778e-06
-2.66658e-07
3.82899e-06
-3.55e-07
3.74821e-06
-4.07233e-07
3.63975e-06
-2.23887e-07
-2.40015e-07
1.73341e-06
-2.07181e-07
1.75777e-06
-2.28904e-07
1.68698e-06
-1.736e-07
1.70516e-06
-2.02496e-07
1.64945e-06
-1.66636e-07
1.56256e-06
-8.5958e-08
1.6116e-06
-1.50027e-07
1.57366e-06
-1.27125e-07
1.52266e-06
-1.09642e-08
1.52852e-06
-4.68065e-08
2.38347e-08
1.47351e-06
1.13557e-07
1.53737e-06
3.33807e-07
1.56698e-06
7.15065e-07
1.57196e-06
1.14853e-06
1.57797e-06
1.59851e-06
1.58143e-06
2.07467e-06
1.58558e-06
2.5687e-06
1.58918e-06
3.13487e-06
1.60294e-06
3.78419e-06
1.62447e-06
4.43166e-06
1.64623e-06
5.01563e-06
1.65551e-06
5.43463e-06
1.6235e-06
5.58531e-06
1.52864e-06
5.47165e-06
1.37896e-06
5.22316e-06
1.20891e-06
4.97486e-06
1.04444e-06
4.77871e-06
8.91579e-07
4.63277e-06
7.46083e-07
4.51688e-06
6.0408e-07
4.4193e-06
4.68457e-07
4.33402e-06
3.40667e-07
4.25355e-06
2.24981e-07
4.17585e-06
1.23883e-07
4.1055e-06
3.56196e-08
4.05e-06
-3.98661e-08
4.01613e-06
-1.01863e-07
3.98455e-06
-1.75748e-07
3.95868e-06
-2.64284e-07
3.91716e-06
-3.54873e-07
3.85372e-06
-4.60561e-07
3.75212e-06
-2.52327e-07
-2.67327e-07
1.78208e-06
-2.48197e-07
1.8091e-06
-2.6705e-07
1.72661e-06
-2.28647e-07
1.75055e-06
-2.52851e-07
1.66937e-06
-1.93509e-07
1.6884e-06
-2.21533e-07
1.62831e-06
-1.83348e-07
1.53571e-06
-9.31737e-08
1.58838e-06
-1.6474e-07
1.54714e-06
-1.38516e-07
1.49281e-06
-1.44878e-08
1.50065e-06
-5.46107e-08
2.88737e-08
1.38815e-06
1.35116e-07
1.45127e-06
3.91041e-07
1.47932e-06
7.96613e-07
1.48514e-06
1.22464e-06
1.49479e-06
1.67175e-06
1.50394e-06
2.14127e-06
1.51397e-06
2.63072e-06
1.5229e-06
3.18384e-06
1.53946e-06
3.82422e-06
1.56225e-06
4.47107e-06
1.58448e-06
5.06422e-06
1.59722e-06
5.51353e-06
1.57633e-06
5.71018e-06
1.49838e-06
5.63418e-06
1.36603e-06
5.39375e-06
1.20822e-06
5.13213e-06
1.05157e-06
4.91797e-06
9.05093e-07
4.75869e-06
7.65545e-07
4.63601e-06
6.26801e-07
4.53412e-06
4.89137e-07
4.4464e-06
3.5592e-07
4.36212e-06
2.31974e-07
4.27747e-06
1.23245e-07
4.19579e-06
3.34992e-08
4.12593e-06
-4.03768e-08
4.08505e-06
-1.08835e-07
4.05092e-06
-1.68272e-07
4.0306e-06
-2.47728e-07
4.0157e-06
-3.62877e-07
3.96124e-06
-4.62454e-07
3.86845e-06
-2.80546e-07
-2.964e-07
1.8391e-06
-2.82337e-07
1.87097e-06
-2.99213e-07
1.777e-06
-2.74653e-07
1.80569e-06
-2.9575e-07
1.71168e-06
-2.5193e-07
1.73796e-06
-2.79141e-07
1.64854e-06
-2.13744e-07
1.67081e-06
-2.43803e-07
1.60624e-06
-2.01212e-07
1.5069e-06
-9.94243e-08
1.56287e-06
-1.80495e-07
1.51798e-06
-1.49594e-07
1.457e-06
-1.69586e-08
1.46401e-06
-6.16255e-08
3.67138e-08
1.29654e-06
1.62074e-07
1.36047e-06
4.56956e-07
1.3843e-06
8.77906e-07
1.39716e-06
1.30029e-06
1.40884e-06
1.74198e-06
1.42398e-06
2.20539e-06
1.43925e-06
2.69098e-06
1.45306e-06
3.2331e-06
1.473e-06
3.86543e-06
1.49768e-06
4.51224e-06
1.52059e-06
5.11256e-06
1.53563e-06
5.58699e-06
1.52339e-06
5.82727e-06
1.45905e-06
5.78976e-06
1.34262e-06
5.56334e-06
1.19645e-06
5.29035e-06
1.04975e-06
5.0577e-06
9.11736e-07
4.88361e-06
7.8004e-07
4.75346e-06
6.47849e-07
4.64873e-06
5.12096e-07
4.56087e-06
3.74497e-07
4.47689e-06
2.40992e-07
4.38816e-06
1.21185e-07
4.29623e-06
2.26893e-08
4.21135e-06
-5.1998e-08
4.15463e-06
-1.09998e-07
4.11281e-06
-1.70773e-07
4.09891e-06
-2.36638e-07
4.09174e-06
-3.23838e-07
4.07825e-06
-4.79954e-07
4.00605e-06
-2.96538e-07
-3.03585e-07
1.90469e-06
-3.14285e-07
1.93846e-06
-3.30187e-07
1.83738e-06
-3.14033e-07
1.87135e-06
-3.33195e-07
1.76666e-06
-3.03366e-07
1.79842e-06
-3.27517e-07
1.69622e-06
-2.7735e-07
1.72472e-06
-3.07644e-07
1.62761e-06
-2.35117e-07
1.65221e-06
-2.68406e-07
1.58174e-06
-2.20084e-07
1.473e-06
-1.08418e-07
1.53482e-06
-1.97333e-07
1.48592e-06
-1.62514e-07
1.41906e-06
-1.88041e-08
1.4262e-06
-6.8766e-08
4.67737e-08
1.20437e-06
1.93345e-07
1.26456e-06
5.31231e-07
1.28492e-06
9.56002e-07
1.30584e-06
1.37558e-06
1.32124e-06
1.80866e-06
1.34162e-06
2.2659e-06
1.36285e-06
2.74773e-06
1.3819e-06
3.28037e-06
1.40519e-06
3.90577e-06
1.4321e-06
4.55361e-06
1.45576e-06
5.16025e-06
1.47255e-06
5.657e-06
1.46528e-06
5.93719e-06
1.41304e-06
5.93964e-06
1.30908e-06
5.73068e-06
1.17504e-06
5.44999e-06
1.03683e-06
5.19835e-06
9.09014e-07
5.00787e-06
7.87437e-07
4.86684e-06
6.6652e-07
4.76003e-06
5.36513e-07
4.67479e-06
3.98092e-07
4.59556e-06
2.55702e-07
4.50847e-06
1.20574e-07
4.41009e-06
7.19505e-09
4.30817e-06
-7.42331e-08
4.22894e-06
-1.26367e-07
4.16988e-06
-1.67099e-07
4.1499e-06
-2.21821e-07
4.16872e-06
-3.13684e-07
4.17795e-06
-4.23614e-07
4.12978e-06
-2.99097e-07
-3.04658e-07
1.97872e-06
-3.36814e-07
2.01679e-06
-3.41671e-07
1.90765e-06
-3.506e-07
1.946e-06
-3.68549e-07
1.83281e-06
-3.4843e-07
1.86982e-06
-3.70219e-07
1.75613e-06
-3.34787e-07
1.7903e-06
-3.61694e-07
1.68022e-06
-3.05364e-07
1.71086e-06
-3.38293e-07
1.60497e-06
-2.58351e-07
1.63139e-06
-2.94828e-07
1.55497e-06
-2.40249e-07
1.4379e-06
-1.2012e-07
1.50396e-06
-2.1537e-07
1.4513e-06
-1.75913e-07
1.37909e-06
-2.08941e-08
1.3876e-06
-7.72792e-08
5.59536e-08
1.11554e-06
2.29559e-07
1.16762e-06
6.05686e-07
1.18939e-06
1.02776e-06
1.21293e-06
1.44548e-06
1.23517e-06
1.86989e-06
1.25949e-06
2.32087e-06
1.28623e-06
2.79936e-06
1.31081e-06
3.32439e-06
1.33725e-06
3.94403e-06
1.36635e-06
4.5941e-06
1.39107e-06
5.20714e-06
1.40851e-06
5.72406e-06
1.40525e-06
6.04075e-06
1.36165e-06
6.08414e-06
1.2683e-06
5.8963e-06
1.1432e-06
5.61164e-06
1.0133e-06
5.34066e-06
8.94536e-07
5.13055e-06
7.86003e-07
4.97571e-06
6.78552e-07
4.86572e-06
5.60676e-07
4.78422e-06
4.26957e-07
4.71445e-06
2.79067e-07
4.63617e-06
1.279e-07
4.53816e-06
-7.6129e-09
4.42305e-06
-1.07835e-07
4.31347e-06
-1.5883e-07
4.23272e-06
-1.8924e-07
4.18383e-06
-2.0105e-07
4.20071e-06
-2.5388e-07
4.26336e-06
-3.99174e-07
4.28044e-06
-2.86554e-07
-2.87823e-07
2.05703e-06
-3.39358e-07
2.09266e-06
-3.40314e-07
1.98721e-06
-3.78047e-07
2.02947e-06
-3.83943e-07
1.90946e-06
-3.90248e-07
1.95165e-06
-4.10756e-07
1.8276e-06
-3.85741e-07
1.86794e-06
-4.10571e-07
1.74453e-06
-3.68461e-07
1.78173e-06
-3.989e-07
1.66183e-06
-3.3581e-07
1.69518e-06
-3.71645e-07
1.58031e-06
-2.8369e-07
1.60892e-06
-3.23441e-07
1.52566e-06
-2.6195e-07
1.40057e-06
-1.33096e-07
1.47028e-06
-2.34349e-07
1.41442e-06
-1.89765e-07
1.33526e-06
-2.24513e-08
1.34276e-06
-8.47778e-08
6.43163e-08
1.02931e-06
2.7072e-07
1.07394e-06
6.73809e-07
1.09878e-06
1.09064e-06
1.12607e-06
1.50622e-06
1.15171e-06
1.92583e-06
1.17886e-06
2.37016e-06
1.20984e-06
2.84516e-06
1.24e-06
3.36497e-06
1.26993e-06
3.97978e-06
1.30102e-06
4.63293e-06
1.3271e-06
5.25318e-06
1.34474e-06
5.78806e-06
1.3441e-06
6.13991e-06
1.30587e-06
6.22489e-06
1.22065e-06
6.06237e-06
1.10223e-06
5.77674e-06
9.77975e-07
5.48727e-06
8.66311e-07
5.25368e-06
7.71187e-07
5.0811e-06
6.80488e-07
4.96276e-06
5.81353e-07
4.88406e-06
4.60694e-07
4.82654e-06
3.14732e-07
4.76552e-06
1.49598e-07
4.68025e-06
-1.42868e-08
4.55994e-06
-1.44663e-07
4.42414e-06
-2.18632e-07
4.30097e-06
-2.2711e-07
4.22212e-06
-2.27535e-07
4.21837e-06
-2.18743e-07
4.28287e-06
-2.73489e-07
4.41682e-06
-2.65252e-07
-2.70413e-07
2.14098e-06
-3.349e-07
2.18204e-06
-3.28927e-07
2.07361e-06
-3.83521e-07
2.12025e-06
-3.86983e-07
1.99646e-06
-4.2287e-07
2.04358e-06
-4.31088e-07
1.91121e-06
-4.33527e-07
1.95722e-06
-4.5678e-07
1.82165e-06
-4.25668e-07
1.86555e-06
-4.54479e-07
1.7317e-06
-4.0499e-07
1.77208e-06
-4.39283e-07
1.64165e-06
-3.68547e-07
1.67758e-06
-4.07584e-07
1.55337e-06
-3.11403e-07
1.5839e-06
-3.53975e-07
1.49414e-06
-2.85809e-07
1.35564e-06
-1.45975e-07
1.43356e-06
-2.53485e-07
1.37238e-06
-2.06511e-07
1.28906e-06
-2.3541e-08
1.29569e-06
-9.13997e-08
7.28895e-08
9.51003e-07
3.10284e-07
9.8948e-07
7.33507e-07
1.01377e-06
1.14652e-06
1.04269e-06
1.56374e-06
1.06829e-06
1.97698e-06
1.10036e-06
2.4145e-06
1.13423e-06
2.88488e-06
1.16985e-06
3.40188e-06
1.20264e-06
4.01269e-06
1.23655e-06
4.66988e-06
1.26368e-06
5.29863e-06
1.28131e-06
5.85132e-06
1.28114e-06
6.23695e-06
1.24672e-06
6.36327e-06
1.16736e-06
6.22967e-06
1.05335e-06
5.94774e-06
9.31095e-07
5.64192e-06
8.23422e-07
5.38181e-06
7.38373e-07
5.18522e-06
6.66972e-07
5.05097e-06
5.92162e-07
4.97022e-06
4.95064e-07
4.92569e-06
3.61406e-07
4.89051e-06
1.8961e-07
4.83194e-06
-2.17988e-09
4.72341e-06
-1.77922e-07
4.56512e-06
-2.858e-07
4.40169e-06
-3.19422e-07
4.26871e-06
-2.73702e-07
4.24015e-06
-2.49386e-07
4.38873e-06
-3.24903e-07
4.54388e-06
-2.15308e-07
-1.85535e-07
2.2354e-06
-3.18658e-07
2.26984e-06
-3.04951e-07
2.16879e-06
-3.83476e-07
2.22073e-06
-3.80922e-07
2.09465e-06
-4.34614e-07
2.14815e-06
-4.40508e-07
2.00733e-06
-4.72993e-07
2.06057e-06
-4.84345e-07
1.91283e-06
-4.80825e-07
1.96499e-06
-5.08948e-07
1.81466e-06
-4.68251e-07
1.86238e-06
-5.02214e-07
1.71817e-06
-4.45577e-07
1.76094e-06
-4.82059e-07
1.61996e-06
-4.04619e-07
1.65836e-06
-4.45982e-07
1.52382e-06
-3.41093e-07
1.55794e-06
-3.88096e-07
1.45949e-06
-3.11743e-07
1.30803e-06
-1.58319e-07
1.39358e-06
-2.74687e-07
1.32747e-06
-2.25952e-07
1.24075e-06
-2.34512e-08
1.24572e-06
-9.63751e-08
8.26284e-08
8.80773e-07
3.5011e-07
9.1079e-07
7.88742e-07
9.34013e-07
1.19995e-06
9.59915e-07
1.618e-06
9.8809e-07
2.02113e-06
1.02426e-06
2.45428e-06
1.06054e-06
2.91939e-06
1.09952e-06
3.43489e-06
1.13669e-06
4.04124e-06
1.17379e-06
4.70314e-06
1.20293e-06
5.34051e-06
1.22138e-06
5.91e-06
1.22234e-06
6.32759e-06
1.1903e-06
6.49862e-06
1.11126e-06
6.39822e-06
9.98391e-07
6.12692e-06
8.7408e-07
5.80693e-06
7.65836e-07
5.51962e-06
6.85533e-07
5.29251e-06
6.31055e-07
5.13293e-06
5.84924e-07
5.0409e-06
5.21388e-07
5.00551e-06
4.1513e-07
4.99957e-06
2.52205e-07
4.98065e-06
4.0767e-08
4.90861e-06
-1.87463e-07
4.75843e-06
-3.71464e-07
4.55471e-06
-4.38911e-07
4.34754e-06
-3.9823e-07
4.31983e-06
-3.53634e-07
4.58661e-06
-4.4846e-07
5.05693e-06
-8.41468e-07
2.33512e-06
-2.80975e-07
2.60034e-06
-4.51184e-07
2.29701e-06
-3.95055e-07
2.43192e-06
-4.40242e-07
2.20872e-06
-4.44091e-07
2.30798e-06
-4.80321e-07
2.11834e-06
-4.92408e-07
2.19818e-06
-5.20372e-07
2.02151e-06
-5.29514e-07
2.08657e-06
-5.4941e-07
1.9157e-06
-5.34149e-07
1.97568e-06
-5.68919e-07
1.80893e-06
-5.16244e-07
1.86014e-06
-5.53423e-07
1.70233e-06
-4.89556e-07
1.75034e-06
-5.30064e-07
1.59614e-06
-4.42823e-07
1.63763e-06
-4.87469e-07
1.49095e-06
-3.7256e-07
1.52855e-06
-4.25699e-07
1.42202e-06
-3.40191e-07
1.25592e-06
-1.68522e-07
1.34909e-06
-2.96316e-07
1.27401e-06
-2.4404e-07
1.19179e-06
-2.30231e-08
1.19357e-06
-9.81564e-08
9.09094e-08
8.20904e-07
3.87798e-07
8.42766e-07
8.36404e-07
8.6305e-07
1.24839e-06
8.85014e-07
1.66316e-06
9.14796e-07
2.05763e-06
9.51408e-07
2.4872e-06
9.91097e-07
2.94716e-06
1.03274e-06
3.46087e-06
1.0734e-06
4.06369e-06
1.11408e-06
4.72946e-06
1.14717e-06
5.37495e-06
1.16824e-06
5.96007e-06
1.17105e-06
6.40855e-06
1.14119e-06
6.6242e-06
1.06415e-06
6.56461e-06
9.44658e-07
6.30986e-06
8.14966e-07
5.9817e-06
6.99192e-07
5.6688e-06
6.16506e-07
5.40895e-06
5.69041e-07
5.2128e-06
5.51166e-07
5.09813e-06
5.27633e-07
5.05992e-06
4.66876e-07
5.07485e-06
3.3972e-07
5.11097e-06
1.21737e-07
5.10443e-06
-1.55106e-07
4.99505e-06
-4.2427e-07
4.77785e-06
-5.94672e-07
4.52571e-06
-6.16724e-07
4.56225e-06
-6.40809e-07
5.0565e-06
-8.2751e-07
5.92592e-06
-1.32761e-06
-3.01518e-06
7.16637e-06
-1.03121e-06
-1.38638e-06
2.67893e-06
-5.29276e-07
-7.91813e-07
2.49213e-06
-5.79649e-07
2.8116e-06
-7.61222e-07
2.34132e-06
-5.87312e-07
2.61739e-06
-7.56796e-07
2.19821e-06
-6.04002e-07
2.41402e-06
-7.36129e-07
2.05904e-06
-6.12828e-07
2.21501e-06
-7.05238e-07
1.92422e-06
-5.98214e-07
2.02972e-06
-6.74331e-07
1.80579e-06
-5.71694e-07
1.87139e-06
-6.18998e-07
1.68608e-06
-5.38011e-07
1.73877e-06
-5.82746e-07
1.56999e-06
-4.84264e-07
1.61862e-06
-5.361e-07
1.45614e-06
-4.0668e-07
1.49688e-06
-4.66443e-07
1.38124e-06
-3.72344e-07
1.20123e-06
-1.76181e-07
1.29896e-06
-3.21272e-07
1.2183e-06
-2.61114e-07
1.13975e-06
-2.39087e-08
1.1387e-06
-9.71058e-08
9.73605e-08
7.68066e-07
4.20798e-07
7.87558e-07
8.76708e-07
8.02302e-07
1.29146e-06
8.20008e-07
1.70232e-06
8.46265e-07
2.09142e-06
8.80905e-07
2.51512e-06
9.23823e-07
2.96834e-06
9.70002e-07
3.47802e-06
1.01536e-06
4.07636e-06
1.06051e-06
4.74455e-06
1.09873e-06
5.39823e-06
1.12358e-06
5.99779e-06
1.13007e-06
6.47511e-06
1.10423e-06
6.73453e-06
1.03076e-06
6.7212e-06
9.07397e-07
6.49168e-06
7.62812e-07
6.16402e-06
6.32476e-07
5.82908e-06
5.38755e-07
5.53392e-06
4.91358e-07
5.29632e-06
4.8545e-07
5.14239e-06
5.06875e-07
5.08201e-06
5.05456e-07
5.10716e-06
4.34449e-07
5.19436e-06
2.56172e-07