/*--------------------------------*- C++ -*----------------------------------*\
  =========                 |
  \\      /  F ield         | OpenFOAM: The Open Source CFD Toolbox
   \\    /   O peration     | Website:  https://openfoam.org
    \\  /    A nd           | Version:  dev
     \\/     M anipulation  |
\*---------------------------------------------------------------------------*/
FoamFile
{
    version     2.0;
    format      ascii;
    class       volScalarField;
    location    "2500";
    object      qr;
}
// * * * * * * * * * * * * * * * * * * * * * * * * * * * * * * * * * * * * * //

dimensions      [1 0 -3 0 0 0 0];

internalField   uniform 0;

boundaryField
{
    lowerOutlet
    {
        type            calculated;
        value           nonuniform List<scalar> 
150
(
4011.96
4025.28
4040.09
4056.33
4074.02
4093.19
4113.88
4136.14
4160.01
4185.56
4212.86
4241.99
4273.04
4306.13
4341.37
4378.89
4418.87
4461.48
4506.93
4555.46
4607.34
4662.88
4722.47
4786.53
4855.69
4930.56
5011.75
5100.12
5196.7
5302.74
5419.82
5549.87
5695.32
5819.46
5999.48
6204.9
6441.73
6717.45
7042.25
7430.38
7899.65
8475.86
9205.25
10014.9
11207.6
12806.6
14999.5
18391.6
-21342
18435.4
14129.1
11637.6
10092.4
9043
8283.6
7641.17
7202.62
6849.57
6557.36
6312.07
6102.62
5921.05
5761.72
5620.48
5462.68
5351.89
5251.39
5159.66
5075.5
4997.93
4926.15
4859.49
4797.42
4739.55
4685.47
4634.76
4587.11
4542.29
4500.06
4460.24
4422.67
4387.2
4353.69
4322.04
4292.15
4263.93
4237.3
4212.2
4188.56
4166.32
4145.46
4125.92
4107.68
4090.7
4074.96
4060.44
4047.21
-5709.37
22006.5
14999.4
6872.94
7227.32
7653.59
8172.28
8811.62
9765.91
10876.7
12360.5
14378.6
17332.3
19449.1
17157
12145.1
10421.6
9272.24
8452.91
7903.52
7409.22
7017.2
6696.89
6429.59
6203.44
20561.4
16005.7
6574.14
10281.9
11563.2
13288
15678
13375.8
11187.5
9793.3
8831.08
8126.11
6008.74
9533.89
10568.6
11942
13810.1
16427.7
12720.5
10784.7
9521.15
8634.93
5906.54
6098.68
6318.99
5838.86
5689.09
5555.67
)
;
    }
    top
    {
        type            calculated;
        value           nonuniform List<scalar> 
100
(
3638.34
3643.3
3649.22
3656.41
3664.32
3672.2
3680.03
3687.04
3693.78
3699.9
3705.45
3710.64
3715.9
3721.33
3726.75
3732.05
3736.97
3741.03
3741.48
3722.53
3666.79
3597.04
3535.58
3499.08
3494.66
3516.26
3580.3
3675.01
3771.25
3850.06
3899
3924.66
3940.14
3952.38
3963.33
3973.32
3982.52
3991.16
3998.91
4006
4012.55
4018.83
4024.35
4029.27
4033.62
4037.72
4041.44
4044.54
4047.17
4049.53
4051.4
4053.12
4054.23
4055.16
4055.47
4055.44
4055.05
4054.28
4053.09
4051.55
4049.58
4047.27
4044.5
4041.34
4037.69
4033.89
4029.38
4024.67
4019.52
4013.88
4007.96
4001.72
3995.24
3988.43
3981.31
3973.75
3965.78
3957.33
3948.61
3939.55
3930.03
3920.28
3910.07
3899.67
3889.17
3878.59
3868.17
3858.02
3847.97
3837.87
3828.14
3818.46
3810.56
3827.93
3816.7
3805.47
3794.21
3782.94
3771.65
3760.66
)
;
    }
    sides
    {
        type            calculated;
        value           nonuniform List<scalar> 
100
(
4012.01
4022.66
4031.96
4039.9
4046.49
4051.76
4055.73
4058.44
4059.91
4060.19
4059.33
4057.36
4054.34
4050.32
4045.35
4039.49
4032.8
4025.32
4017.13
4008.26
3998.79
3988.76
3978.23
3967.24
3955.85
3944.1
3932.04
3919.71
3907.16
3894.42
3881.54
3868.54
3855.45
3842.32
3829.17
3816.03
3802.92
3789.86
3776.88
3764.01
3751.25
3738.62
3726.14
3713.81
3701.65
3689.7
3677.95
3666.4
3655.06
3644.17
4047.27
4058.21
4068.02
4076.67
4084.16
4090.51
4095.75
4099.89
4102.96
4105
4106.03
4106.08
4105.21
4103.44
4100.81
4091.24
4093.16
4088.22
4082.6
4076.34
4069.49
4062.09
4054.17
4045.79
4036.98
4027.77
4018.22
4008.34
3998.18
3987.76
3977.12
3966.29
3955.29
3944.14
3932.88
3921.52
3910.08
3898.59
3887.05
3875.49
3863.91
3852.32
3840.72
3829.12
3817.53
3806
3794.54
3783.12
3771.74
3760.68
)
;
    }
    front
    {
        type            empty;
    }
    back
    {
        type            empty;
    }
    roller
    {
        type            calculated;
        value           nonuniform List<scalar> 
144
(
48540.6
55411.5
42356.4
7360.99
6295.65
5400.17
4708.96
5015.22
4437.48
4692.87
16240.7
44302.3
55679
46919.9
14314.7
9100.9
7644.34
6924.91
6710.59
6769.61
6491.62
5024.04
5461.61
4762.01
5257.67
5205.83
4450.62
4456.14
4480.78
4490.88
4524.35
4537.54
29151.4
32841.9
52047.7
53729.1
22687.2
12888.1
13680.8
10587.9
9942.76
8265.02
6616.34
5355.55
4975.56
25844.3
54507.2
50811.3
26180.2
30103.6
10149.6
10739.9
9494.79
8230.51
7946.68
6885.96
4826.12
4623.82
5066.49
4493.34
4892.48
4719.11
4463.23
4471.49
4501.42
4512.53
17715.4
12924.1
11773.9
7465.41
5923.3
5641.77
4939.5
4850.13
4809.2
12133.4
11305.7
14954.1
7739.97
8616.33
6414.22
5954.25
6002.83
5808.49
5420.3
5705.38
5311.91
4555.46
4589.83
4477.4
4438.72
4443.03
4670.17
35868.7
9069.2
8619.3
7268.85
7080.82
6173.35
5846.96
5582.6
4880.68
4662.74
5158.47
4532.73
4512.98
4463.45
4455.55
4450.97
4435.32
4437.51
4441.29
4625.18
4601.53
19732
22202.9
38220.8
18870.4
16334.1
9614.94
7968.76
7092.22
6509.51
6267.08
6106.62
6086
5670.1
5539.76
5773.97
5214.19
5126.62
5527.7
5311.84
5111.23
4937.04
4779.99
4754.63
4436.07
4435.39
4447.38
4586.3
4573.89
4557.96
4646.36
)
;
    }
    burner
    {
        type            calculated;
        value           nonuniform List<scalar> 
14
(
-505781
-499889
-514945
-510566
-499468
-508971
-525799
-502396
-501578
-522870
-517018
-500301
-504576
-533627
)
;
    }
}


// ************************************************************************* //
