/*--------------------------------*- C++ -*----------------------------------*\
  =========                 |
  \\      /  F ield         | OpenFOAM: The Open Source CFD Toolbox
   \\    /   O peration     | Website:  https://openfoam.org
    \\  /    A nd           | Version:  dev
     \\/     M anipulation  |
\*---------------------------------------------------------------------------*/
FoamFile
{
    version     2.0;
    format      ascii;
    class       volScalarField;
    location    "2500";
    object      rAU;
}
// * * * * * * * * * * * * * * * * * * * * * * * * * * * * * * * * * * * * * //

dimensions      [-1 3 1 0 0 0 0];

internalField   nonuniform List<scalar> 
9714
(
0.00818053
0.00823531
0.00814312
0.00819081
0.00839017
0.00804109
0.00814374
0.00837666
0.00840007
0.00795699
0.00810855
0.00836991
0.00837413
0.00841688
0.00788054
0.00808141
0.00837783
0.00835893
0.00839244
0.00842526
0.00781273
0.00805838
0.0083933
0.00835719
0.00836758
0.00841329
0.00842954
0.00775134
0.00803503
0.00840758
0.00836547
0.00835154
0.00839142
0.00842438
0.0084317
0.00769538
0.00800957
0.00842038
0.00838317
0.00834367
0.0083674
0.00841357
0.00843023
0.0084335
0.00764435
0.0079872
0.00842527
0.00840364
0.00834572
0.00834832
0.00839496
0.00842472
0.0084336
0.00843449
0.0075977
0.00796661
0.00842935
0.00841694
0.00835624
0.00833766
0.00837123
0.0084167
0.00843159
0.00843609
0.00843504
0.00755511
0.00794528
0.0084332
0.00842832
0.00837492
0.0083325
0.00835124
0.00839994
0.00842795
0.0084351
0.00843773
0.00843547
0.00751611
0.00792377
0.00843685
0.00843407
0.00839725
0.00833549
0.00833597
0.00837962
0.00841981
0.00843401
0.00843827
0.00843893
0.00843548
0.00748031
0.00790168
0.00843919
0.00843856
0.00841214
0.00834662
0.00832754
0.0083578
0.00840744
0.00843054
0.00843765
0.00844019
0.00843983
0.00843564
0.00744753
0.00787965
0.00844046
0.00844147
0.00842361
0.00836414
0.00832188
0.00834022
0.00838966
0.00842537
0.00843662
0.0084403
0.00844163
0.00844057
0.00843572
0.00741768
0.00785591
0.00843953
0.00844264
0.00843245
0.0083865
0.00832556
0.008326
0.00836867
0.00841606
0.00843496
0.00844
0.0084424
0.0084424
0.00844109
0.00843561
0.00739044
0.00783369
0.0084369
0.00844435
0.00843666
0.00840503
0.00833481
0.00831817
0.00834797
0.00839999
0.00843025
0.00844014
0.00844235
0.00844389
0.00844351
0.00844159
0.00843529
0.00736564
0.00781444
0.0084336
0.00844468
0.00844094
0.00841771
0.00835146
0.0083134
0.008331
0.00838197
0.00842256
0.00843877
0.00844319
0.00844433
0.00844482
0.0084441
0.0084419
0.00843525
0.0073432
0.00779808
0.00843278
0.00844539
0.00844433
0.00842824
0.0083735
0.00831449
0.00831867
0.0083612
0.00841167
0.00843675
0.008444
0.00844596
0.00844612
0.0084459
0.00844486
0.0084423
0.00843511
0.00732304
0.00778182
0.00843316
0.00844617
0.00844541
0.00843508
0.00839546
0.00832145
0.00831107
0.0083415
0.00839523
0.00843082
0.00844464
0.00844763
0.00844769
0.00844728
0.00844654
0.00844528
0.00844246
0.00843488
0.007305
0.00776647
0.00843309
0.00844629
0.00844682
0.0084385
0.0084096
0.00833511
0.00830511
0.00832563
0.00837658
0.00842138
0.00844184
0.00844858
0.00845035
0.00844928
0.00844819
0.00844678
0.00844557
0.00844267
0.00843462
0.00728908
0.00775105
0.00843233
0.00844516
0.00844624
0.00844202
0.00841923
0.00835468
0.0083027
0.0083136
0.00835743
0.00840858
0.00843702
0.00844798
0.00845162
0.00845196
0.00845041
0.0084487
0.00844751
0.00844585
0.0084429
0.00843427
0.00727517
0.00773659
0.00843004
0.00844648
0.00844685
0.00844339
0.00842701
0.00837567
0.00830709
0.00830348
0.00833934
0.00839316
0.00842938
0.00844646
0.0084523
0.00845417
0.00845362
0.00845131
0.00844925
0.00844794
0.00844634
0.00844301
0.00843413
0.00726322
0.00772494
0.00842701
0.00844608
0.00844742
0.00844441
0.00843235
0.00839431
0.00831621
0.00829727
0.00832222
0.00837614
0.00842095
0.00844316
0.00845143
0.00845518
0.00845605
0.00845474
0.00845177
0.00844963
0.00844811
0.00844661
0.00844317
0.00843397
0.00724791
0.00771725
0.00842519
0.00844705
0.00844858
0.00844584
0.00843693
0.008407
0.0083305
0.00829403
0.00830927
0.008358
0.00840892
0.0084391
0.00845039
0.00845513
0.00845714
0.00845752
0.00845568
0.00845255
0.00845001
0.00844863
0.00844694
0.00844346
0.00842671
0.00704045
0.00770864
0.00842535
0.00844702
0.00844888
0.00844712
0.00843886
0.0084139
0.00834765
0.00829478
0.00830001
0.00834028
0.00839488
0.00843269
0.00845013
0.00845477
0.00845772
0.00845884
0.00845846
0.00845633
0.00845305
0.00845037
0.00844882
0.00844719
0.00844358
0.00814425
0.00716473
0.00769329
0.00842175
0.00844788
0.00845016
0.0084483
0.00844007
0.00841867
0.00836468
0.00829934
0.00799094
0.00832451
0.00837878
0.00842371
0.00844735
0.008456
0.00845795
0.00845952
0.00846017
0.00845925
0.00845699
0.00845324
0.00845069
0.00844909
0.00844745
0.00841981
0.00833276
0.00724072
0.0076833
0.00841096
0.00844838
0.00845045
0.0084485
0.00844094
0.00842361
0.00837962
0.00830692
0.00770614
0.00831163
0.00836251
0.008412
0.00844262
0.00845566
0.00845983
0.00846038
0.00846087
0.00846095
0.00846017
0.00845754
0.00845369
0.0084509
0.0084494
0.00844792
0.0084442
0.0084341
0.00724183
0.00768128
0.00840151
0.00844839
0.00845008
0.00844849
0.00844159
0.00840384
0.00839107
0.00831742
0.00791099
0.00830228
0.00834748
0.00839858
0.00843612
0.00845381
0.00846054
0.00846244
0.00846198
0.00846196
0.00846196
0.00846094
0.00845781
0.00845393
0.00845107
0.00844982
0.00844812
0.0084443
0.00843415
0.00724548
0.00767717
0.00839314
0.00844807
0.00841234
0.00839234
0.00844078
0.00834129
0.00839887
0.00832822
0.00820747
0.00829524
0.00833345
0.00838575
0.00842746
0.0084509
0.00846028
0.00846371
0.00846455
0.00846325
0.00846288
0.00846272
0.00846163
0.00845839
0.00845426
0.0084514
0.00845007
0.00844828
0.00844425
0.00843424
0.00725228
0.00767014
0.00837594
0.00844762
0.00840124
0.00836948
0.00843741
0.00835256
0.00831985
0.00833983
0.00828967
0.00829009
0.00832127
0.00837227
0.00841752
0.00844649
0.00845929
0.00846425
0.00846651
0.00846612
0.0084642
0.0084635
0.00846336
0.00846204
0.00845877
0.00845458
0.00845185
0.00845019
0.00844837
0.00844419
0.00843441
0.00726254
0.0076649
0.00835265
0.00843964
0.00843699
0.00842452
0.00843573
0.00841616
0.00831541
0.00835125
0.00829356
0.00828689
0.00831085
0.00835971
0.00840705
0.00844094
0.00845763
0.0084644
0.0084669
0.00846827
0.00846724
0.00846485
0.00846416
0.00846379
0.00846266
0.0084593
0.00845491
0.00845184
0.00845037
0.00844839
0.00844377
0.00843451
0.00727656
0.00766283
0.00832321
0.00841765
0.00844946
0.00844765
0.00843717
0.00842651
0.00840139
0.00836163
0.00829934
0.00828509
0.00830238
0.00834822
0.00839631
0.00843418
0.00845566
0.00846436
0.00846753
0.00846889
0.0084697
0.00846798
0.00846552
0.00846463
0.00846431
0.00846305
0.0084596
0.00845517
0.00845208
0.00845052
0.00844804
0.00844311
0.00843441
0.00728784
0.00765819
0.00829967
0.00840299
0.00843986
0.00844539
0.00843682
0.00842635
0.0084103
0.00837085
0.00830667
0.00828391
0.00829654
0.00833734
0.0083858
0.00842609
0.00845215
0.00846372
0.00846828
0.00846992
0.00847047
0.00847067
0.00846884
0.00846594
0.00846503
0.0084648
0.00846349
0.00845974
0.00845512
0.00845209
0.00845071
0.00844755
0.00842789
0.00851322
0.00621083
0.00817086
0.00766011
0.00827664
0.00839094
0.00843146
0.00844447
0.0084358
0.00842695
0.00841219
0.0083787
0.00831445
0.00828428
0.00829226
0.00832756
0.00837584
0.00841801
0.00844749
0.00846252
0.00846873
0.00847101
0.00847162
0.0084717
0.00847157
0.00846935
0.00846634
0.00846541
0.00846533
0.00846358
0.00845956
0.0084549
0.00845195
0.00845054
0.0084298
0.008395
0.00817266
0.00820222
0.00838038
0.00820975
0.00623093
0.00817691
0.00768584
0.00825854
0.00838339
0.0084265
0.00844331
0.00843517
0.00842749
0.0084144
0.00838527
0.00832269
0.00828571
0.00828912
0.00831922
0.00836623
0.00840954
0.00844251
0.0084611
0.00846889
0.00847194
0.00847284
0.00847273
0.00847249
0.0084722
0.00846957
0.00846626
0.00846571
0.00846524
0.00846355
0.00845936
0.00845461
0.0084515
0.00843149
0.00817808
0.00818129
0.00816315
0.00821396
0.00820396
0.00822103
0.00626544
0.00821052
0.00771635
0.00826067
0.00838822
0.00842237
0.00844161
0.008435
0.00842832
0.00841646
0.00839027
0.00833069
0.00828781
0.00828718
0.00831212
0.00835742
0.00840101
0.00843662
0.00845854
0.00846841
0.00847274
0.0084739
0.008474
0.00847373
0.00847306
0.00847267
0.00846984
0.00846669
0.0084657
0.00846513
0.00846327
0.00845887
0.00845501
0.00843199
0.00818648
0.00819567
0.00817904
0.00819424
0.00820981
0.00824922
0.00823169
0.00825367
0.00630688
0.00823979
0.00774932
0.00826524
0.00839718
0.0084257
0.00844181
0.00843484
0.00842926
0.00841837
0.00839441
0.00833862
0.00829084
0.00828574
0.0083062
0.00834944
0.00839348
0.00843027
0.00845546
0.00846812
0.00847331
0.0084753
0.00847579
0.00847527
0.0084744
0.00847333
0.00847274
0.00847015
0.00846672
0.00846547
0.00846458
0.00846263
0.00845954
0.00843909
0.00820218
0.0082108
0.00820586
0.00821681
0.00822101
0.00823493
0.00823875
0.00827835
0.00826048
0.00828163
0.00635036
0.00826359
0.00778467
0.00827608
0.00840037
0.00843766
0.00844013
0.00843605
0.00843049
0.00842044
0.00839818
0.00834637
0.00829455
0.00828507
0.00830116
0.00834209
0.00838585
0.00842369
0.00845172
0.00846701
0.00847371
0.0084763
0.00847749
0.00847665
0.00847579
0.00847456
0.00847353
0.00847284
0.00847018
0.00846649
0.00846487
0.0084641
0.0084648
0.00844648
0.00822572
0.00823729
0.00822847
0.00823862
0.00824523
0.00825179
0.00824762
0.00826201
0.00826653
0.00830203
0.00828639
0.0083059
0.00639401
0.00828331
0.00782768
0.00828951
0.00840014
0.00844175
0.00843923
0.00843637
0.0084319
0.00842257
0.00840139
0.00835349
0.00829886
0.00828444
0.00829751
0.00833587
0.00837885
0.00841735
0.00844732
0.00846544
0.00847376
0.00847759
0.00847869
0.00847847
0.00847747
0.00847618
0.00847461
0.00847338
0.00847278
0.00846981
0.00846606
0.00846378
0.00846731
0.00845574
0.00824407
0.00825348
0.00825142
0.00826432
0.00826027
0.00826801
0.0082736
0.0082786
0.00827327
0.00828646
0.00829093
0.00832084
0.00830895
0.00832648
0.00644229
0.00830137
0.00787976
0.00830957
0.00840541
0.00844103
0.00843896
0.00843688
0.00843322
0.00842448
0.00840415
0.00835982
0.0083031
0.00828392
0.00829464
0.0083295
0.00837249
0.00841128
0.0084429
0.0084632
0.00847339
0.00847803
0.00847975
0.00847997
0.00847928
0.00847788
0.00847612
0.00847426
0.00847308
0.00847208
0.00846924
0.00846565
0.00846712
0.00845871
0.00826877
0.00827407
0.00827665
0.00828709
0.00827723
0.00828835
0.00828494
0.00829196
0.00829785
0.00830135
0.00829666
0.00830823
0.00831178
0.00833686
0.00832845
0.0083437
0.00649358
0.00831733
0.00792832
0.00833742
0.00841208
0.00844003
0.00843984
0.0084376
0.00843425
0.00842594
0.00840635
0.00836534
0.00830769
0.00828339
0.00829181
0.0083239
0.00836652
0.00840497
0.00843797
0.00846036
0.00847261
0.00847816
0.00848056
0.00848148
0.00848103
0.00847968
0.00847774
0.00847546
0.00847365
0.00846736
0.0084711
0.00846909
0.00846914
0.00846344
0.00827084
0.00827598
0.00829938
0.0083055
0.00830022
0.00830963
0.00829904
0.00830968
0.00830627
0.00831224
0.00831896
0.00832113
0.00831681
0.00832679
0.00833027
0.00834986
0.00834554
0.00835763
0.00654674
0.00833112
0.00796932
0.00836312
0.00841901
0.00843817
0.0084399
0.00843875
0.00843505
0.00842705
0.00840798
0.00836974
0.0083119
0.00828314
0.00828924
0.00831845
0.00836066
0.00839935
0.00843272
0.0084571
0.0084713
0.0084778
0.0084813
0.00848269
0.00848267
0.00848143
0.00847934
0.00847676
0.0084743
0.00845802
0.0084667
0.00847128
0.0084723
0.00846292
0.00828666
0.00827566
0.00830917
0.00830565
0.00832003
0.00832172
0.00831994
0.00832884
0.00831762
0.00832749
0.00832507
0.00832942
0.00833717
0.00833802
0.00833426
0.0083425
0.008347
0.00836085
0.00836128
0.00836853
0.00660226
0.0083428
0.00800575
0.00838159
0.00842681
0.00843648
0.00843883
0.00843956
0.00843633
0.00842804
0.00840944
0.00837341
0.008316
0.00828346
0.00828723
0.00831397
0.00835551
0.00839384
0.00842765
0.00845367
0.00846889
0.00847712
0.00848123
0.00848341
0.00848395
0.00848297
0.00848083
0.00847798
0.00847508
0.00847278
0.00842617
0.00810795
0.00814072
0.0081861
0.00825201
0.00821176
0.00828304
0.00824673
0.0083065
0.0082761
0.00832979
0.00830127
0.00833528
0.00832946
0.00833386
0.00833931
0.00834139
0.0083438
0.00835256
0.00835303
0.00834948
0.00835536
0.00836268
0.00837084
0.0083749
0.00837743
0.00665822
0.00835235
0.00803622
0.00838465
0.00843381
0.00843428
0.00843902
0.00843982
0.00843745
0.00842942
0.00841124
0.00837672
0.00832017
0.00828482
0.0082862
0.00831102
0.00835214
0.00838981
0.00842336
0.00845043
0.00846732
0.00847608
0.00848088
0.00848357
0.00848474
0.00848431
0.00848214
0.00848026
0.00847708
0.00847278
0.00843748
0.00776075
0.00776577
0.00793165
0.008207
0.00774209
0.00822639
0.00811636
0.00823234
0.0081811
0.00825237
0.00821882
0.00829766
0.00824177
0.00832343
0.00828464
0.00834394
0.00831573
0.00835548
0.00835057
0.00836445
0.00836716
0.00836356
0.00836694
0.00837728
0.00838017
0.00838567
0.00838513
0.00671345
0.0083602
0.00806399
0.00839084
0.00843296
0.00843337
0.00843906
0.00843917
0.00843798
0.00843027
0.00841291
0.00837936
0.0083237
0.0082857
0.00828512
0.0083078
0.00834951
0.00838809
0.00842041
0.00844795
0.00846639
0.00847615
0.00848066
0.00848373
0.00848545
0.00848549
0.00848372
0.00848143
0.008483
0.0084706
0.0084587
0.00772561
0.00772493
0.00802886
0.00791762
0.00759615
0.00682693
0.0080672
0.0079626
0.00813207
0.00798931
0.00816991
0.00806006
0.00823026
0.00809403
0.00826477
0.00818975
0.00831644
0.00825077
0.00836128
0.00831971
0.00837425
0.00837461
0.00837718
0.00837924
0.00839065
0.00838938
0.00839383
0.00839306
0.00676772
0.00836721
0.00808659
0.00839388
0.00842963
0.00843237
0.00843749
0.00843851
0.00843718
0.0084297
0.00841293
0.00838055
0.0083256
0.00828513
0.00828254
0.00830322
0.0083451
0.00838493
0.00841816
0.00844563
0.00846504
0.00847589
0.00848103
0.00848363
0.00801592
0.00848543
0.0084854
0.00848237
0.0084847
0.0084665
0.00843296
0.00773056
0.00789315
0.00821417
0.0082339
0.00723469
0.00707407
0.00779575
0.00748392
0.00785211
0.00763149
0.00793056
0.00773642
0.00795559
0.00783816
0.00805966
0.00792934
0.00812207
0.00797808
0.00825211
0.00811041
0.00833088
0.00823163
0.00837972
0.00834889
0.00839047
0.00838876
0.00840186
0.00839873
0.00840163
0.0084032
0.00681422
0.00837299
0.00811282
0.00839824
0.00842794
0.00843083
0.00843575
0.00843747
0.00843573
0.0084283
0.00841173
0.0083803
0.00832627
0.00828353
0.00827889
0.00829739
0.00833906
0.00837969
0.00841394
0.00844243
0.00846268
0.00847398
0.00847976
0.00848242
0.0078219
0.00840919
0.00848604
0.00848608
0.00848291
0.00845991
0.00836363
0.00793396
0.00816859
0.00833764
0.00822315
0.00700287
0.00655189
0.00709799
0.00710473
0.00736444
0.00717028
0.00749968
0.00730432
0.00761101
0.00741299
0.00774799
0.00754607
0.00786795
0.00770517
0.00792193
0.0078084
0.00806929
0.0079346
0.00823856
0.00803467
0.00836202
0.00825082
0.00840057
0.00838273
0.00840872
0.0084105
0.00840869
0.00841616
0.00680052
0.00831517
0.00815348
0.00840313
0.00842802
0.00843053
0.00843479
0.00843615
0.00843416
0.00842708
0.00841076
0.00838011
0.00832707
0.00828271
0.00827594
0.00829286
0.00833369
0.00837554
0.00840983
0.00843896
0.00845977
0.00847163
0.00847695
0.00847963
0.00822911
0.00821914
0.0084552
0.00848139
0.00848347
0.00844721
0.00832437
0.00818164
0.00830545
0.00821831
0.0081837
0.00775708
0.00695378
0.00642234
0.00704674
0.00687142
0.00721264
0.00721167
0.00734615
0.007339
0.00743407
0.0074244
0.0075598
0.00755464
0.00770267
0.00767517
0.00783634
0.00776754
0.0078991
0.00784885
0.00805801
0.00787767
0.00829314
0.00809441
0.00840057
0.0083397
0.00840857
0.00842656
0.00841279
0.00842387
0.006766
0.00823077
0.00823594
0.00840678
0.00842902
0.00843103
0.00843491
0.00843577
0.008434
0.0084266
0.00841014
0.00838032
0.00832866
0.00828354
0.00827435
0.0082902
0.00832987
0.00837311
0.00840778
0.00843719
0.00845885
0.00847036
0.00847537
0.00847698
0.00847817
0.00823064
0.00841011
0.00842799
0.00845792
0.00842349
0.00830738
0.00823737
0.00820063
0.00813398
0.00811351
0.00802576
0.00593527
0.00551801
0.00648568
0.00617875
0.0065704
0.00618984
0.00714486
0.00705835
0.00725015
0.00715837
0.00732227
0.00721935
0.00746384
0.0073846
0.00764452
0.00754306
0.00786368
0.00760606
0.00785138
0.00784275
0.00794471
0.00794455
0.00816242
0.00797965
0.00835997
0.00818375
0.00839303
0.00838818
0.00840459
0.0082956
0.00674966
0.00799108
0.00838897
0.00843368
0.00843357
0.00843552
0.00843621
0.00843378
0.00842567
0.00840914
0.00837985
0.00832957
0.00828369
0.0082726
0.00828766
0.00832658
0.00837096
0.008407
0.00843669
0.00845969
0.00847283
0.00847695
0.00847643
0.0084754
0.0084659
0.00801257
0.00790986
0.00834058
0.0083565
0.00824944
0.00820036
0.00807576
0.00808817
0.00794704
0.0073696
0.00451372
0.00441048
0.00520299
0.00486068
0.0059577
0.0065325
0.00671979
0.00533212
0.00672534
0.00651479
0.00681721
0.00664668
0.00688632
0.00672826
0.00709299
0.00718893
0.00739289
0.00732327
0.00767639
0.00715377
0.0078679
0.00764977
0.00799439
0.00797748
0.00803464
0.00809001
0.00819771
0.00802829
0.00829773
0.00815
0.00830929
0.00827462
0.00794059
0.00826298
0.00836981
0.00843732
0.0084362
0.00843595
0.00843254
0.00842398
0.00840705
0.00837759
0.00832845
0.00828182
0.00826867
0.00828311
0.00832097
0.00836717
0.00840415
0.00843508
0.00845961
0.00847432
0.0084803
0.00847758
0.00843926
0.00845263
0.00787256
0.00763265
0.00814664
0.008255
0.00815105
0.00810863
0.0081254
0.00794205
0.00846116
0.00640484
0.00769023
0.00541986
0.00613603
0.00633123
0.00725426
0.00444881
0.00523903
0.00599805
0.00558846
0.00690796
0.00694975
0.00717134
0.00575681
0.0074297
0.00596276
0.00763935
0.00785353
0.00772912
0.00797195
0.00717559
0.00777368
0.00748701
0.00825428
0.00805592
0.0077532
0.00788556
0.00801061
0.00794295
0.00801441
0.00823384
0.0082557
0.00806509
0.00777234
0.0080699
0.00804122
0.00795227
0.00658945
0.00770152
0.00729379
0.00833211
0.00843956
0.00843503
0.00843063
0.00842168
0.00840412
0.00837407
0.0083258
0.00827856
0.00826305
0.00827697
0.00831424
0.00836123
0.00839994
0.00843103
0.00845753
0.00847431
0.00848164
0.00847822
0.00845582
0.00838347
0.00806414
0.00794638
0.00806741
0.00812495
0.00807548
0.00796347
0.00803729
0.00794923
0.00840835
0.006761
0.0082601
0.00678734
0.00669855
0.00720373
0.00699004
0.00734979
0.00711729
0.00697343
0.00753085
0.00728169
0.00767818
0.00516361
0.00585847
0.00547618
0.0061568
0.0071172
0.00666927
0.00710312
0.00658875
0.00716873
0.00669991
0.00671835
0.00667048
0.00766905
0.00739849
0.00801677
0.00517835
0.00459285
0.00701637
0.00644358
0.00557543
0.00565449
0.00758733
0.00712041
0.00702931
0.00691741
0.00672038
0.00726089
0.00745422
0.007616
0.0074155
0.00713098
0.00799943
0.00783059
0.00788988
0.00798395
0.00743272
0.00532937
0.00799803
0.00782093
0.00829722
0.00843765
0.00842845
0.00841949
0.0084016
0.00837093
0.00832298
0.00827501
0.00825722
0.00827091
0.00830738
0.00835559
0.00839497
0.00842731
0.00845426
0.00847294
0.00848132
0.00847797
0.00844499
0.00837011
0.00806008
0.00811041
0.00806448
0.00801394
0.00801457
0.00787256
0.00793109
0.00833525
0.0083279
0.00737156
0.00826582
0.00670608
0.00664923
0.0068843
0.00698187
0.00695848
0.0068773
0.00712103
0.00704575
0.00747122
0.00726644
0.0075517
0.00740623
0.00742839
0.00776917
0.00769154
0.00788568
0.00778824
0.00808857
0.00780276
0.00832138
0.00748862
0.00839018
0.00696788
0.00790573
0.00406568
0.00366389
0.00412749
0.00466672
0.005043
0.00480757
0.00559614
0.00430795
0.00627368
0.00570332
0.0054451
0.00706859
0.00686819
0.00699673
0.00691145
0.00733937
0.00750795
0.00768074
0.00748809
0.00743656
0.00723921
0.00781126
0.00792198
0.0079185
0.00815877
0.00562612
0.00809397
0.00808068
0.00826095
0.00843094
0.00841738
0.00839933
0.0083685
0.00832046
0.00827154
0.00825161
0.00826492
0.00830154
0.00834994
0.00839086
0.00842286
0.00845166
0.00847134
0.00848163
0.00847798
0.00843835
0.00833565
0.00813662
0.00804738
0.007972
0.00797949
0.00792553
0.0078724
0.00782546
0.00830297
0.0085912
0.00819613
0.00805718
0.00778308
0.00715142
0.00719122
0.00730669
0.00749445
0.0070664
0.00714701
0.00727503
0.00733753
0.0072998
0.0072472
0.00744809
0.00746652
0.00766661
0.00751565
0.00783609
0.00765378
0.00807594
0.00787169
0.00835509
0.00812167
0.00820907
0.0080304
0.00482246
0.00496004
0.00510529
0.00527354
0.00416009
0.00480823
0.00502201
0.00514652
0.00477741
0.00440751
0.00472041
0.00464502
0.00576077
0.00499643
0.00559074
0.00712783
0.00629186
0.00706258
0.00665739
0.00728058
0.00738765
0.00761001
0.0079536
0.00758422
0.00795992
0.00772593
0.00781286
0.00789101
0.00815892
0.00575317
0.00807681
0.00811285
0.00822131
0.00842068
0.00839699
0.00836603
0.00831811
0.00826772
0.00824555
0.0082589
0.00829538
0.00834516
0.00838603
0.00841876
0.00844735
0.00846995
0.00848092
0.00848069
0.00843963
0.00831556
0.00813798
0.00796773
0.0079363
0.00792898
0.00781742
0.00782246
0.0077839
0.00694532
0.00847117
0.00823749
0.00797717
0.0079681
0.00778258
0.00752665
0.00762489
0.0078531
0.00770328
0.00785
0.00746984
0.00757853
0.00769239
0.00770347
0.00752641
0.00758482
0.00774338
0.00781362
0.00759092
0.00763717
0.00777019
0.00778627
0.0080015
0.00795447
0.0078988
0.00816457
0.00547383
0.00553982
0.00556871
0.00558971
0.00530137
0.00546645
0.00565215
0.00570676
0.00514851
0.00526492
0.00538302
0.00556414
0.00472994
0.00500129
0.00538392
0.00539958
0.00592771
0.00498822
0.00524198
0.00720637
0.00623446
0.00687002
0.0066389
0.00732813
0.00743426
0.00757209
0.00808003
0.00800582
0.00806572
0.00760012
0.00769483
0.00780679
0.00815738
0.00583766
0.00805925
0.00813187
0.00817739
0.00840146
0.00836335
0.00831549
0.00826335
0.00823866
0.00825149
0.00828906
0.00833926
0.00788654
0.008338
0.00844278
0.00846641
0.00847995
0.00848399
0.00844993
0.00831299
0.00810117
0.00791929
0.00793341
0.0078606
0.00772401
0.0076757
0.00812385
0.00596499
0.00845523
0.00811136
0.00787457
0.00805118
0.00798696
0.00822237
0.00799051
0.00796132
0.00816339
0.00757967
0.00806309
0.00782166
0.00760975
0.00797439
0.00802774
0.00787141
0.00788998
0.00800528
0.00805086
0.00783946
0.00791415
0.00793582
0.00796705
0.00809746
0.00805473
0.00560929
0.00568806
0.00765577
0.00570233
0.00569881
0.0057181
0.00574366
0.00576652
0.00579272
0.00578152
0.00577942
0.0055237
0.00568785
0.00586431
0.005878
0.00566104
0.00567524
0.00596269
0.00579469
0.00550669
0.00595505
0.00525408
0.00712327
0.00588754
0.00698964
0.00620572
0.00721091
0.00741171
0.00747336
0.0081029
0.00796856
0.0080614
0.00763717
0.00762166
0.00774463
0.00815368
0.00587196
0.00804227
0.00813807
0.00812456
0.00836884
0.00831243
0.00825879
0.00823088
0.00824336
0.00828085
0.008334
0.00763473
0.00771707
0.00832312
0.00840887
0.0084782
0.00848569
0.00846585
0.00832538
0.00808497
0.00788913
0.00788367
0.00776705
0.00765605
0.00755042
0.0078331
0.00624107
0.00831595
0.00800919
0.00784756
0.00792116
0.00814399
0.00810624
0.0079522
0.0082747
0.00828213
0.00824194
0.00826438
0.00819365
0.00825488
0.00784579
0.00788182
0.00797087
0.00786757
0.00809255
0.00812992
0.0081566
0.00820486
0.00802419
0.00809162
0.00803526
0.00805436
0.00785368
0.00781187
0.00574955
0.00572862
0.00590054
0.00587209
0.00577611
0.00577402
0.005795
0.00581642
0.00586443
0.00585602
0.0058523
0.00585159
0.00600436
0.00599001
0.00594715
0.00593474
0.00626306
0.00614224
0.00624002
0.00610211
0.00554324
0.00639447
0.00624747
0.00724342
0.00589321
0.00648127
0.0060161
0.00678792
0.00702998
0.00761271
0.00810334
0.00786049
0.00798905
0.00760231
0.00771559
0.00769449
0.00815613
0.00583516
0.00803762
0.00813076
0.00805692
0.00831887
0.00825392
0.00822286
0.00823347
0.00827265
0.00832665
0.0080988
0.00712935
0.00835109
0.00835999
0.00842389
0.00848767
0.00847645
0.00834864
0.00808569
0.0078704
0.00783553
0.00766557
0.0075287
0.00793018
0.00660954
0.00693891
0.00817384
0.00793175
0.00784422
0.00790964
0.00788338
0.00823711
0.00828256
0.00817243
0.00828224
0.00828333
0.00826806
0.00827798
0.00825698
0.00826547
0.00808447
0.008252
0.00814472
0.00811769
0.00823544
0.00825187
0.00822212
0.00825547
0.00810495
0.00816723
0.00806654
0.00808463
0.00594885
0.00597276
0.00620866
0.00602628
0.00582837
0.00586202
0.00596678
0.00593633
0.00585015
0.00584794
0.00586586
0.00587823
0.00593501
0.0059338
0.00593175
0.00592593
0.00606678
0.00604161
0.00601703
0.00601726
0.00630628
0.00619228
0.0062731
0.00614833
0.00644598
0.0063766
0.00647138
0.00666562
0.00651648
0.006126
0.00654829
0.00703941
0.00720952
0.00752011
0.0080617
0.00777026
0.00791001
0.00766768
0.00773372
0.00778992
0.00815602
0.0056161
0.00769155
0.00806892
0.00797012
0.00825976
0.00821407
0.00822362
0.00826129
0.00832013
0.00830349
0.00766215
0.00812003
0.00844175
0.00838634
0.00846546
0.00847778
0.00836618
0.0080926
0.00786271
0.00776171
0.00764255
0.00745107
0.00664873
0.0061605
0.00790704
0.00800847
0.00785396
0.00790471
0.00791315
0.00798434
0.00803351
0.00812091
0.00801558
0.00827968
0.00827397
0.00828512
0.00828343
0.0082758
0.00828347
0.00826374
0.00827338
0.00823047
0.00825933
0.0081614
0.0082339
0.00826842
0.0081938
0.00824471
0.0082705
0.00813346
0.00819377
0.0077692
0.00787281
0.006003
0.00604255
0.00631429
0.0060853
0.00588236
0.00590564
0.00596258
0.00593968
0.00591277
0.00589753
0.00590245
0.00590186
0.00601871
0.00601104
0.00599616
0.00597532
0.00613438
0.00612374
0.00610525
0.0061029
0.00634914
0.00625298
0.00634617
0.00623042
0.00658063
0.00642535
0.00645292
0.00694251
0.00669447
0.00663253
0.0067744
0.00696897
0.0070396
0.00763222
0.00795271
0.00775647
0.00782073
0.00748574
0.00775506
0.00781161
0.00802369
0.00571853
0.00767651
0.00791404
0.00787074
0.00821786
0.00821125
0.00825045
0.00830991
0.00830955
0.00826566
0.00812993
0.00844916
0.00836418
0.00836252
0.00842858
0.00836515
0.00809814
0.00785662
0.00771643
0.00760084
0.00787619
0.00585106
0.00683239
0.00803947
0.00786296
0.00781569
0.00793071
0.00802144
0.00809697
0.00806069
0.00842778
0.00826636
0.00816131
0.00827472
0.00826992
0.00828504
0.00827989
0.00828305
0.00828747
0.00827154
0.00828049
0.00826379
0.00826616
0.00823986
0.00826808
0.00825634
0.0082244
0.00825389
0.0082662
0.00815904
0.00821426
0.00616847
0.00623597
0.00632746
0.00661037
0.00599668
0.00603328
0.00614077
0.00607327
0.00589744
0.00591593
0.00595419
0.00593583
0.00594712
0.00591998
0.00591488
0.00590576
0.00609368
0.00607279
0.00604567
0.00601351
0.00622912
0.00621992
0.00619705
0.0061881
0.00643799
0.00634721
0.006454
0.00634211
0.00656841
0.00653031
0.00651301
0.00659933
0.00666491
0.0068731
0.00680737
0.00661682
0.00686226
0.00736049
0.0079066
0.00783661
0.00787801
0.00767474
0.00787286
0.00791879
0.00787688
0.00706983
0.00783954
0.00778956
0.00778191
0.00817
0.00823571
0.00830066
0.00831448
0.00831497
0.00835104
0.00845194
0.00836695
0.0076652
0.00830914
0.00830708
0.00808505
0.0078495
0.00770797
0.00759375
0.00788618
0.00667243
0.00778055
0.00790274
0.00778388
0.0078663
0.00758171
0.0081255
0.00816666
0.0084263
0.00850153
0.00831874
0.00826385
0.00816288
0.00826989
0.00826699
0.00827901
0.00827351
0.00828604
0.00828484
0.00827619
0.00828279
0.00826949
0.00827142
0.00827251
0.00827366
0.00827295
0.00827482
0.00823103
0.00825851
0.00790965
0.00800015
0.0062146
0.0062875
0.00637603
0.0067133
0.00597105
0.0060064
0.0061306
0.00606109
0.0058972
0.00591469
0.00594592
0.00593354
0.00597496
0.00594007
0.00592881
0.00591316
0.00617009
0.00613967
0.00610294
0.00606072
0.00634243
0.00632852
0.00630373
0.00629067
0.00656796
0.00646822
0.00659604
0.00647954
0.00662929
0.00667934
0.00663229
0.0069546
0.00673284
0.00697656
0.00688257
0.00705723
0.00710638
0.00740858
0.00794242
0.00780862
0.00803725
0.00761006
0.00813779
0.00809183
0.00789131
0.00537697
0.00752012
0.0077697
0.00768106
0.00814112
0.00828657
0.00832279
0.00831141
0.00839547
0.00837404
0.00776509
0.00709752
0.00823004
0.00818149
0.00802466
0.0078379
0.00773729
0.0076243
0.007901
0.00761166
0.00794583
0.00778172
0.00779368
0.00796071
0.00763123
0.00813512
0.00843835
0.0085002
0.00850051
0.00849822
0.00809062
0.00816452
0.00798373
0.00826321
0.00826849
0.00826586
0.0082749
0.00827108
0.00828408
0.00827999
0.00827984
0.00828324
0.00827478
0.00827602
0.00827826
0.0082798
0.00828067
0.00827802
0.00809008
0.00810413
0.00650233
0.00662529
0.00712703
0.00678015
0.00619194
0.00625244
0.00634603
0.00647097
0.00597164
0.00600632
0.00611961
0.00604899
0.00590081
0.00591658
0.005939
0.00593247
0.00601286
0.00597061
0.00595263
0.00593023
0.00626542
0.00622674
0.00618214
0.00613125
0.00648144
0.00646487
0.00644269
0.00642742
0.00673968
0.00662383
0.00678805
0.00665198
0.00676775
0.0068782
0.00680714
0.00714142
0.00689701
0.00702937
0.00702265
0.00726246
0.00739974
0.00725978
0.00796342
0.00777801
0.00800337
0.0077336
0.00776975
0.00803937
0.00771687
0.0057364
0.00797879
0.00745467
0.0075994
0.00814963
0.00833742
0.00835354
0.00838254
0.00838572
0.00747148
0.00716795
0.00810813
0.00802391
0.00791843
0.00781622
0.00775749
0.00769104
0.00791966
0.00808335
0.0078533
0.00771544
0.00784129
0.00805309
0.00811306
0.0083395
0.00849346
0.00849973
0.00849938
0.00849656
0.00830173
0.00826151
0.0082557
0.00814519
0.00826349
0.00826802
0.00826582
0.00827391
0.00827082
0.00828156
0.0082776
0.00828348
0.00828467
0.00827988
0.0082809
0.00828445
0.00828462
0.00828239
0.00828292
0.00725045
0.00703923
0.00718267
0.00712234
0.00732413
0.00653564
0.00667862
0.00684581
0.00615805
0.00621502
0.00630997
0.00642511
0.00595819
0.00599123
0.0061045
0.00603796
0.00591404
0.00592428
0.00593825
0.00593666
0.00600761
0.00551802
0.00504136
0.00537966
0.00639723
0.00635316
0.0063019
0.00624298
0.00665687
0.00664618
0.0066374
0.00662374
0.00696571
0.00683553
0.00703652
0.00687733
0.00697698
0.00714449
0.00705233
0.00720104
0.00709022
0.00717731
0.00724291
0.00739772
0.00760697
0.00751394
0.00787568
0.00802985
0.00774162
0.00753587
0.00776647
0.00802824
0.00803245
0.00589102
0.00806651
0.00788049
0.00755485
0.00816762
0.00837644
0.00816347
0.008376
0.00775596
0.00760938
0.00793004
0.00786676
0.00780524
0.00777144
0.00776033
0.00774826
0.00793653
0.00802557
0.00778409
0.00768639
0.00789075
0.0081153
0.00833129
0.00846161
0.0084971
0.008499