/*--------------------------------*- C++ -*----------------------------------*\
  =========                 |
  \\      /  F ield         | OpenFOAM: The Open Source CFD Toolbox
   \\    /   O peration     | Website:  https://openfoam.org
    \\  /    A nd           | Version:  dev
     \\/     M anipulation  |
\*---------------------------------------------------------------------------*/
FoamFile
{
    version     2.0;
    format      ascii;
    class       volScalarField;
    location    "2500";
    object      T;
}
// * * * * * * * * * * * * * * * * * * * * * * * * * * * * * * * * * * * * * //

dimensions      [0 0 0 1 0 0 0];

internalField   nonuniform List<scalar> 
9714
(
300.282
300.371
300.327
300.393
300.561
300.257
300.362
300.681
300.572
300.21
300.343
300.727
300.77
300.508
300.196
300.279
300.713
300.885
300.744
300.411
300.164
300.27
300.699
300.935
300.929
300.675
300.378
300.151
300.246
300.647
300.954
301.05
300.895
300.567
300.333
300.141
300.232
300.606
300.945
301.141
301.061
300.815
300.515
300.312
300.138
300.24
300.565
300.906
301.164
301.189
301.008
300.695
300.47
300.289
300.125
300.226
300.518
300.853
301.15
301.274
301.165
300.927
300.648
300.441
300.27
300.122
300.205
300.459
300.799
301.126
301.33
301.301
301.099
300.836
300.582
300.416
300.26
300.12
300.207
300.435
300.74
301.07
301.337
301.389
301.262
301.006
300.766
300.562
300.393
300.243
300.116
300.198
300.42
300.716
301.047
301.337
301.467
301.398
301.183
300.919
300.708
300.535
300.377
300.238
300.111
300.192
300.423
300.69
300.981
301.281
301.487
301.505
301.342
301.106
300.857
300.667
300.512
300.365
300.234
300.11
300.172
300.389
300.645
300.95
301.239
301.531
301.576
301.465
301.278
301.026
300.795
300.641
300.483
300.354
300.229
300.108
300.18
300.384
300.641
300.878
301.217
301.519
301.638
301.6
301.39
301.14
300.951
300.75
300.618
300.477
300.348
300.218
300.102
300.163
300.385
300.605
300.866
301.181
301.482
301.682
301.684
301.564
301.299
301.067
300.883
300.727
300.593
300.461
300.339
300.219
300.098
300.171
300.382
300.592
300.868
301.142
301.453
301.674
301.755
301.687
301.489
301.241
301.018
300.858
300.719
300.587
300.459
300.338
300.218
300.104
300.161
300.37
300.592
300.82
301.117
301.421
301.669
301.79
301.776
301.64
301.395
301.186
300.985
300.83
300.703
300.572
300.449
300.329
300.215
300.103
300.164
300.36
300.575
300.813
301.065
301.376
301.654
301.807
301.839
301.747
301.558
301.312
301.113
300.963
300.815
300.69
300.551
300.44
300.326
300.213
300.103
300.158
300.355
300.519
300.745
301.046
301.337
301.63
301.818
301.901
301.838
301.692
301.447
301.241
301.073
300.931
300.8
300.673
300.555
300.432
300.325
300.207
300.103
300.159
300.347
300.549
300.73
300.996
301.299
301.61
301.824
301.939
301.919
301.799
301.558
301.387
301.206
301.053
300.918
300.787
300.665
300.551
300.435
300.321
300.21
300.1
300.155
300.343
300.52
300.726
300.964
301.27
301.588
301.823
301.965
301.992
301.897
301.713
301.506
301.32
301.173
301.031
300.902
300.77
300.657
300.54
300.433
300.321
300.213
300.103
300.157
300.344
300.541
300.744
300.965
301.292
301.59
301.816
301.983
302.048
301.989
301.834
301.62
301.439
301.285
301.14
301.014
300.892
300.772
300.653
300.546
300.435
300.326
300.215
300.101
300.155
300.343
300.529
300.738
300.98
301.269
301.542
301.816
301.991
302.084
302.077
301.959
301.759
301.572
301.389
301.257
301.121
300.994
300.881
300.768
300.651
300.543
300.437
300.326
300.218
300.101
300.148
300.327
300.551
300.771
301.001
301.25
301.501
301.816
302.002
302.122
302.139
302.058
301.893
301.683
301.514
301.359
301.232
301.108
300.979
300.877
300.757
300.653
300.545
300.438
300.328
300.217
300.105
300.14
300.349
300.563
300.774
301
301.254
301.519
301.814
302.016
302.147
302.192
302.14
302.002
301.809
301.623
301.473
301.34
301.214
301.088
300.976
300.873
300.761
300.654
300.55
300.443
300.335
300.224
300.109
300.151
300.355
300.56
300.76
301.002
301.282
301.511
301.802
302.04
302.172
302.237
302.212
302.093
301.933
301.743
301.575
301.44
301.319
301.199
301.084
300.974
300.864
300.761
300.654
300.554
300.447
300.34
300.227
300.11
300.16
300.327
300.549
300.782
301.029
301.288
301.507
301.802
302.043
302.198
302.277
302.276
302.194
302.036
301.86
301.695
301.535
301.422
301.307
301.19
301.081
300.978
300.872
300.767
300.657
300.561
300.454
300.343
300.232
300.115
300.165
300.331
300.592
300.831
301.075
301.311
301.526
301.818
302.053
302.223
302.317
302.333
302.271
302.13
301.96
301.802
301.655
301.524
301.408
301.293
301.181
301.08
300.975
300.875
300.769
300.672
300.568
300.463
300.353
300.239
300.119
300.17
300.354
300.6
300.78
301.093
301.322
301.569
301.823
302.07
302.247
302.352
302.386
302.34
302.23
302.067
301.895
301.762
301.622
301.503
301.395
301.282
301.183
301.079
300.984
300.884
300.78
300.676
300.58
300.474
300.363
300.247
300.121
300.174
300.352
300.518
300.857
301.155
301.364
301.608
301.856
302.089
302.274
302.39
302.434
302.411
302.315
302.173
302.012
301.86
301.724
301.6
301.492
301.381
301.283
301.183
301.086
300.988
300.893
300.796
300.695
300.594
300.485
300.373
300.256
300.127
300.176
300.353
300.657
300.945
301.168
301.435
301.645
301.892
302.117
302.306
302.423
302.481
302.47
302.394
302.257
302.107
301.953
301.822
301.702
301.587
301.481
301.383
301.282
301.187
301.095
300.998
300.906
300.808
300.71
300.61
300.502
300.385
300.258
300.062
300.135
300.162
300.384
300.679
300.913
301.239
301.476
301.706
301.927
302.15
302.332
302.463
302.525
302.525
302.468
302.352
302.195
302.043
301.917
301.797
301.684
301.581
301.48
301.381
301.287
301.196
301.106
301.01
300.915
300.822
300.726
300.627
300.513
300.344
300.402
300.207
300.332
300.28
300.063
300.136
300.192
300.468
300.617
300.985
301.304
301.53
301.756
301.975
302.187
302.368
302.5
302.569
302.583
302.534
302.43
302.297
302.152
302.01
301.889
301.775
301.667
301.575
301.479
301.377
301.282
301.203
301.114
301.026
300.935
300.843
300.745
300.638
300.474
300.541
300.406
300.212
300.356
300.289
300.065
300.139
300.194
300.504
300.768
301.029
301.355
301.591
301.81
302.022
302.223
302.402
302.536
302.616
302.633
302.596
302.501
302.382
302.239
302.093
301.98
301.86
301.758
301.667
301.57
301.483
301.383
301.297
301.217
301.132
301.045
300.957
300.865
300.761
300.602
300.667
300.48
300.546
300.422
300.22
300.362
300.295
300.068
300.148
300.194
300.532
300.791
301.092
301.453
301.638
301.86
302.064
302.267
302.438
302.581
302.658
302.684
302.659
302.59
302.464
302.33
302.195
302.07
301.958
301.853
301.757
301.667
301.567
301.48
301.394
301.313
301.235
301.153
301.069
300.982
300.883
300.731
300.795
300.61
300.677
300.496
300.561
300.432
300.225
300.375
300.305
300.069
300.154
300.198
300.572
300.868
301.186
301.468
301.717
301.909
302.111
302.319
302.484
302.621
302.706
302.733
302.709
302.654
302.537
302.413
302.281
302.158
302.045
301.952
301.837
301.748
301.66
301.573
301.488
301.41
301.333
301.257
301.177
301.095
301.002
300.858
300.921
300.744
300.81
300.631
300.7
300.505
300.577
300.446
300.237
300.384
300.317
300.07
300.16
300.201
300.611
300.83
301.231
301.503
301.754
301.962
302.162
302.365
302.528
302.666
302.749
302.784
302.775
302.718
302.619
302.488
302.366
302.245
302.141
302.035
301.928
301.835
301.75
301.665
301.58
301.503
301.431
301.356
301.282
301.203
301.116
300.983
301.044
300.875
300.939
300.768
300.835
300.649
300.72
300.521
300.597
300.463
300.245
300.399
300.332
300.073
300.165
300.251
300.657
300.905
301.303
301.547
301.79
302.011
302.213
302.408
302.569
302.703
302.796
302.834
302.823
302.777
302.695
302.575
302.446
302.325
302.219
302.112
302.014
301.923
301.838
301.755
301.67
301.592
301.523
301.457
301.383
301.309
301.226
301.104
301.163
301.003
301.066
300.901
300.967
300.79
300.859
300.672
300.745
300.541
300.619
300.481
300.257
300.417
300.347
300.08
300.172
300.294
300.649
301.021
301.356
301.623
301.833
302.056
302.26
302.45
302.613
302.755
302.839
302.879
302.883
302.838
302.752
302.65
302.52
302.405
302.291
302.189
302.097
302.009
301.924
301.843
301.76
301.682
301.611
301.547
301.485
301.41
301.334
301.221
301.277
301.128
301.188
301.033
301.097
300.928
300.996
300.817
300.888
300.696
300.772
300.562
300.644
300.502
300.268
300.437
300.364
300.084
300.182
300.274
300.683
301.062
301.371
301.664
301.887
302.093
302.303
302.492
302.659
302.799
302.884
302.93
302.931
302.894
302.826
302.721
302.595
302.487
302.368
302.27
302.179
302.092
302.008
301.928
301.849
301.769
301.699
301.635
301.575
301.517
301.439
301.334
301.393
301.248
301.308
301.161
301.223
301.063
301.13
300.959
301.03
300.847
300.922
300.725
300.804
300.588
300.673
300.527
300.283
300.46
300.385
300.087
300.193
300.296
300.736
301.077
301.382
301.659
301.92
302.131
302.337
302.524
302.705
302.84
302.926
302.977
302.977
302.951
302.882
302.79
302.676
302.549
302.446
302.347
302.258
302.172
302.09
302.012
301.935
301.859
301.785
301.725
301.673
301.629
301.566
301.456
301.541
301.371
301.446
301.287
301.36
301.198
301.269
301.101
301.173
300.996
301.071
300.883
300.961
300.758
300.842
300.616
300.706
300.555
300.3
300.487
300.409
300.092
300.206
300.281
300.673
301.096
301.37
301.698
301.941
302.161
302.363
302.562
302.743
302.882
302.972
303.023
303.034
303.001
302.94
302.854
302.743
302.617
302.516
302.423
302.333
302.25
302.17
302.093
302.019
301.944
301.877
301.822
301.813
301.881
302.067
301.734
301.564
301.554
301.773
301.457
301.632
301.359
301.506
301.258
301.38
301.151
301.253
301.042
301.131
300.925
301.011
300.796
300.886
300.65
300.745
300.588
300.32
300.518
300.436
300.098
300.22
300.318
300.764
301.164
301.406
301.743
301.942
302.2
302.39
302.597
302.778
302.921
303.014
303.067
303.08
303.056
303.012
302.913
302.807
302.694
302.583
302.491
302.407
302.325
302.247
302.172
302.1
302.03
301.966
301.966
302.125
302.623
303.704
306.105
302.344
304.822
302.041
303.057
301.827
302.611
301.63
302.223
301.436
301.85
301.258
301.522
301.112
301.277
300.979
301.092
300.842
300.943
300.69
300.793
300.628
300.343
300.555
300.469
300.105
300.237
300.293
300.749
301.136
301.444
301.744
301.957
302.223
302.414
302.619
302.807
302.959
303.057
303.11
303.129
303.115
303.064
302.988
302.872
302.76
302.659
302.56
302.476
302.399
302.322
302.249
302.178
302.114
302.074
302.218
302.964
304.642
307.535
312.075
312.732
318.263
305.092
309.092
304.389
307.924
303.679
306.705
302.956
305.4
302.227
304.025
301.652
302.726
301.297
301.834
301.072
301.31
300.902
301.041
300.739
300.855
300.675
300.37
300.598
300.507
300.112
300.255
300.313
300.8
301.133
301.45
301.733
301.967
302.224
302.43
302.634
302.832
302.993
303.095
303.157
303.175
303.163
303.111
303.042
302.942
302.831
302.724
302.635
302.545
302.468
302.395
302.325
302.256
302.194
302.192
302.683
304.872
309.139
314.345
320.99
323.275
327.075
322.627
329.104
312.336
317.505
311.346
316.848
309.92
315.666
307.901
313.978
305.449
311.044
303.35
307.109
302.021
304.095
301.326
302.147
301
301.305
300.8
300.951
300.734
300.401
300.653
300.556
300.118
300.274
300.396
300.83
301.145
301.464
301.729
301.952
302.204
302.439
302.649
302.856
303.017
303.129
303.199
303.223
303.212
303.168
303.101
303.012
302.898
302.797
302.702
302.618
302.538
302.468
302.402
302.339
302.283
302.338
303.336
307.379
314.813
323.492
332.925
344.881
333.74
343.245
335.509
342.274
322.709
329.041
322.219
329.362
320.887
328.808
318.539
327.296
314.488
323.867
309.003
318.129
304.815
310.879
302.265
305.237
301.252
302.254
300.89
301.171
300.815
300.44
300.728
300.628
300.128
300.304
300.47
300.836
301.135
301.459
301.727
301.941
302.213
302.449
302.656
302.869
303.044
303.167
303.235
303.267
303.256
303.218
303.152
303.077
302.972
302.856
302.767
302.685
302.612
302.544
302.487
302.449
302.428
302.573
304.159
310.102
320.422
331.909
342.426
351.278
355.289
355.549
348.922
353.167
351.041
354.863
336.697
344.085
337.315
345.926
336.565
346.787
334.408
345.922
329.602
342.481
321.945
335.541
312.665
325.596
305.576
313.574
302.119
305.5
301.062
301.856
300.948
300.51
300.851
300.761
300.145
300.39
300.921
301.212
301.497
301.723
301.944
302.209
302.439
302.656
302.877
303.063
303.197
303.277
303.309
303.309
303.267
303.204
303.132
303.047
302.953
302.842
302.757
302.684
302.634
302.62
302.676
302.788
303.124
305.242
312.526
325.329
337.759
345.596
350.859
355.413
354.805
357.271
356.503
357.137
357.429
359.161
359.275
353.317
357.125
355.377
359.615
356.608
361.843
356.053
363.404
351.565
363.472
341.749
360.472
329.137
348.084
314.295
331.423
305.011
314.002
301.493
304.023
301.212
300.683
301.067
300.955
300.443
300.723
301.302
301.51
301.726
301.94
302.187
302.426
302.651
302.884
303.079
303.217
303.311
303.345
303.344
303.317
303.258
303.182
303.097
303.007
302.924
302.837
302.775
302.771
302.925
303.322
303.785
304.402
306.966
314.793
328.711
339.593
345.095
348.85
348.214
354.636
349.457
355.889
352.09
358.996
358.021
360.877
359.524
361.494
361.415
364.051
363.91
366.723
366.648
369.077
369.656
369.412
372.771
366.664
374.672
353.673
371.628
333.181
357.138
312.745
332.218
302.634
310.035
301.742
300.845
301.148
301.36
301.16
301.01
301.12
300.122
300.415
300.297
301.568
301.732
301.934
302.159
302.403
302.635
302.88
303.089
303.242
303.342
303.382
303.387
303.363
303.311
303.236
303.146
303.058
302.975
302.896
302.868
303.019
303.692
304.987
306.208
307.015
309.317
317.026
330.736
339.172
343.355
344.082
337.492
334.273
326.063
346.915
340.518
347.041
341.076
356.725
352.414
357.394
352.182
363.119
361.22
365.818
363.512
369.051
366.781
372.501
370.867
375.605
374.836
378.674
378.643
375.988
382.33
359.861
369.191
379.197
318.695
331.598
360.654
343.345
303.099
306.18
327.279
313.082
327.134
304.54
303.621
301.86
300.524
300.68
300.903
301.545
301.366
301.082
300.247
300.059
300.166
300.382
301.755
301.928
302.131
302.379
302.616
302.874
303.094
303.259
303.369
303.422
303.428
303.409
303.362
303.292
303.204
303.114
303.015
302.952
302.944
303.321
304.824
307.358
309.261
310.196
312.389
319.565
331.599
338.101
340.087
335.581
323.59
320.1
313.87
321.11
314.707
334.563
327.815
334.087
328.059
346.211
340.134
344.929
338.16
358.697
352.066
361.602
353.412
366.444
357.482
371.804
364.662
377.024
372.208
381.858
378.98
382.791
384.838
385.05
384.373
370.496
381.45
378.394
384.049
343.005
371.542
359.049
310.743
342.617
323.425
339.099
308.554
306.258
302.701
300.527
300.686
300.851
302.09
301.532
301.157
300.29
300.069
300.19
300.427
301.928
302.109
302.357
302.595
302.861
303.093
303.273
303.391
303.453
303.469
303.453
303.41
303.345
303.263
303.166
303.086
302.991
302.994
303.566
305.956
309.82
312.585
313.874
315.925
322.503
332.141
336.787
336.933
328.025
314.574
306.331
309.822
306.006
310.331
306.549
321.884
315.656
321.278
315.697
332.092
326.654
329.626
324.001
344.499
336.341
346.853
336.68
353.145
341.318
362.17
350.173
371.844
360.868
382.695
379.272
375.862
370.749
385.981
385.985
385.331
383.427
381.053
386.017
385.293
386.939
358.358
381.073
371.445
319.53
355.76
335.51
353.085
315.032
311.168
304.472
300.577
300.917
300.767
303.064
302.12
301.505
300.321
300.075
300.209
300.467
302.088
302.326
302.571
302.84
303.088
303.282
303.414
303.485
303.508
303.497
303.457
303.398
303.319
303.228
303.139
303.059
303.03
303.7
306.859
312.096
315.945
317.792
320.034
326.011
332.585
335.634
334.117
323.183
310.806
304.662
302.709
302.492
304.31
303.06
304.472
303.153
310.693
306.925
310.481
307.101
319.197
314.561
316.856
312.998
328.246
321.769
331.041
323.122
339.072
329.573
350.324
340.387
367.081
361.431
357.637
351.959
380.104
376.219
371.949
367.57
386.929
386.225
384.245
381.034
386.373
387.802
388.487
387.803
370.053
386.517
380.31
330.953
368.595
349.292
365.991
325.532
319.441
307.824
300.638
301.131
300.891
305.269
303.444
302.255
300.352
300.081
300.228
300.513
302.294
302.537
302.816
303.073
303.285
303.432
303.514
303.545
303.537
303.504
303.447
303.375
303.288
303.193
303.124
303.086
303.721
307.365
314.009
319.056
321.679
324.418
328.889
332.789
334.588
331.817
320.397
309.414
304.116
302.315
302.196
302.14
302.554
302.289
302.618
302.307
304.695
303.302
304.932
303.529
309.803
307.056
309.436
307.008
317.094
312.662
321.743
315.707
331.205
323.363
348.221
342.815
335.188
363
358.503
353.955
349.474
377.315
373.297
369.119
364.846
387.12
385.184
382.121
378.642
389.05
388.593
389.332
387.992
379.666
389.47
386.331
344.584
378.21
362.643
376.19
338.717
331.763
313.877
300.717
301.529
301.101
309.412
306.001
303.695
300.385
300.084
300.243
300.568
302.5
302.778
303.053
303.286
303.447
303.541
303.579
303.579
303.546
303.497
303.427
303.346
303.257
303.169
303.133
303.688
307.442
315.28
321.888
325.328
327.912
330.628
332.687
333.532
329.591
318.794
308.735
303.908
302.339
302.055
302.059
302.067
302.044
302.165
302.095
302.188
302.078
302.752
302.375
302.983
302.506
305.17
303.84
305.81
304.337
311.237
308.01
317.073
312.297
327.209
320.508
345.087
340.718
331.008
335.56
360.55
356.262
351.978
347.695
374.884
370.979
367.037
363.056
386.206
383.375
380.131
376.71
390.054
388.845
389.697
387.292
385.749
390.696
389.496
358.338
384.81
373.558
383.376
352.65
345.736
323.911
300.837
302.285
301.486
316.295
310.486
306.301
300.419
300.085
300.257
300.645
302.733
303.021
303.28
303.456
303.563
303.613
303.615
303.592
303.541
303.48
303.402
303.319
303.231
303.174
303.586
307.3
315.724
323.95
327.82
329.728
331.181
332.333
332.107
327.076
316.852
308.069
303.706
302.335
302.049
301.971
301.986
301.97
301.968
302.014
301.981
302.004
301.931
302.251
302.105
302.387
302.174
303.365
302.751
304.315
303.276
308.69
306.047
315.126
310.934
327.724
323.791
317.881
321.078
343.475
339.355
330.604
334.488
359.023
354.95
350.821
346.648
373.219
369.626
365.928
362.127
384.713
381.804
378.784
375.652
390.494
388.398
389.49
386.14
389.412
391.153
391.115
369.929
388.976
381.409
388.032
365.134
359.065
337.362
301.048
303.678
302.178
327.369
317.69
310.722
300.468
300.09
300.289
300.784
302.985
303.261
303.46
303.584
303.64
303.655
303.629
303.591
303.525
303.457
303.377
303.305
303.243
303.549
306.838
315.661
324.947
329.054
330.442
331.117
331.413
329.524
323.542
313.951
306.977
303.39
302.311
302.063
301.925
301.941
301.896
301.903
301.892
301.892
301.896
301.89
301.881
301.849
302.039
301.943
302.125
301.991
302.679
302.333
303.666
302.811
307.678
305.246
314.391
310.42
327.014
323.64
317.905
320.625
342.509
338.441
330.331
334.118
358.236
354.276
350.242
346.154
372.397
369.025
365.472
361.763
383.612
380.938
378.161
375.224
390.484
387.568
388.936
385.4
391.324
391.293
391.726
378.684
391.303
386.736
390.875
375.06
370.098
351.162
301.413
306.022
303.304
341.053
328.922
317.467
300.58
300.114
300.401
301.025
303.236
303.458
303.601
303.67
303.685
303.675
303.628
303.579
303.505
303.442
303.394
303.371
303.607
306.417
315.198
325.112
329.502
330.495
330.601
329.365
325.456
318.623
310.876
305.631
303.001
302.28
302.078
301.943
301.875
301.863
301.861
301.865
301.839
301.846
301.839
301.837
301.801
301.778
301.906
301.846
301.975
301.873
302.375
302.129
303.405
302.614
307.287
304.941
315.518
312.948
311.327
309.279
326.772
323.467
317.804
320.475
342.074
338.053
330.35
334.066
357.941
354.03
350.035
345.989
372.11
368.863
365.482
361.961
383.086
380.587
377.976
375.293
390.134
387.092
388.622
385.072
392.136
391.141
391.96
384.875
392.37
390.114
392.323
382.235
378.442
363.304
301.929
309.697
304.94
353.939
342.009
327.484
300.801
300.376
300.654
301.293
303.448
303.61
303.694
303.724
303.704
303.678
303.615
303.564
303.522
303.541
303.629
303.872
306.261
314.265
324.924
329.475
330.342
329.235
325.711
320.088
313.357
307.968
304.375
302.707
302.257
302.098
301.97
301.811
301.805
301.827
301.794
301.797
301.78
301.792
301.772
301.773
301.71
301.7
301.807
301.752
301.869
301.774
302.225
302.012
303.309
302.519
307.209
304.853
315.534
313.403
311.464
309.787
326.852
323.606
317.962
320.645
341.95
337.954
331.016
334.702
358.273
354.449
350.513
346.506
372.519
369.558
366.376
362.971
382.921
380.748
378.568
376.261
389.922
386.896
388.532
385.139
392.474
390.993
391.937
388.927
392.794
391.981
392.926
387.141
384.369
372.838
302.567
314.975
307.373
365.042
354.159
339.466
300.897
300.104
300.353
301.376
303.612
303.72
303.749
303.752
303.706
303.67
303.62
303.667
303.874
304.212
304.624
306.396
313.362
324.218
329.282
329.91
327.29
321.794
315.003
309.39
305.677
303.436
302.526
302.257
302.115
301.994
301.842
301.742
301.769
301.766
301.773
301.741
301.752
301.722
301.73
301.701
301.708
301.645
301.637
301.715
301.676
301.795
301.701
302.139
301.94
303.437
302.493
308.621
306.887
304.519
305.835
316.134
313.897
311.906
310.132
327.546
324.31
318.614
321.335
342.506
338.557
332.476
336.157
359.371
355.624
351.761
347.825
373.746
370.992
367.992
364.754
383.448
381.725
379.897
377.895
389.907
387.181
388.907
385.906
392.514
390.99
391.797
391.353
392.894
392.833
393.077
390.275
388.431
380.154
303.23
322.396
310.729
373.744
364.247
350.926
300.664
300.1
300.304
301.317
303.733
303.786
303.779
303.76
303.707
303.731
303.996
304.677
305.415
305.844
307.047
312.84
323.043
328.836
329.407
325.605
318.74
311.435
306.912
304.265
302.929
302.442
302.261
302.144
302.02
301.876
301.771
301.727
301.712
301.714
301.708
301.689
301.701
301.67
301.68
301.641
301.658
301.582
301.581
301.64
301.614
301.735
301.645
302.069
301.834
304.928
304.26
303.262
302.773
302.333
308.955
307.448
306.067
317.153
314.78
312.639
310.698
328.979
325.686
319.767
322.615
343.886
339.984
334.906
338.632
361.313
357.717
353.989
350.169
375.662
373.184
370.457
367.487
384.628
383.289
381.826
380.183
390.272
388.005
389.677
387.146
392.379
391.241
391.757
392.523
392.738
393.084
392.898
391.932
390.825
385.271
304.029
332.533
315.26
380.267
372.426
360.009
300.604
300.109
300.328
301.503
303.812
303.816
303.791
303.78
303.936
304.713
306.022
306.917
307.266
308.175
312.793
321.987
328.228
328.965
324.56
316.945
309.806
305.667
303.58
302.716
302.423
302.275
302.166
302.057
301.918
301.811
301.703
301.731
301.687
301.659
301.688
301.674
301.643
301.656
301.617
301.629
301.589
301.603
301.528
301.531
301.584
301.545
301.634
301.586
302.059
301.794
305.28
304.524
303.596
302.872
302.433
309.724
308.03
306.554
318.668
316.077
313.737
311.619
331.306
327.86
321.511
324.589
346.312
342.454
338.411
342.253
364.298
360.927
357.389
353.716
378.322
376.229
373.891
371.301
386.271
385.342
384.303
383.112
390.876
389.165
390.621
388.691
392.212
391.543
391.78
392.914
392.434
392.934
392.503
392.587
391.926
388.723
306.076
342.574
322.408
384.982
378.48
367.849
300.684
300.108
300.34
302.166
303.857
303.825
303.867
304.271
305.737
307.513
308.556
308.889
309.566
313.091
321.339
327.569
328.57
324.066
316.412
309.57
305.316
303.342
302.657
302.428
302.307
302.2
302.087
301.966
301.859
301.75
301.678
301.691
301.646
301.633
301.647
301.626
301.596
301.612
301.57
301.583
301.542
301.558
301.471
301.483
301.535
301.477
301.588
301.496
302.211
301.966
301.783
305.742
305.021
303.897
303.072
302.526
310.716
308.843
307.191
320.736
317.815
315.181
312.814
334.617
330.915
323.922
327.339
349.946
346.117
343.065
347.093
368.458
365.38
362.079
358.567
381.737
380.149
378.327
376.235
388.218
387.731
387.165
386.508
391.442
390.431
391.385
390.281
392.086
391.521
391.703
392.805
392.131
392.495
391.889
392.633
392.135
390.601
309.756
352.273
333.072
388.058
383.204
373.931
300.816
300.11
300.355
303.354
303.887
303.943
304.764
306.786
309.012
310.268
310.677
311.226
314.065
321.246
326.971
328.163
323.948
316.532
309.828
305.403
303.327
302.66
302.452
302.341
302.236
302.132
302.009
301.905
301.804
301.691
301.638
301.669
301.608
301.592
301.618
301.591
301.554
301.57
301.522
301.537
301.495
301.508
301.423
301.43
301.445
301.429
301.564
301.461
302.25
302.023
301.873
301.694
306.404
305.632
304.344
303.344
302.66
311.944
309.854
308.021
323.396
320.02
316.992
314.292
338.991
334.922
327.047
330.924
354.88
351.054
348.949
353.228
373.842
371.133
368.107
364.77
385.711
384.731
383.539
382.087
390.15
390.095
389.943
389.789
391.411
391.365
391.328
391.366
391.619
390.929
391.261
392.238
391.244
391.506
390.567
391.997
391.618
391.228
315.583
360.942
345.095
389.484
386.165
378.884
301.044
300.112
300.363
305.497
304.109
305.11
307.85
310.465
311.984
312.576
313.175
315.468
321.415
326.487
327.712
323.959
316.99
310.624
305.872
303.399
302.692
302.49
302.378
302.277
302.174
302.067
301.952
301.854
301.751
301.641
301.633
301.675
301.616
301.573
301.564
301.585
301.551
301.512
301.532
301.478
301.495
301.447
301.463
301.367
301.381
301.415
301.397
301.603
301.726
301.494
301.417
302.348
302.065
301.896
307.189
306.349
304.885
303.711
302.868
313.404
311.041
308.995
326.738
322.771
319.226
316.08
344.525
339.982
330.981
335.45
361.167
357.328
356.25
360.821
380.304
378.118
375.477
372.368
389.545
389.207
388.729
388.069
391.377
391.399
391.404
391.425
390.545
391.288
390.037
391.281
390.476
388.214
389.624
390.951
389.266
389.544
387.449
390.576
389.997
390.845
324.483
369.664
357.476
389.58
387.355
382.477
301.417
300.094
300.339
308.855
305.727
308.673
311.818
313.663
314.512
315.254
317.43
322.145
326.127
327.22
323.892
317.601
311.552
306.483
303.563
302.732
302.534
302.418
302.319
302.223
302.115
302.013
301.911
301.806
301.714
301.613
301.623
301.645
301.582
301.538
301.53
301.557
301.517
301.474
301.494
301.435
301.453
301.4
301.417
301.319
301.338
301.366
301.321
301.751
301.603
301.501
301.424
301.353
302.473
302.124
301.949
308.096
307.187
305.532
304.164
303.139
315.138
312.425
310.118
330.954
326.213
321.994
318.246
351.426
346.313
335.946
341.157
368.872
365.067
365.261
370.126
387.15
385.816
383.898
381.243
391.429
391.427
391.402
391.344
391.298
391.35
391.435
391.597
385.986
389.543
383.523
388.867
387.347
381.484
384.486
388.558
383.586
385.528
381.454
387.129
386.593
389.569
335.219
377.552
365.921
388.821
386.986
383.782
301.869
300.083
300.426
313.809
309.68
312.909
315.246
316.404
317.347
319.488
323.121
325.754
326.631
323.66
317.903
312.184
306.94
303.719
302.785
302.571
302.465
302.363
302.267
302.173
302.062
301.972
301.871
301.77
301.67
301.584
301.594
301.632
301.56
301.508
301.503
301.528
301.483
301.437
301.46
301.395
301.416
301.357
301.376
301.287
301.3
301.308
301.296
301.784
301.626
301.504
301.419
301.351
302.659
302.216
302.013
309.15
308.19
306.306
304.726
303.504
317.253
314.073
311.433
336.37
330.639
325.545
320.961
360.032
354.261
342.262
348.365
377.923
374.373
376.124
381.05
391.199
390.963
390.425
389.436
391.73
391.84
392
392.181
387.776
386.177
386.559
386.746
381.527
383.724
362.777
382.773
379.749
361.832
379.8
381.815
377.697
376.616
376.264
380.673
380.105
386.59
346.195
380.879
371.996
386.577
384.046
383.912
303.196
301.118
302.909
323.669
314.174
316.518
318.118
319.371
321.296
323.676
325.404
325.903
323.094
317.89
312.404
307.112
303.816
302.821
302.617
302.505
302.415
302.317
302.221
302.128
302.026
301.932
301.838
301.731
301.637
301.606
301.564
301.581
301.532
301.475
301.475
301.504
301.451
301.402
301.426
301.357
301.379
301.316
301.336
301.242
301.244
301.278
301.251
301.84
301.658
301.507
301.419
301.339
302.917
302.338
302.107
310.431
309.442
307.27
305.439
303.99
319.978
316.154
313.053
343.351
336.394
330.241
324.535
370.647
364.228
350.293
357.453
387.553
384.626
387.733
390.403
392.272
392.45
392.514
392.613
387.432
388.397
388.994
390.262
382.956
364.762
366.377
367.222
363.601
364.297
345.778
364.428
360.689
344.936
362.737
375.11
360.251
359.205
361.725
373.698
372.853
380.296
360.418
382.151
377.714
379.037
383.037
383.226
311.066
300.152
302.399
342.672
318.025
319.558
320.842
322.319
323.638
324.873
324.827
322.017
317.476
312.269
307.005
303.817
302.849
302.654
302.557
302.458
302.373
302.278
302.178
302.095
301.995
301.899
301.805
301.703
301.593
301.591
301.573
301.635
301.542
301.555
301.512
301.45
301.45
301.479
301.421
301.369
301.396
301.321
301.345
301.275
301.298
301.195
301.206
301.334
301.273
301.234
301.211
301.916
301.715
301.523
301.424
303.298
302.523
302.241
312.048
311.061
308.521
306.375
304.659
323.597
318.868
315.121
352.384
343.882
336.44
329.311
382.904
376.451
360.577
368.943
392.653
391.687
393.334
393.932
390.728
391.836
392.078
392.748
367.626
369.362
369.473
370.32
366.441
347.478
348.022
348.789
345.249
346.17
326.402
346.536
344.063
325.898
344.558
358.608
343.552
342.969
343.559
358.063
357.533
373.911
369.96
381.396
380.184
379.408
379.593
378.908
318.486
300.105
303.1
357.38
320.646
321.623
322.39
323.376
323.982
323.2
320.35
316.218
311.511
306.526
303.699
302.869
302.694
302.598
302.517
302.42
302.337
302.245
302.146
302.066
301.971
301.871
301.779
301.678
301.555
301.584
301.543
301.618
301.521
301.488
301.421
301.426
301.458
301.393
301.338
301.365
301.287
301.312
301.237
301.262
301.173
301.179
301.333
301.263
301.227
301.171
302.03
301.803
301.553
301.445
303.865
302.806
302.448
314.157
313.171
310.158
307.607
305.583
328.418
322.487
317.851
364.093
353.689
344.59
335.73
392.072
388.636
373.517
382.61
393.852
393.834
394.594
394.454
371.003
371.853
373.607
389.159
349.32
350.107
350.785
351.586
347.154
327.508
327.801
328.245
326.043
326.617
308.574
326.857
325.407
308.406
325.612
342.541
325.116
324.738
325.027
342.094
357.52
341.685
375.952
381.329
380.288
372.151
356.656
374.315
379.678
333.368
300.135
308.306
368.89
321.737
322.304
322.653
322.455
320.976
318.087
314.334
309.957
305.787
303.499
302.88
302.728
302.646
302.56
302.485
302.39
302.308
302.222
302.124
302.042
301.953
301.85
301.757
301.657
301.521
301.543
301.567
301.505
301.602
301.472
301.397
301.404
301.436
301.366
301.309
301.338
301.255
301.282
301.201
301.228
301.129
301.144
301.338
301.261
301.209
301.202
301.163
301.142
302.198
301.937
301.606
301.474
304.696
303.252
302.773
316.908
315.868
312.256
309.196
306.829
334.922
327.294
321.426
378.709
366.725
355.396
344.424
395.168
394.176
387.643
392.543
393.914
393.434
393.229
376.005
352.265
353.087
375.629
353.899
328.569
329.034
329.488
329.974
327.184
308.947
309.091
309.199