/*--------------------------------*- C++ -*----------------------------------*\
  =========                 |
  \\      /  F ield         | OpenFOAM: The Open Source CFD Toolbox
   \\    /   O peration     | Website:  https://openfoam.org
    \\  /    A nd           | Version:  dev
     \\/     M anipulation  |
\*---------------------------------------------------------------------------*/
FoamFile
{
    version     2.0;
    format      ascii;
    class       volVectorField;
    location    "2500";
    object      U;
}
// * * * * * * * * * * * * * * * * * * * * * * * * * * * * * * * * * * * * * //

dimensions      [0 1 -1 0 0 0 0];

internalField   nonuniform List<vector> 
9714
(
(0.00772844 0.0120314 -4.6015e-27)
(0.017648 0.0105974 -1.13504e-27)
(0.00750081 0.0307331 -2.11238e-26)
(0.0241127 0.0085788 -1.22691e-27)
(0.0200316 0.0315155 -2.66901e-27)
(0.00605514 0.0434822 -1.32394e-26)
(0.0296055 0.00713981 5.89527e-28)
(0.0277037 0.030757 3.26819e-27)
(0.018742 0.045481 3.56458e-27)
(0.00505897 0.054206 0)
(0.0337901 0.0058743 -2.22339e-27)
(0.0326268 0.0272167 6.59079e-27)
(0.0289243 0.0473368 0)
(0.0160205 0.0558853 1.57205e-26)
(0.00448881 0.0638424 4.04106e-28)
(0.0374473 0.00484489 -2.15536e-27)
(0.0362185 0.0228265 -3.70203e-27)
(0.0362906 0.0469494 6.19352e-28)
(0.027051 0.0588749 2.9271e-27)
(0.0138001 0.0650434 1.51878e-27)
(0.00402655 0.0724706 7.12453e-27)
(0.0409558 0.00408126 5.25276e-28)
(0.0394222 0.018727 -3.712e-27)
(0.0411967 0.0443177 -2.79634e-28)
(0.0364509 0.0613386 4.8972e-27)
(0.023659 0.067603 -3.58886e-27)
(0.0123233 0.0734459 -3.81929e-27)
(0.00364716 0.0803684 6.65032e-27)
(0.0443337 0.00355045 -1.66518e-32)
(0.0424879 0.0155323 -4.52799e-29)
(0.0443258 0.0401723 0)
(0.0436248 0.0619734 -3.48444e-28)
(0.0336365 0.071135 -2.12626e-28)
(0.0208323 0.075439 -1.08834e-27)
(0.0111213 0.0811555 1.75577e-27)
(0.00332514 0.0876119 0)
(0.0475584 0.0032254 -4.94851e-28)
(0.0453887 0.0133731 0)
(0.0463741 0.0352797 1.11911e-27)
(0.0486374 0.0603762 0)
(0.042578 0.0743251 3.97146e-28)
(0.0297723 0.0785495 -1.78335e-27)
(0.0187344 0.0827493 9.5312e-28)
(0.0101021 0.0883201 0)
(0.00303037 0.094273 0)
(0.0505501 0.00298401 2.03346e-27)
(0.0483167 0.0121284 -1.81414e-29)
(0.0482702 0.0303066 1.11727e-27)
(0.0517673 0.0568535 0)
(0.0497497 0.0760006 0)
(0.0389297 0.0824726 4.38398e-28)
(0.0265666 0.0852296 2.36611e-28)
(0.0169697 0.0897223 -9.58578e-28)
(0.00919488 0.0949129 0)
(0.00276589 0.100363 -3.32959e-27)
(0.0534339 0.00276408 2.02729e-27)
(0.0512418 0.0111686 -1.32647e-29)
(0.050501 0.0260518 0)
(0.0536868 0.0521176 0)
(0.0550034 0.0756243 1.34886e-27)
(0.0475014 0.0863752 4.13837e-28)
(0.0347245 0.0887267 0)
(0.0239656 0.0918228 2.35632e-27)
(0.0154475 0.0961209 -3.35689e-27)
(0.00837991 0.100951 0)
(0.00251972 0.105981 -3.19606e-27)
(0.0562841 0.00256796 -4.59148e-28)
(0.0540743 0.0102609 1.15467e-29)
(0.052869 0.0229722 -1.5311e-28)
(0.0549362 0.0467808 4.70423e-27)
(0.0584873 0.0732505 3.22694e-31)
(0.0547452 0.0891837 -1.56421e-27)
(0.0431193 0.093067 4.43042e-28)
(0.0311573 0.0947197 2.33853e-28)
(0.0217654 0.0979176 -2.07833e-27)
(0.0140917 0.102074 0)
(0.00763869 0.106534 1.48679e-27)
(0.0022924 0.111153 3.68314e-28)
(0.0590238 0.00240672 -7.98424e-29)
(0.0568038 0.00947731 1.90661e-28)
(0.0553811 0.0210401 -3.59755e-29)
(0.0561929 0.0415538 1.03214e-26)
(0.0605746 0.0692972 -2.6734e-27)
(0.0602778 0.0902477 -1.4618e-27)
(0.0512765 0.0976519 -4.39313e-28)
(0.0386113 0.0984752 -2.91076e-27)
(0.028204 0.100416 2.33279e-28)
(0.0198253 0.103733 0)
(0.0128338 0.107561 2.45868e-27)
(0.00695853 0.111663 1.40825e-27)
(0.00208336 0.115906 0)
(0.0615966 0.00227361 -9.8406e-28)
(0.0594422 0.00885978 -3.11334e-27)
(0.0578737 0.0196779 0)
(0.0578221 0.037046 5.06501e-27)
(0.0617751 0.0645034 2.79947e-28)
(0.0641498 0.089332 -8.60251e-28)
(0.0584908 0.101593 3.99713e-31)
(0.0462938 0.103131 1.14343e-27)
(0.0347697 0.103679 1.69713e-35)
(0.0256107 0.105938 4.55329e-28)
(0.0180524 0.109078 1.73307e-27)
(0.0116765 0.112616 -1.16021e-27)
(0.00632019 0.116395 8.22574e-28)
(0.00188396 0.120257 0)
(0.0640538 0.00216122 0)
(0.0619627 0.00837074 -3.2631e-33)
(0.0603177 0.0186412 0)
(0.059692 0.0335814 0)
(0.0625245 0.0591791 -2.98363e-27)
(0.0666224 0.0867008 0)
(0.0643349 0.104129 -6.30625e-27)
(0.0539235 0.108235 1.3196e-27)
(0.0415154 0.107813 2.82396e-27)
(0.031447 0.108787 -1.52852e-35)
(0.0232798 0.111096 2.69651e-27)
(0.0164172 0.114029 -1.62816e-27)
(0.0106073 0.117285 -2.19588e-27)
(0.00571544 0.120726 7.72629e-28)
(0.00169247 0.124248 -9.50572e-29)
(0.0664236 0.00206216 1.00592e-28)
(0.0643696 0.00797311 3.13871e-27)
(0.0627463 0.0176891 7.91777e-28)
(0.0617817 0.0310087 8.9731e-28)
(0.0633403 0.0539799 -2.77507e-27)
(0.0680793 0.082788 0)
(0.0686346 0.104865 -5.97348e-27)
(0.061041 0.113154 -1.60174e-27)
(0.0485013 0.112761 4.36635e-31)
(0.0374089 0.112338 -1.8323e-31)
(0.0285185 0.113648 -3.48133e-32)
(0.0211595 0.115887 -2.09662e-27)
(0.014899 0.118594 1.52955e-27)
(0.00959681 0.121583 -3.12591e-27)
(0.00514128 0.124704 2.8917e-27)
(0.00151175 0.127874 3.5389e-29)
(0.0686357 0.00196906 -4.70936e-28)
(0.0666987 0.00765496 1.31944e-27)
(0.0650931 0.0167246 1.43572e-27)
(0.0639578 0.029187 -3.40081e-27)
(0.0645936 0.0492921 7.67834e-28)
(0.0688941 0.0781636 1.45071e-28)
(0.071576 0.103844 7.06456e-27)
(0.0671016 0.117039 7.58778e-28)
(0.0555962 0.118315 -4.76335e-27)
(0.0435687 0.116611 0)
(0.0338644 0.116778 -1.75204e-27)
(0.0259071 0.118196 -3.43366e-27)
(0.0192013 0.12032 0)
(0.0134823 0.122836 3.05838e-27)
(0.00863739 0.125523 0)
(0.00459618 0.128308 1.4704e-27)
(0.0013394 0.131163 9.66568e-28)
(0.0707062 0.00187388 -1.65387e-28)
(0.0689329 0.00735946 -6.3174e-33)
(0.0673019 0.0157783 4.00862e-27)
(0.0661939 0.02781 -3.57402e-27)
(0.0661532 0.0454618 -3.49112e-27)
(0.0694272 0.0732738 -1.61207e-27)
(0.0734403 0.101325 7.18753e-27)
(0.0718084 0.119488 -7.10379e-27)
(0.0624405 0.123917 0)
(0.049912 0.121704 -1.70118e-27)
(0.0393256 0.120546 -9.91956e-28)
(0.0306971 0.121034 7.74392e-28)
(0.023517 0.122472 -1.64362e-27)
(0.0173647 0.124457 7.85654e-28)
(0.0121353 0.12672 1.47527e-27)
(0.00772249 0.1291 -4.34744e-27)
(0.00407117 0.131594 3.29471e-28)
(0.00117294 0.134127 2.33831e-28)
(0.0726597 0.00178742 -6.61944e-28)
(0.0710198 0.00701568 -3.88543e-27)
(0.0694727 0.014942 4.53206e-27)
(0.0683459 0.0266586 -3.71407e-27)
(0.0678498 0.0425157 4.2367e-30)
(0.0699936 0.0684544 3.93501e-27)
(0.0744818 0.0978209 -6.10739e-28)
(0.075208 0.120308 -1.50998e-26)
(0.0684782 0.12903 0)
(0.0563591 0.12753 5.75393e-27)
(0.0448597 0.125046 -1.15575e-27)
(0.0355398 0.124427 4.20198e-31)
(0.0278161 0.125103 7.33564e-28)
(0.0212568 0.126493 -3.9015e-27)
(0.0156194 0.128278 7.40663e-28)
(0.0108453 0.130254 2.88069e-27)
(0.00683871 0.132359 -9.97126e-27)
(0.00356101 0.134547 0)
(0.00101 0.136809 9.19963e-28)
(0.0744989 0.00170666 8.39646e-28)
(0.0729475 0.00668745 -4.31085e-27)
(0.0715046 0.014317 1.99235e-27)
(0.070426 0.0255185 -2.15437e-27)
(0.0697591 0.0403421 8.06483e-27)
(0.0708934 0.0639603 -3.58062e-27)
(0.0750689 0.0937489 0)
(0.077464 0.119669 -7.86425e-27)
(0.0734476 0.133074 -7.47319e-27)
(0.0626821 0.133757 6.47894e-27)
(0.0504655 0.130284 0)
(0.0404254 0.128466 -1.06292e-27)
(0.0321194 0.128204 8.57368e-28)
(0.025121 0.128991 3.79901e-27)
(0.0190992 0.130225 0)
(0.0139456 0.131746 8.33923e-32)
(0.00960908 0.133462 2.5157e-27)
(0.00598922 0.135283 -5.60594e-27)
(0.00306781 0.137228 4.09823e-31)
(0.00084788 0.139168 1.03019e-27)
(0.0761895 0.00161887 -4.40601e-28)
(0.074799 0.00638585 4.74717e-28)
(0.0733914 0.0138357 1.98012e-27)
(0.0723577 0.0243486 8.58514e-27)
(0.0717344 0.0386395 8.09477e-27)
(0.0722297 0.0599537 0)
(0.0755613 0.0895503 4.50638e-27)
(0.0788752 0.117735 -1.63052e-26)
(0.0772473 0.135845 6.71941e-27)
(0.0684978 0.139839 -7.88148e-27)
(0.0562126 0.136321 7.74671e-28)
(0.0452924 0.133088 0)
(0.0364322 0.131851 0)
(0.0289776 0.1319 3.82221e-31)
(0.022566 0.13258 3.62264e-27)
(0.0170556 0.133608 -2.20924e-27)
(0.0123524 0.134877 -1.75475e-27)
(0.00842027 0.136354 2.29908e-27)
(0.00516609 0.137945 -3.44037e-27)
(0.00258501 0.139587 3.50857e-27)
(0.000690941 0.141232 8.45325e-28)
(0.077699 0.00153064 -4.2451e-28)
(0.0764948 0.00606562 -1.47347e-27)
(0.075261 0.0133033 3.93729e-27)
(0.074168 0.0232108 4.94813e-27)
(0.0736395 0.0371681 -2.11327e-27)
(0.0737285 0.0567091 1.37146e-26)
(0.0761054 0.085399 7.94326e-27)
(0.0797458 0.114936 -1.22041e-26)
(0.0800024 0.137203 1.68379e-26)
(0.073525 0.145337 -9.04216e-27)
(0.0618766 0.142926 -6.71157e-27)
(0.0502457 0.13838 6.22216e-27)
(0.0407149 0.136015 0)
(0.0328061 0.135251 -3.93466e-27)
(0.0260335 0.13534 3.64128e-31)
(0.0201401 0.135857 0)
(0.0151004 0.136644 -2.14708e-27)
(0.0108337 0.137737 1.78143e-27)
(0.00726052 0.138988 -1.46055e-27)
(0.00435639 0.140303 0)
(0.00210929 0.141645 3.33312e-27)
(0.000536049 0.143008 1.02719e-27)
(0.0790068 0.00143938 -2.32362e-27)
(0.0779907 0.0057564 1.81604e-27)
(0.0769871 0.0126927 1.96006e-27)
(0.076007 0.0221367 1.76774e-27)
(0.0754255 0.035796 -8.29192e-27)
(0.0752721 0.0542798 7.15925e-27)
(0.07678 0.0815578 1.62448e-26)
(0.0802947 0.111786 4.50368e-27)
(0.0818232 0.137247 -1.76243e-26)
(0.0776563 0.149878 0)
(0.0672582 0.149717 -2.20322e-26)
(0.055256 0.144371 6.72921e-27)
(0.0450234 0.140766 7.41377e-28)
(0.036595 0.13905 4.18996e-27)
(0.0294401 0.138517 -7.34237e-27)
(0.023225 0.138499 0)
(0.0178285 0.138792 6.38177e-28)
(0.0132335 0.139437 0)
(0.00934746 0.140343 0)
(0.00612822 0.141336 0)
(0.00354996 0.142353 1.25042e-27)
(0.00163266 0.14343 2.4809e-31)
(0.000373718 0.144491 -3.26149e-28)
(0.080072 0.00133747 2.4467e-27)
(0.0793223 0.00543942 1.40773e-27)
(0.0784982 0.0120369 1.27602e-28)
(0.0777178 0.0211499 0)
(0.0770287 0.034662 8.33561e-27)
(0.0767784 0.0525239 -2.9774e-27)
(0.0775956 0.0781662 0)
(0.0806431 0.10861 -4.4442e-27)
(0.0829326 0.136334 -1.41776e-26)
(0.0807872 0.153276 -1.77612e-26)
(0.0721398 0.156275 -1.60429e-26)
(0.0602244 0.151033 1.61262e-26)
(0.0493643 0.146123 1.40383e-27)
(0.0403557 0.143344 7.14886e-28)
(0.0327981 0.142081 -4.00332e-27)
(0.0262558 0.141526 2.71064e-27)
(0.0205406 0.141318 3.23908e-31)
(0.0156209 0.141505 0)
(0.0114247 0.142012 0)
(0.00789153 0.142656 0)
(0.00500123 0.143384 3.12747e-27)
(0.0027432 0.144142 -3.96013e-27)
(0.00113644 0.144927 0)
(0.000213068 0.145702 1.74616e-34)
(0.080882 0.0012304 0)
(0.0804225 0.00506859 5.64213e-27)
(0.0798481 0.011376 3.11855e-27)
(0.0791743 0.0203368 -4.88137e-27)
(0.0785253 0.0339403 2.36551e-27)
(0.0780122 0.0513159 0)
(0.0784738 0.0753312 0)
(0.0808999 0.105644 -9.05543e-27)
(0.0835224 0.134763 0)
(0.0829426 0.155539 -1.87185e-26)
(0.0762945 0.162299 -1.73357e-26)
(0.0650212 0.158179 1.50641e-26)
(0.0536386 0.152109 6.17622e-31)
(0.0441055 0.148175 -3.88647e-27)
(0.0360981 0.146047 6.84121e-28)
(0.0292358 0.144887 -1.31842e-27)
(0.0232148 0.144232 7.56375e-27)
(0.0179873 0.143934 0)
(0.0134829 0.144021 6.2114e-28)
(0.0096468 0.144292 0)
(0.00645077 0.14471 2.69421e-27)
(0.00387379 0.145175 -1.63525e-27)
(0.00192113 0.145661 0)
(0.00062412 0.146146 -9.49676e-28)
(4.09353e-05 0.146729 -5.43784e-29)
(0.0814484 0.00112641 3.62961e-27)
(0.0812537 0.00466086 3.40018e-27)
(0.0809334 0.0107762 3.02697e-27)
(0.0804057 0.0197045 2.8649e-28)
(0.0799134 0.0333888 -6.16686e-27)
(0.0791141 0.0504635 6.19329e-27)
(0.0792969 0.0730853 -1.21066e-26)
(0.0810812 0.102965 -4.22383e-27)
(0.0837551 0.132871 -9.73311e-27)
(0.0842952 0.156741 0)
(0.0796066 0.167547 -1.85427e-26)
(0.0694376 0.165496 0)
(0.0578334 0.158746 0)
(0.0477751 0.153572 9.08209e-27)
(0.0393364 0.150441 -4.93081e-27)
(0.032145 0.148619 -1.0596e-35)
(0.0258468 0.147471 6.10213e-27)
(0.0203091 0.14671 2.3739e-27)
(0.015533 0.146365 7.04794e-28)
(0.0113866 0.146277 6.24742e-28)
(0.0079045 0.146328 0)
(0.00501355 0.146502 8.80255e-36)
(0.00273915 0.146718 1.72671e-27)
(0.00107753 0.146912 -2.22845e-27)
(0.000104032 0.147072 -5.51938e-28)
(-0.000171629 0.147174 -2.1631e-28)
(0.0817446 0.00102892 0)
(0.0818098 0.00429024 3.99742e-27)
(0.0817322 0.0102895 3.57335e-27)
(0.0813827 0.0192383 2.52843e-27)
(0.0810159 0.0329079 0)
(0.0802665 0.0499368 1.08481e-26)
(0.0800512 0.0713893 -8.55372e-27)
(0.0812522 0.100677 -2.82739e-30)
(0.0837317 0.131049 -1.38123e-26)
(0.084983 0.157193 -9.81424e-27)
(0.0820409 0.171891 -1.52882e-27)
(0.0733399 0.172659 -1.60533e-26)
(0.061887 0.165928 1.12325e-27)
(0.0513575 0.159508 1.29104e-26)
(0.0425148 0.155325 -1.04613e-26)
(0.0349759 0.15274 -4.69015e-27)
(0.0284023 0.151036 2.8626e-27)
(0.0225974 0.149809 0)
(0.0175338 0.149036 0)
(0.0131365 0.148592 2.5346e-31)
(0.00934207 0.148262 -1.12478e-27)
(0.0061718 0.148133 0)
(0.0035674 0.148064 1.52705e-27)
(0.00157239 0.148011 6.5825e-28)
(0.000233479 0.147832 4.01094e-28)
(-0.00038608 0.147599 -6.59628e-28)
(-0.000323493 0.147366 -4.7334e-28)
(0.0817317 0.000932355 4.96473e-27)
(0.0820922 0.00398821 0)
(0.0822534 0.00978926 0)
(0.0821402 0.018848 3.84271e-27)
(0.0818514 0.0324668 0)
(0.0812765 0.0497094 1.51668e-26)
(0.0807531 0.0703783 0)
(0.0813756 0.0987944 -3.98849e-27)
(0.0834786 0.129413 3.76682e-27)
(0.0849644 0.157119 -7.14904e-27)
(0.0835857 0.175324 0)
(0.0765818 0.179413 -1.50869e-27)
(0.0656817 0.173469 -1.48808e-26)
(0.0548245 0.165984 2.24852e-27)
(0.0456063 0.160689 0)
(0.0377188 0.15726 5.16718e-27)
(0.0308816 0.154938 -4.48982e-27)
(0.0248223 0.153237 -1.14786e-27)
(0.0194865 0.152013 0)
(0.0148372 0.151214 2.3414e-27)
(0.0107889 0.150524 2.29628e-31)
(0.00732886 0.150076 -2.84556e-27)
(0.00442128 0.149705 0)
(0.00208591 0.149404 0)
(0.000389021 0.148982 7.79923e-28)
(-0.000656221 0.14848 -2.11618e-28)
(-0.00103449 0.147905 -1.20013e-27)
(-0.000534812 0.14722 -9.81035e-28)
(0.0814234 0.000850112 -2.26312e-28)
(0.0821037 0.0036604 1.06483e-26)
(0.0824635 0.00920334 4.67106e-27)
(0.0827025 0.0185048 -4.93193e-27)
(0.0824656 0.0321742 3.79662e-27)
(0.0820053 0.0498399 7.58152e-27)
(0.0812171 0.0701317 -3.61866e-27)
(0.0813995 0.0974145 -9.77724e-27)
(0.0830607 0.12807 0)
(0.0847807 0.156865 0)
(0.084262 0.177931 1.99698e-27)
(0.0790398 0.185562 3.03119e-26)
(0.0690983 0.181177 -1.81005e-26)
(0.0581281 0.172994 0)
(0.0485476 0.166513 1.09659e-27)
(0.0403687 0.162188 1.13931e-26)
(0.0332585 0.159193 4.91503e-27)
(0.0269761 0.156987 -4.32814e-27)
(0.0213829 0.1553 1.19102e-35)
(0.0164839 0.154105 4.44054e-27)
(0.0122049 0.153096 -7.83403e-28)
(0.00849246 0.152317 -1.46427e-27)
(0.00529948 0.151659 1.988e-27)
(0.00264202 0.15108 9.0217e-28)
(0.00058089 0.150448 4.2033e-28)
(-0.000877108 0.149697 -2.21109e-28)
(-0.00168685 0.148822 2.5749e-27)
(-0.00174157 0.147805 2.3168e-27)
(-0.000748222 0.14666 -1.92792e-28)
(0.0807993 0.00078883 -6.71149e-27)
(0.0817633 0.00337185 -6.017e-27)
(0.0823598 0.0088139 3.54618e-27)
(0.0829064 0.0182668 5.00193e-27)
(0.0827757 0.032211 3.16701e-27)
(0.0824281 0.05029 0)
(0.0814661 0.0703576 0)
(0.0812715 0.0966549 -3.62971e-27)
(0.0824957 0.12711 -1.05115e-26)
(0.0841991 0.156492 -1.08294e-26)
(0.084338 0.179884 -1.54661e-27)
(0.0806289 0.190985 2.12281e-26)
(0.0719905 0.188827 0)
(0.0612186 0.180454 0)
(0.051329 0.172798 0)
(0.0428954 0.167518 1.19817e-26)
(0.0355285 0.163802 1.07845e-26)
(0.0290307 0.161062 -8.90531e-27)
(0.0232295 0.158898 -2.07972e-27)
(0.0180819 0.157265 5.0718e-28)
(0.0135847 0.155924 5.32068e-27)
(0.00963255 0.154845 3.20865e-27)
(0.00619767 0.153924 1.81832e-31)
(0.00323565 0.153061 -3.41425e-28)
(0.000846286 0.152193 5.86816e-28)
(-0.00102909 0.151261 3.41344e-29)
(-0.00229916 0.150143 -1.38963e-27)
(-0.0027775 0.14879 0)
(-0.00254544 0.147309 -3.467e-28)
(-0.000989551 0.145642 0)
(0.079841 0.000735136 1.63659e-28)
(0.0810479 0.00319484 -1.36076e-26)
(0.0819701 0.00857287 -7.75847e-27)
(0.0826727 0.0181255 -5.46168e-27)
(0.0827203 0.032637 -1.70425e-27)
(0.0823699 0.0509791 4.11496e-27)
(0.0814694 0.0711283 0)
(0.0809174 0.0964973 9.83024e-27)
(0.0817386 0.126602 7.99166e-32)
(0.083297 0.156251 -1.11633e-26)
(0.0839048 0.181392 -1.17855e-27)
(0.0814537 0.195622 2.10732e-26)
(0.0742348 0.196172 0)
(0.0640095 0.188224 0)
(0.0539429 0.179543 -1.67391e-26)
(0.0452654 0.173216 1.45971e-26)
(0.0376976 0.168753 -4.84838e-28)
(0.0309816 0.165436 0)
(0.0249876 0.16281 -3.89166e-27)
(0.0196457 0.160705 -1.95501e-27)
(0.0149119 0.158997 2.69349e-27)
(0.0107536 0.157632 3.42779e-27)
(0.00708575 0.156456 -2.42636e-27)
(0.00387333 0.15535 8.15004e-28)
(0.00115578 0.15424 -2.3781e-27)
(-0.00106882 0.153136 -2.28643e-28)
(-0.00279591 0.151835 -6.83684e-28)
(-0.00386824 0.150263 -2.07026e-27)
(-0.00396156 0.148404 0)
(-0.00347999 0.146383 -8.96647e-27)
(-0.00128815 0.14409 0)
(0.0785052 0.000683412 1.29422e-28)
(0.0801085 0.00306686 7.4679e-27)
(0.0812527 0.00837115 -1.31329e-26)
(0.0819898 0.0181828 -2.41358e-27)
(0.082225 0.0335642 -5.33927e-27)
(0.0817741 0.052108 -4.38699e-27)
(0.0809509 0.0726405 1.2803e-26)
(0.0803201 0.0969335 9.91193e-27)
(0.0807752 0.126514 1.08162e-26)
(0.0821677 0.15628 0)
(0.0830389 0.182636 1.07136e-26)
(0.0816027 0.199576 1.0962e-26)
(0.0757936 0.203023 0)
(0.0663874 0.19613 8.71567e-27)
(0.0563486 0.186715 1.45401e-31)
(0.0474589 0.179285 -8.42267e-28)
(0.0397315 0.174028 8.81315e-28)
(0.0328308 0.1701 0)
(0.0266703 0.166992 0)
(0.0211305 0.164446 1.29767e-27)
(0.016199 0.162338 -3.87921e-27)
(0.011825 0.160658 -9.34784e-28)
(0.00795271 0.159212 -1.72843e-27)
(0.00452747 0.157909 1.44908e-27)
(0.00154167 0.156588 -1.74538e-27)
(-0.00104075 0.155331 0)
(-0.003159 0.153867 -2.19755e-28)
(-0.00469956 0.152138 0)
(-0.00565063 0.150057 -2.56139e-27)
(-0.00528763 0.147598 1.25593e-26)
(-0.00449857 0.144941 -7.16218e-27)
(-0.00167426 0.141938 5.45711e-27)
(0.0768232 0.000657556 0)
(0.0787694 0.00295615 -4.25502e-28)
(0.0801298 0.00836789 7.18756e-27)
(0.0810524 0.0187019 -8.98825e-27)
(0.0812467 0.0348641 -5.75186e-27)
(0.0807671 0.0537408 -4.69691e-27)
(0.0799415 0.0745491 5.08705e-27)
(0.0792353 0.0980924 1.00579e-26)
(0.0795228 0.126864 -1.09195e-26)
(0.0807845 0.156608 0)
(0.0818102 0.183741 1.17827e-26)
(0.0811492 0.202978 1.15569e-28)
(0.0766614 0.209302 -1.33505e-28)
(0.0682543 0.203985 1.03386e-26)
(0.0584821 0.194213 1.71816e-26)
(0.0494651 0.185721 0)
(0.0416113 0.179597 -1.33335e-26)
(0.0345796 0.17505 0)
(0.0282379 0.17142 0)
(0.0225517 0.168465 9.39592e-27)
(0.0174079 0.165972 -7.75378e-27)
(0.0128402 0.163942 0)
(0.00878676 0.162194 0)
(0.00517294 0.16067 -2.49979e-27)
(0.0019747 0.159196 1.63249e-27)
(-0.000887516 0.157796 2.38691e-28)
(-0.0034087 0.156239 -2.34661e-28)
(-0.00545642 0.154388 0)
(-0.00676649 0.152152 -2.56293e-27)
(-0.00768591 0.149495 2.05896e-26)
(-0.00685909 0.146315 -6.34413e-27)
(-0.00554113 0.142894 5.66413e-27)
(-0.00206758 0.139124 2.29535e-28)
(0.0748454 0.000654232 9.63775e-27)
(0.0769794 0.00296399 4.12038e-28)
(0.0786474 0.00862348 0)
(0.0796153 0.0196738 -4.92939e-27)
(0.0797627 0.0365862 6.15708e-27)
(0.0793571 0.0558239 -1.56562e-30)
(0.0785392 0.076752 -3.85824e-27)
(0.077844 0.0997122 -3.0571e-27)
(0.0779576 0.127649 -1.09836e-26)
(0.0791381 0.157242 1.30474e-26)
(0.0802604 0.184838 -1.14898e-28)
(0.0801623 0.205925 0)
(0.076858 0.214999 0)
(0.0695765 0.211615 1.05315e-26)
(0.0602753 0.201923 9.80532e-27)
(0.0512706 0.19248 0)
(0.043319 0.185441 3.41138e-34)
(0.036205 0.180262 6.91994e-28)
(0.0297141 0.176115 0)
(0.0238624 0.172737 -1.04952e-26)
(0.018551 0.169895 0)
(0.0137762 0.167491 8.04311e-27)
(0.00955726 0.1654 -3.81847e-27)
(0.00578666 0.163628 -9.32817e-28)
(0.00241611 0.161989 7.56016e-28)
(-0.000647062 0.160515 -2.61122e-28)
(-0.00346748 0.158869 -2.65432e-28)
(-0.00595845 0.157003 -7.05083e-28)
(-0.00804976 0.154679 -9.73358e-28)
(-0.00906438 0.151842 8.92544e-27)
(-0.00994489 0.1485 -1.68272e-26)
(-0.0087893 0.144522 -6.91266e-27)
(-0.00668133 0.140152 1.13454e-26)
(-0.00120796 0.136411 -1.06364e-31)
(-0.00370771 0.13655 2.20937e-28)
(0.0724501 0.000672758 0)
(0.0749704 0.00312963 1.03513e-26)
(0.0767488 0.00909316 -8.57143e-27)
(0.0777016 0.0211521 -2.46084e-27)
(0.0778214 0.0387766 -3.20315e-27)
(0.0774583 0.0582614 1.12616e-27)
(0.0768014 0.0792294 7.69135e-27)
(0.0761329 0.10171 0)
(0.07617 0.128774 1.09966e-26)
(0.0772191 0.158155 -1.09061e-27)
(0.0784186 0.186015 -2.83486e-28)
(0.078727 0.208538 1.28075e-27)
(0.0764385 0.220127 -1.18291e-26)
(0.0703075 0.218903 1.12148e-26)
(0.0616627 0.209707 1.03256e-26)
(0.0528201 0.199518 0)
(0.0448383 0.191553 3.30869e-26)
(0.037681 0.185699 -1.40372e-26)
(0.0311029 0.181052 -1.27773e-26)
(0.025086 0.177252 -1.10473e-26)
(0.0196162 0.174053 -3.41256e-28)
(0.014657 0.171306 8.41007e-27)
(0.010241 0.168859 -1.16892e-26)
(0.00634662 0.166789 -3.8738e-27)
(0.0028495 0.164955 3.11827e-27)
(-0.000364995 0.163342 -2.11702e-27)
(-0.00340238 0.161741 -1.50742e-27)
(-0.00625517 0.159893 -5.41239e-29)
(-0.00875127 0.157622 -2.09374e-27)
(-0.0110361 0.154769 0)
(-0.0117637 0.151131 0)
(-0.0123405 0.146876 -6.86092e-27)
(-0.00928131 0.141537 -4.63032e-28)
(-0.0114893 0.142825 -1.14698e-27)
(-0.00626328 0.137088 -1.75179e-27)
(-0.0102349 0.141121 0)
(-0.00880274 0.137874 0)
(-0.00138033 0.134351 1.52994e-26)
(-0.00404961 0.134643 -5.39451e-28)
(0.0696098 0.000716959 0)
(0.0725388 0.00341837 0)
(0.0744258 0.00988005 0)
(0.0754617 0.0231653 -1.06344e-26)
(0.0754089 0.0414005 3.31082e-27)
(0.075098 0.0609853 -1.42749e-26)
(0.0746854 0.0819455 -3.7899e-27)
(0.0741366 0.104001 2.68868e-27)
(0.074161 0.130235 1.09986e-26)
(0.0750847 0.159306 -1.09219e-26)
(0.0763142 0.187301 7.13022e-28)
(0.0769148 0.210919 -1.22211e-26)
(0.0754624 0.224743 -1.29918e-26)
(0.0704393 0.225779 5.3746e-28)
(0.0625958 0.217462 -1.93574e-28)
(0.0540422 0.206762 0)
(0.0461284 0.197911 1.78015e-26)
(0.0389894 0.191326 -1.58867e-26)
(0.0323883 0.186194 -1.35632e-26)
(0.026257 0.181981 0)
(0.0206217 0.178439 -6.36039e-29)
(0.0154603 0.175359 -3.23772e-28)
(0.0108702 0.172592 -3.43092e-31)
(0.00679614 0.170174 -3.81997e-27)
(0.00321472 0.168062 0)
(-6.5768e-05 0.16632 -2.24708e-27)
(-0.00320567 0.164675 -1.86684e-27)
(-0.00632077 0.162988 -9.16983e-28)
(-0.00938389 0.160882 -3.33017e-28)
(-0.011868 0.158066 -6.3163e-28)
(-0.0144194 0.154546 0)
(-0.0150902 0.149924 -1.67585e-27)
(-0.0132607 0.14409 -6.74279e-28)
(-0.0153988 0.145806 0)
(-0.0124812 0.142141 0)
(-0.0069211 0.135217 -5.74747e-27)
(-0.0113613 0.138944 0)
(-0.00968587 0.136035 4.04066e-28)
(-0.00143261 0.132158 8.07933e-27)
(-0.00441349 0.132482 0)
(0.0664223 0.000822022 0)
(0.0696165 0.00384797 0)
(0.0717343 0.0111946 0)
(0.0725628 0.0257857 -6.67991e-27)
(0.0725553 0.044388 -3.28145e-27)
(0.072354 0.0639459 0)
(0.0721861 0.0848094 -1.81085e-30)
(0.0718536 0.106515 -4.96167e-27)
(0.071932 0.131978 -1.42601e-27)
(0.0727714 0.160664 0)
(0.0739938 0.188717 -1.32461e-26)
(0.0747908 0.213155 -1.22803e-26)
(0.0739951 0.22892 1.38045e-27)
(0.07001 0.232215 -1.80123e-27)
(0.0630288 0.225098 3.10677e-28)
(0.0548996 0.214149 -9.84201e-28)
(0.0471448 0.204459 -9.83765e-27)
(0.0401012 0.197111 4.38818e-28)
(0.0335604 0.191507 1.87543e-28)
(0.0273589 0.186913 1.3387e-26)
(0.0215728 0.183041 0)
(0.0162188 0.179696 0)
(0.0113894 0.176584 7.60965e-27)
(0.00715664 0.173805 3.89881e-27)
(0.0034673 0.171333 0)
(0.000192145 0.169347 9.44104e-28)
(-0.00297745 0.167708 -1.28097e-27)
(-0.0061632 0.166141 -1.4373e-27)
(-0.00951256 0.164331 1.44732e-27)
(-0.0130184 0.161876 -3.09342e-27)
(-0.0154455 0.158246 -3.34176e-27)
(-0.018076 0.153716 1.6189e-27)
(-0.0169301 0.147363 -1.99743e-27)
(-0.0188893 0.14949 -1.97528e-27)
(-0.0146938 0.14346 -8.41643e-27)
(-0.0168089 0.145021 0)
(-0.0138376 0.140218 0)
(-0.00755887 0.133091 0)
(-0.0124437 0.137119 -2.64823e-28)
(-0.0106306 0.133956 0)
(-0.00155857 0.129736 0)
(-0.00482022 0.130091 0)
(0.0630091 0.000986623 -6.07841e-27)
(0.0663277 0.00447551 0)
(0.0685643 0.0130799 0)
(0.0691345 0.0289943 0)
(0.0692561 0.047639 -8.75282e-32)
(0.0692612 0.0670702 -3.90861e-27)
(0.0693567 0.0877365 0)
(0.069278 0.109169 2.28738e-27)
(0.0694961 0.133936 -1.11305e-27)
(0.0703 0.162212 1.8188e-28)
(0.0715054 0.190256 -1.20534e-26)
(0.0724137 0.215308 0)
(0.0721279 0.232738 0)
(0.0690443 0.23822 1.35586e-27)
(0.0629338 0.232517 1.13122e-30)
(0.0553517 0.2216 -1.05992e-30)
(0.0478482 0.211151 -2.04979e-26)
(0.0409836 0.203025 -8.26498e-28)
(0.0345769 0.196931 3.14429e-28)
(0.0283937 0.192003 2.97936e-26)
(0.0224852 0.187874 -1.27549e-26)
(0.016943 0.184269 0)
(0.011861 0.180877 -2.10729e-28)
(0.00737448 0.177699 8.01284e-28)
(0.00355112 0.174845 4.82314e-27)
(0.000282076 0.172509 8.12789e-27)
(-0.00271496 0.170695 -4.13807e-27)
(-0.00589981 0.169282 -2.77586e-32)
(-0.00941776 0.167826 1.68357e-27)
(-0.0130639 0.165763 -1.45184e-27)
(-0.0172927 0.162761 -4.0081e-28)
(-0.0198268 0.158113 -6.3004e-27)
(-0.0201716 0.151381 3.70375e-27)
(-0.0219386 0.153918 0)
(-0.0188025 0.146804 -2.04544e-27)
(-0.0207103 0.148785 -2.5343e-28)
(-0.016221 0.141726 0)
(-0.0185679 0.143467 -5.48406e-27)
(-0.0151764 0.13846 -3.22682e-28)
(-0.00828559 0.130736 1.07545e-26)
(-0.0136487 0.135111 0)
(-0.0116496 0.131657 -1.10376e-27)
(-0.00169805 0.127071 0)
(-0.0052318 0.127456 0)
(0.0593995 0.00120318 -1.96591e-29)
(0.0628271 0.00527724 -1.1695e-26)
(0.0649505 0.0154312 0)
(0.0654678 0.0324856 0)
(0.0656332 0.0509571 3.24474e-27)
(0.0659207 0.0702586 -1.22181e-27)
(0.0662668 0.0906509 0)
(0.0664511 0.111868 5.03078e-27)
(0.0668466 0.136036 0)
(0.0676875 0.163909 0)
(0.0688808 0.191916 1.20691e-26)
(0.0698552 0.217417 1.8504e-27)
(0.0699288 0.236262 -1.44261e-26)
(0.067605 0.243815 -1.19869e-26)
(0.062351 0.239686 -1.04922e-26)
(0.0553646 0.229042 -1.07593e-30)
(0.0482079 0.217938 -9.91467e-27)
(0.0415904 0.209027 -9.69111e-27)
(0.0354099 0.202395 -3.37784e-28)
(0.0293586 0.197185 1.65939e-26)
(0.0234092 0.192832 -1.43276e-26)
(0.0176855 0.189064 -1.73241e-29)
(0.0123156 0.185459 -8.95386e-27)
(0.00752872 0.181932 -2.52342e-28)
(0.00346329 0.178596 7.14189e-27)
(0.000136637 0.175821 1.03618e-26)
(-0.0026975 0.173723 -8.37064e-27)
(-0.00548564 0.172246 -1.50243e-27)
(-0.00893195 0.171253 0)
(-0.0132618 0.169856 -2.0734e-27)
(-0.0170488 0.167211 7.96367e-28)
(-0.0219988 0.163133 -6.9141e-27)
(-0.022942 0.156097 -1.33046e-27)
(-0.0244782 0.159075 -2.21019e-27)
(-0.0224679 0.151012 2.29039e-27)
(-0.0241588 0.153403 6.16544e-28)
(-0.0207689 0.14544 4.70988e-27)
(-0.0229182 0.147634 1.57867e-27)
(-0.0178099 0.140066 -1.73837e-27)
(-0.0204102 0.141928 3.47573e-27)
(-0.0166516 0.136546 2.57255e-27)
(-0.00905292 0.128127 1.20867e-26)
(-0.0149727 0.132883 -5.91057e-28)
(-0.01271 0.129148 5.94409e-27)
(-0.0018513 0.124153 0)
(-0.00566737 0.124573 0)
(0.0556094 0.00149592 6.31485e-27)
(0.0591374 0.00628198 -4.30581e-28)
(0.0610399 0.0181287 -5.26544e-27)
(0.0616716 0.0359312 0)
(0.0619209 0.0542395 6.67945e-27)
(0.0624241 0.0733766 0)
(0.0630083 0.093491 0)
(0.0634438 0.11453 5.0026e-27)
(0.0640238 0.138181 0)
(0.0649494 0.165689 0)
(0.0661567 0.19367 1.34642e-26)
(0.0671714 0.219512 1.23027e-26)
(0.0674763 0.239554 -9.68502e-27)
(0.0657777 0.249044 -1.43149e-26)
(0.0612915 0.246572 -1.01202e-26)
(0.0549064 0.236411 -1.63921e-30)
(0.0481775 0.224786 5.84212e-28)
(0.0418715 0.215077 -4.82388e-28)
(0.036 0.207848 4.21632e-28)
(0.0302236 0.202327 9.15958e-27)
(0.0243816 0.197838 -2.42929e-29)
(0.0185305 0.193986 5.2798e-29)
(0.012838 0.190317 -2.03582e-26)
(0.00763064 0.186533 -7.07937e-27)
(0.00320997 0.182745 5.17002e-27)
(-0.000282932 0.179392 1.04112e-26)
(-0.00298248 0.176738 0)
(-0.00537608 0.175075 -1.44939e-26)
(-0.00816871 0.174257 -1.31297e-26)
(-0.012228 0.173739 0)
(-0.0180338 0.172197 4.97878e-27)
(-0.0220524 0.168671 -1.78269e-28)
(-0.025102 0.161622 1.03385e-27)
(-0.0264171 0.164924 0)
(-0.0256582 0.156066 -3.96986e-27)
(-0.0270873 0.158875 0)
(-0.0248684 0.150044 5.79956e-28)
(-0.0267808 0.152687 0)
(-0.0228761 0.144065 4.93324e-28)
(-0.0252691 0.146443 2.79415e-27)
(-0.0195554 0.13828 -5.03065e-27)
(-0.0224214 0.140292 9.79603e-27)
(-0.0182474 0.134421 -3.63981e-28)
(-0.00987672 0.125247 2.69948e-26)
(-0.0163931 0.130428 3.17391e-28)
(-0.0138347 0.126407 7.84645e-27)
(-0.00201643 0.120982 0)
(-0.0061496 0.121429 0)
(0.0517704 0.00189484 9.16082e-29)
(0.0551625 0.00753311 6.41882e-27)
(0.0569346 0.0211573 0)
(0.0576595 0.0393613 -4.45026e-27)
(0.0581577 0.0575045 3.10893e-27)
(0.0588189 0.0763393 2.72746e-27)
(0.0596578 0.0961948 4.40676e-27)
(0.0603352 0.117078 -1.03771e-27)
(0.0610894 0.140286 5.48745e-27)
(0.0621286 0.167473 6.74738e-28)
(0.0633679 0.195477 -6.06533e-27)
(0.064415 0.221601 1.48346e-26)
(0.0648605 0.24266 0)
(0.0636448 0.253949 0)
(0.0598084 0.253187 0)
(0.0540222 0.243717 7.34027e-28)
(0.047692 0.231677 4.53859e-28)
(0.0417704 0.221167 1.01804e-26)
(0.0362836 0.213253 0)
(0.0309181 0.207358 4.36101e-28)
(0.0253614 0.202746 2.31917e-29)
(0.0195306 0.198964 -7.84123e-29)
(0.0135609 0.195399 -1.20672e-26)
(0.0078248 0.191535 -8.33133e-27)
(0.0028588 0.187392 0)
(-0.00103211 0.183347 6.45512e-27)
(-0.00374893 0.180021 2.35714e-27)
(-0.00561761 0.177729 -2.1948e-27)
(-0.00766519 0.176884 -2.13858e-26)
(-0.011005 0.176999 0)
(-0.0158666 0.176747 5.52683e-27)
(-0.0233841 0.174421 -9.79158e-27)
(-0.0265625 0.167769 0)
(-0.0274853 0.171392 -2.35105e-28)
(-0.0282041 0.161993 -5.68147e-34)
(-0.0294023 0.165177 5.20876e-28)
(-0.0284779 0.155564 -3.86893e-27)
(-0.0301028 0.158666 1.87949e-28)
(-0.0274486 0.14904 2.21166e-27)
(-0.0295979 0.151911 -2.19193e-27)
(-0.025166 0.142597 0)
(-0.027808 0.145176 2.32847e-27)
(-0.0214552 0.136284 -5.2833e-27)
(-0.02459 0.138468 0)
(-0.0199288 0.132114 -2.45717e-27)
(-0.0107511 0.122127 2.70356e-26)
(-0.0179279 0.127718 -6.83207e-27)
(-0.0150601 0.123391 -1.14956e-27)
(-0.00218397 0.11755 0)
(-0.00667316 0.118004 -7.20313e-27)
(0.0479415 0.00234959 1.42931e-28)
(0.0511113 0.00906715 -8.46957e-28)
(0.052733 0.024407 0)
(0.0534912 0.0426351 2.15558e-27)
(0.0543433 0.0606526 -3.5788e-27)
(0.0551766 0.0791211 -7.43006e-27)
(0.0562373 0.0987047 4.35155e-27)
(0.0571881 0.119437 1.0532e-27)
(0.0581177 0.142284 5.31669e-27)
(0.0592755 0.169194 0)
(0.0605582 0.19727 -4.31615e-27)
(0.061633 0.223666 0)
(0.0621616 0.245617 0)
(0.0612926 0.258566 -8.6109e-27)
(0.0580007 0.25956 0)