/*--------------------------------*- C++ -*----------------------------------*\
  =========                 |
  \\      /  F ield         | OpenFOAM: The Open Source CFD Toolbox
   \\    /   O peration     | Website:  https://openfoam.org
    \\  /    A nd           | Version:  dev
     \\/     M anipulation  |
\*---------------------------------------------------------------------------*/
FoamFile
{
    version     2.0;
    format      ascii;
    class       volScalarField;
    location    "2500";
    object      a;
}
// * * * * * * * * * * * * * * * * * * * * * * * * * * * * * * * * * * * * * //

dimensions      [0 -1 0 0 0 0 0];

internalField   nonuniform List<scalar> 
9846
(
0.100011
0.100011
0.100011
0.100011
0.100011
0.100011
0.100011
0.100011
0.100011
0.100011
0.10001
0.100011
0.100011
0.100011
0.100011
0.10001
0.10001
0.100011
0.100011
0.100011
0.100011
0.10001
0.10001
0.10001
0.100011
0.100011
0.100011
0.100011
0.10001
0.10001
0.10001
0.10001
0.100011
0.100011
0.100011
0.100011
0.100009
0.10001
0.10001
0.10001
0.10001
0.100011
0.100011
0.100011
0.100011
0.100009
0.100009
0.10001
0.10001
0.10001
0.10001
0.100011
0.100011
0.100011
0.100011
0.100009
0.100009
0.100009
0.10001
0.10001
0.10001
0.10001
0.100011
0.100011
0.100011
0.100011
0.100009
0.100009
0.100009
0.100009
0.10001
0.10001
0.10001
0.10001
0.100011
0.100011
0.100011
0.100011
0.100009
0.100009
0.100009
0.100009
0.100009
0.10001
0.10001
0.10001
0.10001
0.100011
0.100011
0.100011
0.100011
0.100008
0.100009
0.100009
0.100009
0.100009
0.100009
0.10001
0.10001
0.10001
0.10001
0.100011
0.100011
0.100011
0.100011
0.100008
0.100008
0.100009
0.100009
0.100009
0.100009
0.100009
0.10001
0.10001
0.10001
0.10001
0.100011
0.100011
0.100011
0.100011
0.100008
0.100008
0.100008
0.100009
0.100009
0.100009
0.100009
0.100009
0.10001
0.10001
0.10001
0.10001
0.100011
0.100011
0.100011
0.100011
0.100008
0.100008
0.100008
0.100008
0.100009
0.100009
0.100009
0.100009
0.100009
0.10001
0.10001
0.10001
0.10001
0.100011
0.100011
0.100011
0.100011
0.100007
0.100008
0.100008
0.100008
0.100008
0.100009
0.100009
0.100009
0.100009
0.100009
0.10001
0.10001
0.10001
0.10001
0.100011
0.100011
0.100011
0.100011
0.100007
0.100007
0.100008
0.100008
0.100008
0.100008
0.100009
0.100009
0.100009
0.100009
0.100009
0.10001
0.10001
0.10001
0.10001
0.100011
0.100011
0.100011
0.100011
0.100007
0.100007
0.100007
0.100008
0.100008
0.100008
0.100008
0.100009
0.100009
0.100009
0.100009
0.100009
0.10001
0.10001
0.10001
0.10001
0.100011
0.100011
0.100011
0.100011
0.100007
0.100007
0.100007
0.100007
0.100008
0.100008
0.100008
0.100008
0.100009
0.100009
0.100009
0.100009
0.100009
0.10001
0.10001
0.10001
0.10001
0.100011
0.100011
0.100011
0.100011
0.100006
0.100007
0.100007
0.100007
0.100007
0.100008
0.100008
0.100008
0.100008
0.100009
0.100009
0.100009
0.100009
0.100009
0.10001
0.10001
0.10001
0.10001
0.100011
0.100011
0.100011
0.100011
0.100006
0.100006
0.100007
0.100007
0.100007
0.100007
0.100008
0.100008
0.100008
0.100008
0.100009
0.100009
0.100009
0.100009
0.100009
0.10001
0.10001
0.10001
0.10001
0.100011
0.100011
0.100011
0.100011
0.100006
0.100006
0.100006
0.100007
0.100007
0.100007
0.100007
0.100008
0.100008
0.100008
0.100008
0.100009
0.100009
0.100009
0.100009
0.100009
0.10001
0.10001
0.10001
0.10001
0.100011
0.100011
0.100011
0.100011
0.100006
0.100006
0.100006
0.100006
0.100007
0.100007
0.100007
0.100007
0.100008
0.100008
0.100008
0.100008
0.100009
0.100009
0.100009
0.100009
0.100009
0.10001
0.10001
0.10001
0.10001
0.100011
0.100011
0.100011
0.100011
0.100006
0.100006
0.100006
0.100006
0.100006
0.100007
0.100007
0.100007
0.100007
0.100008
0.100008
0.100008
0.100008
0.100009
0.100009
0.100009
0.100009
0.100009
0.10001
0.10001
0.10001
0.10001
0.100011
0.100011
0.100011
0.100011
0.100005
0.100006
0.100006
0.100006
0.100006
0.100006
0.100007
0.100007
0.100007
0.100007
0.100008
0.100008
0.100008
0.100008
0.100009
0.100009
0.100009
0.100009
0.100009
0.10001
0.10001
0.10001
0.10001
0.100011
0.100011
0.100011
0.100011
0.100005
0.100005
0.100006
0.100006
0.100006
0.100006
0.100006
0.100007
0.100007
0.100007
0.100007
0.100008
0.100008
0.100008
0.100008
0.100009
0.100009
0.100009
0.100009
0.100009
0.10001
0.10001
0.10001
0.10001
0.100011
0.100011
0.100011
0.100011
0.100005
0.100005
0.100005
0.100006
0.100006
0.100006
0.100006
0.100006
0.100007
0.100007
0.100007
0.100007
0.100008
0.100008
0.100008
0.100008
0.100009
0.100009
0.100009
0.100009
0.100009
0.10001
0.10001
0.10001
0.10001
0.100011
0.100011
0.100011
0.100011
0.100005
0.100005
0.100005
0.100005
0.100006
0.100006
0.100006
0.100006
0.100006
0.100007
0.100007
0.100007
0.100007
0.100008
0.100008
0.100008
0.100008
0.100009
0.100009
0.100009
0.100009
0.100009
0.10001
0.10001
0.10001
0.10001
0.100011
0.100011
0.100011
0.100011
0.100004
0.100005
0.100005
0.100005
0.100005
0.100006
0.100006
0.100006
0.100006
0.100006
0.100007
0.100007
0.100007
0.100007
0.100008
0.100008
0.100008
0.100008
0.100009
0.100009
0.100009
0.100009
0.100009
0.10001
0.10001
0.10001
0.10001
0.100011
0.100011
0.100011
0.100011
0.100004
0.100004
0.100005
0.100005
0.100005
0.100005
0.100006
0.100006
0.100006
0.100006
0.100006
0.100007
0.100007
0.100007
0.100007
0.100008
0.100008
0.100008
0.100008
0.100009
0.100009
0.100009
0.100009
0.10001
0.10001
0.10001
0.10001
0.10001
0.100011
0.100011
0.100011
0.100011
0.100004
0.100004
0.100004
0.100005
0.100005
0.100005
0.100005
0.100006
0.100006
0.100006
0.100006
0.100006
0.100007
0.100007
0.100007
0.100007
0.100008
0.100008
0.100008
0.100009
0.100009
0.10001
0.10001
0.10001
0.100011
0.100011
0.100011
0.100011
0.100011
0.100011
0.100011
0.100011
0.100011
0.100004
0.100004
0.100004
0.100004
0.100005
0.100005
0.100005
0.100005
0.100006
0.100006
0.100006
0.100006
0.100006
0.100007
0.100007
0.100007
0.100007
0.100008
0.100009
0.10001
0.100012
0.100014
0.100016
0.100017
0.100017
0.100017
0.100016
0.100014
0.100013
0.100012
0.100011
0.100011
0.100011
0.100011
0.100011
0.100004
0.100004
0.100004
0.100004
0.100004
0.100005
0.100005
0.100005
0.100005
0.100006
0.100006
0.100006
0.100006
0.100006
0.100007
0.100007
0.100007
0.100009
0.100012
0.100017
0.100026
0.100038
0.100049
0.100055
0.100057
0.100053
0.100046
0.100038
0.10003
0.100022
0.100016
0.100012
0.100011
0.100011
0.100011
0.100011
0.100011
0.100003
0.100004
0.100004
0.100004
0.100004
0.100004
0.100005
0.100005
0.100005
0.100005
0.100006
0.100006
0.100006
0.100006
0.100006
0.100007
0.100008
0.100012
0.100022
0.100043
0.100091
0.100154
0.100216
0.100259
0.100272
0.100254
0.100217
0.100175
0.100133
0.100093
0.100055
0.100026
0.100011
0.100014
0.100011
0.100012
0.100012
0.100011
0.100011
0.100011
0.100011
0.100003
0.100003
0.100004
0.100004
0.100004
0.100004
0.100004
0.100005
0.100005
0.100005
0.100005
0.100006
0.100006
0.100006
0.100006
0.100007
0.100008
0.100019
0.100046
0.100131
0.100326
0.100627
0.10096
0.101226
0.101338
0.101275
0.101096
0.100883
0.100688
0.10051
0.100336
0.100155
0.100021
0.100048
0.100017
0.100012
0.100016
0.100014
0.100011
0.100011
0.100011
0.100011
0.100003
0.100003
0.100003
0.100004
0.100004
0.100004
0.100004
0.100004
0.100005
0.100005
0.100005
0.100005
0.100006
0.100006
0.100006
0.100006
0.10001
0.100033
0.1001
0.100356
0.100988
0.102109
0.103542
0.104789
0.10552
0.105537
0.104949
0.104076
0.103246
0.102562
0.101916
0.101163
0.10013
0.100401
0.100037
0.100103
0.100031
0.100013
0.100026
0.100021
0.100011
0.100012
0.100011
0.100011
0.100003
0.100003
0.100003
0.100003
0.100004
0.100004
0.100004
0.100004
0.100004
0.100005
0.100005
0.100005
0.100005
0.100006
0.100006
0.100006
0.10001
0.100048
0.100188
0.100756
0.102369
0.105389
0.109588
0.113513
0.115908
0.116725
0.115929
0.113967
0.111697
0.109895
0.108397
0.106815
0.101231
0.103909
0.100318
0.101014
0.100086
0.100274
0.10007
0.100018
0.100054
0.10004
0.100012
0.100015
0.100011
0.100011
0.100002
0.100003
0.100003
0.100003
0.100003
0.100004
0.100004
0.100004
0.100004
0.100004
0.100005
0.100005
0.100005
0.100005
0.100006
0.100006
0.10001
0.100059
0.100284
0.10131
0.104198
0.110045
0.117617
0.125206
0.130686
0.13383
0.134544
0.13364
0.13122
0.128015
0.125401
0.123936
0.110578
0.124515
0.103274
0.109641
0.100895
0.102927
0.100226
0.100767
0.100177
0.100029
0.100131
0.100091
0.100013
0.100021
0.100011
0.100012
0.100002
0.100002
0.100003
0.100003
0.100003
0.100003
0.100004
0.100004
0.100004
0.100004
0.100004
0.100005
0.100005
0.100005
0.100005
0.100006
0.100009
0.10006
0.100351
0.101872
0.106367
0.114848
0.126406
0.136741
0.145254
0.151293
0.155296
0.157311
0.157703
0.156745
0.15461
0.153701
0.138015
0.155883
0.122581
0.138504
0.108777
0.121864
0.102585
0.108058
0.100629
0.102199
0.100487
0.100058
0.100349
0.100227
0.100016
0.100036
0.100011
0.100013
0.100002
0.100002
0.100002
0.100003
0.100003
0.100003
0.100003
0.100004
0.100004
0.100004
0.100004
0.100004
0.100005
0.100005
0.100005
0.100005
0.100008
0.100058
0.100372
0.102262
0.108283
0.119692
0.13368
0.148033
0.158724
0.167071
0.173564
0.178504
0.18268
0.186153
0.188313
0.18809
0.171371
0.190782
0.15596
0.174216
0.13859
0.157255
0.121108
0.139063
0.107252
0.120094
0.101795
0.106232
0.101373
0.100133
0.10096
0.100602
0.100022
0.100071
0.100011
0.100014
0.100002
0.100002
0.100002
0.100002
0.100003
0.100003
0.100003
0.100003
0.100004
0.100004
0.100004
0.100004
0.100004
0.100005
0.100005
0.100005
0.100007
0.10005
0.100366
0.102376
0.109519
0.123359
0.140638
0.155584
0.166335
0.174259
0.181396
0.188339
0.195768
0.203775
0.212242
0.219276
0.20599
0.223358
0.19285
0.210876
0.176875
0.19677
0.159155
0.180403
0.139635
0.161614
0.118507
0.139839
0.10507
0.115979
0.103827
0.100329
0.102652
0.101628
0.100035
0.100155
0.100012
0.100018
0.100001
0.100002
0.100002
0.100002
0.100002
0.100003
0.100003
0.100003
0.100003
0.100004
0.100004
0.100004
0.100004
0.100004
0.100005
0.100005
0.100006
0.100035
0.100336
0.102331
0.109864
0.125529
0.144691
0.159012
0.167089
0.173461
0.179852
0.186891
0.195563
0.205756
0.218315
0.233951
0.235344
0.246589
0.227755
0.242427
0.216211
0.234336
0.201915
0.222945
0.184894
0.208386
0.164297
0.19009
0.139131
0.166472
0.113251
0.136261
0.110205
0.100853
0.107122
0.104383
0.100064
0.100365
0.100012
0.100024
0.100001
0.100001
0.100002
0.100002
0.100002
0.100002
0.100003
0.100003
0.100003
0.100003
0.100004
0.100004
0.100004
0.100004
0.100004
0.100005
0.100005
0.100022
0.100266
0.10216
0.109749
0.126273
0.146606
0.158419
0.165336
0.170137
0.174461
0.179751
0.187866
0.199412
0.215078
0.234498
0.252457
0.254494
0.254533
0.263514
0.250431
0.264016
0.242635
0.260209
0.231215
0.252542
0.216078
0.240929
0.195501
0.224296
0.167374
0.200232
0.131412
0.166037
0.124512
0.102254
0.117864
0.111359
0.100127
0.100924
0.100013
0.100037
0.100001
0.100001
0.100001
0.100002
0.100002
0.100002
0.100002
0.100003
0.100003
0.100003
0.100003
0.100004
0.100004
0.100004
0.100004
0.100004
0.100005
0.100013
0.100182
0.101761
0.109295
0.126084
0.145872
0.156375
0.161453
0.162757
0.160995
0.160316
0.165947
0.178707
0.19804
0.225453
0.260003
0.267804
0.272734
0.274687
0.28249
0.275144
0.28734
0.271544
0.287728
0.263771
0.283803
0.25148
0.275644
0.23243
0.2619
0.20345
0.239537
0.161825
0.203939
0.153127
0.105959
0.140626
0.127012
0.100277
0.102402
0.100014
0.100059
0.100001
0.100001
0.100001
0.100001
0.100002
0.100002
0.100002
0.100002
0.100003
0.100003
0.100003
0.100003
0.100004
0.100004
0.100004
0.100004
0.100005
0.100008
0.100106
0.101205
0.108088
0.125073
0.144061
0.152835
0.156262
0.152264
0.142003
0.140705
0.148786
0.159831
0.175607
0.199284
0.240751
0.287445
0.284669
0.286931
0.287787
0.296672
0.303387
0.300754
0.311183
0.300374
0.31354
0.295885
0.31187
0.286982
0.30679
0.271252
0.296832
0.24447
0.278716
0.200734
0.246022
0.193356
0.114996
0.17913
0.157852
0.100653
0.106208
0.100015
0.100111
0.100001
0.100001
0.100001
0.100001
0.100001
0.100002
0.100002
0.100002
0.100002
0.100003
0.100003
0.100003
0.100003
0.100004
0.100004
0.100004
0.100004
0.100006
0.10005
0.100807
0.106258
0.12265
0.141148
0.149053
0.150261
0.140615
0.126009
0.126631
0.136212
0.148935
0.166814
0.193001
0.231976
0.281143
0.277531
0.308323
0.30734
0.307169
0.308367
0.318707
0.323745
0.323451
0.329744
0.323509
0.33092
0.321177
0.330678
0.315597
0.328185
0.304541
0.322253
0.283249
0.309843
0.243986
0.284597
0.236988
0.133931
0.223559
0.20068
0.101657
0.115265
0.100017
0.100242
0.1
0.100001
0.100001
0.100001
0.100001
0.100001
0.100002
0.100002
0.100002
0.100002
0.100003
0.100003
0.100003
0.100003
0.100004
0.100004
0.100004
0.100005
0.100024
0.100448
0.104361
0.119065
0.137901
0.145282
0.14431
0.130285
0.115927
0.116106
0.12573
0.145155
0.171485
0.200683
0.23762
0.276821
0.277032
0.305708
0.304628
0.326352
0.324849
0.326228
0.326809
0.333274
0.334996
0.335476
0.337842
0.336429
0.33947
0.336226
0.341056
0.333846
0.341388
0.327417
0.339182
0.312715
0.331487
0.282423
0.313274
0.275895
0.167745
0.263232
0.241827
0.1041
0.132366
0.100022
0.100547
0.1
0.1
0.100001
0.100001
0.100001
0.100001
0.100001
0.100002
0.100002
0.100002
0.100002
0.100003
0.100003
0.100003
0.100003
0.100004
0.100004
0.100004
0.100013
0.100201
0.10264
0.114959
0.134389
0.141879
0.139121
0.122291
0.109942
0.109116
0.115789
0.139072
0.174712
0.217965
0.256313
0.289841
0.303895
0.304694
0.322305
0.319214
0.332745
0.329977
0.335111
0.334468
0.338436
0.338143
0.340653
0.340333
0.343418
0.343844
0.346126
0.348514
0.347365
0.352995
0.344791
0.354761
0.334301
0.350371
0.311257
0.335614
0.305749
0.208257
0.294781
0.276235
0.109447
0.160266
0.100048
0.101818
0.1
0.1
0.100001
0.100001
0.100001
0.100001
0.100001
0.100002
0.100002
0.100002
0.100002
0.100003
0.100003
0.100003
0.100003
0.100004
0.100004
0.100008
0.100096
0.101372
0.11075
0.130354
0.138935
0.135455
0.116912
0.106766
0.105228
0.108677
0.123438
0.159393
0.206336
0.24886
0.281414
0.304554
0.295426
0.315282
0.310756
0.326376
0.321785
0.33215
0.327737
0.337224
0.335276
0.339351
0.337315
0.343064
0.340741
0.348711
0.347687
0.356265
0.357069
0.362313
0.366984
0.363503
0.372652
0.355063
0.371768
0.334837
0.358198
0.330619
0.246624
0.321547
0.306118
0.124794
0.205439
0.100085
0.104211
0.1
0.100001
0.100001
0.100001
0.100001
0.100001
0.100001
0.100002
0.100002
0.100002
0.100002
0.100003
0.100003
0.100003
0.100003
0.100004
0.100005
0.100047
0.100711
0.106835
0.125234
0.136365
0.133459
0.114531
0.105432
0.103637
0.104754
0.111199
0.12881
0.165168
0.215673
0.255077
0.28422
0.267109
0.296873
0.281252
0.315868
0.307956
0.321825
0.313971
0.322722
0.314974
0.333714
0.328885
0.336432
0.330806
0.344793
0.339502
0.356178
0.353254
0.368412
0.36705
0.375886
0.375298
0.379894
0.380601
0.378155
0.385
0.35895
0.38222
0.355802
0.283174
0.34824
0.339078
0.316091
0.148223
0.248236
0.100244
0.109491
0.100001
0.100001
0.100001
0.100001
0.100001
0.100001
0.100001
0.100002
0.100002
0.100002
0.100002
0.100003
0.100003
0.100003
0.100003
0.100004
0.100021
0.100427
0.103774
0.119167
0.133878
0.132507
0.114525
0.105336
0.103392
0.103332
0.105113
0.112088
0.128892
0.157268
0.189001
0.196357
0.261334
0.226818
0.271923
0.249235
0.303536
0.289759
0.305224
0.292785
0.305558
0.293842
0.323806
0.315442
0.331901
0.322617
0.347411
0.339403
0.363835
0.358078
0.373243
0.369534
0.377747
0.372586
0.382079
0.372733
0.389911
0.38144
0.384743
0.393243
0.391671
0.368133
0.383813
0.33084
0.293444
0.321174
0.359466
0.378615
0.381815
0.353511
0.189743
0.309771
0.295107
0.260224
0.102829
0.134936
0.100001
0.100001
0.100001
0.100001
0.100001
0.100001
0.100001
0.100002
0.100002
0.100002
0.100002
0.100003
0.100003
0.100003
0.100004
0.100011
0.100178
0.10186
0.113006
0.130565
0.132412
0.115383
0.105828
0.103625
0.103219
0.103372
0.104901
0.110248
0.120004
0.129555
0.12999
0.157096
0.122705
0.221456
0.187618
0.233855
0.205702
0.277009
0.257414
0.279756
0.262413
0.286113
0.270512
0.311941
0.299819
0.329769
0.318158
0.350099
0.340247
0.364252
0.357142
0.366174
0.359427
0.359374
0.347654
0.358057
0.350003
0.3381
0.388966
0.377552
0.344904
0.363254
0.395131
0.393867
0.396987
0.39078
0.394436
0.346006
0.337515
0.373923
0.391145
0.393396
0.368339
0.279978
0.211249
0.255418
0.327271
0.315401
0.143982
0.244648
0.211432
0.161679
0.100002
0.100001
0.100001
0.100001
0.100001
0.100001
0.100001
0.100002
0.100002
0.100002
0.100002
0.100003
0.100003
0.100003
0.100006
0.100074
0.10088
0.107712
0.125504
0.132296
0.11765
0.107603
0.104578
0.103732
0.103434
0.10314
0.103378
0.104989
0.106777
0.106799
0.104405
0.122222
0.108748
0.173986
0.143199
0.190499
0.163389
0.241703
0.217604
0.25258
0.232532
0.274802
0.257692
0.304991
0.290527
0.328731
0.315968
0.348012
0.33747
0.352177
0.343866
0.33875
0.332048
0.330287
0.322792
0.318417
0.314625
0.32876
0.3121
0.324735
0.315206
0.378474
0.360728
0.319417
0.340242
0.392875
0.398863
0.395535
0.379814
0.399918
0.361736
0.354259
0.387688
0.400348
0.400014
0.383129
0.30217
0.287112
0.345467
0.335703
0.225119
0.243739
0.253253
0.280954
0.270289
0.100002
0.100001
0.100001
0.100001
0.100001
0.100001
0.100001
0.100002
0.100002
0.100002
0.100002
0.100003
0.100003
0.100004
0.100031
0.10054
0.104019
0.118875
0.13145
0.122233
0.110385
0.107185
0.105937
0.104849
0.103463
0.10226
0.101386
0.101319
0.101272
0.100805
0.10213
0.100545
0.110275
0.104406
0.139482
0.121325
0.165705
0.145294
0.21085
0.188154
0.23921
0.21978
0.271625
0.254895
0.302187
0.287401
0.325866
0.313518
0.33407
0.324287
0.326751
0.32214
0.313189
0.312866
0.313862
0.315791
0.307896
0.302779
0.301085
0.301686
0.3017
0.288363
0.300922
0.293375
0.360105
0.336484
0.292472
0.312627
0.382354
0.398292
0.38601
0.361172
0.400669
0.377676
0.371396
0.398718
0.402618
0.403888
0.396498
0.325286
0.315979
0.363936
0.355685
0.289509
0.262777
0.30656
0.31451
0.311421
0.100001
0.100001
0.100001
0.100001
0.100001
0.100001
0.100001
0.100002
0.100002
0.100002
0.100002
0.100003
0.100003
0.100013
0.100256
0.101893
0.112003
0.128725
0.126516
0.113299
0.110474
0.110803
0.109782
0.106193
0.103175
0.101324
0.100497
0.100245
0.100154
0.100138
0.101204
0.100416
0.107193
0.103069
0.127897
0.115105
0.160457
0.142857
0.199486
0.179379
0.23748
0.219957
0.273095
0.258492
0.300609
0.287143
0.314073
0.303512
0.318642
0.312389
0.31742
0.318784
0.319582
0.320428
0.304508
0.308096
0.312391
0.317021
0.290425
0.291111
0.294849
0.300124
0.27874
0.281966
0.274161
0.281239
0.335049
0.308311
0.272108
0.285896
0.364271
0.390273
0.369137
0.336233
0.394774
0.392969
0.388173
0.40449
0.399262
0.403228
0.404798
0.347191
0.339889
0.381731
0.374244
0.324681
0.207954
0.29639
0.338142
0.336326
0.100001
0.1
0.100001
0.100001
0.100001
0.100001
0.100001
0.100002
0.100002
0.100002
0.100002
0.100003
0.100006
0.100094
0.100882
0.106602
0.122867
0.12786
0.117721
0.113135
0.115422
0.116543
0.113703
0.107653
0.102956
0.100831
0.100174
0.100051
0.100036
0.100127
0.100054
0.100862
0.100262
0.106076
0.102418
0.12633
0.113603
0.167605
0.146296
0.202946
0.186034
0.243417
0.227695
0.268327
0.254899
0.292366
0.280662
0.304316
0.29484
0.324236
0.322017
0.321653
0.326348
0.329984
0.331368
0.306965
0.31508
0.323734
0.332535
0.284605
0.291047
0.299948
0.310766
0.268775
0.275003
0.270861
0.280915
0.307042
0.282255
0.265366
0.268207
0.340253
0.37523
0.34649
0.30897
0.382274
0.404243
0.40239
0.40642
0.38963
0.396727
0.408943
0.365996
0.359019
0.397903
0.391096
0.336372
0.158236
0.271802
0.356179
0.353206
0.100001
0.1
0.100001
0.100001
0.100001
0.100001
0.100001
0.100002
0.100002
0.100002
0.100002
0.100004
0.100035
0.100543
0.103217
0.115517
0.12746
0.122956
0.115505
0.118744
0.122284
0.121656
0.116855
0.108773
0.102905
0.100568
0.100065
0.100014
0.100011
0.100056
0.100019
0.100453
0.100141
0.104665
0.101556
0.126446
0.112204
0.168905
0.143994
0.210655
0.19133
0.24019
0.223981
0.254344
0.237946
0.283197
0.269702
0.314663
0.303337
0.363311
0.364142
0.359401
0.362819
0.341081
0.348729
0.35517
0.360061
0.322835
0.335513
0.348182
0.360239
0.291153
0.303607
0.318047
0.333629
0.269654
0.280124
0.280674
0.293163
0.281875
0.266848
0.268925
0.264064
0.314037
0.354416
0.321532
0.284556
0.363714
0.41049
0.411515
0.403166
0.373753
0.384489
0.40945
0.383586
0.3767
0.410794
0.407305
0.334933
0.13667
0.247616
0.371334
0.363884
0.1
0.1
0.100001
0.100001
0.100001
0.100001
0.100001
0.100002
0.100002
0.100002
0.100003
0.100014
0.100249
0.101419
0.108881
0.125112
0.125865
0.118929
0.120257
0.126469
0.128406
0.125723
0.118522
0.109102
0.102444
0.100309
0.10003
0.100008
0.100008
0.100007
0.100027
0.100011
0.10019
0.100075
0.10239
0.100673
0.121639
0.107965
0.157057
0.130309
0.205245
0.18294
0.22027
0.200905
0.250466
0.229383
0.28813
0.27015
0.354065
0.347762
0.344107
0.394168
0.394021
0.386917
0.391549
0.371074
0.380169
0.387248
0.392003
0.349695
0.365405
0.380091
0.393126
0.309083
0.326709
0.345369
0.363954
0.28108
0.296487
0.299364
0.315139
0.267356
0.263837
0.280878
0.26833
0.290399
0.33119
0.29897
0.269689
0.342408
0.414209
0.417362
0.395495
0.355104
0.369329
0.405863
0.400923
0.393032
0.420033
0.420686
0.329254
0.116553
0.221629
0.3844
0.371201
0.1
0.1
0.100001
0.100001
0.100001
0.100001
0.100001
0.100002
0.100002
0.100002
0.100006
0.100087
0.100761
0.104465
0.118386
0.126011
0.122989
0.121403
0.128396
0.133556
0.133401
0.128362
0.119084
0.108137
0.101569
0.100152
0.100016
0.100007
0.100007
0.100006
0.100015
0.100008
0.100101
0.100039
0.101026
0.100321
0.111246
0.103334
0.131645
0.113607
0.179377
0.155617
0.206831
0.183103
0.268857
0.240179
0.322398
0.296952
0.380069
0.370884
0.378163
0.366284
0.420175
0.417781
0.404475
0.411904
0.403976
0.412261
0.417783
0.420305
0.381715
0.397892
0.411967
0.423475
0.335701
0.356665
0.377075
0.395987
0.301282
0.321016
0.325674
0.344068
0.264743
0.267156
0.301515
0.279732
0.273992
0.309708
0.28213
0.265979
0.322854
0.415325
0.422223
0.384308
0.338341
0.35565
0.399551
0.416966
0.408064
0.427173
0.43076
0.326988
0.114701
0.223172
0.396804
0.378909
0.1
0.1
0.100001
0.100001
0.100001
0.100001
0.100001
0.100002
0.100002
0.100003
0.10003
0.100457
0.102021
0.11071
0.124585
0.125383
0.123644
0.128534
0.136213
0.13941
0.137103
0.129474
0.118603
0.105974
0.100837
0.100067
0.100009
0.100006
0.100006
0.100007
0.100006
0.100011
0.100008
0.100071
0.100025
0.100615
0.100219
0.104876
0.10168
0.119553
0.108493
0.159249
0.137372
0.211083
0.183241
0.304499
0.274542
0.357324
0.344194
0.331423
0.39607
0.38713
0.380471
0.371011
0.434737
0.4271
0.408235
0.41773
0.432165
0.437782
0.439988
0.439344
0.412774
0.427017
0.438481
0.446795
0.367024
0.388725
0.408325
0.425263
0.328254
0.351253
0.356423
0.376151
0.266803
0.276785
0.326676
0.298214
0.269107
0.294345
0.275638
0.267515
0.309594
0.414217
0.426171
0.374218
0.327526
0.347676
0.394289
0.431022
0.423144
0.433845
0.439963
0.333199
0.131747
0.245423
0.409533
0.390745
0.1
0.1
0.100001
0.100001
0.100001
0.100001
0.100001
0.100002
0.100002
0.100011
0.10018
0.100939
0.105415
0.119403
0.125496
0.125714
0.128302
0.136442
0.143016
0.143959
0.139072
0.129614
0.116017
0.103882
0.100344
0.100029
0.100007
0.100006
0.100006
0.100007
0.100006
0.10001
0.100007
0.100061
0.10002
0.100527
0.1002
0.103417
0.101345
0.118732
0.108256
0.157653
0.135709
0.242009
0.209599
0.318828
0.306245
0.287623
0.361686
0.35099
0.329544
0.339397
0.398686
0.389507
0.372719
0.364912
0.438895
0.427933
0.402561
0.41554
0.452168
0.454118
0.453227
0.447909
0.439185
0.450076
0.458344
0.463645
0.399064
0.41925
0.436244
0.449913
0.35779
0.383684
0.388257
0.408119
0.273215
0.2912
0.351759
0.318616
0.270733
0.288224
0.277564
0.27173
0.305366
0.413936
0.42955
0.370237
0.325473
0.348102
0.393843
0.442879
0.43725
0.441197
0.44919
0.354167
0.261164
0.340597
0.422867
0.40745
0.1
0.1
0.100001
0.100001
0.100001
0.100001
0.100001
0.100002
0.100005
0.100059
0.100604
0.10248
0.111606
0.12414
0.126208
0.128186
0.135869
0.143795
0.148509
0.147019
0.139728
0.127821
0.112334
0.101787
0.100138
0.100013
0.100006
0.100007
0.100006
0.100006
0.100007
0.100006
0.100009
0.100007
0.100059
0.100019
0.100519
0.100211
0.103406
0.10134
0.12786
0.111689
0.178807
0.151273
0.258673
0.226691
0.31377
0.303426
0.28046
0.269162
0.357255
0.348908
0.322675
0.330344
0.390936
0.381189
0.354134
0.348121
0.438501
0.423089
0.388049
0.405346
0.465525
0.464723
0.459441
0.450473
0.460606
0.468758
0.473997
0.475736
0.429065
0.446229
0.459715
0.470166
0.385667
0.415281
0.417001
0.437617
0.28447
0.308686
0.37706
0.340909
0.275127
0.290051
0.284197
0.281476
0.307452
0.415872
0.435521
0.372133
0.328532
0.353153
0.397524
0.453571
0.450004
0.450058
0.458772
0.392197
0.35862
0.39397
0.43624
0.423392
0.1
0.1
0.100001
0.100001
0.100001
0.100001
0.100002
0.100003
0.100019
0.100283
0.101073
0.105845
0.119121
0.125872
0.12803
0.134104
0.143311
0.150158
0.152577
0.148403
0.139062
0.124288
0.107727
0.100709
0.100051
0.100008
0.100006
0.100006
0.100006
0.100006
0.100007
0.100006
0.100009
0.100007
0.100064
0.100019
0.100569
0.100235
0.104442
0.101531
0.13269
0.112897
0.194199
0.162207
0.257545
0.243238
0.218309
0.298903
0.290335
0.26023
0.25164
0.342829
0.337059
0.305842
0.311405
0.373355
0.362211
0.328634
0.323706
0.434737
0.415722
0.371139
0.393772
0.474902
0.469788
0.461425
0.450111
0.478047
0.482976
0.484197
0.483238
0.455395
0.468755
0.478664
0.486206
0.41196
0.442888
0.442231
0.462613
0.300329
0.329682
0.40296
0.365381
0.285902
0.297956
0.296878
0.299143
0.315994
0.422837
0.44545
0.380511
0.340694
0.370973
0.409776
0.463246
0.460962
0.459919
0.467902
0.415635
0.341383
0.416341
0.450298
0.438992
0.1
0.1
0.100001
0.100001
0.100001
0.100001
0.100002
0.100007
0.100094
0.100696
0.102678
0.111513
0.123889
0.127654
0.132131
0.141544
0.149939
0.155298
0.155073
0.148595
0.136292
0.119135
0.103524
0.100253
0.100019
0.100006
0.100006
0.100006
0.100006
0.100006
0.100007
0.100006
0.100009
0.100007
0.100068
0.100019
0.100573
0.100233
0.104661
0.101586
0.128738
0.111109
0.187751
0.157217
0.241777
0.231029
0.182387
0.1957
0.273953
0.267587
0.229762
0.223155
0.319999
0.315997
0.27906
0.283023
0.351027
0.337275
0.300033
0.293957
0.428532
0.406353
0.354539
0.380974
0.478523
0.471318
0.460881
0.446835
0.490512
0.491286
0.490329
0.486231
0.476979
0.486536
0.493176
0.49645
0.437191
0.465579
0.464965
0.482146
0.32326
0.355452
0.429297
0.392341
0.303418
0.312158
0.314411
0.319995
0.336737
0.43664
0.457348
0.402796
0.36852
0.401223
0.429796
0.471678
0.470627
0.469372
0.475829
0.435979
0.284811
0.398834
0.46235
0.452047
0.1
0.1
0.100001
0.100001
0.100001
0.100001
0.100003
0.10003
0.100362
0.101161
0.105778
0.117897
0.126485
0.130723
0.138261
0.148542
0.155515
0.159007
0.155993
0.146968
0.131673
0.112623
0.101281
0.100082
0.100009
0.100006
0.100006
0.100006
0.100006
0.100006
0.100006
0.100007
0.100006
0.100009
0.100007
0.10006
0.100018
0.100511
0.100222
0.104011
0.101393
0.116879
0.106774
0.158224
0.136201
0.215284
0.20611
0.16541
0.172109
0.239955
0.235226
0.193365
0.188825
0.289877
0.286379
0.244056
0.247695
0.330106
0.311426
0.272837
0.262947
0.420754
0.395621
0.337192
0.367066
0.479891
0.470855
0.458072
0.441648
0.497026
0.496196
0.492945
0.487436
0.492996
0.499159
0.501539
0.502102
0.461483
0.484851
0.48619
0.498032
0.345778
0.379725
0.457722
0.418696
0.324388
0.337768
0.346547
0.345476
0.369486
0.45193
0.467915
0.427917
0.402446
0.428518
0.447865
0.479268
0.478408
0.477405
0.483031
0.438767
0.236961
0.374667
0.473377
0.458941
0.1
0.1
0.100001
0.100001
0.100001
0.100002
0.10001
0.100125
0.100713
0.102619
0.110589
0.123051
0.129305
0.135246
0.145042
0.154573
0.160059
0.161123
0.155582
0.143328
0.125176
0.105878
0.100412
0.100026
0.100006
0.100006
0.100006
0.100006
0.100006
0.100006
0.100006
0.100007
0.100006
0.100009
0.100007
0.100046
0.100015
0.100397
0.100185
0.10261
0.100984
0.106145
0.102688
0.133449
0.124853
0.112896
0.18385
0.178291
0.13885
0.14339
0.20175
0.197494
0.157782
0.153704
0.256269
0.251443
0.206368
0.211635
0.309553
0.287826
0.247946
0.235475
0.412539
0.384695
0.319723
0.353018
0.479631
0.468676
0.454181
0.43571
0.501651
0.499107
0.494245
0.487537
0.504018
0.506455
0.507061
0.506791
0.489255
0.501136
0.506019
0.508621
0.378376
0.41971
0.496019
0.464048
0.366223
0.377656
0.396222
0.3977
0.40936
0.464176
0.476927
0.447622
0.434207
0.451492
0.462294
0.485074
0.484974
0.484586
0.489504
0.42874
0.131098
0.276577
0.480045
0.458429
0.1
0.1
0.100001
0.100001
0.100001
0.100004
0.10004
0.100402
0.101109
0.105257
0.115975
0.126582
0.132984
0.140871
0.151592
0.159533
0.163427
0.161721
0.15318
0.137651
0.117062
0.102001
0.100119
0.10001
0.100006
0.100006
0.100006
0.100006
0.100006
0.100006
0.100006
0.100007
0.100006
0.100008
0.100007
0.100032
0.100013
0.10028
0.100122
0.101215
0.100557
0.102313
0.101032
0.119038
0.116467
0.103942
0.106999
0.150492
0.147205
0.12183
0.124799
0.168311
0.16279
0.137355
0.133813
0.225701
0.217806
0.174386
0.181229
0.289177
0.265214
0.224966
0.211163
0.405497
0.375206
0.303181
0.340478
0.478216
0.466062
0.450299
0.43045
0.504483
0.500325
0.494436
0.486744
0.510969
0.511839
0.511559
0.509326
0.509807
0.512642
0.51374
0.514449
0.4354
0.473189
0.507879
0.497424
0.423144
0.42576
0.446684
0.450594
0.445385
0.474613
0.483474
0.461103
0.453937
0.459999
0.468942
0.490853
0.489134
0.490961
0.494055
0.403689
0.104929
0.179554
0.480909
0.453223
0.1
0.1
0.100001
0.100001
0.100002
0.100013
0.100146
0.100735
0.102349
0.109224
0.120676
0.130081
0.137398
0.146904
0.157348
0.163415
0.165334
0.160717
0.148702
0.129901
0.108221
0.10059
0.100032
0.100006
0.100006
0.100006
0.100005
0.100006
0.100006
0.100006
0.100006
0.100006
0.100007
0.100006
0.100008
0.100007
0.10002
0.10001
0.100149
0.100052
0.100511
0.100284
0.103669
0.102179
0.101176
0.100698
0.113496
0.109887
0.106026
0.130515
0.127602
0.117129
0.120836
0.146058
0.141593
0.133562
0.1307
0.199441
0.189348
0.151574
0.158537
0.269323
0.243389
0.203857
0.190546
0.403224
0.371958
0.29372
0.335381
0.476641
0.463967
0.447837
0.427821
0.505564
0.500699
0.494225
0.486069
0.515969
0.515969
0.514138
0.510402
0.513055
0.517715
0.517837
0.521193
0.478982
0.492706
0.506289
0.498912
0.461618
0.453534
0.464454
0.476587
0.458678
0.477753
0.488965
0.467358
0.462353
0.468485
0.475748
0.492763
0.490823
0.494351
0.496058
0.347022
0.100967
0.13971
0.479905
0.437836
0.1
0.1
0.100001
0.100001
0.100004
0.100046
0.100408
0.101031