/*--------------------------------*- C++ -*----------------------------------*\
  =========                 |
  \\      /  F ield         | OpenFOAM: The Open Source CFD Toolbox
   \\    /   O peration     | Website:  https://openfoam.org
    \\  /    A nd           | Version:  dev
     \\/     M anipulation  |
\*---------------------------------------------------------------------------*/
FoamFile
{
    version     2.0;
    format      ascii;
    class       volScalarField;
    location    "2500";
    object      alphat;
}
// * * * * * * * * * * * * * * * * * * * * * * * * * * * * * * * * * * * * * //

dimensions      [1 -1 -1 0 0 0 0];

internalField   nonuniform List<scalar> 
9846
(
0.000143594
0.000148518
0.000139758
0.000140045
0.000171658
0.000127034
0.000130858
0.000183035
0.000161772
0.000121925
0.000126834
0.000180667
0.000184527
0.000140801
0.000119692
0.000123379
0.000169694
0.00020007
0.000170678
0.000129304
0.000119116
0.000121897
0.00015442
0.000202761
0.000194195
0.000147819
0.000123812
0.000118791
0.000121116
0.000143411
0.000199193
0.000208563
0.000173832
0.000133551
0.000121568
0.00011823
0.000120508
0.000134762
0.000186591
0.000218018
0.000198376
0.000151534
0.000126519
0.000120656
0.000117657
0.000119877
0.000129215
0.000167747
0.000218297
0.000214708
0.000173914
0.00013676
0.00012316
0.000119831
0.000117375
0.000119316
0.000125823
0.000153585
0.000213007
0.000225972
0.000198329
0.000152783
0.00012866
0.000121723
0.000118809
0.000117276
0.000118877
0.000124094
0.000142871
0.000198031
0.000232698
0.000218075
0.000172085
0.000139126
0.00012446
0.000120765
0.00011795
0.000117248
0.000118571
0.000123185
0.000135637
0.000178009
0.000231486
0.000230748
0.000195549
0.000152066
0.000130802
0.000122436
0.000119681
0.000117421
0.000117229
0.000118384
0.000122632
0.000131122
0.000161833
0.000224554
0.000240248
0.000217549
0.000169806
0.000139745
0.000125736
0.000121281
0.000118512
0.000117164
0.000117203
0.000118304
0.000122245
0.00012838
0.000149997
0.000207973
0.000245277
0.000234131
0.000190714
0.000151114
0.00013211
0.000123036
0.000120196
0.000117625
0.000117047
0.000117161
0.000118272
0.000121895
0.000126682
0.000141709
0.000186621
0.000243378
0.000244255
0.00021389
0.000166587
0.000139894
0.000126914
0.000121566
0.000118987
0.000117086
0.000116997
0.000117123
0.000118291
0.000121535
0.0001257
0.000136311
0.000169436
0.000235551
0.00025383
0.00023352
0.000186032
0.000149907
0.000132809
0.000123548
0.000120441
0.000117873
0.000116802
0.000116945
0.000117109
0.000118352
0.000121272
0.000125095
0.000132943
0.000157017
0.000217991
0.000257678
0.000248573
0.000207539
0.000163207
0.000139763
0.000127734
0.000121743
0.000119299
0.000117082
0.000116697
0.00011687
0.000117112
0.000118409
0.000121126
0.000124696
0.000130857
0.000148067
0.00019592
0.000255297
0.000257464
0.000229713
0.000180727
0.000148314
0.000133147
0.000124087
0.00012053
0.000118127
0.000116624
0.000116647
0.000116814
0.000117114
0.00011846
0.000121096
0.000124448
0.000129519
0.000142143
0.000177978
0.000247166
0.000266838
0.000247678
0.00020071
0.000160152
0.000139324
0.000128332
0.000121881
0.00011944
0.000117168
0.000116419
0.000116591
0.000116805
0.000117109
0.000118502
0.000121145
0.000124224
0.000128651
0.000138278
0.00016523
0.000229586
0.000270547
0.000261876
0.000221904
0.000175069
0.000147012
0.000133329
0.000124711
0.000120522
0.00011837
0.000116552
0.000116368
0.000116554
0.000116833
0.000117104
0.000118514
0.000121234
0.000123981
0.000128087
0.000135652
0.000155685
0.00020727
0.00026796
0.000270466
0.000243369
0.000193432
0.000157046
0.000138855
0.000128772
0.000122132
0.000119477
0.000117419
0.000116247
0.000116391
0.000116564
0.000116869
0.000117105
0.000118507
0.000121282
0.000123829
0.000127733
0.000133878
0.000148931
0.00018846
0.000260832
0.000279819
0.000260583
0.00021373
0.000170126
0.000145825
0.000133284
0.000125297
0.000120539
0.000118595
0.000116734
0.000116188
0.00011647
0.000116623
0.000116906
0.000117113
0.000118501
0.000121259
0.00012371
0.000127524
0.000132763
0.000144246
0.000174991
0.000244706
0.000285362
0.000274873
0.000234064
0.000186252
0.000154492
0.000138509
0.000129187
0.000122662
0.000119499
0.000117867
0.000116368
0.000116289
0.000116614
0.000116722
0.000116936
0.000117126
0.000118499
0.000121179
0.000123611
0.000127314
0.000131975
0.000141058
0.000164444
0.000222349
0.000282709
0.000284469
0.000255397
0.000204698
0.000165746
0.000144837
0.000133415
0.000126009
0.000120849
0.000118778
0.000117359
0.000116307
0.000116515
0.000116828
0.000116872
0.000116961
0.000117135
0.000118495
0.000121056
0.000123529
0.000126988
0.000131293
0.000138768
0.000156796
0.000201561
0.000277624
0.000293446
0.000273358
0.000225257
0.000179697
0.000152674
0.000138581
0.000129777
0.000123624
0.000119752
0.000118327
0.000117172
0.0001165
0.00011683
0.000117101
0.000117069
0.000117009
0.000117145
0.000118472
0.000120891
0.000123439
0.000126562
0.00013058
0.000137173
0.000151229
0.000187044
0.000264874
0.000302357
0.000288082
0.000245433
0.00019656
0.000162599
0.000144568
0.00013416
0.000127077
0.000121919
0.000119125
0.000118174
0.00011732
0.000116939
0.000117226
0.000117403
0.000117263
0.000117046
0.000117129
0.000118448
0.000120672
0.000123288
0.000126142
0.000129933
0.000136054
0.000147247
0.000175835
0.000243837
0.000302456
0.000300457
0.000266513
0.000215265
0.000174681
0.000152089
0.000139243
0.000130972
0.000125122
0.000120766
0.000118893
0.000118332
0.000117829
0.000117632
0.00011776
0.000117756
0.000117454
0.000117084
0.000117097
0.000118413
0.000120399
0.00012303
0.000125693
0.000129396
0.000135007
0.000144439
0.000166937
0.000221375
0.000297919
0.000309419
0.000286515
0.000235781
0.000189592
0.000160695
0.000145436
0.000135614
0.000128774
0.000123791
0.000120255
0.000119022
0.000118833
0.000118694
0.00011861
0.000118564
0.000118311
0.00011777
0.000117148
0.00011704
0.000118343
0.000120115
0.000122703
0.000125168
0.000128862
0.000133896
0.000142237
0.000160496
0.000203679
0.000290539
0.000320416
0.000302652
0.000256717
0.000206643
0.00017186
0.000152438
0.000141139
0.000133132
0.000127427
0.000123137
0.000120295
0.000119528
0.000119646
0.000119798
0.000119815
0.000119617
0.000119109
0.000118232
0.000117262
0.000116965
0.000118245
0.000119794
0.000122366
0.000124602
0.000128262
0.000132815
0.000140572
0.000155625
0.000191872
0.000274252
0.000327566
0.000317355
0.000277527
0.000225984
0.000184656
0.000161234
0.000147586
0.000138431
0.000131743
0.000126911
0.000123127
0.000120869
0.000120426
0.000120673
0.000120939
0.000120942
0.000120576
0.000119881
0.000118765
0.000117462
0.000116882
0.00011814
0.00011946
0.000121988
0.000124039
0.00012754
0.000131788
0.000139258
0.00015194
0.000182031
0.000251692
0.000325105
0.000329174
0.000299278
0.000246231
0.000200304
0.000171372
0.000155345
0.000144841
0.000137203
0.000131372
0.000127124
0.000123824
0.000122058
0.000121717
0.000121898
0.000122111
0.000121982
0.000121379
0.000120452
0.000119248
0.000117755
0.000116845
0.000118023
0.000119154
0.00012155
0.000123475
0.000126674
0.000130736
0.000137765
0.00014906
0.000174004
0.000229929
0.000319723
0.000340458
0.000318944
0.000267876
0.000217715
0.000183506
0.00016442
0.000152649
0.000144
0.000137204
0.000131953
0.000128214
0.000125362
0.000123968
0.000123508
0.00012352
0.000123602
0.000123268
0.000122326
0.000120971
0.000119589
0.000118064
0.000116861
0.000117882
0.000118834
0.000121051
0.000122871
0.000125742
0.000129717
0.000136098
0.000146711
0.000167901
0.000213406
0.000311693
0.000353228
0.000335515
0.000289314
0.000237138
0.000197663
0.00017499
0.000161898
0.000152315
0.000144825
0.000138549
0.000133853
0.000129834
0.000127506
0.000126369
0.000125925
0.000125779
0.000125497
0.000124788
0.000123441
0.000121482
0.000119763
0.000118229
0.000117106
0.000116968
0.000117732
0.000118486
0.000120524
0.000122266
0.000124821
0.000128745
0.000134631
0.000145099
0.000163172
0.000202745
0.000293917
0.000360185
0.00035218
0.000311646
0.000257953
0.000213562
0.00018745
0.000172845
0.000162668
0.000154614
0.000147584
0.000140932
0.000136337
0.000132636
0.000130446
0.000129233
0.000128649
0.000128284
0.000127673
0.000126583
0.0001247
0.000122188
0.000119888
0.000117468
0.000118201
0.000117128
0.000117017
0.00011758
0.000118135
0.00011998
0.000121671
0.000123929
0.000127762
0.000133214
0.000143333
0.000159392
0.000193768
0.000270335
0.000357024
0.0003666
0.000335672
0.000279867
0.000232021
0.000201422
0.000185609
0.000175648
0.000167456
0.000159385
0.000151713
0.000144436
0.000138622
0.000134505
0.000131999
0.000130782
0.000130194
0.000129749
0.000129188
0.000128239
0.000126004
0.000122161
0.000125131
0.000118996
0.000122765
0.000121168
0.00011752
0.000118154
0.000117159
0.000117108
0.000117425
0.000117805
0.000119479
0.000121057
0.000123016
0.000126734
0.000131791
0.000141324
0.000156419
0.000185706
0.000247455
0.000350926
0.000381066
0.000357223
0.000303228
0.000251369
0.000217202
0.000200034
0.000191371
0.000185214
0.000176768
0.000168625
0.000159952
0.000152609
0.000146579
0.000141202
0.000136012
0.000132154
0.000129636
0.000128047
0.000127706
0.000127176
0.000127079
0.000116458
0.000125531
0.000119024
0.000123578
0.000121245
0.000117643
0.000118151
0.000117214
0.000117271
0.000117277
0.000117511
0.000119073
0.000120403
0.000122014
0.00012567
0.000130349
0.00013931
0.000153825
0.00017938
0.000229529
0.000342269
0.000395359
0.000376987
0.00032642
0.000272555
0.000233996
0.000215458
0.000209456
0.000208486
0.000207906
0.000203255
0.000207233
0.000208498
0.000206992
0.000198146
0.000181789
0.000165129
0.00015215
0.000142103
0.000132625
0.000123496
0.000111464
0.000121228
0.000109789
0.000106864
0.000111558
0.00011904
0.000108875
0.00010603
0.000117824
0.000118199
0.0001173
0.000117523
0.000117146
0.000117283
0.000118731
0.000119708
0.000120971
0.000124669
0.000128952
0.000137379
0.000151279
0.0001747
0.000217626
0.00032252
0.00040139
0.000396111
0.000352307
0.000294332
0.000251707
0.000232065
0.000228888
0.000235887
0.000253012
0.00028578
0.000317667
0.000363204
0.000392974
0.000398835
0.000373598
0.000328808
0.000277692
0.000220632
0.0001784
0.000148136
0.000110975
0.000108181
0.000108316
0.000109228
0.000102614
0.000102824
0.00010004
0.000104047
9.4653e-05
8.99553e-05
0.00011804
0.000103055
0.000117413
0.000107342
0.000117031
0.000117127
0.000118422
0.000118988
0.000119908
0.000123747
0.000127708
0.000135646
0.000148965
0.00017136
0.000209055
0.000295905
0.000396247
0.000412601
0.000379485
0.000318185
0.000270901
0.000248708
0.000249358
0.000266003
0.000305073
0.000367132
0.000460369
0.000534653
0.000555223
0.00054753
0.000526891
0.000494773
0.000460274
0.000422424
0.000368774
0.000306322
0.000162958
0.000270368
0.000103194
0.0001477
0.000109859
0.000102978
9.67349e-05
0.000108009
9.05253e-05
8.61423e-05
8.43599e-05
7.809e-05
9.75669e-05
8.36782e-05
9.95474e-05
8.69825e-05
0.000116949
0.00011705
0.000118151
0.000118416
0.000118972
0.000122834
0.000126593
0.000134115
0.00014709
0.000168096
0.000202097
0.000270698
0.000389305
0.00042902
0.00040338
0.000343145
0.000290787
0.000265713
0.000268792
0.000295093
0.000354965
0.000457214
0.000571889
0.000613304
0.000619015
0.000606775
0.000577219
0.000546071
0.000514725
0.000486673
0.000464353
0.000444647
0.000347176
0.000422114
0.000250893
0.000339289
0.000136406
0.000239773
0.000103651
0.000126415
9.42418e-05
0.000104452
8.3925e-05
7.32642e-05
7.54277e-05
6.84676e-05
7.96579e-05
7.00966e-05
8.24396e-05
7.27462e-05
0.000116927
0.000117062
0.000117929
0.000117958
0.000118191
0.000121949
0.000125598
0.00013274
0.000145825
0.000164826
0.00019689
0.000249676
0.000376781
0.00044201
0.000425762
0.000369244
0.000312072
0.000282344
0.000286017
0.000320881
0.000395273
0.000530338
0.000624228
0.000648999
0.000632351
0.000602393
0.000562119
0.000528051
0.000499993
0.000478438
0.000466329
0.000462866
0.000454788
0.000473626
0.000409154
0.000454687
0.000331872
0.000403524
0.000226943
0.000324801
0.000118124
0.000210508
0.000104144
0.000111315
9.13138e-05
6.33941e-05
7.43379e-05
6.25084e-05
6.71889e-05
6.05101e-05
7.13909e-05
6.32463e-05
0.000117014
0.000117185
0.000117737
0.00011742
0.000117547
0.000121207
0.000124763
0.000131543
0.00014487
0.000161779
0.000193144
0.000236312
0.000350599
0.000442091
0.000444257
0.000399034
0.00033469
0.000298212
0.0003004
0.000340985
0.000433054
0.00058079
0.000648103
0.000650063
0.000623232
0.000578636
0.000515526
0.000475373
0.000460291
0.000456495
0.000457278
0.000456688
0.000474189
0.00046933
0.000476494
0.000478096
0.000452728
0.000479964
0.000400189
0.00045208
0.000315689
0.000395861
0.00019042
0.000302865
0.000105714
0.000165068
0.000103164
5.5638e-05
9.16766e-05
6.77238e-05
5.88925e-05
5.32139e-05
6.5205e-05
5.76739e-05
0.000117281
0.000117454
0.000117598
0.000116859
0.000117126
0.000120666
0.000124126
0.000130662
0.000143993
0.000159146
0.000189793
0.000227396
0.000321181
0.000435465
0.000460189
0.00042767
0.000359567
0.000315236
0.000311246
0.000353283
0.000459612
0.0006086
0.000655409
0.000643542
0.000585586
0.000502121
0.000439584
0.000422904
0.000429172
0.000435866
0.000433011
0.000434437
0.000456236
0.000444414
0.000476696
0.000464418
0.000486797
0.000483445
0.000482045
0.000493529
0.000450882
0.000482998
0.000388917
0.000447509
0.000285229
0.000378122
0.000137133
0.000257978
0.000118952
5.33601e-05
0.000106858
9.27431e-05
5.37739e-05
4.82636e-05
6.37831e-05
5.61683e-05
0.000117819
0.000117907
0.00011762
0.0001165
0.000117
0.000120337
0.000123646
0.000130114
0.000143334
0.00015719
0.000185819
0.000220589
0.00029506
0.000425735
0.000475307
0.000451931
0.000385252
0.000332037
0.000321218
0.000355332
0.000466963
0.000624395
0.000657209
0.000620201
0.000523953
0.000411691
0.000358259
0.000356294
0.000375012
0.000397117
0.00040892
0.000418064
0.000438627
0.000430903
0.000453325
0.000445712
0.000474915
0.000463967
0.000491374
0.000483269
0.000496418
0.000496611
0.000481979
0.000497217
0.000441115
0.000478647
0.000361554
0.000431984
0.00021974
0.000337388
0.000174963
6.50273e-05
0.000137173
0.000115511
5.06547e-05
4.9882e-05
6.99127e-05
5.96697e-05
0.000119318
0.000118728
0.00011801
0.000116548
0.000117199
0.00012022
0.000123323
0.000129809
0.000142914
0.000156046
0.000181642
0.000216195
0.000273006
0.000402569
0.000480137
0.00047255
0.000414151
0.000351089
0.00032959
0.000356835
0.000465747
0.000627647
0.000656743
0.000591325
0.000462331
0.000337951
0.000290057
0.00028978
0.000304828
0.00032529
0.000359006
0.000395454
0.00042177
0.000439593
0.000432885
0.000454684
0.000446834
0.000473901
0.000464742
0.0004909
0.000484448
0.00050071
0.000500416
0.000497603
0.000507044
0.000474036
0.000499309
0.000417973
0.000470162
0.000306712
0.000400378
0.000262292
0.000102367
0.000208345
0.000155432
4.9621e-05
6.94791e-05
9.8699e-05
6.49104e-05
0.000122918
0.000121052
0.000119068
0.000117188
0.000117715
0.000120325
0.00012322
0.000129739
0.000142777
0.000155583
0.000177889
0.000212264
0.000255926
0.000372656
0.000475263
0.000485976
0.00044483
0.000372451
0.000339292
0.000357467
0.000458855
0.000628399
0.000657381
0.000570982
0.000414398
0.000295212
0.000244854
0.000242106
0.000256639
0.000275714
0.000300127
0.000336618
0.000395525
0.000435424
0.000431604
0.00044167
0.000438979
0.000458104
0.00045506
0.000480311
0.000478738
0.000501533
0.000504742
0.000515438
0.000526116
0.00051827
0.000535736
0.000504176
0.000532744
0.000464334
0.000512242
0.000376925
0.000457008
0.000346712
0.000122747
0.000300879
0.00023755
5.06931e-05
0.000100518
0.000116638
5.68811e-05
0.000131272
0.000128692
0.000121912
0.000118844
0.000118604
0.000120679
0.000123369
0.000130006
0.000142991
0.000155601
0.000174992
0.000208369
0.000244957
0.000344605
0.000466801
0.00049947
0.000471265
0.000396275
0.000349835
0.000354652
0.000439938
0.000624546
0.000660373
0.000566212
0.000387285
0.000275373
0.000227393
0.00021466
0.000227549
0.000245879
0.000265631
0.000303461
0.000359079
0.000425554
0.00041578
0.000450199
0.000447621
0.000453872
0.000451364
0.000479002
0.000480589
0.000510337
0.000516611
0.00053885
0.000552367
0.000558025
0.000580403
0.000562669
0.000590056
0.000551611
0.000586694
0.000518674
0.000569815
0.000446316
0.000522831
0.000428325
0.000170261
0.000397647
0.00034346
6.6237e-05
0.000122711
4.81821e-05
3.69531e-05
0.00014919
0.000148029
0.00012896
0.000121584
0.000119943
0.000121298
0.000123792
0.000130672
0.000143595
0.000155902
0.000173019
0.000204597
0.000236938
0.000318053
0.000446281
0.000505415
0.000491403
0.000422627
0.000361145
0.000353712
0.000415857
0.000611116
0.000663879
0.000569046
0.000379911
0.000270585
0.000227236
0.000208413
0.000206853
0.000233828
0.000264687
0.000304806
0.000358211
0.000410005
0.00039868
0.000444019
0.00044371
0.000482753
0.000484585
0.000481734
0.000482145
0.000522613
0.000528467
0.000566295
0.000577891
0.000598705
0.000613268
0.000608669
0.000619514
0.000605696
0.000613781
0.000599325
0.000607721
0.000582096
0.00060187
0.000522255
0.000587944
0.000513402
0.000263268
0.000490898
0.000449204
9.07433e-05
0.000174139
2.77551e-05
2.97648e-05
0.000153755
0.000172842
0.000148566
0.000127358
0.00012167
0.000122317
0.000124556
0.000131904
0.00014484
0.000156458
0.000171819
0.000201031
0.000230959
0.000295962
0.000418155
0.000503312
0.000504299
0.000451661
0.000376952
0.000355672
0.000391759
0.000576064
0.000669781
0.000577357
0.000383105
0.000274233
0.000231364
0.000215615
0.000201085
0.000220578
0.000263891
0.000317377
0.000370641
0.000444553
0.000445482
0.000457619
0.000487199
0.000492089
0.000540601
0.000546936
0.000531974
0.000535582
0.000588557
0.000596375
0.000622969
0.000629451
0.000626807
0.000631901
0.000617425
0.000619545
0.000608159
0.000606127
0.000602713
0.000596574
0.000603183
0.000595887
0.000588001
0.000602454
0.000581601
0.00037738
0.000565184
0.000533892
0.000113663
0.000266092
8.16273e-06
4.53997e-05
0.000170366
0.000173834
0.000143523
0.000124714
0.000123847
0.000125913
0.000134022
0.000146449
0.000157084
0.000171037
0.000197765
0.000226787
0.000278974
0.000390884
0.000495911
0.000512548
0.000479351
0.000398488
0.000360526
0.000371714
0.000523537
0.000672193
0.000596473
0.000394382
0.00028601
0.00024294
0.000223689
0.000213058
0.00019709
0.000254641
0.000318893
0.000391898
0.000474649
0.000535535
0.000558557
0.000501956
0.000518768
0.000555014
0.00056908
0.000617132
0.000624576
0.000603664
0.000609894
0.000636718
0.000641419
0.000637834
0.000642661
0.000623827
0.000625929
0.00060378
0.000600144
0.000589591
0.000580375
0.000583107
0.000567636
0.000588194
0.000567837
0.000601504
0.000581549
0.000599501
0.0004814
0.000596464
0.000585431
0.000158811
0.000390184
4.91244e-06
6.24428e-05
0.000167465
0.000167636
0.000132691
0.000126282
0.000127757
0.000136815
0.00014811
0.000157619
0.000170215
0.000194775
0.000223378
0.000266452
0.000364849
0.000477986
0.000516458
0.000498621
0.000422609
0.000366897
0.000361721
0.000464014
0.000667967
0.000632395
0.000420538
0.000310499
0.000264295
0.000240535
0.000227162
0.000210089
0.000221619
0.000288211
0.000370494
0.000457362
0.000560809
0.000539496
0.000608817
0.000603742
0.000584981
0.000603541
0.000632877
0.000640889
0.000653433
0.000657786
0.00064556
0.000649467
0.000646606
0.000649674
0.000626252
0.000625148
0.000594977
0.000590165
0.00057409
0.000569256
0.000556824
0.000552707
0.000548339
0.000539821
0.000551432
0.000530403
0.000577908
0.00053794
0.000577956
0.000557739
0.000583062
0.000585094
0.00058876
0.000246409
0.00049322
5.78415e-06
0.000105686
0.000168055
0.000149991
0.000130189
0.000129679
0.000138939
0.000149413
0.000158072
0.000169453
0.000191894
0.000220101
0.000257424
0.00034169
0.000454594
0.000515182
0.000510042
0.000448322
0.000374681
0.000359205
0.000411983
0.000641686
0.000668874
0.000471244
0.000358859
0.000301497
0.000265019
0.000244882
0.000235854
0.00022187
0.000236036
0.000295757
0.000386972
0.000479042
0.000586868
0.000544351
0.000632937
0.000607644
0.000643884
0.000642322
0.000661495
0.000661822
0.00065439
0.000652
0.000652075
0.000653818
0.000623692
0.000621419
0.000585082
0.000578291
0.000565202
0.00056119
0.000552468
0.000553339
0.000544853
0.000559421
0.000534288
0.000550846
0.00051448
0.000524672
0.000528945
0.000504202
0.000512846
0.000555927
0.000526
0.000585615
0.000567645
0.00058375
0.000566009
0.000532939
0.000528292
0.000571496
0.000281594
0.000544026
0.000497772
0.000444867
2.02786e-05
0.00019726
0.000164261
0.00013816
0.00013287
0.000140071
0.00015032
0.000158268
0.000168722
0.000189341
0.000216749
0.000250637
0.000322275
0.000430277
0.000509717
0.000515299
0.000474127
0.000383823
0.000355657
0.000376305
0.000562497
0.000688077
0.000536322
0.000417248
0.0003637
0.000314197
0.000277908
0.000256688
0.000247331
0.000233887
0.000252455
0.000296974
0.000317387
0.000377168
0.000270147
0.000555423
0.000469414
0.000591178
0.000523338
0.000654915
0.00063464
0.000643256
0.000623711
0.000599767
0.000581185
0.000617546
0.000610818
0.000569492
0.000558555
0.000556236
0.00054896
0.000552872
0.000549735
0.000573251
0.000580011
0.000576298
0.000590815
0.00052266
0.000549364
0.000502731
0.000506887
0.000502807
0.000442847
0.000505332
0.00049817
0.000503018
0.000490492
0.000499399
0.000501078
0.00057628
0.000569523
0.000541195
0.000506325
0.000502242
0.000549328
0.000422127
0.000283296
0.000378183
0.000516852
0.000465752
0.000175227
0.000292425
0.000238489
0.000211796
0.000153752
0.000138236
0.000140447
0.000150095
0.000158084
0.000167908
0.000187392
0.000213522
0.000245164
0.000306542
0.000406482
0.000496435
0.00051549
0.000492956
0.000406069
0.000353048
0.000356414
0.000478443
0.000687062
0.000610023
0.000479865
0.000442511
0.000417057
0.000343832
0.000295352
0.00026856
0.000259277
0.000248498
0.00025201
0.000234503
0.000191541
0.000239532
0.000192581
0.000426734
0.000319763
0.000450413
0.000354255
0.000588421
0.000530827
0.000551278
0.000506862
0.00050731
0.000478878
0.000545233
0.000528785
0.000538715
0.000525119
0.000542992
0.000531924
0.000578347
0.000571953
0.000598672
0.000600711
0.000529063
0.000489908
0.000526568
0.000513308
0.000458895
0.000415526
0.000442336
0.00047356
0.000479512
0.000453769
0.000411369
0.000425527
0.000488889
0.000484366
0.000459141
0.00045004
0.000480211
0.000552787
0.000527965
0.000512316
0.000475487
0.000471799
0.000517815
0.000410941
0.000394912
0.000485822
0.000443377
0.000219575
0.000370694
0.000224506
0.000316589
0.000259123
0.000149391
0.000142449
0.000149196
0.000156989
0.00016738
0.000185993
0.000211014
0.000240571
0.000294037
0.00038461
0.000478206
0.000514711
0.000503856
0.00043233
0.000361397
0.000349443
0.000413562
0.000661104
0.000671446
0.000541717
0.000519426
0.000535225
0.000481331
0.000384806
0.000319866
0.000281289
0.000269368
0.000244909
0.000206641
0.000178072
0.000156484
0.000156789
0.000173967
0.000158377
0.000272262
0.00021038
0.000310257
0.000246851
0.000446948
0.000378125
0.000442329
0.000397753
0.000460031
0.000429495
0.000507846
0.000486283
0.00051719
0.00049942
0.000560285
0.000544324
0.000596147
0.000584116
0.000561581
0.000574921
0.000581461
0.000578709
0.000470053
0.000490479
0.000508348
0.000545049
0.000398798
0.000409857
0.00043342
0.000436864
0.000419876
0.000394827
0.000376198
0.000378977
0.000429173
0.000443702
0.000409967
0.00039469
0.000434092
0.000512921
0.000493051
0.000474496
0.000428898
0.000429549
0.000478926
0.000410659
0.000397495
0.000467444
0.000444987
0.000186898
0.000510063
0.000290537
0.000357235
0.000270425
0.000151324
0.000149572
0.000156695
0.000166769
0.000185554
0.00020906
0.000237076
0.000284005
0.000365432
0.000458439
0.000510829
0.000508407
0.000456857
0.000369614
0.000342133
0.000371348
0.00056385
0.000693328
0.000603443
0.000578959
0.000644336
0.000638997
0.000575126
0.000444394
0.000341622
0.000290567
0.000259709
0.000219424
0.000180541
0.000159443
0.000148418
0.000151352
0.000148227
0.000145432
0.000195218
0.000162807
0.000251513
0.000209076
0.000347606
0.000296533
0.000394794
0.000355865
0.000431178
0.000403167
0.000479133
0.00045647
0.000525707
0.000505005
0.000566922
0.000548062
0.000574458
0.000568932
0.000563203
0.000555773
0.000562118
0.000559124
0.000555952
0.00055255
0.000463744
0.00050152
0.000537297
0.000533137
0.000382249
0.00042282
0.000406452
0.000448862
0.000368906
0.000355225
0.00036433
0.000352225
0.000376823
0.000397376
0.000363183
0.000350962
0.000390772
0.000480181
0.000472466
0.000436323
0.000389264
0.00039432
0.000445965
0.000433914
0.000459396
0.000465884
0.000467701
0.000184965
0.000448184
0.000320285
0.000474904
0.00028542
0.000154585
0.000157317
0.000167841
0.000185173
0.000208337
0.000234072
0.000276431
0.000348788
0.000438675
0.0005013
0.000508368
0.000474481
0.000383789
0.000332032
0.000344062
0.000452764
0.000687504
0.000659315
0.000620927
0.000721732
0.000781675
0.000771491
0.000679571
0.000488107
0.000354825
0.000281991
0.000237074
0.000200546
0.000169436
0.00015161
0.000156982
0.000145446
0.000149102
0.000140523
0.00014143
0.000170799
0.000147781
0.000234546
0.000193585
0.000315081
0.000274565
0.000373388
0.000342207
0.000435531
0.000410221
0.000483027
0.000459916
0.000528546
0.000508024
0.000538043
0.000524183
0.00054885
0.000545301
0.000541678
0.000537793
0.000529892
0.000526432
0.000523831
0.000522067
0.000495056
0.000506206
0.000501664
0.000497897
0.00039024
0.000441503
0.000432073
0.000482533
0.000336873
0.000334033
0.000376458
0.000345985
0.000337795
0.000356657
0.000329865
0.000324919
0.000353388
0.000454119
0.000460196
0.000403462
0.000355612
0.000364167
0.000417754
0.000501355
0.000520239
0.000470037
0.000478152
0.000177558
0.000233593
0.000330764
0.000498101
0.000261025
0.000160983
0.000170261
0.000186004
0.000207345
0.000232579
0.00026982
0.0003353
0.000419464
0.000488434
0.00050635
0.000487034
0.000405937
0.000337664
0.000330239
0.000390029
0.000644936
0.000692725
0.00065898
0.000752714
0.000886167
0.000937625
0.000902343
0.000755558
0.000515627
0.000356034
0.00026383
0.000219911
0.000186472
0.000158935
0.000148291
0.000150583
0.000144443
0.000146272
0.000139273
0.000142065
0.000160481
0.000142656
0.000230574
0.00019088
0.000307397
0.000270067
0.000380627
0.000344809
0.000438061
0.000407284
0.000486679
0.000463907
0.000508268
0.000491348
0.000513672
0.000509456
0.000500615
0.000506076
0.000520874
0.000519602
0.000518123
0.000515869
0.000494107
0.000492126
0.000491685
0.000492352
0.000475792
0.000470295
0.0004654
0.000461614
0.000418863
0.000455793
0.000432364
0.000447729
0.00032086
0.000331462
0.000402985
0.000362457
0.000316117
0.000326862
0.000312224
0.000312166
0.000327217
0.000430038
0.000430742
0.000378808
0.000332663
0.000344471
0.000394814
0.00047874
0.000470565
0.000432301
0.000432968
0.000215853
0.000170514
0.000391191
0.000456673
0.000221653
0.000173817
0.000188253
0.000207512
0.000230596
0.000265983
0.000323222
0.00040227
0.000473252
0.000501369
0.000492472
0.000428389
0.000344773
0.000316021
0.000349024
0.000507415
0.000693726
0.000688651
0.000753111
0.000922654
0.00105665
0.00108815
0.00100671
0.000802548
0.000524165
0.000334902
0.000244602
0.000205196
0.000170607
0.000151174
0.00015828
0.000145693
0.000148434
0.000142804
0.000143368
0.000142544
0.00014264
0.000158018
0.000143939
0.000224809
0.000180063
0.000306646
0.000267738
0.000372264
0.000333523
0.00042177
0.00038877
0.000472346
0.000449642
0.000495644
0.000488659
0.000477133
0.00049517
0.00049299
0.000487048
0.000490501
0.000493508
0.000495193
0.000495642
0.000496161
0.000460259
0.000460487
0.000462086
0.000464435
0.000440742
0.000434799
0.000431134
0.000429586
0.000411919
0.000422356
0.000401006
0.000413873
0.000321148
0.000350018
0.00039704
0.000386688
0.000307144
0.000311701
0.000306008
0.000313701
0.000316024
0.00040249
0.000397911
0.000360849
0.000325833
0.000339393
0.000377063
0.000430502
0.000429091
0.000395191
0.000391918
0.00025351
0.000139609
0.000366406
0.000428527
0.000208152
0.000191487
0.000208755
0.000230489
0.000261657
0.000314845
0.000385997
0.00045763
0.000493787
0.000492529
0.000445045
0.000355618
0.000304327
0.000319756
0.000407627
0.000667938
0.000703103
0.000750545
0.000912126
0.00110032
0.00122137
0.00121656
0.00108742
0.000818293
0.000493733
0.000300131
0.000224386
0.000186315
0.000163081
0.00014819
0.000151577
0.000141749
0.000144983
0.000138115
0.000139586
0.000142447
0.000139485
0.000151659
0.000144533
0.000194244
0.000155054
0.000290708
0.000242934
0.00035079
0.000308699
0.000416426
0.000380741
0.000464135
0.000444119
0.00048379
0.000480493
0.000473774
0.000473798
0.000471618
0.000471386
0.000471566
0.000471665
0.000466965
0.000469532
0.000470431
0.000471452
0.00042971
0.000430849
0.000432442
0.000434534
0.000407213
0.000402956
0.000400568
0.000399506
0.000384228
0.000390599
0.000371255
0.000382833
0.000340279
0.000372793
0.000371116
0.000386303
0.000311259
0.000309663
0.000313751
0.000333288
0.000318211
0.00038207
0.000369861
0.00035306
0.000331474
0.000344331
0.000365329
0.000387681
0.000395429
0.000363404
0.000356682
0.000264311
0.000120129
0.000319975
0.000293265
0.000192285
0.000211233
0.000229555
0.000260263
0.000306528
0.000372772
0.000441208
0.000484491
0.000491032
0.000458429
0.000376147
0.000310025
0.000301909
0.000354335
0.000562359
0.000702285
0.000743847
0.000889578
0.00109064
0.00127698
0.00136897
0.00132204
0.00112199
0.000809479
0.000426387
0.000266641
0.000191996
0.000176745
0.00015237
0.000156495
0.000145903
0.000149887
0.000139074
0.000142058
0.000132974
0.00013555
0.000132909
0.000131892
0.00013887
0.000135649
0.000169928
0.000139557
0.000261874
0.000213112
0.000338467
0.00029215
0.000440284
0.000404957
0.000471201
0.000467988
0.000463415
0.000472216
0.000473252
0.000472777
0.000476674
0.000447965
0.000450948
0.000457703
0.000453756
0.00043733
0.000440049
0.000441764
0.000445267
0.000399177
0.000399752
0.000401441
0.00040408
0.00037721
0.000373272
0.000370517
0.000368791
0.000355114
0.000361376
0.000343088
0.000353941
0.000361587
0.000376
0.00034305
0.000361707
0.000332548
0.000323317
0.000336204
0.000355421
0.000336023
0.00036613
0.00035
0.000355907
0.000347656
0.000357983
0.000367527
0.000353274
0.000346439
0.000336909
0.000327997
0.00023731
7.0146e-05