/*--------------------------------*- C++ -*----------------------------------*\
  =========                 |
  \\      /  F ield         | OpenFOAM: The Open Source CFD Toolbox
   \\    /   O peration     | Website:  https://openfoam.org
    \\  /    A nd           | Version:  dev
     \\/     M anipulation  |
\*---------------------------------------------------------------------------*/
FoamFile
{
    version     2.0;
    format      ascii;
    class       volScalarField;
    location    "2500";
    object      CO2;
}
// * * * * * * * * * * * * * * * * * * * * * * * * * * * * * * * * * * * * * //

dimensions      [0 0 0 0 0 0 0];

internalField   nonuniform List<scalar> 
9846
(
6.53531e-27
2.51272e-26
1.49915e-26
5.00841e-26
5.7616e-26
1.51201e-26
1.29581e-25
1.93307e-25
6.67109e-26
5.54221e-27
4.18092e-25
6.20158e-25
3.00768e-25
6.47095e-26
2.12904e-27
7.9701e-25
1.35871e-24
7.15304e-25
2.85406e-25
3.10462e-26
1.80107e-27
1.22032e-24
3.37309e-24
1.92578e-24
7.06291e-25
2.12282e-25
1.27229e-26
8.97967e-28
3.78364e-24
7.62142e-24
5.39421e-24
1.81002e-24
6.18747e-25
9.23621e-26
8.27491e-27
5.83973e-28
6.23662e-24
1.34312e-23
1.1481e-23
6.18561e-24
1.59138e-24
4.8985e-25
4.69432e-26
4.79977e-27
9.80697e-29
8.07218e-24
2.34075e-23
2.21901e-23
1.36158e-23
5.35784e-24
1.36159e-24
2.60321e-25
2.43584e-26
1.77357e-27
2.67005e-29
1.15566e-23
3.09391e-23
4.54894e-23
3.11678e-23
1.39464e-23
4.38826e-24
9.26241e-25
9.24386e-26
7.74516e-27
5.80785e-28
1.00558e-29
2.58188e-23
5.34352e-23
1.02267e-22
8.12243e-23
3.34372e-23
9.95395e-24
3.00196e-24
4.69672e-25
5.62758e-26
2.64446e-27
1.7374e-28
6.97605e-30
2.38828e-23
1.25305e-22
1.91903e-22
1.60427e-22
8.72225e-23
2.5648e-23
7.40025e-24
2.27128e-24
2.63497e-25
1.76765e-26
1.20508e-27
8.51861e-29
6.74595e-30
5.52732e-23
1.80956e-22
3.33749e-22
3.09973e-22
1.78699e-22
8.30303e-23
2.53355e-23
6.69325e-24
1.14811e-24
9.98956e-26
8.85894e-27
5.80889e-28
7.70613e-29
1.05084e-28
8.55557e-23
3.6732e-22
5.31833e-22
5.86571e-22
3.20376e-22
1.57034e-22
6.57244e-23
1.95634e-23
3.58512e-24
5.08738e-25
3.69424e-26
4.08224e-27
9.95057e-28
1.42829e-27
1.95904e-27
1.62238e-22
5.32461e-22
9.72858e-22
1.15758e-21
7.18975e-22
3.92098e-22
1.28914e-22
4.73942e-23
1.4266e-23
2.19156e-24
2.89018e-25
1.75843e-26
1.00543e-26
1.76347e-26
2.87199e-26
3.08253e-26
2.07682e-22
1.09716e-21
1.73432e-21
2.14116e-21
1.90892e-21
7.35936e-22
3.67252e-22
1.0952e-22
3.24996e-23
7.74638e-24
1.14963e-24
1.61152e-25
1.04759e-25
1.95611e-25
3.68862e-25
7.13892e-25
6.90166e-25
2.40005e-22
1.3404e-21
3.28027e-21
4.41017e-21
3.39982e-21
2.12167e-21
8.05814e-22
2.97332e-22
8.66531e-23
2.00033e-23
4.11991e-24
7.12433e-25
1.07074e-24
2.16833e-24
5.05766e-24
8.20006e-24
1.12715e-23
1.33785e-23
1.38932e-22
1.38149e-21
4.85246e-21
7.17468e-21
7.02093e-21
4.0454e-21
1.93215e-21
6.79519e-22
2.18087e-22
6.16207e-23
1.04997e-23
4.49736e-24
8.704e-24
2.56208e-23
5.79937e-23
1.21738e-22
1.77859e-22
1.99863e-22
1.86559e-22
1.35357e-22
1.42014e-21
4.69497e-21
1.10162e-20
1.21253e-20
8.39066e-21
3.60746e-21
1.68235e-21
4.23466e-22
1.14118e-22
3.08687e-23
2.27399e-23
6.80706e-23
1.92205e-22
5.91136e-22
1.02453e-21
2.17969e-21
2.77202e-21
2.75462e-21
2.25429e-21
2.26878e-22
1.51166e-21
4.38618e-21
1.3588e-20
2.07475e-20
1.4893e-20
7.23608e-21
3.49874e-21
1.04804e-21
2.73299e-22
1.048e-22
1.28649e-22
5.15019e-22
1.61692e-21
4.12452e-21
1.16777e-20
2.13127e-20
3.15842e-20
3.84193e-20
2.90692e-20
2.74386e-20
2.81692e-22
1.24967e-21
5.45667e-21
1.69459e-20
2.96519e-20
3.27713e-20
1.87684e-20
7.32027e-21
2.62706e-21
6.70564e-22
3.30684e-22
7.51524e-22
3.02901e-21
1.32536e-20
3.34112e-20
7.34521e-20
1.94577e-19
2.87363e-19
4.05962e-19
4.53625e-19
3.81787e-19
2.71355e-19
1.9154e-22
1.58584e-21
5.97297e-21
2.06874e-20
3.75149e-20
4.68896e-20
3.30268e-20
1.65316e-20
6.19197e-21
2.65669e-21
1.51998e-21
5.40972e-21
1.73442e-20
9.18499e-20
2.8889e-19
8.52864e-19
1.33456e-18
2.80308e-18
2.90437e-18
5.10118e-18
4.05565e-18
3.77831e-18
2.29567e-18
1.46215e-22
1.67267e-21
5.02787e-21
2.37265e-20
5.15509e-20
7.56396e-20
6.98698e-20
3.14197e-20
1.35968e-20
6.9457e-21
1.01092e-20
2.90796e-20
1.18514e-19
4.30154e-19
2.07062e-18
5.2346e-18
1.40355e-17
2.06547e-17
3.29635e-17
4.52961e-17
5.04894e-17
3.90009e-17
2.96694e-17
1.74685e-17
3.4824e-22
1.72571e-21
5.369e-21
2.21235e-20
6.49789e-20
8.7758e-20
9.66294e-20
6.83258e-20
2.49975e-20
1.91719e-20
4.47728e-20
1.97273e-19
7.1224e-19
3.23209e-18
1.17322e-17
4.15544e-17
7.3549e-17
2.06546e-16
3.27996e-16
4.21253e-16
4.86595e-16
3.4113e-16
2.89117e-16
2.06311e-16
8.1807e-17
5.01312e-22
2.07932e-21
1.02452e-20
2.22117e-20
7.43411e-20
1.18506e-19
1.75843e-19
1.22237e-19
7.03848e-20
6.1415e-20
1.86063e-19
8.71416e-19
4.41021e-18
1.65719e-17
7.74916e-17
2.40126e-16
6.74497e-16
1.15585e-15
2.48403e-15
2.91997e-15
3.75627e-15
3.70182e-15
3.41357e-15
2.33775e-15
1.63904e-15
4.61875e-16
8.57371e-22
2.88383e-21
1.46326e-20
3.39441e-20
9.71084e-20
1.40838e-19
2.35317e-19
2.06349e-19
1.4016e-19
2.11328e-19
7.7042e-19
3.67382e-18
2.01641e-17
1.06334e-16
4.45827e-16
1.56291e-15
4.45916e-15
9.30512e-15
1.65548e-14
2.63657e-14
3.52229e-14
3.94045e-14
3.66344e-14
2.87614e-14
1.84751e-14
9.78733e-15
2.4478e-15
6.87492e-22
6.07927e-21
1.89303e-20
4.68592e-20
1.19629e-19
1.95626e-19
2.96182e-19
3.15028e-19
2.64444e-19
6.74086e-19
3.48223e-18
1.76153e-17
9.79805e-17
4.7135e-16
2.1995e-15
8.99037e-15
2.85269e-14
6.91953e-14
1.35559e-13
2.28614e-13
3.24648e-13
3.87457e-13
3.89313e-13
3.29199e-13
2.32072e-13
1.37265e-13
6.48934e-14
1.35331e-14
8.84171e-22
1.07903e-20
3.04023e-20
7.5575e-20
1.69436e-19
2.793e-19
3.9296e-19
4.65594e-19
4.55175e-19
1.78001e-18
1.19898e-17
6.90011e-17
3.80833e-16
2.10475e-15
1.22103e-14
5.50833e-14
1.99185e-13
5.18219e-13
1.03778e-12
1.82014e-12
2.75663e-12
3.45643e-12
3.71047e-12
3.39565e-12
2.62867e-12
1.70436e-12
9.15754e-13
3.82751e-13
6.87651e-14
8.18173e-22
5.93879e-21
4.48685e-20
1.08681e-19
1.96272e-19
3.64284e-19
5.01867e-19
5.89163e-19
7.47457e-19
4.25542e-18
3.62332e-17
2.40348e-16
1.36991e-15
9.05884e-15
5.75489e-14
3.1306e-13
1.28481e-12
3.71134e-12
7.5259e-12
1.34056e-11
2.13693e-11
2.83717e-11
3.18476e-11
3.10457e-11
2.60663e-11
1.86444e-11
1.109e-11
5.37904e-12
1.97705e-12
2.9769e-13
1.29488e-21
1.27102e-20
3.39761e-20
1.43726e-19
3.04973e-19
4.83009e-19
6.97362e-19
8.07593e-19
1.15009e-18
7.41823e-18
9.38418e-17
7.23221e-16
5.32576e-15
3.54717e-14
2.56501e-13
1.60956e-12
7.63454e-12
2.49759e-11
5.21386e-11
9.2189e-11
1.52875e-10
2.1202e-10
2.50531e-10
2.54668e-10
2.27589e-10
1.77135e-10
1.17162e-10
6.36199e-11
2.75149e-11
8.67707e-12
1.05057e-12
3.52848e-21
1.95492e-20
4.91852e-20
1.31173e-19
3.1304e-19
5.92601e-19
9.44962e-19
1.18516e-18
1.48885e-18
1.16186e-17
1.90757e-16
2.04186e-15
1.6777e-14
1.29253e-13
1.04665e-12
7.42655e-12
4.12814e-11
1.527e-10
3.48252e-10
5.92559e-10
1.01916e-09
1.46018e-09
1.79094e-09
1.90811e-09
1.77525e-09
1.47213e-09
1.06692e-09
6.51816e-10
3.2027e-10
1.20709e-10
3.11367e-11
2.72346e-12
3.8229e-21
2.02811e-20
6.27556e-20
1.10762e-19
4.31525e-19
9.52654e-19
1.46492e-18
1.67142e-18
1.97331e-18
1.35054e-17
2.84728e-16
4.5122e-15
4.96609e-14
4.23599e-13
3.75444e-12
3.11873e-11
2.00027e-10
8.18106e-10
2.05733e-09
3.53345e-09
6.32621e-09
9.36038e-09
1.17879e-08
1.29677e-08
1.25901e-08
1.08672e-08
8.42996e-09
5.70671e-09
3.20776e-09
1.39959e-09
4.3862e-10
8.17788e-11
3.53891e-12
9.50299e-21
1.87412e-20
5.09888e-20
1.30649e-19
3.90441e-19
1.13039e-18
1.78812e-18
2.21281e-18
2.515e-18
1.40941e-17
3.55744e-16
6.63156e-15
1.03241e-13
1.23483e-12
1.18563e-11
1.11416e-10
8.42058e-10
3.92734e-09
1.06647e-08
1.91348e-08
3.63785e-08
5.5649e-08
7.22245e-08
8.11938e-08
8.0994e-08
7.25339e-08
5.86602e-08
4.29203e-08
2.72199e-08
1.3896e-08
5.16646e-09
1.16954e-09
9.90475e-11
6.86348e-13
1.3402e-11
2.93535e-20
6.43065e-20
9.00395e-20
1.53827e-19
4.94555e-19
1.35294e-18
2.4911e-18
2.92951e-18
3.43642e-18
1.26575e-17
3.77989e-16
8.46366e-15
1.56661e-13
2.52656e-12
3.26347e-11
3.40471e-10
2.88099e-09
1.57947e-08
4.70765e-08
9.18728e-08
1.89797e-07
3.04947e-07
4.09302e-07
4.73645e-07
4.80352e-07
4.38523e-07
3.66853e-07
2.81096e-07
1.96358e-07
1.16234e-07
5.20059e-08
1.44473e-08
1.01235e-09
9.1158e-11
5.46603e-10
2.30263e-12
3.80891e-11
6.7574e-20
1.93587e-19
2.38436e-19
2.03286e-19
6.99734e-19
1.54053e-18
3.41437e-18
4.33187e-18
5.15219e-18
1.10457e-17
3.32406e-16
9.20716e-15
1.95328e-13
3.62085e-12
6.16844e-11
8.83806e-10
8.31572e-09
4.95157e-08
1.50718e-07
3.78791e-07
8.72185e-07
1.51266e-06
2.1281e-06
2.55433e-06
2.66144e-06
2.45643e-06
2.07822e-06
1.64429e-06
1.21852e-06
8.20857e-07
4.42558e-07
1.53879e-07
8.4633e-09
2.96428e-08
2.62863e-09
1.58838e-08
1.28875e-08
2.75868e-10
1.58379e-09
7.07733e-12
1.16772e-10
1.67853e-19
5.66225e-19
7.39164e-19
4.56581e-19
6.90915e-19
2.01343e-18
4.14513e-18
5.93903e-18
7.12211e-18
1.02312e-17
2.54987e-16
8.64238e-15
2.09089e-13
4.34456e-12
8.59954e-11
1.59803e-09
1.991e-08
1.30475e-07
4.24774e-07
1.3273e-06
3.36936e-06
6.47248e-06
9.84727e-06
1.24662e-05
1.34911e-05
1.2754e-05
1.08721e-05
8.69375e-06
6.71569e-06
4.92701e-06
3.19821e-06
1.41657e-06
1.01991e-07
3.59104e-07
6.61401e-08
7.98986e-09
5.27422e-08
3.61737e-08
8.44925e-10
4.77063e-09
2.11254e-11
3.47704e-10
1.33983e-18
3.00084e-18
2.31957e-18
1.51752e-18
1.40505e-18
2.73763e-18
4.95179e-18
7.03553e-18
8.8137e-18
1.06096e-17
1.75161e-16
6.8193e-15
1.9854e-13
4.57662e-12
9.74452e-11
2.0743e-09
3.50196e-08
2.87528e-07
1.014e-06
3.76761e-06
1.04523e-05
2.21521e-05
3.68621e-05
4.94362e-05
5.65028e-05
5.61775e-05
4.97567e-05
4.06626e-05
3.21455e-05
2.51874e-05
1.86962e-05
1.12039e-05
1.15667e-06
3.76045e-06
2.51186e-07
8.87817e-07
2.01289e-07
2.33972e-08
1.48394e-07
1.02576e-07
2.50398e-09
1.37935e-08
6.08209e-11
9.92556e-10
1.8514e-18
1.03905e-17
1.06263e-17
7.0205e-18
4.44657e-18
4.03377e-18
6.08736e-18
8.73292e-18
1.32831e-17
1.40897e-17
9.08306e-17
4.70082e-15
1.5879e-13
4.20154e-12
9.84077e-11
2.18734e-09
4.49281e-08
4.71745e-07
1.98775e-06
8.14537e-06
2.5346e-05
5.70971e-05
0.000100725
0.000140843
0.000164812
0.000172024
0.000162542
0.000141131
0.000117566
9.87265e-05
8.31149e-05
6.68744e-05
1.16786e-05
3.72604e-05
2.94947e-06
9.5981e-06
7.27004e-07
2.53206e-06
5.67368e-07
6.53591e-08
4.15715e-07
2.82738e-07
7.00406e-09
3.73896e-08
1.63395e-10
2.61603e-09
1.54174e-17
3.36428e-17
3.63043e-17
2.85865e-17
1.74945e-17
9.49849e-18
8.13173e-18
1.25872e-17
1.78526e-17
1.88868e-17
5.8565e-17
2.60096e-15
1.06384e-13
3.25435e-12
8.84708e-11
2.07754e-09
4.76496e-08
5.97242e-07
3.07842e-06
1.42443e-05
4.51739e-05
0.000107061
0.000186208
0.000264962
0.00032121
0.000352841
0.000358712
0.000347388
0.000319552
0.000284256
0.000255957
0.000239576
0.000102192
0.000244444
3.11747e-05
9.26157e-05
8.48316e-06
2.79262e-05
2.07008e-06
7.27655e-06
1.60461e-06
1.7474e-07
1.15904e-06
7.66264e-07
1.80214e-08
9.5604e-08
3.81629e-10
6.26072e-09
4.55358e-17
1.05749e-16
1.14101e-16
9.68298e-17
5.13884e-17
3.39305e-17
1.53609e-17
1.8288e-17
2.2459e-17
2.49356e-17
4.19574e-17
1.44633e-15
6.36737e-14
2.17937e-12
6.29202e-11
1.71248e-09
4.40648e-08
6.24704e-07
3.8688e-06
2.05056e-05
6.87674e-05
0.000158694
0.000280407
0.000388704
0.000477776
0.000540694
0.000581637
0.000601347
0.000603098
0.000589611
0.000563515
0.000552823
0.000385876
0.000575638
0.000224111
0.000390428
8.47381e-05
0.000216244
2.47386e-05
7.80086e-05
5.95516e-06
2.11043e-05
4.59362e-06
4.55283e-07
3.25686e-06
2.07855e-06
4.35939e-08
2.36214e-07
8.14597e-10
1.41237e-08
2.33778e-16
4.42783e-16
3.96822e-16
3.87076e-16
2.512e-16
1.51445e-16
5.10125e-17
2.82249e-17
3.2421e-17
3.47126e-17
3.84155e-17
6.87722e-16
3.62836e-14
1.27571e-12
3.99206e-11
1.18512e-09
3.38756e-08
6.03474e-07
4.13307e-06
2.49743e-05
8.97977e-05
0.000211052
0.000358822
0.000510673
0.000624587
0.000713823
0.000782596
0.000835266
0.000879346
0.000914756
0.000933588
0.000926949
0.000743032
0.000956249
0.000576025
0.000773622
0.000391104
0.000589778
0.000208505
0.000396132
7.0337e-05
0.000198302
1.72608e-05
6.04887e-05
1.31954e-05
1.17627e-06
9.19435e-06
5.72029e-06
1.01211e-07
5.71758e-07
1.68532e-09
3.06122e-08
5.64011e-16
1.53804e-15
1.80218e-15
1.26338e-15
8.40193e-16
6.15817e-16
2.45537e-16
7.34701e-17
4.05199e-17
4.67939e-17
4.45949e-17
3.35871e-16
1.83426e-14
7.53629e-13
2.214e-11
7.26749e-10
2.17072e-08
5.21656e-07
4.08197e-06
2.63986e-05
0.000103682
0.000250991
0.000434334
0.000593288
0.000708364
0.000794923
0.000872905
0.000948987
0.00103175
0.0011198
0.00121192
0.00128392
0.00112722
0.00132692
0.000978776
0.00118149
0.000802547
0.00102234
0.000610355
0.000841404
0.00040239
0.000637214
0.000182228
0.000404818
4.92543e-05
0.000157383
3.72232e-05
3.06981e-06
2.57972e-05
1.57829e-05
2.28434e-07
1.38473e-06
3.40473e-09
6.37006e-08
3.8694e-15
9.20221e-15
8.90541e-15
6.55156e-15
4.42828e-15
2.79822e-15
1.03565e-15
2.80647e-16
9.3779e-17
6.96317e-17
6.28802e-17
1.75519e-16
8.10666e-15
3.94456e-13
1.36297e-11
4.02616e-10
1.22447e-08
3.60967e-07
3.77744e-06
2.59765e-05
0.00010797
0.000275334
0.000478549
0.000630314
0.000717128
0.000786778
0.00085717
0.000936015
0.00103405
0.00114837
0.00129148
0.00146807
0.00146825
0.00160636
0.00137556
0.0015484
0.00124144
0.00145027
0.00108004
0.00131799
0.000891246
0.00115307
0.000666635
0.000949204
0.000396799
0.000690492
0.000130897
0.000366462
0.000100688
8.20535e-06
7.02039e-05
4.32005e-05
5.04808e-07
3.43955e-06
6.69434e-09
1.27204e-07
2.81627e-14
6.45785e-14
5.69455e-14
3.98071e-14
2.44994e-14
1.87985e-14
5.43364e-15
1.07007e-15
3.07054e-16
1.30658e-16
8.66214e-17
1.17249e-16
3.59393e-15
1.80934e-13
7.01783e-12
2.08534e-10
6.40626e-09
2.03036e-07
3.01072e-06
2.42444e-05
0.000106909
0.000284425
0.000499443
0.000623785
0.000697945
0.000750481
0.000798879
0.000859893
0.000952908
0.00108288
0.00126118
0.0014839
0.00168272
0.00171459
0.00169494
0.0018085
0.00163986
0.00180382
0.00154551
0.00175302
0.0014128
0.0016604
0.00124028
0.00152485
0.00100968
0.00133405
0.000700356
0.0010628
0.000315983
0.000686277
0.000246124
2.21461e-05
0.000179267
0.000113756
1.12399e-06
9.00929e-06
1.28339e-08
2.46969e-07
2.27343e-13
4.83592e-13
3.85512e-13
2.53362e-13
1.53079e-13
9.86522e-14
3.12512e-14
5.74681e-15
1.05181e-15
3.11352e-16
1.43035e-16
1.15362e-16
1.40119e-15
8.28282e-14
3.18637e-12
1.0155e-10
3.20634e-09
9.64688e-08
2.06488e-06
2.00885e-05
0.000102328
0.000282593
0.000491394
0.000601263
0.000655262
0.000669364
0.000652445
0.00065028
0.0007173
0.000862357
0.00108254
0.00139365
0.00179263
0.00186688
0.00193471
0.00193593
0.00203571
0.00193302
0.00208323
0.00188531
0.00208046
0.00179168
0.00203005
0.0016472
0.00193161
0.00142723
0.00176906
0.0010992
0.00150929
0.000639785
0.00110495
0.000547058
5.95907e-05
0.000414754
0.000275566
2.6247e-06
2.39018e-05
2.40112e-08
4.73907e-07
1.8025e-12
3.69922e-12
2.73602e-12
1.64145e-12
9.70801e-13
5.88676e-13
1.6863e-13
3.18264e-14
5.06048e-15
9.4607e-16
2.93806e-16
1.59906e-16
5.79391e-16
3.36494e-14
1.56815e-12
5.01157e-11
1.55816e-09
4.40126e-08
1.23062e-06
1.39404e-05
8.99289e-05
0.000272218
0.000471476
0.000563243
0.000598281
0.000552067
0.000445619
0.000440939
0.000531473
0.000653679
0.000831799
0.00110755
0.00158928
0.00211402
0.00208991
0.00209752
0.00211493
0.00220059
0.00228712
0.00224022
0.00237024
0.0022302
0.0023905
0.00217424
0.00236848
0.00206655
0.00230597
0.00187946
0.00218522
0.00156644
0.00196832
0.00106954
0.0015847
0.000988459
0.000152202
0.000831429
0.000601665
6.44622e-06
6.277e-05
4.23497e-08
1.02078e-06
1.22365e-11
2.63311e-11
1.94428e-11
1.07252e-11
6.32496e-12
3.22657e-12
8.76737e-13
1.7055e-13
2.76167e-14
3.90477e-15
7.87154e-16
2.54473e-16
3.46575e-16
1.27139e-14
6.57581e-13
2.60718e-11
7.13808e-10
1.96678e-08
5.60268e-07
9.12004e-06
7.03195e-05
0.000247217
0.000440157
0.000522379
0.00053242
0.000425165
0.000275189
0.000291716
0.000396659
0.000534617
0.000732364
0.00102689
0.00147784
0.00205202
0.002008
0.00236148
0.0023537
0.00233938
0.00235995
0.00246549
0.00253019
0.00251341
0.00259302
0.00251215
0.00260528
0.00248329
0.00260277
0.00241479
0.0025723
0.00227982
0.00249931
0.00202258
0.00234607
0.00156182
0.00203938
0.00148151
0.000350053
0.00132928
0.0010719
1.67226e-05
0.000156211
5.86435e-08
2.38043e-06
4.79487e-11
1.48163e-10
1.27259e-10
7.10464e-11
4.0687e-11
1.59936e-11
4.17414e-12
8.5537e-13
1.44385e-13
1.66465e-14
2.15469e-15
4.55744e-16
3.11304e-16
5.2785e-15
2.53604e-13
1.058e-11
3.27895e-10
9.31584e-09
2.43658e-07
5.38721e-06
4.96733e-05
0.000209444
0.000405534
0.000481503
0.000467477
0.00031435
0.000168002
0.000177986
0.0002866
0.000499063
0.000785135
0.00110637
0.00153434
0.00199748
0.00199653
0.00233377
0.00231864
0.00256584
0.00254819
0.00256245
0.00257104
0.00263789
0.00266002
0.00266228
0.00269275
0.00267605
0.00271521
0.00267451
0.00273656
0.00264612
0.00274279
0.00256638
0.00271658
0.00238294
0.00261977
0.00201405
0.00239138
0.00193706
0.000710983
0.00178766
0.001539
4.19305e-05
0.000335207
1.10073e-07
5.5548e-06
9.74969e-11
4.2128e-10
6.23269e-10
4.58775e-10
2.13471e-10
6.96513e-11
1.80445e-11
3.91609e-12
6.79766e-13
7.97974e-14
7.72211e-15
1.25291e-15
4.16223e-16
2.51501e-15
1.10759e-13
4.087e-12
1.449e-10
4.2885e-09
1.07793e-07
2.43185e-06
3.06616e-05
0.000165755
0.000368573
0.000444603
0.00041083
0.000229216
0.000104244
0.000101103
0.000178266
0.000441132
0.000829483
0.00130582
0.00173687
0.00212888
0.00230388
0.00230872
0.00251657
0.0024778
0.00263481
0.0026018
0.00266217
0.00265464
0.00270027
0.00269647
0.00273015
0.00272594
0.00276735
0.00277328
0.00280408
0.00283547
0.00282205
0.00289373
0.00279055
0.00291781
0.00265717
0.00286216
0.00236784
0.00267524
0.00230075
0.00115729
0.00216689
0.00194304
9.7325e-05
0.000631845
3.79181e-07
1.8584e-05
5.66919e-10
1.54067e-09
2.10761e-09
9.5794e-10
2.82055e-10
7.12202e-11
1.62277e-11
2.8404e-12
3.47909e-13
3.39322e-14
3.4053e-15
7.23214e-16
1.11572e-15
4.93493e-14
1.94351e-12
6.04739e-11
1.90433e-09
4.70241e-08
1.11135e-06
1.62408e-05
0.000120505
0.000327044
0.000412936
0.000369769
0.000171689
7.02338e-05
5.74485e-05
9.87512e-05
0.000271711
0.000673469
0.00118914
0.0016572
0.00202827
0.00229686
0.00218669
0.00242811
0.00237319
0.00255803
0.00250176
0.00262245
0.00256797
0.00268507
0.00266117
0.00271254
0.00268622
0.00276385
0.00273475
0.00283876
0.00282615
0.00293616
0.00294697
0.00301294
0.00306578
0.00302848
0.00312961
0.00292184
0.00312434
0.00266646
0.00296077
0.00261375
0.00159425
0.00249958
0.00230688
0.000256495
0.00112459
7.58231e-07
4.2906e-05
1.76676e-09
4.58367e-09
3.4361e-09
1.02724e-09
2.677e-10
6.09521e-11
1.06169e-11
1.38216e-12
1.43202e-13
1.24989e-14
1.50727e-15
7.84511e-16
1.75497e-14
7.91595e-13
2.46832e-11
7.72648e-10
2.02046e-08
5.23005e-07
8.10792e-06
7.79779e-05
0.00027472
0.000385529
0.000348061
0.000145996
5.55982e-05
3.88632e-05
5.3493e-05
0.000129952
0.000330583
0.000744165
0.0013036
0.00172944
0.00205424
0.00185768
0.00219808
0.00201307
0.0024292
0.00233188
0.00249529
0.00239935
0.00250468
0.00240997
0.00264098
0.00258077
0.00268091
0.00261046
0.00279033
0.00272462
0.0029354
0.00289792
0.00307736
0.00305755
0.00315632
0.0031463
0.00320006
0.00320077
0.00319755
0.00325398
0.0029703
0.00324616
0.00293155
0.00202502
0.00283498
0.0027174
0.00242976
0.000501902
0.00160629
2.13702e-06
9.38887e-05
4.77447e-09
8.87374e-09
3.38335e-09
9.12948e-10
2.03256e-10
3.53516e-11
4.92673e-12
5.53784e-13
5.16108e-14
4.8133e-15
8.75142e-16
5.35276e-15
2.72521e-13
9.60847e-12
3.15578e-10
8.91841e-09
2.20394e-07
4.95616e-06
4.38517e-05
0.000211472
0.000359763
0.000337823
0.000145381
5.41887e-05
3.5391e-05
3.58168e-05
5.84359e-05
0.000139897
0.000331997
0.000648322
0.000998682
0.00106453
0.0017829
0.00139074
0.001899
0.00163754
0.00227308
0.00210856
0.002292
0.00214304
0.00230036
0.00215956
0.00252353
0.00242063
0.00263128
0.00251742
0.0028244
0.00272425
0.0030151
0.00294469
0.00311936
0.00307176
0.00315768
0.00308577
0.00319755
0.00306239
0.00330395
0.00316175
0.00327698
0.00333362
0.00333766
0.0030802
0.00326568
0.00261299
0.00214776
0.00249092
0.00297187
0.00320469
0.00324271
0.00289667
0.000930064
0.00234693
0.00216402
0.00174054
2.23774e-05
0.000335309
1.12633e-08
9.22357e-09
2.82074e-09
6.06221e-10
1.06805e-10
1.58214e-11
1.9358e-12
1.935e-13
1.66656e-14
1.79889e-15
2.10802e-15
8.79065e-14
3.57267e-12
1.2203e-10
3.73704e-09
8.75445e-08
2.1903e-06
2.19471e-05
0.00014585
0.00032685
0.000337528
0.000153465
5.86575e-05
3.73631e-05
3.39229e-05
3.62907e-05
5.59527e-05
0.00011866
0.000228335
0.000332553
0.000331566
0.000620486
0.000251036
0.0013247
0.000952824
0.00146018
0.00114556
0.0019567
0.00172903
0.00199225
0.0017894
0.00207589
0.00189179
0.00238682
0.00223989
0.00260523
0.00246391
0.00284743
0.00272736
0.00300587
0.0029169
0.00300435
0.00292227
0.00289372
0.00275691
0.00285104
0.00276318
0.00262464
0.00325496
0.00309065
0.00267713
0.00290425
0.00335572
0.00336765
0.00337992
0.00327233
0.00337831
0.00280149
0.00269342
0.00314736
0.00334756
0.00336967
0.00307832
0.0019717
0.00115606
0.00167266
0.0025633
0.00241234
0.000379098
0.00152347
0.00111343
0.000585916
1.98748e-08
7.82085e-09
1.67898e-09
3.02878e-10
4.67739e-11
6.15447e-12
6.73166e-13
6.08817e-14
5.40685e-15
1.49252e-15
2.89699e-14
1.27767e-12
4.56264e-11
1.39494e-09
3.36259e-08
8.66462e-07
1.01151e-05
8.80471e-05
0.000276295
0.000337704
0.000175641
7.55306e-05
4.61708e-05
3.8287e-05
3.57738e-05
3.33145e-05
3.81992e-05
5.75075e-05
7.71145e-05
7.61294e-05
4.9012e-05
0.000241636
9.5977e-05
0.000799024
0.000467022
0.000979282
0.000684352
0.00155145
0.00127949
0.00168362
0.00145457
0.0019467
0.00174736
0.00230558
0.00213231
0.0025873
0.00243301
0.00280543
0.0026783
0.00283528
0.00273354
0.00265948
0.00259308
0.00253995
0.0024637
0.00242329
0.00239664
0.00248974
0.00231003
0.00245876
0.00236253
0.0030958
0.00286231
0.0023719
0.00261048
0.00329758
0.00340822
0.00333305
0.00310803
0.00342571
0.00299556
0.00290168
0.003309
0.0034333
0.00343442
0.00325547
0.0022415
0.00204854
0.00279092
0.00266647
0.00121343
0.00141719
0.00150149
0.00195591
0.0018075
1.90406e-08
4.74492e-09
8.29515e-10
1.30674e-10
1.8115e-11
2.15063e-12
2.12326e-13
1.8057e-14
2.14058e-15
9.62933e-15
4.38276e-13
1.65996e-11
5.22696e-10
1.40144e-08
3.43036e-07
6.15936e-06
4.66163e-05
0.000208215
0.000331239
0.000222674
0.000104359
7.14318e-05
5.88575e-05
4.84912e-05
3.53455e-05
2.32833e-05
1.5025e-05
1.513e-05
1.43753e-05
9.0443e-06
2.34609e-05
5.98135e-06
0.000111962
4.81958e-05
0.000426531
0.000231317
0.000712518
0.000490599
0.0012104
0.000958439
0.00153483
0.00131435
0.0019077
0.0017134
0.00226773
0.00209301
0.00253927
0.00239212
0.00262306
0.00251071
0.00254684
0.00250993
0.00239815
0.00241264
0.00243775
0.00246787
0.00229462
0.00226152
0.00226675
0.00229792
0.00218864
0.00207021
0.00220188
0.00214729
0.00284672
0.00255605
0.00208175
0.00228648
0.00313819
0.00337259
0.00318553
0.00285443
0.00341123
0.00319071
0.00311317
0.00342425
0.00344183
0.00346499
0.00340265
0.00253088
0.00240887
0.00302244
0.00291988
0.00203046
0.00188449
0.00229994
0.00238519
0.00234188
1.41661e-08
2.43834e-09
3.62073e-10
5.09429e-11
6.38913e-12
6.85153e-13
6.15132e-14
5.27937e-15
3.96673e-15
1.44669e-13
5.7857e-12
1.93542e-10
5.51922e-09
1.25841e-07
3.12902e-06
2.22748e-05
0.000135115
0.000307015
0.00027135
0.000133805
0.000106094
0.000108448
9.60904e-05
6.026e-05
3.09628e-05
1.32152e-05
5.04885e-06
2.64574e-06
1.6291e-06
1.43704e-06
1.30708e-05
4.45442e-06
7.80241e-05
3.33131e-05
0.000301944
0.000163668
0.000656322
0.000463251
0.00108668
0.000863644
0.00151328
0.00131374
0.00191457
0.00174374
0.00223878
0.00207963
0.00239129
0.00226634
0.0024734
0.00239839
0.00249087
0.00251326
0.00252607
0.00253799
0.00234453
0.00240022
0.00246314
0.00253153
0.00214583
0.00218319
0.00224512
0.00232795
0.00197862
0.00204308
0.00196469
0.00206227
0.00253172
0.00223046
0.00191528
0.00200707
0.00289025
0.00324367
0.00295137
0.00254057
0.00330849
0.00336943
0.00331669
0.00347907
0.00337305
0.00343117
0.0034851
0.00281234
0.00272101
0.00324504
0.00315413
0.00251656
0.00142094
0.00233501
0.00270016
0.00268007
8.35785e-09
1.12795e-09
1.45099e-10
1.8308e-11
2.06957e-12
2.00151e-13
1.70439e-14
3.28547e-15
4.65536e-14
1.93872e-12
6.74079e-11
2.10254e-09
4.45196e-08
1.11906e-06
1.00496e-05
7.56056e-05
0.000249364
0.000290347
0.000177269
0.000134634
0.000157902
0.000167408
0.000135064
7.28483e-05
2.80258e-05
7.77273e-06
1.6617e-06
4.83e-07
3.2726e-07
1.28818e-06
4.90638e-07
9.21609e-06
2.73411e-06
6.53827e-05
2.59679e-05
0.000283855
0.000146464
0.000726047
0.000495009
0.00112147
0.000931555
0.00156866
0.001388
0.00184742
0.00169068
0.00213333
0.00199326
0.0022985
0.00217991
0.00259913
0.00256111
0.00259606
0.00265574
0.00269765
0.00271111
0.00242982
0.00254136
0.00265672
0.00277021
0.00213355
0.00223507
0.00236554
0.00251335
0.00191326
0.00201435
0.00198828
0.00211911
0.00220985
0.00196437
0.00188379
0.00187677
0.00258574
0.00303075
0.00266058
0.0022261
0.00312471
0.00348683
0.00347305
0.00348167
0.00322547
0.00332602
0.00352166
0.00305573
0.00297031
0.00343643
0.00336507
0.00272321
0.000577596
0.00197347
0.00294199
0.00291405
4.44289e-09
4.82688e-10
5.39061e-11
6.06555e-12
6.14512e-13
5.48833e-14
5.4665e-15
1.57299e-14
6.29427e-13
2.26401e-11
7.00878e-10
1.55821e-08
4.00731e-07
6.16021e-06
3.73924e-05
0.000172843
0.000288001
0.000232877
0.000158707
0.000194616
0.000229161
0.00021989
0.000167631
8.35906e-05
2.71725e-05
5.14178e-06
5.62553e-07
8.40319e-08
4.89257e-08
5.11002e-07
1.35111e-07
4.63172e-06
1.38254e-06
4.92302e-05
1.62058e-05
0.00028202
0.000129457
0.000732866
0.000463196
0.00119487
0.000979142
0.00151953
0.00133309
0.00168924
0.00149429
0.00203694
0.001874
0.00245535
0.00230127
0.00310888
0.00310719
0.00301704
0.0030751
0.00287541
0.00296551
0.00303668
0.00308536
0.00267314
0.00283589
0.00299377
0.00313896
0.0022674
0.00243833
0.00263052
0.00283208
0.00198576
0.00213237
0.00215246
0.00231467
0.00195435
0.00186083
0.00197879
0.00186912
0.00227929
0.00275896
0.00236282
0.00197419
0.00287713
0.00354943
0.00356843
0.00341719
0.00300682
0.00314645
0.00350113
0.00327665
0.00320029
0.0035724
0.00355579
0.00272904
0.000412621
0.00167299
0.00314533
0.00306956
2.14429e-09
1.90721e-10
1.84172e-11
1.83755e-12
1.69273e-13
1.47743e-14
7.08785e-15
1.98632e-13
7.43608e-12
2.34921e-10
6.03198e-09
1.36768e-07
2.97937e-06
1.66893e-05
0.000100841
0.000267425
0.000268402
0.000192543
0.000211928
0.000275391
0.000292729
0.000261903
0.000184437
8.67976e-05
2.26263e-05
2.74232e-06
2.20701e-07
1.88737e-08
1.4884e-08
4.96715e-09
2.14113e-07
4.59142e-08
1.87873e-06
6.92871e-07
2.42646e-05
6.81911e-06
0.000225507
8.17914e-05
0.000592242
0.000308509
0.00112104
0.00087348
0.00128867
0.00106728
0.00164946
0.00140245
0.00210755
0.00188562
0.00293952
0.00284733
0.00278378
0.00347477
0.00345747
0.00332818
0.00340441
0.00326388
0.00336258
0.00343247
0.00346951
0.00303403
0.00322603
0.0033997
0.00354732
0.00252754
0.00275735
0.00299372
0.0032238
0.00216574
0.00237003
0.00241775
0.00261753
0.00186031
0.00186206
0.00216934
0.00196785
0.00202583
0.00247503
0.00210913
0.0018749
0.00261094
0.0035775
0.0036292
0.00329123
0.00276614
0.00294259
0.00343444
0.00349617
0.00340977
0.0036697
0.00369718
0.00265765
0.000184204
0.00133514
0.0033187
0.0031685
9.33975e-10
6.87241e-11
5.73524e-12
5.13711e-13
4.45414e-14
6.5814e-15
6.19544e-14
2.37402e-12
7.85173e-11
2.1907e-09
4.48305e-08
1.0364e-06
8.50796e-06
5.14616e-05
0.000203679
0.000271957
0.000235182
0.000222768
0.000298231
0.000349433
0.000344761
0.00028875
0.00019001
7.69471e-05
1.43434e-05
1.32361e-06
8.79127e-08
3.61468e-09
4.24482e-09
1.17437e-09
8.29295e-08
1.833e-08
9.71611e-07
3.37657e-07
1.03985e-05
3.24552e-06
0.000112637
3.36022e-05
0.000318857
0.000136618
0.000827454
0.0005701
0.00114442
0.000879986
0.00186103
0.00152643
0.00250759
0.00219701
0.0032294
0.00310671
0.00314612
0.00300164
0.00375657
0.00368379
0.0034827
0.00358779
0.00366265
0.00374136
0.00378206
0.00378444
0.00343769
0.00362639
0.00378339
0.00390333
0.00288079
0.00314324
0.00339258
0.00361792
0.0024495
0.00269981
0.00276426
0.00299189
0.00186164
0.00194799
0.0024572
0.00215612
0.00190306
0.00223112
0.00195839
0.00186483
0.0023796
0.00356034
0.00367193
0.00313046
0.00256067
0.00276597
0.00332496
0.00368755
0.00360472
0.00375015
0.00380871
0.00259683
0.000136078
0.00128935
0.0034782
0.00326139
3.64428e-10
2.24401e-11
1.64573e-12
1.35779e-13
1.20039e-14
2.07081e-14
7.37016e-13
2.50293e-11
7.65266e-10
1.43868e-08
3.45214e-07
5.21903e-06
2.35929e-05
0.000121278
0.000260113
0.000263832
0.000244598
0.000300654
0.000380729
0.000410818
0.000383171
0.00029986
0.000184395
5.60781e-05
7.54353e-06
5.52666e-07
3.08824e-08
1.61228e-10
2.04836e-09
2.25011e-09
6.08456e-10
4.39866e-08
9.799e-09
6.68203e-07
1.97358e-07
6.29296e-06
2.23033e-06
4.93218e-05
1.71735e-05
0.000200639
8.71728e-05
0.000619509
0.000386427
0.00119428
0.000884774
0.00224519
0.00189567
0.00288882
0.00272853
0.00256613
0.00337237
0.00325937
0.00315383
0.00303943
0.00385954
0.00373826
0.00349077
0.00361481
0.00398337
0.00401832
0.00401362
0.00395736
0.00381153
0.00396873
0.00408605
0.00416035
0.00327617
0.00353927
0.00377063
0.00396409
0.00280233
0.00308559
0.00315469
0.00339151
0.00192551
0.00211174
0.00279335
0.00242208
0.00188404
0.00206703
0.00192718
0.0018987
0.00223348
0.00352377
0.00369704
0.00299033
0.00243306
0.00266446
0.00323851
0.0038409
0.00378982
0.0038218
0.00391144
0.00264887
0.000225301
0.00147521
0.00363792
0.0033947
1.27543e-10
6.71263e-12
4.42877e-13
3.48456e-14
1.1356e-14
2.22872e-13
7.73327e-12
2.30749e-10
4.57173e-09
1.10183e-07
2.18044e-06
1.05515e-05
6.21441e-05
0.000212659
0.00026662
0.000267198
0.000297941
0.000384866
0.000452345
0.000458602
0.000403257
0.000300943
0.000156909
3.60735e-05
3.07139e-06
2.10095e-07
8.49445e-09
2.61239e-10
4.76799e-10
1.5959e-09
4.20695e-10
3.12323e-08
6.88556e-09
5.78249e-07
1.44141e-07
5.43049e-06
2.04054e-06
3.53029e-05
1.39029e-05
0.000194568
8.5802e-05
0.000607046
0.000373251
0.00152769
0.00116733
0.00239041
0.00224207
0.0020144
0.0029258
0.00279496
0.00252029
0.00263997
0.00337282
0.00326241
0.00303049
0.0029438
0.00386361
0.00370035
0.00336186
0.00352239