/*--------------------------------*- C++ -*----------------------------------*\
  =========                 |
  \\      /  F ield         | OpenFOAM: The Open Source CFD Toolbox
   \\    /   O peration     | Website:  https://openfoam.org
    \\  /    A nd           | Version:  dev
     \\/     M anipulation  |
\*---------------------------------------------------------------------------*/
FoamFile
{
    version     2.0;
    format      ascii;
    class       volScalarField;
    location    "2500";
    object      G;
}
// * * * * * * * * * * * * * * * * * * * * * * * * * * * * * * * * * * * * * //

dimensions      [1 0 -3 0 0 0 0];

internalField   nonuniform List<scalar> 
9846
(
3803.89
3809.12
3810.4
3813.69
3815.64
3817.65
3817.59
3820.24
3822.91
3825.61
3820.84
3824.16
3827.51
3830.88
3834.28
3823.44
3827.42
3831.43
3835.48
3839.56
3843.68
3825.41
3830.02
3834.67
3839.38
3844.15
3848.97
3853.83
3826.75
3831.97
3837.25
3842.6
3848.03
3853.55
3859.12
3864.75
3827.5
3833.3
3839.17
3845.14
3851.21
3857.4
3863.68
3870.04
3876.47
3827.68
3834.03
3840.47
3847.02
3853.7
3860.53
3867.49
3874.58
3881.76
3889.03
3827.3
3834.18
3841.16
3848.26
3855.52
3862.95
3870.56
3878.34
3886.27
3894.31
3902.45
3826.4
3833.78
3841.27
3848.89
3856.69
3864.69
3872.9
3881.33
3889.97
3898.78
3907.73
3916.79
3825
3832.86
3840.81
3848.92
3857.23
3865.76
3874.53
3883.57
3892.86
3902.41
3912.16
3922.06
3932.1
3823.14
3831.43
3839.83
3848.39
3857.17
3866.19
3875.48
3885.08
3894.98
3905.19
3915.69
3926.43
3937.36
3948.42
3820.83
3829.52
3838.34
3847.33
3856.53
3866.01
3875.78
3885.89
3896.35
3907.17
3918.35
3929.86
3941.66
3953.66
3965.84
3818.1
3827.18
3836.37
3845.75
3855.35
3865.24
3875.45
3886.02
3896.98
3908.36
3920.16
3932.36
3944.96
3957.88
3971.05
3984.41
3814.99
3824.42
3833.96
3843.69
3853.66
3863.91
3874.51
3885.5
3896.92
3908.79
3921.14
3933.98
3947.29
3961.05
3975.18
3989.6
4004.23
3811.53
3821.27
3831.14
3841.19
3851.48
3862.07
3873.02
3884.37
3896.19
3908.5
3921.34
3934.73
3948.68
3963.17
3978.17
3993.61
4009.38
4025.39
3807.74
3817.77
3827.92
3838.26
3848.85
3859.74
3870.99
3882.67
3894.83
3907.52
3920.78
3934.66
3949.17
3964.3
3980.06
3996.41
4013.26
4030.49
4048
3803.66
3813.94
3824.35
3834.95
3845.79
3856.95
3868.47
3880.43
3892.89
3905.9
3919.52
3933.8
3948.78
3964.48
3980.9
3998.03
4015.84
4034.22
4053.04
4072.18
3799.3
3809.82
3820.46
3831.28
3842.36
3853.74
3865.49
3877.69
3890.39
3903.67
3917.58
3932.2
3947.57
3963.74
3980.72
3998.53
4017.15
4036.54
4056.59
4077.16
4098.08
3794.7
3805.42
3816.26
3827.29
3838.56
3850.14
3862.09
3874.48
3887.38
3900.88
3915.03
3929.91
3945.59
3962.13
3979.57
3997.94
4017.25
4037.49
4058.61
4080.5
4102.97
4125.87
3789.88
3800.78
3811.8
3823
3834.44
3846.18
3858.29
3870.85
3883.91
3897.57
3911.9
3926.99
3942.9
3959.72
3977.51
3996.33
4016.2
4037.14
4059.14
4082.16
4106.07
4130.66
4155.73
3784.87
3795.92
3807.1
3818.45
3830.03
3841.91
3854.15
3866.82
3880.01
3893.79
3908.25
3923.48
3939.55
3956.56
3974.6
3993.74
4014.05
4035.57
4058.29
4082.22
4107.33
4133.46
4160.39
4187.9
3779.69
3790.87
3802.18
3813.65
3825.35
3837.34
3849.69
3862.45
3875.73
3889.59
3904.12
3919.43
3935.6
3952.74
3970.93
3990.28
4010.88
4032.81
4056.1
4080.77
4106.83
4134.24
4162.85
4192.4
4222.69
3774.36
3785.65
3797.07
3808.65
3820.44
3832.52
3844.94
3857.77
3871.09
3885
3899.57
3914.9
3931.11
3948.29
3966.56
3986.02
4006.79
4028.97
4052.66
4077.89
4104.7
4133.11
4163.08
4194.44
4226.98
4260.39
3768.9
3780.29
3791.79
3803.45
3815.33
3827.46
3839.93
3852.81
3866.15
3880.06
3894.63
3909.95
3926.13
3943.29
3961.55
3981.03
4001.86
4024.15
4048.05
4073.66
4101.03
4130.19
4161.2
4194.02
4228.53
4264.45
4301.32
3763.33
3774.79
3786.37
3798.09
3810.02
3822.21
3834.71
3847.6
3860.94
3874.83
3889.36
3904.62
3920.73
3937.81
3955.98
3975.39
3996.17
4018.47
4042.42
4068.19
4095.89
4125.6
4157.37
4191.27
4227.33
4265.41
4305.09
4345.92
3757.66
3769.19
3780.82
3792.59
3804.56
3816.77
3829.29
3842.17
3855.49
3869.34
3883.79
3898.96
3914.95
3931.9
3949.93
3969.18
3989.82
4012
4035.88
4061.64
4089.44
4119.44
4151.73
4186.39
4223.54
4263.28
4305.34
4349.33
4394.69
3751.92
3763.49
3775.16
3786.97
3798.96
3811.19
3823.7
3836.56
3849.84
3863.62
3877.98
3893.02
3908.87
3925.63
3943.45
3962.49
3982.9
4004.85
4028.54
4054.13
4081.84
4111.86
4144.38
4179.52
4217.42
4258.27
4302.11
4348.71
4397.64
4448.25
3746.11
3757.71
3769.41
3781.24
3793.24
3805.47
3817.96
3830.79
3844.01
3857.71
3871.95
3886.85
3902.51
3919.06
3936.63
3955.38
3975.48
3997.12
4020.49
4045.8
4073.25
4103.07
4135.52
4170.82
4209.14
4250.69
4295.67
4344.16
4395.96
4450.62
4507.36
3740.24
3751.87
3763.59
3775.42
3787.42
3799.64
3812.1
3824.88
3838.03
3851.63
3865.75
3880.49
3895.94
3912.24
3929.52
3947.93
3967.66
3988.9
4011.85
4036.74
4063.79
4093.25
4125.39
4160.49
4198.86
4240.75
4286.38
4336
4389.8
4447.63
4509.01
4572.95
3734.34
3745.97
3757.7
3769.54
3781.53
3793.71
3806.14
3818.86
3831.93
3845.42
3859.4
3873.96
3889.2
3905.23
3922.18
3940.22
3959.52
3980.29
4002.73
4027.08
4053.6
4082.54
4114.18
4148.83
4186.84
4228.64
4274.5
4324.67
4379.58
4439.5
4504.4
4573.7
4646.19
3728.42
3740.03
3751.76
3763.6
3775.57
3787.72
3800.1
3812.75
3825.73
3839.1
3852.93
3867.3
3882.31
3898.05
3914.67
3932.31
3951.15
3971.38
3993.23
4016.95
4042.82
4071.09
4102.07
4136.06
4173.44
4214.69
4260.28
4310.51
4365.83
4426.8
4493.81
4567.08
4645.78
4706.61
4708.25
3722.49
3734.08
3745.79
3757.61
3769.56
3781.67
3793.99
3806.56
3819.45
3832.7
3846.37
3860.55
3875.32
3890.77
3907.04
3924.26
3942.6
3962.25
3983.46
4006.47
4031.56
4059.04
4089.2
4122.36
4158.91
4199.3
4244.1
4293.83
4348.97
4410.13
4478.1
4553.25
4636.96
4707.48
4704.04
4750.44
4751.86
3716.55
3728.11
3739.8
3751.59
3763.5
3775.57
3787.83
3800.33
3813.11
3826.23
3839.75
3853.73
3868.26
3883.42
3899.33
3916.11
3933.93
3952.99
3973.5
3995.73
4019.97
4046.53
4075.74
4107.92
4143.45
4182.77
4226.44
4275.07
4329.39
4390.06
4457.9
4533.93
4607.69
4597.45
4698.43
4642.59
4690.04
4750.54
4746.47
4797.2
4798.38
3710.62
3722.15
3733.8
3745.55
3757.43
3769.44
3781.64
3794.05
3806.73
3819.72
3833.08
3846.87
3861.16
3876.04
3891.59
3907.94
3925.24
3943.66
3963.44
3984.84
4008.16
4033.72
4061.86
4092.92
4127.26
4165.33
4207.65
4254.83
4307.65
4367.06
4433.99
4509.41
4586.05
4572.66
4631.48
4739.78
4679.64
4730.43
4796.46
4791.57
4847.21
4848.09
3704.7
3716.19
3727.8
3739.51
3751.33
3763.29
3775.42
3787.75
3800.33
3813.19
3826.39
3839.98
3854.04
3868.63
3883.84
3899.77
3916.56
3934.37
3953.4
3973.92
3996.25
4020.75
4047.74
4077.57
4110.58
4147.21
4188
4233.51
4284.45
4341.84
4406.92
4480.97
4558.67
4543.03
4618.52
4603.89
4667.17
4783.79
4718.71
4773.19
4845.51
4839.65
4900.73
4901.3
3698.81
3710.24
3721.81
3733.47
3745.24
3757.13
3769.19
3781.44
3793.91
3806.64
3819.68
3833.09
3846.92
3861.24
3876.12
3891.65
3907.95
3925.15
3943.45
3963.1
3984.41
4007.79
4033.57
4062.07
4093.62
4128.66
4167.71
4211.37
4260.27
4315.27
4377.64
4449.11
4527.05
4509.57
4588.14
4571.2
4652.68
4636.46
4704.74
4830.65
4759.99
4818.59
4898.01
4891.04
4958.11
4958.4
3692.94
3704.31
3715.83
3727.44
3739.14
3750.98
3762.96
3775.11
3787.48
3800.08
3812.98
3826.2
3839.82
3853.87
3868.44
3883.59
3899.42
3916.05
3933.65
3952.45
3972.79
3995.03
4019.54
4046.62
4076.6
4109.88
4147.01
4188.59
4235.27
4287.82
4347.24
4415.13
4492.01
4473.05
4553.39
4534.67
4618.96
4600.34
4688.62
4670.61
4744.35
4880.61
4803.68
4866.88
4954.32
4946.08
5019.82
5019.82
3687.1
3698.41
3709.88
3721.42
3733.07
3744.83
3756.73
3768.79
3781.05
3793.53
3806.28
3819.33
3832.74
3846.54
3860.81
3875.61
3891.01
3907.11
3924.05
3942.04
3961.44
3982.63
4005.89
4031.53
4059.8
4091.12
4126.06
4165.29
4209.48
4259.42
4315.99
4380.25
4454.42
4434.64
4515.39
4495.41
4580.83
4560.62
4651.17
4630.71
4726.42
4706.41
4786.13
4934
4850.02
4918.34
5014.86
5005.2
5086.39
5086.03
3681.29
3692.55
3703.95
3715.43
3727.01
3738.7
3750.51
3762.48
3774.63
3786.99
3799.6
3812.48
3825.68
3839.26
3853.25
3867.72
3882.72
3898.34
3914.69
3931.94
3950.45
3970.64
3992.78
4017.04
4043.58
4072.78
4105.27
4141.78
4183.1
4230
4283.49
4344.4
4415.66
4395.52
4475.08
4454.33
4539.8
4518.38
4609.5
4587.71
4684.9
4662.56
4766.16
4743.99
4830.32
4991.22
4899.29
4973.31
5080.1
5068.84
5158.32
5157.56
3675.52
3686.72
3698.06
3709.48
3720.98
3732.59
3744.32
3756.2
3768.24
3780.48
3792.94
3805.66
3818.67
3832.02
3845.75
3859.91
3874.55
3889.74
3905.55
3922.15
3939.86
3959.15
3980.29
4003.26
4028.17
4055.28
4085.22
4118.77
4156.8
4200.17
4249.95
4307.26
4376.11
4355.51
4433.5
4412.34
4496.54
4474.35
4565.28
4542.28
4639.66
4616.15
4720.41
4696.3
4808.08
4783.7
4877.21
5052.68
4951.8
5032.19
5150.54
5137.5
5236.29
5235.06
3669.8
3680.93
3692.2
3703.55
3714.99
3726.52
3738.16
3749.94
3761.88
3773.99
3786.31
3798.87
3811.7
3824.84
3838.33
3852.2
3866.51
3881.3
3896.63
3912.65
3929.67
3948.17
3968.44
3990.32
4013.74
4038.9
4066.37
4096.96
4131.54
4171.03
4216.55
4269.36
4335.49
4314.49
4391.11
4369.52
4451.94
4429.31
4518.83
4495.02
4592.03
4567.36
4671.64
4646.34
4758.25
4732.37
4852.59
4826.19
4927.21
5118.91
5007.96
5095.5
5226.79
5211.75
5321.04
5319.21
3664.12
3675.18
3686.39
3697.67
3709.03
3720.48
3732.04
3743.72
3755.55
3767.54
3779.72
3792.13
3804.78
3817.72
3830.97
3844.58
3858.58
3873.01
3887.92
3903.42
3919.84
3937.66
3957.2
3978.2
4000.38
4023.75
4048.88
4076.67
4107.97
4143.63
4184.64
4232.39
4294.18
4273.78
4347.86
4325.91
4406.53
4383.57
4470.95
4446.7
4542.17
4516.56
4620.43
4593.92
4705.94
4678.78
4799
4771.36
4900.38
4872.31
4980.92
5190.44
5068.46
5163.91
5309.47
5292.18
5413.44
5410.91
3658.49
3669.48
3680.62
3691.83
3703.11
3714.48
3725.95
3737.54
3749.26
3761.13
3773.18
3785.43
3797.92
3810.66
3823.69
3837.05
3850.77
3864.87
3879.4
3894.44
3910.31
3927.55
3946.47
3966.78
3987.99
4009.91
4032.87
4058.05
4086.43
4118.62
4155.39
4197.93
4247.93
4304.26
4283.02
4360.49
4337.33
4422.31
4397.83
4490.68
4464.64
4566.8
4539.18
4650.91
4622.32
4743.1
4713.91
4843.42
4813.95
4952.49
4922.98
5039.49
5267.93
5134.4
5238.5
5399.55
5379.72
5514.48
5511.14
3652.9
3663.82
3674.9
3686.04
3697.24
3708.53
3719.91
3731.4
3743.02
3754.77
3766.69
3778.8
3791.11
3803.67
3816.49
3829.62
3843.06
3856.87
3871.05
3885.68
3901.03
3917.74
3936.15
3955.91
3976.4
3997.21
4018.43
4041.27
4066.9
4096.01
4129.13
4167.04
4211.22
4270.78
4249.93
4314.47
4292.27
4373.32
4348.84
4438.51
4412.38
4511.25
4483.19
4592.94
4562.97
4683.79
4652.7
4783.64
4752.06
4892.4
4860.78
5009.9
4979.04
5104.4
5352.44
5207.62
5321.11
5497.94
5475.24
5625.32
5621
3647.36
3658.22
3669.23
3680.29
3691.42
3702.63
3713.93
3725.32
3736.83
3748.46
3760.25
3772.22
3784.37
3796.75
3809.37
3822.27
3835.47
3848.99
3862.86
3877.13
3892
3908.17
3926.13
3945.45
3965.4
3985.4
4005.4
4026.26
4049.23
4075.5
4105.52
4139.54
4178.45
4230.5
4211.94
4279.05
4257.51
4324.78
4301.49
4386.31
4360.4
4455.1
4427.1
4532.65
4502.24
4620.63
4587.85
4719.17
4685.03
4827.87
4793.25
4946.45
4912.02
5073.54
5040.92
5176.71
5445.33
5289.79
5413.93
5605.64
5580.06
5747.36
5741.85
3641.87
3652.66
3663.6
3674.6
3685.66
3696.78
3707.99
3719.29
3730.69
3742.21
3753.88
3765.7
3777.7
3789.9
3802.33
3815.01
3827.97
3841.24
3854.82
3868.75
3883.2
3898.81
3916.3
3935.26
3954.8
3974.2
3993.41
4012.83
4033.5
4056.89
4083.84
4114.53
4149.03
4194.73
4178.25
4237.13
4217.85
4287.05
4264.57
4335.02
4310.56
4399.26
4371.74
4471.91
4441.75
4554.74
4521.62
4649.72
4613.67
4756.95
4719.16
4875.76
4837.38
5005.61
4967.6
5144.18
5108.86
5257.27
5549.04
5381.79
5518.16
5723.84
5695.78
5882.26
5875.3
3636.5
3647.15
3658.03
3668.96
3679.94
3690.99
3702.11
3713.31
3724.61
3736.03
3747.56
3759.25
3771.1
3783.13
3795.38
3807.85
3820.59
3833.6
3846.91
3860.55
3874.6
3889.65
3906.61
3925.22
3944.46
3963.42
3982.08
4000.65
4019.71
4040.35
4064.06
4091.43
4122.24
4156.55
4199.71
4182.46
4243.24
4223.09
4294.48
4270.93
4344.94
4319.17
4411.88
4382.58
4488.71
4456.1
4577.33
4541.14
4680.09
4640.28
4797.05
4755.08
4927.26
4884.53
5069.98
5027.73
5221.97
5182.89
5346.49
5665.64
5484.1
5634
5853.73
5824.34
6031.92
6023.5
3641.76
3652.5
3663.37
3674.28
3685.25
3696.29
3707.4
3718.6
3729.9
3741.32
3752.87
3764.57
3776.45
3788.51
3800.79
3813.3
3826.08
3839.13
3852.48
3866.2
3880.7
3897.02
3915.25
3934.25
3952.91
3971.17
3989.26
4007.46
4026.24
4046.87
4070.61
4097.97
4128.44
4169.2
4153.34
4204.07
4186.07
4248.6
4227.51
4301.07
4276.37
4354.23
4327.05
4423.97
4392.7
4505.32
4469.95
4600.33
4560.71
4711.76
4667.77
4839.68
4793.04
4982.72
4935.09
5139.74
5092.73
5307.07
5263.23
5444.72
5796.01
5597.04
5762.25
5998.7
5970.59
6197.79
6187.91
3647.1
3657.83
3668.68
3679.57
3690.53
3701.55
3712.65
3723.84
3735.14
3746.56
3758.12
3769.84
3781.73
3793.82
3806.13
3818.67
3831.47
3844.56
3857.97
3871.97
3887.56
3905.31
3924.07
3942.53
3960.49
3978.32
3996.14
4014.06
4032.73
4053.42
4077.1
4103.83
4139.11
4125.85
4171.58
4155.63
4207.61
4188.93
4253
4230.95
4306.67
4280.79
4362.68
4333.99
4435.36
4402.02
4521.64
4483.28
4623.77
4580.32
4744.96
4696.24
4885.1
4833.13
5042.42
4989.13
5215.19
5162.72
5400.19
5350.36
5552.4
5943.32
5722.27
5859.64
5880.86
6162.23
6139.43
6381.71
6369.48
3652.41
3663.12
3673.95
3684.83
3695.76
3706.76
3717.85
3729.04
3740.33
3751.76
3763.32
3775.05
3786.95
3799.05
3811.38
3823.94
3836.77
3849.89
3863.46
3878.3
3895.4
3913.88
3932.2
3949.96
3967.61
3985.27
4002.9
4020.72
4039.53
4060.35
4083.75
4109.28
4141.17
4128.19
4173.36
4157.38
4210.24
4191
4256.37
4233.41
4311.26
4284.22
4370.2
4339.93
4446.07
4410.53
4537.73
4496.2
4647.7
4600.03
4779.66
4725.6
4933.28
4875.09
5106.34
5046.05
5296.68
5237.51
5502.76
5407.11
5436.92
5655.66
5627.8
5958.52
6077.05
6059.94
5838.28
5811.59
5717.97
5936.47
6349.03
6169.02
6279.67
6289.52
6589.09
6577.84
3657.7
3668.39
3679.19
3690.04
3700.95
3711.93
3723.01
3734.18
3745.47
3756.89
3768.45
3780.18
3792.09
3804.2
3816.54
3829.11
3841.96
3855.16
3869.29
3885.56
3903.66
3921.84
3939.48
3957
3974.59
3992.15
4009.68
4027.6
4046.69
4067.68
4090.75
4119.1
4109.46
4143.07
4130.4
4174.69
4158.86
4212.02
4192.41
4258.81
4235.08
4314.96
4286.83
4376.83
4344.96
4456.25
4418.39
4553.59
4508.68
4671.98
4619.63
4815.32
4755.17
4983.24
4917.73
5173.53
5107.41
5073.16
5378.09
5345.88
5278.52
5313.4
5486.21
5601.29
5570.03
5455.66
5689.62
6040.9
6151.01
5912.06
5884.63
5784.4
6017.81
6399.26
6516.92
6517.41
6266.59
6388.34
6855.82
6652.19
6786.22
6779.22
3662.98
3673.62
3684.38
3695.2
3706.09
3717.05
3728.11
3739.27
3750.54
3761.95
3773.51
3785.24
3797.15
3809.26
3821.59
3834.17
3847.06
3860.57
3875.88
3893.41
3911.47
3928.97
3946.4
3963.96
3981.53
3999
4016.52
4034.64
4054.04
4075.13
4097.74
4122.08
4112.53
4144.93
4132.79
4175.86
4160.4
4213.23
4193.46
4260.56
4236.29
4318.06
4288.94
4382.76
4349.31
4465.86
4425.64
4569.02
4520.51
4695.85
4638.34
4850.74
4783.79
5038.47
5003.19
4967.08
4930.85
5243.05
5205.75
5137.09
5101.18
5423.74
5389.69
5316.92
5354.1
5538.76
5659.9
5627.57
5505.58
5754.11
6129.9
6248.39
5991.18
5854.78
5961.36
6104.81
6515.76
6651.53
6373.81
6506.8
6960.39
7183.97
7177.85
6798.7
6966.68
3668.2
3678.79
3689.53
3700.32
3711.17
3722.12
3733.15
3744.29
3755.55
3766.94
3778.49
3790.21
3802.1
3814.21
3826.53
3839.13
3852.16
3866.51
3883.21
3901.05
3918.41
3935.7
3953.25
3970.91
3988.42
4005.78
4023.33
4041.62
4061.12
4081.88
4106.53
4098.22
4124.83
4115.36
4146.96
4135.23
4177.13
4161.98
4214.24
4194.52
4261.96
4237.31
4320.62
4290.55
4388.07
4353.09
4474.7
4432.05
4583.23
4530.99
4718.3
4655.31
4894.22
4857.89
4821.58
4785.82
5064.28
5026.7
4988.49
4950.03
5278.49
5238.63
5167.73
5129.09
5470.82
5434.08
5355.52
5395.52
5593.18
5721.5
5686.54
5556.82
5821.65
6225.48
6353.95
6075.56
5928.51
6042.35
6197.86
6648.94
6803.32
6491.29
6638.87
7180.77
7482.82
7464.43
6977.25
7184.71
3673.37
3683.92
3694.62
3705.37
3716.2
3727.12
3738.12
3749.24
3760.48
3771.85
3783.38
3795.08
3806.96
3819.04
3831.36
3844.01
3857.54
3873.18
3890.57
3907.84
3924.89
3942.35
3960.11
3977.8
3995.18
4012.39
4029.89
4048.14
4067.36
4087.4
4109.03
4100.62
4127.2
4117.84
4148.85
4137.41
4178.25
4163.3
4215.15
4195.49
4262.98
4238.07
4322.41
4291.46
4392.56
4356.07
4482.14
4437.06
4595.37
4539.26
4750.67
4716.18
4682.69
4649.82
4911.47
4873.08
4834.96
4797.4
5089.77
5049.85
5009.37
4968.69
5314.19
5198.04
5271.6
5156.81
5518.93
5479.14
5394.58
5437.53
5649
5785.68
5747.33
5609.31
5892.14
6328.61
6469.05
6165.35
6005.72
6128.05
6297.59
6799.51
6978.43
6620.84
6786.25
7447.06
7793.83
7769
7185.17
7432.44
3678.5
3689
3699.66
3710.38
3721.17
3732.05
3743.03
3754.11
3765.32
3776.67
3788.17
3799.84
3811.69
3823.76
3836.09
3848.97
3863.49
3880.13
3897.28
3914.04
3931.25
3949.01
3966.93
3984.55
4001.7
4018.67
4035.95
4053.92
4072.58
4094.74
4087.06
4111.19
4102.79
4129.23
4119.97
4150.42
4139.23
4178.98
4164.22
4215.83
4196.16
4263.37
4238.19
4322.86
4291.2
4395.67
4357.67
4487.42
4439.95
4604.31
4544.54
4760.61
4724.64
4689.66
4655.94
4928.05
4887.63
4847.59
4808.18
5114.97
5072.61
5029.79
4986.83
5350.28
5228.29
5304.79
5184.4
5568.04
5525.06
5434.42
5480.43
5706.46
5852.39
5810.07
5663.26
5965.46
6440.17
6594.88
6260.85
6086.62
6218.65
6404.28
6969.19
7176.36
6763.66
6949.75
7731.2
8075.3
8055.59
7416.72
7696.96
3683.57
3694.02
3704.63
3715.32
3726.07
3736.91
3747.85
3758.9
3770.08
3781.39
3792.86
3804.5
3816.32
3828.36
3840.77
3854.26
3869.91
3886.7
3903.28
3920.08
3937.65
3955.67
3973.62
3991.03
4007.84
4024.44
4041.36
4058.84
4076.77
4096.6
4088.84
4113.04
4104.66
4130.95
4121.78
4151.65
4140.77
4179.28
4164.88
4215.83
4196.23
4262.74
4237.41
4321.57
4289.49
4396.72
4357.3
4489.9
4440.21
4625.53
4592.11
4530.81
4561.13
4769.66
4732.07
4695.51
4660.06
4943.98
4901.42
4859.35
4817.99
5139.95
5095.03
5049.71
5004.31
5387.01
5258.64
5338.4
5211.9
5618.39
5572.2
5475.2
5524.5
5765.52
5921.45
5874.69
5718.64
6041.49
6560.69
6731.92
6361.98
6171.45
6313.82
6518.49
7157.96
7394.54
6920.43
7129.74
8012.84
8337.91
8324.63
7665.05
7968.16
3688.59
3698.98
3709.55
3720.19
3730.9
3741.7
3752.6
3763.61
3774.75
3786.02
3797.45
3809.04
3820.82
3832.86
3845.56
3860.04
3876.21
3892.62
3909.01
3926.18
3944.11
3962.25
3980.08
3997.14
4013.46
4029.58
4046.02
4062.87
4082.98
4075.82
4098.2
4090.45
4114.6
4106.24
4132.44
4123.31
4152.72
4142.12
4179.28
4165.45
4215.09
4195.76
4260.9
4235.67
4318.91
4286.71
4395.5
4355.11
4503.12
4476.02
4437.52
4627.41
4593.25
4530.4
4561.04
4777.63
4738.31
4700.14
4663.17
4959.1
4914.27
4870.01
4826.59
5164.66
5117
5068.96
5020.93
5424.41
5289.12
5372.43
5239.27
5670.16
5620.7
5516.85
5569.69
5826.11
5992.88
5941.53
5775.56
6120.48
6690.63
6880.61
6469.26
6260.11
6413.86
6640.76
7364.71
7629.79
7091.3
7326.07
8286.46
8586.2
8579.14
7924.86
8241.52
3693.55
3703.88
3714.4
3724.99
3735.65
3746.41
3757.26
3768.23
3779.32
3790.55
3801.93
3813.46
3825.2
3837.33
3850.67
3865.97
3882.04
3898.12
3914.76
3932.37
3950.53
3968.65
3986.18
4002.74
4018.44
4034.03
4049.9
4066.03
4084.27
4077.04
4099.51
4091.75
4115.86
4107.53
4133.67
4124.55
4153.72
4143.31
4179.22
4165.98
4213.72
4194.97
4258.23
4233.36
4315.26
4283.22
4392.26
4351.44
4501.83
4474.97
4446.81
4421.72
4627.89
4592.76
4528.53
4559.68
4784.29
4743.17
4703.33
4664.89
4973.17
4925.91
4879.34
4833.74
5188.97
5138.29
5087.3
5036.41
5462.42
5319.69
5406.78
5266.33
5723.58
5670.59
5559.33
5616.01
5888.63
6066.73
6010.6
5834.44
6202.63
6830.59
7041.56
6583.42
6353.13
6519.72
6771.63
7588.11
7878.96
7276.63
7537.98
8554.91
8829
8831.47
8193.92
8519.2
3698.44
3708.72
3719.18
3729.72
3740.33
3751.04
3761.85
3772.76
3783.8
3794.97
3806.27
3817.75
3829.47
3841.91
3856.11
3871.62
3887.41
3903.53
3920.62
3938.57
3956.82
3974.75
3991.83
4007.7
4022.74
4037.76
4053.02
4071.3
4064.69
4085.34
4078.19
4100.5
4092.77
4116.81
4108.51
4134.54
4125.46
4154.51
4144.16
4178.85
4166
4212.02
4193.99
4255.1
4230.75
4310.95
4279.24
4399.73
4377.95
4346.48
4499.5
4472.37
4442.92
4418.57
4626.75
4590.65
4525.28
4556.86
4789.43
4746.46
4704.95
4665.01
4985.94
4936.11
4887.13
4839.3
5212.61
5158.63
5104.45
5050.53
5500.91
5350.18
5441.16
5292.83
5778.87
5721.99
5602.49
5663.37
5953.19
6143.15
6081.97
5895.2
6288.85
6981.4
7215.69
6704.97
6451.34
6632.2
6912.18
7826.87
8141.3
7476.88
7765.28
8829.32
9087.5
9107.64
8474.18
8810.23
3703.27
3713.48
3723.89
3734.37
3744.94
3755.59
3766.34
3777.19
3788.16
3799.26
3810.49
3821.91
3833.72
3846.76
3861.5
3876.88
3892.56
3909.04
3926.55
3944.71
3962.89
3980.46
3996.91
4011.97
4026.34
4040.81
4055.41
4072.23
4065.54
4086.19
4079.1
4101.19
4093.54
4117.41
4109.14
4134.99
4126.01
4154.73
4144.5
4177.76
4165.28
4209.98
4192.46
4251.62
4227.74
4315.53
4298.82
4274.32
4396.18
4374.89
4332.36
4351.67
4495.97
4468.67
4438.3
4414.38
4624.06
4586.99
4520.61
4552.53
4792.96
4748.14
4704.95
4663.53
4997.21
4944.74
4893.32
4843.26
5235.32
5177.76
5120.21
5063.14
5539.63
5380.17
5475.16
5318.44
5835.73
5774.58
5645.92
5711.44
6019.96
6223.12
6156.55
5957.58
6379.94
7144.25
7404.2
6835.32
6555.59
6752.89
7063.79
8080.69
8418.78
7692.38
8008.79
9133.19
9425.2
9467.19
8771.92
9130.32
3708.02
3718.17
3728.53
3738.95
3749.45
3760.04
3770.72
3781.51
3792.4
3803.41
3814.57
3825.96
3838.06
3851.78
3866.62
3881.87
3897.74
3914.66
3932.48
3950.69
3968.63
3985.69
4001.3
4015.51
4029.29
4043.19
4059.96
4053.78
4072.98
4066.36
4086.82
4079.8
4101.62
4094.08
4117.64
4109.46
4135.02
4126.16
4154.33
4144.35
4175.88
4163.88
4207.37
4190.19
4247.67
4224.25
4311.97
4295.51
4277.61
4263.36
4392.19
4371.24
4329.04
4347.37
4491.19
4463.9
4432.72
4409.31
4619.94
4581.9
4514.6
4546.77
4794.9
4748.25
4703.4
4660.58
5006.9
4951.75
4897.89
4845.63
5256.85
5195.5
5134.45
5074.15
5578.1
5409.29
5508.31
5342.92
5893.82
5827.92
5688.92
5759.71
6089.36
6307.39
6234.74
6021.64
6476.71
7320.8
7607.96
6976.08
6667.4
6883.47
7228.49
8351.35
8715.4
7924.58
8270.12
9503.16
9945.21
9955.9
9095.83
9497.54
3712.7
3722.79
3733.07
3743.43
3753.86
3764.38
3774.99
3785.7
3796.51
3807.43
3818.52
3829.98
3842.58
3856.7
3871.48
3886.77
3903.03
3920.31
3938.31
3956.42
3973.96
3990.3
4004.96
4018.37
4031.64
4044.96
4060.61
4054.38
4073.53
4066.98
4087.22
4080.28
4101.8
4094.39
4117.54
4109.5
4134.63
4125.92
4153.37
4143.73
4173.64
4162.17
4204.26
4187.46
4250.7
4238.47
4220.33
4308.27
4292.34
4274.4
4260.76
4387.46
4366.79
4325.08
4342.83
4485.17
4457.98
4426.28
4403.41
4614.6
4575.71
4507.51
4539.94
4795.28
4746.85
4700.39
4656.25
5014.96
4957.11
4900.84
4846.44
5277.05
5211.73
5147.06
5083.49
5615.46
5437.24
5539.98
5366.13
5952.75
5881.5
5730.75
5807.58
6161.53
6396.79
6316.89
6087.59
6580.18
7512.77
7828.49
7129.43
6788.32
7026.19
7408.92
8641.71
9036.28
8175.33
8551.59
9952.24
10549.6
10516.2
9455.05
9917.47
3717.3
3727.31
3737.53
3747.81
3758.17
3768.61
3779.14
3789.76
3800.48
3811.32
3822.37
3834.05
3847.19
3861.41
3876.17
3891.73
3908.39
3925.94
3943.98
3961.82
3978.79
3994.23
4007.86
4020.65
4033.45
4046.3
4061.14
4055.04
4073.9
4067.44
4087.4
4080.56
4101.74
4094.46
4117.14
4109.28
4133.85
4125.33
4152.09
4142.75
4171.43
4160.37
4200.92
4184.69
4248.01
4235.87
4212.71
4222.86
4304.3
4288.83
4271.23
4257.96
4381.97
4361.75
4320.71
4337.96
4478.11
4451.12
4419.21
4396.85
4608.15
4568.56
4499.63
4532.29
4794.22
4744.1
4696.09
4650.7
5021.33
4960.84
4902.23
4845.76
5295.84
5226.35
5157.96
5091.08
5651.14
5463.59
5569.76
5387.7
6012.51
5935.1
5771.06
5854.65
6236.69
6491.97
6403.55
6155.54
6691.64
7721.99
8067.67
7298.57
6920.57
7184.06
7606.83
8954.81
9385.42
8446.09
8854.34
10456.5
11153.9
11098.4
9852.86
10379.8
3721.81
3731.75
3741.89
3752.09
3762.37
3772.73
3783.17
3793.7
3804.32
3815.08
3826.16
3838.24
3851.71
3865.95
3880.84
3896.78
3913.77
3931.48
3949.4
3966.81
3983.02
3997.4
4010.11
4022.43
4034.81
4049.88
4055.39
4044.17
4061.5
4074.11
4067.73
4087.38
4080.65
4101.43
4094.29
4116.46
4108.8
4132.75
4124.43
4150.58
4141.44
4169.29
4158.48
4197.68
4182.07
4245.44
4233.69
4210.57
4220.72
4300.17
4285.24
4268.1
4255.18
4375.88
4356.25
4316.07
4332.83
4470.26
4443.55
4411.61
4389.79
4600.7
4560.54
4491.06
4523.9
4791.73
4740.07
4690.68
4644.11
5026.01
4962.94
4902.05
4843.56
5312.89
5239.18
5167.04
5096.89
5684.91
5488.02
5597.48
5407.26
6073.05
5988.42
5809.75
5900.6
6314.99
6593.96
6495.98
6225.34
6813.31
7949.34
8326.43
7485.03
7066.84
7358.17
7822.33
9292.47
9764.6
8737.34
9179.33
10990.7
11748.1
11676.4
10284.5
10869.5
3726.22
3736.09
3746.15
3756.27
3766.46
3776.73
3787.08
3797.5
3808.03
3818.72
3829.97
3842.46
3856.09
3870.4
3885.57
3901.88
3919.11
3936.85
3954.49
3971.3
3986.55
3999.8
4011.84
4023.8
4035.72
4055.75
4050.13
4044.37
4061.76
4074.17
4067.9
4087.17
4080.59
4100.89
4093.93
4115.51
4108.07
4131.33
4123.25
4148.81
4139.83
4166.83
4156.17
4199.69
4191.44
4179.27
4242.96
4231.48
4208.76
4218.66
4296.08
4281.7
4265.1
4252.5
4369.43
4350.51
4311.36
4327.6
4461.71
4435.36
4403.82
4382.6
4592.38
4551.75
4481.98
4514.9
4787.76
4734.7
4684.2
4636.6
5028.91
4963.26
4900.16
4839.76
5327.84
5249.96
5174.1
5100.63
5716.7
5510.39
5622.88
5424.73
6134.13
6040.94
5845.96
5944.76
6397.48
6704.93
6595.76
6297.73
6947.42
8195.02
8604.86
7687.6
7227.63
7546.44
8053.96
9655.45
10172.3
9048.99
9527.51
11526.7
12215.5
12180.9
10740.1
11367.6
3730.54
3740.32
3750.3
3760.33
3770.44
3780.61
3790.85
3801.17
3811.61
3822.31
3833.83
3846.63
3860.36
3874.85
3890.38
3907
3924.36
3941.98
3959.18
3975.2
3989.34
4001.56
4013.16
4024.79
4036.38
4055.96
4050.32
4044.68
4061.89
4074.1
4067.94
4086.81
4080.38
4100.14
4093.39
4114.31
4107.11
4129.6
4121.79
4146.63
4137.84
4163.33
4153.04
4197.76
4189.48
4173.39
4179.97
4240.55
4229.27
4206.75
4216.5
4292.25
4278.34
4262.25
4249.88
4362.92
4344.72
4306.95
4322.59
4452.74
4426.89
4396.12
4375.62
4583.48
4542.43
4472.56
4505.44
4782.33
4728.05
4676.7
4628.35
5029.72
4961.57
4896.35
4834.19
5340.62
5258.41
5178.73
5101.89
5745.79
5530.37
5645.63
5439.86
6196.03
6092.59
5874.75
5986.6
6485.08
6826.34
6703.01
6373.3
7093.39
8458.92
8902.63
7903.76
7399.84
7745.78
8301.38
10043.3
10600.8
9382.67
9898.15
12034.2
12581.1
12576.7
11206.8
11854.3
3734.76
3744.46
3754.34
3764.28
3774.29
3784.36
3794.5
3804.72
3815.07
3825.88
3837.72
3850.72
3864.59
3879.35
3895.23
3912.08
3929.45
3946.8
3963.38
3978.41
3991.36
4002.83
4014.15
4025.48
4039.43
4044.74
4034.05
4056.08
4050.4
4061.92
4073.9
4067.86
4086.3
4080.04
4099.23
4092.69
4112.86
4105.94
4127.51
4120.03
4143.84
4135.39
4171.09
4162.52
4157.33
4148.93
4195.48
4187.35
4177.56
4238.11
4226.97
4204.37
4214.04
4288.76
4275.21
4259.38
4247.16
4356.69
4339.15
4302.97
4317.98
4443.65
4418.45
4388.55
4368.89
4574.15
4532.86
4463.04
4495.8
4775.35
4720.06
4668.12
4619.37
5028.1
4957.52
4890.27
4826.48
5350.95
5264.16
5180.56
5100.39
5767.37
5547.58
5664.51
5448.63
6258.95
6141.28
5920.96
6027.87
6576.52
6955.75
6812.29
6447.68
7247.94
8740.89
9220.39
8133.33
7581.16
7956.67
8565.37
10450.6
11041.8
9736.73
10286.9
12480.3
12912.9
12925.7
11672.1
12314.6
3738.87
3748.48
3758.27
3768.12
3778.02
3787.98
3798.01
3808.14
3818.47
3829.47
3841.58
3854.77
3868.84
3883.92
3900.1
3917.06
3934.33
3951.23
3967
3980.89
3992.71
4003.77
4014.87
4025.92
4044.89
4039.51
4034.08
4056.09
4050.44
4061.85
4073.6
4067.68
4085.67
4079.59
4098.15
4091.86
4111.18
4104.59
4125.06
4117.99
4140.37
4132.47
4168.3
4159.68
4154.73
4143.25
4147.36
4192.74
4184.76
4174.61
4235.48
4224.42
4201.53
4211.13
4285.38
4272.12
4256.27
4244.11
4350.8
4333.93
4299.22
4313.72
4434.57
4410.1
4381.19
4362.52
4564.14
4522.96
4453.67
4486.09
4766.39
4710.29
4658.08
4609.32
5023.77
4950.77
4881.54
4816.22
5353.85
5264.26
5178.54
5096.27
5766.54
5566.43
5666.96
5477.44
6321.39
6205.73
5903.12
6043.04
6667.78
7090.23
6930.65
6534.62
7408.95
9041.13
9558.01
8378.41
7771.89
8181.89
8846.89
10871.3
11489.4
10108.7
10690.4
12880
13224.2
13253.5
12128.2
12745.3
3742.88
3752.39
3762.08
3771.83
3781.63
3791.48
3801.41
3811.45
3821.83
3833.06
3845.42
3858.8
3873.13
3888.53
3904.94
3921.91
3938.91
3955.18
3969.94
3982.57
3993.62
4004.48
4015.39
4026.3
4044.95
4039.59
4034.26
4056.04
4050.44
4061.7
4073.2
4067.43
4084.94
4079.04
4096.95
4090.91
4109.33
4103.09
4122.29
4115.72
4136.26
4129.11
4165.13
4156.43
4151.75
4140.71
4144.53
4189.44
4181.62
4171.17
4232.47
4221.47
4198.11
4207.63
4281.88
4268.87
4252.52
4240.43
4345.3
4329.07
4295.41
4309.5
4425.71
4401.9
4374.01
4356.3
4552.92
4512.35
4444.39
4476.15
4754.95
4698.35
4646.32
4597.78
5017.58
4942.79
4872.24
4806.19
5345.1
5257.61
5173.38
5091.67
5763.44
5574.7
5664.07
5463.09
6348.5
6189.47
5899.81
6040.27
6709.31
7234.48
6917.78
6519.05
7581.27
9361.35
9915.23
8640.61
7975.59
8420.07
9148.16
11304
11936.8
10497
11108.9
13251.6
13499.9
13576.1
12570.9
13159.7
3746.77
3756.19
3765.78
3775.42
3785.11
3794.86
3804.69
3814.68
3825.19
3836.66
3849.25
3862.85
3877.46
3893.16
3909.7
3926.56
3943.1
3958.54
3972.12
3983.6
3994.28
4005.02
4015.81
4026.57
4034.28
4044.97
4039.63
4055.96
4050.39
4061.52
4072.76
4067.12
4084.13
4078.42
4095.65
4089.87
4107.35
4101.47
4119.31
4113.29
4131.78
4125.46
4161.57
4152.91
4148.57
4138.05
4141.55
4185.53
4177.93
4167.29
4228.87
4217.91
4194.03
4203.39
4277.9
4265.03
4247.74
4235.79
4339.87
4324.29
4291.2
4304.96
4417.07
4393.88
4366.72
4349.87
4539.98
4500.56
4434.95
4465.69
4744.32
4686.57
4632.78
4584.31
5012.92
4937.98
4867.56
4801.99
5342.31
5254.93
5170.82
5089.15
5760.8
5572.39
5661.59
5459.9
6345.88
6186.34
5897.01
6037.72
6706.81
7226.33
6915.16
6516.1
7576.32
9712.09
10289.8
8914.11
7974.66
8423.47
9466.79
11742.4
12381.3
10901.6
11539.2
13606.2
13832.3
13974.5
13005.8
13561.9
3750.55
3759.87
3769.36
3778.89
3788.47
3798.11
3807.85
3817.86
3828.53
3840.25
3853.08
3866.93
3881.85
3897.78
3914.33
3930.92
3946.81
3961.21
3973.52
3984.24
3994.79
4005.44
4016.13
4026.82
4034.44
4034.47
4044.97
4039.69
4055.83
4050.32
4061.3
4072.29
4066.79
4083.3
4077.79
4094.31
4088.81
4105.3
4099.81
4116.23
4110.77
4129.7
4135.28
4126.86
4121.65
4157.68
4149.19
4145.23
4138.48
4181.03
4173.74
4163.02
4224.36
4213.53
4189.23
4198.3
4272.87
4260.12
4241.61
4229.91
4334.17
4319.24
4285.98
4299.46
4408.37
4385.79
4358.81
4342.69
4526.84
4488.83
4424.38
4453.91
4740.68
4661.77
4615.22
4569.35
5010.48
4935.6
4865.26
4799.83
5339.96
5252.65
5168.61
5087.02
5758.6