/*--------------------------------*- C++ -*----------------------------------*\
  =========                 |
  \\      /  F ield         | OpenFOAM: The Open Source CFD Toolbox
   \\    /   O peration     | Website:  https://openfoam.org
    \\  /    A nd           | Version:  dev
     \\/     M anipulation  |
\*---------------------------------------------------------------------------*/
FoamFile
{
    version     2.0;
    format      ascii;
    class       volScalarField;
    location    "2500";
    object      H2O;
}
// * * * * * * * * * * * * * * * * * * * * * * * * * * * * * * * * * * * * * //

dimensions      [0 0 0 0 0 0 0];

internalField   nonuniform List<scalar> 
9846
(
6.22865e-27
2.39482e-26
1.4288e-26
4.7734e-26
5.49125e-26
1.44106e-26
1.235e-25
1.84237e-25
6.35806e-26
5.28215e-27
3.98474e-25
5.91059e-25
2.86655e-25
6.16731e-26
2.02914e-27
7.59611e-25
1.29496e-24
6.8174e-25
2.72014e-25
2.95894e-26
1.71656e-27
1.16306e-24
3.21482e-24
1.83541e-24
6.7315e-25
2.02321e-25
1.21259e-26
8.55832e-28
3.6061e-24
7.2638e-24
5.1411e-24
1.72508e-24
5.89713e-25
8.80282e-26
7.88663e-27
5.56571e-28
5.94398e-24
1.2801e-23
1.09423e-23
5.89536e-24
1.51671e-24
4.66865e-25
4.47405e-26
4.57455e-27
9.3468e-29
7.6934e-24
2.23091e-23
2.11488e-23
1.29769e-23
5.10643e-24
1.2977e-24
2.48106e-25
2.32154e-26
1.69034e-27
2.54477e-29
1.10143e-23
2.94873e-23
4.33549e-23
2.97053e-23
1.3292e-23
4.18235e-24
8.82779e-25
8.81011e-26
7.38173e-27
5.53533e-28
9.58392e-30
2.46073e-23
5.09279e-23
9.74685e-23
7.7413e-23
3.18682e-23
9.48688e-24
2.8611e-24
4.47633e-25
5.36351e-26
2.52038e-27
1.65588e-28
6.64871e-30
2.27622e-23
1.19426e-22
1.82899e-22
1.52899e-22
8.31297e-23
2.44445e-23
7.05301e-24
2.1647e-24
2.51133e-25
1.68471e-26
1.14853e-27
8.11889e-29
6.42941e-30
5.26796e-23
1.72465e-22
3.18088e-22
2.95429e-22
1.70314e-22
7.91343e-23
2.41467e-23
6.37918e-24
1.09423e-24
9.52082e-26
8.44325e-27
5.53631e-28
7.34453e-29
1.00153e-28
8.15412e-23
3.50084e-22
5.06878e-22
5.59048e-22
3.05343e-22
1.49666e-22
6.26404e-23
1.86455e-23
3.4169e-24
4.84867e-25
3.52089e-26
3.89069e-27
9.48366e-28
1.36127e-27
1.86711e-27
1.54625e-22
5.07476e-22
9.27208e-22
1.10327e-21
6.85238e-22
3.737e-22
1.22865e-22
4.51703e-23
1.35966e-23
2.08873e-24
2.75456e-25
1.67591e-26
9.5825e-27
1.68072e-26
2.73723e-26
2.93789e-26
1.97937e-22
1.04567e-21
1.65294e-21
2.04069e-21
1.81934e-21
7.01403e-22
3.5002e-22
1.04381e-22
3.09747e-23
7.3829e-24
1.09569e-24
1.5359e-25
9.98435e-26
1.86432e-25
3.51553e-25
6.80394e-25
6.57781e-25
2.28743e-22
1.2775e-21
3.12635e-21
4.20323e-21
3.24029e-21
2.02211e-21
7.68002e-22
2.8338e-22
8.25871e-23
1.90647e-23
3.9266e-24
6.79004e-25
1.0205e-24
2.06658e-24
4.82034e-24
7.81529e-24
1.07426e-23
1.27507e-23
1.32413e-22
1.31667e-21
4.62477e-21
6.83802e-21
6.69149e-21
3.85558e-21
1.84149e-21
6.47634e-22
2.07854e-22
5.87292e-23
1.00071e-23
4.28633e-24
8.29558e-24
2.44186e-23
5.52724e-23
1.16026e-22
1.69514e-22
1.90485e-22
1.77805e-22
1.29006e-22
1.3535e-21
4.47467e-21
1.04993e-20
1.15564e-20
7.99695e-21
3.43818e-21
1.60341e-21
4.03596e-22
1.08763e-22
2.94203e-23
2.16728e-23
6.48765e-23
1.83186e-22
5.63399e-22
9.76451e-22
2.07742e-21
2.64195e-21
2.62537e-21
2.14851e-21
2.16232e-22
1.44073e-21
4.18037e-21
1.29504e-20
1.97739e-20
1.41942e-20
6.89654e-21
3.33456e-21
9.98861e-22
2.60475e-22
9.98826e-23
1.22612e-22
4.90853e-22
1.54105e-21
3.93099e-21
1.11297e-20
2.03126e-20
3.01022e-20
3.66166e-20
2.77052e-20
2.61511e-20
2.68474e-22
1.19103e-21
5.20062e-21
1.61507e-20
2.82606e-20
3.12336e-20
1.78877e-20
6.97678e-21
2.50379e-21
6.39099e-22
3.15168e-22
7.1626e-22
2.88688e-21
1.26317e-20
3.18435e-20
7.00055e-20
1.85447e-19
2.73879e-19
3.86913e-19
4.3234e-19
3.63873e-19
2.58623e-19
1.82552e-22
1.51142e-21
5.6927e-21
1.97167e-20
3.57546e-20
4.46894e-20
3.14771e-20
1.57559e-20
5.90143e-21
2.53203e-21
1.44866e-21
5.15588e-21
1.65304e-20
8.754e-20
2.75334e-19
8.12845e-19
1.27194e-18
2.67155e-18
2.76809e-18
4.86182e-18
3.86535e-18
3.60102e-18
2.18795e-18
1.39354e-22
1.59419e-21
4.79195e-21
2.26132e-20
4.9132e-20
7.20903e-20
6.65913e-20
2.99453e-20
1.29588e-20
6.61978e-21
9.63484e-21
2.77151e-20
1.12953e-19
4.09969e-19
1.97346e-18
4.98898e-18
1.33769e-17
1.96855e-17
3.14167e-17
4.31706e-17
4.81202e-17
3.71709e-17
2.82772e-17
1.66488e-17
3.319e-22
1.64474e-21
5.11707e-21
2.10854e-20
6.19299e-20
8.36401e-20
9.20953e-20
6.51198e-20
2.38245e-20
1.82722e-20
4.2672e-20
1.88017e-19
6.7882e-19
3.08043e-18
1.11817e-17
3.96046e-17
7.00978e-17
1.96854e-16
3.12606e-16
4.01487e-16
4.63763e-16
3.25123e-16
2.7555e-16
1.9663e-16
7.79684e-17
4.77789e-22
1.98175e-21
9.76446e-21
2.11695e-20
7.08528e-20
1.12946e-19
1.67592e-19
1.16501e-19
6.70821e-20
5.85332e-20
1.77332e-19
8.30526e-19
4.20327e-18
1.57943e-17
7.38555e-17
2.28858e-16
6.42847e-16
1.10162e-15
2.36748e-15
2.78296e-15
3.58002e-15
3.52812e-15
3.2534e-15
2.22805e-15
1.56213e-15
4.40203e-16
8.17141e-22
2.74851e-21
1.3946e-20
3.23513e-20
9.25518e-20
1.3423e-19
2.24276e-19
1.96666e-19
1.33583e-19
2.01411e-19
7.34269e-19
3.50143e-18
1.92179e-17
1.01344e-16
4.24907e-16
1.48958e-15
4.24992e-15
8.8685e-15
1.5778e-14
2.51285e-14
3.35701e-14
3.75556e-14
3.49154e-14
2.74118e-14
1.76082e-14
9.32808e-15
2.33294e-15
6.55233e-22
5.79401e-21
1.8042e-20
4.46604e-20
1.14015e-19
1.86446e-19
2.82284e-19
3.00245e-19
2.52036e-19
6.42456e-19
3.31883e-18
1.67888e-17
9.33829e-17
4.49233e-16
2.09629e-15
8.56851e-15
2.71883e-14
6.59484e-14
1.29198e-13
2.17887e-13
3.09414e-13
3.69276e-13
3.71046e-13
3.13752e-13
2.21182e-13
1.30824e-13
6.18484e-14
1.28981e-14
8.42683e-22
1.0284e-20
2.89758e-20
7.20288e-20
1.61485e-19
2.66195e-19
3.74521e-19
4.43747e-19
4.33816e-19
1.69648e-18
1.14272e-17
6.57634e-17
3.62963e-16
2.00599e-15
1.16373e-14
5.24986e-14
1.89838e-13
4.93903e-13
9.89082e-13
1.73473e-12
2.62728e-12
3.29424e-12
3.53636e-12
3.23632e-12
2.50533e-12
1.62438e-12
8.72784e-13
3.64791e-13
6.55385e-14
7.79782e-22
5.66012e-21
4.27632e-20
1.03582e-19
1.87062e-19
3.47191e-19
4.78318e-19
5.61517e-19
7.12384e-19
4.05574e-18
3.4533e-17
2.2907e-16
1.30563e-15
8.63377e-15
5.48485e-14
2.9837e-13
1.22452e-12
3.5372e-12
7.17276e-12
1.27766e-11
2.03666e-11
2.70405e-11
3.03532e-11
2.9589e-11
2.48432e-11
1.77695e-11
1.05696e-11
5.12664e-12
1.88428e-12
2.83722e-13
1.23412e-21
1.21138e-20
3.23819e-20
1.36982e-19
2.90662e-19
4.60345e-19
6.6464e-19
7.69699e-19
1.09612e-18
7.07014e-18
8.94384e-17
6.89285e-16
5.07586e-15
3.38073e-14
2.44466e-13
1.53403e-12
7.27631e-12
2.3804e-11
4.96921e-11
8.78632e-11
1.45701e-10
2.02072e-10
2.38775e-10
2.42718e-10
2.1691e-10
1.68823e-10
1.11664e-10
6.06347e-11
2.62238e-11
8.26991e-12
1.00127e-12
3.36291e-21
1.86319e-20
4.68772e-20
1.25018e-19
2.98352e-19
5.64794e-19
9.00622e-19
1.12955e-18
1.41899e-18
1.10734e-17
1.81806e-16
1.94605e-15
1.59897e-14
1.23188e-13
9.97535e-13
7.07807e-12
3.93443e-11
1.45535e-10
3.31911e-10
5.64755e-10
9.71342e-10
1.39167e-09
1.7069e-09
1.81858e-09
1.69195e-09
1.40306e-09
1.01686e-09
6.21231e-10
3.05242e-10
1.15045e-10
2.96757e-11
2.59567e-12
3.64352e-21
1.93295e-20
5.98109e-20
1.05565e-19
4.11276e-19
9.07953e-19
1.39618e-18
1.59299e-18
1.88071e-18
1.28717e-17
2.71368e-16
4.30048e-15
4.73307e-14
4.03722e-13
3.57827e-12
2.97239e-11
1.90641e-10
7.79718e-10
1.96079e-09
3.36765e-09
6.02936e-09
8.92117e-09
1.12347e-08
1.23592e-08
1.19993e-08
1.03573e-08
8.0344e-09
5.43893e-09
3.05725e-09
1.33392e-09
4.18039e-10
7.79415e-11
3.37285e-12
9.05708e-21
1.78618e-20
4.85962e-20
1.24519e-19
3.7212e-19
1.07735e-18
1.70421e-18
2.10897e-18
2.39699e-18
1.34327e-17
3.39051e-16
6.32038e-15
9.8397e-14
1.17688e-12
1.13e-11
1.06188e-10
8.02546e-10
3.74306e-09
1.01643e-08
1.8237e-08
3.46715e-08
5.30378e-08
6.88355e-08
7.73839e-08
7.71935e-08
6.91304e-08
5.59077e-08
4.09063e-08
2.59427e-08
1.3244e-08
4.92403e-09
1.11466e-09
9.43999e-11
6.54142e-13
1.27732e-11
2.79762e-20
6.1289e-20
8.58146e-20
1.46609e-19
4.71349e-19
1.28946e-18
2.37421e-18
2.79205e-18
3.27518e-18
1.20636e-17
3.60253e-16
8.06652e-15
1.4931e-13
2.40801e-12
3.11034e-11
3.24495e-10
2.7458e-09
1.50536e-08
4.48676e-08
8.75618e-08
1.80891e-07
2.90638e-07
3.90096e-07
4.5142e-07
4.57812e-07
4.17946e-07
3.49639e-07
2.67906e-07
1.87144e-07
1.10779e-07
4.95656e-08
1.37694e-08
9.64843e-10
8.68806e-11
5.20955e-10
2.19458e-12
3.63018e-11
6.44032e-20
1.84503e-19
2.27248e-19
1.93747e-19
6.669e-19
1.46825e-18
3.25416e-18
4.1286e-18
4.91043e-18
1.05274e-17
3.16809e-16
8.77513e-15
1.86163e-13
3.45095e-12
5.879e-11
8.42335e-10
7.92552e-09
4.71923e-08
1.43646e-07
3.61017e-07
8.31259e-07
1.44168e-06
2.02825e-06
2.43447e-06
2.53656e-06
2.34117e-06
1.9807e-06
1.56714e-06
1.16135e-06
7.8234e-07
4.21792e-07
1.46659e-07
8.06617e-09
2.82519e-08
2.50528e-09
1.51385e-08
1.22828e-08
2.62924e-10
1.50947e-09
6.74524e-12
1.11293e-10
1.59977e-19
5.39656e-19
7.0448e-19
4.35156e-19
6.58495e-19
1.91895e-18
3.95062e-18
5.66036e-18
6.78791e-18
9.75116e-18
2.43022e-16
8.23686e-15
1.99278e-13
4.1407e-12
8.19602e-11
1.52305e-09
1.89757e-08
1.24352e-07
4.04842e-07
1.26502e-06
3.21126e-06
6.16877e-06
9.38521e-06
1.18813e-05
1.2858e-05
1.21556e-05
1.03619e-05
8.28581e-06
6.40057e-06
4.69582e-06
3.04814e-06
1.3501e-06
9.72056e-08
3.42254e-07
6.30366e-08
7.61495e-09
5.02674e-08
3.44763e-08
8.05278e-10
4.54678e-09
2.01341e-11
3.31389e-10
1.27696e-18
2.86003e-18
2.21073e-18
1.44631e-18
1.33912e-18
2.60917e-18
4.71944e-18
6.7054e-18
8.40014e-18
1.01117e-17
1.66942e-16
6.49932e-15
1.89224e-13
4.36187e-12
9.28727e-11
1.97697e-09
3.33764e-08
2.74036e-07
9.66416e-07
3.59082e-06
9.96182e-06
2.11127e-05
3.51324e-05
4.71165e-05
5.38516e-05
5.35415e-05
4.7422e-05
3.87546e-05
3.06371e-05
2.40056e-05
1.78189e-05
1.06781e-05
1.10239e-06
3.58399e-06
2.394e-07
8.46158e-07
1.91844e-07
2.22993e-08
1.41431e-07
9.77628e-08
2.38649e-09
1.31463e-08
5.7967e-11
9.45982e-10
1.76453e-18
9.90295e-18
1.01277e-17
6.69108e-18
4.23792e-18
3.84449e-18
5.80172e-18
8.32314e-18
1.26598e-17
1.34286e-17
8.65685e-17
4.48024e-15
1.51339e-13
4.00439e-12
9.37901e-11
2.08471e-09
4.28199e-08
4.4961e-07
1.89448e-06
7.76317e-06
2.41567e-05
5.44179e-05
9.59983e-05
0.000134234
0.000157078
0.000163952
0.000154915
0.000134509
0.000112049
9.40939e-05
7.92149e-05
6.37365e-05
1.11306e-05
3.5512e-05
2.81107e-06
9.14773e-06
6.92891e-07
2.41324e-06
5.40745e-07
6.22922e-08
3.96209e-07
2.69471e-07
6.67541e-09
3.56352e-08
1.55728e-10
2.49328e-09
1.4694e-17
3.20641e-17
3.46008e-17
2.72451e-17
1.66736e-17
9.05279e-18
7.75016e-18
1.19966e-17
1.70149e-17
1.80005e-17
5.5817e-17
2.47891e-15
1.01392e-13
3.10164e-12
8.43195e-11
1.98006e-09
4.54137e-08
5.69218e-07
2.93397e-06
1.3576e-05
4.30542e-05
0.000102037
0.00017747
0.000252529
0.000306138
0.000336285
0.00034188
0.000331087
0.000304558
0.000270918
0.000243947
0.000228334
9.73967e-05
0.000232974
2.97119e-05
8.82699e-05
8.0851e-06
2.66158e-05
1.97295e-06
6.93511e-06
1.52932e-06
1.66541e-07
1.10466e-06
7.30309e-07
1.71757e-08
9.1118e-08
3.63722e-10
5.96695e-09
4.33991e-17
1.00787e-16
1.08747e-16
9.22863e-17
4.89771e-17
3.23383e-17
1.46401e-17
1.74298e-17
2.14051e-17
2.37656e-17
3.99886e-17
1.37846e-15
6.0686e-14
2.0771e-12
5.99678e-11
1.63212e-09
4.19972e-08
5.95391e-07
3.68726e-06
1.95434e-05
6.55406e-05
0.000151247
0.000267249
0.000370465
0.000455357
0.000515323
0.000554345
0.00057313
0.000574799
0.000561945
0.000537073
0.000526883
0.000367769
0.000548627
0.000213595
0.000372108
8.07619e-05
0.000206097
2.35778e-05
7.43482e-05
5.67573e-06
2.0114e-05
4.37808e-06
4.3392e-07
3.10404e-06
1.98102e-06
4.15484e-08
2.2513e-07
7.76374e-10
1.34609e-08
2.22809e-16
4.22006e-16
3.78202e-16
3.68913e-16
2.39413e-16
1.44339e-16
4.86189e-17
2.69005e-17
3.08997e-17
3.30838e-17
3.66129e-17
6.55452e-16
3.45811e-14
1.21585e-12
3.80474e-11
1.12951e-09
3.2286e-08
5.75157e-07
3.93913e-06
2.38024e-05
8.55841e-05
0.000201148
0.000341985
0.00048671
0.000595279
0.000680329
0.000745874
0.000796073
0.000838085
0.000871832
0.000889781
0.000883454
0.000708166
0.000911379
0.000548996
0.000737321
0.000372752
0.000562104
0.000198721
0.000377545
6.70366e-05
0.000188997
1.64509e-05
5.76504e-05
1.25762e-05
1.12107e-06
8.76292e-06
5.45188e-06
9.64618e-08
5.4493e-07
1.60624e-09
2.91758e-08
5.37546e-16
1.46587e-15
1.71762e-15
1.2041e-15
8.00769e-16
5.86921e-16
2.34015e-16
7.00227e-17
3.86186e-17
4.45981e-17
4.25024e-17
3.20111e-16
1.74819e-14
7.18266e-13
2.11011e-11
6.92648e-10
2.06887e-08
4.97178e-07
3.89043e-06
2.51599e-05
9.88166e-05
0.000239214
0.000413954
0.00056545
0.000675126
0.000757623
0.000831945
0.000904457
0.000983339
0.00106726
0.00115505
0.00122367
0.00107432
0.00126465
0.000932849
0.00112605
0.000764889
0.000974364
0.000581715
0.000801923
0.000383509
0.000607314
0.000173677
0.000385823
4.69431e-05
0.000149998
3.54766e-05
2.92576e-06
2.45867e-05
1.50424e-05
2.17715e-07
1.31976e-06
3.24497e-09
6.07116e-08
3.68784e-15
8.77041e-15
8.48754e-15
6.24414e-15
4.22049e-15
2.66692e-15
9.8705e-16
2.67478e-16
8.93786e-17
6.63643e-17
5.99297e-17
1.67283e-16
7.72627e-15
3.75947e-13
1.29902e-11
3.83724e-10
1.16701e-08
3.44029e-07
3.60019e-06
2.47576e-05
0.000102903
0.000262414
0.000456094
0.000600738
0.000683478
0.00074986
0.000816949
0.000892094
0.000985526
0.00109448
0.00123088
0.00139919
0.00139936
0.00153099
0.00131101
0.00147575
0.00118319
0.00138222
0.00102936
0.00125615
0.000849426
0.00109896
0.000635354
0.000904665
0.00037818
0.000658092
0.000124754
0.000349267
9.59634e-05
7.82033e-06
6.69097e-05
4.11734e-05
4.8112e-07
3.27816e-06
6.38022e-09
1.21235e-07
2.68413e-14
6.15483e-14
5.42734e-14
3.79392e-14
2.33498e-14
1.79165e-14
5.17868e-15
1.01986e-15
2.92646e-16
1.24528e-16
8.25569e-17
1.11747e-16
3.42529e-15
1.72444e-13
6.68853e-12
1.98749e-10
6.10566e-09
1.93509e-07
2.86944e-06
2.31068e-05
0.000101893
0.000271079
0.000476008
0.000594516
0.000665196
0.000715266
0.000761393
0.000819544
0.000908194
0.00103207
0.001202
0.00141427
0.00160376
0.00163414
0.00161541
0.00172364
0.00156291
0.00171918
0.00147299
0.00167076
0.0013465
0.00158248
0.00118208
0.0014533
0.0009623
0.00127145
0.000667493
0.00101293
0.000301156
0.000654074
0.000234575
2.11069e-05
0.000170856
0.000108418
1.07125e-06
8.58655e-06
1.22317e-08
2.35381e-07
2.16675e-13
4.60901e-13
3.67422e-13
2.41473e-13
1.45896e-13
9.40231e-14
2.97848e-14
5.47716e-15
1.00245e-15
2.96743e-16
1.36323e-16
1.09949e-16
1.33544e-15
7.89417e-14
3.03685e-12
9.67846e-11
3.05589e-09
9.19422e-08
1.96799e-06
1.91459e-05
9.7526e-05
0.000269332
0.000468336
0.00057305
0.000624515
0.000637955
0.00062183
0.000619767
0.000683642
0.000821893
0.00103174
0.00132825
0.00170852
0.00177928
0.00184393
0.00184509
0.00194019
0.00184231
0.00198548
0.00179684
0.00198284
0.00170761
0.00193479
0.00156991
0.00184098
0.00136026
0.00168605
0.00104763
0.00143847
0.000609765
0.0010531
0.000521389
5.67945e-05
0.000395293
0.000262636
2.50155e-06
2.27803e-05
2.28845e-08
4.5167e-07
1.71792e-12
3.52564e-12
2.60764e-12
1.56443e-12
9.25248e-13
5.61053e-13
1.60718e-13
3.0333e-14
4.82302e-15
9.01677e-16
2.80019e-16
1.52403e-16
5.52205e-16
3.20705e-14
1.49457e-12
4.77641e-11
1.48505e-09
4.19474e-08
1.17288e-06
1.32863e-05
8.57092e-05
0.000259445
0.000449353
0.000536814
0.000570208
0.000526162
0.000424709
0.000420249
0.000506534
0.000623007
0.000792768
0.00105558
0.00151471
0.00201482
0.00199184
0.0019991
0.00201569
0.00209733
0.0021798
0.0021351
0.00225902
0.00212555
0.00227833
0.00207222
0.00225735
0.00196958
0.00219777
0.00179127
0.00208268
0.00149294
0.00187596
0.00101936
0.00151034
0.000942077
0.00014506
0.000792416
0.000573433
6.14375e-06
5.98246e-05
4.03625e-08
9.72886e-07
1.16623e-11
2.50956e-11
1.85305e-11
1.02219e-11
6.02817e-12
3.07517e-12
8.35598e-13
1.62547e-13
2.63208e-14
3.72155e-15
7.50218e-16
2.42532e-16
3.30313e-16
1.21174e-14
6.26725e-13
2.48484e-11
6.80314e-10
1.87449e-08
5.33979e-07
8.6921e-06
6.70199e-05
0.000235616
0.000419503
0.000497867
0.000507437
0.000405215
0.000262276
0.000278028
0.000378047
0.000509531
0.000697999
0.000978707
0.00140849
0.00195573
0.00191378
0.00225067
0.00224326
0.00222961
0.00224921
0.0023498
0.00241147
0.00239548
0.00247135
0.00239427
0.00248303
0.00236677
0.00248064
0.00230148
0.0024516
0.00217284
0.00238204
0.00192767
0.00223599
0.00148853
0.00194368
0.00141199
0.000333628
0.00126691
0.0010216
1.5938e-05
0.000148881
5.58918e-08
2.26873e-06
4.56988e-11
1.41211e-10
1.21288e-10
6.77127e-11
3.87779e-11
1.52431e-11
3.97827e-12
8.15234e-13
1.3761e-13
1.58654e-14
2.05358e-15
4.34359e-16
2.96696e-16
5.03082e-15
2.41704e-13
1.00835e-11
3.12509e-10
8.87871e-09
2.32225e-07
5.13443e-06
4.73425e-05
0.000199616
0.000386505
0.000458909
0.000445541
0.0002996
0.000160119
0.000169634
0.000273151
0.000475645
0.000748295
0.00105446
0.00146234
0.00190375
0.00190285
0.00222426
0.00220984
0.00244545
0.00242862
0.00244221
0.0024504
0.00251411
0.0025352
0.00253736
0.0025664
0.00255048
0.0025878
0.00254902
0.00260815
0.00252195
0.00261409
0.00244595
0.00258911
0.00227113
0.00249684
0.00191954
0.00227917
0.00184617
0.000677621
0.00170378
0.00146679
3.9963e-05
0.000319478
1.04908e-07
5.29415e-06
9.2922e-11
4.01512e-10
5.94024e-10
4.37248e-10
2.03454e-10
6.6383e-11
1.71978e-11
3.73234e-12
6.47869e-13
7.60531e-14
7.35977e-15
1.19412e-15
3.96693e-16
2.397e-15
1.05561e-13
3.89522e-12
1.38101e-10
4.08727e-09
1.02735e-07
2.31774e-06
2.92229e-05
0.000157978
0.000351279
0.000423741
0.000391552
0.00021846
9.93523e-05
9.63592e-05
0.000169902
0.000420432
0.000790561
0.00124455
0.00165537
0.00202899
0.00219577
0.00220039
0.00239849
0.00236153
0.00251118
0.00247972
0.00253726
0.00253008
0.00257357
0.00256995
0.00260204
0.00259803
0.00263749
0.00264315
0.0026725
0.00270242
0.00268963
0.00275795
0.00265961
0.00278089
0.00253249
0.00272786
0.00225674
0.00254971
0.00219279
0.00110298
0.00206522
0.00185187
9.27582e-05
0.000602197
3.61388e-07
1.7712e-05
5.40317e-10
1.46838e-09
2.00871e-09
9.1299e-10
2.6882e-10
6.78783e-11
1.54662e-11
2.70712e-12
3.31584e-13
3.234e-14
3.24551e-15
6.89278e-16
1.06337e-15
4.70337e-14
1.85231e-12
5.76363e-11
1.81497e-09
4.48175e-08
1.0592e-06
1.54787e-05
0.00011485
0.000311698
0.00039356
0.000352419
0.000163633
6.69382e-05
5.47528e-05
9.41175e-05
0.000258961
0.000641868
0.00113335
0.00157944
0.0019331
0.00218908
0.00208408
0.00231417
0.00226184
0.002438
0.00238437
0.0024994
0.00244747
0.00255908
0.0025363
0.00258526
0.00256017
0.00263416
0.00260643
0.00270555
0.00269354
0.00279839
0.00280869
0.00287156
0.00292192
0.00288638
0.00298276
0.00278474
0.00297774
0.00254134
0.00282185
0.0024911
0.00151944
0.0023823
0.00219864
0.000244459
0.00107182
7.22653e-07
4.08927e-05
1.68385e-09
4.36859e-09
3.27486e-09
9.7904e-10
2.55139e-10
5.8092e-11
1.01187e-11
1.31731e-12
1.36483e-13
1.19125e-14
1.43655e-15
7.47699e-16
1.67262e-14
7.54451e-13
2.3525e-11
7.36393e-10
1.92566e-08
4.98464e-07
7.72747e-06
7.43189e-05
0.000261829
0.000367439
0.000331729
0.000139145
5.29894e-05
3.70397e-05
5.0983e-05
0.000123855
0.000315071
0.000709246
0.00124244
0.00164828
0.00195785
0.00177051
0.00209494
0.00191861
0.00231521
0.00222246
0.0023782
0.00228677
0.00238715
0.00229689
0.00251706
0.00245967
0.00255511
0.00248797
0.0026594
0.00259678
0.00279767
0.00276194
0.00293296
0.00291408
0.00300821
0.00299867
0.0030499
0.00305058
0.00304751
0.00310129
0.00283093
0.00309384
0.002794
0.00193
0.00270195
0.00258989
0.00231574
0.000478351
0.00153092
2.03675e-06
8.94831e-05
4.55043e-09
8.45736e-09
3.22459e-09
8.7011e-10
1.93719e-10
3.36928e-11
4.69555e-12
5.27799e-13
4.91891e-14
4.58745e-15
8.34078e-16
5.10159e-15
2.59733e-13
9.15761e-12
3.00771e-10
8.49993e-09
2.10052e-07
4.7236e-06
4.17941e-05
0.000201549
0.000342881
0.000321971
0.000138559
5.1646e-05
3.37304e-05
3.41361e-05
5.56939e-05
0.000133333
0.000316418
0.000617901
0.000951821
0.00101458
0.00169924
0.00132548
0.00180989
0.0015607
0.00216642
0.00200962
0.00218445
0.00204249
0.00219242
0.00205823
0.00240512
0.00230705
0.00250781
0.0023993
0.00269187
0.00259642
0.00287362
0.00280652
0.00297299
0.00292763
0.00300952
0.00294098
0.00304751
0.0029187
0.00314892
0.00301339
0.00312321
0.0031772
0.00318105
0.00293566
0.00311244
0.00249038
0.00204698
0.00237403
0.00283242
0.00305432
0.00309055
0.00276075
0.000886422
0.00223681
0.00206247
0.00165887
2.13273e-05
0.000319575
1.07348e-08
8.79077e-09
2.68839e-09
5.77775e-10
1.01793e-10
1.5079e-11
1.84497e-12
1.84421e-13
1.58836e-14
1.71448e-15
2.00911e-15
8.37816e-14
3.40503e-12
1.16304e-10
3.56169e-09
8.34367e-08
2.08753e-06
2.09172e-05
0.000139006
0.000311513
0.000321691
0.000146264
5.59051e-05
3.561e-05
3.23311e-05
3.45879e-05
5.33272e-05
0.000113092
0.000217621
0.000316949
0.000316008
0.000591371
0.000239257
0.00126254
0.000908114
0.00139166
0.00109181
0.00186489
0.0016479
0.00189877
0.00170543
0.00197849
0.00180302
0.00227482
0.00213479
0.00248298
0.0023483
0.00271382
0.00259938
0.00286482
0.00278003
0.00286338
0.00278514
0.00275794
0.00262755
0.00271726
0.00263352
0.00250148
0.00310222
0.00294563
0.00255151
0.00276797
0.00319826
0.00320963
0.00322132
0.00311879
0.00321979
0.00267004
0.00256704
0.00299968
0.00319048
0.00321155
0.00293388
0.00187919
0.00110182
0.00159417
0.00244303
0.00229914
0.000361309
0.00145198
0.00106119
0.000558423
1.89422e-08
7.45387e-09
1.60019e-09
2.88666e-10
4.45791e-11
5.86568e-12
6.41579e-13
5.80249e-14
5.15314e-15
1.42249e-15
2.76105e-14
1.21772e-12
4.34855e-11
1.32948e-09
3.20481e-08
8.25805e-07
9.64049e-06
8.39157e-05
0.00026333
0.000321858
0.000167399
7.19865e-05
4.40044e-05
3.64904e-05
3.40952e-05
3.17513e-05
3.64068e-05
5.48091e-05
7.34961e-05
7.25572e-05
4.67122e-05
0.000230298
9.14735e-05
0.000761531
0.000445108
0.000933331
0.00065224
0.00147865
0.00121946
0.00160462
0.00138631
0.00185536
0.00166537
0.00219739
0.00203225
0.0024659
0.00231885
0.00267379
0.00255263
0.00270224
0.00260527
0.00253469
0.00247141
0.00242077
0.0023481
0.00230958
0.00228418
0.00237292
0.00220163
0.00234339
0.00225168
0.00295054
0.002728
0.0022606
0.00248799
0.00314284
0.0032483
0.00317666
0.00296219
0.00326496
0.002855
0.00276552
0.00315373
0.00327219
0.00327327
0.00310272
0.00213633
0.00195241
0.00265996
0.00254135
0.00115649
0.00135069
0.00143104
0.00186413
0.00172269
1.81472e-08
4.52227e-09
7.90592e-10
1.24542e-10
1.7265e-11
2.04972e-12
2.02363e-13
1.72097e-14
2.04014e-15
9.17749e-15
4.17711e-13
1.58207e-11
4.9817e-10
1.33568e-08
3.26939e-07
5.87034e-06
4.44289e-05
0.000198445
0.000315696
0.000212225
9.94623e-05
6.808e-05
5.60958e-05
4.62159e-05
3.3687e-05
2.21908e-05
1.432e-05
1.44201e-05
1.37008e-05
8.61991e-06
2.236e-05
5.70069e-06
0.000106708
4.59343e-05
0.000406517
0.000220463
0.000679085
0.000467579
0.00115361
0.000913466
0.00146281
0.00125268
0.00181818
0.001633
0.00216132
0.0019948
0.00242012
0.00227987
0.00249998
0.0023929
0.00242733
0.00239215
0.00228562
0.00229943
0.00232336
0.00235207
0.00218695
0.0021554
0.00216038
0.00219009
0.00208594
0.00197307
0.00209856
0.00204653
0.00271314
0.00243611
0.00198407
0.00217919
0.00299093
0.00321434
0.00303606
0.0027205
0.00325117
0.00304099
0.00296709
0.00326357
0.00328033
0.0033024
0.00324299
0.00241212
0.00229584
0.00288062
0.00278287
0.00193518
0.00179606
0.00219202
0.00227327
0.002232
1.35014e-08
2.32392e-09
3.45083e-10
4.85525e-11
6.08934e-12
6.53003e-13
5.86268e-14
5.03164e-15
3.7806e-15
1.37881e-13
5.51421e-12
1.8446e-10
5.26024e-09
1.19937e-07
2.9822e-06
2.12296e-05
0.000128775
0.000292609
0.000258617
0.000127527
0.000101115
0.00010336
9.15815e-05
5.74324e-05
2.95099e-05
1.25951e-05
4.81194e-06
2.5216e-06
1.55266e-06
1.36961e-06
1.24575e-05
4.24541e-06
7.43629e-05
3.175e-05
0.000287776
0.000155989
0.000625525
0.000441514
0.00103569
0.000823119
0.00144227
0.0012521
0.00182473
0.00166192
0.00213373
0.00198205
0.00227909
0.00216
0.00235734
0.00228585
0.00237399
0.00239533
0.00240754
0.0024189
0.00223452
0.00228759
0.00234756
0.00241274
0.00204514
0.00208075
0.00213977
0.00221871
0.00188577
0.00194721
0.0018725
0.0019655
0.00241292
0.0021258
0.00182541
0.00191289
0.00275463
0.00309146
0.00281288
0.00242136
0.00315325
0.00321132
0.00316106
0.00331582
0.00321477
0.00327017
0.00332157
0.00268038
0.00259333
0.00309277
0.00300613
0.00239847
0.00135427
0.00222544
0.00257346
0.00255431
7.96567e-09
1.07503e-09
1.3829e-10
1.74489e-11
1.97246e-12
1.9076e-13
1.62441e-14
3.13131e-15
4.43692e-14
1.84775e-12
6.42449e-11
2.00388e-09
4.24306e-08
1.06655e-06
9.57801e-06
7.20579e-05
0.000237663
0.000276723
0.000168951
0.000128317
0.000150493
0.000159553
0.000128727
6.943e-05
2.67107e-05
7.40801e-06
1.58373e-06
4.60336e-07
3.11904e-07
1.22774e-06
4.67616e-07
8.78364e-06
2.60582e-06
6.23147e-05
2.47494e-05
0.000270536
0.000139591
0.000691979
0.000471782
0.00106885
0.000887844
0.00149505
0.00132287
0.00176073
0.00161134
0.00203322
0.00189973
0.00219065
0.00207762
0.00247717
0.00244093
0.00247425
0.00253113
0.00257107
0.00258389
0.00231581
0.00242211
0.00253206
0.00264022
0.00203343
0.00213019
0.00225454
0.00239541
0.00182349
0.00191983
0.00189498
0.00201968
0.00210615
0.00187219
0.00179539
0.0017887
0.00246441
0.00288854
0.00253574
0.00212164
0.00297809
0.00332322
0.00331008
0.00331829
0.00307412
0.00316995
0.00335641
0.00291234
0.00283093
0.00327519
0.00320717
0.00259543
0.000550493
0.00188087
0.00280395
0.00277731
4.23441e-09
4.60039e-10
5.13766e-11
5.78094e-12
5.85677e-13
5.2308e-14
5.20999e-15
1.49919e-14
5.99892e-13
2.15777e-11
6.67991e-10
1.4851e-08
3.81927e-07
5.87115e-06
3.56378e-05
0.000164733
0.000274487
0.00022195
0.00015126
0.000185484
0.000218408
0.000209572
0.000159765
7.96682e-05
2.58975e-05
4.90051e-06
5.36156e-07
8.00888e-08
4.66299e-08
4.87024e-07
1.28771e-07
4.41439e-06
1.31767e-06
4.69202e-05
1.54454e-05
0.000268787
0.000123382
0.000698477
0.000441461
0.0011388
0.000933198
0.00144823
0.00127054
0.00160998
0.00142417
0.00194136
0.00178607
0.00234013
0.00219329
0.002963
0.00296139
0.00287547
0.00293081
0.00274049
0.00282636
0.00289419
0.00294058
0.00254771
0.00270282
0.00285329
0.00299167
0.00216101
0.00232391
0.00250709
0.00269919
0.00189258
0.00203231
0.00205146
0.00220606
0.00186265
0.00177351
0.00188594
0.00178141
0.00217234
0.0026295
0.00225195
0.00188156
0.00274213
0.00338288
0.00340098
0.00325684
0.00286573
0.00299881
0.00333685
0.0031229
0.00305013
0.00340477
0.00338894
0.00260099
0.00039326
0.00159448
0.00299774
0.00292552
2.04367e-09
1.81771e-10
1.7553e-11
1.75133e-12
1.61331e-13
1.40811e-14
6.75527e-15
1.89312e-13
7.08716e-12
2.23898e-10
5.74894e-09
1.3035e-07
2.83957e-06
1.59062e-05
9.6109e-05
0.000254877
0.000255808
0.000183508
0.000201983
0.000262469
0.000278993
0.000249614
0.000175783
8.27247e-05
2.15646e-05
2.61364e-06
2.10345e-07
1.79881e-08
1.41856e-08
4.73407e-09
2.04066e-07
4.37598e-08
1.79057e-06
6.60359e-07
2.31261e-05
6.49914e-06
0.000214925
7.79535e-05
0.000564452
0.000294033
0.00106844
0.000832493
0.00122821
0.0010172
0.00157206
0.00133665
0.00200866
0.00179714
0.00280159
0.00271373
0.00265316
0.00331172
0.00329523
0.00317201
0.00324467
0.00311073
0.0032048
0.00327141
0.00330671
0.00289166
0.00307466
0.00324017
0.00338087
0.00240894
0.00262797
0.00285325
0.00307253
0.00206412
0.00225882
0.0023043
0.00249471
0.00177301
0.00177468
0.00206754
0.00187551
0.00193077
0.00235889
0.00201016
0.00178692
0.00248842
0.00340963
0.0034589
0.00313679
0.00263634
0.00280451
0.00327329
0.00333212
0.00324977
0.00349751
0.00352369
0.00253294
0.000175561
0.00127249
0.00316298
0.00301982
8.9015e-10
6.54993e-11
5.46612e-12
4.89606e-13
4.24514e-14
6.27258e-15
5.90473e-14
2.26262e-12
7.48331e-11
2.0879e-09
4.27269e-08
9.87773e-07
8.10875e-06
4.90468e-05
0.000194121
0.000259196
0.000224146
0.000212315
0.000284237
0.000333036
0.000328583
0.000275201
0.000181094
7.33365e-05
1.36704e-05
1.2615e-06
8.37875e-08
3.44507e-09
4.04564e-09
1.11926e-09
7.90382e-08
1.74699e-08
9.2602e-07
3.21813e-07
9.91053e-06
3.09323e-06
0.000107352
3.20255e-05
0.000303895
0.000130207
0.000788628
0.000543349
0.00109072
0.000838694
0.0017737
0.00145481
0.00238993
0.00209392
0.00307787
0.00296094
0.0029985
0.0028608
0.0035803
0.00351093
0.00331928
0.00341944
0.00349079
0.0035658
0.00360459
0.00360686
0.00327639
0.00345623
0.00360587
0.00372017
0.00274562
0.00299575
0.00323339
0.00344816
0.00233457
0.00257313
0.00263455
0.0028515
0.00177429
0.00185659
0.0023419
0.00205495
0.00181376
0.00212642
0.0018665
0.00177733
0.00226794
0.00339328
0.00349964
0.00298357
0.00244052
0.00263618
0.00316894
0.00351452
0.00343557
0.00357418
0.00362999
0.00247498
0.000129693
0.00122885
0.00331499
0.00310835
3.47328e-10
2.13871e-11
1.56851e-12
1.29408e-13
1.14406e-14
1.97364e-14
7.02433e-13
2.38549e-11
7.29358e-10
1.37117e-08
3.29016e-07
4.97413e-06
2.24859e-05
0.000115587
0.000247907
0.000251452
0.000233121
0.000286546
0.000362864
0.000391541
0.000365192
0.000285789
0.000175743
5.34468e-05
7.18956e-06
5.26734e-07
2.94333e-08
1.53663e-10
1.95225e-09
2.14453e-09
5.79905e-10
4.19226e-08
9.3392e-09
6.36849e-07
1.88097e-07
5.99768e-06
2.12567e-06
4.70075e-05
1.63676e-05
0.000191225
8.30824e-05
0.00059044
0.000368295
0.00113824
0.000843258
0.00213984
0.00180672
0.00275327
0.00260049
0.00244572
0.00321413
0.00310643
0.00300585
0.00289681
0.00367844
0.00356285
0.00332697
0.00344519
0.00379645
0.00382976
0.00382529
0.00377167
0.00363268
0.00378251
0.00389432
0.00396514
0.00312245
0.00337319
0.0035937
0.00377809
0.00267083
0.0029408
0.00300666
0.00323237
0.00183516
0.00201265
0.00266228
0.00230843
0.00179564
0.00197003
0.00183675
0.00180961
0.00212868
0.00335843
0.00352356
0.00285001
0.00231889
0.00253944
0.00308655
0.00366068
0.00361199
0.00364247
0.00372791
0.00252458
0.000214729
0.00140598
0.00346722
0.00323541
1.21558e-10
6.39765e-12
4.22096e-13
3.32105e-14
1.08231e-14
2.12414e-13
7.3704e-12
2.19922e-10
4.35721e-09
1.05013e-07
2.07813e-06
1.00564e-05
5.92282e-05
0.00020268
0.000254109
0.00025466
0.000283961
0.000366807
0.00043112
0.000437083
0.000384335
0.000286822
0.000149546
3.43808e-05
2.92727e-06
2.00236e-07
8.09587e-09
2.48981e-10
4.54426e-10
1.52102e-09
4.00955e-10
2.97668e-08
6.56247e-09
5.51115e-07
1.37377e-07
5.17568e-06
1.94479e-06
3.36463e-05
1.32506e-05
0.000185439
8.17759e-05
0.000578561
0.000355737
0.00145601
0.00111256
0.00227825
0.00213687
0.00191988
0.00278851
0.00266381
0.00240203
0.00251609
0.00321455
0.00310933
0.00288829
0.00280567
0.00368232
0.00352672