/*--------------------------------*- C++ -*----------------------------------*\
  =========                 |
  \\      /  F ield         | OpenFOAM: The Open Source CFD Toolbox
   \\    /   O peration     | Website:  https://openfoam.org
    \\  /    A nd           | Version:  dev
     \\/     M anipulation  |
\*---------------------------------------------------------------------------*/
FoamFile
{
    version     2.0;
    format      ascii;
    class       volScalarField;
    location    "2500";
    object      k;
}
// * * * * * * * * * * * * * * * * * * * * * * * * * * * * * * * * * * * * * //

dimensions      [0 2 -2 0 0 0 0];

internalField   nonuniform List<scalar> 
9846
(
0.000144304
0.000151704
0.000136594
0.000136336
0.000184703
0.000114541
0.000118885
0.000199347
0.000165819
0.00010534
0.000110961
0.000193327
0.000199036
0.000130397
0.00010211
0.000105561
0.000172494
0.000219791
0.000173768
0.000112364
0.000100776
0.000102457
0.000145952
0.000222049
0.000208154
0.000136093
0.000104905
0.000100098
0.000100634
0.000128329
0.000214046
0.000227761
0.000173655
0.000115236
0.000101527
9.95056e-05
9.95043e-05
0.000115923
0.000191944
0.000239397
0.000209316
0.000137624
0.000106026
9.97789e-05
9.89881e-05
9.86805e-05
0.000108198
0.000162223
0.000238934
0.000232394
0.000169673
0.000116693
0.000101537
9.85921e-05
9.87411e-05
9.81744e-05
0.000103697
0.000139302
0.00022956
0.00024718
0.000204586
0.000136448
0.000106551
9.91234e-05
9.75326e-05
9.86449e-05
9.7876e-05
0.000101159
0.000123722
0.000206125
0.000255946
0.000232758
0.000163466
0.00011722
0.000101349
9.75572e-05
9.67317e-05
9.8616e-05
9.77246e-05
9.97547e-05
0.000113736
0.000174964
0.000254047
0.000250779
0.000196437
0.000133292
0.000107062
9.84066e-05
9.62607e-05
9.62261e-05
9.86099e-05
9.76924e-05
9.89588e-05
0.000107751
0.000149011
0.000243402
0.000263289
0.000227555
0.000157247
0.000116236
0.000101163
9.65123e-05
9.50993e-05
9.59693e-05
9.86005e-05
9.77367e-05
9.85169e-05
0.000104269
0.000131212
0.000218857
0.000270956
0.00025136
0.00018609
0.00013014
0.000106904
9.77105e-05
9.50372e-05
9.42344e-05
9.5871e-05
9.85805e-05
9.78028e-05
9.83017e-05
0.000102271
0.000119548
0.000186324
0.000268833
0.000266577
0.000218324
0.00015025
0.000114966
0.000100954
9.54666e-05
9.37367e-05
9.36943e-05
9.58352e-05
9.85642e-05
9.79247e-05
9.82076e-05
0.00010113
0.000112427
0.000158474
0.00025785
0.000280054
0.000246364
0.000176619
0.000126819
0.00010629
9.69808e-05
9.38368e-05
9.26349e-05
9.34105e-05
9.58131e-05
9.85709e-05
9.81187e-05
9.82336e-05
0.000100458
0.000108236
0.000139164
0.000232705
0.000287093
0.000268785
0.000206082
0.00014376
0.000113525
0.000100473
9.44833e-05
9.24884e-05
9.1835e-05
9.33107e-05
9.57817e-05
9.8594e-05
9.83354e-05
9.8376e-05
0.000100097
0.000105795
0.000126379
0.000199468
0.000284841
0.000283317
0.000237031
0.000166675
0.000123479
0.000105439
9.634e-05
9.27107e-05
9.12919e-05
9.13601e-05
9.32734e-05
9.57687e-05
9.86162e-05
9.858e-05
9.85777e-05
9.99712e-05
0.000104352
0.000118421
0.000170317
0.000274044
0.000297008
0.000263337
0.000193965
0.00013791
0.000111945
9.99219e-05
9.35966e-05
9.13097e-05
9.03372e-05
9.11434e-05
9.32526e-05
9.57967e-05
9.86366e-05
9.8836e-05
9.88149e-05
9.99868e-05
0.00010353
0.000113567
0.000149646
0.000249594
0.000304715
0.000285242
0.000223201
0.000157272
0.000120688
0.000104626
9.58623e-05
9.16893e-05
9.0128e-05
8.97082e-05
9.10939e-05
9.3266e-05
9.58585e-05
9.86607e-05
9.9051e-05
9.9078e-05
0.000100096
0.000103057
0.000110519
0.000135601
0.000216719
0.0003033
0.000300625
0.000253312
0.000181663
0.000132734
0.000110536
9.93516e-05
9.28909e-05
9.02572e-05
8.91716e-05
8.9387e-05
9.11479e-05
9.33295e-05
9.59335e-05
9.8692e-05
9.92248e-05
9.93115e-05
0.000100299
0.000102818
0.000108581
0.000126297
0.00018629
0.000294355
0.000315299
0.000279327
0.000209493
0.00014919
0.000118294
0.000103772
9.54524e-05
9.08721e-05
8.91623e-05
8.85083e-05
8.93217e-05
9.12783e-05
9.34386e-05
9.60145e-05
9.87319e-05
9.93783e-05
9.95006e-05
0.000100483
0.000102773
0.000107459
0.000120291
0.000163545
0.000272682
0.000326183
0.000302303
0.000238122
0.000170372
0.000128542
0.000109301
9.89205e-05
9.25266e-05
8.9459e-05
8.83426e-05
8.81752e-05
8.94504e-05
9.14821e-05
9.35965e-05
9.60938e-05
9.87798e-05
9.95173e-05
9.96625e-05
0.000100595
0.000102765
0.000106766
0.000116463
0.000147402
0.000240653
0.000326712
0.000320283
0.000268276
0.000195394
0.000142409
0.00011635
0.000103232
9.53217e-05
9.04542e-05
8.84787e-05
8.78352e-05
8.81623e-05
8.97415e-05
9.17585e-05
9.38123e-05
9.61723e-05
9.88249e-05
9.96289e-05
9.97957e-05
0.000100665
0.000102672
0.000106253
0.000113905
0.000136445
0.000208179
0.00032121
0.000336524
0.000296231
0.00022373
0.000160444
0.000125494
0.000108746
9.89112e-05
9.26787e-05
8.91132e-05
8.78825e-05
8.76848e-05
8.84316e-05
9.01549e-05
9.21032e-05
9.40787e-05
9.62807e-05
9.88748e-05
9.97008e-05
9.98712e-05
0.00010069
0.000102523
0.000105736
0.000112239
0.000129006
0.000182928
0.000304916
0.000352552
0.000321101
0.000252839
0.000182967
0.000137627
0.000115493
0.000103506
9.57584e-05
9.08177e-05
8.83041e-05
8.76794e-05
8.78995e-05
8.89735e-05
9.06842e-05
9.25059e-05
9.43349e-05
9.63828e-05
9.89071e-05
9.97562e-05
9.98515e-05
0.000100627
0.000102367
0.000105216
0.000111094
0.000124004
0.000164331
0.000276266
0.000358917
0.000343992
0.000283572
0.000208929
0.000153148
0.000124239
0.000109097
9.97809e-05
9.3569e-05
8.95786e-05
8.79884e-05
8.78696e-05
8.85065e-05
8.97761e-05
9.13756e-05
9.3005e-05
9.4598e-05
9.64699e-05
9.89082e-05
9.97945e-05
9.97454e-05
0.000100443
0.000102144
0.000104752
0.000110039
0.000120618
0.00015093
0.000242809
0.000357216
0.000363172
0.000314717
0.000237899
0.000172936
0.000134927
0.000116131
0.000104838
9.72296e-05
9.21242e-05
8.90383e-05
8.8138e-05
8.84953e-05
8.95019e-05
9.08541e-05
9.23222e-05
9.37004e-05
9.50116e-05
9.66091e-05
9.88844e-05
9.97792e-05
9.95964e-05
0.00010019
0.00010178
0.000104284
0.00010897
0.000118093
0.000141585
0.000213402
0.000348693
0.000383862
0.000343414
0.000268591
0.000196545
0.000149095
0.000124585
0.000111106
0.000101982
9.56819e-05
9.14542e-05
8.91228e-05
8.87931e-05
8.95571e-05
9.08011e-05
9.21868e-05
9.34979e-05
9.45837e-05
9.5539e-05
9.67699e-05
9.88192e-05
9.97241e-05
9.93663e-05
9.99165e-05
0.000101296
0.000103733
0.000107946
0.000116226
0.000134959
0.000191335
0.00032775
0.000400911
0.000371337
0.000300414
0.00022398
0.000166385
0.00013553
0.000118802
0.000108054
0.000100459
9.50933e-05
9.1521e-05
8.98496e-05
8.99947e-05
9.09856e-05
9.22938e-05
9.35967e-05
9.46568e-05
9.54704e-05
9.61224e-05
9.69707e-05
9.87175e-05
9.96586e-05
9.90805e-05
9.95606e-05
0.000100743
0.000103062
0.000106948
0.000114768
0.000130206
0.000174421
0.000296477
0.000406189
0.00039664
0.000334659
0.000253748
0.000187966
0.000148901
0.00012849
0.000115781
0.000106788
0.000100121
9.53944e-05
9.24092e-05
9.13196e-05
9.17385e-05
9.27789e-05
9.40343e-05
9.51322e-05
9.58446e-05
9.63107e-05
9.67295e-05
9.72339e-05
9.86148e-05
9.95657e-05
9.87878e-05
9.91016e-05
0.000100151
0.000102263
0.000105895
0.000113186
0.000126665
0.000161877
0.000262527
0.000404537
0.000421879
0.000369288
0.000286171
0.00021303
0.000165448
0.00014037
0.000125639
0.000115083
0.000107051
0.000100968
9.67593e-05
9.43024e-05
9.36569e-05
9.40894e-05
9.51108e-05
9.62968e-05
9.71338e-05
9.74125e-05
9.73138e-05
9.73091e-05
9.75204e-05
9.85393e-05
9.94293e-05
9.84491e-05
9.85713e-05
9.94929e-05
0.000101389
0.000104765
0.000111373
0.000123855
0.000152676
0.00023384
0.000395552
0.000449169
0.000402934
0.000320126
0.000241734
0.000185473
0.000154867
0.000137911
0.00012587
0.000116622
0.000109075
0.0001034
9.92558e-05
9.73897e-05
9.69755e-05
9.74168e-05
9.82886e-05
9.90938e-05
9.94982e-05
9.93396e-05
9.8569e-05
9.797e-05
9.78104e-05
9.94807e-05
9.82742e-05
9.92749e-05
9.80521e-05
9.79927e-05
9.88308e-05
0.000100479
0.000103582
0.000109637
0.000121722
0.000145857
0.000212168
0.000372127
0.00047005
0.000438191
0.000357119
0.000273494
0.000209041
0.000172587
0.000153215
0.000140241
0.000130134
0.00012147
0.000114208
0.000109194
0.000105742
0.0001039
0.000103044
0.000102879
0.000103001
0.000102982
0.000102634
0.000101599
0.000100041
9.86786e-05
9.7651e-05
9.7703e-05
9.95211e-05
9.83494e-05
9.91136e-05
9.76261e-05
9.73634e-05
9.817e-05
9.95496e-05
0.000102359
0.00010793
0.000119469
0.000140578
0.000194759
0.000338515
0.00047701
0.000472123
0.000399104
0.000307963
0.000236918
0.000193543
0.000172101
0.000159833
0.000151104
0.000143941
0.000139176
0.000135051
0.000131878
0.000128104
0.000123624
0.000119375
0.000115644
0.000112536
0.000110096
0.000107774
0.000104572
0.00010058
0.000103299
9.82995e-05
0.000101325
0.000100267
9.77713e-05
9.78762e-05
9.95723e-05
9.84693e-05
9.89408e-05
9.71955e-05
9.6763e-05
9.74607e-05
9.85736e-05
0.000101047
0.000106209
0.000117015
0.000136445
0.000180967
0.000301628
0.00047581
0.000506606
0.000442335
0.000345962
0.000267441
0.000217864
0.000194703
0.00018633
0.000187455
0.000194708
0.000210137
0.000228305
0.0002408
0.00023974
0.000224591
0.000200784
0.000176884
0.000156832
0.000140814
0.000128646
0.000116685
0.000105708
0.000109077
0.0001043
9.86429e-05
0.000102832
0.000100852
9.79809e-05
9.81538e-05
9.96581e-05
9.86839e-05
9.87714e-05
9.67844e-05
9.62637e-05
9.66964e-05
9.74981e-05
9.96473e-05
0.000104438
0.000114552
0.000133057
0.000170533
0.000268817
0.00046602
0.00054132
0.000486507
0.000386429
0.000301319
0.000244823
0.000220353
0.000220556
0.000247307
0.000313104
0.000410465
0.000540606
0.000655469
0.000714991
0.00069111
0.000598415
0.000484491
0.000382606
0.000301101
0.000236297
0.000181033
0.000115735
0.000132787
0.000107371
0.000113063
0.000105557
9.90579e-05
0.000103465
0.000101235
9.83207e-05
9.85713e-05
9.9791e-05
9.90156e-05
9.86154e-05
9.6443e-05
9.58509e-05
9.59135e-05
9.63533e-05
9.82803e-05
0.000102659
0.000112148
0.000129822
0.000162676
0.00024364
0.000438155
0.000564949
0.000531534
0.000433062
0.000337283
0.00027412
0.000249278
0.000262776
0.000333813
0.000515697
0.000852166
0.00126611
0.00169906
0.00197389
0.0020473
0.00190019
0.00161949
0.00129675
0.000965745
0.000720945
0.000538424
0.000182145
0.000347797
0.000126904
0.000168258
0.000110477
0.000122542
0.000107676
9.95902e-05
0.000104794
0.000102086
9.8819e-05
9.91458e-05
9.99679e-05
9.94836e-05
9.84721e-05
9.61812e-05
9.54878e-05
9.51713e-05
9.50921e-05
9.69811e-05
0.000101002
0.000109892
0.000126779
0.000157036
0.000223721
0.000397203
0.000570269
0.000574199
0.000486024
0.00037733
0.000305983
0.000279639
0.000311824
0.000447227
0.00079184
0.00141997
0.00225066
0.00289339
0.00314197
0.00316528
0.0030769
0.00289349
0.00267152
0.00242661
0.00211668
0.00179121
0.000793059
0.00165249
0.000307505
0.00072981
0.000159017
0.000281676
0.000117749
0.000148843
0.000112973
0.000100413
0.000108241
0.000104279
9.94189e-05
9.98355e-05
0.000100149
9.99695e-05
9.83536e-05
9.60061e-05
9.51831e-05
9.4582e-05
9.37951e-05
9.56699e-05
9.94622e-05
0.000107825
0.000124097
0.00015227
0.000207928
0.000352654
0.000566011
0.000615904
0.00053978
0.000421437
0.000339599
0.000310449
0.00036092
0.000572237
0.00110696
0.0020637
0.00305278
0.00348928
0.00361558
0.00358157
0.00342241
0.00326486
0.00310903
0.00298222
0.00291973
0.00293527
0.00230166
0.00296787
0.00155562
0.00232225
0.000661091
0.00149547
0.000254854
0.000593802
0.000138138
0.000225916
0.000127445
0.000101812
0.000117473
0.000109659
0.000100007
0.000100767
0.000100295
0.000100394
9.82929e-05
9.59441e-05
9.49626e-05
9.40767e-05
9.26464e-05
9.43577e-05
9.80181e-05
0.000105891
0.00012199
0.000147918
0.000196565
0.000311926
0.000547896
0.000652052
0.000594352
0.000470325
0.000375667
0.000340098
0.000402363
0.000687807
0.00139926
0.00260541
0.00345295
0.00373053
0.00367164
0.00348911
0.00324921
0.00306754
0.00295322
0.00290076
0.00292743
0.00307023
0.00321903
0.00336759
0.00294996
0.00334136
0.00232125
0.00299293
0.0014242
0.00232203
0.000523969
0.00131996
0.000197063
0.000445705
0.000168862
0.000104732
0.000143408
0.000124086
0.000100644
0.000102298
0.00010039
0.00010072
9.83508e-05
9.60507e-05
9.48303e-05
9.35014e-05
9.16967e-05
9.3159e-05
9.67411e-05
0.000104102
0.000120119
0.000143931
0.000188251
0.000280994
0.000506546
0.000667034
0.000644008
0.000528382
0.000414435
0.000367834
0.000432275
0.000769527
0.00165436
0.00296629
0.00361636
0.00371091
0.00351431
0.00315947
0.00278435
0.00260173
0.00259358
0.00265867
0.00277405
0.00294557
0.00333658
0.00326023
0.00352148
0.00353106
0.00345771
0.00371874
0.00306432
0.00360021
0.0023033
0.00313139
0.00117625
0.00224471
0.000362684
0.000982099
0.000282961
0.000111717
0.000215542
0.000163611
0.00010145
0.000105378
0.000100437
0.000100976
9.86534e-05
9.64388e-05
9.48307e-05
9.28982e-05
9.09076e-05
9.21018e-05
9.56667e-05
0.000102688
0.000118279
0.000140236
0.000181453
0.000257558
0.000454269
0.00066511
0.000688173
0.000590932
0.000458255
0.00039583
0.000450659
0.000803809
0.00181473
0.00315646
0.00364637
0.00360278
0.00314045
0.00260569
0.00228066
0.00222586
0.00232368
0.00246721
0.00261282
0.00280761
0.00314075
0.00306958
0.00349741
0.00340166
0.00379504
0.00378801
0.00393266
0.00409586
0.00375098
0.00416558
0.00317711
0.00389633
0.00213157
0.00318311
0.000760272
0.00192165
0.000570055
0.000130348
0.000401567
0.000271543
0.000102601
0.000112629
0.000100396
0.000101217
9.93904e-05
9.72301e-05
9.50742e-05
9.24285e-05
9.0266e-05
9.12158e-05
9.47021e-05
0.000101656
0.000116768
0.000137025
0.000174814
0.000239273
0.000401551
0.000650628
0.000727699
0.000651235
0.000506625
0.000423234
0.00046262
0.000802087
0.00184972
0.00324058
0.00361886
0.00336899
0.00268051
0.0020673
0.0018096
0.00183718
0.00201249
0.00225197
0.00248943
0.00277453
0.00305528
0.00305851
0.00333688
0.00331959
0.00374323
0.00369015
0.0041402
0.00413609
0.00440726
0.00452908
0.00441005
0.00474879
0.00402567
0.00466312
0.0031237
0.00413573
0.00159758
0.00297102
0.0011983
0.000181704
0.000829925
0.000540188
0.000104887
0.000132824
0.00010029
0.000101584
0.00010138
9.86554e-05
9.5758e-05
9.22198e-05
8.9825e-05
9.05427e-05
9.38325e-05
0.000100852
0.000115619
0.000134578
0.000168321
0.000226067
0.000354794
0.000611612
0.0007487
0.000706307
0.000563443
0.000453826
0.000466635
0.000783141
0.00182894
0.00324714
0.00356696
0.00310883
0.00225662
0.00162132
0.00143371
0.00147237
0.00162093
0.00183015
0.00217359
0.00264814
0.00323057
0.00333052
0.00340881
0.00367206
0.00367845
0.00413112
0.00413973
0.00460439
0.00468365
0.00497703
0.00518966
0.00513664
0.00553445
0.0049304
0.00559555
0.00418609
0.00522736
0.00272138
0.00416918
0.00230227
0.00032486
0.00173935
0.00114825
0.000110793
0.000191143
0.00010018
0.000102745
0.000106425
0.000101916
9.72439e-05
9.24783e-05
8.96385e-05
9.01025e-05
9.31691e-05
0.000100229
0.00011482
0.000132852
0.000162525
0.000215249
0.000316489
0.000555467
0.00074765
0.000747422
0.00062844
0.000489313
0.000468155
0.000731989
0.00175303
0.00323026
0.00353292
0.00291845
0.00193534
0.00133478
0.00114871
0.00119498
0.00133302
0.00151213
0.00175948
0.00219345
0.00299467
0.00373296
0.00370643
0.00371048
0.0037311
0.00416586
0.00421219
0.00478416
0.00489227
0.00542306
0.00566796
0.00593349
0.00636487
0.00621775
0.00682351
0.00612832
0.00698782
0.00548912
0.00671021
0.00404321
0.00568586
0.003774
0.000684102
0.0032454
0.00241939
0.000128445
0.000356972
0.000100266
0.000107232
0.000119755
0.000111645
0.000100815
9.36443e-05
8.97209e-05
8.99153e-05
9.27676e-05
9.99021e-05
0.000114458
0.000131639
0.000157773
0.000205846
0.000288269
0.000495736
0.000733829
0.000782237
0.000692254
0.000531962
0.000473008
0.000658664
0.00157657
0.00317852
0.00352772
0.00285009
0.00175993
0.00119537
0.000996372
0.000998586
0.00113847
0.00131925
0.00155477
0.0019769
0.00271611
0.00365732
0.00357725
0.0042406
0.00420797
0.00424861
0.00425246
0.00498812
0.00506128
0.00590121
0.00608958
0.0067773
0.00715669
0.00745994
0.00804148
0.00783037
0.00856911
0.00782005
0.008781
0.00723402
0.00860302
0.00577465
0.00765316
0.0056733
0.00150701
0.00528002
0.00444325
0.000183675
0.000790632
0.000101227
0.000119302
0.000151237
0.000140001
0.000110295
9.63094e-05
9.01893e-05
8.99807e-05
9.26369e-05
9.99504e-05
0.000114541
0.000130732
0.000154045
0.000197625
0.000266139
0.000438091
0.000696226
0.000800355
0.000746467
0.000582769
0.000483719
0.000589886
0.00134134
0.00305788
0.00353776
0.00285612
0.00171294
0.00115862
0.000953856
0.000906427
0.000996564
0.001267
0.00161394
0.00205891
0.00276267
0.00355136
0.00344109
0.00416583
0.00416493
0.00506687
0.0050514
0.00509147
0.00508711
0.00622278
0.00630273
0.00746552
0.00766171
0.00847827
0.00873095
0.00906239
0.00929611
0.00937956
0.00964089
0.00950525
0.00989448
0.00923121
0.0100045
0.00791281
0.00967445
0.00793581
0.00316059
0.00762539
0.00687676
0.000341428
0.00174788
0.000102194
0.000147319
0.000162122
0.000184955
0.000138552
0.000103331
9.11754e-05
9.03778e-05
9.28257e-05
0.000100512
0.000115172
0.000130098
0.000151027
0.000190344
0.000248801
0.000388364
0.000638554
0.000799036
0.00078395
0.000642856
0.000504168
0.000538243
0.00109056
0.00279024
0.00356881
0.00290392
0.00172937
0.00117414
0.000964688
0.000896525
0.000913689
0.00119193
0.00166899
0.00232027
0.00304392
0.00416098
0.00419825
0.0044056
0.00506046
0.00510947
0.00630923
0.0063262
0.00632538
0.00631704
0.00777732
0.00780713
0.00883237
0.00882046
0.00937285
0.00934094
0.00969369
0.00965267
0.0099798
0.00992776
0.0102573
0.0102402
0.010409
0.0105626
0.00994057
0.0107279
0.0100062
0.00555796
0.00979496
0.00922307
0.000728364
0.00356965
0.000108609
0.000300709
0.00018558
0.000183249
0.000125032
9.38046e-05
9.11276e-05
9.3476e-05
0.000101856
0.000115999
0.000129522
0.000148293
0.000183701
0.000235512
0.000348087
0.00057637
0.000784992
0.000807012
0.000705972
0.000535301
0.000509897
0.000860454
0.00237521
0.00358233
0.00302958
0.00179685
0.00123501
0.00101788
0.000920478
0.000897671
0.000999373
0.00158441
0.00234552
0.00332115
0.00460124
0.0056814
0.00601707
0.00522463
0.00544729
0.00639153
0.00654851
0.0077408
0.0077448
0.0077932
0.00775793
0.00877033
0.00867023
0.00925722
0.00912603
0.00954825
0.00936488
0.00978925
0.00954811
0.0101318
0.00992083
0.0105223
0.0103869
0.0108407
0.0108129
0.0109933
0.0111053
0.0111632
0.00818805
0.0112492
0.0111079
0.00179683
0.00636439
0.000113968
0.000677658
0.000176704
0.000165502
0.000102774
9.24415e-05
9.43972e-05
0.000103704
0.000116667
0.000128704
0.000145313
0.000177405
0.000224544
0.000316406
0.000516035
0.000748326
0.000815554
0.000755731
0.000577566
0.000497928
0.000686672
0.0018635
0.00354728
0.00328605
0.001958
0.00137033
0.0011277
0.000994695
0.000913694
0.000890602
0.0011859
0.00198399
0.00307329
0.00439578
0.00608971
0.0057917
0.0070552
0.00694334
0.00674343
0.00699657
0.0077824
0.00782956
0.00836744
0.00831008
0.00855931
0.00845358
0.00897303
0.00880617
0.00912802
0.00885503
0.00924447
0.00891515
0.00969429
0.00944356
0.0102858
0.0102454
0.0108322
0.01103
0.0110732
0.0113356
0.0113746
0.0113155
0.0115958
0.0105661
0.0118768
0.0120096
0.0116405
0.00381043
0.00923743
0.0001408
0.00170477
0.000172335
0.000126862
9.51961e-05
9.5077e-05
0.000104743
0.000116795
0.000127621
0.000142161
0.000171114
0.000214717
0.000291764
0.000461536
0.000693637
0.000812118
0.000786768
0.000629507
0.000497634
0.000577201
0.00136528
0.00335237
0.00355756
0.00225718
0.00162951
0.00132227
0.00111481
0.000964583
0.000886029
0.000921913
0.00126591
0.00211386
0.00338466
0.00483459
0.00663878
0.00594979
0.00751661
0.00705137
0.00781816
0.00773315
0.00826348
0.00817843
0.00831418
0.0081348
0.00863743
0.00847392
0.00856365
0.00826283
0.0085583
0.0081684
0.00915275
0.00881308
0.0102012
0.0100765
0.011398
0.011807
0.0121442
0.0130093
0.0117908
0.0130121
0.0115023
0.012132
0.0116791
0.0117008
0.0116133
0.0120848
0.0112526
0.0120787
0.0120424
0.0118741
0.0117421
0.0122163
0.00731963
0.0120099
0.0117761
0.0103696
0.000556754
0.00594671
0.000156374
0.000103609
9.59249e-05
0.000104234
0.000116109
0.000126041
0.000139115
0.000165039
0.000205466
0.000272027
0.00041499
0.000634545
0.000797613
0.000800641
0.000685987
0.000507649
0.000510283
0.000971076
0.00279202
0.00371377
0.00265006
0.00194838
0.00164431
0.00133725
0.00108776
0.000928601
0.000887172
0.000943502
0.00127751
0.00193306
0.00240468
0.00361349
0.00216479
0.00624304
0.00493979
0.00689203
0.00581404
0.00799284
0.0076109
0.00788175
0.00748149
0.00727817
0.0068453
0.00795474
0.00763255
0.00774876
0.00730562
0.0084165
0.00796431
0.00983071
0.00946717
0.0120244
0.0119411
0.013761
0.0140007
0.0142671
0.0143702
0.0145519
0.0126936
0.0134778
0.0144072
0.0139643
0.0122356
0.0117084
0.0121767
0.0128333
0.0117532
0.0123768
0.0124926
0.0120638
0.0119037
0.0118047
0.0122722
0.0116673
0.00926269
0.0109916
0.0125663
0.0126264
0.00852782
0.0113016
0.0109605
0.00911403
0.00012384
9.90809e-05
0.000102063
0.000113721
0.000123872
0.000135935
0.000159729
0.000196762
0.000255681
0.000376362
0.000576451
0.000763186
0.000800222
0.000730651
0.000539826
0.000471602
0.000707683
0.00206808
0.00371159
0.00311936
0.00229871
0.00206162
0.00182185
0.00136136
0.00107493
0.000932655
0.00089722
0.000938331
0.00110679
0.00113545
0.000948922
0.00181499
0.00112605
0.00442091
0.00291408
0.00473744
0.00338175
0.00686111
0.00594524
0.00627888
0.00553688
0.00584174
0.00527136
0.00684353
0.00635903
0.00746724
0.00693646
0.00898597
0.00841427
0.0115945
0.0111049
0.013913
0.0136481
0.0145439
0.0145331
0.0144257
0.0143465
0.0145309
0.0145372
0.0147401
0.0146452
0.0135247
0.0140536
0.0143399
0.0143144
0.0127871
0.0120725
0.0126801
0.0134797
0.0120118
0.0124841
0.0126801
0.0120304
0.0119614
0.0119699
0.0121995
0.0126085
0.0124255
0.0128715
0.0130283
0.0131621
0.0264982
0.0191524
0.0125997
0.0127994
0.000111277
0.00010146
0.000110141
0.000120373
0.000133099
0.000154849
0.000189391
0.000241725
0.000344843
0.000522838
0.000716145
0.000793631
0.000757792
0.000585192
0.000461592
0.000556604
0.00140659
0.00351979
0.00355449
0.00265467
0.00248258
0.00243799
0.00201504
0.00146978
0.00112637
0.000944141
0.000887619
0.000831609
0.000728063
0.000656666
0.000703017
0.000593711
0.0010427
0.000792261
0.00227667
0.00149733
0.00273678
0.00198457
0.00462182
0.00362971
0.00463769
0.00394976
0.00523257
0.00464182
0.00638462
0.00581641
0.00778862
0.00713312
0.0104683
0.00973199
0.0132517
0.0127084
0.0142268
0.0141706
0.0141202
0.0140718
0.0145029
0.0143147
0.0141691
0.0140856
0.0141031
0.0136811
0.0143312
0.0140323
0.0139637
0.0141244
0.0135384
0.0139875
0.0133345
0.0125158
0.0131314
0.0137814
0.0123478
0.0124049
0.0126229
0.0120158
0.0121888
0.0120728
0.012082
0.0130494
0.0129543
0.012835
0.0130019
0.0144841
0.0419401
0.0331781
0.0128823
0.0129009
0.000110228
0.000107254
0.000117537
0.00012965
0.000151395
0.000182729
0.000230503
0.000318704
0.00047585
0.000664992
0.000775663
0.000766791
0.000635357
0.000466148
0.000471586
0.00092945
0.00284016
0.00373101
0.00302422
0.00282233
0.00303559
0.00285139
0.00240486
0.0016921
0.00117634
0.000939981
0.000800945
0.000651752
0.000552886
0.000516863
0.000606657
0.000552963
0.000810426
0.000682487
0.0014165
0.00103693
0.00206836
0.00160909
0.00325249
0.00260717
0.00404971
0.00346075
0.0052181
0.00462704
0.00647591
0.00583514
0.00894261
0.00812311
0.0120019
0.011125
0.0139982
0.0138614
0.0137029
0.0134656
0.0140832
0.0141439
0.0142499
0.0143724
0.0137506
0.0135976
0.0135773
0.0136667
0.012955
0.0132786
0.0124518
0.0129699
0.013865
0.0135743
0.0122536
0.0129516
0.0135319
0.0129016
0.0132702
0.0135698
0.0126566
0.0121927
0.0123518
0.0120148
0.0124137
0.0122038
0.0119961
0.0130043
0.0127962
0.0125249
0.0126463
0.0153958
0.0348716
0.0379889
0.01245
0.0122322
0.00011226
0.000114403
0.000128288
0.000147572
0.000178313
0.000220315
0.000298334
0.000434584
0.000614384
0.000745623
0.000763716
0.000674603
0.000485789
0.000418849
0.000636823
0.00191315
0.00369191
0.00339778
0.00306747
0.0034874
0.00363965
0.00344766
0.00288409
0.00188311
0.00119847
0.000863938
0.000659679
0.000540277
0.000477396
0.000489086
0.000457254
0.000570657
0.000517427
0.000743627
0.000636168
0.00121287
0.000921855
0.0019903
0.00156793
0.00291173
0.00241952
0.00407514
0.00356089
0.00583629
0.00517785
0.00731752
0.0065509
0.0101575
0.0091479
0.0133252
0.0124249
0.014471
0.0144955
0.01442
0.0142086
0.0138809
0.0141572
0.0144881
0.0148293
0.0128798
0.0129177
0.013133
0.013481
0.0117141
0.0122013
0.0115269
0.0121557
0.0131959
0.0124507
0.0111361
0.0116457
0.0132974
0.0130107
0.0130475
0.0128926
0.0127517
0.0119885
0.0120046
0.0120324
0.0125081
0.0122767
0.0119162
0.0125451
0.0120405
0.0120341
0.0119806
0.0159995
0.014025
0.0346356
0.0112953
0.0114293
0.000117595
0.000126619
0.000146602
0.000173211
0.000213715
0.000279958
0.000401173
0.000565158
0.000708958
0.00075142
0.000702481
0.000521157
0.000403113
0.000481639
0.00119736
0.00337347
0.0036598
0.00329125
0.00370241
0.00424079
0.00437994
0.00410891
0.00327016
0.002007
0.00116076
0.000735074
0.000555702
0.000462906
0.00040843
0.000447771
0.000419542
0.000536118
0.00048693
0.000716822
0.00061255
0.0011751
0.000888693
0.00208323
0.00159066
0.00306704
0.00258378
0.00453382
0.00388104
0.00633426
0.00547399
0.00816258
0.007224
0.0112408
0.00999861
0.0150217
0.0145313
0.013293
0.0140168
0.0151296
0.0153267
0.0153654
0.0152667
0.0139015
0.0144009
0.0149318
0.0154391
0.0122767
0.0125875
0.0130245
0.013556
0.010977
0.0115203
0.0109948
0.0117097
0.0120696
0.0111999
0.0105538
0.0106959
0.0126611
0.0128156
0.012485
0.0118188
0.0125929
0.0118183
0.0117192
0.0120533
0.0123812
0.0121703
0.0118516
0.011628
0.0109129
0.0115806
0.0112762
0.0173309
0.0100896
0.0308581
0.0103972
0.0113988
0.000129306
0.000145681
0.000171539
0.000206065
0.000267942
0.000370738
0.000521958
0.000666693
0.000730118
0.000710413
0.000563591
0.000406196
0.000398166
0.000749147
0.00241829
0.00368016
0.00349824
0.00373634
0.00449717
0.00507432
0.00517899
0.0046742
0.00352504
0.00203782
0.00101201
0.000619335
0.000468292
0.000391071
0.000390172
0.000377058
0.000427082
0.000403466
0.000501316
0.000453438
0.000689876
0.000574905
0.00115607
0.000862288
0.0020563
0.0014828
0.00325049
0.00264736
0.00465442
0.0038734
0.00654893
0.00550795
0.00880545
0.00764912
0.0126395
0.0118564
0.0110617
0.0157861
0.015243
0.0138106
0.0145723
0.0158611
0.0161446
0.0162156
0.0161215
0.0141782
0.0148326
0.0154762
0.0160522
0.0120765
0.0125668
0.0131678
0.013843
0.0105809
0.0112191
0.0108283
0.0116175
0.0109079
0.0103978
0.0102882
0.010259
0.0116793
0.0123455
0.011623
0.0107542
0.0122229
0.0116693
0.0114737
0.0119828
0.012109
0.0119753
0.0117966
0.0107377
0.0101403
0.0111573
0.0106829
0.0189542
0.0074752
0.0301966
0.0100533
0.0116234
0.000148209
0.000169746
0.000202918
0.000255274
0.000348891
0.000480979
0.000624784
0.000703199
0.000706489
0.000597267
0.000420593
0.000349836
0.000502631
0.00146129
0.00349616
0.00365286
0.00374437
0.00449945
0.00537074
0.00597066
0.00590142
0.00514266
0.00361097
0.00186229
0.000828519
0.000507114
0.000395089
0.000356425
0.000368818
0.000354624
0.000404786
0.000386301
0.000465206
0.000431133
0.000629195
0.000526629
0.00104266
0.000785703
0.00171805
0.00117827
0.00311511
0.00238694
0.00452878
0.00362703
0.00717805
0.00593748
0.00974803
0.00844346
0.0130535
0.0123145
0.0118381
0.0111822
0.0161118
0.0154587
0.0139012
0.0147045
0.0165011
0.0167444
0.0167668
0.0165689
0.0145507
0.015243
0.0158708
0.0164002
0.0121345
0.0127512
0.0134229
0.0141129
0.0105399
0.0112289
0.0109239
0.011746
0.0102131
0.0100675
0.0103346
0.0100938
0.010713
0.0116083
0.0107639
0.0101206
0.0116209
0.0115612
0.0112085
0.011847
0.0116494
0.0116741
0.0116765
0.0101224
0.0097755
0.0107623
0.0102572
0.0203606
0.00591817
0.0322278
0.00993914
0.0118045
0.00017143
0.000198549
0.00024831
0.000327859
0.000447687
0.000581572
0.000673167
0.000694019
0.000624153
0.000451132
0.000338892
0.000381663
0.000859231
0.0027623
0.00367006
0.0037475
0.00440934
0.00537378
0.00632955
0.00682013
0.00653935
0.00537869
0.00356438
0.00151436
0.000648164
0.000425886
0.00035827
0.000334564
0.000328211
0.000358039
0.000344682
0.000392019
0.000371904
0.000440215
0.000412409
0.000553686
0.000482968
0.000851866
0.000669413
0.0014575
0.00101556
0.00279353
0.00205677
0.00476038
0.00369892
0.00828248
0.00698751
0.0106623
0.0100669
0.00947906
0.0131361
0.012447
0.0118324
0.0113746
0.0161182
0.0153719
0.0136546
0.0145051
0.016797
0.0169633
0.0169348
0.0166662
0.0147807
0.0154138
0.0159952
0.0164884
0.012334
0.0129614
0.0135929
0.0142131
0.0106848
0.0114078
0.0111362
0.0119483
0.00995404
0.00997059
0.0105196
0.010185
0.0101098
0.0108922
0.0102063
0.00990514
0.0110563
0.0114011
0.0109864
0.0116496
0.0112452
0.0113807
0.0114516
0.0097842
0.00962069
0.0105034
0.0100009
0.0209104
0.00808781
0.0359185
0.0098178
0.0116485
0.000199065
0.000240442
0.000313142
0.000416621
0.000541549
0.000639183
0.000671225
0.000637174
0.000483809
0.000342494
0.000315283
0.00052865
0.00166918
0.00351455
0.00373959
0.00414806
0.00526932
0.00633979
0.00728949
0.00760109
0.00701916
0.00544555
0.00317781
0.00114135
0.000511493
0.000376183
0.000316646
0.00032057
0.000311964
0.000342977
0.000330251
0.000380366
0.000361007
0.000429216
0.00040333
0.000523952
0.000468013
0.000756329
0.000609894
0.00142838
0.000978026
0.0027902
0.00203639
0.00571822
0.00454256
0.0093949
0.00876579
0.00809059
0.0109593
0.0104783
0.00990981
0.0104346
0.0129227
0.0123275
0.0117166
0.011479
0.015833
0.0149254
0.013062
0.0139448
0.0168528
0.0169714
0.0169072
0.0165285
0.0148221
0.0154012
0.0159296
0.0163751
0.012506
0.0130582
0.0136083
0.0141341
0.010951
0.011619
0.0113622
0.0120911
0.00990041
0.0100683
0.0108122
0.0103954
0.00995143
0.0104439
0.0100982
0.00991254
0.0107382
0.0111855
0.0107995
0.0113436
0.0109913
0.0111237
0.0112258
0.00959906
0.00944102
0.0103134
0.00980906
0.0197815
0.0303785
0.0334391
0.00958489
0.0110032
0.000238111
0.000299964
0.000391076
0.000504116
0.000602129
0.000646238
0.000634591
0.000512572
0.000355903
0.000283823
0.000365367
0.0009349
0.00286375
0.00370727
0.00394967
0.00493647
0.00622481
0.00733631
0.0082062
0.00826175
0.00725342
0.00528696
0.00256066
0.000776151
0.000425939
0.000328126
0.000298455
0.000300563
0.000308627
0.000302126