/*--------------------------------*- C++ -*----------------------------------*\
  =========                 |
  \\      /  F ield         | OpenFOAM: The Open Source CFD Toolbox
   \\    /   O peration     | Website:  https://openfoam.org
    \\  /    A nd           | Version:  dev
     \\/     M anipulation  |
\*---------------------------------------------------------------------------*/
FoamFile
{
    version     2.0;
    format      ascii;
    class       volScalarField;
    location    "2500";
    object      N2;
}
// * * * * * * * * * * * * * * * * * * * * * * * * * * * * * * * * * * * * * //

dimensions      [0 0 0 0 0 0 0];

internalField   nonuniform List<scalar> 
9846
(
0.76699
0.76699
0.76699
0.76699
0.76699
0.76699
0.76699
0.76699
0.76699
0.76699
0.76699
0.76699
0.76699
0.76699
0.76699
0.76699
0.76699
0.76699
0.76699
0.76699
0.76699
0.76699
0.76699
0.76699
0.76699
0.76699
0.76699
0.76699
0.76699
0.76699
0.76699
0.76699
0.76699
0.76699
0.76699
0.76699
0.76699
0.76699
0.76699
0.76699
0.76699
0.76699
0.76699
0.76699
0.76699
0.76699
0.76699
0.76699
0.76699
0.76699
0.76699
0.76699
0.76699
0.76699
0.76699
0.76699
0.76699
0.76699
0.76699
0.76699
0.76699
0.76699
0.76699
0.76699
0.76699
0.76699
0.76699
0.76699
0.76699
0.76699
0.76699
0.76699
0.76699
0.76699
0.76699
0.76699
0.76699
0.76699
0.76699
0.76699
0.76699
0.76699
0.76699
0.76699
0.76699
0.76699
0.76699
0.76699
0.76699
0.76699
0.76699
0.76699
0.76699
0.76699
0.76699
0.76699
0.76699
0.76699
0.76699
0.76699
0.76699
0.76699
0.76699
0.76699
0.76699
0.76699
0.76699
0.76699
0.76699
0.76699
0.76699
0.76699
0.76699
0.76699
0.76699
0.76699
0.76699
0.76699
0.76699
0.76699
0.76699
0.76699
0.76699
0.76699
0.76699
0.76699
0.76699
0.76699
0.76699
0.76699
0.76699
0.76699
0.76699
0.76699
0.76699
0.76699
0.76699
0.76699
0.76699
0.76699
0.76699
0.76699
0.76699
0.76699
0.76699
0.76699
0.76699
0.76699
0.76699
0.76699
0.76699
0.76699
0.76699
0.76699
0.76699
0.76699
0.76699
0.76699
0.76699
0.76699
0.76699
0.76699
0.76699
0.76699
0.76699
0.76699
0.76699
0.76699
0.76699
0.76699
0.76699
0.76699
0.76699
0.76699
0.76699
0.76699
0.76699
0.76699
0.76699
0.76699
0.76699
0.76699
0.76699
0.76699
0.76699
0.76699
0.76699
0.76699
0.76699
0.76699
0.76699
0.76699
0.76699
0.76699
0.76699
0.76699
0.76699
0.76699
0.76699
0.76699
0.76699
0.76699
0.76699
0.76699
0.76699
0.76699
0.76699
0.76699
0.76699
0.76699
0.76699
0.76699
0.76699
0.76699
0.76699
0.76699
0.76699
0.76699
0.76699
0.76699
0.76699
0.76699
0.76699
0.76699
0.76699
0.76699
0.76699
0.76699
0.76699
0.76699
0.76699
0.76699
0.76699
0.76699
0.76699
0.76699
0.76699
0.76699
0.76699
0.76699
0.76699
0.76699
0.76699
0.76699
0.76699
0.76699
0.76699
0.76699
0.76699
0.76699
0.76699
0.76699
0.76699
0.76699
0.76699
0.76699
0.76699
0.76699
0.76699
0.76699
0.76699
0.76699
0.76699
0.76699
0.76699
0.76699
0.76699
0.76699
0.76699
0.76699
0.76699
0.76699
0.76699
0.76699
0.76699
0.76699
0.76699
0.76699
0.76699
0.76699
0.76699
0.76699
0.76699
0.76699
0.76699
0.76699
0.76699
0.76699
0.76699
0.76699
0.76699
0.76699
0.76699
0.76699
0.76699
0.76699
0.76699
0.76699
0.76699
0.76699
0.76699
0.76699
0.76699
0.76699
0.76699
0.76699
0.76699
0.76699
0.76699
0.76699
0.76699
0.76699
0.76699
0.76699
0.76699
0.76699
0.76699
0.76699
0.76699
0.76699
0.76699
0.76699
0.76699
0.76699
0.76699
0.76699
0.76699
0.76699
0.76699
0.76699
0.76699
0.76699
0.76699
0.76699
0.76699
0.76699
0.76699
0.76699
0.76699
0.76699
0.76699
0.76699
0.76699
0.76699
0.76699
0.76699
0.76699
0.76699
0.76699
0.76699
0.76699
0.76699
0.76699
0.76699
0.76699
0.76699
0.76699
0.76699
0.76699
0.76699
0.76699
0.76699
0.76699
0.76699
0.76699
0.76699
0.76699
0.76699
0.76699
0.76699
0.76699
0.76699
0.76699
0.76699
0.76699
0.76699
0.76699
0.76699
0.76699
0.76699
0.76699
0.76699
0.76699
0.76699
0.76699
0.76699
0.76699
0.76699
0.76699
0.76699
0.76699
0.76699
0.76699
0.76699
0.76699
0.76699
0.76699
0.76699
0.76699
0.76699
0.76699
0.76699
0.76699
0.76699
0.76699
0.76699
0.76699
0.76699
0.76699
0.76699
0.76699
0.76699
0.76699
0.76699
0.76699
0.76699
0.76699
0.76699
0.76699
0.76699
0.76699
0.76699
0.76699
0.76699
0.76699
0.76699
0.76699
0.76699
0.76699
0.76699
0.76699
0.76699
0.76699
0.76699
0.76699
0.76699
0.76699
0.76699
0.76699
0.76699
0.76699
0.76699
0.76699
0.76699
0.76699
0.76699
0.76699
0.76699
0.76699
0.76699
0.76699
0.76699
0.76699
0.76699
0.76699
0.76699
0.76699
0.76699
0.76699
0.76699
0.76699
0.76699
0.76699
0.76699
0.76699
0.76699
0.76699
0.76699
0.76699
0.76699
0.76699
0.76699
0.76699
0.76699
0.76699
0.76699
0.76699
0.76699
0.76699
0.76699
0.76699
0.76699
0.76699
0.76699
0.76699
0.76699
0.76699
0.76699
0.76699
0.76699
0.76699
0.76699
0.76699
0.76699
0.76699
0.76699
0.76699
0.76699
0.76699
0.76699
0.76699
0.76699
0.76699
0.76699
0.76699
0.76699
0.76699
0.76699
0.76699
0.76699
0.76699
0.76699
0.76699
0.76699
0.76699
0.76699
0.76699
0.76699
0.76699
0.76699
0.76699
0.76699
0.76699
0.76699
0.76699
0.76699
0.76699
0.76699
0.76699
0.76699
0.76699
0.76699
0.76699
0.76699
0.76699
0.76699
0.76699
0.76699
0.76699
0.76699
0.76699
0.76699
0.76699
0.76699
0.76699
0.76699
0.76699
0.76699
0.76699
0.76699
0.76699
0.76699
0.76699
0.76699
0.76699
0.76699
0.76699
0.76699
0.76699
0.76699
0.76699
0.76699
0.76699
0.76699
0.76699
0.76699
0.76699
0.76699
0.76699
0.76699
0.76699
0.76699
0.76699
0.76699
0.76699
0.76699
0.76699
0.76699
0.76699
0.76699
0.76699
0.76699
0.76699
0.76699
0.76699
0.76699
0.76699
0.76699
0.76699
0.76699
0.76699
0.76699
0.76699
0.76699
0.76699
0.76699
0.76699
0.76699
0.76699
0.76699
0.76699
0.76699
0.76699
0.76699
0.76699
0.76699
0.76699
0.76699
0.76699
0.76699
0.76699
0.76699
0.76699
0.76699
0.76699
0.76699
0.76699
0.76699
0.76699
0.76699
0.76699
0.76699
0.76699
0.76699
0.76699
0.76699
0.76699
0.76699
0.76699
0.76699
0.76699
0.76699
0.76699
0.76699
0.76699
0.76699
0.76699
0.76699
0.76699
0.76699
0.76699
0.76699
0.76699
0.76699
0.76699
0.76699
0.76699
0.76699
0.76699
0.76699
0.76699
0.76699
0.76699
0.76699
0.766989
0.766989
0.766989
0.766989
0.766989
0.766989
0.766989
0.76699
0.76699
0.76699
0.76699
0.76699
0.76699
0.76699
0.76699
0.76699
0.76699
0.76699
0.76699
0.76699
0.76699
0.76699
0.76699
0.76699
0.76699
0.76699
0.76699
0.76699
0.76699
0.76699
0.76699
0.76699
0.76699
0.76699
0.76699
0.76699
0.76699
0.76699
0.76699
0.766989
0.766989
0.766987
0.766986
0.766985
0.766985
0.766985
0.766986
0.766986
0.766987
0.766988
0.766989
0.766989
0.76699
0.76699
0.76699
0.76699
0.76699
0.76699
0.76699
0.76699
0.76699
0.76699
0.76699
0.76699
0.76699
0.76699
0.76699
0.76699
0.76699
0.76699
0.76699
0.76699
0.76699
0.76699
0.76699
0.76699
0.76699
0.76699
0.76699
0.76699
0.76699
0.766988
0.766986
0.766981
0.766975
0.76697
0.766967
0.766967
0.76697
0.766973
0.766977
0.76698
0.766982
0.766985
0.76699
0.766988
0.76699
0.76699
0.76699
0.76699
0.76699
0.76699
0.76699
0.76699
0.76699
0.76699
0.76699
0.76699
0.76699
0.76699
0.76699
0.76699
0.76699
0.76699
0.76699
0.76699
0.76699
0.76699
0.76699
0.76699
0.76699
0.76699
0.76699
0.76699
0.766989
0.766987
0.76698
0.766967
0.766949
0.766933
0.766923
0.76692
0.766924
0.766933
0.766942
0.76695
0.766956
0.766963
0.766985
0.766975
0.766989
0.766986
0.76699
0.766989
0.76699
0.76699
0.76699
0.76699
0.76699
0.76699
0.76699
0.76699
0.76699
0.76699
0.76699
0.76699
0.76699
0.76699
0.76699
0.76699
0.76699
0.76699
0.76699
0.76699
0.76699
0.76699
0.76699
0.76699
0.76699
0.76699
0.766989
0.766984
0.766972
0.766946
0.766914
0.766882
0.766859
0.766846
0.766844
0.766849
0.76686
0.766874
0.766886
0.766893
0.766948
0.766891
0.766977
0.766952
0.766987
0.766979
0.766989
0.766987
0.766989
0.76699
0.76699
0.76699
0.76699
0.76699
0.76699
0.76699
0.76699
0.76699
0.76699
0.76699
0.76699
0.76699
0.76699
0.76699
0.76699
0.76699
0.76699
0.76699
0.76699
0.76699
0.76699
0.76699
0.76699
0.76699
0.766988
0.766982
0.766962
0.766925
0.766876
0.766832
0.766796
0.76677
0.766753
0.766745
0.766745
0.76675
0.766761
0.766765
0.766833
0.766756
0.766899
0.766831
0.766956
0.766902
0.76698
0.766958
0.766988
0.766981
0.766988
0.76699
0.766989
0.766989
0.76699
0.76699
0.76699
0.76699
0.76699
0.76699
0.76699
0.76699
0.76699
0.76699
0.76699
0.76699
0.76699
0.76699
0.76699
0.76699
0.76699
0.76699
0.76699
0.76699
0.76699
0.76699
0.766988
0.76698
0.766953
0.766904
0.766844
0.766782
0.766736
0.7667
0.766672
0.76665
0.766632
0.766618
0.76661
0.766613
0.766688
0.766601
0.766756
0.766675
0.766831
0.76675
0.766905
0.766829
0.766961
0.766909
0.766983
0.766965
0.766985
0.76699
0.766986
0.766988
0.76699
0.76699
0.76699
0.76699
0.76699
0.76699
0.76699
0.76699
0.76699
0.76699
0.76699
0.76699
0.76699
0.76699
0.76699
0.76699
0.76699
0.76699
0.76699
0.76699
0.76699
0.76699
0.766988
0.766979
0.766948
0.766888
0.766813
0.766749
0.766702
0.766667
0.766635
0.766604
0.76657
0.766534
0.766497
0.766468
0.766531
0.76645
0.766592
0.766509
0.766663
0.766574
0.766742
0.766648
0.766826
0.766731
0.766916
0.766825
0.76697
0.766926
0.766975
0.766989
0.76698
0.766984
0.76699
0.766989
0.76699
0.76699
0.76699
0.76699
0.76699
0.76699
0.76699
0.76699
0.76699
0.76699
0.76699
0.76699
0.76699
0.76699
0.76699
0.76699
0.76699
0.76699
0.76699
0.76699
0.766988
0.766979
0.766946
0.766878
0.766795
0.766734
0.766698
0.76667
0.766641
0.766609
0.766569
0.766523
0.766465
0.766393
0.766393
0.766336
0.76643
0.76636
0.766485
0.7664
0.766551
0.766454
0.766627
0.766521
0.766719
0.766604
0.766829
0.766709
0.766937
0.766841
0.766949
0.766987
0.766961
0.766972
0.76699
0.766989
0.76699
0.76699
0.76699
0.76699
0.76699
0.76699
0.76699
0.76699
0.76699
0.76699
0.76699
0.76699
0.76699
0.76699
0.76699
0.76699
0.76699
0.76699
0.76699
0.76699
0.766989
0.76698
0.766947
0.766874
0.766787
0.766736
0.766706
0.766685
0.766665
0.76664
0.766602
0.766549
0.766477
0.766386
0.766305
0.766292
0.7663
0.766254
0.766323
0.766256
0.766361
0.766277
0.766415
0.766314
0.766485
0.76637
0.766579
0.766447
0.766705
0.766558
0.766861
0.766711
0.76689
0.766981
0.766917
0.766944
0.76699
0.766986
0.76699
0.76699
0.76699
0.76699
0.76699
0.76699
0.76699
0.76699
0.76699
0.76699
0.76699
0.76699
0.76699
0.76699
0.76699
0.76699
0.76699
0.76699
0.76699
0.76699
0.766989
0.766982
0.766948
0.766875
0.76679
0.766745
0.766723
0.766718
0.766725
0.766725
0.766698
0.766639
0.76655
0.766423
0.766261
0.76623
0.766203
0.766202
0.766162
0.766204
0.766142
0.766223
0.766144
0.766261
0.766164
0.76632
0.766204
0.766409
0.76627
0.766543
0.766376
0.76673
0.76654
0.766767
0.766966
0.766821
0.766878
0.766989
0.76698
0.76699
0.76699
0.76699
0.76699
0.76699
0.76699
0.76699
0.76699
0.76699
0.76699
0.76699
0.76699
0.76699
0.76699
0.76699
0.76699
0.76699
0.76699
0.76699
0.76699
0.766989
0.766984
0.766953
0.766879
0.766798
0.766761
0.766747
0.766765
0.766809
0.766811
0.766774
0.766724
0.766652
0.766539
0.766343
0.76613
0.76614
0.766137
0.76613
0.766095
0.766059
0.766079
0.766026
0.766083
0.766017
0.766105
0.766026
0.766149
0.766052
0.766225
0.766101
0.766353
0.766189
0.766555
0.766345
0.766588
0.766928
0.766652
0.766745
0.766987
0.766964
0.76699
0.76699
0.76699
0.76699
0.76699
0.76699
0.76699
0.76699
0.76699
0.76699
0.76699
0.76699
0.76699
0.76699
0.76699
0.76699
0.76699
0.76699
0.76699
0.76699
0.76699
0.766986
0.766961
0.766889
0.766811
0.766777
0.766773
0.766817
0.766878
0.766871
0.766829
0.766772
0.766692
0.766572
0.766389
0.766155
0.766173
0.766029
0.766032
0.766038
0.76603
0.765987
0.765961
0.765967
0.765935
0.765968
0.76593
0.76598
0.765931
0.766008
0.765943
0.766062
0.765973
0.766167
0.766035
0.766355
0.76616
0.766387
0.766848
0.766449
0.766554
0.766983
0.766926
0.76699
0.766989
0.76699
0.76699
0.76699
0.76699
0.76699
0.76699
0.76699
0.76699
0.76699
0.76699
0.76699
0.76699
0.76699
0.76699
0.76699
0.76699
0.76699
0.76699
0.76699
0.766988
0.76697
0.766905
0.766825
0.766794
0.7668
0.766862
0.766922
0.766918
0.766873
0.766787
0.766671
0.76654
0.766366
0.766177
0.766178
0.76604
0.766047
0.765946
0.765953
0.765947
0.765944
0.765917
0.765908
0.765907
0.765894
0.765901
0.765885
0.765902
0.765877
0.765913
0.765874
0.765946
0.765885
0.76602
0.765924
0.766171
0.766017
0.766202
0.766701
0.766263
0.766364
0.766973
0.766854
0.76699
0.766988
0.76699
0.76699
0.76699
0.76699
0.76699
0.76699
0.76699
0.76699
0.76699
0.76699
0.76699
0.76699
0.76699
0.76699
0.76699
0.76699
0.76699
0.76699
0.76699
0.766989
0.766978
0.766923
0.76684
0.766809
0.766823
0.766897
0.766948
0.766949
0.766917
0.766811
0.766653
0.766459
0.766283
0.766124
0.766053
0.766051
0.765966
0.765982
0.765918
0.765931
0.765907
0.76591
0.765891
0.765893
0.765879
0.765881
0.765864
0.765862
0.765849
0.765836
0.765842
0.765813
0.765855
0.765803
0.765909
0.765826
0.766027
0.765902
0.766054
0.766519
0.766108
0.766199
0.76695
0.766733
0.76699
0.766982
0.76699
0.76699
0.76699
0.76699
0.76699
0.76699
0.76699
0.76699
0.76699
0.76699
0.76699
0.76699
0.76699
0.76699
0.76699
0.76699
0.76699
0.76699
0.76699
0.766983
0.766941
0.766857
0.766822
0.76684
0.76692
0.766961
0.766967
0.76695
0.766879
0.766716
0.766506
0.766316
0.766165
0.766056
0.7661
0.766002
0.766024
0.765949
0.765972
0.765923
0.765945
0.765898
0.765907
0.765886
0.765897
0.765866
0.765877
0.765835
0.76584
0.765795
0.765791
0.765764
0.765743
0.765758
0.765717
0.765801
0.765719
0.765905
0.765785
0.765927
0.766341
0.765973
0.766051
0.766886
0.766532
0.76699
0.766973
0.76699
0.76699
0.76699
0.76699
0.76699
0.76699
0.76699
0.76699
0.76699
0.76699
0.76699
0.76699
0.76699
0.76699
0.76699
0.76699
0.76699
0.76699
0.766987
0.766958
0.766878
0.766833
0.766848
0.766931
0.766967
0.766974
0.766968
0.766937
0.766856
0.766687
0.76646
0.766286
0.766154
0.766234
0.766096
0.766171
0.766002
0.766041
0.765975
0.766014
0.765971
0.766009
0.765915
0.76594
0.765899
0.765928
0.765855
0.765881
0.765796
0.765811
0.765738
0.765746
0.765706
0.76571
0.765688
0.765688
0.765689
0.765666
0.765782
0.765669
0.765797
0.766166
0.765837
0.765884
0.766001
0.766786
0.766336
0.766989
0.766952
0.76699
0.76699
0.76699
0.76699
0.76699
0.76699
0.76699
0.76699
0.76699
0.76699
0.76699
0.76699
0.76699
0.76699
0.76699
0.76699
0.76699
0.766988
0.766972
0.766904
0.766844
0.766853
0.766931
0.766968
0.766976
0.766975
0.766966
0.766933
0.766855
0.766726
0.766584
0.766557
0.766265
0.766424
0.766217
0.766324
0.766065
0.766132
0.766057
0.766118
0.766054
0.766111
0.765963
0.766005
0.765919
0.765966
0.765841
0.765882
0.765763
0.765792
0.765721
0.76574
0.765705
0.765735
0.765689
0.765744
0.765646
0.765704
0.765657
0.765634
0.765632
0.765737
0.765661
0.765927
0.766116
0.765977
0.765781
0.765686
0.765671
0.765811
0.766612
0.766035
0.76611
0.766282
0.766981
0.766854
0.76699
0.76699
0.76699
0.76699
0.76699
0.76699
0.76699
0.76699
0.76699
0.76699
0.76699
0.76699
0.76699
0.76699
0.76699
0.76699
0.766989
0.766981
0.766931
0.766857
0.766853
0.766928
0.766966
0.766975
0.766976
0.766975
0.766967
0.766942
0.766897
0.766855
0.766855
0.766738
0.766888
0.766451
0.766602
0.766396
0.766524
0.766194
0.766287
0.766179
0.766262
0.766145
0.76622
0.766019
0.766079
0.76593
0.765988
0.765832
0.76588
0.765767
0.765803
0.765768
0.765801
0.765813
0.765868
0.76583
0.765866
0.765922
0.765666
0.765733
0.765901
0.765808
0.765625
0.76562
0.765615
0.765659
0.765616
0.76585
0.765894
0.765709
0.765628
0.765619
0.765738
0.766188
0.76652
0.766309
0.765947
0.766009
0.766836
0.76637
0.766537
0.766752
0.76699
0.76699
0.76699
0.76699
0.76699
0.76699
0.76699
0.76699
0.76699
0.76699
0.76699
0.76699
0.76699
0.76699
0.76699
0.76699
0.766986
0.766954
0.766878
0.766853
0.766919
0.766959
0.766971
0.766974
0.766975
0.766976
0.766974
0.766967
0.766959
0.766959
0.76697
0.766892
0.766951
0.766665
0.7668
0.766592
0.766712
0.766359
0.766469
0.766305
0.766398
0.766198
0.766279
0.766052
0.766122
0.765937
0.766
0.765849
0.7659
0.765836
0.765878
0.765908
0.765935
0.765957
0.765988
0.766004
0.766015
0.765977
0.76605
0.76599
0.766029
0.76573
0.765825
0.766025
0.765928
0.765648
0.765603
0.765634
0.765725
0.765596
0.765771
0.765809
0.765644
0.765593
0.765593
0.765665
0.766078
0.766157
0.765854
0.765905
0.766496
0.766413
0.766379
0.766194
0.766255
0.76699
0.76699
0.76699
0.76699
0.76699
0.76699
0.76699
0.76699
0.76699
0.76699
0.76699
0.76699
0.76699
0.76699
0.76699
0.766987
0.766971
0.766905
0.766855
0.766899
0.766948
0.766961
0.766966
0.76697
0.766976
0.766981
0.766984
0.766984
0.766984
0.766986
0.76698
0.766988
0.766944
0.76697
0.766816
0.766896
0.7667
0.76679
0.766498
0.7666
0.766366
0.766455
0.766214
0.766293
0.766067
0.766138
0.765957
0.766017
0.765923
0.765969
0.765954
0.765969
0.766014
0.766008
0.765998
0.765986
0.766056
0.76607
0.766068
0.766055
0.7661
0.766148
0.766094
0.766116
0.765832
0.76595
0.766143
0.76606
0.765713
0.765618
0.765694
0.765829
0.765602
0.765692
0.765723
0.765597
0.76559
0.76558
0.765606
0.76596
0.76601
0.76576
0.765802
0.766164
0.766223
0.766054
0.76602
0.766037
0.76699
0.76699
0.76699
0.76699
0.76699
0.76699
0.76699
0.76699
0.76699
0.76699
0.76699
0.76699
0.76699
0.76699
0.766989
0.766981
0.766935
0.766865
0.76688
0.766936
0.766947
0.766946
0.766951
0.766965
0.766977
0.766985
0.766988
0.766989
0.766989
0.766989
0.766985
0.766988
0.766958
0.766976
0.766867
0.766923
0.766723
0.766802
0.766548
0.766639
0.766374
0.766455
0.766211
0.766281
0.766079
0.766144
0.766017
0.766068
0.765984
0.766014
0.765977
0.765967
0.765962
0.765957
0.766036
0.766013
0.765988
0.76596
0.766117
0.766102
0.766077
0.766043
0.766185
0.766159
0.766191
0.766151
0.76596
0.766083
0.766211
0.766173
0.765814
0.76567
0.765789
0.765956
0.765644
0.765619
0.765641
0.765575
0.765618
0.765594
0.765572
0.765846
0.765883
0.76567
0.765707
0.765966
0.766412
0.76604
0.765891
0.7659
0.76699
0.76699
0.76699
0.76699
0.76699
0.76699
0.76699
0.76699
0.76699
0.76699
0.76699
0.76699
0.76699
0.76699
0.766986
0.766959
0.766889
0.766872
0.766918
0.766935
0.766926
0.766922
0.766935
0.76696
0.766979
0.766987
0.766989
0.76699
0.76699
0.766989
0.76699
0.766986
0.766989
0.766963
0.766979
0.766875
0.76693
0.766695
0.766789
0.766534
0.766611
0.766352
0.766425
0.766238
0.766302
0.766122
0.766179
0.766055
0.766103
0.765933
0.765948
0.765934
0.76591
0.765892
0.765887
0.766001
0.765956
0.765909
0.765863
0.766122
0.766081
0.766028
0.765967
0.766212
0.76617
0.766181
0.766128
0.766091
0.766191
0.766224
0.766226
0.765938
0.765757
0.765908
0.766084
0.765719
0.765571
0.765577
0.765573
0.765678
0.765637
0.765557
0.765747
0.765782
0.765592
0.765621
0.765882
0.766755
0.766187
0.765793
0.765804
0.76699
0.76699
0.76699
0.76699
0.76699
0.76699
0.76699
0.76699
0.76699
0.76699
0.76699
0.76699
0.76699
0.766987
0.766975
0.76692
0.766873
0.766895
0.766925
0.766911
0.766897
0.766901
0.766922
0.766956
0.766979
0.766988
0.76699
0.76699
0.76699
0.76699
0.76699
0.766988
0.766989
0.76697
0.766983
0.766875
0.766937
0.766692
0.766802
0.766504
0.766592
0.766372
0.766448
0.766303
0.766382
0.766161
0.766228
0.765991
0.766054
0.765725
0.765726
0.765763
0.765739
0.76582
0.765783
0.765755
0.765735
0.765902
0.765836
0.765772
0.765713
0.766067
0.765998
0.76592
0.765838
0.766182
0.766122
0.766114
0.766048
0.766195
0.766233
0.766185
0.76623
0.766063
0.765868
0.766029
0.766187
0.765819
0.765546
0.765538
0.7656
0.765767
0.76571
0.765566
0.765657
0.765688
0.765537
0.765543
0.76588
0.766822
0.766309
0.76571
0.765741
0.76699
0.76699
0.76699
0.76699
0.76699
0.76699
0.76699
0.76699
0.76699
0.76699
0.76699
0.76699
0.766989
0.766983
0.766949
0.766881
0.766881
0.766912
0.766904
0.766878
0.766871
0.766883
0.766915
0.766955
0.766981
0.766989
0.76699
0.76699
0.76699
0.76699
0.76699
0.76699
0.766989
0.76699
0.76698
0.766987
0.766898
0.766957
0.766749
0.766864
0.766534
0.766635
0.766466
0.766556
0.766319
0.766419
0.766133
0.766223
0.765794
0.765832
0.765857
0.765576
0.765583
0.765636
0.765605
0.765662
0.765622
0.765593
0.765578
0.765756
0.765677
0.765607
0.765547
0.765962
0.765868
0.765772
0.765678
0.766109
0.766026
0.766006
0.765925
0.766233
0.766232
0.766107
0.766189
0.766166
0.765983
0.766132
0.766227
0.765928
0.765534
0.765513
0.765651
0.765865
0.765793
0.765593
0.765568
0.765603
0.765497
0.765486
0.765909
0.766915
0.766447
0.76564
0.765701
0.76699
0.76699
0.76699
0.76699
0.76699
0.76699
0.76699
0.76699
0.76699
0.76699
0.76699
0.76699
0.766987
0.766969
0.766907
0.766879
0.766894
0.766899
0.766869
0.766848
0.76685
0.766873
0.766913
0.766959
0.766984
0.766989
0.76699
0.76699
0.76699
0.76699
0.76699
0.76699
0.76699
0.76699
0.766986
0.766989
0.766944
0.766976
0.76686
0.766934
0.766653
0.766758
0.766524
0.766632
0.766233
0.766369
0.76597
0.766096
0.765676
0.765726
0.76571
0.765769
0.765462
0.765491
0.765573
0.76553
0.7655
0.765468
0.765451
0.76545
0.765591
0.765515
0.765451
0.765402
0.765818
0.765711
0.76561
0.765518
0.765993
0.765892
0.765865
0.765773
0.766233
0.766197
0.76599
0.766113
0.766216
0.766082
0.766193
0.766231
0.766022
0.765541
0.765496
0.765716
0.765948
0.765865
0.765637
0.76549
0.765523
0.765464
0.76544
0.765933
0.766935
0.766465
0.765575
0.765663
0.76699
0.76699
0.76699
0.76699
0.76699
0.76699
0.76699
0.76699
0.76699
0.76699
0.76699
0.766988
0.76698
0.766941
0.766884
0.766883
0.76689
0.766868
0.766835
0.766823
0.766834
0.766868
0.766915
0.766967
0.766987
0.76699
0.76699
0.76699
0.76699
0.76699
0.76699
0.76699
0.76699
0.76699
0.76699
0.766987
0.766989
0.76697
0.766983
0.766908
0.766955
0.766738
0.766833
0.766504
0.76663
0.766077
0.766219
0.765815
0.76588
0.765946
0.765618
0.765664
0.765707
0.765753
0.76542
0.765469
0.76557
0.765519
0.765369
0.765355
0.765357
0.76538
0.765439
0.765375
0.765328
0.765297
0.765657
0.76555
0.765456
0.765377
0.76585
0.765735
0.765707
0.76561
0.766207
0.766131
0.765854
0.766005
0.766223
0.766149
0.766206
0.766218
0.766081
0.765556
0.765486
0.765773
0.766
0.765906
0.765672
0.765427
0.765448
0.765435
0.765399
0.765912
0.766898
0.76639
0.76551
0.765609
0.76699
0.76699
0.76699
0.76699
0.76699
0.76699
0.76699
0.76699
0.76699
0.76699
0.766989
0.766986
0.766965
0.766903
0.766882
0.766881
0.766869
0.766833
0.766806
0.766803
0.766826
0.766868
0.766926
0.766975
0.766989
0.76699
0.76699
0.76699
0.76699
0.76699
0.76699
0.76699
0.76699
0.76699
0.76699
0.766988
0.766989
0.766976
0.766984
0.766911
0.766955
0.766743
0.766838
0.766368
0.766515
0.766017
0.766078
0.76617
0.7658
0.765853
0.765965
0.765916
0.765618
0.765663
0.765757
0.765792
0.765418
0.765485
0.765622
0.765557
0.765285
0.765288
0.765314
0.76536
0.765316
0.76527
0.76524
0.765228
0.765498
0.765402
0.765323
0.765263
0.765695
0.765571
0.765545
0.765453
0.76616
0.766046
0.76572
0.765893
0.766214
0.766167
0.766194
0.766184
0.766098
0.765567
0.765476
0.765797
0.766009
0.765905
0.765679
0.765372
0.765378
0.765403
0.765354
0.76584
0.766428
0.765982
0.76544
0.765521
0.76699
0.76699
0.76699
0.76699
0.76699
0.76699
0.76699
0.76699
0.76699
0.76699
0.766987
0.766978
0.766937
0.766886
0.766878
0.76687
0.766836
0.766802
0.766782
0.76679
0.766823
0.766876
0.766942
0.766983
0.76699
0.76699
0.76699
0.76699
0.76699
0.76699
0.76699
0.76699
0.76699
0.76699
0.76699
0.76699
0.766988
0.766989
0.766976
0.766984
0.766874
0.766942
0.766651
0.766772
0.766307
0.766453
0.766048
0.766098
0.766216
0.76627
0.765828
0.765869
0.766004
0.765966
0.765676
0.76572
0.765857
0.76588
0.765443
0.765537
0.765717
0.765634
0.765231
0.765257
0.765302
0.765363
0.765218
0.765188
0.765177
0.76518
0.765353
0.765275
0.765216
0.765172
0.765551
0.765416
0.765401
0.765311
0.766093
0.765952
0.765592
0.765777
0.76619
0.766153
0.766164
0.76613
0.766085
0.765561
0.765454
0.76579
0.765995
0.765883
0.765664
0.76532
0.765317
0.76536
0.765304
0.765611
0.765814
0.765623
0.76537
0.765435
0.76699
0.76699
0.76699
0.76699
0.76699
0.76699
0.76699
0.76699
0.76699
0.766989
0.766985
0.766963
0.766905
0.76688
0.76687
0.766843
0.766803
0.766774
0.766765
0.766785
0.766827
0.766891
0.76696
0.766987
0.76699
0.76699
0.76699
0.76699
0.76699
0.76699
0.76699
0.76699
0.76699
0.76699
0.76699
0.76699
0.766988
0.766989
0.766972
0.766984
0.766859
0.766939
0.766597
0.766735
0.766324
0.76639
0.766504
0.766128
0.766169
0.766321
0.76636
0.765904
0.765932
0.766093
0.766065
0.765782
0.765826
0.765988
0.766006
0.76548
0.765593
0.765823
0.765713
0.765206
0.765247
0.765305
0.765383
0.765143
0.765135
0.765139
0.765162
0.765231
0.765173
0.765132
0.765106
0.765421
0.765282
0.765281
0.765195
0.76601
0.765844
0.765466
0.765655
0.766132
0.766111
0.766103
0.76604
0.766041
0.765533
0.765404
0.765752
0.765936
0.765799
0.765607
0.765269
0.765264
0.765307
0.765254
0.765476
0.765736
0.76546
0.765299
0.765352
0.76699
0.76699
0.76699
0.76699
0.76699
0.76699
0.76699
0.76699
0.76699
0.766987
0.766977
0.766937
0.766887
0.766872
0.766852
0.76681
0.766774
0.766752
0.766755
0.766784
0.766839
0.766913
0.766977
0.766989
0.76699
0.76699
0.76699
0.76699
0.76699
0.76699
0.76699
0.76699
0.76699
0.76699
0.76699
0.76699
0.766988
0.766989
0.766971
0.766984
0.766881
0.766948
0.766637
0.766765
0.766404
0.766451
0.766671
0.766615
0.766256
0.766286
0.76647
0.766498
0.766022
0.766042
0.766231
0.766211
0.765908
0.765958
0.766136
0.766158
0.765528
0.765657
0.765921
0.765793
0.765199
0.765251
0.765324
0.765415
0.7651
0.765104
0.765124
0.765157
0.765134
0.765097
0.765077
0.765072
0.765302
0.765177
0.765176
0.765109
0.765898
0.76572
0.765341
0.765526
0.766046
0.766048
0.766021
0.765939
0.765949
0.765462
0.765338
0.765641
0.765809
0.765647
0.765496
0.765224
0.765215
0.765255
0.765209
0.765365
0.765934
0.765457
0.765237
0.765282
0.76699
0.76699
0.76699
0.76699
0.76699
0.76699
0.76699
0.76699
0.766988
0.766985
0.766963
0.76691
0.766876
0.766858
0.766824
0.76678
0.76675
0.766736
0.766751
0.766792
0.766859
0.76694
0.766985
0.76699
0.76699
0.76699
0.76699
0.76699
0.76699
0.76699
0.76699
0.76699
0.76699
0.76699
0.76699
0.76699
0.76699
0.766988
0.766989
0.766975
0.766985
0.766931
0.766966
0.766772
0.766858
0.766532
0.766571
0.766745
0.766719
0.766423
0.766445
0.766636
0.766654
0.766176
0.766194
0.766403
0.766385
0.766026
0.766096
0.766275
0.766314
0.765582
0.765724
0.766018
0.765875
0.765203
0.765267
0.765352
0.765456
0.765076
0.765092
0.76512
0.765161
0.765067
0.765052
0.765048
0.76505
0.765188
0.76509
0.76508
0.765047
0.765788
0.765601
0.765198
0.765395
0.765948
0.765933
0.765874
0.765818
0.765797
0.765377
0.765276
0.765505
0.765639
0.765495
0.765393
0.765183
0.765175
0.765207
0.765168
0.765322
0.766271
0.765591
0.765183
0.76523
0.76699
0.76699
0.76699
0.76699
0.76699
0.76699
0.76699
0.766989
0.766987
0.766978
0.766942
0.766889
0.766864
0.766838
0.766794
0.766754
0.76673
0.766727
0.766753
0.766808
0.766887
0.766968
0.766988
0.76699
0.76699
0.76699
0.76699
0.76699
0.76699
0.76699
0.76699
0.76699
0.76699
0.76699
0.76699
0.76699
0.76699
0.766988
0.766989
0.76698
0.766986
0.766969
0.766981
0.766874
0.766906
0.766947
0.766674
0.766696
0.766855
0.766838
0.766599
0.766619
0.766784
0.766799
0.766343
0.766366
0.766577
0.766552
0.766136
0.766219
0.766397
0.766448
0.765635
0.765791
0.766112
0.765956
0.765216
0.765289
0.765382
0.765497
0.765063
0.765088
0.765124
0.765171
0.765029
0.765024
0.765026
0.765039
0.765071
0.76503
0.765012
0.76501
0.765633
0.765409
0.765055
0.765186
0.765754
0.765742
0.765629
0.765574
0.76559
0.765301
0.765221
0.765391
0.765468
0.765371
0.765306
0.765149
0.765139
0.765169
0.765133
0.765346
0.766861
0.766091
0.765148
0.765227
0.76699
0.76699
0.76699
0.76699
0.76699
0.76699
0.76699
0.766988
0.766985
0.766966
0.766919
0.766875
0.766848
0.766813
0.766766
0.766732
0.766716
0.766725
0.766764
0.766833
0.766922
0.766982
0.76699
0.76699
0.76699
0.76699
0.76699
0.76699
0.76699
0.76699
0.76699
0.76699
0.76699
0.76699
0.76699
0.76699
0.76699
0.766989
0.76699
0.766986
0.766988
0.766981
0.766986
0.766922
0.766935
0.766975
0.766964
0.766812
0.766824
0.766908
0.766893
0.766741
0.766764
0.766839
0.766852
0.76649
0.766524
0.766716
0.766686
0.766241
0.766332
0.766505
0.766561
0.765673
0.765841
0.7662
0.766022
0.765233
0.765311
0.76541
0.765528
0.765061
0.765092
0.765133
0.765184
0.765005
0.765005
0.765018
0.76504
0.765013
0.764996
0.764996
0.76499
0.765363
0.765168
0.765026
0.765065
0.765472
0.76549
0.765372
0.765311
0.765398
0.765241
0.765188
0.765319
0.765353
0.765316
0.765269
0.765117
0.765115
0.765134
0.765105
0.76546
0.766967
0.766596
0.765139
0.765243
0.76699
0.76699
0.76699
0.76699
0.76699
0.76699
0.766989
0.766987
0.766979
0.766948
0.766899
0.76686
0.766828
0.766786
0.766741
0.766715
0.766708
0.76673
0.766784
0.766867
0.766958
0.766988
0.76699
0.76699
0.76699
0.76699
0.76699
0.76699
0.76699
0.76699
0.76699
0.76699
0.76699
0.76699
0.76699
0.76699
0.76699
0.76699
0.76699
0.76699
0.766988
0.766989
0.766976
0.766981
0.766985
0.766987
0.766934
0.76695
0.766965
0.766866
0.766879
0.766916
0.766896
0.766808
0.766824
0.766837
0.766849
0.76661
0.766652
0.766789
0.766767
0.76634
0.766436
0.766596
0.766649
0.765682
0.765856
0.766247
0.766048
0.765248
0.765326
0.765423
0.76554
0.765067
0.765102
0.765144
0.765195
0.764989
0.765
0.765022
0.765048
0.765005
0.764978
0.764978
0.764978
0.765166
0.765098
0.765037
0.765069
0.765271
0.765332
0.765266
0.765191
0.765311
0.765218
0.765154
0.765271
0.765296
0.765269
0.765236
0.765101
0.765106
0.765111
0.765095
0.765733
0.766985
0.766777
0.765141
0.765306
0.76699
0.76699
0.76699
0.76699
0.76699
0.76699
0.766988
0.766985
0.766969
0.766929
0.766881
0.766843
0.766806
0.76676
0.766721
0.766703
0.766707
0.766744
0.766814
0.766908
0.76698
0.766989
0.76699
0.76699
0.76699
0.76699
0.76699
0.76699
0.76699
0.76699
0.76699
0.76699
0.76699
0.76699
0.76699
0.76699
0.76699
0.76699
0.76699
0.76699
0.766989
0.766989
0.76697
0.766974
0.766983
0.766988
0.766985
0.766917
0.766945
0.766947
0.766862
0.766878
0.766883
0.766847
0.766815
0.766825
0.766772
0.766782
0.766697
0.766737
0.766801
0.766785
0.766417
0.766534
0.766658
0.766698
0.765674
0.765853
0.766255
0.766047
0.765257
0.765331
0.765424
0.765539
0.765076
0.76511
0.765149
0.765197
0.764986
0.765011
0.765034
0.765062
0.764944
0.764974
0.764942
0.764962
0.765158
0.765113
0.764955
0.764967
0.765239
0.765295
0.765254
0.7652
0.765285
0.765191
0.76514
0.765246
0.765269
0.765241
0.765208
0.76509
0.765099
0.765098
0.765072
0.765906
0.766989
0.766921
0.765151
0.765416
0.76699
0.76699
0.76699
0.76699
0.76699
0.766989
0.766987
0.766981
0.766955
0.76691
0.766864
0.766825
0.766783
0.766737
0.766706
0.766696
0.766714
0.766768
0.766853
0.766952
0.766987
0.76699
0.76699
0.76699