/*--------------------------------*- C++ -*----------------------------------*\
  =========                 |
  \\      /  F ield         | OpenFOAM: The Open Source CFD Toolbox
   \\    /   O peration     | Website:  https://openfoam.org
    \\  /    A nd           | Version:  dev
     \\/     M anipulation  |
\*---------------------------------------------------------------------------*/
FoamFile
{
    version     2.0;
    format      ascii;
    class       volScalarField;
    location    "2500";
    object      nut;
}
// * * * * * * * * * * * * * * * * * * * * * * * * * * * * * * * * * * * * * //

dimensions      [0 2 -1 0 0 0 0];

internalField   nonuniform List<scalar> 
9846
(
0.000122548
0.000126769
0.000119284
0.000119536
0.000146556
0.000108421
0.000111694
0.000156303
0.000138119
0.000104053
0.000108264
0.000154298
0.000157597
0.00012021
0.000102144
0.000105313
0.000144922
0.000170901
0.000145767
0.000110384
0.000101652
0.000104042
0.000131879
0.000173218
0.00016589
0.000126235
0.000105689
0.000101372
0.00010338
0.000122479
0.000170178
0.000178194
0.000148489
0.000114037
0.000103771
0.000100893
0.000102861
0.000115085
0.000159414
0.000186298
0.000169491
0.000129433
0.000108024
0.000102989
0.000100402
0.00010232
0.000110342
0.000143305
0.000186548
0.000183481
0.000148583
0.000116801
0.000105151
0.000102284
0.00010016
0.000101839
0.000107437
0.000131196
0.000182036
0.000193131
0.000169481
0.000130519
0.000109871
0.00010392
0.000101409
0.000100075
0.000101465
0.000105958
0.000122046
0.000169237
0.000198896
0.000186384
0.000147042
0.000118838
0.000106281
0.000103099
0.000100674
0.000100051
0.0001012
0.000105181
0.000115861
0.000152118
0.00019787
0.000197243
0.000167125
0.000129925
0.00011172
0.000104547
0.000102172
0.000100221
0.000100035
0.000101041
0.000104706
0.000111997
0.000138284
0.000191944
0.000205385
0.000185964
0.000145113
0.000119384
0.000107386
0.000103558
0.000101172
9.99991e-05
0.000100012
0.000100972
0.000104375
0.00010965
0.000128158
0.000177767
0.000209692
0.000200164
0.000163014
0.000129125
0.000112853
0.000105076
0.00010263
0.000100413
9.98996e-05
9.99764e-05
0.000100945
0.000104073
0.000108196
0.000121072
0.000159511
0.000208077
0.000208839
0.000182853
0.00014238
0.000119527
0.000108409
0.000103816
0.000101595
9.99529e-05
9.98562e-05
9.99432e-05
0.00010096
0.000103764
0.000107352
0.000116454
0.00014481
0.000201383
0.000217041
0.000199663
0.000159027
0.000128108
0.000113464
0.000105529
0.000102854
0.000100642
9.97093e-05
9.98126e-05
9.99315e-05
0.000101011
0.000103537
0.000106833
0.000113572
0.000134182
0.000186363
0.000220339
0.000212558
0.000177444
0.0001395
0.000119427
0.000109121
0.000103983
0.000101876
9.99661e-05
9.9619e-05
9.97486e-05
9.99352e-05
0.000101057
0.00010341
0.00010649
0.000111784
0.000126528
0.000167491
0.000218303
0.000220176
0.00019643
0.000154507
0.000126756
0.000113766
0.000106002
0.000102944
0.000100875
9.95748e-05
9.95768e-05
9.97004e-05
9.99368e-05
0.0001011
0.000103384
0.000106273
0.000110636
0.000121457
0.000152139
0.00021135
0.000228203
0.000211811
0.000171613
0.000136897
0.000119063
0.000109646
0.000104114
0.000102012
0.000100055
9.93996e-05
9.95287e-05
9.9693e-05
9.9932e-05
0.000101137
0.000103424
0.000106078
0.00010989
0.000118147
0.00014123
0.000196311
0.000231383
0.000223975
0.000189764
0.000149677
0.000125655
0.000113933
0.000106548
0.000102951
0.000101097
9.95289e-05
9.93554e-05
9.9497e-05
9.97163e-05
9.99281e-05
0.000101146
0.000103495
0.000105869
0.000109406
0.000115898
0.000133057
0.000177222
0.00022917
0.000231336
0.000208146
0.0001654
0.000134254
0.000118672
0.000110034
0.00010434
0.000102056
0.000100284
9.92686e-05
9.93758e-05
9.95068e-05
9.97477e-05
9.9929e-05
0.000101138
0.000103535
0.000105735
0.000109097
0.000114377
0.000127276
0.000161128
0.000223066
0.000239346
0.000222893
0.000182786
0.000145459
0.00012465
0.000113905
0.00010706
0.000102978
0.000101302
9.96993e-05
9.92177e-05
9.94435e-05
9.95564e-05
9.97796e-05
9.99354e-05
0.000101132
0.000103514
0.00010563
0.000108915
0.00011342
0.000123266
0.000149599
0.00020927
0.000244092
0.000235132
0.000200204
0.000159271
0.000132079
0.000118385
0.000110399
0.000104806
0.000102089
0.00010068
9.93864e-05
9.93046e-05
9.95673e-05
9.96424e-05
9.98057e-05
9.99465e-05
0.000101131
0.000103444
0.000105542
0.000108731
0.000112742
0.000120532
0.000140571
0.00019014
0.00024182
0.000243353
0.000218473
0.000175072
0.000141722
0.000123813
0.000114026
0.000107679
0.000103255
0.000101472
0.000100247
9.93355e-05
9.94988e-05
9.97505e-05
9.97707e-05
9.9827e-05
9.99536e-05
0.000101126
0.000103336
0.000105472
0.000108449
0.000112155
0.000118568
0.000134024
0.000172353
0.000237464
0.000251039
0.000233856
0.000192679
0.000153674
0.000130531
0.000118457
0.000110912
0.000105639
0.000102316
0.000101087
0.000100087
9.95002e-05
9.97684e-05
9.99842e-05
9.99396e-05
9.98681e-05
9.99626e-05
0.000101106
0.000103193
0.000105394
0.000108083
0.000111542
0.000117199
0.000129256
0.000159925
0.00022655
0.000258662
0.000246466
0.000209959
0.000168118
0.000139038
0.000123591
0.000114672
0.000108601
0.00010418
0.00010178
0.000100956
0.000100215
9.98773e-05
0.000100108
0.000100244
0.000100106
9.99004e-05
9.99482e-05
0.000101084
0.000103006
0.000105261
0.000107721
0.000110986
0.000116241
0.000125842
0.000150326
0.000208546
0.000258744
0.000257065
0.000228015
0.00018414
0.00014939
0.000130038
0.00011903
0.000111942
0.000106929
0.000103195
0.000101583
0.000101093
0.000100652
0.000100471
0.000100567
0.000100547
0.00010027
9.99332e-05
9.99215e-05
0.000101054
0.000102772
0.000105039
0.000107335
0.000110522
0.000115343
0.000123435
0.000142713
0.000189326
0.000254857
0.000264738
0.000245146
0.000201711
0.000162163
0.000137414
0.000124339
0.000115923
0.000110062
0.000105791
0.000102759
0.000101695
0.000101523
0.000101393
0.000101308
0.000101255
0.000101023
0.000100541
9.99883e-05
9.98723e-05
0.000100993
0.000102526
0.000104758
0.000106884
0.000110061
0.000114388
0.000121548
0.00013719
0.000174178
0.000248535
0.000274149
0.000258967
0.000219644
0.000176769
0.00014698
0.000130341
0.000120659
0.000113798
0.00010891
0.000105233
0.000102794
0.00010213
0.00010222
0.000102338
0.00010234
0.000102157
0.000101706
0.000100937
0.000100086
9.98087e-05
0.000100909
0.000102252
0.000104468
0.000106398
0.000109546
0.000113461
0.000120118
0.000133018
0.00016407
0.000234594
0.000280264
0.000271558
0.000237469
0.000193334
0.000157942
0.000137878
0.000126183
0.00011834
0.00011261
0.000108469
0.000105226
0.000103287
0.000102899
0.0001031
0.000103316
0.000103306
0.000102979
0.000102368
0.000101394
0.000100258
9.97387e-05
0.00010082
0.000101967
0.000104144
0.000105915
0.000108924
0.000112577
0.000118989
0.000129862
0.000155639
0.000215279
0.000278154
0.000281678
0.000256096
0.000210678
0.000171345
0.000146564
0.000132831
0.000123831
0.000117288
0.000112294
0.000108653
0.000105824
0.000104306
0.000104006
0.00010415
0.000104322
0.000104198
0.000103668
0.000102858
0.000101808
0.000100509
9.97066e-05
0.000100719
0.000101704
0.000103768
0.000105429
0.000108184
0.000111678
0.00011771
0.000127394
0.000148763
0.000196653
0.000273537
0.000291335
0.00027294
0.000229217
0.00018626
0.000156957
0.000140605
0.000130519
0.000123109
0.000117289
0.000112791
0.000109587
0.000107142
0.000105942
0.00010554
0.000105541
0.000105599
0.000105302
0.000104481
0.000103305
0.000102101
0.000100774
9.97202e-05
0.000100598
0.000101429
0.000103338
0.000104911
0.000107385
0.000110804
0.000116283
0.000125379
0.000143534
0.000182506
0.000266657
0.000302261
0.000287134
0.000247583
0.000202895
0.000169083
0.000149656
0.000138439
0.000130229
0.000123814
0.00011844
0.000114418
0.000110975
0.000108978
0.000107999
0.000107611
0.000107476
0.000107224
0.000106605
0.000105438
0.000103745
0.000102253
0.000100915
9.99192e-05
9.9813e-05
0.000100471
0.000101132
0.000102888
0.000104394
0.000106597
0.000109972
0.000115026
0.000123995
0.000139484
0.000173376
0.000251431
0.000308207
0.000301403
0.000266715
0.00022073
0.0001827
0.000160326
0.000147809
0.000139092
0.000132194
0.000126175
0.000120481
0.000116546
0.000113376
0.000111498
0.000110454
0.000109946
0.000109624
0.000109089
0.000108145
0.000106518
0.000104351
0.000102359
0.000100254
0.000100894
9.99372e-05
9.98543e-05
0.000100341
0.000100832
0.000102424
0.000103884
0.000105835
0.000109129
0.000113812
0.000122484
0.000136246
0.000165687
0.000231245
0.00030549
0.000313746
0.000287294
0.000239507
0.000198518
0.000172291
0.000158734
0.000150199
0.000143185
0.000136277
0.000129712
0.000123486
0.000118511
0.000114986
0.000112837
0.000111789
0.000111276
0.000110885
0.000110393
0.000109567
0.000107638
0.00010432
0.000106872
0.00010159
0.000104832
0.000103461
0.000100297
0.000100854
9.9964e-05
9.99322e-05
0.000100207
0.000100549
0.000101996
0.000103358
0.000105051
0.000108249
0.000112593
0.000120765
0.000133698
0.000158781
0.000211662
0.000300264
0.000326124
0.000305751
0.000259525
0.000215102
0.000185815
0.000171088
0.000163655
0.00015838
0.000151157
0.000144198
0.000136785
0.000130508
0.00012535
0.000120745
0.000116296
0.000112985
0.000110819
0.000109447
0.000109139
0.000108668
0.000108552
9.94927e-05
0.000107211
0.000101614
0.000105536
0.000103529
0.000100402
0.000100852
0.000100011
0.000100071
0.000100081
0.000100299
0.000101648
0.000102798
0.000104193
0.00010734
0.000111358
0.000119037
0.000131475
0.000153359
0.000196318
0.000292842
0.000338354
0.000322673
0.000279395
0.000233261
0.000200215
0.000184305
0.000179141
0.0001783
0.000177821
0.000173881
0.000177334
0.000178459
0.00017719
0.000169612
0.000155584
0.000141291
0.000130156
0.000121534
0.000113402
0.000105568
9.52414e-05
0.000103602
9.37826e-05
9.1299e-05
9.52863e-05
0.00010163
9.29825e-05
9.05393e-05
0.000100557
0.000100895
0.000100084
0.000100287
9.99692e-05
0.000100105
0.000101357
0.000102207
0.000103303
0.000106484
0.000110164
0.000117384
0.000129297
0.000149355
0.000186126
0.000275935
0.000343506
0.000339044
0.000301562
0.000251918
0.000215394
0.000198538
0.000195787
0.00020177
0.000216481
0.000244675
0.000272218
0.000311494
0.000337181
0.000342249
0.000320521
0.00028196
0.000238001
0.000189013
0.000152772
0.000126801
9.48673e-05
9.25376e-05
9.25572e-05
9.33626e-05
8.76615e-05
8.78579e-05
8.54532e-05
8.88308e-05
8.08401e-05
7.68155e-05
0.000100743
8.7969e-05
0.000100181
9.15995e-05
9.98718e-05
9.9971e-05
0.000101093
0.000101594
0.000102398
0.000105696
0.000109098
0.000115905
0.000127317
0.000146496
0.000178785
0.00025315
0.000339094
0.000353159
0.000324833
0.000272341
0.000231832
0.000212796
0.000213324
0.000227581
0.00026115
0.000314672
0.000395232
0.00045974
0.000477965
0.000471627
0.000453883
0.000426099
0.000396147
0.000363294
0.000316954
0.00026317
0.000139594
0.000232292
8.82559e-05
0.000126492
9.38938e-05
8.80597e-05
8.26463e-05
9.23028e-05
7.7331e-05
7.35466e-05
7.20533e-05
6.66866e-05
8.32705e-05
7.14299e-05
8.49374e-05
7.42261e-05
9.9801e-05
9.99046e-05
0.000100861
0.000101105
0.000101594
0.000104915
0.000108145
0.000114597
0.000125712
0.000143703
0.000172826
0.000231572
0.00033314
0.00036721
0.000345299
0.000293721
0.000248859
0.000227357
0.00022997
0.000252523
0.00030403
0.000392322
0.000491957
0.000528749
0.000534617
0.000524688
0.000499512
0.000472713
0.000445563
0.000421139
0.000401593
0.000384442
0.000299146
0.000365099
0.000215461
0.000292362
0.000116795
0.000205868
8.86242e-05
0.000108219
8.05274e-05
8.92947e-05
7.17011e-05
6.25538e-05
6.44301e-05
5.84735e-05
6.79863e-05
5.98376e-05
7.03407e-05
6.20779e-05
9.97836e-05
9.99153e-05
0.00010067
0.000100713
0.000100929
0.00010416
0.000107297
0.000113422
0.000124632
0.000140906
0.000168368
0.000213576
0.000322408
0.000378321
0.000364467
0.000316082
0.000267098
0.000241596
0.000244723
0.000274637
0.000338726
0.000455588
0.000537874
0.00056095
0.000547806
0.000522755
0.000488439
0.000459275
0.000435207
0.000416687
0.000406247
0.000403143
0.000394657
0.000412706
0.000353872
0.000394779
0.000285959
0.000349074
0.00019481
0.000279878
0.000101099
0.000180654
8.90145e-05
9.52442e-05
7.80322e-05
5.41292e-05
6.35107e-05
5.33907e-05
5.73449e-05
5.16556e-05
6.09137e-05
5.39716e-05
9.98571e-05
0.000100019
0.000100505
0.000100251
0.000100377
0.000103522
0.000106584
0.000112395
0.000123809
0.000138297
0.000165155
0.000202137
0.00029999
0.000378379
0.0003803
0.000341602
0.000286484
0.000255193
0.000257036
0.000291866
0.000371236
0.000499369
0.000559345
0.000562848
0.000540848
0.000502998
0.000448797
0.000414423
0.000401879
0.000399191
0.000400519
0.000400485
0.000414548
0.000411847
0.000415351
0.000418353
0.000393268
0.000418686
0.000346305
0.000392966
0.000272042
0.000342713
0.00016335
0.000260985
9.04214e-05
0.000141519
8.8208e-05
4.75102e-05
7.83553e-05
5.78603e-05
5.02648e-05
4.54289e-05
5.56359e-05
4.92167e-05
0.000100085
0.000100249
0.000100387
9.97727e-05
0.000100017
0.000103053
0.000106039
0.000111646
0.000123055
0.000136049
0.000162286
0.000194504
0.000274808
0.000372696
0.000393937
0.00036613
0.000307804
0.000269791
0.000266325
0.000302396
0.000394057
0.000523578
0.00056619
0.000557659
0.000508305
0.000436433
0.000382585
0.000368604
0.000374737
0.000381374
0.000379851
0.000382288
0.000401407
0.000391995
0.000418643
0.000409158
0.000426401
0.000425104
0.000420919
0.000432864
0.000392263
0.000422284
0.000336867
0.000389721
0.00024573
0.00032764
0.000117495
0.0002221
0.000101844
4.55717e-05
9.14187e-05
7.92842e-05
4.5897e-05
4.12056e-05
5.44229e-05
4.79325e-05
0.000100545
0.000100637
0.000100408
9.94682e-05
9.99102e-05
0.00010277
0.000105629
0.00011118
0.000122498
0.000134381
0.000158879
0.000188676
0.000252451
0.000364357
0.000406874
0.000386909
0.000329814
0.000284201
0.000274877
0.000304147
0.000400358
0.000537293
0.000568024
0.000537381
0.000454646
0.000357591
0.000311462
0.000310099
0.000326945
0.00034704
0.000358516
0.000367984
0.00038742
0.000380812
0.000400447
0.000394515
0.000419046
0.000410589
0.000432772
0.000427224
0.000436105
0.000438233
0.00042203
0.000437643
0.000384553
0.00041979
0.000313314
0.000376929
0.000188972
0.000292264
0.000150239
5.5554e-05
0.000117615
9.88927e-05
4.32359e-05
4.25933e-05
5.96532e-05
5.09211e-05
0.000101826
0.000101339
0.000100743
9.95116e-05
0.000100081
0.00010267
0.000105353
0.000110923
0.000122141
0.0001334
0.000155312
0.000184919
0.000233576
0.000344522
0.000411
0.000404566
0.000354574
0.000300539
0.000282066
0.000305425
0.000399284
0.000540084
0.000567545
0.000512146
0.00040085
0.000293081
0.000251447
0.000251173
0.000264541
0.000283064
0.00031369
0.000347496
0.00037322
0.000389493
0.000383987
0.000403311
0.00039703
0.000420276
0.000413229
0.000434925
0.000430671
0.000442827
0.000444419
0.000438894
0.000449477
0.000416407
0.000441304
0.000364912
0.000413573
0.000265425
0.000349549
0.000226551
8.75234e-05
0.000179468
0.000133501
4.23556e-05
5.93464e-05
8.42155e-05
5.5394e-05
0.000104899
0.000103325
0.000101649
0.000100061
0.000100522
0.000102762
0.000105268
0.000110866
0.000122024
0.000133007
0.000152109
0.000181557
0.000218962
0.000318915
0.000406821
0.000416062
0.000380855
0.000318854
0.000290398
0.000305953
0.000393286
0.000540627
0.000567884
0.000494166
0.000358897
0.000255429
0.000211392
0.000208983
0.000221909
0.000238956
0.000260984
0.000294213
0.00034868
0.00038738
0.000383807
0.000392845
0.000390556
0.000408145
0.000406022
0.000428163
0.000427696
0.000446948
0.000451028
0.000458843
0.000469898
0.000460454
0.000477927
0.000446424
0.000474228
0.000408821
0.000454224
0.000328818
0.000402457
0.000301966
0.000105147
0.000261237
0.000205317
4.32746e-05
8.59283e-05
9.95225e-05
4.85427e-05
0.000112032
0.000109851
0.000104081
0.000101478
0.000101282
0.000103068
0.000105403
0.000111098
0.00012221
0.000133023
0.000149631
0.000178226
0.000209577
0.000294907
0.000399572
0.000427613
0.0004035
0.000339275
0.000299453
0.00030354
0.000376937
0.000537048
0.000570123
0.000489651
0.000334988
0.00023767
0.000195652
0.000184741
0.000196229
0.000212593
0.000230506
0.000264768
0.000315848
0.000378158
0.00036916
0.000402158
0.000399794
0.000405307
0.000403194
0.00042861
0.000430489
0.000456962
0.000463188
0.00048243
0.000495297
0.000499298
0.000520354
0.000502819
0.000528677
0.000491764
0.000524971
0.000460313
0.00050851
0.000392836
0.00046409
0.000376408
0.000146415
0.000348435
0.00029948
5.65563e-05
0.000105097
4.1112e-05
3.15366e-05
0.000127329
0.000126366
0.000110106
0.000103819
0.000102429
0.000103604
0.000105774
0.000111671
0.000122731
0.000133284
0.00014795
0.00017501
0.000202717
0.000272184
0.000382005
0.000432701
0.000420752
0.000361859
0.000309165
0.000302741
0.000356176
0.000525102
0.000572762
0.000491712
0.000328195
0.000233029
0.000195104
0.000178959
0.000177986
0.000202004
0.000229895
0.000266319
0.000315392
0.000363949
0.000353879
0.000396427
0.000396041
0.000432672
0.000434187
0.000431741
0.000432165
0.000468919
0.000474347
0.000508265
0.000518937
0.000537414
0.000550848
0.000546272
0.000556577
0.000543283
0.000551402
0.000536807
0.000545655
0.000519739
0.000539496
0.000463327
0.000524983
0.000454812
0.000227961
0.000433679
0.000395023
7.75199e-05
0.000149663
2.36823e-05
2.54033e-05
0.000131224
0.000147556
0.000126859
0.000108757
0.000103911
0.000104494
0.000106439
0.000112732
0.000123803
0.000133766
0.000146931
0.000171968
0.000197605
0.000253282
0.00035793
0.000430901
0.0004318
0.000386738
0.000322727
0.00030444
0.000335434
0.000494552
0.00057743
0.000498536
0.000330591
0.000235777
0.000198404
0.000184865
0.000172652
0.000190324
0.000229374
0.000278322
0.000327559
0.000395548
0.000397525
0.000408391
0.0004363
0.000440396
0.000485052
0.000490475
0.000477518
0.000480701
0.000528594
0.000535594
0.000559715
0.000565513
0.000563426
0.000568084
0.000555235
0.000557449
0.000546975
0.000545785
0.00054173
0.000537296
0.000540943
0.000536138
0.000524775
0.000540393
0.000518425
0.000329492
0.000502586
0.000472854
9.7205e-05
0.000229991
6.96496e-06
3.87587e-05
0.000145424
0.000148441
0.000122581
0.000106533
0.000105824
0.000107608
0.00011455
0.000125189
0.000134311
0.000146271
0.000169178
0.000194046
0.000238751
0.000334589
0.000424566
0.000438868
0.000410463
0.000341194
0.000308624
0.000318211
0.000449055
0.000579026
0.000514724
0.000340055
0.000245628
0.000208199
0.000191633
0.000182652
0.000169499
0.000220675
0.000279048
0.000345871
0.000421625
0.000477851
0.000497469
0.000448859
0.000463474
0.000497363
0.000509496
0.000553586
0.000559765
0.000542048
0.000547436
0.000571935
0.000575923
0.000573349
0.000577439
0.000561367
0.000563169
0.00054407
0.000540939
0.000531821
0.000523983
0.000526003
0.000512875
0.000529655
0.000512923
0.000539413
0.000523941
0.000537108
0.000423657
0.000533335
0.000521725
0.000136249
0.000340394
4.19155e-06
5.33333e-05
0.000142965
0.000143191
0.000113393
0.000107929
0.000109194
0.000116945
0.000126622
0.000134781
0.00014558
0.000166626
0.000191136
0.000228042
0.000312313
0.000409224
0.000442221
0.000426978
0.000361873
0.000314109
0.000309638
0.000397674
0.000574772
0.00054543
0.000362459
0.000266537
0.000226446
0.000206003
0.000194584
0.000180196
0.000190803
0.000250092
0.000324871
0.000404142
0.000498342
0.000477761
0.000542293
0.00053605
0.000523103
0.000538819
0.000566523
0.000572775
0.00058498
0.000587948
0.000579223
0.000582159
0.000580496
0.000582595
0.000563168
0.000561614
0.000536222
0.000531612
0.000518463
0.000513995
0.000503361
0.000499623
0.000495903
0.000488247
0.000498607
0.000480009
0.000520691
0.00048672
0.000520376
0.000494594
0.000524133
0.000524925
0.000525734
0.000212416
0.000434099
4.93541e-06
9.03594e-05
0.000143501
0.000128209
0.000111288
0.000110853
0.000118777
0.000127754
0.000135184
0.000144942
0.000164171
0.000188344
0.00022033
0.000292498
0.000389206
0.000441135
0.000436769
0.000383913
0.000320806
0.000307489
0.000352865
0.000551445
0.000576598
0.000406085
0.000308054
0.000258321
0.000226966
0.000209708
0.000202041
0.000190333
0.000203215
0.00025615
0.000337339
0.000418092
0.000518958
0.000477948
0.000560802
0.000535891
0.00057422
0.000571208
0.000590084
0.00058887
0.000583816
0.000580287
0.000583923
0.000584487
0.000559478
0.000556411
0.000526458
0.000519537
0.000510049
0.000505917
0.00049926
0.000499743
0.000492518
0.000505184
0.000483111
0.00049706
0.000465877
0.000474023
0.000478754
0.000456704
0.000464593
0.000501653
0.000475974
0.000524474
0.000504414
0.000521737
0.000509851
0.000481768
0.00047786
0.000514162
0.00024474
0.000485045
0.000442414
0.000392468
1.73105e-05
0.000169475
0.000140339
0.000118144
0.000113604
0.000119767
0.000128551
0.000135371
0.000144335
0.000162
0.000185488
0.00021453
0.000275896
0.0003684
0.000436466
0.000441282
0.00040603
0.000328664
0.000304478
0.000322201
0.000482754
0.000592751
0.000462167
0.000358244
0.000311654
0.000269102
0.000237993
0.000219816
0.000211857
0.000200552
0.000216901
0.000255635
0.000273186
0.000326433
0.000232162
0.000487065
0.000408818
0.000519686
0.00045741
0.000580838
0.000560595
0.000570848
0.000551532
0.00053304
0.000514872
0.000551751
0.00054439
0.000510659
0.000499697
0.000500715
0.00049324
0.000498867
0.000495388
0.000517088
0.000522579
0.000518708
0.000530694
0.000469903
0.000493281
0.000450443
0.00045854
0.000453656
0.000396953
0.000454591
0.000451355
0.000455849
0.000444533
0.000451834
0.000454143
0.000517663
0.000510691
0.000488787
0.000458653
0.000455122
0.000495587
0.000373922
0.00024726
0.000333197
0.000462469
0.000415698
0.000150645
0.000256954
0.000207947
0.00018285
0.000131512
0.000118229
0.000120118
0.000128381
0.000135234
0.000143658
0.000160351
0.000182741
0.00020986
0.000262451
0.000348046
0.000425106
0.000441459
0.000422173
0.00034774
0.000302277
0.000305136
0.000410153
0.000591258
0.000525676
0.000412204
0.000379335
0.000357282
0.000294489
0.00025294
0.000229967
0.000222008
0.000212823
0.000215885
0.000200864
0.000163964
0.000205811
0.000165
0.000370576
0.00027594
0.000392469
0.000306976
0.00051812
0.000465106
0.000486583
0.000445543
0.000449875
0.000423174
0.000486492
0.000470428
0.000482947
0.000469564
0.000488474
0.000477557
0.000520416
0.000513854
0.00053698
0.000538281
0.000473421
0.000437872
0.00047035
0.000458324
0.000410123
0.000370308
0.000395208
0.000422475
0.000432615
0.000407874
0.000366896
0.000380965
0.000442457
0.00043915
0.000415733
0.000406054
0.000435477
0.000498051
0.000474978
0.000463795
0.000431224
0.000427872
0.00046838
0.000365713
0.000350263
0.000436292
0.000397376
0.000191825
0.000324987
0.000197137
0.000280348
0.000228821
0.000127815
0.000121865
0.00012764
0.000134321
0.000143227
0.000159172
0.000180612
0.000205944
0.000251757
0.000329339
0.000409516
0.000440807
0.000431526
0.000370254
0.000309459
0.000299168
0.000354268
0.000568127
0.000578522
0.000465788
0.000445557
0.000458787
0.000412466
0.000329664
0.000273935
0.000240815
0.000230541
0.000209578
0.000176803
0.000152324
0.000133879
0.000134098
0.000149095
0.000135563
0.000234768
0.000180724
0.000269001
0.00021312
0.000391132
0.000329363
0.000389395
0.000348756
0.000407685
0.00037932
0.00045286
0.000432339
0.000463284
0.00044628
0.00050248
0.000487279
0.000533819
0.000522744
0.000501451
0.000513497
0.000519563
0.000517375
0.000418902
0.000436882
0.000452846
0.000485799
0.000354648
0.000363794
0.000385594
0.000388324
0.000377264
0.000353121
0.000333922
0.000337492
0.000387368
0.000401975
0.000370274
0.000354632
0.000393488
0.000463486
0.000444997
0.00043024
0.000388944
0.00038966
0.000434107
0.000367232
0.000354729
0.000421293
0.000400411
0.000165719
0.000450934
0.000258816
0.000318687
0.000241044
0.000129493
0.000127991
0.000134095
0.000142727
0.000158818
0.000178958
0.00020297
0.00024318
0.000312948
0.00039261
0.000437502
0.000435442
0.000391283
0.000316526
0.000292926
0.000317989
0.000483842
0.000597068
0.00051936
0.00049695
0.000552753
0.000548207
0.000493268
0.000380827
0.000292547
0.000248703
0.000222225
0.00018772
0.000154428
0.000136359
0.000126946
0.000129437
0.000126945
0.000124439
0.000167926
0.000139668
0.000217837
0.000180408
0.000303511
0.000257841
0.000347426
0.000312035
0.000382169
0.000356268
0.000427049
0.000405746
0.000469688
0.000450252
0.000507055
0.000489591
0.000513777
0.00050903
0.000504016
0.000497466
0.000501406
0.000499196
0.000496878
0.000494386
0.000412214
0.000446072
0.000478384
0.000475324
0.000338732
0.000375139
0.000360099
0.000398372
0.000329764
0.00031601
0.000322473
0.000312221
0.00033873
0.000359201
0.00032675
0.000313728
0.000353565
0.00043502
0.000427692
0.000395884
0.000352539
0.000357428
0.000404657
0.000389783
0.000412066
0.00042128
0.000422343
0.000165387
0.000392779
0.000285432
0.000425855
0.000255853
0.000132313
0.000134652
0.000143668
0.000158514
0.00017836
0.000200417
0.000236714
0.000298715
0.000375713
0.000429363
0.000435429
0.0004064
0.000328694
0.000284312
0.000294592
0.000388077
0.00059134
0.000567643
0.000533458
0.000619549
0.000671367
0.00066276
0.000583377
0.000418424
0.000303842
0.000241336
0.000202838
0.000171554
0.000144916
0.000129648
0.000134246
0.000124387
0.000127503
0.000120309
0.000120991
0.000146864
0.000126727
0.000203407
0.000167138
0.000275297
0.000239045
0.000328923
0.00030047
0.00038554
0.000362135
0.000429691
0.000408154
0.000471381
0.000452181
0.000482037
0.000469342
0.000491594
0.000488893
0.000485984
0.000482616
0.000473209
0.000470968
0.000469515
0.000468793
0.000439886
0.000450536
0.000447435
0.000445135
0.000345394
0.000391469
0.000382884
0.000428577
0.000299545
0.00029585
0.00033299
0.000306002
0.000302138
0.00032125
0.000295364
0.000288955
0.000318751
0.000412066
0.000417495
0.000365992
0.000321244
0.000329472
0.000379187
0.000452053
0.000468465
0.000426196
0.000433104
0.000159307
0.000201502
0.000292818
0.000448358
0.000234868
0.000137816
0.000145764
0.00015925
0.000177533
0.00019916
0.000231074
0.000287179
0.000359291
0.000418371
0.000433724
0.000417176
0.000347688
0.000289166
0.000282758
0.000334086
0.000553865
0.000596366
0.00056677
0.000646491
0.000761735
0.000806591
0.000776092
0.000649101
0.000442138
0.00030488
0.00022578
0.000188143
0.000159508
0.000135928
0.000126804
0.000128769
0.000123515
0.000125075
0.000119194
0.000121506
0.000137981
0.000122285
0.000199983
0.000164694
0.000268948
0.000235335
0.000334983
0.000302432
0.000386616
0.000358207
0.000432135
0.000410755
0.000454323
0.000438102
0.000463845
0.00046005
0.000451482
0.000456796
0.000468519
0.000468063
0.000467279
0.00046563
0.000442883
0.000442261
0.000442984
0.000444619
0.000423602
0.000419864
0.000416779
0.000414723
0.000371108
0.000404845
0.000384102
0.000398852
0.000284103
0.000293047
0.000356957
0.000320491
0.000281336
0.000293101
0.000278212
0.000276463
0.00029394
0.000390504
0.000391253
0.00034319
0.000299416
0.000310699
0.000358147
0.000433077
0.000425206
0.0003927
0.000393224
0.000193659
0.000146631
0.000344396
0.000412334
0.000199926
0.00014883
0.000161198
0.000177701
0.000197485
0.00022781
0.000276854
0.000344601
0.000405401
0.000429484
0.000421858
0.000366945
0.000295285
0.0002706
0.00029888
0.00043515
0.000596957
0.000592675
0.000647291
0.000793414
0.000909902
0.000937402
0.000866677
0.000689743
0.000449504
0.000286767
0.000209312
0.000175545
0.000145928
0.000129279
0.000135367
0.000124577
0.000126928
0.000122103
0.000122585
0.000121928
0.00012197
0.000135705
0.000123262
0.000194443
0.000154882
0.000267906
0.000232826
0.00032619
0.000291053
0.000371903
0.000341298
0.000419801
0.000398118
0.000446473
0.000439552
0.000428769
0.000449668
0.000447603
0.00044141
0.000445024
0.000446559
0.000448804
0.000449732
0.000450498
0.000414838
0.00041631
0.000418907
0.000422022
0.000393973
0.000390089
0.000388257
0.000388271
0.000365972
0.000376526
0.000357716
0.000370426
0.000283897
0.000309425
0.000352733
0.000342427
0.000272214
0.000278213
0.000271543
0.000277352
0.00028265
0.000365547
0.00036168
0.000326187
0.000292105
0.00030507
0.000341592
0.000390665
0.000388916
0.000359435
0.000356619
0.000227127
0.000119533
0.000320556
0.000387907
0.000188028
0.00016399
0.000178789
0.000197418
0.000224129
0.000269705
0.000330683
0.000392055
0.000423021
0.000421933
0.000381238
0.000304602
0.000260619
0.000273804
0.000349262
0.000574008
0.000605138
0.000645617
0.00078455
0.000947988
0.00105346
0.00104922
0.000936717
0.000703374
0.000423333
0.000256942
0.000192001
0.000159384
0.000139483
0.000126723
0.00012963
0.000121202
0.000123974
0.000118087
0.000119347
0.000121806
0.00011926
0.000129946
0.000123646
0.000167105
0.000132913
0.000252552
0.000210014
0.000306512
0.00026841
0.000368474
0.000334919
0.000415222
0.000395256
0.000437816
0.000434016
0.000428274
0.000427335
0.000430089
0.000429452
0.000428405
0.000429133
0.000425102
0.000427986
0.000429105
0.000430083
0.000389689
0.000391875
0.000394286
0.000396935
0.000365992
0.000363666
0.000362923
0.000363226
0.00034288
0.00035
0.000332957
0.000344625
0.000300786
0.000329987
0.00033118
0.000343088
0.000275293
0.000275294
0.000277719
0.000294595
0.000283528
0.000346794
0.000336317
0.000318252
0.00029615
0.000308583
0.000330284
0.000352745
0.000359395
0.00033085
0.000325032
0.00023651
0.000102759
0.000279687
0.000266073
0.000173928
0.000180934
0.000196642
0.000222961
0.000262608
0.000319375
0.000378025
0.000415095
0.000420682
0.000392731
0.000322213
0.00026553
0.000258527
0.000303474
0.000482487
0.000604267
0.000640161
0.000765473
0.00093969
0.00110217
0.00118234
0.00114114
0.000966747
0.000695736
0.000365419
0.000228233
0.000164276
0.00015119
0.000130311
0.000133847
0.000124764
0.000128179
0.000118911
0.000121469
0.000113687
0.000115893
0.000113638
0.000112763
0.000118834
0.000116003
0.00014584
0.000119507
0.000226579
0.000183566
0.000295956
0.000254008
0.000392193
0.000358543
0.000424237
0.00042025
0.000415044
0.00042831
0.000428534
0.000427432
0.000430205
0.00040909
0.00041112
0.000415835
0.000412971
0.000399993
0.000402714
0.000404273
0.000407172
0.000364009
0.000365408
0.000367606
0.000370441
0.000341074
0.000338887
0.000337576
0.000336985
0.000318627
0.000325731
0.000309528
0.000320543
0.000319923
0.000333668
0.000307716
0.000322566
0.000294006
0.000286654
0.000297416
0.000314304
0.000298667
0.000332031
0.000318265
0.000320024
0.00030993
0.000320236
0.000331706
0.000322099
0.000315669
0.00030699
0.000299276
0.000212519
6.01072e-05