/*--------------------------------*- C++ -*----------------------------------*\
  =========                 |
  \\      /  F ield         | OpenFOAM: The Open Source CFD Toolbox
   \\    /   O peration     | Website:  https://openfoam.org
    \\  /    A nd           | Version:  dev
     \\/     M anipulation  |
\*---------------------------------------------------------------------------*/
FoamFile
{
    version     2.0;
    format      ascii;
    class       volScalarField;
    location    "2500";
    object      O2;
}
// * * * * * * * * * * * * * * * * * * * * * * * * * * * * * * * * * * * * * //

dimensions      [0 0 0 0 0 0 0];

internalField   nonuniform List<scalar> 
9846
(
0.23301
0.23301
0.23301
0.23301
0.23301
0.23301
0.23301
0.23301
0.23301
0.23301
0.23301
0.23301
0.23301
0.23301
0.23301
0.23301
0.23301
0.23301
0.23301
0.23301
0.23301
0.23301
0.23301
0.23301
0.23301
0.23301
0.23301
0.23301
0.23301
0.23301
0.23301
0.23301
0.23301
0.23301
0.23301
0.23301
0.23301
0.23301
0.23301
0.23301
0.23301
0.23301
0.23301
0.23301
0.23301
0.23301
0.23301
0.23301
0.23301
0.23301
0.23301
0.23301
0.23301
0.23301
0.23301
0.23301
0.23301
0.23301
0.23301
0.23301
0.23301
0.23301
0.23301
0.23301
0.23301
0.23301
0.23301
0.23301
0.23301
0.23301
0.23301
0.23301
0.23301
0.23301
0.23301
0.23301
0.23301
0.23301
0.23301
0.23301
0.23301
0.23301
0.23301
0.23301
0.23301
0.23301
0.23301
0.23301
0.23301
0.23301
0.23301
0.23301
0.23301
0.23301
0.23301
0.23301
0.23301
0.23301
0.23301
0.23301
0.23301
0.23301
0.23301
0.23301
0.23301
0.23301
0.23301
0.23301
0.23301
0.23301
0.23301
0.23301
0.23301
0.23301
0.23301
0.23301
0.23301
0.23301
0.23301
0.23301
0.23301
0.23301
0.23301
0.23301
0.23301
0.23301
0.23301
0.23301
0.23301
0.23301
0.23301
0.23301
0.23301
0.23301
0.23301
0.23301
0.23301
0.23301
0.23301
0.23301
0.23301
0.23301
0.23301
0.23301
0.23301
0.23301
0.23301
0.23301
0.23301
0.23301
0.23301
0.23301
0.23301
0.23301
0.23301
0.23301
0.23301
0.23301
0.23301
0.23301
0.23301
0.23301
0.23301
0.23301
0.23301
0.23301
0.23301
0.23301
0.23301
0.23301
0.23301
0.23301
0.23301
0.23301
0.23301
0.23301
0.23301
0.23301
0.23301
0.23301
0.23301
0.23301
0.23301
0.23301
0.23301
0.23301
0.23301
0.23301
0.23301
0.23301
0.23301
0.23301
0.23301
0.23301
0.23301
0.23301
0.23301
0.23301
0.23301
0.23301
0.23301
0.23301
0.23301
0.23301
0.23301
0.23301
0.23301
0.23301
0.23301
0.23301
0.23301
0.23301
0.23301
0.23301
0.23301
0.23301
0.23301
0.23301
0.23301
0.23301
0.23301
0.23301
0.23301
0.23301
0.23301
0.23301
0.23301
0.23301
0.23301
0.23301
0.23301
0.23301
0.23301
0.23301
0.23301
0.23301
0.23301
0.23301
0.23301
0.23301
0.23301
0.23301
0.23301
0.23301
0.23301
0.23301
0.23301
0.23301
0.23301
0.23301
0.23301
0.23301
0.23301
0.23301
0.23301
0.23301
0.23301
0.23301
0.23301
0.23301
0.23301
0.23301
0.23301
0.23301
0.23301
0.23301
0.23301
0.23301
0.23301
0.23301
0.23301
0.23301
0.23301
0.23301
0.23301
0.23301
0.23301
0.23301
0.23301
0.23301
0.23301
0.23301
0.23301
0.23301
0.23301
0.23301
0.23301
0.23301
0.23301
0.23301
0.23301
0.23301
0.23301
0.23301
0.23301
0.23301
0.23301
0.23301
0.23301
0.23301
0.23301
0.23301
0.23301
0.23301
0.23301
0.23301
0.23301
0.23301
0.23301
0.23301
0.23301
0.23301
0.23301
0.23301
0.23301
0.23301
0.23301
0.23301
0.23301
0.23301
0.23301
0.23301
0.23301
0.23301
0.23301
0.23301
0.23301
0.23301
0.23301
0.23301
0.23301
0.23301
0.23301
0.23301
0.23301
0.23301
0.23301
0.23301
0.23301
0.23301
0.23301
0.23301
0.23301
0.23301
0.23301
0.23301
0.23301
0.23301
0.23301
0.23301
0.23301
0.23301
0.23301
0.23301
0.23301
0.23301
0.23301
0.23301
0.23301
0.23301
0.23301
0.23301
0.23301
0.23301
0.23301
0.23301
0.23301
0.23301
0.23301
0.23301
0.23301
0.23301
0.23301
0.23301
0.23301
0.23301
0.23301
0.23301
0.23301
0.23301
0.23301
0.23301
0.23301
0.23301
0.23301
0.23301
0.23301
0.23301
0.23301
0.23301
0.23301
0.23301
0.23301
0.23301
0.23301
0.23301
0.23301
0.23301
0.23301
0.23301
0.23301
0.23301
0.23301
0.23301
0.23301
0.23301
0.23301
0.23301
0.23301
0.23301
0.23301
0.23301
0.23301
0.23301
0.23301
0.23301
0.23301
0.23301
0.23301
0.23301
0.23301
0.23301
0.23301
0.23301
0.23301
0.23301
0.23301
0.23301
0.23301
0.23301
0.23301
0.23301
0.23301
0.23301
0.23301
0.23301
0.23301
0.23301
0.23301
0.23301
0.23301
0.23301
0.23301
0.23301
0.23301
0.23301
0.23301
0.23301
0.23301
0.23301
0.23301
0.23301
0.23301
0.23301
0.23301
0.23301
0.23301
0.23301
0.23301
0.23301
0.23301
0.23301
0.23301
0.23301
0.23301
0.23301
0.23301
0.23301
0.23301
0.23301
0.23301
0.23301
0.23301
0.23301
0.23301
0.23301
0.23301
0.23301
0.23301
0.23301
0.23301
0.23301
0.23301
0.23301
0.23301
0.23301
0.23301
0.23301
0.23301
0.23301
0.23301
0.23301
0.23301
0.23301
0.23301
0.23301
0.23301
0.23301
0.23301
0.23301
0.23301
0.23301
0.23301
0.23301
0.23301
0.23301
0.23301
0.23301
0.23301
0.23301
0.23301
0.23301
0.23301
0.23301
0.23301
0.23301
0.23301
0.23301
0.23301
0.23301
0.23301
0.23301
0.23301
0.23301
0.23301
0.23301
0.23301
0.23301
0.23301
0.23301
0.23301
0.23301
0.23301
0.23301
0.23301
0.23301
0.23301
0.23301
0.23301
0.23301
0.23301
0.23301
0.23301
0.23301
0.23301
0.23301
0.23301
0.23301
0.23301
0.23301
0.23301
0.23301
0.23301
0.23301
0.23301
0.23301
0.23301
0.23301
0.23301
0.23301
0.23301
0.23301
0.23301
0.23301
0.23301
0.23301
0.23301
0.23301
0.23301
0.23301
0.23301
0.23301
0.23301
0.23301
0.23301
0.23301
0.23301
0.23301
0.23301
0.23301
0.23301
0.23301
0.23301
0.23301
0.23301
0.23301
0.23301
0.23301
0.23301
0.23301
0.23301
0.23301
0.23301
0.23301
0.23301
0.23301
0.23301
0.23301
0.23301
0.23301
0.23301
0.23301
0.23301
0.23301
0.23301
0.23301
0.23301
0.23301
0.23301
0.23301
0.23301
0.23301
0.23301
0.23301
0.23301
0.23301
0.23301
0.23301
0.233009
0.233009
0.233009
0.233009
0.233009
0.23301
0.23301
0.23301
0.23301
0.23301
0.23301
0.23301
0.23301
0.23301
0.23301
0.23301
0.23301
0.23301
0.23301
0.23301
0.23301
0.23301
0.23301
0.23301
0.23301
0.23301
0.23301
0.23301
0.23301
0.23301
0.23301
0.23301
0.23301
0.23301
0.233009
0.233009
0.233008
0.233007
0.233006
0.233006
0.233006
0.233007
0.233007
0.233008
0.233009
0.233009
0.23301
0.23301
0.23301
0.23301
0.23301
0.23301
0.23301
0.23301
0.23301
0.23301
0.23301
0.23301
0.23301
0.23301
0.23301
0.23301
0.23301
0.23301
0.23301
0.23301
0.23301
0.23301
0.23301
0.23301
0.23301
0.23301
0.23301
0.23301
0.233009
0.233008
0.233005
0.233
0.232995
0.232991
0.232989
0.23299
0.232993
0.232997
0.233
0.233002
0.233005
0.233008
0.23301
0.233009
0.23301
0.23301
0.23301
0.23301
0.23301
0.23301
0.23301
0.23301
0.23301
0.23301
0.23301
0.23301
0.23301
0.23301
0.23301
0.23301
0.23301
0.23301
0.23301
0.23301
0.23301
0.23301
0.23301
0.23301
0.23301
0.23301
0.233008
0.233004
0.232994
0.232976
0.232953
0.232934
0.232923
0.232923
0.232933
0.232947
0.23296
0.232971
0.232981
0.232993
0.233008
0.233004
0.23301
0.233009
0.23301
0.23301
0.23301
0.23301
0.23301
0.23301
0.23301
0.23301
0.23301
0.23301
0.23301
0.23301
0.23301
0.23301
0.23301
0.23301
0.23301
0.23301
0.23301
0.23301
0.23301
0.23301
0.23301
0.23301
0.23301
0.233009
0.233007
0.232997
0.232971
0.232922
0.232854
0.232792
0.232755
0.232744
0.232759
0.232792
0.232828
0.232857
0.232881
0.232907
0.232992
0.232952
0.233005
0.232995
0.233009
0.233006
0.233009
0.23301
0.233009
0.23301
0.23301
0.23301
0.23301
0.23301
0.23301
0.23301
0.23301
0.23301
0.23301
0.23301
0.23301
0.23301
0.23301
0.23301
0.23301
0.23301
0.23301
0.23301
0.23301
0.23301
0.23301
0.233009
0.233005
0.232988
0.23294
0.232844
0.232722
0.2326
0.232513
0.232464
0.232455
0.232473
0.232516
0.23257
0.232614
0.23264
0.232852
0.232632
0.232962
0.232867
0.232997
0.232967
0.233007
0.232999
0.233008
0.23301
0.233008
0.233009
0.23301
0.23301
0.23301
0.23301
0.23301
0.23301
0.23301
0.23301
0.23301
0.23301
0.23301
0.23301
0.23301
0.23301
0.23301
0.23301
0.23301
0.23301
0.23301
0.23301
0.23301
0.233009
0.233004
0.232978
0.232904
0.232765
0.232576
0.232409
0.232271
0.232174
0.232111
0.23208
0.232077
0.232098
0.232139
0.232155
0.232413
0.23212
0.232663
0.232406
0.232879
0.232676
0.232972
0.232889
0.233001
0.232977
0.233003
0.233009
0.233005
0.233007
0.23301
0.23301
0.23301
0.23301
0.23301
0.23301
0.23301
0.23301
0.23301
0.23301
0.23301
0.23301
0.23301
0.23301
0.23301
0.23301
0.23301
0.23301
0.23301
0.23301
0.23301
0.233009
0.233004
0.232971
0.232871
0.232684
0.232455
0.23222
0.232044
0.231906
0.2318
0.231718
0.23165
0.231596
0.231566
0.231577
0.231861
0.231531
0.232119
0.231814
0.232405
0.232098
0.232688
0.232397
0.232901
0.232703
0.232983
0.232916
0.23299
0.233008
0.232996
0.233001
0.23301
0.233009
0.23301
0.23301
0.23301
0.23301
0.23301
0.23301
0.23301
0.23301
0.23301
0.23301
0.23301
0.23301
0.23301
0.23301
0.23301
0.23301
0.23301
0.23301
0.23301
0.233009
0.233004
0.232969
0.23285
0.232622
0.232338
0.232093
0.231915
0.231781
0.23166
0.231543
0.231415
0.231279
0.231136
0.231025
0.231267
0.230958
0.231497
0.231183
0.231769
0.231429
0.232066
0.231709
0.232388
0.232025
0.232728
0.232384
0.232934
0.232767
0.232952
0.233005
0.23297
0.232986
0.23301
0.233008
0.23301
0.23301
0.23301
0.23301
0.23301
0.23301
0.23301
0.23301
0.23301
0.23301
0.23301
0.23301
0.23301
0.23301
0.23301
0.23301
0.23301
0.23301
0.23301
0.233009
0.233004
0.23297
0.232843
0.232584
0.23227
0.232035
0.231901
0.231793
0.231685
0.231563
0.231411
0.231234
0.231013
0.23074
0.23074
0.230526
0.230883
0.230616
0.23109
0.230768
0.23134
0.230972
0.231632
0.231227
0.231979
0.231542
0.232396
0.231942
0.232808
0.232443
0.232854
0.232997
0.232901
0.232943
0.233009
0.233005
0.23301
0.23301
0.23301
0.23301
0.23301
0.23301
0.23301
0.23301
0.23301
0.23301
0.23301
0.23301
0.23301
0.23301
0.23301
0.23301
0.23301
0.23301
0.23301
0.23301
0.233005
0.232973
0.232845
0.23257
0.232238
0.232045
0.231931
0.23185
0.231775
0.23168
0.231537
0.231336
0.23106
0.230716
0.230408
0.230359
0.230389
0.230214
0.230474
0.230221
0.23062
0.230299
0.230826
0.230443
0.231092
0.230652
0.231449
0.230947
0.231927
0.231367
0.232521
0.231949
0.232629
0.232976
0.232733
0.232834
0.233008
0.232996
0.23301
0.23301
0.23301
0.23301
0.23301
0.23301
0.23301
0.23301
0.23301
0.23301
0.23301
0.23301
0.23301
0.23301
0.23301
0.23301
0.23301
0.23301
0.23301
0.23301
0.233007
0.232979
0.232852
0.232573
0.23225
0.23208
0.231997
0.231975
0.232001
0.232005
0.231901
0.231677
0.231336
0.230855
0.230238
0.230123
0.230019
0.230017
0.229862
0.230021
0.229789
0.230095
0.229793
0.23024
0.229871
0.230463
0.230023
0.230803
0.230275
0.23131
0.230676
0.232021
0.231302
0.232164
0.232918
0.232369
0.232584
0.233006
0.232973
0.23301
0.233009
0.23301
0.23301
0.23301
0.23301
0.23301
0.23301
0.23301
0.23301
0.23301
0.23301
0.23301
0.23301
0.23301
0.23301
0.23301
0.23301
0.23301
0.23301
0.233008
0.232988
0.232871
0.232589
0.232281
0.232139
0.232085
0.232156
0.232321
0.232328
0.232188
0.231999
0.231724
0.231297
0.230553
0.229741
0.229779
0.229767
0.22974
0.229607
0.229474
0.229546
0.229345
0.229562
0.229314
0.229648
0.229348
0.229815
0.229444
0.230104
0.229631
0.230588
0.229967
0.231356
0.23056
0.231482
0.232775
0.231724
0.23208
0.233
0.232913
0.23301
0.233008
0.23301
0.23301
0.23301
0.23301
0.23301
0.23301
0.23301
0.23301
0.23301
0.23301
0.23301
0.23301
0.23301
0.23301
0.23301
0.23301
0.23301
0.23301
0.233009
0.232996
0.232901
0.232628
0.232329
0.232202
0.232187
0.232353
0.232584
0.232559
0.232397
0.232183
0.231878
0.231422
0.230725
0.229837
0.229905
0.229359
0.229371
0.229393
0.229361
0.229198
0.229098
0.229124
0.229001
0.229126
0.228982
0.22917
0.228986
0.229276
0.229033
0.229485
0.229146
0.229883
0.229382
0.230595
0.229857
0.230719
0.232469
0.230955
0.231353
0.232984
0.232768
0.23301
0.233006
0.23301
0.23301
0.23301
0.23301
0.23301
0.23301
0.23301
0.23301
0.23301
0.23301
0.23301
0.23301
0.23301
0.23301
0.23301
0.23301
0.23301
0.23301
0.23301
0.233002
0.232933
0.232686
0.232383
0.232265
0.232287
0.232524
0.23275
0.232735
0.232567
0.232238
0.231796
0.231299
0.230638
0.229921
0.229923
0.229401
0.229425
0.229043
0.22907
0.229048
0.229035
0.228931
0.228897
0.228894
0.228846
0.228872
0.228812
0.228875
0.228779
0.228919
0.228769
0.229042
0.22881
0.229325
0.228959
0.229896
0.229312
0.230015
0.231911
0.230246
0.23063
0.232945
0.232492
0.23301
0.233001
0.23301
0.23301
0.23301
0.23301
0.23301
0.23301
0.23301
0.23301
0.23301
0.23301
0.23301
0.23301
0.23301
0.23301
0.23301
0.23301
0.23301
0.23301
0.23301
0.233006
0.232963
0.232754
0.23244
0.232323
0.232375
0.232656
0.232849
0.232854
0.232734
0.232328
0.231727
0.230991
0.230324
0.229718
0.229448
0.22944
0.229119
0.229179
0.228936
0.228987
0.228894
0.228905
0.228835
0.228841
0.228789
0.228795
0.228731
0.228722
0.228674
0.228626
0.228646
0.228536
0.228695
0.228498
0.228901
0.228584
0.229349
0.228873
0.229453
0.231221
0.22966
0.230006
0.23286
0.232033
0.233009
0.232981
0.23301
0.23301
0.23301
0.23301
0.23301
0.23301
0.23301
0.23301
0.23301
0.23301
0.23301
0.23301
0.23301
0.23301
0.23301
0.23301
0.23301
0.23301
0.233008
0.232985
0.232824
0.232504
0.232372
0.232438
0.232745
0.232901
0.232921
0.232857
0.23259
0.231969
0.231171
0.230448
0.229874
0.229459
0.229629
0.229256
0.229341
0.229055
0.229142
0.228955
0.229039
0.228858
0.228895
0.228816
0.228857
0.228736
0.228781
0.228621
0.22864
0.22847
0.228453
0.228351
0.22827
0.228327
0.228171
0.228492
0.228179
0.228887
0.228432
0.228969
0.230545
0.229145
0.229443
0.232613
0.231271
0.233009
0.232944
0.23301
0.23301
0.23301
0.23301
0.23301
0.23301
0.23301
0.23301
0.23301
0.23301
0.23301
0.23301
0.23301
0.23301
0.23301
0.23301
0.23301
0.233009
0.232997
0.232889
0.232585
0.232414
0.232472
0.232784
0.232924
0.23295
0.232927
0.232809
0.232499
0.231859
0.230994
0.230336
0.229834
0.230138
0.229611
0.229897
0.229254
0.229404
0.229152
0.2293
0.229137
0.229284
0.228926
0.22902
0.228865
0.228974
0.228696
0.228797
0.228471
0.228529
0.228252
0.228282
0.22813
0.228145
0.228062
0.228061
0.228066
0.227979
0.228417
0.227991
0.228477
0.229879
0.228626
0.228808
0.229253
0.232234
0.230526
0.233007
0.232865
0.23301
0.23301
0.23301
0.23301
0.23301
0.23301
0.23301
0.23301
0.23301
0.23301
0.23301
0.23301
0.23301
0.23301
0.23301
0.23301
0.23301
0.233002
0.232942
0.232683
0.232454
0.232488
0.232785
0.232926
0.232955
0.232955
0.23292
0.232794
0.232497
0.232008
0.231466
0.231364
0.230253
0.23086
0.230074
0.230478
0.229495
0.22975
0.229466
0.229696
0.229453
0.229671
0.229108
0.229267
0.228941
0.229118
0.228643
0.228798
0.228348
0.228457
0.228187
0.22826
0.228128
0.228239
0.228066
0.228275
0.227901
0.228121
0.227943
0.227855
0.227849
0.228247
0.227961
0.22897
0.229689
0.229158
0.228415
0.228055
0.227996
0.228531
0.231572
0.229381
0.229664
0.230319
0.232975
0.232492
0.23301
0.23301
0.23301
0.23301
0.23301
0.23301
0.23301
0.23301
0.23301
0.23301
0.23301
0.23301
0.23301
0.23301
0.23301
0.23301
0.233007
0.232976
0.232784
0.232505
0.232488
0.232773
0.232919
0.232952
0.232958
0.232954
0.232923
0.232827
0.232657
0.232496
0.232497
0.232051
0.232622
0.230962
0.231537
0.230752
0.231239
0.229985
0.230337
0.22993
0.230243
0.2298
0.230085
0.229319
0.229547
0.228982
0.2292
0.228607
0.228793
0.228362
0.2285
0.228365
0.228492
0.228536
0.228747
0.228602
0.228738
0.228952
0.227977
0.228231
0.228871
0.228519
0.227821
0.227803
0.227784
0.22795
0.227786
0.228678
0.228845
0.228143
0.227834
0.2278
0.22825
0.229961
0.231222
0.230424
0.229047
0.22928
0.232424
0.230654
0.231288
0.232104
0.23301
0.23301
0.23301
0.23301
0.23301
0.23301
0.23301
0.23301
0.23301
0.23301
0.23301
0.23301
0.23301
0.23301
0.23301
0.233009
0.232994
0.232874
0.232583
0.232488
0.232738
0.232893
0.232939
0.232951
0.232955
0.232958
0.232951
0.232921
0.232891
0.232892
0.232934
0.232636
0.232862
0.231775
0.232288
0.231496
0.231952
0.230611
0.231032
0.230407
0.230761
0.23
0.230308
0.229445
0.229713
0.229009
0.229248
0.228672
0.228869
0.228626
0.228783
0.228898
0.229001
0.229083
0.229201
0.229263
0.229304
0.22916
0.229438
0.229208
0.229357
0.228223
0.228584
0.229343
0.228974
0.227911
0.22774
0.227856
0.228204
0.227713
0.228378
0.228523
0.227894
0.227701
0.2277
0.227976
0.229544
0.229843
0.228695
0.228887
0.231134
0.230819
0.230688
0.229986
0.230215
0.23301
0.23301
0.23301
0.23301
0.23301
0.23301
0.23301
0.23301
0.23301
0.23301
0.23301
0.23301
0.23301
0.23301
0.233009
0.233
0.232938
0.232688
0.232498
0.232666
0.232849
0.2329
0.232919
0.232935
0.232955
0.232974
0.232987
0.232987
0.232988
0.232996
0.232974
0.233001
0.232837
0.232935
0.23235
0.232652
0.231908
0.232251
0.231138
0.231528
0.230637
0.230978
0.23006
0.230361
0.229504
0.229774
0.229084
0.229311
0.228954
0.229128
0.229072
0.229129
0.229302
0.22928
0.229241
0.229194
0.229462
0.229513
0.229505
0.229457
0.229626
0.229809
0.229605
0.22969
0.228608
0.229058
0.229791
0.229475
0.228158
0.227795
0.228084
0.228596
0.227735
0.228076
0.228196
0.227715
0.227688
0.227652
0.227749
0.229097
0.229285
0.228337
0.228495
0.22987
0.230096
0.229454
0.229322
0.229389
0.23301
0.23301
0.23301
0.23301
0.23301
0.23301
0.23301
0.23301
0.23301
0.23301
0.23301
0.23301
0.23301
0.23301
0.233005
0.232976
0.232801
0.232535
0.23259
0.232803
0.232846
0.232842
0.232861
0.232917
0.232962
0.23299
0.233002
0.233006
0.233007
0.233008
0.23299
0.233003
0.232889
0.232958
0.232543
0.232757
0.231995
0.232294
0.23133
0.231675
0.23067
0.230979
0.23005
0.230314
0.229548
0.229794
0.229313
0.229506
0.229186
0.229302
0.229159
0.229124
0.229104
0.229086
0.229385
0.229299
0.229201
0.229096
0.229692
0.229634
0.229539
0.22941
0.229951
0.229851
0.229972
0.229821
0.229095
0.229561
0.230049
0.229907
0.228541
0.227995
0.228447
0.229082
0.227894
0.2278
0.227882
0.227631
0.227795
0.227705
0.227621
0.228662
0.228803
0.227992
0.228133
0.229119
0.230813
0.2294
0.228835
0.228866
0.23301
0.23301
0.23301
0.23301
0.23301
0.23301
0.23301
0.23301
0.23301
0.23301
0.23301
0.23301
0.23301
0.233008
0.232994
0.232893
0.232624
0.232561
0.232736
0.232802
0.232766
0.232751
0.232801
0.232897
0.232967
0.232998
0.233007
0.233009
0.233009
0.233008
0.233009
0.232996
0.233006
0.232909
0.23297
0.232571
0.232784
0.231887
0.232245
0.231276
0.23157
0.230585
0.230864
0.230153
0.230396
0.229711
0.229928
0.229456
0.229639
0.228991
0.22905
0.228996
0.228904
0.228839
0.228818
0.229253
0.22908
0.228902
0.228727
0.229711
0.229554
0.229352
0.229124
0.230052
0.229895
0.229936
0.229733
0.229593
0.229973
0.230097
0.230108
0.229012
0.228324
0.228896
0.229568
0.228179
0.227619
0.22764
0.227627
0.228023
0.227867
0.227565
0.228285
0.228417
0.227697
0.227807
0.228799
0.232117
0.229959
0.228461
0.228504
0.23301
0.23301
0.23301
0.23301
0.23301
0.23301
0.23301
0.23301
0.23301
0.23301
0.23301
0.23301
0.233009
0.233
0.232952
0.232743
0.232565
0.23265
0.232765
0.232709
0.232656
0.23267
0.232751
0.232881
0.232968
0.233002
0.233009
0.23301
0.23301
0.233009
0.23301
0.233003
0.233008
0.232934
0.232985
0.232574
0.23281
0.231877
0.232294
0.231162
0.231496
0.23066
0.230949
0.230398
0.230699
0.22986
0.230112
0.229213
0.229452
0.228203
0.228206
0.228345
0.228255
0.228564
0.228425
0.228315
0.228239
0.228877
0.228625
0.228381
0.228156
0.229504
0.22924
0.228943
0.228631
0.22994
0.229713
0.229682
0.229431
0.229988
0.230133
0.22995
0.23012
0.229486
0.228744
0.229357
0.229957
0.228561
0.227522
0.227492
0.227726
0.228361
0.228145
0.227596
0.227944
0.228062
0.227486
0.227512
0.22879
0.232372
0.230423
0.228147
0.228264
0.23301
0.23301
0.23301
0.23301
0.23301
0.23301
0.23301
0.23301
0.23301
0.23301
0.23301
0.23301
0.233005
0.232984
0.232854
0.232597
0.232595
0.232712
0.232682
0.232584
0.232557
0.232605
0.232725
0.232876
0.232975
0.233006
0.23301
0.23301
0.23301
0.23301
0.23301
0.23301
0.233007
0.233009
0.232972
0.232999
0.232661
0.232884
0.232094
0.232533
0.231277
0.231659
0.231017
0.23136
0.23046
0.230841
0.229751
0.230094
0.228465
0.228607
0.228706
0.227637
0.227664
0.227864
0.227746
0.227963
0.227811
0.227703
0.227645
0.228319
0.228022
0.227753
0.227525
0.229102
0.228747
0.228381
0.228025
0.229661
0.229345
0.229272
0.228963
0.230134
0.230131
0.229656
0.229967
0.229878
0.229183
0.229749
0.230111
0.228973
0.227478
0.227398
0.227921
0.228733
0.22846
0.2277
0.227604
0.227738
0.227336
0.227293
0.228901
0.232725
0.230946
0.227879
0.228111
0.23301
0.23301
0.23301
0.23301
0.23301
0.23301
0.23301
0.23301
0.23301
0.23301
0.23301
0.233008
0.232997
0.23293
0.232695
0.232589
0.232646
0.232666
0.232549
0.23247
0.232477
0.232564
0.232716
0.232891
0.232988
0.233008
0.23301
0.23301
0.23301
0.23301
0.23301
0.23301
0.233008
0.233009
0.232994
0.233005
0.232836
0.232958
0.232517
0.232799
0.231731
0.232128
0.23124
0.231649
0.230132
0.23065
0.229133
0.229613
0.228017
0.228206
0.228145
0.228369
0.227202
0.227314
0.227625
0.227462
0.227347
0.227225
0.227162
0.227158
0.227695
0.227403
0.22716
0.226975
0.228556
0.22815
0.227764
0.227416
0.229223
0.228835
0.228736
0.228384
0.230131
0.229998
0.229211
0.229676
0.230067
0.22956
0.229982
0.230127
0.229331
0.227505
0.227332
0.22817
0.229051
0.228733
0.227869
0.227308
0.227436
0.227211
0.227121
0.228995
0.2328
0.231016
0.227632
0.227967
0.23301
0.23301
0.23301
0.23301
0.23301
0.23301
0.23301
0.23301
0.23301
0.23301
0.233009
0.233002
0.232974
0.232822
0.232608
0.232602
0.232632
0.232545
0.232421
0.232375
0.232418
0.232546
0.232725
0.232923
0.232998
0.233009
0.23301
0.23301
0.23301
0.23301
0.23301
0.23301
0.23301
0.233009
0.23301
0.233
0.233007
0.232934
0.232983
0.2327
0.232875
0.232052
0.232412
0.231163
0.231642
0.229538
0.230079
0.228543
0.228791
0.229042
0.227796
0.22797
0.228133
0.22831
0.227042
0.22723
0.227612
0.227421
0.226851
0.226797
0.226804
0.226891
0.227117
0.226873
0.226692
0.226577
0.227944
0.227538
0.22718
0.226881
0.228677
0.228239
0.228132
0.227766
0.230033
0.229745
0.228691
0.229265
0.230097
0.229814
0.23003
0.230074
0.229557
0.227561
0.227294
0.228386
0.229248
0.22889
0.228003
0.227071
0.22715
0.227101
0.226962
0.228914
0.232662
0.230729
0.227385
0.227761
0.23301
0.23301
0.23301
0.23301
0.23301
0.23301
0.23301
0.23301
0.23301
0.23301
0.233007
0.232994
0.232914
0.232681
0.232598
0.232597
0.232549
0.232415
0.232311
0.232301
0.232386
0.232545
0.232767
0.232954
0.233005
0.23301
0.23301
0.23301
0.23301
0.23301
0.23301
0.23301
0.23301
0.233009
0.23301
0.233002
0.233007
0.232955
0.232989
0.232709
0.232877
0.232071
0.232433
0.230648
0.231205
0.229314
0.229543
0.229895
0.228486
0.228688
0.229113
0.228928
0.227795
0.227966
0.228324
0.228458
0.227036
0.227288
0.227812
0.227564
0.226531
0.226543
0.226642
0.226817
0.226646
0.226474
0.226359
0.226313
0.22734
0.226973
0.226675
0.226447
0.228088
0.227618
0.227519
0.227168
0.229857
0.229422
0.228184
0.228841
0.230061
0.229882
0.229986
0.229948
0.229622
0.227603
0.227257
0.228477
0.22928
0.228886
0.228029
0.226863
0.226884
0.22698
0.226791
0.228639
0.230872
0.22918
0.227119
0.227427
0.23301
0.23301
0.23301
0.23301
0.23301
0.23301
0.23301
0.23301
0.23301
0.233009
0.233
0.232965
0.232808
0.232615
0.232586
0.232553
0.232423
0.232294
0.232221
0.232252
0.232376
0.232575
0.232826
0.232985
0.233008
0.23301
0.23301
0.23301
0.23301
0.23301
0.23301
0.23301
0.23301
0.23301
0.233009
0.23301
0.233002
0.233007
0.232955
0.232989
0.232567
0.232827
0.231723
0.232181
0.230413
0.230968
0.229429
0.229619
0.23007
0.230273
0.228595
0.228751
0.229262
0.229117
0.228018
0.228182
0.228702
0.228793
0.227131
0.227487
0.228174
0.227856
0.226324
0.226423
0.226595
0.226826
0.226277
0.226162
0.226121
0.226133
0.22679
0.226491
0.226267
0.226102
0.22754
0.227027
0.22697
0.22663
0.229603
0.229063
0.227698
0.228401
0.229968
0.229828
0.22987
0.229743
0.229572
0.227579
0.227171
0.228449
0.229227
0.228801
0.227969
0.226662
0.226652
0.226815
0.226602
0.227769
0.228539
0.227813
0.226854
0.227099
0.23301
0.23301
0.23301
0.23301
0.23301
0.23301
0.23301
0.23301
0.23301
0.233005
0.232991
0.232906
0.232687
0.23259
0.232555
0.232451
0.2323
0.232189
0.232155
0.23223
0.232389
0.232633
0.232898
0.233
0.233009
0.23301
0.23301
0.23301
0.23301
0.23301
0.23301
0.23301
0.23301
0.23301
0.233009
0.23301
0.233001
0.233006
0.232941
0.232986
0.232514
0.232816
0.231515
0.232041
0.230477
0.230729
0.231164
0.229732
0.229891
0.230467
0.230615
0.228883
0.22899
0.229602
0.229496
0.228418
0.228586
0.229202
0.229269
0.227273
0.227701
0.228576
0.228155
0.226228
0.226386
0.226606
0.226902
0.225992
0.225961
0.225976
0.226063
0.226324
0.226105
0.22595
0.22585
0.227049
0.226517
0.226513
0.226186
0.229284
0.228656
0.227218
0.227938
0.229751
0.229671
0.22964
0.2294
0.229404
0.227474
0.226983
0.228307
0.229003
0.228483
0.227756
0.226469
0.226449
0.226615
0.226412
0.227255
0.228246
0.227197
0.226583
0.226787
0.23301
0.23301
0.23301
0.23301
0.23301
0.23301
0.23301
0.23301
0.233008
0.232998
0.232962
0.23281
0.232618
0.232561
0.232485
0.232327
0.232191
0.232105
0.232115
0.232228
0.232435
0.232717
0.23296
0.233007
0.23301
0.23301
0.23301
0.23301
0.23301
0.23301
0.23301
0.23301
0.23301
0.23301
0.233009
0.23301
0.233001
0.233006
0.23294
0.232986
0.232594
0.23285
0.231667
0.232154
0.230783
0.230963
0.231797
0.231584
0.23022
0.230336
0.231032
0.231142
0.229333
0.229408
0.230124
0.230048
0.228897
0.22909
0.229763
0.229849
0.227454
0.227942
0.228947
0.228459
0.226203
0.226401
0.226677
0.227026
0.225828
0.225843
0.225918
0.226042
0.225958
0.225817
0.225738
0.225722
0.226594
0.226121
0.226115
0.22586
0.228859
0.228182
0.226743
0.227445
0.229423
0.229428
0.229328
0.229017
0.229053
0.227204
0.226733
0.227884
0.22852
0.227907
0.227334
0.226297
0.226264
0.226414
0.226241
0.226836
0.228998
0.227185
0.226348
0.226519
0.23301
0.23301
0.23301
0.23301
0.23301
0.23301
0.23301
0.233009
0.233003
0.232989
0.232908
0.232706
0.232578
0.232509
0.232381
0.232212
0.232098
0.232045
0.232101
0.232256
0.232512
0.232821
0.232992
0.233009
0.23301
0.23301
0.23301
0.23301
0.23301
0.23301
0.23301
0.23301
0.23301
0.23301
0.23301
0.233009
0.23301
0.233002
0.233007
0.232952
0.232989
0.232785
0.232918
0.23218
0.232509
0.23127
0.231418
0.232079
0.231981
0.230854
0.230939
0.231665
0.231735
0.229918
0.229983
0.230778
0.23071
0.229346
0.229612
0.230292
0.230441
0.227657
0.2282
0.229315
0.228772
0.226218
0.226463
0.226783
0.227178
0.225735
0.225796
0.225903
0.226058
0.225701
0.225645
0.225629
0.225636
0.226162
0.22579
0.22575
0.225625
0.228443
0.22773
0.226201
0.226948
0.229051
0.228993
0.228768
0.228558
0.228475
0.22688
0.226496
0.227366
0.227876
0.227326
0.226943
0.226143
0.226111
0.226235
0.226087
0.226669
0.230279
0.227692
0.226143
0.226321
0.23301
0.23301
0.23301
0.23301
0.23301
0.23301
0.23301
0.233008
0.232998
0.232963
0.232826
0.232627
0.232532
0.232432
0.232267
0.232112
0.232023
0.232011
0.232109
0.232318
0.232619
0.232925
0.233004
0.23301
0.23301
0.23301
0.23301
0.23301
0.23301
0.23301
0.23301
0.23301
0.23301
0.23301
0.23301
0.233009
0.23301
0.233004
0.233007
0.232974
0.232996
0.232931
0.232975
0.232569
0.232689
0.232846
0.231809
0.231891
0.232497
0.232434
0.231524
0.231599
0.232227
0.232286
0.230551
0.230638
0.231441
0.231347
0.229764
0.230079
0.230758
0.230951
0.22786
0.228454
0.229674
0.22908
0.226269
0.226547
0.226901
0.227334
0.225687
0.225782
0.225917
0.226097
0.225557
0.22554
0.225547
0.225595
0.225716
0.225561
0.225492
0.225484
0.227851
0.227001
0.225657
0.226152
0.228314
0.228269
0.227836
0.227627
0.227688
0.226591
0.226287
0.226935
0.227225
0.226857
0.226609
0.226013
0.225977
0.226089
0.225954
0.22676
0.232518
0.229592
0.226009
0.226308
0.23301
0.23301
0.23301
0.23301
0.23301
0.23301
0.233009
0.233003
0.23299
0.232917
0.232738
0.232573
0.232471
0.232337
0.232158
0.23203
0.231968
0.232003
0.232151
0.232413
0.23275
0.232981
0.233008
0.23301
0.23301
0.23301
0.23301
0.23301
0.23301
0.23301
0.23301
0.23301
0.23301
0.23301
0.23301
0.23301
0.23301
0.233006
0.233008
0.232994
0.233002
0.232978
0.232996
0.232752
0.232799
0.232955
0.232911
0.232332
0.23238
0.232699
0.232642
0.232065
0.232151
0.232436
0.232486
0.23111
0.231241
0.231968
0.231856
0.230162
0.230508
0.231166
0.23138
0.228003
0.228644
0.230008
0.229332
0.226333
0.226629
0.227003
0.227456
0.225679
0.225797
0.225953
0.226146
0.225465
0.225468
0.225515
0.225598
0.225495
0.22543
0.225433
0.225408
0.226828
0.226086
0.225546
0.225695
0.227239
0.227311
0.226859
0.226631
0.226958
0.226364
0.22616
0.226661
0.226789
0.226648
0.226468
0.22589
0.225886
0.225955
0.225844
0.227195
0.232923
0.23151
0.225975
0.226371
0.23301
0.23301
0.23301
0.23301
0.23301
0.23301
0.233007
0.232998
0.232968
0.23285
0.232663
0.232516
0.232396
0.232235
0.232063
0.231966
0.231938
0.232021
0.232227
0.232541
0.23289
0.233002
0.23301
0.23301
0.23301
0.23301
0.23301
0.23301
0.23301
0.23301
0.23301
0.23301
0.23301
0.23301
0.23301
0.23301
0.23301
0.23301
0.233008
0.233009
0.233003
0.233006
0.232955
0.232975
0.232991
0.232999
0.232797
0.232858
0.232913
0.232537
0.232588
0.232727
0.232653
0.232319
0.232377
0.23243
0.232473
0.231566
0.231725
0.232248
0.232163
0.230539
0.230904
0.231512
0.231713
0.22804
0.228701
0.230187
0.229429
0.226389
0.226686
0.227053
0.2275
0.225704
0.225833
0.225996
0.226189
0.225403
0.225446
0.225529
0.22563
0.225465
0.225364
0.225364
0.225364
0.226077
0.225819
0.225589
0.22571
0.226478
0.226709
0.226457
0.226173
0.226629
0.226274
0.226032
0.226476
0.22657
0.226469
0.226343
0.22583
0.225849
0.225868
0.22581
0.22823
0.23299
0.23221
0.225984
0.226611
0.23301
0.23301
0.23301
0.23301
0.23301
0.233009
0.233003
0.232992
0.23293
0.232778
0.232597
0.232453
0.232311
0.232138
0.231987
0.231919
0.231934
0.232074
0.23234
0.232697
0.232972
0.233008
0.23301
0.23301
0.23301
0.23301
0.23301
0.23301
0.23301
0.23301
0.23301
0.23301
0.23301
0.23301
0.23301
0.23301
0.23301
0.23301
0.233009
0.23301
0.233005
0.233008
0.232935
0.23295
0.232984
0.233001
0.232992
0.232734
0.232841
0.232846
0.232524
0.232584
0.232602
0.232467
0.232345
0.232383
0.232183
0.23222
0.231896
0.232049
0.232292
0.232232
0.230831
0.231277
0.231747
0.231899
0.228007
0.228688
0.230218
0.229426
0.226423
0.226705
0.227057
0.227497
0.225735
0.225866
0.226014
0.226195
0.225395
0.225487
0.225577
0.225683
0.225233
0.225348
0.225227
0.225303
0.226047
0.225878
0.225277
0.22532
0.226355
0.226569
0.226413
0.226206
0.226532
0.226174
0.225978
0.226382
0.226471
0.226365
0.226237
0.225788
0.225823
0.22582
0.225722
0.228897
0.233008
0.232726
0.22602
0.227028
0.23301
0.23301
0.23301
0.23301
0.23301
0.233007
0.232998
0.232975
0.232879
0.232708
0.232532
0.232383
0.232223
0.232048
0.231929
0.231891