/*--------------------------------*- C++ -*----------------------------------*\
  =========                 |
  \\      /  F ield         | OpenFOAM: The Open Source CFD Toolbox
   \\    /   O peration     | Website:  https://openfoam.org
    \\  /    A nd           | Version:  dev
     \\/     M anipulation  |
\*---------------------------------------------------------------------------*/
FoamFile
{
    version     2.0;
    format      ascii;
    class       volScalarField;
    location    "2500";
    object      omega;
}
// * * * * * * * * * * * * * * * * * * * * * * * * * * * * * * * * * * * * * //

dimensions      [0 0 -1 0 0 0 0];

internalField   nonuniform List<scalar> 
9846
(
1.17753
1.19669
1.14512
1.14054
1.26028
1.05645
1.06439
1.27539
1.20056
1.01237
1.02491
1.25295
1.26294
1.08475
0.999673
1.00236
1.19025
1.28608
1.19209
1.01793
0.991376
0.984764
1.1067
1.28191
1.25478
1.07809
0.992581
0.987432
0.973441
1.04776
1.25778
1.27816
1.16948
1.01052
0.978383
0.986251
0.96737
1.00729
1.20406
1.28502
1.23497
1.06328
0.981505
0.968831
0.985921
0.964428
0.980568
1.13201
1.28082
1.26659
1.14194
0.999079
0.965633
0.96391
0.985832
0.964014
0.965194
1.06178
1.26107
1.27986
1.20713
1.04543
0.96978
0.953845
0.961775
0.985706
0.964631
0.954712
1.01374
1.21796
1.28683
1.2488
1.1117
0.986386
0.953597
0.946252
0.960845
0.985654
0.965655
0.948408
0.981659
1.15019
1.28391
1.27142
1.17539
1.02591
0.958305
0.941268
0.942143
0.96014
0.985757
0.966857
0.94511
0.962087
1.07757
1.26809
1.28193
1.22365
1.08362
0.973628
0.942046
0.931962
0.93998
0.959701
0.985883
0.967959
0.943871
0.950922
1.02383
1.23114
1.29216
1.25577
1.14156
1.00786
0.947286
0.929907
0.926021
0.938467
0.959674
0.986037
0.968875
0.944546
0.945238
0.987414
1.16809
1.29199
1.27647
1.19399
1.05527
0.961838
0.931237
0.919573
0.922648
0.937384
0.959731
0.986202
0.969938
0.946451
0.94204
0.965416
1.09436
1.28039
1.29032
1.2339
1.11063
0.989935
0.936775
0.919001
0.912327
0.920444
0.936828
0.95993
0.986384
0.971363
0.948781
0.940327
0.953013
1.03713
1.24867
1.30296
1.26453
1.1614
1.03054
0.950582
0.92075
0.908645
0.90785
0.918661
0.936676
0.960231
0.986579
0.973064
0.951323
0.939966
0.946421
0.998822
1.19092
1.30479
1.28677
1.20669
1.07875
0.974151
0.926805
0.90885
0.900597
0.904998
0.917503
0.936698
0.960565
0.986786
0.97507
0.953508
0.940697
0.943202
0.975006
1.11948
1.29664
1.30151
1.24326
1.13025
1.0074
0.940215
0.911316
0.898982
0.895087
0.902876
0.916939
0.936942
0.960917
0.987037
0.97725
0.955434
0.94258
0.942125
0.961237
1.05959
1.27142
1.31693
1.27354
1.1762
1.05075
0.960465
0.918311
0.89971
0.890609
0.8915
0.901328
0.916849
0.937375
0.961313
0.987317
0.979285
0.957321
0.945471
0.941974
0.953587
1.01912
1.22287
1.32347
1.29952
1.21699
1.09832
0.988679
0.931441
0.902921
0.890271
0.88439
0.889188
0.900456
0.917204
0.937921
0.961761
0.987622
0.981084
0.959206
0.948588
0.942442
0.949329
0.992309
1.15617
1.31959
1.31734
1.25319
1.14611
1.02565
0.949008
0.911047
0.891579
0.882439
0.880161
0.887753
0.90026
0.917891
0.938549
0.962266
0.987957
0.982664
0.961227
0.951281
0.943605
0.947438
0.97587
1.09323
1.30301
1.33631
1.28567
1.1894
1.06969
0.973224
0.923261
0.896028
0.882838
0.876288
0.87746
0.887196
0.900768
0.918796
0.939324
0.962808
0.988327
0.984041
0.963446
0.953129
0.945129
0.946994
0.966237
1.0486
1.26566
1.35105
1.31613
1.22796
1.11608
1.00484
0.939724
0.905337
0.88524
0.876029
0.871949
0.876186
0.887521
0.901936
0.91988
0.940279
0.963389
0.988708
0.985193
0.965737
0.954422
0.946731
0.947381
0.960671
1.01806
1.20786
1.35267
1.34053
1.26672
1.16115
1.04406
0.961414
0.918017
0.891798
0.877317
0.87096
0.869379
0.876084
0.888758
0.903642
0.921177
0.941356
0.964078
0.989118
0.986099
0.967807
0.955367
0.948556
0.947948
0.957684
0.998066
1.14384
1.34591
1.36298
1.30282
1.20423
1.08832
0.989846
0.934473
0.902631
0.881742
0.871736
0.867593
0.868489
0.877105
0.890828
0.905861
0.922811
0.942354
0.964788
0.989584
0.986863
0.969374
0.955974
0.950294
0.948015
0.955723
0.985398
1.09317
1.32473
1.38715
1.33815
1.24366
1.13462
1.02516
0.955411
0.916548
0.891359
0.875053
0.868055
0.866171
0.869193
0.879335
0.893554
0.908607
0.924989
0.943434
0.965344
0.98986
0.987536
0.970547
0.956246
0.951633
0.947793
0.954012
0.977179
1.05758
1.28249
1.40163
1.37181
1.2838
1.1794
1.06643
0.981901
0.933981
0.904376
0.883405
0.870811
0.866481
0.866693
0.871676
0.882724
0.896806
0.911775
0.927519
0.945003
0.966204
0.990108
0.987984
0.971423
0.9564
0.952249
0.947509
0.952636
0.971576
1.03204
1.2252
1.40299
1.4002
1.32609
1.22285
1.11188
1.01439
0.95584
0.920827
0.896168
0.87854
0.869064
0.867002
0.869417
0.876119
0.887264
0.900787
0.915238
0.929971
0.946519
0.966868
0.990086
0.988262
0.971774
0.956429
0.952045
0.946938
0.95139
0.967601
1.01459
1.16618
1.3971
1.43048
1.36743
1.26507
1.15851
1.05346
0.98297
0.9415
0.913088
0.892101
0.876683
0.86976
0.869898
0.874593
0.882498
0.893311
0.906013
0.919186
0.932622
0.948009
0.967214
0.989762
0.988481
0.97169
0.955988
0.951171
0.94618
0.950002
0.964528
1.00266
1.12067
1.37717
1.4603
1.40813
1.30677
1.20444
1.097
1.01595
0.967316
0.934991
0.91048
0.891601
0.877971
0.873235
0.875497
0.882054
0.890817
0.901389
0.912993
0.924535
0.936345
0.95012
0.967418
0.98905
0.988545
0.971329
0.955029
0.94994
0.945268
0.94822
0.96156
0.994278
1.08815
1.33498
1.47891
1.44809
1.353
1.24847
1.14372
1.05409
0.99833
0.962611
0.934806
0.912711
0.895179
0.882947
0.880165
0.88404
0.891505
0.901173
0.911909
0.922435
0.932345
0.942009
0.953066
0.967718
0.988157
0.988378
0.970625
0.953873
0.948359
0.944168
0.945503
0.957781
0.987851
1.06369
1.28127
1.48338
1.48603
1.40329
1.29301
1.19142
1.09694
1.03482
0.996188
0.966527
0.941916
0.920925
0.9037
0.894396
0.893661
0.897929
0.905269
0.914514
0.924177
0.933338
0.942161
0.950111
0.958117
0.969239
0.995611
0.984583
0.988098
0.96955
0.952417
0.946706
0.942607
0.941898
0.953152
0.981673
1.04569
1.22374
1.48004
1.52511
1.45384
1.33896
1.23904
1.14418
1.07648
1.03658
1.00826
0.98442
0.962709
0.947932
0.936912
0.932663
0.931856
0.932914
0.935722
0.939585
0.944013
0.949045
0.953817
0.9587
0.96404
0.974041
0.968374
0.995837
0.984929
0.98777
0.968202
0.950594
0.944998
0.940615
0.937964
0.948314
0.975385
1.0318
1.17546
1.46388
1.56146
1.5048
1.38918
1.28582
1.19343
1.12335
1.08421
1.06414
1.05531
1.05624
1.07296
1.09366
1.11279
1.11409
1.0956
1.06786
1.03925
1.0149
0.997305
0.983642
0.971511
0.964151
0.966573
0.967611
0.96655
0.969128
0.974816
0.970473
0.996081
0.985361
0.987363
0.966644
0.948695
0.942946
0.938345
0.933471
0.943298
0.96895
1.02055
1.13973
1.42505
1.58464
1.55342
1.44672
1.33306
1.24332
1.17248
1.13803
1.13856
1.18357
1.28812
1.45727
1.66908
1.84509
1.91256
1.86004
1.72648
1.56555
1.41521
1.2866
1.17873
1.07378
0.973809
0.995738
0.972847
0.97076
0.974385
0.974145
0.975884
0.973243
0.996474
0.986134
0.98691
0.964955
0.947031
0.94064
0.935747
0.928331
0.937862
0.962323
1.01204
1.11198
1.36929
1.59137
1.59986
1.50774
1.38309
1.29177
1.2228
1.19559
1.23119
1.38703
1.76078
2.36061
3.04852
3.67295
4.03517
4.07465
3.84625
3.42902
2.9396
2.4775
2.08372
1.71485
1.06223
1.2817
0.990485
1.04463
0.988864
0.974696
0.985271
0.982066
0.977757
0.976973
0.997069
0.987325
0.986457
0.963423
0.94568
0.93842
0.932726
0.922959
0.931878
0.955395
1.00406
1.0892
1.309
1.58789
1.64465
1.56774
1.43606
1.33886
1.27265
1.25557
1.34216
1.65442
2.38218
3.48285
4.65109
5.45457
5.85412
5.98188
5.92843
5.74367
5.4485
5.10941
4.7191
4.2462
1.92
3.75844
1.22415
1.80219
1.03302
1.18507
1.02014
0.980602
1.0078
0.997445
0.980902
0.9817
0.997875
0.989102
0.985985
0.962091
0.944557
0.936781
0.928656
0.917544
0.925791
0.948126
0.995772
1.07195
1.25134
1.56904
1.68174
1.62589
1.49623
1.3855
1.31985
1.31412
1.46173
1.96513
3.03213
4.51255
5.69453
6.29354
6.57364
6.71141
6.77905
6.79065
6.74376
6.67946
6.67819
6.80631
5.68119
7.11385
3.48424
5.76962
1.69359
3.19869
1.1425
1.57351
1.10133
0.990757
1.06355
1.03252
0.985445
0.988804
0.998737
0.991953
0.985497
0.960978
0.943706
0.935486
0.923233
0.91188
0.919707
0.940906
0.987154
1.05961
1.20311
1.52287
1.69902
1.67725
1.56323
1.43482
1.36462
1.36547
1.56942
2.26608
3.64095
5.26021
6.20538
6.59913
6.76293
6.8261
6.85151
6.90663
6.97776
7.08132
7.27037
7.63513
7.69409
8.12896
7.21996
7.94309
5.66026
7.26419
2.87566
5.48705
1.44627
2.53001
1.32397
1.0113
1.21316
1.12208
0.991663
1.00086
0.999497
0.996601
0.985061
0.960254
0.943306
0.934107
0.91794
0.905893
0.913525
0.933601
0.978806
1.04977
1.16748
1.46049
1.69939
1.72354
1.63074
1.48798
1.40647
1.40772
1.64416
2.50442
4.13093
5.71879
6.41964
6.65038
6.70244
6.67446
6.65224
6.6791
6.78579
6.96148
7.20603
7.61572
8.15652
8.15977
8.33624
8.46386
8.11741
8.5739
7.31067
8.29659
5.18274
7.30657
2.21383
4.67961
1.90435
1.05914
1.60651
1.35625
0.999332
1.02451
1.00043
1.0018
0.984916
0.960327
0.943534
0.932672
0.91352
0.899892
0.907648
0.926215
0.970199
1.04074
1.13984
1.39012
1.68854
1.76287
1.69342
1.54677
1.44662
1.44139
1.68177
2.63658
4.45636
5.94009
6.46534
6.59309
6.49777
6.28128
6.20402
6.27796
6.45362
6.66014
6.92615
7.355
8.04872
7.91613
8.47832
8.4404
8.79224
8.88193
8.84863
9.16162
8.46671
9.13705
7.20078
8.60094
4.01105
6.93969
3.20789
1.17948
2.49573
1.923
1.01087
1.07701
1.00169
1.006
0.985695
0.96199
0.944649
0.931099
0.908923
0.893736
0.902184
0.919761
0.961188
1.03077
1.11811
1.32418
1.65304
1.78459
1.74691
1.61399
1.48879
1.46717
1.69214
2.65814
4.60524
6.02863
6.44019
6.46055
6.17828
5.97042
5.9612
6.0386
6.20084
6.46927
6.87856
7.34423
7.82434
7.83066
8.35415
8.3138
8.90016
8.9108
9.34303
9.46225
9.56241
9.86441
9.43135
9.99773
8.67445
9.71526
6.47066
8.65216
5.59736
1.48462
4.39262
3.10264
1.03015
1.20754
1.00209
1.0108
0.988517
0.966146
0.946879
0.929227
0.903472
0.887572
0.896556
0.914338
0.953222
1.01968
1.1003
1.26817
1.59061
1.78569
1.78851
1.68317
1.53609
1.48921
1.68301
2.63717
4.62016
6.03131
6.37097
6.26927
5.89583
5.78119
5.81002
5.9245
6.15545
6.48907
6.94371
7.53981
7.88622
8.03156
8.33289
8.41436
8.93273
8.98747
9.56672
9.68131
10.106
10.3349
10.4496
10.8508
10.4684
11.1082
9.96986
10.9722
8.45406
10.1655
7.97595
2.19087
7.05628
5.46236
1.07374
1.55452
1.00172
1.02015
0.995621
0.973521
0.950522
0.926724
0.897526
0.881876
0.890645
0.909213
0.946606
1.00883
1.08376
1.22252
1.51897
1.77525
1.82165
1.74584
1.58907
1.51004
1.65435
2.5641
4.58054
6.0123
6.28488
6.07019
5.6296
5.53198
5.70186
5.86199
6.12735
6.46551
6.9291
7.62062
8.65595
8.55092
8.8774
9.10478
9.26491
9.82955
10.018
10.5866
10.8752
11.2392
11.6774
11.7036
12.3131
11.8403
12.6796
11.4715
12.6395
10.2529
11.9273
10.1623
3.64576
9.69172
8.6011
1.19792
2.39745
1.00159
1.05438
1.01454
0.986356
0.956668
0.924222
0.89173
0.876808
0.885062
0.904053
0.940962
0.998836
1.06848
1.18558
1.44541
1.74174
1.83778
1.79642
1.65008
1.5346
1.61212
2.39249
4.45739
5.97503
6.2212
5.90581
5.39245
5.22564
5.43405
5.71806
6.00708
6.32806
6.7417
7.45532
8.58858
9.63642
9.657
9.44515
9.5533
10.2068
10.3743
11.1737
11.4387
12.1335
12.5668
12.9314
13.5452
13.5035
14.2773
13.7276
14.7351
13.4267
14.7729
12.2962
14.1279
12.4981
6.50618
12.4232
11.7837
1.57159
4.1543
1.00747
1.18336
1.06894
1.01633
0.968617
0.922808
0.885851
0.872387
0.880124
0.899223
0.93657
0.989593
1.05441
1.15497
1.37548
1.68099
1.83654
1.82931
1.71562
1.56794
1.57957
2.16994
4.18258
5.9185
6.18765
5.82066
5.25373
5.02953
5.09257
5.40533
5.80173
6.20551
6.745
7.46654
8.59943
9.67141
9.69023
10.5446
10.5254
10.4824
10.5469
11.6379
11.7571
12.914
13.1471
14.0483
14.4493
14.9409
15.4539
15.5729
16.2086
15.902
16.7266
15.7154
16.9181
14.6999
16.4907
15.0722
10.2927
15.1535
14.8365
2.54971
7.52286
1.03245
1.54159
1.18777
1.10791
1.00171
0.927665
0.880501
0.868502
0.875799
0.895043
0.933271
0.980854
1.0412
1.12922
1.31286
1.60954
1.82256
1.84967
1.77412
1.61049
1.5646
1.94848
3.76596
5.82339
6.17667
5.80852
5.21926
4.97199
4.88897
5.06499
5.59912
6.27216
7.02033
7.73099
8.75946
9.75785
9.72394
10.5085
10.5164
11.7107
11.6342
11.7929
11.7712
13.2705
13.2872
14.6883
14.7642
15.7761
15.85
16.5895
16.7023
17.2646
17.4843
17.707
18.1332
17.7612
18.5441
17.0782
18.4281
17.4485
13.8646
17.583
17.4085
4.40439
11.6787
1.07792
2.28897
1.23546
1.25346
1.09217
0.950116
0.877433
0.864909
0.872099
0.891603
0.93029
0.972581
1.02788
1.10686
1.25908
1.53333
1.78402
1.85434
1.81554
1.66225
1.56221
1.76798
3.2512
5.64194
6.18052
5.8249
5.23115
4.97988
4.86224
4.84961
5.29208
6.26264
7.27628
8.33663
9.29272
10.5195
10.561
10.7877
11.5986
11.602
13.0073
12.8981
13.2464
13.1413
14.7132
14.5766
15.7801
15.5973
16.6354
16.4429
17.4587
17.3158
18.2455
18.1899
18.9344
19.0587
19.2422
19.7012
18.9425
19.852
19.3012
16.8683
19.4891
19.5051
7.49307
15.5208
1.57947
5.08845
1.27613
1.23449
1.01999
0.880521
0.861122
0.86867
0.889178
0.926591
0.964343
1.01383
1.08585
1.21369
1.45795
1.72262
1.84893
1.83885
1.71994
1.5689
1.65216
2.70403
5.28934
6.18683
5.88584
5.28399
5.02796
4.889
4.80333
4.91465
5.89605
7.17984
8.40542
9.60229
10.9131
11.8895
12.0954
11.6398
11.7532
12.8508
12.8529
13.983
13.8358
14.3773
14.1714
15.3345
15.0545
16.1459
15.8043
17.0089
16.6289
17.9926
17.651
19.0512
18.9335
20.0043
20.2523
20.4675
21.0809
20.3801
21.1957
20.7839
19.3271
21.0922
21.2907
13.1878
18.6972
2.11766
9.1164
1.23599
1.15581
0.906353
0.856504
0.864493
0.886782
0.921375
0.954912
0.998172
1.06469
1.17479
1.38749
1.6523
1.82865
1.84422
1.76995
1.59605
1.58521
2.21766
4.68599
6.17163
6.0247
5.40199
5.14123
4.98
4.82854
4.69562
4.94241
6.21531
7.93306
9.46004
10.8768
12.2199
12.1226
13.0099
12.9528
12.8912
12.985
13.7371
13.6695
14.3038
14.1341
14.7772
14.5211
15.4575
15.1154
16.2084
15.7671
17.24
16.77
18.6981
18.3729
20.4342
20.5062
21.8434
22.591
22.2083
23.6154
21.8451
23.2485
22.2836
21.3632
22.66
22.8788
22.1414
17.9385
21.2796
3.23422
15.969
1.20094
0.989499
0.855399
0.857685
0.881845
0.914222
0.944059
0.980813
1.04229
1.14003
1.32421
1.57791
1.78219
1.84098
1.80133
1.63972
1.5512
1.87714
3.86914
6.07925
6.16991
5.5584
5.28969
5.11869
4.91179
4.59964
4.3854
4.84368
6.22941
8.25243
10.0334
11.5634
12.7925
12.4486
13.4033
13.1582
13.6153
13.5383
14.0039
13.8883
14.2411
14.0186
14.7921
14.498
15.3065
14.8502
16.2564
15.7225
17.9448
17.42
20.4326
20.1633
23.1423
23.3717
25.1375
26.1725
25.3088
27.4503
24.0254
26.5642
25.1383
23.3245
24.3991
23.0417
22.3083
23.151
23.6194
24.647
24.5722
23.7596
22.9587
23.3725
23.5584
22.8621
9.9448
28.9699
1.11426
0.876971
0.84438
0.870313
0.903215
0.931075
0.963832
1.01876
1.1077
1.26802
1.50415
1.72243
1.82744
1.81435
1.6895
1.54459
1.67593
3.01389
5.78353
6.26531
5.73397
5.4387
5.27609
4.9693
4.57057
4.22444
4.18761
4.70453
5.88987
7.56181
8.80237
11.0696
9.32447
12.8177
12.0831
13.2619
12.7108
13.7609
13.5765
13.8071
13.5649
13.6541
13.2951
14.4173
14.0204
15.174
14.6201
16.8089
16.1469
19.7061
19.1106
23.2541
22.8503
26.5294
26.3819
28.7386
28.3221
28.3436
27.6827
28.8388
29.9426
29.4472
27.1087
25.6848
27.3921
28.4026
25.8799
23.909
24.0845
24.6812
25.9537
25.9375
24.7629
24.2435
25.2994
24.8546
24.3588
24.6983
34.4545
26.5591
29.4927
33.8051
0.941663
0.83804
0.849687
0.88581
0.91598
0.946241
0.996123
1.07672
1.21834
1.43403
1.65625
1.79528
1.81267
1.73069
1.55238
1.56017
2.31924
5.04222
6.27745
5.93399
5.57663
5.43482
5.09919
4.62277
4.24975
4.05561
4.04139
4.40898
5.12676
5.65285
5.78736
8.81871
6.82452
11.9298
10.5605
12.0709
11.0163
13.2423
12.7825
12.904
12.4273
12.9853
12.4567
14.0671
13.5176
15.4618
14.7721
18.396
17.6194
22.2792
21.611
25.9097
25.3549
28.1373
27.9522
27.6772
27.4686
29.9003
29.7848
29.2874
28.8458
29.4744
30.2234
30.4335
30.49
28.8219
27.4905
29.1181
30.0301
27.583
24.8757
25.0548
25.9389
27.5646
27.5063
25.9327
25.2879
25.7003
25.3278
25.6564
34.8651
65.9356
53.7072
26.8383
28.9216
0.870609
0.832562
0.862905
0.896162
0.929286
0.972841
1.04861
1.17374
1.36974
1.58754
1.74876
1.80041
1.75607
1.58051
1.49161
1.86051
3.97041
6.19543
6.14409
5.69931
5.57186
5.31399
4.88534
4.45842
4.11182
3.92061
3.85017
3.96801
4.11793
4.31097
5.25115
4.42745
6.99353
5.84422
9.69751
8.28519
10.1739
9.31196
11.8165
11.0204
11.91
11.3253
12.8349
12.2372
14.0985
13.4534
16.8117
15.9835
20.8333
19.9721
24.8243
24.311
27.2886
27.2144
27.177
27.1985
28.5117
28.2052
28.0191
27.978
30.0468
29.3952
29.3321
28.852
30.7819
30.987
30.1559
30.7973
30.4143
29.2603
30.6613
31.181
29.3139
25.9738
26.0826
27.411
29.268
29.1764
27.3067
25.9948
26.0999
26.2362
26.3609
34.5498
85.9628
72.9061
26.5744
27.5427
0.851222
0.837979
0.87652
0.908378
0.953262
1.02108
1.13565
1.31057
1.52054
1.69377
1.77293
1.76095
1.62378
1.4727
1.60991
2.9229
5.87003
6.24889
5.82298
5.6793
5.49175
5.2013
4.87536
4.44322
4.02101
3.77954
3.6042
3.47194
3.58021
3.79045
4.77888
4.27208
6.38408
5.4845
8.43522
7.42423
9.49502
8.91916
10.7162
10.1115
11.6563
11.0909
13.6539
12.9875
15.1643
14.3813
19.0395
18.0413
23.6699
22.723
27.2456
27.2311
27.1875
27.0683
28.0873
28.3332
28.6789
29.0712
28.423
28.2934
28.3816
28.7525
29.2785
28.7608
28.497
28.3847
31.3538
31.0366
29.0391
30.1252
31.4589
30.8088
31.6386
31.6209
30.8576
27.2379
27.1971
29.0324
30.8336
30.7689
28.8644
26.3338
26.0288
27.1271
26.9464
37.4383
88.7819
76.8801
25.8356
26.8965
0.848441
0.849621
0.892946
0.930966
0.999737
1.09928
1.26032
1.45485
1.63525
1.73658
1.75394
1.65995
1.47794
1.4732
2.16171
4.92982
6.24329
5.98577
5.75016
5.62893
5.42124
5.20198
4.94378
4.50048
3.94438
3.57982
3.25225
3.14931
3.29429
3.7724
3.40609
4.58773
4.05817
6.18099
5.25798
8.25846
7.27432
9.78483
9.38104
10.5767
10.1216
12.3893
11.8511
15.138
14.2981
17.0297
16.0501
21.5485
20.2306
27.6434
26.473
29.4368
29.6496
29.6717
29.4408
29.3335
30.0599
30.8577
31.6328
28.3574
28.6717
29.3516
30.2853
28.2739
28.2681
28.1268
28.3629
31.1649
30.1232
28.1699
28.8535
31.8077
31.7487
31.9439
31.317
31.8068
28.6822
28.4604
30.6564
31.8448
31.8745
30.4967
26.5219
25.702
28.1501
27.6622
40.5611
69.6021
74.4864
25.1925
27.2246
0.853274
0.86866
0.920582
0.975654
1.07308
1.21155
1.39694
1.57298
1.69457
1.73249
1.6839
1.49892
1.39405
1.70336
3.58398
6.09078
6.13684
5.80702
5.72692
5.56727
5.43018
5.29437
5.03798
4.53931
3.80726
3.25571
2.95362
2.90209
3.00476
3.53121
3.25809
4.34049
3.89309
6.01389
5.04132
8.51638
7.26736
10.4171
9.65829
11.4038
10.9791
13.5345
12.8328
16.3839
15.2817
18.889
17.5871
24.7419
22.8226
32.3852
31.5864
29.443
30.6849
32.2925
32.745
32.8827
32.7871
31.3886
32.5621
33.7072
34.7242
28.9816
29.9799
31.2503
32.6869
28.109
28.4561
28.6248
29.3586
30.1919
28.7814
28.1992
28.1868
31.4805
32.0553
31.6616
30.3477
32.1625
30.2642
29.9529
31.8935
32.2718
32.4068
31.9253
26.8498
25.6651
29.4897
28.6763
44.7699
68.8095
70.3472
25.2154
28.8115
0.868813
0.903735
0.965321
1.04344
1.17617
1.33911
1.51467
1.64453
1.69999
1.68401
1.5359
1.37561
1.47142
2.50651
5.55736
6.16487
5.90247
5.77227
5.66813
5.57678
5.52483
5.39324
5.11066
4.53349
3.52903
2.95891
2.66765
2.67989
3.01805
2.78546
3.42826
3.1787
4.10568
3.69896
5.65808
4.7135
8.51901
6.9956
10.5753
9.57374
12.1329
11.3706
14.2691
13.3082
17.6092
16.1382
20.9753
19.2132
28.3097
26.9738
25.7986
35.1062
34.0547
31.2875
32.7449
35.5186
35.9725
36.0561
35.786
34.1776
35.6287
36.9443
38.0363
30.6532
32.2151
33.9151
35.6529
28.9117
29.7963
30.2706
31.3625
28.8491
28.32
29.1672
28.3675
30.5753
31.8658
30.8652
29.0359
32.099
31.9228
31.7234
32.6167
32.3828
32.7082
32.9378
27.4856
26.0733
31.0412
29.9561
48.5643
62.5367
73.1136
25.9169
31.1343
0.90377
0.949417
1.02786
1.13896
1.2936
1.4545
1.59362
1.66233
1.67441
1.56665
1.3808
1.34233
1.83574
4.18394
6.09079
6.03641
5.79968
5.73507
5.66541
5.66769
5.62458
5.49008
5.13379
4.39912
3.22454
2.64121
2.46197
2.55534
2.91041
2.73568
3.33977
3.11599
3.93952
3.61243
5.16554
4.41581
8.02376
6.35448
10.2813
8.86498
12.3346
11.3657
14.7752
13.513
19.4805
17.7281
23.4767
21.362
29.8151
28.3734
27.6413
26.1674
37.4615
35.9964
32.4487
34.2656
38.8168
39.1237
39.0739
38.5248
37.3393
38.8978
40.2519
41.3172
33.1551
35.0628
36.9855
38.8544
30.7394
32.0825
32.8087
34.0834
28.5071
28.558
31.2055
29.4205
29.3177
31.2078
29.6937
28.7321
31.6077
33.3375
33.3273
33.1731
32.1356
32.8711
33.8087
28.6962
27.1999
32.5293
31.5573
53.1547
57.5926
80.8136
27.4399
33.6384
0.947473
1.0097
1.11369
1.24847
1.40176
1.53845
1.62172
1.64975
1.58926
1.40011
1.27629
1.4763
2.83132
5.72513
6.07357
5.854
5.76027
5.71868
5.74283
5.76833
5.73053
5.5637
5.12317
4.14418
2.83992
2.39075
2.34556
2.56744
2.398
2.86974
2.68907
3.29673
3.06173
3.87215
3.55853
4.87237
4.28303
7.16854
5.77064
9.99387
8.49796
12.3292
11.2046
16.0847
14.5622
21.1184
19.4886
25.1329
23.9545
22.8387
30.6697
29.0456
27.6824
26.44
39.4002
37.3902
32.8366
35.1239
41.9933
42.1226
41.8896
40.9317
40.6055
42.1824
43.5118
44.5101
36.1623
38.247
40.2663
42.1771
33.5339
35.0222
35.9781
37.2752
28.7548
29.6247
34.1862
31.5749
29.0064
30.2416
29.4097
28.9577
31.0204
34.3374
34.5198
33.7615
32.019
33.0952
34.5232
30.3764
28.8302
34.214
33.4168
58.7262
65.9296
89.9349
29.0155
35.2025
1.00087
1.09109
1.21184
1.35096
1.48419
1.5783
1.61603
1.58893
1.43279
1.26833
1.30256
1.96003
4.59567
6.0237
5.96621
5.7727
5.74196
5.76933
5.84121
5.87754
5.82828
5.59619
5.03237
3.69154
2.48703
2.2237
2.22635
2.49942
2.3757
2.82661
2.65692
3.26537
3.03447
3.84705
3.53444
4.77667
4.24046
6.86258
5.57003
10.2968
8.59889
13.1344
11.76
17.9665
16.5046
22.3159
21.4664
20.6471
25.4131
24.4421
23.0494
23.914
30.8201
29.1149
27.4467
26.4353
41.0132
38.3497
32.673
35.4344
45.0152
45.0437
44.4814
43.1286
43.9195
45.4622
46.7639
47.7112
39.5208
41.7039
43.7719
45.6782
36.9323
38.449
39.691
40.8861
29.7115
31.6449
37.6242
34.4893
29.2608
30.0698
29.7945
29.8244
31.0733
35.2805
36.0909
34.317
32.3191
33.8551
35.5582
32.2166
30.35
36.0713
35.2816
58.8614
96.2163
87.8142
30.2246
34.9228
1.07344
1.18287
1.3034
1.43321
1.52888
1.57966
1.57931
1.45829
1.27482
1.20095
1.48552
3.06852
5.71999
5.99043
5.80641
5.74112
5.76992
5.85626
5.95209
5.98669
5.90994
5.59718
4.80522
3.0904
2.21321
2.10526
2.242
2.12328
2.47313
2.33439
2.80183
2.61986
3.24703
3.00664
3.84099
3.52383
4.76643
4.23677
6.85455
5.5397
11.802
9.67397
15.0605
13.547
19.1615
17.7087
22.8716
22.0847
21.7961
20.863
25.5666
24.7455
23.6203
24.3254
30.4381
28.7333
26.9206
26.2236
42.6551
39.2216
32.1504
35.4764
48.0522
47.965
47.1151
45.3271
47.4386
49.0119
50.2847
51.1356
43.2597
45.5173
47.6069
49.5658
40.811
42.4013
43.9679
45.0169
31.5922
34.5486
41.7126
38.0335
30.2018
30.7131
31.0368
31.7306
32.0021
37.1155
37.9934
35.6474
33.616
35.7253
37.8974
33.9343
31.7185
37.9997
37.1093
49.9652
94.3889
66.012
30.6127
32.5654
1.15345
1.26924
1.37742
1.48463
1.53474
1.55783
1.47733
1.29602
1.16425
1.25829
2.03659
4.70398
5.93777
5.89702
5.73697
5.76029
5.84944
5.96593
6.06817
6.08898
5.95811
5.52814
4.3862
2.48764
2.06032
2.02889
2.19731
2.11043
2.44132
2.31414
2.77937
2.59953
3.23555
2.99073
3.8605
3.52201
4.87617
4.29684
7.38952
5.72999
12.6983
10.3391
16.2099
14.5898
20.1018
19.1623
18.0643
23.4162
22.6476
22.1576
21.3029
25.6188
25.0021
24.1153
24.7139
29.5079
27.9246
26.3025
25.9692
44.4506
40.3914
31.6247
35.8757
51.3237
51.0942
49.8445
47.6646
51.3861
52.967
54.2073
54.8839
47.5204
49.8412
52.009
54.0746
45.4305
46.9983
49.0383
49.8563
34.788
38.57
47.154
42.7404
32.601
32.2799
33.4814
35.3818
33.85
39.4677
40.377
38.8227
36.2831
40.1637
41.0604
35.5758
32.6761
40.369
39.1978
39.1012
98.4857
65.0589
30.4957
31.3817
1.2244
1.34223
1.42622
1.49888
1.52088
1.47849
1.32348
1.16448
1.1402
1.48229
3.15502
5.62743
5.90792
5.75411
5.72263
5.82534
5.95669
6.08644
6.18306
6.1788
5.96778
5.33373
3.64968
2.12547
1.96572
1.99292
2.18215
2.08677
2.42517
2.2943
2.75992
2.57816
3.22412
2.9727
3.86466
3.51791
4.97165
4.33941
7.73213
5.88696
12.7166
10.3047
16.4286
14.6941
20.4036
19.4939
17.3885
18.5428
23.695
22.9728
22.3255
21.4756
25.6499
25.2285
24.3308
24.866
28.4723
26.9649
25.693
25.6121
46.4797
41.7737
31.6189
36.578
54.984
54.4368
52.8803
50.2268
55.9268
57.4839
58.6504
59.1227
52.5412
54.9887
57.3321
59.5002
51.4999
52.4521
55.6145
55.6796
39.056
43.4061
53.6277
48.3694
35.6691
34.8512
36.9222
39.0317
37.5115
42.9806
43.8463
43.1807
42.3301
46.3466
46.4364
36.8842
33.282
43.2552
41.0341
38.5801
81.7045
73.9113
30.7126
32.139
1.28263
1.39268
1.44449
1.49134
1.47052
1.34471
1.17236
1.07926
1.21228
2.0474
4.58908
5.83712
5.82499
5.691
5.76445
5.92636
6.07728
6.21093
6.29312
6.24174
5.92129
4.9376
2.70902
1.94814
1.92308
2.00854
2.07643
1.95286
2.17245
2.41587
2.28629
2.74856
2.56875
3.2078
2.96008
3.85485
3.50139
4.9686
4.3365
7.68485
5.86974
12.0677
9.73166
15.9929
14.1179
20.5459
19.5774
17.4985
18.6195
23.7872
23.1106
22.5004
21.6453
25.5217
25.2872
24.3551
24.7459
27.8079
26.1242
25.122
25.0565
48.9246
43.5976
32.0239
37.6924
59.1135
58.2839
56.3064
53.2218
61.3663
62.8786
63.9161
64.1764
58.7539
61.5619
64.1226
66.397
58.8982
59.5407
64.0322
63.4134
43.6292
49.5529
64.4769
56.5992
40.3584
40.0019
44.3988
45.6143
45.921
48.2282
48.0505
51.3344
51.2489
58.0825
54.12
38.0864
34.7683
46.1836
43.4106
42.678
73.6807
84.0116
31.731
35.0069
1.32523
1.41275
1.44125
1.45406
1.35553
1.19445
1.06774
1.08596
1.45133
3.08138
5.46656
5.82216
5.70592
5.67513
5.85554
6.04541
6.20415
6.3366
6.39304
6.26138
5.75466
4.20463
2.14268
1.85601
1.90606
2.07195
2.00013
1.95785
2.16906
2.41289
2.28338
2.74442
2.56546
3.20145
2.95548
3.85207
3.49524
4.89851
4.31074
7.36124
5.7197
10.7745
8.801
16.1465
14.6055
12.8777
20.7065
19.6876
17.5225
18.8856
23.8094
23.2532
23.2116
22.3066
25.0757
24.9932
24.2209
24.4473
27.5298
25.6751
24.9312
24.7656
52.0857
46.1569
33.1365
39.5227
64.0381
62.8096
60.4668
56.8759
68.318
69.7895
70.5302
70.692
67.1477
70.5237
73.4501
75.9557
72.6023
69.1165
79.7525
74.3053
52.9922
62.6097
87.4213
74.3948
50.9214
51.4645
58.8689
60.3248
58.2031
54.4361
52.92
61.6655
66.7314
70.5468
62.5072
40.5361
36.4314
50.4635
46.9258
49.5879
48.7883
94.67
34.5127
40.7585
1.34529
1.41148
1.41791
1.35552
1.21541
1.07105
1.0137
1.16341
1.99033
4.30135
5.71046
5.75782
5.6388
5.72348
5.9769
6.17442
6.335
6.45988
6.47146
6.23088
5.38345
3.05082
1.90688
1.81276
1.90242
2.07077
1.99984
1.95664
2.16917
2.41518
2.28473
2.74699
2.56804
3.2013
2.95787
3.86505
3.49718
4.81246
4.2932
6.9341
5.55005
9.90294
7.89362
16.6013
14.9755
11.5529
13.5931
21.2955
20.1039
18.298
20.0745
24.2301
23.8182
25.1056
24.258
24.6883
24.5918
24.4134
24.5402
27.7714
25.609
25.2478
24.9469
56.3135
49.9208
35.4568
42.436
70.2281
68.6118
65.7661
61.6841
78.007
79.3407
79.8752
79.8823
79.3928
83.9868
87.9002
91.0476
103.138
86.538
117.418
94.084
73.55
92.1966
162.624
120.158
70.2942
67.5983
83.8506
87.651
77.8866
61.3292
58.7223
71.5543
81.5835
82.6988
70.55
42.4259
39.8886
54.6604
49.6251
55.285
35.8039
81.0766
39.0081
43.9119
1.34606
1.39329
1.34897
1.23193
1.08135
0.990289
1.03166
1.39309
2.87943
5.21183
5.73326
5.65775
5.61315
5.82592
6.10896
6.31062
6.47023
6.57437
6.50182
6.08152
4.63792
2.21262
1.79681
1.79511
1.93676
1.95814
1.87191
2.07426
2.00403
2.1775
2.42793
2.29656
2.76242
2.58205
3.21985
2.97455
3.88722
3.52526
4.79485
4.2978
6.55128
5.48785
12.3267
10.9943
8.84768
7.59272
17.9719
15.6401
14.8232
23.1636
21.6163
20.3546
22.7641
25.7215
25.5078
28.4805
27.7123
24.7725
24.6595
25.7418
25.776
28.8408
26.1623
26.5871
26.1747
62.2109
55.6414
39.7289
47.0338
78.6658
76.4617
72.9668
68.3083
93.3188
94.5191
94.9455
94.1524
103.087
109.687
115.738
118.916
195.645
135.158
199.437
162.369
115.595
156.378
190.879
196.788
113.504
97.9881
139.15
159.342
102.675
67.9792
63.8956
82.2354
104.964
105.275
80.4468
47.0182
43.6237
59.0173
56.6979
63.1431
25.2662
72.4324
41.7409
49.2455
1.33506
1.3365
1.23754
1.10209
0.989726
0.962736
1.10953
1.87005
3.88506
5.54212
5.6799
5.5863
5.65206
5.9702
6.25153
6.45384
6.60916
6.66741
6.48091
5.71777
3.34037
1.89992
1.74404
1.78759
1.96348
1.93282
1.88464
2.08404
2.01114
2.19048
2.44502
2.31109
2.78849
2.60247
3.25924
3.00476
3.92422
3.57518
4.83875
4.36151
6.27725
5.45621
13.7858
12.4676
9.5689
6.93186
8.22385
20.9066
17.7578
17.3341
26.675
24.8344
24.0336
26.9947
28.7968
28.6829
33.0975
32.2611
25.9736
25.844
28.7513
28.7563
31.3781
27.8389
29.4578
28.9752
70.6483
64.5274
47.0975
54.3433
90.9887
87.711
83.0837
78.0605
121.446
122.549
122.903
119.682
198.2
193.816
201.106
197.273
464.794
215.733
473.809
228.326
193.601
208.735
464
463.122
184.274
145.691
192.213
179.526
149.959
77.3029
72.5209
104.234
151.92
152.682
102.035
50.4247
47.1039
72.4285
62.1536
62.0137
8.71385
71.6251
46.5974
50.1583
1.29781
1.23689
1.1215
0.994663
0.933695
0.983541
1.31214
2.59276
4.79508
5.62054
5.60089
5.54699
5.74306
6.1303
6.40535
6.60372
6.74098
6.70668
6.3348
4.93902
2.26748
1.76428
1.71986
1.78103
1.96896
1.94059
1.88769
2.09482
2.01989
2.20472
2.46655
2.32952
2.8193
2.62896
3.30912
3.04291
3.97928
3.63227
4.91649
4.49557
6.2124
5.39017
16.4081
14.8452
10.8041
7.33658
8.98474
24.7745
21.0895
20.6315
31.2588
29.3812
28.2605
31.3604
33.6175
33.3258
38.3133
37.0656
28.8212
28.7824
33.6925
33.7523
36.4124
31.739
34.6093
33.72
83.0099
77.7642
58.8609
65.8432
112.936
105.163
97.5695
93.4137
192.86
186.765
178.64
171.414
421.098
434.46
422.489
426.6
853.542
460.849
864.702
464.274
473.193
475.339
850.685
867.255
473.476
201.883
471.684
461.736
207.692
96.3938
101.9
153.959
211.299
218.664
150.641
57.7094
53.6146
81.1751
76.2823
67.2783
7.02873
61.575
48.9763
52.7775
1.22401
1.13332
1.01124
0.929913
0.922233
1.0549
1.70926
3.41455
5.28972
5.59065
5.52715
5.56802
5.89363
6.30321
6.57016
6.75767
6.84421
6.68645
5.94975
3.48673
1.88533
1.6999
1.70525
1.76716
1.89072
1.97559
1.94473
2.10778
2.02802
2.22241
2.49108
2.35038
2.85649
2.65887
3.36713
3.09113
4.07438
3.70169
4.93046
4.58938
6.21445
5.37812
19.3243
17.2368
12.5831
7.66758
9.99866
28.2343
24.5387
23.3448
35.7405
33.843
31.7049
34.8544
39.7815
38.9551
43.7096
41.8697
33.5874
33.7054
40.1503
40.284
45.8793
39.4018
43.4784
40.9908
102.891
96.4633
76.405
82.912
157.512
143.68
119.816
116.77
413.345
415.917
406.077
408.692
815.176
814.191
798.694
804.945
2461.23
810.669
2515.63
825.711
872.008
872.009
2438.98
2468.26
888.073
480.52
878.836
861.367
484.02
157.671
111.561
219.288
482.956
496.156
212.342
65.8187
56.299
106.506
84.0271
79.7344