/*--------------------------------*- C++ -*----------------------------------*\
  =========                 |
  \\      /  F ield         | OpenFOAM: The Open Source CFD Toolbox
   \\    /   O peration     | Website:  https://openfoam.org
    \\  /    A nd           | Version:  dev
     \\/     M anipulation  |
\*---------------------------------------------------------------------------*/
FoamFile
{
    version     2.0;
    format      ascii;
    class       volScalarField;
    location    "2500";
    object      p_rgh;
}
// * * * * * * * * * * * * * * * * * * * * * * * * * * * * * * * * * * * * * //

dimensions      [1 -1 -2 0 0 0 0];

internalField   nonuniform List<scalar> 
9846
(
0.00417276
0.00573347
0.00500907
0.00554064
0.00834149
0.00452478
0.00530389
0.0104616
0.0084031
0.00351363
0.00567378
0.011404
0.0117668
0.00789099
0.002993
0.00533565
0.0109072
0.0133085
0.0114593
0.00673776
0.00281875
0.00471293
0.0108112
0.0141459
0.0136868
0.0104695
0.00581374
0.00243873
0.00502798
0.0107416
0.0143491
0.01522
0.0131437
0.00905618
0.0053857
0.00221727
0.00486843
0.00988602
0.0142578
0.0163144
0.0151475
0.0122446
0.00809538
0.0049659
0.00180334
0.00461854
0.00914962
0.0134089
0.016655
0.0168961
0.0145099
0.0109333
0.0074709
0.0046407
0.00162506
0.00434382
0.00829132
0.0123373
0.0168137
0.0178641
0.0165991
0.0134468
0.00967447
0.00681824
0.00427679
0.00146873
0.00427745
0.00790049
0.0122993
0.0165708
0.0183707
0.0179314
0.0156753
0.0121686
0.00921284
0.00639285
0.00396
0.00138671
0.00390086
0.00779697
0.0117637
0.0157859
0.0185484
0.0190386
0.0174289
0.0146483
0.0112895
0.00850432
0.00609044
0.00371814
0.00126526
0.0038722
0.0074289
0.0109905
0.0148298
0.0182767
0.0197375
0.0191234
0.0166299
0.0133922
0.0105155
0.00814895
0.00575881
0.00338854
0.00116889
0.00374142
0.00726591
0.0104072
0.0137518
0.0178246
0.0197939
0.0200849
0.0184179
0.0154282
0.0124648
0.00984517
0.00777025
0.0055169
0.0033048
0.00108067
0.00365437
0.00687337
0.010007
0.0132659
0.0172746
0.0198839
0.0207105
0.0197321
0.0175791
0.0143877
0.0117987
0.00935698
0.00737443
0.00528773
0.00307855
0.000888619
0.00352703
0.00668446
0.00948428
0.0126837
0.0163121
0.0195826
0.0211059
0.0208212
0.0190385
0.01625
0.0134812
0.0111512
0.00905744
0.00700022
0.00503461
0.00307326
0.000851093
0.00342419
0.00636866
0.00921851
0.0122602
0.0152536
0.0190079
0.0211705
0.0216364
0.0205215
0.0179005
0.0152158
0.0126538
0.0106179
0.00863127
0.00678047
0.00481663
0.00286521
0.000800116
0.00316687
0.00613132
0.00898542
0.0116528
0.0147809
0.0186182
0.0209748
0.0220559
0.0216386
0.019756
0.0167305
0.0144056
0.0121703
0.0101683
0.00837673
0.0065741
0.00468362
0.00270798
0.000703518
0.00302724
0.00600922
0.0085134
0.0112401
0.0140534
0.0177469
0.0207528
0.0222688
0.0223027
0.0208216
0.0183603
0.0159169
0.0137001
0.0116608
0.00982117
0.00799656
0.00631286
0.00446321
0.00255015
0.00060136
0.00299911
0.0058047
0.00814761
0.010846
0.0135063
0.016931
0.0203383
0.022344
0.0229643
0.0220693
0.0199976
0.0174933
0.0151705
0.013102
0.0112047
0.00949406
0.00776803
0.00605527
0.00425192
0.0023433
0.000496423
0.00285625
0.00541934
0.00795323
0.0105795
0.0130932
0.0160507
0.0198662
0.022201
0.02334
0.0230537
0.0212309
0.0190177
0.016495
0.0144915
0.0124507
0.0107352
0.00912165
0.00747088
0.00579573
0.00407816
0.00223156
0.000371657
0.00263094
0.00527327
0.00766437
0.0101297
0.0126595
0.0154423
0.0191689
0.0217937
0.0235512
0.0238614
0.0226071
0.0204573
0.0180654
0.0158505
0.013904
0.0121008
0.0103318
0.00877135
0.0070993
0.00555039
0.00378619
0.00204815
0.000238794
0.00247267
0.00509953
0.00730921
0.00983918
0.0123295
0.0149919
0.0184532
0.0214941
0.0235777
0.0243287
0.0237463
0.0218139
0.0195358
0.0171305
0.0152028
0.0133526
0.0116517
0.00992877
0.00840445
0.00681788
0.00526871
0.00358602
0.00184252
0.000100147
0.00240308
0.00484893
0.00705641
0.00951042
0.0120061
0.0144156
0.0177601
0.021014
0.0234278
0.0246687
0.0245534
0.0231694
0.021001
0.0185997
0.0164645
0.014593
0.0127803
0.0112079
0.00962484
0.00804139
0.00652507
0.0048933
0.00329167
0.00157788
-0.000111684
0.00225199
0.00459543
0.00696822
0.00919641
0.0116714
0.013974
0.0172706
0.020488
0.0231148
0.0248078
0.0252026
0.0242513
0.022375
0.01998
0.0178312
0.0157878
0.0140222
0.0122859
0.010714
0.00909037
0.00759101
0.00612212
0.00460542
0.00303138
0.00139798
-0.000303342
0.00208771
0.00437149
0.0067614
0.00895455
0.0114315
0.0135594
0.0166844
0.0197802
0.0228054
0.0247847
0.0256562
0.0251725
0.0236732
0.0215816
0.0192006
0.0171196
0.0152112
0.013458
0.0117595
0.0101792
0.00864016
0.00719591
0.00574448
0.00429004
0.00274156
0.00111255
-0.000503106
0.00186002
0.00421383
0.00644609
0.00869672
0.0111257
0.0133855
0.0161004
0.0190872
0.0224286
0.0246759
0.025995
0.0260312
0.0248917
0.0229287
0.0205863
0.0184107
0.0164272
0.0146243
0.0128891
0.0112423
0.00966404
0.00817862
0.00675124
0.00536403
0.00395906
0.00248357
0.000888344
-0.000688738
0.0017238
0.0040297
0.00620322
0.00845191
0.0107341
0.0131515
0.0156758
0.0187463
0.022082
0.0244867
0.0261701
0.0266908
0.0259442
0.0242744
0.0220559
0.0197855
0.0177223
0.015821
0.0140343
0.0123106
0.0106638
0.00911731
0.00765894
0.0062884
0.004965
0.00364588
0.0022047
0.000654947
-0.000861871
0.00149464
0.00368159
0.00595596
0.00815585
0.0103766
0.0127422
0.0153721
0.0179694
0.021482
0.024246
0.0262351
0.0271836
0.026876
0.0255141
0.0234427
0.0211842
0.0190776
0.0170648
0.0152173
0.013409
0.0116699
0.0100384
0.00851308
0.00710613
0.00580242
0.00457465
0.00332091
0.00195044
0.000452626
-0.0010108
0.00129903
0.00350708
0.00563736
0.00784792
0.0101049
0.0124774
0.0149264
0.0175327
0.0210222
0.0239661
0.026199
0.0275308
0.0277119
0.0266605
0.0248272
0.0226352
0.0204577
0.0183909
0.0164512
0.0145611
0.0127146
0.0109715
0.00934769
0.00786401
0.00652076
0.00531458
0.00418253
0.00303428
0.00174199
0.000303195
-0.00111589
0.00115244
0.00328599
0.0053717
0.00752391
0.00967005
0.0119745
0.0145134
0.0171696
0.0203725
0.0234628
0.0260803
0.0277635
0.0283114
0.0277611
0.0261588
0.0240868
0.0219133
0.0197794
0.0177618
0.0157833
0.0138255
0.011953
0.0101984
0.00859966
0.00716934
0.00591814
0.00482627
0.00383282
0.00280735
0.00161284
0.000239014
-0.00114896
0.000944399
0.00297662
0.00505037
0.00707447
0.00940894
0.0117732
0.0142194
0.0167763
0.0197575
0.0230513
0.0257825
0.0278583
0.0288667
0.0286592
0.0274386
0.0254835
0.0233793
0.0212654
0.0191647
0.0170933
0.0150238
0.0130129
0.0111068
0.00935512
0.00779236
0.00644074
0.00530602
0.00437461
0.00355087
0.00267998
0.00160215
0.000284118
-0.00115454
0.000731149
0.00263731
0.00459422
0.00668962
0.00896924
0.0113532
0.0138359
0.0162381
0.0191599
0.0224522
0.0254984
0.0278203
0.0292856
0.0295338
0.0285587
0.0268602
0.0247745
0.0227642
0.0206576
0.0185243
0.016337
0.0141811
0.0121134
0.0101855
0.00844466
0.00693835
0.0056896
0.00471719
0.00399068
0.00338076
0.00269755
0.00173095
0.000322925
-0.00194859
-0.00131883
0.000526045
0.00239229
0.00432718
0.00637647
0.00859807
0.0109516
0.0133966
0.0157711
0.0187015
0.0219057
0.024992
0.0276383
0.0294984
0.0302625
0.0297574
0.0281468
0.0261788
0.0241739
0.0222041
0.0200682
0.0178241
0.015517
0.0132837
0.0111788
0.00923619
0.00751979
0.00608164
0.00496734
0.00419883
0.00372704
0.0033772
0.00286701
0.00180373
-0.00045664
0.000467024
-0.00191488
-0.00123961
0.000313042
0.00211536
0.00398665
0.00593083
0.00820749
0.0104633
0.0129502
0.015399
0.0181789
0.0213109
0.0245383
0.0273204
0.0295139
0.0307857
0.0308138
0.0296294
0.0276349
0.0256218
0.0237203
0.0217417
0.0195264
0.0172051
0.0148462
0.0125801
0.0104627
0.00848676
0.00677092
0.0053869
0.00441008
0.00385791
0.00366716
0.00357872
0.00252255
0.00305019
0.00152977
0.00212715
0.00246167
-0.000373763
0.000644783
-0.00180417
-0.00106806
7.50003e-05
0.00179979
0.00363827
0.0054699
0.00764525
0.00998438
0.0124121
0.0149387
0.0176238
0.0205936
0.0240004
0.0269883
0.029384
0.031084
0.0316911
0.0310489
0.0293791
0.0273319
0.0253555
0.0235221
0.021623
0.0196637
0.0176434
0.015526
0.0133508
0.0110837
0.00887692
0.00694391
0.00543788
0.00450498
0.00402187
0.00397927
0.00357512
0.00387049
0.00286094
0.00175432
0.0032598
0.00284639
-0.000139289
0.00096493
-0.00164996
-0.000837087
-8.62372e-05
0.0015365
0.00321878
0.00504082
0.00711586
0.00950275
0.011828
0.0142174
0.0169657
0.0198192
0.0234268
0.0264581
0.0291582
0.0311225
0.0322676
0.0322625
0.031109
0.0292251
0.0273343
0.0256252
0.0245065
0.0239498
0.0237833
0.0232822
0.0220035
0.0197615
0.0165903
0.0132688
0.0103522
0.00820389
0.00673918
0.005611
0.00424377
0.00472152
0.00355947
0.00415293
0.00395956
0.00216978
0.00385239
0.0033894
0.000177532
0.0013842
-0.00145195
-0.000551887
-0.000297378
0.00123478
0.0028887
0.00469399
0.00664646
0.00893398
0.0112463
0.0135939
0.016421
0.0192508
0.0226887
0.0259214
0.0287344
0.0309813
0.0324295
0.0329612
0.0323859
0.0309622
0.0293833
0.0282506
0.0286908
0.0313322
0.0358344
0.0399958
0.041705
0.0408533
0.0374132
0.0319488
0.0263326
0.0219485
0.0187504
0.0160716
0.00626284
0.0110636
0.00485962
0.00629895
0.00461965
0.00538655
0.00477009
0.00271817
0.00457434
0.00411315
0.000562343
0.00189529
-0.00120995
-0.000214229
-0.000439278
0.000959235
0.0025066
0.00425299
0.00620574
0.00835283
0.0105388
0.0130308
0.0157654
0.0185927
0.0218961
0.0251779
0.0281603
0.0306727
0.032407
0.0332145
0.0330971
0.0322453
0.0312862
0.0310252
0.033479
0.040727
0.050856
0.0612169
0.0685196
0.0721161
0.0716742
0.0685574
0.062676
0.0556388
0.0504507
0.0482811
0.0236018
0.0506137
0.0106134
0.0226164
0.00683491
0.0108662
0.00574281
0.00728229
0.00579046
0.00340621
0.00557061
0.00506317
0.00101218
0.00251056
-0.000922589
0.000177958
-0.00060436
0.000662059
0.00209403
0.00375683
0.00552934
0.00769211
0.00988462
0.0123965
0.0150009
0.0178655
0.0210322
0.0243303
0.0274428
0.0301905
0.0322732
0.0334035
0.0334978
0.0330747
0.0326904
0.0335769
0.0385798
0.0498486
0.0664298
0.0814789
0.0940471
0.10311
0.10895
0.111588
0.111386
0.108781
0.104546
0.103962
0.0764148
0.110096
0.0478868
0.0786291
0.0221692
0.0477519
0.0111285
0.0219815
0.00747134
0.0111741
0.00740302
0.00426702
0.00704359
0.00635808
0.00153626
0.00324546
-0.000584039
0.000629167
-0.00070373
0.000416913
0.00169489
0.00326602
0.00498695
0.00706213
0.00921304
0.0116335
0.0142472
0.0170202
0.0201434
0.0233646
0.0265649
0.0295045
0.0319065
0.0334598
0.0339446
0.0335693
0.0337014
0.0355529
0.0429542
0.0585004
0.0786632
0.100162
0.116786
0.130273
0.141025
0.149539
0.156878
0.162892
0.166501
0.166816
0.138249
0.173791
0.111699
0.14551
0.0804479
0.116081
0.047736
0.0833062
0.0215444
0.0472394
0.0109529
0.0205442
0.0104178
0.00535914
0.00953759
0.00833074
0.00213782
0.00411888
-0.000207006
0.00113414
-0.000794511
0.000157227
0.00132373
0.00272159
0.0043546
0.0062633
0.00849538
0.0106711
0.0132208
0.0160402
0.0190396
0.0223736
0.0255713
0.0286242
0.0312697
0.0332291
0.0341835
0.0340245
0.0342153
0.0366514
0.0459409
0.0647343
0.0894876
0.111868
0.128695
0.142183
0.154671
0.16709
0.180839
0.195533
0.210871
0.223585
0.200735
0.232089
0.179336
0.211568
0.152718
0.18901
0.122104
0.1621
0.086545
0.129583
0.0455265
0.0891289
0.0189969
0.0418466
0.0169278
0.00683918
0.0145431
0.0118708
0.00282525
0.00518348
0.000194936
0.00168651
-0.000829647
-2.54063e-05
0.000987963
0.00224985
0.00374774
0.00537409
0.00765399
0.00991677
0.0121615
0.0151577
0.0179849
0.0212783
0.0244719
0.0275843
0.0304266
0.0327009
0.0341031
0.0343946
0.0344891
0.0370601
0.0471165
0.0683231
0.0949914
0.116197
0.128988
0.139919
0.15157
0.164395
0.180219
0.198962
0.222024
0.250411
0.252891
0.272893
0.241356
0.26689
0.223722
0.255443
0.201576
0.239125
0.173878
0.217283
0.137772
0.187512
0.0896811
0.145102
0.0375174
0.0856084
0.0319354
0.0091582
0.0256619
0.0193498
0.00360817
0.00660286
0.000603613
0.00226958
-0.00082614
-0.000169008
0.000695345
0.00182548
0.0031638
0.00462402
0.00681857
0.00903213
0.0113447
0.0142143
0.0166909
0.0200564
0.0233009
0.0264175
0.0293748
0.0319021
0.0336907
0.0344598
0.0346478
0.0370471
0.0470796
0.0692556
0.0968231
0.113743
0.12479
0.133417
0.142185
0.15252
0.167193
0.187726
0.215877
0.250484
0.282684
0.285785
0.287619
0.302702
0.283004
0.305767
0.273342
0.303077
0.258155
0.295076
0.23598
0.2807
0.201937
0.256319
0.14984
0.215328
0.0770684
0.149891
0.0639313
0.0135255
0.0504739
0.0361951
0.00449826
0.00886804
0.000992869
0.00284836
-0.000752719
-0.00026909
0.000438145
0.00142271
0.00259679
0.00393316
0.00597672
0.00816606
0.0103328
0.0130079
0.0156134
0.0188673
0.0219916
0.02513
0.0281386
0.030852
0.0329643
0.0341804
0.0345872
0.036604
0.0462864
0.0682332
0.0942586
0.108861
0.117208
0.120819
0.120574
0.121605
0.131895
0.153893
0.187609
0.234643
0.294449
0.30917
0.317047
0.323107
0.335233
0.32754
0.346808
0.32675
0.35264
0.320168
0.353275
0.305614
0.34745
0.277046
0.331077
0.225836
0.296249
0.143268
0.230704
0.126735
0.0231342
0.101002
0.0721292
0.0055744
0.0132398
0.00132944
0.00339312
-0.000608445
-0.000309929
0.000230566
0.0010425
0.00203964
0.00326495
0.00517356
0.00724181
0.00924916
0.0118699
0.014486
0.0175455
0.0206406
0.0237271
0.026755
0.029581
0.0319493
0.0335493
0.0342578
0.0358106
0.0444074
0.0658851
0.0899634
0.101912
0.107655
0.103509
0.0908756
0.0910076
0.104211
0.122519
0.149027
0.190407
0.260805
0.339029
0.333007
0.341488
0.341502
0.3608
0.370018
0.372391
0.387296
0.379011
0.39793
0.380455
0.404568
0.374608
0.406513
0.355226
0.399853
0.311378
0.376248
0.227536
0.319697
0.214983
0.0446485
0.186327
0.140981
0.00714093
0.0229227
0.00160601
0.00395069
-0.000390918
-0.000282095
7.35747e-05
0.000689742
0.00150111
0.00262611
0.00443448
0.00629909
0.00817744
0.0106488
0.013144
0.0161477
0.0191902
0.0222539
0.0252489
0.0281381
0.030677
0.0325954
0.0336438
0.0348388
0.0416238
0.061699
0.0842539
0.0946101
0.097105
0.0853158
0.0667239
0.0692657
0.0843538
0.103567
0.131235
0.173963
0.239738
0.325218
0.316061
0.371637
0.367861
0.37421
0.374133
0.397004
0.402359
0.410892
0.417573
0.420227
0.428104
0.42735
0.438606
0.429722
0.446876
0.421859
0.449858
0.391817
0.439817
0.320358
0.401099
0.309747
0.0880428
0.284308
0.236274
0.0101386
0.0443821
0.00167832
0.00446494
-0.00014073
-0.000180377
-2.41991e-05
0.000367764
0.001035
0.00205123
0.00370825
0.00533541
0.00711939
0.00943394
0.0118846
0.014844
0.0176634
0.020688
0.0236482
0.0265427
0.0291988
0.0313441
0.032728
0.0337229
0.0386352
0.0560498
0.0781216
0.0873149
0.0868709
0.06955
0.051471
0.0532793
0.0681118
0.0963774
0.135546
0.181327
0.243324
0.311899
0.308989
0.362287
0.357355
0.397871
0.392823
0.403367
0.401405
0.41958
0.418734
0.430854
0.430163
0.442875
0.442442
0.454936
0.457008
0.464894
0.471712
0.467949
0.483317
0.453388
0.484534
0.402753
0.462313
0.394441
0.163865
0.371529
0.327628
0.0162647
0.0835622
0.00140509
0.00516943
1.35779e-05
-6.30442e-05
-5.88069e-05
0.000115442
0.00062522
0.00162997
0.00302524
0.00443559
0.00609829
0.00825044
0.0105887
0.0134447
0.0160975
0.0190458
0.021966
0.0248312
0.0275386
0.0298616
0.0315198
0.0325529
0.0357713
0.0498456
0.0717075
0.0804982
0.0777245
0.0573771
0.0423596
0.0422019
0.0523142
0.0864822
0.138836
0.205011
0.266865
0.323701
0.352631
0.350556
0.386036
0.378326
0.406149
0.399324
0.415578
0.411497
0.426844
0.422429
0.439073
0.433496
0.454804
0.44957
0.47314
0.470514
0.491105
0.493636
0.50313
0.513994
0.499008
0.523257
0.465423
0.510374
0.460124
0.254285
0.44146
0.404007
0.0287058
0.146335
0.00128142
0.00858691
-2.79605e-05
-7.31989e-05
-2.49999e-05
0.000350654
0.0012098
0.0022895
0.00355124
0.00511131
0.00709909
0.00929228
0.0119227
0.0145689
0.0173988
0.020215
0.023032
0.0257493
0.0281735
0.0300642
0.0312434
0.0332624
0.0436413
0.0648799
0.0742263
0.0703932
0.0487378
0.0369304
0.0354161
0.0405372
0.0623782
0.116096
0.186701
0.25253
0.30644
0.3478
0.331503
0.369299
0.359895
0.391251
0.381632
0.40372
0.394286
0.417512
0.411407
0.427253
0.419794
0.442609
0.433588
0.464305
0.456187
0.492057
0.486404
0.519604
0.519085
0.539974
0.54639
0.542001
0.564555
0.516755
0.557373
0.51474
0.339773
0.500411
0.469883
0.0643112
0.247458
-0.00166157
0.0123194
-0.000117703
-0.000128403
0.00019388
0.000774228
0.00158778
0.00267745
0.0041512
0.00596986
0.00801398
0.010418
0.0129707
0.015703
0.0184563
0.0211745
0.0238615
0.0263371
0.0283802
0.0297537
0.0311422
0.0379166
0.0571419
0.0683584
0.0650534
0.0437635
0.0334575
0.0313409
0.0329518
0.0423471
0.0695806
0.126057
0.203001
0.263923
0.312314
0.285733
0.335846
0.309803
0.369986
0.355271
0.382693
0.368183
0.38716
0.372619
0.410424
0.39961
0.421784
0.408439
0.445534
0.431444
0.477712
0.466021
0.512938
0.502471
0.541855
0.532153
0.567329
0.558981
0.586006
0.586473
0.567132
0.603091
0.567665
0.420545
0.556632
0.538953
0.490971
0.116689
0.34178
-0.0126105
0.0182286
-0.000223543
-6.11087e-05
0.000319049
0.000986017
0.00194128
0.00326268
0.00490929
0.00678155
0.0089741
0.0114168
0.0140565
0.0166614
0.0193013
0.021918
0.0243912
0.0265309
0.0280864
0.029177
0.0331669
0.048625
0.0627404
0.0607825
0.0410378
0.0307982
0.0283454
0.028318
0.0312977
0.0428463
0.069967
0.114847
0.16534
0.17908
0.27806
0.224403
0.297098
0.26087
0.349774
0.326403
0.355248
0.333898
0.358796
0.338149
0.393538
0.377081
0.414178
0.394863
0.449978
0.4308
0.489208
0.472601
0.520058
0.505401
0.544034
0.525136
0.569318
0.540185
0.604232
0.574221
0.61597
0.615254
0.619465
0.592235
0.618674
0.522193
0.441801
0.501822
0.57882
0.613325
0.61762
0.567647
0.204547
0.476713
0.443575
0.365531
-0.0288219
0.0609956
-0.000331942
1.05241e-06
0.00048765
0.00128628
0.00244122
0.00390497
0.00561781
0.00759932
0.00987016
0.0123342
0.014915
0.0174306
0.0199512
0.0223865
0.0245667
0.0262703
0.0273425
0.0296056
0.0403665
0.0565862
0.0574052
0.0389101
0.028289
0.025337
0.0246576
0.0255383
0.0294019
0.0397152
0.0572464
0.0751734
0.0785842
0.120308
0.0691223
0.217694
0.16634
0.238349
0.194551
0.307623
0.275793
0.314186
0.285535
0.327234
0.300629
0.373982
0.351507
0.409778
0.386568
0.452773
0.430428
0.488433
0.468555
0.50514
0.485173
0.506918
0.478648
0.51884
0.498073
0.47391
0.599285
0.569874
0.498906
0.537492
0.622749
0.631412
0.629513
0.605688
0.635414
0.552685
0.534985
0.605629
0.634039
0.636092
0.595442
0.407111
0.244255
0.34657
0.512745
0.48576
0.00042024
0.312729
0.213896
0.0896161
-0.000217057
0.00013879
0.000747936
0.00168321
0.00296022
0.00449968
0.00629736
0.00837785
0.01069
0.0132147
0.015574
0.0179884
0.020363
0.0225365
0.0243366
0.025522
0.0269034
0.0333181
0.0491064
0.0540401
0.0380476
0.0268269
0.0226669
0.0210774
0.021186
0.0226705
0.0260899
0.0318869
0.0384632
0.0415124
0.0391322
0.0675243
0.0464136
0.14616
0.0994891
0.171809
0.130091
0.252157
0.214036
0.270982
0.238552
0.308418
0.27967
0.361805
0.335679
0.406215
0.380964
0.445969
0.421949
0.464515
0.441684
0.456032
0.437626
0.45701
0.441548
0.431097
0.422895
0.466291
0.434989
0.454363
0.434904
0.574676
0.534949
0.451843
0.492451
0.612972
0.636723
0.621209
0.57989
0.641418
0.582616
0.567411
0.629001
0.643996
0.645059
0.621163
0.452953
0.413093
0.548734
0.526356
0.207745
0.0770607
0.195883
0.388499
0.341092
-7.67148e-05
0.000320111
0.00103571
0.00209161
0.00344835
0.0050594
0.00695085
0.00909662
0.0114395
0.0137523
0.0160581
0.0183415
0.0204858
0.0223234
0.023635
0.0246006
0.0280346
0.0406314
0.0502501
0.0393373
0.0264454
0.0214919
0.0188845
0.0176429
0.0176963
0.0193278
0.0223093
0.0262752
0.0295071
0.030678
0.0339399
0.0304909
0.0480818
0.0383347
0.0933969
0.0654498
0.133473
0.101738
0.204039
0.168396
0.249365
0.218089
0.301873
0.273994
0.355182
0.328938
0.397359
0.372921
0.417952
0.394993
0.42187
0.407214
0.418527
0.416366
0.415487
0.415599
0.420219
0.410793
0.407037
0.407264
0.419518
0.397002
0.414334
0.401397
0.53587
0.487196
0.405624
0.441525
0.58726
0.629461
0.5966
0.539637
0.636982
0.611131
0.598577
0.643965
0.642528
0.646456
0.640736
0.499904
0.472618
0.583133
0.564337
0.355158
0.152906
0.350534
0.458948
0.434325
1.66905e-05
0.000498531
0.0013308
0.0024775
0.00390272
0.00559787
0.00756576
0.00970594
0.012013
0.0141606
0.0163581
0.0184441
0.0202849
0.0216941
0.0225092
0.0243118
0.0324427
0.0451791
0.040474
0.026122
0.0211342
0.0195231
0.0175228
0.0146594
0.0141247
0.0162358
0.0198077
0.0232959
0.0257329
0.0267253
0.0307945
0.0284115
0.0417049
0.0345497
0.0745168
0.0544472
0.124563
0.0967045
0.185822
0.154154
0.245575
0.217372
0.301276
0.277079
0.348904
0.325125
0.372496
0.350972
0.392812
0.374117
0.41416
0.412577
0.409364
0.405888
0.409791
0.413605
0.418276
0.423405
0.396607
0.397754
0.402594
0.410518
0.385231
0.388367
0.378566
0.386679
0.485855
0.435065
0.377183
0.395951
0.547042
0.606911
0.557623
0.488888
0.617638
0.635366
0.626581
0.648694
0.627857
0.636666
0.649148
0.542526
0.520125
0.613957
0.596882
0.444614
0.12692
0.401361
0.507733
0.494139
8.60475e-05
0.000680998
0.0016106
0.00283345
0.00433559
0.00611015
0.00808858
0.0102551
0.0123346
0.0144135
0.0164412
0.0182581
0.0197243
0.0206297
0.0216201
0.0259562
0.0378342
0.0391443
0.0270515
0.0202264
0.019861
0.0193857
0.0165864
0.0121878
0.0111564
0.0138442
0.0176469
0.0208448
0.0227271
0.0248322
0.023223
0.0285003
0.0264592
0.0381772
0.0317944
0.0705725
0.0504007
0.13365
0.100152
0.19018
0.163178
0.252513
0.227174
0.288986
0.267378
0.33005
0.309459
0.353759
0.333052
0.405094
0.389776
0.427694
0.430921
0.431442
0.42765
0.421025
0.432736
0.444649
0.455833
0.392977
0.403817
0.418817
0.436165
0.372264
0.381594
0.3792
0.39294
0.433327
0.39058
0.368816
0.372372
0.496841
0.570378
0.508676
0.436616
0.584826
0.648857
0.645667
0.644036
0.599945
0.614769
0.649609
0.576522
0.556206
0.638234
0.624275
0.503191
0.0930325
0.384306
0.546342
0.54371
0.000148293
0.000852435
0.00186582
0.00316844
0.00474819
0.00655353
0.00853373
0.010572
0.0125416
0.0144848
0.0162739
0.0177613
0.0187626
0.0193951
0.02145
0.0298522
0.0364928
0.0289414
0.0192305
0.0190018
0.0199379
0.0187112
0.0153125
0.010016
0.00882578
0.0117264
0.015432
0.0182728
0.0197139
0.0230508
0.0213922
0.0262306
0.0246113
0.0342713
0.028781
0.069031
0.0464551
0.133704
0.0944127
0.199927
0.169188
0.24379
0.217897
0.262365
0.235874
0.31109
0.287772
0.368
0.342585
0.473276
0.466208
0.443338
0.456417
0.465351
0.472288
0.476202
0.476638
0.454895
0.473542
0.49091
0.505854
0.410834
0.43201
0.455921
0.480628
0.379954
0.396669
0.400997
0.419832
0.389621
0.370482
0.379627
0.367164
0.444973
0.52356
0.457394
0.392688
0.540988
0.653088
0.654523
0.627885
0.559853
0.580102
0.639838
0.606343
0.590227
0.653122
0.647887
0.529999
0.0864514
0.343532
0.58218
0.582269
0.000203013
0.00100541
0.00210257
0.0034865
0.00510866
0.00691202
0.00889956
0.0107533
0.0126009
0.0143431
0.015837
0.0169172
0.0174379
0.0184017
0.0229968
0.0326779
0.0293595
0.0194789
0.0169014
0.0191969
0.0193531
0.0173761
0.0129134
0.00760629
0.00639285
0.00951367
0.0129656
0.0153349
0.0180404
0.0163107
0.0212361
0.0196918
0.0241696
0.0227269
0.0290536
0.0257741
0.0594498
0.0380288
0.111906
0.0703334
0.188035
0.152643
0.207795
0.177103
0.252687
0.219539
0.31447
0.284271
0.429305
0.413796
0.400327
0.518493
0.508872
0.480038
0.495532
0.517343
0.524599
0.5274
0.525282
0.504759
0.526766
0.545449
0.559772
0.447258
0.476624
0.506238
0.534149
0.403841
0.429578
0.437647
0.46214
0.370366
0.36612
0.404641
0.378128
0.400094
0.473712
0.411848
0.371963
0.493254
0.650887
0.657617
0.601149
0.515489
0.540866
0.622285
0.636081
0.622673
0.661883
0.664123
0.526124
0.0352155
0.272427
0.614225
0.604118
0.000251765
0.00114434
0.00232495
0.00376594
0.00540482
0.00723256
0.00903929
0.0108035
0.0124848
0.0139697
0.015111
0.0157327
0.0162075
0.0182315
0.0263195
0.0279049
0.0207825
0.0149944
0.016987
0.0188368
0.0180874
0.0152238
0.0101583
0.00436193
0.00353338
0.00725988
0.010337
0.01227
0.0162691
0.0144561
0.0195371
0.0179553
0.0222808
0.02093
0.0254319
0.0236076
0.0413538
0.0293919
0.069867
0.0432272
0.143286
0.10637
0.184354
0.147518
0.278485
0.234133
0.363132
0.322383
0.462735
0.443243
0.442445
0.42323
0.550542
0.533193
0.494334
0.513772
0.568954
0.572525
0.570401
0.562544
0.558947
0.579412
0.59472
0.604211
0.496287
0.529442
0.559772
0.585798
0.442746
0.475319
0.485246
0.513523
0.36541
0.374538
0.443536
0.402218
0.375066
0.429207
0.381788
0.364641
0.450212
0.640615
0.657481
0.568113
0.475952
0.505392
0.596869
0.662228
0.652562
0.668251
0.676532
0.508991
-0.00198416
0.235106
0.640633
0.614921
0.00029288
0.00127218
0.00252017
0.00400377
0.00564648
0.00740679
0.00909026
0.0107112
0.0121744
0.0133559
0.0140841
0.014349
0.0151347
0.0195364
0.0256799
0.0213385
0.0146959
0.0138973
0.016773
0.0177731
0.0163122
0.0123747
0.00707352
0.000126275
0.00112
0.00495008
0.007626
0.0107652
0.00880826
0.0144262
0.012676
0.0176837
0.016114
0.0204231
0.0190932
0.0231436
0.0217345
0.0303702
0.0253326
0.0505679
0.0341661
0.110705
0.0773594
0.189139
0.146405
0.329779
0.284874
0.409364
0.389424
0.36904
0.475732
0.458332
0.437679
0.423467
0.557894
0.533757
0.488244
0.510329
0.607684
0.604484
0.595306
0.579268
0.60656
0.621547
0.630408
0.632898
0.549525
0.581418
0.60784
0.628134
0.49056
0.527546
0.53725
0.566321
0.369768
0.394206
0.488022
0.437033
0.365732
0.396522
0.370079
0.363617
0.419875
0.627115
0.653518
0.537942
0.448156
0.481479
0.574737
0.682445
0.678707
0.673546
0.687318
0.49787
-0.0444119
0.215542
0.661061
0.623325
0.000327319
0.00138424
0.00269351
0.00420161
0.00585998
0.00746635
0.00902492
0.0104622
0.0116647
0.0124874
0.0127878
0.0130656
0.01484
0.0214208
0.0206655
0.0150914
0.0115377
0.0134406
0.0161177
0.0163311
0.0138072
0.00948269
0.00221315
-0.00350343
-0.000978962
0.00261552
0.00482984
0.00913852
0.00709657
0.0126092
0.0109144
0.0157695
0.0142313
0.0185423
0.0171847
0.0211771
0.0198694
0.026548
0.0230588
0.0479434
0.0321369
0.107221
0.0737619
0.23577
0.186127
0.347268
0.329802
0.301367
0.41001
0.394367
0.361852
0.374646
0.468864
0.452357
0.41507
0.405585
0.551543
0.521359
0.462999
0.490052
0.628957
0.619301
0.602207
0.578868
0.64194
0.649701
0.651981
0.647889
0.599538
0.626222
0.645873
0.658633
0.540166
0.579475
0.587293
0.614427
0.381128
0.41971
0.529015
0.471548
0.362489
0.382106
0.367401
0.369382
0.405314
0.613996
0.649941
0.521237
0.437172
0.475253
0.564636
0.698484
0.699042
0.679056
0.697865
0.49753
0.00279393
0.333657
0.676674
0.636041
0.000355006
0.00148845
0.00284467
0.00436088
0.00591878
0.00742647
0.00883261
0.0100483
0.0109461
0.0113904
0.0114638
0.0119778
0.0156434
0.0194618
0.0151761
0.0101698
0.0106487
0.012991
0.0151622
0.014545
0.0111516
0.00551054
-0.00300749
-0.00680586
-0.00284815
0.000316917
0.0035232
0.00171276
0.00738089
0.00549297
0.010742
0.00911066
0.0137388
0.0122774
0.0165027
0.0151395
0.019123
0.0176451
0.0246432
0.0210543
0.0595455
0.0347377
0.138747
0.0960477
0.257547
0.208254
0.336001
0.321841
0.283997
0.268054
0.396654
0.386513
0.347352
0.356125
0.441936
0.426646
0.37585
0.371299
0.535013
0.495657
0.423365
0.456332
0.638451
0.621657
0.598784
0.570403
0.665713
0.667603
0.663085
0.653721
0.6415
0.660617
0.672321
0.678373
0.583094
0.625523
0.62817
0.653709
0.399254
0.447348
0.565653
0.50572
0.364581
0.379855
0.370583
0.382549
0.402422
0.608923
0.649942
0.517421
0.435595
0.476923
0.56324
0.711111
0.711859
0.687109
0.707788
0.554863
0.167777
0.406989
0.685961
0.637252
0.000380541
0.00158297
0.00295538
0.00443601
0.00590248
0.00728821
0.00850883
0.00946857
0.0100332
0.0101037
0.010176
0.0114934
0.0163793
0.0151617
0.0101489
0.00820217
0.0100697
0.0125598
0.0140454
0.0123643
0.00835102
0.000711134
-0.0085017
-0.00863444
-0.0045598
-0.00191366
0.00211206
0.000268816
0.00562078
0.00385658
0.00879766
0.00727477
0.0116085
0.0102377
0.0140044
0.0128675
0.0167896
0.0153632
0.0236857
0.0189885
0.063198
0.0339716
0.157868
0.108334
0.25107
0.229408
0.189991
0.308079
0.297295
0.247071
0.236065
0.367657
0.362858
0.315627
0.320376
0.399282
0.384266
0.32583
0.324354
0.513199
0.467807
0.379946
0.421435
0.637544
0.615997
0.588842
0.55413
0.679333
0.673834
0.664374
0.649091
0.672678
0.683187
0.687593
0.687186
0.617898
0.660706
0.657415
0.681048
0.422884
0.478074
0.598579
0.539672
0.377056
0.386722
0.383844
0.406021
0.412312
0.610066
0.65688
0.522871
0.451122
0.498653
0.57157
0.720096
0.718562
0.696122
0.715868
0.557249
0.223206
0.472825
0.692548
0.642378
0.00040375
0.0016481
0.00300305
0.00445306
0.00580997
0.0070477
0.00805293
0.00872437
0.00895651
0.00887853
0.00908447
0.0117805
0.0145595
0.0107587
0.00678978
0.00762807
0.00965195
0.0121736
0.0127217
0.010333
0.00458505
-0.0048475
-0.0128398
-0.0097884
-0.00608639
-0.00408654
0.000580675
-0.00108939
0.0038578
0.0022365
0.00674069
0.00540668
0.00927527
0.00805838
0.0116713
0.0105119
0.0144582
0.0129865
0.0216916
0.0167179
0.0535492
0.0283238
0.143021
0.0962918
0.2225
0.207153
0.129442
0.149125
0.262184
0.255657
0.192891
0.185825
0.324151
0.323004
0.266104
0.267598
0.349509
0.332929
0.269636
0.267164
0.48607
0.435836
0.338
0.384578
0.629005
0.60385
0.570908
0.531819
0.68055
0.67072
0.655939
0.636853
0.691511
0.693928
0.691049
0.6834
0.645797
0.682261
0.677507
0.694589
0.452805
0.510964
0.627544
0.572445
0.399723
0.404139
0.40944
0.434559
0.43987
0.621248
0.667048
0.549224
0.487358
0.537236
0.594043
0.725489
0.721797
0.703965
0.721167
0.584243
0.192232
0.51929
0.699536
0.65936
0.000415227
0.00167656
0.00302185
0.0044068
0.00563911
0.00670174
0.00746313
0.00784313
0.00776034
0.00765239
0.00845203
0.0118749
0.011251
0.00702133
0.00535768
0.00736039
0.00948685
0.0117919
0.0112776
0.00773054
2.19688e-05
-0.010953
-0.014712
-0.0105867
-0.00749097
-0.00514534
-0.00246361
-0.00637321
-0.000924565
0.00206475
0.00055832
0.00444017
0.00317497
0.0069552
0.00573046
0.00912689
0.00806196
0.0115809
0.0102496
0.0178802
0.0135983
0.0321643
0.0184561
0.0923534
0.0597707
0.176219
0.163895
0.101538
0.11023
0.200628
0.197517
0.130262
0.127372
0.267217
0.267557
0.202196
0.202477
0.301629
0.279427
0.214607
0.206946
0.454522
0.400283
0.294373
0.344958
0.613746
0.583816
0.547206
0.504394
0.67302
0.657853
0.639253
0.617687
0.697354
0.691809
0.682746
0.671164
0.667496
0.693742
0.688678
0.695503
0.484997
0.545889
0.656908
0.607527
0.432501
0.439716
0.455361
0.475213
0.483338
0.632808
0.675906
0.578015
0.528217
0.564192
0.609572
0.728553
0.724773
0.708889
0.723677
0.630849
0.14733
0.550654
0.711584
0.690968
0.000414465
0.00168853