/*--------------------------------*- C++ -*----------------------------------*\
  =========                 |
  \\      /  F ield         | OpenFOAM: The Open Source CFD Toolbox
   \\    /   O peration     | Website:  https://openfoam.org
    \\  /    A nd           | Version:  dev
     \\/     M anipulation  |
\*---------------------------------------------------------------------------*/
FoamFile
{
    version     2.0;
    format      ascii;
    class       surfaceScalarField;
    location    "2500";
    object      phi;
}
// * * * * * * * * * * * * * * * * * * * * * * * * * * * * * * * * * * * * * //

dimensions      [1 0 -1 0 0 0 0];

internalField   nonuniform List<scalar> 
19523
(
1.47081e-07
9.03943e-08
1.3086e-07
2.20707e-07
4.03919e-07
7.90224e-08
1.09787e-07
2.92211e-07
4.0655e-07
2.18075e-07
5.69245e-07
6.23629e-08
9.29072e-08
3.30136e-07
3.88583e-07
3.10199e-07
5.95018e-07
1.92309e-07
6.86737e-07
4.84427e-08
8.0019e-08
3.48891e-07
3.51986e-07
3.66777e-07
6.07115e-07
2.98135e-07
7.21974e-07
1.57041e-07
7.82301e-07
3.94975e-08
6.82105e-08
3.56758e-07
3.06864e-07
3.94031e-07
5.97451e-07
3.7649e-07
7.57447e-07
2.62729e-07
8.12065e-07
1.27292e-07
8.6646e-07
3.33285e-08
5.94346e-08
3.55081e-07
2.6447e-07
3.99201e-07
5.66089e-07
4.25476e-07
7.79385e-07
3.54599e-07
8.55132e-07
2.19688e-07
8.87083e-07
1.06683e-07
9.3967e-07
2.84151e-08
5.3855e-08
3.48738e-07
2.2818e-07
3.91454e-07
5.18623e-07
4.46731e-07
7.79676e-07
4.25209e-07
8.98641e-07
3.1113e-07
9.24973e-07
1.81825e-07
9.55839e-07
9.05296e-08
1.00441e-06
2.42302e-08
4.93972e-08
3.42186e-07
2.00225e-07
3.76792e-07
4.62042e-07
4.48121e-07
7.56575e-07
4.69881e-07
9.30468e-07
3.93395e-07
9.73753e-07
2.6239e-07
9.84078e-07
1.5358e-07
1.01728e-06
7.76841e-08
1.06034e-06
2.08676e-08
4.59121e-08
3.35997e-07
1.78706e-07
3.63807e-07
4.02716e-07
4.36221e-07
7.14359e-07
4.90414e-07
9.42165e-07
4.58248e-07
1.02376e-06
3.43439e-07
1.02584e-06
2.20626e-07
1.03897e-06
1.31913e-07
1.071e-06
6.70467e-08
1.1108e-06
1.80379e-08
4.33515e-08
3.30895e-07
1.62141e-07
3.52676e-07
3.53165e-07
4.1348e-07
6.59137e-07
4.91551e-07
9.30027e-07
5.02599e-07
1.06433e-06
4.17704e-07
1.07863e-06
2.90791e-07
1.07118e-06
1.88446e-07
1.08945e-06
1.13489e-07
1.11977e-06
5.81033e-08
1.15616e-06
1.57144e-08
4.14503e-08
3.26236e-07
1.51883e-07
3.41327e-07
3.17928e-07
3.8806e-07
5.95792e-07
4.76943e-07
8.96102e-07
5.25555e-07
1.08695e-06
4.80037e-07
1.13427e-06
3.62109e-07
1.11665e-06
2.45396e-07
1.11627e-06
1.61684e-07
1.13456e-06
9.87203e-08
1.16343e-06
5.08763e-08
1.19718e-06
1.36308e-08
4.00665e-08
3.22742e-07
1.44796e-07
3.33452e-07
2.91629e-07
3.67789e-07
5.30729e-07
4.53264e-07
8.45011e-07
5.28127e-07
1.08706e-06
5.25485e-07
1.18368e-06
4.30635e-07
1.17232e-06
3.06446e-07
1.15218e-06
2.09542e-07
1.15662e-06
1.39713e-07
1.17629e-06
8.59033e-08
1.20341e-06
4.47038e-08
1.23382e-06
1.21226e-08
3.96371e-08
3.20342e-07
1.38865e-07
3.28799e-07
2.71373e-07
3.53874e-07
4.7339e-07
4.25279e-07
7.82209e-07
5.16187e-07
1.06502e-06
5.50243e-07
1.21818e-06
4.91038e-07
1.23231e-06
3.70691e-07
1.19878e-06
2.59906e-07
1.18607e-06
1.80145e-07
1.19437e-06
1.21669e-07
1.21391e-06
7.54182e-08
1.23858e-06
3.99589e-08
1.26839e-06
1.07998e-08
3.93055e-08
3.20196e-07
1.33713e-07
3.25621e-07
2.56204e-07
3.44189e-07
4.29616e-07
3.97813e-07
7.13872e-07
4.93796e-07
1.02421e-06
5.57087e-07
1.23206e-06
5.36428e-07
1.28938e-06
4.34016e-07
1.25626e-06
3.13281e-07
1.224e-06
2.22034e-07
1.21898e-06
1.55586e-07
1.22902e-06
1.06623e-07
1.24743e-06
6.65832e-08
1.27268e-06
3.56725e-08
1.30043e-06
9.90927e-09
3.8899e-08
3.22536e-07
1.30158e-07
3.23866e-07
2.44657e-07
3.37346e-07
3.98679e-07
3.75306e-07
6.46619e-07
4.65264e-07
9.69544e-07
5.4856e-07
1.22501e-06
5.64225e-07
1.33617e-06
4.89714e-07
1.32059e-06
3.69701e-07
1.2718e-06
2.65537e-07
1.25073e-06
1.90358e-07
1.24956e-06
1.35119e-07
1.26034e-06
9.37731e-08
1.27919e-06
6.01005e-08
1.30308e-06
3.30334e-08
1.33083e-06
9.23585e-09
3.8975e-08
3.26924e-07
1.27848e-07
3.24988e-07
2.36041e-07
3.32704e-07
3.76551e-07
3.59663e-07
5.87258e-07
4.34845e-07
9.05748e-07
5.29201e-07
1.19988e-06
5.73772e-07
1.36635e-06
5.34056e-07
1.38534e-06
4.25039e-07
1.3299e-06
3.1167e-07
1.2899e-06
2.26445e-07
1.27567e-06
1.64324e-07
1.27723e-06
1.18311e-07
1.28881e-06
8.42169e-08
1.30834e-06
5.4873e-08
1.33305e-06
3.08308e-08
1.36021e-06
8.77766e-09
3.90626e-08
3.35339e-07
1.26097e-07
3.28873e-07
2.308e-07
3.30402e-07
3.59687e-07
3.49736e-07
5.41525e-07
4.05584e-07
8.39046e-07
5.01707e-07
1.15779e-06
5.714e-07
1.3755e-06
5.64714e-07
1.4435e-06
4.75938e-07
1.39687e-06
3.58061e-07
1.33775e-06
2.63882e-07
1.30822e-06
1.93958e-07
1.29895e-06
1.42681e-07
1.30253e-06
1.04665e-07
1.3162e-06
7.64082e-08
1.33651e-06
5.14469e-08
1.36181e-06
2.9268e-08
1.3896e-06
8.6695e-09
3.92516e-08
3.4761e-07
1.25793e-07
3.35769e-07
2.26866e-07
3.32966e-07
3.4682e-07
3.4347e-07
5.09715e-07
3.81745e-07
7.73881e-07
4.70925e-07
1.10285e-06
5.56777e-07
1.36627e-06
5.8074e-07
1.48838e-06
5.19873e-07
1.46721e-06
4.05692e-07
1.3955e-06
3.00424e-07
1.34827e-06
2.23929e-07
1.32634e-06
1.66647e-07
1.32044e-06
1.24867e-07
1.32678e-06
9.41717e-08
1.34168e-06
7.12938e-08
1.36372e-06
4.95785e-08
1.39001e-06
2.88731e-08
1.41883e-06
8.90225e-09
4.01887e-08
3.63343e-07
1.26046e-07
3.47514e-07
2.23234e-07
3.39623e-07
3.37792e-07
3.42191e-07
4.87402e-07
3.65959e-07
7.16174e-07
4.3966e-07
1.0422e-06
5.31728e-07
1.34149e-06
5.81636e-07
1.51654e-06
5.52693e-07
1.53576e-06
4.51403e-07
1.46318e-06
3.37997e-07
1.39697e-06
2.51764e-07
1.35998e-06
1.90375e-07
1.34302e-06
1.4415e-07
1.34066e-06
1.11068e-07
1.34918e-06
8.67461e-08
1.36648e-06
6.85856e-08
1.39031e-06
4.93062e-08
1.41829e-06
2.94231e-08
1.44921e-06
9.53812e-09
4.10971e-08
3.84005e-07
1.25722e-07
3.63819e-07
2.2107e-07
3.49853e-07
3.32174e-07
3.4539e-07
4.72005e-07
3.57807e-07
6.70354e-07
4.12009e-07
9.80035e-07
5.01987e-07
1.30255e-06
5.70786e-07
1.52653e-06
5.71717e-07
1.59658e-06
4.91944e-07
1.53788e-06
3.76804e-07
1.45516e-06
2.79896e-07
1.40049e-06
2.11339e-07
1.37064e-06
1.62845e-07
1.35788e-06
1.27024e-07
1.35914e-06
1.01196e-07
1.37085e-06
8.24447e-08
1.3906e-06
6.83391e-08
1.41734e-06
5.02781e-08
1.44765e-06
3.09916e-08
1.48157e-06
1.03451e-08
4.14601e-08
4.09515e-07
1.26623e-07
3.83249e-07
2.21294e-07
3.6378e-07
3.2952e-07
3.52704e-07
4.60965e-07
3.56676e-07
6.37564e-07
3.90809e-07
9.20348e-07
4.71931e-07
1.25254e-06
5.52131e-07
1.52019e-06
5.77186e-07
1.64444e-06
5.23918e-07
1.61528e-06
4.14603e-07
1.52322e-06
3.08805e-07
1.44945e-06
2.31015e-07
1.40434e-06
1.77732e-07
1.37957e-06
1.4125e-07
1.37196e-06
1.14293e-07
1.37687e-06
9.52614e-08
1.39173e-06
8.13864e-08
1.4155e-06
7.02263e-08
1.44518e-06
5.27568e-08
1.47881e-06
3.37477e-08
1.51585e-06
1.14511e-08
4.16416e-08
4.39331e-07
1.28563e-07
4.07718e-07
2.21858e-07
3.82851e-07
3.28521e-07
3.64974e-07
4.54666e-07
3.59223e-07
6.17666e-07
3.76814e-07
8.68113e-07
4.43217e-07
1.19886e-06
5.2578e-07
1.50034e-06
5.72115e-07
1.67662e-06
5.4508e-07
1.69009e-06
4.49159e-07
1.60026e-06
3.3766e-07
1.50819e-06
2.50134e-07
1.44482e-06
1.90631e-07
1.40721e-06
1.50192e-07
1.38858e-06
1.24736e-07
1.3851e-06
1.06155e-07
1.39377e-06
9.3312e-08
1.41335e-06
8.35971e-08
1.44132e-06
7.41291e-08
1.47473e-06
5.68384e-08
1.51265e-06
3.69371e-08
1.55312e-06
1.26759e-08
4.21517e-08
4.73432e-07
1.29729e-07
4.38322e-07
2.23009e-07
4.06739e-07
3.2951e-07
3.82025e-07
4.52923e-07
3.66908e-07
6.05065e-07
3.72022e-07
8.26728e-07
4.18419e-07
1.14476e-06
4.97484e-07
1.46921e-06
5.57065e-07
1.69387e-06
5.54953e-07
1.75733e-06
4.7791e-07
1.68389e-06
3.65575e-07
1.57693e-06
2.6899e-07
1.49339e-06
2.01662e-07
1.44053e-06
1.57419e-07
1.40921e-06
1.29667e-07
1.39577e-06
1.14182e-07
1.39696e-06
1.03056e-07
1.41152e-06
9.52383e-08
1.43652e-06
8.84741e-08
1.46931e-06
7.95963e-08
1.50717e-06
6.2324e-08
1.54932e-06
4.06803e-08
1.59412e-06
1.46886e-08
4.27729e-08
5.11784e-07
1.30679e-07
4.72638e-07
2.26265e-07
4.35235e-07
3.31785e-07
4.0466e-07
4.53919e-07
3.81255e-07
5.97228e-07
3.74961e-07
7.9849e-07
4.00507e-07
1.09255e-06
4.70853e-07
1.42939e-06
5.37464e-07
1.69679e-06
5.54241e-07
1.81343e-06
4.98907e-07
1.77008e-06
3.91803e-07
1.65569e-06
2.86918e-07
1.55185e-06
2.10638e-07
1.48082e-06
1.61484e-07
1.43515e-06
1.31592e-07
1.40985e-06
1.15713e-07
1.40217e-06
1.09079e-07
1.41e-06
1.04659e-07
1.43062e-06
1.0121e-07
1.4617e-06
9.6142e-08
1.4995e-06
8.73154e-08
1.5429e-06
6.87823e-08
1.58955e-06
4.52155e-08
1.64281e-06
1.59297e-08
4.3005e-08
5.5437e-07
1.32196e-07
5.10397e-07
2.30228e-07
4.68824e-07
3.34817e-07
4.32381e-07
4.56723e-07
4.02042e-07
5.94613e-07
3.84098e-07
7.81157e-07
3.92512e-07
1.04516e-06
4.48026e-07
1.38638e-06
5.14047e-07
1.68713e-06
5.47254e-07
1.85626e-06
5.11515e-07
1.85467e-06
4.1439e-07
1.74388e-06
3.03689e-07
1.62142e-06
2.17422e-07
1.5299e-06
1.6166e-07
1.46771e-06
1.29059e-07
1.42873e-06
1.12824e-07
1.41007e-06
1.07937e-07
1.40892e-06
1.10274e-07
1.42372e-06
1.11648e-07
1.45211e-06
1.10872e-07
1.48969e-06
1.05982e-07
1.5337e-06
9.65209e-08
1.58282e-06
7.54939e-08
1.63907e-06
4.89428e-08
1.69022e-06
1.70266e-08
4.28396e-08
6.00647e-07
1.33992e-07
5.52697e-07
2.33053e-07
5.07729e-07
3.38356e-07
4.65436e-07
4.60132e-07
4.29157e-07
5.95671e-07
4.01179e-07
7.69792e-07
3.95666e-07
1.00733e-06
4.30611e-07
1.34369e-06
4.90963e-07
1.66849e-06
5.32837e-07
1.88742e-06
5.16179e-07
1.93417e-06
4.32068e-07
1.83965e-06
3.18687e-07
1.70314e-06
2.22038e-07
1.58923e-06
1.58182e-07
1.50785e-06
1.21626e-07
1.45285e-06
1.05058e-07
1.4209e-06
1.02102e-07
1.4092e-06
1.07779e-07
1.41639e-06
1.17723e-07
1.44047e-06
1.23381e-07
1.47699e-06
1.23641e-07
1.52176e-06
1.17963e-07
1.5729e-06
1.06444e-07
1.63203e-06
8.24986e-08
1.68718e-06
5.19147e-08
1.74091e-06
1.76774e-08
4.26518e-08
6.4976e-07
1.35474e-07
5.99287e-07
2.35011e-07
5.50869e-07
3.42652e-07
5.0361e-07
4.64854e-07
4.6092e-07
5.99344e-07
4.25687e-07
7.65613e-07
4.05631e-07
9.82529e-07
4.20684e-07
1.30247e-06
4.72017e-07
1.64405e-06
5.15578e-07
1.90676e-06
5.13613e-07
2.00624e-06
4.44203e-07
1.94005e-06
3.31728e-07
1.7963e-06
2.25566e-07
1.66004e-06
1.51311e-07
1.55709e-06
1.09029e-07
1.4839e-06
9.06941e-08
1.43632e-06
8.97701e-08
1.41199e-06
9.94386e-08
1.40943e-06
1.14857e-07
1.42696e-06
1.31339e-07
1.46106e-06
1.39397e-07
1.50629e-06
1.39182e-07
1.55952e-06
1.3138e-07
1.62163e-06
1.16841e-07
1.68199e-06
8.76327e-08
1.73895e-06
5.38115e-08
1.79374e-06
1.77316e-08
4.21202e-08
7.02058e-07
1.36005e-07
6.49343e-07
2.36618e-07
5.97821e-07
3.46494e-07
5.47211e-07
4.70037e-07
4.98596e-07
6.03731e-07
4.56731e-07
7.67239e-07
4.2427e-07
9.66664e-07
4.21683e-07
1.26522e-06
4.58163e-07
1.61717e-06
4.99078e-07
1.91549e-06
5.06986e-07
2.06856e-06
4.51364e-07
2.04153e-06
3.42791e-07
1.90067e-06
2.27435e-07
1.7442e-06
1.4148e-07
1.6176e-06
9.09176e-08
1.52382e-06
6.9237e-08
1.4577e-06
6.94501e-08
1.4181e-06
8.37874e-08
1.40318e-06
1.05817e-07
1.41186e-06
1.30082e-07
1.44136e-06
1.51149e-07
1.48634e-06
1.59431e-07
1.54166e-06
1.57095e-07
1.60712e-06
1.45912e-07
1.67373e-06
1.25078e-07
1.73606e-06
9.04568e-08
1.79402e-06
5.34442e-08
1.84771e-06
1.6718e-08
4.1487e-08
7.5704e-07
1.35843e-07
7.02325e-07
2.37495e-07
6.48603e-07
3.49185e-07
5.95288e-07
4.74619e-07
5.42769e-07
6.08268e-07
4.94192e-07
7.70577e-07
4.53593e-07
9.59152e-07
4.32032e-07
1.23599e-06
4.51169e-07
1.58998e-06
4.8557e-07
1.91665e-06
4.9807e-07
2.12085e-06
4.54771e-07
2.14139e-06
3.51537e-07
2.01507e-06
2.28459e-07
1.84272e-06
1.29e-07
1.69132e-06
6.78641e-08
1.57411e-06
4.07464e-08
1.48691e-06
4.01679e-08
1.42872e-06
5.89748e-08
1.3984e-06
8.8704e-08
1.39581e-06
1.22002e-07
1.41843e-06
1.53128e-07
1.46135e-06
1.76243e-07
1.51853e-06
1.82645e-07
1.58774e-06
1.76518e-07
1.66124e-06
1.58411e-07
1.73077e-06
1.30326e-07
1.79488e-06
8.95102e-08
1.85146e-06
4.95922e-08
1.90053e-06
1.43387e-08
4.06065e-08
8.13052e-07
1.35408e-07
7.57538e-07
2.38143e-07
7.01786e-07
3.5045e-07
6.4748e-07
4.77293e-07
5.92761e-07
6.1375e-07
5.37488e-07
7.75809e-07
4.892e-07
9.61251e-07
4.51671e-07
1.2149e-06
4.53355e-07
1.56373e-06
4.77661e-07
1.91319e-06
4.89209e-07
2.16365e-06
4.55393e-07
2.23697e-06
3.59269e-07
2.13702e-06
2.29656e-07
1.95623e-06
1.15033e-07
1.78037e-06
4.00424e-08
1.63761e-06
4.48678e-09
1.52638e-06
1.42167e-09
1.44616e-06
2.2875e-08
1.39692e-06
6.06092e-08
1.37958e-06
1.05075e-07
1.39251e-06
1.48062e-07
1.43103e-06
1.83562e-07
1.48881e-06
2.06051e-07
1.56165e-06
2.08802e-07
1.64311e-06
1.94677e-07
1.72165e-06
1.6752e-07
1.79452e-06
1.30616e-07
1.85795e-06
8.29109e-08
1.90936e-06
4.06452e-08
1.94963e-06
1.00747e-08
3.96611e-08
8.6952e-07
1.33991e-07
8.14564e-07
2.37303e-07
7.58534e-07
3.49299e-07
7.03112e-07
4.78861e-07
6.46063e-07
6.20437e-07
5.86245e-07
7.81398e-07
5.3204e-07
9.66464e-07
4.8412e-07
1.201e-06
4.65882e-07
1.54005e-06
4.77254e-07
1.90693e-06
4.8408e-07
2.1979e-06
4.5509e-07
2.32594e-06
3.66514e-07
2.26378e-06
2.32574e-07
2.0842e-06
1.01748e-07
1.88685e-06
8.64851e-09
1.71713e-06
-3.93596e-08
1.57903e-06
-4.80267e-08
1.47296e-06
-2.52262e-08
1.4004e-06
1.95429e-08
1.3643e-06
7.60425e-08
1.36381e-06
1.33918e-07
1.39538e-06
1.83844e-07
1.45211e-06
2.2038e-07
1.52744e-06
2.40347e-07
1.61718e-06
2.34781e-07
1.70642e-06
2.09915e-07
1.79124e-06
1.70761e-07
1.86497e-06
1.23498e-07
1.92433e-06
6.78028e-08
1.9646e-06
2.55378e-08
1.99241e-06
4.92367e-09
3.82471e-08
9.25294e-07
1.31145e-07
8.7245e-07
2.33896e-07
8.18082e-07
3.47349e-07
7.60612e-07
4.79424e-07
7.02682e-07
6.25075e-07
6.41574e-07
7.85768e-07
5.82051e-07
9.72663e-07
5.26089e-07
1.19697e-06
4.88466e-07
1.52082e-06
4.85396e-07
1.89917e-06
4.85235e-07
2.22505e-06
4.57084e-07
2.4075e-06
3.73603e-07
2.39262e-06
2.37733e-07
2.22584e-06
9.09951e-08
2.01205e-06
-2.33665e-08
1.81527e-06
-8.93869e-08
1.64837e-06
-1.0857e-07
1.51238e-06
-8.7293e-08
1.41193e-06
-3.65855e-08
1.35184e-06
3.21609e-08
1.33341e-06
1.06593e-07
1.35419e-06
1.75254e-07
1.40753e-06
2.28541e-07
1.48419e-06
2.63724e-07
1.58202e-06
2.75583e-07
1.68267e-06
2.58564e-07
1.78218e-06
2.18955e-07
1.87133e-06
1.6433e-07
1.94334e-06
1.0435e-07
1.99068e-06
4.15565e-08
2.01158e-06
6.20335e-09
2.02225e-06
2.32603e-09
-1.51821e-11
3.62827e-08
9.79405e-07
1.27232e-07
9.29274e-07
2.29739e-07
8.76709e-07
3.44304e-07
8.21255e-07
4.77398e-07
7.62759e-07
6.26223e-07
7.01615e-07
7.89003e-07
6.38494e-07
9.78338e-07
5.7653e-07
1.20013e-06
5.2318e-07
1.50592e-06
5.03556e-07
1.89129e-06
4.93541e-07
2.24701e-06
4.63464e-07
2.48083e-06
3.8386e-07
2.52042e-06
2.45826e-07
2.3792e-06
8.44316e-08
2.15665e-06
-5.35332e-08
1.93501e-06
-1.4299e-07
1.73843e-06
-1.79316e-07
1.5692e-06
-1.65231e-07
1.43545e-06
-1.1065e-07
1.34483e-06
-2.93958e-08
1.30197e-06
6.3775e-08
1.30759e-06
1.5334e-07
1.35425e-06
2.28672e-07
1.43124e-06
2.81601e-07
1.53471e-06
3.11117e-07
1.64607e-06
3.12226e-07
1.76105e-06
2.79709e-07
1.86965e-06
2.20591e-07
1.96234e-06
1.4523e-07
2.02754e-06
6.73251e-08
2.05186e-06
1.08026e-09
2.04777e-06
-7.62987e-09
-1.18643e-08
1.00871e-06
2.61621e-09
1.01334e-06
-4.66319e-09
3.39392e-08
1.03078e-06
1.22227e-07
9.84484e-07
2.24327e-07
9.34773e-07
3.38578e-07
8.82541e-07
4.74031e-07
8.24749e-07
6.24797e-07
7.64337e-07
7.90784e-07
6.99969e-07
9.8299e-07
6.3406e-07
1.20776e-06
5.69149e-07
1.49683e-06
5.32479e-07
1.8825e-06
5.12543e-07
2.26437e-06
4.76398e-07
2.5468e-06
3.97641e-07
2.6454e-06
2.58946e-07
2.54152e-06
8.3483e-08
2.32101e-06
-7.9898e-08
2.07916e-06
-1.97588e-07
1.85412e-06
-2.58528e-07
1.6497e-06
-2.59659e-07
1.47731e-06
-2.06916e-07
1.34947e-06
-1.1512e-07
1.27442e-06
-1.67815e-09
1.25823e-06
1.13296e-07
1.29592e-06
2.11805e-07
1.37325e-06
2.86769e-07
1.47943e-06
3.36954e-07
1.60018e-06
3.57063e-07
1.72913e-06
3.44151e-07
1.85569e-06
2.93629e-07
1.97109e-06
2.11753e-07
2.06442e-06
1.08197e-07
2.10213e-06
6.84944e-09
1.00028e-08
1.03974e-06
-1.95457e-08
1.0506e-06
-2.21725e-08
1.02009e-06
-1.44241e-08
1.03152e-06
-2.33502e-08
1.00892e-06
2.00167e-09
1.01321e-06
-8.97181e-09
3.11552e-08
1.07883e-06
1.15618e-07
1.03745e-06
2.16577e-07
9.92318e-07
3.29555e-07
9.43909e-07
4.67563e-07
8.8912e-07
6.20202e-07
8.29467e-07
7.89917e-07
7.65294e-07
9.8536e-07
6.97814e-07
1.21626e-06
6.25721e-07
1.49353e-06
5.7273e-07
1.87452e-06
5.40671e-07
2.27889e-06
4.98188e-07
2.60447e-06
4.18879e-07
2.76324e-06
2.79878e-07
2.70885e-06
9.16183e-08
2.5026e-06
-9.81696e-08
2.24792e-06
-2.48638e-07
1.99895e-06
-3.42301e-07
1.76192e-06
-3.70554e-07
1.54925e-06
-3.31406e-07
1.37779e-06
-2.35043e-07
1.27212e-06
-1.12634e-07
1.23238e-06
2.43202e-08
1.2566e-06
1.5273e-07
1.33086e-06
2.54257e-07
1.44282e-06
3.23402e-07
1.573e-06
3.64125e-07
1.71136e-06
3.748e-07
1.85065e-06
3.49132e-07
1.97961e-06
2.8501e-07
2.09538e-06
1.80654e-07
2.16278e-06
2.31388e-08
2.42071e-08
1.05642e-06
-9.90294e-09
1.07301e-06
-6.64734e-09
1.04495e-06
-3.30527e-08
1.06815e-06
-2.75238e-08
1.06384e-06
-4.11438e-08
1.02145e-06
-2.27072e-08
1.03379e-06
-3.57554e-08
1.00757e-06
1.07735e-09
1.01175e-06
-1.3176e-08
2.82064e-08
1.12236e-06
1.08323e-07
1.0862e-06
2.06091e-07
1.04801e-06
3.17258e-07
1.0047e-06
4.57611e-07
9.5396e-07
6.12846e-07
8.96586e-07
7.84534e-07
8.34943e-07
9.83054e-07
7.67751e-07
1.22112e-06
6.93101e-07
1.49284e-06
6.26582e-07
1.86631e-06
5.81142e-07
2.28961e-06
5.30167e-07
2.65503e-06
4.47797e-07
2.87332e-06
3.08914e-07
2.87888e-06
1.09857e-07
2.69895e-06
-1.04809e-07
2.43906e-06
-2.89406e-07
2.17209e-06
-4.21775e-07
1.90982e-06
-4.90045e-07
1.66553e-06
-4.86595e-07
1.45961e-06
-4.12966e-07
1.32695e-06
-2.89639e-07
1.28043e-06
-1.60533e-07
1.30613e-06
-2.52169e-08
1.37683e-06
1.06594e-07
1.47881e-06
2.1799e-07
1.60394e-06
2.9212e-07
1.74178e-06
3.33361e-07
1.88474e-06
3.40367e-07
2.02026e-06
3.08158e-07
2.14311e-06
2.3698e-07
2.24767e-06
4.55271e-08
4.99896e-08
1.09406e-06
2.02027e-09
1.11271e-06
5.48308e-09
1.08902e-06
-2.75926e-08
1.04984e-06
-4.91863e-08
1.08443e-06
-4.81964e-08
1.07063e-06
-6.20285e-08
1.02031e-06
-3.13157e-08
1.03391e-06
-4.94201e-08
1.00108e-06
1.47663e-10
1.00642e-06
-1.85473e-08
2.50088e-08
1.16032e-06
1.00179e-07
1.13055e-06
1.92464e-07
1.09984e-06
3.0371e-07
1.06163e-06
4.45591e-07
1.01677e-06
6.01699e-07
9.65199e-07
7.73823e-07
9.07399e-07
9.76486e-07
8.41607e-07
1.2216e-06
7.6736e-07
1.49602e-06
6.90199e-07
1.8591e-06
6.34003e-07
2.29459e-06
5.76335e-07
2.69504e-06
4.90331e-07
2.97278e-06
3.48481e-07
3.04561e-06
1.42258e-07
2.90821e-06
-9.94365e-08
2.65312e-06
-3.18993e-07
2.37398e-06
-4.91339e-07
2.09323e-06
-6.05085e-07
1.83143e-06
-6.55644e-07
1.62028e-06
-6.4679e-07
1.50552e-06
-5.91024e-07
1.49992e-06
-5.08835e-07
1.56389e-06
-4.18412e-07
1.64943e-06
-2.98485e-07
1.73776e-06
-1.53548e-07
1.82303e-06
-2.5966e-09
1.91273e-06
1.19621e-07
2.02663e-06
1.9e-07
2.15324e-06
2.06017e-07
2.27823e-06
1.71856e-07
2.38394e-06
6.6083e-08
3.37162e-08
1.14047e-06
1.76904e-08
1.16745e-06
2.2883e-08
1.11329e-06
-2.23318e-08
1.13801e-06
-1.93245e-08
1.10876e-06
-5.20117e-08
1.0521e-06
-6.74636e-08
1.09549e-06
-7.31532e-08
1.07529e-06
-8.53227e-08
1.01574e-06
-4.06803e-08
1.03047e-06
-6.42179e-08
9.90657e-07
-2.43091e-09
9.97673e-07
-2.55861e-08
2.16409e-08
1.19195e-06
9.04552e-08
1.17009e-06
1.77444e-07
1.14564e-06
2.89647e-07
1.11392e-06
4.29754e-07
1.07746e-06
5.86041e-07
1.03254e-06
7.6018e-07
9.78939e-07
9.67703e-07
9.1633e-07
1.21887e-06
8.44374e-07
1.50145e-06
7.62135e-07
1.85367e-06
6.95697e-07
2.2952e-06
6.33614e-07
2.7257e-06
5.45872e-07
3.05691e-06
4.0635e-07
3.19921e-06
1.95049e-07
3.1174e-06
-6.68057e-08
2.88337e-06
-3.29698e-07
2.60468e-06
-5.49709e-07
2.31556e-06
-7.13537e-07
2.0502e-06
-8.23394e-07
1.86329e-06
-8.97672e-07
1.8229e-06
-9.62895e-07
1.92437e-06
-1.01445e-06
2.08146e-06
-1.02636e-06
2.21799e-06
-9.88074e-07
2.30537e-06
-8.68514e-07
2.36342e-06
-6.97434e-07
2.39884e-06
-4.93006e-07
2.44727e-06
-3.05135e-07
2.53221e-06
-1.93128e-07
2.64811e-06
-1.68057e-07
2.76072e-06
-2.61725e-08
-1.82741e-07
1.22164e-06
1.15964e-08
1.31166e-06
-5.71388e-08
1.17031e-06
-1.4739e-08
1.22013e-06
-2.71952e-08
1.1362e-06
-4.98718e-08
1.16759e-06
-5.08364e-08
1.12395e-06
-8.05714e-08
1.05085e-06
-8.79502e-08
1.10283e-06
-1.00813e-07
1.07657e-06
-1.11155e-07
1.00792e-06
-5.09776e-08
1.0234e-06
-7.97767e-08
9.75746e-07
-5.1067e-09
9.83311e-07
-3.31752e-08
1.76346e-08
1.21683e-06
7.87966e-08
1.20365e-06
1.60804e-07
1.18678e-06
2.72373e-07
1.16296e-06
4.08644e-07
1.13515e-06
5.65924e-07
1.0977e-06
7.43389e-07
1.04934e-06
9.55211e-07
9.91499e-07
1.21162e-06
9.2361e-07
1.50397e-06
8.41989e-07
1.85045e-06
7.65524e-07
2.29212e-06
6.98973e-07
2.74911e-06
6.104e-07
3.12707e-06
4.75857e-07
3.33863e-06
2.67035e-07
3.32127e-06
-8.70186e-09
3.12198e-06
-3.05272e-07
2.85054e-06
-5.7549e-07
2.56801e-06
-8.0195e-07
2.32109e-06
-9.83684e-07
2.18359e-06
-1.142e-06
2.24979e-06
-1.32201e-06
2.48339e-06
-1.51971e-06
2.74347e-06
-1.67558e-06
2.94952e-06
-1.75881e-06
3.07089e-06
-1.75621e-06
3.13794e-06
-1.64725e-06
3.15563e-06
-1.46002e-06
3.16665e-06
-1.22014e-06
3.2136e-06
-9.95481e-07
3.31933e-06
-8.73972e-07
3.47786e-06
-3.60995e-07
-5.348e-07
1.47605e-06
-1.92521e-07
1.6766e-06
-3.86248e-07
1.31846e-06
-8.74636e-08
1.484e-06
-2.24578e-07
1.2179e-06
-6.52976e-08
1.31403e-06
-1.23972e-07
1.15811e-06
-8.41653e-08
1.20567e-06
-9.86209e-08
1.13532e-06
-1.13192e-07
1.04546e-06
-1.10119e-07
1.10705e-06
-1.31427e-07
1.07315e-06
-1.38974e-07
9.95088e-07
-6.28062e-08
1.01167e-06
-9.6443e-08
9.58611e-07
-8.38124e-09
9.65585e-07
-4.01722e-08
1.28062e-08
1.23339e-06
6.48313e-08
1.23084e-06
1.41713e-07
1.22279e-06
2.51562e-07
1.20765e-06
3.85829e-07
1.18583e-06
5.4102e-07
1.16011e-06
7.223e-07
1.11875e-06
9.38252e-07
1.06627e-06
1.19986e-06
1.00332e-06
1.50351e-06
9.24153e-07
1.84953e-06
8.43034e-07
2.28567e-06
7.72147e-07
2.7647e-06
6.83588e-07
3.18387e-06
5.53759e-07
3.46279e-06
3.51776e-07
3.51834e-06
6.99768e-08
3.36612e-06
-2.52813e-07
3.11096e-06
-5.65495e-07
2.83983e-06
-8.46961e-07
2.61877e-06
-1.0985e-06
2.55944e-06
-1.35694e-06
2.74991e-06
-1.63837e-06
3.10811e-06
-1.94323e-06
3.46164e-06
-2.23599e-06
3.72543e-06
-2.4516e-06
3.85135e-06
-2.54134e-06
3.90301e-06
-2.52548e-06
3.91276e-06
-2.41043e-06
3.91683e-06
-2.21844e-06
3.95342e-06
-1.97096e-06
4.06418e-06
-1.75399e-06
4.26844e-06
-7.646e-07
-9.14464e-07
1.88799e-06
-5.75743e-07
2.12065e-06
-7.71268e-07
1.70142e-06
-4.12858e-07
1.92745e-06
-6.15793e-07
1.48561e-06
-2.60661e-07
1.71146e-06
-4.53405e-07
1.29767e-06
-1.57866e-07
1.46963e-06
-2.97366e-07
1.18221e-06
-1.31263e-07
1.26753e-06
-1.84433e-07
1.1489e-06
-1.55236e-07
1.03471e-06
-1.33274e-07
1.10979e-06
-1.68251e-07
1.0652e-06
-1.6963e-07
9.77697e-07
-7.49693e-08
9.94592e-07
-1.13428e-07
9.34511e-07
-1.07623e-08
9.41387e-07
-4.70685e-08
6.63904e-09
1.23967e-06
4.8285e-08
1.24995e-06
1.20022e-07
1.25259e-06
2.27754e-07
1.24665e-06
3.63107e-07
1.23042e-06
5.09936e-07
1.21694e-06
6.96898e-07
1.18553e-06
9.17362e-07
1.13975e-06
1.1837e-06
1.08256e-06
1.49934e-06
1.00751e-06
1.84724e-06
9.26491e-07
2.27672e-06
8.52077e-07
2.772e-06
7.65029e-07
3.22746e-06
6.40176e-07
3.56832e-06
4.48337e-07
3.70237e-06
1.67753e-07
3.61013e-06
-1.7413e-07
3.38362e-06
-5.25357e-07
3.12881e-06
-8.54e-07
2.93435e-06
-1.16102e-06
2.94983e-06
-1.48539e-06
3.26626e-06
-1.86824e-06
3.75858e-06
-2.28427e-06
4.18268e-06
-2.66161e-06
4.4162e-06
-2.92573e-06
4.47441e-06
-3.07513e-06
4.44628e-06
-3.08718e-06
4.41949e-06
-3.03617e-06
4.41172e-06
-2.91095e-06
4.46162e-06
-2.73476e-06
4.6054e-06
-2.52458e-06
4.86573e-06
-1.1278e-06
-1.23938e-06
2.30685e-06
-9.54793e-07
2.50187e-06
-1.11355e-06
2.16007e-06
-8.12282e-07
2.37932e-06
-9.9463e-07
1.95409e-06
-6.59043e-07
2.19697e-06
-8.62632e-07
1.70427e-06
-4.98222e-07
1.9594e-06
-7.12057e-07
1.43513e-06
-3.26743e-07
1.67436e-06
-5.39404e-07
1.22459e-06
-2.07368e-07
1.38108e-06
-3.42038e-07
1.17322e-06
-2.1901e-07
1.01789e-06
-1.56706e-07
1.1165e-06
-2.19839e-07
1.05575e-06
-2.07729e-07
9.53423e-07
-8.70564e-08
9.70237e-07
-1.3034e-07
9.07626e-07
-1.27793e-08
9.14404e-07
-5.38639e-08
-9.74055e-10
1.23305e-06
2.97018e-08
1.25828e-06
9.57488e-08
1.27425e-06
2.01065e-07
1.27929e-06
3.36387e-07
1.2734e-06
4.72581e-07
1.26783e-06
6.65634e-07
1.2482e-06
8.92441e-07
1.21045e-06
1.16309e-06
1.16048e-06
1.49135e-06
1.09058e-06
1.84234e-06
1.01255e-06
2.267e-06
9.36337e-07
2.77123e-06
8.52996e-07
3.25812e-06
7.3454e-07
3.65382e-06
5.54805e-07
3.86715e-06
2.83602e-07
3.84658e-06
-6.8781e-08
3.66047e-06
-4.51101e-07
3.42743e-06
-8.23517e-07
3.26093e-06
-1.17874e-06
3.33765e-06
-1.54446e-06
3.76029e-06
-1.97331e-06
4.36294e-06
-2.46697e-06
4.82912e-06
-2.92711e-06
4.9632e-06
-3.20681e-06
4.88026e-06
-3.33001e-06
4.73828e-06
-3.3661e-06
4.65783e-06
-3.32506e-06
4.61061e-06
-3.23441e-06
4.66018e-06
-3.11016e-06
4.82132e-06
-2.95388e-06
5.17016e-06
-1.39118e-06
-1.44724e-06
2.62669e-06
-1.25638e-06
2.7484e-06
-1.36408e-06
2.57361e-06
-1.15323e-06
2.73739e-06
-1.2812e-06
2.43034e-06
-1.0498e-06
2.64386e-06
-1.2123e-06
2.21646e-06
-9.20023e-07
2.46369e-06
-1.11396e-06
1.93975e-06
-7.67079e-07
2.20977e-06
-9.85913e-07
1.62002e-06
-5.68358e-07
1.89078e-06
-8.13579e-07
1.30825e-06
-3.43307e-07
1.53868e-06
-5.74776e-07
1.22352e-06
-3.26725e-07
9.95063e-07
-1.81706e-07
1.13417e-06
-2.98783e-07
1.04797e-06
-2.61014e-07
9.23691e-07
-9.63947e-08
9.38206e-07
-1.44965e-07
8.77203e-07
-1.36614e-08
8.80582e-07
-5.72576e-08
-1.06325e-08
1.2096e-06
8.19649e-09
1.25458e-06
6.79115e-08
1.28614e-06
1.71618e-07
1.30372e-06
3.03834e-07
1.31189e-06
4.3357e-07
1.31255e-06
6.29487e-07
1.30395e-06
8.66398e-07
1.27422e-06
1.14205e-06
1.23149e-06
1.48008e-06
1.17163e-06
1.83499e-06
1.09802e-06
2.25699e-06
1.02253e-06
2.7633e-06
9.44376e-07
3.27654e-06
8.34731e-07
3.71877e-06
6.6972e-07
4.00751e-06
4.14504e-07
4.06737e-06
6.27569e-08
3.93403e-06
-3.4252e-07
3.72874e-06
-7.52052e-07
3.58677e-06
-1.14746e-06
3.71085e-06
-1.54681e-06
4.2168e-06
-1.99364e-06
4.90357e-06
-2.50772e-06
5.3382e-06
-2.97272e-06
5.3479e-06
-3.30961e-06
5.17815e-06
-3.5026e-06
4.91895e-06
-3.50851e-06
4.70283e-06
-3.40808e-06
4.59225e-06
-3.30213e-06
4.62377e-06
-3.193e-06
4.8013e-06
-3.08398e-06
5.19728e-06
-1.50189e-06
-1.47427e-06
2.80066e-06
-1.44547e-06
2.84437e-06
-1.4912e-06
2.86098e-06
-1.38321e-06
2.94572e-06
-1.45108e-06
2.82746e-06
-1.34071e-06
2.97501e-06
-1.43203e-06
2.69316e-06
-1.28333e-06
2.8963e-06
-1.41923e-06
2.47018e-06
-1.1844e-06
2.71152e-06
-1.35918e-06
2.16896e-06
-1.049e-06
2.43846e-06
-1.25922e-06
1.81261e-06
-8.45828e-07
2.09278e-06
-1.09742e-06
1.43143e-06
-5.53022e-07
1.70203e-06
-8.48893e-07
1.30804e-06
-5.01998e-07
9.69378e-07
-2.13128e-07
1.17639e-06
-4.28225e-07
1.04777e-06
-3.40072e-07
8.86196e-07
-1.0206e-07
8.98914e-07
-1.57822e-07
8.45567e-07
-1.30333e-08
8.45225e-07
-5.6927e-08
-2.37351e-08
1.16783e-06
-2.03461e-08
1.23815e-06
3.58078e-08
1.2867e-06
1.38554e-07
1.3192e-06
2.6582e-07
1.34177e-06
3.94433e-07
1.35106e-06
5.9134e-07
1.35062e-06
8.39878e-07
1.33042e-06
1.12064e-06
1.29557e-06
1.46452e-06
1.247e-06
1.82634e-06
1.18029e-06
2.24576e-06
1.10926e-06
2.74905e-06
1.03684e-06
3.28329e-06
9.37741e-07
3.76412e-06
7.8952e-07
4.12161e-06
5.557e-07
4.26642e-06
2.15428e-07
4.19741e-06
-2.00807e-07
4.02621e-06
-6.39845e-07
3.90507e-06
-1.06851e-06
4.05915e-06
-1.49046e-06
4.62555e-06
-1.94701e-06
5.37289e-06
-2.45654e-06
5.74397e-06
-2.9103e-06
5.66685e-06
-3.28954e-06
5.39122e-06
-3.52049e-06
4.98846e-06
-3.56902e-06
4.56249e-06
-3.36254e-06
4.37001e-06
-3.1772e-06
4.38187e-06
-3.05032e-06
4.59091e-06
-2.97091e-06
5.00988e-06
-2.88377e-06
2.82742e-06
-1.48344e-06
2.80398e-06
-1.44766e-06
2.98831e-06
-1.48899e-06
3.00266e-06
-1.50464e-06
3.08204e-06
-1.49264e-06
3.14704e-06
-1.5173e-06
3.06277e-06
-1.51042e-06
3.18371e-06
-1.55539e-06
2.9256e-06
-1.50097e-06
3.09615e-06
-1.59285e-06
2.68682e-06
-1.43642e-06
2.89946e-06
-1.57513e-06
2.36406e-06
-1.32394e-06
2.61138e-06
-1.50996e-06
1.98048e-06
-1.12795e-06
2.24715e-06
-1.3676e-06
1.56066e-06
-8.08892e-07
1.82862e-06
-1.12044e-06
1.39977e-06
-7.27892e-07
9.37782e-07
-2.52393e-07
1.22615e-06
-6.08399e-07
1.05356e-06
-4.57033e-07
8.44474e-07
-1.01362e-07
8.54255e-07
-1.67793e-07
8.1556e-07
-1.08215e-08
8.10727e-07
-5.21007e-08
-4.10742e-08
1.10238e-06
-5.74561e-08
1.20496e-06
-1.43609e-09
1.2754e-06
1.00144e-07
1.3251e-06
2.226e-07
1.36247e-06
3.54167e-07
1.38205e-06
5.54713e-07
1.38744e-06
8.12277e-07
1.37807e-06
1.09915e-06
1.35189e-06
1.44724e-06
1.31276e-06
1.81706e-06
1.25631e-06
2.23367e-06
1.19237e-06
2.73097e-06
1.12734e-06
3.27892e-06
1.04129e-06
3.79143e-06
9.10548e-07
4.20834e-06
7.02891e-07
4.43722e-06
3.84906e-07
4.44285e-06
-3.01535e-08
4.31478e-06
-4.8937e-07
4.21187e-06
-9.44986e-07
4.37658e-06
-1.38052e-06
4.98072e-06
-1.83689e-06
5.76848e-06
-2.33637e-06
6.08111e-06
-2.79083e-06
5.94966e-06
-3.19137e-06
5.57634e-06
-3.47302e-06
4.95405e-06
-3.48235e-06
4.34274e-06
-3.34071e-06
4.11282e-06
-3.09153e-06
4.09313e-06
-2.87007e-06
4.28881e-06
-2.72474e-06
4.68303e-06
-2.61987e-06
-2.91924e-06
5.43545e-06
-1.30986e-06
-1.26231e-06
2.98138e-06
-1.4596e-06
-1.38104e-06
3.17529e-06
-1.51709e-06
3.17516e-06
-1.5028e-06
3.25389e-06
-1.56424e-06
3.28154e-06
-1.54523e-06
3.21168e-06
-1.62835e-06
3.27716e-06
-1.62249e-06
3.05919e-06
-1.66355e-06
3.16904e-06
-1.70499e-06
2.81176e-06
-1.63986e-06
2.96156e-06
-1.72754e-06
2.4809e-06
-1.5609e-06
2.6667e-06
-1.69859e-06
2.08418e-06
-1.38691e-06
2.30158e-06
-1.588e-06
1.64732e-06
-1.06015e-06
1.87836e-06
-1.35478e-06
1.45083e-06
-9.55974e-07
9.01949e-07
-3.00738e-07
1.24216e-06
-8.0002e-07
1.03574e-06
-5.9263e-07
7.98867e-07
-8.95631e-08
7.98213e-07
-1.67428e-07
7.90578e-07
-5.32118e-09
7.78327e-07
-3.98518e-08
-6.5647e-08
1.00288e-06
-1.04144e-07
1.14907e-06
-4.60216e-08
1.24954e-06
5.54617e-08
1.32008e-06
1.75316e-07
1.37243e-06
3.14889e-07
1.40174e-06
5.22491e-07
1.41397e-06
7.84567e-07
1.41516e-06
1.07932e-06
1.39777e-06
1.42981e-06
1.36908e-06
1.80473e-06
1.32498e-06
2.22013e-06
1.26967e-06
2.71003e-06
1.21324e-06
3.26447e-06
1.14182e-06
3.8025e-06
1.03032e-06
4.26809e-06
8.50893e-07
4.57649e-06
5.63648e-07
4.66391e-06
1.63742e-07
4.588e-06
-3.03508e-07
4.5038e-06
-7.8007e-07
4.66141e-06
-1.22427e-06
5.28169e-06
-1.67243e-06
6.09743e-06
-2.16002e-06
6.37652e-06
-2.62865e-06
6.20257e-06
-3.0426e-06
5.72534e-06
-3.342e-06
4.90424e-06