/*--------------------------------*- C++ -*----------------------------------*\
  =========                 |
  \\      /  F ield         | OpenFOAM: The Open Source CFD Toolbox
   \\    /   O peration     | Website:  https://openfoam.org
    \\  /    A nd           | Version:  dev
     \\/     M anipulation  |
\*---------------------------------------------------------------------------*/
FoamFile
{
    version     2.0;
    format      ascii;
    class       volScalarField;
    location    "2500";
    object      qr;
}
// * * * * * * * * * * * * * * * * * * * * * * * * * * * * * * * * * * * * * //

dimensions      [1 0 -3 0 0 0 0];

internalField   uniform 0;

boundaryField
{
    lowerOutlet
    {
        type            calculated;
        value           nonuniform List<scalar> 
146
(
981.875
985.124
988.748
992.722
997.052
1001.75
1006.82
1012.27
1018.12
1024.39
1031.1
1038.26
1045.9
1054.05
1062.75
1072.02
1081.92
1092.49
1103.78
1115.85
1128.79
1142.66
1157.58
1173.64
1191.01
1209.83
1230.27
1252.53
1276.88
1303.62
1333.14
1365.89
1402.46
1433.7
1478.97
1530.72
1590.24
1659.45
1740.75
1837.41
1953.78
2095.99
2270.78
2466.22
2920.49
3494.84
4187.8
5370.32
4400.72
4328.54
3123.82
2596.18
2281.83
2066.83
1888.86
1769.7
1674.67
1597.42
1533.36
1479.16
1432.57
1392
1356.29
1324.57
1289.09
1264.16
1241.48
1220.72
1201.64
1184.01
1167.67
1152.48
1138.3
1125.06
1112.67
1101.04
1090.09
1079.77
1070.05
1060.86
1052.18
1043.97
1036.21
1028.87
1021.93
1015.36
1009.16
1003.31
997.783
992.582
987.693
983.107
978.816
974.815
971.097
967.66
964.529
1786.92
1892.79
2021.2
2178.88
2374.37
2699.41
3373.47
3842.8
5187.24
5829.45
-8782.38
3548.03
2701.95
2348.4
2114.25
1961.02
1825.67
1719.66
1634.13
1563.99
1505.19
1623.5
1698.41
3117.75
3623.89
4562.49
5536.15
4061.52
2982.47
2504.01
2221.15
2022.9
1455.02
1411.6
2549.67
3249.19
3642.13
4871.53
5691.72
3803.96
2827.12
2422
2165.51
1455.6
1503.97
1559.4
1373.6
1339.97
1310.01
)
;
    }
    top
    {
        type            calculated;
        value           nonuniform List<scalar> 
100
(
898.331
900.959
903.624
906.277
908.919
902.504
904.167
906.04
907.808
909.606
911.429
913.245
915.007
916.708
918.425
920.075
921.713
923.647
925.726
927.784
929.826
931.845
933.834
935.772
937.662
939.502
941.293
943.022
944.701
946.329
947.893
949.424
950.915
952.377
953.789
955.144
956.462
957.553
958.333
958.661
957.792
953.571
941.357
927.373
919.602
919.264
924.46
936.312
952.723
967.59
973.006
974.124
974.392
974.414
974.295
974.068
973.748
973.327
972.799
972.17
971.45
970.656
969.766
968.79
967.814
966.697
965.482
964.054
962.636
960.985
959.301
957.496
955.599
953.663
951.729
949.94
948.487
947.883
956.604
954.141
951.64
949.103
946.533
943.934
941.308
938.659
935.991
933.304
930.601
927.889
925.169
922.446
919.723
917.002
911.31
907.539
904.24
901.584
899.722
898.855
)
;
    }
    sides
    {
        type            calculated;
        value           nonuniform List<scalar> 
100
(
981.895
984.498
986.776
988.722
990.34
991.635
992.613
993.285
993.659
993.747
993.56
993.111
992.413
991.481
990.327
988.967
987.416
985.687
983.796
981.756
979.581
977.284
974.879
972.376
969.789
967.127
964.401
961.62
958.793
955.926
953.027
950.102
947.159
944.206
941.247
938.286
935.328
932.377
929.435
926.506
923.592
920.696
917.819
914.963
912.129
909.319
906.531
903.768
901.028
898.348
964.549
967.167
969.528
971.623
973.454
975.025
976.338
977.401
978.219
978.797
979.145
979.269
979.177
978.879
978.384
977.7
976.837
975.805
974.614
973.272
971.79
970.178
968.443
966.596
964.646
962.6
960.466
958.253
955.969
953.619
951.209
948.745
946.235
943.686
941.103
938.49
935.853
933.195
930.52
927.831
925.133
922.427
919.716
917.003
914.29
911.577
908.868
906.162
903.46
900.799
)
;
    }
    front
    {
        type            empty;
    }
    back
    {
        type            empty;
    }
    roller
    {
        type            calculated;
        value           nonuniform List<scalar> 
142
(
5650.29
4469.88
3536.34
2689.85
1539.65
1269.28
1206.91
1156.61
1121.41
1126.15
6394.24
6869.54
6257.37
5367.36
4844.36
2633.38
1992.21
1575.36
1808.59
1359.14
1221.9
1167.36
1191.83
1131.95
1136.89
1123.08
4577.06
4850.05
4207.26
2432.59
1887.48
2251.3
2171.39
1514.81
1260.06
1147.21
1128.76
6182.13
6836.94
6522.18
5279.73
4305.4
5152.24
3576.91
3287.49
2535.6
2098.62
1614.07
1865
1380.99
1293.39
1275.87
1257.42
1246.87
1136.07
1128.27
6584.41
6830.07
5948.72
2028.23
1960.2
1466.23
1440.13
1370.32
1315.86
1300.78
1338.54
1314.23
1115.58
1116.58
2336.15
1757.09
1749.95
1623.6
1386.42
1584.32
1479.18
1328.12
1448.64
1278.61
1201.74
1165.87
1158.33
1123.63
1116.68
1115.31
5956.96
6739.36
6713.56
5617.2
3865.17
3816.76
2864.54
1703.71
1656.3
1910.67
1421.21
1355.2
1411.85
1218.42
1227.49
1192.72
1182.62
1173.97
1141.36
1151.21
1146.08
1119.4
1114.74
1113.76
1113.53
1118.22
4060.79
3311.36
3084.15
2870.21
3063.21
2260.2
2114.65
2431.63
1817.64
1492.76
1706.33
1664.36
1403.39
1546.94
1511.82
1341.14
1288.01
1236.8
1246.55
1233.79
1210.04
1179.47
1141.25
1125.42
1132.74
1117.97
1113.99
1113.59
1114.43
1120.17
)
;
    }
    burner
    {
        type            calculated;
        value           nonuniform List<scalar> 
14
(
-123082
-119982
-120860
-124297
-120459
-120091
-126517
-122014
-119731
-122230
-125533
-121140
-119750
-124565
)
;
    }
}


// ************************************************************************* //
