/*--------------------------------*- C++ -*----------------------------------*\
  =========                 |
  \\      /  F ield         | OpenFOAM: The Open Source CFD Toolbox
   \\    /   O peration     | Website:  https://openfoam.org
    \\  /    A nd           | Version:  dev
     \\/     M anipulation  |
\*---------------------------------------------------------------------------*/
FoamFile
{
    version     2.0;
    format      ascii;
    class       volScalarField;
    location    "2500";
    object      rAU;
}
// * * * * * * * * * * * * * * * * * * * * * * * * * * * * * * * * * * * * * //

dimensions      [-1 3 1 0 0 0 0];

internalField   nonuniform List<scalar> 
9846
(
0.00823174
0.00830035
0.00825991
0.00829441
0.00840537
0.00820822
0.0082925
0.0083995
0.00841004
0.00816865
0.00828565
0.00839924
0.00839682
0.00842067
0.00813388
0.00828451
0.00840107
0.00838857
0.00840576
0.00842848
0.00810289
0.00828563
0.0084075
0.00838709
0.00839172
0.0084185
0.00843229
0.00807586
0.00829092
0.00841484
0.00838997
0.00838275
0.00840395
0.00842771
0.00843399
0.00805221
0.0082968
0.00842322
0.00839744
0.0083731
0.00839009
0.00841779
0.00843266
0.00843461
0.0080316
0.00829991
0.00843031
0.0084073
0.0083732
0.00837968
0.0084045
0.00842737
0.00843504
0.00843499
0.00801312
0.00830165
0.00843329
0.00841607
0.00838282
0.008366
0.00839074
0.00841826
0.00843266
0.00843598
0.00843531
0.00799637
0.00830339
0.00843473
0.00842395
0.00839183
0.00835949
0.00837863
0.00840642
0.00842735
0.00843574
0.00843657
0.00843559
0.00798123
0.00830431
0.00843571
0.0084291
0.00840269
0.00836778
0.00837044
0.00839266
0.00841969
0.0084329
0.00843706
0.00843717
0.00843577
0.0079675
0.00830146
0.00843605
0.00843215
0.00841262
0.00837648
0.00834278
0.00838026
0.00840897
0.00842801
0.00843609
0.00843794
0.00843773
0.00843572
0.00795465
0.00829792
0.00843639
0.00843405
0.00842046
0.00838616
0.00834018
0.00836998
0.00839655
0.00842121
0.00843308
0.00843782
0.0084386
0.00843823
0.00843575
0.00794266
0.00830031
0.00843547
0.00843524
0.0084264
0.00839812
0.00836431
0.00825648
0.00838317
0.00841247
0.0084289
0.00843637
0.00843885
0.00843923
0.00843856
0.0084356
0.00793126
0.00830159
0.00843562
0.00843571
0.00843018
0.00840877
0.00837027
0.00821758
0.00837106
0.00840074
0.00842343
0.00843358
0.00843839
0.00843967
0.00843981
0.0084387
0.00843561
0.00792031
0.00829816
0.00843646
0.0084361
0.00843263
0.00841706
0.00838053
0.00832091
0.0083611
0.00838741
0.00841564
0.0084303
0.00843666
0.00843959
0.00844032
0.00844035
0.00843876
0.00843546
0.00790937
0.00829307
0.00843639
0.00843632
0.00843385
0.00842342
0.00839312
0.00835731
0.00824411
0.00837386
0.008405
0.00842559
0.00843469
0.00843893
0.00844038
0.00844108
0.00844071
0.00843884
0.00843536
0.00789846
0.00828657
0.00843638
0.00843612
0.00843463
0.00842734
0.00840419
0.00836359
0.00820253
0.00836236
0.00839194
0.00841836
0.00843187
0.00843773
0.00844034
0.00844109
0.00844163
0.00844088
0.00843885
0.00843523
0.00788714
0.00827868
0.00843624
0.00843598
0.00843503
0.00842995
0.00841294
0.00837409
0.00831014
0.00822147
0.00837871
0.00840886
0.00842735
0.0084359
0.00843996
0.00844125
0.00844178
0.00844213
0.00844097
0.00843885
0.00843505
0.00787528
0.00826909
0.00843585
0.00843599
0.00843529
0.00843169
0.00841923
0.00838662
0.00834979
0.00814666
0.00836573
0.00839722
0.00842099
0.00843273
0.00843882
0.00844145
0.00844189
0.00844235
0.0084424
0.00844101
0.00843888
0.00843495
0.0078627
0.00825771
0.00843576
0.00843583
0.00843516
0.0084327
0.00842372
0.0083981
0.00835521
0.0082652
0.0083549
0.00838459
0.00841276
0.00842861
0.0084365
0.00844105
0.00844264
0.00844246
0.0084428
0.00844248
0.00844103
0.0084388
0.00843479
0.0078492
0.00824471
0.00843568
0.00843556
0.00843511
0.00843332
0.00842691
0.00840733
0.00836523
0.00833334
0.00834542
0.00837172
0.00840266
0.0084233
0.00843333
0.00843918
0.00844272
0.00844339
0.00844293
0.00844308
0.00844254
0.008441
0.00843878
0.00843462
0.00783469
0.0082304
0.00843553
0.00843543
0.00843498
0.00843366
0.00842882
0.00841448
0.00837761
0.00834057
0.00831856
0.0083586
0.00839107
0.0084164
0.00842975
0.00843664
0.0084412
0.00844387
0.00844393
0.00844337
0.0084432
0.00844254
0.00844088
0.00843867
0.00843447
0.00781973
0.0082147
0.0084354
0.00843554
0.00843492
0.00843386
0.00843013
0.00841967
0.00838976
0.0083447
0.00831299
0.0083472
0.008378
0.00840761
0.00842509
0.00843387
0.00843897
0.00844275
0.00844471
0.0083211
0.00844345
0.00844311
0.00844242
0.00844083
0.00843863
0.00843459
0.00780386
0.00819775
0.00843536
0.00843551
0.008435
0.00843415
0.00843095
0.00842321
0.00839944
0.0083531
0.00832838
0.00833726
0.00836486
0.00839695
0.0084192
0.0084305
0.00843666
0.00844074
0.00844389
0.00823219
0.00844444
0.00844342
0.00844295
0.00844227
0.00844075
0.00843877
0.00843452
0.00778698
0.00817969
0.00843548
0.00843538
0.00843508
0.00843432
0.00843173
0.0084256
0.00840717
0.00836494
0.00832832
0.00832872
0.0083516
0.00838496
0.00841151
0.00842613
0.00843388
0.00843862
0.00844203
0.00835915
0.00841327
0.00844445
0.00844321
0.00844261
0.00844207
0.00844083
0.00843874
0.00843443
0.00776948
0.00816086
0.00843562
0.00843546
0.00843524
0.00843436
0.00843234
0.00842733
0.00841339
0.00837754
0.00833128
0.00832237
0.00833906
0.00837173
0.00840204
0.00842081
0.0084304
0.00843617
0.00844006
0.0084415
0.00841992
0.00844256
0.00844428
0.00844278
0.00844215
0.0084419
0.00844064
0.00843857
0.0084343
0.0077518
0.00814096
0.00843554
0.00843561
0.00843543
0.00843451
0.00843272
0.00842871
0.00841722
0.0083883
0.00833685
0.00831632
0.00832826
0.00835805
0.00839096
0.00841382
0.00842618
0.00843308
0.00843771
0.00844098
0.00844345
0.00844027
0.00844552
0.00844391
0.00844223
0.00844174
0.00844155
0.0084403
0.00843834
0.00843415
0.00773459
0.00812045
0.00843582
0.00843569
0.00843565
0.00843488
0.00843334
0.00842962
0.00842046
0.00839694
0.00834676
0.00831276
0.00831815
0.00834449
0.00837846
0.00840547
0.00842079
0.00842925
0.00843469
0.00843861
0.00844139
0.00844354
0.00844496
0.00844514
0.00844341
0.00844178
0.00844133
0.00844115
0.00843999
0.00843812
0.00843399
0.00771879
0.00809968
0.00843605
0.00843594
0.00843589
0.00843506
0.00843364
0.00843044
0.00842304
0.00840392
0.00835915
0.00831399
0.00830973
0.00833063
0.00836514
0.00839534
0.00841429
0.00842448
0.00843083
0.00843543
0.00843888
0.00844131
0.0084432
0.00844451
0.00844451
0.00844287
0.0084413
0.00844084
0.0084408
0.00843974
0.00843796
0.00843387
0.00761315
0.00807897
0.00843609
0.00843628
0.00843602
0.00843564
0.00843445
0.00843139
0.00842494
0.00840932
0.00837166
0.00829346
0.00830283
0.00831827
0.00835098
0.00838385
0.00840627
0.00841866
0.00842599
0.00843126
0.00843537
0.00843849
0.00844071
0.00844241
0.00844354
0.00844367
0.00844217
0.00844055
0.00844023
0.00844043
0.00843945
0.00843788
0.00832753
0.00755603
0.0080588
0.008436
0.00843637
0.00843636
0.00843603
0.00843499
0.00843229
0.00842621
0.0084131
0.00838188
0.00829965
0.00829644
0.00830729
0.00833734
0.00837131
0.00839696
0.00841155
0.00841995
0.00842587
0.00843054
0.00843446
0.00843741
0.00843969
0.00844117
0.00844228
0.00844268
0.00844108
0.00843957
0.00843954
0.00843997
0.00843898
0.00843784
0.00827272
0.00662576
0.00791316
0.00803968
0.0084361
0.0084368
0.00843686
0.00843658
0.00843554
0.00843312
0.00842737
0.00841635
0.00838983
0.00833416
0.00829271
0.00829622
0.00832324
0.00835846
0.00838676
0.00840348
0.00841259
0.0084189
0.00842405
0.00842661
0.00843133
0.00843602
0.00843841
0.0084399
0.00844136
0.00844162
0.00844004
0.00843868
0.00843894
0.00843948
0.00843031
0.00848195
0.00818626
0.00818418
0.0067955
0.00814207
0.00802183
0.00843616
0.00843713
0.00843712
0.00843716
0.008436
0.00843387
0.00842856
0.00841893
0.00839671
0.0083472
0.00829385
0.00828611
0.00830799
0.00834423
0.00837548
0.00839478
0.00840438
0.00841019
0.00841524
0.00839834
0.00841686
0.00842447
0.00839254
0.00832236
0.00830666
0.00830385
0.00829363
0.00844
0.00843874
0.00843914
0.00843268
0.00832705
0.00817458
0.00818172
0.00829339
0.00817778
0.00815771
0.00815527
0.006787
0.00814151
0.0080055
0.00843613
0.00843748
0.00843744
0.0084375
0.00843661
0.00843456
0.00842965
0.00842072
0.00840213
0.00836016
0.0082981
0.00827764
0.00829388
0.00832883
0.00836278
0.00838482
0.00839531
0.00839995
0.00840306
0.00840737
0.00837899
0.00836249
0.00833286
0.00825374
0.0081557
0.00815091
0.00814148
0.00827753
0.00826713
0.00841842
0.00843634
0.00818472
0.00819819
0.00814849
0.00815331
0.0081517
0.00815731
0.00815922
0.00815611
0.00677966
0.00813984
0.00799141
0.00843622
0.00843765
0.0084379
0.00843806
0.00843739
0.00843537
0.00843049
0.0084221
0.00840576
0.00837121
0.00830458
0.00827038
0.00828101
0.00831366
0.00834954
0.00837404
0.0083851
0.00838794
0.00838704
0.00838471
0.00837267
0.00831203
0.00827951
0.00828247
0.00820535
0.00817321
0.00813959
0.0081108
0.00814873
0.00829391
0.00834499
0.00820432
0.0082031
0.00817451
0.00818627
0.00817016
0.00816208
0.00817683
0.00818502
0.00816051
0.00816576
0.00678007
0.00813977
0.00797939
0.00843617
0.00843803
0.00843864
0.00843882
0.00843806
0.00843629
0.00843164
0.00842377
0.00840883
0.00837962
0.00831583
0.00826642
0.008268
0.00829732
0.00833539
0.00836299
0.0083747
0.00837495
0.00836821
0.00835627
0.00833729
0.00829492
0.00826164
0.00825931
0.00824694
0.008233
0.00820757
0.00815587
0.00820132
0.00821246
0.00822975
0.00815108
0.00808872
0.00818407
0.00816726
0.00819628
0.00819806
0.00819903
0.00819098
0.00821195
0.00822347
0.00817102
0.00819708
0.0067924
0.00815981
0.00797014
0.00843615
0.00843825
0.00843917
0.00843972
0.00843877
0.00843699
0.00843298
0.00842535
0.00841135
0.00838625
0.00832984
0.00826781
0.00825608
0.00827969
0.00831907
0.00835019
0.00836411
0.00836235
0.00834934
0.00832407
0.0082905
0.00825302
0.00822927
0.00822416
0.0082309
0.00824479
0.00825644
0.00823726
0.00824428
0.00826295
0.00823566
0.00801515
0.00785595
0.0080791
0.00798227
0.00818717
0.0081122
0.00820919
0.008201
0.00822451
0.00823365
0.00824271
0.00825886
0.00820922
0.00824449
0.00683813
0.00820574
0.00796378
0.00843598
0.00843834
0.00843952
0.00844005
0.00843937
0.00843782
0.00843415
0.00842662
0.00841366
0.00839159
0.00834407
0.00827245
0.008246
0.00826314
0.00830161
0.00833578
0.00835214
0.00834958
0.00833184
0.00829616
0.00824761
0.00820471
0.0081926
0.0082006
0.00820391
0.00822362
0.00826255
0.00828492
0.00830099
0.00831403
0.00825395
0.00767694
0.00756167
0.00785671
0.00767701
0.00801507
0.00787732
0.0081386
0.00804787
0.00821613
0.00816068
0.00823633
0.00827291
0.00826134
0.00828454
0.00825503
0.00828375
0.00689446
0.00824626
0.00795066
0.00843589
0.00843843
0.00843982
0.00844067
0.00844007
0.00843865
0.00843506
0.00842778
0.00841576
0.00839558
0.00835718
0.00828166
0.00823916
0.00824788
0.00828387
0.00832123
0.00834003
0.00833728
0.00831488
0.00827271
0.00821574
0.0081821
0.00814672
0.0081103
0.00812644
0.00814092
0.00818215
0.00830518
0.00834847
0.00835964
0.00826489
0.00747779
0.00745708
0.0075534
0.00747866
0.0076923
0.00756451
0.00790301
0.007705
0.00808507
0.00793436
0.00818363
0.0080911
0.00821659
0.00830292
0.00826113
0.00829321
0.00828883
0.00831134
0.00694715
0.00827372
0.00791889
0.00842446
0.00843855
0.00843998
0.00844097
0.00844026
0.00843938
0.00843553
0.00842829
0.00841756
0.00839824
0.00836713
0.00829653
0.00823841
0.00823495
0.00826517
0.00830617
0.00832906
0.00832709
0.00830094
0.00825178
0.00819236
0.00815802
0.00808841
0.00800578
0.0079056
0.00792917
0.00795827
0.00800271
0.00837183
0.00841097
0.00831139
0.00744921
0.00747458
0.00745707
0.0074651
0.00748758
0.00745793
0.00756922
0.00749134
0.0077273
0.00757912
0.0079447
0.00776108
0.0081116
0.00798056
0.00815086
0.00832128
0.00820296
0.00827205
0.00831236
0.00832985
0.00699349
0.00828983
0.00787498
0.00837785
0.00843866
0.0084403
0.00844122
0.00844006
0.00843974
0.00843646
0.00842872
0.0084196
0.00840082
0.00837436
0.00831293
0.00824237
0.0082248
0.0082474
0.00828998
0.00831829
0.00831983
0.00829294
0.0082367
0.00817641
0.0081149
0.00806529
0.00788868
0.00784952
0.00808371
0.0079094
0.00776315
0.00778114
0.00803801
0.00792587
0.0075027
0.00754359
0.00749152
0.00753239
0.00746423
0.00748847
0.00745935
0.00746347
0.00749338
0.00746049
0.00759711
0.00750639
0.00780958
0.00762684
0.00803145
0.0078673
0.00810183
0.00831783
0.00813307
0.00819069
0.00832732
0.00833605
0.007031
0.00829496
0.00798675
0.00831148
0.00842899
0.00844063
0.00844137
0.00844015
0.00844007
0.00843697
0.00842971
0.00842136
0.00840305
0.00837984
0.00832904
0.00825039
0.00821687
0.0082315
0.00827293
0.00830731
0.00831362
0.00829017
0.00823095
0.00816713
0.00808721
0.00798521
0.0081657
0.00809096
0.00772495
0.00799581
0.00782956
0.00781949
0.00786924
0.00779517
0.00684968
0.00652114
0.00757543
0.00685535
0.00745932
0.00742178
0.0074061
0.00731834
0.00741744
0.0073454
0.00746613
0.00737844
0.00752245
0.00746064
0.00767377
0.00755015
0.0079298
0.00772818
0.00796918
0.00826862
0.00805338
0.00812212
0.00833435
0.00831773
0.00704455
0.00828767
0.00801007
0.00841891
0.00841939
0.00844074
0.00844136
0.00844029
0.00844036
0.00843751
0.00843012
0.0084222
0.00840595
0.00838421
0.00834336
0.00826445
0.0082143
0.00821775
0.00825471
0.0082951
0.00830816
0.00828886
0.00823062
0.00816379
0.00807383
0.00793222
0.00813923
0.00840135
0.00756238
0.00794721
0.00800518
0.00793731
0.00821612
0.0082083
0.00815389
0.00651502
0.00704671
0.00732866
0.00717043
0.00716244
0.00704169
0.0070905
0.00693171
0.0072427
0.0073691
0.0073918
0.00739214
0.00746866
0.00745569
0.00759355
0.00751183
0.00778526
0.00762907
0.00786677
0.00817268
0.00793587
0.00802124
0.00832904
0.0082468
0.00701032
0.00827157
0.0080452
0.00843207
0.00842228
0.00844046
0.0084411
0.00844035
0.00844062
0.00843775
0.00843025
0.00842294
0.00840869
0.00838767
0.00835489
0.00828159
0.00821718
0.00820799
0.00823617
0.00828123
0.00830247
0.00828921
0.00823318
0.00816214
0.00807818
0.00800638
0.0081178
0.00841106
0.00777813
0.0077354
0.00772556
0.00796349
0.00821244
0.00805311
0.00837714
0.00741227
0.00739614
0.00729602
0.00744073
0.00696044
0.00690661
0.00683925
0.00716489
0.00717398
0.00709968
0.00729047
0.00749271
0.00738513
0.00745327
0.00744546
0.00744285
0.00753908
0.00746769
0.00766824
0.00754682
0.00773073
0.00808624
0.00781809
0.00789673
0.00829719
0.00814099
0.00687465
0.0080385
0.0080968
0.00842762
0.00843542
0.00843958
0.00844056
0.00844034
0.00844103
0.00843787
0.00843027
0.00842319
0.00841054
0.00839077
0.0083635
0.00829926
0.00822439
0.00820074
0.00822002
0.00826589
0.00829598
0.00829105
0.00824057
0.00816144
0.00808853
0.00814081
0.00820738
0.00834863
0.00818597
0.00741182
0.0077877
0.00804686
0.0079858
0.00775902
0.00791758
0.00736586
0.00709583
0.00711955
0.0071125
0.00704118
0.0071014
0.00718815
0.00721925
0.00710331
0.0075233
0.00690915
0.00679419
0.00672482
0.00646811
0.00740806
0.00675165
0.00741178
0.00680932
0.0074673
0.00739614
0.00756322
0.00745101
0.00759971
0.00797385
0.00766593
0.00775482
0.00811519
0.00801136
0.00707079
0.00825051
0.00817619
0.00841623
0.00843108
0.00843776
0.00843994
0.00844045
0.00844138
0.00843763
0.00843016
0.00842332
0.00841228
0.00839402
0.00837005
0.00831602
0.00823722
0.00819774
0.00820673
0.00824918
0.00828828
0.00829251
0.00825255
0.00816556
0.00810186
0.00814954
0.0083377
0.00827416
0.00819191
0.00796795
0.00799524
0.00831691
0.00812344
0.00789146
0.00769109
0.00674789
0.00667497
0.00710075
0.00733048
0.00726416
0.00727146
0.00724101
0.00725201
0.00752205
0.00752613
0.00732115
0.00740819
0.00709062
0.0073397
0.0066327
0.0072148
0.0064646
0.00696526
0.00693531
0.0068465
0.00738491
0.00735434
0.00744885
0.00736333
0.00746968
0.00783118
0.00751694
0.00758089
0.0080916
0.00793772
0.00687391
0.00796437
0.00818895
0.00840213
0.0084191
0.00843371
0.00843915
0.00844124
0.00844171
0.00843538
0.00842225
0.00842347
0.00841359
0.00839681
0.00837512
0.00833044
0.00825378
0.00819983
0.00819758
0.00823163
0.00827783
0.00829257
0.00826636
0.00817919
0.00811342
0.00815876
0.00832607
0.00829276
0.0082721
0.00824616
0.00828807
0.00826217
0.00826257
0.00807341
0.00794207
0.00801324
0.00726046
0.00706953
0.00726785
0.00722786
0.00747814
0.007461
0.00751433
0.00749471
0.00740044
0.00739084
0.00731451
0.00730445
0.00731332
0.00729121
0.00733522
0.00733229
0.00725144
0.00735939
0.00735223
0.00737654
0.00735386
0.00738256
0.00735958
0.00734488
0.00737852
0.00768663
0.00740461
0.00744213
0.00792999
0.00778809
0.00693501
0.00825358
0.00826232
0.00838616
0.00841921
0.00843824
0.00844186
0.00844131
0.00843463
0.00834923
0.00831691
0.00841476
0.00839907
0.00837922
0.00834227
0.00827115
0.0082063
0.0081923
0.00821557
0.00826455
0.00829023
0.00827884
0.00820089
0.00812019
0.00816072
0.0083103
0.0083203
0.00829322
0.00838983
0.00828966
0.00806592
0.00798116
0.00807527
0.00820784
0.00813211
0.00719145
0.00719257
0.0069033
0.00713572
0.00743866
0.00741049
0.0073227
0.00730108
0.00736781
0.00734367
0.00730033
0.00728486
0.00727722
0.00727557
0.00732022
0.00730728
0.00737428
0.00738355
0.00740167
0.00743006
0.00741821
0.00745888
0.00739872
0.00746654
0.0073507
0.00740888
0.00736573
0.0075227
0.00736384
0.00724981
0.00799797
0.00765923
0.00649232
0.00823028
0.00824148
0.00837293
0.00843012
0.00844195
0.00844077
0.0084354
0.00835657
0.00825692
0.00831625
0.00840133
0.00838245
0.00835144
0.00828796
0.0082176
0.0081904
0.00820346
0.00824991
0.0082861
0.00828694
0.0082274
0.0081332
0.0081299
0.00828621
0.00833596
0.0083216
0.00837578
0.00835216
0.00806813
0.00785478
0.00810343
0.00823325
0.00849274
0.00736869
0.00726644
0.00732604
0.00730639
0.00738536
0.00735419
0.00727856
0.00726257
0.0072245
0.00720833
0.00726085
0.00724115
0.00726945
0.00724934
0.0073042
0.00731047
0.00738525
0.0073845
0.00745073
0.00745955
0.00748439
0.00750005
0.00750856
0.0075269
0.00750012
0.00755515
0.00742742
0.00732872
0.00726833
0.0072027
0.0071445
0.00500485
0.00516742
0.00789518
0.00739694
0.00574157
0.00773317
0.00821931
0.00840594
0.0084402
0.00844053
0.00843526
0.00842962
0.00836284
0.00829305
0.00838298
0.00838551
0.00835872
0.00830314
0.00823192
0.00819234
0.00819555
0.00823496
0.00828123
0.00829129
0.00825519
0.00815138
0.00810826
0.00823097
0.00830371
0.00833164
0.00835559
0.00837137
0.00834756
0.00817111
0.00806508
0.00843086
0.00843147
0.00815087
0.00731911
0.00727909
0.00724282
0.00726904
0.00725525
0.00724349
0.00719783
0.00719974
0.00720334
0.00720078
0.00722825
0.00721368
0.00730548
0.0072909
0.00739075
0.00740341
0.00745879
0.00745547
0.00750433
0.00749885
0.0075186
0.00749731
0.00755458
0.00730834
0.00739237
0.00740807
0.00725737
0.00525216
0.00539241
0.0052732
0.00520042
0.00498644
0.00527356
0.00503887
0.00507065
0.00519675
0.00521498
0.00488732
0.00783705
0.00512037
0.00543872
0.00580428
0.00520723
0.00765247
0.00826262
0.0084365
0.00844011
0.008436
0.00843041
0.00842581
0.00839377
0.00838528
0.00838846
0.00836425
0.00831638
0.00824747
0.00819762
0.00819175
0.00822003
0.00827382
0.00829469
0.00827677
0.00818356
0.00810614
0.00817702
0.00826408
0.00828696
0.00831676
0.00834535
0.00836356
0.00837472
0.00830709
0.00839562
0.00838433
0.00829427
0.00761705
0.00763594
0.00734556
0.00747686
0.0072868
0.00736616
0.00720822
0.00723003
0.00721595
0.00724958
0.00729011
0.00731724
0.00728165
0.00728107
0.00740606
0.00740523
0.00746095
0.00747274
0.00748825
0.00748169
0.00746994
0.00744148
0.00727752
0.00721433
0.00711764
0.00505048
0.00518503
0.00526884
0.00526623
0.00543225
0.00530054
0.00533312
0.00530508
0.00537617
0.00522162
0.00518368
0.00485982
0.00490175
0.0050021
0.00514727
0.00518593
0.00498205
0.00561123
0.0065475
0.00605838
0.00508476
0.00529119
0.00639227
0.00610815
0.0069013
0.00644375
0.00845015
0.00843898
0.00843759
0.00843206
0.00842727
0.00842059
0.00840812
0.0083913
0.00836901
0.0083276
0.00826293
0.00820644
0.00819115
0.00820848
0.00826032
0.00829535
0.00829107
0.00821985
0.00812687
0.00814374
0.00822432
0.00823637
0.00824986
0.00829379
0.00833113
0.00835408
0.00828176
0.00837343
0.00837502
0.00831873
0.00821894
0.00783986
0.00783891
0.00749656
0.0076695
0.00743412
0.00755695
0.00728225
0.00733174
0.00735321
0.00740289
0.00746032
0.00751
0.00741244
0.00742976
0.00747807
0.00748519
0.00748835
0.00750383
0.00742505
0.00742649
0.00690887
0.0068963
0.00518441
0.00525174
0.00521366
0.00520068
0.00547509
0.00556426
0.00533649
0.00529711
0.00525856
0.00534762
0.00554032
0.00543961
0.00530082
0.00526818
0.00536153
0.00536662
0.00530538
0.00495282
0.00504536
0.00513632
0.00530359
0.00528424
0.00510273
0.00551533
0.0056236
0.00521139
0.00538108
0.00628858
0.00236038
0.00524158
0.00594682
0.00619993
0.00843271
0.00843872
0.00843441
0.00842937
0.00842244
0.00841014
0.00839393
0.00837327
0.00833674
0.00827771
0.00821812
0.00819275
0.00820123
0.00824567
0.00829116
0.00829892
0.00825593
0.00814184
0.0081357
0.00818934
0.00819059
0.00817797
0.00820492
0.00826308
0.00831275
0.00834371
0.00835567
0.00837045
0.00839034
0.00840932
0.00797179
0.00788289
0.00802139
0.00805984
0.00770293
0.00787618
0.00762041
0.00779266
0.00745601
0.00750789
0.00755871
0.00761047
0.00757747
0.00763423
0.00750325
0.00753339
0.0075164
0.0075328
0.00744104
0.0074648
0.00714583
0.00715582
0.00510163
0.00504308
0.00496202
0.00494058
0.00526772
0.00525257
0.00517458
0.00508892
0.00558132
0.00558618
0.00546978
0.00542832
0.00547583
0.00559891
0.00571199
0.00568109
0.0054764
0.0054066
0.00554704
0.00559713
0.0054561
0.00510225
0.00518758
0.0052806
0.00545319
0.00544542
0.00524989
0.00549534
0.00553549
0.00529893
0.00537991
0.00633986
0.00264738
0.00567873
0.00563357
0.00562777
0.00840689
0.00843693
0.00843124
0.00842424
0.00841205
0.00839639
0.00837707
0.00834459
0.00829158
0.00823181
0.00819726
0.00819813
0.00823232
0.00828587
0.00830516
0.00828378
0.00818474
0.00812095
0.00815816
0.00815569
0.0081167
0.00811435
0.00815157
0.00822595
0.00829678
0.00833644
0.00835979
0.00838462
0.00840893
0.00824868
0.00809287
0.00802176
0.00809242
0.00809847
0.00794105
0.00806087
0.00783101
0.00797982
0.00767338
0.00773121
0.00769361
0.0076985
0.00764555
0.00769794
0.00755963
0.00759752
0.0074861
0.0075123
0.00740763
0.00743787
0.0049391
0.0049533
0.00490835
0.00524813
0.00499147
0.00494483
0.00492368
0.00492677
0.00534932
0.00523496
0.00513635
0.00505074
0.00570832
0.0055215
0.00561554
0.00542595
0.00571726
0.00580767
0.00580043
0.00583509
0.00570678
0.00560195
0.00576173
0.00581971
0.00564191
0.00524979
0.0052934
0.00543066
0.00562599
0.00561678
0.00539402
0.00537496
0.00528194
0.00532324
0.00531131
0.00619812
0.00443666
0.00598625
0.00507968
0.00532559
0.00837892
0.0084328
0.00842493
0.00841351
0.00839831
0.0083803
0.00835107
0.00830346
0.00824567
0.00820521
0.00819842
0.00822234
0.00827672
0.00831057
0.00830279
0.00823309
0.00812537
0.00808627
0.00813429
0.00807505
0.00803695
0.00804276
0.00809477
0.00819049
0.00828676
0.00833989
0.00837292
0.00839797
0.00841863
0.00794411
0.0078689
0.00810317
0.00809386
0.00811675
0.00811242
0.00806463
0.00810545
0.00797048
0.00803925
0.00775543
0.00788689
0.00766189
0.00768406
0.00764013
0.00768513
0.00754784
0.00759272
0.00746434
0.00749595
0.0072626
0.00726486
0.00493083
0.00494858
0.00496001
0.00531332
0.00503456
0.00503819
0.0050491
0.0050516
0.00528187
0.00517341
0.00515208
0.00515421
0.0057087
0.00547531
0.00553833
0.00534051
0.00589498
0.00593015
0.00578122
0.00589426
0.00590608
0.00580554
0.00593332
0.00597647
0.00581727
0.00538464
0.00538112
0.00557307
0.00579425
0.00576655
0.00552587
0.00518474
0.00513184
0.00535696
0.0053043
0.00630148
0.00373971
0.0058704
0.0044235
0.00564034
0.00834817
0.00841702
0.00841412
0.00840003
0.00838274
0.00835637
0.00831283
0.0082584
0.00821445
0.0082011
0.00821563
0.00826543
0.00831002
0.00831541
0.008275
0.00815283
0.00811654
0.00807436
0.00805798
0.00798367
0.00795261
0.00797027
0.00804326
0.00814677
0.0082869
0.0083519
0.00838522
0.00840801
0.00824291
0.00809224
0.00804054
0.00810633
0.00809898
0.00812155
0.00811442
0.00809369
0.00811945
0.0079841
0.00804828
0.00782641
0.00791855
0.0077202
0.00777731
0.00760745
0.0076516
0.0075331
0.00757615
0.0073049
0.00754071
0.00516633
0.00516845
0.00521089
0.00519643
0.00505145
0.00506313
0.00507068
0.00509258
0.00517319
0.00518873
0.00519629
0.00519152
0.00526176
0.00526442
0.00529494
0.00531954
0.00561712
0.00540151
0.00548073
0.00536508
0.00598985
0.0059608
0.00568719
0.00585202
0.00602791
0.00596375
0.00603834
0.00605424
0.00594755
0.00552026
0.00551096
0.00568837
0.0059181
0.00585591
0.00564516
0.00527387
0.00472541
0.00549746
0.00548827
0.00633468
0.00443875
0.0057225
0.00474076
0.00623914
0.00830625
0.00840199
0.00840137
0.00838542
0.0083609
0.00832139
0.00827043
0.00822463
0.00820556
0.00821286
0.00825372
0.00830633
0.00832527
0.00830221
0.00820948
0.00811634
0.0080114
0.00805726
0.00796232
0.00789073
0.00786913
0.00790902
0.00796708
0.00807123
0.00830029
0.00836589
0.0083958
0.00841724
0.00791774
0.00785932
0.00810066
0.0080978
0.00810803
0.00810419
0.00811505
0.00811181
0.00809551
0.00811418
0.00798515
0.00805252
0.00785065
0.0079154
0.00771521
0.00777752
0.00739895
0.00747334
0.00756661
0.00756684
0.00523031
0.00554622
0.00743423
0.00520293
0.00519856
0.00521638
0.00521065
0.00518359
0.00518569
0.00518404
0.00519826
0.00533759
0.00534717
0.00534745
0.00533488
0.00538389
0.00543422
0.00546771
0.00548926
0.00557555
0.00546448
0.00557237
0.00551095
0.00600276
0.00589714
0.00564419
0.00575137
0.0060745
0.00605193
0.006076
0.00605542
0.0060048
0.00565773
0.0056782
0.00577795
0.00596204
0.00588739
0.00573457
0.00549399
0.00533186
0.00568822
0.00570103
0.00626928
0.00379098
0.00580976
0.00503461
0.00657919
0.00826555
0.00838654
0.00838727
0.00836529
0.00832931
0.0082822
0.00823646
0.00821215
0.0082132
0.00824446
0.008299
0.0083322
0.00832284
0.00826241
0.00813825
0.00810306
0.0079623
0.00796708
0.00786576
0.00779996
0.00779534
0.00784248
0.00784089
0.00798447
0.00832332
0.008381
0.00840811
0.00823347
0.00809711
0.00805398
0.00811366
0.00810806
0.00811608
0.00811523
0.00811403
0.00811558
0.00809648
0.0081113
0.00800935
0.0080826
0.00784645
0.0079257
0.00773662
0.00780124
0.00713962
0.00742982
0.00740372
0.00732326
0.00521326
0.00551591
0.00538916
0.00538641
0.00531324
0.00530104
0.00529636
0.00530317
0.00531975
0.0053143
0.00530705
0.00531587
0.0055017
0.00550591
0.00550186
0.00548618
0.00555702
0.00560886
0.00563919
0.00565754
0.00565902
0.00562857
0.00573575
0.00568351
0.00593787
0.00579489
0.00572824
0.00571098
0.00604778
0.00605174
0.00603034
0.0059786
0.00598606
0.00577722
0.00582786
0.0058264
0.00593482
0.00586851
0.0058009
0.00570742
0.00551024
0.00586699
0.00589468
0.00632479
0.00304018
0.00585817
0.00600191
0.00673762
0.00822324
0.00836918
0.00836761
0.00833589
0.00829263
0.00824865
0.00822024
0.00821536
0.00823754
0.00828916
0.00833272
0.0083385
0.00830216
0.00819015
0.00810813
0.0079294
0.0079815
0.00787034
0.00777098
0.00771673
0.00773453
0.00777263
0.00772502
0.00798667
0.00834748
0.00839902
0.00841521
0.00787813
0.00784455
0.00809808
0.00808686
0.00812325
0.00811192
0.00813117
0.00812925
0.00812956
0.00813089
0.00811994
0.00812761
0.00805372
0.00811876
0.00787821
0.00796716
0.00776193
0.00783
0.00725956
0.00770127
0.00539015
0.00572814
0.00728409
0.0052814
0.00528657
0.005324
0.00528616
0.00543316
0.00540729
0.00536993
0.00539284
0.00546862
0.0054585
0.00544809
0.00544861
0.00566813
0.00567229
0.00563446
0.00553505
0.00573074
0.00578315
0.00581361
0.00583292
0.00581321
0.00580714
0.00590862
0.0058599
0.0058465
0.00575748
0.00587537
0.00577736
0.00594952
0.00597289
0.00590426
0.00576102
0.00590973
0.00586972
0.00596018
0.00583153
0.00586418
0.00582276
0.00585839
0.00589599
0.00598935
0.00602883
0.00606718
0.00643509
0.00265925
0.00511682
0.00649447
0.00675845
0.00817764
0.0083466
0.00833996
0.00830122
0.00825922
0.00822841
0.00821908
0.00823209
0.00827811
0.00832864
0.00834924
0.00832868
0.00825508
0.00813087
0.00808837
0.00785459
0.00789117
0.00777285
0.00768025
0.00764551
0.00769321
0.00774055
0.00771811
0.00808489
0.00837273
0.00840887
0.00822806
0.00808956
0.00806609
0.00810513
0.00809739
0.00812672
0.0081147
0.00814258
0.00813765
0.00814171
0.00814191
0.0081432
0.00814344
0.00807807
0.00813741
0.00791064
0.00799726
0.00775329
0.00782211
0.00504001
0.00540184
0.00761454
0.00526478
0.00561016
0.00540697
0.00541243
0.00534024
0.00533189
0.00533532
0.00528571
0.00555705
0.00552287
0.00544934
0.00549105
0.00545015
0.00543107
0.00544203
0.00552684
0.00576878
0.00563037
0.00549824
0.00536774
0.0059089
0.00596642
0.00600077
0.00587315
0.00598359
0.00599145
0.00609363
0.00604593
0.00563297
0.00557604
0.00579845
0.00565147
0.00559697
0.00572449
0.00550756
0.0054356
0.00564185
0.00596771
0.00609412
0.00581664
0.00550219
0.00550504
0.00585662
0.00607464
0.0062434
0.00617424
0.00622162
0.00623602
0.00231144
0.00389909
0.00657773
0.00662357
0.00812765
0.00831822
0.00830801
0.00826853
0.0082367
0.0082234
0.00822993
0.00826712
0.00832004
0.0083531
0.008347
0.0083019
0.00818191
0.00809744
0.00784381
0.00791079
0.00778981
0.00767738
0.00759924
0.00759015
0.00767304
0.00774815
0.00781025
0.00831904
0.00839223
0.00841033
0.00784601
0.00781949
0.00809854
0.00808445
0.00811482
0.00810834
0.00812899
0.0081209
0.00814906
0.00814039
0.00814899
0.00814956
0.00815534
0.00815151
0.00808607
0.00815469
0.00790643
0.00799759
0.007534
0.00776847
0.00553689
0.00593712
0.00588614
0.00578584
0.00527899
0.00529086
0.005544
0.00555412
0.00540528
0.00537735
0.00536706
0.00539869
0.00530063
0.00542832
0.00552807
0.00558884
0.00525059
0.00520555
0.00518592
0.00522506
0.00570111
0.005535
0.00537512
0.00521325
0.00610346
0.00616993
0.00604842
0.00584573
0.00597042
0.0061885
0.00616389
0.00625543
0.00543148
0.005444
0.00566205
0.00551527
0.00534987
0.00535318
0.00519849
0.00525229
0.00525932
0.00595426
0.00601504
0.00555742
0.00523946
0.00528171
0.00564949
0.00624736
0.00634571
0.00608205
0.00614372
0.00515768
0.00190963
0.00391652
0.00633442
0.00516696
0.0080736
0.00828708
0.00827776
0.00824576
0.00822962
0.00822994
0.00825924
0.00830907
0.00835125
0.00836033
0.00833121
0.00824992
0.0081219
0.00806796
0.00776086
0.0078299
0.0076911
0.00759036
0.00753191
0.00755306
0.00767316
0.00777433
0.00805399