/*--------------------------------*- C++ -*----------------------------------*\
  =========                 |
  \\      /  F ield         | OpenFOAM: The Open Source CFD Toolbox
   \\    /   O peration     | Website:  https://openfoam.org
    \\  /    A nd           | Version:  dev
     \\/     M anipulation  |
\*---------------------------------------------------------------------------*/
FoamFile
{
    version     2.0;
    format      ascii;
    class       volScalarField;
    location    "2500";
    object      rDeltaT;
}
// * * * * * * * * * * * * * * * * * * * * * * * * * * * * * * * * * * * * * //

dimensions      [0 0 -1 0 0 0 0];

internalField   nonuniform List<scalar> 
9846
(
100
100
100
100
100
100
100
100
100
100
100
100
100
100
100
100
100
100
100
100
100
100
100
100
100
100
100
100
100
100
100
100
100
100
100
100
100
100
100
100
100
100
100
100
100
100
100
100
100
100
100
100
100
100
100
100
100
100
100
100
100
100
100
100
100
100
100
100
100
100
100
100
100
100
100
100
100
100
100
100
100
100
100
100
100
100
100
100
100
100
100
100
100
100
100
100
100
100
100
100
100
100
100
100
100
100
100
100
100
100
100
100
100
100
100
100
100
100
100
100
100
100
100
100
100
100
100
100
100
100
100
100
100
100
100
100
100
100
100
100
100
100
100
100
100
100
100
100
100
100
100
100
100
100
100
100
100
100
100
100
100
100
100
100
100
100
100
100
100
100
100
100
100
100
100
100
100
100
100
100
100
100
100
100
100
100
100
100
100
100
100
100
100
100
100
100
100
100
100
100
100
100
100
100
100
100
100
100
100
100
100
100
100
100
100
100
100
100
100
100
100
100
100
100
100
100
100
100
100
100
100
100
100
100
100
100
100
100
100
100
100
100
100
100
100
100
100
100
100
100
100
100
100
100
100
100
100
100
100
100
100
100
100
100
100
100
100
100
100
100
100
100
100
100
100
100
100
100
100
100
100
100
100
100
100
100
100
100
100
100
100
100
100
100
100
100
100
100
100
100
100
100
100
100
100
100
100
100
100
100
100
100
100
100
100
100
100
100
100
100
100
100
100
100
100
100
100
100
100
100
100
100
100
100
100
100
100
100
100
100
100
100
100
100
100
100
100
100
100
100
100
100
100
100
100
100
100
100
100
100
100
100
100
100
100
100
100
100
100
100
100
100
100
100
100
100
100
100
100
100
100
100
100
100
100
100
100
100
100
100
100
100
100
100
100
100
100
100
100
100
100
100
100
100
100
100
100
100
100
100
100
100
100
100
100
100
100
100
100
100
100
100
100
100
100
100
100
100
100
100
100
100
100
100
100
100
100
100
100
100
100
100
100
100
100
100
100
100
100
100
100
100
100
100
100
100
100
100
100
100
100
100
100
100
100
100
100
100
100
100
100
100
100
100
100
100
100
100
100
100
100
100
100
100
100
100
100
100
100
100
100
100
100
100
100
100
100
100
100
100
100
100
100
100
100
100
100
100
100
100
100
100
100
100
100
100
100
100
100
100
100
100
100
100
100
100
100
100
100
100
100
100
100
100
100
100
100
100
100
100
100
100
100
100
100
100
100
100
100
100
100
100
100
100
100
100
100
100
100
100
100
100
100
100
100
100
100
100
100
100
100
100
100
100
100
100
100
100
100
100
100
100
100
100
100
100
100
100
100
100
100
100
100
100
100
100
100
100
100
100
100
100
100
100
100
100
100
100
100
100
100
100
100
100
100
100
100
100
100
100
100
100
100
100
100
100
100
100
100
100
100
100
100
100
100
100
100
100
100
100
100
100
100
100
100
100
100
100
100
100
100
100
100
100
100
100
100
100
100
100
100
100
100
100
100
100
100
100
100
100
100
100
100
100
100
100
100
100
100
100
100
100
100
100
100
100
100
100
100
100
100
100
100
100
100
100
100
100
100
100
100
100
100
100
100
100
100
100
100
100
100
100
100
100
100
100
100
100
100
100
100
100
100
100
100
100
100
100
100
100
100
100
100
100
100
100
100
100
100
100
100
100
100
100
100
100
100
100
100
100
100
100
100
100
100
100
100
100
100
100
100
100
100
100
100
100
100
100
100
100
100
100
100
100
100
100
100
100
100
100
100
100
100
100
100
100
100
100
100
100
100
100
100
100
100
100
100
100
100
100
100
100
100
100
100
100
100
100
100
100
100
100
100
100
100
100
100
100
100
100
100
100
100
100
100
100
100
100
100
100
100
100
100
100
100
100
100
100
100
100
100
100
100
100
100
100
100
100
100
100
100
100
100
100
100
100
100
100
100
100
100
100
100
100
100
100
100
100
100
100
100
100
100
100
100
100
100
100
100
100
100
100
100
100
100
100
100
100
100
100
100
100
100
100
100
100
100
100
100
100
100
100
100
100
100
100
100
100
100
100
100
100
100
100
100
100
100
100
100
100
100
100
100
100
100
100
100
100
100
100
100
100
100
100
100
100
100
100
100
100
100
100
100
100
100
100
100
100
100
100
100
100
100
100
100
100
100
100
100
100
100
100
100
100
100
100
100
100
100
100
100
100
100
100
100
100
100
100
100
100
100
100
100
100
100
100
100
100
100
100
100
100
100
100
100
100
100
100
100
100
100
100
100
100
100
100
100
100
100
100
100
100
100
100
100
100
100
100
100
100
100
100
100
100
100
100
100
100
100
100
100
100
100
100
100
100
100
100
100
100
100
100
100
100
100
100
100
100
100
100
100
100
100
100
100
100
100
100
100
100
100
100
100
100
100
100
100
100
100
100
100
100
100
100
100
100
100
100
100
100
100
100
100
100
100
100
100
100
100
100
100
100
100
100
100
100
100
100
100
100
100
100
100
100
100
100
100
100
100
100
100
100
100
100
100
100
100
100
100
100
100
100
100
100
100
100
100
100
100
100
100
100
100
100
100
100
100
100
100
100
100
100
100
100
100
100
100
100
100
100
100
100
100
100
100
100
100
100
100
100
100
100
100
100
100
100
100
100
100
100
100
100
100
100
100
100
100
100
100
100
100
100
100
100
100
100
100
100
100
100
100
100
100
100
100
100
100
100
100
100
100
100
100
100
100
100
100
100
100
100
100
100
100
100
100
100
100
100
100
100
100
100
100
100
100
100
100
100
100
100
100
100
100
100
100
100
100
100
100
100
100
100
100
100
100
100
100
100
100
100
100
100
100
100
100
100
100
100
100
100
100
100
100
100
100
100
100
100
100
100
100
100
100
100
100
100
100
100
100
100
100
100
100
100
100
100
100
100
100
100
100
100
100
100
100
100
100
100
100
100
100
100
100
100
100
100
100
100
100
100
100
100
100
100
100
100
100
100
100
100
100
100
100
100
100
100
100
100
100
100
100
100
100
100
100
100
100
100
100
100
100
100
100
100
100
100
100
100
100
100
100
100
100
100
100
100
100
100
100
100
100
100
100
100
100
100
100
100
100
100
100
100
100
100
100
100
100
100
100
100
100
100
100
100
100
100
100
100
100
100
100
100
100
100
100
100
100
100
100
100
100
100
100
100
100
100
100
100
100
100
100
100
100
100
100
100
100
100
100
100
100
100
100
100
100
100
100
100
100
100
100
100
100
100
100
100
100
100
100
100
100
100
100
100
100
100
100
100
100
100
100
100
100
100
100
100
100
100
100
100
100
100
100
100
100
100
100
100
100
100
100
100
100
100
100
100
100
100
100
100
100
100
100
100
100
100
100
100
100
100
100
100
100
100
100
100
100
100
100
100
100
100
100
100
100
100
100
100
100
100
100
100
100
100
100
100
100
100
100
100
100
100
100
100
100
100
100
100
100
100
100
100
100
100
100
100
100
100
100
100
100
100
100
100
100
100
100
100
100
100
100
100
100
100
100
100
100
100
100
100
100
100
100
100
100
100
100
100
100
100
100
100
100
100
100
100
100
100
100
100
100
100
100
100
100
100
100
100
100
100
100
100
100
100
100
100
100
100
100
100
100
100
100
100
100
100
100
100
100
100
100
100
100
100
100
100
100
100
100
100
100
100
100
100
100
100
100
100
100
100
100
100
100
100
100
100
100
100
100
100
100
100
100
100
100
100
100
100
100
100
100
100
100
100
100
100
100
100
100
100
100
100
100
100
100
100
100
100
100
100
100
100
100
100
100
100
100
100
100
100
100
100
100
100
100
100
100
100
100
100
100
100
100
100
100
100
100
100
100
100
100
100
100
100
100
100
100
100
100
100
100
100
100
100
100
100
100
100
100
100
100
100
100
100
100
100
100
100
100
100
100
100
100
100
100
100
100
100
100
100
100
100
100
100
100
100
100
100
100
100
100
100
100
100
100
100
100
100
100
100
100
100
100
100
100
100
100
100
100
100
100
100
100
100
100
100
100
100
100
100
100
100
100
100
100
100
100
100
100
100
100
100
100
100
100
100
100
100
100
100
100
100
100
100
100
100
100
100
100
100
100
100
100
194.562
126.202
100
100
100
100
100
100
100
100
100
100
100
100
100
100
100
100
100
100
100
100
100
100
100
100
100
100
100
100
100
100
100
100
100
100
100
100
100
100
100
100
100
100
100
100
100
100
100
100
100
100
100
100
100
100
100
100
100
100
100
100
100
100
100
100
100
100
100
100
100
100
100
100
100
100
100
100
100
100
100
100
100
100
100
100
100
100
181.535
100
100
100
100
100
100
100
100
100
100
100
100
100
100
100
100
100
100
100
100
100
100
100
100
100
100
100
100
100
100
100
100
100
100
100
100
100
100
100
100
100
100
100
100
100
100
100
100
100
100
100
100
100
100
100
100
100
100
100
100
100
100
100
100
100
100
100
100
100
100
100
100
100
100
100
100
100
100
100
100
100
100
100
100
100
100
100
100
100
106.796
100
100
100
100
100
100
100
100
100
100
100
100
100
100
100
100
100
100
100
100
100
100
100
100
100
100
100
100
100
100
100
100
100
100
100
100
100
100
100
100
100
100
100
100
100
100
100
100
100
100
100
100
100
100
100
100
100
100
100
100
100
100
100
100
100
100
100
100
100
100
100
100
100
100
100
100
100
100
100
100
100
100
100
100
100
100
100
100
100
100
100
100
100
100
100
100
100
100
100
100
100
100
100
100
100
100
100
100
100
100
100
100
100
100
100
100
100
100
100
100
100
100
100
100
100
100
100
100
100
100
100
100
100
100
100
100
100
100
100
100
100
100
100
100
100
100
100
100
100
100
100
100
100
100
100
100
100
100
100
100
100
100
100
100
100
100
100
100
100
100
100
100
100
100
100
100
100
100
100
100
100
100
100
100
100
100
100
100
100
100
100
100
100
100
100
100
100
100
100
100
100
100
100
100
100
100
100
100
100
100
100
100
100
100
100
100
100
100
100
100
100
100
100
100
100
100
100
100
100
100
100
100
100
100
100
100
100
100
100
100
100
100
100
100
100
100
100
100
100
100
100
100
100
100
100
100
100
100
100
100
100
100
100
100
100
100
100
100
100
100
100
100
100
100
100
100
100
100
100
100
100
100
100
100
100
100
100
100
100
100
100
100
100
100
100
100
100
100
100
100
100
100
100
100
100
100
100
100
100
100
100
100
100
100
100
100
100
100
100
100
100
100
100
100
100
100
100
100
100
100
100
100
100
100
100
100
100
100
100
100
100
100
100
100
100
100
100
100
100
100
100
100
100
100
100
100
100
100
100
100
100
100
100
100
100
100
100
100
100
100
100
100
100
100
100
100
100
100
100
100
100
100
100
100
100
100
100
100
100
100
100
100
100
100
100
100
100
100
100
100
100
100
100
100
100
100
100
100
100
100
100
100
100
100
100
100
100
100
100
100
100
100
100
100
100
100
100
100
100
100
100
100
100
100
100
100
100
100
100
100
100
100
100.921
103.282
100
100
100
100
100
100
100
100
100
100
100
100
100
100
100.574
102.846
100
100
100
100
100
100
100
100
100
100
100
100
105.233
100.392
100
100
100
100
100
100
100
100
100
100
100
100
100
100
100
100
100
100
100
100
100
100
100
100
100
100
100
100
100
100
100
100
100
100
100
100
100
100
100
100
100
100
100
100
100
100
100
100
100
100
100
100
100
100
100
100
100
100
100
100
100
100
105.226
105.373
104.636
101.708
102.042
106.029
109.737
113.17
100
100
100
103.875
100
100
100
100
104.973
106.622
106.039
106.794
106.931
103.726
109.624
111.19
105.279
100
100
100.886
108.34
109.328
102.587
100
100
100
100
104.515
222.916
169.895
100
104.205
100
100
100
100
100
100
100
100
100
100
100
100
100
100
100
100
100
100
100
100
100
100
100
100
100
100
100
100
100
100
100
100
100
100
100
100
100
100
100
100
100
100
100
100
100
100
100
100
100
100
100
100
100
100
100
100
100
100
111.769
106.355
100
100
116.269
117.335
117.418
115.39
108.953
113.93
118.657
123.246
100
100
103.968
109.918
104.753
100
103.097
100
112.675
113.835
113.914
114.44
114.572
113.304
119.535
119.092
115.625
103.737
105.156
110.711
117.563
119.206
111.967
100
100
105.53
105.232
134.56
266.204
174.394
104.135
119.587
100
100
100
100
100
100
100
100
100
100
100
100
100
100
100
100
100
100
100
100
100
100
100
100
100
100
100
100
100
100
100
100
100
100
100
100
100
100
100
100
100
100
100
100
100
100
100
100
100
100
100
100
100
100
100
100
100
100
100
126.803
121.525
106.018
114.307
127.519
129.431
130.337
129.714
115.91
121.876
127.681
133.466
100
102.858
109.262
116.06
112.849
101.469
112.034
101.217
121.061
122.271
123.123
123.233
123.808
122.644
129.19
128.289
124.827
112.911
113.677
120.298
127.442
129.296
121.359
104.91
106.973
112.928
112.044
133.68
208.22
120.89
113.495
123.283
100
100
100
100
100
100
100
100
100
100
100
100
100
100
100
100
100
100
100
100
100
100
100
100
100
100
100
100
100
100
100
100
100
100
100
100
100
100
100
100
100
100
100
100
100
100
100
100
100
100
100
100
100
100
100
100
100
100
100
100
142.537
137.307
121.049
129.92
138.955
141.933
143.892
144.803
122.968
129.925
136.846
143.771
102.121
107.515
114.825
122.48
122.848
111.843
123.399
112.823
131.251
132.813
134.816
133.961
133.435
131.273
137.792
137.025
135.14
122.429
122.041
130.598
138.589
141.404
132.17
111.575
113.805
120.161
118.491
116.495
134.805
100
116.029
117.928
100
100
100
100
100
100
100
100
100
100
100
100
100
100
100
100
100
100
100
100
100
100
100
100
100
100
100
100
100
100
100
100
100
100
100
100
100
100
100
100
100
100
100
100
100
100
100
100
100
100
100
100
100
100
100
100
100
110.622
102.165
111.166
107.027
158.573
153.722
135.913
146.027
150.471
154.799
157.752
159.859
130.3
138.251
146.231
154.164
112.197
113.876
121.062
129.63
135.704
124.958
137.728
126.935
140.763
143.279
147.936
145.404
142.991
142.601
150.452
147.313
148.35
132.727
130.071
144.049
154.53
158.978
145.055
116.944
116.749
127.194
123.768
100
135.554
100
112.737
102.599
100
100
100
100
100
100
100
100
100
100
100
100
100
100
100
100
100
100
100
100
100
100
100
100
100
100
100
100
100
100
100
100
100
100
100
100
100
100
100
100
100
100
100
100
100
100
100
100
100
100
104.288
100
105.163
100
104.815
103.195
108.15
112.224
123.934
115.553
123.857
119.163
175.163
171.087
151.427
163.098
162.065
168.249
172.216
175.291
138.331
147.202
156.319
165.352
126.993
126.511
129.537
138.438
150.083
141.513
153.748
144.683
153.165
159.784
176.21
167.321
158.57
160.189
173.668
168.42
170.456
142.654
138.232
159.856
177
177.813
157.824
120.728
115.437
133.972
128.503
100
100
100
104.999
100
100
100
100
100
100
100
100
100
100
100
100
100
100
100
100
100
100
100
100
100
100
100
100
100
100
100
100
100
100
100
100
100
100
100
100
100
100
100
100
100
100
100
100
100
100
100
100
100
100
100
100
117.124
111.412
115.211
107.967
118.403
116.613
121.152
124.214
138.01
129.446
136.201
131.391
192.479
189.474
168.343
181.496
174.506
182.644
187.58
191.426
147.862
157.604
167.807
178.03
146.109
146.234
145.46
150.11
182.17
161.241
186.448
168.777
180.562
194.635
217.292
207.835
188.074
189.529
208.585
205.219
196.973
152.59
146.975
174.899
196.972
193.857
169.573
120.876
112.953
139.962
130.65
100
100
100
100
100
100
100
100
100
100
100
100
100
100
100
100
100
100
100
100
100
100
100
100
100
100
100
100
100
100
100
100
100
100
100
100
100
100
100
100
100
100
100
100
100
100
100
100
100
100
100
100
100
100
100.599
100
100
100
127.732
121.597
124.122
115.776
130.996
128.387
132.511
135.824
153.573
143.558
148.394
144.167
210.934
209.194
187.823
201.648
188.178
197.699
203.898
208.544
159.824
169.928
181.327
193.309
170.902
170.003
169.242
168.437
210.93
198.154
214.546
207.402
218.723
228.055
244.522
233.22
224.535
218.283
237.892
237.255
218.578
162.877
154.659
187.605
214.992
209.528
181.16
121.855
109.026
144.897
135.192
100
100
100
100
100
100
100
100
100
100
100
100
100
100
100
100
100
100
100
100
100
100
100
100
100
100
100
100
100
100
100
100
100
100
100
100
100
100
100
100
100
100
100
100
100
100
100
100
100
100
100
100
100
100
100
107.577
100
100
100
137.383
131.02
131.644
122.504
142.927
139.151
142.662
147.462
171.522
158.085
161.761
157.604
230.406
230.014
210.01
223.149
204.109
213.982
221.974
226.839
175.448
185.356
197.133
212.321
202.696
202.969
199.924
196.613
256.819
227.894
267.407
242.123
240.188
248.505
159.653
282.916
240.799
241.53
245.213
255.278
237.711
173.362
164.102
203.373
233.795
229.361
197.712
121.072
104.404
153.629
137.406
100
109.187
100
100
100
100
100
100
100
100
100
100
100
100
100
100
100
100
100
100
100
100
100
100
100
100
100
100
100
100
100
100
100
100
100
100
100
100
100
100
100
100
100
100
100
100
100
100
100
100
100
100
100
100
100
113.746
104.82
100
100.139
146.707
139.43
138.835
129.535
154.834
150.366
152.283
158.609
192.092
173.912
177.207
170.596
250.89
252.667
235.361
247.495
224.823
233.184
241.822
245.509
198.147
205.579
214.272
229.776
249.532
254.698
248.052
247.626
304.443
277.889
314.058
158.485
282.261
159.625
188.384
335.124
292.775
246.978
157.263
166.428
242.549
189.786
178.142
226.82
238.731
240.198
220.362
121.046
106.18
160.688
143.102
100
166.35
136.999
100
100
100
100
100
100
100
100
100
100
100
100
100
100
100
100
100
100
100
100
100
100
100
100
100
100
100
100
100
100
100
100
100
100
100
100
100
100
100
100
100
100
100
100
100
100
100
100
100
100
100
100
120.437
110.443
100
105.2
155.878
147.218
146.931
137.377
166.197
162.145
162.39
170.005
215.815
192.591
196.153
184.214
273.547
277.282
263.729
275.609
242.267
252.696
260.734
263.324
246.011
251.322
255.633
269.014
289.087
292.105
286.313
282.437
352.536
329.513
361.821
185.481
334.946
189.79
217.898
388.951
345.569
160.999
187.28
195.966
157.623
209.474
189.523
234.35
156.931
160.732
222.72
125.623
107.921
170.748
149.311
100
377.772
150.457
100
100
100
100
100
100
100
100
100
100
100
100
100
100
100
100
100
100
100
100
100
100
100
100
100
100
100
100
100
100
100
100
100
100
100
100
100
100
100
100
100
100
100
100
100
100
100
100
100
100
100
100
100
100
127.397
116.386
100
111.264
165.569
155.665
156.503
146.052
178.21
174.626
173.657
182.046
243.197
216.797
220.493
201.54
286.932
301.004
293.299
305.105
285.94
297.56
290.771
279.367
280.518
284.478
289.778
302.766
333.383
334.274
327.59
321.41
396.623
383.045
404.375
212.104
390.835
221.674
243.865
436.796
399.823
190.758
219.172
226.248
187.748
213.754
199.993
155.357
187.233
190.745
152.714
129.241
113.516
178.308
155.851
106.366
194.147
100
100.095
102.793
100
100
100
100
100
100
100
100
100
100
100
100
100
100
100
100
100
100
100
100
100
100
100
100
100
100
100
100
100
100
100
100
100
100
100
100
100
100
100
100
100
100
100
100
100
100
100
100
100
100
100
100
134.768
123.176
105.071
117.891
176.281
165.883
167.258
155.442
191.353
186.59
185.254
193.788
272.852
246.827
253.138
226.372
308.928
330.631
318.862
325.609
313.957
177.824
318.747
301.643
319.748
322.238
328.303
340.238
376.44
376.943
368.64
361.547
429.218
237.659
439.589
249.61
447.168
222.379
247.37
252.436
220.486
220.709
276.879
206.03
187.01
219.873
222.642
182.393
136.98
118.621
186.582
166.423
101.365
100
100
110.545
105.889
100
100
100
100
100
100
100
100
100
100
100
100
100
100
100
100
100
100
100
100
100
100
100
100
100
100
100
100
100
100
100
100
100
100
100
100
100
100
100
100
100
100
100
100
100
100
100
100
100
100
100
100
100
100
100
143.024
130.732
111.73
125.192
188.55
178.07
178.692
165.666
207.524
198.329
196.999
204.969
304.924
282.407
291.056
261.542
332.763
185.7
347.074
335.135
346.215
198.172
351.721
334.757
359.182
361.147
367.441
377.987
250.605
250.092
150.025
331.269
215.735
268.101
220.638
249.809
252.174
214.863
142.265
124.664
193.139
170.935
100
100
100
114.077
100
100
100
100
100
100
100
100
100
100
100
100
100
100
100
100
100
100
100
100
100
100
100
100
100
100
100
100
100
100
100
100
100
100
100
100
100
100
100
100
100
100
100
100
100
100
100
100
100
100
100
100
100
104.853
100
100
152.483
139.038
118.819
133.46
202.209
191.379
191.096
177.37
231.539
212.59
210.069
219.465
326.141
313.888
314.199
303.321
368.183
205.11
191.734
367.561
380.122
219.564
390.666
373.566
181.075
392.666
152.328
322.809
251.42
245
147.066
128.675
203.806
264.588
177.665
100
100
100
111.795
100
100
100
100
100
100
100
100
100
100
100
100
100
100
100
100
100
100
100
100
100
100
100
100
100
100
100
100
100
100
100
100
100
100
100
100
100
100
100
100
100
100
100
100
100
100
100
100
100
100
100
100
100
100
111.587
100
100
163.786
148.911
126.71
142.328
217.445
205.3
206.196
190.597
268.081
236.564
227.554
244.053
332.778
341.49
326.529
316.378
401.785
227.867
209.06
410.924
239.46
427.229
407.079
215.663
450.354
182.563
384.473
153.714
128.353
216.674
262.709
312.981
180.503
100
107.918
119.13
106.882
100
100
100
100
100
100
100
100
100
100
100
100
100
100
100
100
100
100
100
100
100
100
100
100
100
100
100
100
100
100
100
100
100
100
100
100
100
100
100
100
100
100
100
100
100
100
100
100
100
100
100
100
100
100
100
100
118.84
105.477
101.035
175.613
159.019
134.752
151.119
236.327
221.957
225.668
206.159
306.5
271.535
252.897
276.355
365.971
196.393
185.588
363.692
245.964
233.87
446.92
248.044
214.921
442.009
152.47
124.925
152.317
317.277
366.165
177.103
240.899
100.017
110.005
152.891
105.607
103.977
100
100
100
100
100
100
100
100
100
100
100
100
100
100
100
100
100
100
100
100
100
100
100
100
100
100
100
100
100
100
100
100
100
100
100
100
100
100
100
100
100
100
100
100
100
100
100
100
100
100
100
100
100
100
100
100
126.216
111.638
107.926
187.749
168.95
143.624
160.907
260.514
243.517
249.764
226.459
314.03
302.84
281.064
303.977
411.254
212.262
180.948
205.218
411.132
254.338
243.681
146.449
121.433
180.426
377.293
415.794
173.179
227.8
286.698
121.973
104.647
172.211
113.962
116.059
100
100
100
100
100
100
100
100
100
100
100
100
100
100
100
100
100
100
100
100
100
100
100
100
100
100
100
100
100
100
100
100
100
100
100
100
100
100
100
100
100
100
100
100
100
100
100
100
100
100
100
100
100
105.689
103.975
100
100
132.936
118.029
114.459
202.884
180.569
151.567
170.415
286.904
269.266
275.61
250.189
309.269
304.535
309.492
449.297
235.442
203.24
180.931
230.163
452.211
143.417
127.302
211.568
435.12
170.142
232.636
275.562
338.932
144.62
100
184.761
122.381
130.701
100
100
100
100
100
100
100
100
100
100
100
100
100
100
100
100
100
100
100
100
100
100
100
100
100
100
100
100
100
100
100
100
100
100
100
100
100
100
100
100
100
100
100
100
100
100
100
100
100
100
100
100
100
100
110.712
109.834
103.822
100.345
139.978
124.843
119.408
220.713
193.275
158.797
179.245
309.714
294.782
298.578
276.026
312.551
185.852
255.928
229.518
204.633
251.577
145.756
135.086
239.146
170.615
221.01
278.974
331.104
386.837
164.766
100
188.882
131.453
142.211
100
100
100
100
100
100
100
100
100
100
100
100
100
100
100
100
100
100
100
100
100
100
100
100
100
100
100
100
100
100
100
100
100
100
100
100
100
100
100
100
100
100
100
100
100
100
100
100
100
100
100
100
100
100
100
116.503
113.702
106.837
102.22
147.643
130.673
124.605
242.052
207.721
167.476
189.688
317.275
315.506
315.25
297.736
188.342
207.532
253.254
229.978
152.892
141.372
176.997
219.707
266.818
329.65
380.222
182.03
100
190.174
139.082
153.403
100
100
100
100
100
100
100
100
100
100
100
100
100
100
100
100
100
100
100
100
100
100
100
100
100
100
100
100
100
100
100
100
100
100
100
100
100
100
100
100
100
100
100
100
104.108
100
100
100
100
100
100
100
100
100
100
100
121.27
116.469
109.048
153.232
135.296
130.176
264.139
224.147
174.24
200.129
190.99
317.024
321.082
314.213
210.503
230.022
252.858
157.677
145.803
182.331
223.433
265.227
319.416
373.014
190.818
100
187.551
144.585
160.026
100
100
100
100
100
100
100
100
100
100
100
100
100
100
100
100
100
100
100
100
100
100
100
100
100
100
100
100
100
100
100
100
100
100
100
100
100
100
100
100
100
100
100
100
110.736
105.159
100
100
100
100
100
100
100
100
100
100
100
100
124.403
118.215
158.738
140.909
133.758
284.368
241.141
178.948
209.382
211.55
193.239
331.516
356.227
322.126
233.038
251.905
160.381
148.156
184.271
228.687
264.908
315.328
364.529
192.592
104.647
180.114
147.769
161.901
100
100
100
100
100
100
100
100
100
100
100
100
100
100
100
100
100
100
100
100
100
100
100
100
100
100
100
100
100
100
100
100
100
100
100
100
100
100
100
100
100
100
100
100
100
111.557
104.543
100
100
100
100
100
100
100
100
100
100
100
100
100
126.374
118.982
164.483
145.341
135.984
302.174
257.47
185.586
222.154
233.176
213.126
197.645
391.743
327.874
254.357
162.914
149.168
189.736
223.07
269.852
311.768
357.227
178.533
157.737
206.479
146.719
152.575
100
100
100
100
100
100
100
100
100
100
100
100
100
100
100
100
100
100
100
100
100
100
100
100
100
100
100
100
100
100
100
100
100
100
100
100
100
100
100
100
100
100
100
100
111.561
103.321
100
100
100
100
100
100
100
100
100
100
100
100
100
100
127.492
119.599
168.021
148.275
137.564
313.687
274.615
190.143
233.925
254.077
232.483
356.071
217.908
427.608
334.719
163.203
148.326
190.144
232.051
265.821
315.871
352.108
192.289
339.753
246.199
141.891
146.779
100
100
100
100
100
100
100
100
100
100
100
100
100
100
100
100
100
100
100
100
100
100
100
100
100
100
100
100
100
100
100
100
100
100
100
100
100
100
100
100
100
100
100
100
100
110.285
101.023
100
100
100
100
100
100
100
100
100
100
100
100
100
100
100
128.663
118.225
170.548
150.499
139.017
316.78
288.202
194.021
242.559
249.855
390.253
193.961
237.982
460.661
162.05
146.906
192.383
234.289
270.878
315.217
354.05
179.419
802.617
280.249
134.137
132.125
100
100
100
100
100
100
100
100
100
100
100
100
100
100
100
100
100
100
100
100
100
100
100
100
100
100
100
100
100
100
100
100
100
100
100
100
100
100
100
100
100
100
100
100
100
108.084
100
100
100
100
100
100
100
100
100
100
100
100
100
100
100
100
100
127.49
116.298
172.155
152.109
138.486
313.167
293.778
197.926
250.544
425.372
213.299
330.336
254.889
163.502
144.594
194.691
248.433
276.614
317.808
355.981
143.817
166.203
100
125.543
112.438
100
100
100
100
100
100
100
100
100
100
100
100
100
100
100
100
100
100
100
100
100
100
100
100
100
100
100
100
100
100
100
100
100
100
100
100
100
100
100
100
100
100
100
100
100
105.883
100
100
100
100
100
100
100
100
100
100
100
100
100
100
100
100
103.694
125.955
114.519
173.627
152.726
137.608
327.832
298.038
202.127
257.645
454.834
233.518
362.524
352.041
161.961
138.801
196.89
237.714
291.66
325.203
356.905
100
100
100
113.86
100
100
100
100
100
100
100
100
100
100
100
100
100
100
100
100
100
100
100
100
100
100
100
100
100
100
100
100
100
100
100
100
100
100
100
100
100
100
100
100
100
100
100
100
100
100
100
100
100
100
100
100
100
100
100
100
100
100
100.841
102.855
101.184
104.898
101.755
103.561
112.679
124.631
174.228
152.855
136.881
340.965
297.661
203.892
256.497
249.563
399.205
384.916
197.066
159.095
127.998
195.284
248.236
279.618
337.952
363.831
100
100
100
100
100
100
100
100
100
100
100
100
100
100
100
100
100
100
100
100
100
100
100
100
100
100
100
100
100
100
100
100
100
100
100
100
100
100
100
100
100
100
100
100
100
100
100
100
100
100
100
100
100
100
100
100
100
100
100
100
100
100
104.944
104.767
108.204
110.906
107.772
112.293
111.121
110.669
123.293
173.992
152.709
136.311
283.448
203.143
250.745
427.56
421.182
213.532
301.199
149.367
116.294
191.668
244.186
290.923
328.955
371.174
100
100
100
100
100
100
100
100
100
100
100
100
100
100
100
100
100
100
100
100
100
100
100
100
100
100
100
100
100
100
100
100
100
100
100
100
100
100
100
100
100
100
100
100
100
100
100
100
100
100
100
100
100
100
100
100
100
100
100
100
100
103.881
102.726
113.705
113.943
116.525
120.16
114.863
120.282
122.331
121.133
174.437
152.937
136.224
276.135
202.989
247.585
451.555
230.473
330.092
299.099
137.677
108.686
218.829
179.205
149.964
288.291
339.402
369.889
100
134.734
100
100
100
100
100
100
100
100
100
100
100
100
100
100
100
100
100
100
100
100
100
100
100
100
100
100
100
100
100
100
100
100
100
100
100
100
100
100
100
100
100
100
100
100
100
100
100
100
100
100
100
100
100
100
100
100
100
100
100
101.256
100
113.244
111.884
123.936
124.904
125.579
130.346
122.562
129.048
135.559
176.369
153.836
270.635
205.844
248.615
244.521
364.954
328.506
294.032
127.232
104.775
211.219
165.786
278.755
178.175
338.926
379.485
100
100
100
100
100
100
100
100
100
100
100
100
100
100
100
100
100
100
100
100
100
100
100
100
100
100
100
100
100
100
100
100
100
100
100
100
100
100
100
100
100
100
100
100
100
100
100
100
100
100
100
100
100
100
100
100
100
100
100
100
100
100
100
109.761
107
124.82
123.791
135.264
137.17
135.587
141.616
133.441
139.066
153.939
178.429
270.639
211.632
257.432
394.511
362.905
324.093
294.728
119.687
101.28
193.322
152.785
327.305
246.684
208.762
382.435
100
100
100
100
100
100
100
100
100
100
100
100
100
100
100
100
100
100
100
100
100
100
100
100
100
100
100
100
100
100
100
100
100
100
100
100
100
100
100
100
100
100
100
100
100
100
100
100
100
100
100
100
100
100
100
100
100
100
100
100
100
100
103.583
100.834
121.493
118.192
137.985
137.756
147.769
150.677
147.153
154.585
151.271
151.361
177.875
286.236
217.31
273.963
391.616
357.745
326.305
316.984
112.708
100
188.515
138.69
379.888
298.369
148.07
235.623
100
100
100
100
100
100
100
100
100
100
100
100
100
100
100
100
100
100
100
100
100
100
100
100
100
100
100
100
100
100
100
100
100
100
100
100
100
100
100
100
100
100
100
100
100
100
100
100
100
100
100
100
100
100
100
100
100.796
100
101.315
100.795
100.673
101.536
104.1
113.612
108.423
135.926
132.736
152.448
153.249
161.834
165.672
161.753
170.784
172.411
334.075
206.292
257.173
386.915
362.51
351.905
196.075
108.524
101.517
178.238
207.601
126.226
432.195
355.643
176.345
258.852
100
100
100
100
100
100
100
100
100
100
100
100
100
100
100
100
100
100
100
100
100
100
100
100
100
100
100
100
100
100
100
100
100
100
100
100
100
100
100
100
100
100
100
100
100
100
100
100
100
100
100
101.385
100
100
100.745
100
100.965
100
102.34
103.379
103.121
103.079
102.762
108.899
114.196
127.871
120.655
152.415
150.023
168.223
170.067
178.569
183.03
182.093
192.838
211.751
260.936
314.977
394.64
388.681
216.629
110.997
100
160.172
202.848
120.574
409.224
207.67
315.86
148.498
100
100
100
100
100
100
100
100
100
100
100
100
100
100
100
100
100
100
100
100
100
100
100
100
100
100
100
100
100
100
100
100
100
100
100
100
100
100
100
100
100
100
100
100
100
100
100
100
100
100
100
100
100
105.948
102.593
100
100.751
100.425
102.795
102.807
101.999
105.081
105.535
104.805
105.595
105.185
121.184
129.263
145.617
137.458
170.519
169.212
186.057
188.782
199.732
203.425
224.265
272.946
330.611
350.634
421.838