/*--------------------------------*- C++ -*----------------------------------*\
  =========                 |
  \\      /  F ield         | OpenFOAM: The Open Source CFD Toolbox
   \\    /   O peration     | Website:  https://openfoam.org
    \\  /    A nd           | Version:  dev
     \\/     M anipulation  |
\*---------------------------------------------------------------------------*/
FoamFile
{
    version     2.0;
    format      ascii;
    class       volScalarField;
    location    "2500";
    object      rho;
}
// * * * * * * * * * * * * * * * * * * * * * * * * * * * * * * * * * * * * * //

dimensions      [1 -3 0 0 0 0 0];

internalField   nonuniform List<scalar> 
9846
(
1.17174
1.17156
1.17164
1.17157
1.17128
1.17167
1.17158
1.17103
1.17125
1.17176
1.17152
1.1709
1.17087
1.17129
1.1718
1.17155
1.17093
1.17068
1.17089
1.1714
1.1718
1.17161
1.17092
1.17056
1.17062
1.17098
1.17148
1.17183
1.17156
1.1709
1.1705
1.17042
1.17067
1.17112
1.17151
1.17184
1.17157
1.17098
1.17048
1.17027
1.17042
1.17075
1.17121
1.17154
1.17187
1.17159
1.17105
1.17055
1.17019
1.17019
1.17048
1.17088
1.17126
1.17156
1.17187
1.17161
1.17113
1.17066
1.17014
1.17004
1.17021
1.17058
1.17101
1.17132
1.17159
1.17188
1.17161
1.17117
1.17064
1.17014
1.16995
1.17003
1.17031
1.17071
1.17105
1.17135
1.17161
1.17188
1.17165
1.17116
1.17068
1.1702
1.16989
1.16986
1.17008
1.17041
1.1708
1.17111
1.17137
1.17162
1.17188
1.17164
1.1712
1.17076
1.1703
1.16989
1.16974
1.16985
1.17016
1.17054
1.17087
1.17113
1.17139
1.17165
1.17188
1.17165
1.1712
1.17082
1.17041
1.16992
1.1697
1.1697
1.16992
1.17029
1.17064
1.17093
1.17116
1.17141
1.17164
1.17188
1.17165
1.17125
1.17086
1.17045
1.16996
1.16966
1.16959
1.16974
1.17001
1.1704
1.1707
1.17097
1.17119
1.17142
1.17165
1.17189
1.17166
1.17126
1.17091
1.17051
1.17006
1.16966
1.1695
1.16957
1.16982
1.17016
1.17049
1.17076
1.17099
1.17121
1.17143
1.17164
1.17189
1.17167
1.17129
1.17094
1.17055
1.17018
1.16971
1.16946
1.16944
1.16961
1.16995
1.17027
1.17057
1.1708
1.17102
1.17122
1.17143
1.17165
1.17188
1.1717
1.17132
1.17096
1.17063
1.17023
1.16974
1.16946
1.16936
1.16944
1.1697
1.17008
1.17036
1.17061
1.17083
1.17102
1.17122
1.17143
1.17165
1.17188
1.17171
1.17132
1.17102
1.17067
1.17032
1.16984
1.16946
1.1693
1.16933
1.16955
1.16987
1.17017
1.17042
1.17065
1.17085
1.17104
1.17122
1.17143
1.17165
1.17189
1.1717
1.17134
1.17106
1.17072
1.17039
1.16994
1.1695
1.16926
1.16922
1.16937
1.16965
1.16996
1.17024
1.17047
1.17067
1.17085
1.17104
1.17122
1.17143
1.17165
1.17188
1.17171
1.1714
1.17108
1.17075
1.17044
1.17006
1.16955
1.16926
1.16915
1.16922
1.16948
1.16977
1.17007
1.1703
1.17052
1.1707
1.17086
1.17104
1.17122
1.17142
1.17165
1.17189
1.17173
1.17141
1.17112
1.17082
1.1705
1.17014
1.16963
1.1693
1.1691
1.16909
1.16929
1.16958
1.16988
1.17013
1.17034
1.17053
1.17071
1.17086
1.17104
1.17122
1.17142
1.17164
1.17188
1.17175
1.17142
1.17117
1.17086
1.17055
1.1702
1.16973
1.16933
1.16908
1.16902
1.16913
1.1694
1.1697
1.16998
1.17019
1.17037
1.17054
1.17071
1.17086
1.17103
1.17121
1.17141
1.17164
1.17188
1.17174
1.17145
1.1712
1.1709
1.17059
1.17029
1.16983
1.16939
1.16909
1.16896
1.16901
1.16922
1.16951
1.1698
1.17004
1.17023
1.1704
1.17054
1.17069
1.17085
1.17102
1.17121
1.17141
1.17164
1.17189
1.17175
1.17148
1.1712
1.17095
1.17064
1.17036
1.16991
1.16947
1.16912
1.16893
1.16892
1.16908
1.16934
1.16964
1.16988
1.17009
1.17025
1.17041
1.17055
1.1707
1.17085
1.17101
1.17119
1.1714
1.17163
1.17189
1.17176
1.1715
1.17122
1.17098
1.17067
1.17043
1.17
1.16958
1.16916
1.16892
1.16885
1.16896
1.16918
1.16945
1.16973
1.16994
1.17012
1.17027
1.17041
1.17054
1.17068
1.17083
1.17099
1.17117
1.17139
1.17163
1.17189
1.17178
1.1715
1.17126
1.17101
1.17072
1.17045
1.1701
1.16969
1.16922
1.16894
1.1688
1.16884
1.16903
1.1693
1.16958
1.16981
1.16999
1.17014
1.17027
1.1704
1.17053
1.17066
1.17081
1.17097
1.17116
1.17137
1.17162
1.17189
1.17178
1.17151
1.17128
1.17103
1.17077
1.17048
1.17017
1.16975
1.16928
1.16897
1.16877
1.16875
1.1689
1.16914
1.16942
1.16967
1.16986
1.17001
1.17014
1.17026
1.17038
1.1705
1.17064
1.17078
1.17094
1.17113
1.17136
1.17162
1.17189
1.17179
1.17155
1.1713
1.17106
1.17082
1.17055
1.17021
1.16988
1.16938
1.16901
1.16877
1.16869
1.16879
1.16901
1.16928
1.16953
1.16973
1.16989
1.17002
1.17014
1.17025
1.17036
1.17048
1.17061
1.17075
1.17091
1.17111
1.17134
1.17161
1.17189
1.1718
1.17155
1.17133
1.17109
1.17085
1.17058
1.17028
1.16996
1.16946
1.16905
1.16878
1.16865
1.16869
1.16888
1.16914
1.1694
1.16961
1.16978
1.1699
1.17001
1.17012
1.17022
1.17033
1.17044
1.17057
1.17071
1.17088
1.17108
1.17132
1.1716
1.17189
1.17179
1.17155
1.17134
1.17112
1.1709
1.17065
1.17034
1.17001
1.16957
1.16914
1.1688
1.16862
1.16862
1.16876
1.16901
1.16927
1.16949
1.16967
1.1698
1.1699
1.17
1.17009
1.17019
1.17029
1.1704
1.17053
1.17067
1.17084
1.17105
1.1713
1.17159
1.17188
1.1718
1.17158
1.17136
1.17117
1.17091
1.17065
1.17037
1.17007
1.16967
1.16921
1.16885
1.16861
1.16855
1.16866
1.16888
1.16915
1.16938
1.16956
1.16969
1.1698
1.16989
1.16997
1.17006
1.17015
1.17024
1.17035
1.17048
1.17062
1.1708
1.17101
1.17128
1.17158
1.17189
1.1718
1.1716
1.17141
1.17119
1.17095
1.17069
1.17041
1.17015
1.16977
1.16931
1.16889
1.16862
1.16849
1.16855
1.16877
1.16903
1.16928
1.16946
1.16959
1.1697
1.16978
1.16986
1.16993
1.17001
1.17009
1.17019
1.1703
1.17042
1.17057
1.17075
1.17097
1.17125
1.17158
1.17201
1.17188
1.17181
1.1716
1.1714
1.17119
1.17096
1.17071
1.17045
1.1702
1.16983
1.16939
1.16898
1.16865
1.16847
1.16846
1.16863
1.16892
1.16919
1.16938
1.1695
1.1696
1.16968
1.16975
1.16981
1.16987
1.16994
1.17002
1.17011
1.17022
1.17035
1.1705
1.17069
1.17093
1.17125
1.17171
1.17154
1.17201
1.17188
1.17181
1.1716
1.17141
1.17122
1.17097
1.17074
1.17047
1.17022
1.16989
1.16948
1.16904
1.16869
1.16846
1.16839
1.16851
1.16877
1.16908
1.16931
1.16944
1.16951
1.16957
1.16962
1.16966
1.1697
1.16975
1.16982
1.16991
1.17001
1.17012
1.17026
1.17042
1.17063
1.17102
1.17085
1.17134
1.17107
1.17115
1.17172
1.17154
1.17201
1.17188
1.17182
1.17161
1.17141
1.17125
1.17101
1.17076
1.17051
1.17024
1.16994
1.16958
1.16911
1.16872
1.16847
1.16834
1.16839
1.16861
1.16891
1.16919
1.16936
1.16942
1.16943
1.1694
1.16936
1.16934
1.16936
1.16942
1.16953
1.16966
1.16979
1.16995
1.17012
1.17032
1.17068
1.17051
1.17088
1.17133
1.17096
1.17113
1.17171
1.17152
1.17201
1.17187
1.17181
1.1716
1.17143
1.17125
1.17104
1.17076
1.17054
1.17031
1.17
1.16967
1.16917
1.16878
1.16848
1.16833
1.16831
1.16845
1.16873
1.16903
1.16923
1.1693
1.16919
1.16893
1.1686
1.16833
1.16819
1.16823
1.16843
1.16871
1.16899
1.16925
1.16952
1.16983
1.17034
1.17013
1.17068
1.17048
1.17077
1.17132
1.17092
1.1711
1.1717
1.17151
1.17201
1.17187
1.17183
1.17161
1.17141
1.17122
1.17103
1.17078
1.17055
1.17034
1.17001
1.1697
1.16924
1.16883
1.16851
1.16832
1.16827
1.16837
1.16859
1.16887
1.16907
1.16909
1.16875
1.168
1.16696
1.16601
1.16547
1.16533
1.1656
1.16615
1.16677
1.16729
1.16776
1.16825
1.16979
1.16905
1.17026
1.16994
1.17057
1.17035
1.1707
1.17129
1.17087
1.17106
1.1717
1.17149
1.17201
1.17186
1.17181
1.17161
1.17142
1.17122
1.171
1.17078
1.17058
1.17033
1.17003
1.16973
1.16931
1.16889
1.16855
1.16832
1.16825
1.16833
1.16853
1.16876
1.16891
1.16883
1.16819
1.16671
1.16481
1.16295
1.16164
1.16094
1.16085
1.16117
1.16188
1.16276
1.16349
1.16397
1.16737
1.16391
1.16926
1.16766
1.17004
1.16941
1.17047
1.17015
1.17062
1.17126
1.1708
1.171
1.17169
1.17147
1.17201
1.17186
1.17182
1.17162
1.17143
1.17122
1.17105
1.17079
1.17058
1.17032
1.17005
1.16974
1.16937
1.16896
1.16859
1.16832
1.16821
1.16827
1.16848
1.1687
1.16881
1.16858
1.16753
1.1654
1.16248
1.15991
1.15787
1.15645
1.15557
1.15518
1.15523
1.15561
1.15628
1.1566
1.16056
1.15617
1.16445
1.16051
1.16791
1.16469
1.16956
1.16814
1.17031
1.16975
1.17049
1.17122
1.17069
1.17092
1.17168
1.17145
1.17201
1.17185
1.17181
1.17161
1.17144
1.17123
1.17104
1.17078
1.17057
1.17032
1.17005
1.16976
1.1694
1.16903
1.16865
1.16835
1.16818
1.16819
1.16838
1.16866
1.16874
1.16838
1.16694
1.16407
1.16055
1.15696
1.15433
1.15234
1.15085
1.14975
1.14886
1.14819
1.14789
1.14814
1.15236
1.14761
1.15622
1.15175
1.16056
1.15598
1.16494
1.16051
1.1684
1.16525
1.16996
1.16874
1.17021
1.17116
1.17048
1.17077
1.17166
1.17141
1.172
1.17184
1.17182
1.17163
1.17145
1.17126
1.17106
1.17083
1.17055
1.17037
1.17011
1.1698
1.16947
1.16907
1.1687
1.16838
1.16817
1.16813
1.16827
1.16857
1.16871
1.1683
1.16652
1.16305
1.15868
1.15495
1.15232
1.15037
1.14868
1.14707
1.14535
1.14355
1.14171
1.14034
1.14387
1.13957
1.14721
1.1428
1.15119
1.14636
1.1556
1.15043
1.16044
1.15508
1.16572
1.16047
1.16912
1.1664
1.16956
1.17107
1.17001
1.17047
1.17165
1.17137
1.172
1.17183
1.17181
1.17162
1.17144
1.17125
1.17106
1.17091
1.17057
1.17032
1.17015
1.16977
1.16949
1.1691
1.16875
1.16842
1.16818
1.16808
1.16817
1.16844
1.16867
1.16828
1.16636
1.16239
1.15758
1.15401
1.15204
1.15051
1.14898
1.14731
1.14526
1.14288
1.13995
1.13641
1.13659
1.13373
1.13867
1.13506
1.14164
1.13724
1.14522
1.14015
1.14944
1.14377
1.15451
1.14828
1.16074
1.15408
1.16713
1.16154
1.16799
1.1709
1.16889
1.16975
1.17162
1.17129
1.17199
1.17182
1.1718
1.17161
1.17142
1.17123
1.17106
1.17093
1.17057
1.17031
1.17009
1.16973
1.16956
1.16914
1.16878
1.16845
1.16819
1.16805
1.16809
1.16831
1.16859
1.16829
1.16637
1.16211
1.15701
1.15412
1.15244
1.15129
1.15025
1.14897
1.14702
1.1443
1.14059
1.13609
1.13218
1.13154
1.13205
1.12977
1.13332
1.13
1.13541
1.13119
1.1383
1.13321
1.14205
1.13612
1.14709
1.14021
1.15397
1.14606
1.16282
1.15439
1.16457
1.17052
1.16629
1.16804
1.17159
1.17112
1.17199
1.17181
1.17179
1.17159
1.1714
1.1712
1.17104
1.17093
1.17056
1.17026
1.17007
1.16976
1.16953
1.16913
1.16881
1.16849
1.16821
1.16804
1.16802
1.1682
1.16849
1.16833
1.16646
1.16213
1.15716
1.1546
1.15338
1.1531
1.15355
1.15371
1.15229
1.14918
1.14446
1.13801
1.13009
1.12863
1.12734
1.12738
1.12544
1.1276
1.12466
1.1287
1.12487
1.13071
1.126
1.13376
1.12808
1.1384
1.13144
1.14541
1.13683
1.15555
1.14541
1.15776
1.16959
1.16091
1.16428
1.17153
1.17074
1.17198
1.17179
1.17177
1.17157
1.17137
1.17117
1.17104
1.17091
1.17053
1.17023
1.17007
1.16973
1.16948
1.16913
1.16882
1.16851
1.16823
1.16804
1.16798
1.16809
1.16837
1.16837
1.16672
1.16235
1.1576
1.15545
1.15464
1.15575
1.1583
1.15849
1.15651
1.15383
1.14998
1.14413
1.13435
1.12402
1.12453
1.12429
1.12398
1.12241
1.12078
1.1218
1.11934
1.12213
1.11909
1.12334
1.11964
1.12556
1.12096
1.12936
1.12339
1.13579
1.12773
1.1463
1.13554
1.14818
1.16739
1.15175
1.15699
1.17143
1.16979
1.17198
1.17177
1.17174
1.17152
1.17132
1.17114
1.17103
1.17087
1.17045
1.17019
1.17005
1.16973
1.16949
1.16913
1.16882
1.16852
1.16825
1.16804
1.16794
1.168
1.16825
1.16839
1.16714
1.16292
1.1583
1.15636
1.15612
1.15864
1.16223
1.16195
1.15961
1.15657
1.15238
1.14614
1.13687
1.12533
1.12629
1.11946
1.11963
1.11982
1.11947
1.11757
1.11638
1.11681
1.11534
1.11695
1.11522
1.11762
1.1154
1.11903
1.1161
1.1217
1.11758
1.12678
1.12056
1.13614
1.12657
1.13793
1.16287
1.14124
1.14685
1.17117
1.1676
1.17197
1.17175
1.17169
1.17144
1.17123
1.17111
1.17098
1.17078
1.17035
1.17015
1.17
1.1697
1.16944
1.16906
1.16881
1.16852
1.16826
1.16804
1.16792
1.16793
1.16813
1.16836
1.16756
1.1638
1.15908
1.15728
1.15758
1.16117
1.16469
1.16458
1.16219
1.15754
1.15134
1.14451
1.13576
1.12654
1.1266
1.12005
1.12036
1.11575
1.11607
1.1158
1.11565
1.11451
1.11409
1.11417
1.11361
1.11405
1.11332
1.11422
1.11308
1.11488
1.11313
1.11646
1.11375
1.11998
1.11562
1.12718
1.11993
1.12882
1.15488
1.13194
1.13716
1.17058
1.16354
1.17198
1.17169
1.1717
1.17137
1.17111
1.17104
1.1709
1.17056
1.1702
1.17007
1.16993
1.16964
1.16939
1.169
1.16879
1.16851
1.16826
1.16805
1.1679
1.16787
1.16802
1.16828
1.16792
1.16482
1.15993
1.1581
1.15885
1.1631
1.16613
1.16633
1.16468
1.15896
1.15048
1.14032
1.13152
1.12389
1.12064
1.12054
1.11666
1.11738
1.11452
1.11512
1.11404
1.11417
1.11344
1.11348
1.11301
1.11306
1.11249
1.11234
1.11201
1.11139
1.11186
1.11056
1.11257
1.11033
1.11506
1.11144
1.12048
1.11484
1.12186
1.14534
1.12455
1.12908
1.16931
1.15697
1.17197
1.17134
1.17152
1.17106
1.17085
1.17066
1.17031
1.1701
1.16998
1.16982
1.16955
1.16932
1.16898
1.16873
1.16847
1.16825
1.16804
1.16789
1.16783
1.16792
1.16817
1.16814
1.16586
1.1609
1.15882
1.15976
1.1644
1.16687
1.16728
1.16647
1.16278
1.15392
1.14279
1.13308
1.12576
1.12072
1.1228
1.11829
1.1193
1.11591
1.11695
1.11479
1.11578
1.11367
1.11409
1.11327
1.11373
1.11247
1.11295
1.11127
1.11144
1.10975
1.10945
1.10863
1.10762
1.10856
1.10677
1.11052
1.10706
1.11511
1.10995
1.11616
1.1363
1.11837
1.12211
1.16559
1.14627
1.17199
1.1708
1.17137
1.17072
1.17018
1.17005
1.17
1.16991
1.1697
1.16945
1.16923
1.16894
1.16868
1.16843
1.16822
1.16803
1.16787
1.16779
1.16784
1.16805
1.16821
1.16682
1.16214
1.15944
1.16024
1.16494
1.16714
1.16763
1.16742
1.16589
1.16151
1.15242
1.14043
1.13168
1.12535
1.12922
1.12267
1.12628
1.11829
1.12012
1.11713
1.11892
1.11702
1.11878
1.11453
1.11562
1.11388
1.11514
1.11202
1.11313
1.10957
1.11014
1.10729
1.10751
1.10621
1.10625
1.10574
1.10563
1.10594
1.10499
1.10989
1.10523
1.11065
1.12767
1.11243
1.11462
1.11988
1.16003
1.13619
1.17197
1.16962
1.17111
1.1699
1.16983
1.16983
1.16975
1.16954
1.16931
1.16911
1.16887
1.16861
1.16836
1.16818
1.168
1.16786
1.16776
1.16777
1.16794
1.16819
1.16754
1.16365
1.16004
1.16045
1.16492
1.16714
1.16766
1.16773
1.16736
1.16569
1.16151
1.15462
1.14713
1.14578
1.13086
1.13893
1.12863
1.13389
1.12132
1.1245
1.12102
1.12388
1.12088
1.12358
1.11672
1.11862
1.11477
1.11683
1.11136
1.11309
1.10813
1.10925
1.10658
1.10725
1.10626
1.10736
1.10593
1.10821
1.10433
1.10685
1.10484
1.104
1.10386
1.10819
1.1051
1.11658
1.12536
1.11886
1.11015
1.10622
1.10554
1.11151
1.15058
1.1216
1.12513
1.13351
1.17146
1.16395
1.17046
1.16942
1.16959
1.16953
1.16935
1.16914
1.16896
1.16877
1.16853
1.16831
1.1681
1.16796
1.16783
1.16773
1.16771
1.16783
1.16809
1.16792
1.16519
1.16082
1.16045
1.1647
1.167
1.16757
1.16772
1.16774
1.16744
1.16622
1.16392
1.16171
1.1618
1.15542
1.16361
1.14035
1.14822
1.13757
1.14413
1.12754
1.13208
1.12684
1.13087
1.12518
1.12879
1.11925
1.12202
1.11521
1.11779
1.11088
1.11297
1.10826
1.10971
1.10862
1.1099
1.11103
1.11329
1.11227
1.11369
1.11608
1.10544
1.10834
1.11561
1.11162
1.10372
1.10347
1.10339
1.10527
1.10335
1.11323
1.1152
1.10722
1.10394
1.10353
1.10844
1.12892
1.14574
1.13501
1.11759
1.12041
1.16318
1.13804
1.14688
1.1583
1.16911
1.16922
1.16924
1.16914
1.16896
1.1688
1.16864
1.16844
1.16823
1.168
1.1679
1.16779
1.1677
1.16766
1.16774
1.16796
1.16805
1.1665
1.16203
1.16045
1.16414
1.16654
1.1673
1.16755
1.16767
1.16782
1.16787
1.16763
1.16733
1.16747
1.16818
1.16385
1.16716
1.15154
1.15881
1.14764
1.15401
1.13569
1.1413
1.13296
1.13763
1.12767
1.13163
1.12074
1.12405
1.11547
1.11831
1.11161
1.11384
1.11132
1.11307
1.11489
1.11598
1.11753
1.11884
1.11952
1.11997
1.11892
1.12211
1.11925
1.12092
1.1084
1.11252
1.12121
1.11697
1.10494
1.10296
1.10441
1.10833
1.10272
1.1099
1.11156
1.10462
1.10264
1.10266
1.10554
1.12367
1.12747
1.11352
1.11576
1.14466
1.14064
1.13883
1.12927
1.13243
1.16881
1.16891
1.16888
1.16877
1.16863
1.1685
1.16833
1.16814
1.16794
1.16782
1.16773
1.16766
1.16761
1.16766
1.16784
1.16805
1.16737
1.16366
1.16062
1.16301
1.16579
1.16661
1.16696
1.16727
1.16767
1.16807
1.16842
1.16858
1.16876
1.16903
1.16884
1.16921
1.16682
1.16829
1.15971
1.1641
1.15337
1.15827
1.1427
1.14805
1.13594
1.14049
1.1284
1.13227
1.12142
1.12477
1.11635
1.11907
1.11504
1.11707
1.11676
1.1174
1.11991
1.11962
1.11913
1.11855
1.12211
1.12268
1.12256
1.12197
1.12449
1.12662
1.12403
1.125
1.11295
1.11811
1.12661
1.12292
1.10792
1.1038
1.1072
1.11296
1.10319
1.10666
1.10799
1.10286
1.10272
1.10237
1.10324
1.11826
1.12056
1.10955
1.11132
1.1278
1.13112
1.12256
1.12096
1.12189
1.16858
1.16861
1.16854
1.16845
1.16834
1.16821
1.16804
1.16788
1.16771
1.16767
1.1676
1.16757
1.16759
1.16772
1.16798
1.1678
1.16536
1.16122
1.1619
1.16502
1.16568
1.16561
1.16595
1.16692
1.16775
1.16833
1.16867
1.16889
1.16909
1.16929
1.16915
1.16931
1.16765
1.1687
1.16252
1.16567
1.15459
1.1589
1.14528
1.15006
1.13634
1.14046
1.12824
1.13164
1.12196
1.12502
1.11927
1.12161
1.11807
1.11943
1.11811
1.11768
1.11743
1.11721
1.12108
1.12005
1.11889
1.11765
1.12501
1.1243
1.12315
1.12163
1.12847
1.1271
1.12872
1.12674
1.1187
1.12409
1.1298
1.12813
1.11246
1.10628
1.1115
1.11868
1.10523
1.10381
1.10469
1.10215
1.10417
1.10322
1.10208
1.11322
1.11486
1.10588
1.1074
1.11837
1.14106
1.12211
1.11518
1.11556
1.16833
1.16832
1.16825
1.16818
1.16807
1.16792
1.16779
1.16763
1.16758
1.16754
1.16751
1.16752
1.16762
1.16785
1.16793
1.16669
1.16262
1.1615
1.16397
1.16493
1.1643
1.16406
1.16489
1.16654
1.1678
1.16846
1.16879
1.16899
1.1692
1.1694
1.16936
1.16929
1.1694
1.16802
1.16893
1.16298
1.16613
1.15309
1.15824
1.14451
1.14859
1.13518
1.13891
1.12966
1.13278
1.12413
1.12682
1.12127
1.1235
1.11619
1.11685
1.11647
1.11538
1.1146
1.11433
1.11978
1.11777
1.11569
1.11364
1.12542
1.12356
1.1212
1.11853
1.12984
1.12781
1.12847
1.1259
1.12461
1.12906
1.13054
1.13066
1.11801
1.11021
1.11681
1.12446
1.10867
1.10205
1.10228
1.10238
1.10699
1.1053
1.10171
1.10906
1.11052
1.10287
1.10401
1.11457
1.15926
1.12959
1.11094
1.11137
1.1681
1.16807
1.168
1.16792
1.1678
1.16768
1.16756
1.16748
1.16747
1.16745
1.16746
1.16753
1.16772
1.16792
1.16745
1.16443
1.16158
1.16269
1.16431
1.16335
1.16245
1.16268
1.16401
1.16621
1.16778
1.16852
1.16885
1.16905
1.16926
1.16945
1.1694
1.16944
1.16947
1.16845
1.1692
1.16307
1.16659
1.15297
1.159
1.14296
1.14758
1.13626
1.14012
1.13306
1.13701
1.12622
1.1294
1.11874
1.12154
1.10742
1.10739
1.10882
1.10788
1.11174
1.11011
1.10881
1.10789
1.11566
1.11275
1.10994
1.10736
1.1232
1.12011
1.11666
1.11307
1.12868
1.12585
1.12565
1.12254
1.12938
1.13109
1.12894
1.13094
1.12363
1.11518
1.12225
1.12914
1.11321
1.10124
1.10093
1.10378
1.11104
1.1087
1.10238
1.10544
1.10668
1.10084
1.10107
1.1146
1.16288
1.13587
1.10753
1.10868
1.16789
1.16783
1.16776
1.16767
1.16757
1.16748
1.16735
1.16737
1.16738
1.16739
1.16745
1.1676
1.16785
1.16777
1.16607
1.1621
1.16194
1.16348
1.16289
1.16127
1.16082
1.16158
1.16355
1.1661
1.16786
1.1686
1.16891
1.16912
1.16936
1.16927
1.1695
1.16944
1.16954
1.16954
1.16909
1.16947
1.16442
1.16775
1.15617
1.16258
1.1446
1.14995
1.14125
1.14592
1.13409
1.13909
1.12517
1.12942
1.11013
1.11172
1.1128
1.10119
1.1014
1.10339
1.10219
1.10513
1.10336
1.10208
1.10136
1.10949
1.10612
1.10308
1.1005
1.11871
1.11461
1.11044
1.10641
1.12555
1.12172
1.12102
1.11729
1.13122
1.13119
1.12561
1.12926
1.12832
1.12037
1.12692
1.13106
1.11808
1.10106
1.10017
1.10627
1.11547
1.11251
1.10384
1.10197
1.1033
1.09948
1.09898
1.11616
1.16796
1.14303
1.10472
1.10703
1.16768
1.1676
1.16752
1.16744
1.16737
1.16727
1.16726
1.16729
1.16731
1.16737
1.16749
1.16771
1.16783
1.16711
1.16364
1.16189
1.16252
1.16261
1.16069
1.15939
1.15949
1.16088
1.16338
1.1663
1.16809
1.16867
1.16897
1.16918
1.1694
1.16931
1.16952
1.16947
1.1696
1.16958
1.16945
1.16959
1.16709
1.16893
1.16241
1.16658
1.15108
1.15675
1.14446
1.1501
1.13013
1.13681
1.1178
1.12362
1.10501
1.10708
1.10624
1.10873
1.09656
1.09765
1.10075
1.09911
1.09848
1.09707
1.09631
1.09619
1.1027
1.09946
1.09677
1.09472
1.11263
1.10804
1.10373
1.09988
1.12059
1.116
1.11502
1.11087
1.1313
1.12972
1.12059
1.12596
1.13064
1.12485
1.12974
1.13134
1.12232
1.10172
1.09974
1.10937
1.11927
1.11585
1.10611
1.09904
1.10026
1.0984
1.09737
1.11755
1.16903
1.14404
1.1022
1.10554
1.16746
1.16737
1.1673
1.16724
1.16719
1.16714
1.16718
1.16723
1.16729
1.16739
1.16757
1.16781
1.1676
1.16554
1.16221
1.16197
1.16213
1.16064
1.15861
1.15785
1.15852
1.16059
1.16349
1.16684
1.16829
1.16875
1.16902
1.16928
1.16921
1.16943
1.16935
1.16956
1.1695
1.16964
1.16961
1.16958
1.16964
1.1686
1.16935
1.16517
1.16777
1.15578
1.16096
1.14364
1.15016
1.12262
1.12945
1.1107
1.1136
1.11654
1.10251
1.10435
1.10609
1.10802
1.09503
1.09688
1.10069
1.09876
1.09334
1.09271
1.09274
1.09356
1.09662
1.09399
1.09204
1.09081
1.10595
1.10147
1.09758
1.09438
1.11451
1.10943
1.10843
1.10419
1.13023
1.12687
1.11483
1.12134
1.13109
1.1279
1.13042
1.13082
1.12507
1.1027
1.09971
1.11212
1.12172
1.11787
1.10799
1.09679
1.09748
1.09746
1.09597
1.11666
1.16701
1.1401
1.09974
1.10337
1.16724
1.16716
1.1671
1.16707
1.167
1.16706
1.16713
1.1672
1.16729
1.16745
1.1677
1.16774
1.16682
1.16337
1.16196
1.16173
1.16072
1.15852
1.15683
1.15666
1.15801
1.16054
1.16417
1.16736
1.16845
1.16882
1.16909
1.16931
1.16925
1.16947
1.16939
1.16959
1.16953
1.16967
1.16964
1.16964
1.16967
1.16897
1.16946
1.16538
1.16786
1.15618
1.16135
1.13686
1.14432
1.11975
1.1226
1.12702
1.10999
1.11233
1.1173
1.1151
1.10254
1.10431
1.10832
1.10974
1.09519
1.09772
1.10309
1.10055
1.09029
1.0904
1.09137
1.09305
1.09191
1.09012
1.08894
1.08848
1.09956
1.09565
1.09254
1.09019
1.10813
1.1028
1.10195
1.09797
1.12828
1.12327
1.10939
1.11669
1.13076
1.12883
1.12999
1.12945
1.12601
1.10362
1.09967
1.11337
1.12226
1.1179
1.10854
1.0949
1.095
1.09651
1.09454
1.11322
1.14212
1.11994
1.09719
1.09995
1.16704
1.16696
1.16692
1.16691
1.16693
1.16701
1.1671
1.1672
1.16733
1.16755
1.16774
1.16745
1.16527
1.16227
1.16167
1.1609
1.15866
1.15658
1.15541
1.15588
1.15784
1.16101
1.16512
1.16791
1.16857
1.1689
1.16921
1.16911
1.16935
1.16928
1.1695
1.16943
1.16963
1.16957
1.1697
1.16967
1.16969
1.16974
1.16902
1.16951
1.16343
1.16723
1.15144
1.15789
1.13372
1.14109
1.12114
1.12351
1.12924
1.13186
1.11125
1.11302
1.1191
1.11737
1.10519
1.10686
1.11282
1.11374
1.09658
1.10026
1.1074
1.1041
1.0886
1.08956
1.09121
1.09346
1.08849
1.08737
1.08699
1.08714
1.09402
1.09096
1.08874
1.08714
1.10242
1.09675
1.09643
1.09267
1.12548
1.11936
1.10436
1.11199
1.12976
1.12833
1.12882
1.12716
1.12556
1.10367
1.09923
1.11317
1.12169
1.117
1.10811
1.09319
1.09293
1.09526
1.09306
1.10341
1.11284
1.10406
1.09474
1.09701
1.16683
1.16676
1.16678
1.16682
1.16688
1.16699
1.16709
1.16722
1.16741
1.16767
1.16766
1.16666
1.1634
1.16179
1.16104
1.15915
1.15669
1.15491
1.15436
1.15553
1.15802
1.16193
1.1663
1.16822
1.16867
1.16898
1.16924
1.16916
1.16939
1.16932
1.16953
1.16946
1.16967
1.1696
1.16979
1.16973
1.16975
1.16979
1.1689
1.16955
1.16268
1.16709
1.14856
1.15592
1.13454
1.13787
1.14375
1.12495
1.12695
1.13443
1.13639
1.11469
1.11589
1.12334
1.12206
1.10993
1.11165
1.11887
1.11954
1.09855
1.10301
1.11226
1.10779
1.08807
1.08959
1.09171
1.09473
1.08614
1.08589
1.08607
1.08691
1.08962
1.08752
1.0861
1.08525
1.09755
1.09184
1.09214
1.08862
1.12196
1.11498
1.09963
1.1072
1.1275
1.12672
1.12641
1.1236
1.12363
1.10304
1.09802
1.1119
1.11914
1.11384
1.10661
1.09162
1.09118
1.09383
1.09164
1.09851
1.1103
1.09796
1.09227
1.09399
1.16663
1.16665
1.16672
1.16675
1.16686
1.16698
1.16711
1.16728
1.16751
1.16767
1.16734
1.16525
1.16227
1.16122
1.15979
1.15713
1.15495
1.15359
1.15373
1.15548
1.15875
1.16327
1.16737
1.16841
1.16877
1.16907
1.16929
1.16921
1.16943
1.16936
1.16958
1.16949
1.16973
1.16965
1.16982
1.16978
1.16978
1.16983
1.16891
1.16958
1.16388
1.16763
1.15067
1.15754
1.13862
1.14103
1.15255
1.14957
1.13124
1.13273
1.14203
1.14351
1.1202
1.12103
1.13003
1.12909
1.1157
1.11773
1.12585
1.1268
1.10103
1.10612
1.11686
1.1116
1.08829
1.09021
1.09304
1.09661
1.08511
1.08532
1.0861
1.08737
1.08651
1.0853
1.0847
1.08464
1.09332
1.08836
1.08874
1.08601
1.11761
1.11022
1.09517
1.10237
1.12397
1.12384
1.12253
1.11934
1.11961
1.10129
1.09641
1.10834
1.11425
1.10883
1.10355
1.09026
1.08969
1.09242
1.0904
1.09482
1.11972
1.09822
1.09027
1.09169
1.16652
1.1666
1.16667
1.16672
1.16686
1.16699
1.16715
1.16736
1.16762
1.16758
1.16661
1.16365
1.16156
1.16029
1.15805
1.15529
1.1535
1.15264
1.15351
1.15592
1.15996
1.16497
1.16796
1.16855
1.16886
1.1692
1.16925
1.16909
1.16933
1.16947
1.16941
1.16966
1.16958
1.16977
1.16972
1.16986
1.16982
1.16984
1.16988
1.16914
1.16968
1.16674
1.16871
1.15798
1.16271
1.14525
1.14727
1.15656
1.15518
1.13966
1.14079
1.15077
1.15176
1.12756
1.12832
1.13867
1.13778
1.12123
1.12418
1.13263
1.13442
1.10387
1.10952
1.12151
1.1156
1.08907
1.09158
1.09488
1.09892
1.08485
1.08562
1.08681
1.08832
1.08474
1.0844
1.08442
1.08467
1.08961
1.08589
1.08616
1.08467
1.11285
1.10507
1.09048
1.09712
1.11918
1.11879
1.1162
1.11358
1.11376
1.09945
1.09485
1.10449
1.10885
1.10503
1.10117
1.08909
1.08853
1.09125
1.08942
1.09341
1.1356
1.10389
1.08873
1.09046
1.16648
1.16657
1.16663
1.16671
1.16686
1.16702
1.16722
1.16747
1.16761
1.16729
1.16543
1.16237
1.16076
1.15897
1.15619
1.15372
1.15232
1.15212
1.15363
1.15688
1.16165
1.1667
1.16826
1.16865
1.16895
1.16928
1.16923
1.16913
1.16937
1.16956
1.16945
1.16969
1.16963
1.16981
1.16975
1.16991
1.16986
1.16993
1.16994
1.16953
1.16984
1.16899
1.16964
1.16367
1.1654
1.16773
1.15278
1.15393
1.16263
1.16173
1.14883
1.14989
1.15878
1.15967
1.13578
1.13687
1.14771
1.14641
1.12652
1.13013
1.13877
1.14122
1.10683
1.113
1.12612
1.11963
1.0905
1.09336
1.09697
1.1014
1.08551
1.08662
1.08799
1.08986
1.08437
1.08447
1.08478
1.08568
1.08711
1.085
1.0858
1.08471
1.10622
1.09832
1.089
1.09179
1.11156
1.11181
1.10822
1.10528
1.10779
1.09766
1.09376
1.10189
1.10502
1.10286
1.09973
1.08823
1.08774
1.09041
1.08874
1.09437
1.16515
1.12677
1.08801
1.09061
1.16645
1.16654
1.1666
1.16671
1.16689
1.16707
1.16731
1.16756
1.16753
1.16668
1.16408
1.16147
1.1597
1.15738
1.15446
1.15244
1.15147
1.15199
1.15427
1.15836
1.16375
1.16768
1.16843
1.16875
1.16904
1.16932
1.16927
1.16918
1.16941
1.16959
1.16949
1.16972
1.16966
1.16985
1.16979
1.16996
1.16991
1.17002
1.17001
1.16991
1.17
1.16977
1.17003
1.16641
1.16708
1.16942
1.16878
1.16028
1.16098
1.16565
1.16484
1.15647
1.15776
1.16186
1.16265
1.14326
1.145
1.15514
1.15352
1.13167
1.13572
1.14428
1.14709
1.10916
1.11582
1.13054
1.12309
1.09231
1.09531
1.09912
1.10359
1.08676
1.08813
1.08992
1.09195
1.08484
1.08525
1.08639
1.08773
1.08789
1.0855
1.08763
1.08564
1.09885
1.09398
1.09112
1.09191
1.10385
1.10564
1.10315
1.09966
1.10435
1.09712
1.09345
1.10137
1.10326
1.10195
1.09956
1.08766
1.08739
1.08981
1.08822
1.09888
1.17076
1.15142
1.08798
1.09132
1.16643
1.16652
1.16659
1.16673
1.16693
1.16714
1.16741
1.16754
1.16728
1.16571
1.16291
1.16051
1.15844
1.15574
1.15297
1.15145
1.15101
1.15227
1.15545
1.16037
1.16603
1.16811
1.16855
1.16884
1.16917
1.16923
1.16906
1.16936
1.16931
1.16944
1.16962
1.16953
1.16976
1.16969
1.16989
1.16983
1.17002
1.16996
1.17012
1.17008
1.17012
1.17014
1.16946
1.16979
1.17001
1.17013
1.16714
1.16801
1.16886
1.16333
1.16409
1.16613
1.16508
1.16017
1.16112
1.16185
1.16256
1.14954
1.15175
1.15925
1.15791
1.13663
1.14099
1.14904
1.15181
1.11
1.11692
1.13303
1.12459
1.09434
1.09718
1.10073
1.10485
1.08922
1.09083
1.09276
1.09463
1.08626
1.08793
1.08959
1.09109
1.09123
1.08847
1.0919
1.08951
1.09647
1.09452
1.09297
1.09387
1.1009
1.1035
1.10236
1.0989
1.10351
1.09689
1.09327
1.1007
1.103
1.10225
1.09914
1.08749
1.08735
1.0899
1.08848
1.11079
1.17173
1.16085
1.08832
1.09386
1.16642
1.16651
1.16658
1.16677
1.16698
1.16722
1.16749
1.16748
1.16679
1.16464
1.16184
1.15945
1.15704
1.15418
1.15178
1.15072
1.15095
1.15309
1.15719
1.16285
1.16743
1.16833
1.16866
1.16893
1.16926
1.1692
1.1691
1.16939
1.16935
1.16948
1.16965
1.16957
1.1698
1.16973
1.16994
1.16987
1.17009
1.17001
1.1702
1.17014
1.17021
1.17023
1.16922
1.16948
1.16995
1.1702
1.17009
1.1663
1.16781
1.16795
1.16323
1.16411
1.16443
1.16253
1.16061
1.16133
1.15855
1.15913
1.1542
1.15644
1.16
1.15897
1.14057
1.14605
1.15233
1.15457
1.11037
1.11717
1.13366
1.12487
1.09654
1.09857
1.10164
1.10564
1.09244
1.09398
1.09513
1.09656
1.09226
1.09362
1.09477
1.09609
1.11143
1.092
1.11159
1.09286
1.09797
1.09662
1.10985
1.11083
1.10175
1.10365
1.10336
1.10051
1.10393
1.09714
1.0936
1.10089
1.10334
1.10279
1.09924
1.08751
1.08764
1.09031
1.08881
1.11861
1.17202
1.16795
1.08909
1.09832
1.16642
1.16651
1.16659
1.16681
1.16704
1.16732
1.16748
1.16729
1.16607
1.16356
1.16078
1.15829
1.15561
1.15277
1.1509
1.15031
1.15136
1.15447
1.15951
1.16558
1.16799
1.16846
1.16875
1.16901
1.1693
1.16925
1.16915
1.16943
1.16939
1.16953
1.1697
1.16961
1.16985
1.16978
1.17
1.16993
1.17014
1.17007
1.17025
1.1702
1.17025
1.17027
1.16828
1.16875
1.16973
1.17018
1.16997
1.16306
1.16586
1.16578
1.15983
1.16099
1.15992
1.157
1.15832
1.15852
1.15173
1.15225
1.15618
1.1578
1.15819
1.15758
1.142
1.14897
1.15279
1.155
1.11008
1.11613
1.13265
1.12351
1.09845
1.10082
1.10244
1.10646
1.09655
1.0973
1.09827
1.09945
1.11344
1.1135
1.11348
1.11377
1.12786
1.11103
1.12837
1.11166
1.11202
1.11045
1.1273
1.12738
1.11409
1.10467
1.11521
1.11101
1.10427
1.09706
1.0941
1.10212
1.1037
1.10357
1.1008
1.08783
1.08809
1.09069
1.08982
1.13496
1.17257
1.17069
1.09042
1.10236
1.16642
1.16651
1.16661
1.16686
1.16712
1.16741
1.16742
1.16693
1.16521
1.16247
1.15969
1.15705
1.15422
1.15159
1.15029
1.15031
1.15233
1.15647
1.16235
1.16727
1.16824
1.16857
1.16884
1.16909
1.16919
1.16934
1.16929
1.16948
1.16943
1.16958
1.16975
1.16966
1.16991
1.16983
1.17006
1.16998
1.1702
1.17013
1.17028
1.17025
1.1703
1.17032
1.16644
1.16764
1.16933
1.17015
1.1698
1.15809
1.16225
1.16261
1.1532
1.1548
1.15379
1.15003
1.15198
1.1518
1.14204
1.14302
1.15609
1.15709
1.15231
1.15243
1.14137
1.14947
1.15049
1.1524
1.10901
1.11292
1.12776
1.11899
1.1005
1.10255
1.10338
1.10634
1.11387
1.11409
1.11422
1.11439
1.12884
1.12884
1.12866
1.12876
1.14618
1.12793
1.14646
1.12852
1.12764
1.12735
1.14588
1.1459
1.12845
1.11621
1.12925
1.12745
1.11681
1.09934
1.0949
1.10236
1.11689
1.11804
1.101
1.0885
1.08855
1.09188
1.09025
1.14931
0.90908
1.16718
1.09171
1.11125
1.16642
1.1665
1.16664
1.16692
1.1672
1.16741
1.16729
1.1664
1.16425
1.16138
1.15857
1.15578
1.15294
1.15068
1.14995
1.15083
1.15392
1.1591
1.16544
1.16791
1.16838
1.16866
1.16892
1.16916
1.16923
1.16926
1.16938
1.16932
1.16954
1.16949
1.16963
1.1698
1.16972
1.16996
1.16988
1.17011
1.17003
1.17024
1.17018
1.17036
1.17029
1.17028
1.17011
1.17037
1.17039
1.16409
1.16621
1.16877
1.1696
1.15276
1.15794
1.15939
1.1446
1.14696
1.14758
1.14287
1.14219
1.14197
1.13071
1.13255
1.15276
1.15281
1.14282
1.14358
1.13673
1.1465
1.14271
1.14497
1.10754
1.10929
1.11798
1.11178
1.11398
1.10485
1.10506
1.1059
1.12843
1.12841
1.12798
1.12795