/*--------------------------------*- C++ -*----------------------------------*\
  =========                 |
  \\      /  F ield         | OpenFOAM: The Open Source CFD Toolbox
   \\    /   O peration     | Website:  https://openfoam.org
    \\  /    A nd           | Version:  dev
     \\/     M anipulation  |
\*---------------------------------------------------------------------------*/
FoamFile
{
    version     2.0;
    format      ascii;
    class       volScalarField;
    location    "2500";
    object      T;
}
// * * * * * * * * * * * * * * * * * * * * * * * * * * * * * * * * * * * * * //

dimensions      [0 0 0 1 0 0 0];

internalField   nonuniform List<scalar> 
9846
(
300.093
300.137
300.118
300.135
300.211
300.11
300.132
300.274
300.217
300.087
300.145
300.306
300.313
300.207
300.078
300.138
300.297
300.362
300.309
300.18
300.077
300.122
300.3
300.393
300.377
300.285
300.159
300.071
300.134
300.304
300.407
300.427
300.365
300.25
300.151
300.068
300.131
300.283
300.411
300.467
300.428
300.343
300.228
300.143
300.06
300.125
300.265
300.392
300.485
300.487
300.413
300.31
300.214
300.138
300.059
300.119
300.242
300.365
300.498
300.524
300.481
300.386
300.278
300.199
300.131
300.057
300.118
300.233
300.37
300.499
300.547
300.528
300.457
300.353
300.269
300.191
300.126
300.058
300.107
300.233
300.358
300.481
300.561
300.57
300.515
300.43
300.331
300.252
300.186
300.122
300.057
300.108
300.224
300.337
300.456
300.561
300.6
300.574
300.494
300.396
300.312
300.246
300.18
300.116
300.056
300.106
300.221
300.321
300.426
300.554
300.61
300.611
300.554
300.46
300.372
300.297
300.239
300.177
300.117
300.056
300.104
300.21
300.311
300.415
300.542
300.621
300.639
300.601
300.531
300.432
300.356
300.287
300.232
300.175
300.114
300.053
300.102
300.206
300.295
300.399
300.515
300.618
300.66
300.643
300.581
300.492
300.409
300.341
300.283
300.226
300.172
300.117
300.055
300.1
300.196
300.288
300.387
300.483
300.605
300.67
300.676
300.634
300.547
300.464
300.388
300.33
300.275
300.224
300.17
300.115
300.056
300.092
300.189
300.282
300.368
300.47
300.597
300.67
300.697
300.676
300.61
300.513
300.443
300.378
300.323
300.274
300.224
300.171
300.115
300.056
300.088
300.187
300.266
300.355
300.447
300.571
300.668
300.711
300.704
300.649
300.567
300.491
300.426
300.369
300.319
300.269
300.223
300.171
300.115
300.056
300.09
300.181
300.254
300.342
300.428
300.544
300.658
300.72
300.732
300.694
300.622
300.542
300.472
300.414
300.362
300.316
300.27
300.223
300.171
300.114
300.056
300.086
300.168
300.248
300.333
300.414
300.513
300.645
300.72
300.75
300.731
300.665
300.592
300.514
300.457
300.401
300.356
300.314
300.27
300.223
300.173
300.116
300.056
300.079
300.164
300.238
300.316
300.398
300.491
300.622
300.709
300.762
300.763
300.713
300.639
300.563
300.499
300.446
300.399
300.354
300.314
300.269
300.225
300.172
300.117
300.056
300.076
300.16
300.225
300.306
300.386
300.475
300.596
300.7
300.766
300.783
300.754
300.684
300.61
300.537
300.485
300.437
300.396
300.353
300.314
300.272
300.227
300.175
300.118
300.056
300.076
300.151
300.216
300.293
300.373
300.451
300.57
300.684
300.763
300.797
300.784
300.73
300.656
300.582
300.522
300.475
300.431
300.394
300.357
300.317
300.276
300.227
300.176
300.117
300.055
300.074
300.143
300.216
300.281
300.36
300.433
300.55
300.664
300.753
300.804
300.808
300.766
300.7
300.623
300.562
300.509
300.468
300.429
300.394
300.356
300.318
300.278
300.231
300.179
300.12
300.054
300.071
300.137
300.21
300.273
300.351
300.415
300.525
300.635
300.741
300.804
300.824
300.797
300.74
300.671
300.6
300.546
300.502
300.464
300.428
300.395
300.36
300.323
300.282
300.236
300.181
300.12
300.054
300.065
300.135
300.199
300.265
300.34
300.408
300.5
300.605
300.726
300.8
300.836
300.826
300.778
300.71
300.638
300.58
300.534
300.497
300.463
300.431
300.399
300.365
300.329
300.288
300.24
300.185
300.122
300.054
300.064
300.133
300.193
300.258
300.324
300.399
300.481
300.59
300.711
300.792
300.842
300.848
300.811
300.749
300.678
300.615
300.567
300.528
300.496
300.465
300.435
300.405
300.372
300.336
300.294
300.246
300.189
300.123
300.054
300.059
300.121
300.188
300.249
300.311
300.383
300.468
300.554
300.685
300.781
300.843
300.864
300.839
300.784
300.714
300.649
300.599
300.558
300.527
300.497
300.469
300.441
300.412
300.38
300.343
300.302
300.252
300.193
300.125
300.055
300.056
300.122
300.18
300.241
300.304
300.374
300.45
300.535
300.664
300.768
300.84
300.874
300.865
300.816
300.75
300.683
300.629
300.587
300.555
300.528
300.501
300.476
300.449
300.421
300.389
300.353
300.31
300.259
300.198
300.128
300.055
300.058
300.12
300.176
300.233
300.29
300.355
300.434
300.52
300.634
300.745
300.834
300.88
300.882
300.847
300.783
300.716
300.659
300.615
300.583
300.556
300.531
300.508
300.484
300.459
300.431
300.4
300.363
300.32
300.267
300.204
300.131
300.056
300.056
300.114
300.17
300.22
300.287
300.354
300.426
300.504
300.607
300.727
300.82
300.882
300.899
300.871
300.815
300.746
300.688
300.643
300.609
300.583
300.56
300.538
300.517
300.495
300.471
300.444
300.412
300.376
300.331
300.277
300.21
300.134
300.056
300.054
300.106
300.157
300.212
300.276
300.343
300.416
300.484
300.581
300.7
300.808
300.879
300.912
300.897
300.843
300.776
300.712
300.668
300.634
300.608
300.586
300.567
300.549
300.53
300.509
300.485
300.458
300.427
300.39
300.344
300.287
300.217
300.134
300.024
300.058
300.053
300.107
300.158
300.211
300.272
300.337
300.405
300.469
300.566
300.678
300.786
300.871
300.919
300.92
300.877
300.803
300.736
300.687
300.656
300.631
300.612
300.595
300.58
300.564
300.547
300.527
300.504
300.477
300.445
300.407
300.359
300.298
300.218
300.099
300.144
300.023
300.057
300.051
300.106
300.156
300.204
300.269
300.327
300.398
300.464
300.549
300.656
300.769
300.859
300.919
300.938
300.908
300.842
300.763
300.705
300.672
300.654
300.639
300.628
300.618
300.608
300.595
300.578
300.557
300.532
300.502
300.468
300.427
300.375
300.276
300.318
300.194
300.263
300.243
300.098
300.144
300.023
300.058
300.047
300.102
300.155
300.197
300.257
300.322
300.388
300.457
300.535
300.63
300.751
300.85
300.916
300.949
300.937
300.883
300.805
300.735
300.691
300.675
300.675
300.683
300.692
300.698
300.695
300.678
300.652
300.62
300.586
300.547
300.504
300.453
300.363
300.404
300.312
300.195
300.291
300.249
300.099
300.147
300.023
300.059
300.049
300.103
300.149
300.195
300.25
300.321
300.38
300.439
300.519
300.604
300.735
300.834
300.913
300.954
300.959
300.922
300.852
300.776
300.725
300.707
300.734
300.8
300.884
300.954
300.989
300.979
300.929
300.86
300.79
300.724
300.656
300.577
300.449
300.502
300.362
300.412
300.339
300.2
300.302
300.256
300.101
300.151
300.023
300.06
300.045
300.101
300.152
300.202
300.251
300.317
300.376
300.431
300.515
300.596
300.715
300.822
300.905
300.955
300.967
300.944
300.887
300.815
300.764
300.76
300.846
301.036
301.301
301.542
301.68
301.714
301.648
301.508
301.352
301.221
301.101
300.976
300.587
300.775
300.469
300.551
300.389
300.446
300.357
300.206
300.315
300.267
300.104
300.155
300.024
300.061
300.047
300.101
300.151
300.203
300.258
300.316
300.366
300.433
300.51
300.589
300.697
300.805
300.894
300.954
300.973
300.952
300.903
300.842
300.804
300.825
300.987
301.361
301.847
302.322
302.656
302.836
302.858
302.777
302.597
302.372
302.185
302.063
301.2
302.078
300.721
301.126
300.526
300.685
300.416
300.496
300.377
300.214
300.332
300.281
300.106
300.16
300.024
300.062
300.044
300.097
300.146
300.2
300.245
300.312
300.366
300.436
300.503
300.584
300.681
300.787
300.882
300.952
300.983
300.968
300.913
300.857
300.829
300.888
301.153
301.693
302.44
303.097
303.624
303.99
304.218
304.317
304.307
304.207
304.035
303.952
302.936
304.065
301.942
302.948
301.063
301.88
300.646
301.006
300.457
300.599
300.412
300.225
300.36
300.302
300.109
300.167
300.025
300.064
300.047
300.098
300.143
300.198
300.248
300.313
300.369
300.434
300.504
300.578
300.671
300.769
300.867
300.945
300.989
300.987
300.939
300.867
300.848
300.937
301.303
302.032
302.934
303.856
304.536
305.053
305.442
305.729
305.96
306.135
306.214
306.149
305.049
306.288
304.051
305.208
302.936
304.112
301.817
302.948
300.939
301.737
300.544
300.854
300.482
300.239
300.413
300.339
300.112
300.175
300.026
300.066
300.044
300.093
300.141
300.19
300.242
300.301
300.372
300.421
300.489
300.569
300.653
300.757
300.852
300.936
300.99
301.003
300.967
300.889
300.855
300.959
301.409
302.293
303.413
304.375
305.057
305.565
306.006
306.428
306.882
307.354
307.839
308.203
307.27
308.405
306.393
307.55
305.353
306.616
304.212
305.552
302.965
304.346
301.62
302.959
300.756
301.447
300.647
300.262
300.532
300.415
300.117
300.187
300.027
300.069
300.045
300.095
300.141
300.19
300.24
300.279
300.368
300.431
300.476
300.575
300.646
300.748
300.84
300.925
300.988
301.013
300.992
300.922
300.864
300.962
301.449
302.462
303.696
304.619
305.131
305.529
305.928
306.366
306.903
307.53
308.305
309.246
309.198
309.963
308.645
309.607
307.858
309.025
306.914
308.252
305.81
307.294
304.492
306.112
302.889
304.604
301.26
302.684
301.044
300.305
300.815
300.596
300.123
300.207
300.029
300.072
300.047
300.097
300.145
300.196
300.241
300.273
300.367
300.435
300.492
300.584
300.628
300.737
300.831
300.915
300.984
301.02
301.012
300.954
300.884
300.959
301.447
302.532
303.842
304.59
305.025
305.326
305.597
305.931
306.442
307.157
308.135
309.331
310.379
310.549
310.413
311.025
310.071
310.963
309.512
310.644
308.742
310.1
307.749
309.321
306.424
308.236
304.633
306.693
302.358
304.522
301.912
300.401
301.474
301.029
300.131
300.249
300.03
300.075
300.049
300.101
300.15
300.202
300.243
300.274
300.368
300.445
300.495
300.577
300.635
300.739
300.822
300.907
300.977
301.023
301.028
300.984
300.91
300.95
301.424
302.527
303.802
304.464
304.782
304.856
304.737
304.698
305.066
305.877
307.112
308.818
310.939
311.333
311.68
311.671
312.196
311.612
312.408
311.314
312.351
310.77
312.044
309.951
311.481
308.716
310.575
306.864
309.132
304.223
306.863
303.652
300.636
302.845
301.983
300.145
300.346
300.031
300.079
300.053
300.107
300.158
300.21
300.245
300.279
300.376
300.454
300.495
300.582
300.647
300.738
300.82
300.9
300.971
301.023
301.04
301.01
300.939
300.938
301.356
302.469
303.69
304.246
304.454
304.168
303.512
303.462
303.973
304.666
305.666
307.198
309.793
312.58
312.44
312.509
312.591
313.021
313.466
313.188
313.859
313.096
313.927
312.765
313.777
312.161
313.416
311.133
312.752
309.41
311.574
306.628
309.474
306.135
301.192
305.207
303.85
300.171
300.585
300.033
300.084
300.061
300.118
300.171
300.217
300.246
300.288
300.396
300.464
300.501
300.584
300.644
300.739
300.82
300.897
300.966
301.022
301.048
301.032
300.97
300.934
301.25
302.322
303.509
304.009
304.073
303.424
302.503
302.575
303.174
303.957
305.041
306.668
309.117
312.222
311.962
313.825
313.778
313.726
313.822
314.345
314.672
314.555
314.959
314.516
314.991
314.332
314.942
313.944
314.75
313.213
314.343
311.83
313.524
309.315
311.887
308.839
302.342
307.96
306.482
300.237
301.139
300.034
300.09
300.072
300.139
300.191
300.224
300.257
300.309
300.422
300.473
300.511
300.59
300.656
300.756
300.821
300.896
300.963
301.02
301.054
301.049
301
300.94
301.142
302.098
303.306
303.772
303.696
302.774
301.875
301.903
302.514
303.705
305.31
307.095
309.413
311.892
311.876
313.661
313.576
314.846
314.755
314.833
314.873
315.189
315.303
315.281
315.438
315.315
315.518
315.267
315.584
315.085
315.57
314.649
315.398
313.683
314.882
311.721
313.696
311.278
304.392
310.438
309.042
300.385
302.171
300.032
300.105
300.07
300.155
300.222
300.241
300.277
300.364
300.458
300.492
300.53
300.604
300.67
300.77
300.825
300.898
300.963
301.019
301.057
301.064
301.027
300.96
301.052
301.838
303.087
303.558
303.368
302.279
301.51
301.458
301.877
303.339
305.531
308.2
310.548
312.612
313.5
313.527
314.593
314.395
315.184
315.019
315.317
315.281
315.484
315.471
315.602
315.589
315.747
315.789
315.88
316.051
315.921
316.282
315.724
316.347
315.035
316.036
313.545
315.094
313.167
306.878
312.434
311.206
300.704
303.853
300.034
300.193
300.116
300.233
300.29
300.338
300.429
300.482
300.515
300.556
300.626
300.687
300.775
300.84
300.906
300.964
301.019
301.06
301.075
301.052
300.988
300.996
301.572
302.838
303.374
303.134
301.947
301.321
301.217
301.423
302.36
304.638
307.547
310.13
312.104
313.479
312.909
314.143
313.866
314.799
314.514
315.11
314.835
315.419
315.303
315.531
315.404
315.752
315.619
316.087
316.038
316.508
316.592
316.82
317.101
316.838
317.338
316.291
317.256
315.021
316.45
314.729
309.27
314.123
313.099
301.647
306.632
300.03
300.328
300.154
300.322
300.46
300.496
300.508
300.532
300.587
300.653
300.71
300.785
300.851
300.916
300.972
301.021
301.062
301.085
301.072
301.018
300.979
301.329
302.521
303.213
303.011
301.811
301.252
301.129
301.182
301.568
302.685
305.026
308.169
310.504
312.215
311.168
312.944
311.962
314.144
313.643
314.465
313.971
314.495
314.009
315.182
314.881
315.36
315.014
315.878
315.57
316.557
316.399
317.194
317.133
317.495
317.485
317.626
317.657
317.568
317.837
316.467
317.767
316.255
311.586
315.76
315.153
313.706
303.065
309.297
300.034
300.626
300.22
300.532
300.55
300.552
300.574
300.627
300.687
300.74
300.803
300.869
300.936
300.982
301.027
301.066
301.092
301.09
301.047
300.983
301.147
302.136
303.06
302.954
301.815
301.252
301.121
301.104
301.196
301.62
302.684
304.454
306.404
306.759
310.725
308.567
311.327
309.91
313.314
312.447
313.396
312.614
313.433
312.697
314.578
314.054
315.114
314.546
316.062
315.581
316.959
316.647
317.394
317.207
317.481
317.173
317.571
316.934
318.021
317.313
317.878
318.111
318.152
316.939
317.803
314.614
312.214
313.986
316.394
317.491
317.681
316.015
305.506
313.236
312.275
310.014
300.161
302.064
300.387
300.656
300.613
300.627
300.676
300.73
300.776
300.827
300.888
300.947
301.001
301.038
301.073
301.099
301.104
301.075
301.008
301.05
301.744
302.859
302.955
301.869
301.287
301.142
301.106
301.101
301.175
301.486
302.069
302.632
302.61
304.249
302.148
308.192
306.12
308.93
307.192
311.623
310.396
311.811
310.723
312.262
311.283
313.882
313.123
314.994
314.284
316.194
315.615
316.925
316.521
316.823
316.466
316.149
315.523
315.801
315.408
314.749
317.708
316.893
314.875
315.981
318.19
318.26
318.284
317.754
318.295
315.537
314.993
317.209
318.129
318.243
316.869
311.249
306.771
309.612
314.334
313.562
302.26
308.804
306.473
303.508
300.734
300.707
300.702
300.729
300.775
300.817
300.859
300.911
300.967
301.028
301.053
301.082
301.107
301.116
301.098
301.04
301.017
301.409
302.547
302.953
302.012
301.402
301.21
301.147
301.116
301.08
301.067
301.128
301.202
301.168
300.988
302.089
301.248
305.254
303.376
306.273
304.615
309.433
307.94
310.163
308.916
311.588
310.519
313.473
312.57
314.922
314.14
315.992
315.372
316.072
315.587
315.082
314.779
314.35
313.991
313.804
313.682
313.966
313.095
313.878
313.421
316.876
315.729
313.338
314.501
317.845
318.403
317.993
316.897
318.471
316.462
316.001
317.938
318.493
318.487
317.678
312.671
311.639
315.456
314.838
307.055
308.112
308.593
311.154
310.304
300.813
300.786
300.795
300.825
300.86
300.895
300.939
300.99
301.042
301.072
301.096
301.116
301.128
301.117
301.072
301.017
301.188
302.132
302.909
302.3
301.593
301.386
301.297
301.219
301.117
301.016
300.929
300.887
300.842
300.773
300.821
300.727
301.334
300.962
303.148
302.026
304.782
303.517
307.571
306.167
309.366
308.156
311.391
310.347
313.288
312.374
314.679
313.931
315.041
314.481
314.565
314.388
313.698
313.778
313.911
314.072
313.097
312.941
312.973
313.135
312.446
311.869
312.572
312.309
315.61
314.188
311.872
312.872
317.009
318.165
317.211
315.607
318.337
317.366
316.995
318.431
318.469
318.568
318.323
314.152
313.52
316.56
316.066
311.551
310.652
312.974
313.411
313.156
300.87
300.865
300.882
300.906
300.934
300.97
301.015
301.056
301.101
301.112
301.129
301.14
301.134
301.101
301.034
301.079
301.698
302.755
302.583
301.787
301.62
301.639
301.553
301.308
301.097
300.95
300.864
300.809
300.758
300.709
300.744
300.702
301.123
300.858
302.428
301.625
304.465
303.354
306.893
305.642
309.259
308.163
311.434
310.518
313.14
312.308
313.877
313.237
314.205
313.831
314.193
314.311
314.379
314.44
313.376
313.659
313.976
314.317
312.307
312.498
312.811
313.225
311.368
311.739
311.3
311.837
314.025
312.552
311.009
311.46
315.745
317.468
316.01
314.028
317.761
318.164
317.918
318.63
318.058
318.328
318.65
315.54
315.087
317.584
317.159
314.121
308
313.097
315
314.894
300.934
300.938
300.956
300.976
301.005
301.043
301.079
301.121
301.134
301.144
301.153
301.151
301.126
301.069
301.048
301.361
302.396
302.685
302.056
301.811
301.972
302.035
301.824
301.405
301.086
300.918
300.835
300.782
300.73
300.68
300.69
300.707
300.68
301.03
300.799
302.311
301.508
304.854
303.524
307.094
306.026
309.568
308.576
311.049
310.21
312.549
311.818
313.326
312.719
314.72
314.538
314.641
314.941
315.157
315.232
313.73
314.283
314.856
315.421
312.194
312.698
313.342
314.072
310.999
311.546
311.367
312.064
312.41
311.208
310.81
310.777
314.211
316.367
314.542
312.451
316.798
318.657
318.594
318.563
317.268
317.739
318.753
316.694
316.29
318.429
318.107
315.169
303.26
311.066
316.172
316.054
300.994
301.004
301.021
301.042
301.074
301.106
301.137
301.159
301.163
301.168
301.167
301.149
301.102
301.048
301.167
301.935
302.664
302.38
301.97
302.214
302.444
302.388
302.049
301.488
301.089
300.902
300.819
300.769
300.716
300.666
300.678
300.671
300.662
300.92
300.729
302.287
301.392
304.885
303.328
307.503
306.289
309.28
308.254
310.134
309.08
311.979
311.119
314.019
313.251
317.151
317.159
316.76
317.024
315.946
316.4
316.764
317.02
314.861
315.665
316.447
317.167
312.794
313.637
314.585
315.577
311.309
312.076
312.129
312.973
311.122
310.662
311.238
310.7
312.676
314.989
313.05
311.185
315.534
318.886
318.973
318.165
316.136
316.787
318.561
317.707
317.36
318.998
318.934
315.158
302.333
309.378
317.123
316.804
301.05
301.064
301.084
301.108
301.135
301.157
301.192
301.188
301.187
301.184
301.169
301.132
301.066
301.086
301.517
302.528
302.572
302.18
302.331
302.746
302.864
302.669
302.167
301.517
301.071
300.883
300.804
300.751
300.69
300.713
300.653
300.67
300.645
300.645
300.759
300.662
301.942
301.097
304.058
302.412
307.071
305.67
307.954
306.724
309.859
308.525
312.263
311.113
316.396
315.954
315.656
318.903
318.844
318.284
318.622
317.791
318.289
318.65
318.855
316.57
317.514
318.368
319.096
314.02
315.148
316.306
317.43
312.155
313.197
313.388
314.41
310.627
310.634
312.138
311.153
311.406
313.564
311.782
310.669
314.191
318.934
319.186
317.467
314.909
315.725
318.148
318.681
318.307
319.382
319.524
314.728
301.045
307.478
317.91
317.265
301.103
301.123
301.146
301.167
301.186
301.212
301.215
301.209
301.202
301.189
301.16
301.103
301.071
301.254
302.135
302.584
302.423
302.403
302.895
303.23
303.204
302.848
302.209
301.466
301.012
300.864
300.789
300.734
300.68
300.702
300.648
300.662
300.629
300.634
300.666
300.632
301.265
300.799
302.456
301.394
305.374
303.906
307.107
305.629
310.918
309.129
314.275
312.682
317.829
317.247
317.485
316.788
320.217
319.908
319.029
319.493
319.669
320.068
320.288
320.322
318.472
319.39
320.153
320.737
315.696
316.973
318.181
319.267
313.503
314.764
315.032
316.183
310.603
311.027
313.504
312.042
310.78
312.344
311.021
310.592
313.029
318.745
319.306
316.596
313.861
314.802
317.508
319.508
319.163
319.688
319.979
314.344
300.772
307.212
318.618
317.679
301.158
301.183
301.202
301.217
301.231
301.245
301.235
301.224
301.21
301.185
301.137
301.077
301.129
301.65
302.5
302.564
302.525
302.908
303.429
303.626
303.454
302.923
302.183
301.328
300.962
300.845
300.774
300.708
300.727
300.67
300.69
300.639
300.654
300.618
300.625
300.633
300.618
300.881
300.692
301.753
301.092
304.158
302.826
307.322
305.614
312.955
311.102
316.238
315.436
314.621
318.533
318.015
317.528
316.988
320.652
320.126
319.047
319.592
321.133
321.314
321.307
321.071
320.195
320.945
321.504
321.858
317.556
318.818
319.918
320.83
315.172
316.583
316.862
318.048
310.89
311.796
315.084
313.297
310.659
311.517
310.839
310.731
312.28
318.466
319.311
315.829
313.19
314.244
316.979
320.146
319.951
319.952
320.377
314.589
301.283
308.252
319.311
318.289
301.215
301.237
301.254
301.263
301.281
301.265
301.249
301.232
301.208
301.169
301.105
301.093
301.325
302.205
302.565
302.625
302.885
303.452
303.888
303.932
303.584
302.935
302.008
301.196
300.92
300.826
300.756
300.701
300.717
300.662
300.681
300.631
300.646
300.61
300.618
300.619
300.61
300.788
300.664
301.698
301.069
304.054
302.724
309.116
307.141
313.74
312.962
311.76
316.438
315.788
314.413
315.021
318.523
318.026
316.901
316.506
320.605
319.884
318.367
319.084
322.006
321.975
321.697
321.214
321.538
322.054
322.395
322.527
319.355
320.466
321.357
322.03
316.943
318.439
318.676
319.805
311.416
312.77
316.59
314.571
310.746
311.265
310.954
311.099
312.027
318.203
319.322
315.482
313.042
314.233
316.824
320.683
320.655
320.219
320.782
315.539
307.718
313.687
320.033
319.253
301.268
301.289
301.301
301.304
301.299
301.278
301.257
301.232
301.197
301.143
301.094
301.168
301.719
302.483
302.64
302.839
303.415
303.953
304.256
304.135
303.628
302.815
301.766
301.057
300.888
300.806
300.725
300.751
300.691
300.708
300.654
300.672
300.622
300.637
300.602
300.61
300.607
300.593
300.776
300.651
302.193
301.228
305.279
303.613
309.955
307.994
313.359
312.713
311.16
310.454
316.087
315.596
313.918
314.394
317.778
317.31
315.649
315.396
320.206
319.16
317.154
318.078
322.491
322.213
321.74
321.095
322.522
322.844
322.954
322.91
320.931
321.807
322.448
322.907
318.543
320.15
320.24
321.316
312.172
313.838
317.995
315.868
311.015
311.398
311.268
311.716
312.146
318.187
319.441
315.537
313.198
314.482
316.941
321.17
321.245
320.572
321.2
318.279
315.637
318.093
320.73
320.084
301.322
301.34
301.336
301.328
301.311
301.285
301.258
301.225
301.178
301.112
301.114
301.366
302.195
302.609
302.801
303.287
303.924
304.383
304.527
304.225
303.582
302.579
301.465
300.977
300.863
300.786
300.718
300.74
300.681
300.698
300.644
300.663
300.611
300.627
300.58
300.596
300.59
300.58
300.805
300.642
302.385
301.264
306.03
304.119
309.735
308.846
307.292
312.32
311.779
309.765
309.242
315.132
314.802
312.759
313.108
316.45
315.974
313.978
313.796
319.642
318.383
315.799
317.042
322.641
322.203
321.593
320.728
323.197
323.269
323.215
322.972
322.19
322.796
323.206
323.452
319.919
321.551
321.464
322.476
313.126
315.038
319.327
317.199
311.622
311.832
311.915
312.677
312.671
318.362
319.778
315.886
313.895
315.351
317.357
321.615
321.744
320.976
321.606
319.658
316.34
319.815
321.432
320.945
301.375
301.37
301.351
301.344
301.317
301.287
301.254
301.21
301.151
301.111
301.193
301.724
302.485
302.754
303.123
303.809
304.373
304.727
304.69
304.237
303.395
302.236
301.194
300.929
300.839
300.763
300.707
300.727
300.672
300.688
300.633
300.655
300.596
300.614
300.572
300.583
300.583
300.571
300.802
300.635
302.078
301.126
305.479
303.7
308.648
308.01
304.991
305.767
310.621
310.22
307.745
307.355
313.617
313.388
310.947
311.199
314.85
314.293
312.075
311.819
318.935
317.503
314.526
315.978
322.573
322.02
321.209
320.188
323.49
323.429
323.203
322.835
323.084
323.433
323.607
323.624
321.122
322.547
322.437
323.226
314.313
316.353
320.592
318.549
312.577
312.613
312.972
313.84
313.768
318.847
320.23
316.871
315.238
316.73
318.204
322.004
322.171
321.376
321.957
320.704
313.732
319.737
322.005
321.601
301.401
301.381
301.364
301.352
301.318
301.284
301.242
301.189
301.123
301.132
301.377
302.132
302.667
302.994
303.572
304.285
304.75
304.972
304.748
304.124
303.085
301.804
301.044
300.895
300.816
300.729
300.716
300.757
300.696
300.661
300.676
300.612
300.631
300.586
300.598
300.562
300.572
300.566
300.558
300.745
300.608
301.353
300.854
303.588
302.376
306.897
306.366
303.955
304.309
308.371
308.073
305.453
305.197
311.613
311.408
308.636
308.871
313.329
312.528
310.245
309.766
318.131
316.551
313.25
314.868
322.343
321.622
320.677
319.528
323.562
323.336
322.991
322.555
323.592
323.689
323.683
323.607
322.181
323.258
323.172
323.607
315.626
317.793
321.929
320.037
313.887
313.991
314.704
315.427
315.372
319.355
320.668
317.936
316.722
317.775
318.862
322.338
322.501
321.706
322.234
321.103
309.441
318.135
322.445
321.946
301.411
301.39
301.376
301.355
301.316
301.276
301.225
301.162
301.126
301.205
301.677
302.458
302.873
303.334
304.05
304.692
305.055
305.108
304.716
303.877
302.652
301.364
300.968
300.867
300.793
300.708
300.721
300.745
300.685
300.638
300.665
300.604
300.619
300.574
300.589
300.549
300.561
300.545
300.542
300.646
300.569
300.781
300.617
302.133
301.691
301.1
304.933
304.634
302.397
302.627
305.959
305.684
303.383
303.156
309.404
309.114
306.253
306.592
311.889
310.917
308.608
307.96
317.294
315.582
311.994
313.759
321.925
321.103
320.073
318.82
323.362
323.037
322.64
322.101
323.69
323.661
323.567
323.303
322.888
323.505
323.261
323.585
317.473
319.691
322.324
321.538
315.983
315.908
316.899
317.725
317.013
319.853
320.971
318.652
317.772
318.365
319.253
322.583
322.725
321.942
322.426
320.83
301.754
311.816
322.647
321.903
301.419
301.397
301.383
301.354
301.31
301.263
301.203
301.137
301.146
301.36
302.02
302.687
303.144
303.742
304.499
305.024
305.277
305.143
304.55
303.495
302.114
301.114
300.924
300.842
300.77
300.698
300.71
300.733
300.676
300.63
300.655
300.596
300.613
300.564
300.58
300.535
300.549
300.521
300.525
300.55
300.528
300.586
300.52
301.435
301.264
300.673
300.836
302.998
302.82
301.628
301.833
303.977
303.646
302.595
302.392
307.42
306.963
304.321
304.74
310.5
309.418
307.152
306.413
316.64
314.797
310.8
312.811
321.396
320.539
319.456
318.197
322.987
322.591
322.072
321.489
323.545
323.421
323.085
322.695
322.639
323.346
322.711
323.3
319.524
320.89
321.69
321.469
318.11
317.6
318.283
319.274
317.943
319.994
321.053
318.781
318.244
318.614
319.292
322.743
322.823
322.109
322.573
319.547
300.338
305.279
322.653
321.697
301.424
301.402
301.387
301.349
301.3
301.245
301.177
301.142
301.207
301.605
302.32
302.933
303.469
304.166
304.885
305.281
305.397
305.068
304.245
302.978
301.533
301.005
300.893
300.819
300.735
300.721
300.764
300.688
300.7
300.668
300.623
300.644
300.587
300.604
300.553
300.57
300.52
300.537
300.495
300.507
300.497
300.492
300.663
300.58
300.523
300.493
301.25
301.029
300.815
302.218
302.024
301.505
301.774
303.027
302.784
302.595
302.415
305.775
305.199
303.263
303.606
309.171
308.018
305.903
305.183
316.403
314.49
310.129
312.4
320.804
319.998
318.992
317.836
322.259
321.796
321.239
320.703
323.116
322.624
322.139
321.704
321.65
322.458
321.444
322.15
320.16
320.711
321.147
320.893
318.902
318.17
318.478
319.459
318.161
320.055
321.097
318.962
318.302
318.512
319.405
322.787
322.83
322.076
322.493
316.2
300.095
302.85
322.554
320.968
301.427
301.405
301.388
301.34
301.286
301.224
301.154
301.158
301.331
301.878
302.592
303.206
303.83
304.57
305.193
305.47
305.413
304.857
303.796
302.343
301.178
300.95
300.866
300.797
300.713
300.727
300.752
300.679
300.69
300.657
300.613
300.633
300.576
300.594
300.541
300.558
300.504
300.523
300.477
300.491
300.473
300.469
300.723
300.658
300.539
300.476
300.505
301.461
301.08
301.044
302.245
302.019
301.938
302.421
302.913
302.73
303.439
303.29
304.564
303.985
303.07
303.334
308.126
306.686
305.046
304.466
316.294
314.42
309.96
312.322
320.163
319.593
318.729
317.608
321.313
320.871
320.543
320.141
321.339
320.947
320.618
320.241
315.786
321.414
315.74
321.158
319.721
320.101
316.24
315.964
318.648
318.116
318.187
318.994
318.033
319.976
320.996
318.899
318.198
318.348
319.368
322.778
322.742
321.953
322.388
314.038
300.02
301.046
322.329
319.697
301.428
301.407
301.386
301.329
301.269
301.199
301.157
301.205
301.515
302.154
302.866
303.507
304.2
304.935
305.425
305.578
305.306
304.499
303.199
301.648
301.035
300.915
300.842
300.775
300.703
300.716
300.741
300.669
300.68
300.643
300.602
300.623
300.563
300.581
300.527
300.544
300.49
300.507
300.464
300.475
300.462
300.459
300.961
300.841
300.594
300.48
300.533
302.286
301.575
301.593
303.113
302.815
303.089
303.837
303.499
303.447
305.199
305.066
304.052
303.633
303.534
303.691
307.748
305.921
304.928
304.354
316.366
314.7
310.227
312.687
319.606
318.939
318.493
317.367
320.111
319.899
319.626
319.293
315.22
315.206
315.22
315.14
311.178
315.902
311.038
315.724
315.637
316.077
311.334
311.314
315.064
317.817
314.753
315.932
317.928
319.991
320.839
318.531
318.086
318.116
318.902
322.679
322.609
321.831
322.083
309.613
299.881
300.355
321.943
318.553
301.429
301.406
301.38
301.316
301.251
301.176
301.171
301.296
301.734
302.432
303.145
303.826
304.558
305.244
305.583
305.577
305.054
303.982
302.472
301.218
300.973
300.888
300.82
300.756
300.73
300.693
300.706
300.656
300.67
300.632
300.589
300.61
300.549
300.568
300.511
300.53
300.475
300.492
300.454
300.463
300.45
300.445
301.425
301.123
300.696
300.489
300.577
303.557
302.491
302.401
304.818
304.404
304.665
305.643
305.136
305.182
307.737
307.478
304.075
303.817
305.048
305.018
307.913
305.791
305.523
305.027
316.65
315.572
311.535
313.912
319.001
318.436
318.212
317.385
315.117
315.057
315.025
314.983
310.913
310.914
310.967
310.94
306.199
311.16
306.124
310.999
311.246
311.323
306.28
306.275
311.028
314.474
310.812
311.301
314.307
319.312
320.599
318.454
314.287
313.963
318.834
322.478
322.473
321.473
321.95
305.827
385.001
301.242
321.571
316.062
301.428
301.407
301.372
301.301
301.229
301.175
301.205
301.431
301.977
302.709
303.433
304.153
304.892
305.48
305.672
305.442
304.64
303.305
301.684
301.056
300.936
300.864
300.799
300.738
300.72
300.711
300.682
300.696
300.641
300.655
300.619
300.575
300.597
300.536
300.555
300.498
300.517
300.465
300.479
300.434
300.453
300.453
300.497
300.432
300.426
302.023
301.485
300.836
300.627
304.934
303.595
303.225
307.064
306.444
306.283
307.519
307.695
307.755
310.755
310.262
304.934
304.919
307.529
307.329
309.137
306.563
307.557
306.963
317.04
316.56
314.184
315.88
315.112
317.755
317.724
317.487
311.037
311.042
311.164
311.172
306.105
306.148
306.178