/*--------------------------------*- C++ -*----------------------------------*\
  =========                 |
  \\      /  F ield         | OpenFOAM: The Open Source CFD Toolbox
   \\    /   O peration     | Website:  https://openfoam.org
    \\  /    A nd           | Version:  dev
     \\/     M anipulation  |
\*---------------------------------------------------------------------------*/
FoamFile
{
    version     2.0;
    format      ascii;
    class       volVectorField;
    location    "2500";
    object      U;
}
// * * * * * * * * * * * * * * * * * * * * * * * * * * * * * * * * * * * * * //

dimensions      [0 1 -1 0 0 0 0];

internalField   nonuniform List<vector> 
9846
(
(0.00377641 0.00653945 0)
(0.00873248 0.00599489 -1.83957e-28)
(0.00370073 0.0167854 0)
(0.0115678 0.00514733 1.33324e-27)
(0.00957103 0.0172869 0)
(0.00305172 0.02363 2.96749e-27)
(0.0133534 0.00429977 0)
(0.013059 0.0170877 2.61823e-27)
(0.00891935 0.0247849 -9.92124e-28)
(0.00237638 0.0287733 2.97727e-27)
(0.0143173 0.00369455 -8.60759e-28)
(0.0148745 0.0159433 0)
(0.0132972 0.0258042 -3.01424e-27)
(0.00745475 0.0299182 9.06907e-32)
(0.00192972 0.0330758 4.5501e-28)
(0.0147027 0.00314997 1.50508e-28)
(0.0156323 0.0140848 -1.70746e-27)
(0.0161713 0.0259404 -1.3365e-27)
(0.0121692 0.0316284 -1.97764e-27)
(0.0059863 0.0338997 1.66188e-27)
(0.00162427 0.0367996 -4.34284e-28)
(0.0147742 0.0027095 0)
(0.015821 0.012143 3.25771e-28)
(0.0177025 0.0250382 -1.13943e-27)
(0.015935 0.0330224 -1.42353e-27)
(0.0102865 0.0355349 5.54548e-28)
(0.00495889 0.0373677 3.15553e-27)
(0.00139074 0.0399903 0)
(0.0146379 0.00240372 0)
(0.0156212 0.0104229 1.1743e-29)
(0.0181284 0.0233152 4.39887e-28)
(0.0185246 0.0335984 -1.22721e-27)
(0.014379 0.0375557 1.28023e-27)
(0.00848515 0.0386281 2.41721e-27)
(0.00421698 0.0404375 1.49161e-27)
(0.00119616 0.0427989 -1.73488e-27)
(0.0144059 0.0021967 0)
(0.0152153 0.0090855 -3.08525e-30)
(0.0178057 0.0210516 -7.32901e-28)
(0.0198998 0.0331041 0)
(0.0177586 0.0393178 1.46132e-27)
(0.0121955 0.04056 0)
(0.00711177 0.0414077 7.65806e-28)
(0.00360817 0.0431569 -5.66901e-28)
(0.00103261 0.0452306 -1.21007e-27)
(0.0141829 0.00203796 2.43221e-28)
(0.0148535 0.00809302 -9.08817e-30)
(0.0171159 0.0185128 -6.87867e-28)
(0.0202501 0.0316737 7.19525e-28)
(0.0201813 0.0403453 0)
(0.0158102 0.0428146 -1.61598e-28)
(0.0101869 0.0429486 5.91814e-28)
(0.00606423 0.0439203 0)
(0.00311032 0.0455186 5.49687e-28)
(0.000896041 0.0474166 -5.60836e-28)
(0.0140066 0.00191562 2.29497e-28)
(0.0145437 0.00730539 0)
(0.0163307 0.0161111 5.89796e-28)
(0.0198521 0.0295359 8.56881e-28)
(0.0215713 0.0403511 -1.45651e-28)
(0.0189548 0.0448846 0)
(0.0134404 0.0450269 -1.55961e-28)
(0.00862875 0.0451208 -3.47479e-28)
(0.00521828 0.0461583 -4.92252e-29)
(0.0026929 0.0476467 -6.41444e-28)
(0.000781819 0.0493816 -5.2439e-28)
(0.0138341 0.00182214 -5.2273e-29)
(0.0142415 0.00672884 0)
(0.0155881 0.0142585 1.0916e-27)
(0.0189075 0.0269341 8.35979e-28)
(0.0219985 0.0393446 0)
(0.0213162 0.0463079 1.91595e-32)
(0.0166991 0.0474347 7.3015e-29)
(0.0113322 0.0467953 0)
(0.00739061 0.0471729 0)
(0.00451225 0.0481741 -6.80332e-28)
(0.00234748 0.0495606 -1.24417e-27)
(0.000682746 0.0511523 0)
(0.0137074 0.00175031 2.08746e-28)
(0.0139892 0.006352 -5.11807e-29)
(0.0149764 0.0129808 -1.2873e-32)
(0.017769 0.0241287 6.68165e-28)
(0.0216337 0.0374782 1.11792e-29)
(0.022786 0.0468821 0)
(0.0196422 0.0497923 1.1752e-28)
(0.0141826 0.0489777 7.60939e-29)
(0.00963496 0.04854 8.01346e-28)
(0.00635957 0.0490157 6.66384e-28)
(0.00392279 0.0499987 -1.71612e-28)
(0.00206121 0.0512977 -6.18775e-28)
(0.000602383 0.0527452 -1.41427e-27)
(0.0136446 0.00171411 4.07866e-28)
(0.0138094 0.00607124 -3.18517e-28)
(0.0145695 0.0120391 -1.05571e-35)
(0.0166995 0.0214421 0)
(0.0207555 0.0349981 0)
(0.023372 0.0463376 0)
(0.0219821 0.0516795 -1.63781e-28)
(0.0170976 0.0515295 0)
(0.0119869 0.0503113 8.61785e-28)
(0.00826106 0.0501415 6.96838e-28)
(0.005506 0.050721 0)
(0.00342419 0.0516605 -1.76634e-28)
(0.00182546 0.0528457 2.54548e-32)
(0.000538028 0.0542353 0)
(0.0136426 0.00170123 4.0546e-28)
(0.0136847 0.00583993 -2.11381e-28)
(0.0143007 0.0113041 7.8025e-28)
(0.015826 0.0192428 0)
(0.0195367 0.032126 0)
(0.0232185 0.0450174 0)
(0.023567 0.0528325 7.73555e-28)
(0.0198468 0.0541459 -3.94245e-28)
(0.0144784 0.0525503 0)
(0.0102184 0.051588 0)
(0.00712005 0.0516712 -6.40846e-28)
(0.00479125 0.0522732 0)
(0.0030141 0.0531334 7.48572e-28)
(0.00162744 0.0543141 0)
(0.000486967 0.0556245 0)
(0.0137397 0.0016828 4.04839e-28)
(0.0136533 0.00566279 0)
(0.0140925 0.0107306 8.53276e-28)
(0.0151972 0.017676 4.46918e-28)
(0.0182413 0.0291465 0)
(0.022479 0.0428944 -7.04403e-28)
(0.0243754 0.0528629 7.19394e-28)
(0.0221738 0.056478 6.92324e-28)
(0.0170569 0.0552135 -1.74293e-28)
(0.0122399 0.0534274 -1.59586e-28)
(0.00875624 0.0528793 -6.15496e-28)
(0.00616274 0.0530739 -6.18533e-28)
(0.00419446 0.0536598 1.26725e-28)
(0.00268029 0.0545386 -7.60759e-28)
(0.00147693 0.0556674 0)
(0.000446517 0.0569343 0)
(0.0139495 0.00167546 3.48835e-28)
(0.013733 0.00553482 2.57382e-28)
(0.0139586 0.0102969 6.12628e-28)
(0.0147899 0.0165837 1.53563e-28)
(0.0170744 0.0263574 0)
(0.0213127 0.0403019 -6.41183e-28)
(0.024355 0.0522612 0)
(0.0238522 0.0581622 6.25592e-28)
(0.0195883 0.058076 6.35177e-29)
(0.0143723 0.0557128 0)
(0.0104083 0.0543994 -1.80871e-28)
(0.00753074 0.054078 -5.49067e-28)
(0.00536615 0.0543446 0)
(0.00371248 0.0549607 1.86109e-27)
(0.00242215 0.055812 3.24393e-28)
(0.00137576 0.0569727 0)
(0.000416662 0.0582062 0)
(0.0143087 0.00168033 2.03136e-28)
(0.0138999 0.00544748 1.45097e-28)
(0.0139453 0.0100003 3.96688e-28)
(0.0145265 0.0157665 9.60794e-29)
(0.0161314 0.024076 1.37979e-28)
(0.019929 0.0374542 0)
(0.0238398 0.0507672 2.61871e-29)
(0.0247754 0.0591226 0)
(0.0218169 0.0608022 4.43908e-28)
(0.0166134 0.0584351 -1.10682e-28)
(0.0121238 0.0562737 0)
(0.00889569 0.0553396 0)
(0.00651528 0.0551792 -6.10354e-29)
(0.00472066 0.0555053 6.93232e-28)
(0.00333604 0.0561594 -9.23938e-32)
(0.00224007 0.0570532 7.13122e-28)
(0.00129871 0.0582381 -1.95232e-28)
(0.000401477 0.0594741 0)
(0.0148373 0.00168461 4.09497e-28)
(0.0142147 0.00540596 1.66399e-28)
(0.0140852 0.00980807 0)
(0.0143661 0.0151373 8.02978e-28)
(0.0154636 0.022448 4.40428e-28)
(0.0185478 0.0345682 5.4758e-28)
(0.0228232 0.0486003 0)
(0.0250322 0.0589512 2.33436e-29)
(0.0235481 0.0631026 5.06195e-28)
(0.0188599 0.0614474 -6.90814e-29)
(0.0139132 0.0585564 -1.42052e-28)
(0.0102767 0.0569048 0)
(0.00763652 0.0562279 5.00152e-28)
(0.00568111 0.0561776 -7.05701e-29)
(0.00420879 0.056613 0)
(0.00305192 0.0573067 -1.16491e-27)
(0.0021223 0.0582549 -9.20106e-28)
(0.00124744 0.0594898 -2.13458e-28)
(0.000400344 0.0607416 0)
(0.0155402 0.00171055 4.22389e-28)
(0.0147088 0.00540307 4.2024e-28)
(0.0143781 0.00965935 5.52604e-28)
(0.0143945 0.0146714 4.88204e-28)
(0.0150538 0.0213401 7.92769e-28)
(0.0173386 0.0318795 4.78463e-28)
(0.0214909 0.0460949 -5.03322e-28)
(0.0247203 0.058303 5.72722e-28)
(0.0246826 0.0646622 0)
(0.0209387 0.0645068 3.51915e-28)
(0.0157951 0.0612676 0)
(0.0116739 0.0588137 -1.84764e-28)
(0.00873084 0.0575438 4.95614e-28)
(0.00658069 0.0570431 3.97603e-28)
(0.00501189 0.0571428 0)
(0.00381902 0.0576459 0)
(0.00287267 0.0584167 -1.3316e-27)
(0.00207071 0.0594412 0)
(0.00124478 0.0607316 0)
(0.000416041 0.0620581 5.24878e-27)
(0.016421 0.00175435 2.2322e-28)
(0.0153771 0.00540507 6.5141e-28)
(0.0148435 0.00953797 6.05006e-28)
(0.0146115 0.0143581 3.74383e-28)
(0.0149007 0.0205603 7.27021e-28)
(0.0164118 0.0296344 4.15011e-28)
(0.0200484 0.0434204 -3.46587e-28)
(0.0239093 0.0569244 9.39301e-28)
(0.0251112 0.065577 4.04761e-28)
(0.0226454 0.0673435 6.56234e-28)
(0.0176916 0.0643616 -1.56133e-28)
(0.0131018 0.0611122 6.96251e-29)
(0.00980233 0.0591496 -1.93555e-28)
(0.00743302 0.0581359 5.19173e-28)
(0.00573223 0.0578041 0)
(0.00450605 0.0580267 0)
(0.00356399 0.0586423 1.14653e-27)
(0.00281054 0.0595046 1.60161e-27)
(0.00208157 0.0606214 0)
(0.00128871 0.0620257 5.2208e-27)
(0.000443797 0.0634493 6.24068e-27)
(0.0174872 0.00178166 7.24952e-28)
(0.0162373 0.00541914 2.34859e-28)
(0.0154839 0.0094848 6.17967e-28)
(0.0150086 0.0141767 1.81339e-28)
(0.014972 0.019996 3.78697e-28)
(0.0158229 0.0279657 9.72179e-28)
(0.0187231 0.0407503 1.57025e-28)
(0.0227309 0.0549176 8.03528e-28)
(0.0249369 0.0655122 4.96925e-28)
(0.0238387 0.0697483 2.43959e-28)
(0.0194842 0.0676863 -1.38799e-28)
(0.0145655 0.0638363 4.59748e-29)
(0.0108386 0.0610812 2.12377e-28)
(0.0082334 0.0594682 -5.97602e-28)
(0.00638593 0.0586493 0)
(0.00509675 0.0585057 -2.45596e-28)
(0.00416716 0.0588741 4.62777e-28)
(0.00345212 0.0596129 1.39812e-27)
(0.00284006 0.060612 3.33845e-27)
(0.00214531 0.0618509 0)
(0.00138033 0.0634004 6.14332e-27)
(0.000481749 0.064928 7.25716e-27)
(0.0187528 0.00179076 2.49138e-28)
(0.0173058 0.00547435 7.50621e-28)
(0.016305 0.00950085 6.45933e-28)
(0.0155889 0.0141024 0)
(0.0151984 0.0196233 1.44915e-28)
(0.0155614 0.026858 5.1751e-29)
(0.0176406 0.0382916 7.71898e-28)
(0.0214057 0.0526662 4.68624e-28)
(0.024449 0.0650095 3.40999e-28)
(0.0244884 0.071442 2.68937e-28)
(0.0210491 0.0710176 1.42896e-28)
(0.0160372 0.0669799 -3.96224e-29)
(0.0118583 0.0633911 1.45265e-28)
(0.00895151 0.0610696 5.61058e-28)
(0.00694495 0.0597203 -1.48026e-27)
(0.00558346 0.0591407 -1.01535e-28)
(0.0046532 0.0591672 3.102e-28)
(0.00399677 0.0596927 -5.10522e-28)
(0.00347774 0.0606132 -1.70387e-27)
(0.00294668 0.0617629 -6.84784e-31)
(0.00228022 0.0631596 2.90722e-27)
(0.00150524 0.0648807 6.84804e-27)
(0.000526761 0.0665266 0)
(0.0202216 0.00180558 -2.67364e-28)
(0.0185793 0.00553895 2.71457e-28)
(0.0173373 0.00954919 4.68209e-28)
(0.016364 0.0141147 4.09282e-28)
(0.015621 0.0194535 2.97871e-28)
(0.0155623 0.0261902 -8.17563e-29)
(0.01682 0.0362578 -6.47201e-28)
(0.0200618 0.0503199 2.53581e-28)
(0.0235173 0.063896 5.65755e-28)
(0.0245879 0.0725667 1.63022e-28)
(0.0222409 0.0741221 -5.92031e-30)
(0.0174601 0.0704691 -1.0352e-28)
(0.0128729 0.0661339 -2.07999e-28)
(0.00959235 0.0629843 0)
(0.00739192 0.0610368 3.61944e-28)
(0.00593599 0.0599576 -9.09425e-28)
(0.00500386 0.0595782 1.61077e-28)
(0.00441355 0.0597906 0)
(0.0039989 0.0605419 -1.99896e-27)
(0.00363007 0.0616667 0)
(0.00313457 0.0629873 -5.56932e-27)
(0.00247936 0.0645837 0)
(0.00165118 0.0664931 -3.40326e-28)
(0.000577356 0.0682553 4.70512e-27)
(0.0218631 0.00183268 -6.87181e-42)
(0.0200262 0.00558575 -2.86047e-28)
(0.0185939 0.00964142 5.11649e-28)
(0.0173568 0.0141877 -9.92546e-29)
(0.0162946 0.0194443 3.03586e-28)
(0.0158185 0.0257823 -6.82056e-28)
(0.0163436 0.0347784 0)
(0.0188662 0.0480088 1.89193e-28)
(0.0223478 0.0622857 4.45408e-28)
(0.0241854 0.0729498 3.52078e-28)
(0.0229843 0.0768177 -2.16306e-28)
(0.0187546 0.0741683 1.03233e-32)
(0.0138778 0.0693155 -3.30284e-28)
(0.0101744 0.0652827 -5.74046e-43)
(0.00771641 0.0626257 0)
(0.00614195 0.0609718 2.5784e-28)
(0.00519967 0.060132 -1.11189e-27)
(0.00467003 0.0599702 2.48693e-27)
(0.00438152 0.0604496 -5.34044e-28)
(0.00417701 0.0614557 -6.65069e-28)
(0.003892 0.0628032 2.54558e-27)
(0.00340678 0.0643322 -4.59283e-27)
(0.00272866 0.0661389 0)
(0.00180846 0.068243 4.72523e-27)
(0.000629333 0.0701323 0)
(0.0236647 0.00185263 3.23216e-28)
(0.0216423 0.00564057 -3.1648e-28)
(0.0200406 0.00978615 2.87478e-28)
(0.0185573 0.0143006 2.22715e-28)
(0.0172333 0.0195268 3.41637e-28)
(0.0163344 0.0255636 -8.81996e-28)
(0.0162712 0.0338258 -6.52681e-28)
(0.0179783 0.0458345 2.63394e-28)
(0.0211664 0.0605014 3.24339e-28)
(0.023635 0.0727722 2.66553e-28)
(0.0233125 0.0789439 -3.44433e-28)
(0.0198203 0.0778843 2.03994e-28)
(0.0148544 0.0729288 -2.92869e-29)
(0.0107015 0.0680292 0)
(0.00791312 0.0645472 -1.49606e-28)
(0.00617345 0.0622291 4.65815e-28)
(0.00520678 0.0608503 0)
(0.00473509 0.060264 -1.32873e-27)
(0.00458246 0.0604032 2.54865e-27)
(0.00456025 0.0611671 -1.51686e-27)
(0.00450591 0.0624636 7.50655e-28)
(0.00425746 0.0640476 -1.98559e-28)
(0.00375605 0.0658348 3.81962e-27)
(0.00300402 0.06786 0)
(0.0019643 0.0701564 -6.68695e-28)
(0.000676317 0.0721458 0)
(0.0256233 0.00185244 -8.42883e-30)
(0.0234447 0.00571199 6.45038e-28)
(0.0216734 0.00993156 -6.50442e-28)
(0.0199707 0.0144464 3.13251e-28)
(0.0184142 0.0196606 -1.06805e-27)
(0.017138 0.0255267 4.87679e-28)
(0.0165856 0.0332402 -1.53677e-27)
(0.0174538 0.0439737 1.7535e-28)
(0.0200757 0.0586313 2.23615e-28)
(0.0227696 0.0721763 9.06714e-29)
(0.0232574 0.0805247 -4.86634e-29)
(0.0205913 0.0814463 -5.5347e-28)
(0.0157567 0.0769098 0)
(0.0111688 0.0712799 -6.06337e-28)
(0.00797636 0.0668738 2.40962e-28)
(0.00602144 0.0637897 0)
(0.00498068 0.0617723 -5.19967e-28)
(0.00457439 0.0606887 1.12771e-27)
(0.00456186 0.0604003 7.92725e-29)
(0.00475225 0.0608588 0)
(0.00495951 0.061996 -1.72572e-27)
(0.00498378 0.0635969 -1.86095e-27)
(0.00471945 0.0654673 5.05529e-28)
(0.00415412 0.0675268 4.4442e-27)
(0.00327574 0.0697622 -6.49297e-28)
(0.00210165 0.0722239 7.49086e-28)
(0.000709811 0.0742895 0)
(0.0277186 0.0018464 3.46329e-28)
(0.0254128 0.00578191 -1.13459e-27)
(0.0234962 0.0100421 -5.57417e-29)
(0.0216103 0.0146128 -3.1655e-28)
(0.0198123 0.0198353 7.52974e-29)
(0.0182453 0.0256216 -1.0654e-27)
(0.0172118 0.0329269 -9.66806e-28)
(0.0173237 0.0425951 -1.5475e-27)
(0.0192078 0.0568004 8.07354e-29)
(0.0217962 0.0711788 -6.56521e-28)
(0.022885 0.081621 4.78271e-28)
(0.0210347 0.0847295 -7.2272e-29)
(0.0165314 0.0811615 -2.53827e-28)
(0.011597 0.0750486 -1.58342e-27)
(0.00791706 0.0696704 -7.47953e-28)
(0.00567256 0.065716 -5.5157e-28)
(0.00450856 0.0629606 -2.39386e-28)
(0.00414526 0.0612678 5.41895e-28)
(0.00428452 0.0604807 1.64727e-27)
(0.00471558 0.0605722 -1.63586e-27)
(0.00521071 0.0614517 3.88409e-27)
(0.00555643 0.062977 7.91611e-28)
(0.00559153 0.0649197 0)
(0.00526144 0.0671141 -6.71476e-27)
(0.00456362 0.0694301 0)
(0.00351204 0.0718522 -3.82412e-27)
(0.00219813 0.0744453 1.64603e-27)
(0.000717859 0.076517 0)
(0.029936 0.00184147 -8.08972e-28)
(0.0275092 0.0058322 1.40371e-28)
(0.0254875 0.0101224 6.65591e-28)
(0.0234531 0.0147813 1.28223e-27)
(0.0214333 0.02005 -3.10374e-28)
(0.0195963 0.0257931 4.34589e-28)
(0.0181576 0.0328742 -2.76717e-28)
(0.0175901 0.0417372 -1.90128e-27)
(0.0186726 0.0550948 -8.99993e-28)
(0.0209431 0.0700614 3.3386e-29)
(0.0223426 0.0822083 -7.9895e-28)
(0.0211853 0.087633 -2.58373e-28)
(0.017157 0.0855367 -1.66076e-28)
(0.0119778 0.079317 -1.86984e-27)
(0.00777638 0.0730026 -1.00265e-27)
(0.00513485 0.0680762 -1.98635e-27)
(0.00377694 0.0644901 0)
(0.00340162 0.0620545 6.9725e-28)
(0.00368515 0.0606792 1.04415e-27)
(0.00437311 0.0603059 -1.04317e-28)
(0.00519181 0.060854 -2.14303e-27)
(0.00591517 0.0622082 3.61769e-27)
(0.00632446 0.0641538 2.16521e-27)
(0.00630795 0.0664899 -6.00381e-27)
(0.00584201 0.0690184 -3.58662e-27)
(0.00493659 0.0715682 -7.33668e-28)
(0.00367476 0.0741252 -9.18181e-27)
(0.00222016 0.0767803 1.59825e-27)
(0.00068664 0.0787746 0)
(0.0322433 0.00181732 1.05943e-26)
(0.0297403 0.00584724 -2.00131e-27)
(0.0276209 0.0101846 6.85511e-28)
(0.0254706 0.0149313 4.00471e-27)
(0.0232833 0.0202764 1.28887e-27)
(0.0211881 0.0260064 -6.77558e-28)
(0.0194429 0.0329958 -2.00607e-28)
(0.0182395 0.0412863 1.99634e-27)
(0.0185593 0.0536306 -1.17933e-27)
(0.0202666 0.0688944 3.06423e-29)
(0.0217545 0.08236 3.97144e-35)
(0.0211386 0.0901044 1.13889e-27)
(0.0176169 0.0898929 -1.10121e-27)
(0.0123322 0.0840387 -1.80169e-27)
(0.00757039 0.0769207 -1.07061e-27)
(0.00442824 0.0709532 -2.69549e-27)
(0.00278682 0.0664347 -1.33884e-27)
(0.00231494 0.0631346 -3.02188e-27)
(0.00271954 0.0610459 8.75072e-28)
(0.00366262 0.0600771 0)
(0.0048509 0.0602091 -2.32716e-27)
(0.00600653 0.0613149 3.14837e-27)
(0.00686403 0.0631872 0)
(0.00724591 0.0656062 -4.77293e-27)
(0.00709721 0.0683695 -6.54688e-27)
(0.00639863 0.0712156 -7.26543e-28)
(0.00521485 0.0739424 8.32154e-28)
(0.00371002 0.0765699 -4.4467e-27)
(0.00211602 0.079179 -9.78551e-28)
(0.000599843 0.0809719 9.82248e-28)
(0.0346013 0.0017807 0)
(0.0320707 0.00583391 6.3747e-27)
(0.0298801 0.0102284 -2.29317e-27)
(0.0276591 0.015029 2.19129e-27)
(0.0253503 0.0204535 7.57241e-28)
(0.0230488 0.0262426 1.56608e-27)
(0.0209978 0.0331889 5.66898e-32)
(0.0193155 0.0411859 0)
(0.0188506 0.0525205 -7.46978e-28)
(0.0198457 0.0677258 0)
(0.021198 0.0822959 -2.93163e-29)
(0.0209499 0.0921252 -2.10629e-28)
(0.0179537 0.0941194 2.19371e-27)
(0.0126597 0.0891395 -1.82091e-27)
(0.00733495 0.0814758 -1.69531e-27)
(0.00357273 0.074441 -1.66193e-27)
(0.00152533 0.0688737 -1.61096e-27)
(0.000879778 0.0646112 -3.03383e-27)
(0.00132735 0.0616538 -2.97775e-27)
(0.00252721 0.059949 1.93093e-27)
(0.00411762 0.0595304 1.24178e-27)
(0.00575555 0.0602912 5.07545e-28)
(0.00714432 0.0620231 3.69901e-27)
(0.00802262 0.0644749 0)
(0.00828981 0.0674215 2.20903e-30)
(0.00788937 0.0706123 -4.63256e-27)
(0.00685657 0.0737237 -6.88057e-27)
(0.0053251 0.0765606 9.35091e-28)
(0.00353892 0.0791586 -9.93766e-28)
(0.0018276 0.0815491 -2.21347e-27)
(0.000430667 0.0829902 1.00568e-27)
(0.0369785 0.0017468 4.89826e-28)
(0.0344388 0.00579486 -2.42961e-27)
(0.032246 0.0102241 -5.4249e-27)
(0.0299796 0.0150508 2.54665e-27)
(0.0276034 0.0205466 -7.88729e-27)
(0.0251638 0.0264945 0)
(0.02282 0.0334126 -6.83138e-27)
(0.020799 0.0413609 2.47579e-27)
(0.0195496 0.0517942 -7.8027e-28)
(0.0198066 0.0666432 -2.07363e-27)
(0.0208147 0.0820798 -4.06518e-29)
(0.02072 0.0937792 1.86585e-27)
(0.0181803 0.0981024 -1.81037e-27)
(0.0130103 0.0945183 -8.72522e-28)
(0.00714269 0.0866758 0)
(0.00261084 0.0786357 -1.8394e-27)
(-9.17798e-07 0.0719322 -1.85824e-27)
(-0.000942836 0.0665866 -3.70969e-27)
(-0.0005274 0.0626018 -1.66096e-27)
(0.000880749 0.0599978 1.50536e-27)
(0.00289433 0.0588592 5.17319e-28)
(0.00508527 0.0591371 -1.63408e-28)
(0.00708167 0.060641 5.31086e-28)
(0.00856882 0.0630785 -3.14625e-27)
(0.00935911 0.0661688 0)
(0.00938748 0.0696733 -5.59446e-27)
(0.00859812 0.073261 0)
(0.00712833 0.0765748 -6.70739e-27)
(0.00516418 0.0794006 -4.16199e-27)
(0.00306127 0.0818278 -2.14701e-27)
(0.00131274 0.0837651 -1.09727e-27)
(0.000232871 0.0847617 0)
(0.0393394 0.00169845 -1.08057e-26)
(0.0368404 0.00570421 -2.62717e-27)
(0.0346825 0.0101415 2.8815e-27)
(0.0324104 0.0149985 2.8473e-27)
(0.0299851 0.0205827 5.64239e-27)
(0.0274835 0.0267367 -5.59733e-27)
(0.0249259 0.0336358 4.38175e-30)
(0.022632 0.0416386 -6.8896e-27)
(0.0207373 0.0514374 -2.38716e-27)
(0.0202432 0.0656973 0)
(0.0207439 0.0817824 3.93957e-27)
(0.020618 0.0950936 0)
(0.0183529 0.101778 4.94442e-28)
(0.0134057 0.100031 6.3239e-27)
(0.00707371 0.0924841 -2.2058e-27)
(0.00167336 0.0836082 -2.26444e-27)
(-0.00173262 0.075734 -6.30801e-27)
(-0.00316803 0.0692003 -2.17243e-27)
(-0.00290538 0.0640196 -3.55371e-27)
(-0.00134696 0.0603241 5.34234e-35)
(0.00107484 0.0582734 -1.27646e-27)
(0.00387319 0.0578775 0)
(0.00658597 0.0590145 4.69841e-37)
(0.00879869 0.0613737 5.956e-35)
(0.0102509 0.0645933 -3.50449e-27)
(0.0108252 0.0683856 0)
(0.0104431 0.0724325 -1.18457e-26)
(0.00912199 0.0763562 1.95391e-27)
(0.00708966 0.0797696 -1.38413e-26)
(0.00461004 0.0824198 0)
(0.00218031 0.0844234 0)
(0.000529136 0.0856014 2.19614e-27)
(-9.80966e-05 0.0860242 0)
(0.0416389 0.00162334 0)
(0.0392439 0.00555185 -1.26762e-26)
(0.0371472 0.00998223 3.15933e-27)
(0.0349308 0.0148768 0)
(0.0324793 0.0205662 9.51159e-27)
(0.0299618 0.0268858 1.14518e-26)
(0.0273038 0.0338189 2.7878e-27)
(0.0247864 0.0418983 -2.22558e-27)
(0.0224118 0.0514177 2.10285e-30)
(0.0211864 0.0649248 1.25495e-27)
(0.0210313 0.0814374 1.51647e-27)
(0.0207244 0.0961126 4.86455e-27)
(0.0186123 0.105105 0)
(0.0138544 0.105566 2.59579e-27)
(0.00718779 0.0988248 5.89296e-27)
(0.000873028 0.0893883 -8.95742e-28)
(-0.00352911 0.0803957 -4.62595e-27)
(-0.00572453 0.0726038 2.44089e-31)
(-0.00584927 0.0660716 -2.46901e-27)
(-0.00425088 0.0610713 -4.25497e-27)
(-0.00144792 0.0578588 -4.50424e-27)
(0.00200975 0.0565909 -1.18406e-27)
(0.00552176 0.0571802 1.41264e-27)
(0.00860454 0.0593306 1.0815e-32)
(0.0108411 0.0625948 2.64123e-27)
(0.0121076 0.0666782 0)
(0.0122936 0.0712275 0)
(0.0113374 0.0758134 1.42569e-26)
(0.0093459 0.08 -2.27405e-27)
(0.00645499 0.0833951 -6.44534e-27)
(0.00346219 0.085568 -3.98372e-26)
(0.000817059 0.0867252 2.39248e-27)
(-0.000363997 0.0868574 -3.8158e-27)
(-0.000233747 0.0858796 0)
(-0.000478512 0.0863278 7.58839e-28)
(0.0438203 0.00153256 -2.65353e-28)
(0.0415879 0.00534589 -1.4736e-27)
(0.0395955 0.0097548 1.7175e-27)
(0.0374764 0.0146782 0)
(0.0350887 0.0204551 6.70134e-27)
(0.0325598 0.0268789 0)
(0.0299137 0.0339303 3.0103e-26)
(0.0272296 0.0421043 -5.87657e-27)
(0.0245265 0.0516457 4.89078e-27)
(0.0226058 0.0643815 5.67874e-27)
(0.0217557 0.0810397 -9.86046e-27)
(0.0211232 0.0969216 1.50931e-27)
(0.0190494 0.108076 -4.86342e-28)
(0.0144494 0.110998 8.88229e-27)
(0.00749745 0.105613 8.85815e-28)
(0.000301861 0.095994 1.58991e-26)
(-0.0052492 0.0860159 1.28016e-27)
(-0.00848666 0.0769697 0)
(-0.00932363 0.0689757 9.40025e-28)
(-0.00791989 0.0624314 -1.80651e-27)
(-0.00482405 0.057803 -4.75172e-27)
(-0.000692083 0.0552571 -5.13328e-27)
(0.00380027 0.0550383 -9.90439e-28)
(0.00787577 0.0569058 2.05966e-27)
(0.0111546 0.0602721 -5.30423e-27)
(0.0133438 0.0645314 -9.39721e-28)
(0.014224 0.0694187 0)
(0.013763 0.0746264 1.51444e-26)
(0.0121051 0.0796764 -2.33524e-27)
(0.00920323 0.0841124 8.89173e-27)
(0.00508738 0.087291 -4.38632e-26)
(0.00158818 0.0886491 -3.78591e-28)
(-0.000914732 0.0884203 -3.60424e-27)
(-0.00103821 0.0868944 -3.89007e-31)
(-0.00166587 0.0875996 7.28422e-28)
(-0.000338069 0.0857846 -1.31069e-26)
(-0.000977796 0.0863822 -1.31894e-26)
(0.045854 0.0014256 -5.26979e-28)
(0.0438071 0.00509054 0)
(0.0419953 0.00945526 3.69342e-27)
(0.0400304 0.0143555 0)
(0.0377583 0.0202159 8.64147e-27)
(0.0352653 0.0267305 1.32163e-34)
(0.0326707 0.0339327 1.12681e-26)
(0.0299149 0.042234 4.2469e-27)
(0.027021 0.0519945 -1.80685e-26)
(0.0244858 0.0641006 1.63992e-26)
(0.0229711 0.0806432 -4.164e-27)
(0.0219455 0.0975834 -1.02511e-26)
(0.0197795 0.110698 2.30583e-27)
(0.01526 0.116211 0)
(0.00810474 0.112705 6.38545e-27)
(2.04754e-05 0.1034 1.6909e-26)
(-0.00678361 0.0926832 -1.73274e-26)
(-0.0112993 0.08248 6.56032e-28)
(-0.0132328 0.0730246 2.47571e-26)
(-0.0124495 0.0647729 -2.5518e-26)
(-0.00930317 0.0583265 -5.39754e-27)
(-0.00455955 0.054431 3.33613e-27)
(0.0009888 0.0531884 -1.63795e-27)
(0.00603371 0.0543733 -1.30095e-27)
(0.0101671 0.057589 0)
(0.0131709 0.0621553 1.72352e-27)
(0.0150955 0.0674731 -1.76224e-27)
(0.0156922 0.0732254 -1.33899e-27)
(0.0147301 0.0790127 2.87094e-26)
(0.0124425 0.0843402 -1.20749e-26)
(0.00817165 0.0887897 7.45708e-27)
(0.00297435 0.090962 1.53072e-27)
(-0.00033895 0.0895737 1.06855e-28)
(-0.00017138 0.0908957 -7.78666e-29)
(-0.00232479 0.0886107 7.99567e-28)
(-0.00160245 0.0904889 -1.30394e-27)
(-0.00285692 0.0900529 -8.39623e-28)
(-0.00179184 0.0869277 1.79974e-27)
(-0.00267924 0.0877237 2.03156e-27)
(-0.000462726 0.0855173 0)
(-0.00149452 0.0861637 0)
(0.0477037 0.0013007 -2.56822e-28)
(0.0458743 0.0047972 0)
(0.0443035 0.00906178 7.85893e-31)
(0.0425377 0.0138821 0)
(0.0404433 0.0198528 -6.41842e-27)
(0.0380578 0.0264605 0)
(0.0355235 0.0337888 -2.93884e-27)
(0.0327912 0.042239 2.9644e-27)
(0.029833 0.0523021 -8.31049e-27)
(0.0268368 0.0640395 -4.38903e-27)
(0.0247279 0.0802722 1.08599e-26)
(0.0232261 0.0981098 0)
(0.0209128 0.112976 3.03874e-27)
(0.0163951 0.121101 1.07665e-26)
(0.00908915 0.119939 9.9782e-27)
(0.000185058 0.111509 -7.05164e-27)
(-0.00797645 0.1004 -1.57642e-26)
(-0.0139832 0.0892506 0)
(-0.0173697 0.0785142 2.57737e-26)
(-0.0177885 0.0686402 -2.82152e-26)
(-0.0152436 0.0604854 -1.38903e-26)
(-0.0103963 0.0551344 5.56005e-27)
(-0.00494079 0.0530505 -2.80061e-27)
(0.000661722 0.0538274 -8.63802e-27)
(0.00628655 0.0568951 -5.15566e-27)
(0.0107149 0.0614813 -8.56592e-28)
(0.0136836 0.0671247 1.0233e-27)
(0.0153346 0.0731923 -6.74095e-27)
(0.0153826 0.0792912 1.09539e-31)
(0.0140143 0.0852176 1.43314e-26)
(0.0112267 0.0905251 1.71195e-26)
(0.00598695 0.0939483 1.26862e-27)
(0.000601267 0.092613 7.41671e-28)
(0.00104452 0.0943343 1.58453e-27)
(-0.00169656 0.0921339 5.80679e-28)
(-0.0036528 0.0889265 0)
(-0.0033702 0.0917643 8.90239e-28)
(-0.00454108 0.090539 -1.22721e-27)
(-0.0026069 0.0867589 0)
(-0.00381696 0.0876557 0)
(-0.000607173 0.0849785 1.11848e-26)
(-0.00202363 0.0856423 1.25576e-26)
(0.0493154 0.00117033 2.45568e-28)
(0.0477557 0.00447103 0)
(0.0464487 0.00854869 -4.04962e-27)
(0.0449358 0.0133073 -2.35459e-27)
(0.0430708 0.019383 5.22815e-27)
(0.0408659 0.0260567 -1.1295e-26)
(0.0384668 0.0334563 -5.8239e-27)
(0.0358206 0.042066 -1.48212e-27)
(0.0328933 0.0524395 5.10017e-27)
(0.0296211 0.0641195 1.6561e-26)
(0.0270202 0.0799142 0)
(0.024959 0.0984417 0)
(0.0224574 0.114889 0)
(0.0179548 0.125587 0)
(0.0105794 0.127123 1.31462e-26)
(0.000936964 0.120153 9.70413e-27)
(-0.00860668 0.109069 -7.67402e-27)
(-0.0162652 0.0972706 -1.97748e-26)
(-0.0214033 0.0855886 1.685e-27)
(-0.0236428 0.0745785 -2.45015e-27)
(-0.0228701 0.0654351 -4.58918e-26)
(-0.0196802 0.0595908 2.52061e-26)
(-0.0149066 0.05761 2.36303e-27)
(-0.0100353 0.0591149 -3.90804e-27)
(-0.00444961 0.061971 1.62018e-27)
(0.0012734 0.0659971 -9.82603e-27)
(0.00660624 0.0705469 9.78501e-28)
(0.0102848 0.0760715 -1.05666e-26)
(0.0122232 0.0821841 -3.11976e-27)
(0.0125676 0.0878936 1.51429e-27)
(0.0111048 0.0935727 6.55665e-27)
(0.0075228 0.0985226 7.86151e-27)
(0.00247287 0.0963901 2.3176e-27)
(0.0030828 0.0983434 -1.83307e-27)
(-0.00136249 0.0941388 -4.84477e-28)
(-0.000846905 0.0962446 -1.87678e-27)
(-0.00367458 0.0937163 0)
(-0.0051391 0.0890152 0)
(-0.00533333 0.092535 1.28636e-27)
(-0.00644608 0.090843 -2.8515e-27)
(-0.00350288 0.0863092 -3.30538e-27)
(-0.00508216 0.0873044 -4.58671e-27)
(-0.000765907 0.0841264 0)
(-0.0025813 0.0847863 0)
(0.0506582 0.00103091 2.29141e-28)
(0.0494099 0.00408541 7.87536e-28)
(0.0483878 0.00792705 -1.15252e-26)
(0.0471671 0.012696 -4.98494e-27)
(0.0455659 0.0187732 5.63686e-27)
(0.0436306 0.0254896 -6.14818e-27)
(0.0414362 0.0329236 6.32991e-27)
(0.0389462 0.0417182 -5.86375e-27)
(0.0360993 0.0523811 4.60179e-27)
(0.0327633 0.0642946 5.65351e-27)
(0.0297248 0.0796233 1.09524e-26)
(0.0271753 0.0985581 2.77833e-27)
(0.0244431 0.116418 0)
(0.0199827 0.129541 -1.71617e-26)
(0.012656 0.134041 7.5331e-27)
(0.00244819 0.129111 -2.79411e-26)
(-0.00844768 0.118552 8.39201e-27)
(-0.0178871 0.106439 -1.70034e-26)
(-0.0249833 0.0942359 -7.23922e-27)
(-0.0294608 0.082791 4.99377e-30)
(-0.0315276 0.0740851 -3.57005e-26)
(-0.0321212 0.0704181 -8.71481e-27)
(-0.031901 0.0720257 8.40884e-26)
(-0.0301102 0.0764432 -6.35055e-27)
(-0.027494 0.0810812 -1.69436e-26)
(-0.0225308 0.084464 5.76786e-27)
(-0.0157059 0.0868805 -3.93436e-27)
(-0.00783778 0.0889223 9.08939e-28)
(-0.0011565 0.0920722 -8.23831e-27)
(0.00264438 0.0969806 0)
(0.00378275 0.102326 0)
(0.00181539 0.107162 0)
(0.00370074 0.102007 -3.92017e-27)
(0.000155056 0.106958 -6.28578e-27)
(8.59419e-05 0.0985911 1.78468e-27)
(0.000215135 0.101806 -3.34917e-28)
(-0.00359565 0.0959353 5.7295e-27)
(-0.00323012 0.0983639 0)
(-0.00589516 0.0948383 -1.1653e-26)
(-0.00682166 0.0888229 8.93684e-28)
(-0.00759867 0.0930942 -1.32554e-27)
(-0.00857885 0.0908757 2.12792e-27)
(-0.00446605 0.0855248 -7.00274e-27)
(-0.00647179 0.0866274 1.71135e-27)
(-0.000937887 0.0829375 0)
(-0.00315474 0.0835751 -9.8471e-27)
(0.051696 0.000872819 -2.06627e-28)
(0.0508083 0.00362866 4.74947e-35)
(0.0501086 0.00724409 -8.81859e-27)
(0.0492035 0.0120418 -2.13363e-26)
(0.0478838 0.0179559 0)
(0.0463122 0.024741 -6.6676e-27)
(0.0443624 0.0322375 6.99796e-27)
(0.0420772 0.041235 -1.289e-26)
(0.0393723 0.0521458 0)
(0.0361274 0.0644611 0)
(0.0327618 0.0794224 6.41562e-27)
(0.0298473 0.0984981 2.80112e-27)
(0.0269119 0.117609 2.82414e-27)
(0.0225004 0.132896 -8.3781e-27)
(0.0153055 0.140449 -1.80114e-26)
(0.00482143 0.138107 1.23166e-26)
(-0.00729428 0.128655 -2.63738e-26)
(-0.0185701 0.116629 1.64442e-26)
(-0.0278022 0.104341 0)
(-0.0347963 0.0932112 -3.3583e-27)
(-0.0401387 0.0863004 6.70809e-27)
(-0.0452881 0.0867934 0)
(-0.0506825 0.0942432 3.16857e-26)
(-0.0553289 0.10353 -7.78601e-27)
(-0.0580879 0.111335 0)
(-0.0574882 0.115929 -7.83744e-27)
(-0.0527259 0.117663 -3.93828e-27)
(-0.0451788 0.1185 -5.6992e-28)
(-0.035605 0.119375 -3.62975e-27)
(-0.0262305 0.121119 -8.47248e-27)
(-0.0199512 0.125216 -3.75631e-27)
(-0.0192117 0.130478 6.91244e-26)
(-0.00698149 0.118159 -1.04132e-26)
(-0.0239543 0.135768 -8.89346e-28)
(-0.00204456 0.107444 -2.07961e-27)
(-0.010484 0.118657 -2.28739e-27)
(-0.00315589 0.10166 -1.46968e-27)
(-0.00537535 0.107276 -1.79477e-27)
(-0.00609842 0.0973834 -8.01742e-27)
(-0.00640435 0.100663 1.87788e-26)
(-0.00846416 0.0956556 1.79954e-27)
(-0.00868604 0.0883008 5.33268e-27)
(-0.0101222 0.0933434 -1.3189e-27)
(-0.0109181 0.0905397 1.13544e-27)
(-0.00547624 0.0843748 -8.3425e-27)
(-0.00796214 0.0855846 2.23127e-26)
(-0.00110785 0.0813926 0)
(-0.00372157 0.0819839 -8.21436e-27)
(0.0523655 0.000679526 -3.50319e-28)
(0.0519195 0.00308906 -7.31978e-28)
(0.0515929 0.00648599 -8.12306e-27)
(0.0510311 0.0112502 -2.65756e-27)
(0.0499874 0.0170037 -1.24673e-26)
(0.0488441 0.0237658 7.10114e-27)
(0.0472291 0.0314203 2.88996e-27)
(0.0451626 0.040604 -1.11115e-30)
(0.0426567 0.0517286 -5.74823e-27)
(0.0395727 0.0645114 -1.47273e-27)
(0.0360885 0.0793235 0)
(0.0329079 0.0982666 0)
(0.0297947 0.118447 0)
(0.0254623 0.135642 0)
(0.0184887 0.146189 0)
(0.00800668 0.146875 -1.32042e-26)
(-0.00502337 0.13913 0)
(-0.0180479 0.127639 -1.80457e-26)
(-0.0294859 0.115652 0)
(-0.0390792 0.105447 2.21603e-26)
(-0.047769 0.101412 -2.4567e-26)
(-0.0571199 0.10715 4.96085e-27)
(-0.0676392 0.120162 0)
(-0.0786628 0.134146 -7.8615e-27)
(-0.0873812 0.14415 -2.78122e-27)
(-0.092301 0.150362 -3.36878e-28)
(-0.093201 0.154252 -8.10473e-28)
(-0.0891561 0.155171 2.2981e-27)
(-0.0809749 0.155161 6.88895e-28)
(-0.0702107 0.157049 -1.52122e-26)
(-0.0599911 0.160642 0)
(-0.055448 0.167828 7.44463e-26)
(-0.0380256 0.153062 -6.56525e-34)
(-0.0570729 0.174243 5.48238e-27)
(-0.0254693 0.136533 -1.36557e-27)