/*--------------------------------*- C++ -*----------------------------------*\
  =========                 |
  \\      /  F ield         | OpenFOAM: The Open Source CFD Toolbox
   \\    /   O peration     | Website:  https://openfoam.org
    \\  /    A nd           | Version:  dev
     \\/     M anipulation  |
\*---------------------------------------------------------------------------*/
FoamFile
{
    version     2.0;
    format      ascii;
    class       volScalarField;
    location    "2500";
    object      a;
}
// * * * * * * * * * * * * * * * * * * * * * * * * * * * * * * * * * * * * * //

dimensions      [0 -1 0 0 0 0 0];

internalField   nonuniform List<scalar> 
9836
(
0.100011
0.100011
0.100011
0.100011
0.100011
0.100011
0.100011
0.100011
0.100011
0.100011
0.10001
0.100011
0.100011
0.100011
0.100011
0.10001
0.10001
0.100011
0.100011
0.100011
0.100011
0.10001
0.10001
0.10001
0.100011
0.100011
0.100011
0.100011
0.10001
0.10001
0.10001
0.10001
0.100011
0.100011
0.100011
0.100011
0.100009
0.10001
0.10001
0.10001
0.10001
0.100011
0.100011
0.100011
0.100011
0.100009
0.100009
0.10001
0.10001
0.10001
0.10001
0.100011
0.100011
0.100011
0.100011
0.100009
0.100009
0.100009
0.10001
0.10001
0.10001
0.10001
0.100011
0.100011
0.100011
0.100011
0.100009
0.100009
0.100009
0.100009
0.10001
0.10001
0.10001
0.10001
0.100011
0.100011
0.100011
0.100011
0.100009
0.100009
0.100009
0.100009
0.100009
0.10001
0.10001
0.10001
0.10001
0.100011
0.100011
0.100011
0.100011
0.100008
0.100009
0.100009
0.100009
0.100009
0.100009
0.10001
0.10001
0.10001
0.10001
0.100011
0.100011
0.100011
0.100011
0.100008
0.100008
0.100009
0.100009
0.100009
0.100009
0.100009
0.10001
0.10001
0.10001
0.10001
0.100011
0.100011
0.100011
0.100011
0.100008
0.100008
0.100008
0.100009
0.100009
0.100009
0.100009
0.100009
0.10001
0.10001
0.10001
0.10001
0.100011
0.100011
0.100011
0.100011
0.100008
0.100008
0.100008
0.100008
0.100009
0.100009
0.100009
0.100009
0.100009
0.10001
0.10001
0.10001
0.10001
0.100011
0.100011
0.100011
0.100011
0.100007
0.100008
0.100008
0.100008
0.100008
0.100009
0.100009
0.100009
0.100009
0.100009
0.10001
0.10001
0.10001
0.10001
0.100011
0.100011
0.100011
0.100011
0.100007
0.100007
0.100008
0.100008
0.100008
0.100008
0.100009
0.100009
0.100009
0.100009
0.100009
0.10001
0.10001
0.10001
0.10001
0.100011
0.100011
0.100011
0.100011
0.100007
0.100007
0.100007
0.100008
0.100008
0.100008
0.100008
0.100008
0.100009
0.100009
0.100009
0.100009
0.10001
0.10001
0.10001
0.10001
0.100011
0.100011
0.100011
0.100011
0.100007
0.100007
0.100007
0.100007
0.100008
0.100008
0.100008
0.100008
0.100008
0.100009
0.100009
0.100009
0.100009
0.10001
0.10001
0.10001
0.10001
0.100011
0.100011
0.100011
0.100011
0.100006
0.100007
0.100007
0.100007
0.100007
0.100008
0.100008
0.100008
0.100008
0.100008
0.100009
0.100009
0.100009
0.100009
0.10001
0.10001
0.10001
0.10001
0.100011
0.100011
0.100011
0.100011
0.100006
0.100006
0.100007
0.100007
0.100007
0.100007
0.100008
0.100008
0.100008
0.100008
0.100008
0.100009
0.100009
0.100009
0.100009
0.10001
0.10001
0.10001
0.10001
0.100011
0.100011
0.100011
0.100011
0.100006
0.100006
0.100006
0.100007
0.100007
0.100007
0.100007
0.100008
0.100008
0.100008
0.100008
0.100008
0.100009
0.100009
0.100009
0.100009
0.10001
0.10001
0.10001
0.10001
0.100011
0.100011
0.100011
0.100011
0.100006
0.100006
0.100006
0.100006
0.100007
0.100007
0.100007
0.100007
0.100008
0.100008
0.100008
0.100008
0.100008
0.100009
0.100009
0.100009
0.100009
0.10001
0.10001
0.10001
0.10001
0.100011
0.100011
0.100011
0.100011
0.100006
0.100006
0.100006
0.100006
0.100006
0.100007
0.100007
0.100007
0.100007
0.100008
0.100008
0.100008
0.100008
0.100008
0.100009
0.100009
0.100009
0.100009
0.10001
0.10001
0.10001
0.10001
0.100011
0.100011
0.100011
0.100011
0.100005
0.100006
0.100006
0.100006
0.100006
0.100006
0.100007
0.100007
0.100007
0.100007
0.100008
0.100008
0.100008
0.100008
0.100008
0.100009
0.100009
0.100009
0.100009
0.10001
0.10001
0.10001
0.10001
0.100011
0.100011
0.100011
0.100011
0.100005
0.100005
0.100006
0.100006
0.100006
0.100006
0.100006
0.100007
0.100007
0.100007
0.100007
0.100008
0.100008
0.100008
0.100008
0.100008
0.100009
0.100009
0.100009
0.100009
0.10001
0.10001
0.10001
0.10001
0.100011
0.100011
0.100011
0.100011
0.100005
0.100005
0.100005
0.100006
0.100006
0.100006
0.100006
0.100006
0.100007
0.100007
0.100007
0.100007
0.100008
0.100008
0.100008
0.100008
0.100008
0.100009
0.100009
0.100009
0.100009
0.10001
0.10001
0.10001
0.10001
0.100011
0.100011
0.100011
0.100011
0.100005
0.100005
0.100005
0.100005
0.100006
0.100006
0.100006
0.100006
0.100006
0.100007
0.100007
0.100007
0.100007
0.100008
0.100008
0.100008
0.100008
0.100008
0.100009
0.100009
0.100009
0.100009
0.10001
0.10001
0.10001
0.10001
0.100011
0.100011
0.100011
0.100011
0.100004
0.100005
0.100005
0.100005
0.100005
0.100006
0.100006
0.100006
0.100006
0.100006
0.100007
0.100007
0.100007
0.100007
0.100008
0.100008
0.100008
0.100008
0.100008
0.100009
0.100009
0.100009
0.100009
0.10001
0.10001
0.10001
0.10001
0.100011
0.100011
0.100011
0.100011
0.100004
0.100004
0.100005
0.100005
0.100005
0.100005
0.100006
0.100006
0.100006
0.100006
0.100006
0.100007
0.100007
0.100007
0.100007
0.100008
0.100008
0.100008
0.100008
0.100008
0.100009
0.100009
0.100009
0.100009
0.10001
0.10001
0.10001
0.10001
0.100011
0.100011
0.100011
0.100011
0.100004
0.100004
0.100004
0.100005
0.100005
0.100005
0.100005
0.100006
0.100006
0.100006
0.100006
0.100006
0.100007
0.100007
0.100007
0.100007
0.100008
0.100008
0.100008
0.100008
0.100008
0.100009
0.100009
0.100009
0.100009
0.10001
0.10001
0.10001
0.10001
0.100011
0.100011
0.100011
0.100011
0.100004
0.100004
0.100004
0.100004
0.100005
0.100005
0.100005
0.100005
0.100006
0.100006
0.100006
0.100006
0.100006
0.100007
0.100007
0.100007
0.100007
0.100008
0.100008
0.100008
0.100008
0.100008
0.100009
0.100009
0.100009
0.100009
0.10001
0.10001
0.10001
0.10001
0.100011
0.100011
0.100011
0.100011
0.100011
0.100004
0.100004
0.100004
0.100004
0.100004
0.100005
0.100005
0.100005
0.100005
0.100006
0.100006
0.100006
0.100006
0.100006
0.100007
0.100007
0.100007
0.100007
0.100008
0.100008
0.100008
0.100008
0.100008
0.100009
0.100009
0.100009
0.100009
0.10001
0.10001
0.10001
0.10001
0.100011
0.100011
0.100011
0.100011
0.100011
0.100011
0.100003
0.100004
0.100004
0.100004
0.100004
0.100004
0.100005
0.100005
0.100005
0.100005
0.100006
0.100006
0.100006
0.100006
0.100006
0.100007
0.100007
0.100007
0.100007
0.100008
0.100008
0.100008
0.100008
0.100008
0.100009
0.100009
0.100009
0.100009
0.10001
0.10001
0.10001
0.10001
0.100011
0.10001
0.100011
0.100011
0.100011
0.100011
0.100011
0.100011
0.100011
0.100003
0.100003
0.100004
0.100004
0.100004
0.100004
0.100004
0.100005
0.100005
0.100005
0.100005
0.100006
0.100006
0.100006
0.100006
0.100006
0.100007
0.100007
0.100007
0.100007
0.100008
0.100008
0.100008
0.100008
0.100008
0.100009
0.100009
0.100009
0.100009
0.10001
0.10001
0.10001
0.10001
0.10001
0.10001
0.100011
0.100011
0.100011
0.100011
0.100011
0.100011
0.100011
0.100003
0.100003
0.100003
0.100004
0.100004
0.100004
0.100004
0.100004
0.100005
0.100005
0.100005
0.100005
0.100006
0.100006
0.100006
0.100006
0.100006
0.100007
0.100007
0.100007
0.100007
0.100008
0.100008
0.100008
0.100008
0.100008
0.100009
0.100009
0.100009
0.100009
0.10001
0.10001
0.10001
0.10001
0.10001
0.10001
0.10001
0.100011
0.100011
0.100011
0.100011
0.100011
0.100011
0.100011
0.100003
0.100003
0.100003
0.100003
0.100004
0.100004
0.100004
0.100004
0.100004
0.100005
0.100005
0.100005
0.100005
0.100006
0.100006
0.100006
0.100006
0.100006
0.100007
0.100007
0.100007
0.100007
0.100008
0.100008
0.100008
0.100008
0.100008
0.100009
0.100009
0.100009
0.100009
0.10001
0.10001
0.10001
0.10001
0.10001
0.10001
0.10001
0.10001
0.100011
0.100011
0.100011
0.100011
0.100011
0.100011
0.100011
0.100002
0.100003
0.100003
0.100003
0.100003
0.100004
0.100004
0.100004
0.100004
0.100004
0.100005
0.100005
0.100005
0.100005
0.100006
0.100006
0.100006
0.100006
0.100006
0.100007
0.100007
0.100007
0.100007
0.100008
0.100008
0.100008
0.100008
0.100008
0.100009
0.100009
0.100009
0.100009
0.10001
0.10001
0.10001
0.10001
0.10001
0.10001
0.10001
0.10001
0.10001
0.100011
0.100011
0.100011
0.100011
0.100011
0.100011
0.100011
0.100002
0.100002
0.100003
0.100003
0.100003
0.100003
0.100004
0.100004
0.100004
0.100004
0.100004
0.100005
0.100005
0.100005
0.100005
0.100006
0.100006
0.100006
0.100006
0.100006
0.100007
0.100007
0.100007
0.100007
0.100008
0.100008
0.100008
0.100008
0.100008
0.100009
0.100009
0.100009
0.100009
0.100009
0.10001
0.10001
0.10001
0.10001
0.10001
0.10001
0.10001
0.10001
0.100011
0.100011
0.100011
0.100011
0.100011
0.100011
0.100011
0.100011
0.100002
0.100002
0.100002
0.100003
0.100003
0.100003
0.100003
0.100004
0.100004
0.100004
0.100004
0.100004
0.100005
0.100005
0.100005
0.100005
0.100006
0.100006
0.100006
0.100006
0.100006
0.100007
0.100007
0.100007
0.100007
0.100008
0.100008
0.100008
0.100008
0.100008
0.100009
0.100009
0.100009
0.100009
0.10001
0.10001
0.10001
0.100011
0.10001
0.100012
0.100011
0.100012
0.100011
0.100011
0.100011
0.100011
0.100011
0.100011
0.100011
0.100011
0.100011
0.100011
0.100002
0.100002
0.100002
0.100002
0.100003
0.100003
0.100003
0.100003
0.100004
0.100004
0.100004
0.100004
0.100004
0.100005
0.100005
0.100005
0.100005
0.100006
0.100006
0.100006
0.100006
0.100006
0.100007
0.100007
0.100007
0.100007
0.100008
0.100008
0.100008
0.100008
0.100008
0.100009
0.100009
0.10001
0.100011
0.100013
0.100013
0.100019
0.100015
0.100025
0.100015
0.100028
0.100014
0.100024
0.100012
0.100017
0.100012
0.100011
0.100013
0.100013
0.100011
0.100011
0.100011
0.100011
0.100001
0.100002
0.100002
0.100002
0.100002
0.100003
0.100003
0.100003
0.100003
0.100004
0.100004
0.100004
0.100004
0.100004
0.100005
0.100005
0.100005
0.100005
0.100006
0.100006
0.100006
0.100006
0.100006
0.100007
0.100007
0.100007
0.100007
0.100008
0.100008
0.100008
0.100008
0.100009
0.10001
0.10001
0.100015
0.100018
0.100029
0.100052
0.10005
0.100107
0.100065
0.10016
0.100061
0.100174
0.10004
0.100128
0.100021
0.100065
0.100026
0.100013
0.100029
0.100028
0.100011
0.100012
0.100011
0.100011
0.100001
0.100001
0.100002
0.100002
0.100002
0.100002
0.100003
0.100003
0.100003
0.100003
0.100004
0.100004
0.100004
0.100004
0.100004
0.100005
0.100005
0.100005
0.100005
0.100006
0.100006
0.100006
0.100006
0.100006
0.100007
0.100007
0.100007
0.100007
0.100008
0.100008
0.100008
0.100008
0.10001
0.100009
0.100022
0.100025
0.100077
0.100118
0.100217
0.100422
0.100388
0.100875
0.100483
0.101226
0.100423
0.101248
0.100248
0.100878
0.100097
0.100413
0.100126
0.100025
0.100142
0.100134
0.100012
0.10002
0.100011
0.100012
0.100001
0.100001
0.100001
0.100002
0.100002
0.100002
0.100002
0.100003
0.100003
0.100003
0.100003
0.100004
0.100004
0.100004
0.100004
0.100004
0.100005
0.100005
0.100005
0.100005
0.100006
0.100006
0.100006
0.100006
0.100006
0.100007
0.100007
0.100007
0.100007
0.100008
0.100008
0.100008
0.100014
0.100024
0.100024
0.100148
0.100188
0.100662
0.100981
0.101731
0.103018
0.102843
0.10582
0.103302
0.107719
0.10277
0.107497
0.10159
0.105197
0.100604
0.102477
0.100758
0.100104
0.100816
0.100733
0.100016
0.100067
0.100011
0.100013
0.100001
0.100001
0.100001
0.100001
0.100002
0.100002
0.100002
0.100002
0.100003
0.100003
0.100003
0.100003
0.100004
0.100004
0.100004
0.100004
0.100004
0.100005
0.100005
0.100005
0.100005
0.100006
0.100006
0.100006
0.100006
0.100006
0.100007
0.100007
0.100007
0.100007
0.100008
0.100008
0.10001
0.100174
0.10014
0.1002
0.100195
0.101263
0.101574
0.10456
0.106335
0.11023
0.115851
0.115729
0.127284
0.117704
0.13519
0.114699
0.134491
0.108559
0.124641
0.103408
0.112475
0.104073
0.100538
0.104184
0.103618
0.100038
0.100317
0.100012
0.100021
0.100001
0.100001
0.100001
0.100001
0.100001
0.100002
0.100002
0.100002
0.100002
0.100003
0.100003
0.100003
0.100003
0.100004
0.100004
0.100004
0.100004
0.100004
0.100005
0.100005
0.100005
0.100005
0.100006
0.100006
0.100006
0.100006
0.100006
0.100007
0.100007
0.100007
0.100007
0.100008
0.100009
0.100101
0.100066
0.101624
0.101417
0.10175
0.101739
0.108011
0.10958
0.12219
0.1287
0.141587
0.156984
0.158021
0.183966
0.165124
0.200837
0.157982
0.201803
0.136534
0.184045
0.116159
0.148584
0.118398
0.102579
0.118143
0.115327
0.100146
0.10148
0.100013
0.100051
0.1
0.100001
0.100001
0.100001
0.100001
0.100001
0.100002
0.100002
0.100002
0.100002
0.100003
0.100003
0.100003
0.100003
0.100004
0.100004
0.100004
0.100004
0.100004
0.100005
0.100005
0.100005
0.100005
0.100006
0.100006
0.100006
0.100006
0.100007
0.100007
0.100007
0.100007
0.100008
0.100009
0.100052
0.100009
0.101115
0.1008
0.110667
0.11
0.110777
0.110945
0.134742
0.139899
0.17216
0.185946
0.210315
0.234574
0.237488
0.272806
0.249009
0.294397
0.240639
0.296086
0.210062
0.276315
0.158209
0.232348
0.162594
0.110791
0.160147
0.151617
0.100621
0.106003
0.100015
0.10016
0.1
0.1
0.100001
0.100001
0.100001
0.100001
0.100001
0.100002
0.100002
0.100002
0.100002
0.100003
0.100003
0.100003
0.100003
0.100004
0.100004
0.100004
0.100004
0.100004
0.100005
0.100005
0.100005
0.100005
0.100006
0.100006
0.100006
0.100007
0.100007
0.100008
0.100008
0.100008
0.10001
0.100144
0.100579
0.100412
0.108662
0.107072
0.144929
0.143583
0.143904
0.145333
0.197768
0.2069
0.255916
0.273597
0.304109
0.330191
0.334535
0.37092
0.346888
0.391635
0.338462
0.392637
0.306723
0.373289
0.248063
0.330654
0.254251
0.137321
0.249318
0.230693
0.102484
0.121391
0.100021
0.100542
0.1
0.1
0.100001
0.100001
0.100001
0.100001
0.100001
0.100002
0.100002
0.100002
0.100002
0.100003
0.100003
0.100003
0.100003
0.100004
0.100004
0.100004
0.100004
0.100004
0.100005
0.100005
0.100005
0.100005
0.100006
0.100008
0.100012
0.100017
0.100017
0.100016
0.100014
0.100014
0.100063
0.103187
0.102442
0.105503
0.104119
0.140575
0.136424
0.214802
0.212483
0.21339
0.215518
0.287592
0.297288
0.351822
0.368035
0.398213
0.416166
0.42484
0.441714
0.435248
0.45658
0.428049
0.462812
0.399543
0.453108
0.345684
0.417947
0.350992
0.198005
0.345392
0.327257
0.108936
0.160811
0.100051
0.102259
0.1
0.1
0.100001
0.100001
0.100001
0.100001
0.100001
0.100002
0.100002
0.100002
0.100002
0.100003
0.100003
0.100003
0.100003
0.100004
0.100004
0.100004
0.100004
0.100004
0.100005
0.100005
0.100006
0.100009
0.100021
0.100054
0.100076
0.100078
0.100066
0.10005
0.100038
0.100082
0.101748
0.101013
0.12132
0.116931
0.131475
0.126541
0.207575
0.200736
0.302439
0.298713
0.303333
0.303903
0.379166
0.38569
0.425533
0.430582
0.449202
0.450829
0.464637
0.463583
0.476204
0.476046
0.48176
0.488809
0.469667
0.494757
0.428441
0.480077
0.43153
0.293345
0.425478
0.413231
0.361204
0.131041
0.244351
0.100371
0.111602
0.1
0.1
0.100001
0.100001
0.100001
0.100001
0.100001
0.100002
0.100002
0.100002
0.100002
0.100003
0.100003
0.100003
0.100003
0.100004
0.100004
0.100004
0.100004
0.100004
0.100005
0.100007
0.100021
0.100088
0.100273
0.100511
0.100577
0.100417
0.100244
0.100137
0.10015
0.102475
0.112235
0.110006
0.172637
0.162036
0.19256
0.183301
0.291678
0.282912
0.38471
0.379703
0.387979
0.387198
0.432666
0.432925
0.449722
0.448302
0.460983
0.4563
0.472175
0.463663
0.485165
0.475325
0.498593
0.491504
0.504649
0.506758
0.486529
0.510453
0.500368
0.459725
0.486306
0.399144
0.327652
0.389531
0.451069
0.483646
0.482886
0.445318
0.189783
0.370137
0.355779
0.283556
0.109479
0.164791
0.1
0.1
0.100001
0.100001
0.100001
0.100001
0.100001
0.100002
0.100002
0.100002
0.100002
0.100003
0.100003
0.100003
0.100003
0.100004
0.100004
0.100004
0.100004
0.100005
0.100015
0.100071
0.100357
0.101338
0.103057
0.103772
0.10275
0.101479
0.100745
0.100394
0.10211
0.133385
0.120612
0.150549
0.140792
0.246794
0.23305
0.272332
0.260449
0.372389
0.363458
0.429364
0.426713
0.432392
0.431278
0.446566
0.445325
0.451429
0.448561
0.452092
0.445057
0.45772
0.441638
0.473178
0.447814
0.501349
0.492886
0.481937
0.466473
0.513759
0.511929
0.494978
0.495793
0.506924
0.511851
0.503371
0.515514
0.516797
0.504266
0.437283
0.426017
0.47947
0.503908
0.504802
0.474794
0.336684
0.246648
0.327071
0.414132
0.401991
0.267254
0.324149
0.342797
0.280181
0.1
0.1
0.100001
0.100001
0.100001
0.100001
0.100001
0.100002
0.100002
0.100002
0.100002
0.100003
0.100003
0.100003
0.100003
0.100004
0.100004
0.100004
0.100005
0.100027
0.100187
0.101205
0.104911
0.112632
0.117639
0.114816
0.108557
0.103907
0.101403
0.102155
0.135077
0.186216
0.178881
0.217374
0.204335
0.326346
0.311149
0.352687
0.340575
0.423076
0.418265
0.44297
0.44209
0.444454
0.443731
0.447402
0.447413
0.444279
0.446629
0.438118
0.442996
0.431257
0.433399
0.452276
0.437101
0.428059
0.424545
0.481742
0.465589
0.447913
0.515621
0.509828
0.481484
0.482054
0.498479
0.519587
0.517035
0.522181
0.518439
0.518456
0.468163
0.460405
0.501776
0.519183
0.5191
0.49851
0.394256
0.397093
0.452375
0.446633
0.46601
0.143502
0.391704
0.420042
0.464603
0.1
0.1
0.100001
0.100001
0.100001
0.100001
0.100001
0.100002
0.100002
0.100002
0.100002
0.100003
0.100003
0.100003
0.100003
0.100004
0.100004
0.100005
0.100036
0.100302
0.102439
0.111477
0.131329
0.149662
0.151125
0.134143
0.115639
0.105439
0.10341
0.124392
0.226716
0.199412
0.259851
0.244668
0.294072
0.278121
0.393249
0.381342
0.411719
0.403553
0.440948
0.439441
0.447722
0.447243
0.447757
0.447921
0.45068
0.456111
0.45496
0.472459
0.450766
0.482151
0.427557
0.437387
0.452861
0.474727
0.43268
0.422945
0.421646
0.427516
0.463766
0.444883
0.428667
0.51233
0.50027
0.462546
0.461984
0.482904
0.521132
0.524241
0.523614
0.514691
0.526029
0.494308
0.48968
0.518276
0.527382
0.528339
0.516802
0.447598
0.462661
0.485992
0.485755
0.483379
0.16746
0.383834
0.492385
0.51344
0.1
0.1
0.100001
0.100001
0.100001
0.100001
0.100001
0.100002
0.100002
0.100002
0.100002
0.100003
0.100003
0.100003
0.100003
0.100004
0.100005
0.100037
0.10036
0.103377
0.117614
0.149868
0.182815
0.194342
0.179733
0.147268
0.11771
0.107823
0.122604
0.223597
0.297716
0.294402
0.335157
0.321464
0.367046
0.352733
0.430134
0.42443
0.437473
0.43452
0.446334
0.445145
0.460125
0.457933
0.460023
0.461026
0.489437
0.502852
0.52106
0.555331
0.497881
0.526005
0.551016
0.578408
0.442201
0.463924
0.49118
0.522085
0.42034
0.420715
0.430183
0.449513
0.442425
0.425836
0.418719
0.501997
0.48375
0.440752
0.439752
0.461733
0.517074
0.525889
0.519454
0.503892
0.528008
0.515017
0.513513
0.528948
0.529921
0.531736
0.52935
0.492919
0.509522
0.513636
0.517393
0.49019
0.232317
0.43588
0.52806
0.530233
0.1
0.1
0.100001
0.100001
0.100001
0.100001
0.100001
0.100002
0.100002
0.100002
0.100002
0.100003
0.100003
0.100003
0.100003
0.100004
0.100031
0.10035
0.10372
0.121348
0.164008
0.210579
0.234052
0.2279
0.194535
0.146907
0.1193
0.125176
0.204374
0.346517
0.31881
0.371369
0.357733
0.396987
0.386275
0.416745
0.40815
0.441358
0.439662
0.443941
0.442741
0.45405
0.449747
0.502576
0.493061
0.508848
0.50715
0.583003
0.598308
0.638131
0.664274
0.554074
0.585228
0.613691
0.637418
0.476806
0.510009
0.546257
0.582407
0.42066
0.43385
0.457476
0.489933
0.423972
0.418031
0.42155
0.484868
0.461951
0.422997
0.42273
0.439175
0.506116
0.521832
0.508525
0.486428
0.524289
0.529876
0.53125
0.533582
0.52679
0.529486
0.535713
0.526353
0.53857
0.534416
0.540295
0.511495
0.289818
0.442864
0.547082
0.543835
0.1
0.1
0.100001
0.100001
0.100001
0.100001
0.100001
0.100002
0.100002
0.100002
0.100002
0.100003
0.100003
0.100003
0.100004
0.100019
0.100272
0.10347
0.122188
0.171607
0.23087
0.265926
0.271273
0.248001
0.197772
0.144047
0.135602
0.203711
0.34739
0.399326
0.401533
0.418078
0.411439
0.430053
0.425387
0.437248
0.434319
0.439603
0.437857
0.445692
0.442252
0.48037
0.467257
0.578493
0.558859
0.598497
0.591517
0.665315
0.652698
0.691766
0.69623
0.686862
0.693311
0.615838
0.644918
0.668817
0.685944
0.528188
0.568481
0.607188
0.64144
0.437893
0.465423
0.50216
0.54437
0.418034
0.422851
0.44205
0.462705
0.43928
0.418445
0.419675
0.423204
0.488553
0.511139
0.491036
0.464144
0.51405
0.538456
0.542249
0.532532
0.517351
0.52121
0.536263
0.548504
0.556602
0.547569
0.554489
0.515622
0.139088
0.320374
0.560069
0.549414
0.1
0.1
0.100001
0.100001
0.100001
0.100001
0.100001
0.100002
0.100002
0.100002
0.100002
0.100003
0.100003
0.100003
0.100011
0.100161
0.102704
0.121008
0.172695
0.24111
0.283407
0.298198
0.293564
0.261373
0.201267
0.162979
0.212572
0.343713
0.426505
0.41716
0.430942
0.429776
0.435072
0.433969
0.436102
0.435759
0.436801
0.436435
0.434726
0.427994
0.45485
0.443952
0.533909
0.506811
0.615567
0.603105
0.640706
0.627365
0.680451
0.670166
0.647087
0.705833
0.7013
0.684128
0.694308
0.669455
0.690838
0.702833
0.707061
0.587519
0.627565
0.66158
0.688142
0.472719
0.512995
0.55812
0.603204
0.425421
0.445755
0.479249
0.440011
0.42421
0.427363
0.429009
0.421103
0.466256
0.493964
0.468875
0.44151
0.497488
0.541069
0.547184
0.525769
0.501726
0.50688
0.531289
0.561974
0.567911
0.554572
0.562665
0.480361
0.122658
0.281375
0.567368
0.543711
0.1
0.1
0.100001
0.100001
0.100001
0.100001
0.100001
0.100002
0.100002
0.100002
0.100002
0.100003
0.100003
0.100006
0.100096
0.101575
0.116498
0.169693
0.242657
0.287075
0.306471
0.314708
0.309805
0.279822
0.232905
0.241556
0.348179
0.432472
0.440986
0.445263
0.435905
0.438943
0.42941
0.432952
0.42328
0.425942
0.423862
0.422618
0.433466
0.415152
0.480275
0.455549
0.585915
0.558381
0.607005
0.604063
0.625936
0.612634
0.669844
0.652954
0.601431
0.578822
0.707268
0.69827
0.66526
0.683844
0.705869
0.713679
0.715251
0.712741
0.643792
0.676986
0.701585
0.715775
0.522252
0.569652
0.615942
0.656641
0.448914
0.484538
0.530121
0.425659
0.422693
0.451184
0.452917
0.430524
0.443595
0.472173
0.446261
0.427469
0.476393
0.53808
0.546522
0.513147
0.481641
0.488129
0.520954
0.570185
0.574799
0.556521
0.566678
0.449993
0.131285
0.288893
0.570085
0.536288
0.1
0.1
0.100001
0.100001
0.100001
0.100001
0.100001
0.100002
0.100002
0.100002
0.100002
0.100003
0.100004
0.100049
0.100789
0.11089
0.159376
0.238432
0.282856
0.30296
0.314648
0.324301
0.329061
0.318006
0.314242
0.368187
0.437193
0.448572
0.451264
0.439049
0.445442
0.425479
0.433063
0.408075
0.417049
0.396827
0.400174
0.402547
0.396883
0.437754
0.400527
0.520514
0.478926
0.597495
0.582727
0.544053
0.562172
0.566097
0.555796
0.533903
0.64381
0.621215
0.556841
0.535303
0.700845
0.684977
0.640278
0.66472
0.721186
0.721515
0.718246
0.711948
0.688809
0.71158
0.722935
0.726818
0.579291
0.626472
0.666932
0.698195
0.488909
0.536553
0.587529
0.424341
0.431866
0.492275
0.494809
0.454212
0.429414
0.449791
0.431601
0.425869
0.454354
0.530555
0.54215
0.496413
0.460232
0.467733
0.506999
0.575402
0.579138
0.554949
0.568062
0.442325
0.138669
0.307212
0.571563
0.532586
0.1
0.1
0.100001
0.100001
0.100001
0.100001
0.100001
0.100002
0.100002
0.100002
0.100002
0.100003
0.10002
0.100413
0.106323
0.144661
0.225762
0.272434
0.290298
0.303704
0.317919
0.335937
0.35596
0.376483
0.408652
0.445008
0.454659
0.443944
0.447794
0.427914
0.437104
0.404154
0.417008
0.376262
0.390278
0.359815
0.364205
0.373556
0.360749
0.441382
0.380713
0.552783
0.503145
0.577277
0.57745
0.490198
0.503941
0.514528
0.519564
0.510839
0.48128
0.475592
0.612785
0.584139
0.517582
0.494635
0.689693
0.669668
0.614944
0.644758
0.726579
0.723295
0.716773
0.705457
0.718949
0.728356
0.731331
0.73107
0.63537
0.675566
0.705674
0.724786
0.541928
0.594442
0.643244
0.432855
0.45486
0.546234
0.54971
0.496234
0.427253
0.433998
0.428257
0.433362
0.437039
0.519841
0.534875
0.478041
0.4415
0.449038
0.491898
0.578898
0.582522
0.551613
0.568276
0.446448
0.208817
0.345733
0.573454
0.532037
0.1
0.1
0.100001
0.100001
0.100001
0.100001
0.100001
0.100002
0.100002
0.100002
0.100002
0.100008
0.100178
0.103194
0.130238
0.205843
0.261391
0.275415
0.270488
0.280126
0.31485
0.351257
0.385641
0.417845
0.445183
0.453013
0.436279
0.438653
0.428646
0.434198
0.408115
0.419702
0.377625
0.394083
0.339965
0.359259
0.314132
0.322028
0.335424
0.314972
0.433687
0.350484
0.560481
0.511343
0.541922
0.555569
0.472634
0.485839
0.491159
0.507106
0.481041
0.475448
0.461401
0.452888
0.581572
0.547515
0.481812
0.460375
0.678864
0.655467
0.591647
0.62641
0.727756
0.721094
0.710957
0.697061
0.732728
0.734996
0.735083
0.732164
0.68317
0.712438
0.729563
0.736701
0.600517
0.650206
0.690248
0.454347
0.496248
0.605874
0.610593
0.551571
0.4334
0.429413
0.432276
0.452858
0.43001
0.50829
0.527178
0.461755
0.431975
0.437608
0.478544
0.58179
0.586002
0.547912
0.56859
0.45357
0.193439
0.330421
0.576176
0.5345
0.1
0.1
0.100001
0.100001
0.100001
0.100001
0.100001
0.100002
0.100002
0.100002
0.100004
0.100078
0.10142
0.118288
0.183116
0.249504
0.265133
0.245329
0.218981
0.236104
0.298263
0.361656
0.404246
0.434147
0.440291
0.410551
0.407001
0.403018
0.401424
0.406433
0.380171
0.392536
0.345851
0.364557
0.300835
0.324433
0.262446
0.276906
0.287582
0.26153
0.409353
0.309795
0.544288
0.496923
0.518226
0.526988
0.52747
0.462778
0.476682
0.484404
0.497321
0.450931
0.44917
0.449563
0.438194
0.55282
0.513634
0.452859
0.43479
0.666219
0.638984
0.566937
0.605724
0.726179
0.717084
0.704497
0.687803
0.738934
0.739411
0.736473
0.730982
0.718543
0.7339
0.740252
0.742771
0.656992
0.696988
0.724476
0.494319
0.551946
0.663757
0.67124
0.61445
0.449826
0.430498
0.444076
0.490687
0.428931
0.498458
0.520964
0.45049
0.429792
0.434708
0.469867
0.5851
0.590136
0.545673
0.570283
0.448561
0.11695
0.252477
0.579686
0.534759
0.1
0.1
0.100001
0.100001
0.100001
0.100001
0.100001
0.100002
0.100002
0.100003
0.100033
0.100647
0.11
0.160674
0.234649
0.257813
0.235184
0.184844
0.167158
0.199706
0.269117
0.341052
0.38731
0.397779
0.369903
0.285747
0.36122
0.357705
0.35936
0.362345
0.339695
0.351677
0.304124
0.323756
0.255001
0.28106
0.208336
0.227975
0.233852
0.204724
0.375652
0.272944
0.515396
0.465052
0.508443
0.517826
0.501552
0.504809
0.456331
0.470728
0.476641
0.48823
0.429856
0.431001
0.441761
0.428204
0.525271
0.485151
0.427582
0.415728
0.652308
0.621218
0.540315
0.583559
0.722662
0.711428
0.696442
0.67709
0.743332
0.740722
0.735572
0.728143
0.738427
0.744408
0.747013
0.747598
0.704787
0.731362
0.743527
0.549839
0.616409
0.714456
0.721523
0.678086
0.480478
0.436974
0.464084
0.537503
0.431645
0.49214
0.518132
0.446813
0.431657
0.437917
0.466726
0.589552
0.594885
0.546438
0.575137
0.424647
0.103899
0.174775
0.583742
0.53279
0.100001
0.100001
0.100001
0.100001
0.100001
0.100001
0.100001
0.100002
0.100003
0.100017
0.100356
0.105174
0.141389
0.21539
0.2508
0.234744
0.17838
0.138977
0.139592
0.173334
0.22629
0.273137
0.294348
0.277471
0.213364
0.168428
0.274589
0.161734
0.291472
0.297031
0.297207
0.281046
0.291606
0.246509
0.265872
0.197378
0.223404
0.158169
0.172323
0.195961
0.163741
0.354914
0.261634
0.480232
0.432866
0.497747
0.503323
0.48811
0.489987
0.448667
0.463366
0.46501
0.476075
0.413434
0.417779
0.433047
0.418079
0.495478
0.455383
0.403074
0.396932
0.637733
0.60286
0.51317
0.560813
0.718028
0.704787
0.687561
0.665618
0.744859
0.74014
0.733271
0.724298
0.748245
0.751742
0.751784
0.749306
0.737876
0.74929
0.75343
0.606993
0.676485
0.744663
0.750956
0.724326
0.514391
0.448781
0.490562
0.58612
0.440182
0.4918
0.52047
0.4517
0.439403
0.448717
0.473129
0.594926
0.600963
0.552244
0.580882
0.381819
0.100525
0.123043
0.588481
0.525213
0.100002
0.100001
0.100001
0.100001
0.100001
0.100001
0.100002
0.100003
0.100014
0.10019
0.102881
0.127353
0.193917
0.242361
0.236406
0.181019
0.135655
0.118099
0.12387
0.147054
0.173269
0.189484
0.182946
0.150726
0.11832
0.186362
0.117586
0.113492
0.202505
0.213152
0.210927
0.2016
0.209871
0.17204
0.188632
0.137875
0.153423
0.134035
0.130377
0.18691
0.149539
0.355659
0.284348
0.461619
0.446572
0.412342
0.484571
0.488833
0.469588
0.471518
0.436742
0.451703
0.447994
0.458908
0.397383
0.40503
0.420623
0.404534
0.465391
0.425228
0.379263
0.376207
0.623137
0.584616
0.485849
0.538095
0.71256
0.697547
0.678282
0.653873
0.744746
0.738651
0.730455
0.719978
0.756206
0.756209
0.753704
0.749701
0.754404
0.75771
0.760913
0.671308
0.730936
0.758473
0.760254
0.754064
0.561426
0.4727
0.539601
0.661948
0.461826
0.501629
0.535311
0.466779
0.465055
0.478486
0.496116
0.602668
0.608067
0.564296
0.591457
0.290131
0.100254
0.112262
0.592533
0.506689
0.100004
0.100002
0.100001
0.100001
0.100001
0.100001
0.100003
0.100015
0.100159
0.102097
0.119043
0.174719
0.231208
0.238727
0.191931
0.140476
0.1165
0.108223
0.112846
0.121783
0.128963
0.127399
0.115987
0.10562
0.100668
0.124543
0.102325
0.101728
0.131437
0.136096
0.135154
0.130798
0.134439
0.119664
0.125356
0.114563
0.115091
0.130577
0.118927
0.210755
0.158071
0.363269
0.318441
0.444772
0.434143
0.392063
0.408145
0.466832
0.470464
0.449627
0.449646
0.419276
0.434587
0.424209
0.435518
0.378782
0.389728
0.402556
0.385633
0.434959
0.395209
0.354127
0.35256
0.609779
0.568104
0.45988
0.516861
0.706789
0.690374
0.669463
0.642885
0.74418
0.736876
0.727622
0.715979
0.761323
0.759141
0.754793
0.749786
0.762292
0.766817
0.767884
0.731893
0.753318
0.772465
0.784492
0.765275
0.646732
0.519839
0.626639
0.720828
0.518278
0.534327
0.560039
0.506359
0.52431
0.544946
0.546633
0.612242
0.615302
0.583825
0.607892
0.250874
0.107225
0.122974
0.594284
0.498782
0.100006
0.100001
0.100001
0.100001
0.100001
0.100003
0.100019
0.100179
0.101946
0.115365
0.160404
0.217989
0.238658
0.206417
0.156092
0.122582
0.106624
0.10338
0.104942
0.106994
0.106739
0.10367
0.101174
0.100171
0.100018
0.100082
0.103444
0.100191
0.104546
0.105718
0.105356
0.105131
0.105576
0.104933
0.104619
0.111542
0.106631
0.1542
0.124614
0.268749
0.208203
0.381658
0.3568
0.345077
0.321712
0.423516
0.418377
0.390274
0.443799
0.447965
0.423843
0.422453
0.394566
0.410383
0.392019
0.404105
0.35763
0.369578
0.377347
0.359791
0.404581
0.365437
0.326314
0.325468
0.599379
0.556068
0.43913
0.502357
0.701475
0.683976
0.662269
0.634085
0.743377
0.735405
0.725693
0.713384
0.76642
0.760993
0.755762
0.749606
0.777886
0.780452
0.781609
0.748406
0.761004
0.792088
0.7897
0.771158
0.702139
0.612031
0.682855
0.730402
0.595958
0.56391
0.58516
0.563479
0.597839
0.601959
0.573713
0.622842
0.621418
0.606094
0.622781
0.280037
0.108282
0.167544
0.596025
0.508473
0.100009
0.100001
0.100001
0.100001
0.100003
0.100024
0.100235
0.102125
0.114653
0.151522
0.205475
0.2362
0.217392
0.173491
0.136354