/*--------------------------------*- C++ -*----------------------------------*\
  =========                 |
  \\      /  F ield         | OpenFOAM: The Open Source CFD Toolbox
   \\    /   O peration     | Website:  https://openfoam.org
    \\  /    A nd           | Version:  dev
     \\/     M anipulation  |
\*---------------------------------------------------------------------------*/
FoamFile
{
    version     2.0;
    format      ascii;
    class       volScalarField;
    location    "2500";
    object      alphat;
}
// * * * * * * * * * * * * * * * * * * * * * * * * * * * * * * * * * * * * * //

dimensions      [1 -1 -1 0 0 0 0];

internalField   nonuniform List<scalar> 
9836
(
0.000150639
0.000154566
0.000146584
0.000141324
0.000185356
0.000130592
0.000131087
0.000195922
0.000175028
0.000124276
0.000126182
0.000189287
0.00020099
0.00014966
0.000122071
0.000122596
0.000170931
0.000216267
0.000185509
0.000135718
0.000120847
0.000120692
0.000152431
0.000215927
0.000211209
0.000158101
0.000129833
0.000120001
0.000120131
0.000141006
0.00020725
0.000225883
0.000188866
0.000142182
0.000126405
0.00011946
0.000119881
0.000132248
0.000186381
0.000233652
0.000215694
0.000161891
0.000134513
0.000124037
0.000119049
0.000119493
0.000127179
0.000162022
0.000230625
0.000231773
0.000187735
0.000145843
0.000130052
0.000122408
0.000118704
0.00011885
0.000124102
0.000148668
0.00021907
0.000242593
0.000215398
0.000162644
0.000137483
0.000126784
0.000121521
0.000118404
0.000118171
0.000122513
0.000138204
0.00019496
0.000246344
0.000235409
0.000184418
0.000147807
0.000132373
0.00012459
0.000120803
0.000118182
0.000117596
0.000121751
0.000131856
0.000168955
0.000241672
0.000246219
0.000210846
0.000161221
0.000139652
0.000128578
0.000123315
0.000120162
0.000117988
0.000117156
0.000121239
0.000127978
0.000154939
0.000228159
0.000255249
0.000233915
0.000180951
0.000147827
0.000134287
0.000126113
0.000122241
0.000119657
0.000117843
0.000116913
0.000120844
0.000125574
0.000143754
0.000202802
0.000256602
0.000250016
0.000203511
0.000159916
0.000140261
0.000130264
0.000124526
0.00012134
0.000119229
0.00011773
0.000116909
0.00012028
0.000123945
0.000136594
0.000176229
0.000250908
0.000257674
0.000229099
0.000175814
0.00014778
0.000135171
0.000127464
0.000123168
0.000120701
0.000118863
0.00011766
0.000116996
0.000119455
0.000122953
0.000131869
0.000161194
0.000235797
0.00026549
0.000248065
0.0001969
0.000157413
0.000140606
0.000131242
0.000125508
0.000122217
0.000120171
0.000118564
0.000117577
0.000117081
0.00011871
0.000122227
0.000128749
0.000149607
0.00020988
0.000265401
0.000261587
0.00022035
0.000171184
0.000146829
0.000135644
0.000128329
0.000123864
0.000121498
0.00011954
0.000118372
0.0001175
0.00011713
0.000118115
0.000121591
0.000126716
0.00014164
0.000183777
0.000258868
0.000267421
0.000244041
0.000189597
0.000154841
0.000140343
0.000131771
0.000126119
0.000122798
0.00012079
0.000119092
0.000118206
0.000117427
0.000117141
0.000117681
0.000121044
0.000125169
0.000136384
0.000167181
0.000242555
0.000274033
0.000259912
0.000211262
0.000166547
0.000145494
0.000135675
0.000128812
0.000124308
0.000121976
0.000120013
0.000118804
0.000118034
0.000117366
0.000117141
0.00011739
0.000120533
0.000123933
0.000132726
0.000155881
0.000217748
0.000273267
0.000271191
0.000234547
0.00018229
0.000152425
0.000139651
0.000131945
0.000126509
0.000123157
0.000121177
0.000119431
0.00011857
0.00011785
0.000117315
0.00011714
0.000117209
0.000119952
0.000122956
0.000130154
0.000147535
0.000191915
0.00026626
0.000276103
0.00025629
0.000202292
0.000161901
0.000144221
0.000135302
0.000129098
0.000124674
0.00012225
0.000120366
0.000119029
0.000118324
0.000117704
0.000117266
0.000117116
0.000117068
0.000119382
0.000122296
0.000128381
0.00014185
0.000173811
0.000249488
0.000281675
0.000269841
0.000223758
0.00017586
0.000149742
0.000138836
0.000131833
0.000126826
0.000123383
0.000121436
0.000119668
0.000118719
0.000118088
0.000117569
0.00011722
0.000117088
0.000116998
0.00011892
0.000121823
0.000127062
0.000138248
0.000162788
0.000225826
0.000280522
0.000279435
0.000246032
0.000193021
0.000158154
0.000142637
0.000134821
0.000129132
0.00012498
0.00012244
0.000120627
0.000119159
0.000118434
0.000117878
0.000117436
0.00011718
0.000117066
0.000116987
0.00011855
0.000121401
0.000125955
0.00013608
0.000154281
0.000200289
0.000273503
0.000283673
0.000266033
0.000213429
0.000169485
0.000147646
0.000137877
0.000131579
0.000126945
0.000123594
0.000121609
0.000119862
0.000118785
0.000118145
0.000117677
0.000117313
0.000117145
0.000117046
0.000116993
0.000118208
0.000120941
0.000125002
0.000134491
0.000148351
0.000181072
0.00025727
0.000288702
0.000278111
0.000234007
0.000184985
0.000154459
0.000141248
0.000134175
0.00012908
0.000125225
0.000122592
0.000120834
0.000119268
0.000118446
0.00011788
0.00011749
0.0001172
0.000117118
0.000117034
0.00011699
0.000117874
0.000120465
0.000124132
0.000132917
0.000144172
0.000169978
0.000234942
0.000287722
0.00028652
0.000255066
0.000202561
0.000164387
0.000145489
0.000136951
0.000131154
0.000127058
0.000123832
0.000121751
0.000120098
0.000118838
0.000118131
0.00011764
0.000117315
0.000117101
0.000117105
0.00011703
0.000116975
0.000117564
0.000120028
0.000123389
0.000131382
0.000141269
0.000160746
0.000209816
0.000281391
0.000290041
0.000273712
0.000222389
0.000176993
0.000151444
0.000139821
0.000133501
0.000128814
0.000125424
0.000122756
0.000121002
0.000119467
0.00011848
0.000117848
0.000117417
0.000117157
0.000117023
0.000117106
0.00011703
0.000116955
0.000117303
0.000119674
0.000122833
0.000130026
0.000139185
0.000154137
0.000188691
0.000266734
0.000295659
0.000284666
0.000241896
0.000192824
0.000159398
0.000143449
0.000135929
0.000130782
0.000126965
0.000124088
0.000121916
0.000120353
0.000118996
0.000118172
0.000117596
0.00011722
0.000117021
0.000116975
0.000117125
0.000117027
0.000116941
0.000117094
0.000119396
0.000122353
0.000128891
0.000137466
0.000149411
0.000176989
0.000245265
0.000294747
0.000293396
0.000261431
0.000210189
0.000170067
0.00014834
0.000138485
0.000132685
0.000128667
0.000125469
0.000123023
0.000121215
0.000119804
0.000118636
0.000117918
0.000117384
0.000117062
0.000116914
0.000116974
0.000117163
0.00011702
0.000116934
0.000116918
0.000119181
0.000121939
0.00012798
0.000135968
0.000146204
0.000167359
0.000220882
0.000289661
0.000296549
0.000279839
0.000228912
0.00018327
0.000155015
0.000141432
0.000135007
0.000130217
0.000126912
0.000124237
0.000122199
0.000120638
0.000119387
0.000118364
0.000117722
0.000117232
0.000116948
0.000116904
0.000117061
0.000117231
0.000117012
0.000116915
0.000116783
0.000119013
0.000121583
0.000127179
0.000134819
0.000143787
0.000160133
0.000198177
0.000277205
0.000301961
0.000290628
0.000247976
0.000198799
0.000163687
0.000145619
0.000137099
0.000132065
0.000128279
0.000125489
0.000123254
0.000121558
0.000120205
0.00011911
0.00011817
0.000117594
0.000117191
0.000116985
0.000117055
0.00011724
0.000117332
0.000117012
0.000116901
0.00011671
0.000118882
0.000121289
0.000126488
0.000133968
0.000141853
0.000154903
0.000184397
0.000257213
0.000301995
0.000299451
0.000266344
0.000215958
0.000174859
0.000151104
0.000139779
0.000133854
0.000129716
0.000126681
0.00012435
0.000122526
0.000121113
0.000119917
0.000118985
0.000118144
0.00011759
0.000117346
0.000117269
0.000117449
0.000117561
0.000117516
0.000117013
0.000116883
0.000116665
0.000118733
0.000121068
0.000125938
0.000133174
0.00014016
0.000150971
0.000174822
0.000233855
0.000298456
0.000303332
0.000283964
0.000233942
0.000188299
0.000158394
0.000143025
0.000135936
0.000131176
0.000127862
0.0001254
0.000123503
0.00012203
0.000120842
0.000119795
0.000118987
0.000118378
0.000117953
0.000117814
0.000117956
0.000118342
0.000118463
0.000117483
0.000118028
0.000117014
0.000116852
0.000116644
0.000118561
0.000120866
0.000125471
0.00013234
0.000138692
0.000148078
0.00016686
0.000211639
0.000289034
0.000307534
0.000296445
0.000252176
0.000203758
0.000167498
0.000147866
0.000137875
0.000132833
0.000129054
0.000126392
0.000124411
0.000122903
0.000121778
0.000120785
0.000119872
0.000119233
0.000118854
0.00011875
0.000118948
0.000119393
0.00011948
0.00011858
0.000119139
0.000117552
0.000118157
0.000117017
0.000116825
0.000116615
0.000118394
0.000120685
0.000125097
0.000131554
0.000137485
0.000145934
0.000160934
0.000193707
0.000271857
0.000309898
0.000304321
0.000270041
0.000220363
0.000179158
0.00015366
0.000140925
0.000134386
0.000130307
0.000127374
0.000125253
0.000123742
0.000122628
0.000121796
0.000120997
0.000120253
0.000119842
0.000119774
0.000120025
0.000120633
0.000120277
0.000121068
0.000120238
0.000121146
0.000121524
0.000118745
0.000119715
0.000117596
0.000118226
0.00011702
0.0001168
0.00011661
0.000118247
0.000120534
0.000124803
0.000130929
0.000136521
0.000144334
0.000156544
0.00018391
0.000251862
0.000307993
0.000310017
0.000286515
0.000237882
0.000192446
0.000161521
0.000144651
0.00013632
0.000131623
0.000128341
0.000126117
0.000124512
0.000123437
0.00012269
0.000122108
0.000121577
0.000121127
0.000121048
0.000121494
0.000121647
0.000122028
0.000118452
0.000122347
0.000121043
0.000111915
0.000115043
0.000119057
0.000117726
0.000117632
0.000118314
0.000117018
0.000116776
0.000116617
0.000118094
0.000120431
0.000124533
0.00013036
0.000135727
0.000142865
0.000153242
0.000175786
0.000230312
0.000301979
0.000312739
0.000301363
0.000254932
0.000207787
0.000170833
0.000150016
0.000138675
0.000133043
0.000129435
0.000126874
0.000125264
0.000124162
0.000123527
0.000123103
0.000122891
0.000122686
0.000122676
0.000116475
0.000107178
0.000109168
0.000101516
0.000117492
0.000105889
0.000106858
0.000110588
0.000106889
0.000103927
0.000114578
0.000107131
0.000112884
0.000111968
0.000117012
0.000116745
0.00011661
0.000117951
0.000120357
0.00012428
0.000129808
0.000135032
0.000141445
0.000151028
0.000169134
0.000210995
0.000289511
0.000317964
0.000308615
0.000271789
0.00022357
0.00018266
0.00015611
0.000142233
0.000134655
0.000130549
0.000127686
0.000125843
0.000124834
0.00012424
0.00012403
0.000124076
0.000124274
0.000116043
0.00010339
9.45395e-05
9.47259e-05
8.89011e-05
0.000100616
9.12904e-05
0.000101562
9.45729e-05
0.000100089
0.000100976
9.76183e-05
9.57692e-05
0.000106319
9.91072e-05
0.000108019
0.000107433
0.000117009
0.00011671
0.000116596
0.000117816
0.000120286
0.000124033
0.000129332
0.000134333
0.000140242
0.000149572
0.000164445
0.000196102
0.000273602
0.000318003
0.000316133
0.000287611
0.000240093
0.000195842
0.000164264
0.000146753
0.000136935
0.000131717
0.00012866
0.000126431
0.000125328
0.000124904
0.000124777
0.000125172
0.000122983
0.000107722
9.52426e-05
8.48876e-05
8.28753e-05
7.80919e-05
8.72204e-05
8.03548e-05
8.90993e-05
8.32638e-05
9.3652e-05
8.73374e-05
9.16337e-05
9.39478e-05
9.01237e-05
8.92086e-05
0.00010091
9.35719e-05
0.000106789
0.000106385
0.000116997
0.000116667
0.00011658
0.000117699
0.000120226
0.000123753
0.000128885
0.000133577
0.000139301
0.000148281
0.000160933
0.000187897
0.000255345
0.000315459
0.00031989
0.000302432
0.000256365
0.000210462
0.000174189
0.000152131
0.000140352
0.000133245
0.000129571
0.000127199
0.000125749
0.000125391
0.000125526
0.00012608
0.0001182
0.000101583
8.81919e-05
7.82736e-05
7.47941e-05
7.12677e-05
7.64909e-05
7.16557e-05
7.85458e-05
7.41154e-05
8.18028e-05
7.6779e-05
8.57694e-05
8.0606e-05
8.46814e-05
8.8685e-05
8.42107e-05
8.42048e-05
9.78623e-05
9.00175e-05
0.000110113
0.00010918
0.00011698
0.00011664
0.000116556
0.00011761
0.000120171
0.000123481
0.00012839
0.000132888
0.00013855
0.000146886
0.000158321
0.000181178
0.000236063
0.000309502
0.000323628
0.000313718
0.000271742
0.000225905
0.000185708
0.000159282
0.000144401
0.000135745
0.000130551
0.000128053
0.000126317
0.000125721
0.000126018
0.000126942
0.000112811
9.73772e-05
8.33403e-05
7.31667e-05
6.92182e-05
6.55542e-05
6.83527e-05
6.60304e-05
6.97779e-05
6.64068e-05
7.23313e-05
6.84187e-05
7.53191e-05
7.09683e-05
7.94468e-05
7.47606e-05
7.91701e-05
8.48133e-05
7.9542e-05
8.06021e-05
9.70768e-05
8.80845e-05
0.000117399
0.000117204
0.000116965
0.000116637
0.000116562
0.000117537
0.000120095
0.000123244
0.000127868
0.000132265
0.000137806
0.000145346
0.000156622
0.00017541
0.000218155
0.000297783
0.000329519
0.000320294
0.000287648
0.000241055
0.000199038
0.000167579
0.000149666
0.000139039
0.000132317
0.000128808
0.000127116
0.000126307
0.000126309
0.00012757
0.000108642
9.38477e-05
8.11662e-05
7.00168e-05
6.56477e-05
6.19258e-05
6.33916e-05
6.16435e-05
6.31812e-05
6.15647e-05
6.47028e-05
6.18483e-05
6.71077e-05
6.3988e-05
7.01121e-05
6.64775e-05
7.45628e-05
7.03115e-05
7.48178e-05
8.23055e-05
7.58536e-05
7.8153e-05
9.87758e-05
8.73891e-05
0.000117348
0.000117343
0.00011697
0.00011667
0.000116606
0.000117476
0.000119973
0.00012297
0.000127377
0.000131654
0.000136982
0.000143819
0.000155184
0.000171017
0.000203875
0.000283146
0.000330358
0.000328479
0.000301622
0.000256636
0.000212854
0.000178105
0.000155751
0.000143293
0.000135209
0.000129963
0.000127827
0.000127252
0.000127158
0.000126453
0.000106053
9.01263e-05
7.76825e-05
6.81938e-05
6.40887e-05
5.93991e-05
6.02012e-05
5.83739e-05
5.94451e-05
5.86861e-05
5.97357e-05
6.01515e-05
6.15107e-05
6.16443e-05
6.37006e-05
6.37525e-05
6.63238e-05
6.5266e-05
7.07445e-05
6.72773e-05
7.10836e-05
8.12837e-05
7.22428e-05
7.45379e-05
0.000102687
8.80471e-05
0.000117271
0.000116982
0.000117028
0.000116767
0.000116677
0.000117393
0.000119779
0.000122678
0.000126883
0.000131041
0.000136111
0.000142432
0.00015358
0.000167512
0.000195639
0.00026632
0.000327452
0.000332958
0.000316187
0.000271422
0.000227544
0.000189482
0.000163799
0.000148244
0.000139042
0.000132597
0.000128738
0.000127978
0.000128263
0.00012347
0.000102092
8.66756e-05
7.55772e-05
6.51517e-05
6.43278e-05
5.47354e-05
5.92391e-05
5.61497e-05
5.82927e-05
5.90747e-05
6.18415e-05
6.89849e-05
6.65557e-05
8.13877e-05
7.00074e-05
8.80581e-05
7.04856e-05
8.91592e-05
6.91343e-05
8.25949e-05
6.89877e-05
7.34485e-05
7.02451e-05
7.87303e-05
7.17812e-05
7.40445e-05
0.000107548
8.73221e-05
0.00011717
0.000116642
0.000117187
0.000116964
0.000116778
0.000117263
0.000119486
0.0001224
0.000126372
0.000130425
0.000135222
0.000141295
0.000151754
0.000164944
0.000189429
0.000247779
0.000322836
0.000338238
0.000327166
0.000286127
0.000242137
0.000202302
0.00017277
0.000154827
0.000143554
0.000136413
0.000131175
0.000129044
0.00012907
0.000118952
9.74124e-05
8.51449e-05
7.53865e-05
6.50389e-05
5.90165e-05
6.00849e-05
5.48776e-05
6.01181e-05
6.33559e-05
7.69219e-05
9.1965e-05
0.000108191
0.000114867
0.000106959
0.000118013
0.000105356
0.000115218
0.000102575
0.000109249
0.000101089
0.000102616
8.08305e-05
9.7444e-05
8.51831e-05
7.68647e-05
8.64698e-05
8.64324e-05
0.000105469
8.02189e-05
0.000117138
0.000116511
0.000117572
0.000117564
0.000117145
0.000117173
0.000119078
0.000122058
0.00012589
0.000129779
0.000134394
0.000140383
0.00014992
0.000163127
0.000183873
0.000230283
0.000313184
0.000345519
0.000335069
0.000301244
0.000256575
0.000215844
0.000183205
0.000162511
0.000149566
0.000141097
0.000135788
0.000131894
0.000130724
0.000115695
9.65885e-05
8.37022e-05
7.29802e-05
6.49423e-05
5.89882e-05
6.75181e-05
6.29961e-05
6.30152e-05
6.68446e-05
0.000106084
0.000113056
0.000121849
0.00013028
0.000135216
0.000156734
0.000142108
0.000176014
0.000135926
0.00018031
0.000119527
0.000164082
0.000104589
0.000131025
9.45574e-05
0.000107616
9.15379e-05
8.38439e-05
8.83768e-05
8.55373e-05
8.29056e-05
7.36355e-05
8.30326e-05
7.27838e-05
0.000119134
0.000119575
0.000118427
0.000117775
0.00011893
0.000121675
0.000125411
0.000129047
0.0001337
0.000139507
0.000148314
0.000161379
0.000179394
0.000215786
0.000298644
0.000348111
0.000344653
0.000315703
0.000271086
0.000229511
0.000194955
0.000171197
0.000156884
0.000147327
0.000141474
0.000137191
0.000134589
0.000112242
9.35009e-05
7.85234e-05
7.06943e-05
6.4961e-05
5.9607e-05
6.55901e-05
6.0443e-05
0.000110228
0.000108311
0.000113653
0.000112026
0.000138387
0.000146466
0.000179208
0.000201368
0.000214519
0.000255277
0.000233272
0.000292699
0.000229982
0.000304177
0.00019943
0.000284993
0.000144001
0.000237492
0.000109184
0.000159093
0.00010658
8.51068e-05
0.000101219
9.38711e-05
6.1379e-05
8.91967e-05
4.20148e-05
4.08496e-05
0.000120613
0.000123573
0.000122776
0.000119914
0.000119731
0.000121591
0.000124868
0.000128208
0.000133061
0.000138562
0.000146945
0.000159591
0.000175771
0.000206437
0.000282569
0.000345001
0.000350755
0.000331409
0.000285402
0.000243536
0.000206968
0.000181346
0.000165166
0.000155444
0.00014874
0.000144379
0.000137064
0.00010656
8.67291e-05
7.55864e-05
7.05618e-05
6.41506e-05
6.0537e-05
6.35956e-05
5.18149e-05
0.000104608
0.000101367
0.000152738
0.000150227
0.000152406
0.000155845
0.000222256
0.000242458
0.000296808
0.000337439
0.000353155
0.000407654
0.000373659
0.000432851
0.000364509
0.000427092
0.000328985
0.000399947
0.000268322
0.000354209
0.000168999
0.000284454
0.000166148
8.73419e-05
0.000149642
0.000129246
5.66336e-05
7.9789e-05
2.19912e-05
2.58908e-05
0.00012037
0.000128851
0.000130512
0.000126248
0.000122362
0.000122237
0.000124499
0.00012735
0.000132411
0.000137657
0.000145499
0.000157834
0.000173271
0.000200392
0.000264871
0.000341339
0.000357338
0.00034374
0.00030038
0.000257238
0.000219849
0.0001916
0.000174749
0.00016495
0.000158229
0.000153795
0.000134966
0.000105808
8.7574e-05
7.87734e-05
6.86716e-05
6.31329e-05
5.96334e-05
7.8816e-05
0.000100559
0.000100746
0.00014451
0.00013308
0.000278328
0.000277893
0.000258891
0.000271194
0.000375124
0.000408647
0.000454629
0.000494099
0.000480779
0.000520928
0.000478723
0.000524194
0.000459455
0.000512438
0.000423953
0.000483658
0.000371765
0.000439868
0.000291013
0.000379088
0.000285053
0.000110242
0.00026655
0.000235034
6.53579e-05
9.23852e-05
1.15705e-05
1.70403e-05
0.000129474
0.000144924
0.000142407
0.000131103
0.000124814
0.000124783
0.000127103
0.00013196
0.000136895
0.000144067
0.000156163
0.000171546
0.000195173
0.000247772
0.000333717
0.000365953
0.000353585
0.000315809
0.000271009
0.000232513
0.000202803
0.000184317
0.000175178
0.000169767
0.000165419
0.000131982
0.000105707
8.84282e-05
7.368e-05
6.4922e-05
6.32473e-05
6.0163e-05
6.95233e-05
0.000107953
0.0001062
0.000123178
0.000111758
0.000275269
0.000268739
0.000470275
0.000479521
0.000435808
0.000456302
0.000527317
0.000554516
0.000555657
0.00058643
0.000567675
0.000608162
0.000563684
0.000617481
0.000542899
0.000602562
0.000505919
0.000567576
0.000454807
0.000518624
0.000383366
0.000459088
0.000379005
0.000187556
0.00036608
0.000342051
7.98796e-05
0.000136821
6.13254e-06
2.4647e-05
0.00014726
0.000160632
0.000153514
0.000136306
0.000127743
0.00012762
0.000132099
0.000136677
0.000142791
0.000154563
0.000170022
0.000190559
0.000232737
0.000319415
0.000370155
0.00036483
0.000331983
0.000285162
0.000245115
0.000213711
0.000194228
0.000185075
0.000180303
0.000160265
0.000129209
0.000106358
8.78139e-05
7.28116e-05
6.57186e-05
6.03881e-05
5.84353e-05
6.51007e-05
0.000105382
9.51867e-05
0.000217115
0.000197872
0.000254893
0.000238704
0.000479989
0.000477721
0.000603598
0.000611383
0.000575707
0.000592112
0.000613877
0.000636549
0.000647424
0.000683233
0.000670601
0.000719554
0.000665319
0.000733813
0.000637796
0.000713555
0.000590933
0.000663014
0.000532135
0.000604098
0.000461117
0.000535243
0.00045909
0.000304127
0.000449248
0.000438293
0.000383973
0.000106033
0.000256136
4.9863e-06
9.72108e-05
0.000161251
0.000174907
0.000164137
0.000140792
0.000131236
0.000132838
0.000136824
0.000141908
0.000152983
0.000168502
0.000187015
0.000221449
0.000303343
0.000367452
0.00037269
0.000349529
0.000299791
0.000258106
0.000224444
0.000203295
0.000192729
0.000188906
0.000160222
0.000143759
0.000152481
0.000160547
0.000139381
9.76572e-05
7.24603e-05
6.22783e-05
6.87982e-05
0.000123645
0.000178948
0.000160964
0.000438129
0.000413027
0.000470806
0.000459421
0.000616677
0.000619742
0.000672953
0.000677313
0.000654471
0.000666787
0.000713992
0.000736724
0.000767721
0.000805917
0.0007915
0.000831781
0.000778508
0.000812001
0.000741403
0.000781577
0.000679257
0.000741726
0.000610364
0.000678846
0.000534516
0.00060796
0.00057313
0.000494366
0.000530898
0.00042462
0.000354114
0.000416924
0.000481768
0.000520047
0.000523735
0.00047386
0.000226547
0.000401716
0.000396725
0.000326292
9.35596e-05
0.000266417
0.000172251
0.000189286
0.000172522
0.000143728
0.000136121
0.00013749
0.000141816
0.000151571
0.000167012
0.000184872
0.000214364
0.000286616
0.000364066
0.000380565
0.000363858
0.00031556
0.00027089
0.000235546
0.00021123
0.000199402
0.000190873
0.000172291
0.000193063
0.000189029
0.000190735
0.000181396
0.000164974
0.00015079
0.000101416
8.35955e-05
0.00013604
0.000305235
0.000246499
0.000377837
0.000337051
0.000614155
0.000607235
0.00062012
0.000619142
0.000680058
0.000682843
0.0007679
0.000770496
0.000755169
0.000764314
0.000833015
0.000851294
0.000850446
0.000857854
0.000828567
0.000833999
0.000796103
0.000807243
0.000749425
0.000732499
0.000706877
0.000703854
0.00072587
0.000646625
0.000639153
0.000669413
0.000635116
0.000620517
0.000692226
0.000602051
0.000563997
0.000597427
0.00063412
0.000558678
0.000466208
0.000457439
0.000513001
0.0005462
0.000552918
0.000505979
0.000387814
0.000332494
0.000396003
0.000451306
0.000447104
0.00039188
0.000335722
0.000287079
0.000291979
0.000183454
0.000203129
0.000173169
0.000146187
0.000140053
0.000142132
0.000150035
0.000165529
0.000183343
0.000209462
0.000269615
0.00035777
0.000390306
0.000375799
0.000332446
0.0002842
0.000246406
0.000219368
0.000204699
0.000195194
0.000200394
0.000222996
0.000243385
0.000285632
0.000273522
0.000233646
0.00018936
0.000165664
0.000147487
0.000149656
0.000366231
0.000541754
0.000539073
0.00059127
0.000577126
0.000687031
0.000686048
0.000685687
0.000687601
0.000768977
0.000764618
0.000868145
0.000869499
0.000860718
0.000864561
0.000859578
0.00085876
0.00082847
0.00081791
0.000796611
0.000770148
0.000759868
0.000715055
0.000677768
0.000616022
0.000662336
0.000623708
0.000643754
0.000613892
0.000607425
0.000661408
0.000644959
0.000602873
0.000578966
0.000604948
0.000627187
0.000590094
0.00061886
0.000647031
0.000583014
0.000498882
0.000492678
0.000538751
0.000575323
0.000566949
0.000531265
0.000448879
0.000451959
0.000488553
0.000487113
0.000278884
9.34256e-05
0.000341045
0.000294409
0.000269373
0.000197348
0.000215356
0.000170452
0.000147498
0.000143613
0.000149493
0.000164205
0.00018206
0.000205234
0.000254206
0.000344203
0.000395885
0.000388648
0.000350872
0.000298602
0.000257436
0.00022746
0.000210038
0.000201583
0.000219231
0.000267331
0.000358079
0.000488074
0.000577163
0.00053246
0.000378103
0.00023034
0.000172204
0.000167444
0.000313674
0.000667807
0.000639277
0.000681659
0.000676547
0.000684795
0.000684135
0.000742682
0.000732204
0.00075858
0.00075147
0.000868323
0.000863888
0.000868078
0.000875893
0.000859971
0.00086279
0.000803866
0.000792509
0.000721588
0.000678628
0.000652256
0.000591119
0.000657373
0.000621108
0.000586922
0.000549645
0.000595683
0.0006112
0.000615279
0.000608711
0.00057502
0.000563996
0.000568738
0.000610031
0.000575519
0.000553828
0.000529587
0.000546158
0.000630105
0.000610084
0.000610783
0.000587936
0.000601139
0.000524179
0.000518049
0.000558372
0.000591792
0.000582148
0.000549761
0.00049107
0.000492576
0.000513851
0.000510612
0.000361984
0.000160774
0.000406566
0.000369066
0.000384887
0.000217936
0.000214175
0.000165193
0.000148708
0.000149959
0.000163219
0.000181073
0.00020171
0.00024159
0.000328022
0.000393648
0.000398278
0.000370453
0.000314187
0.000269318
0.000235784
0.000214929
0.000209561
0.000228509
0.000302531
0.000453838
0.000695507
0.000864078
0.000843028
0.000699731
0.000481228
0.000266805
0.000204102
0.000302499
0.000675622
0.000725693
0.000744298
0.000721276
0.000723544
0.000723965
0.000721214
0.000834679
0.000820639
0.000856813
0.000846923
0.000886725
0.000898506
0.000793829
0.000807736
0.000786676
0.000786542
0.000648359
0.000633918
0.000542501
0.000513406
0.000518912
0.000490106
0.000468835
0.000452751
0.000569881
0.000529786
0.000492856
0.000461622
0.000576445
0.000595647
0.000566543
0.000524368
0.000539302
0.000544027
0.000557793
0.000549973
0.000521808
0.000519333
0.000503434
0.000506753
0.000566293
0.000594539
0.000550363
0.000529916
0.000581981
0.000541366
0.000533283
0.0005722
0.000574228
0.000571222
0.000561995
0.000510009
0.000505479
0.000525617
0.000517211
0.000460666
0.000222561
0.00032857
0.000495421
0.000475809
0.000237682
0.000203936
0.000159953
0.000152238
0.0001625
0.000180418
0.000199565
0.000232438
0.000311887
0.000390167
0.00040724
0.000387077
0.000331394
0.000281573
0.000245074
0.00021982
0.00021217
0.000231228
0.000320735
0.000514587
0.00085658
0.0010353
0.0010101
0.000909785
0.000744129
0.000526285
0.000317937
0.00031768
0.000646898
0.000754195
0.00073235
0.0007602
0.000759064
0.000780462
0.000770054
0.000805252
0.000790977
0.000925555
0.000924596
0.00091002
0.000920148
0.000831286
0.000857347
0.000637776
0.000658122
0.00062578
0.000626133
0.000493539
0.00048297
0.000408884
0.000398271
0.000437186
0.000417919
0.000403394
0.00039234
0.000482308
0.000446231
0.000416559
0.00039406
0.000572651
0.000530461
0.000485885
0.000444107
0.000523885
0.000540817
0.000548941
0.00050205
0.000488471
0.000510503
0.000501132
0.000487883
0.000511918
0.000537005
0.00049916
0.00048609
0.000527029
0.000551159
0.000539298
0.000571834
0.000522915
0.000522571
0.000568529
0.000507668
0.000496721
0.000525807
0.000510501
0.000456649
0.000279779
0.000266834
0.000485026
0.000474197
0.000238346
0.000182918
0.000158873
0.000162558
0.000179912
0.000198113
0.000226761
0.000295591
0.000384967
0.000417581
0.000400949
0.000350518
0.000294931
0.000254068
0.000226026
0.000214179
0.000231175
0.000323269
0.000537785
0.000954395
0.00112981
0.00109569
0.000983082
0.000836626
0.000667941
0.000512399
0.000393525
0.000619215
0.000741598
0.000807175
0.000799839
0.000847809
0.000824223
0.000891369
0.000871354
0.000917915
0.000906729
0.0009478
0.000973917
0.000886778
0.000917863
0.000691278
0.000729204
0.000489467
0.000510412
0.000476006
0.000477038
0.000393762
0.000395787
0.000355017
0.000354549
0.000359326
0.000358391
0.000377519
0.000365566
0.000357467
0.000353565
0.000408756
0.000380357
0.000359425
0.00034463
0.000499949
0.000454093
0.000413198
0.000378236
0.000528443
0.000525863
0.000475444
0.000473873
0.000476149
0.000522442
0.000517552
0.000492822
0.000473077
0.000488485
0.000462308
0.000462511
0.000482327
0.000554743
0.000538267
0.000528837
0.000479839
0.000483624
0.00054051
0.000495431
0.000484659
0.000518986
0.000498853
0.000285195
9.68673e-05
0.000204006
0.00047992
0.000483008
0.000230905
0.000173096
0.000164623
0.000179897
0.000197629
0.000222048
0.000280563
0.000372626
0.000425246
0.000415099
0.000371598
0.000310468
0.000263988
0.000232088
0.000216636
0.000225413
0.000313894
0.000535053
0.000989954
0.00117464
0.0011366
0.000972089
0.000840281
0.000715502
0.00059616
0.000514147
0.000620091
0.000704453
0.000889256
0.00084924
0.000927428
0.000903566
0.000979729
0.000955723
0.00100774
0.000997817
0.000991885
0.00100363
0.00088152
0.000937327
0.000773262
0.000825376
0.000540457
0.000582556
0.000420513
0.000432758
0.000401709
0.000410547
0.000361506
0.000367006
0.000369891
0.000337314
0.000342266
0.000349803
0.000345412
0.000334689
0.00033007
0.000330026
0.000332823
0.0003508
0.000331059
0.000317279
0.000309178
0.000428662
0.000388118
0.000353195
0.000326462
0.000507075
0.000455619
0.000408143
0.000467596
0.000486116
0.00049179
0.000479536
0.000512481
0.000452785
0.000454312
0.000445059
0.000459623
0.00044972
0.000553751
0.000533329
0.000492262
0.000449422
0.000454638
0.000508926
0.000482535
0.000475797
0.000509958
0.000487664
0.000302049
6.59558e-05
0.000193362
0.000481747
0.00049135
0.000211411
0.000172407
0.000179826
0.000197432
0.000219562
0.000266241
0.00035813
0.000424441
0.000426773
0.000393279
0.000328321
0.000276109
0.000239229
0.000218939
0.000220274
0.000287885
0.000504898
0.000985456
0.00119923
0.00113602
0.000937127
0.000838744
0.000768951
0.000649125
0.00057071
0.000656532
0.000716947
0.000902273
0.00103059
0.00103453
0.00106724
0.00105336
0.00108511
0.00107982
0.0010591
0.00107531
0.000987884
0.00102984
0.000752475
0.000831359
0.000629214
0.000682597
0.000451167
0.000482465
0.000410017
0.000417881
0.000380128
0.000398108
0.000355152
0.000359673
0.000363589
0.000379075
0.000324294
0.000329885
0.000342979
0.00033662
0.000306671
0.000307973
0.000312048
0.000317933
0.00030722
0.000294161
0.000286849
0.00028431
0.00036727
0.000332397
0.000305849
0.000286814
0.000439254
0.000391318
0.000349665
0.000479411
0.000507686
0.000425538
0.000415174
0.00047039
0.000453275
0.000438739
0.000447803
0.000473209
0.00043553
0.000537211
0.000527301
0.000465294
0.000434738
0.000437802
0.00048289
0.000472109
0.000471092
0.000501536
0.000478093
0.000289781
6.94993e-05
0.000172667
0.000485832
0.00047194
0.000197546
0.000181252
0.000197526
0.000216746
0.000256348
0.000340999
0.000420428
0.000436999
0.000412635
0.000347413
0.000289614
0.000247691
0.000222661
0.000217357
0.000260315
0.000443691
0.000942781
0.00120397
0.00114392
0.000897849
0.00083458
0.000804369
0.000742391
0.000644638
0.00067915
0.000743087
0.000919081
0.00116228
0.00114709
0.00116604
0.00116674
0.00115761
0.00116645
0.00111969
0.00114205
0.00103688
0.00108439
0.000907888
0.000977741
0.000641459
0.000714064
0.000529393
0.000582388
0.000427989
0.000448617
0.000460399
0.000455817
0.000395977
0.000416328
0.000450679
0.000347794
0.000354335
0.00037663
0.000402305
0.000313119
0.00032165
0.000336447
0.00032925
0.000285441
0.000289741
0.0002967
0.000305597
0.000273646
0.000265662
0.000262203
0.000262687
0.00031467
0.000288003
0.000268799
0.000255256
0.000376878
0.000334724
0.000299347
0.000501413
0.000464523
0.000365834
0.0003573
0.000408068
0.00046683
0.000443384
0.000461055
0.000494072
0.000439314
0.000514002
0.000521491
0.000444262
0.000437072
0.000434157
0.000461275
0.000464183
0.000468962
0.000493879
0.000469545
0.000302602
8.45675e-05