/*--------------------------------*- C++ -*----------------------------------*\
  =========                 |
  \\      /  F ield         | OpenFOAM: The Open Source CFD Toolbox
   \\    /   O peration     | Website:  https://openfoam.org
    \\  /    A nd           | Version:  dev
     \\/     M anipulation  |
\*---------------------------------------------------------------------------*/
FoamFile
{
    version     2.0;
    format      ascii;
    class       volScalarField;
    location    "2500";
    object      CO2;
}
// * * * * * * * * * * * * * * * * * * * * * * * * * * * * * * * * * * * * * //

dimensions      [0 0 0 0 0 0 0];

internalField   nonuniform List<scalar> 
9836
(
1.72845e-33
7.77355e-33
3.82334e-33
1.17243e-32
1.98928e-32
3.23714e-33
1.38725e-32
4.02882e-32
2.12326e-32
3.80562e-33
2.74312e-32
9.40134e-32
6.38506e-32
2.07967e-32
9.46082e-34
5.66877e-32
1.49807e-31
1.20927e-31
5.9214e-32
1.35231e-32
6.78495e-34
1.24046e-31
2.42998e-31
2.53439e-31
1.22986e-31
3.74982e-32
6.67464e-33
2.50299e-34
2.3788e-31
4.59643e-31
5.08388e-31
2.50758e-31
1.19131e-31
2.10082e-32
2.03554e-33
5.36606e-35
2.77783e-31
1.04837e-30
9.33298e-31
6.12713e-31
2.39489e-31
7.98987e-32
1.1712e-32
1.1412e-33
2.53749e-35
4.48711e-31
2.35706e-30
2.1009e-30
1.13463e-30
5.41065e-31
2.12078e-31
4.44219e-32
5.92118e-33
3.48995e-34
5.16012e-36
1.62212e-30
5.25851e-30
5.18671e-30
2.99305e-30
1.30023e-30
4.06644e-31
1.10678e-31
2.30327e-32
2.55559e-33
1.34745e-34
1.01529e-36
2.95324e-30
1.03717e-29
1.19693e-29
6.99319e-30
2.6977e-30
1.2417e-30
3.05622e-31
6.64135e-32
1.09284e-32
6.42203e-34
2.65488e-35
9.72081e-37
1.01068e-29
2.03781e-29
2.69937e-29
1.6535e-29
8.38517e-30
2.78095e-30
8.54489e-31
2.15283e-31
3.68616e-32
4.98923e-33
3.00369e-34
2.25747e-35
2.36904e-36
2.67504e-29
5.0289e-29
6.8372e-29
3.86257e-29
2.04463e-29
7.8307e-30
2.51734e-30
5.71e-31
1.08378e-31
1.77268e-32
1.48324e-33
1.41085e-34
2.02933e-35
9.76041e-37
5.05263e-29
1.26145e-28
1.55747e-28
1.05537e-28
4.73915e-29
2.0017e-29
6.62381e-30
1.88215e-30
4.08668e-31
5.86888e-32
9.27891e-33
6.68625e-34
1.09634e-34
1.25787e-35
6.77672e-37
4.01066e-29
2.66667e-28
2.57857e-28
2.83326e-28
1.38877e-28
5.67745e-29
1.80061e-29
3.99068e-30
8.68309e-31
2.04822e-31
3.29493e-32
4.66244e-33
5.05493e-34
6.46612e-35
6.1659e-36
4.58044e-37
9.3809e-29
5.76862e-28
5.62006e-28
7.46325e-28
4.33414e-28
1.65129e-28
5.32573e-29
1.26307e-29
3.10286e-30
5.63671e-31
9.20244e-32
1.83962e-32
2.37386e-33
3.3978e-34
3.15276e-35
3.93179e-36
4.68918e-37
2.68122e-28
1.00412e-27
1.3663e-27
1.77379e-27
1.05726e-27
4.16585e-28
1.57622e-28
4.47484e-29
7.96643e-30
1.80639e-30
3.65602e-31
5.53702e-32
9.74162e-33
1.52004e-33
1.91839e-34
2.4067e-35
5.67083e-36
3.77802e-36
3.9796e-28
1.48039e-27
2.55397e-27
3.79475e-27
2.57321e-27
1.25073e-27
4.18072e-28
1.15848e-28
3.37412e-29
4.99919e-30
9.14826e-31
1.78249e-31
3.22805e-32
5.33999e-33
8.60078e-34
1.23435e-34
5.46894e-35
6.40142e-35
1.18816e-34
1.06908e-27
2.95199e-27
6.09322e-27
7.7701e-27
5.1109e-27
3.0876e-27
1.12538e-27
3.79162e-28
9.25726e-29
2.3722e-29
4.15709e-30
5.05022e-31
8.06911e-32
1.72174e-32
2.34616e-33
5.19581e-34
2.26431e-34
6.35923e-34
1.12619e-33
1.26079e-33
1.23689e-27
5.84587e-27
1.0394e-26
1.37767e-26
1.23432e-26
7.85883e-27
3.08896e-27
9.99252e-28
2.90108e-28
6.52189e-29
1.4695e-29
2.5869e-30
2.1936e-31
4.37632e-32
8.49682e-33
1.61494e-33
1.35657e-33
4.01975e-33
9.20341e-33
1.93546e-32
8.40286e-33
7.64976e-28
8.00183e-27
1.51596e-26
2.19765e-26
2.42956e-26
1.78447e-26
7.16001e-27
2.67465e-27
7.74362e-28
2.07331e-28
4.61087e-29
7.82048e-30
1.12208e-30
1.48596e-31
2.78473e-32
8.48254e-33
6.16012e-33
1.60087e-32
6.26227e-32
1.3696e-31
2.58046e-31
2.09699e-31
3.47888e-27
1.03251e-26
3.05985e-26
5.14086e-26
5.72171e-26
3.31784e-26
2.1429e-26
7.41861e-27
2.26384e-27
4.80329e-28
1.21386e-28
2.99329e-29
4.00049e-30
3.94544e-31
9.61828e-32
2.83963e-32
3.06172e-32
7.78681e-32
3.40533e-31
7.81996e-31
1.72795e-30
3.7829e-30
1.1298e-30
3.36393e-27
2.19446e-26
5.62952e-26
8.6541e-26
9.93666e-26
9.36622e-26
4.73241e-26
2.06277e-26
6.62836e-27
1.76857e-27
3.71433e-28
8.3908e-29
1.15237e-29
1.97993e-30
2.43079e-31
7.08705e-32
1.3297e-31
4.84831e-31
1.5229e-30
4.73508e-30
9.87652e-30
2.82816e-29
4.38976e-29
1.42437e-29
3.95892e-27
2.88804e-26
8.76664e-26
1.42732e-25
1.75885e-25
1.86838e-25
1.03978e-25
4.96263e-26
1.81588e-26
5.15191e-27
1.07898e-27
2.42267e-28
4.07643e-29
5.4154e-30
9.76366e-31
2.34277e-31
5.08065e-31
2.11365e-30
6.22256e-30
2.0211e-29
6.01554e-29
1.92911e-28
2.66165e-28
4.67808e-28
2.20114e-28
2.47842e-26
5.16745e-26
1.80385e-25
3.28559e-25
2.7797e-25
3.22615e-25
2.46957e-25
1.16217e-25
4.5612e-26
1.40816e-26
3.57302e-27
7.64131e-28
1.55759e-28
2.6464e-29
2.77475e-30
7.62245e-31
1.85558e-30
7.50143e-30
2.92203e-29
8.60423e-29
3.12107e-28
9.8201e-28
2.40669e-27
3.81419e-27
4.13806e-27
2.91002e-27
5.12962e-26
1.5087e-25
3.64222e-25
5.42605e-25
6.73447e-25
6.76263e-25
4.24359e-25
2.63099e-25
1.08777e-25
3.52078e-26
1.02117e-26
1.89236e-27
4.9413e-28
8.80284e-29
1.16003e-29
2.02573e-30
5.35155e-30
2.91951e-29
9.82216e-29
3.92226e-28
1.31773e-27
3.45943e-27
1.48411e-26
2.0703e-26
3.80508e-26
3.28823e-26
2.2447e-26
5.24877e-26
2.85274e-25
7.32343e-25
8.57132e-25
1.47378e-24
1.05845e-24
9.47068e-25
6.03024e-25
2.3993e-25
8.75647e-26
2.71128e-26
6.9209e-27
1.01961e-27
2.55794e-28
4.16217e-29
7.06656e-30
1.42678e-29
1.02965e-28
4.00304e-28
2.00467e-27
7.42298e-27
1.62609e-26
4.89725e-26
1.90683e-25
2.06005e-25
3.82163e-25
6.90094e-25
3.20613e-25
4.60298e-26
4.81417e-25
1.35485e-24
2.21964e-24
3.14272e-24
2.59268e-24
1.97646e-24
1.07487e-24
6.09423e-25
2.06997e-25
6.86723e-26
1.7537e-26
4.13965e-27
6.8066e-28
1.34984e-28
2.93284e-29
4.94852e-29
2.65649e-28
2.13561e-27
7.55555e-27
2.41236e-26
9.47287e-26
2.60865e-25
9.59878e-25
2.31213e-24
3.19436e-24
6.26117e-24
7.16927e-24
2.87532e-24
5.67448e-26
5.36517e-25
1.60484e-24
3.76964e-24
5.70936e-24
5.59621e-24
3.33953e-24
2.86937e-24
1.04837e-24
5.2083e-25
1.5833e-25
4.64135e-26
1.12663e-26
2.43564e-27
3.13075e-28
8.42947e-29
1.67259e-28
8.71326e-28
6.48198e-27
3.23882e-26
1.40559e-25
3.28127e-25
1.05235e-24
4.80345e-24
1.41247e-23
2.37198e-23
5.39298e-23
8.71186e-23
9.33947e-23
5.43393e-23
2.48776e-25
5.47806e-25
2.65491e-24
4.33299e-24
1.08749e-23
9.78564e-24
8.21812e-24
5.42078e-24
3.24297e-24
1.1086e-24
4.22664e-25
9.12137e-26
2.74692e-26
7.01157e-27
9.88118e-28
2.54783e-28
4.75362e-28
3.14611e-27
1.79125e-26
9.28037e-26
5.88832e-25
1.93783e-24
5.51966e-24
1.85628e-23
7.01388e-23
1.60642e-22
2.80903e-22
8.18863e-22
1.18406e-21
1.1118e-21
2.35342e-22
1.06637e-24
2.26007e-24
3.12069e-24
8.06032e-24
1.78992e-23
2.15136e-23
1.81254e-23
1.11586e-23
6.86912e-24
3.05019e-24
9.84037e-25
2.46107e-25
6.35383e-26
1.70081e-26
4.31863e-27
7.38512e-28
1.31708e-27
1.06804e-26
5.02729e-26
3.48212e-25
1.88943e-24
9.7164e-24
2.57055e-23
1.07212e-22
2.71597e-22
8.18721e-22
2.31206e-21
7.33252e-21
1.32703e-20
1.80086e-20
1.05256e-20
3.97665e-21
1.8279e-24
7.69494e-24
7.19185e-24
1.29565e-23
2.54917e-23
3.40447e-23
3.60866e-23
2.2759e-23
1.41166e-23
6.80303e-24
2.12828e-24
7.45488e-25
1.78959e-25
4.08174e-26
9.86722e-27
2.94212e-27
3.57025e-27
2.91083e-26
2.33489e-25
1.34759e-24
7.14187e-24
3.29658e-23
1.41109e-22
4.52554e-22
1.21439e-21
4.62059e-21
8.77398e-21
5.26073e-20
1.96781e-19
2.95051e-19
2.19243e-19
1.00921e-19
2.59687e-20
1.12545e-23
2.95123e-23
2.34708e-23
1.85471e-23
2.78803e-23
5.64452e-23
6.63864e-23
5.2063e-23
2.33942e-23
1.31418e-23
5.16909e-24
1.44701e-24
4.98665e-25
9.85594e-26
2.68584e-26
6.29454e-27
1.18154e-26
8.09074e-26
6.46493e-25
4.37822e-24
2.81842e-23
9.22197e-23
5.149e-22
2.18163e-21
6.57461e-21
1.83015e-20
6.44051e-20
2.57016e-19
1.70976e-18
4.51625e-18
4.55204e-18
2.65587e-18
1.01662e-18
3.23755e-20
4.80584e-19
1.12027e-22
1.45779e-22
6.9187e-23
5.15572e-23
6.67497e-23
6.85807e-23
1.05015e-22
1.05419e-22
5.40408e-23
3.08809e-23
1.27267e-23
4.66785e-24
1.14418e-24
3.41897e-25
5.6205e-26
2.0315e-26
3.32916e-26
2.16717e-25
1.41512e-24
1.46387e-23
1.03579e-22
4.15463e-22
1.60805e-21
6.18988e-21
3.66653e-20
8.06221e-20
1.82831e-19
1.5657e-18
1.0317e-17
4.5751e-17
9.71624e-17
7.42285e-17
2.00451e-17
4.82025e-18
4.09977e-17
2.30459e-19
2.90069e-18
5.86868e-22
7.32877e-22
4.3753e-22
2.21986e-22
1.89224e-22
1.23451e-22
1.90585e-22
1.85739e-22
1.44255e-22
5.2884e-23
2.93525e-23
1.1441e-23
3.01654e-24
8.66071e-25
2.13895e-25
4.20309e-26
7.66845e-26
7.77261e-25
4.22711e-24
2.80225e-23
2.832e-22
1.89872e-21
8.19192e-21
2.39231e-20
9.95007e-20
4.69852e-19
1.08244e-18
5.36831e-18
6.78279e-17
3.93188e-16
1.38725e-15
1.59265e-15
3.764e-16
1.6457e-15
3.73901e-16
2.84477e-15
3.23331e-15
3.59619e-17
3.42821e-16
1.51292e-18
2.62977e-17
2.64527e-21
4.93906e-21
2.24626e-21
1.14954e-21
6.17071e-22
3.42694e-22
3.37295e-22
3.04964e-22
2.60585e-22
1.53341e-22
5.57219e-23
2.46491e-23
6.39642e-24
1.97983e-24
5.39661e-25
1.48329e-25
2.19502e-25
1.926e-24
1.73847e-23
7.68408e-23
6.3202e-22
5.16654e-21
2.97942e-20
1.60068e-19
5.26286e-19
1.43863e-18
5.8226e-18
2.1822e-17
2.56978e-16
2.42549e-15
1.33591e-14
3.24412e-14
9.27013e-15
5.41561e-14
1.6845e-14
3.4056e-15
2.61379e-14
3.2823e-14
2.73248e-16
2.9338e-15
1.30584e-17
1.84026e-16
2.64325e-20
2.8943e-20
2.13474e-20
8.26372e-21
3.21873e-21
1.16148e-21
7.67726e-22
5.29693e-22
4.59436e-22
2.81037e-22
1.14414e-22
4.95269e-23
1.78392e-23
3.9391e-24
1.36092e-24
4.683e-25
6.95553e-25
6.1006e-24
4.37262e-23
4.48384e-22
2.11316e-21
1.18161e-20
8.18564e-20
5.31319e-19
2.59156e-18
7.15726e-18
2.77513e-17
4.82814e-17
9.65944e-16
1.17429e-14
9.79437e-14
4.42775e-13
2.54942e-13
1.20038e-12
1.06662e-13
6.08085e-13
1.91872e-13
3.37965e-14
2.83963e-13
3.41174e-13
2.60584e-15
2.77091e-14
9.32614e-17
1.27209e-15
2.63122e-19
2.60918e-19
1.63964e-19
5.02055e-20
1.66174e-20
5.48057e-21
2.40697e-21
1.23043e-21
7.74272e-22
5.69081e-22
2.89449e-22
9.90879e-23
4.06917e-23
1.04983e-23
2.75274e-24
1.21483e-24
3.15222e-24
2.03999e-23
1.54883e-22
1.27075e-21
9.70877e-21
4.67476e-20
2.06697e-19
1.14816e-18
7.70609e-18
3.15538e-17
1.09016e-16
2.22828e-16
1.69795e-15
5.59625e-14
5.17734e-13
3.57177e-12
4.30207e-12
1.58929e-11
2.98749e-12
1.35305e-11
1.21346e-12
6.89958e-12
2.12709e-12
3.37397e-13
2.99849e-12
3.50142e-12
1.90459e-14
2.68648e-13
5.54383e-16
1.11371e-14
1.0154e-18
1.86245e-18
1.05255e-18
3.76102e-19
1.09168e-19
3.07599e-20
9.87034e-21
3.69833e-21
1.73938e-21
1.0153e-21
5.82187e-22
2.25253e-22
8.48253e-23
2.73154e-23
5.16252e-24
2.724e-24
9.69782e-24
7.26554e-23
6.22359e-22
4.68183e-21
2.59694e-20
2.34229e-19
7.81309e-19
2.88067e-18
1.6611e-17
8.66533e-17
3.13808e-16
1.18213e-15
4.7211e-15
1.06363e-13
2.15698e-12
2.05155e-11
4.42351e-11
1.2666e-10
5.09478e-11
1.81871e-10
3.40569e-11
1.51222e-10
1.35423e-11
7.62162e-11
2.26647e-11
3.33106e-12
3.06842e-11
3.47384e-11
1.793e-13
2.57233e-12
3.97504e-15
1.02116e-13
8.53958e-18
1.25263e-17
7.04893e-18
2.479e-18
7.09242e-19
1.77421e-19
4.93785e-20
1.41701e-20
4.95056e-21
2.20107e-21
1.16748e-21
5.37204e-22
1.76215e-22
4.82879e-23
1.4921e-23
8.82003e-24
3.32483e-23
2.50605e-22
2.38491e-21
1.51293e-20
1.20383e-19
7.49038e-19
4.27386e-18
1.81853e-17
4.7044e-17
2.05846e-16
6.63094e-16
2.58557e-15
1.16406e-14
1.62245e-13
6.83262e-12
9.7419e-11
3.0458e-10
7.27461e-10
5.35203e-10
1.52192e-09
5.78811e-10
2.01849e-09
3.74435e-10
1.62689e-09
1.44501e-10
7.99005e-10
2.30858e-10
3.18956e-11
3.00282e-10
3.29326e-10
1.66674e-12
2.38381e-11
3.77354e-14
9.49995e-13
4.8711e-17
5.74197e-17
4.3681e-17
1.44076e-17
4.72638e-18
1.1919e-18
3.08074e-19
6.92113e-20
1.758e-20
5.87154e-21
2.11886e-21
9.88552e-22
3.28164e-22
1.28661e-22
3.81326e-23
2.28417e-23
1.20574e-22
9.18173e-22
8.17391e-21
7.17245e-20
4.40037e-19
2.94874e-18
1.35535e-17
6.61498e-17
2.0218e-16
6.39106e-16
2.00827e-15
8.1202e-15
2.68237e-14
1.71499e-13
1.32891e-11
2.38246e-10
1.51603e-09
3.42881e-09
3.8402e-09
9.25213e-09
6.11518e-09
1.73175e-08
6.22904e-09
2.12781e-08
3.87332e-09
1.64758e-08
1.45771e-09
7.82882e-09
2.21352e-09
2.9152e-10
2.78021e-09
2.94012e-09
1.50436e-11
2.10696e-10
3.60994e-13
8.65323e-12
1.65151e-16
2.77893e-16
2.17778e-16
1.06018e-16
3.15737e-17
8.59983e-18
2.02307e-18
4.1006e-19
8.63354e-20
2.09333e-20
6.52942e-21
2.41054e-21
8.57865e-22
2.6545e-22
9.55248e-23
9.28558e-23
5.0071e-22
3.94627e-21
3.62758e-20
2.53082e-19
1.88022e-18
1.0696e-17
6.92502e-17
2.47127e-16
7.79668e-16
2.50777e-15
6.83859e-15
2.44155e-14
8.89009e-14
2.83869e-13
7.30124e-12
6.0683e-10
5.78149e-09
8.34178e-09
2.0169e-08
4.49336e-08
4.47097e-08
1.08421e-07
6.49741e-08
1.82262e-07
6.21477e-08
2.07959e-07
3.71642e-08
1.53739e-07
1.36555e-08
7.08803e-08
1.97753e-08
2.50392e-09
2.39645e-08
2.42899e-08
1.30997e-10
1.75443e-09
3.20376e-12
7.37677e-11
9.94213e-16
1.80434e-15
1.18335e-15
6.04073e-16
2.10058e-16
7.58561e-17
1.15637e-17
2.75052e-18
5.14666e-19
9.48957e-20
2.0518e-20
5.58518e-21
1.84972e-21
5.83633e-22
2.37211e-22
2.54044e-22
1.86323e-21
1.54186e-20
1.52203e-19
1.11718e-18
7.94654e-18
4.94794e-17
2.69151e-16
9.88244e-16
3.30618e-15
1.04956e-14
3.06926e-14
8.27812e-14
2.54524e-13
8.39872e-13
7.28665e-12
3.9884e-10
1.5996e-08
1.72715e-08
7.4627e-08
1.12679e-07
2.36879e-07
5.12582e-07
4.70577e-07
1.13165e-06
6.27659e-07
1.7212e-06
5.64831e-07
1.82976e-06
3.25977e-07
1.29508e-06
1.17465e-07
5.8508e-07
1.62449e-07
1.99021e-08
1.8974e-07
1.83637e-07
1.06858e-09
1.34393e-08
2.5405e-11
5.66731e-10
5.24143e-15
1.00201e-14
6.54336e-15
3.10069e-15
1.35924e-15
4.77138e-16
1.0456e-16
1.81677e-17
3.48342e-18
5.43886e-19
8.97686e-20
1.444e-20
4.26809e-21
1.22501e-21
6.21812e-22
6.83769e-22
5.99891e-21
5.56935e-20
5.00184e-19
5.16377e-18
3.7983e-17
2.24717e-16
1.06309e-15
4.49778e-15
1.87416e-14
6.07492e-14
1.69069e-13
3.94415e-13
8.41562e-13
2.20137e-12
1.05524e-11
7.40259e-10
1.90189e-08
8.89245e-09
1.65148e-07
2.02139e-07
8.24081e-07
1.32537e-06
2.4318e-06
4.83538e-06
4.32649e-06
9.91964e-06
5.31667e-06
1.3703e-05
4.54045e-06
1.36935e-05
2.56501e-06
9.41816e-06
9.1581e-07
4.28292e-06
1.20856e-06
1.44678e-07
1.3542e-06
1.25508e-06
7.84795e-09
9.28359e-08
1.773e-10
3.81169e-09
3.29623e-14
6.34558e-14
4.23895e-14
2.02007e-14
8.15755e-15
2.49443e-15
6.88107e-16
1.38717e-16
2.65208e-17
3.53958e-18
4.95658e-19
6.53126e-20
1.27749e-20
3.99791e-21
1.62415e-21
1.65457e-21
1.62866e-20
1.92275e-19
2.06494e-18
1.83811e-17
1.43477e-16
1.06346e-15
5.53982e-15
2.72232e-14
1.11195e-13
3.69866e-13
9.96125e-13
2.20609e-12
4.12659e-12
7.10605e-12
2.05771e-11
3.8146e-10
7.41773e-08
1.98782e-07
1.99304e-07
1.69898e-06
2.20685e-06
7.69568e-06
1.14854e-05
1.9791e-05
3.4547e-05
3.19481e-05
6.54964e-05
3.65281e-05
8.57095e-05
3.00886e-05
8.19653e-05
1.69133e-05
5.58242e-05
6.22995e-06
2.60734e-05
7.75244e-06
9.44594e-07
8.24211e-06
7.29801e-06
4.99558e-08
5.68823e-07
1.03587e-09
2.13084e-08
1.87412e-13
3.86267e-13
2.79159e-13
1.29335e-13
4.85269e-14
1.28095e-14
4.16676e-15
8.80572e-16
1.86991e-16
2.25572e-17
3.13365e-18
3.35154e-19
4.32964e-20
9.92354e-21
3.94182e-21
3.92565e-21
3.27752e-20
5.64922e-19
6.14601e-18
7.2958e-17
7.27688e-16
5.1428e-15
3.32339e-14
1.76565e-13
7.47144e-13
2.44753e-12
6.32086e-12
1.3273e-11
2.36282e-11
3.62419e-11
5.71869e-11
3.13659e-10
2.64784e-08
2.09629e-06
1.696e-06
2.38875e-06
2.34049e-06
1.49034e-05
1.86357e-05
5.23671e-05
7.28672e-05
0.000115181
0.00017856
0.000174779
0.00030335
0.000194443
0.000387448
0.000158959
0.000375572
9.09858e-05
0.000264173
3.54691e-05
0.000131279
4.18599e-05
5.26843e-06
4.24236e-05
3.61686e-05
2.70394e-07
3.038e-06
4.46748e-09
9.77779e-08
9.15221e-13
2.04827e-12
1.63818e-12
8.43025e-13
3.39493e-13
8.25771e-14
2.32618e-14
4.79985e-15
1.04006e-15
1.80276e-16
1.94391e-17
2.24004e-18
2.32722e-19
3.13711e-20
1.33831e-20
9.54365e-21
5.7442e-20
1.23985e-18
2.07727e-17
2.43599e-16
2.79798e-15
2.49886e-14
1.93122e-13
1.14783e-12
5.21477e-12
1.78004e-11
4.46434e-11
8.83042e-11
1.49203e-10
2.18266e-10
2.72008e-10
6.13103e-10
8.75314e-09
1.21434e-06
7.56755e-07
1.9522e-05
1.74746e-05
2.09182e-05
2.08738e-05
9.24044e-05
0.000110651
0.000250213
0.000323952
0.000462807
0.000635254
0.000640727
0.000931687
0.000713769
0.00111456
0.000628252
0.00111654
0.000389077
0.000909605
0.000168296
0.0005144
0.000189286
2.5405e-05
0.000184325
0.000153424
1.33739e-06
1.43922e-05
1.25858e-08
3.82711e-07
3.54329e-12
8.95267e-12
8.20682e-12
4.79914e-12
2.16369e-12
5.58502e-13
1.2355e-13
3.15775e-14
7.23264e-15
1.30093e-15
1.25431e-16
1.17525e-17
1.37453e-18
2.09348e-19
7.2538e-20
4.81315e-20
8.66176e-20
1.88946e-18
4.90823e-17
8.80553e-16
1.06491e-14
1.16651e-13
1.03316e-12
7.10255e-12
3.59121e-11
1.32502e-10
3.49721e-10
6.84528e-10
1.08451e-09
1.47726e-09
1.61155e-09
2.21442e-09
1.8414e-08
5.60126e-07
2.3181e-08
1.37917e-05
9.97932e-06
0.000124743
0.000117475
0.000124926
0.000127642
0.000392785
0.000451699
0.000806401
0.000962995
0.00123033
0.0015095
0.00153336
0.00194707
0.00165622
0.00219273
0.00154879
0.00220081
0.00119184
0.00195334
0.000611983
0.00143442
0.000650943
0.000106225
0.000620194
0.000523898
5.91334e-06
5.81657e-05
3.27882e-08
1.42696e-06
8.81968e-12
2.95927e-11
3.29946e-11
2.30276e-11
1.19576e-11
3.47156e-12
8.64947e-13
2.01404e-13
4.40185e-14
8.71239e-15
7.09076e-16
7.8645e-17
8.02825e-18
9.59174e-19
3.21062e-19
1.66935e-19
1.37562e-19
2.3816e-18
7.37419e-17
1.99086e-15
3.48681e-14
4.82544e-13
4.98231e-12
3.89014e-11
2.31037e-10
9.51999e-10
2.86168e-09
5.98299e-09
9.51597e-09
1.09729e-08
1.04506e-08
1.09307e-08
2.68825e-08
1.6423e-06
6.90079e-06
5.02343e-06
0.000102682
8.44518e-05
0.000511196
0.000496719
0.000497525
0.000515249
0.00109829
0.00120343
0.00175849
0.00196697
0.00231917
0.00263962
0.00268211
0.00313451
0.00281969
0.00338587
0.0027025
0.0033877
0.00230338
0.00312416
0.0016024
0.00258095
0.00165873
0.000370793
0.0015896
0.00136594
2.37431e-05
0.000207903
8.98265e-08
5.00719e-06
6.21596e-11
9.81758e-11
8.64985e-11
5.47134e-11
1.94017e-11
5.68722e-12
1.25438e-12
2.66361e-13
5.30624e-14
5.31906e-15
3.65702e-16
4.60424e-17
5.42432e-18
1.31914e-18
6.26126e-19
4.87459e-19
2.57812e-18
9.04123e-17
3.10718e-15
9.31405e-14
1.63333e-12
2.11803e-11
1.91681e-10
1.26001e-09
6.34595e-09
2.17436e-08
5.95368e-08
1.01151e-07
9.88313e-08
8.09674e-08
6.19201e-08
6.66172e-08
6.25175e-07
3.77293e-05
2.88674e-05
6.59663e-05
4.93427e-05
0.000463921
0.000417589
0.00129641
0.0012703
0.00127842
0.00130423
0.00213357
0.00224958
0.0029052
0.00310475
0.00347641
0.00369536
0.00380611
0.00401641
0.00393707
0.00420629
0.00383645
0.00428681
0.00344744
0.00415659
0.00275136
0.00367388
0.00280399
0.000994893
0.00272127
0.0024861
8.52672e-05
0.000603824
3.67549e-07
2.10428e-05
1.84604e-10
2.37638e-10
1.91185e-10
9.2878e-11
3.19693e-11
7.61043e-12
1.32488e-12
3.09756e-13
3.88446e-14
2.21735e-15
2.05466e-16
2.66301e-17
5.1254e-18
2.34514e-18
1.63435e-18
2.70832e-18
8.9802e-17
3.77643e-15
1.48263e-13
4.45714e-12
7.38044e-11
8.29668e-10
6.24282e-09
3.47053e-08
1.60601e-07
4.74316e-07
6.65004e-07
6.55164e-07
5.42064e-07
3.89619e-07
2.75561e-07
7.96793e-07
2.06132e-05
1.14514e-05
0.000246517
0.000196023
0.000362077
0.000306288
0.00121477
0.00113683
0.00231334
0.00226914
0.00232252
0.00233051
0.0032419
0.00332149
0.00381048
0.0038719
0.00410858
0.00412657
0.0043059
0.00428908
0.00446011
0.00445137
0.00453385
0.00462219
0.00437022
0.00470548
0.00380001
0.00450124
0.0038291
0.00206341
0.00373675
0.00356556
0.00289679
0.000300195
0.00149294
3.43573e-06
0.00011095
3.45771e-10
4.2524e-10
3.62838e-10
1.47559e-10
3.99737e-11
7.1899e-12
1.71459e-12
2.23817e-13
1.70014e-14
1.13084e-15
1.04375e-16
1.67941e-17
7.88076e-18
5.03608e-18
4.30805e-18
7.06131e-17
3.67002e-15
1.72103e-13
7.08073e-12
2.08904e-10
3.06584e-09
2.69307e-08
1.73877e-07
8.59792e-07
2.64341e-06
4.78263e-06
5.20214e-06
3.65843e-06
2.09531e-06
1.15306e-06
1.40399e-06
2.85345e-05
0.000141692
0.00011573
0.000820501
0.000701521
0.00104407
0.000940119
0.00218531
0.00208112
0.00330809
0.00324577
0.00334905
0.00333916
0.00389716
0.00389934
0.00411354
0.00409615
0.00425601
0.00419488
0.00439822
0.00428655
0.00457231
0.00443661
0.00475133
0.00465064
0.00483747
0.00486201
0.00458116
0.00491666
0.0047757
0.00420133
0.00456965
0.00337684
0.00247527
0.00324771
0.00407276
0.0045223
0.00451756
0.00398947
0.000898992
0.00299843
0.00281391
0.00194195
9.48538e-05
0.000648746
5.12298e-10
6.45709e-10
5.65178e-10
1.83066e-10
3.69567e-11
8.30719e-12
1.16934e-12
1.10461e-13
5.91377e-15
4.64901e-16
9.00204e-17
2.52876e-17
1.48178e-17
9.55419e-18
4.71863e-17
2.70144e-15
1.62703e-13
8.16494e-12
3.37444e-10
9.21534e-09
1.11888e-07
6.9818e-07
3.69415e-06
1.34908e-05
2.95309e-05
3.48932e-05
2.47106e-05
1.30232e-05
6.49174e-06
3.57864e-06
2.32859e-05
0.000376293
0.000233865
0.000571967
0.000460575
0.00165853
0.00149916
0.00195621
0.00181731
0.0031553
0.00304513
0.00385351
0.00381983
0.00389256
0.00387796
0.00407675
0.00406399
0.00414245
0.00411645
0.00414862
0.00408687
0.00419869
0.00403621
0.00439845
0.0040803
0.00478268
0.00466028
0.00450993
0.00430527
0.00495962
0.00493141
0.00468857
0.00469566
0.00485613
0.00493315
0.00480962
0.0049811
0.00499958
0.00481824
0.00387627
0.00372229
0.00445916
0.00480357
0.00482095
0.00438923
0.00257831
0.00151863
0.00245394
0.00356198
0.00340186
0.00180948
0.00241755
0.0026495
0.00192529
7.89697e-10
9.34972e-10
7.56105e-10
1.71424e-10
2.91578e-11
7.17473e-12
6.74208e-13
4.19712e-14
2.44244e-15
3.33539e-16
8.97799e-17
3.9565e-17
3.12933e-17
4.02021e-17
1.42837e-15
1.08465e-13
7.52778e-12
3.95605e-10
1.56468e-08
2.71327e-07
2.05986e-06
1.28905e-05
5.09455e-05
0.000126527
0.000169128
0.000137235
7.7326e-05
3.48161e-05
1.24602e-05
2.23084e-05
0.000389672
0.000963741
0.000882523
0.00131848
0.00116924
0.00259355
0.00241109
0.00291254
0.00276513
0.00377401
0.00371384
0.00403559
0.00402231
0.00405496
0.00404629
0.00411003
0.0041167
0.00409564
0.00414065
0.00403119
0.00412694
0.003935
0.00401703
0.00412828
0.00395409
0.0038787
0.0038773
0.00450377
0.00429041
0.00407156
0.00498059
0.0048943
0.00449815
0.00450406
0.00473125
0.0050363
0.00499923
0.00507048
0.00501803
0.00501557
0.00429329
0.00418317
0.00476859
0.00502183
0.00501634
0.00471786
0.0032988
0.00333187
0.00407136
0.00399211
0.00428366
0.000437879
0.0033142
0.00363239
0.00425502
1.10517e-09
1.23421e-09
7.75322e-10
1.28516e-10
1.87965e-11
4.81671e-12
2.68067e-13
1.35647e-14
1.14837e-15
2.77158e-16
1.48344e-16
1.00334e-16
6.98177e-17
8.14016e-16
5.56827e-14
4.76471e-12
3.57159e-10
1.76505e-08
3.91696e-07
3.5001e-06
2.73816e-05
0.000124093
0.000328378
0.000506112
0.000503788
0.000321154
0.000143509
4.8535e-05
3.23865e-05
0.000261338
0.00141482
0.00110143
0.0017993
0.00162186
0.00220604
0.00201576
0.00340388
0.00325758
0.00363242
0.00353102
0.00400501
0.0039826
0.00412267
0.00411255
0.00412463
0.00412692
0.00421893
0.00430023
0.00433269
0.00460259
0.00431962
0.00480373
0.00395445
0.00413405
0.00437853
0.00471633
0.00390231
0.00382799
0.00385201
0.00398447
0.00426462
0.00403266
0.00385867
0.00492763
0.00475433
0.0042478
0.00424019
0.00451443
0.005054
0.00509704
0.0050872
0.004959
0.00511959
0.0046546
0.00458656
0.00500019
0.00513559
0.00514562
0.00497489
0.00400384
0.00421257
0.00453333
0.00453022
0.00454283
0.000682741
0.00321131
0.0046412
0.00496003
1.52067e-09
1.3981e-09
5.29263e-10
7.7039e-11
1.13162e-11
1.54474e-12
8.50805e-14
5.88623e-15
8.88976e-16
3.86065e-16
2.48164e-16
2.15018e-16
4.33568e-16
2.60013e-14
2.29362e-12
2.15425e-10
1.52732e-08
4.14602e-07
4.30265e-06
3.90384e-05
0.000195542
0.000537474
0.000875829
0.00097835
0.000801351
0.000451344
0.000162518
7.19555e-05
0.000231683
0.00136146
0.00223579
0.00219313
0.00268766
0.00252229
0.00308063
0.00290433
0.00385948
0.00378725
0.00395492
0.00391597
0.0040949
0.0040733
0.00434344
0.00430342
0.00435379
0.00436137
0.00484996
0.00502915
0.00536111
0.00588289
0.00506177
0.00547938
0.00583853
0.00623225
0.00422578
0.00456354
0.00497492
0.00543192
0.00380742
0.00385443
0.00404022
0.00434833
0.00400222
0.00383129
0.00378977
0.00477704
0.00452504
0.00398242
0.00397138
0.00423701
0.00499107
0.00511746
0.00502346
0.00480247
0.00514534
0.00494576
0.0049218
0.00515044
0.00517009
0.00519298
0.00515247
0.0046346
0.00488073
0.00492307
0.00497966
0.004638
0.00137761
0.00389456
0.00516309
0.00520388
2.00626e-09
1.52584e-09
3.06171e-10
3.83714e-11
6.27441e-12
4.81228e-13
3.1843e-14
4.41015e-15
1.63768e-15
8.65845e-16
8.78221e-16
4.27347e-16
1.139e-14
9.54581e-13
9.79017e-11
8.61686e-09
3.51956e-07
4.25508e-06
4.38873e-05
0.000241669
0.000703025
0.00119639
0.00143239
0.0013354
0.000948907
0.000443152
0.000178461
0.000251803
0.00111395
0.00280795
0.0024654
0.00312093
0.00295033
0.00343937
0.0033064
0.0036897
0.00358108
0.00400596
0.00397968
0.00405093
0.00402934
0.00423941
0.00417
0.00498614
0.00483876
0.00509829
0.00506948
0.00624309
0.00640165
0.0070557
0.00728429
0.00589807
0.00634458
0.00674334
0.00708016
0.00476515
0.00525915
0.00578947
0.00631007
0.00387187
0.00410529
0.00447488
0.00496324
0.00381571
0.00378664
0.00389738
0.00453987
0.00424025
0.00380892
0.00380942
0.00396615
0.00483295
0.00505607
0.00486641
0.0045612
0.00508966
0.00515657
0.00517435
0.00521581
0.00512353
0.00515973
0.00524264
0.00511632
0.00530554
0.00522049
0.00531022
0.00493987
0.00208356
0.00400652
0.00544097
0.00540133
2.22163e-09
1.08131e-09
1.51507e-10
3.29163e-11
2.37353e-12
1.61433e-13
2.07568e-14
6.58171e-15
3.43921e-15
2.15469e-15
1.09825e-15
5.81659e-15
3.669e-13
3.71503e-11
4.00194e-09
2.07825e-07
3.43115e-06
4.17134e-05
0.000254507
0.000797996
0.00143998
0.0018121
0.00184552
0.00154309
0.000962092
0.000413911
0.000344379
0.00108728
0.00278943
0.00345271
0.00347954
0.00369455
0.00361037
0.00384777
0.00378796
0.00394496
0.00390472
0.0040008
0.00396688
0.0041042
0.00404713
0.00464933
0.00445378
0.00605098
0.00577579
0.00635357
0.00624337
0.00720032
0.0069964
0.00766158
0.00764421
0.00745222
0.00757294
0.00678225
0.00718075
0.00748434
0.00764461
0.00552661
0.00611143
0.00666339
0.00713768
0.00417094
0.0045951
0.00514248
0.00576014
0.00379077
0.00392208
0.0042323
0.00425087
0.00396907
0.00380063
0.00381601
0.00381807
0.00459064
0.00490289
0.00462529
0.00427072
0.00494342
0.00527857
0.00533104
0.00520002
0.00498918
0.0050419
0.00524913
0.00543856
0.00556766
0.00540849
0.00551285
0.00500392
0.000384259
0.0024514
0.00562676
0.00548184
2.21159e-09
5.43833e-10
7.88951e-11
1.2135e-11
8.02224e-13
1.08128e-13
3.37072e-14
1.78574e-14
9.27453e-15
3.03286e-15
4.79363e-15
1.48046e-13
1.28333e-11
1.4313e-09
1.04819e-07
2.04858e-06
3.36753e-05
0.00024405
0.000817333
0.00157132
0.00203487
0.00218818
0.00209612
0.00167131
0.000965295
0.000599231
0.0011646
0.00271893
0.00378352
0.00365738
0.00384453
0.00382841
0.0038995
0.003884
0.00391977
0.0039116
0.00394299
0.00392994
0.00396927
0.00386149
0.00426966
0.00410746
0.00542248
0.00503256
0.00646295
0.00629922
0.00679903
0.00661813
0.00731418
0.00713762
0.00669753
0.00776359
0.00766408
0.00727828
0.00750935
0.00751226
0.00774463
0.00783419
0.00783243
0.00638253
0.00694852
0.00741274
0.00774715
0.00470149
0.00529713
0.00595469
0.00660196
0.00395327
0.00428386
0.00479219
0.00397984
0.00383188
0.00397642
0.00399259
0.00383235
0.00429959
0.00466606
0.00433513
0.00399967
0.00471476
0.00531322
0.00539723
0.00510336
0.00477268
0.00484209
0.00517715
0.00562939
0.00572448
0.00550368
0.00562464
0.00452237
0.000215058
0.00197881
0.00572534
0.00539777
1.7866e-09
2.39087e-10
5.19327e-11
4.13465e-12
6.19105e-13
1.95355e-13
9.80784e-14
4.99607e-14
1.58016e-14
6.73489e-15
8.44929e-14
4.48668e-12
4.43323e-10
3.93618e-08
1.16918e-06
2.02186e-05
0.000197875
0.00079002
0.00159835
0.00209101
0.00230536
0.00238989
0.00228445
0.00186061
0.00128146
0.00145007
0.00276068
0.00384981
0.00396276
0.00401978
0.00389599
0.00393606
0.00381506
0.00385873
0.00375373
0.00377482
0.00378826
0.00375432
0.00398826
0.00372289
0.0046544
0.00430314
0.00608412
0.0057274
0.00622987
0.0062428
0.00639739
0.00625735
0.00701001
0.00671861
0.00587806
0.00557264
0.00771752
0.00749706
0.00687795
0.00721163
0.00790946
0.0079565
0.00792816
0.00785221
0.00717074
0.00761733
0.00790491
0.00802402
0.00542584
0.00611432
0.00677636
0.00734255
0.00432576
0.00486331
0.00553169
0.00384969
0.00384968
0.0043531
0.00437055
0.00400543
0.00402652
0.00437935
0.00406
0.00387088
0.0044352
0.00526694
0.00538035
0.00492511
0.00450383
0.00458764
0.00502815
0.00574159
0.00581444
0.00551932
0.00566797
0.00414293
0.000281914
0.00208894
0.00575629
0.00529887
9.85947e-10
1.18657e-10
1.98227e-11
3.64661e-12
1.25936e-12
5.68575e-13
2.95339e-13
1.1224e-13
1.9565e-14
8.11619e-14
1.96357e-12
1.36113e-10
1.28339e-08
6.18154e-07
1.04173e-05
0.000133546
0.000686957
0.00155704
0.00204579
0.0022737
0.0024073
0.0025109
0.00252125
0.00231029
0.00222703
0.00296243
0.00389959
0.00406097
0.00409899
0.00392995
0.00401723
0.00374713
0.00384893
0.00352368
0.00363694
0.00341216
0.00343812
0.00353008
0.00342878
0.00407049
0.00355392
0.00521421
0.00464077
0.00619501
0.00601685
0.00528328
0.00559608
0.00542442
0.00532523
0.00508348
0.00652002
0.00616874
0.00522527
0.00497282
0.00750961
0.00720619
0.0064332
0.00684415
0.0080434
0.00800782
0.00791639
0.00774947
0.00776889
0.0080144
0.00810552
0.00811425
0.00624432
0.00691709
0.00747602
0.00788478
0.00491913
0.0056151
0.0063521
0.00386672
0.00401502
0.00495863
0.00498535
0.00438011
0.00389335
0.00410319
0.00391773
0.00388193
0.00415788
0.00515389
0.00530725
0.00469373
0.0042277
0.00431948
0.00482973
0.00580375
0.00586687
0.00548216
0.00566788
0.00408231
0.000368274
0.00237238
0.00576998
0.00526632
5.38264e-10
9.04478e-11
2.11876e-11
8.31795e-12
3.73683e-12
1.69528e-12
7.90303e-13
9.83584e-14
1.08693e-13
1.45691e-12
4.94842e-11
3.85967e-09
2.4673e-07
5.15291e-06
7.93667e-05
0.000524826
0.00142724
0.001925
0.00213382
0.00229591
0.00245863
0.00266427
0.00287588
0.00307519
0.00349542
0.00401919
0.00416038
0.00399964
0.00405786
0.00377649
0.00390337
0.00345956
0.00362884
0.0031062
0.00328138
0.00293736
0.0029761
0.00317072
0.00297162
0.00410711
0.00329416
0.00561945
0.00494472
0.0058616
0.00589237
0.00463459
0.00484074
0.00501108
0.00481184
0.004746
0.00450258
0.00437851
0.00600067
0.00558494
0.00469152
0.00445656
0.00727718