/*--------------------------------*- C++ -*----------------------------------*\
  =========                 |
  \\      /  F ield         | OpenFOAM: The Open Source CFD Toolbox
   \\    /   O peration     | Website:  https://openfoam.org
    \\  /    A nd           | Version:  dev
     \\/     M anipulation  |
\*---------------------------------------------------------------------------*/
FoamFile
{
    version     2.0;
    format      ascii;
    class       volScalarField;
    location    "2500";
    object      G;
}
// * * * * * * * * * * * * * * * * * * * * * * * * * * * * * * * * * * * * * //

dimensions      [1 0 -3 0 0 0 0];

internalField   nonuniform List<scalar> 
9836
(
4038.16
4044.01
4045.48
4049.12
4051.35
4053.58
4053.5
4056.48
4059.46
4062.45
4057.15
4060.86
4064.59
4068.34
4072.1
4060.08
4064.51
4068.97
4073.47
4078.01
4082.56
4062.31
4067.44
4072.61
4077.84
4083.14
4088.48
4093.85
4063.85
4069.66
4075.52
4081.46
4087.49
4093.6
4099.77
4105.98
4064.73
4071.19
4077.71
4084.34
4091.08
4097.93
4104.88
4111.91
4118.99
4064.96
4072.04
4079.21
4086.49
4093.91
4101.47
4109.17
4117
4124.93
4132.91
4064.56
4072.25
4080.03
4087.93
4096
4104.23
4112.65
4121.24
4129.99
4138.85
4147.78
4063.57
4071.83
4080.19
4088.69
4097.37
4106.24
4115.34
4124.65
4134.17
4143.87
4153.71
4163.64
4062.01
4070.81
4079.71
4088.78
4098.04
4107.52
4117.25
4127.24
4137.49
4147.99
4158.7
4169.57
4180.54
4059.91
4069.21
4078.64
4088.23
4098.03
4108.08
4118.4
4129.03
4139.96
4151.2
4162.73
4174.5
4186.46
4198.54
4057.29
4067.08
4076.98
4087.07
4097.37
4107.95
4118.83
4130.04
4141.61
4153.53
4165.81
4178.43
4191.33
4204.44
4217.7
4054.19
4064.42
4074.78
4085.32
4096.1
4107.16
4118.55
4130.3
4142.45
4155
4167.98
4181.36
4195.13
4209.24
4223.59
4238.11
4050.64
4061.28
4072.06
4083.02
4094.23
4105.74
4117.6
4129.84
4142.51
4155.65
4169.25
4183.34
4197.9
4212.9
4228.29
4243.97
4259.85
4046.67
4057.69
4068.85
4080.21
4091.81
4103.73
4116.01
4128.7
4141.84
4155.49
4169.66
4184.38
4199.65
4215.47
4231.8
4248.56
4265.68
4283.02
4042.3
4053.67
4065.19
4076.9
4088.86
4101.15
4113.81
4126.9
4140.47
4154.57
4169.24
4184.52
4200.43
4216.97
4234.13
4251.88
4270.14
4288.8
4307.72
4037.57
4049.26
4061.1
4073.13
4085.42
4098.04
4111.04
4124.48
4138.42
4152.93
4168.04
4183.8
4200.26
4217.44
4235.33
4253.94
4273.22
4293.1
4313.45
4334.1
4032.51
4044.49
4056.61
4068.94
4081.52
4094.43
4107.73
4121.49
4135.76
4150.6
4166.09
4182.27
4199.19
4216.91
4235.45
4254.8
4274.97
4295.92
4317.56
4339.75
4362.3
4027.14
4039.38
4051.76
4064.35
4077.19
4090.37
4103.93
4117.95
4132.5
4147.64
4163.44
4179.97
4197.29
4215.45
4234.52
4254.51
4275.44
4297.31
4320.08
4343.65
4367.86
4392.5
4021.5
4033.97
4046.58
4059.4
4072.47
4085.87
4099.66
4113.91
4128.7
4144.08
4160.14
4176.96
4194.59
4213.11
4232.6
4253.11
4274.68
4297.33
4321.05
4345.8
4371.5
4397.95
4424.9
4015.62
4028.29
4041.1
4054.11
4067.38
4080.98
4094.96
4109.41
4124.39
4139.97
4156.24
4173.28
4191.16
4209.96
4229.78
4250.69
4272.76
4296.03
4320.53
4346.28
4373.23
4401.27
4430.21
4459.74
4009.51
4022.36
4035.35
4048.53
4061.97
4075.73
4089.87
4104.47
4119.61
4135.35
4151.78
4168.98
4187.05
4206.06
4226.12
4247.31
4269.74
4293.49
4318.62
4345.16
4373.13
4402.5
4433.16
4464.87
4497.38
4003.21
4016.21
4029.34
4042.67
4056.25
4070.14
4084.42
4099.15
4114.4
4130.26
4146.8
4164.12
4182.31
4201.46
4221.68
4243.07
4265.74
4289.81
4315.38
4342.53
4371.3
4401.73
4433.8
4467.38
4502.29
4538.16
3996.75
4009.87
4023.13
4036.57
4050.27
4064.27
4078.64
4093.46
4108.8
4124.74
4141.36
4158.75
4177.01
4196.23
4216.53
4238.03
4260.84
4285.09
4310.93
4338.49
4367.84
4399.07
4432.23
4467.31
4504.25
4542.79
4582.42
3990.13
4003.36
4016.71
4030.26
4044.04
4058.12
4072.57
4087.46
4102.85
4118.84
4135.49
4152.91
4171.19
4190.43
4210.75
4232.27
4255.12
4279.45
4305.4
4333.16
4362.87
4394.66
4428.61
4464.81
4503.33
4544.09
4586.72
4630.66
3983.4
3996.7
4010.14
4023.75
4037.6
4051.74
4066.24
4081.17
4096.59
4112.58
4129.24
4146.65
4164.9
4184.11
4204.39
4225.86
4248.67
4272.97
4298.92
4326.71
4356.54
4388.62
4423.08
4460.05
4499.72
4542.16
4587.2
4634.5
4683.41
3976.57
3989.93
4003.42
4017.08
4030.98
4045.15
4059.68
4074.62
4090.04
4106.02
4122.65
4140.01
4158.2
4177.33
4197.52
4218.89
4241.58
4265.75
4291.58
4319.27
4349.03
4381.13
4415.79
4453.22
4493.61
4537.2
4584.04
4633.99
4686.72
4741.4
3969.65
3983.05
3996.57
4010.27
4024.19
4038.38
4052.91
4067.84
4083.24
4099.18
4115.75
4133.04
4151.14
4170.15
4190.2
4211.4
4233.91
4257.88
4283.5
4310.97
4340.52
4372.42
4406.97
4444.49
4485.23
4529.49
4577.49
4629.35
4684.99
4744.06
4805.53
3962.66
3976.09
3989.64
4003.34
4017.26
4031.45
4045.96
4060.86
4076.22
4092.1
4108.59
4125.78
4143.75
4162.61
4182.48
4203.48
4225.75
4249.45
4274.77
4301.92
4331.13
4362.67
4396.88
4434.13
4474.81
4519.3
4567.88
4620.88
4678.52
4740.8
4807.33
4876.79
3955.62
3969.06
3982.62
3996.32
4010.23
4024.39
4038.87
4053.72
4069.01
4084.81
4101.19
4118.25
4136.08
4154.76
4174.42
4195.17
4217.16
4240.55
4265.5
4292.23
4320.99
4352.05
4385.74
4422.45
4462.66
4506.89
4555.54
4608.99
4667.73
4732.07
4802.19
4877.58
4956.49
3948.56
3961.98
3975.53
3989.22
4003.1
4017.23
4031.65
4046.43
4061.64
4077.33
4093.59
4110.5
4128.15
4146.64
4166.06
4186.54
4208.22
4231.23
4255.77
4282.03
4310.24
4340.7
4373.73
4409.72
4449.15
4492.64
4540.81
4594.1
4653.1
4718.44
4790.61
4870.16
4956.07
5022.33
5024.26
3941.48
3954.87
3968.4
3982.07
3995.91
4009.98
4024.34
4039.03
4054.14
4069.71
4085.82
4102.56
4120.01
4138.27
4157.44
4177.63
4198.96
4221.59
4245.66
4271.39
4299
4328.77
4361.01
4396.13
4434.6
4477.02
4524.13
4576.62
4635.16
4700.5
4773.51
4854.87
4946.19
5023.47
5019.73
5070.18
5071.9
3934.41
3947.76
3961.25
3974.87
3988.66
4002.67
4016.94
4031.54
4046.53
4061.97
4077.92
4094.48
4111.71
4129.72
4148.61
4168.47
4189.45
4211.65
4235.25
4260.42
4287.38
4316.39
4347.77
4381.89
4419.23
4460.37
4506.06
4557.1
4614.42
4678.91
4751.56
4833.6
4914.09
4902.74
5013.36
4951.61
5004.01
5070.53
5066.04
5121.32
5122.75
3927.37
3940.65
3954.09
3967.66
3981.38
3995.32
4009.5
4023.99
4038.84
4054.13
4069.91
4086.27
4103.28
4121.03
4139.61
4159.13
4179.71
4201.48
4224.58
4249.17
4275.46
4303.68
4334.13
4367.18
4403.27
4442.97
4487
4536.18
4591.56
4654.29
4725.55
4806.69
4889.99
4875.47
4939.49
5058.53
4992.14
5047.96
5120.74
5115.35
5176.08
5177.16
3920.35
3933.56
3946.94
3960.43
3974.09
3987.93
4002.02
4016.39
4031.11
4046.23
4061.83
4077.97
4094.73
4112.2
4130.48
4149.65
4169.83
4191.13
4213.71
4237.7
4263.3
4290.72
4320.22
4352.15
4386.92
4425.06
4467.29
4514.37
4567.33
4627.48
4696.29
4775.34
4859.8
4842.71
4925.22
4909.13
4978.26
5106.62
5034.68
5094.61
5174.42
5167.97
5234.84
5235.55
3913.37
3926.51
3939.8
3953.22
3966.79
3980.54
3994.51
4008.76
4023.33
4038.29
4053.69
4069.6
4086.11
4103.3
4121.25
4140.05
4159.82
4180.67
4202.71
4226.09
4250.98
4277.58
4306.13
4336.93
4370.36
4406.89
4447.19
4492.03
4542.34
4599.39
4664.79
4740.46
4824.67
4805.45
4891.65
4872.86
4962.22
4944.29
5019.04
5157.88
5079.65
5144.24
5231.95
5224.26
5298.02
5298.33
3906.45
3919.5
3932.71
3946.03
3959.5
3973.15
3987.01
4001.12
4015.54
4030.32
4045.52
4061.2
4077.45
4094.34
4111.95
4130.38
4149.73
4170.1
4191.62
4214.4
4238.59
4264.37
4291.96
4321.62
4353.7
4388.63
4426.98
4469.48
4517.01
4570.73
4632.17
4703.34
4785.49
4764.72
4852.93
4831.92
4924.88
4904.13
5001.06
4981.09
5062.05
5212.61
5127.34
5197.11
5293.74
5284.6
5366.06
5366
3899.58
3912.54
3925.66
3938.88
3952.25
3965.78
3979.51
3993.49
4007.74
4022.34
4037.33
4052.79
4068.77
4085.35
4102.62
4120.67
4139.59
4159.48
4180.46
4202.65
4226.16
4251.16
4277.82
4306.36
4337.09
4370.41
4406.85
4447.01
4491.7
4541.99
4599.27
4665.39
4743.67
4722.28
4810.04
4787.46
4882.17
4859.13
4959.54
4936.59
5041.93
5019.67
5107.51
5271.13
5177.96
5253.43
5360.34
5349.48
5439.59
5439.11
3892.79
3905.64
3918.66
3931.78
3945.04
3958.45
3972.04
3985.87
3999.96
4014.38
4029.16
4044.37
4060.08
4076.36
4093.28
4110.95
4129.44
4148.85
4169.29
4190.88
4213.72
4237.95
4263.74
4291.22
4320.68
4352.42
4386.95
4424.81
4466.7
4513.56
4566.65
4627.58
4700.96
4679.69
4764.53
4741.41
4835.17
4810.57
4912.39
4887.09
4995.71
4970.29
5085.01
5060.19
5155.6
5333.85
5231.71
5313.6
5432.21
5419.35
5519.25
5518.23
3886.07
3898.81
3911.73
3924.74
3937.87
3951.16
3964.62
3978.29
3992.22
4006.44
4021
4035.97
4051.41
4067.38
4083.96
4101.23
4119.29
4138.23
4158.14
4179.13
4201.31
4224.8
4249.73
4276.23
4304.51
4334.8
4367.48
4403.1
4442.26
4485.76
4534.71
4590.53
4658.71
4637.96
4718.35
4695.49
4785.63
4760.58
4860.86
4834.02
4943.6
4915.78
5033.47
5005.29
5130.43
5102.69
5206.48
5401.23
5288.94
5378.05
5509.91
5494.85
5605.89
5604.22
3879.43
3892.06
3904.86
3917.76
3930.78
3943.93
3957.25
3970.76
3984.51
3998.54
4012.89
4027.61
4042.77
4058.43
4074.66
4091.55
4109.17
4127.63
4147.01
4167.42
4188.97
4211.73
4235.84
4261.4
4288.57
4317.55
4348.57
4382.08
4418.63
4458.9
4503.83
4554.66
4617.58
4597.55
4672.96
4650.79
4735.66
4711.06
4806.89
4779.74
4887.04
4857.77
4975.8
4945.15
5072.88
5041.6
5178.25
5147.21
5260.44
5473.81
5350.07
5447.23
5594.36
5576.78
5700.47
5698.05
3872.87
3885.39
3898.08
3910.86
3923.75
3936.77
3949.94
3963.29
3976.87
3990.7
4004.83
4019.31
4034.19
4049.54
4065.43
4081.92
4099.11
4117.08
4135.94
4155.77
4176.68
4198.76
4222.1
4246.79
4272.92
4300.66
4330.19
4361.82
4395.99
4433.27
4474.42
4520.44
4577.98
4559.11
4629.05
4607.74
4686.88
4663.18
4752.82
4726.33
4828.27
4798.85
4913.68
4881.81
5009.02
4975.3
5113.99
5079.33
5228.67
5193.93
5317.82
5552.27
5415.41
5521.63
5686.41
5665.87
5804.07
5800.69
3866.41
3878.81
3891.38
3904.04
3916.8
3929.68
3942.7
3955.9
3969.3
3982.93
3996.84
4011.08
4025.69
4040.73
4056.27
4072.37
4089.13
4106.62
4124.94
4144.2
4164.48
4185.89
4208.5
4232.37
4257.58
4284.2
4312.37
4342.29
4374.33
4408.94
4446.68
4488.37
4534.96
4587.02
4567.13
4639.98
4617.29
4700.39
4675.06
4769.79
4741.32
4849.82
4818.06
4940.95
4906.44
5043.45
5006.64
5157
5118.82
5281.98
5243.16
5378.87
5637.31
5485.34
5601.89
5786.9
5763.02
5918.05
5913.47
3860.04
3872.32
3884.78
3897.31
3909.94
3922.68
3935.55
3948.58
3961.8
3975.24
3988.93
4002.93
4017.26
4032
4047.2
4062.92
4079.24
4096.26
4114.05
4132.73
4152.38
4173.12
4195.02
4218.14
4242.51
4268.15
4295.13
4323.54
4353.67
4385.86
4420.6
4458.45
4500.26
4553.96
4534.61
4595.33
4574.27
4650.34
4626.24
4713.55
4686.51
4786.84
4756.38
4872.02
4837.99
4969.53
4932.51
5079.76
5040.16
5202.47
5161.08
5338.58
5295.76
5444.1
5729.85
5560.62
5689.01
5897.04
5869.28
6044.1
6038.01
3853.76
3865.93
3878.26
3890.67
3903.17
3915.77
3928.49
3941.36
3954.4
3967.64
3981.12
3994.87
4008.94
4023.38
4038.24
4053.58
4069.48
4086.02
4103.29
4121.38
4140.41
4160.47
4181.66
4204.05
4227.65
4252.46
4278.43
4305.58
4334.06
4364.1
4396.13
4430.57
4468.18
4516.15
4498.56
4559.67
4539.5
4603
4580.84
4660.23
4634.68
4726.76
4698.02
4804.65
4772.21
4895.7
4859.45
5000.45
4961.05
5119.29
5077.18
5251.83
5207.85
5399.59
5353.66
5514.96
5830.87
5642.91
5784.58
6018.25
5985.79
6184.15
6176.2
3847.58
3859.63
3871.84
3884.13
3896.49
3908.95
3921.52
3934.23
3947.09
3960.14
3973.4
3986.92
4000.73
4014.87
4029.4
4044.37
4059.86
4075.93
4092.68
4110.19
4128.58
4147.96
4168.44
4190.1
4212.97
4237.02
4262.17
4288.31
4315.43
4343.69
4373.33
4404.77
4438.48
4481.78
4465.87
4520.31
4502.08
4564.69
4543.65
4610.14
4586.83
4670.14
4643.13
4740.76
4710.3
4824.09
4789.8
4922.15
4883.98
5035.41
4994.17
5164.04
5120.34
5307.6
5262.19
5467.45
5420.19
5594.44
5941.92
5735.57
5892.37
6152.36
6114.55
6340.33
6330.15
3841.58
3853.43
3865.53
3877.68
3889.92
3902.24
3914.66
3927.21
3939.89
3952.75
3965.8
3979.08
3992.63
4006.49
4020.69
4035.31
4050.39
4066.01
4082.24
4099.18
4116.94
4135.62
4155.37
4176.28
4198.42
4221.78
4246.23
4271.59
4297.68
4324.5
4352.18
4381.04
4411.46
4443.79
4484.77
4468.33
4523.7
4504.8
4569.53
4547.56
4617.24
4592.72
4680.81
4652.3
4756.6
4724.42
4846.72
4810.52
4953.31
4913
5076.84
5033.41
5217.19
5171.67
5373.74
5327.32
5546.55
5500.01
5687.94
6066.87
5845.1
6019.69
6301.55
6258.81
6515.07
6502.05
3847.41
3859.31
3871.34
3883.45
3895.63
3907.9
3920.29
3932.8
3945.47
3958.31
3971.37
3984.66
3998.24
4012.14
4026.4
4041.09
4056.27
4072
4088.38
4105.5
4123.5
4142.49
4162.62
4184
4206.66
4230.5
4255.27
4280.64
4306.38
4332.53
4359.26
4386.91
4415.85
4453.5
4438.3
4486.87
4469.8
4526.76
4507.09
4574.96
4551.93
4625.07
4599.3
4693.19
4663.09
4775.34
4741.08
4873.32
4834.5
4989.71
4946.12
5125.34
5078.21
5280.05
5230.93
5453.03
5403.96
5642.27
5595.54
5801.62
6212.9
5979.38
6175.1
6468.18
6424.92
6711.87
6694.75
3853.27
3865.11
3877.08
3889.13
3901.26
3913.48
3925.83
3938.31
3950.95
3963.78
3976.83
3990.14
4003.73
4017.66
4031.97
4046.72
4061.97
4077.8
4094.31
4111.61
4129.84
4149.15
4169.7
4191.6
4214.84
4239.17
4264.13
4289.21
4314.21
4339.24
4364.62
4390.63
4424.06
4410.79
4454.25
4438.78
4488.46
4470.83
4530.17
4509.59
4581.55
4557.27
4634.4
4607.24
4707.78
4675.76
4796.62
4759.67
4902.98
4860.6
5030.24
4981.97
5179.83
5127.07
5351.88
5296.64
5545.76
5491
5756.94
5706.5
5938.19
6391.22
6142.47
6310.19
6325.75
6657.54
6625.61
6936.59
6913.26
3859.06
3870.82
3882.74
3894.72
3906.8
3918.97
3931.27
3943.72
3956.33
3969.14
3982.18
3995.49
4009.09
4023.04
4037.38
4052.17
4067.48
4083.39
4100.01
4117.46
4135.93
4155.59
4176.63
4199.16
4223.08
4247.88
4272.76
4297.09
4320.85
4344.36
4368
4391.86
4424.37
4410.89
4454.83
4438.97
4490.15
4471.88
4534.33
4512.67
4589.2
4563.44
4645.32
4616.48
4723.82
4689.51
4819.18
4778.81
4934.11
4887.17
5073.14
5018.84
5238.54
5178.35
5430.73
5367.2
5650.75
5587.1
5891.99
5786.69
5817.07
6071.61
6047.38
6429.49
6561.56
6552.26
6295.59
6275.47
6157.93
6416.37
6883.65
6683.75
6817.35
6818.3
7207.57
7182.26
3864.76
3876.45
3888.3
3900.23
3912.24
3924.36
3936.61
3949.02
3961.6
3974.38
3987.4
4000.69
4014.3
4028.25
4042.6
4057.41
4072.75
4088.71
4105.41
4123.02
4141.73
4161.8
4183.46
4206.83
4231.55
4256.64
4280.92
4303.92
4325.95
4347.58
4369.17
4397.41
4385.58
4424.23
4410.45
4455.65
4439.29
4492.3
4473.29
4539.12
4516.21
4597.12
4569.72
4656.97
4626.18
4739.89
4702.9
4841.46
4797.17
4965.21
4913.02
5116.94
5055.65
5300.12
5230.96
5512.31
5477.32
5441.21
5404.37
5754.93
5720.37
5557.11
5644.63
5683.52
5884.76
6021.88
5991.47
5852.43
6133.34
6544.21
6679.26
6400.36
6379.86
6252.58
6532.26
6964.82
7108.94
7116.03
6820.68
6971.77
7658.27
7297.68
7505.41
7504.39
3870.37
3882
3893.77
3905.63
3917.58
3929.65
3941.84
3954.2
3966.74
3979.49
3992.48
4005.75
4019.33
4033.27
4047.61
4062.41
4077.75
4093.73
4110.49
4128.23
4147.22
4167.82
4190.37
4214.82
4240.22
4265.06
4288.08
4309.16
4329.14
4348.73
4368.02
4396.82
4384.52
4424.12
4409.98
4456.58
4439.63
4494.8
4474.94
4543.9
4519.69
4604.13
4575.05
4667.97
4635.07
4754.81
4714.87
4862.52
4813.93
4995.58
4937.45
5161
5091.72
5366.59
5328.78
5290.03
5251.63
5519.57
5480.57
5440.55
5817.31
5779.36
5604.2
5696.26
5738.82
5957.98
6104.82
6071.86
5921.59
6225.33
6672.01
6819.77
6515.26
6354.51
6492.51
6659.53
7133.62
7316.86
6977.33
7147.44
7806.23
8217.34
8201.94
7532.98
7812.69
3875.91
3887.44
3899.15
3910.93
3922.81
3934.81
3946.95
3959.25
3971.74
3984.45
3997.4
4010.63
4024.17
4038.07
4052.37
4067.13
4082.43
4098.38
4115.17
4133.05
4152.41
4173.81
4197.5
4222.86
4248.41
4272.32
4293.47
4312.34
4330.27
4347.69
4371.77
4361.21
4396
4383.47
4423.97
4409.45
4457.29
4439.7
4497.2
4476.42
4547.73
4522.29
4609.46
4578.69
4677.39
4642.3
4767.87
4724.8
4881.6
4828.38
5024.33
4959.57
5212.74
5174.54
5136.23
5098.79
5400.02
5359.2
5317.91
5276.63
5562.95
5520.57
5477.27
5882.53
5840.59
5652.23
5749.34
5795.95
6034.64
6193.45
6156.68
5993.9
6323.79
6812.76
6976.64
6640.46
6463.69
6613.99
6798.35
7337.14
7558.98
7154.12
7350.21
8193.59
8581.02
8594.62
7831.64
8182.71
3881.36
3892.8
3904.42
3916.12
3927.93
3939.85
3951.92
3964.16
3976.59
3989.24
4002.14
4015.31
4028.8
4042.62
4056.84
4071.52
4086.74
4102.62
4119.39
4137.43
4157.39
4179.79
4204.4
4230.15
4255.28
4277.68
4296.58
4313.36
4329.32
4344.97
4370.28
4359.21
4394.85
4382.09
4423.51
4408.6
4457.23
4439.03
4498.76
4477.09
4549.96
4523.39
4612.74
4580.34
4684.72
4647.45
4778.4
4732.11
4897.59
4839.23
5061.73
5025.68
4990.31
4956.11
5235.37
5194.42
5153.77
5113.75
5433.68
5389.82
5345.64
5301.44
5607.15
5561.14
5514.42
5950.41
5903.89
5701.22
5803.57
5854.66
6115.01
6287.63
6246.09
6069.45
6428.52
6967.66
7151.21
6775.76
6580.25
6744.26
6949.29
7575.99
7844.99
7353.1
7581.39
8594.6
9026.27
9042.16
8176.26
8574.96
3886.72
3898.05
3909.58
3921.2
3932.92
3944.76
3956.75
3968.92
3981.28
3993.86
4006.68
4019.78
4033.17
4046.9
4061.01
4075.56
4090.61
4106.34
4123.07
4141.46
4162.23
4185.5
4210.52
4236.07
4260.19
4280.69
4297.39
4312.31
4326.4
4346.46
4336.76
4368.09
4356.9
4393.08
4380.11
4422.37
4407.1
4455.88
4437.16
4498.89
4476.41
4550.31
4522.67
4613.77
4579.96
4689.48
4650.2
4785.22
4735.88
4907.92
4844.33
5074.45
5036.06
4998.66
4962.69
5257.36
5213.55
5170.15
5127.42
5467.54
5420.47
5373.11
5325.7
5652.07
5602.26
5551.91
6020.8
5969.17
5751.03
5859.03
5914.98
6199.33
6387.14
6339.93
6148.23
6539.56
7137.6
7344.24
6921.26
6704.33
6883.36
7112.79
7848.17
8165.44
7574.61
7839.37
9027.56
9604.92
9571.44
8545.97
8986.88
3891.96
3903.18
3914.62
3926.15
3937.78
3949.53
3961.44
3973.52
3985.79
3998.28
4011.01
4024.01
4037.29
4050.88
4064.82
4079.15
4093.94
4109.45
4126.31
4145.33
4166.89
4190.39
4215.17
4240.12
4262.97
4281.34
4296.07
4309.12
4321.19
4343.44
4333.46
4365.17
4353.93
4390.38
4377.28
4420.13
4404.6
4452.93
4433.8
4497.27
4474.05
4548.79
4520.13
4612.65
4577.78
4691.16
4650.34
4786.68
4735
4928.83
4893.27
4827.72
4859.66
5085.57
5044.69
5004.94
4966.37
5278.42
5231.46
5185.03
5139.45
5501.48
5450.89
5399.94
5348.93
5697.66
5643.84
5589.56
6093.72
6036.43
5801.76
5915.73
5976.94
6287.3
6492.01
6438.11
6229.97
6656.85
7322.71
7555.15
7077.19
6835.95
7031.18
7288.8
8147.39
8510.05
7817.6
8119.46
9497.34
10069.4
10037.7
8933.47
9417.53
3897.08
3908.2
3919.54
3930.96
3942.49
3954.15
3965.96
3977.94
3990.12
4002.51
4015.13
4028.01
4041.14
4054.54
4068.22
4082.22
4096.65
4112.07
4129.46
4149.22
4170.81
4193.78
4217.95
4242.13
4263.46
4279.65
4292.27
4303.24
4320.14
4310.68
4339.79
4329.74
4361.49
4350.31
4386.58
4373.51
4416.5
4400.84
4448.27
4428.8
4493.85
4469.92
4545.63
4516
4609.69
4574.36
4689.18
4647.75
4798.15
4770.1
4729.58
4929.72
4892.83
4825.26
4858.01
5094.87
5051.41
5009.34
4968.73
5298.1
5247.69
5198.03
5149.51
5535.2
5480.62
5425.64
5370.63
5743.9
5685.7
5627.01
6168.98
6105.58
5853.35
5973.5
6040.35
6378.69
6601.94
6540.35
6314.43
6780.09
7522.43
7783.04
7243.46
6974.8
7187.32
7476.88
8467.48
8872.49
8079.51
8417.02
9951.05
10437.1
10423.6
9334.83
9848.19
3902.08
3913.09
3924.32
3935.63
3947.06
3958.61
3970.31
3982.19
3994.26
4006.54
4019.03
4031.75
4044.68
4057.81
4071.15
4084.7
4098.84
4114.7
4132.89
4152.62
4173.37
4195.37
4218.7
4241.85
4261.14
4274.92
4285.47
4294.71
4315.79
4306.26
4335.59
4325.52
4357.12
4346.09
4381.69
4368.9
4411.38
4395.77
4441.92
4422.17
4488.82
4464.13
4541.43
4510.77
4604.9
4569.57
4683.84
4642.62
4794.93
4766.98
4735.81
4710.75
4929.01
4890.78
4821.29
4854.85
5102.18
5056.22
5012.03
4969.57
5315.94
5261.9
5208.93
5157.47
5568.2
5509.12
5449.68
5390.37
5790.58
5727.46
5663.76
6246.61
6176.65
5905.64
6032.21
6105.14
6473.3
6716.6
6646.55
6401.71
6909.3
7735.72
8026.8
7419.74
7120.66
7351.61
7676.11
8804.59
9248.22
8356.57
8729.48
10365.1
10819.8
10814.4
9742.6
10268.6
3906.95
3917.84
3928.95
3940.15
3951.45
3962.89
3974.49
3986.25
3998.2
4010.35
4022.69
4035.2
4047.87
4060.66
4073.54
4086.65
4101.05
4117.9
4136.2
4154.88
4174.21
4195.03
4217.25
4238.54
4255.17
4266.84
4276.18
4292.57
4283.07
4311.33
4301.85
4331.01
4321.02
4352.19
4341.38
4375.9
4363.59
4404.78
4389.49
4434.05
4414.07
4482.56
4456.93
4536.23
4504.79
4598.78
4563.62
4688.85
4667.57
4635.52
4790.4
4762.07
4729.99
4705.78
4926.69
4887.18
4816.06
4850.29
5107.55
5059.28
5013.05
4968.81
5331.67
5273.98
5217.78
5163.52
5599.91
5535.87
5471.65
5407.9
5837.39
5768.59
5699.19
6326.77
6249.75
5958.39
6091.57
6171.31
6571.3
6836.37
6757.34
6492.02
7044.76
7961.96
8284.34
7605.06
7273.36
7523.36
7885.82
9155.61
9633.35
8646.28
9055.87
10776.4
11242.9
11249.1
10153.3
10691.1
3911.69
3922.44
3933.43
3944.5
3955.69
3967.01
3978.48
3990.12
4001.93
4013.92
4026.06
4038.34
4050.69
4063.05
4075.42
4088.57
4104.1
4121.48
4138.75
4155.55
4173.18
4192.76
4213.32
4231.87
4246.04
4256.8
4266.54
4287.93
4278.51
4306.77
4297.31
4326.2
4316.37
4346.82
4336.33
4369.43
4357.76
4396.96
4382.3
4425.06
4404.98
4475.48
4448.71
4530.07
4498.01
4602
4584.38
4555.84
4683.79
4662.92
4619.7
4638.93
4784.76
4756.24
4723.73
4700.14
4922.88
4882.13
4809.65
4844.38
5111.15
5060.67
5012.46
4966.48
5345.19
5283.98
5224.72
5167.74
5629.79
5560.45
5491.32
5423.16
5883.86
5808.49
5732.77
6409.52
6324.82
6010.89
6151.01
6238.6
6673.5
6961.64
6873.18
6585.93
7186.28
8200.09
8553.21
7799.1
7432.52
7702.87
8105.5
9518.25
10027.2
8948.41
9395.42
11219.6
11767.2
11770.4
10571.8
11133.6
3916.28
3926.9
3937.75
3948.69
3959.75
3970.94
3982.28
3993.77
4005.43
4017.24
4029.16
4041.15
4053.11
4064.97
4077.18
4091.42
4108.08
4124.77
4140.06
4154.62
4170.6
4188.83
4207.26
4223.26
4236.16
4247.22
4264.87
4255.39
4283.45
4274.14
4302.13
4292.76
4321.24
4311.61
4341.19
4331.08
4362.6
4351.61
4388.41
4374.62
4415.59
4395.64
4467.73
4439.88
4522.66
4490.24
4597.24
4579.34
4557.12
4540.47
4678.57
4658.21
4615.16
4633.66
4778.13
4749.66
4716.85
4693.94
4917.66
4875.75
4802.14
4837.22
5112.96
5060.36
5010.26
4962.66
5356.59
5292.03
5229.76
5170.02
5657.45
5582.67
5508.66
5436.25
5929.17
5846.6
5764.2
6495.06
6401.75
6062.33
6210.16
6306.72
6780.28
7092.65
6994.31
6683.5
7334.2
8448.92
8832.9
8002.1
7598.91
7890.59
8335
9892.43
10432.3
9264.36
9748.54
11717.2
12406.4
12367.1
11005.6
11608.5
3920.73
3931.2
3941.91
3952.71
3963.62
3974.67
3985.86
3997.2
4008.69
4020.3
4031.97
4043.62
4055.14
4066.69
4079.76
4095.62
4112.21
4127.28
4140.27
4152.96
4167.48
4183.97
4200.32
4214.79
4227.43
4239.29
4260.83
4251.68
4279.11
4269.97
4297.48
4288.27
4316.17
4306.77
4335.43
4325.72
4355.72
4345.37
4379.8
4366.93
4406.49
4386.9
4459.41
4431
4523.87
4508
4481.26
4592.02
4574.36
4551.79
4535.22
4672.84
4652.8
4609.88
4628.02
4770.56
4742.27
4709.37
4687.13
4911.02
4868.1
4793.59
4828.88
5112.91
5058.3
5006.39
4957.26
5365.98
5298.1
5232.81
5170.39
5682.78
5602.53
5523.77
5447.2
5972.61
5882.56
5793.44
6583.2
6480.09
6112.37
6268.18
6374.96
6891.66
7229.99
7120.99
6784.62
7488.91
8708.22
9125.68
8213.93
7772.82
8086.36
8575.16
10279.7
10852.5
9595.54
10116.4
12257.2
12920.3
12902.9
11461.2
12109.6
3925.01
3935.33
3945.89
3956.53
3967.29
3978.19
3989.22
4000.41
4011.72
4023.11
4034.5
4045.77
4056.92
4069.02
4083.89
4100.41
4115.93
4128.94
4140.2
4151.67
4164.8
4179.42
4194.06
4207.85
4221.01
4234.3
4257.25
4248.25
4275.03
4266.14
4292.91
4283.95
4311.07
4301.94
4329.69
4320.32
4349.11
4339.23
4371.84
4359.72
4398.56
4379.5
4450.73
4422.65
4518.82
4502.62
4466.86
4481.55
4586.15
4568.75
4545.88
4529.49
4666.45
4646.78
4603.85
4621.75
4762.13
4734.17
4701.35
4679.69
4902.95
4859.21
4784.04
4819.45
5110.99
5054.45
5000.77
4950.23
5373.22
5302.03
5233.83
5168.83
5705.91
5620.16
5536.61
5455.8
6014
5916.32
5820.5
6673.55
6559.14
6160.42
6324.07
6442.34
7007.47
7373.04
7252.13
6888.83
7649.67
8980.03
9434.8
8435.77
7953.61
8291.14
8827.73
10682.9
11290.8
9943.5
10501.3
12784.7
13334.9
13345.8
11936.6
12613.1
3929.13
3939.28
3949.67
3960.16
3970.76
3981.49
3992.37
4003.39
4014.51
4025.67
4036.76
4047.69
4059.08
4072.85
4089.06
4105.1
4118.83
4130.13
4140.39
4151.15
4163.3
4176.6
4190.37
4204.28
4218.53
4237.17
4246.2
4229.97
4254.43
4271.4
4262.88
4288.62
4279.98
4306.14
4297.34
4324.14
4315.07
4342.96
4333.4
4364.95
4353.23
4392.11
4373.49
4442.18
4415.28
4513.29
4497.28
4461.6
4476.46
4579.6
4562.54
4539.42
4523.3
4659.38
4640.11
4597.02
4614.7
4752.86
4725.44
4692.63
4671.49
4893.47
4849.11
4773.55
4808.99
5107.22
5048.82
4993.48
4941.64
5378.08
5303.65
5232.62
5165.13
5726.73
5635.32
5546.8
5461.71
6053
5947.63
5844.89
6765.19
6637.66
6205.9
6377.53
6507.81
7126.28
7520.85
7386.59
6994.24
7815.85
9267.71
9762.07
8669.81
8141.69
8507.11
9095.07
11104.6
11747.8
10310.3
10906.3
13268
13710.5
13722
12422.3
13101.2
3933.06
3943.04
3953.25
3963.57
3974
3984.58
3995.3
4006.16
4017.09
4028.01
4038.82
4049.8
4062.53
4078.05
4094.39
4109
4120.95
4131.19
4141.03
4151.63
4163.45
4176.37
4190.12
4204.54
4219.46
4244.73
4237.08
4230.2
4252.5
4268.53
4260.46
4284.93
4276.69
4301.74
4293.28
4319
4310.3
4337.26
4327.91
4359.1
4347.43
4386.69
4368.45
4442.66
4429.76
4408.68
4507.38
4491.75
4456.71
4471.16
4572.42
4555.77
4532.51
4516.73
4651.6
4632.76
4589.43
4606.82
4742.69
4715.95
4683.06
4662.38
4882.59
4837.77
4762.12
4797.5
5101.38
5041.3
4984.6
4931.59
5380.29
5302.66
5228.88
5159.06
5744.63
5647.35
5553.8
5464.42
6089.39
5975.97
5865.83
6855.86
6713.39
6248.67
6428.2
6570.07
7246.2
7672.6
7522.81
7098.27
7987.38
9573.91
10110.5
8917.92
8339.42
8736.26
9380.74
11546.4
12220.8
10698.7
11333.9
13683.9
14067.7
14070.6
12908.8
13560.9
3936.79
3946.59
3956.62
3966.75
3977.02
3987.44
3998.02
4008.73
4019.48
4030.2
4040.97
4052.9
4067.48
4083.69
4099.05
4111.88
4122.59
4132.34
4142.27
4153.13
4165.12
4178.21
4192.18
4206.63
4220.82
4244.18
4237.12
4230.42
4251.49
4266.55
4258.97
4281.98
4274.22
4297.79
4289.83
4314.18
4305.89
4331.99
4322.81
4353.91
4342.11
4381.35
4363.68
4438.31
4425.34
4398.66
4409.42
4501.22
4486.01
4451.82
4465.77
4564.76
4548.53
4525.29
4509.94
4642.96
4624.59
4581.31
4598.29
4731.64
4705.66
4672.67
4652.44
4870.51
4825.35
4749.88
4785.08
5093.35
5031.82
4974.08
4920.18
5379.34
5298.58
5222.21
5150.28
5758.76
5655.48
5556.86
5463.25
6122.9
6000.69
5882.55
6942.47
6784.71
6288.38
6470.93
6629.04
7365.09
7827.49
7659.26
7199.29
8166.74
9903.51
10482.7
9184.18
8548.43
8982.75
9690.22
12009.1
12705.8
11112.5
11786.7
14056.2
14439.6
14434.9
13392.4
13996
3940.32
3949.92
3959.76
3969.71
3979.82
3990.1
4000.55
4011.13
4021.75
4032.43
4043.83
4057.43
4073.13
4088.83
4102.56
4113.95
4123.96
4133.74
4144.08
4155.36
4167.68
4180.92
4194.68
4208.43
4221.58
4230.62
4243.93
4237.08
4250.88
4265.06
4257.93
4279.5
4272.25
4294.21
4286.8
4309.57
4301.76
4326.79
4317.82
4349.07
4336.98
4395.03
4381.54
4372.58
4358.11
4433.87
4421.37
4405.85
4494.87
4480.13
4446.86
4460.29
4556.7
4540.88
4517.89
4503
4633.56
4615.68
4572.79
4589.25
4719.89
4694.66
4661.53
4641.84
4857.46
4812.2
4737.09
4772.01
5082.91
5020.21
4961.78
4907.43
5374.6
5290.86
5212.07
5138.23
5768.39
5658.99
5555.3
5457.64
6152.4
6014.93
5887.38
7019.56
6844.71
6318.93
6532.38
6681.76
7481.24
7986.2
7791.35
7298.68
8354.15
10257.6
10881
9471.15
8769.86
9249.95
10023.1
12492.3
13203.7
11553.4
12264.8
14444.8
14843.9
14854.3
13879.2
14451.2
3943.63
3953.03
3962.67
3972.44
3982.4
3992.56
4002.93
4013.43
4024.05
4035.16
4047.94
4062.88
4078.5
4092.83
4105.02
4115.47
4125.3
4135.43
4146.23
4157.88
4170.36
4183.42
4196.66
4209.65
4224.86
4230.69
4230.77
4219.13
4243.64
4236.97
4250.29
4263.73
4256.99
4277.24
4270.48
4290.81
4284
4304.97
4297.74
4321.66
4312.81
4343.87
4331.89
4391.54
4378.23
4369.23
4351.76
4429.34
4417.33
4402.07
4488.41
4474.15
4441.82
4454.76
4548.39
4533.02
4510.47
4496.03
4623.56
4606.16
4564.01
4579.93
4707.62
4683
4649.89
4630.85
4843.18
4798.22
4723.92
4758.39
5069.48
5005.92
4947.28
4892.98
5365.59
5279.02
5197.94
5122.41
5769.27
5656.28
5549.26
5448.83
6181.1
6054.15
5874.3
7111.88
6853.48
6318.46
6510.36
6698.88
7591.27
8149.47
7936.78
7409.77
8549.3
10636.7
11307.1
9779.03
8997.18
9529.01
10378.3
12997.2
13722.7
12021.6
12769.3
14913.9
15267.8
15382
14397.1
14989
3946.71
3955.89
3965.32
3974.93
3984.77
3994.86
4005.21
4015.77
4026.73
4038.92
4053.04
4068.27
4082.85
4095.67
4106.72
4116.74
4126.79
4137.29
4148.44
4160.28
4172.69
4185.41
4198.12
4210.51
4230.77
4225.02
4236.83
4219.32
4243.29
4249.66
4262.41
4256.04
4275.06
4268.76
4287.52
4281.29
4300.56
4293.86
4316.45
4307.97
4337.96
4326.34
4387.89
4374.59
4365.74
4362
4349.76
4342.88
4424.73
4413.15
4398.13
4481.91
4468.15
4436.74
4449.23
4540.08
4525.16
4503.17
4489.14
4613.19
4596.29
4555.24
4570.65
4694.94
4670.82
4638.07
4619.81
4827.06
4782.99
4710.46
4744.1
5052.53
4988.57
4930.26
4876.33
5354.2
5265.46
5182.85
5106.44
5759.56
5648.48
5541.97
5441.42
6189.37
6032.7
5869.45
7086.29
6848.04
6313.34
6504
6694.35
7635.5
8324.81
7915.76
7390.65
8755.81
11043.1
11760.9
10105.5
9107.74
9824.43
9396.59
10760.2
13532
14278.8
12518.8
13306.4
15543.2
15878.3
16257.6
14985.3
15670.5
3949.54
3958.49
3967.72
3977.18
3986.95
3997.07
4007.56
4018.42
4030.23
4043.66
4058.32
4072.84
4086.06
4097.65
4108
4118.07
4128.4
4139.19
4150.53
4162.38
4174.61
4186.98
4199.25
4211.24
4236.68
4230.77
4225.14
4242.93
4219.5
4249.04
4261.16
4255.12
4272.99
4267.12
4284.47
4278.75
4296.47
4290.3
4311.31
4303.36
4331.43
4320.6
4384.04
4370.61
4357.72
4345.83
4339.13
4420.09
4408.88
4394.02
4475.49
4462.18
4431.73
4443.84
4531.99
4517.47
4496.03
4482.48
4602.74
4586.42
4546.71
4561.59
4682.05
4658.39
4626.35
4608.85
4808.62
4766.09
4696.68
4728.96
5035.99
4970.73
4910.8
4857.18
5346.32
5257.23
5174.62
5098.58
5754.89
5643.95
5537.55
5437.15
6185.03
6027.11
5865.27
7079.88
6843.04
6308.76
6498.82
6689.88
7630.4
8310.66
7909.25
7383.97
8742.03
11490.8
12244.6
10452.6
9102
9831.27
9391.02
11164.4
14106
14894.1
13047.9
13884.3
16470.5
18993.6
17910.8
15682.4
16548.8
3952.1
3960.81
3969.85
3979.22
3989.02
3999.36
4010.17
4021.75
4034.65
4048.74
4062.99
4076.36
4088.34
4099.06
4109.24
4119.49
4130.04
4141
4152.4
4164.17
4176.18
4188.23
4200.17
4211.89
4219.75
4242.58
4236.52
4230.78
4225.29
4248.46
4260.03
4254.29
4271.16
4265.66
4281.82
4276.52
4292.84
4287.17
4306.34
4299.14
4324.36
4314.65
4379.84
4366.24
4353.3
4341.45
4334.96
4415.4
4404.48
4389.63
4469.27
4456.38
4426.73
4438.47
4523.96
4509.88
4488.85
4475.79
4592.43
4576.76
4538.23
4552.63
4669.12
4646.02
4614.57
4597.9
4789.82
4748.88
4681.83
4712.39
5028.59
4939.89
4887.84
4836.78
5342.17
5253.24
5170.74
5094.87
5750.88
5640.07
5533.74
5433.49