/*--------------------------------*- C++ -*----------------------------------*\
  =========                 |
  \\      /  F ield         | OpenFOAM: The Open Source CFD Toolbox
   \\    /   O peration     | Website:  https://openfoam.org
    \\  /    A nd           | Version:  dev
     \\/     M anipulation  |
\*---------------------------------------------------------------------------*/
FoamFile
{
    version     2.0;
    format      ascii;
    class       volScalarField;
    location    "2500";
    object      H2O;
}
// * * * * * * * * * * * * * * * * * * * * * * * * * * * * * * * * * * * * * //

dimensions      [0 0 0 0 0 0 0];

internalField   nonuniform List<scalar> 
9836
(
1.64735e-33
7.40879e-33
3.64394e-33
1.11741e-32
1.89593e-32
3.08524e-33
1.32216e-32
3.83978e-32
2.02363e-32
3.62704e-33
2.6144e-32
8.96019e-32
6.08545e-32
1.98208e-32
9.01689e-34
5.40277e-32
1.42778e-31
1.15252e-31
5.64355e-32
1.28886e-32
6.46658e-34
1.18226e-31
2.31596e-31
2.41547e-31
1.17215e-31
3.57387e-32
6.36144e-33
2.38554e-34
2.26718e-31
4.38076e-31
4.84533e-31
2.38991e-31
1.13541e-31
2.00224e-32
1.94003e-33
5.11426e-35
2.64748e-31
9.99174e-31
8.89504e-31
5.83963e-31
2.28252e-31
7.61496e-32
1.11624e-32
1.08765e-33
2.41842e-35
4.27656e-31
2.24646e-30
2.00232e-30
1.08139e-30
5.15677e-31
2.02126e-31
4.23375e-32
5.64334e-33
3.32619e-34
4.91799e-36
1.54601e-30
5.01176e-30
4.94333e-30
2.85261e-30
1.23922e-30
3.87563e-31
1.05484e-31
2.19519e-32
2.43568e-33
1.28422e-34
9.67652e-37
2.81467e-30
9.88506e-30
1.14076e-29
6.66505e-30
2.57112e-30
1.18344e-30
2.91281e-31
6.32972e-32
1.04156e-32
6.12068e-34
2.53031e-35
9.26468e-37
9.6326e-30
1.94219e-29
2.5727e-29
1.57591e-29
7.99171e-30
2.65046e-30
8.14393e-31
2.05181e-31
3.51319e-32
4.75512e-33
2.86274e-34
2.15155e-35
2.25788e-36
2.54951e-29
4.79293e-29
6.51638e-29
3.68132e-29
1.94869e-29
7.46326e-30
2.39922e-30
5.44207e-31
1.03292e-31
1.6895e-32
1.41364e-33
1.34465e-34
1.9341e-35
9.30242e-37
4.81554e-29
1.20226e-28
1.48439e-28
1.00585e-28
4.51678e-29
1.90777e-29
6.313e-30
1.79383e-30
3.89492e-31
5.59349e-32
8.84351e-33
6.37251e-34
1.0449e-34
1.19885e-35
6.45873e-37
3.82247e-29
2.54154e-28
2.45758e-28
2.70031e-28
1.3236e-28
5.41104e-29
1.71612e-29
3.80342e-30
8.27565e-31
1.95211e-31
3.14032e-32
4.44367e-33
4.81773e-34
6.16271e-35
5.87658e-36
4.36551e-37
8.94072e-29
5.49794e-28
5.35634e-28
7.11306e-28
4.13077e-28
1.5738e-28
5.07583e-29
1.2038e-29
2.95726e-30
5.37222e-31
8.77063e-32
1.7533e-32
2.26247e-33
3.23837e-34
3.00482e-35
3.7473e-36
4.46915e-37
2.55541e-28
9.57005e-28
1.30219e-27
1.69056e-27
1.00765e-27
3.97038e-28
1.50226e-28
4.26487e-29
7.59262e-30
1.72163e-30
3.48447e-31
5.27721e-32
9.28451e-33
1.44871e-33
1.82837e-34
2.29377e-35
5.40474e-36
3.60075e-36
3.79287e-28
1.41092e-27
2.43413e-27
3.61669e-27
2.45247e-27
1.19204e-27
3.98455e-28
1.10412e-28
3.2158e-29
4.76461e-30
8.719e-31
1.69885e-31
3.07658e-32
5.08942e-33
8.1972e-34
1.17643e-34
5.21232e-35
6.10104e-35
1.1324e-34
1.01892e-27
2.81347e-27
5.8073e-27
7.40551e-27
4.87108e-27
2.94272e-27
1.07258e-27
3.61371e-28
8.82288e-29
2.26089e-29
3.96203e-30
4.81324e-31
7.69048e-32
1.64095e-32
2.23607e-33
4.952e-34
2.15806e-34
6.06084e-34
1.07334e-33
1.20163e-33
1.17885e-27
5.57156e-27
9.90631e-27
1.31302e-26
1.1764e-26
7.49007e-27
2.94401e-27
9.52364e-28
2.76495e-28
6.21586e-29
1.40055e-29
2.46552e-30
2.09067e-31
4.17097e-32
8.09812e-33
1.53916e-33
1.29291e-33
3.83113e-33
8.77156e-33
1.84465e-32
8.00857e-33
7.29081e-28
7.62635e-27
1.44483e-26
2.09452e-26
2.31555e-26
1.70073e-26
6.82404e-27
2.54915e-27
7.38027e-28
1.97603e-28
4.39451e-29
7.45351e-30
1.06943e-30
1.41623e-31
2.65406e-32
8.08451e-33
5.87107e-33
1.52576e-32
5.96842e-32
1.30533e-31
2.45937e-31
1.99859e-31
3.31564e-27
9.84059e-27
2.91627e-26
4.89963e-26
5.45323e-26
3.16216e-26
2.04235e-26
7.07051e-27
2.15762e-27
4.5779e-28
1.1569e-28
2.85283e-29
3.81277e-30
3.7603e-31
9.16696e-32
2.70639e-32
2.91806e-32
7.42142e-32
3.24554e-31
7.45302e-31
1.64687e-30
3.60539e-30
1.07678e-30
3.20608e-27
2.09149e-26
5.36536e-26
8.24802e-26
9.4704e-26
8.92673e-26
4.51035e-26
1.96598e-26
6.31734e-27
1.68558e-27
3.54004e-28
7.99708e-29
1.0983e-29
1.88702e-30
2.31673e-31
6.75451e-32
1.26731e-31
4.62081e-31
1.45144e-30
4.51289e-30
9.41309e-30
2.69546e-29
4.18378e-29
1.35754e-29
3.77316e-27
2.75252e-26
8.35528e-26
1.36035e-25
1.67632e-25
1.78071e-25
9.90994e-26
4.72977e-26
1.73067e-26
4.91017e-27
1.02835e-27
2.309e-28
3.88515e-29
5.1613e-30
9.30552e-31
2.23284e-31
4.84225e-31
2.01447e-30
5.93057e-30
1.92626e-29
5.73328e-29
1.83859e-28
2.53675e-28
4.45857e-28
2.09786e-28
2.36213e-26
4.92498e-26
1.71921e-25
3.13142e-25
2.64926e-25
3.07477e-25
2.35369e-25
1.10764e-25
4.34718e-26
1.34208e-26
3.40537e-27
7.28276e-28
1.48451e-28
2.52222e-29
2.64455e-30
7.26478e-31
1.76851e-30
7.14944e-30
2.78492e-29
8.20049e-29
2.97462e-28
9.35931e-28
2.29376e-27
3.63521e-27
3.94389e-27
2.77347e-27
4.88893e-26
1.43791e-25
3.47132e-25
5.17144e-25
6.41847e-25
6.44531e-25
4.04447e-25
2.50753e-25
1.03672e-25
3.35557e-26
9.73254e-27
1.80356e-27
4.70943e-28
8.38978e-29
1.1056e-29
1.93067e-30
5.10043e-30
2.78252e-29
9.36127e-29
3.73821e-28
1.2559e-27
3.2971e-27
1.41447e-26
1.97316e-26
3.62653e-26
3.13394e-26
2.13938e-26
5.00248e-26
2.71888e-25
6.97979e-25
8.16913e-25
1.40463e-24
1.00879e-24
9.02629e-25
5.74728e-25
2.28672e-25
8.34559e-26
2.58406e-26
6.59615e-27
9.71764e-28
2.43791e-28
3.96687e-29
6.73497e-30
1.35983e-29
9.81338e-29
3.81521e-28
1.9106e-27
7.07467e-27
1.54979e-26
4.66746e-26
1.81736e-25
1.96339e-25
3.64231e-25
6.57713e-25
3.05569e-25
4.387e-26
4.58828e-25
1.29128e-24
2.11549e-24
2.99526e-24
2.47102e-24
1.88372e-24
1.02443e-24
5.80827e-25
1.97284e-25
6.545e-26
1.67142e-26
3.9454e-27
6.48721e-28
1.2865e-28
2.79523e-29
4.71632e-29
2.53184e-28
2.0354e-27
7.20102e-27
2.29917e-26
9.02837e-26
2.48624e-25
9.14837e-25
2.20364e-24
3.04447e-24
5.96738e-24
6.83286e-24
2.7404e-24
5.40822e-26
5.11342e-25
1.52954e-24
3.59276e-24
5.44146e-24
5.33362e-24
3.18283e-24
2.73473e-24
9.9918e-25
4.96391e-25
1.50901e-25
4.42356e-26
1.07377e-26
2.32136e-27
2.98385e-28
8.03394e-29
1.59411e-28
8.3044e-28
6.17782e-27
3.08685e-26
1.33963e-25
3.1273e-25
1.00297e-24
4.57806e-24
1.34619e-23
2.26068e-23
5.13993e-23
8.30307e-23
8.90124e-23
5.17896e-23
2.37102e-25
5.22102e-25
2.53033e-24
4.12967e-24
1.03646e-23
9.32646e-24
7.8325e-24
5.16642e-24
3.0908e-24
1.05658e-24
4.02832e-25
8.69336e-26
2.61802e-26
6.68257e-27
9.41752e-28
2.42827e-28
4.53056e-28
2.99849e-27
1.70719e-26
8.84491e-26
5.61203e-25
1.8469e-24
5.26066e-24
1.76918e-23
6.68477e-23
1.53104e-22
2.67722e-22
7.80439e-22
1.1285e-21
1.05963e-21
2.24299e-22
1.01634e-24
2.15402e-24
2.97425e-24
7.6821e-24
1.70593e-23
2.05041e-23
1.72749e-23
1.0635e-23
6.5468e-24
2.90707e-24
9.37863e-25
2.34559e-25
6.05569e-26
1.621e-26
4.11598e-27
7.03859e-28
1.25528e-27
1.01792e-26
4.79139e-26
3.31873e-25
1.80077e-24
9.26047e-24
2.44993e-23
1.02182e-22
2.58853e-22
7.80304e-22
2.20357e-21
6.98846e-21
1.26477e-20
1.71636e-20
1.00317e-20
3.79005e-21
1.74213e-24
7.33387e-24
6.85439e-24
1.23485e-23
2.42955e-23
3.24472e-23
3.43933e-23
2.16911e-23
1.34542e-23
6.48381e-24
2.02842e-24
7.10507e-25
1.70562e-25
3.89022e-26
9.40422e-27
2.80407e-27
3.40272e-27
2.77425e-26
2.22533e-25
1.28436e-24
6.80675e-24
3.14189e-23
1.34488e-22
4.31319e-22
1.15741e-21
4.40378e-21
8.36228e-21
5.01388e-20
1.87548e-19
2.81207e-19
2.08955e-19
9.61858e-20
2.47502e-20
1.07265e-23
2.81275e-23
2.23695e-23
1.76768e-23
2.65721e-23
5.37966e-23
6.32713e-23
4.962e-23
2.22965e-23
1.25252e-23
4.92654e-24
1.37911e-24
4.75266e-25
9.39347e-26
2.55981e-26
5.99918e-27
1.12609e-26
7.7111e-26
6.16157e-25
4.17278e-24
2.68617e-23
8.78925e-23
4.90739e-22
2.07926e-21
6.26611e-21
1.74427e-20
6.13831e-20
2.44956e-19
1.62953e-18
4.30434e-18
4.33845e-18
2.53125e-18
9.68918e-19
3.08563e-20
4.58033e-19
1.0677e-22
1.38938e-22
6.59405e-23
4.91379e-23
6.36176e-23
6.53626e-23
1.00087e-22
1.00472e-22
5.1505e-23
2.94319e-23
1.21295e-23
4.44882e-24
1.09049e-24
3.25854e-25
5.35677e-26
1.93617e-26
3.17294e-26
2.06548e-25
1.34872e-24
1.39518e-23
9.87188e-23
3.95969e-22
1.5326e-21
5.89943e-21
3.49449e-20
7.68391e-20
1.74252e-19
1.49224e-18
9.83289e-18
4.36042e-17
9.26032e-17
7.07455e-17
1.91045e-17
4.59407e-18
3.9074e-17
2.19645e-19
2.76458e-18
5.59331e-22
6.98488e-22
4.17e-22
2.1157e-22
1.80345e-22
1.17658e-22
1.81642e-22
1.77024e-22
1.37487e-22
5.04025e-23
2.79752e-23
1.09042e-23
2.87499e-24
8.25433e-25
2.03858e-25
4.00587e-26
7.30862e-26
7.40789e-25
4.02876e-24
2.67076e-23
2.69911e-22
1.80963e-21
7.80753e-21
2.28006e-20
9.48318e-20
4.47805e-19
1.03165e-18
5.11641e-18
6.46452e-17
3.74738e-16
1.32216e-15
1.51792e-15
3.58738e-16
1.56848e-15
3.56356e-16
2.71129e-15
3.0816e-15
3.42744e-17
3.26735e-16
1.44193e-18
2.50637e-17
2.52115e-21
4.7073e-21
2.14086e-21
1.0956e-21
5.88116e-22
3.26614e-22
3.21468e-22
2.90654e-22
2.48357e-22
1.46145e-22
5.31073e-23
2.34925e-23
6.09628e-24
1.88693e-24
5.14339e-25
1.41369e-25
2.09202e-25
1.83563e-24
1.6569e-23
7.32352e-23
6.02363e-22
4.92411e-21
2.83962e-20
1.52557e-19
5.01591e-19
1.37113e-18
5.54939e-18
2.07981e-17
2.4492e-16
2.31168e-15
1.27322e-14
3.09189e-14
8.83515e-15
5.16149e-14
1.60546e-14
3.2458e-15
2.49115e-14
3.12828e-14
2.60427e-16
2.79614e-15
1.24457e-17
1.75391e-16
2.51922e-20
2.75849e-20
2.03457e-20
7.87596e-21
3.0677e-21
1.10698e-21
7.31702e-22
5.04838e-22
4.37877e-22
2.6785e-22
1.09045e-22
4.7203e-23
1.70021e-23
3.75427e-24
1.29706e-24
4.46326e-25
6.62915e-25
5.81434e-24
4.16744e-23
4.27345e-22
2.014e-21
1.12617e-20
7.80155e-20
5.06388e-19
2.46996e-18
6.82142e-18
2.64491e-17
4.60159e-17
9.20619e-16
1.11918e-14
9.33479e-14
4.21999e-13
2.42979e-13
1.14405e-12
1.01657e-13
5.79551e-13
1.82868e-13
3.22106e-14
2.70639e-13
3.25165e-13
2.48357e-15
2.64089e-14
8.88853e-17
1.2124e-15
2.50776e-19
2.48675e-19
1.56271e-19
4.78497e-20
1.58377e-20
5.22341e-21
2.29403e-21
1.1727e-21
7.37941e-22
5.42378e-22
2.75867e-22
9.44384e-23
3.87823e-23
1.00057e-23
2.62358e-24
1.15782e-24
3.00431e-24
1.94426e-23
1.47616e-22
1.21112e-21
9.2532e-21
4.45541e-20
1.96998e-19
1.09428e-18
7.34449e-18
3.00732e-17
1.03901e-16
2.12372e-16
1.61828e-15
5.33366e-14
4.9344e-13
3.40417e-12
4.1002e-12
1.51472e-11
2.84731e-12
1.28956e-11
1.15652e-12
6.57583e-12
2.02728e-12
3.21565e-13
2.85779e-12
3.33712e-12
1.81522e-14
2.56043e-13
5.2837e-16
1.06146e-14
9.67758e-19
1.77506e-18
1.00316e-18
3.58454e-19
1.04046e-19
2.93165e-20
9.40719e-21
3.52479e-21
1.65776e-21
9.67656e-22
5.54869e-22
2.14683e-22
8.0845e-23
2.60337e-23
4.92028e-24
2.59619e-24
9.24276e-24
6.92462e-23
5.93156e-22
4.46214e-21
2.47508e-20
2.23238e-19
7.44647e-19
2.7455e-18
1.58316e-17
8.25872e-17
2.99083e-16
1.12666e-15
4.49957e-15
1.01373e-13
2.05576e-12
1.95529e-11
4.21594e-11
1.20717e-10
4.85572e-11
1.73337e-10
3.24588e-11
1.44126e-10
1.29069e-11
7.26399e-11
2.16012e-11
3.17476e-12
2.92444e-11
3.31084e-11
1.70887e-13
2.45163e-12
3.78852e-15
9.73245e-14
8.13888e-18
1.19385e-17
6.71817e-18
2.36268e-18
6.75962e-19
1.69096e-19
4.70615e-20
1.35052e-20
4.71826e-21
2.09779e-21
1.1127e-21
5.11997e-22
1.67946e-22
4.60221e-23
1.42208e-23
8.40617e-24
3.16882e-23
2.38846e-22
2.273e-21
1.44194e-20
1.14735e-19
7.13891e-19
4.07332e-18
1.7332e-17
4.48365e-17
1.96187e-16
6.31979e-16
2.46425e-15
1.10943e-14
1.54632e-13
6.51201e-12
9.28478e-11
2.90288e-10
6.93326e-10
5.10089e-10
1.4505e-09
5.51652e-10
1.92378e-09
3.56866e-10
1.55055e-09
1.3772e-10
7.61513e-10
2.20026e-10
3.0399e-11
2.86192e-10
3.13873e-10
1.58853e-12
2.27195e-11
3.59647e-14
9.05419e-13
4.64253e-17
5.47254e-17
4.16314e-17
1.37316e-17
4.5046e-18
1.13598e-18
2.93619e-19
6.59637e-20
1.67551e-20
5.59603e-21
2.01943e-21
9.42166e-22
3.12766e-22
1.22624e-22
3.63433e-23
2.17699e-23
1.14917e-22
8.75089e-22
7.79037e-21
6.8359e-20
4.19389e-19
2.81038e-18
1.29176e-17
6.30459e-17
1.92693e-16
6.09117e-16
1.91404e-15
7.73918e-15
2.55651e-14
1.63452e-13
1.26655e-11
2.27067e-10
1.44489e-09
3.26792e-09
3.66001e-09
8.81799e-09
5.82824e-09
1.65049e-08
5.93675e-09
2.02796e-08
3.69157e-09
1.57027e-08
1.38931e-09
7.46147e-09
2.10966e-09
2.77841e-10
2.64976e-09
2.80216e-09
1.43377e-11
2.0081e-10
3.44055e-13
8.24719e-12
1.57401e-16
2.64854e-16
2.07559e-16
1.01043e-16
3.00922e-17
8.1963e-18
1.92814e-18
3.90818e-19
8.22843e-20
1.9951e-20
6.22304e-21
2.29743e-21
8.17611e-22
2.52994e-22
9.10424e-23
8.84987e-23
4.77215e-22
3.76109e-21
3.45737e-20
2.41207e-19
1.792e-18
1.01941e-17
6.60008e-17
2.35531e-16
7.43083e-16
2.3901e-15
6.5177e-15
2.32699e-14
8.47294e-14
2.70549e-13
6.95865e-12
5.78355e-10
5.5102e-09
7.95036e-09
1.92226e-08
4.28252e-08
4.26118e-08
1.03334e-07
6.19253e-08
1.7371e-07
5.92315e-08
1.98201e-07
3.54204e-08
1.46525e-07
1.30147e-08
6.75544e-08
1.88474e-08
2.38643e-09
2.284e-08
2.31501e-08
1.2485e-10
1.67211e-09
3.05343e-12
7.03063e-11
9.47562e-16
1.71968e-15
1.12783e-15
5.75728e-16
2.00201e-16
7.22967e-17
1.10211e-17
2.62146e-18
4.90517e-19
9.04429e-20
1.95552e-20
5.32311e-21
1.76292e-21
5.56247e-22
2.26081e-22
2.42124e-22
1.7758e-21
1.46951e-20
1.45062e-19
1.06476e-18
7.57366e-18
4.71577e-17
2.56521e-16
9.41873e-16
3.15104e-15
1.00031e-14
2.92524e-14
7.88969e-14
2.42581e-13
8.00463e-13
6.94474e-12
3.80126e-10
1.52454e-08
1.6461e-08
7.11253e-08
1.07392e-07
2.25764e-07
4.8853e-07
4.48496e-07
1.07855e-06
5.98208e-07
1.64043e-06
5.38328e-07
1.7439e-06
3.10681e-07
1.23431e-06
1.11954e-07
5.57626e-07
1.54826e-07
1.89682e-08
1.80837e-07
1.75021e-07
1.01844e-09
1.28087e-08
2.42129e-11
5.40138e-10
4.99548e-15
9.54997e-15
6.23632e-15
2.9552e-15
1.29546e-15
4.5475e-16
9.96535e-17
1.73152e-17
3.31996e-18
5.18365e-19
8.55564e-20
1.37625e-20
4.06782e-21
1.16753e-21
5.92635e-22
6.51684e-22
5.71742e-21
5.30802e-20
4.76714e-19
4.92147e-18
3.62007e-17
2.14173e-16
1.01321e-15
4.28673e-15
1.78622e-14
5.78987e-14
1.61135e-13
3.75907e-13
8.02073e-13
2.09807e-12
1.00573e-11
7.05523e-10
1.81265e-08
8.47519e-09
1.57399e-07
1.92654e-07
7.85413e-07
1.26318e-06
2.31769e-06
4.60849e-06
4.12348e-06
9.45418e-06
5.0672e-06
1.306e-05
4.3274e-06
1.3051e-05
2.44465e-06
8.97623e-06
8.72837e-07
4.08196e-06
1.15185e-06
1.37889e-07
1.29066e-06
1.19619e-06
7.4797e-09
8.84798e-08
1.68981e-10
3.63283e-09
3.14156e-14
6.04783e-14
4.04005e-14
1.92528e-14
7.77477e-15
2.37738e-15
6.55819e-16
1.32208e-16
2.52764e-17
3.3735e-18
4.724e-19
6.2248e-20
1.21754e-20
3.81031e-21
1.54794e-21
1.57694e-21
1.55224e-20
1.83253e-19
1.96804e-18
1.75186e-17
1.36745e-16
1.01356e-15
5.27988e-15
2.59458e-14
1.05977e-13
3.5251e-13
9.49383e-13
2.10257e-12
3.93296e-12
6.77261e-12
1.96115e-11
3.63561e-10
7.06967e-08
1.89455e-07
1.89952e-07
1.61926e-06
2.1033e-06
7.33458e-06
1.09465e-05
1.88623e-05
3.29259e-05
3.0449e-05
6.24231e-05
3.48141e-05
8.16878e-05
2.86767e-05
7.81192e-05
1.61197e-05
5.32047e-05
5.93762e-06
2.48499e-05
7.38868e-06
9.00271e-07
7.85536e-06
6.95556e-06
4.76117e-08
5.42132e-07
9.87262e-10
2.03086e-08
1.78618e-13
3.68143e-13
2.6606e-13
1.23266e-13
4.62499e-14
1.22085e-14
3.97124e-15
8.39253e-16
1.78217e-16
2.14988e-17
2.98661e-18
3.19427e-19
4.12648e-20
9.4579e-21
3.75686e-21
3.74144e-21
3.12373e-20
5.38414e-19
5.85762e-18
6.95346e-17
6.93542e-16
4.90148e-15
3.16745e-14
1.6828e-13
7.12086e-13
2.33269e-12
6.02427e-12
1.26502e-11
2.25195e-11
3.45413e-11
5.45035e-11
2.98941e-10
2.52359e-08
1.99792e-06
1.61642e-06
2.27666e-06
2.23067e-06
1.42041e-05
1.77613e-05
4.99099e-05
6.94481e-05
0.000109777
0.000170182
0.000166578
0.000289115
0.000185319
0.000369268
0.0001515
0.000357949
8.67165e-05
0.000251777
3.38048e-05
0.000125119
3.98957e-05
5.02122e-06
4.0433e-05
3.44714e-05
2.57707e-07
2.89545e-06
4.25785e-09
9.31898e-08
8.72276e-13
1.95216e-12
1.56131e-12
8.03468e-13
3.23563e-13
7.87024e-14
2.21703e-14
4.57463e-15
9.91261e-16
1.71817e-16
1.85269e-17
2.13493e-18
2.21802e-19
2.98991e-20
1.27552e-20
9.09584e-21
5.47467e-20
1.18168e-18
1.9798e-17
2.32169e-16
2.66669e-15
2.3816e-14
1.8406e-13
1.09397e-12
4.97008e-12
1.69652e-11
4.25486e-11
8.41607e-11
1.42202e-10
2.08025e-10
2.59244e-10
5.84335e-10
8.34242e-09
1.15736e-06
7.21246e-07
1.8606e-05
1.66546e-05
1.99367e-05
1.98944e-05
8.80685e-05
0.000105459
0.000238472
0.000308751
0.00044109
0.000605446
0.000610662
0.00088797
0.000680276
0.00106226
0.000598773
0.00106415
0.00037082
0.000866923
0.000160399
0.000490263
0.000180404
2.42129e-05
0.000175675
0.000146225
1.27463e-06
1.37168e-05
1.19953e-08
3.64753e-07
3.37703e-12
8.53258e-12
7.82173e-12
4.57395e-12
2.06216e-12
5.32295e-13
1.17752e-13
3.00958e-14
6.89327e-15
1.23989e-15
1.19545e-16
1.1201e-17
1.31003e-18
1.99524e-19
6.91343e-20
4.5873e-20
8.25532e-20
1.8008e-18
4.67792e-17
8.39234e-16
1.01494e-14
1.11177e-13
9.84679e-13
6.76927e-12
3.4227e-11
1.26284e-10
3.33311e-10
6.52408e-10
1.03362e-09
1.40794e-09
1.53593e-09
2.11052e-09
1.75499e-08
5.33843e-07
2.20933e-08
1.31445e-05
9.51106e-06
0.000118889
0.000111962
0.000119064
0.000121653
0.000374354
0.000430504
0.000768562
0.000917808
0.0011726
0.00143867
0.00146141
0.00185571
0.00157851
0.00208984
0.00147611
0.00209754
0.00113591
0.00186168
0.000583267
0.00136712
0.000620399
0.00010124
0.000591092
0.000499315
5.63586e-06
5.54364e-05
3.12497e-08
1.36e-06
8.40583e-12
2.82041e-11
3.14464e-11
2.19471e-11
1.13965e-11
3.30867e-12
8.24361e-13
1.91954e-13
4.1953e-14
8.30358e-15
6.75804e-16
7.49547e-17
7.65154e-18
9.14166e-19
3.05997e-19
1.59102e-19
1.31107e-19
2.26985e-18
7.02817e-17
1.89745e-15
3.3232e-14
4.59901e-13
4.74852e-12
3.70761e-11
2.20196e-10
9.07328e-10
2.7274e-09
5.70225e-09
9.06945e-09
1.0458e-08
9.96022e-09
1.04178e-08
2.56211e-08
1.56524e-06
6.57698e-06
4.78772e-06
9.7864e-05
8.0489e-05
0.000487209
0.000473412
0.000474179
0.000491072
0.00104676
0.00114696
0.00167597
0.00187468
0.00221035
0.00251576
0.00255626
0.00298743
0.00268738
0.00322699
0.00257569
0.00322874
0.0021953
0.00297757
0.00152721
0.00245985
0.00158089
0.000353394
0.00151501
0.00130184
2.2629e-05
0.000198148
8.56116e-08
4.77224e-06
5.92428e-11
9.35691e-11
8.24397e-11
5.21461e-11
1.84913e-11
5.42036e-12
1.19552e-12
2.53863e-13
5.05725e-14
5.06948e-15
3.48542e-16
4.38819e-17
5.16979e-18
1.25724e-18
5.96746e-19
4.64586e-19
2.45715e-18
8.61698e-17
2.96138e-15
8.87701e-14
1.55669e-12
2.01865e-11
1.82687e-10
1.20089e-09
6.04818e-09
2.07233e-08
5.67431e-08
9.6405e-08
9.41939e-08
7.71682e-08
5.90146e-08
6.34913e-08
5.95839e-07
3.59589e-05
2.75128e-05
6.2871e-05
4.70274e-05
0.000442153
0.000397994
0.00123558
0.00121069
0.00121843
0.00124303
0.00203346
0.00214402
0.00276888
0.00295907
0.00331328
0.00352196
0.00362751
0.00382794
0.00375233
0.00400892
0.00365643
0.00408566
0.00328567
0.00396155
0.00262226
0.00350149
0.00267242
0.000948209
0.00259358
0.00236945
8.12662e-05
0.000575491
3.50303e-07
2.00554e-05
1.75942e-10
2.26488e-10
1.82214e-10
8.85199e-11
3.04692e-11
7.25333e-12
1.26271e-12
2.95221e-13
3.70219e-14
2.1133e-15
1.95825e-16
2.53805e-17
4.8849e-18
2.2351e-18
1.55767e-18
2.58124e-18
8.55882e-17
3.59923e-15
1.41306e-13
4.248e-12
7.03412e-11
7.90738e-10
5.94988e-09
3.30768e-08
1.53065e-07
4.52059e-07
6.338e-07
6.24422e-07
5.16629e-07
3.71337e-07
2.62631e-07
7.59405e-07
1.9646e-05
1.09141e-05
0.00023495
0.000186825
0.000345088
0.000291916
0.00115777
0.00108349
0.00220479
0.00216266
0.00221354
0.00222116
0.00308978
0.00316564
0.00363168
0.00369022
0.00391579
0.00393294
0.00410386
0.00408782
0.00425083
0.0042425
0.00432111
0.00440531
0.00416516
0.00448468
0.00362171
0.00429003
0.00364943
0.00196659
0.00356141
0.00339826
0.00276087
0.000286109
0.00142288
3.27452e-06
0.000105744
3.29546e-10
4.05286e-10
3.45812e-10
1.40635e-10
3.8098e-11
6.85253e-12
1.63414e-12
2.13315e-13
1.62036e-14
1.07778e-15
9.94775e-17
1.6006e-17
7.51097e-18
4.79977e-18
4.10591e-18
6.72998e-17
3.49781e-15
1.64027e-13
6.74848e-12
1.99101e-10
2.92198e-09
2.5667e-08
1.65718e-07
8.19448e-07
2.51938e-06
4.55822e-06
4.95804e-06
3.48677e-06
1.99699e-06
1.09895e-06
1.33811e-06
2.71956e-05
0.000135044
0.000110299
0.000782001
0.000668603
0.000995083
0.000896005
0.00208277
0.00198347
0.00315286
0.00309347
0.00319191
0.00318247
0.0037143
0.00371637
0.00392052
0.00390394
0.00405631
0.00399804
0.00419184
0.00408541
0.00435777
0.00422844
0.00452838
0.00443242
0.00461048
0.00463387
0.0043662
0.00468596
0.00455161
0.00400419
0.00435523
0.00321839
0.00235912
0.00309532
0.00388166
0.0043101
0.00430558
0.00380227
0.000856808
0.00285774
0.00268187
0.00185083
9.0403e-05
0.000618305
4.88259e-10
6.15411e-10
5.38658e-10
1.74476e-10
3.52225e-11
7.91739e-12
1.11447e-12
1.05278e-13
5.63628e-15
4.43087e-16
8.57963e-17
2.4101e-17
1.41225e-17
9.10588e-18
4.49722e-17
2.57468e-15
1.55069e-13
7.78181e-12
3.2161e-10
8.78293e-09
1.06638e-07
6.65419e-07
3.52081e-06
1.28578e-05
2.81452e-05
3.32559e-05
2.35511e-05
1.24121e-05
6.18713e-06
3.41072e-06
2.21933e-05
0.000358637
0.000222891
0.000545128
0.000438963
0.00158071
0.00142882
0.00186442
0.00173204
0.00300724
0.00290224
0.00367269
0.00364059
0.00370991
0.00369599
0.00388546
0.00387329
0.00394807
0.0039233
0.00395395
0.0038951
0.00400167
0.00384682
0.00419207
0.00388884
0.00455826
0.0044416
0.00429831
0.00410326
0.0047269
0.00470002
0.00446857
0.00447532
0.00462826
0.00470167
0.00458394
0.00474737
0.00476499
0.00459216
0.00369438
0.00354763
0.00424992
0.00457817
0.00459474
0.00418328
0.00245733
0.00144737
0.0023388
0.00339484
0.00324224
0.00172457
0.00230411
0.00252517
0.00183495
7.52642e-10
8.911e-10
7.20626e-10
1.63381e-10
2.77896e-11
6.83807e-12
6.42572e-13
4.00018e-14
2.32783e-15
3.17888e-16
8.55672e-17
3.77085e-17
2.9825e-17
3.83157e-17
1.36135e-15
1.03376e-13
7.17455e-12
3.77042e-10
1.49126e-08
2.58596e-07
1.9632e-06
1.22856e-05
4.8555e-05
0.00012059
0.000161192
0.000130796
7.36976e-05
3.31824e-05
1.18756e-05
2.12616e-05
0.000371387
0.00091852
0.000841113
0.00125661
0.00111438
0.00247186
0.00229796
0.00277587
0.00263538
0.00359692
0.00353957
0.00384623
0.00383358
0.00386469
0.00385642
0.00391717
0.00392353
0.00390346
0.00394636
0.00384203
0.00393329
0.00375035
0.00382854
0.00393457
0.00376855
0.0036967
0.00369536
0.00429244
0.00408909
0.00388051
0.00474688
0.00466465
0.00428709
0.00429272
0.00450925
0.00479998
0.00476465
0.00483256
0.00478257
0.00478023
0.00409183
0.00398689
0.00454483
0.00478619
0.00478096
0.00449648
0.00314401
0.00317553
0.00388032
0.00380479
0.00408266
0.000417333
0.00315868
0.00346195
0.00405536
1.05331e-09
1.1763e-09
7.38942e-10
1.22485e-10
1.79145e-11
4.59069e-12
2.55489e-13
1.29282e-14
1.09449e-15
2.64153e-16
1.41383e-16
9.56257e-17
6.65416e-17
7.7582e-16
5.30699e-14
4.54113e-12
3.404e-10
1.68223e-08
3.73316e-07
3.33587e-06
2.60968e-05
0.00011827
0.00031297
0.000482364
0.000480149
0.000306085
0.000136775
4.62576e-05
3.08669e-05
0.000249075
0.00134843
0.00104975
0.00171487
0.00154575
0.00210253
0.00192117
0.00324416
0.00310473
0.00346197
0.00336534
0.00381709
0.00379572
0.00392922
0.00391957
0.00393109
0.00393327
0.00402096
0.00409845
0.00412939
0.00438663
0.00411693
0.00457832
0.0037689
0.00394006
0.00417307
0.00449503
0.00371921
0.00364837
0.00367126
0.0037975
0.00406451
0.00384344
0.00367761
0.00469641
0.00453125
0.00404848
0.00404123
0.0043026
0.00481685
0.00485787
0.0048485
0.00472631
0.00487936
0.00443619
0.00437134
0.00476556
0.00489462
0.00490417
0.00474145
0.00381597
0.0040149
0.00432061
0.00431765
0.00432967
0.000650705
0.00306062
0.00442342
0.00472729
1.44931e-09
1.3325e-09
5.04428e-10
7.34241e-11
1.07852e-11
1.47225e-12
8.10883e-14
5.61003e-15
8.47262e-16
3.6795e-16
2.36519e-16
2.04929e-16
4.13224e-16
2.47813e-14
2.186e-12
2.05317e-10
1.45565e-08
3.95147e-07
4.10075e-06
3.72066e-05
0.000186366
0.000512254
0.000834733
0.000932443
0.000763749
0.000430166
0.000154893
6.85792e-05
0.000220812
0.00129758
0.00213088
0.00209023
0.00256155
0.00240394
0.00293608
0.00276805
0.00367838
0.00360954
0.00376934
0.00373222
0.00390276
0.00388217
0.00413964
0.00410149
0.00414949
0.00415672
0.00462239
0.00479317
0.00510955
0.00560685
0.00482426
0.00522227
0.00556457
0.00593981
0.00402749
0.0043494
0.00474148
0.00517704
0.00362876
0.00367357
0.00385064
0.00414429
0.00381442
0.00365152
0.00361194
0.00455289
0.00431271
0.00379555
0.00378503
0.0040382
0.00475688
0.00487733
0.00478775
0.00457713
0.00490391
0.00471369
0.00469085
0.00490876
0.00492749
0.00494931
0.0049107
0.00441713
0.00465171
0.00469206
0.004746
0.00442037
0.00131296
0.00371181
0.00492083
0.0049597
1.91212e-09
1.45424e-09
2.91804e-10
3.65709e-11
5.98e-12
4.58647e-13
3.03488e-14
4.20321e-15
1.56083e-15
8.25217e-16
8.37012e-16
4.07295e-16
1.08556e-14
9.0979e-13
9.33078e-11
8.21253e-09
3.35441e-07
4.05542e-06
4.1828e-05
0.000230329
0.000670037
0.00114025
0.00136518
0.00127274
0.000904382
0.000422358
0.000170087
0.000239987
0.00106168
0.00267619
0.00234971
0.00297449
0.00281189
0.00327798
0.00315125
0.00351657
0.00341305
0.00381799
0.00379294
0.00386084
0.00384027
0.00404049
0.00397433
0.00475218
0.00461171
0.00485907
0.0048316
0.00595015
0.00610126
0.00672462
0.00694248
0.00562132
0.00604687
0.00642692
0.00674794
0.00454156
0.00501238
0.00551781
0.00601399
0.00369019
0.00391266
0.00426491
0.00473035
0.00363666
0.00360896
0.00371451
0.00432685
0.00404129
0.0036302
0.00363067
0.00378005
0.00460617
0.00481883
0.00463806
0.00434717
0.00485084
0.00491461
0.00493155
0.00497107
0.00488311
0.00491762
0.00499664
0.00487625
0.00505658
0.00497553
0.00506104
0.00470808
0.0019858
0.00381852
0.00518567
0.00514789
2.11739e-09
1.03057e-09
1.44398e-10
3.13717e-11
2.26216e-12
1.53859e-13
1.97829e-14
6.27287e-15
3.27783e-15
2.05359e-15
1.04672e-15
5.54366e-15
3.49684e-13
3.54071e-11
3.81415e-09
1.98074e-07
3.27015e-06
3.97561e-05
0.000242564
0.000760552
0.00137241
0.00172707
0.00175892
0.00147069
0.000916948
0.000394489
0.00032822
0.00103626
0.00265854
0.0032907
0.00331627
0.00352119
0.00344096
0.00366722
0.00361022
0.00375985
0.0037215
0.00381307
0.00378074
0.00391162
0.00385723
0.00443117
0.0042448
0.00576705
0.00550477
0.00605544
0.00595042
0.00686246
0.00666811
0.00730208
0.00728552
0.00710254
0.0072176
0.006464
0.0068438
0.00713315
0.0072859
0.00526729
0.00582466
0.00635072
0.00680276
0.00397523
0.00437949
0.00490118
0.00548985
0.0036129
0.00373804
0.00403371
0.0040514
0.00378283
0.00362229
0.00363696
0.00363892
0.00437523
0.00467283
0.00440826
0.00407032
0.00471146
0.00503088
0.00508089
0.00495602
0.00475507
0.00480532
0.00500283
0.00518336
0.00530641
0.00515471
0.00525417
0.00476912
0.000366229
0.00233638
0.00536273
0.00522462
2.10782e-09
5.18314e-10
7.51931e-11
1.15656e-11
7.64581e-13
1.03055e-13
3.21255e-14
1.70195e-14
8.83934e-15
2.89055e-15
4.5687e-15
1.41099e-13
1.22311e-11
1.36414e-09
9.99009e-08
1.95245e-06
3.20952e-05
0.000232599
0.000778981
0.00149759
0.00193939
0.00208551
0.00199777
0.00159289
0.000920001
0.000571114
0.00110996
0.00259135
0.00360599
0.00348577
0.00366413
0.00364877
0.00371653
0.00370175
0.00373584
0.00372806
0.00375797
0.00374553
0.00378302
0.00368029
0.00406932
0.00391472
0.00516804
0.00479641
0.00615969
0.00600364
0.00648
0.00630759
0.00697098
0.0068027
0.00638327
0.0073993
0.00730446
0.00693676
0.00715699
0.00715976
0.00738122
0.00746659
0.00746491
0.00608304
0.00662247
0.00706491
0.00738363
0.00448088
0.00504857
0.00567527
0.00629218
0.00376777
0.00408284
0.00456732
0.00379309
0.00365207
0.00378983
0.00380524
0.00365253
0.00409784
0.00444711
0.00413171
0.003812
0.00449353
0.00506391
0.00514397
0.00486389
0.00454874
0.00461488
0.00493422
0.00536524
0.00545587
0.00524543
0.00536071
0.00431017
0.000204967
0.00188596
0.00545669
0.00514449
1.70277e-09
2.27868e-10
4.94959e-11
3.94064e-12
5.90055e-13
1.86188e-13
9.34762e-14
4.76164e-14
1.50602e-14
6.41887e-15
8.05282e-14
4.27615e-12
4.22521e-10
3.75148e-08
1.11432e-06
1.92699e-05
0.00018859
0.00075295
0.00152335
0.00199289
0.00219718
0.00227774
0.00217725
0.00177331
0.00122133
0.00138203
0.00263114
0.00366916
0.00377681
0.00383116
0.00371318
0.00375137
0.00363605
0.00367767
0.00357759
0.0035977
0.0036105
0.00357815
0.00380112
0.0035482
0.004436
0.00410122
0.00579864
0.00545866
0.00593754
0.00594987
0.0060972
0.00596374
0.00668108
0.00640335
0.00560224
0.00531116
0.00735539
0.00714528
0.00655521
0.00687324
0.00753833
0.00758316
0.00755615
0.00748376
0.00683426
0.0072599
0.00753399
0.00764751
0.00517124
0.00582741
0.00645839
0.00699802
0.00412279
0.00463511
0.00527213
0.00366905
0.00366904
0.00414884
0.00416547
0.00381749
0.00383758
0.00417386
0.0038695
0.00368925
0.00422708
0.0050198
0.00512789
0.00469401
0.0042925
0.00437238
0.00479222
0.00547218
0.00554161
0.00526034
0.00540201
0.00394853
0.000268686
0.00199092
0.00548619
0.00505023
9.39684e-10
1.1309e-10
1.88925e-11
3.4755e-12
1.20027e-12
5.41895e-13
2.81481e-13
1.06973e-13
1.8647e-14
7.73535e-14
1.87144e-12
1.29726e-10
1.22317e-08
5.89148e-07
9.92848e-06
0.00012728
0.000654723
0.00148398
0.0019498
0.00216701
0.00229434
0.00239308
0.00240295
0.00220188
0.00212253
0.00282342
0.00371661
0.00387042
0.00390665
0.00374555
0.00382873
0.0035713
0.00366833
0.00335834
0.00346629
0.00325205
0.0032768
0.00336444
0.00326789
0.00387949
0.00338716
0.00496954
0.00442301
0.00590432
0.00573452
0.00503537
0.00533349
0.00516989
0.00507536
0.00484495
0.00621408
0.00587928
0.00498009
0.00473948
0.00715723
0.00686805
0.00613133
0.006523
0.00766598
0.00763207
0.00754493
0.00738584
0.00740435
0.00763834
0.00772519
0.00773351
0.00595132
0.00659252
0.00712523
0.00751481
0.00468831
0.00535162
0.00605404
0.00368528
0.00382662
0.00472596
0.00475143
0.00417458
0.00371066
0.00391065
0.0037339
0.00369978
0.00396278
0.00491205
0.00505821
0.00447348
0.00402932
0.0041168
0.0046031
0.00553142
0.00559158
0.00522492
0.00540192
0.00389076
0.000350993
0.00226106
0.00549924
0.00501921
5.13007e-10
8.62037e-11
2.01934e-11
7.92764e-12
3.56148e-12
1.61573e-12
7.5322e-13
9.37431e-14
1.03593e-13
1.38855e-12
4.71623e-11
3.67856e-09
2.35152e-07
4.91112e-06
7.56425e-05
0.000500199
0.00136027
0.00183468
0.00203369
0.00218818
0.00234326
0.00253926
0.00274094
0.00293089
0.0033314
0.0038306
0.00396516
0.00381196
0.00386745
0.00359929
0.00372021
0.00329722
0.00345856
0.00296044
0.0031274
0.00279953
0.00283645
0.00302194
0.00283218
0.00391439
0.00313959
0.00535576
0.0047127
0.00558656
0.00561588
0.00441713
0.0046136
0.00477595
0.00458606
0.0045233
0.00429131
0.00417305
0.0057191
0.00532288
0.00447138
0.00424744