/*--------------------------------*- C++ -*----------------------------------*\
  =========                 |
  \\      /  F ield         | OpenFOAM: The Open Source CFD Toolbox
   \\    /   O peration     | Website:  https://openfoam.org
    \\  /    A nd           | Version:  dev
     \\/     M anipulation  |
\*---------------------------------------------------------------------------*/
FoamFile
{
    version     2.0;
    format      ascii;
    class       volScalarField;
    location    "2500";
    object      k;
}
// * * * * * * * * * * * * * * * * * * * * * * * * * * * * * * * * * * * * * //

dimensions      [0 2 -2 0 0 0 0];

internalField   nonuniform List<scalar> 
9836
(
0.000159832
0.000166203
0.000151488
0.000142012
0.00021453
0.00012273
0.00012061
0.000228657
0.000193373
0.000109438
0.000111207
0.000215054
0.000234129
0.000148392
0.000105651
0.000105683
0.000180719
0.000256487
0.000204998
0.000123813
0.000103978
0.000102843
0.000147011
0.00025408
0.00024561
0.000156981
0.000114319
0.000102815
0.000101227
0.000127958
0.000236617
0.000267123
0.000204758
0.000130434
0.000109478
0.000102071
0.00010032
0.000115251
0.00019903
0.000276929
0.000247127
0.000158497
0.000118748
0.00010642
0.000101503
9.96135e-05
0.000107993
0.000159354
0.000270486
0.000271729
0.000197941
0.000132985
0.000112477
0.000104404
0.000101055
9.89859e-05
0.000103818
0.000136097
0.00024939
0.000286472
0.000241
0.000156063
0.000120824
0.000108338
0.000103042
0.000100715
9.85448e-05
0.000101439
0.000120698
0.000209396
0.000290706
0.0002718
0.000188171
0.000133321
0.000113757
0.000105567
0.000102091
0.000100447
9.82186e-05
9.99634e-05
0.000111678
0.000167812
0.000282445
0.000288199
0.000228106
0.000151142
0.000121644
0.000109093
0.000103719
0.000101338
0.000100213
9.79773e-05
9.89372e-05
0.000106301
0.000142576
0.000259544
0.0003002
0.000263918
0.00017877
0.000131376
0.000114479
0.000105993
0.000102329
0.000100724
0.000100037
9.78325e-05
9.81751e-05
0.000102972
0.000125891
0.000219117
0.000301601
0.000288467
0.000212064
0.000146595
0.000120859
0.000109613
0.000103779
0.000101235
0.000100225
9.99014e-05
9.78117e-05
9.75154e-05
0.00010074
0.000115571
0.000176992
0.000292518
0.000300597
0.000250069
0.000168116
0.000129396
0.000114181
0.000106171
0.000102049
0.000100456
9.98151e-05
9.98067e-05
9.78494e-05
9.68512e-05
9.91951e-05
0.000109111
0.000149484
0.00026846
0.000311286
0.000280001
0.000197919
0.000141059
0.000119778
0.000109426
0.00010359
0.000100837
9.98363e-05
9.9479e-05
9.97069e-05
9.79e-05
9.63115e-05
9.8038e-05
0.000104998
0.000131623
0.000227881
0.000311144
0.000301236
0.000231808
0.000158891
0.000126505
0.000113445
0.00010587
0.000101583
9.99456e-05
9.91707e-05
9.92471e-05
9.96195e-05
9.79397e-05
9.58862e-05
9.70972e-05
0.000102284
0.000120224
0.000186117
0.000301305
0.000311237
0.000267041
0.000183714
0.000135866
0.000118055
0.000108798
0.000103099
0.000100248
9.91365e-05
9.86869e-05
9.90581e-05
9.95375e-05
9.79687e-05
9.55311e-05
9.63226e-05
0.000100277
0.000112977
0.000156974
0.000276131
0.000320446
0.000293139
0.000214372
0.000150167
0.000123466
0.00011227
0.000105218
0.000100956
9.9227e-05
9.83208e-05
9.83699e-05
9.88678e-05
9.94638e-05
9.79905e-05
9.52292e-05
9.56905e-05
9.87204e-05
0.000108138
0.000138384
0.000236927
0.000319468
0.000311617
0.000247676
0.000170763
0.000131073
0.000116044
0.000107835
0.000102455
9.95307e-05
9.83019e-05
9.77195e-05
9.81111e-05
9.8662e-05
9.94031e-05
9.80027e-05
9.50154e-05
9.51747e-05
9.74839e-05
0.000104847
0.000126111
0.00019601
0.000309083
0.000320389
0.000280325
0.00019761
0.000142301
0.000120548
0.000110732
0.000104423
0.000100304
9.84038e-05
9.74387e-05
9.72898e-05
9.78421e-05
9.84965e-05
9.93458e-05
9.79836e-05
9.48689e-05
9.47107e-05
9.64981e-05
0.000102591
0.000118165
0.000165245
0.000283621
0.000328118
0.000303505
0.000227985
0.000159374
0.000126377
0.000113875
0.000106642
0.000101756
9.87422e-05
9.74539e-05
9.67172e-05
9.69484e-05
9.75917e-05
9.83429e-05
9.92896e-05
9.79493e-05
9.48176e-05
9.42992e-05
9.57404e-05
0.000100853
0.00011315
0.000146031
0.000246037
0.000326612
0.00031986
0.00025972
0.000181914
0.00013556
0.000117412
0.000109041
0.000103437
9.96066e-05
9.75998e-05
9.65803e-05
9.61791e-05
9.66466e-05
9.73642e-05
9.81875e-05
9.92394e-05
9.79181e-05
9.48293e-05
9.38951e-05
9.51257e-05
9.94175e-05
0.000109972
0.000133161
0.000206244
0.000316358
0.000327748
0.000289934
0.000209239
0.000149053
0.00012229
0.000111585
0.000105287
0.000100896
9.80156e-05
9.66368e-05
9.57862e-05
9.57799e-05
9.63446e-05
9.71394e-05
9.8042e-05
9.91961e-05
9.78915e-05
9.48503e-05
9.35228e-05
9.45632e-05
9.82407e-05
0.000107657
0.000124595
0.000174412
0.000292239
0.000334722
0.000311324
0.000238291
0.000168144
0.000129446
0.000114511
0.000107202
0.000102365
9.89195e-05
9.68452e-05
9.57766e-05
9.51686e-05
9.54187e-05
9.60633e-05
9.69269e-05
9.79063e-05
9.91641e-05
9.78719e-05
9.48507e-05
9.31935e-05
9.40383e-05
9.72428e-05
0.00010561
0.000118744
0.000154241
0.000257191
0.000333597
0.000326062
0.000268246
0.000191301
0.000140477
0.000118411
0.000109266
0.000103782
0.00010006
9.73547e-05
9.58779e-05
9.50018e-05
9.47089e-05
9.50921e-05
9.58028e-05
9.67245e-05
9.77837e-05
9.91492e-05
9.78606e-05
9.48325e-05
9.28958e-05
9.35619e-05
9.6359e-05
0.000103735
0.000114674
0.000140138
0.000218484
0.000324768
0.000333391
0.000296452
0.000217806
0.000155653
0.000124222
0.000111622
0.000105358
0.000101126
9.82151e-05
9.61574e-05
9.50565e-05
9.43589e-05
9.43324e-05
9.47999e-05
9.55559e-05
9.65378e-05
9.76914e-05
9.9157e-05
9.78568e-05
9.48089e-05
9.26491e-05
9.31458e-05
9.55825e-05
0.000102077
0.000111674
0.000130433
0.000184671
0.000303466
0.000341138
0.000316312
0.000245121
0.000175356
0.000132756
0.000114761
0.000106933
0.00010233
9.90684e-05
9.67476e-05
9.52295e-05
9.43724e-05
9.3881e-05
9.40215e-05
9.45398e-05
9.53369e-05
9.63789e-05
9.76376e-05
9.91875e-05
9.78511e-05
9.47866e-05
9.24543e-05
9.2804e-05
9.49252e-05
0.000100708
0.000109227
0.000123633
0.00016272
0.000270557
0.000340748
0.000331988
0.00027299
0.000198124
0.000144896
0.000119279
0.000108886
0.000103422
9.99982e-05
9.74052e-05
9.56044e-05
9.44821e-05
9.38194e-05
9.35235e-05
9.37762e-05
9.43221e-05
9.51638e-05
9.62512e-05
9.76469e-05
9.92472e-05
9.78416e-05
9.47692e-05
9.22971e-05
9.25287e-05
9.43731e-05
9.96156e-05
0.000107223
0.00011895
0.000147207
0.000232923
0.000333833
0.00033944
0.000300759
0.000223167
0.000160858
0.000125948
0.000111307
0.000104799
0.000100773
9.80992e-05
9.60775e-05
9.47394e-05
9.39007e-05
9.34262e-05
9.32767e-05
9.35978e-05
9.41714e-05
9.50415e-05
9.62519e-05
9.77777e-05
9.9347e-05
9.78321e-05
9.47464e-05
9.21743e-05
9.23023e-05
9.3911e-05
9.86524e-05
0.000105681
0.000115434
0.000136335
0.00019739
0.000315981
0.000347225
0.00032063
0.000249463
0.000180333
0.000135482
0.000114954
0.000106203
0.000101699
9.86717e-05
9.65756e-05
9.50687e-05
9.41096e-05
9.351e-05
9.31961e-05
9.31327e-05
9.35057e-05
9.41568e-05
9.51186e-05
9.6482e-05
9.80465e-05
9.94794e-05
9.78292e-05
9.47267e-05
9.20962e-05
9.21115e-05
9.35254e-05
9.77697e-05
0.00010445
0.00011265
0.000128651
0.000172624
0.000286013
0.000348324
0.000336772
0.000275957
0.000202559
0.000148417
0.000120126
0.00010831
0.000102553
9.92661e-05
9.69876e-05
9.54018e-05
9.4363e-05
9.37301e-05
9.33015e-05
9.31427e-05
9.31757e-05
9.359e-05
9.44197e-05
9.55315e-05
9.70527e-05
9.85393e-05
9.9705e-05
9.7829e-05
9.4704e-05
9.20359e-05
9.19076e-05
9.32051e-05
9.70033e-05
0.00010331
0.000110329
0.000123018
0.000155673
0.000250376
0.000343666
0.000345672
0.000302103
0.000226601
0.000164728
0.000127733
0.000111012
0.000103801
9.97804e-05
9.73329e-05
9.56737e-05
9.45893e-05
9.39515e-05
9.35777e-05
9.32996e-05
9.32685e-05
9.353e-05
9.4128e-05
9.51019e-05
9.64961e-05
9.82738e-05
9.96542e-05
0.000100081
0.000100135
9.78307e-05
9.46609e-05
9.19919e-05
9.1688e-05
9.29187e-05
9.6358e-05
0.000102197
0.000108372
0.000118875
0.000143367
0.000215573
0.000330428
0.000352579
0.000324284
0.000251458
0.000184142
0.000138007
0.000115308
0.000105224
0.000100422
9.7635e-05
9.58321e-05
9.47244e-05
9.41092e-05
9.38505e-05
9.36916e-05
9.3567e-05
9.37302e-05
9.42693e-05
9.52324e-05
9.66356e-05
9.85127e-05
0.000100107
0.000100237
0.000100631
0.000100171
0.000100336
9.78294e-05
9.46173e-05
9.19412e-05
9.14839e-05
9.26481e-05
9.58471e-05
0.000101146
0.000106721
0.000115743
0.000134497
0.000186932
0.000305567
0.000356697
0.000339928
0.000277067
0.000205563
0.000151613
0.000121096
0.000107633
0.000101176
9.78793e-05
9.59469e-05
9.47548e-05
9.41801e-05
9.40226e-05
9.4092e-05
9.41638e-05
9.426e-05
9.47021e-05
9.56636e-05
9.71507e-05
9.92149e-05
0.000100343
0.000100887
0.000101619
0.000101577
0.000102894
0.0001007
0.000101585
0.000100208
0.000100568
9.78246e-05
9.45792e-05
9.1898e-05
9.13008e-05
9.23903e-05
9.54131e-05
0.000100208
0.000105309
0.000113308
0.000128024
0.000167869
0.000275049
0.000354575
0.000351242
0.000301778
0.000228735
0.000167873
0.000129551
0.000110808
0.000102489
9.81931e-05
9.59781e-05
9.47226e-05
9.4157e-05
9.40832e-05
9.43617e-05
9.47505e-05
9.5149e-05
9.56132e-05
9.65338e-05
9.82226e-05
0.000100686
0.000101693
0.000102708
0.000102772
0.000102978
0.000104421
0.000104551
0.000101304
0.000102555
0.000100273
0.000100829
9.78139e-05
9.45339e-05
9.18714e-05
9.11142e-05
9.21516e-05
9.49885e-05
9.93435e-05
0.00010412
0.000111189
0.000123221
0.000153874
0.000242666
0.000346666
0.000357426
0.000325645
0.000251931
0.000187027
0.000140255
0.000115791
0.000104292
9.88107e-05
9.6018e-05
9.45848e-05
9.40043e-05
9.40361e-05
9.44777e-05
9.52093e-05
9.60564e-05
9.68667e-05
9.79264e-05
9.96706e-05
0.000102454
0.000103653
0.000104641
0.000103949
0.000105166
0.000105843
0.000104171
0.000106198
0.000105974
0.000101813
0.00010327
0.000100293
0.000100936
9.7799e-05
9.4477e-05
9.18173e-05
9.09206e-05
9.19073e-05
9.45801e-05
9.84912e-05
0.000103074
0.000109294
0.000119861
0.000143521
0.000212253
0.000329613
0.000364635
0.000341573
0.000275657
0.000207351
0.000154145
0.000122327
0.000107192
9.98371e-05
9.61636e-05
9.43841e-05
9.36829e-05
9.38228e-05
9.44524e-05
9.54679e-05
9.68157e-05
9.81837e-05
9.95871e-05
0.000101391
0.000103943
0.000105444
0.00010628
0.000106204
0.000107158
0.00010709
0.000108201
0.000107752
0.000105157
0.00010784
0.000107309
0.000102097
0.000103901
0.000100269
0.00010095
9.77762e-05
9.44054e-05
9.17342e-05
9.0721e-05
9.16344e-05
9.41724e-05
9.7712e-05
0.000102039
0.000107681
0.000117458
0.000136226
0.000187921
0.000306128
0.000366506
0.000355261
0.000298977
0.000228912
0.000170308
0.000131327
0.000111301
0.000101544
9.66084e-05
9.42765e-05
9.33051e-05
9.34255e-05
9.42387e-05
9.55231e-05
9.73448e-05
9.9372e-05
0.000101112
0.000102943
0.000105283
0.000106922
0.000107711
0.000107969
0.000108708
0.000109166
0.000110009
0.000109141
0.000110411
0.000109651
0.000106186
0.000109532
0.000108772
0.000102353
0.000104597
0.000100226
0.000100943
9.77428e-05
9.43185e-05
9.16338e-05
9.05027e-05
9.13584e-05
9.36826e-05
9.69979e-05
0.000100987
0.000106336
0.000115435
0.000130865
0.00017141
0.000278428
0.000363973
0.000364029
0.000322079
0.000250661
0.000188599
0.000142799
0.000116955
0.000104293
9.75883e-05
9.4325e-05
9.29719e-05
9.29191e-05
9.38553e-05
9.54255e-05
9.76241e-05
0.00010022
0.000102426
0.00010441
0.000106484
0.00010824
0.000109076
0.000109441
0.000110092
0.000110831
0.000111485
0.000111493
0.000112492
0.000111292
0.00011282
0.000111687
0.000107369
0.000111435
0.000110477
0.000102619
0.000105395
0.000100175
0.000100933
9.7698e-05
9.42342e-05
9.15055e-05
9.02695e-05
9.10753e-05
9.3169e-05
9.62563e-05
9.9982e-05
0.000105181
0.000113492
0.000126884
0.000158979
0.000249473
0.00035641
0.000371392
0.000342273
0.000271965
0.000208247
0.000156638
0.000124741
0.000108049
9.94573e-05
9.47273e-05
9.2827e-05
9.23781e-05
9.32758e-05
9.5089e-05
9.77326e-05
0.000100776
0.000103493
0.000105694
0.0001077
0.000109554
0.00011052
0.000110864
0.000111618
0.000112323
0.000112976
0.000113429
0.00011429
0.000114118
0.000115345
0.000113632
0.000115425
0.000113942
0.00010876
0.000113628
0.000112493
0.000102899
0.000106299
0.00010013
0.000100899
9.76485e-05
9.41597e-05
9.13752e-05
9.00147e-05
9.07442e-05
9.27013e-05
9.54823e-05
9.90028e-05
0.000104051
0.00011155
0.000124074
0.000149543
0.000221621
0.000340863
0.000380135
0.000357144
0.000294633
0.000227965
0.000172959
0.000134329
0.000113565
0.000102195
9.5963e-05
9.29329e-05
9.21004e-05
9.27304e-05
9.44969e-05
9.7605e-05
0.000101001
0.000104225
0.000106748
0.000109099
0.000110975
0.000111968
0.000112398
0.000113506
0.000114052
0.000115123
0.000115406
0.000116765
0.00011657
0.000118127
0.000117004
0.000118712
0.00011619
0.000118332
0.000116438
0.000110422
0.000116076
0.000114847
0.000103179
0.00010735
0.000100045
0.00010082
9.76206e-05
9.41067e-05
9.12491e-05
8.97135e-05
9.03659e-05
9.21743e-05
9.47237e-05
9.80196e-05
0.000102851
0.00010967
0.000121833
0.000142545
0.000198296
0.000319983
0.000383894
0.000371872
0.000316387
0.000248417
0.00019045
0.000146644
0.000120389
0.000106325
9.82209e-05
9.36745e-05
9.21491e-05
9.25844e-05
9.42007e-05
9.72544e-05
0.000100942
0.000104788
0.00010791
0.000110123
0.000112402
0.000113293
0.000114257
0.00011573
0.000116779
0.000119379
0.000119165
0.000123647
0.000120974
0.000127064
0.00012155
0.000128084
0.000120702
0.000125987
0.000119038
0.000122591
0.000119004
0.000112533
0.000118161
0.000116348
0.000103392
0.000109
9.99237e-05
0.000100696
9.7663e-05
9.40939e-05
9.11101e-05
8.93412e-05
8.99229e-05
9.15841e-05
9.39339e-05
9.70327e-05
0.000101629
0.000107909
0.000119681
0.0001372
0.000181842
0.000294887
0.000382506
0.000382364
0.000339722
0.000268579
0.000209139
0.00016068
0.000129473
0.000111796
0.000101681
9.56991e-05
9.27511e-05
9.27264e-05
9.42865e-05
9.73373e-05
0.000101016
0.000105101
0.000108718
0.000111721
0.000114278
0.000114163
0.0001165
0.000118193
0.000122201
0.000126671
0.00013158
0.000146106
0.000140498
0.000169109
0.000144368
0.000182805
0.000140381
0.000179208
0.000131768
0.000159161
0.000124022
0.000138112
0.000124555
0.000113424
0.000123723
0.00012102
0.000104035
0.000109443
9.97822e-05
0.000100571
9.78325e-05
9.41374e-05
9.09433e-05
8.88704e-05
8.93451e-05
9.09636e-05
9.30781e-05
9.60607e-05
0.000100423
0.000106374
0.000117397
0.000133224
0.000169252
0.000267231
0.000377161
0.000392889
0.000360685
0.000289344
0.00022804
0.000176677
0.000140227
0.000119184
0.000106606
9.90732e-05
9.47e-05
9.3516e-05
9.47394e-05
9.78444e-05
0.000101414
0.000105345
0.000109186
0.00011314
0.000118386
0.000118847
0.00012099
0.000130499
0.000135799
0.000164717
0.000190276
0.000221541
0.00030354
0.000267251
0.000428142
0.000276054
0.000485543
0.000240186
0.000444989
0.000184845
0.000326735
0.000143922
0.00021274
0.000147066
0.000116599
0.000145702
0.000138985
0.000104198
0.000110462
9.97447e-05
0.000100531
9.82057e-05
9.44254e-05
9.09003e-05
8.83394e-05
8.85612e-05
9.01989e-05
9.21609e-05
9.50794e-05
9.92838e-05
0.000105066
0.000115097
0.000130288
0.000159563
0.000240069
0.00036498
0.000404839
0.000378096
0.000311764
0.000247018
0.000193928
0.00015304
0.000128252
0.000113422
0.000104197
9.88475e-05
9.59315e-05
9.61558e-05
9.90141e-05
0.000102254
0.000105925
0.000110014
0.000114351
0.000119576
0.00014089
0.000139725
0.000139566
0.000141387
0.000216745
0.000247187
0.000408387
0.000535684
0.000676104
0.00100556
0.00087819
0.00146298
0.000893532
0.00167566
0.000706977
0.00150865
0.000435394
0.00103109
0.000237383
0.00055095
0.000248855
0.000128187
0.000240585
0.000213193
0.000104114
0.000116052
0.000100056
0.00010083
9.96745e-05
9.59587e-05
9.16579e-05
8.82784e-05
8.77619e-05
8.92162e-05
9.11316e-05
9.40283e-05
9.8259e-05
0.000103819
0.000113047
0.0001278
0.00015218
0.000216045
0.00034549
0.000412246
0.000396109
0.000334991
0.000266408
0.000211672
0.00016779
0.000138918
0.000122158
0.000111587
0.000105147
0.000101046
9.9786e-05
0.000101387
0.000104105
0.000107768
0.000111801
0.000115479
0.000120694
0.000136984
0.000134623
0.000282132
0.000274344
0.000272005
0.000284164
0.0006686
0.000807287
0.00139866
0.00182876
0.0022013
0.00301982
0.00270051
0.00385653
0.00274753
0.00412762
0.00226952
0.00382023
0.00137842
0.0029998
0.000642
0.00170317
0.000667765
0.000176044
0.000614116
0.000496791
0.000106224
0.000140826
0.000100544
0.000102399
0.000100872
0.000100251
9.57584e-05
8.98921e-05
8.76634e-05
8.82409e-05
8.99551e-05
9.28895e-05
9.72894e-05
0.000102546
0.000111191
0.000125553
0.000146416
0.000198197
0.000321634
0.000412341
0.000410394
0.000361189
0.000286298
0.000229804
0.00018343
0.000151563
0.000132561
0.000121444
0.00011398
0.000109516
0.000106968
0.000106635
0.000108227
0.000110796
0.00011384
0.000117383
0.000122131
0.000132805
0.000126509
0.000254547
0.000231297
0.00102045
0.00100391
0.000924275
0.00100445
0.00225834
0.0026791
0.00385784
0.00465792
0.00500433
0.00604705
0.00544833
0.00658711
0.00531742
0.00655166
0.00468329
0.00607186
0.00359307
0.00522739
0.00191154
0.00393766
0.00189794
0.000358443
0.00167174
0.00133031
0.000116587
0.000235136
0.000101334
0.000106864
9.79149e-05
0.000105988
0.000105352
9.67007e-05
8.97729e-05
8.80765e-05
8.89771e-05
9.16959e-05
9.63333e-05
0.000101351
0.000109337
0.000123452
0.000142293
0.000184755
0.000294413
0.000409129
0.000424432
0.000385701
0.000308097
0.000247742
0.00020006
0.000165012
0.000144783
0.000133494
0.000126076
0.000121852
0.000121127
0.000118785
0.000116528
0.000115307
0.000117605
0.000120349
0.000124354
0.000150008
0.000201504
0.000196379
0.00095323
0.000848993
0.00345664
0.00347756
0.00303158
0.00329057
0.00539259
0.00603901
0.00694556
0.00769644
0.00753156
0.00831419
0.00757587
0.00851756
0.00727185
0.00844263
0.00661747
0.0079476
0.00562052
0.00706385
0.0041163
0.00584438
0.00403685
0.000939792
0.00373394
0.00315995
0.000159209
0.000568885
0.000102818
0.000121123
0.000104336
0.000120812
0.000115798
9.94862e-05
9.0428e-05
8.90019e-05
9.09794e-05
9.55247e-05
0.000100275
0.000107564
0.000121295
0.000139474
0.000174269
0.000267351
0.000399605
0.000439779
0.000407333
0.000332041
0.00026603
0.000216635
0.000179589
0.000157575
0.000147087
0.000141801
0.000139799
0.000137373
0.000132882
0.000127671
0.000123833
0.000123334
0.000125273
0.000128746
0.000145066
0.000514462
0.000447321
0.000733996
0.000613028
0.00342882
0.00330723
0.00721017
0.00737928
0.00655897
0.00694613
0.00832411
0.00882355
0.00898701
0.00958191
0.00947046
0.0103944
0.00970039
0.0111266
0.00949948
0.0112143
0.00876776
0.0106299
0.00760997
0.00944398
0.00603288
0.00791958
0.00606981
0.00234861
0.00589175
0.0054626
0.000321517
0.00150796
0.000104372
0.000201606
0.000121626
0.000138787
0.000127487
0.000103359
9.20749e-05
9.13267e-05
9.53909e-05
9.971e-05
0.000105951
0.000119099
0.000137311
0.000166187
0.000242129
0.00038067
0.000450532
0.00042956
0.000358736
0.00028514
0.000233096
0.000194063
0.000170821
0.000160823
0.000156639
0.000156053
0.000156289
0.000154552
0.000151641
0.00014377
0.000136552
0.000134488
0.000136505
0.000150519
0.000391406
0.000253976
0.00237732
0.0020466
0.00305724
0.00278465
0.00737962
0.00732576
0.00964185
0.00975026
0.00919848
0.00946736
0.0101084
0.0105209
0.0113139
0.0121693
0.0126116
0.0139908
0.0131793
0.0153339
0.0129423
0.0155076
0.0118657
0.0145292
0.0101995
0.0128297
0.00821346
0.010665
0.00838925
0.00477026
0.00832109
0.00817498
0.00661313
0.00100981
0.00390608
0.00013012
0.00104461
0.000139579
0.000157912
0.000139819
0.000107141
9.49521e-05
9.60434e-05
9.97261e-05
0.000104753
0.000116926
0.000135362
0.000160215
0.000221493
0.000356926
0.000452203
0.00044796
0.000389399
0.000305852
0.00024977
0.000208236
0.000182917
0.000171441
0.000169027
0.000172325
0.000182674
0.000205084
0.000220764
0.000209281
0.00018163
0.000161119
0.000153327
0.000163575
0.00054846
0.00160142
0.0014024
0.00653755
0.00606877
0.0071831
0.0069592
0.00982015
0.00985946
0.0110071
0.0109657
0.0108136
0.0109846
0.0128891
0.0133993
0.015345
0.016416
0.01718
0.0185049
0.0178692
0.0192449
0.0174268
0.0192892
0.0158693
0.0186095
0.0136009
0.0166726
0.0110012
0.0139985
0.0124265
0.00972768
0.0111588
0.00786963
0.00602862
0.00774989
0.00956784
0.0110958
0.0110647
0.00944095
0.0037477
0.00740341
0.00741366
0.00570425
0.000935935
0.00837646
0.000156964
0.000179068
0.000149656
0.000109521
9.94633e-05
0.000100357
0.000104422
0.00011486
0.000133498
0.00015622
0.000206451
0.00033012
0.000450038
0.000465327
0.000418719
0.000329687
0.000266371
0.000222482
0.000193433
0.000180373
0.000178916
0.000192377
0.000241567
0.00035706
0.000462489
0.000463023
0.000359163
0.000261454
0.000209957
0.000194749
0.000516029
0.00395584
0.0027451
0.0053724
0.00465901
0.00971207
0.00956888
0.0098545
0.00981989
0.0109113
0.0108793
0.0137956
0.0136618
0.0137261
0.0138418
0.0171375
0.0175371
0.019208
0.0195174
0.0198991
0.0201719
0.0200267
0.0202653
0.0200248
0.0203013
0.0178563
0.0191482
0.0198692
0.0203221
0.0154253
0.0170265
0.0193371
0.0195461
0.0182668
0.014043
0.0125392
0.0141844
0.0156212
0.0125782
0.00929193
0.00908858
0.0109471
0.0124704
0.0125638
0.0108091
0.00744506
0.00778566
0.00855823
0.00897986
0.00899257
0.0151804
0.0107665
0.0156873
0.0194194
0.000176346
0.00019961
0.000150055
0.000111417
0.000103059
0.00010471
0.00011301
0.000131713
0.000153514
0.000195058
0.000302242
0.000442107
0.000483645
0.000445164
0.000356955
0.000283977
0.000236281
0.000203772
0.000187369
0.000187886
0.000221999
0.000387724
0.000780226
0.00138599
0.00151126
0.00117008
0.000721546
0.000417933
0.000286034
0.000507473
0.00445347
0.00825509
0.00842979
0.00925032
0.0089677
0.0107937
0.0107459
0.0108683
0.010851
0.01342
0.0131064
0.0174484
0.0171938
0.017671
0.0176054
0.0195444
0.0194485
0.0201473
0.0199648
0.02004
0.0195676
0.0196821
0.0184349
0.0202825
0.0198661
0.0190546
0.0180507
0.0201399
0.0203944
0.0201995
0.0171236
0.018483
0.0202134
0.0202205
0.0195875
0.0157144
0.0141354
0.0157128
0.0172184
0.0141133
0.010642
0.0104872
0.0123394
0.014037
0.0139062
0.0121704
0.00948694
0.010832
0.0104031
0.0105155
0.0231918
0.00329935
0.0236025
0.0134183
0.0164587
0.000200847
0.000216098
0.000145513
0.000111816
0.000106342
0.000112341
0.000129871
0.000151613
0.000186275
0.000276242
0.000423823
0.000497205
0.000471631
0.000388618
0.000303567
0.000250067
0.000213941
0.000193862
0.000194321
0.000253287
0.000599759
0.00164372
0.00338752
0.00450198
0.00397621
0.00242295
0.00114468
0.000561154
0.0005867
0.00316271
0.0102486
0.00949716
0.0105964
0.0105173
0.0106989
0.0106691
0.0119967
0.0115777
0.0127531
0.0123803
0.0168687
0.0164611
0.018849
0.0186455
0.0192885
0.0190738
0.0196382
0.0192641
0.0187434
0.0181131
0.0172522
0.0165399
0.0171282
0.0162562
0.0156316
0.015159
0.019437
0.0182886
0.0170529
0.0158883
0.0203904
0.019939
0.0188716
0.0185783
0.0196834
0.0202706
0.0201518
0.0202209
0.0172402
0.0156854
0.017216
0.0186272
0.0156158
0.0119825
0.0118021
0.0137333
0.0154929
0.0153217
0.0135168
0.011058
0.0121983
0.0116754
0.011693
0.0188409
0.00705846
0.0227033
0.0135333
0.0146889
0.000233737
0.000213243
0.000135615
0.000112116
0.000112829
0.000128447
0.000150343
0.000179664
0.000253714
0.000399695
0.000500254
0.00049397
0.00042457
0.000326264
0.000264642
0.000224205
0.00019972
0.000198629
0.000273707
0.000786225
0.00257099
0.00579624
0.00789131
0.00756477
0.00575055
0.00338727
0.00146775
0.00091667
0.00269791
0.00986043
0.0110552
0.0112994
0.011066
0.0110768
0.0112375
0.0111015
0.0148348
0.0141771
0.0159983
0.0154579
0.0184901
0.018369
0.0181846
0.0179618
0.0188829
0.0185051
0.0176412
0.0172461
0.0163598
0.0164824
0.0149675
0.0149728
0.0151064
0.0154446
0.01498
0.0143171
0.0139546
0.0138964
0.0174595
0.0160182
0.0147807
0.0138362
0.0196035
0.0182835
0.0166487
0.0197402
0.0202336
0.0192706
0.0189769
0.020037
0.0186313
0.0171536
0.0185866
0.0197666
0.0170462
0.0132677
0.0129871
0.0150949
0.0168851
0.0166668
0.0148148
0.0119582
0.0123686
0.0127065
0.012462
0.017167
0.0126102
0.0269395
0.0127911
0.013754
0.000260118
0.000195852
0.000126375
0.000115564
0.000127189
0.000149641
0.000175605
0.000235512
0.00037358
0.000498612
0.000514324
0.000459223
0.000353375
0.000280062
0.000235068
0.000205449
0.000200805
0.000277238
0.000880623
0.00325152
0.00781789
0.0102027
0.00985284
0.00846835
0.00631802
0.00385846
0.00200339
0.0027665
0.00881912
0.0111486
0.0106575
0.0116113
0.0114182
0.0124388
0.0120331
0.0134995
0.0128982
0.0179508
0.0175814
0.0182787
0.0181708
0.0179544
0.0180478
0.015932
0.0156065
0.0168243
0.0163567
0.0163501
0.0160064
0.0157443
0.0161227
0.0140901
0.0144131
0.0148122
0.0151866
0.0132237
0.0129872
0.0130513
0.0133521
0.0150807
0.0137981
0.0128731
0.0123555
0.0177367
0.0159355
0.014285
0.0202328
0.0199526
0.0172617
0.0168856
0.0187441
0.019752
0.0185031
0.0197016
0.020227
0.0183676
0.0144585
0.0140168
0.0163837
0.0181677
0.0178968
0.0160221
0.0122714
0.0122143
0.013497
0.0129426
0.0172195
0.0187599
0.0260462
0.0125583
0.0138521
0.000257798
0.000161787
0.000123566
0.000127236
0.000149061
0.00017263
0.000222948
0.000345736
0.000492153
0.000534831
0.000490324
0.000385415
0.00029771
0.000245443
0.000212325
0.000201628
0.000267332
0.000880813
0.00352878
0.00909107
0.0115174
0.0111664
0.00957083
0.00767986
0.00569451
0.0039978
0.00348495
0.00794128
0.0105187
0.0124019
0.0120572
0.0138905
0.0130921
0.0156666
0.0148127
0.0170744
0.0164331
0.0190354
0.0193692
0.0182882
0.0186444
0.0155563
0.0156848
0.0141755
0.0136777
0.0154418
0.014776
0.0158642
0.0152953
0.0158154
0.0161568
0.0161371
0.0162842
0.0137888
0.0142843
0.0147881
0.0152899
0.0122181
0.0123636
0.0127245
0.0132138
0.0129839
0.0120938
0.0116743
0.0115951
0.0153405
0.0136421
0.012334
0.0198836
0.0186088
0.0148716
0.0145417
0.0166341
0.020206
0.0196167
0.020164
0.0198687
0.0194704
0.0155376
0.0148976
0.0175507
0.0192532
0.0189426
0.0171079
0.0124849
0.0123649
0.0141392
0.0134026
0.0174557
0.00269435
0.015864
0.0129566
0.0146232
0.000239311
0.000142674
0.000129961
0.000149037
0.000171588
0.000211985
0.000320197
0.000475374
0.00055227
0.000520391
0.000423118
0.00031929
0.000256909
0.000219053
0.000202902
0.000242424
0.000781927
0.003489
0.00956812
0.0121882
0.0116774
0.0094901
0.00789005
0.0064661
0.00516959
0.00479377
0.00738948
0.00946208
0.0140366
0.0128047
0.0156572
0.0146999
0.0176958
0.0167137
0.0191793
0.0185461
0.0195122
0.0194676
0.0177201
0.0187175
0.0160828
0.0167971
0.0133243
0.0132693
0.0131609
0.012618
0.0144946
0.0137707
0.0158975
0.0153888
0.0144625
0.0162316
0.016472
0.0161415
0.0163967
0.0137713
0.0144118
0.0150953
0.0157259
0.0117815
0.0121686
0.0126707
0.013279
0.011492
0.0111366
0.0110837
0.0112844
0.0131405
0.0118295
0.0110293
0.0185717
0.016507
0.0127691
0.0125276
0.0143486
0.0198866
0.0200926
0.0199014
0.0186269
0.019972
0.016492
0.0156752
0.0185454
0.019803
0.0195497
0.0180269
0.0129122
0.0129112
0.0147626
0.0139829
0.0168543
0.00159424
0.0112123
0.0138438
0.015558
0.000201085
0.00013994
0.000148885
0.000170956
0.00020577
0.000293919
0.000453941
0.000558154
0.000547232
0.000464539
0.00034632
0.00027121
0.000226499
0.000204322
0.000222537
0.00059029
0.00310372
0.00951472
0.0124959
0.0115692
0.00900196
0.00790409
0.00715657
0.00593629
0.005548
0.00736747
0.00907565
0.0137069
0.0175784
0.0174704
0.0192554
0.0185838
0.0204997
0.019977
0.0206828
0.0206957
0.0196244
0.0203228
0.0149567
0.0162793
0.0134396
0.0139426
0.0121989
0.0120078
0.0127681
0.0122617
0.0135884
0.0132006
0.0156317
0.0150651
0.0137584
0.0132379
0.0164873
0.016551
0.0158303
0.0163578
0.014
0.0147601
0.0154856
0.0160959
0.011661
0.0121589
0.0127748
0.0134796
0.010711
0.010665
0.0108494
0.0111974
0.0114525
0.0106794
0.0103748
0.0165056
0.0142854
0.0111861
0.0110331
0.0124103
0.0187432
0.0199108
0.0188931
0.016631
0.0198731
0.0173171
0.0163888
0.019208
0.0197833
0.0196251
0.0187213
0.0135657
0.0137969
0.0154171
0.0146799
0.0157918
0.00166442
0.0106488
0.0150118
0.0162946
0.000175359
0.000150821
0.000171058
0.000199947
0.00027551
0.00042529
0.00055749
0.000570877
0.000505615
0.000377969
0.000288484
0.000235227
0.000207252
0.00021008
0.000424852
0.00233691
0.00896992
0.0125171
0.011475
0.00836867
0.00778358
0.00763558
0.00729821
0.00657407
0.00763264
0.00921717
0.013252
0.0199013
0.019122
0.0206869
0.0204139
0.0212084
0.0210744
0.0210588
0.0212255
0.0198944
0.0206154
0.0176523
0.0188959
0.0128536
0.013716
0.0120971
0.0123503
0.0118059
0.0116113
0.0132845
0.0127658
0.0132263
0.0132742
0.0134574
0.0151068
0.0143015
0.0131405
0.0130871
0.0165642
0.0165244
0.0153474
0.0160982
0.0142335
0.0150044
0.0157274
0.0163083
0.0116513
0.0122038
0.0128462
0.013564
0.0103233
0.0104728
0.010771
0.0111657
0.0104233
0.010118
0.0100531
0.0143539
0.012418
0.0102569
0.0101824
0.010992
0.0168513
0.0190683
0.01716
0.0145584
0.0192247
0.0179996
0.0170352
0.0193828
0.0193313
0.0193604
0.0190284
0.0144169
0.0149448
0.0160909
0.0154737
0.0153059
0.00173138
0.0119352
0.0161636
0.0166319
0.000167972
0.000171634
0.000197305
0.000258751
0.000398926
0.000552148
0.00059575
0.000541901
0.000417622
0.000308968
0.000245803
0.000210909
0.000203697
0.000310939
0.00158028
0.00756845
0.012386
0.0114919
0.00787707
0.00740555
0.00769543
0.00862368
0.00895624
0.00886259
0.0100214
0.0136589
0.0205582
0.0219255
0.0221286
0.0218661
0.0219789
0.0212434
0.0216576
0.0197513
0.0206114
0.0174375
0.0186785
0.0148441
0.0161249
0.0122015
0.0122438
0.0117318
0.0119845
0.0121461
0.0118205
0.0142444
0.0138961
0.0136716
0.013226
0.0135426
0.0142214
0.0141583
0.0144375
0.0136501
0.0128957
0.0130802
0.0165651
0.0163973
0.0148528
0.0157786
0.0143418
0.0151392
0.0158806
0.0164228
0.0116432
0.0122046
0.0128536
0.0135858
0.0101522
0.0103881
0.010687
0.0110391
0.00993653
0.00985535
0.00989189
0.0125569
0.0110707
0.00983217
0.00981341
0.0102042
0.0148885
0.0175411
0.0153453
0.0128441
0.0179522
0.0184546
0.0175961
0.0192661
0.0183504
0.0186909
0.0190088
0.0154603
0.0161633
0.0167578
0.0164203
0.0153103
0.00758556
0.0147117
0.01702
0.0165995
0.000176221
0.000196317
0.000246697
0.000371843
0.000538379
0.000617696
0.000578262
0.000462672
0.000337373
0.000259734
0.000215461
0.000200527
0.000246156
0.000981826
0.00568362
0.0119602
0.0115493
0.00775567
0.00651774
0.0073765
0.00887173
0.0105522
0.0116676
0.0128568
0.0157631
0.020718
0.0219733
0.0218914
0.0221553