/*--------------------------------*- C++ -*----------------------------------*\
  =========                 |
  \\      /  F ield         | OpenFOAM: The Open Source CFD Toolbox
   \\    /   O peration     | Website:  https://openfoam.org
    \\  /    A nd           | Version:  dev
     \\/     M anipulation  |
\*---------------------------------------------------------------------------*/
FoamFile
{
    version     2.0;
    format      ascii;
    class       volScalarField;
    location    "2500";
    object      N2;
}
// * * * * * * * * * * * * * * * * * * * * * * * * * * * * * * * * * * * * * //

dimensions      [0 0 0 0 0 0 0];

internalField   nonuniform List<scalar> 
9836
(
0.76699
0.76699
0.76699
0.76699
0.76699
0.76699
0.76699
0.76699
0.76699
0.76699
0.76699
0.76699
0.76699
0.76699
0.76699
0.76699
0.76699
0.76699
0.76699
0.76699
0.76699
0.76699
0.76699
0.76699
0.76699
0.76699
0.76699
0.76699
0.76699
0.76699
0.76699
0.76699
0.76699
0.76699
0.76699
0.76699
0.76699
0.76699
0.76699
0.76699
0.76699
0.76699
0.76699
0.76699
0.76699
0.76699
0.76699
0.76699
0.76699
0.76699
0.76699
0.76699
0.76699
0.76699
0.76699
0.76699
0.76699
0.76699
0.76699
0.76699
0.76699
0.76699
0.76699
0.76699
0.76699
0.76699
0.76699
0.76699
0.76699
0.76699
0.76699
0.76699
0.76699
0.76699
0.76699
0.76699
0.76699
0.76699
0.76699
0.76699
0.76699
0.76699
0.76699
0.76699
0.76699
0.76699
0.76699
0.76699
0.76699
0.76699
0.76699
0.76699
0.76699
0.76699
0.76699
0.76699
0.76699
0.76699
0.76699
0.76699
0.76699
0.76699
0.76699
0.76699
0.76699
0.76699
0.76699
0.76699
0.76699
0.76699
0.76699
0.76699
0.76699
0.76699
0.76699
0.76699
0.76699
0.76699
0.76699
0.76699
0.76699
0.76699
0.76699
0.76699
0.76699
0.76699
0.76699
0.76699
0.76699
0.76699
0.76699
0.76699
0.76699
0.76699
0.76699
0.76699
0.76699
0.76699
0.76699
0.76699
0.76699
0.76699
0.76699
0.76699
0.76699
0.76699
0.76699
0.76699
0.76699
0.76699
0.76699
0.76699
0.76699
0.76699
0.76699
0.76699
0.76699
0.76699
0.76699
0.76699
0.76699
0.76699
0.76699
0.76699
0.76699
0.76699
0.76699
0.76699
0.76699
0.76699
0.76699
0.76699
0.76699
0.76699
0.76699
0.76699
0.76699
0.76699
0.76699
0.76699
0.76699
0.76699
0.76699
0.76699
0.76699
0.76699
0.76699
0.76699
0.76699
0.76699
0.76699
0.76699
0.76699
0.76699
0.76699
0.76699
0.76699
0.76699
0.76699
0.76699
0.76699
0.76699
0.76699
0.76699
0.76699
0.76699
0.76699
0.76699
0.76699
0.76699
0.76699
0.76699
0.76699
0.76699
0.76699
0.76699
0.76699
0.76699
0.76699
0.76699
0.76699
0.76699
0.76699
0.76699
0.76699
0.76699
0.76699
0.76699
0.76699
0.76699
0.76699
0.76699
0.76699
0.76699
0.76699
0.76699
0.76699
0.76699
0.76699
0.76699
0.76699
0.76699
0.76699
0.76699
0.76699
0.76699
0.76699
0.76699
0.76699
0.76699
0.76699
0.76699
0.76699
0.76699
0.76699
0.76699
0.76699
0.76699
0.76699
0.76699
0.76699
0.76699
0.76699
0.76699
0.76699
0.76699
0.76699
0.76699
0.76699
0.76699
0.76699
0.76699
0.76699
0.76699
0.76699
0.76699
0.76699
0.76699
0.76699
0.76699
0.76699
0.76699
0.76699
0.76699
0.76699
0.76699
0.76699
0.76699
0.76699
0.76699
0.76699
0.76699
0.76699
0.76699
0.76699
0.76699
0.76699
0.76699
0.76699
0.76699
0.76699
0.76699
0.76699
0.76699
0.76699
0.76699
0.76699
0.76699
0.76699
0.76699
0.76699
0.76699
0.76699
0.76699
0.76699
0.76699
0.76699
0.76699
0.76699
0.76699
0.76699
0.76699
0.76699
0.76699
0.76699
0.76699
0.76699
0.76699
0.76699
0.76699
0.76699
0.76699
0.76699
0.76699
0.76699
0.76699
0.76699
0.76699
0.76699
0.76699
0.76699
0.76699
0.76699
0.76699
0.76699
0.76699
0.76699
0.76699
0.76699
0.76699
0.76699
0.76699
0.76699
0.76699
0.76699
0.76699
0.76699
0.76699
0.76699
0.76699
0.76699
0.76699
0.76699
0.76699
0.76699
0.76699
0.76699
0.76699
0.76699
0.76699
0.76699
0.76699
0.76699
0.76699
0.76699
0.76699
0.76699
0.76699
0.76699
0.76699
0.76699
0.76699
0.76699
0.76699
0.76699
0.76699
0.76699
0.76699
0.76699
0.76699
0.76699
0.76699
0.76699
0.76699
0.76699
0.76699
0.76699
0.76699
0.76699
0.76699
0.76699
0.76699
0.76699
0.76699
0.76699
0.76699
0.76699
0.76699
0.76699
0.76699
0.76699
0.76699
0.76699
0.76699
0.76699
0.76699
0.76699
0.76699
0.76699
0.76699
0.76699
0.76699
0.76699
0.76699
0.76699
0.76699
0.76699
0.76699
0.76699
0.76699
0.76699
0.76699
0.76699
0.76699
0.76699
0.76699
0.76699
0.76699
0.76699
0.76699
0.76699
0.76699
0.76699
0.76699
0.76699
0.76699
0.76699
0.76699
0.76699
0.76699
0.76699
0.76699
0.76699
0.76699
0.76699
0.76699
0.76699
0.76699
0.76699
0.76699
0.76699
0.76699
0.76699
0.76699
0.76699
0.76699
0.76699
0.76699
0.76699
0.76699
0.76699
0.76699
0.76699
0.76699
0.76699
0.76699
0.76699
0.76699
0.76699
0.76699
0.76699
0.76699
0.76699
0.76699
0.76699
0.76699
0.76699
0.76699
0.76699
0.76699
0.76699
0.76699
0.76699
0.76699
0.76699
0.76699
0.76699
0.76699
0.76699
0.76699
0.76699
0.76699
0.76699
0.76699
0.76699
0.76699
0.76699
0.76699
0.76699
0.76699
0.76699
0.76699
0.76699
0.76699
0.76699
0.76699
0.76699
0.76699
0.76699
0.76699
0.76699
0.76699
0.76699
0.76699
0.76699
0.76699
0.76699
0.76699
0.76699
0.76699
0.76699
0.76699
0.76699
0.76699
0.76699
0.76699
0.76699
0.76699
0.76699
0.76699
0.76699
0.76699
0.76699
0.76699
0.76699
0.76699
0.76699
0.76699
0.76699
0.76699
0.76699
0.76699
0.76699
0.76699
0.76699
0.76699
0.76699
0.76699
0.76699
0.76699
0.76699
0.76699
0.76699
0.76699
0.76699
0.76699
0.76699
0.76699
0.76699
0.76699
0.76699
0.76699
0.76699
0.76699
0.76699
0.76699
0.76699
0.76699
0.76699
0.76699
0.76699
0.76699
0.76699
0.76699
0.76699
0.76699
0.76699
0.76699
0.76699
0.76699
0.76699
0.76699
0.76699
0.76699
0.76699
0.76699
0.76699
0.76699
0.76699
0.76699
0.76699
0.76699
0.76699
0.76699
0.76699
0.76699
0.76699
0.76699
0.76699
0.76699
0.76699
0.76699
0.76699
0.76699
0.76699
0.76699
0.76699
0.76699
0.76699
0.76699
0.76699
0.76699
0.76699
0.76699
0.76699
0.76699
0.76699
0.76699
0.76699
0.76699
0.76699
0.76699
0.76699
0.76699
0.76699
0.76699
0.76699
0.76699
0.76699
0.76699
0.76699
0.76699
0.76699
0.76699
0.76699
0.76699
0.76699
0.76699
0.76699
0.76699
0.76699
0.76699
0.76699
0.76699
0.76699
0.76699
0.76699
0.76699
0.76699
0.76699
0.76699
0.76699
0.76699
0.76699
0.76699
0.76699
0.76699
0.76699
0.76699
0.76699
0.76699
0.76699
0.76699
0.76699
0.76699
0.76699
0.76699
0.76699
0.76699
0.76699
0.76699
0.76699
0.76699
0.76699
0.76699
0.76699
0.76699
0.76699
0.76699
0.76699
0.76699
0.76699
0.76699
0.76699
0.76699
0.76699
0.76699
0.76699
0.76699
0.76699
0.76699
0.76699
0.76699
0.76699
0.76699
0.76699
0.76699
0.76699
0.76699
0.76699
0.76699
0.76699
0.76699
0.76699
0.76699
0.76699
0.76699
0.76699
0.76699
0.76699
0.76699
0.76699
0.76699
0.76699
0.76699
0.76699
0.76699
0.76699
0.76699
0.76699
0.76699
0.76699
0.76699
0.76699
0.76699
0.76699
0.76699
0.76699
0.76699
0.76699
0.76699
0.76699
0.76699
0.76699
0.76699
0.76699
0.76699
0.76699
0.76699
0.76699
0.76699
0.76699
0.76699
0.76699
0.76699
0.76699
0.76699
0.76699
0.76699
0.76699
0.76699
0.76699
0.76699
0.76699
0.76699
0.76699
0.76699
0.76699
0.76699
0.76699
0.76699
0.76699
0.76699
0.76699
0.76699
0.76699
0.76699
0.76699
0.76699
0.76699
0.76699
0.76699
0.76699
0.76699
0.76699
0.76699
0.76699
0.76699
0.76699
0.76699
0.76699
0.76699
0.76699
0.76699
0.76699
0.76699
0.76699
0.76699
0.76699
0.76699
0.76699
0.76699
0.76699
0.76699
0.76699
0.76699
0.76699
0.76699
0.76699
0.76699
0.76699
0.76699
0.76699
0.76699
0.76699
0.76699
0.76699
0.76699
0.76699
0.76699
0.76699
0.76699
0.76699
0.76699
0.76699
0.76699
0.76699
0.76699
0.76699
0.76699
0.76699
0.76699
0.76699
0.76699
0.76699
0.76699
0.76699
0.76699
0.76699
0.76699
0.76699
0.76699
0.76699
0.76699
0.76699
0.76699
0.76699
0.76699
0.76699
0.76699
0.76699
0.76699
0.76699
0.76699
0.76699
0.76699
0.76699
0.76699
0.76699
0.76699
0.76699
0.76699
0.76699
0.76699
0.76699
0.76699
0.76699
0.76699
0.76699
0.76699
0.76699
0.76699
0.76699
0.76699
0.76699
0.76699
0.76699
0.76699
0.76699
0.76699
0.76699
0.76699
0.76699
0.76699
0.76699
0.76699
0.76699
0.76699
0.76699
0.76699
0.76699
0.76699
0.76699
0.76699
0.76699
0.76699
0.76699
0.76699
0.76699
0.76699
0.76699
0.76699
0.76699
0.76699
0.76699
0.76699
0.76699
0.76699
0.76699
0.76699
0.76699
0.76699
0.76699
0.76699
0.76699
0.76699
0.76699
0.76699
0.76699
0.76699
0.76699
0.76699
0.76699
0.76699
0.76699
0.76699
0.76699
0.76699
0.76699
0.76699
0.76699
0.76699
0.76699
0.76699
0.76699
0.76699
0.76699
0.76699
0.76699
0.76699
0.76699
0.76699
0.76699
0.76699
0.76699
0.76699
0.76699
0.76699
0.76699
0.76699
0.76699
0.76699
0.76699
0.76699
0.76699
0.76699
0.76699
0.76699
0.76699
0.76699
0.76699
0.76699
0.76699
0.76699
0.76699
0.76699
0.76699
0.76699
0.76699
0.76699
0.76699
0.76699
0.76699
0.76699
0.76699
0.76699
0.76699
0.76699
0.76699
0.76699
0.76699
0.76699
0.76699
0.76699
0.76699
0.76699
0.76699
0.76699
0.76699
0.76699
0.76699
0.76699
0.76699
0.76699
0.76699
0.76699
0.76699
0.76699
0.76699
0.76699
0.76699
0.76699
0.76699
0.76699
0.76699
0.76699
0.76699
0.76699
0.76699
0.76699
0.76699
0.76699
0.76699
0.76699
0.76699
0.76699
0.76699
0.76699
0.76699
0.76699
0.76699
0.76699
0.76699
0.76699
0.76699
0.76699
0.76699
0.76699
0.76699
0.76699
0.76699
0.76699
0.76699
0.76699
0.76699
0.76699
0.76699
0.76699
0.76699
0.76699
0.76699
0.76699
0.76699
0.76699
0.76699
0.76699
0.76699
0.76699
0.76699
0.76699
0.76699
0.766989
0.76699
0.766989
0.76699
0.766989
0.76699
0.76699
0.76699
0.76699
0.76699
0.76699
0.76699
0.76699
0.76699
0.76699
0.76699
0.76699
0.76699
0.76699
0.76699
0.76699
0.76699
0.76699
0.76699
0.76699
0.76699
0.76699
0.76699
0.76699
0.76699
0.76699
0.76699
0.76699
0.76699
0.76699
0.76699
0.76699
0.76699
0.76699
0.76699
0.76699
0.76699
0.76699
0.76699
0.76699
0.76699
0.76699
0.76699
0.76699
0.76699
0.76699
0.76699
0.766989
0.766989
0.766988
0.766988
0.766986
0.766988
0.766984
0.766988
0.766984
0.766989
0.766986
0.76699
0.766988
0.76699
0.76699
0.766989
0.766989
0.76699
0.76699
0.76699
0.76699
0.76699
0.76699
0.76699
0.76699
0.76699
0.76699
0.76699
0.76699
0.76699
0.76699
0.76699
0.76699
0.76699
0.76699
0.76699
0.76699
0.76699
0.76699
0.76699
0.76699
0.76699
0.76699
0.76699
0.76699
0.76699
0.76699
0.76699
0.76699
0.76699
0.76699
0.76699
0.76699
0.76699
0.76699
0.76699
0.766989
0.766989
0.766987
0.766985
0.766982
0.766976
0.766977
0.766963
0.766975
0.766955
0.766978
0.766957
0.766983
0.766967
0.766987
0.766979
0.766987
0.76699
0.766987
0.766987
0.76699
0.76699
0.76699
0.76699
0.76699
0.76699
0.76699
0.76699
0.76699
0.76699
0.76699
0.76699
0.76699
0.76699
0.76699
0.76699
0.76699
0.76699
0.76699
0.76699
0.76699
0.76699
0.76699
0.76699
0.76699
0.76699
0.76699
0.76699
0.76699
0.76699
0.76699
0.76699
0.76699
0.76699
0.76699
0.76699
0.76699
0.766989
0.766989
0.766989
0.766989
0.766984
0.766982
0.766969
0.76696
0.766943
0.766917
0.766919
0.766867
0.766911
0.766832
0.766925
0.766837
0.766953
0.766883
0.766976
0.766937
0.766973
0.766988
0.766973
0.766975
0.76699
0.766989
0.76699
0.76699
0.76699
0.76699
0.76699
0.76699
0.76699
0.76699
0.76699
0.76699
0.76699
0.76699
0.76699
0.76699
0.76699
0.76699
0.76699
0.76699
0.76699
0.76699
0.76699
0.76699
0.76699
0.76699
0.76699
0.76699
0.76699
0.76699
0.76699
0.76699
0.76699
0.76699
0.76699
0.76699
0.76699
0.76699
0.76699
0.766982
0.766983
0.766981
0.766982
0.766952
0.766945
0.766888
0.766858
0.766802
0.766732
0.766729
0.766611
0.7667
0.766537
0.766734
0.766536
0.766832
0.76662
0.766922
0.766781
0.766913
0.76698
0.766915
0.766928
0.766989
0.766984
0.76699
0.76699
0.76699
0.76699
0.76699
0.76699
0.76699
0.76699
0.76699
0.76699
0.76699
0.76699
0.76699
0.76699
0.76699
0.76699
0.76699
0.76699
0.76699
0.76699
0.76699
0.76699
0.76699
0.76699
0.76699
0.76699
0.76699
0.76699
0.76699
0.76699
0.76699
0.76699
0.76699
0.76699
0.76699
0.76699
0.76699
0.766984
0.766986
0.766939
0.766942
0.766939
0.766938
0.76683
0.766806
0.766662
0.766598
0.766489
0.766376
0.766366
0.766198
0.766316
0.766098
0.76636
0.766095
0.766505
0.766195
0.766741
0.766406
0.766725
0.766947
0.766738
0.766777
0.766988
0.766966
0.76699
0.766989
0.76699
0.76699
0.76699
0.76699
0.76699
0.76699
0.76699
0.76699
0.76699
0.76699
0.76699
0.76699
0.76699
0.76699
0.76699
0.76699
0.76699
0.76699
0.76699
0.76699
0.76699
0.76699
0.76699
0.76699
0.76699
0.76699
0.76699
0.76699
0.76699
0.76699
0.76699
0.76699
0.76699
0.766989
0.766987
0.766988
0.766948
0.766956
0.766782
0.766788
0.766788
0.76678
0.766543
0.7665
0.766275
0.76619
0.766046
0.765916
0.765899
0.765715
0.765843
0.765612
0.76589
0.765612
0.766053
0.765719
0.766338
0.76594
0.766315
0.766839
0.766343
0.766434
0.76698
0.766905
0.76699
0.766988
0.76699
0.76699
0.76699
0.76699
0.76699
0.76699
0.76699
0.76699
0.76699
0.76699
0.76699
0.76699
0.76699
0.76699
0.76699
0.76699
0.76699
0.76699
0.76699
0.76699
0.76699
0.76699
0.76699
0.76699
0.76699
0.76699
0.76699
0.76699
0.76699
0.76699
0.76699
0.76699
0.76699
0.766975
0.766978
0.766963
0.76697
0.766801
0.76682
0.766463
0.766473
0.76647
0.766459
0.766122
0.766075
0.765808
0.765727
0.765576
0.765487
0.765441
0.765356
0.765388
0.765279
0.765429
0.765246
0.765587
0.765299
0.765871
0.765495
0.765849
0.766585
0.765883
0.765979
0.766955
0.766744
0.76699
0.766981
0.76699
0.76699
0.76699
0.76699
0.76699
0.76699
0.76699
0.76699
0.76699
0.76699
0.76699
0.76699
0.76699
0.76699
0.76699
0.76699
0.76699
0.76699
0.76699
0.76699
0.76699
0.76699
0.76699
0.76699
0.76699
0.76699
0.76699
0.76699
0.76699
0.76699
0.76699
0.76699
0.766982
0.766985
0.76689
0.76691
0.766843
0.766865
0.766496
0.766527
0.766049
0.766067
0.766045
0.766042
0.765671
0.765639
0.76544
0.765415
0.765318
0.765311
0.765238
0.765245
0.765175
0.765179
0.765145
0.765109
0.765212
0.765076
0.765444
0.765159
0.765432
0.766151
0.76547
0.765539
0.765811
0.766868
0.766383
0.766989
0.766945
0.76699
0.76699
0.76699
0.76699
0.76699
0.76699
0.76699
0.76699
0.76699
0.76699
0.76699
0.76699
0.76699
0.76699
0.76699
0.76699
0.76699
0.76699
0.76699
0.76699
0.76699
0.76699
0.76699
0.76699
0.766989
0.766988
0.766988
0.766989
0.766989
0.76699
0.766989
0.766978
0.766932
0.766943
0.766656
0.766705
0.766565
0.766608
0.766101
0.766143
0.765644
0.765669
0.765627
0.765631
0.765404
0.765404
0.765316
0.765323
0.765258
0.765283
0.765201
0.765246
0.76513
0.765185
0.765057
0.765098
0.765022
0.765012
0.765126
0.76499
0.765047
0.765281
0.765131
0.765616
0.765983
0.765669
0.765333
0.76515
0.765152
0.765367
0.766624
0.76577
0.765845
0.7662
0.766951
0.766726
0.76699
0.76699
0.76699
0.76699
0.76699
0.76699
0.76699
0.76699
0.76699
0.76699
0.76699
0.76699
0.76699
0.76699
0.76699
0.76699
0.76699
0.76699
0.76699
0.76699
0.76699
0.76699
0.766988
0.766985
0.766978
0.766976
0.76698
0.766985
0.766987
0.766989
0.766981
0.766837
0.766895
0.766757
0.766803
0.766315
0.76638
0.766194
0.766251
0.765706
0.765751
0.765422
0.765436
0.765406
0.765412
0.765331
0.765337
0.765305
0.765315
0.765302
0.765327
0.765282
0.765348
0.765201
0.76533
0.765044
0.765094
0.765155
0.765238
0.764972
0.764984
0.765082
0.76508
0.765014
0.764983
0.765033
0.764963
0.764956
0.76503
0.765413
0.765476
0.765176
0.765036
0.765029
0.765204
0.765941
0.766372
0.765992
0.765541
0.765606
0.766254
0.766006
0.765912
0.766207
0.76699
0.76699
0.76699
0.76699
0.76699
0.76699
0.76699
0.76699
0.76699
0.76699
0.76699
0.76699
0.76699
0.76699
0.76699
0.76699
0.76699
0.76699
0.76699
0.76699
0.766989
0.766985
0.766969
0.766939
0.766921
0.766934
0.766959
0.766976
0.766985
0.766981
0.766831
0.766598
0.766631
0.766454
0.766514
0.765935
0.766009
0.765805
0.765865
0.765455
0.765479
0.765348
0.765354
0.76534
0.765344
0.765318
0.765315
0.765324
0.765305
0.76535
0.765311
0.765389
0.765356
0.76531
0.765381
0.765412
0.765413
0.765158
0.765244
0.765333
0.764964
0.764999
0.76516
0.765158
0.765065
0.764941
0.764956
0.764927
0.764948
0.764949
0.765243
0.765288
0.76505
0.764947
0.764949
0.765071
0.765648
0.765634
0.765334
0.765366
0.765247
0.766812
0.765642
0.765512
0.765259
0.76699
0.76699
0.76699
0.76699
0.76699
0.76699
0.76699
0.76699
0.76699
0.76699
0.76699
0.76699
0.76699
0.76699
0.76699
0.76699
0.76699
0.76699
0.76699
0.766989
0.766979
0.76694
0.766856
0.766784
0.766785
0.766859
0.766932
0.76697
0.766977
0.766884
0.766414
0.766542
0.766258
0.76633
0.766092
0.76617
0.765605
0.765665
0.765512
0.765553
0.765361
0.76537
0.765313
0.765317
0.765312
0.765311
0.765274
0.76524
0.765227
0.765117
0.765233
0.765036
0.765381
0.765308
0.765209
0.765071
0.765402
0.765433
0.765423
0.765369
0.765255
0.765349
0.76542
0.764985
0.765056
0.765262
0.765265
0.765153
0.764934
0.764916
0.76492
0.764972
0.764907
0.765096
0.765124
0.764956
0.764901
0.764897
0.764966
0.765361
0.765276
0.765146
0.765147
0.765142
0.766712
0.765683
0.765102
0.764972
0.76699
0.76699
0.76699
0.76699
0.76699
0.76699
0.76699
0.76699
0.76699
0.76699
0.76699
0.76699
0.76699
0.76699
0.76699
0.76699
0.76699
0.76699
0.766988
0.766974
0.76691
0.766771
0.766634
0.766592
0.766664
0.766806
0.766924
0.766961
0.766896
0.766436
0.76608
0.766098
0.765897
0.765964
0.765737
0.765808
0.76542
0.765449
0.765381
0.765397
0.765324
0.765333
0.765223
0.765239
0.765219
0.765216
0.765017
0.764944
0.764809
0.764597
0.764931
0.764761
0.764615
0.764454
0.765271
0.765133
0.764966
0.76478
0.765441
0.765422
0.765346
0.765221
0.765362
0.765431
0.765448
0.765046
0.765149
0.76537
0.765374
0.765266
0.764959
0.764908
0.764946
0.765036
0.764897
0.764978
0.764988
0.764895
0.764887
0.764877
0.764894
0.765104
0.765004
0.764987
0.764964
0.765103
0.76643
0.765406
0.764889
0.764873
0.76699
0.76699
0.76699
0.76699
0.76699
0.76699
0.76699
0.76699
0.76699
0.76699
0.76699
0.76699
0.76699
0.76699
0.76699
0.76699
0.76699
0.766988
0.766972
0.766892
0.766704
0.766503
0.766407
0.766447
0.766604
0.76681
0.766917
0.766888
0.766537
0.765848
0.765987
0.76572
0.76579
0.765591
0.765645
0.765489
0.765533
0.76536
0.765371
0.765342
0.765351
0.765265
0.765293
0.764961
0.765021
0.764916
0.764927
0.76445
0.764386
0.764119
0.764026
0.76459
0.764409
0.764246
0.764109
0.765051
0.76485
0.764635
0.764423
0.765415
0.76532
0.765169
0.764971
0.765438
0.765449
0.765404
0.765143
0.765265
0.76544
0.76544
0.765376
0.765024
0.764933
0.76501
0.765134
0.764919
0.764892
0.764885
0.764868
0.764906
0.764891
0.764857
0.764908
0.764831
0.764866
0.76483
0.76498
0.766142
0.76536
0.764776
0.764792
0.76699
0.76699
0.76699
0.76699
0.76699
0.76699
0.76699
0.76699
0.76699
0.76699
0.76699
0.76699
0.76699
0.76699
0.76699
0.76699
0.766989
0.766973
0.766886
0.766665
0.766404
0.766253
0.766239
0.766362
0.766599
0.766822
0.76685
0.766548
0.765855
0.765585
0.765574
0.765487
0.765521
0.765425
0.765449
0.765385
0.765401
0.765362
0.765376
0.76532
0.765343
0.765098
0.765178
0.764528
0.76464
0.764405
0.76445
0.764061
0.764144
0.763873
0.76388
0.763958
0.763909
0.764231
0.764069
0.763945
0.76388
0.764742
0.764504
0.764279
0.764086
0.765293
0.76512
0.764898
0.764646
0.765448
0.765394
0.765268
0.765261
0.765375
0.765444
0.765437
0.765437
0.765122
0.764995
0.765108
0.765252
0.764979
0.764842
0.764821
0.764874
0.76496
0.764939
0.764854
0.764777
0.764725
0.76479
0.764747
0.764954
0.766834
0.765993
0.764701
0.76476
0.76699
0.76699
0.76699
0.76699
0.76699
0.76699
0.76699
0.76699
0.76699
0.76699
0.76699
0.76699
0.76699
0.76699
0.76699
0.766989
0.766976
0.766891
0.766657
0.766351
0.766162
0.7661
0.766137
0.76631
0.766597
0.766746
0.766516
0.765884
0.765451
0.765502
0.765426
0.765432
0.765403
0.76541
0.765395
0.765399
0.765386
0.765391
0.765375
0.765419
0.765253
0.765319
0.764784
0.764943
0.764361
0.764427
0.764224
0.764297
0.764014
0.764086
0.764265
0.763831
0.763872
0.764029
0.763935
0.763934
0.763839
0.763803
0.763803
0.764393
0.764163
0.763974
0.763838
0.765077
0.764835
0.764567
0.764304
0.765382
0.765247
0.76504
0.765371
0.765431
0.765372
0.765366
0.765431
0.765241
0.765092
0.765226
0.765363
0.765072
0.764828
0.764794
0.764914
0.765048
0.76502
0.764884
0.7647
0.764661
0.764751
0.764702
0.76515
0.766903
0.766185
0.764661
0.764794
0.76699
0.76699
0.76699
0.76699
0.76699
0.76699
0.76699
0.76699
0.76699
0.76699
0.76699
0.76699
0.76699
0.76699
0.76699
0.766982
0.766909
0.766669
0.76634
0.766139
0.766052
0.766018
0.766061
0.766233
0.766469
0.7664
0.765867
0.765424
0.765378
0.765355
0.765405
0.765389
0.765438
0.76542
0.765463
0.765454
0.765449
0.765463
0.765367
0.765475
0.765096
0.765239
0.764515
0.76466
0.764455
0.76445
0.764387
0.764444
0.764138
0.764257
0.764599
0.764723
0.76385
0.76394
0.764192
0.764056
0.763772
0.763753
0.763764
0.763795
0.764073
0.763891
0.763774
0.763725
0.764783
0.764502
0.764233
0.764003
0.76523
0.765011
0.764739
0.765424
0.765424
0.765219
0.765212
0.76536
0.765352
0.765208
0.765338
0.765415
0.765186
0.764847
0.764801
0.764986
0.765158
0.765124
0.764944
0.764654
0.764624
0.764744
0.764684
0.765304
0.766875
0.76614
0.764648
0.764834
0.76699
0.76699
0.76699
0.76699
0.76699
0.76699
0.76699
0.76699
0.76699
0.76699
0.76699
0.76699
0.76699
0.76699
0.766986
0.766936
0.76671
0.766356
0.766158
0.766065
0.766011
0.765968
0.765964
0.76605
0.766084
0.765785
0.765403
0.765338
0.765322
0.765391
0.765356
0.765465
0.765424
0.765556
0.76551
0.765602
0.765591
0.765554
0.765595
0.765334
0.765544
0.764869
0.765102
0.76447
0.764542
0.764841
0.764713
0.764783
0.764823
0.764922
0.764337
0.76448
0.764864
0.764967
0.763935
0.764058
0.764373
0.764205
0.763718
0.763732
0.763769
0.763837
0.763829
0.763729
0.763692
0.763689
0.76445
0.764176
0.763948
0.763782
0.764989
0.764706
0.764406
0.765417
0.765356
0.764973
0.764962
0.765208
0.765406
0.765321
0.765396
0.765411
0.765298
0.764893
0.764831
0.76508
0.76527
0.765233
0.765025
0.764629
0.764603
0.76476
0.764684
0.765329
0.76684
0.766025
0.764642
0.764847
0.76699
0.76699
0.76699
0.76699
0.76699
0.76699
0.76699
0.76699
0.76699
0.76699
0.76699
0.76699
0.76699
0.766988
0.766958
0.766776
0.766409
0.766207
0.766122
0.766056
0.76599
0.765906
0.76582
0.765739
0.765568
0.765355
0.765297
0.765363
0.765339
0.765454
0.765402
0.765582
0.765514
0.765726
0.765655
0.765795
0.765779
0.7657
0.765781
0.765319
0.76565
0.764704
0.764978
0.764605
0.764593
0.765104
0.765021
0.764951
0.765032
0.765059
0.765158
0.765209
0.764549
0.764718
0.765081
0.765177
0.764029
0.764176
0.764546
0.764351
0.763707
0.763744
0.763813
0.763908
0.763696
0.763666
0.763664
0.763682
0.764129
0.763903
0.763746
0.763671
0.764679
0.76437
0.764088
0.765355
0.765208
0.764658
0.764642
0.764957
0.765405
0.765386
0.765402
0.765356
0.765373
0.764958
0.764878
0.765181
0.765356
0.765327
0.765112
0.764616
0.764588
0.764788
0.764692
0.765281
0.76642
0.765693
0.764633
0.764837
0.76699
0.76699
0.76699
0.76699
0.76699
0.76699
0.76699
0.76699
0.76699
0.76699
0.76699
0.76699
0.766989
0.766973
0.766843
0.766498
0.766259
0.766197
0.766211
0.766147
0.765986
0.765819
0.765652
0.765489
0.765345
0.765301
0.765394
0.765377
0.765444
0.76541
0.765559
0.765495
0.765722
0.765635
0.765914
0.765817
0.766027
0.765996
0.765896
0.766014
0.765381
0.76582
0.764682
0.764953
0.764798
0.764723
0.765181
0.765104
0.765066
0.764983
0.76522
0.765228
0.765249
0.765306
0.764749
0.764936
0.765264
0.765336
0.764115
0.764282
0.7647
0.76448
0.76372
0.763787
0.763871
0.763979
0.763646
0.763643
0.763661
0.763696
0.763866
0.763716
0.76365
0.763628
0.76434
0.764054
0.763831
0.765215
0.764961
0.764314
0.76429
0.764635
0.765359
0.765399
0.765366
0.765228
0.765397
0.765027
0.76493
0.765271
0.765394
0.765376
0.765187
0.764608
0.764573
0.764819
0.764702
0.765208
0.766493
0.765775
0.764617
0.764814
0.76699
0.76699
0.76699
0.76699
0.76699
0.76699
0.76699
0.76699
0.76699
0.76699
0.76699
0.76699
0.766982
0.766899
0.7666
0.766312
0.766249
0.766346
0.766445
0.76633
0.766026
0.765747
0.765542
0.765389
0.765354
0.765512
0.765545
0.765559
0.765585
0.765553
0.765703
0.765636
0.765883
0.765786
0.766107
0.765992
0.766281
0.76622
0.766141
0.766279
0.765539
0.766044
0.764792
0.765066
0.764925
0.764885
0.764892
0.765221
0.765145
0.765104
0.765038
0.765354
0.765345
0.765296
0.765365
0.764925
0.765126
0.765401
0.765446
0.764214
0.764403
0.764856
0.764621
0.763756
0.763831
0.763931
0.764057
0.763625
0.763636
0.763674
0.763728
0.76369
0.76363
0.76361
0.763605
0.76402
0.763798
0.763667
0.764974
0.764635
0.763985
0.763942
0.764269
0.765247
0.76538
0.765281
0.764995
0.765396
0.765087
0.764973
0.765328
0.765401
0.765388
0.765239
0.764597
0.764554
0.764844
0.764703
0.765224
0.766916
0.766261
0.764596
0.764803
0.76699
0.76699
0.76699
0.76699
0.76699
0.76699
0.76699
0.76699
0.76699
0.76699
0.76699
0.766987
0.76694
0.766703
0.766377
0.766284
0.766402
0.766622
0.766672
0.766497
0.766148
0.765805
0.76559
0.765544
0.765692
0.766114
0.765776
0.765784
0.765797
0.765775
0.765906
0.765841
0.766088
0.765988
0.766325
0.766201
0.766535
0.766449
0.766407
0.766547
0.765739
0.766234
0.764977
0.765268
0.764982
0.764936
0.765055
0.765027
0.765252
0.765176
0.765155
0.765096
0.76545
0.76542
0.765332
0.765409
0.765084
0.765275
0.765511
0.765533
0.764317
0.764528
0.765019
0.764767
0.763797
0.763886
0.764
0.764142
0.763621
0.763655
0.763703
0.763765
0.763612
0.763592
0.763587
0.763603
0.763757
0.763639
0.763591
0.764646
0.764256
0.763718
0.763692
0.763903
0.76505
0.765331
0.765146
0.764708
0.765371
0.765129
0.765
0.765344
0.765389
0.765374
0.765259
0.764579
0.764531
0.764849
0.76469
0.765364
0.76697
0.766624
0.764573
0.764814
0.76699
0.76699
0.76699
0.76699
0.76699
0.76699
0.76699
0.76699
0.76699
0.76699
0.766988
0.766964
0.766792
0.766461
0.766315
0.766405
0.766663
0.766819
0.766794
0.766618
0.766358
0.766124
0.766026
0.76612
0.766445
0.766667
0.766182
0.766696
0.766112
0.7661
0.766093
0.766188
0.766132
0.766358
0.766264
0.766587
0.766467
0.766753
0.766696
0.76658
0.766723
0.765849
0.766286
0.765189
0.765453
0.765051
0.765029
0.765136
0.765118
0.765299
0.765223
0.765229
0.765175
0.765525
0.765477
0.765381
0.765463
0.76525
0.765426
0.765621
0.765627
0.764423
0.764653
0.765179
0.764913
0.763845
0.763946
0.764073
0.76423
0.763637
0.76368
0.763737
0.763808
0.763574
0.76357
0.763587
0.763619
0.763611
0.76357
0.763556
0.764299
0.763904
0.763588
0.76357
0.763673
0.764835
0.765247
0.764982
0.76441
0.765316
0.76514
0.764996
0.765322
0.765346
0.765325
0.765231
0.764557
0.764502
0.764832
0.764661
0.765601
0.766987
0.766876
0.764546
0.764862
0.76699
0.76699
0.76699
0.76699
0.76699
0.76699
0.76699
0.76699
0.76699
0.766989
0.766976
0.766859
0.766557
0.766351
0.766398
0.766654
0.766843
0.766908
0.766866
0.766747
0.766616
0.766538
0.766575
0.766738
0.766899
0.76659
0.766905
0.766923
0.766523
0.766488
0.766491
0.766551
0.766509
0.766691
0.766614
0.766838
0.766774
0.766847
0.766866
0.766616
0.766779
0.76584
0.766169
0.765294
0.765378
0.76556
0.765136
0.76512
0.765245
0.76523
0.765371
0.765295
0.765334
0.765282
0.7656
0.76554
0.765454
0.765539
0.765413
0.765569
0.765735
0.765732
0.764525
0.764773
0.765338
0.765055
0.763897
0.764008
0.764146
0.764316
0.763661
0.763711
0.763776
0.763854
0.763554
0.763573
0.763605
0.763641
0.763557
0.763538
0.763537
0.763933
0.763666
0.763544
0.763541
0.763576
0.764557
0.765104
0.764699
0.763991
0.765194
0.765102
0.764926
0.765256
0.765217
0.765184
0.76514
0.764515
0.764463
0.76477
0.764612
0.766053
0.766989
0.766938
0.764522
0.764969
0.76699
0.76699
0.76699
0.76699
0.76699
0.76699
0.76699
0.76699
0.766989
0.76698
0.766901
0.766647
0.766399
0.766382
0.76661
0.766827
0.766923
0.766951
0.766921
0.766875
0.766839
0.766848
0.766907
0.76696
0.766986
0.766874
0.766978
0.766981
0.766846
0.766831
0.766832
0.76686
0.766841
0.76691
0.766885
0.766929
0.766929
0.766856
0.766909
0.766495
0.766732
0.765805
0.766015
0.76539
0.765447
0.765665
0.765586
0.765248
0.765233
0.765362
0.76536
0.765475
0.765399
0.765475
0.765422
0.765692
0.765622
0.76556
0.765647
0.765577
0.765703
0.76586
0.765852
0.764615
0.764879
0.765486
0.765183
0.76395
0.764067
0.764213
0.764394
0.763689
0.763745
0.763814
0.763898
0.763556
0.76359
0.763625
0.763668
0.763521
0.763517
0.763535
0.763684
0.763607
0.763502
0.763478
0.763519
0.764094
0.764846
0.764237
0.763755
0.764905
0.764945
0.7648
0.765075
0.764921
0.764848
0.764897
0.764466
0.76442
0.764668
0.764532
0.766317
0.766973
0.766904
0.764515
0.765042
0.76699
0.76699
0.76699
0.76699
0.76699
0.76699
0.76699
0.766989
0.766981
0.76692
0.766715
0.766458
0.766379
0.766542
0.766766
0.766903
0.766963
0.766973
0.766963
0.766952
0.766954
0.76697
0.766983
0.766989
0.76699
0.76699
0.766973
0.766989
0.766969
0.766965
0.766965
0.766968
0.766966
0.766969
0.766971
0.766939
0.766961
0.76674
0.766878
0.766235
0.766498
0.765725
0.765856
0.765907
0.766013
0.765512
0.765536
0.765688
0.765385
0.765368
0.765512
0.765519
0.765618
0.765541
0.765658
0.765602
0.765804
0.765732
0.765703
0.765791
0.765736
0.765839
0.766
0.765992
0.764672
0.764943
0.765594
0.765256
0.763998
0.764117
0.764266
0.764452
0.763717
0.763777
0.763846
0.763931
0.76357
0.763613
0.763655
0.7637
0.763499
0.763514
0.763546
0.763639
0.763579
0.763458
0.763446
0.763529
0.763861
0.764361
0.763998
0.763738
0.764492
0.764782
0.76467
0.76477
0.76452
0.764522
0.764737
0.764404
0.764384
0.764546
0.764437
0.766213
0.766971
0.766774
0.764506
0.765002
0.76699
0.76699
0.76699
0.76699
0.76699
0.76699
0.766989
0.766981
0.766925
0.766759
0.766516
0.766386
0.766487
0.766688
0.766846
0.766953
0.766981
0.766984
0.766982
0.766983
0.766986
0.766989
0.76699
0.76699
0.76699
0.76699
0.76699
0.76699
0.766989
0.76699
0.766988
0.766987
0.766987
0.766985
0.766986
0.766973
0.766982
0.766879
0.766948
0.76652
0.766731
0.766155
0.766322
0.76584
0.766002
0.766003
0.766215
0.765683
0.765675
0.765848
0.765559
0.765533
0.765698
0.765715
0.765802
0.765725
0.76588
0.765822
0.765945
0.765874
0.765885
0.765972
0.76588
0.765981
0.766151
0.766147
0.764688
0.76496
0.76563
0.765275
0.764032
0.764153
0.764289
0.764476
0.763748
0.763803
0.763865
0.763944
0.763592
0.763633
0.76369
0.763721
0.763468
0.763476
0.763497
0.763674
0.763431
0.763427
0.763421
0.763423
0.763891
0.764166
0.764054
0.763794
0.764305
0.764643
0.764538
0.764616
0.764442
0.764544
0.764572
0.764358
0.764354
0.764449
0.764369
0.76588
0.766948
0.766516
0.764489
0.764897
0.76699
0.76699
0.76699
0.76699
0.76699
0.766989
0.766979
0.766924
0.766781
0.766563
0.766408
0.766451
0.766622
0.766789
0.766923
0.76698
0.766988
0.766988
0.766989
0.766989
0.76699
0.76699
0.76699
0.76699
0.76699
0.76699
0.76699
0.76699
0.76699
0.76699
0.766989
0.766989
0.766985
0.766987
0.766953
0.766976
0.766787
0.766897
0.766462
0.766631
0.766232
0.766315
0.766015
0.766169
0.766154
0.766275
0.766371