/*--------------------------------*- C++ -*----------------------------------*\
  =========                 |
  \\      /  F ield         | OpenFOAM: The Open Source CFD Toolbox
   \\    /   O peration     | Website:  https://openfoam.org
    \\  /    A nd           | Version:  dev
     \\/     M anipulation  |
\*---------------------------------------------------------------------------*/
FoamFile
{
    version     2.0;
    format      ascii;
    class       volScalarField;
    location    "2500";
    object      nut;
}
// * * * * * * * * * * * * * * * * * * * * * * * * * * * * * * * * * * * * * //

dimensions      [0 2 -1 0 0 0 0];

internalField   nonuniform List<scalar> 
9836
(
0.000128562
0.000131933
0.00012511
0.000120631
0.000158258
0.000111454
0.000111887
0.000167307
0.000149442
0.000106062
0.0001077
0.000161657
0.000171662
0.000127774
0.000104173
0.000104638
0.000145976
0.000184737
0.000158432
0.000115862
0.000103127
0.000103012
0.000130165
0.000184465
0.000180424
0.000135009
0.000110829
0.000102403
0.000102532
0.000120406
0.000177061
0.000192996
0.000161335
0.000121403
0.000107894
0.000101939
0.000102313
0.000112924
0.000159222
0.000199659
0.000184293
0.000138276
0.000114847
0.000105871
0.000101587
0.00010198
0.000108589
0.000138403
0.000197077
0.000198067
0.000160398
0.000124554
0.000111031
0.000104476
0.000101291
0.000101433
0.000105962
0.000126992
0.000187206
0.000207341
0.000184069
0.000138938
0.000117404
0.000108237
0.000103718
0.000101034
0.00010085
0.000104599
0.000118047
0.000166597
0.00021056
0.000201211
0.000157584
0.000126249
0.000113032
0.000106357
0.000103101
0.000100844
0.000100361
0.000103944
0.00011262
0.000144359
0.000206574
0.000210477
0.000180207
0.000137744
0.000119275
0.000109786
0.000105267
0.000102554
0.000100679
9.99859e-05
0.000103504
0.000109304
0.000132378
0.000195024
0.000218214
0.000199965
0.000154637
0.000126285
0.000114684
0.000107675
0.000104347
0.000102121
0.000100555
9.97779e-05
0.000103167
0.000107244
0.000122815
0.000173342
0.000219381
0.000213756
0.000173965
0.000136649
0.000119811
0.000111243
0.000106316
0.000103576
0.000101755
0.000100458
9.9772e-05
0.000102684
0.000105843
0.000116689
0.00015061
0.00021452
0.000220327
0.000195868
0.000150264
0.000126261
0.000115455
0.000108846
0.000105155
0.000103029
0.000101442
0.000100398
9.98465e-05
0.000101979
0.000104993
0.000112654
0.000137761
0.000201604
0.000227025
0.000212117
0.000168327
0.000134524
0.000120119
0.000112093
0.000107171
0.00010434
0.000102574
0.000101186
0.000100327
9.99203e-05
0.000101342
0.000104373
0.000109985
0.000127847
0.000179434
0.000226958
0.000223706
0.000188409
0.000146324
0.000125467
0.000115874
0.000109599
0.000105764
0.000103724
0.000102035
0.00010102
0.00010026
9.99602e-05
0.00010083
0.000103827
0.000108243
0.000121035
0.000157109
0.000221371
0.000228712
0.000208702
0.000162099
0.000132338
0.000119911
0.000112559
0.000107708
0.000104852
0.000103118
0.000101651
0.000100879
0.000100199
9.99714e-05
0.00010046
0.000103362
0.000106919
0.000116528
0.00014291
0.000207417
0.000234379
0.000222301
0.00018066
0.000142378
0.000124337
0.000115912
0.000110026
0.000106157
0.000104147
0.000102452
0.000101405
0.000100731
0.000100146
9.99712e-05
0.000100212
0.000102925
0.000105858
0.000113398
0.000133248
0.000186197
0.000233729
0.000231969
0.000200602
0.000155869
0.000130291
0.000119331
0.000112719
0.000108054
0.00010517
0.000103464
0.000101956
0.000101204
0.000100574
0.000100102
9.99679e-05
0.000100057
0.000102423
0.000105019
0.000111199
0.000126104
0.000164101
0.000227735
0.000236185
0.000219227
0.000173003
0.000138419
0.000123262
0.000115608
0.000110282
0.000106484
0.000104395
0.000102768
0.000101612
0.000100993
0.000100449
0.000100061
9.99494e-05
9.99358e-05
0.000101938
0.000104457
0.000109686
0.000121232
0.000148614
0.000213388
0.000240962
0.00023084
0.00019139
0.000150384
0.000128007
0.000118647
0.00011264
0.000108339
0.000105378
0.000103697
0.000102172
0.000101345
0.000100792
0.000100334
0.000100021
9.99248e-05
9.9875e-05
0.000101544
0.00010405
0.000108557
0.00011815
0.000139183
0.000193143
0.00023998
0.000239069
0.000210473
0.000165088
0.000135221
0.00012192
0.000115209
0.000110324
0.000106757
0.000104571
0.000103005
0.000101736
0.000101101
0.000100612
0.00010022
9.99865e-05
9.99049e-05
9.98638e-05
0.000101225
0.000103687
0.000107607
0.000116296
0.0001319
0.000171297
0.000233974
0.000242707
0.000227608
0.000182572
0.000144939
0.000126223
0.000117841
0.000112432
0.000108453
0.000105572
0.000103859
0.000102351
0.000101416
0.000100854
0.00010044
0.000100115
9.99568e-05
9.98896e-05
9.98694e-05
0.000100935
0.000103297
0.000106789
0.000114936
0.000126823
0.000154855
0.000220081
0.000247023
0.000237966
0.000200204
0.000158227
0.000132075
0.000120743
0.000114669
0.000110293
0.00010698
0.000104713
0.000103196
0.000101843
0.000101126
0.000100629
0.00010028
0.000100019
9.99346e-05
9.98801e-05
9.98668e-05
0.00010065
0.000102888
0.000106048
0.000113588
0.000123234
0.00014536
0.000200978
0.000246192
0.000245178
0.000218245
0.00017329
0.000140592
0.000124393
0.000117059
0.000112082
0.000108561
0.000105785
0.000103992
0.000102566
0.000101474
0.000100857
0.000100423
0.000100131
9.99334e-05
9.99227e-05
9.98755e-05
9.98537e-05
0.000100384
0.00010251
0.000105412
0.000112265
0.000120749
0.000137461
0.00017948
0.000240773
0.000248205
0.000234227
0.000190277
0.000151398
0.000129508
0.000119531
0.000114104
0.000110077
0.000107161
0.000104867
0.000103352
0.000102026
0.000101167
0.000100615
0.000100232
9.99958e-05
9.98679e-05
9.99244e-05
9.98746e-05
9.98391e-05
0.000100161
0.000102209
0.000104937
0.000111109
0.000118971
0.000131806
0.000161407
0.000228225
0.00025302
0.00024362
0.000206997
0.000164967
0.000136333
0.000122657
0.000116198
0.000111772
0.000108494
0.000106017
0.000104146
0.000102797
0.000101622
0.000100905
0.0001004
0.000100064
9.98805e-05
9.98267e-05
9.99401e-05
9.98721e-05
9.98273e-05
9.99798e-05
0.000101971
0.000104526
0.000110139
0.000117492
0.000127755
0.000151393
0.000209854
0.000252245
0.00025111
0.000223738
0.000179853
0.000145482
0.00012686
0.000118402
0.000113417
0.000109963
0.000107212
0.000105106
0.000103545
0.000102326
0.000101314
0.000100689
0.000100219
9.99302e-05
9.97896e-05
9.9827e-05
9.99732e-05
9.98671e-05
9.98187e-05
9.98309e-05
0.000101785
0.000104171
0.000109359
0.00011621
0.00012501
0.000143148
0.000188989
0.000247896
0.000253822
0.000239514
0.0001959
0.000156802
0.000132592
0.000120939
0.000115422
0.000111303
0.000108459
0.000106157
0.0001044
0.000103051
0.000101969
0.000101083
0.000100522
0.000100088
9.98331e-05
9.9782e-05
9.99019e-05
0.000100032
9.98616e-05
9.98045e-05
9.97158e-05
0.000101643
0.000103868
0.000108675
0.000115233
0.000122937
0.000136963
0.000169556
0.000237232
0.000258461
0.000248768
0.000212239
0.000170119
0.000140032
0.00012454
0.000117227
0.000112898
0.000109642
0.000107239
0.000105315
0.000103851
0.000102682
0.000101732
0.000100917
0.000100412
0.000100054
9.9865e-05
9.99116e-05
0.000100055
0.000100118
9.98602e-05
9.97921e-05
9.96514e-05
0.000101533
0.000103615
0.000108084
0.000114506
0.00012127
0.000132487
0.000157764
0.000220123
0.000258499
0.000256338
0.000227983
0.000184826
0.000149617
0.000129252
0.000119534
0.000114446
0.000110886
0.000108274
0.000106264
0.000104692
0.00010347
0.000102435
0.000101627
0.000100895
0.000100408
0.000100188
0.000100109
0.000100249
0.00010033
0.000100276
9.98612e-05
9.97777e-05
9.96146e-05
0.000101404
0.000103421
0.000107614
0.000113828
0.000119826
0.000129118
0.000149568
0.000200131
0.000255466
0.000259672
0.000243087
0.000200242
0.000161137
0.000135515
0.000122332
0.000116242
0.000112149
0.000109297
0.000107175
0.00010554
0.000104266
0.000103238
0.00010233
0.000101628
0.000101094
0.00010072
0.000100589
0.000100697
0.000101012
0.000101101
0.00010024
0.000100714
9.98642e-05
9.97526e-05
9.95928e-05
0.000101255
0.000103254
0.000107212
0.000113112
0.000118574
0.000126639
0.000142755
0.000181115
0.0002474
0.000263283
0.000253792
0.000215871
0.000174394
0.000143325
0.000126491
0.000117917
0.000113582
0.00011033
0.000108036
0.000106327
0.000105024
0.00010405
0.000103187
0.000102396
0.000101838
0.000101502
0.000101401
0.000101558
0.000101925
0.000101984
0.000101194
0.00010168
0.000100299
0.000100824
9.98669e-05
9.97284e-05
9.95725e-05
0.000101115
0.000103099
0.000106891
0.000112447
0.000117544
0.000124802
0.00013768
0.000165766
0.000232695
0.000265308
0.00026055
0.000231189
0.000188627
0.000153323
0.000131468
0.000120544
0.000114924
0.000111416
0.000108892
0.00010706
0.000105753
0.000104787
0.000104065
0.000103369
0.000102722
0.000102359
0.000102289
0.000102492
0.000102999
0.000102674
0.000103356
0.000102626
0.000103415
0.000103733
0.000101335
0.000102172
0.000100337
0.000100883
9.98676e-05
9.9707e-05
9.95654e-05
0.000100987
0.000102971
0.000106642
0.000111911
0.000116719
0.000123433
0.000133918
0.000157379
0.000215582
0.000263681
0.000265442
0.000245313
0.000203649
0.000164717
0.000138215
0.000123748
0.000116595
0.000112556
0.000109732
0.000107813
0.000106425
0.000105492
0.000104838
0.000104332
0.000103865
0.000103468
0.000103389
0.000103759
0.000103878
0.000104184
0.000101139
0.000104448
0.000103314
9.55386e-05
9.8201e-05
0.000101601
0.000100475
0.000100368
0.000100959
9.98659e-05
9.96846e-05
9.95742e-05
0.000100861
0.000102883
0.000106412
0.000111424
0.000116038
0.000122176
0.000131086
0.00015042
0.000197135
0.000258534
0.000267782
0.000258045
0.000218269
0.000177871
0.000146205
0.000128356
0.000118629
0.000113786
0.00011068
0.000108474
0.000107081
0.000106124
0.000105567
0.000105193
0.000104999
0.000104813
0.000104792
9.94844e-05
9.15339e-05
9.32182e-05
8.66902e-05
0.000100312
9.04128e-05
9.12284e-05
9.43919e-05
9.12491e-05
8.87146e-05
9.77804e-05
9.14338e-05
9.63164e-05
9.55449e-05
9.98633e-05
9.96594e-05
9.95714e-05
0.000100736
0.000102819
0.000106196
0.000110952
0.000115447
0.000120965
0.000129193
0.000144728
0.000180598
0.000247861
0.00027226
0.000264271
0.000232723
0.000191409
0.000156348
0.000133589
0.000121688
0.000115182
0.000111649
0.000109182
0.000107589
0.000106712
0.00010619
0.000105996
0.000106023
0.000106181
9.91352e-05
8.83182e-05
8.07496e-05
8.08976e-05
7.59281e-05
8.59166e-05
7.79592e-05
8.6714e-05
8.07531e-05
8.54517e-05
8.61892e-05
8.33366e-05
8.17523e-05
9.07332e-05
8.4587e-05
9.21658e-05
9.16754e-05
9.98585e-05
9.96298e-05
9.95591e-05
0.000100624
0.000102761
0.000105988
0.000110546
0.00011485
0.000119933
0.000127943
0.00014071
0.000167843
0.000234236
0.000272297
0.000270722
0.000246289
0.000205576
0.000167654
0.000140591
0.000125572
0.000117147
0.000112663
0.000110028
0.000108105
0.000107146
0.00010677
0.000106647
0.000106972
0.00010509
9.20406e-05
8.13651e-05
7.25133e-05
7.07859e-05
6.67041e-05
7.44886e-05
6.86298e-05
7.60849e-05
7.11069e-05
7.99624e-05
7.45768e-05
7.82344e-05
8.01916e-05
7.69403e-05
7.61539e-05
8.61184e-05
7.98643e-05
9.11162e-05
9.0782e-05
9.98502e-05
9.95965e-05
9.95448e-05
0.000100526
0.000102709
0.000105746
0.000110163
0.000114204
0.000119128
0.000126839
0.000137706
0.000160817
0.000218606
0.00027013
0.000273951
0.000259
0.000219529
0.000180191
0.000149103
0.000130193
0.000120087
0.000113983
0.000110823
0.000108777
0.000107519
0.000107198
0.000107298
0.000107759
0.000101012
8.68042e-05
7.53527e-05
6.68691e-05
6.38909e-05
6.08812e-05
6.53337e-05
6.12073e-05
6.70823e-05
6.33026e-05
6.98561e-05
6.55707e-05
7.32339e-05
6.88308e-05
7.23008e-05
7.57013e-05
7.18945e-05
7.18846e-05
8.35186e-05
7.68323e-05
9.3953e-05
9.31683e-05
9.98368e-05
9.95729e-05
9.95272e-05
0.000100445
0.000102661
0.000105512
0.000109739
0.000113614
0.00011848
0.000125645
0.000135466
0.000155066
0.000202088
0.000265038
0.000277161
0.000268679
0.000232716
0.000193434
0.000158985
0.000136331
0.000123567
0.000116136
0.000111674
0.000109521
0.000108018
0.000107492
0.000107732
0.000108508
9.64164e-05
8.32189e-05
7.12173e-05
6.25136e-05
5.91341e-05
5.60061e-05
5.83893e-05
5.64081e-05
5.96015e-05
5.67252e-05
6.17765e-05
5.84386e-05
6.43212e-05
6.06102e-05
6.78376e-05
6.38416e-05
6.75976e-05
7.23986e-05
6.79112e-05
6.88115e-05
8.28496e-05
7.51844e-05
0.00010017
0.000100016
9.98235e-05
9.95687e-05
9.95318e-05
0.000100387
0.000102595
0.000105315
0.000109295
0.00011308
0.000117846
0.000124331
0.000134008
0.000150126
0.000186758
0.000255003
0.000282215
0.000274327
0.000246357
0.000206427
0.000170417
0.000143451
0.000128089
0.000118969
0.000113199
0.000110179
0.000108715
0.000108006
0.000107993
0.000109058
9.28647e-05
8.02093e-05
6.93652e-05
5.98323e-05
5.6089e-05
5.29113e-05
5.4157e-05
5.26657e-05
5.3973e-05
5.25947e-05
5.52681e-05
5.2833e-05
5.73171e-05
5.46563e-05
5.98769e-05
5.67773e-05
6.36697e-05
6.00449e-05
6.38842e-05
7.02604e-05
6.47649e-05
6.67237e-05
8.43014e-05
7.45931e-05
0.000100127
0.000100136
9.98282e-05
9.95984e-05
9.95684e-05
0.000100338
0.00010249
0.000105086
0.000108874
0.000112556
0.000117142
0.000123021
0.000132777
0.000146364
0.000174532
0.000242462
0.000282939
0.000281349
0.000258344
0.000219794
0.000182266
0.000152479
0.000133313
0.000122626
0.000115687
0.000111181
0.000109336
0.000108828
0.000108733
0.000108115
9.06622e-05
7.70372e-05
6.63934e-05
5.82794e-05
5.47629e-05
5.07578e-05
5.14363e-05
4.98768e-05
5.07867e-05
5.01407e-05
5.10313e-05
5.13897e-05
5.25438e-05
5.26621e-05
5.44099e-05
5.44591e-05
5.66445e-05
5.57465e-05
6.04122e-05
5.74572e-05
6.06989e-05
6.93911e-05
6.16854e-05
6.36408e-05
8.76414e-05
7.51576e-05
0.000100062
9.98294e-05
9.98782e-05
9.96811e-05
9.96284e-05
0.000100266
0.000102328
0.000104839
0.00010845
0.000112028
0.000116398
0.000121835
0.000131404
0.000143362
0.000167479
0.000228049
0.000280452
0.000285196
0.000270834
0.000232476
0.000194864
0.00016224
0.000140219
0.000126878
0.000118979
0.000113447
0.000110129
0.000109463
0.000109691
0.000105577
8.72852e-05
7.4096e-05
6.46006e-05
5.56835e-05
5.49724e-05
4.67763e-05
5.06192e-05
4.79815e-05
4.98071e-05
5.04782e-05
5.28375e-05
5.89459e-05
5.68635e-05
6.95461e-05
5.98097e-05
7.52467e-05
6.02127e-05
7.61824e-05
5.90505e-05
7.05623e-05
5.89161e-05
6.27358e-05
5.99877e-05
6.72147e-05
6.12964e-05
6.32248e-05
9.1793e-05
7.4542e-05
9.99756e-05
9.95414e-05
0.000100014
9.98518e-05
9.97169e-05
0.000100155
0.000102076
0.000104597
0.000108017
0.000111501
0.000115642
0.000120864
0.000129841
0.000141163
0.000162161
0.000212168
0.000276499
0.000289726
0.000280252
0.000245088
0.000207382
0.000173232
0.000147914
0.000132527
0.000122854
0.000116725
0.000112227
0.000110387
0.000110394
0.000101726
8.32944e-05
7.27955e-05
6.44447e-05
5.55925e-05
5.04389e-05
5.1346e-05
4.68979e-05
5.13716e-05
5.41416e-05
6.57343e-05
7.85982e-05
9.24709e-05
9.82062e-05
9.14318e-05
0.000100947
9.00638e-05
9.85863e-05
8.76707e-05
9.34673e-05
8.63724e-05
8.77451e-05
6.90414e-05
8.32702e-05
7.27584e-05
6.56269e-05
7.38543e-05
7.38161e-05
9.00217e-05
6.84824e-05
9.99488e-05
9.94307e-05
0.000100346
0.000100368
0.000100034
0.000100081
0.000101729
0.000104306
0.000107604
0.000110951
0.000114937
0.000120081
0.00012827
0.000139601
0.000157403
0.000197183
0.000268231
0.000295968
0.000287034
0.000258054
0.000219764
0.000184849
0.000156867
0.000139119
0.000128014
0.000120746
0.000116186
0.000112839
0.000111822
9.89528e-05
8.25997e-05
7.15702e-05
6.23945e-05
5.55156e-05
5.04204e-05
5.77047e-05
5.38416e-05
5.38538e-05
5.71277e-05
9.06733e-05
9.66423e-05
0.000104213
0.000111468
0.000115769
0.000134347
0.000121792
0.000151199
0.000116528
0.00015511
0.000102399
0.000141113
8.94877e-05
0.000112457
8.0815e-05
9.21417e-05
7.82407e-05
7.15962e-05
7.5536e-05
7.30959e-05
7.07655e-05
6.28684e-05
7.08484e-05
6.2115e-05
0.000101683
0.000102091
0.000101136
0.000100601
0.000101606
0.00010398
0.000107196
0.000110331
0.000114338
0.000119333
0.000126897
0.000138105
0.000153567
0.000184768
0.000255776
0.000298192
0.000295257
0.000270457
0.000232217
0.000196575
0.000166946
0.000146571
0.000134291
0.000126091
0.000121064
0.000117383
0.000115141
9.60104e-05
7.99687e-05
6.71499e-05
6.04469e-05
5.55373e-05
5.09557e-05
5.60617e-05
5.16638e-05
9.42379e-05
9.2598e-05
9.7163e-05
9.57751e-05
0.000118451
0.000125409
0.000153811
0.00017306
0.000184797
0.000220577
0.000201566
0.000254202
0.000198966
0.000264989
0.000172269
0.000248271
0.000123865
0.000206146
9.3544e-05
0.000137144
9.13447e-05
7.27066e-05
8.67384e-05
8.03923e-05
5.23939e-05
7.61746e-05
3.58497e-05
3.48624e-05
0.000102953
0.000105518
0.000104861
0.000102437
0.000102298
0.000103912
0.000106735
0.000109613
0.00011379
0.000118527
0.000125725
0.000136575
0.000150464
0.000176762
0.000242006
0.000295531
0.000300493
0.000283927
0.000244501
0.000208609
0.000177252
0.000155276
0.000141395
0.000133051
0.000127295
0.000123546
0.000117271
9.11604e-05
7.41857e-05
6.46458e-05
6.03404e-05
5.48506e-05
5.17538e-05
5.43622e-05
4.4293e-05
8.94304e-05
8.66582e-05
0.000130826
0.000128662
0.000130534
0.000133492
0.000191248
0.000208854
0.000257234
0.00029325
0.000308297
0.000357592
0.000327872
0.000382504
0.000320489
0.00037895
0.000288711
0.000354879
0.000234033
0.000312969
0.000145928
0.000249125
0.000143559
7.47299e-05
0.000129223
0.000111417
4.8349e-05
6.8198e-05
1.87644e-05
2.20968e-05
0.000102757
0.000110048
0.000111491
0.000107864
0.000104558
0.000104471
0.000106423
0.00010888
0.000113237
0.000117754
0.000124484
0.000135071
0.000148322
0.000171582
0.000226846
0.000292392
0.000306139
0.000294504
0.000257348
0.000220363
0.000188302
0.000164074
0.000149615
0.000141201
0.000135428
0.000131616
0.000115488
9.0527e-05
7.49168e-05
6.73793e-05
5.87308e-05
5.39865e-05
5.09875e-05
6.73807e-05
8.5966e-05
8.61281e-05
0.000123738
0.000113919
0.000240024
0.000239594
0.000223191
0.000233883
0.000326772
0.000356629
0.000400509
0.000436842
0.000427555
0.000465789
0.000428283
0.000472558
0.000411936
0.000463826
0.000379324
0.000437709
0.000330399
0.000396294
0.000255588
0.000338451
0.000250583
9.47707e-05
0.000234033
0.000205568
5.5817e-05
7.91792e-05
9.87273e-06
1.45443e-05
0.000110605
0.000123836
0.0001217
0.000112047
0.000106685
0.000106671
0.000108671
0.000112856
0.000117102
0.000123255
0.000133637
0.000146842
0.000167109
0.0002122
0.000285863
0.000313526
0.000302951
0.000270582
0.000232177
0.000199169
0.000173688
0.000157824
0.000149971
0.000145317
0.000141578
0.000112946
9.04503e-05
7.56559e-05
6.30301e-05
5.55304e-05
5.40906e-05
5.14459e-05
5.94449e-05
9.23451e-05
9.08358e-05
0.000105411
9.56156e-05
0.000237201
0.000231394
0.000411103
0.000419006
0.00038083
0.000398934
0.000467548
0.000492647
0.000499091
0.000528528
0.000514722
0.000553508
0.000513831
0.000564941
0.000495845
0.00055292
0.000461203
0.000521352
0.000411903
0.000475221
0.000343219
0.000417291
0.000339593
0.000162989
0.000327547
0.000304841
6.82964e-05
0.000118083
5.23269e-06
2.10428e-05
0.000125857
0.000137306
0.000131231
0.000116526
0.000109209
0.000109125
0.000112978
0.000116916
0.000122162
0.000132265
0.00014554
0.000163158
0.000199321
0.000273611
0.00031713
0.000312597
0.000284454
0.000244322
0.000209984
0.000183049
0.000166328
0.00015846
0.000154349
0.000137178
0.000110584
9.10175e-05
7.51401e-05
6.22954e-05
5.62194e-05
5.1652e-05
4.99744e-05
5.56673e-05
9.01308e-05
8.13989e-05
0.000186407
0.000169739
0.000219268
0.000205147
0.000419024
0.000416495
0.000536875
0.0005434
0.000512119
0.000526804
0.000554568
0.000575847
0.00059044
0.000623803
0.00061457
0.000659775
0.000611661
0.000674607
0.000587667
0.000657631
0.000544954
0.000612553
0.000489241
0.000558592
0.000419966
0.000493089
0.000418288
0.000269116
0.000408679
0.000397588
0.000344521
9.10046e-05
0.00022445
4.25481e-06
8.31279e-05
0.000137841
0.000149534
0.000140343
0.000120382
0.000112226
0.000113611
0.000117043
0.000121406
0.000130909
0.000144234
0.00016012
0.00018965
0.00025984
0.000314816
0.000319339
0.000299502
0.000256869
0.00022113
0.00019226
0.00017411
0.000165029
0.000161728
0.000137153
0.000123049
0.000130507
0.000137402
0.000119275
8.35566e-05
6.19877e-05
5.32689e-05
5.88365e-05
0.00010578
0.00015337
0.000137896
0.000379932
0.000357435
0.000409822
0.000399206
0.000547338
0.000549096
0.000608696
0.000612007
0.000592364
0.000603424
0.000652218
0.000673068
0.000703883
0.000738771
0.000727358
0.000763782
0.000717036
0.000746747
0.000684624
0.000720419
0.000628819
0.000685829
0.000565506
0.00062949
0.000492997
0.000563949
0.000530343
0.000453131
0.000489528
0.000383986
0.000315494
0.000376218
0.000440631
0.000479099
0.000482491
0.000432797
0.000196471
0.000360996
0.000355411
0.000288085
7.99636e-05
0.000230008
0.000147247
0.000161846
0.000147532
0.000122923
0.000116421
0.000117613
0.000121328
0.000129698
0.000142954
0.000158284
0.00018358
0.000245511
0.000311917
0.000326093
0.000311793
0.000270397
0.000232093
0.000201784
0.000180922
0.000170758
0.000163425
0.000147497
0.000165272
0.000161835
0.000163329
0.000155331
0.000141226
0.000129039
8.67642e-05
7.15029e-05
0.000116384
0.0002627
0.000211636
0.000326264
0.000290489
0.000540282
0.000532754
0.000548276
0.00054613
0.000613559
0.000614935
0.000701063
0.000703038
0.000689865
0.000698066
0.000763435
0.000780071
0.000780379
0.000786898
0.000760523
0.000764802
0.000731334
0.000739735
0.00069053
0.000671738
0.000654836
0.000650978
0.000669913
0.000594989
0.000593417
0.000621371
0.00058763
0.000574203
0.00064196
0.000558568
0.000522093
0.000554648
0.000589073
0.000517201
0.000425011
0.00041596
0.0004721
0.000505446
0.000511848
0.000465091
0.00034605
0.000291425
0.000352609
0.000409297
0.000404409
0.000345011
0.000298734
0.000256412
0.000257629
0.00015682
0.000173699
0.000148112
0.000125042
0.000119806
0.000121598
0.000128381
0.000141677
0.000156972
0.00017938
0.000230945
0.000306522
0.000334444
0.000322036
0.000284885
0.000243517
0.0002111
0.000187905
0.000175307
0.000167138
0.000171573
0.000190942
0.000208528
0.000245042
0.000234814
0.000200443
0.000162254
0.000141819
0.000126188
0.000128043
0.000315303
0.000471011
0.00046804
0.000517164
0.000503516
0.000614034
0.000611277
0.000616125
0.000616316
0.000701109
0.000696421
0.000795186
0.000796246
0.000788618
0.00079204
0.000788424
0.000787758
0.000759788
0.000750562
0.000729857
0.000706521
0.000695192
0.000654841
0.000621979
0.000563777
0.000605397
0.000569991
0.000594076
0.000564742
0.000556934
0.000614378
0.000598456
0.000556298
0.00053427
0.000560073
0.000582912
0.000547939
0.000575421
0.000601325
0.000541448
0.000457837
0.000451321
0.000498236
0.000534301
0.000526422
0.000490878
0.000405311
0.000408292
0.000446715
0.000444808
0.000255802
8.03204e-05
0.000307837
0.000267253
0.000246968
0.000168707
0.000184185
0.000145812
0.000126179
0.000122868
0.000127916
0.000140538
0.000155869
0.000175758
0.000217747
0.000294894
0.000339226
0.000333056
0.000300686
0.000255878
0.000220571
0.000194849
0.00017989
0.00017262
0.000187718
0.000228978
0.000307217
0.000420261
0.000498519
0.000459843
0.000325434
0.000197595
0.000147447
0.000143303
0.00026949
0.000585135
0.000557169
0.000601152
0.000594861
0.000608063
0.000605534
0.000672894
0.000661765
0.000689966
0.000682322
0.000794931
0.000790559
0.000796379
0.000803423
0.000788963
0.000791578
0.000738486
0.000728896
0.000663859
0.000626704
0.000599824
0.000547299
0.000601351
0.000569576
0.000540068
0.000508176
0.000544702
0.000558168
0.000561998
0.000556965
0.000528763
0.000516786
0.000519679
0.000566302
0.000532987
0.000509125
0.000486759
0.000504048
0.000585864
0.000567431
0.000568129
0.000546009
0.000559239
0.000483808
0.0004776
0.000518271
0.000550611
0.000541653
0.000510022
0.000448483
0.000451342
0.000473298
0.000470262
0.000333342
0.000138812
0.000366342
0.000340464
0.000356806
0.000186339
0.000183212
0.000141324
0.000127231
0.000128315
0.000139689
0.000155019
0.000172738
0.000206939
0.000281029
0.000337311
0.000341315
0.000317482
0.000269251
0.000230773
0.000202
0.000184091
0.000179461
0.000195675
0.000259194
0.00038989
0.000601134
0.000751274
0.000734224
0.000607452
0.000415129
0.000228942
0.00017482
0.000259781
0.00059149
0.000644751
0.00066081
0.000645691
0.000645925
0.000652379
0.000647977
0.000762162
0.000748399
0.000783698
0.000774112
0.000813135
0.000823648
0.000730636
0.000743029
0.000724106
0.000724095
0.000600856
0.000588987
0.000506192
0.000482527
0.000482092
0.000457991
0.000440293
0.000427485
0.000523185
0.00048869
0.000457263
0.000431029
0.00052621
0.000544008
0.000518717
0.00048217
0.000493901
0.000496853
0.000509004
0.00050947
0.000481622
0.000475438
0.000460772
0.000465719
0.000526117
0.000553214
0.000511513
0.000491038
0.00054169
0.000501954
0.000494226
0.000532366
0.000534603
0.000531913
0.000522819
0.000470457
0.00046806
0.00048709
0.000479686
0.000424803
0.000194463
0.000299376
0.000460736
0.000442712
0.00020329
0.000174483
0.000136858
0.000130267
0.000139069
0.000154453
0.000170899
0.000199099
0.000267201
0.000334327
0.000349002
0.000331739
0.000284014
0.000241294
0.00020998
0.000188301
0.000181706
0.000198011
0.000274826
0.000442462
0.000742553
0.000905248
0.000886765
0.00079723
0.000647586
0.000453879
0.000272863
0.000272935
0.000564031
0.000676564
0.000653215
0.00068552
0.00068254
0.000707563
0.000696559
0.000733141
0.00071881
0.000847437
0.000846148
0.000833886
0.000842845
0.000763999
0.000787155
0.00059242
0.000610104
0.000582076
0.000582232
0.00046621
0.000457281
0.000390327
0.000381374
0.000410851
0.000395145
0.000383463
0.000374622
0.000446103
0.000415603
0.000390831
0.000372361
0.000523068
0.000486069
0.000447531
0.000411865
0.000478304
0.000493438
0.000501531
0.000463455
0.000448907
0.000465999
0.000457407
0.000446468
0.000474531
0.000499283
0.000462886
0.000448828
0.000490189
0.000512705
0.000501749
0.000532587
0.000486538
0.000486404
0.000529643
0.000471804
0.000462947
0.000489491
0.000475849
0.000423078
0.000247393
0.000243552
0.000452939
0.000442489
0.000203921
0.000156512
0.000135949
0.000139119
0.000154014
0.000169653
0.000194234
0.000253236
0.000329866
0.000357865
0.000343638
0.000300418
0.000252757
0.000217705
0.000193636
0.000183446
0.000197977
0.000276999
0.000462528
0.000828763
0.000992121
0.000968255
0.000869088
0.000735618
0.000581296
0.000441594
0.00033867
0.000539692
0.000665108
0.000731967
0.000725623
0.000771975
0.000749415
0.000813803
0.000794684
0.000839504
0.000828662
0.000867948
0.000891358
0.000813375
0.000841151
0.00063915
0.000672334
0.00046156
0.000479577
0.00045053
0.000450916
0.000376709
0.000377685
0.000341432
0.000340904
0.000344669
0.00034428
0.000358998
0.000349456
0.000343045
0.000339979
0.00038207
0.000358394
0.000341201
0.000329204
0.000458484
0.000418909
0.000384115
0.000354635
0.000482128
0.000480565
0.000436341
0.000435528
0.000435715
0.000476676
0.000472282
0.000449845
0.000436963
0.000453178
0.000427191
0.000425177
0.000447673
0.000517002
0.000501973
0.00049245
0.000445597
0.000449386
0.000503602
0.000462662
0.00045344
0.000484491
0.000466366
0.000264458
8.32035e-05
0.000181501
0.000449344
0.000451175
0.000197582
0.000148125
0.000140886
0.000153996
0.000169238
0.000190194
0.000240357
0.000319289
0.000364434
0.000355775
0.000318495
0.000266088
0.000226222
0.000198848
0.000185569
0.000193056
0.000268943
0.000460106
0.000859957
0.00103388
0.00100828
0.000864441
0.000745878
0.000630352
0.000518722
0.000444438
0.000541192
0.000631094
0.000810983
0.000772832
0.00084673
0.000824657
0.000895432
0.000873186
0.000921462
0.000912197
0.000907412
0.000917913
0.000806915
0.000856558
0.000711039
0.000757122
0.00050536
0.000541734
0.000398832
0.000409669
0.000382454
0.000390059
0.000346161
0.000350658
0.00035135
0.000324688
0.000329039
0.000334577
0.000331398
0.000321239
0.000317712
0.000317994
0.00032066
0.000331709
0.000315405
0.000304088
0.000297548
0.000395994
0.000361528
0.000331987
0.000309545
0.000463551
0.000418408
0.000377471
0.000427925
0.000443783
0.000449689
0.000438555
0.000467735
0.000416379
0.000420007
0.000409453
0.000420723
0.000416006
0.000516341
0.000497832
0.000457745
0.000416021
0.000421206
0.000473665
0.000451838
0.000446094
0.000476685
0.00045658
0.000277901
5.64867e-05
0.000170678
0.000451601
0.000458244
0.000180919
0.000147551
0.000153934
0.000169068
0.000188061
0.000228083
0.000306864
0.000363743
0.000365789
0.000337091
0.000281404
0.000236626
0.000204984
0.000187558
0.000188667
0.000246621
0.000433843
0.000855659
0.00105605
0.00100877
0.000835035
0.000748277
0.000684603
0.000573596
0.000499175
0.000575784
0.000642751
0.000823816
0.000942949
0.000947435
0.000975544
0.000963427
0.0009907
0.0009865
0.000966113
0.000981184
0.000901704
0.00093946
0.000688971
0.00075806
0.000581921
0.000628001
0.000425951
0.000453294
0.000387612
0.000395315
0.000359786
0.000376302
0.000338501
0.000341529
0.000341312
0.000354495
0.000311812
0.000316227
0.000326109
0.000321457
0.000295693
0.000297082
0.000300878
0.000306246
0.000293477
0.000282585
0.000276505
0.000274407
0.000342667
0.000313057
0.000290606
0.000274514
0.000403575
0.000362223
0.000326661
0.000437751
0.000463448
0.000391087
0.00038162
0.000430243
0.000415049
0.000403862
0.000410214
0.000432198
0.000401192
0.000500551
0.000492029
0.000431523
0.000400811
0.000404067
0.000448426
0.000442701
0.000442138
0.000468825
0.000447771
0.000264972
5.95922e-05
0.000152692
0.000455496
0.000439349
0.000169072
0.000155158
0.000169146
0.000185644
0.000219601
0.000292182
0.000360302
0.000374562
0.000353697
0.00029778
0.000248219
0.000212253
0.000190765
0.000186182
0.000222982
0.00038084
0.000817153
0.0010595
0.00101503
0.000799638
0.000744814
0.00071895
0.000663506
0.000573908
0.000603581
0.000668436
0.000839849
0.00106543
0.0010521
0.00106665
0.00106878
0.00105591
0.00106568
0.00101772
0.00103991
0.000940795
0.000984299
0.00082532
0.000887381
0.000588033
0.000649305
0.000493738
0.000538561
0.000404765
0.000423343
0.00042954
0.000427353
0.000369649
0.000388257
0.000419083
0.000329168
0.000333856
0.000350412
0.000373129
0.000299988
0.000306934
0.000317883
0.000312722
0.000275521
0.000279518
0.000285873
0.000293741
0.000263286
0.000256324
0.000253212
0.000253663
0.000296818
0.000274081
0.000257624
0.000245845
0.000349079
0.000313001
0.000282702
0.00045781
0.000424911
0.000338985
0.000331148
0.000375104
0.000426491
0.000406395
0.000421344
0.000451186
0.000402954
0.000478085
0.000486005
0.00041059
0.000401265
0.000399073
0.000427069