/*--------------------------------*- C++ -*----------------------------------*\
  =========                 |
  \\      /  F ield         | OpenFOAM: The Open Source CFD Toolbox
   \\    /   O peration     | Website:  https://openfoam.org
    \\  /    A nd           | Version:  dev
     \\/     M anipulation  |
\*---------------------------------------------------------------------------*/
FoamFile
{
    version     2.0;
    format      ascii;
    class       volScalarField;
    location    "2500";
    object      O2;
}
// * * * * * * * * * * * * * * * * * * * * * * * * * * * * * * * * * * * * * //

dimensions      [0 0 0 0 0 0 0];

internalField   nonuniform List<scalar> 
9836
(
0.23301
0.23301
0.23301
0.23301
0.23301
0.23301
0.23301
0.23301
0.23301
0.23301
0.23301
0.23301
0.23301
0.23301
0.23301
0.23301
0.23301
0.23301
0.23301
0.23301
0.23301
0.23301
0.23301
0.23301
0.23301
0.23301
0.23301
0.23301
0.23301
0.23301
0.23301
0.23301
0.23301
0.23301
0.23301
0.23301
0.23301
0.23301
0.23301
0.23301
0.23301
0.23301
0.23301
0.23301
0.23301
0.23301
0.23301
0.23301
0.23301
0.23301
0.23301
0.23301
0.23301
0.23301
0.23301
0.23301
0.23301
0.23301
0.23301
0.23301
0.23301
0.23301
0.23301
0.23301
0.23301
0.23301
0.23301
0.23301
0.23301
0.23301
0.23301
0.23301
0.23301
0.23301
0.23301
0.23301
0.23301
0.23301
0.23301
0.23301
0.23301
0.23301
0.23301
0.23301
0.23301
0.23301
0.23301
0.23301
0.23301
0.23301
0.23301
0.23301
0.23301
0.23301
0.23301
0.23301
0.23301
0.23301
0.23301
0.23301
0.23301
0.23301
0.23301
0.23301
0.23301
0.23301
0.23301
0.23301
0.23301
0.23301
0.23301
0.23301
0.23301
0.23301
0.23301
0.23301
0.23301
0.23301
0.23301
0.23301
0.23301
0.23301
0.23301
0.23301
0.23301
0.23301
0.23301
0.23301
0.23301
0.23301
0.23301
0.23301
0.23301
0.23301
0.23301
0.23301
0.23301
0.23301
0.23301
0.23301
0.23301
0.23301
0.23301
0.23301
0.23301
0.23301
0.23301
0.23301
0.23301
0.23301
0.23301
0.23301
0.23301
0.23301
0.23301
0.23301
0.23301
0.23301
0.23301
0.23301
0.23301
0.23301
0.23301
0.23301
0.23301
0.23301
0.23301
0.23301
0.23301
0.23301
0.23301
0.23301
0.23301
0.23301
0.23301
0.23301
0.23301
0.23301
0.23301
0.23301
0.23301
0.23301
0.23301
0.23301
0.23301
0.23301
0.23301
0.23301
0.23301
0.23301
0.23301
0.23301
0.23301
0.23301
0.23301
0.23301
0.23301
0.23301
0.23301
0.23301
0.23301
0.23301
0.23301
0.23301
0.23301
0.23301
0.23301
0.23301
0.23301
0.23301
0.23301
0.23301
0.23301
0.23301
0.23301
0.23301
0.23301
0.23301
0.23301
0.23301
0.23301
0.23301
0.23301
0.23301
0.23301
0.23301
0.23301
0.23301
0.23301
0.23301
0.23301
0.23301
0.23301
0.23301
0.23301
0.23301
0.23301
0.23301
0.23301
0.23301
0.23301
0.23301
0.23301
0.23301
0.23301
0.23301
0.23301
0.23301
0.23301
0.23301
0.23301
0.23301
0.23301
0.23301
0.23301
0.23301
0.23301
0.23301
0.23301
0.23301
0.23301
0.23301
0.23301
0.23301
0.23301
0.23301
0.23301
0.23301
0.23301
0.23301
0.23301
0.23301
0.23301
0.23301
0.23301
0.23301
0.23301
0.23301
0.23301
0.23301
0.23301
0.23301
0.23301
0.23301
0.23301
0.23301
0.23301
0.23301
0.23301
0.23301
0.23301
0.23301
0.23301
0.23301
0.23301
0.23301
0.23301
0.23301
0.23301
0.23301
0.23301
0.23301
0.23301
0.23301
0.23301
0.23301
0.23301
0.23301
0.23301
0.23301
0.23301
0.23301
0.23301
0.23301
0.23301
0.23301
0.23301
0.23301
0.23301
0.23301
0.23301
0.23301
0.23301
0.23301
0.23301
0.23301
0.23301
0.23301
0.23301
0.23301
0.23301
0.23301
0.23301
0.23301
0.23301
0.23301
0.23301
0.23301
0.23301
0.23301
0.23301
0.23301
0.23301
0.23301
0.23301
0.23301
0.23301
0.23301
0.23301
0.23301
0.23301
0.23301
0.23301
0.23301
0.23301
0.23301
0.23301
0.23301
0.23301
0.23301
0.23301
0.23301
0.23301
0.23301
0.23301
0.23301
0.23301
0.23301
0.23301
0.23301
0.23301
0.23301
0.23301
0.23301
0.23301
0.23301
0.23301
0.23301
0.23301
0.23301
0.23301
0.23301
0.23301
0.23301
0.23301
0.23301
0.23301
0.23301
0.23301
0.23301
0.23301
0.23301
0.23301
0.23301
0.23301
0.23301
0.23301
0.23301
0.23301
0.23301
0.23301
0.23301
0.23301
0.23301
0.23301
0.23301
0.23301
0.23301
0.23301
0.23301
0.23301
0.23301
0.23301
0.23301
0.23301
0.23301
0.23301
0.23301
0.23301
0.23301
0.23301
0.23301
0.23301
0.23301
0.23301
0.23301
0.23301
0.23301
0.23301
0.23301
0.23301
0.23301
0.23301
0.23301
0.23301
0.23301
0.23301
0.23301
0.23301
0.23301
0.23301
0.23301
0.23301
0.23301
0.23301
0.23301
0.23301
0.23301
0.23301
0.23301
0.23301
0.23301
0.23301
0.23301
0.23301
0.23301
0.23301
0.23301
0.23301
0.23301
0.23301
0.23301
0.23301
0.23301
0.23301
0.23301
0.23301
0.23301
0.23301
0.23301
0.23301
0.23301
0.23301
0.23301
0.23301
0.23301
0.23301
0.23301
0.23301
0.23301
0.23301
0.23301
0.23301
0.23301
0.23301
0.23301
0.23301
0.23301
0.23301
0.23301
0.23301
0.23301
0.23301
0.23301
0.23301
0.23301
0.23301
0.23301
0.23301
0.23301
0.23301
0.23301
0.23301
0.23301
0.23301
0.23301
0.23301
0.23301
0.23301
0.23301
0.23301
0.23301
0.23301
0.23301
0.23301
0.23301
0.23301
0.23301
0.23301
0.23301
0.23301
0.23301
0.23301
0.23301
0.23301
0.23301
0.23301
0.23301
0.23301
0.23301
0.23301
0.23301
0.23301
0.23301
0.23301
0.23301
0.23301
0.23301
0.23301
0.23301
0.23301
0.23301
0.23301
0.23301
0.23301
0.23301
0.23301
0.23301
0.23301
0.23301
0.23301
0.23301
0.23301
0.23301
0.23301
0.23301
0.23301
0.23301
0.23301
0.23301
0.23301
0.23301
0.23301
0.23301
0.23301
0.23301
0.23301
0.23301
0.23301
0.23301
0.23301
0.23301
0.23301
0.23301
0.23301
0.23301
0.23301
0.23301
0.23301
0.23301
0.23301
0.23301
0.23301
0.23301
0.23301
0.23301
0.23301
0.23301
0.23301
0.23301
0.23301
0.23301
0.23301
0.23301
0.23301
0.23301
0.23301
0.23301
0.23301
0.23301
0.23301
0.23301
0.23301
0.23301
0.23301
0.23301
0.23301
0.23301
0.23301
0.23301
0.23301
0.23301
0.23301
0.23301
0.23301
0.23301
0.23301
0.23301
0.23301
0.23301
0.23301
0.23301
0.23301
0.23301
0.23301
0.23301
0.23301
0.23301
0.23301
0.23301
0.23301
0.23301
0.23301
0.23301
0.23301
0.23301
0.23301
0.23301
0.23301
0.23301
0.23301
0.23301
0.23301
0.23301
0.23301
0.23301
0.23301
0.23301
0.23301
0.23301
0.23301
0.23301
0.23301
0.23301
0.23301
0.23301
0.23301
0.23301
0.23301
0.23301
0.23301
0.23301
0.23301
0.23301
0.23301
0.23301
0.23301
0.23301
0.23301
0.23301
0.23301
0.23301
0.23301
0.23301
0.23301
0.23301
0.23301
0.23301
0.23301
0.23301
0.23301
0.23301
0.23301
0.23301
0.23301
0.23301
0.23301
0.23301
0.23301
0.23301
0.23301
0.23301
0.23301
0.23301
0.23301
0.23301
0.23301
0.23301
0.23301
0.23301
0.23301
0.23301
0.23301
0.23301
0.23301
0.23301
0.23301
0.23301
0.23301
0.23301
0.23301
0.23301
0.23301
0.23301
0.23301
0.23301
0.23301
0.23301
0.23301
0.23301
0.23301
0.23301
0.23301
0.23301
0.23301
0.23301
0.23301
0.23301
0.23301
0.23301
0.23301
0.23301
0.23301
0.23301
0.23301
0.23301
0.23301
0.23301
0.23301
0.23301
0.23301
0.23301
0.23301
0.23301
0.23301
0.23301
0.23301
0.23301
0.23301
0.23301
0.23301
0.23301
0.23301
0.23301
0.23301
0.23301
0.23301
0.23301
0.23301
0.23301
0.23301
0.23301
0.23301
0.23301
0.23301
0.23301
0.23301
0.23301
0.23301
0.23301
0.23301
0.23301
0.23301
0.23301
0.23301
0.23301
0.23301
0.23301
0.23301
0.23301
0.23301
0.23301
0.23301
0.23301
0.23301
0.23301
0.23301
0.23301
0.23301
0.23301
0.23301
0.23301
0.23301
0.23301
0.23301
0.23301
0.23301
0.23301
0.23301
0.23301
0.23301
0.23301
0.23301
0.23301
0.23301
0.23301
0.23301
0.23301
0.23301
0.23301
0.23301
0.23301
0.23301
0.23301
0.23301
0.23301
0.23301
0.23301
0.23301
0.23301
0.23301
0.23301
0.23301
0.23301
0.23301
0.23301
0.23301
0.23301
0.23301
0.23301
0.23301
0.23301
0.23301
0.23301
0.23301
0.23301
0.23301
0.23301
0.23301
0.23301
0.23301
0.23301
0.23301
0.23301
0.23301
0.23301
0.23301
0.23301
0.23301
0.23301
0.23301
0.23301
0.23301
0.23301
0.23301
0.23301
0.23301
0.23301
0.23301
0.23301
0.23301
0.23301
0.23301
0.23301
0.23301
0.23301
0.23301
0.23301
0.23301
0.23301
0.23301
0.23301
0.23301
0.23301
0.23301
0.23301
0.23301
0.23301
0.23301
0.23301
0.23301
0.23301
0.23301
0.23301
0.23301
0.23301
0.23301
0.23301
0.23301
0.23301
0.23301
0.23301
0.23301
0.23301
0.23301
0.23301
0.23301
0.23301
0.23301
0.23301
0.23301
0.23301
0.23301
0.23301
0.23301
0.23301
0.23301
0.23301
0.23301
0.23301
0.23301
0.23301
0.23301
0.23301
0.23301
0.23301
0.23301
0.23301
0.23301
0.23301
0.23301
0.23301
0.23301
0.23301
0.23301
0.23301
0.23301
0.23301
0.23301
0.23301
0.23301
0.23301
0.23301
0.23301
0.23301
0.23301
0.23301
0.23301
0.23301
0.23301
0.23301
0.23301
0.23301
0.23301
0.23301
0.23301
0.23301
0.23301
0.23301
0.23301
0.23301
0.23301
0.23301
0.23301
0.23301
0.23301
0.23301
0.23301
0.23301
0.23301
0.23301
0.23301
0.23301
0.23301
0.23301
0.23301
0.23301
0.23301
0.23301
0.23301
0.23301
0.23301
0.23301
0.23301
0.23301
0.23301
0.23301
0.23301
0.23301
0.23301
0.23301
0.23301
0.23301
0.23301
0.23301
0.23301
0.23301
0.23301
0.23301
0.23301
0.23301
0.23301
0.23301
0.23301
0.23301
0.23301
0.23301
0.23301
0.23301
0.23301
0.23301
0.23301
0.23301
0.23301
0.23301
0.23301
0.23301
0.23301
0.23301
0.23301
0.23301
0.23301
0.23301
0.23301
0.23301
0.23301
0.23301
0.23301
0.23301
0.23301
0.23301
0.23301
0.23301
0.23301
0.23301
0.23301
0.23301
0.23301
0.23301
0.23301
0.23301
0.23301
0.23301
0.23301
0.23301
0.23301
0.23301
0.23301
0.23301
0.23301
0.23301
0.23301
0.23301
0.23301
0.23301
0.23301
0.23301
0.233009
0.233009
0.233008
0.233009
0.233007
0.233009
0.233007
0.233009
0.233008
0.23301
0.233009
0.23301
0.23301
0.23301
0.23301
0.23301
0.23301
0.23301
0.23301
0.23301
0.23301
0.23301
0.23301
0.23301
0.23301
0.23301
0.23301
0.23301
0.23301
0.23301
0.23301
0.23301
0.23301
0.23301
0.23301
0.23301
0.23301
0.23301
0.23301
0.23301
0.23301
0.23301
0.23301
0.23301
0.23301
0.23301
0.23301
0.23301
0.23301
0.23301
0.23301
0.23301
0.23301
0.23301
0.23301
0.233009
0.233008
0.233006
0.233003
0.233003
0.232995
0.233002
0.232989
0.233003
0.232989
0.233006
0.232995
0.233009
0.233003
0.233008
0.23301
0.233008
0.233008
0.23301
0.23301
0.23301
0.23301
0.23301
0.23301
0.23301
0.23301
0.23301
0.23301
0.23301
0.23301
0.23301
0.23301
0.23301
0.23301
0.23301
0.23301
0.23301
0.23301
0.23301
0.23301
0.23301
0.23301
0.23301
0.23301
0.23301
0.23301
0.23301
0.23301
0.23301
0.23301
0.23301
0.23301
0.23301
0.23301
0.23301
0.23301
0.23301
0.233007
0.233007
0.232998
0.232992
0.232979
0.232957
0.232961
0.232909
0.232954
0.232877
0.232963
0.232883
0.232984
0.232924
0.233
0.23297
0.232998
0.233009
0.232997
0.232999
0.23301
0.233009
0.23301
0.23301
0.23301
0.23301
0.23301
0.23301
0.23301
0.23301
0.23301
0.23301
0.23301
0.23301
0.23301
0.23301
0.23301
0.23301
0.23301
0.23301
0.23301
0.23301
0.23301
0.23301
0.23301
0.23301
0.23301
0.23301
0.23301
0.23301
0.23301
0.23301
0.23301
0.23301
0.23301
0.23301
0.23301
0.233007
0.233007
0.233006
0.233006
0.232987
0.232981
0.232929
0.232897
0.232832
0.232734
0.23274
0.232541
0.232709
0.232411
0.232764
0.232429
0.232869
0.232602
0.232955
0.232807
0.232945
0.233002
0.232944
0.232954
0.23301
0.233005
0.23301
0.23301
0.23301
0.23301
0.23301
0.23301
0.23301
0.23301
0.23301
0.23301
0.23301
0.23301
0.23301
0.23301
0.23301
0.23301
0.23301
0.23301
0.23301
0.23301
0.23301
0.23301
0.23301
0.23301
0.23301
0.23301
0.23301
0.23301
0.23301
0.23301
0.23301
0.23301
0.23301
0.23301
0.23301
0.233008
0.233009
0.23298
0.232983
0.232978
0.232978
0.232867
0.232839
0.232623
0.232509
0.232294
0.232028
0.232019
0.231569
0.231906
0.231287
0.232039
0.231284
0.232408
0.231604
0.23275
0.232215
0.232717
0.232971
0.232725
0.232773
0.233008
0.232988
0.23301
0.233009
0.23301
0.23301
0.23301
0.23301
0.23301
0.23301
0.23301
0.23301
0.23301
0.23301
0.23301
0.23301
0.23301
0.23301
0.23301
0.23301
0.23301
0.23301
0.23301
0.23301
0.23301
0.23301
0.23301
0.23301
0.23301
0.23301
0.23301
0.23301
0.23301
0.23301
0.23301
0.23301
0.23301
0.233009
0.23301
0.232989
0.232995
0.232817
0.232828
0.232817
0.232813
0.232403
0.232312
0.231763
0.231521
0.231108
0.230676
0.230639
0.229999
0.230449
0.22962
0.230615
0.229607
0.231167
0.22999
0.232064
0.230792
0.232003
0.232846
0.232051
0.2322
0.233001
0.23292
0.23301
0.233008
0.23301
0.23301
0.23301
0.23301
0.23301
0.23301
0.23301
0.23301
0.23301
0.23301
0.23301
0.23301
0.23301
0.23301
0.23301
0.23301
0.23301
0.23301
0.23301
0.23301
0.23301
0.23301
0.23301
0.23301
0.23301
0.23301
0.23301
0.23301
0.23301
0.23301
0.23301
0.23301
0.23301
0.233007
0.232999
0.233002
0.232851
0.232879
0.23222
0.232242
0.232241
0.232213
0.231312
0.231149
0.230291
0.229969
0.229424
0.228929
0.228863
0.228163
0.22865
0.227775
0.228831
0.227772
0.229448
0.228179
0.230532
0.229019
0.230445
0.232437
0.230552
0.230898
0.232973
0.232689
0.23301
0.233002
0.23301
0.23301
0.23301
0.23301
0.23301
0.23301
0.23301
0.23301
0.23301
0.23301
0.23301
0.23301
0.23301
0.23301
0.23301
0.23301
0.23301
0.23301
0.23301
0.23301
0.23301
0.23301
0.23301
0.23301
0.23301
0.23301
0.23301
0.23301
0.23301
0.23301
0.23301
0.23301
0.233009
0.232952
0.232965
0.232908
0.232934
0.232293
0.232364
0.231005
0.231046
0.231033
0.230993
0.229711
0.229532
0.228518
0.228209
0.227635
0.227296
0.227125
0.2268
0.226922
0.226506
0.227078
0.226382
0.227679
0.226583
0.228756
0.227329
0.228674
0.231472
0.228802
0.229166
0.232878
0.232076
0.233009
0.232977
0.23301
0.23301
0.23301
0.23301
0.23301
0.23301
0.23301
0.23301
0.23301
0.23301
0.23301
0.23301
0.23301
0.23301
0.23301
0.23301
0.23301
0.23301
0.23301
0.23301
0.23301
0.23301
0.23301
0.23301
0.23301
0.233009
0.233009
0.233009
0.233009
0.233009
0.23301
0.233009
0.232978
0.232992
0.232629
0.232707
0.23245
0.232536
0.231132
0.231252
0.229433
0.229501
0.229419
0.229406
0.227997
0.227874
0.227118
0.227023
0.226657
0.226629
0.226352
0.226378
0.226114
0.226127
0.226
0.225863
0.226253
0.225734
0.227134
0.22605
0.227089
0.229819
0.227232
0.227497
0.228531
0.232546
0.230702
0.233005
0.232838
0.23301
0.23301
0.23301
0.23301
0.23301
0.23301
0.23301
0.23301
0.23301
0.23301
0.23301
0.23301
0.23301
0.23301
0.23301
0.23301
0.23301
0.23301
0.23301
0.23301
0.23301
0.23301
0.23301
0.233009
0.233006
0.233003
0.233002
0.233004
0.233007
0.233008
0.233008
0.232966
0.232791
0.232831
0.231741
0.231925
0.231396
0.231556
0.229631
0.229792
0.227895
0.227991
0.227832
0.227847
0.226984
0.226981
0.22665
0.226676
0.226429
0.226524
0.226209
0.226382
0.22594
0.22615
0.225663
0.225819
0.22553
0.225492
0.225926
0.225408
0.225626
0.226514
0.225944
0.227789
0.229183
0.227988
0.226713
0.226017
0.226025
0.226841
0.23162
0.228374
0.228659
0.230007
0.232863
0.232007
0.23301
0.23301
0.23301
0.23301
0.23301
0.23301
0.23301
0.23301
0.23301
0.23301
0.23301
0.23301
0.23301
0.23301
0.23301
0.23301
0.23301
0.23301
0.23301
0.23301
0.23301
0.233009
0.233004
0.232989
0.232964
0.232956
0.232972
0.23299
0.233
0.233004
0.232974
0.232428
0.232648
0.232126
0.232298
0.230446
0.230692
0.229985
0.2302
0.228131
0.228302
0.227052
0.227104
0.226991
0.227014
0.226706
0.226726
0.226605
0.226645
0.226595
0.226691
0.226518
0.226769
0.226209
0.226701
0.225615
0.225804
0.226037
0.226353
0.225341
0.225385
0.22576
0.225749
0.225501
0.225382
0.225573
0.225308
0.225279
0.22556
0.227016
0.227254
0.226115
0.225583
0.225556
0.226223
0.229023
0.230662
0.229216
0.227502
0.22775
0.230212
0.229272
0.228913
0.230033
0.23301
0.23301
0.23301
0.23301
0.23301
0.23301
0.23301
0.23301
0.23301
0.23301
0.23301
0.23301
0.23301
0.23301
0.23301
0.23301
0.23301
0.23301
0.23301
0.23301
0.233007
0.23299
0.232931
0.232814
0.232749
0.232798
0.23289
0.232956
0.232991
0.232976
0.232407
0.23152
0.231645
0.230971
0.231202
0.229
0.229282
0.228507
0.228734
0.227175
0.227268
0.22677
0.226791
0.22674
0.226754
0.226655
0.226645
0.226677
0.226608
0.226777
0.226629
0.226926
0.226799
0.226627
0.226896
0.227013
0.227015
0.226046
0.226376
0.226714
0.225309
0.225442
0.226055
0.226046
0.225694
0.225223
0.22528
0.22517
0.225251
0.225255
0.226372
0.226542
0.225637
0.225245
0.225254
0.225715
0.227909
0.227858
0.226715
0.226837
0.226386
0.232333
0.227885
0.227393
0.226431
0.23301
0.23301
0.23301
0.23301
0.23301
0.23301
0.23301
0.23301
0.23301
0.23301
0.23301
0.23301
0.23301
0.23301
0.23301
0.23301
0.23301
0.23301
0.233009
0.233005
0.232968
0.232818
0.232502
0.232227
0.232231
0.232513
0.232788
0.232935
0.23296
0.232606
0.230822
0.231307
0.230228
0.230502
0.229599
0.229893
0.227747
0.227973
0.227393
0.22755
0.226817
0.226852
0.226635
0.226651
0.226632
0.226629
0.226487
0.226361
0.226311
0.225893
0.226331
0.225582
0.226896
0.226618
0.22624
0.225717
0.226976
0.227091
0.227054
0.226849
0.226416
0.226775
0.227044
0.225391
0.225659
0.226442
0.226454
0.22603
0.225195
0.225129
0.225144
0.225342
0.225094
0.225813
0.225918
0.225279
0.225069
0.225054
0.225318
0.226819
0.226496
0.226
0.226005
0.225986
0.231954
0.228045
0.225834
0.225341
0.23301
0.23301
0.23301
0.23301
0.23301
0.23301
0.23301
0.23301
0.23301
0.23301
0.23301
0.23301
0.23301
0.23301
0.23301
0.23301
0.23301
0.233009
0.233003
0.23295
0.232708
0.232179
0.231656
0.231497
0.231771
0.232312
0.232759
0.232899
0.232652
0.230905
0.229553
0.229619
0.228854
0.22911
0.228247
0.228519
0.227042
0.227154
0.226895
0.226955
0.226678
0.226712
0.226294
0.226356
0.226278
0.226266
0.225511
0.225234
0.22472
0.223914
0.225183
0.224538
0.223982
0.223374
0.226476
0.225954
0.225318
0.224611
0.227123
0.22705
0.226763
0.226286
0.226822
0.227086
0.22715
0.225624
0.226013
0.226852
0.226869
0.226459
0.225293
0.225097
0.225243
0.225584
0.225054
0.225363
0.2254
0.225046
0.225016
0.22498
0.225043
0.225844
0.225463
0.225398
0.22531
0.225839
0.23088
0.226988
0.225027
0.224964
0.23301
0.23301
0.23301
0.23301
0.23301
0.23301
0.23301
0.23301
0.23301
0.23301
0.23301
0.23301
0.23301
0.23301
0.23301
0.23301
0.233009
0.233003
0.232942
0.232636
0.231923
0.23116
0.230795
0.230945
0.231543
0.232325
0.232734
0.232621
0.231288
0.228668
0.229198
0.228184
0.228448
0.227692
0.227898
0.227305
0.227473
0.226816
0.226856
0.226746
0.22678
0.226455
0.226562
0.2253
0.225528
0.225127
0.225171
0.223357
0.223112
0.2221
0.221747
0.22389
0.2232
0.222583
0.222062
0.225642
0.224878
0.224058
0.223253
0.227023
0.226662
0.226091
0.225336
0.22711
0.227155
0.226984
0.22599
0.226454
0.227121
0.22712
0.226877
0.225537
0.225192
0.225485
0.225957
0.22514
0.225037
0.225009
0.224945
0.225088
0.225032
0.224904
0.225099
0.224806
0.224938
0.224799
0.225372
0.229788
0.226815
0.224597
0.224658
0.23301
0.23301
0.23301
0.23301
0.23301
0.23301
0.23301
0.23301
0.23301
0.23301
0.23301
0.23301
0.23301
0.23301
0.23301
0.23301
0.233005
0.232946
0.232616
0.231776
0.230784
0.230208
0.230156
0.230624
0.231522
0.23237
0.232478
0.231329
0.228697
0.227671
0.22763
0.227297
0.227428
0.22706
0.227153
0.22691
0.226972
0.226824
0.226876
0.226664
0.226752
0.225821
0.226123
0.223654
0.224079
0.223186
0.223356
0.221877
0.222192
0.221163
0.22119
0.221487
0.2213
0.222523
0.221907
0.221438
0.22119
0.224465
0.22356
0.222707
0.221974
0.226561
0.225905
0.225059
0.224104
0.227149
0.226946
0.226466
0.226437
0.226873
0.227133
0.22711
0.227106
0.225912
0.225429
0.225858
0.226406
0.225366
0.224848
0.224767
0.22497
0.225296
0.225214
0.224894
0.224601
0.224401
0.224647
0.224486
0.225273
0.232416
0.22922
0.22431
0.224534
0.23301
0.23301
0.23301
0.23301
0.23301
0.23301
0.23301
0.23301
0.23301
0.23301
0.23301
0.23301
0.23301
0.23301
0.23301
0.233007
0.232958
0.232633
0.231746
0.23058
0.229864
0.229627
0.229769
0.230426
0.231517
0.232083
0.231209
0.228806
0.22716
0.227355
0.227065
0.22709
0.22698
0.227004
0.226949
0.226962
0.226913
0.226933
0.226873
0.227039
0.226408
0.226659
0.224626
0.225229
0.223017
0.22327
0.222497
0.222777
0.221701
0.221974
0.222654
0.221006
0.22116
0.221756
0.221399
0.221394
0.221035
0.220897
0.220899
0.223141
0.222266
0.221548
0.221031
0.22574
0.224819
0.223803
0.222802
0.226897
0.226386
0.2256
0.226856
0.227085
0.226862
0.226837
0.227084
0.226362
0.225795
0.226307
0.226826
0.22572
0.224795
0.224665
0.225119
0.22563
0.225523
0.225005
0.224306
0.224159
0.2245
0.224313
0.226017
0.232677
0.22995
0.224157
0.224664
0.23301
0.23301
0.23301
0.23301
0.23301
0.23301
0.23301
0.23301
0.23301
0.23301
0.23301
0.23301
0.23301
0.23301
0.233008
0.232979
0.232704
0.231788
0.230539
0.229777
0.229445
0.229315
0.229478
0.230133
0.231029
0.230768
0.228741
0.227057
0.226883
0.226794
0.226986
0.226924
0.227111
0.227044
0.227206
0.227173
0.227152
0.227205
0.226843
0.227254
0.225813
0.226356
0.223603
0.224154
0.223377
0.223357
0.223118
0.223335
0.222171
0.222621
0.223921
0.224393
0.221077
0.221418
0.222375
0.221859
0.22078
0.220707
0.220751
0.220869
0.221922
0.221232
0.220787
0.220603
0.22462
0.223556
0.222532
0.221657
0.226321
0.22549
0.224457
0.227057
0.227058
0.226279
0.226252
0.226817
0.226784
0.226239
0.226732
0.227025
0.226152
0.224866
0.224691
0.225395
0.226046
0.225916
0.225235
0.224132
0.22402
0.224476
0.224246
0.226604
0.232574
0.22978
0.224109
0.224817
0.23301
0.23301
0.23301
0.23301
0.23301
0.23301
0.23301
0.23301
0.23301
0.23301
0.23301
0.23301
0.23301
0.233009
0.232994
0.232804
0.231948
0.230602
0.229847
0.229494
0.229288
0.229128
0.229112
0.229438
0.229567
0.228429
0.22698
0.226731
0.226672
0.226933
0.226798
0.227216
0.227059
0.227562
0.227386
0.227734
0.227694
0.227552
0.227708
0.226716
0.227515
0.224948
0.225834
0.223431
0.223707
0.224841
0.224357
0.224623
0.224776
0.22515
0.222929
0.223472
0.224931
0.225321
0.221398
0.221868
0.223063
0.222427
0.220573
0.220628
0.220769
0.221028
0.220998
0.220618
0.220477
0.220464
0.223355
0.222315
0.22145
0.220818
0.225404
0.224328
0.223188
0.227031
0.226802
0.225343
0.225302
0.226237
0.22699
0.226666
0.226952
0.227008
0.226581
0.225041
0.224804
0.225752
0.226473
0.226331
0.225542
0.224036
0.223938
0.224533
0.224246
0.226698
0.232441
0.229342
0.224088
0.224867
0.23301
0.23301
0.23301
0.23301
0.23301
0.23301
0.23301
0.23301
0.23301
0.23301
0.23301
0.23301
0.23301
0.233002
0.232887
0.232199
0.230803
0.230034
0.229711
0.22946
0.229208
0.22889
0.228563
0.228255
0.227605
0.226795
0.226577
0.226826
0.226736
0.227171
0.226974
0.227661
0.227399
0.228207
0.227936
0.228468
0.228408
0.228107
0.228415
0.226659
0.227916
0.224321
0.225364
0.223947
0.223899
0.225844
0.225525
0.225262
0.22557
0.225672
0.226048
0.22624
0.223732
0.224374
0.225756
0.226119
0.221758
0.222317
0.223723
0.222979
0.220531
0.220673
0.220934
0.221296
0.220492
0.220379
0.220371
0.22044
0.222136
0.221279
0.220682
0.220397
0.224225
0.223053
0.221982
0.226795
0.226239
0.224148
0.224088
0.225284
0.226988
0.226912
0.226974
0.226799
0.226864
0.225286
0.224985
0.226135
0.226802
0.226688
0.225872
0.223986
0.223883
0.224641
0.224276
0.226514
0.230843
0.228081
0.224052
0.224827
0.23301
0.23301
0.23301
0.23301
0.23301
0.23301
0.23301
0.23301
0.23301
0.23301
0.23301
0.23301
0.233006
0.232946
0.232451
0.231139
0.230232
0.229998
0.230051
0.229805
0.229194
0.228559
0.227927
0.227307
0.226759
0.22659
0.226945
0.22688
0.227134
0.227004
0.227572
0.227328
0.228192
0.227861
0.228919
0.228552
0.229352
0.229234
0.228853
0.229302
0.226893
0.228562
0.224238
0.225269
0.224681
0.224396
0.226134
0.225842
0.225699
0.225381
0.226284
0.226314
0.226391
0.22661
0.224494
0.225204
0.226451
0.226723
0.222082
0.222719
0.224307
0.223469
0.220582
0.220836
0.221154
0.221566
0.220301
0.22029
0.220358
0.220491
0.221136
0.220567
0.220317
0.220234
0.222938
0.22185
0.221006
0.226265
0.225297
0.222839
0.22275
0.224061
0.22681
0.226964
0.226839
0.226313
0.226954
0.225551
0.225179
0.226476
0.226943
0.226878
0.226159
0.223956
0.223826
0.224758
0.224314
0.226238
0.231122
0.228393
0.223993
0.224739
0.23301
0.23301
0.23301
0.23301
0.23301
0.23301
0.23301
0.23301
0.23301
0.23301
0.23301
0.233008
0.232981
0.232665
0.231527
0.230435
0.230195
0.230561
0.230939
0.230502
0.229346
0.228285
0.227506
0.226924
0.226793
0.227393
0.227517
0.22757
0.227669
0.227549
0.22812
0.227862
0.228805
0.228436
0.229656
0.229216
0.230315
0.230085
0.229785
0.230308
0.227497
0.229415
0.224657
0.225699
0.22516
0.225011
0.225037
0.226287
0.225997
0.225844
0.22559
0.226794
0.226758
0.226572
0.226836
0.225162
0.225924
0.226972
0.227143
0.222459
0.223178
0.224901
0.224008
0.220718
0.221005
0.221383
0.221862
0.220223
0.220264
0.220407
0.220611
0.220469
0.220242
0.220166
0.220145
0.221721
0.220879
0.22038
0.225348
0.22406
0.22159
0.221426
0.22267
0.226384
0.226893
0.226515
0.22543
0.22695
0.225779
0.225344
0.226694
0.226972
0.22692
0.226354
0.223916
0.223753
0.224854
0.224318
0.226297
0.232728
0.230239
0.223913
0.224699
0.23301
0.23301
0.23301
0.23301
0.23301
0.23301
0.23301
0.23301
0.23301
0.23301
0.233009
0.232997
0.232818
0.231918
0.230681
0.230326
0.230776
0.23161
0.2318
0.231138
0.22981
0.228507
0.227688
0.227516
0.228077
0.229682
0.228395
0.228427
0.228475
0.228394
0.228889
0.228643
0.22958
0.229204
0.230482
0.23001
0.23128
0.230955
0.230796
0.231325
0.228256
0.230136
0.225358
0.226464
0.225377
0.225206
0.225657
0.225548
0.226406
0.226116
0.226035
0.225813
0.227156
0.227044
0.226707
0.227002
0.225768
0.226494
0.227391
0.227474
0.222853
0.223652
0.225519
0.224563
0.220874
0.221215
0.221647
0.222186
0.220206
0.220334
0.220516
0.220752
0.220171
0.220095
0.220079
0.220138
0.220725
0.220276
0.220091
0.224102
0.222618
0.220574
0.220478
0.221277
0.225637
0.226705
0.226001
0.224336
0.226858
0.225936
0.225447
0.226753
0.226926
0.22687
0.226432
0.223846
0.223666
0.224873
0.224269
0.226832
0.232935
0.23162
0.223825
0.224741
0.23301
0.23301
0.23301
0.23301
0.23301
0.23301
0.23301
0.23301
0.23301
0.23301
0.233003
0.23291
0.232259
0.230998
0.230444
0.230789
0.231767
0.232359
0.232265
0.231595
0.230608
0.229719
0.229347
0.229705
0.230939
0.231781
0.229939
0.231892
0.229674
0.229626
0.229599
0.229961
0.229749
0.230608
0.230251
0.231477
0.231022
0.232108
0.231892
0.231453
0.231996
0.228674
0.230334
0.226164
0.227169
0.22564
0.225559
0.225962
0.225894
0.226582
0.226293
0.226318
0.226113
0.227441
0.227262
0.226894
0.227207
0.226399
0.227064
0.227806
0.227831
0.223253
0.224128
0.226129
0.225117
0.221057
0.221442
0.221924
0.22252
0.220265
0.220431
0.220648
0.220917
0.220028
0.220012
0.220078
0.2202
0.220166
0.220014
0.219959
0.222781
0.221282
0.220081
0.220012
0.220405
0.224821
0.226386
0.225378
0.223203
0.226647
0.22598
0.225433
0.226669
0.226762
0.226681
0.226325
0.223762
0.223553
0.224807
0.224158
0.227731
0.233
0.232578
0.223722
0.224924
0.23301
0.23301
0.23301
0.23301
0.23301
0.23301
0.23301
0.23301
0.23301
0.233006
0.232956
0.232514
0.231366
0.230582
0.230759
0.231734
0.232453
0.232698
0.23254
0.232087
0.231588
0.231292
0.231432
0.232052
0.232664
0.231489
0.232686
0.232755
0.231234
0.231101
0.231115
0.231343
0.231181
0.231873
0.231581
0.232431
0.232188
0.232466
0.232537
0.231589
0.232207
0.228641
0.22989
0.226563
0.226885
0.227577
0.225965
0.225904
0.226379
0.226319
0.226858
0.22657
0.226715
0.226518
0.227727
0.227501
0.227173
0.227497
0.227016
0.227611
0.228239
0.228228
0.22364
0.224586
0.22673
0.225655
0.221256
0.221676
0.222202
0.222849
0.220357
0.220549
0.220794
0.221092
0.219951
0.220022
0.220144
0.220282
0.219963
0.21989
0.219889
0.221391
0.220377
0.219915
0.219903
0.220034
0.223762
0.225842
0.224304
0.221613
0.226186
0.225835
0.225166
0.226421
0.226271
0.226146
0.225978
0.223605
0.223406
0.224574
0.223974
0.229451
0.233006
0.232813
0.223632
0.225328
0.23301
0.23301
0.23301
0.23301
0.23301
0.23301
0.23301
0.23301
0.233007
0.232973
0.232671
0.231705
0.230765
0.230699
0.231566
0.232392
0.232755
0.23286
0.232749
0.232571
0.232435
0.23247
0.232694
0.232898
0.232996
0.232571
0.232966
0.232976
0.232462
0.232407
0.23241
0.232515
0.232444
0.232705
0.23261
0.232777
0.232777
0.232499
0.232702
0.23113
0.232028
0.228505
0.229306
0.226929
0.227146
0.227974
0.227673
0.226389
0.226332
0.226823
0.226816
0.227254
0.226964
0.227252
0.22705
0.228079
0.227811
0.227574
0.227904
0.227639
0.228117
0.228716
0.228687
0.223982
0.224987
0.227293
0.226141
0.221456
0.2219
0.222458
0.223144
0.220463
0.220679
0.22094
0.221257
0.219958
0.220086
0.220222
0.220383
0.219826
0.219812
0.219877
0.220446
0.220153
0.219755
0.219661
0.219818
0.222005
0.224862
0.222548
0.220716
0.225085
0.225238
0.224688
0.225731
0.225147
0.224869
0.225056
0.223416
0.223242
0.224185
0.223668
0.230453
0.232947
0.232683
0.223603
0.225606
0.23301
0.23301
0.23301
0.23301
0.23301
0.23301
0.23301
0.233007
0.232977
0.232745
0.231965
0.230988
0.230689
0.231306
0.232159
0.232679
0.232908
0.232945
0.232907
0.232866
0.232872
0.232934
0.232985
0.233006
0.23301
0.233008
0.232947
0.233006
0.232929
0.232913
0.232917
0.232927
0.232918
0.23293
0.232936
0.232815
0.232901
0.23206
0.232585
0.230139
0.231139
0.228203
0.228702
0.228892
0.229296
0.227391
0.227485
0.228064
0.226911
0.226844
0.227392
0.227419
0.227796
0.227504
0.227948
0.227734
0.228502
0.228229
0.228118
0.228452
0.228245
0.228636
0.229247
0.229217
0.2242
0.225229
0.227705
0.22642
0.22164
0.222091
0.222658
0.223364
0.220572
0.220798
0.221062
0.221386
0.220013
0.220176
0.220334
0.220506
0.219741
0.219799
0.219921
0.220274
0.220048
0.219587
0.21954
0.219855
0.221118
0.223017
0.22164
0.220649
0.223518
0.224617
0.224193
0.224573
0.223622
0.223629
0.224449
0.223184
0.223108
0.223723
0.223307
0.230055
0.232938
0.23219
0.223568
0.225456
0.23301
0.23301
0.23301
0.23301
0.23301
0.23301
0.233006
0.232975
0.232764
0.232132
0.231208
0.230713
0.231098
0.231862
0.232464
0.232869
0.232976
0.232988
0.232981
0.232982
0.232995
0.233006
0.233009
0.23301
0.23301
0.23301
0.23301
0.23301
0.233004
0.233009
0.233002
0.232998
0.233
0.23299
0.232995
0.232946
0.232979
0.232588
0.232852
0.231222
0.232024
0.229837
0.230473
0.228639
0.229254
0.229259
0.230066
0.228041
0.228013
0.228669
0.227572
0.227472
0.228098
0.228163
0.228495
0.228203
0.228792
0.228571
0.229039
0.228767
0.22881
0.22914
0.228791
0.229176
0.229821
0.229807
0.224261
0.225295
0.227839
0.226493
0.22177
0.222226
0.222746
0.223456
0.220689
0.220899
0.221135
0.221432
0.220097
0.220251
0.220469
0.220586
0.219623
0.219654
0.219736
0.220409
0.219485
0.219468
0.219447
0.219455
0.221233
0.222279
0.221853
0.220864
0.222804
0.224091
0.22369
0.223988
0.223327
0.223713
0.223821
0.223005
0.222992
0.223351
0.223048
0.22879
0.232851
0.231207
0.223505
0.225057
0.23301
0.23301
0.23301
0.23301
0.23301
0.233005
0.232967
0.232758
0.232214
0.231389
0.230797
0.230963
0.23161
0.232246
0.232756
0.232971
0.233001
0.233004
0.233005
0.233007
0.233009
0.23301
0.23301
0.23301
0.23301
0.23301
0.233009
0.23301
0.233009
0.233008
0.233005
0.233007
0.232989
0.233
0.232868
0.232955
0.232239
0.232657
0.231003
0.231645
0.230128