/*--------------------------------*- C++ -*----------------------------------*\
  =========                 |
  \\      /  F ield         | OpenFOAM: The Open Source CFD Toolbox
   \\    /   O peration     | Website:  https://openfoam.org
    \\  /    A nd           | Version:  dev
     \\/     M anipulation  |
\*---------------------------------------------------------------------------*/
FoamFile
{
    version     2.0;
    format      ascii;
    class       volScalarField;
    location    "2500";
    object      omega;
}
// * * * * * * * * * * * * * * * * * * * * * * * * * * * * * * * * * * * * * //

dimensions      [0 0 -1 0 0 0 0];

internalField   nonuniform List<scalar> 
9836
(
1.24323
1.25975
1.21084
1.17725
1.35558
1.10117
1.07797
1.36669
1.29396
1.03182
1.03257
1.33031
1.3639
1.16136
1.01419
1.00999
1.238
1.38839
1.29391
1.06862
1.00825
0.99836
1.12942
1.37739
1.36129
1.16274
1.03149
1.00402
0.98727
1.06271
1.33636
1.38409
1.26914
1.07439
1.01468
1.00129
0.980516
1.02061
1.25001
1.38701
1.34095
1.14623
1.03396
1.00519
0.999177
0.976795
0.994503
1.15137
1.37249
1.3719
1.23406
1.06769
1.01302
0.999305
0.997666
0.975879
0.97977
1.07169
1.33217
1.38165
1.30929
1.12326
1.02913
1.00094
0.993482
0.996843
0.977141
0.969786
1.02245
1.2569
1.38063
1.35082
1.1941
1.05601
1.00641
0.992572
0.990196
0.996058
0.978652
0.961705
0.991636
1.16246
1.36728
1.36927
1.2658
1.09727
1.01987
0.993692
0.985299
0.988136
0.995363
0.979911
0.955882
0.972524
1.07704
1.33083
1.37572
1.31982
1.15606
1.04032
0.998212
0.984384
0.980656
0.986315
0.99485
0.980503
0.951616
0.96017
1.02504
1.26408
1.37478
1.34951
1.21901
1.07278
1.00875
0.985352
0.976133
0.977401
0.98497
0.994456
0.980353
0.949667
0.951784
0.990418
1.17516
1.36359
1.36432
1.27672
1.1188
1.02482
0.988963
0.975426
0.970462
0.975031
0.983966
0.994109
0.979999
0.949712
0.944781
0.968549
1.08509
1.33162
1.37115
1.32003
1.1758
1.04858
0.997158
0.976207
0.966584
0.966427
0.973306
0.98313
0.993823
0.979781
0.950365
0.939303
0.954665
1.02954
1.27
1.37093
1.34657
1.23035
1.08588
1.00827
0.979038
0.965974
0.960465
0.963571
0.971926
0.982447
0.993611
0.979787
0.950968
0.93518
0.944948
0.993299
1.18464
1.36108
1.36082
1.27953
1.13334
1.02666
0.984526
0.966586
0.957211
0.956092
0.961384
0.970837
0.981954
0.993402
0.979967
0.950936
0.931896
0.937884
0.969525
1.0984
1.33128
1.36721
1.31866
1.1866
1.0547
0.992998
0.968584
0.956303
0.95101
0.952761
0.959675
0.97007
0.981505
0.993186
0.980187
0.950279
0.929715
0.932575
0.953618
1.03854
1.27245
1.36683
1.34335
1.23466
1.09556
1.006
0.972457
0.956673
0.948186
0.946376
0.950111
0.958448
0.969438
0.980989
0.993019
0.980341
0.949616
0.929228
0.928252
0.942875
1.00006
1.19445
1.35721
1.35651
1.2787
1.14224
1.02804
0.977979
0.95782
0.946873
0.941965
0.942613
0.948144
0.957468
0.968797
0.98056
0.992855
0.980333
0.949298
0.929099
0.923805
0.935318
0.974702
1.11191
1.32914
1.3617
1.31479
1.19121
1.05978
0.987266
0.959787
0.946758
0.939239
0.937028
0.939793
0.946612
0.956617
0.968253
0.980159
0.992684
0.98023
0.949363
0.928653
0.920142
0.929033
0.957678
1.0492
1.27386
1.361
1.33794
1.23398
1.10193
1.00251
0.963032
0.946462
0.937572
0.933019
0.933333
0.937624
0.945379
0.955943
0.967719
0.979717
0.992528
0.980113
0.949586
0.927586
0.917432
0.923895
0.945622
1.00956
1.20401
1.3521
1.35039
1.27383
1.14606
1.02838
0.968839
0.946914
0.936443
0.930326
0.928427
0.930465
0.935865
0.944422
0.955285
0.967136
0.979291
0.992389
0.979997
0.949743
0.926565
0.915453
0.919954
0.936665
0.982432
1.12629
1.32787
1.35502
1.30827
1.19024
1.06267
0.980092
0.948387
0.934876
0.928115
0.924653
0.924865
0.928108
0.934461
0.943564
0.954632
0.96656
0.978877
0.99229
0.979894
0.949772
0.925915
0.913985
0.916971
0.929758
0.963565
1.0611
1.27969
1.35503
1.3299
1.2291
1.10393
0.999185
0.951911
0.933427
0.925954
0.921694
0.920306
0.921976
0.926252
0.93333
0.942839
0.953995
0.965978
0.978489
0.992259
0.979826
0.949715
0.925409
0.91271
0.914117
0.924018
0.949693
1.01947
1.21731
1.34885
1.34321
1.26566
1.14468
1.0281
0.959187
0.933833
0.923353
0.918686
0.91652
0.916948
0.919734
0.924856
0.93244
0.942205
0.953348
0.965418
0.978206
0.99232
0.979796
0.949617
0.925003
0.911327
0.910852
0.918713
0.938668
0.989579
1.14413
1.32968
1.34827
1.29838
1.18418
1.06297
0.973763
0.935623
0.920267
0.915524
0.913122
0.912566
0.914383
0.918049
0.923824
0.931779
0.941629
0.952759
0.964942
0.978071
0.992469
0.979764
0.949506
0.92473
0.910099
0.90815
0.914369
0.929654
0.967735
1.07482
1.28926
1.35086
1.32208
1.22013
1.10159
0.995969
0.940242
0.919626
0.91187
0.909383
0.908532
0.909597
0.912476
0.916871
0.923104
0.931346
0.941155
0.952303
0.964542
0.978162
0.992738
0.979718
0.949413
0.924535
0.909056
0.905944
0.910905
0.922667
0.951518
1.02835
1.23247
1.34667
1.33732
1.25571
1.13919
1.02587
0.949889
0.920359
0.907958
0.905392
0.904481
0.905054
0.907464
0.911207
0.916224
0.922776
0.93112
0.940885
0.952004
0.964622
0.978738
0.993156
0.979677
0.94932
0.92437
0.9081
0.904137
0.907773
0.9171
0.938972
0.995413
1.16415
1.33195
1.34343
1.28887
1.17538
1.06004
0.967507
0.923029
0.905966
0.900802
0.899943
0.900562
0.902706
0.906195
0.910674
0.916096
0.92286
0.931224
0.941063
0.952471
0.965674
0.979921
0.99362
0.979662
0.949241
0.924183
0.907205
0.902624
0.904573
0.912178
0.928922
0.971049
1.09419
1.29933
1.34749
1.31378
1.21043
1.09594
0.991984
0.929394
0.906099
0.896081
0.89521
0.89576
0.89778
0.90134
0.905868
0.910837
0.916519
0.923495
0.932092
0.942423
0.954274
0.968112
0.982151
0.994303
0.97965
0.94915
0.92392
0.90635
0.901216
0.901399
0.907601
0.920744
0.952755
1.04082
1.25106
1.34525
1.33119
1.24277
1.13164
1.02228
0.942573
0.907466
0.892972
0.889713
0.890535
0.892687
0.896243
0.901074
0.906427
0.911749
0.917744
0.925175
0.934549
0.945449
0.958285
0.972888
0.985695
0.998417
0.99425
0.979637
0.948957
0.92368
0.905517
0.899904
0.89876
0.903503
0.913956
0.938694
1.00429
1.19025
1.3356
1.33917
1.27775
1.16485
1.05589
0.962896
0.911586
0.892349
0.884142
0.884937
0.88704
0.89088
0.896076
0.901976
0.907975
0.913775
0.920382
0.928741
0.939163
0.951531
0.966522
0.981587
0.990552
0.989683
0.998726
0.99516
0.979597
0.94875
0.923359
0.904752
0.898633
0.896678
0.8995
0.907923
0.927415
0.976883
1.12768
1.31317
1.34447
1.30465
1.19844
1.08979
0.988848
0.921102
0.892893
0.880371
0.878503
0.881122
0.885063
0.890568
0.897272
0.904168
0.910949
0.917619
0.925192
0.935228
0.947885
0.963266
0.977292
0.976111
0.990188
0.982227
0.991913
0.99373
0.994256
0.998722
0.996871
0.979542
0.948571
0.922991
0.90408
0.897248
0.894706
0.895426
0.90224
0.917972
0.955989
1.06666
1.27584
1.34471
1.32323
1.23017
1.12319
1.01916
0.937319
0.895435
0.879011
0.872396
0.87466
0.878578
0.884722
0.891854
0.90007
0.908165
0.916079
0.924082
0.933691
0.946642
0.963348
0.976089
0.976746
0.983949
0.996747
0.99619
1.00262
0.997071
0.999439
0.99906
0.998716
0.979453
0.94833
0.922643
0.903363
0.895694
0.892647
0.89158
0.897293
0.910073
0.940003
1.02296
1.23096
1.34089
1.33477
1.26197
1.15422
1.05147
0.959303
0.902113
0.879145
0.868387
0.867525
0.871959
0.87788
0.886094
0.894958
0.905094
0.914833
0.924186
0.934486
0.947686
0.965196
0.978317
0.981191
0.986572
0.990103
1.00119
1.00683
1.01026
1.01785
1.00026
1.00651
0.999547
1.00005
0.979329
0.947998
0.922126
0.902559
0.893874
0.890621
0.887693
0.892827
0.903518
0.927766
0.991662
1.17528
1.32983
1.33929
1.29251
1.18449
1.08329
0.985909
0.915699
0.880871
0.866774
0.861305
0.864467
0.870745
0.879218
0.889466
0.900672
0.913159
0.92468
0.936433
0.950506
0.969596
0.984456
0.989503
0.994274
0.999453
1.00652
1.01251
1.01879
1.02099
1.03036
1.03791
1.00403
1.01673
0.999831
1.00129
0.979147
0.947562
0.921404
0.901582
0.891727
0.888518
0.883901
0.888457
0.897845
0.918048
0.968134
1.11962
1.30692
1.34598
1.31227
1.21393
1.11352
1.01583
0.934111
0.886354
0.866803
0.8575
0.85684
0.863099
0.871947
0.88263
0.895694
0.91
0.924814
0.93912
0.955319
0.977183
0.994294
1.00175
1.0058
1.01228
1.01946
1.02672
1.02753
1.03751
1.04378
1.03895
1.05685
1.06391
1.00873
1.0303
0.999901
1.00254
0.978895
0.947006
0.920528
0.900292
0.889492
0.885917
0.880496
0.884271
0.89262
0.910087
0.950324
1.06587
1.27365
1.3474
1.32881
1.24355
1.14181
1.04666
0.957722
0.89832
0.86848
0.856163
0.851136
0.854702
0.864213
0.87553
0.889348
0.905948
0.923736
0.941565
0.961474
0.986595
1.00731
1.01682
1.02091
1.02873
1.03608
1.04448
1.04763
1.05916
1.05741
1.07224
1.07641
1.06211
1.09119
1.09781
1.01466
1.04782
0.999824
1.00385
0.978577
0.946384
0.919402
0.898693
0.887149
0.883014
0.877135
0.880016
0.887748
0.903276
0.936649
1.02524
1.23448
1.34475
1.33998
1.27391
1.16865
1.07658
0.985238
0.914987
0.874419
0.856389
0.848248
0.847573
0.85521
0.867747
0.882644
0.900695
0.921604
0.943076
0.967969
0.99733
1.0225
1.03425
1.0398
1.0499
1.05697
1.06754
1.07178
1.08573
1.08735
1.10454
1.09635
1.11689
1.11797
1.09216
1.13496
1.14141
1.0223
1.06998
0.999597
1.00528
0.978212
0.945676
0.91805
0.896672
0.884489
0.880225
0.873621
0.875514
0.882945
0.897202
0.925866
0.996119
1.18668
1.3367
1.34697
1.30189
1.19596
1.10433
1.01491
0.936408
0.88661
0.859005
0.847735
0.84347
0.84717
0.858564
0.875025
0.894985
0.91777
0.942903
0.971921
1.00903
1.03961
1.05167
1.06118
1.07605
1.08491
1.10117
1.10374
1.12619
1.12316
1.14885
1.139
1.16588
1.14583
1.17442
1.17015
1.13134
1.18874
1.19499
1.03202
1.09822
0.999181
1.00683
0.977886
0.944861
0.916446
0.894117
0.881701
0.877133
0.870032
0.870849
0.878004
0.891471
0.917571
0.973912
1.13616
1.31972
1.35681
1.32174
1.22467
1.13023
1.0449
0.961737
0.903052
0.867069
0.849025
0.842543
0.842806
0.850738
0.866353
0.888026
0.913643
0.943256
0.977858
1.01552
1.05619
1.06742
1.08625
1.10541
1.12587
1.1598
1.16312
1.22608
1.19183
1.27709
1.20799
1.30146
1.21035
1.28819
1.20798
1.26029
1.23314
1.18194
1.24719
1.24431
1.0435
1.13855
0.998618
1.00868
0.977821
0.94395
0.914499
0.891042
0.878768
0.873573
0.86615
0.866144
0.873116
0.885699
0.910791
0.957019
1.08576
1.29309
1.36389
1.34071
1.25435
1.1553
1.07326
0.990389
0.923362
0.881135
0.854615
0.843557
0.842202
0.847102
0.859567
0.879796
0.907852
0.942387
0.980372
1.028
1.07443
1.07247
1.11469
1.13554
1.19681
1.25221
1.33046
1.50043
1.4593
1.81073
1.52055
1.99709
1.48824
1.98869
1.39265
1.76614
1.30837
1.51419
1.34608
1.21918
1.36325
1.34884
1.06179
1.1641
0.998065
1.01034
0.978183
0.942772
0.912015
0.88733
0.875281
0.869657
0.8617
0.861522
0.868391
0.880111
0.904159
0.943763
1.04373
1.25952
1.36406
1.35607
1.287
1.18057
1.09961
1.01989
0.948029
0.899319
0.867746
0.848778
0.843826
0.847162
0.858189
0.877714
0.905533
0.93875
0.981211
1.03678
1.1249
1.14216
1.16939
1.30058
1.36357
1.71249
1.98513
2.36129
3.09084
2.92296
4.24126
3.06509
4.92506
2.73964
4.76091
2.1401
3.72368
1.63616
2.55481
1.72695
1.29443
1.75373
1.69031
1.07311
1.19389
0.997958
1.01107
0.978672
0.940793
0.908691
0.882679
0.870559
0.864752
0.85648
0.85695
0.863814
0.874956
0.897302
0.933284
1.01373
1.21749
1.36069
1.36785
1.31725
1.20814
1.12402
1.04911
0.97561
0.921882
0.886016
0.86294
0.850766
0.850165
0.859901
0.879017
0.905858
0.939982
0.984721
1.04313
1.12897
1.43275
1.42026
1.41161
1.43751
2.25974
2.55775
3.91877
4.80572
5.8401
7.48479
7.21057
9.67588
7.66793
10.803
6.90414
10.6911
4.8654
9.16877
2.93737
5.97938
3.18063
1.53616
3.18504
2.91662
1.07598
1.32048
0.99962
1.01307
0.980246
0.939931
0.906288
0.877513
0.863744
0.858014
0.85014
0.852241
0.859376
0.869997
0.890862
0.925382
0.990966
1.16928
1.35075
1.38248
1.34157
1.23861
1.14724
1.0768
1.00506
0.947791
0.909649
0.884971
0.86852
0.860823
0.866639
0.883891
0.910613
0.950791
0.996156
1.04961
1.13122
1.38431
1.35054
2.99383
2.96274
2.79947
2.96699
5.64455
6.43724
9.09336
10.5672
11.912
13.6905
13.3976
15.1711
13.8091
15.5766
13.1742
15.3873
11.1284
14.5518
6.86308
12.4189
7.31039
2.42129
7.08009
6.17958
1.12736
1.84873
1.00732
1.04211
0.979785
0.950078
0.91319
0.877531
0.856941
0.849187
0.842787
0.84743
0.854994
0.865168
0.884399
0.919299
0.973094
1.12127
1.32904
1.39526
1.36574
1.27212
1.17095
1.1016
1.03486
0.976088
0.937524
0.912767
0.895399
0.886439
0.885094
0.898975
0.927557
0.967454
1.00873
1.06286
1.13959
1.31843
1.21305
2.84632
2.66908
7.80006
7.80269
7.08074
7.52442
11.8084
12.8277
14.9974
15.8838
16.2322
16.9105
16.6173
17.221
16.5916
17.289
16.2214
17.1097
15.3528
16.7026
13.0992
15.8059
13.2206
4.79651
12.9368
11.9399
1.38936
3.44785
1.0361
1.1768
0.952876
0.963112
0.944939
0.896502
0.858597
0.843072
0.836066
0.842176
0.850725
0.860699
0.878317
0.913979
0.959353
1.07677
1.29785
1.39925
1.38641
1.30966
1.1972
1.12425
1.06244
1.00572
0.967704
0.945422
0.930945
0.925814
0.928567
0.935403
0.953131
0.985071
1.0322
1.08687
1.15548
1.57592
2.34399
2.28009
7.70362
7.45258
14.4012
14.5144
13.5829
14.0693
16.5026
16.9336
17.3418
17.6183
17.6154
17.8497
17.6889
18.0244
17.6529
18.2021
17.4454
18.1573
17.0113
17.8248
16.1052
17.2681
16.1099
9.91649
15.9548
15.3718
2.32578
7.18478
1.12487
1.70323
0.943318
0.975583
0.951503
0.887896
0.847619
0.834362
0.8372
0.846431
0.856303
0.872695
0.907644
0.949823
1.04285
1.2599
1.39789
1.40269
1.34455
1.22714
1.14581
1.08769
1.03397
0.998425
0.980769
0.975811
0.975786
0.983082
0.990812
1.00311
1.02589
1.07179
1.12616
1.19264
1.43743
5.57108
4.92451
6.96316
6.41138
14.4553
14.2926
17.5386
17.6114
17.2228
17.4118
17.8038
17.9105
18.0068
18.1294
18.3992
18.7791
18.8785
19.6951
19.1582
20.2819
19.0106
20.3891
18.4751
19.8728
17.5773
18.9786
17.8738
14.4096
17.9875
17.9195
4.70766
12.7704
1.33467
3.68328
0.966384
1.01079
0.971468
0.887008
0.843107
0.836904
0.844333
0.852833
0.867304
0.900455
0.943455
1.01856
1.21477
1.39128
1.42065
1.37417
1.26114
1.16707
1.11007
1.06017
1.02701
1.01492
1.01484
1.0265
1.05546
1.09666
1.12907
1.13939
1.15524
1.19821
1.25647
1.48412
4.34264
3.12014
12.7534
12.0573
13.943
13.5739
17.6115
17.5891
17.9592
17.9431
17.9616
17.9713
18.2275
18.2704
19.1618
19.5082
20.521
21.2055
21.5467
22.7301
22.0232
23.581
21.7737
23.7191
20.8476
22.968
19.5574
21.629
20.0562
17.7256
20.3609
20.5615
19.1951
11.0963
17.4029
2.6869
12.183
1.01261
1.05602
0.996272
0.890007
0.846081
0.845373
0.852044
0.86283
0.893189
0.938486
1.00059
1.1679
1.37364
1.4364
1.40277
1.30016
1.19069
1.12952
1.08309
1.05058
1.03885
1.04513
1.07976
1.17593
1.36452
1.53855
1.53053
1.42794
1.37571
1.37903
1.56605
5.18489
10.4416
10.1699
17.2072
16.9787
17.5274
17.4326
17.9417
17.9558
18.0831
17.9177
18.255
18.2039
19.762
19.9078
21.8005
22.2206
23.6198
24.228
24.9209
25.7716
25.4546
26.775
25.2367
27.1344
24.0509
26.4859
22.3151
24.8223
23.431
21.4677
22.795
20.4946
19.1085
20.5994
21.714
23.1597
22.9323
21.8138
19.075
20.5083
20.8594
19.8006
11.7045
32.7902
1.06599
1.10641
1.01439
0.890972
0.854341
0.853283
0.86066
0.885595
0.933858
0.98696
1.12458
1.34463
1.44281
1.42698
1.34294
1.21927
1.14769
1.10258
1.06915
1.05631
1.06954
1.15084
1.46163
2.20633
2.83164
2.98087
2.54318
2.02617
1.73425
1.74257
4.43385
15.0584
12.9709
16.4664
16.0385
17.9759
17.9612
17.9736
17.9809
17.7836
17.6917
19.6781
19.4325
19.8967
19.8287
22.4478
22.4814
24.6137
24.803
26.165
26.3753
27.3838
27.3954
28.3747
28.609
27.2683
28.3413
28.9688
29.5965
25.9941
27.4015
29.0238
29.7435
28.4548
25.1411
24.0172
25.5738
26.5183
24.3198
21.8628
21.8496
23.1882
24.672
24.5459
23.2408
21.5144
26.7158
24.2712
21.9397
22.2363
43.3493
29.4457
39.6605
51.077
1.12451
1.14917
1.01312
0.891038
0.860212
0.861118
0.88027
0.929671
0.977968
1.0874
1.30872
1.44233
1.44612
1.38234
1.25298
1.16615
1.11928
1.08444
1.0688
1.08948
1.25471
2.03059
3.74159
5.65613
6.43596
5.83746
4.44703
2.94695
2.22889
3.9633
14.1244
17.5263
18.0108
17.8866
17.8102
17.5783
17.5794
17.6398
17.6063
19.1412
18.8196
21.9425
21.5936
22.4075
22.228
24.7892
24.6884
26.517
26.5998
27.4575
27.6957
28.2676
28.1518
29.6159
29.4348
29.0563
28.7387
29.8311
30.2732
30.2349
27.8715
29.1406
30.5397
31.1466
30.2728
26.9584
25.7973
27.3067
28.3756
26.0658
23.2441
23.2366
24.7661
26.2717
26.4165
24.793
23.4066
25.9993
23.288
23.6404
52.5598
41.0774
54.8857
31.3429
37.7833
1.19051
1.17326
0.997948
0.886171
0.865498
0.878244
0.924094
0.972695
1.05984
1.26864
1.4372
1.4657
1.41607
1.29244
1.18637
1.13373
1.09799
1.07767
1.10221
1.34929
2.61929
5.35033
8.06052
9.0307
8.64689
7.44527
5.79304
3.80579
4.09412
11.7359
17.5149
17.0454
17.6268
17.6802
17.595
17.6193
17.8284
17.4952
18.4837
18.1443
21.2203
20.8221
23.6684
23.2076
24.448
24.096
26.5926
26.4292
28.234
28.9021
28.7621
30.2211
28.4828
28.5408
28.9438
29.8301
29.8881
29.3423
28.8021
28.5266
30.9143
30.753
30.2141
29.7441
30.9539
31.4369
31.9628
31.7974
28.8233
27.6428
29.2349
30.3045
27.9233
24.7671
24.7114
26.4982
28.1376
28.2869
26.5024
24.6565
26.6947
24.6682
24.8649
42.7793
50.849
55.3376
29.5615
32.5376
1.25437
1.16391
0.959603
0.8812
0.879313
0.919525
0.969834
1.0401
1.22603
1.42225
1.48307
1.44725
1.33731
1.21175
1.14676
1.10993
1.0849
1.10681
1.39878
3.03334
6.59414
9.64217
10.5039
10.3031
9.46666
8.15955
6.41103
5.24351
10.3853
16.6705
17.1464
17.0994
17.1383
17.1487
17.2255
17.1325
19.4641
18.9432
20.4139
19.9685
22.7393
22.302
24.8887
24.1738
26.0775
25.5561
29.3602
29.2809
32.3193
34.1586
31.047
32.6922
34.31
36.1289
28.6322
29.2969
30.5177
32.2402
29.4383
28.7249
28.4947
28.6957
31.1806
30.4212
29.4215
31.6147
32.4492
31.5582
31.9188
32.5226
30.8301
29.5979
31.2932
32.2433
29.8974
26.4321
26.2777
28.3545
30.1174
30.253
28.3364
25.4184
26.4253
26.0865
25.9794
40.4117
64.8466
63.8545
27.7624
31.0675
1.27954
1.12247
0.9234
0.887131
0.914573
0.968846
1.02754
1.18289
1.39812
1.49139
1.4737
1.38429
1.24422
1.16067
1.11948
1.09107
1.10511
1.40012
3.2043
7.34871
10.5284
11.2706
11.111
10.6222
9.75627
8.50107
7.34211
10.1361
15.6359
16.4782
16.3155
16.9379
16.729
17.5798
17.2751
18.4133
17.9438
21.1824
20.7782
21.9199
21.5589
23.5005
22.928
26.893
25.5801
28.9039
28.0931
35.0703
35.0034
40.3363
42.2751
34.2948
36.4754
38.6275
40.5385
29.6427
31.2491
33.3937
35.8579
28.599
28.3872
28.7647
29.9988
30.5733
29.3601
28.4828
33.0776
33.1007
30.6995
30.8339
32.2853
32.8259
31.6967
33.3431
33.6908
32.014
28.2005
27.9359
30.3008
32.2209
32.3209
30.2509
26.0095
26.3839
27.5736
27.1989
40.7006
60.0934
66.5735
27.7263
31.3048
1.26421
1.03371
0.908917
0.914585
0.967838
1.01755
1.14783
1.36527
1.49198
1.49451
1.42686
1.28293
1.17785
1.12741
1.09652
1.09912
1.35032
3.17984
7.62932
10.9694
11.6088
11.5325
11.0125
10.44
9.79624
9.05312
10.2901
14.7145
15.8151
16.9433
16.6164
17.9935
17.4697
19.2511
18.6397
20.3387
19.8309
21.9315
21.73
22.4843
22.1653
24.339
23.3288
30.7122
28.5203
34.2748
32.7689
42.1126
40.4975
46.321
47.3938
46.819
47.2993
38.4091
40.8757
43.1082
44.973
31.9787
34.4971
37.2933
40.1385
28.3191
28.8698
30.3927
32.6958
29.2999
28.3876
28.2669
33.681
32.695
29.2659
29.2948
31.0617
34.2766
33.7916
34.8201
34.2629
34.1227
30.0532
29.6781
32.3162
34.3218
34.3754
32.207
26.985
27.2691
29.1836
28.7383
41.0584
32.3826
54.7388
28.8346
32.4114
1.2112
0.963203
0.922453
0.967802
1.01388
1.11457
1.33218
1.48885
1.51542
1.4627
1.32849
1.19994
1.13565
1.10161
1.09341
1.25572
2.90741
7.58304
11.1263
11.7888
11.5815
10.9783
10.5782
10.2579
9.96602
10.7862
13.6541
14.9932
17.3082
16.5686
18.4914
17.8255
19.7623
19.1411
20.8139
20.3312
21.5032
21.2086
21.9603
21.852
22.6188
22.1855
26.3659
24.4942
32.9985
30.8005
37.8989
35.3043
45.9251
43.8855
41.1628
49.9915
50.0609
48.2447
49.4773
42.8693
45.3612
47.4705
49.0424
35.5176
38.581
41.6681
44.6279
29.0206
30.8042
33.3861
36.4547
28.3474
28.2726
29.2188
33.1691
31.3818
28.3953
28.5655
29.4243
34.8429
35.2983
35.3999
33.7152
35.6783
31.9401
31.4869
34.3155
35.9335
36.0579
34.1247
28.5772
28.9429
30.9693
30.6253
39.2839
28.2233
43.1325
30.6548
33.9513
1.11147
0.948421
0.967199
1.01117
1.09416
1.28865
1.47929
1.53447
1.49603
1.37808
1.23069
1.14615
1.10496
1.08938
1.17952
2.39351
7.15401
11.1197
11.8326
11.4687
10.7803
10.5631
10.4536
10.3493
11.1143
12.7955
14.12
16.6383
18.6419
18.4397
19.7381
19.2892
20.6922
20.2504
21.4083
21.0926
21.7636
21.6325
21.7087
21.475
23.0953
22.2016
28.6393
26.4901
32.9403
31.0177
37.7681
35.0797
46.1792
44.1107
40.3104
37.343
52.876
52.339
48.5429
50.8865
47.3463
49.6837
51.4682
52.5587
39.734
43.0273
46.2009
49.1229
31.2578
34.0674
37.3339
40.7898
28.3777
29.4829
31.7601
31.7908
29.6596
28.6026
28.9113
28.8448
34.3005
35.915
34.9075
32.2967
36.3438
33.79
33.3086
36.0661
36.6768
36.9063
35.8881
30.643
31.2049
32.8846
32.7843
38.3571
27.9303
40.7182
32.9571
35.5723
1.03718
0.97205
1.0113
1.07704
1.25459
1.45557
1.54729
1.52412
1.42952
1.26929
1.16222
1.10824
1.08642
1.12836
1.90532
6.1362
10.977
11.8141
11.3051
10.4656
10.4504
10.6205
10.9995
11.4549
12.6456
13.7891
15.7791
18.6791
18.175
19.3943
19.1001
20.0854
19.7755
20.692
20.411
21.1464
20.9443
21.3885
21.2941
21.8586
21.1241
24.501
22.932
29.1674
27.4276
30.9272
29.8718
35.7808
34.1892
32.1117
45.894
42.8374
37.5002
35.0739
55.2163
53.8371
48.28
51.4776
51.6603
53.6795
55.0152
55.5191
44.2535
47.6108
50.7328
53.4724
34.7798
38.2107
41.8088
45.4178
29.8596
32.3258
35.5609
30.0301
29.225
30.2575
30.7487
29.3039
32.8839
35.5291
33.5764
30.5274
36.1163
35.5002
35.0515
37.1074
36.7091
37.2396
37.1118
33.103
33.9412
34.8822
35.2005
37.5636
23.8413
44.3457
35.379
36.6174
1.01092
1.01268
1.0678
1.21617
1.43002
1.54918
1.54889
1.47429
1.31584
1.18351
1.11568
1.08352
1.09754
1.53167
4.87571
10.5809
11.7514
11.1655
10.0541
10.2183
10.6487
11.6337
12.2759
12.873
13.9028
15.7082
18.0245
18.8664
18.7271
19.3418
19.1557
19.7203
19.5589
19.9816
19.8618
20.2136
20.0953
20.6533
20.3788
22.7019
21.1826
25.8311
24.2443
28.653
27.3904
29.1719
28.6996
27.9657
33.2193
32.271
29.2886
29.8137
44.6457
40.8988
35.2052
32.7233
57.202
55.0076
47.7119
51.7335
55.7145
57.36
58.1758
58.212
48.9284
52.2222
55.1611
57.6353
39.1544
42.8819
46.6076
50.2542
32.9704
36.4516
40.246
29.7105
29.7827
33.6987
34.5946
31.3334
31.147
34.3888
31.9052
30.3091
35.2661
36.86
36.6611
37.6037
36.111
36.9006
37.6645
36.0245
36.9677
36.9629
38.1209
37.4103
35.2905
44.7526
37.6418
37.2601
1.0237
1.06264
1.18494
1.39741
1.54759
1.57236
1.51527
1.36777
1.2142
1.12663
1.08256
1.07836
1.29437
3.65546
9.76259
11.6352
11.077
9.73632
9.62
10.4947
11.7297
12.8672
13.6767
14.5721
16.016
17.7031
18.1351
18.0179
18.6353
18.4626
18.8424
18.766
18.8822
18.883
18.7794
18.846
18.7535
18.7328
19.821
19.0129
23.3739
21.2085
26.1896
24.9609
27.3946
26.6203
28.3731
28.2316
27.4652
26.977
31.2322
30.309
28.6376
28.9227
43.048
38.7338
33.194
30.9882
59.0918
56.1579
47.1252
52.0842
59.5604
60.8223
61.1557
60.8
53.6964
56.8209
59.5358
61.7595
44.1105
47.9502
51.7041
55.2888
37.5237
41.5515
45.6203
30.3589
32.0256
38.8181
40.4146
35.6071
31.0288
32.7694
31.8179
31.0479
33.7884
37.7177
37.9952
37.6025
34.8815
36.1743
37.9971
39.4137
39.9402
39.4703
41.7098
37.2983
38.599
48.2755
39.5863
38.0694
1.05832
1.16933
1.35855
1.5409
1.59493
1.5524
1.42605
1.25362
1.14548
1.08625
1.06618
1.16394
2.64801
8.44148
11.4678
11.0736
9.57448
8.99105
9.56597
11.1322
12.7381
13.9176
15.0394
16.1887
17.424
17.5117
17.7061
17.5473
18.0163
17.9091
18.0248
18.0419
17.8059
17.95
17.3095
17.5922
16.8514
16.986
18.7346
17.1771
23.0641
20.4758
25.8543
24.6264
26.8009
26.2542
25.6168
28.0109
27.7152
27.3359
26.9801
29.8678
29.3073
28.313
28.6205
41.8232
36.8793
32.0014
30.1852
61.0014
57.2164
46.7211
52.3651
63.4018
64.253
64.3484
63.3946
58.5955
61.5419
64.0539
66.0649
49.5877
53.4566
57.1618
60.6517
43.1991
47.5198
51.7212
32.8738
36.9955
45.2372
47.8985
42.5399
31.7734
32.6626
32.5147
33.6126
33.6154
38.4015
39.9331
37.4977
34.8105
36.3033
38.4283
42.7831
42.7235
43.1727
45.2065
39.5252
22.9484
50.7373
41.5523
40.2802
1.13799
1.33575
1.52058
1.6115
1.58353
1.4845
1.30285
1.1698
1.09987
1.06273
1.09807
1.94854
6.81582
11.1941
11.0953
9.56402
8.71103
8.61091
9.35987
11.3529
13.2652
14.7015
15.9302
16.8784
16.8731
15.7392
16.9433
16.9134
17.1286
17.0891
16.9882
17.0981
16.4994
16.7934
15.5145
16.0862
14.2123
14.7539
16.9666
14.5541
21.5657
18.6777
24.6331
23.306
26.6579
26.3448
24.7946
25.7565
27.9449
27.6401
27.6567
27.2395
29.394
28.9669
28.2545
28.5883
40.9484
35.7793
31.4444
30.0448
62.9971
58.3422
46.4405
52.6871
67.5255
68.0044
67.8037
66.1794
63.8461
66.6405
68.997
70.9562
55.7327
59.5887
63.2597
66.7167
49.9651
54.5231
58.8469
38.0505
43.9234
53.1665
55.647
49.8335
34.1654
33.3585
34.8818
38.4552
34.444
40.069
43.6902
37.9933
35.902
37.8473
40.1698
46.0801
45.7792
46.5916
49.0296
43.1162
18.6982
46.9068
44.3644
43.3674
1.28429
1.50237
1.61468
1.61571
1.53339
1.36329
1.20037
1.1199
1.06802
1.07111
1.55231
5.30178
10.7044
11.1274
9.59115
8.66804
8.29744
8.12064
8.45494
10.4841
13.0544
14.7551
15.6429
15.5487
13.7189
11.8834
15.5183
11.4328
15.7262
15.8626
15.8596
15.5441
15.7633
14.6408
15.1842
12.8228
13.8491
10.6023
11.4357
14.4789
11.4211
19.9953
17.2769
23.7425
22.0942
26.7863
26.3139
25.3465
26.2262
28.2821
27.999
28.4643
28.021
29.3488
28.9513
28.5788
28.9493
40.0746
34.896
31.3555
30.2163
65.2483
59.7156
46.2987
53.2272
72.0645
72.2901
71.592
69.2896
69.8341
72.513
74.8559
76.6359
62.9498
66.8744
70.6357
74.136
58.2738
63.0941
67.7111
45.0631
52.9152
61.4546
69.1553
60.953
39.3861
35.9743
40.939
47.5493
37.5426
43.8051
47.3683
40.7406
39.7996
43.2258
44.8048
50.4553
49.7514
51.7256
55.5558
45.3065
6.7817
39.5915
47.189
46.5392
1.45199
1.61464
1.6428
1.58326
1.42489
1.24946
1.14041
1.09091
1.06995
1.37587
4.2397
9.9644
11.1297
9.65876
8.69327
8.31151
7.83767
6.8901
6.78599
8.67646
10.9802
12.2175
12.0778
10.1841
7.20579
12.6876
7.69158
7.12181
13.2333
13.4823
13.4674
12.9431
13.3087
11.4524
12.3547
8.86837
10.1748
8.72813
8.28041
13.6447
10.2712
19.8242
17.1878
24.9491
23.512
22.1377
27.4828
26.8822
26.1127
27.1068
29.04
28.7884
29.6461
29.2295
29.7386
29.3677
29.3202
29.7072
39.539
34.3751
31.6034
30.8682
68.1071
61.6075
46.6835
54.1987
77.3558
77.3778
76.0961
72.9175
77.2432
79.9888
82.1839
83.6185
72.2235
76.5679
80.5804
84.1743
67.2059
73.3198
79.9602
58.9671
72.2705
77.1504
97.7044
84.4717
50.9514
43.0696
55.3928
66.7584
45.9417
49.138
55.9194
48.5077
50.6385
57.7947
53.2484
56.0544
52.712
61.659
62.9076
50.452
4.09391
32.184
50.703
50.2486
1.59698
1.66987
1.6272
1.49523
1.29996
1.18
1.1134
1.09316
1.33513
3.71216
9.19037
11.0702
9.84711
8.78095
8.48602
7.96323
6.69398
5.08099
5.096
6.4542
7.42437
7.55856
6.56993
5.06068
3.86472
8.48814
5.06162
4.76434
9.09718
9.38934
9.37659
8.75981
9.1789
7.41149
8.1039
7.03669
6.96366
8.65998
7.46225
14.3087
11.1464
21.3974
18.6143
26.2661
24.7558
23.0422
24.9272
28.6595
27.9413
27.5312
28.5936
30.0783
29.8976
31.0077
30.6994
30.4982
30.1556
30.2871
30.6202
39.3128
34.2519
32.2082
31.6345
71.9539
64.5321
47.931
55.9812
84.001
83.7365
81.5922
77.5812
87.5227
90.2893
92.319
93.074
86.0298
91.3718
96.0318
100.101
85.1526
94.1215
105.999
86.8878
111.059
115.563
176.907
135.963
77.4253
59.7086
84.9188
111.133
67.7533
64.8231
70.0681
62.0303
75.4446
78.5626
80.6049
59.4356
57.0782
70.3181
67.0532
55.8232
15.4482
35.6403
53.2845
54.6119
1.68265
1.65976
1.56777
1.36132
1.21569
1.15928
1.12495
1.37525
3.59408
8.66222
10.8932
10.019
8.89169
8.74002
8.45485
7.09634
4.97044
3.43025
3.73731
4.20619
4.41911
4.14557
3.64977
3.25164
3.04148
3.78098
5.46937
4.01906
5.8036
6.03724
5.98518
5.86782
5.97576
5.88609
5.80337
6.94306
6.20606
11.243
8.55172
16.1897
13.9662
24.773
24.7157
22.52
20.625
28.0425
26.57
26.6471
30.1858
29.4606
29.285
30.2831
31.1783
31.1228
32.2103
32.0963
31.3611
31.0475
31.2788
31.4958
39.5349
34.5405
33.0219
32.4581
77.3274
69.2639
50.635
59.0851
93.0824
91.7831
88.9977
83.8895
103.862
106.51
107.874
108.114
114.321
121.275
126.048
130.777
138.086
175.437
222.583
164.563
222.533
224.08
276.752
222.903
127.404
98.8962
160.639
183.975
105.756
80.4673
78.9409
106.094
112.514
154.062
93.9934
65.442
59.3394
76.0381
75.7885
55.8093
57.9659
48.3109
56.037
54.3053
1.70602
1.61698
1.45232
1.25315
1.19496
1.1891
1.47807
3.70949
8.44332
10.7098
10.0864
8.94893
8.93206
8.96344
7.97602
5.63727
3.07851
2.58365
2.72786
2.90495
2.93219
2.85363
2.78073
2.71444
2.84089
3.42453
3.13562
2.73292
4.24891
3.58402
4.44077
4.69695
4.58805
4.96005
4.79281
5.75651
5.27717
8.88797
6.77962
13.725
11.5575
17.9267
15.7084
26.6168
26.0788
24.0586
22.7209
29.7851
28.3393
28.4078
31.7369
31.0827
30.9069
31.7575
32.0884
32.1654
33.0264
33.0665
32.1898
31.8799
32.1008
32.1988
40.6728
35.6152
34.0852
33.2603
84.993
76.9692
55.8035
64.4932
106.171
102.782
99.3896
93.2336
133.917
135.883
137.093
135.464
219.713
226.189
226.686
220.698
225.403
245.305
467.867
243.26
526.725
508.795
525.455
537.592
227.844
165.241
235.979
234.374
169.827
90.8847
88.2123
117.21
196.95
137.074
113.603
68.5433
63.4445
90.3394
80.534
54.4955
37.8701
77.6224
56.163
52.5891
1.68776
1.51448
1.33196
1.23037
1.23484
1.64916
4.07551
8.45016
10.5526
10.0889
8.96215
9.05011
9.38702
8.71901
6.70313
3.3515
2.19422
2.1191
2.23336
2.33762
2.38036
2.41466
2.41797
2.4275
2.93992
2.6956
3.31455
2.54355
3.74357
3.90355
4.21568
4.05331
4.77803
4.43578
6.37676
5.27086
10.6227
8.39674
14.4244
12.5741
19.1213
16.5136
28.0864
27.6734
25.3949
27.0632
26.6076
23.1531
31.2601
30.0174
29.9142
32.97
32.4795
32.1525
32.8807
32.7031
32.8375
33.6284
33.7447
32.8739
32.543
32.7041
32.7984
43.4062
37.8573
35.9593
34.2537
96.4542
89.0671
64.9045
73.7065
129.433
120.245
113.923
108.336
216.377
204.668
200.53
186.705
473.49
451.196
456.53
443.552
524.916
471.688
855.126
526.394
917.8
901.313
889.107
914.665
523.368
239.717
513.375
526.94
228.404
109.563
116.645
161.908
501.251
253.295
493.046
160.638
75.2296
64.755
97.884
91.8471
54.5989
211.144
148.819
56.1733
50.0068
1.63326
1.39183
1.28713
1.28529
1.75659
4.55806
8.62848
10.4284
10.0462
8.95722
9.10216
9.72767
9.32192
7.61441
4.20366
2.12061
1.83767
1.89129
1.99579
2.0619
2.12283
2.1593
2.18565
2.21058
3.13249
2.83219
2.55969
3.46957
2.44637
3.63014
4.02682
3.80605
4.82923
4.3527
7.27922
5.77417
11.0171
9.13143
14.5967
12.7776
20.3987
16.9872
29.8803
29.7549
29.7555
29.5259
25.7465
32.4419
31.4241
31.72
33.7722
33.5124
33.2474
33.9907
33.4001
33.4033
34.5308
34.6277
33.4927
33.1043
33.437
33.5587
49.2635
42.5338
40.4706
36.5024
115.376
107.232
79.839
88.7136
179.857
160.533
136.167
132.565