/*--------------------------------*- C++ -*----------------------------------*\
  =========                 |
  \\      /  F ield         | OpenFOAM: The Open Source CFD Toolbox
   \\    /   O peration     | Website:  https://openfoam.org
    \\  /    A nd           | Version:  dev
     \\/     M anipulation  |
\*---------------------------------------------------------------------------*/
FoamFile
{
    version     2.0;
    format      ascii;
    class       volScalarField;
    location    "2500";
    object      p_rgh;
}
// * * * * * * * * * * * * * * * * * * * * * * * * * * * * * * * * * * * * * //

dimensions      [1 -1 -2 0 0 0 0];

internalField   nonuniform List<scalar> 
9836
(
0.00447533
0.00608533
0.00509684
0.00594091
0.00892052
0.00427532
0.00519535
0.0105335
0.00890838
0.00379898
0.00495698
0.0113313
0.0120412
0.00792795
0.00274611
0.00471924
0.0107239
0.0133698
0.0113053
0.00678524
0.00232027
0.00449081
0.00950063
0.0140456
0.0135992
0.00974578
0.00558516
0.00178791
0.0041548
0.00900533
0.0141995
0.015194
0.0131362
0.00832963
0.00444704
0.001191
0.00357035
0.00838624
0.0132466
0.0160885
0.0150842
0.0116174
0.00730103
0.00391784
0.000803563
0.00319255
0.00762194
0.0121878
0.0159446
0.0165929
0.0143567
0.00999744
0.00635234
0.00309871
0.000358315
0.00316815
0.00730324
0.0115312
0.0156542
0.0174738
0.0160461
0.012331
0.00871625
0.0055558
0.00265544
-3.48037e-05
0.00277879
0.00654294
0.0107018
0.0149555
0.0176328
0.0177032
0.0149634
0.0109201
0.0076779
0.00457016
0.00201631
-0.000397094
0.00277822
0.0059188
0.00988768
0.0134947
0.0174834
0.0184263
0.0168677
0.0133365
0.00974885
0.00680509
0.00412244
0.0017127
-0.000622379
0.00267028
0.00542815
0.0093456
0.0127368
0.01705
0.0186977
0.0184299
0.0153215
0.0117195
0.00868229
0.00584835
0.00353452
0.00123633
-0.000984239
0.0024996
0.00522671
0.00847504
0.0118086
0.0161254
0.018651
0.0191432
0.0176058
0.0141054
0.0105316
0.00783986
0.00522283
0.00301524
0.000817555
-0.00126593
0.00214995
0.00493097
0.00742891
0.0107629
0.0145617
0.018431
0.0195808
0.0185672
0.0156708
0.012429
0.00954957
0.00702715
0.00469202
0.00251644
0.000449324
-0.00155956
0.00205506
0.00474186
0.00685482
0.0104768
0.0141206
0.0180665
0.01962
0.0195529
0.01757
0.0143561
0.0110652
0.00866454
0.00628565
0.00414755
0.00206293
9.08464e-05
-0.00186233
0.00201507
0.00439971
0.00661165
0.00986325
0.0129177
0.0169766
0.0194209
0.0200934
0.0187608
0.0160323
0.013114
0.0101525
0.0078276
0.00571657
0.00363399
0.00170744
-0.000266523
-0.0022541
0.00179992
0.00393467
0.00618535
0.00917782
0.0122069
0.0160113
0.0188572
0.0201785
0.0198118
0.0176115
0.0145464
0.0116964
0.00929734
0.00715328
0.00515078
0.00322827
0.00134987
-0.00058746
-0.00234451
0.00180612
0.00381196
0.00608567
0.00864062
0.0107655
0.0148574
0.018141
0.0199995
0.0202868
0.019017
0.0163899
0.01319
0.0105577
0.00849714
0.00643463
0.00464598
0.00270404
0.00107948
-0.00082848
-0.00255512
0.00168131
0.00363723
0.00572615
0.00794343
0.0100535
0.0141855
0.0172614
0.0195595
0.0204436
0.0197587
0.0177451
0.0150014
0.0118661
0.00968731
0.00774344
0.0058788
0.00428084
0.00251344
0.000758718
-0.00097583
-0.0028337
0.00144209
0.00340934
0.00515171
0.00729287
0.00961421
0.0130781
0.016388
0.0189116
0.020322
0.0202898
0.0187978
0.0163633
0.0134594
0.0110874
0.0090228
0.00730297
0.00553751
0.00374133
0.00223036
0.000534045
-0.00119376
-0.00292819
0.00147484
0.00321879
0.00503963
0.00715722
0.00932857
0.0118938
0.0154894
0.018232
0.0200314
0.0204373
0.0195088
0.0176237
0.0148595
0.0121363
0.0103871
0.00848003
0.00672176
0.00510252
0.0035662
0.00190718
0.000264016
-0.0013443
-0.00311008
0.00133128
0.00301269
0.0048349
0.00667883
0.00882465
0.0112323
0.0146285
0.0173852
0.0195408
0.0204959
0.0201308
0.0185585
0.0159162
0.0135409
0.0113589
0.00941397
0.0078681
0.00642562
0.00480443
0.00324393
0.00165023
0.000182759
-0.00142325
-0.00320726
0.00117177
0.00279679
0.00445851
0.00625712
0.00829729
0.010766
0.0136349
0.0165987
0.0188714
0.0202233
0.0203744
0.0193313
0.0171377
0.0145644
0.0124815
0.0105518
0.00892575
0.00747131
0.00596039
0.00444673
0.00310926
0.00162028
2.63379e-05
-0.00149673
-0.0032523
0.00119797
0.0026865
0.00442014
0.00615907
0.00773342
0.0102467
0.0127644
0.0157366
0.0180282
0.0199782
0.0205047
0.0198713
0.0182806
0.0158892
0.0135261
0.0115537
0.00994424
0.00844168
0.00696142
0.00564102
0.00439287
0.00289953
0.00159127
4.86937e-05
-0.00154618
-0.00320669
0.00115234
0.00255064
0.00421735
0.00579639
0.00753672
0.00974348
0.0114088
0.0148301
0.0173279
0.0195311
0.0203482
0.0200997
0.0190406
0.0169461
0.01466
0.0123439
0.0108129
0.00933879
0.00781751
0.0065949
0.00544461
0.00409034
0.00288602
0.00147221
5.44877e-05
-0.00159993
-0.00321308
0.00102049
0.00241042
0.00395234
0.00531476
0.00720051
0.00873991
0.0107677
0.0140979
0.0165775
0.0188181
0.0200655
0.0203001
0.0193731
0.0176953
0.0156607
0.0132616
0.0115579
0.0101221
0.00876454
0.00765602
0.00640956
0.00524047
0.00395389
0.00286534
0.00144541
9.6528e-05
-0.00137821
-0.00310669
0.000919302
0.00241026
0.00377321
0.00517697
0.00696499
0.00852291
0.0105362
0.013441
0.0159102
0.0179935
0.0196145
0.0202077
0.0198144
0.0183698
0.0164866
0.0143253
0.0124547
0.0106874
0.00962931
0.00832382
0.00723073
0.0062464
0.00506707
0.00402534
0.00292842
0.00160993
0.000271199
-0.00124418
-0.00297271
0.000851625
0.00228621
0.00351809
0.00497113
0.00661809
0.00822606
0.0096691
0.0125193
0.0151514
0.0173147
0.019097
0.0200387
0.0199577
0.0189531
0.0171319
0.015089
0.0132564
0.0115506
0.0102722
0.00906135
0.00807163
0.00694881
0.00598693
0.005066
0.00415318
0.00307921
0.00184396
0.000539939
-0.000943041
-0.00266854
0.000821421
0.00205641
0.0034346
0.00465209
0.00628696
0.00784632
0.00924251
0.0119415
0.0143366
0.0166537
0.0185335
0.0197155
0.0199331
0.0193224
0.0177989
0.0159025
0.0138063
0.012485
0.0109555
0.00972429
0.00869936
0.00780074
0.00682304
0.00592279
0.00521284
0.00430614
0.00319241
0.00216792
0.000888236
-0.000596633
-0.00241557
0.000818429
0.00203189
0.00325864
0.00453028
0.00613368
0.00758256
0.00919701
0.0112051
0.0136704
0.0158859
0.0178335
0.0192512
0.0198261
0.0194891
0.0184756
0.0165262
0.0145756
0.0129914
0.0114654
0.0103335
0.00920442
0.00840026
0.00759254
0.0068535
0.00600303
0.00538653
0.00450409
0.00353677
0.00251064
0.00132894
-0.000118631
-0.00194756
0.000682001
0.0019234
0.00302331
0.00444369
0.00581866
0.00728286
0.0088828
0.0102226
0.0130481
0.0152444
0.017243
0.0188261
0.019605
0.0195217
0.0187315
0.0172432
0.0152272
0.0134466
0.0121588
0.0108757
0.00984191
0.00889747
0.00819136
0.00745116
0.00683932
0.00626065
0.0055359
0.00485427
0.00409525
0.00310231
0.00193644
0.000411282
-0.00148427
0.000605646
0.00184798
0.00295315
0.00415437
0.00537309
0.00703715
0.00860537
0.0100027
0.0123689
0.0146259
0.0165917
0.0181295
0.0192727
0.0194719
0.0189355
0.0175841
0.0160742
0.0141644
0.0126287
0.0113226
0.0102514
0.00926721
0.00866196
0.00796764
0.00745396
0.00697016
0.00651048
0.00589243
0.005409
0.00469084
0.00377468
0.00258447
0.00100605
-0.00223214
-0.000777774
0.00062085
0.00176523
0.00267712
0.00389696
0.00538129
0.00667804
0.00821247
0.0098311
0.011785
0.0141105
0.0159712
0.0175211
0.0189665
0.0193672
0.0190014
0.0180701
0.0165016
0.0146917
0.0131204
0.0117284
0.0105922
0.00961922
0.00889139
0.00825843
0.00790585
0.00743088
0.00714366
0.0068063
0.00642265
0.00600626
0.00543401
0.00454299
0.00325471
0.000565452
0.00186576
-0.00195822
-0.000529956
0.000548613
0.00161321
0.00269543
0.00382919
0.00517632
0.00636716
0.00816182
0.00959531
0.0112729
0.0134625
0.0153866
0.0169316
0.0184235
0.0191395
0.0191028
0.0182306
0.0168586
0.0151912
0.0135594
0.012055
0.0108786
0.0100399
0.00916043
0.00853556
0.00810155
0.00789777
0.00764362
0.00751809
0.00737709
0.00706502
0.00679792
0.00627052
0.00444402
0.00535682
0.00312031
0.00474466
0.00433737
0.000884461
0.00221074
-0.0017117
-0.000179842
0.000428256
0.00149622
0.00244398
0.00357279
0.00498041
0.0061858
0.0078643
0.00926189
0.0108932
0.0127972
0.0148079
0.0164811
0.0179476
0.0189362
0.019058
0.0184853
0.0172181
0.0156361
0.0139299
0.0124392
0.0111089
0.0102296
0.0094377
0.0088252
0.0083794
0.00796994
0.00806835
0.00800108
0.00788027
0.00787345
0.00788091
0.00770308
0.0063184
0.00723222
0.00578907
0.00352259
0.00550032
0.00483302
0.00123058
0.00264163
-0.00141836
0.000128635
0.000354279
0.00131522
0.00238744
0.00355583
0.00478409
0.00599796
0.00753457
0.00886545
0.0105601
0.0121569
0.0141316
0.0159984
0.0174973
0.0185885
0.0189611
0.0186455
0.0175558
0.0160845
0.0143062
0.0129055
0.0115
0.0103574
0.00957299
0.00891262
0.00851454
0.00818608
0.00816987
0.00815047
0.00832946
0.00843366
0.00862968
0.00882107
0.0080277
0.0087867
0.00682556
0.00778699
0.00661508
0.0040425
0.00609774
0.00542426
0.00165979
0.00310901
-0.001123
0.000458831
0.000333829
0.00123861
0.00231413
0.00326585
0.00453022
0.00574538
0.00726349
0.00869583
0.0103166
0.0118549
0.0137366
0.015508
0.0170518
0.0181793
0.0188457
0.0187143
0.0179687
0.016506
0.0147364
0.0132086
0.0118199
0.010578
0.00959226
0.00889218
0.00848878
0.00826915
0.00813762
0.00821317
0.00853288
0.00855102
0.00910797
0.00957629
0.00940053
0.00994725
0.00865141
0.00942098
0.00767575
0.00865495
0.00729803
0.00459503
0.00676656
0.00606279
0.00203996
0.00361673
-0.000860216
0.000811542
0.000209874
0.0011213
0.00212372
0.00316179
0.00434776
0.00559606
0.00701783
0.0084203
0.00990596
0.0113615
0.0132002
0.0148489
0.0165318
0.0178161
0.0186571
0.0187151
0.0181678
0.0169376
0.0153772
0.013536
0.0119975
0.0107136
0.00959394
0.00882614
0.00828233
0.00815408
0.0080286
0.00821538
0.00853568
0.00904816
0.00910764
0.00996176
0.010337
0.0106334
0.010075
0.0106121
0.00953543
0.0103115
0.00843021
0.00947114
0.00804621
0.00519404
0.00749461
0.0067551
0.00246845
0.00414022
-0.000607885
0.00115505
0.000167716
0.00105292
0.00193993
0.00297804
0.00407688
0.00525944
0.0066665
0.00810836
0.00955343
0.0110323
0.0128591
0.0144143
0.0161267
0.0176364
0.0185102
0.0187693
0.0183838
0.0173224
0.0157752
0.0140131
0.012313
0.0108184
0.00968362
0.00880448
0.00805237
0.00779833
0.00766722
0.00789849
0.00826953
0.00893818
0.00944089
0.00985611
0.0108215
0.0108247
0.0110289
0.0112984
0.0109698
0.011502
0.0104026
0.011218
0.00925244
0.0103673
0.00886767
0.00582131
0.0082884
0.00749332
0.00290361
0.00467761
-0.000344494
0.00147661
0.000126679
0.000904413
0.00180706
0.00263354
0.00378432
0.0049195
0.00634818
0.00774777
0.00904856
0.0106742
0.0123568
0.0140241
0.0155509
0.0174
0.0183063
0.0187272
0.0185777
0.0176796
0.0162839
0.0145147
0.0126599
0.0109364
0.00964475
0.00864342
0.00782227
0.00737283
0.0073421
0.00749353
0.00782177
0.00860041
0.00950957
0.00980839
0.0108867
0.0106939
0.0114901
0.0114674
0.0119095
0.0121572
0.0119043
0.0124574
0.0113644
0.0122378
0.0101634
0.0113689
0.00976903
0.00647321
0.00914569
0.00827279
0.00331681
0.00520977
-0.000100746
0.00177752
2.7532e-05
0.000720872
0.00160427
0.00251044
0.00349657
0.00476131
0.00605544
0.00735912
0.00877611
0.0104162
0.0119066
0.0135826
0.0152053
0.0170613
0.0181082
0.0187392
0.0187469
0.0180749
0.0168467
0.0150864
0.0131122
0.0112158
0.00972191
0.00844572
0.00754075
0.00695216
0.00679413
0.00695729
0.00734113
0.00791894
0.00889111
0.00998188
0.0105473
0.0102459
0.0114752
0.0112273
0.0123107
0.0122744
0.012871
0.0131288
0.0129744
0.0135831
0.0124538
0.0134187
0.0111716
0.012492
0.0107545
0.00714031
0.0100674
0.00909236
0.00371251
0.00573686
0.00010876
0.00204188
-3.63267e-05
0.000609756
0.00137045
0.00229394
0.00320729
0.0045677
0.00568547
0.00698058
0.00843671
0.00994999
0.0115231
0.0131632
0.0148268
0.0165954
0.0178937
0.0186851
0.0189416
0.0185691
0.0174017
0.0156892
0.0137097
0.0116678
0.00982733
0.00829604
0.0071467
0.00641094
0.00614072
0.00624834
0.00665706
0.00727302
0.00806088
0.00922402
0.0100906
0.0096735
0.0110347
0.010606
0.0121933
0.0119533
0.0132817
0.0132943
0.0140667
0.0144917
0.0142789
0.0151283
0.0137177
0.0149303
0.0122993
0.0138234
0.0118507
0.00782319
0.0110791
0.00997431
0.00407585
0.0062467
0.000268887
0.00224996
-9.51041e-05
0.00045678
0.0011334
0.00199618
0.00296715
0.00424863
0.00526951
0.00649303
0.0080439
0.00955547
0.0110893
0.0127415
0.0144209
0.0161658
0.0176227
0.0186091
0.0190867
0.0189384
0.0179717
0.0164708
0.014418
0.0122142
0.0100139
0.00822462
0.00681132
0.00582851
0.00536163
0.00537242
0.00575917
0.00644328
0.00724026
0.0081644
0.00931867
0.00871007
0.0103557
0.0098878
0.0116529
0.0113435
0.0133342
0.013354
0.0149758
0.0157703
0.0161587
0.0178172
0.0163718
0.0186572
0.0154885
0.0178769
0.0136779
0.0158962
0.0132128
0.00853124
0.0123478
0.0110682
0.00438587
0.00673204
0.000359048
0.00237181
-0.000125167
0.000333275
0.000935305
0.00170678
0.0025895
0.00378577
0.00494567
0.00607756
0.00774022
0.00915718
0.0106448
0.0122871
0.0139936
0.015739
0.0173129
0.0184916
0.0191834
0.0192793
0.0186404
0.0171782
0.0152178
0.0129196
0.0105063
0.0083127
0.00650884
0.00518962
0.00445646
0.00430548
0.00465435
0.005366
0.00626229
0.00720446
0.0080389
0.00931687
0.00876289
0.010754
0.0103649
0.0133632
0.0133969
0.0170979
0.0189902
0.0208756
0.0261988
0.0230423
0.0315621
0.0224949
0.0322449
0.0196505
0.0278943
0.0160363
0.0214775
0.0157194
0.00935646
0.0147872
0.0131508
0.00462795
0.00723228
0.000346232
0.0023626
-0.000130486
0.000225461
0.000750615
0.00145208
0.00226841
0.00340151
0.00451362
0.00568383
0.0073183
0.00863643
0.0101514
0.0117007
0.0135388
0.015307
0.0169684
0.0183192
0.0192362
0.0196219
0.0191975
0.0181043
0.0162301
0.0138438
0.011215
0.00865292
0.00635616
0.00456561
0.00344638
0.00305017
0.00329943
0.00401963
0.00504099
0.00610488
0.00710437
0.00835899
0.007646
0.00993475
0.00914585
0.013224
0.0130309
0.0211958
0.0235641
0.0337792
0.0431479
0.0462906
0.0667765
0.0519011
0.0841914
0.0470315
0.084955
0.0348352
0.0668564
0.0229907
0.042503
0.0235395
0.0108264
0.0225051
0.0196577
0.00478607
0.00803504
0.000193673
0.00218537
-0.000108953
0.000143141
0.000576769
0.00120101
0.001951
0.00298874
0.00407818
0.00531565
0.00669528
0.00815993
0.00968806
0.0112371
0.0130741
0.0148348
0.0165785
0.018081
0.0192559
0.0198931
0.0198733
0.0190521
0.017364
0.0149666
0.0122007
0.00927702
0.00647872
0.00406788
0.00239266
0.00160352
0.00165435
0.00236832
0.00351956
0.00471584
0.00614239
0.00714617
0.0064237
0.0109348
0.00983973
0.0128674
0.0119899
0.0257361
0.0273471
0.0533691
0.0634437
0.0912848
0.116809
0.124984
0.16997
0.141732
0.206129
0.13064
0.2124
0.0901893
0.181527
0.0492384
0.113555
0.052614
0.0153291
0.050623
0.0430587
0.00491076
0.010447
-0.000157171
0.00178996
-6.27916e-05
9.82497e-05
0.00043143
0.000961242
0.00164306
0.00259174
0.00364141
0.00481101
0.00613472
0.00768541
0.00915401
0.0107097
0.0125301
0.0143643
0.0161277
0.0177759
0.0191479
0.0200738
0.0204428
0.0199756
0.0185643
0.0163403
0.0134784
0.0102566
0.00694464
0.00384491
0.00140307
-5.99227e-06
-0.000294928
0.000340241
0.00158556
0.00305371
0.00438093
0.00601745
0.00521874
0.00870579
0.00756189
0.0263349
0.0242016
0.0285283
0.0279429
0.0723246
0.0793503
0.141057
0.162041
0.214048
0.253091
0.270305
0.330598
0.298575
0.380206
0.288258
0.391824
0.232582
0.359655
0.131742
0.276889
0.138943
0.0315726
0.132876
0.11377
0.0054843
0.0190337
-0.000817178
0.00124315
-2.30617e-05
7.87324e-05
0.000324447
0.000753219
0.00134963
0.0021997
0.00317408
0.00427125
0.00563093
0.00709833
0.00849963
0.0101389
0.0119387
0.0137713
0.0156279
0.0173596
0.0189296
0.020137
0.0208286
0.0207302
0.0197656
0.0178572
0.0151134
0.0116704
0.00786515
0.00401705
0.000637279
-0.00166505
-0.00256538
-0.00215335
-0.000807273
0.000989277
0.00276122
0.00420937
0.00646934
0.00571195
0.0211638
0.0177975
0.0822221
0.0782317
0.0840487
0.0848343
0.178921
0.190692
0.285893
0.311191
0.381699
0.422643
0.450498
0.511859
0.485089
0.566321
0.478262
0.581487
0.421957
0.551973
0.308103
0.47224
0.319609
0.0827057
0.3085
0.268661
0.00845094
0.0481003
-0.0022468
0.000627552
3.55811e-05
0.000222374
0.000576446
0.00108688
0.00181506
0.00268667
0.00373389
0.0050883
0.0064794
0.0078131
0.00946326
0.0112548
0.0131207
0.0150486
0.0168892
0.0186323
0.0200715
0.0210716
0.0213989
0.0209398
0.0194838
0.0169798
0.0135781
0.0093837
0.00477769
0.000296677
-0.0032325
-0.00510314
-0.00514666
-0.0037824
-0.0016665
0.000579049
0.00271083
0.00913098
0.00705726
0.0143768
0.0114418
0.0718686
0.0638534
0.192658
0.185497
0.197554
0.197517
0.329247
0.339292
0.453538
0.473405
0.553844
0.576097
0.621883
0.644434
0.659744
0.693923
0.659571
0.724093
0.610018
0.717892
0.504415
0.652331
0.516648
0.199715
0.505196
0.466452
0.01986
0.123726
-0.00529699
0.00164543
7.91194e-05
0.000370257
0.000829588
0.00144831
0.00220935
0.00325905
0.00448267
0.00581418
0.00712358
0.00873353
0.0106312
0.0124562
0.0144017
0.0163159
0.0182008
0.0198646
0.0211545
0.0219404
0.0219683
0.0210285
0.0189963
0.0158259
0.0115623
0.00634968
0.000670083
-0.00440112
-0.00767428
-0.00860823
-0.00749603
-0.00512242
-0.00227759
0.000271954
0.00535576
0.00279167
0.0369222
0.0289861
0.0548314
0.046027
0.174616
0.161061
0.329589
0.318152
0.342984
0.337891
0.483405
0.484955
0.582006
0.579279
0.647662
0.639453
0.700769
0.688792
0.744526
0.73717
0.772371
0.782238
0.759203
0.808548
0.678081
0.786785
0.687268
0.392786
0.675576
0.649296
0.537087
0.0611029
0.288668
-0.0126362
0.0158581
0.000110231
0.000495416
0.00106983
0.00175693
0.0027181
0.00381626
0.0051223
0.00641155
0.0079534
0.00982829
0.0116717
0.0136525
0.0156281
0.0176441
0.0194908
0.0210559
0.0221811
0.0227115
0.0223752
0.0209453
0.0182756
0.0142414
0.00879848
0.00217885
-0.00463964
-0.00982863
-0.0122249
-0.0120036
-0.00962274
-0.00608081
-0.0025892
0.00349374
0.0209005
0.0162468
0.111951
0.0944546
0.145941
0.129754
0.301948
0.283643
0.457044
0.441427
0.479526
0.46933
0.570963
0.559695
0.625098
0.60919
0.672382
0.651431
0.720578
0.694723
0.769111
0.743219
0.813099
0.794905
0.837264
0.840477
0.805504
0.855187
0.833355
0.748956
0.807209
0.618319
0.464587
0.597355
0.731454
0.803212
0.800875
0.719058
0.175054
0.554716
0.523084
0.368841
-0.00743972
0.117793
0.000132598
0.000611796
0.00128068
0.00216106
0.00313663
0.00437755
0.00565734
0.00714329
0.00895707
0.010868
0.0128514
0.0148686
0.0169751
0.0189566
0.0207629
0.0222249
0.0231114
0.0233898
0.0226638
0.0206936
0.0172548
0.0120852
0.00516539
-0.00260688
-0.00931159
-0.0135246
-0.0155255
-0.0146183
-0.0112372
-0.00676403
-0.000306148
0.0476367
0.0273828
0.0760278
0.0599337
0.217918
0.194538
0.26322
0.241573
0.422996
0.402858
0.521886
0.508939
0.547363
0.534758
0.592668
0.577307
0.630261
0.611202
0.664197
0.641246
0.702186
0.667904
0.754901
0.702966
0.824984
0.807076
0.784261
0.753166
0.861967
0.857604
0.817521
0.823981
0.846965
0.861261
0.8444
0.871111
0.871579
0.847818
0.701326
0.676389
0.794209
0.848454
0.849888
0.783988
0.481491
0.289193
0.459585
0.649908
0.62314
0.213639
0.452661
0.486546
0.32989
0.000147324
0.000721302
0.0015286
0.00248048
0.00360978
0.0048615
0.00629531
0.00803007
0.00996577
0.0119558
0.0140098
0.0161568
0.0182648
0.0202728
0.0220657
0.023382
0.0240621
0.0240425
0.022888
0.0203082
0.0159878
0.00987896
0.00359194
-0.000101141
-0.00463259
-0.0105687
-0.0153853
-0.0156789
-0.012237
-0.00515672
0.0431785
0.119046
0.107261
0.168807
0.147255
0.331498
0.304701
0.380661
0.357284
0.495509
0.481162
0.538349
0.527563
0.56321
0.55025
0.594329
0.579429
0.625409
0.612715
0.65224
0.647584
0.671376
0.667804
0.724621
0.695961
0.67964
0.673747
0.789942
0.757719
0.723608
0.868992
0.856892
0.794933
0.800787
0.833729
0.879996
0.876025
0.887637
0.877847
0.88027
0.769242
0.751843
0.843894
0.882564
0.882659
0.836604
0.605746
0.612373
0.733964
0.721232
0.74931
0.0684484
0.597223
0.662274
0.762704
0.000159596
0.000853364
0.00179123
0.00283139
0.00404763
0.00541825
0.00706077
0.00898679
0.0110016
0.0130789
0.0152198
0.0174262
0.0195969
0.0216034
0.0233498
0.0245464
0.0250247
0.0246859
0.0231304
0.0199833
0.0157901
0.014504
0.020923
0.025992
0.0184871
0.000871874
-0.0129812
-0.0164357
-0.0107224
0.0221061
0.164232
0.121819
0.217997
0.192887
0.275291
0.24796
0.425783
0.402805
0.464888
0.446683
0.517646
0.508218
0.541366
0.530933
0.5658
0.553062
0.603641
0.595196
0.653499
0.664707
0.689567
0.730013
0.676959
0.693959
0.717409
0.752269
0.695113
0.679331
0.676543
0.687615
0.759831
0.723831
0.694676
0.865483
0.841038
0.762536
0.765647
0.806353
0.885973
0.893523
0.89311
0.873155
0.898306
0.827077
0.816606
0.880752
0.901675
0.903711
0.877172
0.723921
0.758775
0.808422
0.80842
0.807775
0.127792
0.593024
0.828373
0.879938
0.000184174
0.00101159
0.00202406
0.00319508
0.00450947
0.00605837
0.00793862
0.00995744
0.0120472
0.0141922
0.0164447
0.0187286
0.0209427
0.0229813
0.024649
0.0257265
0.0260139
0.0254372
0.0236491
0.0216478
0.0261458
0.0439513
0.0615997
0.0608795
0.0400069
0.00906789
-0.0134789
-0.0146714
0.0117042
0.144488
0.256042
0.246292
0.319275
0.294472
0.376342
0.350045
0.476011
0.461582
0.498901
0.488507
0.521474
0.512981
0.557822
0.544154
0.584994
0.571675
0.672025
0.671466
0.773213
0.807682
0.785786
0.826471
0.857855
0.890855
0.712426
0.74894
0.792953
0.840481
0.682054
0.682629
0.700982
0.735036
0.724466
0.695689
0.684637
0.847628
0.811306
0.725785
0.727492
0.768572
0.880327
0.899235
0.886895
0.853952
0.904422
0.872812
0.869191
0.904578
0.908611
0.912062
0.904763
0.825862
0.865641
0.869607
0.878873
0.830177
0.249273
0.703935
0.911337
0.919233
0.000231003
0.00117602
0.00230183
0.00356567
0.00502452
0.00683322
0.00883969
0.0109252
0.0130559
0.0153329
0.0176954
0.0200364
0.0223149
0.0243462
0.0259523
0.0269671
0.0271878
0.0266082
0.026598
0.0357909
0.0638417
0.0943018
0.103887
0.0871551
0.0502012
0.00555657
-0.0126295
0.00531818
0.107922
0.303991
0.258489
0.352381
0.326722
0.401976
0.379862
0.444151
0.425065
0.490149
0.481405
0.505292
0.497986
0.530235
0.517558
0.619547
0.594439
0.660644
0.6414
0.82139
0.812924
0.960295
0.952975
0.886561
0.927531
0.960234
0.983133
0.781901
0.836524
0.892942
0.945159
0.689922
0.715064
0.757571
0.813919
0.697544
0.688303
0.697589
0.816174
0.771769
0.699855
0.702443
0.729333
0.860359
0.892858
0.866535
0.821345
0.898345
0.905132
0.907644
0.915079
0.903302
0.908072
0.918442
0.900854
0.931292
0.914666
0.928628
0.877307
0.214005
0.692534
0.9538
0.948198
0.000291243
0.00133637
0.00258277
0.00397611
0.00568079
0.00765597
0.00971506
0.0118223
0.0140957
0.016495
0.0189467
0.0213762
0.0236687
0.0256936
0.0273098
0.0283864
0.028857
0.0302594
0.0421079
0.0773903
0.120195
0.141525
0.135519
0.10279
0.0501112
0.00203342
0.00552814
0.0956798
0.28304
0.370545
0.365554
0.412269
0.395258
0.445269
0.430467
0.471088
0.459421
0.487225
0.478409
0.506375
0.496453
0.567779
0.542606
0.722582
0.685103
0.785917
0.755898
0.911863
0.859384
1.02699
1.00741
0.950134
0.981569
0.988621
1.02075
1.0398
1.04158
0.877328
0.940308
0.99594
1.03924
0.728528
0.778584
0.842785
0.913089
0.692193
0.70458
0.740708
0.775378
0.731736
0.696218
0.700455
0.705643
0.827043
0.872506
0.83284
0.779751
0.878432
0.923047
0.930255
0.913022
0.884512
0.891031
0.918994
0.948943
0.969946
0.941523
0.957318
0.884777
0.0484205
0.443657
0.980294
0.95942
0.000360109
0.00152846
0.00287865
0.00447927
0.00640383
0.00841409
0.0105039
0.0127672
0.0151745
0.0176923
0.0202039
0.0226915
0.0250036
0.02709
0.028841
0.0302291
0.0325184
0.0455442
0.0835895
0.135354
0.165196
0.170023
0.155587
0.114478
0.0511516
0.0227554
0.0936926
0.26528
0.389514
0.370937
0.410467
0.401034
0.432353
0.422403
0.451589
0.442071
0.46957
0.460859
0.48149
0.465237
0.519856
0.499749
0.64294
0.599168
0.748603
0.725838
0.813757
0.776558
0.917486
0.8812
0.801845
1.03274
1.00341
0.921197
0.967073
1.06836
1.07966
1.0741
1.05767
0.980545
1.03761
1.0795
1.10409
0.797034
0.867662
0.94304
1.01344
0.7116
0.750927
0.812631
0.734734
0.709088
0.717129
0.721216
0.704362
0.784815
0.838912
0.790255
0.738547
0.845478
0.927073
0.938277
0.898394
0.852757
0.861105
0.907295
0.975644
0.991403
0.953355
0.971327
0.808408
0.0342611
0.369629
0.993483
0.946944
0.00044113
0.00173013
0.00324776
0.0050848
0.00703372
0.00909778
0.0113468
0.0137348
0.0162879
0.0188535
0.0214523
0.0239661
0.0263647
0.0286135
0.0307031
0.0333962
0.0453458
0.0846734
0.139926
0.173097
0.184648
0.186515
0.173474
0.135242
0.0858489
0.114257
0.259953
0.382907
0.408159
0.407858
0.414437
0.411594
0.421466
0.418007
0.432056
0.4257
0.451271
0.440266
0.481913
0.448615
0.557519
0.5184
0.702463
0.666728
0.703162
0.702627
0.745987
0.71494
0.872097
0.821223
0.702111
0.655454
1.02182
0.976877
0.867069
0.924583
1.10834
1.09896
1.08032
1.0552
1.07069
1.11047
1.13012
1.13032
0.88832
0.967595
1.0397
1.09653
0.759128
0.824902
0.905119
0.71264
0.707895
0.764811
0.768576
0.724304
0.742843
0.796384
0.747612
0.716206
0.803555
0.918426
0.933261
0.871031
0.811946
0.821995
0.883564
0.989751
1.00263
0.952479
0.974274
0.749082
0.0503372
0.391001
0.99744
0.931895
0.000535605
0.00197614
0.00369391
0.00558226
0.00760835
0.00983831
0.0121983
0.0147627
0.017361
0.0199858
0.0226578
0.025253
0.027816
0.030375
0.0333884
0.0428008
0.0792183
0.137124
0.17051
0.184701
0.192397
0.199672
0.199562
0.18405
0.186278
0.273315
0.379933
0.408451
0.410527
0.404434
0.408417
0.397223
0.401598
0.388273
0.39262
0.392903
0.387314
0.421349
0.402903
0.489904
0.428743
0.614346
0.553493
0.701045
0.689269
0.585516
0.620209
0.628321
0.610025
0.569294
0.807698
0.750536
0.621295
0.580683
0.990177
0.936183
0.809085
0.875339
1.11887
1.10023
1.07401
1.0366
1.13401
1.14952
1.14743
1.13569
0.987369
1.06063
1.11649
1.15194
0.834366
0.918157
1.00329
0.710929
0.726402
0.841
0.845283
0.770695
0.719496
0.753256
0.722584
0.713265
0.759997
0.899298
0.919428
0.834928
0.768325
0.779498
0.851845
0.996015
1.00856
0.943485
0.970368
0.737929
0.0507959
0.431556
0.998289
0.924649
0.000643743
0.00224092
0.00404657
0.00605363
0.00823907
0.0105795
0.0131177
0.0157202
0.0183873
0.0210924
0.0238185
0.026559
0.0294009
0.0326499
0.0398256
0.0690359
0.126985
0.160107
0.173946
0.184817
0.199794
0.219103
0.240762
0.266625
0.319899
0.38619
0.413497
0.403538
0.405107
0.388087
0.397066
0.365297
0.377569
0.340744
0.352608
0.338128
0.334261
0.379813
0.350066
0.493696
0.398773
0.654041
0.585421
0.656038
0.669577
0.510687
0.533093
0.552561
0.552655
0.536749
0.497578
0.48678
0.741214
0.676935
0.554115
0.516175
0.956837
0.896403
0.753701
0.828007
1.11663
1.09149
1.05461
1.00981
1.16414
1.16095
1.14929
1.13065
1.07725
1.13226
1.16517
1.17482
0.928129
1.01565
1.09066
0.727304
0.770838
0.935224
0.940072
0.846907
0.714802
0.725423
0.715296
0.726819
0.728446
0.872778
0.898322
0.795458
0.732445
0.741243
0.817172
0.997478
1.01175
0.928785
0.963233
0.751021
0.136716
0.543153
0.999381
0.924118
0.000743579
0.00246251
0.00440114
0.00656435
0.00885961
0.0113716
0.013956
0.0166502
0.0193458
0.0221301
0.0249443
0.0279273
0.0312831
0.0369027
0.058355
0.110784
0.147477
0.157792
0.155761
0.171315
0.208428
0.247758
0.290282
0.337716
0.385235
0.408692
0.392467
0.397385
0.383909
0.389999
0.360679
0.373723
0.327105
0.345104
0.287708
0.307501
0.27112
0.272016
0.323308
0.282577
0.476559
0.350198
0.656326
0.591148
0.601461
0.633095
0.488964
0.508728
0.522342
0.54667
0.495066
0.485813
0.472051
0.45846
0.678273
0.609014
0.497124
0.466745
0.926048
0.859664
0.703421
0.784631
1.10623
1.07027
1.03032
0.982547
1.17095
1.1603
1.14171
1.11883
1.14448
1.17509
1.18247
1.17804
1.02541
1.10123
1.1543
0.768353
0.845329
1.03292
1.03852
0.941509
0.725023
0.715025
0.721342
0.763468
0.714313
0.843752
0.875014
0.759018
0.713687
0.718193
0.785627
0.996902
1.01448
0.911707
0.953435
0.769503
0.117877
0.514612
1.00188
0.928389
0.000827213
0.00268732
0.00478371
0.00706752
0.00951645
0.0120929
0.0147823
0.0175075
0.0202297
0.0230911
0.0260726
0.029433
0.0341302
0.048855
0.0926718
0.134118
0.143832
0.129061
0.115787
0.145917
0.211927
0.275553
0.328552
0.373905
0.394006
0.365161
0.357943
0.353519
0.34962
0.356478
0.323422
0.338435
0.283116
0.30489
0.232322
0.258663
0.19649
0.206843
0.251397
0.204292
0.431575
0.284167
0.626193
0.560255
0.567313
0.582766
0.590594
0.479103
0.499582
0.514201
0.534845
0.453496
0.450852
0.459659
0.44203
0.621941
0.549343
0.452775
0.430849
0.890149
0.817446
0.650873
0.736287
1.0856
1.04952
1.00521
0.952511
1.16672
1.15153
1.12749
1.09721
1.18203
1.1875
1.1823
1.17085
1.11027
1.16232
1.18666
0.840001
0.939816
1.11791
1.12572
1.04201
0.755822
0.715299
0.743092
0.831074
0.708615
0.816865
0.852521
0.733092
0.705015
0.70773
0.760897
0.996682
1.01805
0.894819
0.947759
0.767779
0.019509
0.335479
1.00706
0.935124
0.000912395
0.00291827
0.0051526
0.00758376
0.0101385
0.0128175
0.0155511
0.0182726
0.0210306
0.023993
0.0272287
0.0313887
0.0412988
0.0749464
0.119433
0.132174
0.113909
0.0809479
0.0810378
0.124105
0.200568
0.277557
0.331723
0.351743
0.32576
0.229236
0.303881
0.304262
0.297607
0.303162
0.271328
0.286862
0.227616
0.251455
0.169737
0.200208
0.119886
0.139145
0.171003
0.122745
0.374136
0.2264
0.578492
0.505588
0.553717
0.570258
0.553213
0.555948
0.472084
0.493263
0.50329
0.522136
0.423428
0.428843
0.450719
0.429778
0.568869
0.499983
0.413875
0.400224
0.851519
0.772627
0.594878
0.685052
1.06369
1.0234
0.975524
0.918826
1.1538
1.13049
1.10412
1.0733
1.18996
1.18347
1.1714
1.15349
1.16995
1.18946
1.18984
0.933512
1.04186
1.17415
1.17236
1.13045
0.811902
0.725532
0.780213
0.91246
0.710434
0.793888
0.834562
0.719743
0.70252
0.70491
0.744312
0.997932
1.0236
0.886454
0.944321
0.726122
0.0121566
0.18298
1.01539
0.938647
0.000995592
0.00315192
0.00553701
0.00809336
0.0107343
0.0134854
0.0162109
0.0189106
0.0217209
0.0248419
0.0285539
0.0355228
0.0596175
0.102774
0.121427
0.106954
0.068453
0.0500348
0.0662885
0.110044
0.169441
0.224443
0.251014
0.233899
0.156719
0.0926058
0.207919
0.0901531
0.223071
0.222456
0.225829
0.198218
0.213173
0.153651
0.178192
0.0937797
0.125244
0.052843
0.0653884
0.116683
0.067243
0.343638
0.210824
0.525105
0.456605
0.538495
0.549045
0.534355
0.53472
0.46049
0.482699
0.485276
0.503815
0.398604
0.411318
0.436849
0.413206
0.512026
0.448646
0.372687
0.365515
0.810013
0.725462
0.537172
0.631647
1.03665
0.993786
0.942678
0.882136
1.13055
1.10543
1.07629
1.04357
1.18172
1.16849
1.14889
1.12551
1.18803
1.18525
1.17569
1.02576
1.12181
1.18258
1.17111
1.16184
0.871238
0.745911