/*--------------------------------*- C++ -*----------------------------------*\
  =========                 |
  \\      /  F ield         | OpenFOAM: The Open Source CFD Toolbox
   \\    /   O peration     | Website:  https://openfoam.org
    \\  /    A nd           | Version:  dev
     \\/     M anipulation  |
\*---------------------------------------------------------------------------*/
FoamFile
{
    version     2.0;
    format      ascii;
    class       surfaceScalarField;
    location    "2500";
    object      phi;
}
// * * * * * * * * * * * * * * * * * * * * * * * * * * * * * * * * * * * * * //

dimensions      [1 0 -1 0 0 0 0];

internalField   nonuniform List<scalar> 
19503
(
1.6274e-07
1.13058e-07
1.41269e-07
2.80278e-07
4.52207e-07
1.02606e-07
1.15669e-07
3.85637e-07
4.48516e-07
2.84013e-07
6.56112e-07
8.66867e-08
9.53368e-08
4.61899e-07
4.1754e-07
4.16583e-07
6.78031e-07
2.62103e-07
8.18773e-07
7.38655e-08
8.00448e-08
5.19707e-07
3.67927e-07
5.11512e-07
6.8171e-07
4.12923e-07
8.49945e-07
2.30934e-07
9.58908e-07
6.54714e-08
6.79434e-08
5.68769e-07
3.11003e-07
5.76752e-07
6.59128e-07
5.34101e-07
8.80195e-07
3.82693e-07
9.87392e-07
2.02453e-07
1.08974e-06
5.92773e-08
5.83536e-08
6.1323e-07
2.5844e-07
6.21257e-07
6.13129e-07
6.22749e-07
8.93976e-07
5.20356e-07
1.02761e-06
3.42445e-07
1.1101e-06
1.82158e-07
1.20992e-06
5.4477e-08
5.04673e-08
6.54504e-07
2.17948e-07
6.53751e-07
5.51186e-07
6.83255e-07
8.82186e-07
6.34504e-07
1.06679e-06
4.81194e-07
1.14612e-06
3.06403e-07
1.22573e-06
1.66311e-07
1.32188e-06
5.01649e-08
4.44578e-08
6.91886e-07
1.89554e-07
6.82906e-07
4.81929e-07
7.22925e-07
8.43234e-07
7.22234e-07
1.09118e-06
6.10155e-07
1.19382e-06
4.33592e-07
1.25398e-06
2.78193e-07
1.3356e-06
1.52591e-07
1.426e-06
4.64498e-08
4.03757e-08
7.25274e-07
1.69334e-07
7.11969e-07
4.16376e-07
7.48392e-07
7.83501e-07
7.82788e-07
1.09159e-06
7.21833e-07
1.24085e-06
5.62992e-07
1.29459e-06
3.92969e-07
1.35851e-06
2.55294e-07
1.43771e-06
1.40893e-07
1.52309e-06
4.31478e-08
3.73704e-08
7.56063e-07
1.53837e-07
7.40784e-07
3.64146e-07
7.64358e-07
7.10782e-07
8.21226e-07
1.06444e-06
8.09913e-07
1.27607e-06
6.86704e-07
1.34687e-06
5.10707e-07
1.39193e-06
3.59565e-07
1.45732e-06
2.35699e-07
1.53288e-06
1.31107e-07
1.61401e-06
4.0385e-08
3.49566e-08
7.84881e-07
1.4055e-07
7.69366e-07
3.25415e-07
7.79545e-07
6.3193e-07
8.43217e-07
1.01295e-06
8.72713e-07
1.28978e-06
7.96211e-07
1.4022e-06
6.31357e-07
1.43662e-06
4.65931e-07
1.48559e-06
3.31322e-07
1.55012e-06
2.18457e-07
1.62302e-06
1.22092e-07
1.70033e-06
3.75382e-08
3.31864e-08
8.11349e-07
1.30688e-07
7.9479e-07
2.97334e-07
7.97466e-07
5.58779e-07
8.52864e-07
9.4524e-07
9.10916e-07
1.27611e-06
8.864e-07
1.44843e-06
7.50049e-07
1.49233e-06
5.7573e-07
1.52304e-06
4.28479e-07
1.57476e-06
3.06694e-07
1.6382e-06
2.03281e-07
1.70877e-06
1.13647e-07
1.78114e-06
3.50094e-08
3.17263e-08
8.35098e-07
1.24859e-07
8.17227e-07
2.75604e-07
8.16488e-07
4.99509e-07
8.56818e-07
8.67193e-07
9.30805e-07
1.23678e-06
9.50267e-07
1.47569e-06
8.59177e-07
1.55318e-06
6.89101e-07
1.57065e-06
5.28078e-07
1.60679e-06
3.96372e-07
1.66004e-06
2.84902e-07
1.72233e-06
1.8973e-07
1.78885e-06
1.05933e-07
1.85683e-06
3.26455e-08
2.99173e-08
8.56422e-07
1.20333e-07
8.39643e-07
2.53306e-07
8.39522e-07
4.51992e-07
8.64057e-07
7.84256e-07
9.39729e-07
1.17763e-06
9.89953e-07
1.47763e-06
9.48328e-07
1.60816e-06
8.04228e-07
1.62841e-06
6.31415e-07
1.64827e-06
4.86746e-07
1.68876e-06
3.67628e-07
1.74173e-06
2.65532e-07
1.80192e-06
1.76664e-07
1.86418e-06
9.85869e-08
1.92846e-06
3.04462e-08
2.80445e-08
8.75079e-07
1.14824e-07
8.6195e-07
2.32254e-07
8.60717e-07
4.17226e-07
8.74236e-07
7.07396e-07
9.40933e-07
1.10523e-06
1.0121e-06
1.45311e-06
1.01448e-06
1.64818e-06
9.08394e-07
1.69335e-06
7.39367e-07
1.69856e-06
5.80945e-07
1.72427e-06
4.51236e-07
1.76757e-06
3.41788e-07
1.81981e-06
2.47648e-07
1.87631e-06
1.64541e-07
1.93517e-06
9.18785e-08
1.99594e-06
2.81926e-08
2.66056e-08
8.91029e-07
1.0887e-07
8.81054e-07
2.1717e-07
8.77059e-07
3.91923e-07
8.86057e-07
6.42294e-07
9.39431e-07
1.02405e-06
1.02212e-06
1.40539e-06
1.05982e-06
1.66613e-06
9.96514e-07
1.75643e-06
8.45275e-07
1.75886e-06
6.79265e-07
1.76832e-06
5.36892e-07
1.79942e-06
4.19397e-07
1.84299e-06
3.18614e-07
1.89341e-06
2.30549e-07
1.94649e-06
1.53234e-07
2.00266e-06
8.51686e-08
2.05909e-06
2.61653e-08
2.51475e-08
9.05259e-07
1.02104e-07
8.97789e-07
2.05388e-07
8.92815e-07
3.6919e-07
8.99831e-07
5.89326e-07
9.39135e-07
9.40454e-07
1.02306e-06
1.34058e-06
1.08696e-06
1.65848e-06
1.06745e-06
1.80842e-06
9.44532e-07
1.82656e-06
7.77539e-07
1.8209e-06
6.26678e-07
1.83729e-06
4.99029e-07
1.87181e-06
3.90594e-07
1.91525e-06
2.9678e-07
1.96265e-06
2.14393e-07
2.0137e-06
1.4219e-07
2.06559e-06
7.86873e-08
2.118e-06
2.42037e-08
2.3811e-08
9.17405e-07
9.57849e-08
9.11562e-07
1.95806e-07
9.07371e-07
3.48719e-07
9.13375e-07
5.46121e-07
9.43091e-07
8.61052e-07
1.01848e-06
1.2646e-06
1.09905e-06
1.6263e-06
1.11913e-06
1.8416e-06
1.03424e-06
1.89527e-06
8.75795e-07
1.88241e-06
7.16026e-07
1.88263e-06
5.81395e-07
1.90592e-06
4.64943e-07
1.94157e-06
3.64295e-07
1.98283e-06
2.76608e-07
2.02867e-06
1.99434e-07
2.07614e-06
1.31637e-07
2.12484e-06
7.18449e-08
2.17419e-06
2.20699e-08
2.26642e-08
9.26964e-07
9.09235e-08
9.22282e-07
1.8759e-07
9.1985e-07
3.27937e-07
9.28218e-07
5.09016e-07
9.50474e-07
7.92104e-07
1.01209e-06
1.18291e-06
1.10019e-06
1.57378e-06
1.15158e-06
1.85147e-06
1.10929e-06
1.95729e-06
9.72233e-07
1.95174e-06
8.06459e-07
1.93654e-06
6.62152e-07
1.94549e-06
5.41886e-07
1.97275e-06
4.33775e-07
2.00768e-06
3.39487e-07
2.04821e-06
2.57076e-07
2.09133e-06
1.84229e-07
2.13593e-06
1.2056e-07
2.1806e-06
6.54072e-08
2.22595e-06
1.97035e-08
2.1446e-08
9.34459e-07
8.65264e-08
9.31384e-07
1.7856e-07
9.31334e-07
3.07178e-07
9.40669e-07
4.81709e-07
9.55693e-07
7.36456e-07
1.00618e-06
1.10067e-06
1.09434e-06
1.50682e-06
1.16716e-06
1.83708e-06
1.16598e-06
2.00447e-06
1.0621e-06
2.02423e-06
8.99804e-07
1.99905e-06
7.43921e-07
1.99264e-06
6.14985e-07
2.00944e-06
5.05144e-07
2.03743e-06
4.04048e-07
2.07233e-06
3.15371e-07
2.11092e-06
2.37506e-07
2.15067e-06
1.69495e-07
2.19189e-06
1.09306e-07
2.23311e-06
5.82487e-08
2.27281e-06
1.74668e-08
2.05702e-08
9.40083e-07
8.23099e-08
9.38709e-07
1.69854e-07
9.40115e-07
2.90955e-07
9.47569e-07
4.60707e-07
9.61756e-07
6.89144e-07
1.00295e-06
1.02305e-06
1.08384e-06
1.43119e-06
1.17001e-06
1.80026e-06
1.204e-06
2.03132e-06
1.13915e-06
2.09382e-06
9.92515e-07
2.06973e-06
8.29115e-07
2.0471e-06
6.89489e-07
2.05084e-06
5.73651e-07
2.07128e-06
4.71184e-07
2.10037e-06
3.76019e-07
2.13367e-06
2.92638e-07
2.16943e-06
2.18734e-07
2.20738e-06
1.54006e-07
2.24431e-06
9.81101e-08
2.28007e-06
5.10047e-08
2.3161e-06
1.49127e-08
1.98489e-08
9.44131e-07
7.8778e-08
9.43652e-07
1.63357e-07
9.45247e-07
2.79053e-07
9.52075e-07
4.3861e-07
9.69613e-07
6.50349e-07
1.0005e-06
9.55017e-07
1.07097e-06
1.35159e-06
1.16344e-06
1.7458e-06
1.22445e-06
2.03512e-06
1.2002e-06
2.1529e-06
1.08013e-06
2.1449e-06
9.17323e-07
2.10863e-06
7.67588e-07
2.09776e-06
6.42571e-07
2.1099e-06
5.3511e-07
2.1321e-06
4.39471e-07
2.16017e-06
3.49552e-07
2.19264e-06
2.69452e-07
2.22652e-06
1.99604e-07
2.25979e-06
1.38538e-07
2.29264e-06
8.55516e-08
2.32425e-06
4.28588e-08
2.35433e-06
1.21278e-08
1.89924e-08
9.46578e-07
7.63943e-08
9.46554e-07
1.56839e-07
9.50086e-07
2.67645e-07
9.56707e-07
4.16375e-07
9.74365e-07
6.21633e-07
9.98518e-07
8.9804e-07
1.05753e-06
1.27269e-06
1.14992e-06
1.67942e-06
1.22983e-06
2.01629e-06
1.24329e-06
2.19524e-06
1.15773e-06
2.21951e-06
1.00558e-06
2.17818e-06
8.4777e-07
2.15173e-06
7.13615e-07
2.15289e-06
5.99617e-07
2.16755e-06
4.99715e-07
2.19073e-06
4.08933e-07
2.21942e-06
3.22783e-07
2.24945e-06
2.46532e-07
2.27979e-06
1.79623e-07
2.30985e-06
1.21291e-07
2.33751e-06
7.22903e-08
2.36316e-06
3.40326e-08
2.38722e-06
9.17589e-09
1.84538e-08
9.47357e-07
7.37641e-08
9.49216e-07
1.50198e-07
9.53263e-07
2.57148e-07
9.60772e-07
3.96781e-07
9.76362e-07
5.98719e-07
9.9729e-07
8.51155e-07
1.04541e-06
1.1976e-06
1.13262e-06
1.60547e-06
1.22377e-06
1.97749e-06
1.26862e-06
2.21728e-06
1.22137e-06
2.28773e-06
1.0895e-06
2.25444e-06
9.29238e-07
2.21256e-06
7.86927e-07
2.20031e-06
6.66193e-07
2.20673e-06
5.60458e-07
2.22491e-06
4.65472e-07
2.24893e-06
3.79441e-07
2.27583e-06
2.96419e-07
2.30361e-06
2.22733e-07
2.3311e-06
1.58337e-07
2.35566e-06
1.0314e-07
2.37778e-06
5.76603e-08
2.39703e-06
2.4238e-08
2.42302e-06
6.11479e-09
1.80711e-08
9.46806e-07
7.11128e-08
9.50037e-07
1.4593e-07
9.53534e-07
2.46429e-07
9.63981e-07
3.81635e-07
9.75899e-07
5.77514e-07
9.97553e-07
8.1093e-07
1.03757e-06
1.12862e-06
1.1144e-06
1.52781e-06
1.21027e-06
1.92374e-06
1.27756e-06
2.21718e-06
1.26871e-06
2.34346e-06
1.16566e-06
2.33283e-06
1.01116e-06
2.28026e-06
8.61514e-07
2.25336e-06
7.33855e-07
2.24986e-06
6.23067e-07
2.26203e-06
5.23411e-07
2.28169e-06
4.32734e-07
2.30499e-06
3.50303e-07
2.33075e-06
2.69284e-07
2.35613e-06
1.9768e-07
2.37854e-06
1.35479e-07
2.39778e-06
8.31451e-08
2.41344e-06
4.1252e-08
2.43374e-06
1.34927e-08
2.44434e-06
3.62851e-09
1.75011e-08
9.45121e-07
6.9046e-08
9.49016e-07
1.41627e-07
9.54392e-07
2.3493e-07
9.65096e-07
3.69997e-07
9.75665e-07
5.55173e-07
9.98292e-07
7.76618e-07
1.03188e-06
1.07003e-06
1.09619e-06
1.45147e-06
1.19077e-06
1.8592e-06
1.27483e-06
2.19647e-06
1.29829e-06
2.38174e-06
1.23042e-06
2.40796e-06
1.09055e-06
2.35466e-06
9.36833e-07
2.31296e-06
8.01896e-07
2.29715e-06
6.8661e-07
2.30233e-06
5.82798e-07
2.31707e-06
4.88063e-07
2.33727e-06
4.00454e-07
2.36139e-06
3.19633e-07
2.38467e-06
2.40849e-07
2.40565e-06
1.70523e-07
2.42273e-06
1.10545e-07
2.43563e-06
6.09721e-08
2.45124e-06
2.37828e-08
2.45616e-06
1.67339e-09
2.45915e-06
1.51366e-09
1.7031e-08
9.41722e-07
6.77489e-08
9.46478e-07
1.37472e-07
9.5321e-07
2.26622e-07
9.62757e-07
3.59207e-07
9.75937e-07
5.36347e-07
9.94535e-07
7.49573e-07
1.02533e-06
1.0225e-06
1.07933e-06
1.3791e-06
1.16858e-06
1.78844e-06
1.26152e-06
2.15744e-06
1.31387e-06
2.39941e-06
1.28064e-06
2.47438e-06
1.164e-06
2.43345e-06
1.01176e-06
2.3792e-06
8.70655e-07
2.34851e-06
7.50424e-07
2.34519e-06
6.43788e-07
2.35411e-06
5.4578e-07
2.37183e-06
4.53531e-07
2.394e-06
3.67876e-07
2.41607e-06
2.88261e-07
2.43642e-06
2.10156e-07
2.45234e-06
1.40957e-07
2.46334e-06
8.28265e-08
2.4755e-06
3.67349e-08
2.47675e-06
3.22095e-09
2.4712e-06
-1.03712e-08
2.46503e-06
-1.84416e-09
1.66667e-08
9.37459e-07
6.62092e-08
9.43337e-07
1.34176e-07
9.49802e-07
2.20483e-07
9.59298e-07
3.49469e-07
9.72542e-07
5.22948e-07
9.89376e-07
7.25033e-07
1.01898e-06
9.83461e-07
1.06441e-06
1.31351e-06
1.14506e-06
1.71559e-06
1.24149e-06
2.10569e-06
1.31329e-06
2.39659e-06
1.3167e-06
2.52702e-06
1.22802e-06
2.51241e-06
1.08504e-06
2.45077e-06
9.40191e-07
2.40502e-06
8.14224e-07
2.39056e-06
7.05036e-07
2.3937e-06
6.04308e-07
2.40824e-06
5.09413e-07
2.42847e-06
4.19123e-07
2.4503e-06
3.33682e-07
2.46998e-06
2.54702e-07
2.48582e-06
1.76687e-07
2.49605e-06
1.08267e-07
2.50627e-06
5.2034e-08
2.50485e-06
8.63938e-09
2.49368e-06
-1.92379e-08
2.47865e-06
-2.40012e-08
2.46182e-06
-7.38326e-09
1.62875e-08
9.33029e-07
6.4601e-08
9.39127e-07
1.31488e-07
9.46106e-07
2.14519e-07
9.55829e-07
3.41264e-07
9.67648e-07
5.08547e-07
9.86896e-07
7.04401e-07
1.01005e-06
9.51932e-07
1.05062e-06
1.25726e-06
1.1207e-06
1.64408e-06
1.21661e-06
2.04478e-06
1.3023e-06
2.37772e-06
1.33213e-06
2.56326e-06
1.28046e-06
2.586e-06
1.15441e-06
2.52662e-06
1.00922e-06
2.46701e-06
8.78251e-07
2.43882e-06
7.65968e-07
2.43555e-06
6.6305e-07
2.44615e-06
5.66424e-07
2.46409e-06
4.73681e-07
2.48552e-06
3.83902e-07
2.50588e-06
2.9779e-07
2.52292e-06
2.17576e-07
2.53396e-06
1.38804e-07
2.54286e-06
7.16886e-08
2.54022e-06
1.65963e-08
2.52558e-06
-2.3264e-08
2.50332e-06
-4.38713e-08
2.47649e-06
-3.86468e-08
2.44757e-06
-1.35236e-08
1.66086e-08
9.28544e-07
6.40124e-08
9.33678e-07
1.29221e-07
9.41447e-07
2.10535e-07
9.50122e-07
3.35375e-07
9.61765e-07
4.95139e-07
9.81111e-07
6.92551e-07
9.98805e-07
9.23884e-07
1.03816e-06
1.21126e-06
1.09669e-06
1.57566e-06
1.18914e-06
1.97888e-06
1.28248e-06
2.34259e-06
1.33743e-06
2.5782e-06
1.31721e-06
2.65042e-06
1.21604e-06
2.6052e-06
1.07576e-06
2.53422e-06
9.41995e-07
2.4908e-06
8.26186e-07
2.47882e-06
7.22731e-07
2.48408e-06
6.25108e-07
2.49984e-06
5.30759e-07
2.52115e-06
4.38083e-07
2.54339e-06
3.46438e-07
2.56235e-06
2.58368e-07
2.57503e-06
1.76492e-07
2.58415e-06
9.75307e-08
2.58279e-06
2.91136e-08
2.5662e-06
-2.40281e-08
2.53897e-06
-5.8914e-08
2.50322e-06
-7.06006e-08
2.46397e-06
-5.50189e-08
2.42121e-06
-2.14133e-08
1.65774e-08
9.24061e-07
6.36969e-08
9.28936e-07
1.27723e-07
9.352e-07
2.09462e-07
9.42593e-07
3.30477e-07
9.55062e-07
4.85732e-07
9.71213e-07
6.8416e-07
9.89505e-07
8.99495e-07
1.02335e-06
1.17493e-06
1.07449e-06
1.51221e-06
1.16018e-06
1.91079e-06
1.25717e-06
2.29434e-06
1.33069e-06
2.57558e-06
1.34007e-06
2.70091e-06
1.26672e-06
2.6824e-06
1.13884e-06
2.60597e-06
1.00393e-06
2.54749e-06
8.85479e-07
2.52336e-06
7.81681e-07
2.52289e-06
6.83921e-07
2.53583e-06
5.89103e-07
2.55695e-06
4.9494e-07
2.58076e-06
4.00733e-07
2.60246e-06
3.06339e-07
2.61901e-06
2.14429e-07
2.62939e-06
1.31234e-07
2.63153e-06
4.8875e-08
2.61463e-06
-1.92826e-08
2.58472e-06
-6.97374e-08
2.54366e-06
-9.93301e-08
2.49463e-06
-1.01237e-07
2.44069e-06
-7.4475e-08
2.38338e-06
-3.04644e-08
1.65803e-08
9.18491e-07
6.464e-08
9.23163e-07
1.28198e-07
9.28449e-07
2.07741e-07
9.37012e-07
3.25287e-07
9.47822e-07
4.79835e-07
9.61034e-07
6.75495e-07
9.79913e-07
8.83309e-07
1.0057e-06
1.14442e-06
1.05383e-06
1.45758e-06
1.12914e-06
1.84361e-06
1.22734e-06
2.23699e-06
1.31461e-06
2.55728e-06
1.34903e-06
2.73461e-06
1.30639e-06
2.75342e-06
1.19573e-06
2.68174e-06
1.06315e-06
2.60833e-06
9.42967e-07
2.57043e-06
8.38477e-07
2.56245e-06
7.42156e-07
2.57131e-06
6.48527e-07
2.59158e-06
5.54517e-07
2.61664e-06
4.59088e-07
2.6423e-06
3.60964e-07
2.6633e-06
2.6208e-07
2.67716e-06
1.66675e-07
2.68534e-06
7.74537e-08
2.67045e-06
-6.94942e-09
2.64042e-06
-7.5005e-08
2.59676e-06
-1.22819e-07
2.54001e-06
-1.44697e-07
2.47368e-06
-1.34206e-07
2.40512e-06
-9.61947e-08
2.33066e-06
-1.13987e-08
-2.72003e-08
1.69698e-08
9.11868e-07
6.57165e-08
9.1746e-07
1.28073e-07
9.23339e-07
2.0554e-07
9.30754e-07
3.24036e-07
9.38301e-07
4.76539e-07
9.51158e-07
6.67588e-07
9.68956e-07
8.73829e-07
9.89292e-07
1.11947e-06
1.03076e-06
1.41477e-06
1.09666e-06
1.78126e-06
1.19152e-06
2.17578e-06
1.28855e-06
2.52703e-06
1.34488e-06
2.75032e-06
1.33328e-06
2.81458e-06
1.24523e-06
2.7578e-06
1.11965e-06
2.67355e-06
9.97986e-07
2.62023e-06
8.93116e-07
2.60214e-06
7.98784e-07
2.60555e-06
7.07943e-07
2.62422e-06
6.15907e-07
2.65076e-06
5.20376e-07
2.68029e-06
4.21109e-07
2.70677e-06
3.17524e-07
2.72621e-06
2.13043e-07
2.74251e-06
1.09529e-07
2.73269e-06
1.5248e-08
2.7051e-06
-7.15603e-08
2.66077e-06
-1.39e-07
2.59888e-06
-1.81672e-07
2.52333e-06
-1.94332e-07
2.44311e-06
-1.72165e-07
2.35536e-06
-5.4682e-08
-6.61906e-08
1.13688e-06
-8.78703e-09
1.14109e-06
-3.14026e-08
1.74073e-08
9.05053e-07
6.63139e-08
9.11309e-07
1.29214e-07
9.16383e-07
2.064e-07
9.22529e-07
3.2637e-07
9.2848e-07
4.75122e-07
9.39757e-07
6.637e-07
9.55132e-07
8.6841e-07
9.74404e-07
1.10084e-06
1.00808e-06
1.37976e-06
1.06574e-06
1.72328e-06
1.15466e-06
2.11488e-06
1.25243e-06
2.48753e-06
1.32807e-06
2.75311e-06
1.34213e-06
2.86347e-06
1.28439e-06
2.83227e-06
1.17081e-06
2.7426e-06
1.05062e-06
2.67286e-06
9.45394e-07
2.64226e-06
8.53005e-07
2.63843e-06
7.65836e-07
2.65471e-06
6.77478e-07
2.68238e-06
5.8429e-07
2.71529e-06
4.85373e-07
2.74868e-06
3.79261e-07
2.77578e-06
2.68036e-07
2.79995e-06
1.55666e-07
2.79932e-06
4.29123e-08
2.77769e-06
-5.74695e-08
2.7356e-06
-1.46394e-07
2.67177e-06
-2.11851e-07
2.58909e-06
-2.47389e-07
2.49269e-06
-1.16049e-07
-1.27835e-07
1.19743e-06
-9.6285e-08
1.19068e-06
-1.08639e-07
1.14086e-06
-5.44504e-08
1.15056e-06
-7.58843e-08
1.12131e-06
-6.90136e-09
1.12243e-06
-3.2519e-08
1.73097e-08
8.98544e-07
6.71742e-08
9.04235e-07
1.30288e-07
9.1029e-07
2.0824e-07
9.14627e-07
3.29294e-07
9.19664e-07
4.76516e-07
9.27118e-07
6.63213e-07
9.4028e-07
8.64547e-07
9.58989e-07
1.08857e-06
9.8671e-07
1.35234e-06
1.03552e-06
1.67244e-06
1.11664e-06
2.05628e-06
1.21331e-06
2.43895e-06
1.30103e-06
2.74344e-06
1.33776e-06
2.90016e-06
1.30545e-06
2.90347e-06
1.21318e-06
2.81487e-06
1.09855e-06
2.7297e-06
9.93805e-07
2.68291e-06
9.04758e-07
2.67021e-06
8.21244e-07
2.68189e-06
7.38623e-07
2.71011e-06
6.49791e-07
2.74649e-06
5.53166e-07
2.78632e-06
4.47707e-07
2.82242e-06
3.32685e-07
2.85482e-06
2.13131e-07
2.86742e-06
8.75683e-08
2.856e-06
-3.52421e-08
2.82005e-06
-1.41862e-07
2.75828e-06
-2.32858e-07
2.67209e-06
-2.94846e-07
2.56355e-06
-1.53795e-07
-1.64428e-07
1.20915e-06
-1.2772e-07
1.22762e-06
-1.463e-07
1.1543e-06
-1.0001e-07
1.20062e-06
-1.37653e-07
1.1675e-06
-1.2184e-07
1.12525e-06
-5.72655e-08
1.13099e-06
-8.16162e-08
1.1048e-06
-4.2049e-09
1.10457e-06
-3.22852e-08
1.70917e-08
8.92133e-07
6.6736e-08
8.99025e-07
1.30472e-07
9.04099e-07
2.12665e-07
9.05979e-07
3.33406e-07
9.10542e-07
4.80187e-07
9.16069e-07
6.64022e-07
9.26355e-07
8.62855e-07
9.42049e-07
1.08216e-06
9.65435e-07
1.33283e-06
1.00626e-06
1.63002e-06
1.07799e-06
2.00199e-06
1.17096e-06
2.38891e-06
1.26331e-06
2.72177e-06
1.32273e-06
2.92287e-06
1.31507e-06
2.96623e-06
1.24275e-06
2.89113e-06
1.13703e-06
2.79167e-06
1.0366e-06
2.72505e-06
9.51532e-07
2.70103e-06
8.74015e-07
2.70536e-06
7.97768e-07
2.73303e-06
7.15621e-07
2.77254e-06
6.23724e-07
2.81853e-06
5.2098e-07
2.86489e-06
4.05221e-07
2.90675e-06
2.80837e-07
2.93489e-06
1.4571e-07
2.93635e-06
7.2367e-09
2.91201e-06
-1.27127e-07
2.85691e-06
-2.40492e-07
2.77124e-06
-3.31968e-07
2.65566e-06
-1.89565e-07
-1.97362e-07
1.24093e-06
-1.67096e-07
1.26446e-06
-1.8795e-07
1.21461e-06
-1.60281e-07
1.1378e-06
-1.06798e-07
1.17925e-06
-1.49393e-07
1.14805e-06
-1.32084e-07
1.10703e-06
-5.97212e-08
1.11163e-06
-8.62101e-08
1.08638e-06
-3.32002e-09
1.08566e-06
-3.15553e-08
1.72482e-08
8.85187e-07
6.65965e-08
8.92332e-07
1.33823e-07
8.95734e-07
2.1831e-07
8.98513e-07
3.37287e-07
9.02093e-07
4.85337e-07
9.05461e-07
6.67494e-07
9.1261e-07
8.64027e-07
9.25166e-07
1.07908e-06
9.45164e-07
1.31946e-06
9.78777e-07
1.5972e-06
1.03919e-06
1.95239e-06
1.12763e-06
2.33933e-06
1.22056e-06
2.69189e-06
1.29328e-06
2.93504e-06
1.31058e-06
3.01961e-06
1.26169e-06
2.96578e-06
1.16804e-06
2.85814e-06
1.07055e-06
2.77311e-06
9.88701e-07
2.73275e-06
9.19815e-07
2.72641e-06
8.53024e-07
2.75054e-06
7.80301e-07
2.79196e-06
6.96193e-07
2.8438e-06
5.98402e-07
2.90029e-06
4.85572e-07
2.95349e-06
3.585e-07
2.99903e-06
2.16735e-07
3.01625e-06
6.58234e-08
3.00718e-06
-8.79519e-08
2.96489e-06
-2.35074e-07
2.88507e-06
-3.54268e-07
2.76727e-06
-2.1935e-07
-2.24181e-07
1.28395e-06
-2.09041e-07
1.31323e-06
-2.26641e-07
1.2307e-06
-1.83172e-07
1.25128e-06
-2.08515e-07
1.1947e-06
-1.75718e-07
1.1184e-06
-1.13557e-07
1.16019e-06
-1.61525e-07
1.12771e-06
-1.41389e-07
1.08719e-06
-6.12457e-08
1.0909e-06
-8.99144e-08
1.06891e-06
-4.98057e-09
1.06674e-06
-2.9382e-08
1.72199e-08
8.77787e-07
6.71692e-08
8.84651e-07
1.36667e-07
8.89541e-07
2.2234e-07
8.91793e-07
3.42406e-07
8.93346e-07
4.92665e-07
8.94724e-07
6.72866e-07
9.00103e-07
8.66814e-07
9.09844e-07
1.07876e-06
9.25587e-07
1.31129e-06
9.53351e-07
1.57438e-06
1.00171e-06
1.90763e-06
1.08399e-06
2.29134e-06
1.17565e-06
2.65625e-06
1.25619e-06
2.93494e-06
1.29337e-06
3.06366e-06
1.26654e-06
3.03909e-06
1.1884e-06
2.92901e-06
1.09719e-06
2.82477e-06
1.01892e-06
2.76498e-06
9.56494e-07
2.7462e-06
9.00014e-07
2.76273e-06
8.40885e-07
2.80318e-06
7.691e-07
2.86077e-06
6.79287e-07
2.92681e-06
5.71858e-07
2.9928e-06
4.4624e-07
3.05679e-06
3.00767e-07
3.09326e-06
1.39748e-07
3.10311e-06
-3.00934e-08
3.07765e-06
-2.00777e-07
3.01183e-06
-3.6178e-07
2.89981e-06
-2.4144e-07
-2.45306e-07
1.33894e-06
-2.45043e-07
1.37433e-06
-2.59561e-07
1.2743e-06
-2.32053e-07
1.30183e-06
-2.54161e-07
1.21282e-06
-2.01281e-07
1.23441e-06
-2.30098e-07
1.17532e-06
-1.90839e-07
1.09716e-06
-1.1981e-07
1.13937e-06
-1.73171e-07
1.10601e-06
-1.50235e-07
1.06628e-06
-6.07735e-08
1.06851e-06
-9.21397e-08
1.04664e-06
-6.43025e-09
1.0462e-06
-2.89398e-08
1.70814e-08
8.69239e-07
6.76861e-08
8.77329e-07
1.38435e-07
8.82925e-07
2.27602e-07
8.84346e-07
3.48795e-07
8.85417e-07
5.00448e-07
8.85705e-07
6.78885e-07
8.88833e-07
8.71324e-07
8.95633e-07
1.08066e-06
9.08009e-07
1.30616e-06
9.30724e-07
1.55985e-06
9.67961e-07
1.86978e-06
1.03963e-06
2.24666e-06
1.12869e-06
2.61926e-06
1.21265e-06
2.92544e-06
1.26574e-06
3.09649e-06
1.2606e-06
3.10653e-06
1.19913e-06
3.00382e-06
1.11362e-06
2.88313e-06
1.03887e-06
2.79964e-06
9.84294e-07
2.76373e-06
9.3896e-07
2.76987e-06
8.9289e-07
2.80774e-06
8.36357e-07
2.86855e-06
7.61291e-07
2.94272e-06
6.63438e-07
3.02386e-06
5.40773e-07
3.10574e-06
3.973e-07
3.16379e-06
2.30281e-07
3.19569e-06
4.72068e-08
3.1921e-06
-1.44592e-07
3.14575e-06
-3.34663e-07
3.05045e-06
-2.56485e-07
-2.55848e-07
1.40719e-06
-2.74286e-07
1.44874e-06
-2.86837e-07
1.33207e-06
-2.75261e-07
1.36697e-06
-2.94453e-07
1.25923e-06
-2.56851e-07
1.28808e-06
-2.83e-07
1.19395e-06
-2.19898e-07
1.21591e-06
-2.52047e-07
1.15403e-06
-2.05496e-07
1.07297e-06
-1.24265e-07
1.11584e-06
-1.82992e-07
1.08001e-06
-1.57274e-07
1.04453e-06
-5.90914e-08
1.04518e-06
-9.27854e-08
1.02651e-06
-7.86978e-09
1.0274e-06
-2.98196e-08
1.7158e-08
8.58622e-07
6.80143e-08
8.68961e-07
1.39824e-07
8.75983e-07
2.31993e-07
8.78576e-07
3.54192e-07
8.79005e-07
5.07272e-07
8.78687e-07
6.85855e-07
8.78796e-07
8.77082e-07
8.83126e-07
1.08428e-06
8.92071e-07
1.3051e-06
9.0914e-07
1.5525e-06
9.38191e-07
1.84151e-06
9.96301e-07
2.20521e-06
1.08109e-06
2.5831e-06
1.16484e-06
2.90987e-06
1.22825e-06
3.11934e-06
1.24288e-06
3.16715e-06
1.19999e-06
3.07939e-06
1.1236e-06
2.94566e-06
1.05115e-06
2.83922e-06
9.99313e-07
2.78329e-06
9.64808e-07
2.77226e-06
9.36599e-07
2.80282e-06
8.97781e-07
2.86435e-06
8.40547e-07
2.94672e-06
7.57309e-07
3.04159e-06
6.45739e-07
3.14056e-06
5.05902e-07
3.22465e-06
3.36418e-07
3.28149e-06
1.44488e-07
3.30428e-06
-6.49546e-08
3.28342e-06
-2.82423e-07
3.2119e-06
-2.52796e-07
-2.43306e-07
1.48801e-06
-2.95735e-07
1.53386e-06
-3.0168e-07
1.40496e-06
-3.12251e-07
1.44714e-06
-3.28998e-07
1.32078e-06
-3.07935e-07
1.35763e-06
-3.31288e-07
1.2418e-06
-2.82727e-07
1.27177e-06
-3.1295e-07
1.17264e-06
-2.38497e-07
1.19486e-06
-2.74247e-07
1.12994e-06
-2.19577e-07
1.04789e-06
-1.26969e-07
1.08937e-06
-1.9234e-07
1.05284e-06
-1.62222e-07
1.02329e-06
-5.49839e-08
1.02139e-06
-9.08829e-08
1.00619e-06
-7.9567e-09
1.00482e-06
-2.84452e-08
1.65595e-08
8.47074e-07
6.7008e-08
8.59673e-07
1.39901e-07
8.68926e-07
2.36341e-07
8.71663e-07
3.60366e-07
8.7237e-07
5.15875e-07
8.70519e-07
6.94924e-07
8.69543e-07
8.84047e-07
8.71892e-07
1.09021e-06
8.77241e-07
1.30775e-06
8.89502e-07
1.54916e-06
9.12574e-07
1.8226e-06
9.57197e-07
2.16828e-06
1.03328e-06
2.54925e-06
1.11499e-06
2.89076e-06
1.18403e-06
3.13442e-06
1.2132e-06
3.22194e-06
1.18805e-06
3.15603e-06
1.12333e-06
3.01431e-06
1.05493e-06
2.88357e-06
1.00683e-06
2.80251e-06
9.8014e-07
2.77232e-06
9.64832e-07
2.79072e-06
9.48738e-07
2.84855e-06
9.13592e-07
2.93554e-06
8.51608e-07
3.04292e-06
7.55955e-07
3.15956e-06
6.26739e-07
3.272e-06
4.58527e-07
3.35779e-06
2.60141e-07
3.41067e-06
3.82749e-08
3.42103e-06
-2.02441e-07
3.37725e-06
-2.30441e-07
-2.1737e-07
1.57812e-06
-2.97029e-07
1.62576e-06
-2.90926e-07
1.49191e-06
-3.40476e-07
1.53963e-06
-3.49377e-07
1.39889e-06
-3.53481e-07
1.44384e-06
-3.73919e-07
1.30623e-06
-3.42372e-07
1.34548e-06
-3.70509e-07
1.22134e-06
-3.09185e-07
1.25235e-06
-3.43935e-07
1.14847e-06
-2.57015e-07
1.16983e-06
-2.95591e-07
1.10258e-06
-2.32776e-07
1.02171e-06
-1.27285e-07
1.06105e-06
-2.00542e-07
1.02489e-06
-1.65395e-07
1.00083e-06
-5.0992e-08
9.97091e-07
-8.71479e-08
9.89036e-07
-6.99075e-09
9.85851e-07
-2.52616e-08
1.53525e-08
8.32947e-07
6.50995e-08
8.49001e-07
1.4014e-07
8.59532e-07
2.4188e-07
8.63443e-07
3.67205e-07
8.64866e-07
5.27058e-07
8.61311e-07
7.05517e-07
8.59916e-07
8.92495e-07
8.61174e-07
1.09795e-06
8.64217e-07
1.31271e-06
8.72383e-07
1.5493e-06
8.89454e-07
1.81252e-06
9.22739e-07
2.138e-06
9.87558e-07
2.51776e-06
1.06486e-06
2.87098e-06
1.13484e-06
3.14405e-06
1.17443e-06
3.27134e-06
1.1639e-06
3.23407e-06
1.11007e-06
3.09169e-06
1.046e-06
2.93681e-06
1.00172e-06
2.82619e-06
9.83209e-07
2.77092e-06
9.81504e-07
2.77219e-06
9.83356e-07
2.82291e-06
9.74395e-07
2.90932e-06
9.39868e-07
3.02694e-06
8.67586e-07
3.15991e-06
7.55589e-07
3.30176e-06
5.96955e-07
3.4195e-06
3.9676e-07
3.5069e-06
1.63929e-07
3.54975e-06
-9.03652e-08
3.54701e-06
-1.95709e-07
-1.76484e-07
1.67321e-06
-2.77884e-07
1.72127e-06
-2.65393e-07
1.5895e-06
-3.46873e-07
1.64088e-06
-3.42278e-07
1.49311e-06
-3.89721e-07
1.54504e-06
-4.01282e-07
1.38965e-06
-3.97615e-07
1.43874e-06
-4.22976e-07
1.28858e-06
-3.78576e-07
1.33082e-06
-4.12718e-07
1.19703e-06
-3.36356e-07
1.22908e-06
-3.75962e-07
1.11991e-06
-2.74329e-07
1.14163e-06
-3.17289e-07
1.07272e-06
-2.44437e-07
9.94937e-07
-1.25133e-07
1.03086e-06
-2.06502e-07
9.95455e-07
-1.65913e-07
9.81117e-07
-4.62631e-08
9.73743e-07
-7.97798e-08
9.75888e-07
-5.49849e-09
9.71282e-07
-2.06619e-08
1.33742e-08
8.14703e-07
6.11026e-08
8.37001e-07
1.39309e-07
8.49906e-07
2.45807e-07
8.55575e-07
3.73786e-07
8.56856e-07
5.37433e-07
8.54541e-07
7.15181e-07
8.51655e-07
9.00139e-07
8.52363e-07
1.10629e-06
8.52994e-07
1.31969e-06
8.57327e-07
1.55226e-06
8.69514e-07
1.80871e-06
8.93352e-07
2.11486e-06
9.45982e-07
2.48874e-06
1.01667e-06
2.85178e-06
1.08412e-06
3.1492e-06
1.12973e-06
3.31519e-06
1.13059e-06
3.31166e-06
1.08631e-06
3.17673e-06
1.02506e-06
3.00203e-06
9.80771e-07
2.85892e-06
9.69033e-07
2.77175e-06
9.8239e-07
2.74663e-06
1.0071e-06
2.78169e-06
1.02459e-06
2.86597e-06
1.01775e-06
2.99055e-06
9.76217e-07
3.14242e-06
8.85054e-07
3.31017e-06
7.47157e-07
3.4603e-06
5.56131e-07
3.58423e-06
3.19383e-07
3.67044e-06
4.3323e-08
3.7118e-06
-1.49736e-07
-1.05361e-07
1.77009e-06
-2.44552e-07
1.81979e-06
-2.26176e-07
1.69312e-06
-3.301e-07
1.74747e-06
-3.19722e-07
1.60011e-06
-4.01897e-07
1.6575e-06
-3.99622e-07
1.49285e-06
-4.43785e-07
1.55145e-06
-4.59821e-07
1.37914e-06
-4.45885e-07
1.43432e-06
-4.78081e-07
1.26795e-06
-4.17397e-07
1.31497e-06
-4.59679e-07
1.16899e-06
-3.6368e-07
1.20276e-06
-4.09687e-07
1.08874e-06
-2.90326e-07
1.11013e-06
-3.38646e-07
1.04048e-06
-2.54048e-07
9.67939e-07
-1.19336e-07
9.99065e-07
-2.10106e-07
9.64306e-07
-1.62282e-07
9.64621e-07
-3.96123e-08
9.52272e-07
-6.74452e-08
9.67012e-07
-2.87509e-09
9.59195e-07
-1.28568e-08
9.71136e-09
7.89683e-07
5.47277e-08
8.21098e-07
1.37062e-07
8.39281e-07
2.48074e-07
8.4766e-07
3.78669e-07
8.50839e-07
5.45652e-07
8.48691e-07
7.2528e-07
8.44494e-07
9.07437e-07
8.44434e-07
1.11581e-06
8.42814e-07
1.32799e-06
8.44747e-07
1.55698e-06
8.52706e-07
1.80926e-06
8.69056e-07
2.09926e-06
9.09047e-07
2.46309e-06
9.71715e-07
2.83374e-06
1.03478e-06
3.15175e-06
1.08164e-06
3.35417e-06
1.09078e-06
3.38851e-06
1.05377e-06
3.26946e-06
9.93655e-07
3.08036e-06
9.46811e-07
2.90451e-06
9.35222e-07
2.78016e-06
9.60748e-07
2.72159e-06
1.00748e-06
2.73035e-06
1.05847e-06
2.80205e-06
1.08853e-06
2.92881e-06
1.07948e-06
3.09966e-06
1.01895e-06
3.29108e-06
9.04117e-07
3.47781e-06
7.2962e-07
3.64217e-06
4.98148e-07
3.77337e-06
2.16394e-07
3.8558e-06
-1.00575e-07
1.86653e-06
-1.96439e-07
1.91717e-06
-1.55998e-07
1.80171e-06
-2.98788e-07
1.86233e-06
-2.8673e-07
1.71617e-06
-3.88724e-07
1.77662e-06
-3.80098e-07
1.61482e-06
-4.6517e-07
1.68108e-06
-4.6573e-07
1.49834e-06
-5.0768e-07
1.57152e-06
-5.32752e-07
1.37329e-06
-5.04077e-07
1.44665e-06
-5.51164e-07
1.24847e-06
-4.63016e-07
1.3131e-06
-5.24086e-07
1.13954e-06
-3.93038e-07
1.18295e-06
-4.52973e-07
1.05511e-06
-3.04928e-07
1.07907e-06
-3.62553e-07
1.00621e-06
-2.6118e-07
9.40994e-07
-1.08072e-07
9.63739e-07
-2.09536e-07
9.31551e-07
-1.5285e-07
9.47607e-07
-2.80435e-08
9.32229e-07
-5.20918e-08
9.65088e-07
1.54899e-09
9.53246e-07
-1.03456e-09
4.16874e-09
7.52115e-07
4.7473e-08
7.9696e-07
1.33761e-07
8.24434e-07
2.49429e-07
8.37964e-07
3.82308e-07
8.44074e-07
5.54866e-07
8.41673e-07
7.35288e-07
8.38682e-07
9.15871e-07
8.36127e-07
1.12535e-06
8.34955e-07
1.33657e-06
8.3436e-07
1.56264e-06
8.39169e-07
1.81185e-06
8.50206e-07
2.09061e-06
8.77796e-07
2.44131e-06
9.30931e-07
2.81746e-06
9.88082e-07
3.15297e-06
1.03362e-06
3.38933e-06
1.04653e-06
3.46403e-06
1.01531e-06
3.36886e-06
9.54372e-07
3.17295e-06
9.01088e-07
2.96696e-06
8.84406e-07
2.80292e-06
9.12513e-07
2.70288e-06
9.79538e-07
2.67488e-06
1.063e-06
2.72252e-06
1.13804e-06
2.84076e-06
1.1766e-06
3.02087e-06
1.15826e-06
3.23784e-06
1.07216e-06
3.47165e-06
9.10228e-07
3.68252e-06
6.89233e-07
3.85527e-06
4.16164e-07
3.97881e-06
9.33648e-08
-1.96116e-06
4.05272e-06
-1.51329e-07
-1.23705e-07
1.90884e-06
-2.42941e-07
-2.08299e-07
1.83818e-06
-3.60266e-07
1.90078e-06
-3.49261e-07
1.75194e-06
-4.59364e-07
1.82287e-06
-4.50694e-07
1.65479e-06
-5.47999e-07
1.74525e-06
-5.55461e-07
1.54015e-06
-6.00595e-07
1.6572e-06
-6.48687e-07
1.40595e-06
-5.96381e-07
1.53901e-06
-6.83018e-07
1.2589e-06
-5.38621e-07
1.38601e-06
-6.50281e-07
1.12339e-06
-4.37217e-07
1.21414e-06
-5.43269e-07
1.02224e-06
-3.20918e-07
1.06708e-06
-4.07259e-07
9.74367e-07
-2.71794e-07
9.13536e-07
-8.94056e-08
9.34088e-07
-2.12095e-07
9.06135e-07
-1.45504e-07
9.36706e-07
-1.15346e-08
9.14461e-07
-2.9888e-08
9.73032e-07
8.29029e-09
9.55624e-07
1.63423e-08
-1.71375e-09
6.91963e-07
4.09463e-08
7.58654e-07
1.30458e-07
8.00283e-07
2.5088e-07
8.23015e-07
3.86842e-07
8.33468e-07
5.64076e-07
8.34901e-07
7.42847e-07
8.34118e-07
9.24473e-07
8.30244e-07
1.13237e-06
8.29179e-07
1.34484e-06
8.26727e-07
1.56829e-06
8.28843e-07
1.8157e-06
8.35412e-07
2.08818e-06
8.52745e-07
2.42356e-06
8.95659e-07
2.80296e-06
9.45534e-07
3.15367e-06
9.87451e-07
3.42095e-06
1.00198e-06
3.5377e-06
9.72883e-07
3.47423e-06
9.09944e-07
3.28106e-06
8.46381e-07
3.04932e-06
8.18794e-07
2.8443e-06
8.43106e-07
2.6962e-06
9.19278e-07
2.62225e-06
1.03224e-06
2.632e-06
1.15358e-06
2.72886e-06
1.24999e-06
2.90721e-06
1.29027e-06
3.14691e-06
1.24917e-06
3.42766e-06
1.11611e-06
3.68703e-06