/*--------------------------------*- C++ -*----------------------------------*\
  =========                 |
  \\      /  F ield         | OpenFOAM: The Open Source CFD Toolbox
   \\    /   O peration     | Website:  https://openfoam.org
    \\  /    A nd           | Version:  dev
     \\/     M anipulation  |
\*---------------------------------------------------------------------------*/
FoamFile
{
    version     2.0;
    format      ascii;
    class       volScalarField;
    location    "2500";
    object      qr;
}
// * * * * * * * * * * * * * * * * * * * * * * * * * * * * * * * * * * * * * //

dimensions      [1 0 -3 0 0 0 0];

internalField   uniform 0;

boundaryField
{
    lowerOutlet
    {
        type            calculated;
        value           nonuniform List<scalar> 
144
(
1098.82
1102.48
1106.53
1110.95
1115.78
1121
1126.64
1132.69
1139.19
1146.14
1153.56
1161.48
1169.92
1178.91
1188.48
1198.67
1209.52
1221.09
1233.43
1246.6
1260.68
1275.76
1291.93
1309.33
1328.12
1348.48
1370.59
1394.67
1421.02
1449.98
1482.01
1517.59
1557.39
1591.46
1640.92
1697.66
1763.24
1839.79
1930.34
2039.06
2172.03
2337.4
2548.03
2783.4
3592.33
4489.73
5539.78
6299.16
-10593.2
3383.05
2842.54
2505.34
2267.86
2070.79
1937.82
1832.46
1746.59
1675.47
1615.41
1563.89
1519.05
1479.59
1444.62
1405.55
1378.1
1353.12
1330.28
1309.3
1289.95
1272.02
1255.36
1239.83
1225.35
1211.8
1199.08
1187.11
1175.84
1165.21
1155.18
1145.71
1136.75
1128.28
1120.27
1112.7
1105.55
1098.78
1092.4
1086.38
1080.72
1075.39
1070.4
1065.73
1061.37
1057.33
1053.59
1050.15
1982.1
2102.05
2250.09
2435.74
2683.28
3370.41
4298.55
5231.32
6113.44
5216.66
3595.64
2950.74
2577.99
2320.45
2150.09
2000.17
1882.32
1787.42
1709.44
1644.24
1799.98
1883.08
3742.61
4701.12
5747.18
6501.14
4166.54
3214.58
2745.58
2438.69
2219.08
1588.71
1540.72
3188.85
4114.6
4901.3
5934.95
6712.7
3859.9
3073.27
2657.74
2377.24
1615.37
1668.29
1729.24
1498.71
1461.59
1428.58
)
;
    }
    top
    {
        type            calculated;
        value           nonuniform List<scalar> 
100
(
998.928
999.309
1000.54
1002.75
1005.54
1008.45
1011.01
1013.09
1014.52
1015.98
1018.02
1020.15
1022.18
1023.59
1025.11
1026.59
1027.99
1029.31
1030.46
1031.61
1032.72
1033.91
1035.03
1036.27
1037.45
1038.62
1039.78
1040.74
1039.76
1027.89
1004.77
982.648
970.308
972.298
990.662
1014.99
1030.99
1037.53
1040.35
1042.58
1046.97
1053.43
1059.52
1062.62
1063.94
1064.56
1064.93
1065.11
1065.18
1065.15
1065.02
1064.81
1064.51
1064.11
1063.6
1062.99
1062.32
1061.57
1060.76
1059.87
1058.9
1057.85
1056.72
1055.48
1054.13
1052.67
1051.11
1049.45
1047.68
1045.83
1043.89
1041.86
1039.74
1037.52
1035.23
1032.87
1030.53
1028.09
1025.55
1022.98
1020.41
1017.82
1015.22
1012.62
1010
1007.37
1004.69
1001.97
999.292
997.124
1007.47
1004.47
1001.47
998.467
995.479
992.502
989.534
986.574
983.621
980.729
)
;
    }
    sides
    {
        type            calculated;
        value           nonuniform List<scalar> 
100
(
1098.83
1101.75
1104.3
1106.49
1108.31
1109.78
1110.89
1111.66
1112.1
1112.21
1112.01
1111.52
1110.74
1109.69
1108.38
1106.84
1105.06
1103.08
1100.9
1098.54
1096.01
1093.33
1090.52
1087.58
1084.53
1081.38
1078.16
1074.85
1071.49
1068.08
1064.63
1061.14
1057.63
1054.11
1050.58
1047.05
1043.54
1040.04
1036.56
1033.1
1029.68
1026.29
1022.94
1019.62
1016.35
1013.13
1009.95
1006.82
1003.73
1000.73
1050.16
1053.02
1055.58
1057.85
1059.84
1061.55
1062.97
1064.12
1065.01
1065.63
1066.01
1066.14
1066.03
1065.7
1065.16
1064.41
1063.46
1062.33
1061.03
1059.57
1057.95
1056.2
1054.31
1052.29
1050.17
1047.94
1045.62
1043.22
1040.73
1038.18
1035.56
1032.89
1030.16
1027.39
1024.58
1021.75
1018.88
1016
1013.09
1010.17
1007.24
1004.3
1001.35
998.402
995.45
992.498
989.547
986.598
983.652
980.746
)
;
    }
    front
    {
        type            empty;
    }
    back
    {
        type            empty;
    }
    roller
    {
        type            calculated;
        value           nonuniform List<scalar> 
144
(
5894.56
4299.65
3226.8
1657.84
1365.3
1323.49
1259.58
1204.74
1215.4
8568.73
8829.28
6615.29
6897.98
2840.42
2102.42
2327.72
1693.71
1489.26
1340.19
1293.01
1274.84
1255.34
1220.74
1226.27
5658.7
6034.71
5282.2
2592.97
2439.49
1998.18
2615.14
2499.7
1633.75
1399.6
1439.49
1381.34
1202.63
8199.99
7179.79
5297.42
6453.32
4252.87
3769.2
3441.87
3624.92
2423.34
1808.33
1762.05
1731.78
2089.92
1513.62
1417.09
1398.07
1352.64
1341.37
1330.57
1216.18
1223.12
7405.15
9009.31
8239.8
2232.92
1552.94
1475.91
1416.18
1466.21
1201.46
1203.07
1206.23
9669.14
9659.06
3824.68
2766.89
2011.47
1574.23
1954.38
1795.89
1493.65
1748.52
1625.21
1429.48
1590.46
1548.44
1375.39
1282.44
1247.6
1206.91
1210.97
1212.99
1219.24
1201.33
1202.64
1205.09
7803.11
7734.97
4720.8
4660.1
3985.54
3029.02
1874.1
2169.18
1532.24
1459.27
1320.65
1310.92
1306.95
1272.68
1248.65
1237.29
1231.02
1201.8
1203.58
1207.74
1210.21
9372.06
9567.46
9530.44
9289.38
4973.38
3477.93
3161.69
2225.71
2340.49
2890.45
1931.32
1603.4
1899.03
1845.95
1512.4
1704.17
1663.02
1443.8
1385.54
1366.77
1353.27
1301.97
1290.68
1263.67
1239.44
1228.3
1242.22
1201.57
1202.22
1204.22
)
;
    }
    burner
    {
        type            calculated;
        value           nonuniform List<scalar> 
16
(
-124544
-118457
-115786
-116891
-119601
-116166
-116114
-123416
-122735
-117510
-115626
-118182
-121012
-116745
-115717
-120205
)
;
    }
}


// ************************************************************************* //
