/*--------------------------------*- C++ -*----------------------------------*\
  =========                 |
  \\      /  F ield         | OpenFOAM: The Open Source CFD Toolbox
   \\    /   O peration     | Website:  https://openfoam.org
    \\  /    A nd           | Version:  dev
     \\/     M anipulation  |
\*---------------------------------------------------------------------------*/
FoamFile
{
    version     2.0;
    format      ascii;
    class       volScalarField;
    location    "2500";
    object      rAU;
}
// * * * * * * * * * * * * * * * * * * * * * * * * * * * * * * * * * * * * * //

dimensions      [-1 3 1 0 0 0 0];

internalField   nonuniform List<scalar> 
9836
(
0.00821959
0.00828608
0.00823732
0.00826982
0.0083975
0.00817337
0.00824032
0.00839123
0.00840175
0.00811967
0.00821782
0.00838846
0.00838578
0.00841426
0.00807
0.00820263
0.00839273
0.0083777
0.00839554
0.00842394
0.00802387
0.00819015
0.00840241
0.00837836
0.00837992
0.00841028
0.00842838
0.00798168
0.00817711
0.00841333
0.00838465
0.00837099
0.00839381
0.00842114
0.00843042
0.00794268
0.00816249
0.00842145
0.00839578
0.00836761
0.00837841
0.0084097
0.00842686
0.00843193
0.00790666
0.00814942
0.00842437
0.00840874
0.00837015
0.00836785
0.0083949
0.00842045
0.00842991
0.00843267
0.00787319
0.00813945
0.00842629
0.00841888
0.00837865
0.00836193
0.00837936
0.00841038
0.00842627
0.0084319
0.00843325
0.007842
0.00813066
0.00842829
0.00842648
0.00839189
0.00836087
0.00836742
0.00839756
0.00842055
0.00842963
0.00843299
0.00843344
0.00781269
0.008122
0.0084304
0.00843093
0.00840554
0.00836507
0.00835998
0.00838267
0.00841261
0.00842621
0.00843191
0.00843392
0.0084338
0.00778535
0.0081122
0.00843125
0.00843395
0.00841623
0.00837452
0.00835558
0.00836989
0.00840097
0.00842164
0.00842964
0.00843323
0.00843447
0.00843394
0.00775977
0.00810219
0.00843004
0.00843544
0.00842428
0.00838817
0.00835555
0.00835979
0.00838816
0.00841501
0.00842679
0.00843203
0.00843424
0.00843493
0.00843405
0.00773563
0.00809331
0.00842747
0.00843604
0.00842918
0.00840241
0.00836035
0.00835387
0.00837377
0.00840558
0.008423
0.00843009
0.00843365
0.00843502
0.00843524
0.00843413
0.00771303
0.00808765
0.00842565
0.00843663
0.00843303
0.00841405
0.00837087
0.00835004
0.00836207
0.00839361
0.00841801
0.00842756
0.00843242
0.00843477
0.00843555
0.0084355
0.00843417
0.00769182
0.00808426
0.00842605
0.00843732
0.00843529
0.00842222
0.00838499
0.00835103
0.00835306
0.00837937
0.00841034
0.00842532
0.0084307
0.00843407
0.00843569
0.0084359
0.00843582
0.00843415
0.00767199
0.00808069
0.00842781
0.00843768
0.00843661
0.00842802
0.00840001
0.00835645
0.00834837
0.00836557
0.00839921
0.0084213
0.00842931
0.00843295
0.00843537
0.00843628
0.00843629
0.00843606
0.00843409
0.00765343
0.00807766
0.00842909
0.00843831
0.00843763
0.00843105
0.00841145
0.00836715
0.00834559
0.00835522
0.00838573
0.00841463
0.00842757
0.00843201
0.00843463
0.00843624
0.0084367
0.00843657
0.00843625
0.00843409
0.00763626
0.00807486
0.00842963
0.00843859
0.00843816
0.00843358
0.00842026
0.00838136
0.00834707
0.00834769
0.00837162
0.00840473
0.0084242
0.00843123
0.0084342
0.00843586
0.00843687
0.00843717
0.008437
0.00843633
0.00843413
0.00762048
0.00807215
0.00842953
0.00843857
0.0084385
0.00843551
0.00842602
0.00839641
0.00835271
0.00834387
0.00835892
0.00839238
0.00841829
0.00842942
0.00843405
0.00843593
0.00843696
0.00843746
0.00843746
0.00843724
0.00843647
0.00843409
0.00760612
0.00807035
0.00842912
0.00843906
0.0084392
0.00843701
0.00842953
0.00840854
0.00836361
0.00834175
0.00834982
0.00837886
0.00840993
0.00842633
0.00843261
0.00843624
0.00843732
0.00843759
0.00843786
0.00843794
0.00843735
0.00843653
0.00843407
0.00759334
0.00806861
0.00842862
0.00843938
0.00843937
0.00843779
0.00843213
0.00841722
0.00837758
0.00834354
0.00834338
0.00836563
0.00839929
0.0084214
0.00843089
0.00843518
0.00843766
0.0084383
0.0084382
0.00843831
0.00843818
0.00843747
0.00843671
0.00843407
0.00758229
0.00806657
0.00842764
0.00843938
0.00843951
0.00843834
0.00843396
0.00842324
0.00839256
0.00834914
0.00834009
0.00835382
0.00838676
0.00841477
0.00842831
0.00843381
0.00843709
0.00843911
0.00843914
0.00843854
0.00843864
0.00843847
0.00843772
0.00843679
0.00843409
0.00757347
0.00806642
0.00842755
0.00843981
0.0084401
0.00843874
0.00843518
0.00842719
0.00840498
0.0083595
0.00833839
0.00834575
0.00837372
0.00840569
0.00842491
0.00843247
0.00843594
0.00843867
0.00844019
0.00843963
0.00843891
0.00843911
0.00843861
0.00843793
0.008437
0.00843436
0.00747163
0.00806872
0.00842873
0.00844001
0.00844028
0.00843951
0.0084362
0.00842934
0.00841377
0.00837311
0.00834021
0.00832234
0.00836101
0.00839479
0.00841932
0.00843083
0.0084349
0.00843769
0.00843989
0.00844089
0.00844007
0.0084393
0.00843924
0.00843885
0.00843804
0.00843738
0.00829038
0.00747575
0.00806976
0.00842897
0.00844008
0.00844023
0.00843999
0.00843643
0.00843138
0.00842063
0.00838789
0.00834521
0.00831947
0.00835016
0.00838229
0.00841165
0.00842794
0.00843409
0.00843691
0.00843903
0.00844083
0.00844177
0.00844055
0.00843958
0.00843938
0.00843905
0.00843839
0.00840806
0.00829168
0.00755516
0.00807046
0.0084276
0.00844024
0.00844062
0.0084405
0.00843752
0.00843332
0.0084253
0.00840118
0.00835483
0.00833494
0.00815406
0.00836996
0.00840203
0.00842349
0.00843289
0.00843653
0.00843833
0.00844016
0.00844164
0.00844223
0.00844095
0.00843977
0.00843965
0.00843946
0.00843864
0.00839607
0.00843421
0.00755424
0.00807268
0.00842684
0.00844025
0.00844085
0.00844077
0.00843836
0.00843396
0.00842829
0.00841053
0.00836801
0.00833641
0.00809229
0.00835807
0.00839126
0.00841713
0.00843063
0.00843596
0.00843826
0.00843975
0.00844098
0.0084424
0.00844267
0.00844114
0.00843996
0.00844007
0.0084397
0.00843884
0.00843832
0.00843407
0.00755479
0.00807506
0.00842737
0.0084405
0.00844088
0.00844103
0.00843896
0.00843504
0.00843071
0.00841766
0.00838251
0.00834084
0.00827514
0.00834728
0.00837946
0.00840919
0.0084272
0.00843485
0.00843814
0.00843975
0.00844071
0.00844171
0.00844295
0.00844311
0.00844137
0.00844035
0.00844029
0.00843973
0.00843901
0.00843863
0.00843358
0.00755828
0.00807636
0.00842865
0.00844056
0.00844113
0.00844148
0.00843958
0.00843645
0.00843227
0.00842292
0.00839632
0.00834948
0.00833169
0.0081212
0.00836726
0.00839976
0.00842219
0.00843314
0.00843766
0.00843956
0.00844084
0.00844148
0.00844231
0.00844339
0.00844353
0.00844171
0.00844055
0.00844035
0.00843979
0.00843905
0.00843893
0.00843284
0.00756691
0.00807582
0.00842866
0.00844053
0.00844143
0.00844157
0.00843999
0.00843715
0.00843306
0.00842685
0.00840679
0.00836225
0.00833277
0.00803597
0.00835577
0.00838877
0.00841561
0.00843047
0.00843678
0.00843957
0.00844096
0.00844177
0.00844219
0.00844277
0.00844369
0.00844386
0.008442
0.00844051
0.00844033
0.00843981
0.00843922
0.00843887
0.008432
0.00757316
0.00807644
0.00842716
0.00844084
0.00844139
0.0084414
0.00844049
0.00843783
0.00843445
0.00842949
0.00841454
0.00837629
0.00833668
0.00824194
0.0083455
0.00837726
0.00840709
0.00842659
0.00843567
0.00843926
0.00844102
0.008442
0.00844239
0.00844273
0.00844302
0.00844401
0.00844415
0.00844202
0.00844035
0.00844018
0.0084396
0.00843915
0.0084379
0.00841939
0.00665313
0.00816124
0.00807908
0.00842671
0.00844066
0.0084414
0.00844196
0.00844069
0.00843835
0.00843581
0.00843139
0.0084206
0.00838994
0.00834359
0.00832439
0.00810589
0.00836607
0.00839774
0.00842105
0.00843326
0.00843876
0.00844094
0.00844217
0.00844271
0.00844293
0.00844287
0.00844319
0.00844421
0.00844412
0.00844182
0.00844007
0.00843967
0.0084392
0.00842308
0.00848517
0.0081765
0.00817411
0.00665053
0.00813403
0.00808215
0.00842789
0.00844106
0.00844175
0.00844211
0.00844078
0.00843929
0.00843693
0.00843304
0.00842466
0.00840155
0.00835411
0.00832902
0.00804107
0.0083556
0.0083879
0.00841445
0.00843028
0.00843759
0.00844062
0.00844214
0.00844311
0.00844328
0.00844322
0.00844297
0.00844339
0.00844417
0.00844389
0.00844142
0.00843942
0.00843882
0.00842127
0.00833666
0.008167
0.00816898
0.00831791
0.00817298
0.00815168
0.00814966
0.00666355
0.00813426
0.00808409
0.00842962
0.00844086
0.0084417
0.00844228
0.00844107
0.00843959
0.00843749
0.00843432
0.00842769
0.00840973
0.00836706
0.0083316
0.00826606
0.00834526
0.00837698
0.00840678
0.00842661
0.00843644
0.00844041
0.00844208
0.00844318
0.00844361
0.00844366
0.00844337
0.00844302
0.00844326
0.00844387
0.00844326
0.00844101
0.00844018
0.0084221
0.00816691
0.00817539
0.00815251
0.00815184
0.00816867
0.00816499
0.0081535
0.00815737
0.00667656
0.00813731
0.00808516
0.00843021
0.00844112
0.00844221
0.00844246
0.00844141
0.00843984
0.00843778
0.00843519
0.00842961
0.00841564
0.00838003
0.00833674
0.00832723
0.0083369
0.0083658
0.00839703
0.0084212
0.00843435
0.00844073
0.00844279
0.00844347
0.00844389
0.00844383
0.00844366
0.00844329
0.00844292
0.00844259
0.00844379
0.00844479
0.00844568
0.00842843
0.00818767
0.00820506
0.00816544
0.00818793
0.00818084
0.00817122
0.00818516
0.0081905
0.00816593
0.00817978
0.00669616
0.00815054
0.00808635
0.00842994
0.00844138
0.00844208
0.00844253
0.00844164
0.00844027
0.00843854
0.00843615
0.0084312
0.00842044
0.00839165
0.00834452
0.00832527
0.00833198
0.00835572
0.00838735
0.00841374
0.00843067
0.00843942
0.00844349
0.00844477
0.0084449
0.00844445
0.00844386
0.00844341
0.00844293
0.00844231
0.00844348
0.00844877
0.00845509
0.0084381
0.00821992
0.00823528
0.00820513
0.0082249
0.00819914
0.00821975
0.00820201
0.00819624
0.00820902
0.00821293
0.00818676
0.00820255
0.00671656
0.0081618
0.0080874
0.00842907
0.00844137
0.00844244
0.00844276
0.0084421
0.00844074
0.00843913
0.00843679
0.0084321
0.00842346
0.00840078
0.00835397
0.00832519
0.00832657
0.00834623
0.00837756
0.0084063
0.00842638
0.00843686
0.0084424
0.00844519
0.00844616
0.00844614
0.00844508
0.00844364
0.00844289
0.00844273
0.00844476
0.00845338
0.00846173
0.00844799
0.00825122
0.00826469
0.00823991
0.00825667
0.00823327
0.00824881
0.00822266
0.00824115
0.00822458
0.00821613
0.00822988
0.00823004
0.00820302
0.00821918
0.00673391
0.00816496
0.00809088
0.00842811
0.00844139
0.00844261
0.00844279
0.00844215
0.00844099
0.00843968
0.00843746
0.00843317
0.00842607
0.00840752
0.00836507
0.00832754
0.00832291
0.0083365
0.00835458
0.00839749
0.00842115
0.00843475
0.00844125
0.00844265
0.00844615
0.0084471
0.00844689
0.00844549
0.00844326
0.00844316
0.00844766
0.00845735
0.00846663
0.00845461
0.00827496
0.00828366
0.00827236
0.00828698
0.00826158
0.00827551
0.00825439
0.00826728
0.00824321
0.00825998
0.00824435
0.00823122
0.00824612
0.00824361
0.00821199
0.00823071
0.00674318
0.00815806
0.00809565
0.00842849
0.0084416
0.00844232
0.00844279
0.00844225
0.00844139
0.00844011
0.00843776
0.00843415
0.00842782
0.00841298
0.00837642
0.00833208
0.00832033
0.00832883
0.00835573
0.00837468
0.00841379
0.00843121
0.00844025
0.00836038
0.00844409
0.00844654
0.00844704
0.008447
0.00844544
0.00844467
0.00845146
0.00846071
0.00847028
0.00845917
0.00829146
0.00829693
0.00829785
0.00830643
0.00828955
0.0083021
0.00827922
0.00829111
0.00827261
0.00828349
0.00825987
0.00827578
0.00826001
0.00824256
0.00825901
0.00825397
0.0082135
0.00823716
0.00674448
0.00814332
0.00809921
0.00842922
0.0084416
0.00844276
0.00844284
0.00844287
0.00844184
0.00844048
0.00843856
0.0084354
0.00842915
0.00841737
0.0083876
0.00833966
0.00831788
0.0083236
0.00834547
0.00837647
0.00840472
0.00842547
0.00843726
0.00819857
0.00833796
0.00844719
0.00844651
0.00844633
0.00844635
0.00844682
0.00845626
0.00846495
0.0084728
0.00846432
0.00830087
0.00830651
0.00831352
0.00831736
0.00831188
0.00831836
0.00830362
0.0083134
0.00829349
0.00830283
0.00828801
0.00829579
0.00827251
0.00828751
0.00827249
0.00825009
0.00826934
0.00826213
0.00820826
0.0082392
0.00675564
0.00813712
0.00810176
0.00842821
0.00844149
0.00844298
0.00844296
0.00844352
0.00844216
0.00844093
0.00843926
0.00843624
0.0084304
0.00842055
0.0083969
0.00834893
0.00831817
0.00831831
0.0083366
0.00835626
0.00839553
0.00841841
0.00843295
0.00802903
0.00841718
0.00842315
0.00844817
0.00844612
0.00844565
0.00844783
0.00845971
0.00846988
0.00847707
0.00847142
0.00830863
0.00831694
0.00831937
0.00832218
0.00832332
0.00832243
0.00831879
0.00831657
0.00830919
0.00830649
0.00830003
0.00829669
0.00829702
0.00829319
0.00828236
0.00829153
0.00828156
0.00825568
0.00827624
0.00826882
0.00819926
0.00823847
0.00676381
0.00813521
0.00809783
0.00842407
0.00844139
0.00844297
0.00844334
0.00844388
0.00844238
0.0084411
0.00843995
0.00843725
0.00843156
0.00842302
0.00840359
0.0083593
0.00832041
0.00831486
0.00832779
0.00834215
0.00837588
0.00841117
0.00842786
0.00823496
0.00843085
0.00842439
0.00844937
0.00844827
0.00844687
0.00844976
0.00846158
0.00847229
0.00848041
0.00848641
0.00832403
0.00814291
0.00832082
0.00832774
0.00831994
0.00831381
0.00830579
0.00828997
0.00829227
0.00826347
0.0082808
0.00824941
0.00827482
0.00824633
0.00828009
0.00825386
0.00828177
0.00826739
0.00827616
0.00826117
0.00825943
0.00823734
0.00818989
0.00823873
0.00676605
0.00804607
0.00807552
0.00840878
0.00844148
0.00844306
0.00844337
0.00844381
0.008443
0.00844154
0.00844093
0.00843821
0.00843276
0.00842495
0.00840879
0.00837033
0.00832403
0.00831178
0.00832073
0.0083469
0.00836211
0.00840295
0.00842217
0.00841186
0.00842795
0.00844444
0.00844747
0.00844886
0.0084492
0.00845422
0.00846529
0.00847333
0.00848074
0.00848736
0.00835926
0.00832977
0.00813236
0.00830602
0.0083054
0.00827067
0.00824208
0.00821856
0.00818568
0.00820836
0.00817379
0.0082089
0.00817042
0.00821574
0.00818323
0.00822956
0.00820318
0.00825613
0.00822968
0.00825093
0.00824509
0.0082386
0.0082236
0.00810556
0.00824515
0.00653516
0.00773255
0.00810199
0.00836307
0.00843997
0.00844334
0.00844376
0.00844415
0.00844334
0.00844216
0.00844166
0.00843881
0.0084339
0.0084262
0.00841314
0.00838116
0.00833056
0.00830834
0.00831481
0.00833739
0.00836718
0.00839442
0.00841568
0.00842895
0.00843672
0.00844152
0.00844438
0.00844643
0.00844911
0.00845822
0.00846995
0.0084776
0.00848197
0.00848681
0.00848421
0.00830045
0.00830845
0.00830773
0.00830281
0.00821398
0.00819833
0.00816212
0.00813686
0.00812854
0.00807877
0.00811405
0.00804813
0.00812246
0.00804111
0.00815082
0.00807165
0.00819551
0.00812586
0.00818538
0.00811448
0.0081487
0.00820072
0.00812542
0.00809534
0.00809201
0.00825344
0.00679428
0.00823107
0.0081431
0.00836565
0.00843151
0.00844329
0.00844411
0.0084445
0.0084438
0.00844305
0.00844181
0.00843956
0.00843509
0.00842767
0.00841653
0.00839043
0.00833975
0.00830764
0.00830863
0.00832818
0.00835778
0.00838578
0.00840838
0.00842348
0.00843231
0.00843777
0.00844094
0.00844321
0.00844729
0.0084607
0.00847331
0.00848265
0.00848637
0.00848838
0.0084912
0.00831813
0.00832706
0.00819448
0.00820045
0.00819675
0.00819285
0.00811394
0.00810116
0.00802877
0.00798076
0.00797332
0.00789364
0.00794962
0.00785378
0.00796296
0.00784909
0.00801471
0.00786999
0.00807151
0.00797203
0.00804706
0.00802688
0.00799872
0.00813802
0.00794978
0.00799153
0.00821596
0.00802905
0.00683426
0.00831927
0.00820477
0.0083732
0.00842763
0.00844229
0.00844405
0.00844487
0.00844442
0.00844363
0.0084422
0.00844046
0.00843612
0.00842901
0.00841903
0.00839749
0.00834979
0.00830967
0.00830415
0.00831867
0.00834843
0.00837683
0.00840075
0.00841728
0.00842711
0.00843279
0.0084364
0.00843981
0.00844601
0.00846272
0.00847563
0.00848426
0.00848952
0.00849247
0.00849057
0.00833623
0.00810806
0.00820722
0.00821585
0.0080781
0.00808415
0.00809081
0.00807835
0.00793845
0.00790946
0.00781593
0.00774349
0.00775621
0.00759011
0.00764257
0.00749092
0.00763289
0.00747685
0.00770871
0.00750408
0.0078782
0.00762853
0.00799005
0.00782147
0.00795152
0.00795314
0.00793785
0.00798847
0.00819414
0.00792002
0.00679589
0.00835979
0.00830131
0.00839007
0.00842398
0.00843848
0.00844274
0.00844488
0.00844488
0.00844414
0.00844294
0.00844116
0.00843688
0.00843021
0.00842092
0.00840258
0.00836041
0.0083126
0.00830019
0.00831074
0.00833849
0.00836784
0.00839264
0.00841081
0.0084213
0.00842687
0.00843036
0.00843522
0.00844708
0.00846388
0.00847712
0.00848465
0.00849049
0.00849399
0.00849556
0.00834381
0.00821714
0.00799712
0.00809611
0.00811484
0.00782722
0.00782279
0.00787844
0.00784532
0.00768298
0.00763759
0.00746488
0.00737319
0.00735752
0.00714716
0.00721072
0.00726369
0.00725844
0.00739762
0.00733747
0.00745023
0.00751822
0.00738598
0.00779528
0.00743345
0.00781264
0.00785126
0.00776711
0.00776781
0.00811077
0.0078604
0.00667161
0.00836969
0.00842534
0.00842462
0.00842973
0.00843725
0.0084432
0.00844478
0.00844448
0.00835149
0.00844176
0.00843763
0.00827158
0.00842227
0.00840677
0.00837103
0.00831821
0.00829589
0.00830365
0.00832852
0.00835873
0.00838464
0.00840398
0.0084154
0.00842073
0.00842494
0.0084308
0.0084486
0.00846503
0.00847762
0.00848675
0.008492
0.00849423
0.00849564
0.00850082
0.00821497
0.00816715
0.00813643
0.00815824
0.00782534
0.00783732
0.00750474
0.0074846
0.00758838
0.00753895
0.00731556
0.00727972
0.00701107
0.00696307
0.00727158
0.00712095
0.00722731
0.00731145
0.0073154
0.00748763
0.00738792
0.00756819
0.00750749
0.00749478
0.00733539
0.00746407
0.0077229
0.00778279
0.00771379
0.00760902
0.00812279
0.00795891
0.00645162
0.00832667
0.00843502
0.00842043
0.00842452
0.00843566
0.00844218
0.00843874
0.0083009
0.00832968
0.00831326
0.00811893
0.008291
0.00820346
0.00838062
0.0083271
0.00829425
0.00829631
0.00831826
0.00834944
0.0083766
0.00839721
0.0084096
0.00841499
0.00841942
0.00842998
0.00844374
0.00845436
0.00846432
0.00847755
0.00848834
0.00849406
0.00849497
0.0084866
0.00818855
0.00796546
0.00792799
0.00794988
0.00786633
0.00790024
0.00747494
0.00747746
0.00716953
0.00719017
0.00724469
0.00721742
0.00701358
0.00707204
0.00700951
0.0069744
0.00733847
0.00723105
0.00737074
0.00687273
0.00690217
0.00671094
0.00736592
0.00723627
0.00754913
0.00737639
0.00739649
0.00730694
0.00755692
0.00770309
0.00755214
0.00557145
0.00605754
0.00809651
0.00785503
0.00573714
0.00760329
0.00842105
0.00841224
0.00841902
0.0084333
0.00842667
0.00838512
0.00829408
0.00828203
0.00826935
0.00824131
0.00800877
0.00838824
0.00833699
0.00829587
0.0082907
0.00830758
0.00833958
0.00836816
0.00839048
0.00840417
0.00841057
0.0084141
0.0084249
0.00843269
0.0084328
0.00843271
0.00844288
0.00846338
0.00847861
0.00848826
0.00848256
0.00824482
0.00796566
0.00774651
0.00753821
0.00756836
0.00749568
0.00751481
0.00721289
0.00724798
0.00693734
0.00700498
0.00705417
0.00693072
0.00702141
0.00706482
0.00713967
0.0070798
0.00676367
0.00703008
0.00709641
0.00708538
0.0072646
0.00717281
0.00707735
0.00704263
0.00718755
0.00716406
0.00737738
0.00475547
0.00509023
0.00551595
0.00510523
0.00579131
0.00617618
0.00566765
0.00536896
0.00524488
0.00531728
0.00532133
0.00785329
0.00585355
0.00576824
0.00628748
0.00538817
0.00734908
0.00838905
0.00840377
0.0084146
0.00842151
0.00843431
0.00840485
0.00840639
0.00842941
0.00837315
0.00820742
0.00839385
0.00834728
0.00829851
0.00828585
0.00829835
0.00832907
0.00835948
0.00838335
0.00839915
0.00840667
0.0084098
0.00841586
0.00840769
0.008404
0.00823655
0.00832983
0.00841459
0.00843441
0.00845999
0.00846884
0.00836404
0.00759738
0.00746596
0.00759829
0.00768119
0.00725122
0.00724711
0.00726932
0.00725975
0.00707438
0.00715182
0.00693552
0.00697442
0.00703514
0.00690473
0.00702979
0.00698148
0.00697794
0.0069631
0.00654906
0.00613293
0.00710407
0.00705958
0.00701121
0.00699769
0.00479861
0.00449771
0.00459895
0.00471368
0.00479951
0.00474537
0.00492164
0.00486517
0.0047393
0.00505761
0.0050728
0.00498762
0.00473236
0.00499767
0.00534133
0.00536638
0.00516923
0.00504261
0.00502402
0.00520285
0.0058735
0.00615157
0.00581818
0.00538598
0.00538977
0.00535015
0.00606317
0.00650514
0.00562013
0.0083723
0.00839591
0.00841173
0.00842479
0.00843931
0.00843882
0.00843426
0.00842585
0.00841546
0.00839791
0.00835774
0.00804663
0.00828064
0.00828983
0.00831809
0.00835063
0.00837609
0.00839393
0.00840317
0.00840574
0.00840121
0.00836869
0.00833007
0.00824458
0.00803264
0.00809525
0.00807934
0.00806331
0.00843765
0.0083899
0.0080311
0.00630361
0.00614359
0.00725558
0.00723035
0.00716021
0.00713965
0.00720064
0.00718087
0.00702638
0.00707939
0.00692656
0.00693234
0.0069479
0.00693346
0.00694982
0.0069339
0.0064967
0.00695815
0.00688179
0.00690105
0.00695256
0.0069603
0.00472234
0.00480467
0.0047812
0.00480788
0.00468023
0.00474112
0.0048115
0.0046731
0.00470945
0.00482463
0.00491935
0.0048041
0.00478335
0.00489128
0.00481168
0.00473068
0.004918
0.00521756
0.00523397
0.00508799
0.00494676
0.00498101
0.00510769
0.00538579
0.00543793
0.00524536
0.005243
0.00570565
0.00383337
0.00525656
0.00595176
0.00607852
0.00838325
0.00839082
0.00840888
0.00843287
0.00843792
0.00843475
0.00842666
0.00841635
0.00840114
0.00836742
0.00802344
0.00827811
0.00828128
0.00830635
0.00834097
0.00836884
0.00838855
0.00839947
0.00840198
0.00838889
0.00835292
0.00828465
0.00821087
0.00809216
0.00793489
0.00775218
0.00766767
0.00822326
0.00840794
0.00828414
0.00687139
0.00664348
0.00710149
0.0070938
0.00712265
0.00710878
0.00705061
0.00701345
0.00711801
0.00709171
0.00695003
0.00695729
0.0069022
0.00691469
0.0069226
0.00690284
0.00703537
0.00701862
0.00717733
0.00730147
0.00704752
0.00717841
0.00474869
0.00480179
0.00489771
0.00500643
0.00481152
0.00482466
0.00479278
0.00481504
0.00488789
0.00494878
0.00494831
0.00479319
0.00491358
0.00499377
0.00509249
0.00502446
0.00480418
0.00484197
0.00485593
0.00487782
0.00488002
0.0051275
0.00514678
0.00502289
0.0049104
0.00495594
0.00504064
0.00525367
0.00534201
0.00516027
0.00517458
0.00526399
0.0040967
0.00538061
0.005666
0.00550895
0.00837241
0.00838473
0.00842059
0.00843501
0.0084351
0.00842779
0.00841793
0.00840421
0.00837596
0.00828839
0.0082798
0.00827505
0.00829484
0.00833099
0.00836172
0.00838337
0.00839633
0.0083987
0.00838278
0.00833267
0.00824542
0.00814626
0.00809822
0.00809929
0.00792958
0.00767544
0.00800074
0.00838748
0.00817743
0.00795871
0.00584212
0.00566346
0.00707241
0.00700731
0.00710168
0.00709067
0.00689674
0.00685385
0.00696121
0.00694399
0.00690502
0.00687891
0.00688245
0.00695127
0.0069778
0.0068994
0.00736194
0.00736935
0.00764234
0.00776213
0.00511379
0.0052185
0.00530681
0.00551627
0.0048885
0.00503792
0.00519307
0.00533903
0.00492253
0.00489817
0.00494052
0.00506542
0.00504262
0.00504772
0.00500856
0.00500343
0.00512004
0.00513413
0.00520504
0.00518736
0.00497413
0.00489695
0.00502451
0.00510009
0.00494188
0.0050736
0.00510223
0.00497597
0.00497183
0.00499974
0.00500476
0.00519822
0.00517344
0.0051276
0.00517599
0.00517391
0.00392481
0.00553608
0.0053994
0.00527423
0.0083395
0.0083702
0.00842726
0.00843397
0.00842859
0.00841925
0.00840732
0.00838366
0.0083328
0.00828339
0.00827081
0.0082855
0.0083209
0.00835489
0.00837931
0.00839409
0.00839745
0.00838145
0.00832384
0.00821515
0.00808162
0.00803594
0.00807106
0.00812342
0.00795547
0.00797057
0.00822681
0.00814451
0.007619
0.00594309
0.00566224
0.00704945
0.00704567
0.00687952
0.0068749
0.00691149
0.00689446
0.00679682
0.00677205
0.00685477
0.00683118
0.00698357
0.00694763
0.00723459
0.0072687
0.00733577
0.0072649
0.00784535
0.00788489
0.00759987
0.00778133
0.00546759
0.00559031
0.00568534
0.00588986
0.00524295
0.00542124
0.0055844
0.00572043
0.00498881
0.00506424
0.00522662
0.00542718
0.00512085
0.00507845
0.00507074
0.00519775
0.00526317
0.00518541
0.00523064
0.00527302
0.00518511
0.00507064
0.00522794
0.00528688
0.00511084
0.00504749
0.00509005
0.00499231
0.00513073
0.00513702
0.00501787
0.00514647
0.00526561
0.00514502
0.00521689
0.00515982
0.00269637
0.00567831
0.00533511
0.0052229
0.0082929
0.00835673
0.00842908
0.00842817
0.00841918
0.00840889
0.00838939
0.00834429
0.0082886
0.00826638
0.00827718
0.00830964
0.00834708
0.008375
0.00839235
0.00839808
0.00838395
0.00832427
0.0082042
0.00804435
0.0080083
0.00806741
0.00814221
0.00819273
0.00810972
0.00814997
0.0081792
0.00744367
0.00754373
0.0067833
0.00568904
0.0068057
0.00679571
0.00670017
0.0066871
0.00673577
0.00671712
0.00676102
0.00671547
0.00688721
0.00682121
0.00727134
0.00720053
0.00785979
0.00778968
0.00789665
0.00788969
0.00779354
0.008199
0.00590228
0.00587328
0.00583898
0.00586366
0.0058343
0.00593111
0.00599937
0.00605331
0.00562093
0.00579704
0.00594108
0.00605083
0.0051694
0.0053654
0.00558654
0.00579485
0.00512694
0.00513279
0.00526935
0.0053277
0.00532076
0.00517551
0.00521291
0.00526726
0.0053462
0.00527423
0.00538583
0.00539516
0.00529747
0.00505262
0.00510213
0.00510525
0.00531876
0.00529351
0.00508517
0.00526747
0.00533724
0.00519227
0.00526568
0.00559419
0.00357942
0.00605574
0.00529939
0.00519147
0.0082483
0.00833947
0.00842549
0.00841821
0.00840855
0.00839243
0.0083537
0.00829637
0.00826299
0.00826802
0.00829663
0.00833674
0.00836811
0.0083893
0.00839843
0.00838941
0.00833284
0.00820664
0.00802799
0.00799492
0.00807114
0.00818093
0.00824774
0.00827228
0.00826055
0.00818261
0.00794924
0.00803593
0.00649967
0.0058062
0.00657208
0.00653171
0.00659739
0.0065759
0.0066563
0.00664336
0.00668679
0.00666788
0.0068638
0.00676114
0.00709452
0.00697871
0.00768471
0.00755801
0.0081081
0.00805852
0.00817477
0.00814207
0.00582589
0.00545901
0.00748428
0.00619375
0.00616002
0.00610617
0.00613691
0.00613898
0.00619602
0.00621461
0.00622266
0.00598134
0.0061337
0.006244
0.00631868
0.00547863
0.00571839
0.00594407
0.00614043
0.0051856
0.00535316
0.00558885
0.00536724
0.00529016
0.00525234
0.00530052
0.00523733
0.00543505
0.0054216
0.00546274
0.00541655
0.00544153
0.00507372
0.00513584
0.00524679
0.00545314
0.00541814
0.00518545
0.00533724
0.00538272
0.00523788
0.00531539
0.00611306
0.00420136
0.0063699
0.00528866
0.00541385
0.00820526
0.00836062
0.00841729
0.00840814
0.00839361
0.00836127
0.00830449
0.0082624
0.00825947
0.00828274
0.00832423
0.0083596
0.00838395
0.00839712
0.00839405
0.00834897
0.0082216
0.00802729
0.00798211
0.00799872
0.0080813
0.00828258
0.00831741
0.00833494
0.00829641
0.00813009
0.00823967
0.00749967
0.00648201
0.00622558
0.00654042
0.00648924
0.00653738
0.00653379
0.00658238
0.0065525
0.00667952
0.00662052
0.00626415
0.00669892
0.00741506
0.00661004
0.00798458
0.00786626
0.00813966
0.00811653
0.00785099
0.00817229
0.00605564
0.00603414
0.00579905
0.00575759
0.00628603
0.00623507
0.00613953
0.00619059
0.00636848
0.00637564
0.00635512
0.00633419
0.00630013
0.00641672
0.00648722
0.00652027
0.00582489
0.00606889
0.00627941
0.00644568
0.0054227
0.00568173
0.00593287
0.00533154
0.00525641
0.00549831
0.0055496
0.00533053
0.00543666
0.00549388
0.00545922
0.00536184
0.00551211
0.0051116
0.00518041
0.00536751
0.00552031
0.00549248
0.00528251
0.00539989
0.00539844
0.00526994
0.00536956
0.00617465
0.00472921
0.00660819
0.00532829
0.00546244
0.00820683
0.00840677
0.00840788
0.00839497
0.00836719
0.0083133
0.0082634
0.00825185
0.00826952
0.00831067
0.00835031
0.00837831
0.00839446
0.00839674
0.00836659
0.0082537
0.00804245
0.00793047
0.00798933
0.00791662
0.00771809
0.0083231
0.00835612
0.00830134
0.00818358
0.00835532
0.0081556
0.00644125
0.00625426
0.00640702
0.00640321
0.00642466
0.00641345
0.00645027
0.00643452
0.00657588
0.00649529
0.00679993
0.00667787
0.00735108
0.00713786
0.00770408
0.0075302
0.00808083
0.00800387
0.0076889
0.00798512
0.00570039
0.0057392
0.00752215
0.00607768
0.00603564
0.00594904
0.00581556
0.00635488
0.00628642
0.00616067
0.00622482
0.00653518
0.00651331
0.00646937
0.00642495
0.00656944
0.00664933
0.00668245
0.00668719
0.00617128
0.00639918
0.00657743
0.00670825
0.00575844
0.00602895
0.00627916
0.00529451
0.00535546
0.00582809
0.00587563
0.00558408
0.00537924
0.00548527
0.00540702
0.00531388
0.00551084
0.0051819
0.00521453
0.00545351
0.00551858
0.00551673
0.00536567
0.00544243
0.00540428
0.0053007
0.00542543
0.00608165
0.00407516
0.00664572
0.0053402
0.00544449
0.00823237
0.00841205
0.00839571
0.0083724
0.00832267
0.00826616
0.00824432
0.00825752
0.00829547
0.00833943
0.00837203
0.00839184
0.00839798
0.00838197
0.00829334
0.0080849
0.00789357
0.00787782
0.00807686
0.00762348
0.00785398
0.0083275
0.00835879
0.00831796
0.00825293
0.00838594
0.00762074
0.00546454
0.0053569
0.00627059
0.00625416
0.00634317
0.00629893
0.00646251
0.00639958
0.0066599
0.00654315
0.00695416
0.00680689
0.00751089
0.00732089
0.00787383
0.00770217
0.00801119
0.00798857
0.00529481
0.00557513
0.00755457
0.00567759
0.00575227
0.00528762
0.00532712
0.00609009
0.00602782
0.00585964
0.00567057
0.00641537
0.00631462
0.00617238
0.00625211
0.00667876
0.00663401
0.00656755
0.00649845
0.00679781
0.00684467
0.00685395
0.00683956
0.00650081
0.00669785
0.00684266
0.00694443
0.00611194
0.00638256
0.00661436
0.00538268
0.005608
0.00617686
0.00623648
0.00591517
0.0053291
0.00543469
0.00536029
0.0053856
0.00547317
0.00524409
0.00522858
0.00549298
0.00548597
0.00549494
0.00539208
0.00547145
0.00541991
0.00534436
0.0054767
0.00587933
0.00445079
0.00609298
0.00535215
0.00541116
0.00821355
0.00840159
0.00837625
0.008332
0.00827222
0.008239
0.00824595
0.00827964
0.00832596
0.00836361
0.0083883
0.00839841
0.00839292
0.00833275
0.00814579
0.00791202
0.00777148
0.00805676
0.00820141
0.00720386
0.00829546
0.00830676
0.00833405
0.00835777
0.00833428
0.00803168
0.00609608
0.00604038
0.00618067
0.00616728
0.00623139
0.00620094
0.0063441
0.00627704
0.006547
0.00643576
0.0068229
0.00667739
0.007138
0.00697289
0.00757754
0.00741012
0.00762576
0.00749218
0.00765814
0.00785186
0.00537278
0.00569676
0.00532615
0.00520818
0.00551842
0.00543439
0.00541262
0.00545497
0.00608601
0.00599678
0.00574752
0.00553455
0.00590699
0.00573711
0.00574796
0.0056851
0.00680701
0.00662932
0.00632356
0.00609884
0.00700854
0.00703865
0.00703237
0.00697261
0.00680708
0.00697612
0.00709514
0.00717616
0.00647743
0.00673091
0.00693452
0.00562196
0.00594075
0.00655442
0.00663816
0.00628765
0.0053756
0.00539867
0.00539474
0.00560183
0.00543546
0.00524137
0.00523435
0.00545238
0.00542809
0.00541673
0.00532976
0.00550825
0.005449
0.00540633
0.00553563
0.00538647
0.0048094
0.00683093
0.00538417
0.00540259
0.00817748
0.00837978
0.00834034
0.008281
0.00823791
0.00823599
0.00826361
0.00831181
0.00835277
0.0083826
0.00839784
0.00839958
0.00836591
0.00821234
0.00795436
0.0077685
0.00796479
0.00822166