/*--------------------------------*- C++ -*----------------------------------*\
  =========                 |
  \\      /  F ield         | OpenFOAM: The Open Source CFD Toolbox
   \\    /   O peration     | Website:  https://openfoam.org
    \\  /    A nd           | Version:  dev
     \\/     M anipulation  |
\*---------------------------------------------------------------------------*/
FoamFile
{
    version     2.0;
    format      ascii;
    class       volScalarField;
    location    "2500";
    object      rDeltaT;
}
// * * * * * * * * * * * * * * * * * * * * * * * * * * * * * * * * * * * * * //

dimensions      [0 0 -1 0 0 0 0];

internalField   nonuniform List<scalar> 
9836
(
100
100
100
100
100
100
100
100
100
100
100
100
100
100
100
100
100
100
100
100
100
100
100
100
100
100
100
100
100
100
100
100
100
100
100
100
100
100
100
100
100
100
100
100
100
100
100
100
100
100
100
100
100
100
100
100
100
100
100
100
100
100
100
100
100
100
100
100
100
100
100
100
100
100
100
100
100
100
100
100
100
100
100
100
100
100
100
100
100
100
100
100
100
100
100
100
100
100
100
100
100
100
100
100
100
100
100
100
100
100
100
100
100
100
100
100
100
100
100
100
100
100
100
100
100
100
100
100
100
100
100
100
100
100
100
100
100
100
100
100
100
100
100
100
100
100
100
100
100
100
100
100
100
100
100
100
100
100
100
100
100
100
100
100
100
100
100
100
100
100
100
100
100
100
100
100
100
100
100
100
100
100
100
100
100
100
100
100
100
100
100
100
100
100
100
100
100
100
100
100
100
100
100
100
100
100
100
100
100
100
100
100
100
100
100
100
100
100
100
100
100
100
100
100
100
100
100
100
100
100
100
100
100
100
100
100
100
100
100
100
100
100
100
100
100
100
100
100
100
100
100
100
100
100
100
100
100
100
100
100
100
100
100
100
100
100
100
100
100
100
100
100
100
100
100
100
100
100
100
100
100
100
100
100
100
100
100
100
100
100
100
100
100
100
100
100
100
100
100
100
100
100
100
100
100
100
100
100
100
100
100
100
100
100
100
100
100
100
100
100
100
100
100
100
100
100
100
100
100
100
100
100
100
100
100
100
100
100
100
100
100
100
100
100
100
100
100
100
100
100
100
100
100
100
100
100
100
100
100
100
100
100
100
100
100
100
100
100
100
100
100
100
100
100
100
100
100
100
100
100
100
100
100
100
100
100
100
100
100
100
100
100
100
100
100
100
100
100
100
100
100
100
100
100
100
100
100
100
100
100
100
100
100
100
100
100
100
100
100
100
100
100
100
100
100
100
100
100
100
100
100
100
100
100
100
100
100
100
100
100
100
100
100
100
100
100
100
100
100
100
100
100
100
100
100
100
100
100
100
100
100
100
100
100
100
100
100
100
100
100
100
100
100
100
100
100
100
100
100
100
100
100
100
100
100
100
100
100
100
100
100
100
100
100
100
100
100
100
100
100
100
100
100
100
100
100
100
100
100
100
100
100
100
100
100
100
100
100
100
100
100
100
100
100
100
100
100
100
100
100
100
100
100
100
100
100
100
100
100
100
100
100
100
100
100
100
100
100
100
100
100
100
100
100
100
100
100
100
100
100
100
100
100
100
100
100
100
100
100
100
100
100
100
100
100
100
100
100
100
100
100
100
100
100
100
100
100
100
100
100
100
100
100
100
100
100
100
100
100
100
100
100
100
100
100
100
100
100
100
100
100
100
100
100
100
100
100
100
100
100
100
100
100
100
100
100
100
100
100
100
100
100
100
100
100
100
100
100
100
100
100
100
100
100
100
100
100
100
100
100
100
100
100
100
100
100
100
100
100
100
100
100
100
100
100
100
100
100
100
100
100
100
100
100
100
100
100
100
100
100
100
100
100
100
100
100
100
100
100
100
100
100
100
100
100
100
100
100
100
100
100
100
100
100
100
100
100
100
100
100
100
100
100
100
100
100
100
100
100
100
100
100
100
100
100
100
100
100
100
100
100
100
100
100
100
100
100
100
100
100
100
100
100
100
100
100
100
100
100
100
100
100
100
100
100
100
100
100
100
100
100
100
100
100
100
100
100
100
100
100
100
100
100
100
100
100
100
100
100
100
100
100
100
100
100
100
100
100
100
100
100
100
100
100
100
100
100
100
100
100
100
100
100
100
100
100
100
100
100
100
100
100
100
100
100
100
100
100
100
100
100
100
100
100
100
100
100
100
100
100
100
100
100
100
100
100
100
100
100
100
100
100
100
100
100
100
100
100
100
100
100
100
100
100
100
100
100
100
100
100
100
100
100
100
100
100
100
100
100
100
100
100
100
100
100
100
100
100
100
100
100
100
100
100
100
100
100
100
100
100
100
100
100
100
100
100
100
100
100
100
100
100
100
100
100
100
100
100
100
100
100
100
100
100
100
100
100
100
100
100
100
100
100
100
100
100
100
100
100
100
100
100
100
100
100
100
100
100
100
100
100
100
100
100
100
100
100
100
100
100
100
100
100
100
100
100
100
100
100
100
100
100
100
100
100
100
100
100
100
100
100
100
100
100
100
100
100
100
100
100
100
100
100
100
100
100
100
100
100
100
100
100
100
100
100
100
100
100
100
100
100
100
100
100
100
100
100
100
100
100
100
100
100
100
100
100
100
100
100
100
100
100
100
100
100
100
100
100
100
100
100
100
100
100
100
100
100
100
100
100
100
100
100
100
100
100
100
100
100
100
100
100
100
100
100
100
100
100
100
100
100
100
100
100
100
100
100
100
100
100
100
100
100
100
100
100
100
100
100
100
100
100
100
100
100
100
100
100
100
100
100
100
100
100
100
100
100
100
100
100
100
100
100
100
100
100
100
100
100
100
100
100
100
100
100
100
100
100
100
100
100
100
100
100
100
100
100
100
100
100
100
100
100
100
100
100
100
100
100
100
100
100
100
100
100
100
100
100
100
100
100
100
100
100
100
100
100
100
100
100
100
100
100
100
100
100
100
100
100
100
100
100
100
100
100
100
100
100
100
100
100
100
100
100
100
100
100
100
100
100
100
100
100
100
100
100
100
100
100
100
100
100
100
100
100
100
100
100
100
100
100
100
100
100
100
100
100
100
100
100
100
100
100
100
100
100
100
100
100
100
100
100
100
100
100
100
100
100
100
100
100
100
100
100
100
100
100
100
100
100
100
100
100
100
100
100
100
100
100
100
100
100
100
100
100
100
100
100
100
100
100
100
100
100
100
100
100
100
100
100
100
100
100
100
100
100
100
100
100
100
100
100
100
100
100
100
100
100
100
100
100
100
100
100
100
100
100
100
100
100
100
100
100
100
100
100
100
100
100
100
100
100
100
100
100
100
100
100
100
100
100
100
100
100
100
100
100
100
100
100
100
100
100
100
100
100
100
100
100
100
100
100
100
100
100
100
100
100
100
100
100
100
100
100
100
100
100
100
100
100
100
100
100
100
100
100
100
100
100
100
100
100
100
100
100
100
100
100
100
100
100
100
100
100
100
100
100
100
100
100
100
100
100
100
100
100
100
100
100
100
100
100
100
100
100
100
100
100
100
100
100
100
100
100
100
100
100
100
100
100
100
100
100
100
100
100
100
100
100
100
100
100
100
100
100
100
100
100
100
100
100
100
100
100
100
100
100
100
100
100
100
100
100
100
100
100
100
100
100
100
100
100
100
100
100
100
100
100
100
100
100
100
100
100
100
100
100
100
100
100
100
100
100
100
100
100
100
100
100
100
100
100
100
100
100
100
100
100
100
100
100
100
100
100
100
100
100
100
100
100
100
100
100
100
100
100
100
100
100
100
100
100
100
100
100
100
100
100
100
100
100
100
100
100
100
100
100
100
100
100
100
100
100
100
100
100
100
100
100
100
100
100
100
100
100
100
100
100
100
100
100
100
100
100
100
100
100
100
100
100
100
100
100
100
100
100
100
100
100
100
100
100
100
100
100
100
100
100
100
100
100
100
100
100
100
100
100
100
100
100
100
100
100
100
100
100
100
100
100
100
100
100
100
100
100
100
100
100
100
100
100
100
100
100
100
100
100
100
100
100
100
100
100
100
100
100
100
100
100
100
100
100
100
100
100
100
100
100
100
100
100
100
100
100
100
100
100
100
100
100
100
100
100
100
100
100
100
100
100
100
100
100
100
100
100
100
100
100
100
100
100
100
100
100
100
100
100
100
100
100
100
100
100
100
100
100
100
100
100
100
100
100
100
100
100
100
100
100
100
100
100
100
100
100
100
100
100
100
100
100
100
100
100
100
100
100
100
100
100
100
100
100
100
100
100
100
100
100
100
100
100
100
100
100
100
100
100
100
100
100
100
100
100
100
100
100
100
100
100
100
100
100
100
100
100
100
100
100
100
100
100
100
100
100
100
100
100
100
100
100
100
100
100
100
100
100
100
100
100
100
100
100
100
100
100
100
100
100
100
100
100
100
100
100
100
100
100
100
100
100
100
100
100
100
100
100
100
100
100
100
100
100
100
100
100
100
100
100
100
100
100
100
100
100
100
100
100
100
100
100
100
100
100
100
100
100
100
100
100
100
100
100
100
100
100
100
100
100
100
100
100
100
100
100
100
100
100
100
100
100
100
100
100
100
100
100
100
100
100
100
100
100
100
100
100
100
100
100
100
100
100
100
100
100
100
100
100
100
100
100
100
100
100
100
100
100
100
100
100
100
100
100
100
100
100
100
100
100
100
100
100
100
100
100
100
100
100
100
100
100
100
100
100
100
100
100
100
100
100
100
100
100
100
100
100
100
100
100
100
100
100
100
100
100
100
100
100
100
100
100
100
100
100
100
100
100
100
100
100
100
100
100
100
100
100
100
100
100
100
100
100
100
100
100
100
100
100
100
100
100
100
100
100
100
100
100
100
100
100
100
100
100
100
100
100
100
100
100
100
100
100
100
100
100
100
100
100
100
100
100
100
100
100
100
100
100
100
100
100
100
100
100
100
100
100
100
100
100
100
100
100
100
100
100
100
100
100
100
100
100
100
100
100
100
100
100
100
100
100
100
100
100
100
100
100
100
100
100
100
100
100
100
100
100
165.991
100
100
100
100
100
100
100
100
100
100
100
100
100
100
100
100
100
100
100
100
100
100
100
100
100
100
100
100
100
100
100
100
100
100
100
100
100
100
100
100
100
100
100
100
100
100
100
100
100
100
100
100
100
100
100
100
100
100
100
100
100
100
100
100
100
100
100
100
100
100
100
100
100
100
100
100
100
100
100
100
100
100
100
100
100
100
100
100
100
100
100
100
100
100
100
100
100
100
100
100
100
100
100
100
100
100
100
100
100
100
100
100
100
100
100
100
100
100
100
100
100
100
100
100
100
100
100
100
100
100
100
100
100
100
100
100
100
100
100
100
100
100
100
100
100
100
100
100
100
100
100
100
100
100
100
100
100
100
100
100
100
100
100
100
100
100
100
100
100
100
100
100
100
100
100
100
100
100
100
100
100
100
100
100
100
100
100
100
100
100
100
100
100
100
100
100
100
100
100
100
100
100
100
100
100
100
100
100
100
100
100
100
100
100
100
100
100
100
100
100
100
100
100
100
100
100
100
100
100
100
100
100
100
100
100
100
100
100
100
100
100
100
100
100
100
100
100
100
100
100
100
100
100
100
100
100
100
100
100
100
100
100
100
100
100
100
100
100
100
100
100
100
100
100
100
100
100
100
100
100
100
100
100
100
100
100
100
100
100
100
100
100
100
100
100
100
100
100
100
100
100
100
100
100
100
100
100
100
100
100
100
100
100
100
100
100
100
100
100
100
100
100
100
100
100
100
100
100
100
100
100
100
100
100
100
100
100
100
100
100
100
100
100
100
100
100
100
100
100
100
100
100
100
100
100
100
100
100
100
100
100
100
100
100
100
100
100
100
100
100
100
100
100
100
100
100
100
100
100
100
100
100
100
100
100
100
100
100
100
100
100
100
100
100
100
100
100
100
100
100
100
100
100
100
100
100
100
100
100
100
100
100
100
100
100
100
100
100
100
100
100
100
100
100
100
100
100
100
100
100
100
100
100
100
100
100
100
100
100
100
100
100
100.424
100
100
100
100
100
100
100
100
100
100
100
100
100
100
100
100
100
100
100
100
100
100
100
100
100
100
100
100
100
100
100
100
100
100
100
100
100
100
100
100
100
100
100
100
100
100
100
100
100
100
100
100
100
100
100
100
100
100
100
100
100
100
100
100
100
100
100
100
100
100
100
100
100
100
100
100
100
100
100
100
100
100
100
100
100
100
100
100
100
100
100
100
100
100
100
100
100
100
100
100
114.204
115.355
111.44
114.425
100
102.36
107.535
111.277
100
100
100
100.46
100
100
100
100
100
100
100
100
100
100
100
100
100
100
100
100
100
100
100
100
100
100
100
100
100
100
100
100
100
100
100
100
100
100
100
100
100
100
100
100
100
100
100
100
100
100
100
100
100
100
100
100
100
100
100
100
100
100
100
100
100
100
100
100
100
100
100
100
100
100
100
100
100
100
100
100
100
100
100
100
100
100
100
100
100
100
100
106.36
100
107.319
102.323
128.719
130.554
126.836
129.804
107.373
113.959
120.079
124.877
100
100
102.047
110.206
100
100
100
100
100
100
100
100
100
100
100
100
100
100
100
100
100
100
100
100
100
100
100
100
100
100
100
100
100
100
100
100
100
100
100
100
100
100
100
100
100
100
100
100
100
100
100
100
100
100
100
100
100
100
100
100
100
100
100
100
100
100
100
100
100
100
100
100
100
100
100
100
100
100
100
100
100
100
100
100
100
100
100
100
100
100
101.331
106.843
121.255
113.677
121.39
115.957
143.661
146.148
142.926
145.73
118.463
125.772
132.64
138.856
100
102.262
110.985
120.137
100
100
100
100
100
100
100
100
100
100
100
100
100
101.944
105.757
100
105.803
100
100
100
108.676
108.796
100
100
100
100
100
100
100
100
100
100
100
100
100
100
100
100
100
100
100
100
100
100
100
100
100
100
100
100
100
100
100
100
100
100
100
100
100
100
100
100
100
100
100
100
100
100
100
100
100
100
100
100
100
100
100
100
100
100
100
109.154
102.68
108.173
100
111.369
109.512
115.169
120.47
136.345
127.979
135.474
129.229
159.106
162.095
158.894
161.869
129.546
137.907
145.886
153.611
101.694
110.772
120.308
130.27
100
100
100
101.417
100
100
100
100
100
100
107.835
102.095
107.702
111.018
115.325
108.991
116.948
100
100
111.869
120.329
127.249
112.531
100
100
100
100
100
100
100
100
100
100
100
100
100
100
100
100
100
100
100
100
100
100
100
100
100
100
100
100
100
100
100
100
100
100
100
100
100
100
100
100
100
100
100
100
100
100
100
100
100
100
100
100
100
100
100
100
100
100
100
123.914
117.042
121.276
111.433
124.89
123.593
129.04
133.521
151.342
142.599
149.752
142.518
174.549
178.381
175.082
178.402
140.654
150.457
159.339
168.065
110.434
120.144
130.473
141.247
100
100
102.901
111.706
102.615
109.123
112.767
111.786
118.363
115.579
144.181
130.006
120.479
124.629
133.616
129.117
131.89
109.56
106.182
130.884
143.226
150.317
130.573
100
100
100.4
100
100
100
100
100
100
100
100
100
100
100
100
100
100
100
100
100
100
100
100
100
100
100
100
100
100
100
100
100
100
100
100
100
100
100
100
100
100
100
100
100
100
100
100
100
100
100
100
100
100
100
100
100
101.086
100
100
100
138.271
130.37
134.352
124.352
139.027
137.452
143.897
147.703
167.318
158.319
164.284
157.077
191.099
195.839
192.288
196.044
152.623
163.944
173.549
183.153
120.944
131.073
142.147
153.756
113.993
113.844
117.321
125.372
125.098
135.799
141.408
143.293
159.46
158.533
185.412
175.426
147.718
146.385
165.072
169.267
162.066
129.913
124.188
154.873
172.951
182.352
157.222
100
100
114.281
100.944
100
100
100
100
100
100
100
100
100
100
100
100
100
100
100
100
100
100
100
100
100
100
100
100
100
100
100
100
100
100
100
100
100
100
100
100
100
100
100
100
100
100
100
100
100
100
100
100
100
100
100
100
100
113.593
102.718
100
103.622
151.674
143.407
147.741
137.115
154.542
151.926
158.378
162.554
184.556
174.803
178.992
172.642
208.268
214.32
211.069
214.923
165.775
178.034
188.618
198.96
134.076
144.046
155.985
169.044
140.08
139.177
139.842
144.12
170.74
184.863
182.339
194.238
195.035
191.408
213.238
207.851
188
185.386
210.394
209.793
197.866
150.342
139.304
186.694
209.486
220.493
177.546
100
100
125.3
112.368
100
100
100
100
100
100
100
100
100
100
100
100
100
100
100
100
100
100
100
100
100
100
100
100
100
100
100
100
100
100
100
100
100
100
100
100
100
100
100
100
100
100
100
100
100
100
100
100
100
100
100
100
100
100
100
126.118
114.886
104.095
115.275
165.437
157.171
160.676
149.877
170.058
166.177
172.764
178.473
203.146
191.743
195.465
189.424
226.141
233.575
231.464
234.609
181.43
193.332
205.464
215.827
151.964
160.526
172.906
188.434
179.382
173.749
172.843
171.933
206.752
222.792
245.144
213.736
258.997
255.508
152.492
277.731
219.549
222.849
225.408
236.127
229.573
165.795
152.599
206.561
230.455
223.048
194.368
100
100
139.393
121.412
100
120.669
100
100
100
100
100
100
100
100
100
100
100
100
100
100
100
100
100
100
100
100
100
100
100
100
100
100
100
100
100
100
100
100
100
100
100
100
100
100
100
100
100
100
100
100
100
100
100
100
100
100
100
104.117
100
100
138.98
127.02
115.862
127.168
179.662
170.81
172.963
162.472
185.724
181.373
187.068
194.012
223.274
209.533
213.607
205.622
245.168
254.318
254.449
256.774
203.39
211.601
224.614
233.549
177.089
182.453
192.29
206.893
246.821
233.472
229.996
229.589
285.255
157.225
291.469
147.775
312.838
306.805
185.194
336.619
283.033
239.086
149.638
161.209
247.989
183.143
169.786
222.964
291.105
242.878
273.749
215.366
107.132
100
150.185
133.456
100
439.085
150.46
100
100
100
100
100
100
100
100
100
100
100
100
100
100
100
100
100
100
100
100
100
100
100
100
100
100
100
100
100
100
100
100
100
100
100
100
100
100
100
100
100
100
100
100
100
100
100
100
100
115.666
103.418
101.342
151.685
139.206
127.745
139.349
193.213
183.331
184.786
174.668
200.465
197.034
201.206
208.838
245.341
228.755
234.564
221.992
266.593
277.479
280.495
282.893
224.734
231.697
243.428
251.212
230.429
233.983
240.64
249.263
288.201
274.903
270.719
268.968
338.745
187.885
337.461
181.845
369.295
357.859
215.57
392.757
341.288
154.869
180.727
194.57
162.354
203.542
181.801
232.725
345.442
159.528
330.009
218.115
116.679
105.533
164.146
144.332
100
204.952
100
100
100
100
100
100
100
100
100
100
100
100
100
100
100
100
100
100
100
100
100
100
100
100
100
100
100
100
100
100
100
100
100
100
100
100
100
100
100
100
100
100
100
100
100
100
100
100
100
100
125.379
113.206
108.89
163.977
151.512
137.618
149.892
205.664
194.95
195.336
184.843
215.384
212.697
214.81
222.491
269.96
251.97
257.844
239.923
280.864
300.436
307.625
310.902
276.657
272.946
273.291
269.665
266.908
270.741
276.111
284.057
332.574
318.399
314.81
310.955
388.691
215.638
383.628
214.866
420.568
407.599
242.317
444.299
402.499
186.88
215.306
229.874
194.645
206.447
194.657
152.893
406.186
191.273
395.818
148.873
129.23
114.159
176.584
159.101
100
100
100
103.673
100
100
100
100
100
100
100
100
100
100
100
100
100
100
100
100
100
100
100
100
100
100
100
100
100
100
100
100
100
100
100
100
100
100
100
100
100
100
100
100
100
100
100
100
100
100
101.718
100
100
100
132.706
120.656
113.3
173.952
162.215
145.021
157.331
216.011
205.417
203.269
191.633
230.058
226.174
225.304
232.888
296.326
278.909
286.967
262.633
307.415
334.521
331.266
330.175
305.248
165.422
300.668
300.051
308.74
311.694
317.249
324.462
377.829
362.192
360.465
355.426
436.36
240.959
243.223
455.718
222.606
245.132
260.257
230.01
215.512
263.926
202.58
183.014
460.785
227.641
451.954
178.289
138.735
120.195
190.716
171.515
100
100
100
103.781
100
100
100
100
100
100
100
100
100
100
100
100
100
100
100
100
100
100
100
100
100
100
100
100
100
100
100
100
100
100
100
100
100
100
100
100
100
100
100
100
100
100
100
100
100
100
101.204
100
100
100
136.527
124.761
113.256
180.77
169.833
149.256
161.161
223.984
214.018
208.453
196.084
245.439
236.93
232.223
239.443
324.764
310.435
319.968
293.306
188.894
329.717
360.631
345.675
337.897
186.791
332.004
330.852
353.703
356.592
362.877
371.214
253.521
260.609
145.318
318.587
214.936
260.221
218.367
259.954
212.003
146.471
123.232
200.15
181.46
100
100
100
100.347
100
100
100
100
100
100
100
100
100
100
100
100
100
100
100
100
100
100
100
100
100
100
100
100
100
100
100
100
100
100
100
100
100
100
100
100
100
100
100
100
100
100
100
100
100
100
100
100
100
100
100
100
100
137.723
125.433
111.18
184.793
173.532
150.718
162.663
229.808
220.107
212.23
200.12
265.252
246.895
237.484
247.094
344.643
338.903
340.232
332.431
205.094
360.277
196.924
372.512
378.562
209.008
372.225
364.313
176.309
383.837
145.628
314.433
250.78
242.977
151.53
123.49
211.007
256.648
179.443
100
100
105.641
100
100
100
100
100
100
100
100
100
100
100
100
100
100
100
100
100
100
100
100
100
100
100
100
100
100
100
100
100
100
100
100
100
100
100
100
100
100
100
100
100
100
100
100
100
100
100
100
100
100
100
100
100
100
138.167
124.226
111.546
187.605
175.324
152.366
165.793
234.997
223.86
217.341
206.143
296.717
264.09
245.675
263.887
352.467
364.681
347.806
344.729
224.737
395.496
213.832
406.446
233.138
417.713
399.188
212.318
444.552
176.479
378.2
151.677
123.136
147.014
311.896
178.135
241.937
100
100
132.79
100
100
100
100
100
100
100
100
100
100
100
100
100
100
100
100
100
100
100
100
100
100
100
100
100
100
100
100
100
100
100
100
100
100
100
100
100
100
100
100
100
100
100
100
100
100
100
100
100
100
100
100
100
100
100
100
139.753
125.337
113.314
192.96
179.694
155.341
171.413
243.986
229.189
225.573
213.872
334.201
295.387
264.969
294.483
380.802
203.512
197.39
379.802
243.668
235.82
437.488
246.091
212.365
438.714
151.16
126.364
176.118
376.13
179.589
227.7
288.149
100.842
100
150.071
101.009
100
100
100
100
100
100
100
100
100
100
100
100
100
100
100
100
100
100
100
100
100
100
100
100
100
100
100
100
100
100
100
100
100
100
100
100
100
100
100
100
100
100
100
100
100
100
100
100
100
100
100
100
100
100
100
100
100
145.641
129.596
115.6
200.284
186.789
162.498
179.347
263.726
241.437
240.022
225.585
343.235
327.317
292.709
325.229
418.333
217.914
194.389
213.305
421.796
254.089
246.039
158.243
132.496
209.616
436.286
196.663
230.269
276.189
341.728
124.479
100
165.059
105.805
103.401
100
100
100
100
100
100
100
100
100
100
100
100
100
100
100
100
100
100
100
100
100
100
100
100
100
100
100
100
100
100
100
100
100
100
100
100
100
100
100
100
100
100
100
100
100
100
100
100
100
100
100
100
100.839
100
100
100
152.658
133.974
119.828
209.849
195.263
172.267
188.742
291.276
263.135
261.429
240.442
335.094
320.144
331.039
448.435
239.192
213.589
190.018
236.174
455.003
170.215
139.82
240.259
218.963
244.076
279.264
334.374
391.643
146.963
100
173.863
111.611
118.816
100
100
100
100
100
100
100
100
100
100
100
100
100
100
100
100
100
100
100
100
100
100
100
100
100
100
100
100
100
100
100
100
100
100
100
100
100
100
100
100
100
100
100
100
100
100
100
100
100
100
100
100
100
100
104.274
100
100
100
159.595
139.412
124.945
220.693
203.742
182.259
200.148
316.801
289.344
284.989
258.95
324.751
189.117
257.381
237.537
210.688
255.055
175.325
138.207
144.794
298.246
338.263
388.929
169.19
100
177.319
119.23
136.787
100
100
100
100
100
100
100
100
100
100
100
100
100
100
100
100
100
100
100
100
100
100
100
100
100
100
100
100
100
100
100
100
100
100
100
100
100
100
100
100
100
100
100
100
100
100
100
100
100
100
100
100
100
108.482
100
100
100
168.372
146.395
130.658
236.431
216.57
192.731
210.714
315.802
311.501
307.052
281.425
189.036
211.225
257.462
234.896
172.94
234.005
136.681
172.95
358.547
393.291
187.267
100
178.048
131.007
153.473
100
100
100
100
100
100
100
100
100
100
100
100
100
100
100
100
100
100
100
100
100
100
100
100
100
100
100
100
100
100
100
100
100
100
100
100
100
100
100
100
100
100
100
100
100
100
100
100
100
100
100
100
100
100
100
114.523
102.467
100
100
178.327
154.086
136.188
257.084
231.201
204.764
222.773
186.357
319.316
324.614
304.59
211.316
235.459
256.032
167.748
235.396
280.605
145.757
206.248
415.1
200.69
100
177.6
142.336
168.26
100
100
100
100
100
100
100
100
100
100
100
100
100
100
100
100
100
100
100
100
100
100
100
100
100
100
100
100
100
100
100
100
100
100
100
100
100
100
100
100
100
100
100
100
100
100
100
100
100
100
100
100
100
100
100
100
122.779
109.816
101.385
187.199
160.568
145.296
278.968
248.012
215.869
235.537
206.246
358.82
338.098
327.791
320.102
234.109
257.11
175.818
227.793
280.537
335.539
154.872
236.964
207.006
100
174.186
151.65
178.374
100
100
100
100
100
100
100
100
100
100
100
100
100
100
100
100
100
100
100
100
100
100
100
100
100
100
100
100
100
100
100
100
100
100
100
100
100
100
100
100
100
100
100
100
100
101.492
100
100
100
107.784
112.289
100
100
100
100
100
100
100
100
129.847
118.477
197.626
170.522
152.887
299.731
267.113
225.897
247.746
226.689
394.812
204.444
201.589
317.006
254.795
184.875
229.486
272.714
334.655
387.527
162.243
204.977
100
163.802
156.073
182.164
100
100
100
100
100
100
100
100
100
100
100
100
100
100
100
100
100
100
100
100
100
100
100
100
100
100
100
100
100
100
100
100
100
100
100
100
100
100
100
100
100
100
100
100
116.965
110.037
102.674
100
123.378
128.492
100
100
100
100
100
100
100
100
100
100
137.577
209.233
179.761
160.175
313.84
285.174
238.76
262.683
247.758
428.689
226.355
347.155
214.501
339.64
189.603
236.6
273.906
326.934
385.328
162.622
188.015
146.295
180.003
156.073
175.796
100
100
100
100
100
100
100
100
100
100
100
100
100
100
100
100
100
100
100
100
100
100
100
100
100
100
100
100
100
100
100
100
100
100
100
100
100
100
100
100
100
100
100
100
100
131.984
124.951
117.329
108.905
138.973
146.396
100
100
100
100
100
100
100
100
100
101.031
100.701
111.823
217.84
187.046
167.977
322.367
301.765
250.445
280.576
464.718
244.7
373.801
388.738
227.554
352.981
187.307
240.226
282.178
327.623
376.527
158.232
193.69
343.331
232.234
148.668
162.35
100
100
100
100
100
100
100
100
100
100
100
100
100
100
100
100
100
100
100
100
100
100
100
100
100
100
100
100
100
100
100
100
100
100
100
100
100
100
100
100
100
100
100
100
100
146.829
139.482
131.604
122.813
155.478
100
100
100
100
100
100
100
100
100
100
112.449
110.528
124.476
225.778
194.318
175.241
330.86
321.044
261.37
296.954
262.628
399.075
407.542
215.066
243.82
227.954
174.863
146.695
286.536
336.751
376.67
149.127
197.679
828.542
319.062
136.224
146.455
100
100
100
100
100
100
100
100
100
100
100
100
100
100
100
100
100
100
100
100
100
100
100
100
100
100
100
100
100
100
100
100
100
100
100
100
100
100
100
100
100
100
100
100
100
162.134
153.36
145.304
136.17
100
100
100
100
100
100
100
100
100
100
105.866
100
123.501
119.797
136.389
232.719
200.524
180.782
344.781
338.061
272.142
313.597
427.606
425.522
226.025
368.32
208.981
162.562
176.697
263.676
340.478
386.189
140.781
155.967
167.306
100
125.523
122.117
100
100
100
100
100
100
100
100
100
100
100
100
100
100
100
100
100
100
100
100
100
100
100
100
100
100
100
100
100
100
100
100
100
100
100
100
100
100
100
100
100
100
100
100
100
167.287
157.948
148.839
100
100
100
100
100
100
100
100
100
100
100
100
113.177
104.317
133.844
128.311
147.8
238.053
205.267
184.695
375.097
352.416
281.297
327.883
451.537
234.834
387.765
419.895
189.006
154.415
209.615
314.793
238.263
389.517
132.224
100
100
100
110.795
100
100
100
100
100
100
100
100
100
100
100
100
100
100
100
100
100
100
100
100
100
100
100
100
100
100
100
100
100
100
100
100
100
100
100
100
100
100
100
100
100
100
100
100
100
100
170.744
160.577
100
100
100
100
100
100
100
100
100
100
100
100
100
100
119.596
108.698
143.755
136.11
158.5
238.386
207.406
187.17
396.536
362.433
281.993
328.991
245.496
403.865
432.228
230.011
180.463
148.541
238.689
370.593
288.424
237.712
123.768
100
100
100
100
100
100
100
100
100
100
100
100
100
100
100
100
100
100
100
100
100
100
100
100
100
100
100
100
100
100
100
100
100
100
100
100
100
100
100
100
100
100
100
100
100
100
100
100
100
100
172.627
100
100
100
100
100
100
100
100
100
100
100
100
100
100
100
125.195
112.352
152.868
143.076
170.042
235.392
207.475
187.17
358.082
277.411
322.798
419.348
438.673
238.944
374.601
173.493
141.476
420.479
345.584
285.594
229.891
112.967
100
100
100
100
100
100
100
100
100
100
100
100
100
100
100
100
100
100
100
100
100
100
100
100
100
100
100
100
100
100
100
100
100
100
100
100
100
100
100
100
100
100
100
100
100
100
100
100
100
100
100
100
100
100
100
100
100
100
100
100
100
100
100
100
100.475
100
130.182
115.874
162.885
151.077
182.554
227.818
203.418
354.478
268.421
314.792
447.454
244.753
390.949
370.382
173.919
132.048
396.886
340.002
280.227
144.078
113.915
100
100
100
100.111
100
100
100
100
100
100
100
100
100
100
100
100
100
100
100
100
100
100
100
100
100
100
100
100
100
100
100
100
100
100
100
100
100
100
100
100
100
100
100
100
100
100
100
100
100
100
100
100
100
100
100
100
100
100
100
100
100
100
100
100
100
100
103.64
100
136.559
121.984
172.861
159.565
195.609
218.035
345.627
257.863
304.88
247.769
401.486
385.835
357.341
196.844
163.839
126.18
389.937
337.32
173.475
249.507
129.523
100
100
100
100
100
100
100
100
100
100
100
100
100
100
100
100
100
100
100
100
100
100
100
100
100
100
100
100
100
100
100
100
100
100
100
100
100
100
100
100
100
100
100
100
100
100
100
100
100
100
100
100
100
100
100
100
100
100
100
100
100
100
100
100
100
100
100
112.144
113.812
145.11
131.98
184.507
171.699
206.769
335.076
246.133
295.345
404.152
397.628
375.899
350.299
187.341
149.965
132.653
388.721
206.79
307.371
140.9
124.033
100
100
100
100
100
100
100
100
100
100
100
100
100
100
100
100
100
100
100
100
100
100
100
100
100
100
100
100
100
100
100
100
100
100
100
100
100
100
100
100
100
100
100
100
100
100
100
100
100
100
100
100
100
100
100
100
100
100
100
100
100
100
100
100
100
100
100
114.614
114.218
126.815
130.929
159.004
147.95
194.654
327.793
233.904
284.773
400.297
389.972
365.855
345.708
179.651
143.353
145.85
237.782
372.772
173.539
201.488
251.191
106.083
100
100
100
100
100
100
100
100
100
100
100
100
100
100
100
100
100
100
100
100
100
100
100
100
100
100
100
100
100
100
100
100
100
100
100
100
100
100
100
100
100
100
100
100
100
100
100
100
100
100
100
105.335
100
100
100
100
100
100
100
100
100
100
100
100
100
100
100.593
112.992
110.339
133.245
133.246
146.1
151.631
183.33
172.968
319.968
222.66
274.751
392.404
379.62
359.765
342.773
167.976
150.779
140.69
433.412
209.898
310.265
191.064
142.658
100
100
100
100
100
100
100
100
100
100
100
100
100
100
100
100
100
100
100
100
100
100
100
100
100
100
100
100
100
100
100
100
100
100
100
100
100
100
100
100
100
100
100
100
100
100
100
100
100
100
100
100
100
100
122.416
100
100
100
100
100
100
100
100
100
100
100
100
100
100
115.266
131.775
128.261
155.808
156.809
170.916
177.875
212.176
313.105
263.35
384.086
373.757
357.425
337.08
162.272
159.696
124.473
244.417
375.941
175.182
186.093
207.451
257.849
100
100
100
100
100
100
100
100
100
100
100
100
100
100
100
100
100
100
100
100
100
100
100
100
100
100
100
100
100
100
100
100
100
100
100
100
100
100
100
100
100
100
100
100
100
100
100
100
100
100
100
100
100
100
100
145.991
100
100
100
100
100
100
100
100
100
100
100
100
100
102.521
108.218
137.365
155.817
151.958
183.716
186.469
207.959
215.145
304.292
257.956
378.917
371.542
350.827
330.701
165.426
154.582
100
437.759
211.631
316.336
179.451
197.479
141.052
100
100
100
100
100
100
100
100
100
100
100
100
100
100
100
100
100
100
100
100
100
100
100
100
100
100
100
100
100
100
100
100
100
100
100
100
100
100
100
100
100
100
100
100
100
100
100
100