/*--------------------------------*- C++ -*----------------------------------*\
  =========                 |
  \\      /  F ield         | OpenFOAM: The Open Source CFD Toolbox
   \\    /   O peration     | Website:  https://openfoam.org
    \\  /    A nd           | Version:  dev
     \\/     M anipulation  |
\*---------------------------------------------------------------------------*/
FoamFile
{
    version     2.0;
    format      ascii;
    class       volScalarField;
    location    "2500";
    object      rho;
}
// * * * * * * * * * * * * * * * * * * * * * * * * * * * * * * * * * * * * * //

dimensions      [1 -3 0 0 0 0 0];

internalField   nonuniform List<scalar> 
9836
(
1.17173
1.17154
1.17165
1.17154
1.17123
1.17171
1.1716
1.17103
1.17121
1.17173
1.17161
1.17092
1.17085
1.17129
1.17181
1.17162
1.17095
1.17067
1.1709
1.17138
1.17183
1.17163
1.17106
1.17056
1.17062
1.17104
1.17147
1.17185
1.17165
1.17108
1.1705
1.1704
1.17064
1.17116
1.17156
1.17188
1.1717
1.17113
1.17057
1.17026
1.17039
1.17078
1.17124
1.17158
1.17189
1.17173
1.17119
1.17065
1.17023
1.17017
1.17044
1.17092
1.17131
1.17164
1.1719
1.17171
1.1712
1.17069
1.17021
1.17002
1.1702
1.17063
1.17103
1.17136
1.17165
1.17192
1.17175
1.17126
1.17075
1.17025
1.16994
1.16996
1.17029
1.17075
1.17111
1.17143
1.17169
1.17192
1.17173
1.17131
1.17081
1.17038
1.16991
1.16982
1.17002
1.17044
1.17085
1.17117
1.17145
1.17169
1.17192
1.17172
1.17135
1.17084
1.17042
1.1699
1.16972
1.16978
1.17016
1.17059
1.17093
1.17124
1.17148
1.17171
1.17193
1.17173
1.17135
1.17092
1.17049
1.16996
1.16966
1.16963
1.16984
1.17027
1.17069
1.17099
1.17127
1.1715
1.17173
1.17193
1.17176
1.17136
1.17102
1.17058
1.1701
1.16962
1.16951
1.16966
1.17003
1.17043
1.17077
1.17105
1.1713
1.17153
1.17174
1.17193
1.17176
1.17136
1.17107
1.17057
1.1701
1.1696
1.16943
1.16947
1.16975
1.17015
1.17055
1.17083
1.1711
1.17133
1.17155
1.17175
1.17194
1.17175
1.17138
1.17106
1.17061
1.17021
1.16968
1.16938
1.16933
1.16953
1.1699
1.17026
1.17062
1.17089
1.17113
1.17136
1.17156
1.17176
1.17195
1.17176
1.17143
1.17109
1.17066
1.17025
1.16974
1.16938
1.16924
1.16933
1.16964
1.17004
1.1704
1.17069
1.17094
1.17116
1.17137
1.17157
1.17177
1.17194
1.17175
1.17142
1.17106
1.17069
1.1704
1.16983
1.1694
1.16919
1.16919
1.16939
1.16975
1.17017
1.1705
1.17075
1.17099
1.17119
1.17141
1.17158
1.17177
1.17194
1.17175
1.17142
1.17108
1.17075
1.17045
1.16986
1.16945
1.16916
1.16908
1.16921
1.16951
1.16988
1.17029
1.17057
1.1708
1.17102
1.17121
1.1714
1.17159
1.17177
1.17195
1.17178
1.17143
1.17114
1.1708
1.17046
1.16995
1.16949
1.16917
1.16901
1.16906
1.1693
1.16965
1.17004
1.17035
1.17061
1.17082
1.17104
1.17124
1.17141
1.1716
1.17178
1.17195
1.17175
1.17143
1.17112
1.17078
1.17045
1.17007
1.16955
1.16918
1.16896
1.16895
1.16912
1.16941
1.1698
1.17016
1.1704
1.17064
1.17086
1.17106
1.17124
1.17143
1.17161
1.17178
1.17195
1.17176
1.17145
1.17112
1.17081
1.17047
1.17011
1.1696
1.16922
1.16894
1.16885
1.16895
1.16921
1.16959
1.16993
1.17023
1.17049
1.17069
1.17087
1.17107
1.17126
1.17144
1.17161
1.17178
1.17195
1.17178
1.17146
1.17115
1.17084
1.17051
1.17011
1.16968
1.16925
1.16894
1.16879
1.16882
1.16901
1.16935
1.16973
1.17002
1.17029
1.17051
1.17071
1.17091
1.1711
1.17126
1.17144
1.17162
1.17178
1.17195
1.17176
1.17146
1.17113
1.17081
1.17055
1.17014
1.16975
1.1693
1.16898
1.16873
1.1687
1.16884
1.16911
1.16948
1.16982
1.1701
1.17033
1.17054
1.17075
1.17093
1.17109
1.17128
1.17143
1.17161
1.17178
1.17195
1.17175
1.17146
1.17113
1.17084
1.17053
1.17016
1.1699
1.16936
1.16899
1.16869
1.16862
1.16871
1.16891
1.16925
1.1696
1.16994
1.17016
1.17038
1.1706
1.17077
1.17093
1.17111
1.17127
1.17145
1.17161
1.17179
1.17195
1.17176
1.17146
1.17115
1.17089
1.17054
1.17028
1.16994
1.1694
1.16902
1.1687
1.16856
1.16858
1.16877
1.16906
1.16938
1.16974
1.17
1.17022
1.17042
1.17059
1.17078
1.17095
1.17113
1.17128
1.17145
1.17161
1.17178
1.17195
1.17177
1.17144
1.17115
1.17087
1.17053
1.17026
1.16991
1.16942
1.16904
1.16873
1.16852
1.16848
1.1686
1.16886
1.16918
1.16952
1.16981
1.17008
1.17025
1.17045
1.17063
1.17079
1.17096
1.17112
1.17128
1.17145
1.17161
1.17178
1.17195
1.17177
1.17144
1.17117
1.17087
1.17055
1.17026
1.17001
1.16951
1.16907
1.16874
1.16849
1.1684
1.16847
1.16868
1.16899
1.16932
1.16962
1.16989
1.1701
1.1703
1.17047
1.17065
1.17081
1.17097
1.17111
1.17127
1.17144
1.1716
1.17177
1.17194
1.17176
1.17146
1.17116
1.1709
1.17057
1.17027
1.17002
1.16954
1.16913
1.16876
1.16848
1.16834
1.16836
1.16851
1.16879
1.16912
1.16946
1.16968
1.16993
1.17014
1.17032
1.17048
1.17066
1.17082
1.17096
1.17111
1.17128
1.17143
1.1716
1.17176
1.17194
1.17174
1.17144
1.17116
1.17089
1.17055
1.17027
1.16997
1.1696
1.16916
1.1688
1.16849
1.1683
1.16827
1.16838
1.16859
1.16893
1.16925
1.16952
1.16977
1.16998
1.17018
1.17034
1.1705
1.17066
1.17082
1.17096
1.17112
1.17128
1.17143
1.17159
1.17175
1.17193
1.17176
1.17144
1.17119
1.17086
1.17057
1.17028
1.16997
1.16973
1.1692
1.16882
1.16849
1.16827
1.16819
1.16826
1.16844
1.16872
1.16906
1.16936
1.16959
1.16981
1.17001
1.17019
1.17035
1.17052
1.17067
1.17081
1.17097
1.17111
1.17126
1.17141
1.17157
1.17174
1.17193
1.17176
1.17143
1.17117
1.17089
1.17063
1.17027
1.16996
1.1697
1.16925
1.16884
1.16851
1.16828
1.16813
1.16816
1.1683
1.16856
1.16883
1.16916
1.16942
1.16965
1.16986
1.17005
1.1702
1.17037
1.17052
1.17067
1.17081
1.17096
1.1711
1.17124
1.1714
1.17156
1.17174
1.17202
1.17191
1.17173
1.17142
1.1712
1.17091
1.17057
1.1703
1.16999
1.16967
1.16929
1.16885
1.16853
1.16829
1.16808
1.16806
1.16818
1.16838
1.16866
1.16898
1.16925
1.16949
1.16971
1.16991
1.17008
1.17024
1.17038
1.17054
1.17067
1.17081
1.17095
1.17109
1.17123
1.17138
1.17156
1.17181
1.17171
1.17202
1.17191
1.17173
1.17143
1.17116
1.17088
1.17057
1.17032
1.16993
1.16965
1.16932
1.1689
1.16855
1.1683
1.16807
1.16799
1.16805
1.16825
1.1685
1.1688
1.16908
1.16934
1.16956
1.16974
1.16993
1.1701
1.17026
1.17039
1.17053
1.17066
1.17079
1.17094
1.17107
1.17121
1.17144
1.17136
1.17161
1.17145
1.17151
1.17181
1.17171
1.17202
1.1719
1.17175
1.17143
1.17119
1.17091
1.17057
1.1703
1.16993
1.16965
1.16933
1.16896
1.16858
1.16829
1.16805
1.16792
1.16796
1.1681
1.16834
1.16862
1.16891
1.16917
1.16941
1.16959
1.16977
1.16995
1.17011
1.17028
1.17039
1.17052
1.17067
1.1708
1.17092
1.17106
1.17127
1.17118
1.17136
1.1716
1.17142
1.1715
1.1718
1.17169
1.17201
1.1719
1.17175
1.17146
1.17116
1.17085
1.17056
1.17029
1.16995
1.16968
1.16933
1.16902
1.16864
1.16829
1.16804
1.16789
1.16787
1.16797
1.16819
1.16845
1.16875
1.16899
1.16923
1.16945
1.16962
1.1698
1.16996
1.17013
1.17026
1.1704
1.17053
1.17066
1.17079
1.17091
1.1711
1.17101
1.17127
1.17118
1.17132
1.17159
1.1714
1.17148
1.17179
1.17168
1.17201
1.17189
1.17172
1.17144
1.17112
1.17089
1.17057
1.17029
1.16994
1.16964
1.16931
1.16901
1.16864
1.16831
1.16804
1.16787
1.1678
1.16787
1.16803
1.16829
1.16858
1.16883
1.16906
1.16928
1.16948
1.16966
1.16982
1.16998
1.17014
1.17028
1.17039
1.17056
1.17066
1.17077
1.17094
1.17086
1.17109
1.171
1.17123
1.17114
1.1713
1.17157
1.17137
1.17146
1.17178
1.17166
1.17201
1.17188
1.17175
1.17143
1.17113
1.17085
1.17055
1.17026
1.16993
1.16964
1.16933
1.16905
1.16868
1.16837
1.16806
1.16785
1.16774
1.16778
1.16791
1.16813
1.16839
1.16868
1.16892
1.16913
1.16934
1.16952
1.1697
1.16984
1.17
1.17014
1.17026
1.17038
1.17056
1.17065
1.17079
1.17072
1.17092
1.17085
1.17105
1.17097
1.1712
1.17111
1.17127
1.17154
1.17134
1.17143
1.17176
1.17164
1.17201
1.17187
1.17173
1.1714
1.17113
1.17084
1.17056
1.17028
1.16995
1.16964
1.16934
1.16905
1.16868
1.16839
1.16806
1.1678
1.16769
1.16769
1.16779
1.16799
1.16824
1.16851
1.16876
1.16898
1.16918
1.16936
1.16956
1.16971
1.16988
1.17002
1.17015
1.17025
1.17039
1.17055
1.17065
1.1706
1.17077
1.17071
1.17089
1.17081
1.17102
1.17093
1.17117
1.17107
1.17124
1.17151
1.17131
1.17139
1.17174
1.17161
1.172
1.17186
1.17171
1.1714
1.1711
1.17088
1.17057
1.1703
1.16995
1.16965
1.16939
1.16905
1.16872
1.16839
1.16812
1.16777
1.16765
1.16763
1.1677
1.16787
1.16809
1.16835
1.16861
1.16885
1.16904
1.16921
1.16941
1.16958
1.16973
1.16989
1.17003
1.17013
1.17023
1.17041
1.17053
1.17048
1.17064
1.17058
1.17074
1.17068
1.17086
1.17078
1.17098
1.1709
1.17113
1.17103
1.1712
1.17148
1.17127
1.17134
1.17172
1.17158
1.172
1.17185
1.17172
1.17143
1.1711
1.17083
1.17057
1.17024
1.16994
1.16966
1.16937
1.16903
1.16874
1.16842
1.16812
1.16776
1.16762
1.16756
1.16761
1.16775
1.16795
1.1682
1.16846
1.1687
1.16889
1.16908
1.16926
1.16944
1.1696
1.16975
1.1699
1.17003
1.17013
1.17022
1.17042
1.17037
1.17051
1.17047
1.17061
1.17055
1.17071
1.17064
1.17081
1.17073
1.17094
1.17085
1.17109
1.17098
1.17115
1.17144
1.17121
1.17129
1.1717
1.17154
1.17199
1.17183
1.17172
1.1714
1.17111
1.17081
1.17057
1.17018
1.16995
1.16967
1.16936
1.16906
1.16875
1.16844
1.16813
1.1678
1.1676
1.16751
1.16752
1.16762
1.16782
1.16806
1.16831
1.16854
1.16875
1.16894
1.16912
1.16929
1.16946
1.16962
1.16976
1.16991
1.17003
1.17012
1.17029
1.17025
1.1704
1.17036
1.17049
1.17043
1.17057
1.1705
1.17065
1.17056
1.17075
1.17065
1.17088
1.17076
1.17103
1.17091
1.17108
1.17139
1.17115
1.17123
1.17167
1.1715
1.17199
1.17182
1.17171
1.1714
1.17112
1.17082
1.17054
1.17016
1.16996
1.16971
1.16936
1.16906
1.16877
1.16845
1.16814
1.16782
1.16759
1.16747
1.16746
1.16753
1.16771
1.16791
1.16816
1.1684
1.16863
1.1688
1.16897
1.16915
1.16931
1.16948
1.16963
1.16977
1.16991
1.17004
1.17018
1.17015
1.17029
1.17024
1.17037
1.1703
1.17041
1.17031
1.17045
1.17027
1.1705
1.17026
1.17061
1.17034
1.17077
1.17052
1.17095
1.17076
1.17099
1.17133
1.17105
1.17113
1.17164
1.17145
1.17198
1.1718
1.1717
1.17138
1.1711
1.17082
1.17056
1.1702
1.16993
1.16972
1.16931
1.16904
1.16877
1.16847
1.16816
1.16784
1.16759
1.16744
1.1674
1.16745
1.16759
1.16781
1.16804
1.16827
1.16849
1.16867
1.16884
1.16901
1.16917
1.16934
1.16949
1.16964
1.16979
1.16992
1.17006
1.1702
1.17015
1.17026
1.17019
1.17019
1.17007
1.17001
1.16965
1.16982
1.16906
1.16979
1.16871
1.17001
1.16885
1.17039
1.16948
1.17075
1.17021
1.17077
1.17124
1.17082
1.17092
1.1716
1.17138
1.17198
1.17178
1.17167
1.17133
1.17105
1.17078
1.17054
1.17019
1.16993
1.1697
1.16929
1.16907
1.16879
1.16852
1.16817
1.16786
1.16759
1.16742
1.16735
1.16737
1.1675
1.16768
1.1679
1.16814
1.16836
1.16854
1.16871
1.16887
1.16904
1.1692
1.16936
1.16951
1.16966
1.1698
1.16993
1.17006
1.17003
1.17012
1.17009
1.16995
1.16984
1.16923
1.16877
1.16798
1.16663
1.16681
1.16413
1.16646
1.16246
1.16726
1.16277
1.16876
1.16511
1.17005
1.16794
1.16995
1.17107
1.17
1.17021
1.17155
1.17126
1.17198
1.17176
1.17162
1.17125
1.17097
1.17071
1.1705
1.17018
1.16992
1.16964
1.16935
1.16906
1.16878
1.16852
1.16818
1.16788
1.1676
1.1674
1.1673
1.1673
1.16739
1.16755
1.16778
1.16802
1.16824
1.16842
1.16859
1.16875
1.16891
1.16906
1.16922
1.16937
1.16953
1.16968
1.16978
1.16996
1.16993
1.16968
1.16969
1.16971
1.16968
1.16831
1.16791
1.16512
1.16357
1.16084
1.15732
1.1573
1.15144
1.15589
1.14788
1.15766
1.14791
1.16257
1.15206
1.16719
1.16004
1.16679
1.17055
1.16695
1.16766
1.17149
1.17095
1.17197
1.17174
1.17153
1.17111
1.17084
1.17061
1.17042
1.17013
1.16989
1.16964
1.16936
1.16903
1.16878
1.16852
1.16819
1.16788
1.16761
1.16739
1.16726
1.16723
1.16728
1.16743
1.16765
1.16789
1.16812
1.16831
1.16847
1.16862
1.16878
1.16893
1.16908
1.16924
1.16939
1.16955
1.16971
1.16985
1.16982
1.16971
1.16974
1.16749
1.16761
1.16756
1.16745
1.16214
1.1609
1.15385
1.15069
1.1455
1.14
1.13965
1.13163
1.13735
1.12704
1.1395
1.127
1.14651
1.13177
1.1581
1.14181
1.15735
1.16877
1.15801
1.16002
1.17135
1.16996
1.17196
1.1717
1.1714
1.17086
1.1706
1.17043
1.17029
1.17005
1.16985
1.16964
1.16933
1.16903
1.16882
1.16853
1.16821
1.16791
1.16762
1.1674
1.16724
1.16718
1.16721
1.16734
1.16754
1.16777
1.16799
1.1682
1.16836
1.16851
1.16865
1.1688
1.16895
1.1691
1.16926
1.16942
1.16957
1.16971
1.16975
1.16972
1.16787
1.1682
1.15958
1.15985
1.15995
1.15953
1.14797
1.14586
1.13513
1.13107
1.12448
1.11838
1.11777
1.10927
1.11535
1.10481
1.11765
1.10498
1.1252
1.10995
1.1386
1.12007
1.13756
1.16325
1.13894
1.14334
1.17093
1.16679
1.17196
1.17161
1.1706
1.17029
1.17015
1.17007
1.16993
1.1698
1.16961
1.16928
1.16902
1.16885
1.16855
1.16824
1.16794
1.16764
1.1674
1.16722
1.16714
1.16715
1.16725
1.16742
1.16763
1.16787
1.16808
1.16826
1.1684
1.16854
1.16868
1.16882
1.16897
1.16912
1.16928
1.16944
1.16954
1.16901
1.16915
1.16854
1.16883
1.16049
1.16139
1.14394
1.14443
1.14436
1.1438
1.12784
1.12558
1.11334
1.10955
1.10288
1.09874
1.09702
1.093
1.0949
1.08978
1.09695
1.08866
1.10416
1.09133
1.11697
1.10016
1.11606
1.15073
1.11764
1.12206
1.1696
1.15869
1.17197
1.17128
1.17005
1.16988
1.1698
1.16975
1.16971
1.16949
1.16925
1.16902
1.16887
1.16859
1.16822
1.16794
1.16765
1.1674
1.1672
1.1671
1.16709
1.16716
1.1673
1.16751
1.16774
1.16796
1.16815
1.1683
1.16843
1.16854
1.16867
1.16881
1.16897
1.16913
1.16931
1.16946
1.16922
1.16939
1.16474
1.16574
1.16248
1.16357
1.14549
1.147
1.12428
1.1251
1.12417
1.12397
1.10695
1.10541
1.09651
1.09527
1.09117
1.0906
1.08772
1.08776
1.0853
1.08504
1.08437
1.08238
1.08767
1.08147
1.09799
1.08549
1.09755
1.13009
1.09927
1.10238
1.11451
1.16514
1.14117
1.17192
1.16941
1.16983
1.16968
1.16955
1.16955
1.16939
1.16924
1.169
1.16887
1.16862
1.16825
1.16797
1.16767
1.16742
1.16719
1.16707
1.16703
1.16709
1.16722
1.1674
1.16762
1.16785
1.16805
1.1682
1.16831
1.16838
1.16845
1.16857
1.16876
1.16895
1.16913
1.16931
1.16889
1.16677
1.16728
1.15318
1.15553
1.14881
1.15084
1.12669
1.12866
1.10556
1.10671
1.10485
1.10501
1.09471
1.09458
1.09069
1.09089
1.08818
1.08903
1.08573
1.08738
1.08293
1.08489
1.08021
1.0815
1.07932
1.07841
1.08422
1.07804
1.08068
1.091
1.08451
1.10582
1.12241
1.1082
1.09336
1.08547
1.08548
1.09488
1.15308
1.1128
1.11624
1.13263
1.17003
1.15829
1.16981
1.16955
1.16938
1.16925
1.16921
1.169
1.16887
1.16865
1.1683
1.16797
1.16769
1.16743
1.16719
1.16704
1.16699
1.16703
1.16716
1.16732
1.16752
1.16775
1.16795
1.1681
1.16815
1.16804
1.16779
1.1678
1.16816
1.16856
1.16887
1.16912
1.16889
1.16191
1.16474
1.15807
1.16029
1.13673
1.1398
1.13104
1.13369
1.10838
1.11043
1.09534
1.09595
1.09466
1.0949
1.09114
1.0913
1.08979
1.09017
1.08947
1.09048
1.08856
1.09126
1.08529
1.09045
1.07947
1.08123
1.08353
1.08679
1.07707
1.07732
1.08081
1.08066
1.0783
1.07785
1.08026
1.07713
1.07647
1.08019
1.09693
1.09972
1.08663
1.08063
1.08024
1.08792
1.12069
1.14092
1.12307
1.10264
1.10557
1.13585
1.12381
1.1196
1.13333
1.16984
1.16943
1.16918
1.16911
1.16899
1.16886
1.16867
1.16835
1.168
1.1677
1.16744
1.16719
1.16703
1.16695
1.16695
1.16706
1.16725
1.16744
1.16766
1.16786
1.16798
1.16787
1.16716
1.16564
1.16484
1.16564
1.16706
1.16814
1.16879
1.16879
1.16152
1.1502
1.15177
1.14329
1.14619
1.11888
1.12232
1.1129
1.11566
1.0968
1.09792
1.09175
1.092
1.09142
1.09156
1.09025
1.09013
1.0904
1.08973
1.09146
1.09006
1.09303
1.09195
1.0897
1.09267
1.09405
1.09424
1.08362
1.08703
1.09066
1.07655
1.0777
1.08372
1.08366
1.08012
1.07595
1.07693
1.07549
1.07601
1.07677
1.08965
1.09164
1.08132
1.07678
1.07699
1.08227
1.10749
1.10695
1.09366
1.09511
1.09024
1.16316
1.10788
1.10161
1.09072
1.16977
1.16924
1.16898
1.16896
1.16884
1.16868
1.1684
1.16803
1.16771
1.16744
1.16721
1.16702
1.16691
1.1669
1.16697
1.16714
1.16737
1.16759
1.16778
1.16788
1.1675
1.16556
1.16136
1.15776
1.15792
1.16184
1.16572
1.1679
1.16846
1.16395
1.14129
1.14737
1.13392
1.13732
1.12619
1.1298
1.10371
1.10644
1.09945
1.10134
1.09233
1.09276
1.09003
1.0902
1.09
1.08996
1.08853
1.08727
1.08696
1.08285
1.08741
1.08007
1.09316
1.09047
1.08676
1.0816
1.0936
1.09501
1.09481
1.09291
1.08748
1.09135
1.0944
1.07722
1.0798
1.0878
1.08799
1.08354
1.07551
1.07517
1.07508
1.07679
1.07492
1.08344
1.08469
1.07737
1.07479
1.07476
1.07792
1.09496
1.09136
1.08568
1.0858
1.08593
1.15822
1.1098
1.08401
1.0787
1.16957
1.169
1.16889
1.1688
1.16868
1.16845
1.16807
1.16773
1.16745
1.16722
1.16702
1.16689
1.16685
1.16689
1.16703
1.16725
1.16752
1.16773
1.1678
1.1672
1.16402
1.15699
1.15015
1.14819
1.15191
1.15923
1.16538
1.1675
1.16444
1.14224
1.12554
1.12634
1.11706
1.12017
1.10973
1.11302
1.09515
1.09652
1.0933
1.09406
1.0905
1.09089
1.08649
1.08709
1.08641
1.08624
1.07906
1.07629
1.07173
1.06399
1.07638
1.07012
1.06482
1.0591
1.08925
1.08409
1.07784
1.07098
1.09547
1.09492
1.0922
1.08752
1.09192
1.09495
1.09585
1.0795
1.08344
1.09233
1.09259
1.08811
1.07636
1.0747
1.07595
1.07917
1.07438
1.07852
1.07903
1.07482
1.07412
1.0739
1.07493
1.08407
1.07995
1.0791
1.07823
1.08442
1.14449
1.09752
1.07528
1.07476
1.16918
1.1688
1.16875
1.16866
1.16848
1.16811
1.16774
1.16745
1.16723
1.16702
1.16687
1.16681
1.16682
1.16693
1.16713
1.16739
1.16765
1.16775
1.16705
1.16301
1.15356
1.14366
1.13909
1.14118
1.14908
1.15953
1.16519
1.16394
1.14692
1.11474
1.12115
1.10894
1.11212
1.10303
1.10551
1.09836
1.1004
1.09218
1.09271
1.0913
1.09172
1.08807
1.08917
1.07656
1.0787
1.07508
1.0754
1.05862
1.05618
1.04754
1.04431
1.0641
1.05763
1.05198
1.04729
1.08116
1.0737
1.06583
1.05827
1.09479
1.09133
1.0857
1.07828
1.0953
1.09602
1.09453
1.08328
1.08813
1.0955
1.09559
1.09276
1.07879
1.07555
1.07836
1.08302
1.07515
1.075
1.07484
1.07369
1.07477
1.07436
1.07342
1.07601
1.07295
1.07419
1.07282
1.07935
1.13091
1.09559
1.07084
1.07166
1.16882
1.16872
1.16862
1.16848
1.16815
1.16775
1.16746
1.16725
1.16704
1.16687
1.16678
1.16677
1.16686
1.16703
1.16727
1.16753
1.16768
1.16704
1.16271
1.15159
1.13878
1.13161
1.13117
1.13731
1.14906
1.16034
1.16197
1.14735
1.115
1.10275
1.10228
1.09823
1.09982
1.09531
1.09648
1.0934
1.09421
1.092
1.09262
1.09025
1.0912
1.08156
1.08458
1.06046
1.0643
1.05655
1.05793
1.04527
1.04793
1.03979
1.04003
1.04252
1.04099
1.05159
1.0461
1.04204
1.03996
1.06985
1.06128
1.05341
1.04686
1.09044
1.08399
1.07571
1.06655
1.09607
1.09426
1.08961
1.08804
1.0928
1.09601
1.09585
1.09554
1.08265
1.07791
1.0822
1.08781
1.07741
1.073
1.0723
1.07389
1.07684
1.07619
1.07329
1.07083
1.06885
1.0712
1.06966
1.07841
1.16422
1.124
1.06805
1.07056
1.16866
1.16858
1.16848
1.16819
1.16776
1.16748
1.16728
1.16705
1.16687
1.16674
1.16673
1.16679
1.16694
1.16716
1.16742
1.16761
1.16714
1.16289
1.15117
1.13615
1.12727
1.12453
1.12657
1.13508
1.14929
1.15685
1.14579
1.11624
1.09652
1.09887
1.09531
1.09569
1.09414
1.09452
1.09363
1.09386
1.09309
1.09338
1.09246
1.09429
1.08751
1.09015
1.06945
1.07535
1.05436
1.05636
1.05034
1.05253
1.04433
1.04662
1.05277
1.03889
1.0402
1.04551
1.04229
1.04187
1.0389
1.03784
1.03793
1.05755
1.04963
1.04338
1.03909
1.0825
1.07355
1.06388
1.05465
1.09389
1.08893
1.08126
1.09271
1.09539
1.09362
1.09344
1.09567
1.08743
1.08168
1.08696
1.09246
1.08104
1.07245
1.0713
1.07541
1.08029
1.07937
1.07444
1.06794
1.06659
1.0698
1.06808
1.08689
1.16763
1.13291
1.06675
1.07224
1.16854
1.16845
1.1682
1.16777
1.16751
1.1673
1.16706
1.16687
1.16672
1.16668
1.16672
1.16686
1.16706
1.16731
1.16753
1.16732
1.16378
1.15169
1.13558
1.12615
1.12226
1.1209
1.12321
1.13168
1.14331
1.14024
1.11543
1.09524
1.09294
1.09193
1.09399
1.09334
1.0953
1.0946
1.09624
1.09593
1.09557
1.0962
1.09217
1.09669
1.08127
1.08694
1.0592
1.06435
1.0578
1.05709
1.05654
1.05795
1.04919
1.05313
1.06527
1.06934
1.04003
1.04319
1.05173
1.04717
1.03713
1.03666
1.03713
1.03816
1.04683
1.04097
1.03741
1.03609
1.0718
1.06177
1.05245
1.04481
1.08841
1.08032
1.07042
1.09517
1.09546
1.08809
1.08793
1.09331
1.0921
1.08636
1.09163
1.09489
1.08559
1.07324
1.07169
1.07826
1.08465
1.08349
1.07686
1.06643
1.06549
1.06977
1.06772
1.09363
1.16625
1.13082
1.0666
1.07418
1.16841
1.16818
1.16778
1.16754
1.16733
1.16708
1.16688
1.16669
1.16664
1.16668
1.16677
1.16696
1.1672
1.16744
1.16743
1.16504
1.15374
1.13635
1.12698
1.12282
1.12052
1.11881
1.11889
1.12324
1.1252
1.11168
1.09434
1.0909
1.09028
1.09318
1.09165
1.09632
1.09456
1.10019
1.09822
1.10213
1.10168
1.10004
1.10183
1.09085
1.09974
1.07221
1.08138
1.05738
1.0597
1.07184
1.0666
1.07122
1.0723
1.0754
1.05659
1.06134
1.07482
1.07819
1.04377
1.04795
1.0584
1.05285
1.036
1.03657
1.03787
1.04036
1.03935
1.03643
1.03551
1.03557
1.06014
1.05079
1.04338
1.03828
1.07964
1.0694
1.05888
1.09524
1.09322
1.0792
1.07897
1.08788
1.09458
1.09102
1.09425
1.09505
1.09023
1.07513
1.07301
1.08201
1.08924
1.08791
1.08009
1.06582
1.06506
1.07064
1.06815
1.09482
1.1645
1.12553
1.06679
1.07502
1.16812
1.16783
1.16757
1.16736
1.1671
1.16688
1.16668
1.1666
1.16661
1.1667
1.16686
1.16709
1.16734
1.16745
1.16608
1.157
1.13885
1.12922
1.1254
1.12258
1.11973
1.11607
1.11235
1.10896
1.10155
1.09196
1.08895
1.0917
1.09065
1.0956
1.09338
1.10119
1.09819
1.10755
1.10438
1.11065
1.10993
1.1065
1.11005
1.09029
1.10446
1.06561
1.07632
1.06206
1.06131
1.08153
1.0781
1.07507
1.08024
1.08093
1.0838
1.08606
1.06427
1.06993
1.08276
1.08587
1.04761
1.05247
1.06474
1.05823
1.03633
1.03763
1.04019
1.04351
1.03588
1.0352
1.03536
1.03619
1.04954
1.04233
1.03764
1.03564
1.06866
1.05794
1.04857
1.09321
1.08799
1.06818
1.06788
1.07898
1.0949
1.09389
1.0948
1.0933
1.09346
1.07779
1.07514
1.08607
1.0929
1.09181
1.08361
1.06582
1.06498
1.07216
1.06899
1.09292
1.14401
1.11062
1.06687
1.07492
1.16786
1.16761
1.16738
1.16713
1.16689
1.16667
1.16658
1.16655
1.16663
1.16676
1.16698
1.16723
1.16742
1.16679
1.16029
1.14311
1.13161
1.12884
1.1298
1.12701
1.11968
1.11217
1.1048
1.09767
1.09133
1.089
1.09281
1.09207
1.09497
1.09348
1.10001
1.0972
1.10724
1.10336
1.11595
1.11152
1.12127
1.1198
1.1154
1.12072
1.09292
1.11212
1.06454
1.0752
1.06897
1.06594
1.08413
1.08101
1.07917
1.07588
1.08713
1.08711
1.08697
1.0895
1.07157
1.07789
1.08954
1.09177
1.05101
1.05651
1.07042
1.06305
1.03755
1.04015
1.043
1.04657
1.03513
1.03527
1.0362
1.03751
1.04158
1.03725
1.0356
1.03523
1.05723
1.04783
1.041
1.08834
1.07928
1.0567
1.05631
1.06791
1.09347
1.09474
1.09381
1.08889
1.09469
1.08072
1.07751
1.08975
1.09462
1.09398
1.08676
1.06611
1.06496
1.07399
1.07022
1.09003
1.14753
1.11435
1.06673
1.0743
1.16764
1.16739
1.16714
1.16691
1.16668
1.16656
1.1665
1.16655
1.1667
1.16687
1.16711
1.16734
1.16717
1.16309
1.14811
1.13409
1.13118
1.13603
1.1411
1.13576
1.12158
1.10891
1.09982
1.09304
1.09119
1.09786
1.09925
1.09987
1.10101
1.09961
1.10629
1.10326
1.11448
1.11005
1.12494
1.1195
1.13326
1.13032
1.12682
1.13323
1.09976
1.12242
1.06858
1.07966
1.07356
1.07201
1.07223
1.08537
1.08227
1.0804
1.07778
1.09212
1.09139
1.08851
1.09154
1.07806
1.0849
1.09474
1.09602
1.05497
1.06117
1.0763
1.0684
1.03991
1.04243
1.04574
1.04986
1.03553
1.03615
1.03771
1.03987
1.03707
1.03571
1.03548
1.03586
1.04719
1.04053
1.03704
1.07994
1.06822
1.04662
1.04596
1.05609
1.08969
1.09435
1.091
1.08094
1.09493
1.08339
1.07982
1.09222
1.09515
1.0947
1.08909
1.06643
1.06486
1.07592
1.07111
1.09086
1.16826
1.13658
1.06638
1.07422
1.16741
1.16717
1.16692
1.16668
1.16653
1.16646
1.16647
1.16659
1.16679
1.16699
1.16724
1.16729
1.16507
1.15319
1.13715
1.13272
1.13855
1.14949
1.15218
1.14383
1.12729
1.1115
1.10172
1.09944
1.10586
1.1253
1.10954
1.10993
1.11049
1.10952
1.11546
1.1125
1.12396
1.11931
1.13535
1.12935
1.14571
1.14145
1.13957
1.14633
1.10851
1.13132
1.07574
1.08792
1.07561
1.07387
1.07864
1.07735
1.08636
1.08325
1.08222
1.07994
1.09578
1.09411
1.08969
1.09308
1.08407
1.09057
1.09911
1.09953
1.05911
1.06598
1.08249
1.07398
1.04222
1.0452
1.04889
1.05344
1.03678
1.03833
1.0401
1.04224
1.03597
1.03593
1.03642
1.03748
1.04001
1.03712
1.03638
1.06898
1.0562
1.03982
1.04024
1.04559
1.083
1.0928
1.08644
1.07132
1.09426
1.08564
1.0818
1.09321
1.09492
1.09443
1.09052
1.06664
1.06462
1.07703
1.07182
1.09692
1.17098
1.15388
1.06607
1.07495
1.16718
1.16692
1.16668
1.16651
1.16643
1.16641
1.1665
1.16669
1.16691
1.16713
1.16729
1.16621
1.15765
1.14117
1.13412
1.13861
1.15135
1.15931
1.15831
1.14974
1.13722
1.1261
1.12138
1.12568
1.14128
1.15233
1.12849
1.15382
1.12515
1.12454
1.12421
1.12873
1.12607
1.13698
1.1324
1.14833
1.14234
1.15677
1.15386
1.14809
1.15527
1.11331
1.13373
1.08423
1.09565
1.07818
1.0774
1.08177
1.08088
1.08808
1.08495
1.08512
1.08298
1.09875
1.09624
1.09158
1.09518
1.09045
1.09639
1.10364
1.10349
1.06338
1.0709
1.08874
1.07964
1.04493
1.04817
1.0522
1.05717
1.03903
1.0407
1.04272
1.04503
1.03653
1.03717
1.03846
1.04008
1.03758
1.03716
1.03741
1.05806
1.04666
1.03838
1.03972
1.04154
1.07589
1.09004
1.08117
1.06238
1.09263
1.08683
1.08257
1.09285
1.09372
1.09322
1.09005
1.06664
1.06438
1.07793
1.07226
1.10723
1.17188
1.16625
1.06556
1.07717
1.16692
1.16669
1.1665
1.16641
1.16637
1.16642
1.16657
1.16682
1.16703
1.16721
1.16673
1.16098
1.1459
1.1358
1.13815
1.15085
1.16043
1.16387
1.162
1.15617
1.14972
1.14587
1.14768
1.15589
1.16424
1.14845
1.16457
1.16552
1.14509
1.14336
1.14354
1.14655
1.14441
1.15361
1.14971
1.1612
1.15788
1.16168
1.16267
1.14988
1.15813
1.11252
1.12789
1.0883
1.09201
1.09993
1.08149
1.08091
1.08612
1.08532
1.091
1.08783
1.08938
1.08726
1.10178
1.09878
1.09458
1.09835
1.09685
1.10213
1.10853
1.108
1.06761
1.07573
1.09506
1.08527
1.04788
1.05133
1.05563
1.06093
1.04179
1.04355
1.0457
1.04813
1.03817
1.03978
1.04156
1.04307
1.03808
1.03854
1.0394
1.04948
1.04434
1.03934
1.04229
1.0425
1.06808
1.08588
1.07404
1.0537
1.08915
1.08617
1.0818
1.09107
1.09047
1.08954
1.08764
1.06618
1.06368
1.07733
1.07205
1.12745
1.17199
1.16933
1.06529
1.08173
1.1667
1.16649
1.16639
1.16633
1.16635
1.16648
1.16668
1.16695
1.16712
1.16687
1.16301
1.15029
1.13809
1.13726
1.14856
1.15954
1.16453
1.16612
1.16482
1.16257
1.16085
1.16139
1.1645
1.16741
1.16892
1.163
1.16851
1.16863
1.16152
1.1608
1.16083
1.16233
1.16134
1.16501
1.16367
1.16605
1.16603
1.16217
1.16499
1.14377
1.15572
1.11054
1.12028
1.09219
1.09477
1.10423
1.10064
1.08593
1.08539
1.09085
1.09067
1.09537
1.09212
1.09534
1.0931
1.10571
1.10218
1.09908
1.10299
1.10349
1.10771
1.11408
1.11336
1.07152
1.08014
1.10117
1.09051
1.05102
1.05452
1.059
1.06449
1.04499
1.0469
1.04903
1.05148
1.04161
1.0436
1.04502
1.04685
1.03995
1.041
1.04402
1.04846
1.04683
1.04387
1.04987
1.04745
1.05954
1.07925
1.06491
1.05388
1.08248
1.08382
1.07962
1.08716
1.08389
1.08399
1.08476
1.06527
1.063
1.07559
1.07051
1.13962
1.17117
1.16766
1.06544
1.08502
1.1665
1.16638
1.1663
1.1663
1.16638
1.16657
1.1668
1.16703
1.16685
1.16392
1.15366
1.14093
1.13708
1.14505
1.15631
1.16339
1.16665
1.16731
1.16697
1.16655
1.16676
1.16774
1.16857
1.16901
1.16921
1.16916
1.16827
1.16915
1.16804
1.16787
1.1679
1.16813
1.16797
1.16823
1.16829
1.16663
1.16783
1.15616
1.16341
1.13075
1.14375
1.10675
1.11262
1.11497
1.11996
1.09723
1.09839
1.10504
1.0916
1.09092
1.09713
1.0974
1.10159
1.09821
1.10339
1.10092
1.11057
1.107
1.1054
1.10945
1.11018
1.11365
1.12044
1.11974
1.07427
1.08306
1.10586
1.09367
1.05433
1.05757
1.06209
1.06749
1.04855
1.05058
1.05262
1.05505
1.04634
1.04821
1.05022
1.05182
1.04586
1.05004
1.05457
1.05231
1.05285
1.05391
1.05536
1.05343
1.05807
1.07051
1.06422
1.05518
1.07566
1.08191
1.07755
1.08396
1.07925
1.08111
1.08239
1.06439
1.06254
1.07418
1.06918
1.13486
1.17101
1.16092
1.0656
1.08371
1.16635
1.16626
1.16625
1.1663
1.16647
1.16667
1.16688
1.16675
1.16412
1.15582
1.14373
1.13734
1.14226
1.15226
1.16035
1.16601
1.16764
1.16795
1.16801
1.16816
1.1685
1.1688
1.169
1.16914
1.16932
1.16922
1.16932
1.16927
1.16915
1.16926
1.16915
1.16916
1.16915
1.16911
1.16916
1.16854
1.16897
1.16353
1.16724
1.14475
1.15566
1.12674
1.13487
1.11183
1.11933
1.11941
1.12954
1.10467
1.10437
1.11216
1.09907
1.09796
1.10531
1.10604
1.10987
1.10638
1.11353
1.11087
1.11703
1.1134
1.11375
1.11784
1.11645
1.12007
1.1275
1.12707
1.07537
1.0842
1.10758
1.09466
1.05748
1.0603
1.06412
1.06931
1.05347
1.055
1.05657
1.05805
1.05525
1.05603
1.05719
1.05756
1.05388
1.05407
1.08409
1.0551
1.08339
1.08357
1.08198
1.08255
1.06203
1.07002
1.06742
1.06054
1.07503
1.08024
1.07708
1.08189
1.07993
1.08102
1.0812
1.06408
1.06211
1.07371
1.06756
1.12029
1.17014
1.1492
1.06546
1.07989
1.16623
1.16621
1.16624
1.16638
1.16657
1.16674
1.16651
1.16399
1.15685
1.14604
1.13835
1.14046
1.14886
1.15732
1.16432
1.16745
1.16802
1.16823
1.16838
1.16857
1.16879
1.16894
1.16906
1.16921
1.16936
1.16934
1.16935
1.1693
1.16928
1.16931
1.16934
1.16933
1.16919
1.16931
1.16756
1.16877
1.15866
1.16457
1.14176
1.15043
1.13036
1.13442
1.11997
1.12736
1.12659
1.13256
1.13734
1.13965
1.11425
1.1129
1.12161
1.10867
1.10704
1.11532
1.11639
1.12005
1.11657
1.12496
1.12232
1.12503
1.12179
1.12401
1.1281
1.11972
1.12663
1.13383
1.13473
1.0759
1.08438
1.10759
1.09458
1.05988
1.06315
1.06534
1.07043
1.05828
1.0591
1.0602
1.06157
1.08418
1.08167
1.08295
1.08253
1.08369
1.08058
1.10677
1.08307
1.10768
1.10784
1.10721
1.10776
1.08355
1.07302
1.08472
1.08124
1.07755
1.07955
1.0766
1.08269
1.09123
1.08431
1.09315
1.08131
1.06368
1.06162
1.07206
1.06685
1.09733
0.896461
1.10929
1.06477
1.07276
1.16617
1.16619
1.16628
1.16646
1.16664
1.1662
1.16346
1.15707
1.14762
1.13954
1.13957
1.1463
1.15466
1.16251
1.16693
1.16793
1.16818
1.16835
1.16849
1.16866
1.16886
1.16898
1.16911
1.16926
1.1694
1.16939
1.16937
1.16939
1.16932
1.16942
1.16941
1.16943
1.16904
1.16932
1.16666
1.16832
1.15743
1.16323
1.1441
1.15008
1.14226
1.14226
1.12849
1.13157
1.13449
1.13653
1.14052
1.12443
1.12328
1.12868
1.11991
1.11781
1.12538
1.12656
1.13109
1.12785
1.13218
1.13078
1.13395
1.13182
1.13406
1.13657
1.12021
1.13031
1.13557
1.1379
1.07618
1.08215
1.10389
1.0915
1.06326
1.06607
1.06733
1.07152
1.08282
1.08267
1.08291
1.08301
1.10656
1.10423
1.1051
1.10412
1.10799
1.10492
1.13279
1.1071
1.13377
1.1336
1.13342
1.13372
1.10653
1.08683
1.10651
1.10634
1.0867
1.07997
1.07575
1.08417
1.10836
1.0945
1.10951
1.08157
1.06255
1.06117
1.07206
1.06523
1.07629
0.480789
1.02819
1.06292
1.06581
1.16615
1.16621
1.16637
1.16653
1.166
1.16267
1.15693
1.14843
1.1406
1.13935
1.14464
1.15258
1.16084
1.1663
1.16775
1.16807
1.16824
1.16837
1.16851
1.16871
1.16889
1.16901
1.16916
1.16932
1.16936
1.16944
1.16943
1.16942
1.16941
1.16946
1.16944
1.16947
1.169
1.16932
1.16654
1.16822
1.15864
1.16327
1.15361
1.1545
1.14514
1.15146
1.13027
1.13011
1.12846
1.12717
1.13776
1.12863
1.12871
1.12864
1.12922
1.12788
1.1287
1.1295
1.13515
1.13377
1.13247
1.13176
1.13838
1.1382
1.13679
1.13817
1.11704
1.13036
1.13209
1.13681
1.07525
1.07829
1.09413
1.08378
1.08292
1.06994
1.07018
1.07215
1.1042
1.10317
1.10324
1.10242
1.13248
1.13103