/*--------------------------------*- C++ -*----------------------------------*\
  =========                 |
  \\      /  F ield         | OpenFOAM: The Open Source CFD Toolbox
   \\    /   O peration     | Website:  https://openfoam.org
    \\  /    A nd           | Version:  dev
     \\/     M anipulation  |
\*---------------------------------------------------------------------------*/
FoamFile
{
    version     2.0;
    format      ascii;
    class       volScalarField;
    location    "2500";
    object      T;
}
// * * * * * * * * * * * * * * * * * * * * * * * * * * * * * * * * * * * * * //

dimensions      [0 0 0 1 0 0 0];

internalField   nonuniform List<scalar> 
9836
(
300.096
300.142
300.117
300.142
300.223
300.101
300.126
300.272
300.228
300.095
300.123
300.302
300.32
300.208
300.075
300.121
300.292
300.364
300.306
300.185
300.071
300.118
300.264
300.393
300.378
300.271
300.161
300.065
300.112
300.257
300.407
300.433
300.372
300.24
300.138
300.057
300.098
300.245
300.389
300.469
300.437
300.338
300.22
300.132
300.054
300.09
300.229
300.367
300.477
300.492
300.424
300.301
300.202
300.118
300.051
300.093
300.226
300.356
300.48
300.53
300.484
300.375
300.274
300.189
300.114
300.048
300.084
300.208
300.34
300.47
300.549
300.546
300.461
300.343
300.253
300.17
300.105
300.046
300.088
300.194
300.324
300.436
300.558
300.582
300.53
300.423
300.319
300.237
300.166
300.105
300.047
300.088
300.184
300.315
300.424
300.559
300.605
300.591
300.493
300.384
300.297
300.219
300.158
300.1
300.045
300.086
300.184
300.295
300.405
300.543
300.619
300.629
300.575
300.466
300.359
300.282
300.21
300.152
300.096
300.045
300.077
300.18
300.268
300.381
300.506
300.629
300.659
300.62
300.525
300.425
300.339
300.267
300.203
300.146
300.093
300.044
300.077
300.18
300.256
300.383
300.505
300.634
300.678
300.668
300.599
300.495
300.393
300.322
300.254
300.196
300.141
300.09
300.042
300.079
300.174
300.256
300.373
300.478
300.614
300.69
300.704
300.653
300.56
300.467
300.375
300.306
300.246
300.189
300.138
300.087
300.038
300.074
300.162
300.249
300.36
300.466
300.597
300.689
300.726
300.705
300.626
300.524
300.433
300.359
300.295
300.238
300.184
300.134
300.084
300.041
300.078
300.163
300.254
300.351
300.427
300.573
300.684
300.74
300.74
300.69
300.597
300.491
300.407
300.343
300.282
300.23
300.176
300.133
300.083
300.041
300.077
300.162
300.249
300.335
300.413
300.565
300.671
300.745
300.767
300.733
300.658
300.563
300.459
300.389
300.329
300.273
300.227
300.177
300.129
300.084
300.038
300.069
300.159
300.233
300.32
300.41
300.54
300.659
300.743
300.784
300.773
300.712
300.623
300.523
300.444
300.377
300.323
300.27
300.217
300.174
300.128
300.083
300.039
300.075
300.157
300.237
300.326
300.412
300.51
300.644
300.74
300.797
300.8
300.757
300.683
300.584
300.491
300.431
300.369
300.313
300.263
300.218
300.17
300.124
300.082
300.038
300.071
300.153
300.237
300.316
300.405
300.5
300.63
300.73
300.802
300.826
300.801
300.735
300.637
300.551
300.475
300.409
300.358
300.311
300.26
300.213
300.166
300.125
300.083
300.038
300.067
300.149
300.228
300.308
300.396
300.497
300.609
300.721
300.8
300.84
300.833
300.784
300.697
300.602
300.526
300.458
300.402
300.352
300.302
300.254
300.213
300.168
300.123
300.082
300.038
300.072
300.149
300.234
300.315
300.383
300.49
300.592
300.707
300.791
300.856
300.863
300.827
300.759
300.666
300.577
300.505
300.447
300.394
300.342
300.298
300.256
300.209
300.169
300.125
300.081
300.039
300.073
300.148
300.233
300.308
300.387
300.484
300.551
300.691
300.786
300.864
300.883
300.86
300.809
300.723
300.635
300.548
300.49
300.435
300.381
300.336
300.295
300.25
300.21
300.166
300.124
300.079
300.038
300.069
300.146
300.227
300.295
300.384
300.452
300.54
300.681
300.778
300.861
300.899
300.894
300.846
300.772
300.69
300.597
300.531
300.476
300.424
300.381
300.335
300.292
300.247
300.209
300.164
300.123
300.083
300.039
300.066
300.153
300.226
300.298
300.385
300.457
300.547
300.673
300.773
300.852
300.908
300.918
300.888
300.821
300.741
300.654
300.58
300.511
300.468
300.416
300.372
300.332
300.287
300.248
300.209
300.166
300.125
300.082
300.039
300.066
300.151
300.22
300.297
300.38
300.457
300.521
300.65
300.763
300.849
300.914
300.939
300.921
300.869
300.788
300.703
300.628
300.56
300.506
300.456
300.413
300.367
300.326
300.287
300.25
300.21
300.167
300.126
300.085
300.041
300.068
300.143
300.223
300.289
300.375
300.452
300.517
300.643
300.748
300.844
300.917
300.954
300.948
300.91
300.838
300.756
300.669
300.613
300.549
300.496
300.45
300.409
300.364
300.323
300.289
300.25
300.207
300.169
300.128
300.086
300.041
300.072
300.148
300.221
300.292
300.379
300.452
300.531
300.625
300.738
300.834
300.912
300.962
300.972
300.944
300.891
300.804
300.72
300.653
300.588
300.537
300.486
300.445
300.404
300.365
300.323
300.289
300.249
300.209
300.17
300.13
300.089
300.044
300.066
300.148
300.214
300.297
300.373
300.449
300.53
300.592
300.729
300.827
300.911
300.971
300.991
300.973
300.928
300.857
300.769
300.693
300.636
300.578
300.529
300.482
300.442
300.4
300.363
300.326
300.287
300.25
300.214
300.174
300.135
300.091
300.045
300.065
300.15
300.219
300.289
300.358
300.449
300.531
300.598
300.715
300.82
300.906
300.966
301.005
300.999
300.964
300.897
300.828
300.745
300.677
300.618
300.567
300.517
300.479
300.437
300.399
300.363
300.327
300.288
300.254
300.217
300.178
300.137
300.093
300.022
300.048
300.072
300.152
300.208
300.283
300.371
300.442
300.524
300.607
300.704
300.817
300.9
300.964
301.019
301.023
300.994
300.944
300.871
300.791
300.722
300.659
300.605
300.555
300.511
300.469
300.435
300.395
300.361
300.326
300.291
300.257
300.221
300.182
300.138
300.074
300.1
300.022
300.048
300.071
300.148
300.22
300.29
300.371
300.436
300.538
300.611
300.695
300.804
300.894
300.96
301.02
301.04
301.026
300.977
300.911
300.836
300.765
300.698
300.643
300.597
300.548
300.504
300.465
300.432
300.396
300.363
300.331
300.294
300.261
300.225
300.167
300.187
300.125
300.164
300.149
300.075
300.101
300.022
300.05
300.066
300.148
300.211
300.284
300.372
300.44
300.536
300.608
300.692
300.788
300.886
300.962
301.023
301.058
301.05
301.014
300.951
300.88
300.806
300.741
300.68
300.634
300.588
300.544
300.503
300.46
300.433
300.399
300.362
300.329
300.298
300.264
300.21
300.232
300.187
300.126
300.174
300.153
300.077
300.104
300.023
300.051
300.066
300.141
300.219
300.297
300.373
300.443
300.532
300.601
300.692
300.772
300.871
300.96
301.025
301.066
301.071
301.046
300.991
300.924
300.847
300.787
300.725
300.671
300.625
300.58
300.539
300.498
300.464
300.429
300.398
300.363
300.332
300.301
300.254
300.275
300.211
300.234
300.198
300.131
300.178
300.158
300.08
300.107
300.024
300.053
300.071
300.145
300.227
300.288
300.37
300.442
300.531
300.609
300.696
300.774
300.87
300.956
301.026
301.07
301.09
301.072
301.032
300.965
300.889
300.827
300.768
300.712
300.661
300.615
300.574
300.536
300.496
300.461
300.431
300.39
300.364
300.335
300.295
300.314
300.257
300.278
300.222
300.244
300.204
300.136
300.185
300.164
300.083
300.112
300.025
300.056
300.065
300.146
300.224
300.297
300.374
300.45
300.534
300.611
300.689
300.763
300.859
300.939
301.02
301.074
301.103
301.094
301.062
301.005
300.94
300.865
300.804
300.751
300.698
300.652
300.607
300.571
300.53
300.496
300.464
300.435
300.389
300.367
300.332
300.349
300.299
300.318
300.266
300.287
300.228
300.252
300.211
300.142
300.192
300.172
300.087
300.118
300.025
300.058
300.068
300.153
300.224
300.299
300.371
300.443
300.529
300.61
300.687
300.762
300.859
300.935
301.018
301.086
301.116
301.116
301.09
301.04
300.976
300.908
300.845
300.787
300.739
300.692
300.642
300.602
300.56
300.526
300.493
300.467
300.432
300.392
300.366
300.379
300.336
300.353
300.307
300.326
300.274
300.296
300.236
300.26
300.219
300.15
300.201
300.181
300.092
300.125
300.026
300.061
300.073
300.152
300.23
300.286
300.368
300.438
300.528
300.606
300.672
300.76
300.848
300.932
301.004
301.094
301.125
301.132
301.115
301.071
301.014
300.949
300.883
300.822
300.774
300.729
300.68
300.635
300.597
300.558
300.521
300.497
300.474
300.426
300.397
300.409
300.37
300.384
300.344
300.361
300.316
300.335
300.284
300.305
300.246
300.271
300.23
300.159
300.212
300.192
300.097
300.133
300.027
300.065
300.069
300.146
300.229
300.299
300.366
300.452
300.53
300.602
300.678
300.767
300.84
300.925
301.003
301.095
301.133
301.149
301.137
301.101
301.051
300.987
300.921
300.86
300.812
300.763
300.718
300.672
300.631
300.593
300.556
300.521
300.498
300.476
300.424
300.437
300.401
300.413
300.378
300.392
300.353
300.37
300.326
300.346
300.295
300.318
300.257
300.284
300.243
300.169
300.226
300.206
300.103
300.142
300.028
300.068
300.07
300.151
300.225
300.304
300.365
300.467
300.528
300.599
300.679
300.759
300.838
300.919
301
301.086
301.138
301.16
301.158
301.133
301.083
301.021
300.959
300.899
300.846
300.798
300.753
300.708
300.667
300.627
300.589
300.554
300.521
300.5
300.456
300.468
300.429
300.439
300.408
300.422
300.388
300.405
300.366
300.389
300.341
300.368
300.31
300.339
300.272
300.302
300.259
300.182
300.242
300.222
300.11
300.153
300.029
300.073
300.07
300.15
300.222
300.3
300.374
300.471
300.522
300.588
300.679
300.758
300.833
300.915
300.996
301.079
301.14
301.17
301.175
301.157
301.111
301.059
300.995
300.935
300.878
300.832
300.789
300.745
300.703
300.662
300.623
300.587
300.551
300.521
300.484
300.492
300.458
300.47
300.437
300.455
300.428
300.453
300.419
300.463
300.405
300.466
300.378
300.446
300.339
300.4
300.293
300.341
300.282
300.198
300.268
300.247
300.118
300.167
300.031
300.078
300.073
300.156
300.228
300.3
300.366
300.46
300.53
300.586
300.691
300.76
300.83
300.91
300.991
301.073
301.139
301.177
301.189
301.177
301.142
301.085
301.027
300.968
300.912
300.865
300.823
300.781
300.739
300.697
300.657
300.619
300.584
300.549
300.515
300.481
300.492
300.464
300.483
300.482
300.514
300.529
300.619
300.577
300.767
300.584
300.858
300.53
300.821
300.435
300.664
300.342
300.478
300.339
300.22
300.327
300.302
300.128
300.184
300.032
300.083
300.079
300.166
300.239
300.309
300.371
300.462
300.529
300.591
300.696
300.754
300.826
300.895
300.986
301.067
301.137
301.183
301.201
301.197
301.163
301.119
301.06
301
300.945
300.898
300.855
300.814
300.773
300.733
300.692
300.653
300.616
300.58
300.548
300.514
300.523
300.501
300.507
300.542
300.571
300.725
300.841
301.039
301.381
301.336
302.016
301.424
302.439
301.222
302.363
300.846
301.769
300.521
301.053
300.545
300.263
300.534
300.48
300.14
300.214
300.033
300.088
300.091
300.186
300.258
300.326
300.382
300.464
300.531
300.604
300.68
300.755
300.827
300.895
300.984
301.062
301.134
301.185
301.214
301.215
301.192
301.151
301.093
301.031
300.976
300.929
300.887
300.846
300.806
300.767
300.727
300.687
300.649
300.61
300.585
300.539
300.547
300.61
300.607
300.603
300.61
300.957
301.057
301.763
302.156
302.853
303.755
303.76
305.272
304.124
306.199
303.668
306.192
302.414
305.114
301.24
303.058
301.342
300.394
301.303
301.122
300.156
300.292
300.034
300.093
300.114
300.223
300.293
300.352
300.402
300.475
300.539
300.604
300.676
300.762
300.827
300.893
300.979
301.06
301.13
301.187
301.221
301.23
301.218
301.181
301.124
301.063
301.005
300.957
300.917
300.877
300.838
300.8
300.761
300.721
300.682
300.643
300.602
300.568
300.575
300.602
300.596
301.164
301.133
301.146
301.174
302.522
302.837
304.649
305.467
306.822
308.27
308.363
310.502
308.972
311.738
308.404
311.75
306.558
310.464
303.556
307.793
303.749
300.843
303.579
303.064
300.191
300.542
300.036
300.103
300.146
300.285
300.352
300.398
300.435
300.495
300.549
300.604
300.684
300.762
300.817
300.892
300.975
301.053
301.127
301.185
301.226
301.243
301.236
301.203
301.154
301.095
301.037
300.985
300.943
300.906
300.869
300.832
300.794
300.756
300.716
300.676
300.638
300.602
300.592
300.599
301.066
300.984
303.173
303.104
303.079
303.187
306.175
306.727
309.565
310.651
312.431
314.099
314.265
316.621
314.931
317.872
314.298
317.823
312.236
316.429
308.642
313.635
308.918
302.239
308.551
307.39
300.297
301.343
300.036
300.125
300.353
300.432
300.467
300.489
300.526
300.561
300.61
300.695
300.763
300.807
300.884
300.966
301.045
301.122
301.185
301.232
301.254
301.252
301.225
301.184
301.129
301.069
301.015
300.969
300.933
300.899
300.864
300.827
300.79
300.751
300.71
300.67
300.645
300.778
300.744
300.896
300.825
302.942
302.711
307.231
307.102
307.119
307.266
311.522
312.131
315.489
316.542
318.416
319.588
320.077
321.229
320.683
322.156
320.095
322.479
318.052
321.706
314.486
319.182
314.738
305.46
314.301
313.09
300.631
303.403
300.035
300.209
300.492
300.536
300.559
300.573
300.583
300.639
300.703
300.763
300.803
300.875
300.971
301.043
301.119
301.183
301.235
301.264
301.266
301.249
301.213
301.161
301.102
301.045
300.997
300.959
300.927
300.897
300.865
300.829
300.79
300.748
300.704
300.665
300.727
300.684
301.858
301.603
302.434
302.154
306.821
306.426
312.485
312.261
312.516
312.569
317.271
317.701
320.225
320.579
321.757
321.921
322.754
322.744
323.457
323.536
323.726
324.312
322.763
324.576
319.799
323.398
319.925
310.914
319.435
318.554
315.163
301.759
307.961
300.046
300.678
300.548
300.589
300.624
300.623
300.665
300.705
300.766
300.802
300.865
300.961
301.035
301.112
301.178
301.237
301.271
301.279
301.265
301.234
301.188
301.131
301.073
301.022
300.984
300.957
300.939
300.921
300.89
300.844
300.795
300.749
300.703
300.81
301.343
301.214
304.82
304.213
305.955
305.427
311.832
311.298
317.658
317.337
317.861
317.816
320.739
320.779
321.896
321.84
322.623
322.379
323.335
322.857
324.15
323.581
324.947
324.57
325.205
325.478
323.767
325.582
324.805
321.8
323.682
317.585
312.995
316.919
321.122
323.402
323.399
320.686
304.847
315.638
314.685
310.233
300.522
303.504
300.555
300.622
300.665
300.7
300.712
300.765
300.801
300.858
300.949
301.033
301.108
301.175
301.238
301.276
301.291
301.282
301.247
301.208
301.156
301.098
301.046
301.009
300.996
301.024
301.086
301.085
300.994
300.892
300.814
300.751
300.809
302.576
301.859
303.559
302.991
309.135
308.319
310.658
309.946
316.868
316.296
320.561
320.384
320.754
320.685
321.768
321.721
322.161
322.05
322.255
321.964
322.518
321.74
323.468
321.973
325.166
324.653
323.98
323.034
325.87
325.799
324.775
324.819
325.51
325.639
324.927
325.851
326.047
324.946
320.099
319.306
323.063
324.817
324.932
322.691
313.464
308.025
312.815
318.481
317.653
309.369
312.611
313.761
310.042
300.548
300.653
300.718
300.737
300.767
300.801
300.851
300.935
301.026
301.103
301.171
301.236
301.278
301.3
301.3
301.272
301.224
301.176
301.12
301.068
301.039
301.066
301.247
301.63
301.833
301.63
301.271
301
300.834
300.833
302.676
305.593
305.185
307.399
306.637
313.959
313.017
315.608
314.844
320.141
319.82
321.591
321.52
321.686
321.646
322.027
322.06
321.986
322.177
321.68
322.084
321.23
321.538
322.191
321.335
320.938
320.882
323.953
322.962
321.914
326.026
325.686
323.924
323.943
324.976
326.2
325.908
326.336
326.185
325.956
322.189
321.616
324.615
325.953
325.891
324.334
317.115
317.266
321.035
320.619
322.018
302.257
317.004
318.769
321.879
300.565
300.702
300.769
300.776
300.807
300.848
300.92
301.017
301.1
301.17
301.232
301.28
301.309
301.312
301.296
301.253
301.194
301.138
301.088
301.065
301.161
301.652
302.72
303.643
303.602
302.597
301.612
301.06
300.917
302.057
307.926
306.33
309.883
308.977
311.965
310.988
318.178
317.411
319.387
318.848
321.425
321.301
322.088
322.039
322.098
322.109
322.522
322.886
322.976
324.169
322.844
324.982
321.191
321.96
323.032
324.53
321.069
320.663
320.72
321.261
322.832
321.714
320.838
325.829
325.071
322.739
322.686
323.976
326.331
326.431
326.46
325.956
326.503
323.991
323.627
325.775
326.542
326.549
325.614
320.662
321.695
323.339
323.303
323.266
303.521
316.467
323.825
325.381
300.617
300.764
300.792
300.815
300.848
300.908
301.007
301.096
301.168
301.228
301.28
301.314
301.326
301.315
301.281
301.225
301.156
301.102
301.085
301.235
302.042
303.839
305.608
306.119
305.151
303.265
301.696
301.159
301.935
307.675
312.14
311.922
314.458
313.605
316.49
315.574
320.613
320.218
321.145
320.926
321.952
321.841
323.112
322.939
323.136
323.184
325.278
326.095
327.442
329.759
326.065
327.921
329.508
331.24
322.31
323.804
325.634
327.665
320.533
320.686
321.463
322.811
321.55
320.683
320.422
325.159
324.007
321.434
321.358
322.65
326.081
326.571
326.202
325.254
326.665
325.436
325.286
326.53
326.741
326.805
326.497
323.807
325.015
325.265
325.521
323.703
307.082
319.928
326.391
326.545
300.717
300.815
300.828
300.852
300.898
300.995
301.091
301.166
301.223
301.279
301.318
301.334
301.332
301.304
301.254
301.189
301.121
301.095
301.273
302.298
304.723
307.305
308.512
307.958
305.886
303.187
301.744
302.061
306.447
315.096
313.335
316.71
315.824
318.37
317.67
319.695
319.115
321.466
321.313
321.721
321.601
322.654
322.336
326.015
325.384
326.45
326.357
331.388
332.135
334.793
335.803
329.727
331.687
333.421
334.87
324.659
326.856
329.205
331.491
320.722
321.713
323.336
325.502
320.582
320.374
320.796
324.053
322.642
320.522
320.496
321.308
325.368
326.32
325.491
324.127
326.437
326.475
326.524
326.867
326.55
326.671
326.946
326.174
327.081
326.715
327.121
325.188
310.688
320.477
327.71
327.466
300.81
300.836
300.861
300.898
300.984
301.088
301.163
301.217
301.274
301.318
301.343
301.345
301.323
301.279
301.218
301.151
301.112
301.275
302.374
305.233
308.594
310.506
310.626
308.983
305.891
302.978
302.562
306.334
315.024
318.448
318.58
319.729
319.277
320.564
320.23
321.114
320.881
321.52
321.341
322.026
321.751
324.548
323.665
330.834
329.675
332.025
331.603
335.503
334.676
337.214
337.14
336.355
336.837
333.54
335.241
336.508
337.161
328
330.576
332.977
335.003
321.967
323.832
326.257
328.986
320.36
320.873
322.204
322.668
321.297
320.375
320.419
320.511
324.236
325.624
324.365
322.735
325.771
327.07
327.276
326.808
325.936
326.129
326.985
327.715
328.306
327.605
328.064
325.463
301.988
312.557
328.546
327.793
300.851
300.872
300.898
300.973
301.085
301.157
301.211
301.27
301.318
301.35
301.355
301.341
301.301
301.245
301.18
301.131
301.249
302.327
305.342
309.293
311.677
312.419
311.866
309.575
305.829
303.872
306.742
314.682
320.218
319.547
320.565
320.455
320.901
320.79
321.048
320.982
321.205
321.12
321.389
320.862
322.816
322.053
328.129
326.374
332.698
332.089
333.93
333.259
335.791
335.076
333.173
337.495
337.082
335.417
336.425
336.561
337.494
337.827
337.798
331.708
334.142
336.086
337.434
324.267
326.897
329.788
332.595
320.977
322.399
324.628
321.323
320.553
321.054
321.104
320.472
322.843
324.518
322.98
321.394
324.703
327.233
327.574
326.358
324.924
325.191
326.643
328.578
328.984
328.021
328.535
322.98
301.124
310.153
328.932
327.287
300.881
300.904
300.97
301.082
301.15
301.204
301.266
301.316
301.356
301.366
301.356
301.322
301.27
301.207
301.151
301.204
302.101
305.205
309.444
311.979
313.037
313.408
312.777
310.485
307.393
308.201
314.904
320.583
321.244
321.536
320.943
321.129
320.572
320.772
320.303
320.392
320.495
320.316
321.471
320.176
324.633
322.982
331.224
329.663
331.645
331.867
332.021
331.596
334.273
333.059
329.364
328.147
337.129
336.135
333.482
334.894
338.05
338.196
338.048
337.72
335.009
336.841
337.958
338.375
327.416
330.423
333.268
335.637
322.551
324.9
327.824
320.616
320.532
322.641
322.688
321.142
321.497
323.154
321.63
320.696
323.376
326.999
327.459
325.516
323.65
323.985
325.928
329.03
329.312
328.028
328.641
321.037
301.475
310.712
328.976
326.709
300.914
300.975
301.079
301.142
301.195
301.261
301.314
301.362
301.378
301.368
301.345
301.296
301.235
301.173
301.176
301.782
304.675
309.238
311.754
312.884
313.511
313.979
313.956
312.765
312.231
315.944
320.839
321.833
322.01
321.177
321.617
320.281
320.782
319.18
319.738
318.633
318.759
319.224
318.718
321.85
319.311
327.308
324.602
331.781
331.075
327.414
328.984
327.587
327.27
326.357
331.992
330.548
326.515
325.524
335.947
334.646
331.434
333.131
338.401
338.218
337.806
337.02
337.346
338.266
338.555
338.532
330.915
333.777
336.081
337.678
325.1
328.127
331.298
320.592
321.167
325.226
325.293
322.701
320.783
321.807
320.878
320.647
322.032
326.438
327.062
324.416
322.319
322.7
324.975
329.209
329.437
327.766
328.51
320.695
301.917
312.14
328.916
326.458
300.99
301.066
301.131
301.188
301.255
301.312
301.365
301.386
301.384
301.363
301.322
301.263
301.198
301.169
301.516
303.835
308.573
311.149
312.181
312.948
313.727
314.731
315.762
316.702
318.786
321.524
322.397
321.605
321.907
320.486
321.122
318.898
319.749
317.108
317.998
316.244
316.444
317.404
316.411
322.013
317.975
329.287
326.091
330.358
330.589
324.56
325.566
326.463
324.925
324.726
323.895
323.237
329.658
327.964
324.185
323.283
334.744
333.243
329.511
331.481
338.291
337.878
337.068
336.024
338.436
338.649
338.595
338.329
334.161
336.406
337.877
338.507
328.347
331.58
334.46
321.17
322.668
328.489
328.576
325.29
320.691
320.981
320.718
321.145
321.102
325.65
326.43
323.232
321.263
321.575
323.945
329.207
329.458
327.309
328.252
321.238
307.209
316.235
328.888
326.487
301.056
301.121
301.181
301.247
301.308
301.366
301.392
301.4
301.378
301.346
301.291
301.227
301.177
301.336
302.99
307.448
310.506
311.25
310.99
311.744
313.74
315.811
317.872
319.888
321.707
322.383
321.286
321.497
320.667
321.093
319.233
320.032
317.194
318.286
314.773
316
313.315
313.715
314.926
313.466
321.254
315.835
329.611
326.423
328.279
329.192
323.804
324.716
325.258
326.226
322.923
322.93
322.977
322.245
327.473
325.608
322.221
321.582
333.688
331.999
327.809
330.018
337.896
337.074
336.178
335.063
338.664
338.617
338.318
337.903
336.637
337.995
338.514
338.628
331.795
334.684
336.814
322.567
325.2
331.954
332.069
328.566
321.095
320.734
320.999
322.407
320.748
324.788
325.725
322.169
320.769
320.951
323.029
329.114
329.461
326.762
327.877
322.066
306.285
315.2
328.926
326.667
301.114
301.177
301.243
301.305
301.365
301.396
301.412
301.4
301.362
301.319
301.256
301.197
301.242
302.275
306.138
309.841
310.622
309.322
307.976
309.392
313.219
316.719
319.278
321.214
321.749
319.843
319.448
319.271
318.949
319.345
317.46
318.312
315.18
316.411
312.315
313.799
310.07
310.859
311.805
310.079
319.302
312.999
328.399
325.107
326.915
327.375
327.309
323.444
324.349
324.899
325.668
321.485
321.696
322.534
321.659
325.552
323.559
320.731
320.369
332.464
330.58
326.065
328.405
337.139
336.347
335.314
334.036
338.527
338.327
337.832
337.147
338.045
338.472
338.539
338.413
334.88
336.955
338.047
325.005
328.47
335.051
335.25
332.133
322.175
320.844
321.8
324.712
320.678
324.004
325.042
321.455
320.616
320.745
322.353
329.014
329.485
326.183
327.607
321.828
300.967
309.172
329.027
326.688
301.173
301.235
301.3
301.362
301.403
301.422
301.419
301.388
301.339
301.286
301.222
301.21
301.772
304.815
309.026
310.208
308.652
305.778
305.078
307.257
311.669
315.998
318.74
319.388
317.579
312.213
316.551
316.441
316.288
316.557
314.908
315.73
312.579
313.85
309.511
311.121
306.773
307.893
308.389
306.609
316.838
310.591
326.268
322.699
326.31
326.823
325.414
325.794
323.159
324.063
324.366
325.035
320.44
320.92
322.195
321.218
323.794
321.92
319.486
319.37
331.196
329.123
324.249
326.744
336.405
335.474
334.329
332.925
338.118
337.625
337.063
336.389
338.382
338.388
338.227
337.884
337.11
338.015
338.241
328.241
332.093
337.162
337.018
335.357
324.11
321.285
323.112
327.542
320.869
323.345
324.457
321.169
320.681
320.818
321.937
328.941
329.553
325.847
327.386
320.089
300.281
304.637
329.117
326.469
301.233
301.299
301.362
301.408
301.429
301.433
301.412
301.363
301.308
301.252
301.211
301.482
303.666
307.958
309.833
308.638
305.294
303.241
303.498
305.711
309.004
311.99
313.277
312.107
307.932
305.042
311.35
304.657
312.254
312.422
312.509
311.287
312.007
309.077
310.299
306.085
307.657
303.899
304.648
306.148
304.284
315.503
309.945
323.775
320.476
325.55
325.781
324.494
324.758
322.662
323.571
323.521
324.144
319.595
320.311
321.652
320.618
321.948
320.255
318.206
318.25
329.898
327.649
322.434
325.073
335.55
334.54
333.298
331.779
337.391
336.861
336.227
335.505
338.188
337.977
337.561
337.044
337.856
337.981
337.894
331.524
335.014
337.588
337.149
336.592
326.188
322.073
324.639
330.208
321.33
322.994
324.223
321.268
321.019
321.161
322.067
328.937
329.618
325.572
327.243
317.177
300.057
301.476
329.267
325.811
301.298
301.358
301.409
301.433
301.443
301.431
301.392
301.33
301.276
301.23
301.352
302.811
306.714
309.384
308.76
305.423
302.955
302.079
302.554
304.047
305.718
306.722
306.25
304.12
301.985
306.052
301.901
301.659
306.93
307.386
307.34
306.55
307.111
304.712
305.725
302.76
303.613
302.639
302.386
305.683
303.549
315.726
311.516
322.595
321.522
319.26
324.58
324.749
323.226
323.461
321.819
322.735
322.288
322.899
318.738
319.591
320.791
319.714
320.117
318.628
316.836
316.986
328.622
326.212
320.619
323.429
334.62
333.553
332.236
330.628
336.503
335.952
335.28
334.526
337.647
337.13
336.561
336.085
337.676
337.52
337.243
334.124
335.685
337.262
336.31
336.251
328.491
323.266
326.709
332.802
322.322
323.18
324.435
321.773
321.939
322.203
322.753
329.067
329.823
325.733
327.292
311.616
300.03
300.697
329.341
324.469
301.356
301.41
301.436
301.453
301.449
301.416
301.364
301.297
301.253
301.316
302.295
305.567
308.775
308.996
306.02
303.183
301.911
301.507
301.836
302.407
302.847
302.708
301.917
301.18
300.798
302.301
300.902
300.871
302.677
302.861
302.854
302.472
302.724
301.791
302.131
301.528
301.533
302.515
301.796
307.281
304.17
316.279
313.588
321.474
320.733
318.046
319.061
323.284
323.442
321.861
321.913
320.564
321.498
320.573
321.216
317.63
318.628
319.509
318.401
318.239
317.062
315.292
315.495
327.449
324.914
318.881
321.911
333.635
332.562
331.2
329.547
335.484
334.889
334.229
333.473
336.531
335.899
335.453
334.879
337.057
336.718
335.748
334.374
334.87
335.788
333.861
334.646
330.998
325.175
329.373
332.676
324.224
323.835
325.052
322.878
323.806
323.754
323.541
329.333
330.021
326.23
327.74
308.363
300.234
301.119
329.293
323.506
301.408
301.44
301.461
301.462
301.44
301.393
301.334
301.274
301.321
302.061
304.692
308.023
309.044
306.938
304.011
302.199
301.373
301.205
301.291
301.397
301.344
301.096
300.885
300.775
300.726
300.739
300.964
300.74
301.022
301.064
301.059
301
301.04
300.974
300.96
301.379
301.075
304.057
302.197
310.747
307.288
317.338
315.702
315.052
313.676
320.033
319.701
317.821
321.645
321.841
320.061
319.985
318.798
319.756
318.288
318.987
316.273
317.272
317.722
316.587
316.365
315.408
313.543
313.736
326.627
324.055
317.561
321.003
332.603
331.619
330.253
328.638
334.351
333.723
333.096
332.356
335.015
334.43
333.801
333.308
335.149
333.817
332.392
333.135
332.946
332.575
332.115
332.749
331.389
327.688
329.514
332.259
326.158
324.359
325.638
323.74
325.081
324.521
324.202
329.586
330.153
326.622
328.117
309.627
300.274
302.83
329.243
323.887
301.445
301.469
301.473
301.46
301.419
301.367
301.312
301.346
302.011
304.136
307.282
308.973
307.671
305.057
302.974
301.534
301.123
301.044
301.029
300.989
300.904
300.827
300.778
300.742
300.696
300.723
300.698
300.71
300.74
300.714
300.741
300.739
300.741
300.752
300.74
300.897
300.788
302.167
301.226
307.025
304.183
311.831
309.643
315.922
313.853
313.83
311.074
317.926
318.01
315.83
319.511
319.826
317.746
317.54
316.47
317.446
315.452
316.192
314.484
315.489
315.392
314.263
314.628
313.642
311.623
311.74
326.298
323.72
317.078
320.718
331.622
330.777
329.63
328.083
332.801
332.335
331.857
331.418
332.192
331.96
331.612
331.505
332.587
332.529
323.327
332.267
323.519
323.462
323.936
323.766
330.161
327.779
328.543
330.598
326.291
324.819
325.742
324.316
324.852
324.554
324.511
329.667
330.279
326.739
328.597
313.559
300.491
305.846
329.282
324.999
301.477
301.483
301.475
301.441
301.392
301.347
301.405
302.044
303.869
306.677
308.704
308.147
305.942
303.751
301.963
301.168
301.024
300.973
300.934
300.886
300.831
300.793
300.762
300.724
300.687
300.692
300.69
300.702
300.707
300.701
300.694
300.696
300.732
300.701
301.143
300.838
303.412
301.902
307.812
305.541
310.853
309.762
313.677
311.663
311.871
310.261
308.986
308.371
315.251
315.625
313.229
316.805
317.26
314.955
314.661
313.656
314.612
312.316
313.034
312.296
313.179
312.575
311.464
313.731
311.855
309.921
309.679
326.134
323.663
317.071
320.738
330.874
329.894
329.251
327.742
331.292
331.05
330.724
330.317
323.317
324.075
323.698
323.84
323.43
324.374
316.691
323.623
316.41
316.369
316.545
316.387
323.508
326.873
323.18
324.186
325.534
324.989
325.867
324.051
321.328
323.534
320.781
324.457
329.779
330.423
327.225
328.798
319.967
390.204
316.603
329.484
327.101
301.492
301.488
301.467
301.419
301.374
301.484
302.178
303.811
306.261
308.389
308.382
306.609
304.435
302.423
301.302
301.047
300.984
300.942
300.906
300.864
300.813
300.783
300.749
300.711
300.676
300.68
300.683
300.68
300.696
300.673
300.674
300.67
300.768
300.698
301.37
300.951
303.728
302.241
307.196
305.63
307.682
307.68
311.358
310.529
309.745
309.2
308.141
312.458
312.772
311.306
313.693
314.27
312.201
311.882
310.659
311.531
310.364
310.742
309.89
310.461
309.86
309.192
313.596
310.862
309.455
308.834
326.032
324.299
318.1
321.61
329.811
328.991
328.634
327.392
323.756
323.822
323.753
323.743
316.766
317.437
317.191
317.486
316.329
317.219
309.409
316.578
309.121
309.173
309.221
309.136
316.754
322.587
316.77
316.801
322.648
324.844
326.098
323.59
316.283
320.398
315.969
324.361
330.112
330.554
327.2
329.273
326.06
713.55
341.01
330.036
329.174
301.499
301.483
301.441
301.4
301.535
302.38
303.847
306.049
308.108
308.439
307.045
304.974
302.85
301.461
301.094
301.013
300.97
300.936
300.901
300.852
300.804
300.775
300.735
300.696
300.687
300.666
300.669
300.671
300.674
300.661
300.668
300.66
300.78
300.698
301.402
300.976
303.416
302.232
304.715
304.485
306.921
305.272
310.877
310.921
311.365
311.714
308.872
311.32
311.299
311.318
311.16
311.524
311.302
311.085
309.568
309.939
310.286
310.476
308.708
308.755
309.131
308.764
314.458
310.847
310.385
309.121
326.269
325.39
320.85
323.822
323.773
327.774
327.754
327.162
317.466
317.774
317.752