/*--------------------------------*- C++ -*----------------------------------*\
  =========                 |
  \\      /  F ield         | OpenFOAM: The Open Source CFD Toolbox
   \\    /   O peration     | Website:  https://openfoam.org
    \\  /    A nd           | Version:  dev
     \\/     M anipulation  |
\*---------------------------------------------------------------------------*/
FoamFile
{
    version     2.0;
    format      ascii;
    class       volVectorField;
    location    "2500";
    object      U;
}
// * * * * * * * * * * * * * * * * * * * * * * * * * * * * * * * * * * * * * //

dimensions      [0 1 -1 0 0 0 0];

internalField   nonuniform List<vector> 
9836
(
(0.00464954 0.00718583 0)
(0.011067 0.00647801 -3.00002e-29)
(0.00463007 0.018946 -6.89818e-28)
(0.0153794 0.00537731 0)
(0.012233 0.0192807 -1.2235e-27)
(0.00399644 0.0274453 1.08947e-36)
(0.0188532 0.00445747 0)
(0.0172641 0.0187331 0)
(0.0117813 0.0284724 0)
(0.00334054 0.0345366 -1.02404e-36)
(0.0215324 0.00372463 9.08168e-28)
(0.0206354 0.0168955 0)
(0.0179709 0.0292657 0)
(0.0104347 0.0355318 0)
(0.00293857 0.0407218 -9.49417e-29)
(0.0237566 0.00312365 8.95394e-28)
(0.0230293 0.0144412 0)
(0.0225862 0.0289209 1.79342e-27)
(0.0171396 0.0370527 0)
(0.00907109 0.0414842 0)
(0.00264523 0.0464184 1.94054e-28)
(0.0257594 0.00265385 0)
(0.0249816 0.0120405 0)
(0.0257668 0.0273921 1.94608e-27)
(0.0228275 0.0381696 -8.96751e-29)
(0.0154051 0.0430088 0)
(0.00809262 0.0469777 -1.04309e-28)
(0.00241794 0.0516197 -4.05315e-36)
(0.0275915 0.00229241 0)
(0.0267114 0.0100641 0)
(0.0278212 0.0250058 0)
(0.0272276 0.0382956 0)
(0.0215376 0.0448898 -9.86047e-29)
(0.0136872 0.0481775 0)
(0.00736406 0.0520605 -1.06347e-28)
(0.00222864 0.0564349 -1.97214e-28)
(0.0292633 0.00202516 0)
(0.0283049 0.00861836 -8.56417e-29)
(0.0291567 0.0221211 -1.06811e-27)
(0.0303377 0.037181 0)
(0.0269056 0.046419 0)
(0.0194458 0.0500222 1.63791e-27)
(0.0123702 0.0530012 1.04155e-27)
(0.00675409 0.0568248 0)
(0.00205784 0.0609156 0)
(0.0307698 0.00182715 0)
(0.0298006 0.00763052 4.175e-29)
(0.0302308 0.0191548 -1.09817e-27)
(0.0323139 0.034998 -8.25506e-29)
(0.0312392 0.0470297 9.54919e-29)
(0.0251559 0.0521905 3.96822e-27)
(0.0175058 0.0544836 1.48633e-27)
(0.0113163 0.0576092 -1.08485e-28)
(0.00622089 0.0612599 -4.25536e-28)
(0.00190754 0.0650928 -5.44078e-28)
(0.0321277 0.00167821 0)
(0.0311947 0.00689649 0)
(0.0312381 0.0165764 5.66117e-29)
(0.0334413 0.0320995 1.45066e-28)
(0.0343997 0.0464657 0)
(0.0303734 0.054101 2.37779e-27)
(0.0228286 0.0565167 1.82319e-27)
(0.0159597 0.0588342 -1.39034e-27)
(0.0104182 0.0619335 0)
(0.00576555 0.0653922 -2.01069e-27)
(0.00177796 0.0690049 0)
(0.0333819 0.00155983 0)
(0.0324845 0.00630581 0)
(0.0322504 0.0146342 8.79975e-28)
(0.0340623 0.0287886 1.4477e-27)
(0.0364149 0.0447309 1.61173e-28)
(0.0346774 0.0552489 -1.66577e-27)
(0.0281994 0.0589154 2.15504e-27)
(0.0207234 0.0605198 -1.69484e-27)
(0.0146741 0.062978 0)
(0.00964379 0.0659626 8.57073e-33)
(0.0053713 0.0692737 -7.93605e-28)
(0.00165741 0.0727014 3.70617e-28)
(0.034538 0.00147131 3.60806e-28)
(0.0336639 0.00582354 0)
(0.0333158 0.0132714 9.04475e-28)
(0.0345536 0.0254443 -7.18682e-29)
(0.0375525 0.0421159 1.64807e-28)
(0.0379106 0.0552912 -1.17851e-27)
(0.0332379 0.0612378 -4.30793e-28)
(0.025665 0.0626912 -2.21402e-28)
(0.0189993 0.0643916 0)
(0.0135635 0.0668815 1.27818e-27)
(0.00896955 0.0697855 -1.00865e-27)
(0.00500118 0.0729618 -7.99754e-28)
(0.00153968 0.0761711 -2.28595e-28)
(0.0355648 0.00140723 7.0422e-28)
(0.0347263 0.00548152 -4.3949e-29)
(0.0343395 0.0122578 1.74254e-27)
(0.0350705 0.0225435 -1.08981e-27)
(0.0380481 0.0389405 -1.31983e-27)
(0.0400798 0.0541508 -2.29027e-29)
(0.0375606 0.0629334 -4.26711e-28)
(0.0307021 0.0652641 0)
(0.0234437 0.06622 -2.22036e-28)
(0.0175422 0.0681143 0)
(0.012585 0.0706027 0)
(0.00835541 0.073428 -1.99599e-27)
(0.00465421 0.076415 -4.07448e-28)
(0.00143363 0.0794189 9.37838e-28)
(0.0364598 0.0013408 6.75605e-28)
(0.0357056 0.00527059 0)
(0.0353201 0.0113473 1.60697e-27)
(0.0356658 0.0202839 0)
(0.0381589 0.0354453 -1.29802e-27)
(0.0412964 0.0519807 0)
(0.0409021 0.0636326 4.20978e-28)
(0.0355868 0.0678866 6.0364e-28)
(0.0280457 0.0684973 -1.08706e-27)
(0.0215796 0.0696899 1.10461e-28)
(0.0162561 0.071701 0)
(0.0117135 0.0741672 8.33388e-33)
(0.00778422 0.0768498 0)
(0.00433329 0.0796466 -1.75477e-32)
(0.00133426 0.0824933 3.33486e-28)
(0.0372529 0.00126424 6.41639e-28)
(0.0366218 0.00506704 0)
(0.0362357 0.0104353 -5.26723e-29)
(0.0364277 0.0185878 1.03123e-27)
(0.038258 0.0319252 0)
(0.0418282 0.0490954 0)
(0.0432361 0.0631606 0)
(0.0399057 0.0700618 6.18818e-28)
(0.032795 0.0711961 -1.83042e-28)
(0.02573 0.0716574 -4.47816e-28)
(0.0199646 0.0730872 1.08873e-28)
(0.0151028 0.0751532 2.85785e-27)
(0.0109165 0.0775428 -3.9909e-28)
(0.00725017 0.0800529 -1.94619e-27)
(0.00403175 0.0827117 -1.14517e-27)
(0.00123595 0.0853807 0)
(0.03795 0.00119276 2.66116e-28)
(0.0374202 0.00481055 0)
(0.0370797 0.00964819 -5.27063e-29)
(0.0372167 0.0173056 1.88844e-27)
(0.0384796 0.0287922 -7.78349e-29)
(0.0419116 0.0457425 0)
(0.0446617 0.0615721 3.11321e-27)
(0.0433795 0.0713871 -4.35795e-28)
(0.0374703 0.0740602 -2.77802e-28)
(0.0300328 0.0740611 1.4605e-28)
(0.0237395 0.0748006 -1.83379e-35)
(0.0185352 0.076387 1.7609e-27)
(0.0140615 0.0784529 0)
(0.0101708 0.0807091 -1.17451e-27)
(0.00675267 0.0830843 -5.93283e-28)
(0.00374122 0.0855977 -7.65006e-28)
(0.00114115 0.0880902 -5.4233e-28)
(0.0385574 0.00112772 3.00411e-28)
(0.0381075 0.00453336 4.31642e-28)
(0.0378395 0.00905087 7.23479e-28)
(0.0379115 0.0162877 8.58704e-28)
(0.0387744 0.026273 -1.48375e-28)
(0.0417405 0.0421574 1.34855e-27)
(0.0453441 0.0590803 3.15507e-27)
(0.0459219 0.0716338 -1.70999e-27)
(0.0417371 0.0766604 -3.75174e-32)
(0.0344815 0.076868 -2.91171e-28)
(0.0276244 0.0768855 1.39498e-28)
(0.0220094 0.0778972 -5.18344e-28)
(0.0172487 0.0795687 -1.71144e-27)
(0.0131017 0.0815762 -3.85713e-28)
(0.00946752 0.0836973 3.62721e-28)
(0.00627581 0.0859632 -1.87502e-27)
(0.0034576 0.0882987 -1.38108e-27)
(0.00105182 0.09062 -5.63832e-28)
(0.0390797 0.00106756 2.45255e-28)
(0.0387028 0.00426025 1.00717e-27)
(0.0385085 0.00859124 5.97675e-28)
(0.0385397 0.0153951 -6.00789e-29)
(0.0391881 0.0242913 1.081e-27)
(0.0415471 0.0386009 2.64336e-27)
(0.0454739 0.0560035 1.57986e-27)
(0.04759 0.0707557 -3.29876e-27)
(0.0453298 0.0785714 5.00372e-37)
(0.0389214 0.0798931 4.56576e-28)
(0.0316597 0.0793579 1.40745e-27)
(0.0255637 0.0797061 -2.02979e-28)
(0.0204795 0.0809203 -1.82948e-27)
(0.0160724 0.0826164 -3.95302e-37)
(0.012205 0.0845173 -3.65127e-28)
(0.00880125 0.0865532 -1.13651e-27)
(0.00580801 0.0886531 -3.17468e-28)
(0.00317688 0.0908293 -1.19423e-27)
(0.000958573 0.0930145 -9.65248e-28)
(0.0394966 0.00101535 0)
(0.0391969 0.00402044 8.68486e-28)
(0.0390722 0.00822362 -5.30228e-29)
(0.0391466 0.0145218 9.67104e-28)
(0.039688 0.0226281 1.02455e-27)
(0.0415004 0.0353533 1.38049e-27)
(0.0452464 0.0525762 2.93113e-27)
(0.0484787 0.0688871 -1.8952e-27)
(0.0481032 0.0795356 0)
(0.0431017 0.0827993 1.13365e-28)
(0.0358229 0.0822117 3.2243e-27)
(0.0292145 0.0818502 0)
(0.0237693 0.0825263 9.72759e-28)
(0.0190901 0.0838538 8.9997e-28)
(0.0149854 0.0854864 1.84724e-28)
(0.0113577 0.0873408 9.92524e-28)
(0.00815796 0.0892294 1.42332e-27)
(0.00534148 0.0911967 -1.45376e-27)
(0.00288907 0.0932309 -1.18099e-27)
(0.000857765 0.0952214 0)
(0.0398133 0.000965544 2.6521e-28)
(0.0395946 0.00381951 4.14137e-28)
(0.039546 0.00787231 -1.05573e-28)
(0.0396726 0.0136271 7.45643e-28)
(0.0401789 0.0212524 2.75873e-28)
(0.0415772 0.0326329 0)
(0.0448572 0.0490019 1.54591e-27)
(0.0487244 0.0662503 -1.07087e-28)
(0.0500123 0.0794466 1.51541e-27)
(0.0467801 0.0852345 0)
(0.0400119 0.0853271 1.50918e-27)
(0.032977 0.0843649 -8.7595e-28)
(0.0270974 0.0844119 1.29572e-27)
(0.0221453 0.0853217 3.29458e-28)
(0.017796 0.0866501 -7.50947e-28)
(0.0139528 0.0882719 1.53942e-27)
(0.010532 0.0900164 1.00673e-27)
(0.0075185 0.0917752 -1.08317e-27)
(0.00487081 0.0936006 -5.14717e-28)
(0.00258654 0.0954483 0)
(0.000756304 0.0972341 2.64801e-28)
(0.040067 0.000920858 2.11786e-28)
(0.0399084 0.00363335 0)
(0.0399223 0.00750125 5.71181e-28)
(0.0400825 0.0128227 5.83944e-29)
(0.0406026 0.0201889 8.77171e-28)
(0.0416823 0.0304648 1.4561e-27)
(0.0444409 0.0455134 1.51743e-27)
(0.0485253 0.0631363 0)
(0.0511223 0.078314 3.55036e-27)
(0.0497348 0.0868805 1.9731e-27)
(0.0440666 0.0884724 2.3091e-28)
(0.0368467 0.0872478 1.68155e-27)
(0.0305001 0.0865998 1.70391e-27)
(0.0252254 0.0870311 -6.79175e-28)
(0.0206346 0.0880407 -6.396e-28)
(0.0165647 0.0893862 -6.98776e-28)
(0.0129471 0.0909341 0)
(0.00971728 0.0925547 -2.79757e-28)
(0.0068721 0.0941834 -4.96027e-28)
(0.00438394 0.0958405 -3.25224e-28)
(0.00227553 0.0974611 4.74186e-28)
(0.000647403 0.0990753 0)
(0.0402468 0.000886987 0)
(0.0401403 0.0034705 -8.96596e-29)
(0.0401867 0.00716175 1.14321e-27)
(0.0403864 0.0122138 -5.64705e-29)
(0.0409046 0.0192648 1.38004e-27)
(0.0418157 0.0287127 9.86798e-28)
(0.0440822 0.0423463 2.58327e-27)
(0.0480199 0.0597685 1.87331e-27)
(0.051544 0.0762945 3.35571e-27)
(0.0518837 0.0875671 1.80564e-27)
(0.0477421 0.0913114 2.31418e-28)
(0.0407868 0.0904327 6.76712e-27)
(0.0340084 0.0891061 -1.16216e-27)
(0.0283587 0.0889559 1.23433e-27)
(0.0235272 0.0896354 -6.42331e-28)
(0.0192257 0.0906903 0)
(0.0153957 0.0919986 -2.38111e-28)
(0.0119625 0.0934624 0)
(0.00890267 0.0949834 -4.84592e-28)
(0.00621372 0.0964342 -2.20288e-27)
(0.00387179 0.0978777 -3.26745e-28)
(0.0019433 0.0993242 0)
(0.000525887 0.100699 2.91578e-28)
(0.0403452 0.000854959 -2.29168e-28)
(0.0403023 0.00334755 -4.41322e-28)
(0.040381 0.00686053 5.20183e-28)
(0.0406085 0.0117385 -5.37643e-29)
(0.0410871 0.0183364 7.50004e-28)
(0.0419872 0.0273012 1.45158e-27)
(0.0437539 0.0396391 1.6022e-27)
(0.0473377 0.0563312 2.82892e-27)
(0.0514077 0.0736408 1.99639e-27)
(0.0532247 0.0872356 1.61911e-27)
(0.0508288 0.0935721 0)
(0.0446615 0.0937238 5.04642e-27)
(0.0376209 0.0919442 -1.50361e-27)
(0.0315693 0.0911198 1.34805e-27)
(0.0264603 0.0914002 -4.07204e-28)
(0.021957 0.0921675 7.39452e-28)
(0.0179047 0.0932361 -2.18958e-27)
(0.014264 0.0945194 5.69437e-28)
(0.0109845 0.0959057 2.40955e-28)
(0.00807297 0.0972493 -1.23852e-27)
(0.00551064 0.0985262 -6.17059e-28)
(0.00331984 0.0997859 0)
(0.00157309 0.100963 -2.85883e-30)
(0.000393619 0.102097 3.96108e-28)
(0.0403924 0.000824875 -2.20134e-28)
(0.0404015 0.00323498 -4.16084e-28)
(0.0405038 0.00658735 -4.45153e-29)
(0.0407946 0.0112877 1.02305e-28)
(0.0412302 0.0174419 8.9244e-28)
(0.0420945 0.0261749 9.66544e-28)
(0.0435006 0.0374258 1.01715e-27)
(0.046604 0.0529774 3.9571e-27)
(0.0508789 0.070591 0)
(0.0538381 0.0859579 4.17261e-27)
(0.0531829 0.0949592 0)
(0.0482653 0.0968894 3.53831e-27)
(0.0412956 0.0951007 1.61792e-27)
(0.0348441 0.0935804 2.05622e-42)
(0.0294324 0.0933491 4.23558e-28)
(0.0247202 0.0937917 1.22165e-27)
(0.0204802 0.0946491 8.23945e-28)
(0.016633 0.0957401 -2.35035e-27)
(0.0131341 0.0969528 0)
(0.00998953 0.0982071 1.96605e-28)
(0.00719084 0.0994225 1.35919e-27)
(0.00475143 0.100468 2.13846e-28)
(0.00271571 0.101478 0)
(0.00116543 0.102379 8.0754e-34)
(0.000245811 0.103243 0)
(0.0403779 0.000802106 -2.12401e-28)
(0.0404265 0.00312183 3.38464e-29)
(0.0405783 0.00637098 -5.61808e-28)
(0.0409113 0.0108111 0)
(0.0413381 0.0166974 -7.34271e-28)
(0.0421384 0.0252027 1.33364e-27)
(0.0433572 0.0356148 1.59107e-27)
(0.0459364 0.0498559 7.46305e-28)
(0.0500929 0.0673168 4.31488e-28)
(0.0538183 0.0839159 3.72532e-27)
(0.0547462 0.0955121 2.81224e-27)
(0.0513985 0.0996011 3.68463e-27)
(0.0449265 0.0984838 3.92788e-27)
(0.0381798 0.0963637 0)
(0.0324373 0.0955196 2.03345e-42)
(0.0275096 0.095567 1.52974e-27)
(0.0231018 0.0961985 7.16391e-28)
(0.0190647 0.0971144 0)
(0.0153737 0.0981589 -8.88152e-28)
(0.0119893 0.0992912 -8.78209e-28)
(0.00894952 0.100444 1.47192e-27)
(0.00624263 0.101411 8.94411e-29)
(0.00393498 0.102227 9.24381e-29)
(0.00204965 0.102962 3.38856e-28)
(0.000710569 0.103547 2.70963e-29)
(9.05242e-05 0.104119 1.00545e-28)
(0.0402958 0.000781651 -2.03548e-28)
(0.0403978 0.00302723 -3.46945e-28)
(0.0406151 0.00618065 -8.93954e-28)
(0.0409391 0.0103231 -1.76683e-28)
(0.041428 0.016127 -1.73186e-27)
(0.0421165 0.0242776 2.01364e-27)
(0.043281 0.0340712 6.10309e-28)
(0.0453803 0.0471002 7.36726e-28)
(0.0491751 0.0639743 -4.22163e-28)
(0.0533826 0.0813276 1.83278e-27)
(0.0555573 0.0949567 1.91313e-27)
(0.0538944 0.101686 2.83217e-27)
(0.0483796 0.101853 3.6154e-27)
(0.0415655 0.0994526 2.16129e-27)
(0.0354751 0.0979396 0)
(0.0303201 0.0975164 -2.1333e-28)
(0.0257423 0.097873 -1.9101e-28)
(0.0215602 0.0985984 1.32342e-27)
(0.0176903 0.099515 1.43437e-28)
(0.0140986 0.100531 -1.03035e-27)
(0.0108091 0.101571 2.87669e-28)
(0.00783814 0.102515 7.97607e-29)
(0.00522823 0.103256 2.51887e-29)
(0.00302904 0.103788 -1.661e-32)
(0.00131046 0.104207 -2.13255e-29)
(0.00019826 0.104438 3.37507e-28)
(-9.71281e-05 0.104712 -3.08231e-27)
(0.0401574 0.000762468 0)
(0.0403077 0.00295073 -3.4027e-28)
(0.0405694 0.00599356 -4.75782e-28)
(0.0409263 0.00990516 -5.28007e-28)
(0.0414453 0.0156318 -9.73882e-28)
(0.0420326 0.0234281 -1.19112e-28)
(0.0431809 0.0327507 0)
(0.044927 0.0448062 1.74449e-27)
(0.0482377 0.0607262 8.11712e-28)
(0.0525911 0.0783852 0)
(0.055731 0.0937012 1.45466e-27)
(0.0556461 0.102959 0)
(0.0514701 0.104983 2.35603e-27)
(0.0449289 0.10277 1.75585e-27)
(0.0385579 0.100644 1.64023e-27)
(0.0331378 0.0996425 0)
(0.0284045 0.0996736 2.91322e-27)
(0.0240923 0.100171 0)
(0.0200771 0.100968 5.89081e-28)
(0.0163146 0.101928 -4.49375e-28)
(0.0127879 0.102856 1.31431e-28)
(0.00955518 0.103743 -4.40812e-32)
(0.0066313 0.104461 1.21285e-29)
(0.00410238 0.104925 0)
(0.00202046 0.105129 1.35646e-28)
(0.000473307 0.105191 -1.10662e-30)
(-0.000336042 0.105023 -1.97889e-27)
(-0.000282888 0.104938 -1.68122e-27)
(0.0399788 0.000748811 1.8562e-29)
(0.0401511 0.00289194 -6.24907e-28)
(0.0404396 0.00585232 0)
(0.0408313 0.00959639 -5.76704e-28)
(0.0413069 0.0151901 -1.73692e-28)
(0.0419523 0.0227378 -8.86423e-28)
(0.0429736 0.0316071 -7.9213e-28)
(0.0445299 0.0429702 3.21344e-32)
(0.0473666 0.057718 0)
(0.0515776 0.0752722 1.71072e-27)
(0.0554205 0.0916957 2.31129e-27)
(0.0568071 0.103172 -4.43967e-28)
(0.0540446 0.10759 0)
(0.0481671 0.106225 1.82106e-27)
(0.0416505 0.103622 1.20493e-27)
(0.0359602 0.101977 0)
(0.0310735 0.101587 4.68155e-27)
(0.026654 0.101832 0)
(0.0225294 0.102498 0)
(0.0186224 0.103403 5.01256e-28)
(0.0149006 0.104302 -1.89634e-28)
(0.0114069 0.105126 1.33646e-28)
(0.00818088 0.105805 -9.07334e-28)
(0.00530275 0.106271 0)
(0.00283173 0.106398 5.33173e-28)
(0.000888686 0.106241 2.3165e-29)
(-0.000469242 0.105842 0)
(-0.000929442 0.105298 -2.02575e-27)
(-0.000542448 0.104738 0)
(0.0397894 0.000742145 -2.96688e-30)
(0.039956 0.00284739 -6.19587e-28)
(0.0402785 0.00574667 3.72769e-29)
(0.0406573 0.00934813 1.10177e-27)
(0.0411088 0.0148395 -2.93604e-28)
(0.0418022 0.0221417 -3.56265e-27)
(0.0426724 0.0306503 -1.45507e-27)
(0.0441523 0.0414879 -9.55064e-28)
(0.0465363 0.0550893 2.56518e-27)
(0.0504449 0.0721441 1.64621e-27)
(0.0546662 0.0892068 -2.25134e-27)
(0.0569989 0.102738 4.33645e-28)
(0.0560055 0.109519 9.69593e-28)
(0.0511478 0.10956 3.72928e-27)
(0.0447239 0.106844 1.77871e-27)
(0.038795 0.104534 1.17302e-27)
(0.0337357 0.103614 3.26871e-27)
(0.0292237 0.103584 1.1674e-27)
(0.0250159 0.104104 -1.1771e-27)
(0.0210052 0.104911 2.85175e-28)
(0.0171419 0.10583 -8.2255e-35)
(0.0134237 0.106658 1.56795e-28)
(0.00990819 0.107318 -9.48844e-28)
(0.00666755 0.10777 1.45025e-28)
(0.00380163 0.107928 6.20499e-28)
(0.00140024 0.107659 -9.97708e-29)
(-0.000406811 0.107057 0)
(-0.00149725 0.1062 3.3665e-29)
(-0.00161385 0.105132 -1.38446e-27)
(-0.00078939 0.10406 0)
(0.0395828 0.00073935 -1.12516e-28)
(0.0397477 0.00281618 -4.01873e-30)
(0.0400821 0.0056421 1.68229e-27)
(0.0404435 0.00915544 3.16124e-27)
(0.0408989 0.0145667 2.43444e-27)
(0.0415422 0.0215698 -3.52807e-27)
(0.0423556 0.0299858 3.73383e-27)
(0.0436962 0.0402387 -5.27914e-28)
(0.0457233 0.052907 2.77387e-27)
(0.0492394 0.0691194 -3.89127e-28)
(0.0536032 0.0864667 1.73978e-27)
(0.0568571 0.101608 0)
(0.0571854 0.110696 2.8384e-27)
(0.0537028 0.11261 8.63779e-28)
(0.0477023 0.110194 1.81834e-27)
(0.0416338 0.107324 1.7497e-27)
(0.0363902 0.105767 2.71654e-27)
(0.0318009 0.105422 1.67422e-27)
(0.0275307 0.105755 -2.0545e-27)
(0.0234486 0.106455 1.92527e-27)
(0.0194893 0.107369 3.53937e-27)
(0.015605 0.10826 -1.43683e-27)
(0.0118389 0.108991 8.73535e-29)
(0.00825607 0.109452 1.38753e-28)
(0.00496883 0.109637 1.12972e-28)
(0.00209453 0.109387 8.79143e-28)
(-0.000226247 0.108651 -2.75727e-27)
(-0.00186977 0.107536 -3.28954e-30)
(-0.0025835 0.106131 -1.08644e-27)
(-0.00235302 0.104481 7.22921e-27)
(-0.0010652 0.102928 -6.35914e-27)
(0.0393461 0.000740236 4.53541e-29)
(0.0395263 0.00279749 -1.17629e-28)
(0.0398392 0.00556531 1.64198e-27)
(0.0402018 0.00906027 2.04949e-27)
(0.0406359 0.0143341 2.56278e-27)
(0.0412162 0.021088 2.25271e-27)
(0.0420246 0.0295633 3.57474e-27)
(0.0431213 0.0391624 9.09755e-28)
(0.0449566 0.0511786 -5.23865e-27)
(0.0480323 0.0662895 1.43313e-27)
(0.0523392 0.0835883 3.31345e-27)
(0.0562362 0.0997276 0)
(0.0577475 0.110887 -4.53932e-27)
(0.0556856 0.115117 9.99627e-28)
(0.0504713 0.113612 0)
(0.0444061 0.110314 0)
(0.0390185 0.108105 0)
(0.0343502 0.107321 2.76499e-27)
(0.0300708 0.107421 0)
(0.0259549 0.108012 1.73166e-27)
(0.0219345 0.108905 3.07534e-27)
(0.0179402 0.109873 -2.86614e-27)
(0.0139742 0.110734 -1.50505e-27)
(0.0100916 0.111318 2.5889e-28)
(0.00639896 0.111538 5.67993e-28)
(0.00303188 0.111338 -1.30075e-27)
(0.000149787 0.110612 1.46238e-28)
(-0.00207026 0.109323 -1.86847e-27)
(-0.00346633 0.107604 -8.17149e-29)
(-0.00386828 0.105644 6.22812e-27)
(-0.0031657 0.103377 0)
(-0.00138009 0.101305 5.42857e-27)
(0.0390972 0.000740357 3.7395e-28)
(0.0392778 0.00280365 -3.22096e-28)
(0.0395845 0.00555098 -3.30415e-29)
(0.0399399 0.00901237 0)
(0.0403243 0.0141284 -2.0626e-28)
(0.0408583 0.0207581 2.92216e-27)
(0.0416362 0.0292082 -5.65631e-28)
(0.0425454 0.0383155 0)
(0.0441887 0.0497833 1.03989e-27)
(0.0468699 0.0637657 1.25508e-26)
(0.0509435 0.0807061 1.47387e-27)
(0.0551914 0.0974382 1.5763e-27)
(0.0576683 0.110432 3.50393e-27)
(0.0570767 0.116974 -9.64949e-28)
(0.0528916 0.116836 0)
(0.047067 0.11353 1.16899e-27)
(0.0415702 0.110637 1.18445e-27)
(0.0368326 0.1093 3.5506e-27)
(0.0325726 0.109107 0)
(0.0284965 0.109561 0)
(0.0244596 0.110424 0)
(0.0204159 0.111463 -2.02348e-27)
(0.0163072 0.112471 -3.30183e-27)
(0.0121863 0.113254 -7.86309e-32)
(0.00813077 0.113638 1.39937e-27)
(0.00427971 0.113515 -2.91543e-28)
(0.000810128 0.11285 -2.89952e-27)
(-0.00205649 0.111554 -1.33597e-28)
(-0.00416702 0.10965 -3.54221e-29)
(-0.0053252 0.107283 6.47848e-28)
(-0.00530339 0.104638 0)
(-0.00399503 0.101734 1.12844e-26)
(-0.00168521 0.099118 0)
(0.0388409 0.00074477 -7.51967e-28)
(0.0390289 0.0028214 5.42693e-28)
(0.039318 0.00556285 -1.73621e-28)
(0.0396547 0.00894812 2.58501e-29)
(0.0399999 0.014005 0)
(0.0404845 0.0205668 -5.89603e-27)
(0.0411729 0.028865 0)
(0.0420113 0.037755 0)
(0.043388 0.0486134 9.06113e-27)
(0.0457426 0.0616524 1.06033e-26)
(0.0494596 0.0779025 1.32827e-27)
(0.0538609 0.0948777 -1.45942e-27)
(0.0572388 0.109483 8.47875e-27)
(0.0578577 0.118028 0)
(0.0548731 0.119778 0)
(0.0495458 0.116831 -7.06433e-27)
(0.0440104 0.113379 1.25551e-27)
(0.0392249 0.111394 3.03013e-27)
(0.0349885 0.110816 1.16119e-27)
(0.0310165 0.111081 1.91161e-27)
(0.0270421 0.11189 0)
(0.0230063 0.112986 0)
(0.0188432 0.114153 -2.08479e-27)
(0.0145438 0.115163 0)
(0.0101876 0.115821 1.4638e-27)
(0.00589118 0.115922 -6.12588e-29)
(0.00184013 0.115362 0)
(-0.00173351 0.114137 -4.21321e-27)
(-0.00459591 0.112228 -1.18999e-28)
(-0.00658035 0.10959 9.36464e-30)
(-0.00737258 0.106437 -7.53642e-27)
(-0.00681342 0.103058 -1.32113e-26)
(-0.00482962 0.0994889 1.54242e-27)
(-0.000979428 0.0972127 0)
(-0.00279455 0.0969029 0)
(0.0385627 0.000758049 -9.70937e-29)
(0.0387547 0.002845 -1.16641e-28)
(0.0390495 0.00557724 -1.01246e-27)
(0.0393599 0.00890597 1.464e-31)
(0.0396656 0.01401 -2.96173e-32)
(0.0400649 0.020471 -1.09045e-26)
(0.0406594 0.0286143 -4.73051e-28)
(0.0414583 0.0374302 7.18437e-27)
(0.0425983 0.047678 -2.98693e-27)
(0.0446293 0.0599663 0)
(0.0479571 0.0752794 -8.81341e-27)
(0.0523152 0.0922331 2.63359e-27)
(0.0562891 0.107927 -1.47398e-27)
(0.0577629 0.118481 0)
(0.0562997 0.122204 9.74868e-27)
(0.051739 0.120167 -6.85027e-27)
(0.046324 0.116297 2.60001e-27)
(0.0414948 0.11362 0)
(0.0373098 0.112551 -3.71773e-27)
(0.0334547 0.112532 3.1302e-27)
(0.0296403 0.113268 0)
(0.0256831 0.114406 2.09058e-27)
(0.0215495 0.115736 2.09134e-27)
(0.0171633 0.116993 -1.05866e-28)
(0.0125844 0.117981 4.6828e-29)
(0.0079041 0.11844 -2.02595e-28)
(0.00329695 0.118149 4.65534e-37)
(-0.000988595 0.117056 0)
(-0.00467488 0.115219 -4.2124e-28)
(-0.00753147 0.112508 3.9751e-28)
(-0.00924143 0.108999 -7.4865e-27)
(-0.00954241 0.105011 -1.13932e-26)
(-0.00835244 0.100915 -1.13113e-26)
(-0.00466388 0.0972326 4.7485e-28)
(-0.0063972 0.0977769 3.70553e-27)
(-0.00102791 0.0956692 -4.54098e-27)
(-0.0029206 0.0954571 -2.25684e-27)
(0.0382706 0.000763163 1.0127e-27)
(0.0384695 0.0028861 6.52126e-28)
(0.0387814 0.00559787 -1.63239e-27)
(0.0390449 0.00893537 -1.97961e-27)
(0.0393067 0.0141049 2.61363e-27)
(0.0396177 0.0204683 -5.3607e-27)
(0.0401226 0.0285047 0)
(0.0408533 0.0372314 6.52602e-27)
(0.0418467 0.0470206 -1.58952e-26)
(0.0435299 0.058651 2.53458e-30)
(0.0464914 0.0729162 -8.47848e-27)
(0.0506255 0.0896297 4.5418e-27)
(0.054875 0.105936 1.50082e-26)
(0.0574207 0.118271 0)
(0.0570629 0.124085 1.31234e-26)
(0.0535462 0.123329 -1.95584e-30)
(0.0484316 0.119417 0)
(0.0436003 0.115992 2.83663e-27)
(0.0395026 0.114318 1.09487e-26)
(0.0357812 0.113931 0)
(0.0321891 0.114527 2.36675e-27)
(0.0284032 0.115693 2.21555e-27)
(0.0243723 0.117175 2.26232e-27)
(0.0200093 0.118709 0)
(0.015301 0.120054 2.18689e-27)
(0.0103359 0.120931 1.43032e-28)
(0.00524333 0.121087 -3.17218e-28)
(0.000264403 0.120319 -2.74816e-28)
(-0.00427588 0.118612 -6.26734e-28)
(-0.00809771 0.115931 4.09021e-28)
(-0.0108488 0.112267 -2.95854e-28)
(-0.0121922 0.107769 -4.38222e-27)
(-0.0106814 0.102603 -4.1468e-27)
(-0.0121616 0.104009 0)
(-0.00845838 0.098346 8.47817e-27)
(-0.0113508 0.101978 0)
(-0.0103983 0.0991125 8.00048e-28)
(-0.00493087 0.0958253 -1.56738e-27)
(-0.00687741 0.0962916 3.42342e-27)
(-0.00101608 0.0941101 -2.24201e-27)
(-0.0030537 0.093926 0)
(0.0379973 0.000756932 0)
(0.0382098 0.00289231 1.12507e-27)
(0.0384909 0.0056164 1.86015e-27)
(0.0387394 0.00905817 -2.03998e-27)
(0.0389334 0.0142408 2.42498e-27)
(0.039185 0.020567 0)
(0.0395643 0.0285056 5.23215e-29)
(0.0402073 0.0371093 0)
(0.0411064 0.0466124 -7.76887e-27)
(0.0424846 0.0576494 -8.49098e-28)
(0.0450541 0.0708807 8.23497e-27)
(0.0488809 0.0871788 1.23758e-26)
(0.0531915 0.10377 1.36692e-26)
(0.0565781 0.117602 2.59059e-27)
(0.0572387 0.125297 0)
(0.054834 0.12626 0)
(0.0502643 0.12263 1.24509e-30)
(0.0454956 0.118574 5.90844e-27)
(0.0414764 0.116146 1.38673e-26)
(0.037965 0.11531 6.0412e-27)
(0.0346099 0.11564 0)
(0.0311217 0.11681 1.15198e-26)
(0.0272708 0.118416 0)
(0.0230397 0.120247 4.33783e-27)
(0.0183181 0.121987 2.44572e-27)
(0.0131761 0.123324 0)
(0.00770502 0.124023 1.04899e-27)
(0.00211029 0.123773 -9.3733e-28)
(-0.00328911 0.122424 0)
(-0.00811878 0.119875 -6.77891e-27)
(-0.0120558 0.116203 -7.88438e-28)
(-0.014594 0.111339 0)
(-0.0139383 0.105322 6.21271e-27)
(-0.0153614 0.107096 6.26825e-27)
(-0.0131912 0.103076 4.67546e-27)
(-0.0090795 0.0968338 4.35465e-27)
(-0.0125155 0.100169 4.57838e-27)
(-0.0112391 0.0975777 -8.05851e-27)
(-0.0051675 0.0942931 -1.5928e-27)
(-0.00732892 0.0946975 1.76586e-27)
(-0.00104902 0.0924849 4.58267e-27)
(-0.00317399 0.0923112 0)
(0.0377189 0.000757594 1.00992e-28)
(0.0379343 0.00286347 0)
(0.0382236 0.00568901 8.92491e-28)
(0.0384422 0.00924628 -5.31371e-31)
(0.0385616 0.0144054 2.49136e-27)
(0.0387529 0.0207468 -2.29957e-27)
(0.0390284 0.028594 0)
(0.0395472 0.0370874 -3.29907e-27)
(0.0403349 0.0463994 3.68877e-27)
(0.0415017 0.0569402 -1.7367e-28)
(0.0436155 0.0692434 7.71009e-27)
(0.0471075 0.0849079 9.7965e-27)
(0.0513365 0.101593 -8.96407e-27)
(0.0551422 0.116404 0)
(0.0568737 0.126011 -2.83828e-27)
(0.0555682 0.128761 0)
(0.0517105 0.125888 0)
(0.0471522 0.121345 -2.38884e-26)
(0.0431992 0.118087 1.94325e-26)
(0.0399133 0.116676 7.95407e-27)
(0.0368624 0.116629 6.43701e-27)
(0.0337396 0.117709 -3.58944e-27)
(0.030211 0.119413 0)
(0.0262012 0.121495 6.94705e-27)
(0.02161 0.123678 -1.36924e-27)
(0.0163969 0.125551 2.58482e-27)
(0.0106723 0.126866 -3.25529e-28)
(0.00458399 0.127249 1.46497e-27)
(-0.00158433 0.126494 -6.76184e-28)
(-0.00746157 0.124344 0)
(-0.0126123 0.120756 -9.71194e-27)
(-0.0165628 0.115731 0)
(-0.0170712 0.108798 -2.52662e-27)
(-0.0183099 0.111079 2.70964e-27)
(-0.0151668 0.104403 0)
(-0.0169947 0.106029 5.73217e-27)
(-0.0146089 0.101387 8.11958e-35)
(-0.00964045 0.0951684 0)
(-0.0135118 0.0985555 -4.13512e-28)
(-0.0120424 0.0958647 -6.82706e-27)
(-0.00538489 0.0926475 5.83686e-28)
(-0.00769382 0.0929623 -5.84731e-28)
(-0.00107718 0.0908088 4.58416e-27)
(-0.00324353 0.0906229 5.8195e-27)
(0.0373991 0.000762036 1.654e-27)
(0.0376323 0.00287065 -3.50686e-28)
(0.037949 0.00580139 1.35898e-27)
(0.0381224 0.00945337 -1.34668e-27)
(0.0382199 0.0146014 5.17317e-27)
(0.0383261 0.0210001 -3.4021e-27)
(0.0385247 0.0287725 5.15677e-28)
(0.0389101 0.0371626 -3.24896e-27)
(0.0395451 0.0463315 3.58595e-27)
(0.0405712 0.0564829 3.92081e-27)
(0.042221 0.0680489 4.23992e-27)
(0.0453198 0.0828705 4.16067e-27)
(0.0493667 0.0994739 -9.76586e-27)
(0.0533878 0.114964 -8.8016e-27)
(0.0559191 0.126239 0)
(0.0557302 0.130819 -1.33319e-26)
(0.0527333 0.129058 0)
(0.048481 0.124304 -2.22971e-26)
(0.0446381 0.120191 1.60903e-26)
(0.0415599 0.118039 1.34347e-26)
(0.0388756 0.117513 8.55033e-27)
(0.0361831 0.118366 -2.5211e-26)
(0.0331269 0.120124 4.59556e-30)
(0.0294542 0.122435 1.79028e-26)
(0.0251204 0.125043 2.02417e-30)
(0.0200055 0.12751 2.32639e-27)
(0.014146 0.129502 -1.90175e-27)
(0.00768654 0.130644 -5.41611e-28)
(0.000859313 0.130635 4.48605e-27)
(-0.0059535 0.129138 -1.45437e-27)
(-0.0123611 0.125941 0)
(-0.017762 0.120947 2.73245e-27)
(-0.0198459 0.113246 0)
(-0.0208042 0.116102 -6.12946e-27)
(-0.0188758 0.107899 -2.68189e-27)
(-0.0205735 0.110092 3.00479e-27)
(-0.0167545 0.102834 0)
(-0.0188993 0.104551 -6.08792e-27)
(-0.0158606 0.0997526 -5.29625e-27)
(-0.0101751 0.0933386 -1.16411e-27)
(-0.0145416 0.0967866 -3.04891e-27)
(-0.0127777 0.0939587 -4.55458e-27)
(-0.00553509 0.0908997 -1.24084e-27)
(-0.00797388 0.0910935 -4.71643e-27)
(-0.00109185 0.0891068 0)
(-0.00325539 0.0888963 1.06442e-26)
(0.0370326 0.000761243 -1.04308e-34)
(0.0373241 0.00289869 -9.24215e-32)
(0.0376307 0.0058962 0)
(0.0378387 0.00966616 2.69393e-27)
(0.0378876 0.0148313 -3.47616e-28)
(0.0379349 0.0213168 1.45866e-27)
(0.0380437 0.0290189 -6.93745e-28)
(0.0383177 0.0373135 0)
(0.0388122 0.0463637 1.26394e-28)
(0.0396773 0.0562051 7.43319e-27)
(0.0409628 0.0672675 4.12452e-27)
(0.043559 0.0810945 -3.74905e-29)
(0.0473522 0.0974877 -4.4906e-27)
(0.0513901 0.113385 -8.98685e-27)
(0.0544575 0.126017 0)
(0.0552752 0.132486 0)
(0.0532298 0.132057 5.1361e-30)
(0.0494481 0.127421 1.13882e-26)
(0.0457301 0.122514 9.65162e-27)
(0.0428434 0.119458 1.58452e-26)
(0.0405467 0.1183 2.89839e-26)
(0.0383524 0.118774 0)
(0.03588 0.120479 -7.13437e-27)
(0.0327342 0.122964 4.06241e-26)
(0.0287905 0.125983 -4.17386e-27)
(0.0239118 0.129097 1.18233e-27)
(0.0180973 0.131824 -8.00146e-27)
(0.0114383 0.133819 1.5663e-28)
(0.00410274 0.13471 1.47128e-27)
(-0.00355141 0.134054 -1.5385e-27)
(-0.0111543 0.13159 0)
(-0.0182125 0.127039 -1.80621e-26)
(-0.0219781 0.118801 -4.70515e-28)
(-0.0225731 0.122251 3.0347e-27)
(-0.0222498 0.112569 -3.3688e-27)
(-0.0237083 0.115403 -2.08849e-28)
(-0.0210101 0.106557 6.30805e-35)
(-0.0230515 0.108873 3.91126e-29)
(-0.0182698 0.101205 -1.1338e-26)
(-0.0207277 0.102961 -1.26609e-26)
(-0.017143 0.0979445 -1.74466e-27)
(-0.010615 0.0913684 -1.27597e-27)
(-0.0155126 0.0948102 -4.37786e-27)
(-0.0134011 0.0918883 -8.23074e-27)
(-0.00558974 0.0890882 1.30624e-26)
(-0.00813779 0.0891427 1.46932e-28)
(-0.00108411 0.0874392 0)
(-0.00319157 0.0872042 -2.08757e-29)
(0.0365932 0.000759568 -1.02981e-28)
(0.0369674 0.00291077 3.89148e-28)
(0.0373272 0.00596627 1.04947e-27)
(0.0375624 0.00986381 -4.02459e-28)
(0.0375882 0.0150769 -1.70384e-27)
(0.0376052 0.0216277 6.19372e-31)
(0.0376238 0.0293004 3.41842e-27)
(0.0377867 0.0375236 -8.10287e-28)
(0.0381613 0.046477 3.2842e-27)
(0.0388228 0.056066 3.74627e-27)
(0.0398735 0.0668056 0)
(0.0418989 0.0796591 -4.03083e-27)
(0.0453388 0.0956403 -4.12724e-27)
(0.0492755 0.11179 4.31585e-27)
(0.0526424 0.125466 4.59452e-27)
(0.0542432 0.133671 -8.49344e-28)
(0.0531435 0.134876 1.04952e-26)
(0.0499661 0.130661 1.03371e-26)
(0.0464305 0.125092 1.38492e-26)
(0.0437046 0.121023 1.65602e-26)
(0.0417776 0.119041 3.05021e-26)
(0.0401442 0.118995 -1.83012e-26)
(0.0383393 0.120446 -8.59355e-27)
(0.0359246 0.123076 1.61704e-26)
(0.0325622 0.126422 -2.62078e-26)
(0.0281111 0.130178 0)
(0.0224885 0.133713 -5.29893e-27)
(0.0157923 0.136651 0)
(0.00814602 0.138553 -3.76888e-28)
(-0.000200744 0.138954 -3.20845e-27)
(-0.00885463 0.137445 2.89751e-27)
(-0.0173385 0.133739 -2.30912e-26)
(-0.023149 0.125472 -1.39806e-27)
(-0.0233162 0.129359 -1.26e-27)
(-0.0249862 0.118492 6.46288e-27)
(-0.0260441 0.122022 3.15822e-27)
(-0.0249954 0.111514 -3.49844e-32)
(-0.026776 0.114525 1.43539e-26)
(-0.0231533 0.10503 3.40392e-27)
(-0.0255315 0.107443 0)
(-0.0198379 0.0993756 -1.38426e-26)
(-0.0226166 0.101147 1.43052e-30)
(-0.0183797 0.0958981 9.83119e-27)
(-0.0109284 0.0893029 -9.18737e-33)
(-0.0163862 0.092651 -2.49685e-27)
(-0.013902 0.0896908 -4.96073e-27)
(-0.00552584 0.0872766 0)
(-0.00816871 0.0871631 -5.77447e-27)
(-0.00104796 0.085874 0)
(-0.00303207 0.0856152 4.26207e-27)
(0.0360737 0.00074778 0)
(0.036536 0.00290323 0)