/*--------------------------------*- C++ -*----------------------------------*\
  =========                 |
  \\      /  F ield         | OpenFOAM: The Open Source CFD Toolbox
   \\    /   O peration     | Website:  https://openfoam.org
    \\  /    A nd           | Version:  dev
     \\/     M anipulation  |
\*---------------------------------------------------------------------------*/
FoamFile
{
    version     2.0;
    format      ascii;
    class       volScalarField;
    location    "2500";
    object      a;
}
// * * * * * * * * * * * * * * * * * * * * * * * * * * * * * * * * * * * * * //

dimensions      [0 -1 0 0 0 0 0];

internalField   nonuniform List<scalar> 
9842
(
0.100011
0.100011
0.100011
0.100011
0.100011
0.100011
0.100011
0.100011
0.100011
0.100011
0.10001
0.100011
0.100011
0.100011
0.100011
0.10001
0.10001
0.100011
0.100011
0.100011
0.100011
0.10001
0.10001
0.10001
0.100011
0.100011
0.100011
0.100011
0.10001
0.10001
0.10001
0.10001
0.100011
0.100011
0.100011
0.100011
0.100009
0.10001
0.10001
0.10001
0.10001
0.100011
0.100011
0.100011
0.100011
0.100009
0.100009
0.10001
0.10001
0.10001
0.10001
0.100011
0.100011
0.100011
0.100011
0.100009
0.100009
0.100009
0.10001
0.10001
0.10001
0.10001
0.100011
0.100011
0.100011
0.100011
0.100009
0.100009
0.100009
0.100009
0.10001
0.10001
0.10001
0.10001
0.100011
0.100011
0.100011
0.100011
0.100009
0.100009
0.100009
0.100009
0.100009
0.10001
0.10001
0.10001
0.10001
0.100011
0.100011
0.100011
0.100011
0.100008
0.100009
0.100009
0.100009
0.100009
0.100009
0.10001
0.10001
0.10001
0.10001
0.100011
0.100011
0.100011
0.100011
0.100008
0.100008
0.100009
0.100009
0.100009
0.100009
0.100009
0.10001
0.10001
0.10001
0.10001
0.100011
0.100011
0.100011
0.100011
0.100008
0.100008
0.100008
0.100009
0.100009
0.100009
0.100009
0.100009
0.10001
0.10001
0.10001
0.10001
0.100011
0.100011
0.100011
0.100011
0.100008
0.100008
0.100008
0.100008
0.100009
0.100009
0.100009
0.100009
0.100009
0.10001
0.10001
0.10001
0.10001
0.100011
0.100011
0.100011
0.100011
0.100007
0.100008
0.100008
0.100008
0.100008
0.100009
0.100009
0.100009
0.100009
0.100009
0.10001
0.10001
0.10001
0.10001
0.100011
0.100011
0.100011
0.100011
0.100007
0.100007
0.100008
0.100008
0.100008
0.100008
0.100009
0.100009
0.100009
0.100009
0.100009
0.10001
0.10001
0.10001
0.10001
0.100011
0.100011
0.100011
0.100011
0.100007
0.100007
0.100007
0.100008
0.100008
0.100008
0.100008
0.100008
0.100009
0.100009
0.100009
0.100009
0.10001
0.10001
0.10001
0.10001
0.100011
0.100011
0.100011
0.100011
0.100007
0.100007
0.100007
0.100007
0.100008
0.100008
0.100008
0.100008
0.100008
0.100009
0.100009
0.100009
0.100009
0.10001
0.10001
0.10001
0.10001
0.100011
0.100011
0.100011
0.100011
0.100006
0.100007
0.100007
0.100007
0.100007
0.100008
0.100008
0.100008
0.100008
0.100008
0.100009
0.100009
0.100009
0.100009
0.10001
0.10001
0.10001
0.10001
0.100011
0.100011
0.100011
0.100011
0.100006
0.100006
0.100007
0.100007
0.100007
0.100007
0.100008
0.100008
0.100008
0.100008
0.100008
0.100009
0.100009
0.100009
0.100009
0.10001
0.10001
0.10001
0.10001
0.100011
0.100011
0.100011
0.100011
0.100006
0.100006
0.100006
0.100007
0.100007
0.100007
0.100007
0.100008
0.100008
0.100008
0.100008
0.100008
0.100009
0.100009
0.100009
0.100009
0.10001
0.10001
0.10001
0.10001
0.100011
0.100011
0.100011
0.100011
0.100006
0.100006
0.100006
0.100006
0.100007
0.100007
0.100007
0.100007
0.100008
0.100008
0.100008
0.100008
0.100008
0.100009
0.100009
0.100009
0.100009
0.10001
0.10001
0.10001
0.10001
0.100011
0.100011
0.100011
0.100011
0.100006
0.100006
0.100006
0.100006
0.100006
0.100007
0.100007
0.100007
0.100007
0.100008
0.100008
0.100008
0.100008
0.100008
0.100009
0.100009
0.100009
0.100009
0.10001
0.10001
0.10001
0.10001
0.100011
0.100011
0.100011
0.100011
0.100005
0.100006
0.100006
0.100006
0.100006
0.100006
0.100007
0.100007
0.100007
0.100007
0.100008
0.100008
0.100008
0.100008
0.100008
0.100009
0.100009
0.100009
0.100009
0.10001
0.10001
0.10001
0.10001
0.100011
0.100011
0.100011
0.100011
0.100005
0.100005
0.100006
0.100006
0.100006
0.100006
0.100006
0.100007
0.100007
0.100007
0.100007
0.100008
0.100008
0.100008
0.100008
0.100008
0.100009
0.100009
0.100009
0.100009
0.10001
0.10001
0.10001
0.10001
0.100011
0.100011
0.100011
0.100011
0.100005
0.100005
0.100005
0.100006
0.100006
0.100006
0.100006
0.100006
0.100007
0.100007
0.100007
0.100007
0.100008
0.100008
0.100008
0.100008
0.100008
0.100009
0.100009
0.100009
0.100009
0.10001
0.10001
0.10001
0.10001
0.100011
0.100011
0.100011
0.100011
0.100005
0.100005
0.100005
0.100005
0.100006
0.100006
0.100006
0.100006
0.100006
0.100007
0.100007
0.100007
0.100007
0.100008
0.100008
0.100008
0.100008
0.100008
0.100009
0.100009
0.100009
0.100009
0.10001
0.10001
0.10001
0.10001
0.100011
0.100011
0.100011
0.100011
0.100004
0.100005
0.100005
0.100005
0.100005
0.100006
0.100006
0.100006
0.100006
0.100006
0.100007
0.100007
0.100007
0.100007
0.100008
0.100008
0.100008
0.100008
0.100008
0.100009
0.100009
0.100009
0.100009
0.10001
0.10001
0.10001
0.10001
0.100011
0.100011
0.100011
0.100011
0.100004
0.100004
0.100005
0.100005
0.100005
0.100005
0.100006
0.100006
0.100006
0.100006
0.100006
0.100007
0.100007
0.100007
0.100007
0.100008
0.100008
0.100008
0.100008
0.100008
0.100009
0.100009
0.100009
0.100009
0.10001
0.10001
0.10001
0.10001
0.100011
0.100011
0.100011
0.100011
0.100004
0.100004
0.100004
0.100005
0.100005
0.100005
0.100005
0.100006
0.100006
0.100006
0.100006
0.100006
0.100007
0.100007
0.100007
0.100007
0.100008
0.100008
0.100008
0.100008
0.100008
0.100009
0.100009
0.100009
0.100009
0.10001
0.10001
0.10001
0.10001
0.100011
0.100011
0.100011
0.100011
0.100004
0.100004
0.100004
0.100004
0.100005
0.100005
0.100005
0.100005
0.100006
0.100006
0.100006
0.100006
0.100006
0.100007
0.100007
0.100007
0.100007
0.100008
0.100008
0.100008
0.100008
0.100008
0.100009
0.100009
0.100009
0.100009
0.10001
0.10001
0.10001
0.10001
0.100011
0.100011
0.100011
0.100011
0.100011
0.100004
0.100004
0.100004
0.100004
0.100004
0.100005
0.100005
0.100005
0.100005
0.100006
0.100006
0.100006
0.100006
0.100006
0.100007
0.100007
0.100007
0.100007
0.100008
0.100008
0.100008
0.100008
0.100008
0.100009
0.100009
0.100009
0.100009
0.10001
0.10001
0.10001
0.10001
0.100011
0.100011
0.100011
0.100011
0.100011
0.100011
0.100003
0.100004
0.100004
0.100004
0.100004
0.100004
0.100005
0.100005
0.100005
0.100005
0.100006
0.100006
0.100006
0.100006
0.100006
0.100007
0.100007
0.100007
0.100007
0.100008
0.100008
0.100008
0.100008
0.100008
0.100009
0.100009
0.100009
0.100009
0.10001
0.10001
0.10001
0.10001
0.100011
0.10001
0.100011
0.100011
0.100011
0.100011
0.100011
0.100011
0.100011
0.100003
0.100003
0.100004
0.100004
0.100004
0.100004
0.100004
0.100005
0.100005
0.100005
0.100005
0.100006
0.100006
0.100006
0.100006
0.100006
0.100007
0.100007
0.100007
0.100007
0.100008
0.100008
0.100008
0.100008
0.100008
0.100009
0.100009
0.100009
0.100009
0.10001
0.10001
0.10001
0.10001
0.10001
0.10001
0.100011
0.100011
0.100011
0.100011
0.100011
0.100011
0.100011
0.100003
0.100003
0.100003
0.100004
0.100004
0.100004
0.100004
0.100004
0.100005
0.100005
0.100005
0.100005
0.100006
0.100006
0.100006
0.100006
0.100006
0.100007
0.100007
0.100007
0.100007
0.100008
0.100008
0.100008
0.100008
0.100008
0.100009
0.100009
0.100009
0.100009
0.10001
0.10001
0.10001
0.10001
0.10001
0.10001
0.10001
0.100011
0.100011
0.100011
0.100011
0.100011
0.100011
0.100011
0.100003
0.100003
0.100003
0.100003
0.100004
0.100004
0.100004
0.100004
0.100004
0.100005
0.100005
0.100005
0.100005
0.100006
0.100006
0.100006
0.100006
0.100006
0.100007
0.100007
0.100007
0.100007
0.100008
0.100008
0.100008
0.100008
0.100008
0.100009
0.100009
0.100009
0.100009
0.10001
0.10001
0.10001
0.10001
0.10001
0.10001
0.10001
0.10001
0.100011
0.100011
0.100011
0.100011
0.100011
0.100011
0.100011
0.100002
0.100003
0.100003
0.100003
0.100003
0.100004
0.100004
0.100004
0.100004
0.100004
0.100005
0.100005
0.100005
0.100005
0.100006
0.100006
0.100006
0.100006
0.100006
0.100007
0.100007
0.100007
0.100007
0.100008
0.100008
0.100008
0.100008
0.100008
0.100009
0.100009
0.100009
0.100009
0.10001
0.10001
0.10001
0.10001
0.10001
0.10001
0.10001
0.10001
0.10001
0.100011
0.100011
0.100011
0.100011
0.100011
0.100011
0.100011
0.100002
0.100002
0.100003
0.100003
0.100003
0.100003
0.100004
0.100004
0.100004
0.100004
0.100004
0.100005
0.100005
0.100005
0.100005
0.100006
0.100006
0.100006
0.100006
0.100006
0.100007
0.100007
0.100007
0.100007
0.100008
0.100008
0.100008
0.100008
0.100008
0.100009
0.100009
0.100009
0.100009
0.100009
0.10001
0.10001
0.10001
0.10001
0.10001
0.10001
0.10001
0.10001
0.10001
0.100011
0.100011
0.100011
0.100011
0.100011
0.100011
0.100011
0.100002
0.100002
0.100002
0.100003
0.100003
0.100003
0.100003
0.100004
0.100004
0.100004
0.100004
0.100004
0.100005
0.100005
0.100005
0.100005
0.100006
0.100006
0.100006
0.100006
0.100006
0.100007
0.100007
0.100007
0.100007
0.100008
0.100008
0.100008
0.100008
0.100008
0.100009
0.100009
0.100009
0.10001
0.10001
0.10001
0.10001
0.100011
0.10001
0.100011
0.10001
0.100011
0.10001
0.100011
0.100011
0.100011
0.100011
0.100011
0.100011
0.100011
0.100011
0.100011
0.100002
0.100002
0.100002
0.100002
0.100003
0.100003
0.100003
0.100003
0.100004
0.100004
0.100004
0.100004
0.100004
0.100005
0.100005
0.100005
0.100005
0.100006
0.100006
0.100006
0.100006
0.100006
0.100007
0.100007
0.100007
0.100007
0.100008
0.100008
0.100008
0.100008
0.100008
0.100009
0.10001
0.100012
0.100012
0.100015
0.100013
0.10002
0.100014
0.100023
0.100014
0.100023
0.100012
0.100019
0.100011
0.100014
0.100011
0.100011
0.100011
0.100011
0.100011
0.100011
0.100011
0.100011
0.100001
0.100002
0.100002
0.100002
0.100002
0.100003
0.100003
0.100003
0.100003
0.100004
0.100004
0.100004
0.100004
0.100004
0.100005
0.100005
0.100005
0.100005
0.100006
0.100006
0.100006
0.100006
0.100006
0.100007
0.100007
0.100007
0.100007
0.100008
0.100008
0.100008
0.100008
0.100009
0.100014
0.100019
0.100022
0.100035
0.100035
0.10007
0.100047
0.100105
0.100052
0.100132
0.100044
0.100126
0.100027
0.100082
0.100015
0.100038
0.100016
0.100011
0.100016
0.100015
0.100011
0.100011
0.100011
0.100011
0.100001
0.100001
0.100002
0.100002
0.100002
0.100002
0.100003
0.100003
0.100003
0.100003
0.100004
0.100004
0.100004
0.100004
0.100004
0.100005
0.100005
0.100005
0.100005
0.100006
0.100006
0.100006
0.100006
0.100006
0.100007
0.100007
0.100007
0.100007
0.100008
0.100008
0.100008
0.100011
0.100023
0.100008
0.100058
0.100092
0.100127
0.100249
0.100233
0.100523
0.100337
0.100826
0.100371
0.101026
0.100286
0.100922
0.100142
0.100562
0.100047
0.100213
0.10005
0.100013
0.100046
0.100035
0.100011
0.100012
0.100011
0.100011
0.100001
0.100001
0.100002
0.100002
0.100002
0.100002
0.100002
0.100003
0.100003
0.100003
0.100003
0.100004
0.100004
0.100004
0.100004
0.100004
0.100005
0.100005
0.100005
0.100005
0.100006
0.100006
0.100006
0.100006
0.100006
0.100007
0.100007
0.100007
0.100007
0.100008
0.100008
0.100012
0.100121
0.100127
0.100194
0.100433
0.100734
0.101035
0.102113
0.101928
0.104326
0.102678
0.106494
0.102707
0.107279
0.101969
0.106012
0.100949
0.103545
0.100271
0.101358
0.100281
0.100023
0.100242
0.100164
0.100011
0.100016
0.100011
0.100011
0.100001
0.100002
0.100002
0.100002
0.100002
0.100002
0.100002
0.100002
0.100003
0.100003
0.100003
0.100003
0.100004
0.100004
0.100004
0.100004
0.100004
0.100005
0.100005
0.100005
0.100005
0.100006
0.100006
0.100006
0.100006
0.100006
0.100007
0.100007
0.100007
0.100007
0.100008
0.100011
0.100129
0.101897
0.102236
0.101062
0.101434
0.103631
0.105884
0.108538
0.114734
0.114699
0.126445
0.11774
0.135476
0.115928
0.137256
0.11123
0.129635
0.105487
0.117876
0.101662
0.10734
0.1017
0.100084
0.101451
0.100971
0.100012
0.100035
0.100011
0.100011
0.100002
0.100005
0.100006
0.100005
0.100004
0.100002
0.100002
0.100002
0.100002
0.100003
0.100003
0.100003
0.100003
0.100003
0.100004
0.100004
0.100004
0.100004
0.100005
0.100005
0.100005
0.100005
0.100006
0.100006
0.100006
0.100006
0.100006
0.100007
0.100007
0.100007
0.100007
0.100011
0.100084
0.102414
0.102448
0.113455
0.115391
0.108364
0.111001
0.121959
0.130372
0.140024
0.154351
0.156077
0.177022
0.1647
0.193405
0.163023
0.199706
0.14728
0.192095
0.124974
0.166183
0.108599
0.131122
0.108692
0.10047
0.107465
0.10518
0.100016
0.100151
0.100011
0.100012
0.100004
0.100013
0.10002
0.100019
0.100013
0.100007
0.100003
0.100002
0.100002
0.100002
0.100003
0.100003
0.100003
0.100003
0.100004
0.100004
0.100004
0.100004
0.100005
0.100005
0.100006
0.100006
0.100006
0.100006
0.100006
0.100006
0.100006
0.100007
0.100007
0.100007
0.100007
0.100011
0.100159
0.102313
0.101061
0.116294
0.116366
0.151474
0.155799
0.138349
0.145458
0.168243
0.181626
0.197033
0.215459
0.220823
0.245523
0.235405
0.268085
0.237824
0.279874
0.222559
0.276393
0.183914
0.251573
0.134836
0.197768
0.134726
0.102665
0.13006
0.121898
0.100037
0.100858
0.100011
0.100014
0.100004
0.100022
0.100043
0.100057
0.100051
0.100032
0.100013
0.100005
0.100003
0.100002
0.100002
0.100003
0.100003
0.100003
0.100003
0.100004
0.100004
0.100005
0.100006
0.100006
0.100008
0.100009
0.100008
0.100008
0.100008
0.100007
0.100007
0.100007
0.100007
0.100007
0.100007
0.10001
0.10013
0.107308
0.115885
0.116806
0.157738
0.157838
0.209832
0.215085
0.193091
0.202395
0.23203
0.24689
0.26734
0.286359
0.296751
0.321112
0.316862
0.348414
0.3243
0.364931
0.313246
0.366266
0.276227
0.34615
0.20464
0.295023
0.20224
0.112442
0.188876
0.16903
0.100163
0.104454
0.100012
0.100027
0.100021
0.100062
0.100108
0.100132
0.100114
0.100058
0.100024
0.100008
0.100003
0.100002
0.100002
0.100003
0.100003
0.100003
0.100004
0.100005
0.100008
0.100011
0.100013
0.100013
0.100016
0.100016
0.100016
0.100015
0.100012
0.10001
0.100009
0.100007
0.100007
0.100007
0.10001
0.100089
0.103492
0.151209
0.145888
0.157181
0.155489
0.217331
0.217343
0.27598
0.280929
0.259089
0.268624
0.303016
0.317144
0.341658
0.358964
0.374533
0.395588
0.398482
0.425344
0.409836
0.444971
0.403155
0.450402
0.371581
0.435457
0.304609
0.389179
0.30391
0.144394
0.289441
0.259522
0.100753
0.117452
0.10003
0.10022
0.10004
0.100122
0.100193
0.100233
0.100191
0.100102
0.100036
0.10001
0.100003
0.100002
0.100002
0.100003
0.100003
0.100004
0.100007
0.100013
0.100022
0.10003
0.100033
0.100036
0.100044
0.100045
0.10004
0.100031
0.100023
0.100016
0.100011
0.100008
0.100008
0.10001
0.100063
0.102437
0.140045
0.127575
0.208533
0.201541
0.216561
0.214199
0.282644
0.282407
0.343325
0.347135
0.328388
0.336974
0.373679
0.385411
0.412447
0.42613
0.446223
0.462044
0.472213
0.492176
0.485225
0.508193
0.482188
0.509524
0.456637
0.500507
0.397878
0.468379
0.395695
0.211644
0.382732
0.363461
0.296103
0.104258
0.160863
0.10102
0.103911
0.100055
0.100165
0.100291
0.100355
0.100295
0.100148
0.100037
0.10001
0.100003
0.100002
0.100002
0.100003
0.100005
0.100013
0.100029
0.100052
0.100077
0.100092
0.1001
0.10011
0.100132
0.100125
0.100094
0.10007
0.100044
0.100024
0.100015
0.100011
0.100012
0.100053
0.101385
0.140456
0.189232
0.185082
0.27132
0.26289
0.281222
0.277958
0.347908
0.347414
0.404988
0.406713
0.394264
0.400709
0.437081
0.445163
0.474046
0.483371
0.506516
0.516788
0.522572
0.532562
0.523945
0.531878
0.520199
0.527747
0.509988
0.522768
0.474041
0.515455
0.496545
0.43127
0.471503
0.344261
0.249009
0.326304
0.414547
0.462844
0.465229
0.405157
0.1106
0.137047
0.301178
0.279551
0.203453
0.111554
0.134543
0.116277
0.13586
0.100048
0.100209
0.100412
0.100508
0.100424
0.100148
0.100037
0.100008
0.100002
0.100002
0.100003
0.100009
0.100028
0.100072
0.100138
0.100209
0.100267
0.100291
0.1003
0.100316
0.100323
0.10029
0.100217
0.100128
0.10007
0.100039
0.100026
0.100022
0.100055
0.100812
0.123606
0.224466
0.199705
0.250742
0.23888
0.334192
0.325149
0.345671
0.341467
0.406546
0.405564
0.455714
0.455446
0.450735
0.454297
0.490137
0.494436
0.524281
0.52947
0.540137
0.546242
0.537764
0.543126
0.531125
0.532553
0.525422
0.525199
0.523954
0.521768
0.521675
0.523211
0.521008
0.517315
0.521959
0.514144
0.496933
0.516912
0.52219
0.497242
0.390542
0.373181
0.453797
0.490801
0.495018
0.444247
0.187611
0.355592
0.341217
0.264578
0.223121
0.145118
0.191177
0.200947
0.100048
0.10028
0.100573
0.100701
0.100432
0.100131
0.100033
0.100005
0.100002
0.100004
0.100015
0.10006
0.100174
0.100363
0.10058
0.100754
0.10084
0.100848
0.100825
0.100799
0.1007
0.100538
0.100372
0.100224
0.100133
0.100086
0.10006
0.100075
0.100474
0.112226
0.209421
0.281059
0.273752
0.312559
0.300399
0.390117
0.381057
0.402817
0.397602
0.454445
0.451864
0.496346
0.494203
0.496662
0.49718
0.532305
0.532882
0.550777
0.552981
0.548094
0.552641
0.533785
0.535351
0.519327
0.517003
0.515714
0.514918
0.518165
0.514118
0.510593
0.523226
0.519497
0.511658
0.505595
0.512765
0.522247
0.515657
0.522436
0.522143
0.515269
0.432162
0.41949
0.485091
0.513841
0.511624
0.477798
0.26085
0.407916
0.398549
0.333538
0.361254
0.214855
0.283749
0.370915
0.272176
0.300421
0.100053
0.100376
0.100785
0.100852
0.100376
0.10009
0.100025
0.100003
0.100005
0.100026
0.10012
0.100385
0.100872
0.101489
0.102032
0.102337
0.102388
0.10227
0.102079
0.101781
0.101382
0.100936
0.100658
0.100414
0.100258
0.100171
0.100146
0.100374
0.105597
0.1704
0.308894
0.277456
0.340803
0.324059
0.369321
0.356765
0.432558
0.423733
0.446899
0.440477
0.489489
0.482511
0.522564
0.513323
0.53184
0.528874
0.552819
0.551082
0.555708
0.556118
0.537444
0.539521
0.514633
0.514413
0.514378
0.514193
0.507836
0.505965
0.504805
0.503975
0.506448
0.502377
0.499946
0.516566
0.508123
0.499647
0.494354
0.499943
0.52134
0.522149
0.520637
0.513911
0.522123
0.469386
0.460785
0.508505
0.522068
0.522057
0.504497
0.335386
0.452342
0.444732
0.393521
0.369801
0.40479
0.19197
0.357066
0.349111
0.100072
0.10056
0.10101
0.100819
0.100236
0.100063
0.10001
0.100006
0.100041
0.10022
0.100768
0.101893
0.103487
0.105108
0.106173
0.106526
0.10627
0.105659
0.104818
0.103761
0.102484
0.10173
0.101127
0.100786
0.100563
0.100419
0.100493
0.102772
0.140472
0.282175
0.354711
0.345868
0.388213
0.374518
0.413222
0.402044
0.458007
0.449401
0.474688
0.466531
0.503143
0.492502
0.525389
0.510774
0.546718
0.537733
0.554358
0.549144
0.539432
0.536906
0.51403
0.513527
0.513071
0.512005
0.503206
0.502265
0.501115
0.49961
0.499025
0.498726
0.498351
0.49752
0.496248
0.495488
0.495985
0.504183
0.495305
0.492733
0.490721
0.490971
0.512175
0.520658
0.511461
0.501151
0.521347
0.499835
0.494399
0.52191
0.522596
0.524409
0.521481
0.396139
0.488114
0.482199
0.440348
0.408018
0.420895
0.419673
0.185716
0.35565
0.100135
0.100882
0.101158
0.100594
0.100132
0.10003
0.10001
0.100062
0.100365
0.101381
0.103664
0.107309
0.111425
0.115068
0.117064
0.116928
0.115369
0.112978
0.109981
0.106457
0.104558
0.103456
0.102791
0.102139
0.101532
0.101164
0.10239
0.121899
0.234139
0.367017
0.338379
0.394852
0.380988
0.420072
0.409038
0.440227
0.430877
0.464136
0.456454
0.482141
0.472651
0.495272
0.480651
0.499347
0.47764
0.537566
0.520166
0.529236
0.51358
0.497969
0.486404
0.497814
0.49564
0.493239
0.490263
0.495937
0.493472
0.490223
0.486593
0.496924
0.497641
0.49759
0.496457
0.493417
0.495801
0.499057
0.492021
0.488926
0.493562
0.495877
0.490026
0.499385
0.511795
0.498831
0.490174
0.513284
0.520675
0.519261
0.526673
0.515978
0.519941
0.529212
0.441578
0.516718
0.513393
0.478241
0.447127
0.446479
0.424996
0.286382
0.388519
0.100361
0.10119
0.101077
0.100358
0.100101
0.100017
0.100084
0.100545
0.102238
0.106354
0.113395
0.122166
0.130249
0.134273
0.133804
0.130383
0.12547
0.119956
0.114995
0.112318
0.111316
0.110756
0.10877
0.106185
0.104105
0.103147
0.113854
0.189104
0.337347
0.394115
0.386899
0.417566
0.408009
0.434673
0.42703
0.449093
0.442082
0.451073
0.445616
0.468244
0.458497
0.457796
0.441975
0.434563
0.408677
0.490974
0.463508
0.466121
0.438312
0.460413
0.451662
0.428711
0.441747
0.482508
0.477931
0.472815
0.466976
0.493933
0.48994
0.484269
0.477506
0.50203
0.503693
0.503663
0.501543
0.499036
0.505443
0.511376
0.4876
0.490458
0.50467
0.511181
0.499098
0.489383
0.499523
0.489452
0.487116
0.50164
0.531664
0.534255
0.525027
0.505347
0.511021
0.530977
0.476553
0.536166
0.536832
0.509148
0.473731
0.459801
0.430691
0.259283
0.375974
0.100984
0.101336
0.100759
0.100208
0.100041
0.100101
0.100736
0.103275
0.109863
0.121595
0.136311
0.148167
0.153173
0.152003
0.146572
0.139011
0.131491
0.126658
0.127754
0.133323
0.136044
0.131945
0.122788
0.113727
0.106664
0.113087
0.160599
0.300115
0.393967
0.375762
0.411566
0.404349
0.425083
0.419822
0.433873
0.429943
0.441458
0.437747
0.420469
0.419583
0.430838
0.424103
0.389247
0.377708
0.337266
0.314348
0.404196
0.36913
0.413993
0.394779
0.34689
0.43513
0.42355
0.395368
0.410499
0.470198
0.46237
0.454065
0.445121
0.497033
0.490315
0.481984
0.472151
0.515909
0.517769
0.517028
0.512793
0.514424
0.523803
0.531542
0.491281
0.502216
0.524524
0.534261
0.517396
0.487146
0.490293
0.487455
0.492034
0.492253
0.537147
0.543028
0.51831
0.495647
0.501592
0.527502
0.504098
0.548365
0.552283
0.533605
0.493452
0.471014
0.424133
0.183084
0.296425
0.101369
0.101202
0.100434
0.100125
0.100117
0.100901
0.10436
0.113784
0.130934
0.151296
0.166115
0.171788
0.169522
0.162026
0.152234
0.14348
0.141077
0.149769
0.166967
0.180371
0.179485
0.162973
0.138198
0.116762
0.115577
0.15062
0.262129
0.373756
0.406788
0.4027
0.417287
0.41341
0.422506
0.420688
0.422885
0.423138
0.420153
0.421543
0.376754
0.383334
0.372682
0.373382
0.301757
0.298791
0.243602
0.228736
0.30544
0.27191
0.378986
0.361549
0.305716
0.284433
0.412387
0.397848
0.364424
0.381926
0.46124
0.449777
0.438031
0.42572
0.505291
0.494833
0.482156
0.468217
0.536363
0.537244
0.534118
0.526251
0.537438
0.548537
0.556311
0.504593
0.522366
0.550741
0.562456
0.54252
0.492107
0.488159
0.491647
0.505125
0.489934
0.53824
0.54879
0.510211
0.492563
0.497316
0.522397
0.52515
0.557273
0.563625
0.551976
0.508299
0.474786
0.399797
0.140285
0.231632
0.101434
0.100774
0.100232
0.100136
0.100997
0.105257
0.117375
0.139771
0.165353
0.182849
0.1883
0.184631
0.175451
0.164207
0.155614
0.156679
0.173982
0.201923
0.22523
0.228946
0.213226
0.180865
0.139935
0.124744
0.151412
0.240943
0.348732
0.403717
0.394994
0.412169
0.409563
0.415502
0.414648
0.413614
0.415535
0.404239
0.409609
0.390623
0.397803
0.326004
0.341597
0.302194
0.311636
0.224469
0.22637
0.188843
0.177028
0.265416
0.243397
0.211453
0.345733
0.326063
0.27656
0.257722
0.391392
0.373965
0.336019
0.355509
0.45356
0.438547
0.423482
0.407894
0.514247
0.498665
0.481209
0.462749
0.559034
0.557658
0.550241
0.536782
0.565117
0.575769
0.580758
0.525093
0.548241
0.580017
0.592455
0.571602
0.503998
0.491042
0.5015
0.524866
0.491661
0.537068
0.552496
0.505175
0.493892
0.49828
0.518471
0.542131
0.565031
0.573272
0.56552
0.518319
0.46971
0.354341
0.113664
0.181863
0.101243
0.100369
0.100162
0.100998
0.10569
0.120006
0.147021
0.177669
0.19689
0.201163
0.196303
0.186233
0.174619
0.167448
0.173275
0.197084
0.233924
0.260362
0.268193
0.259158
0.231859
0.186399
0.146408
0.15992
0.239368
0.332347
0.392711
0.408207
0.405722
0.410937
0.410259
0.409121
0.410941
0.399642
0.405309
0.382151
0.391929
0.356614
0.37031
0.273207
0.295819
0.235349
0.252221
0.170123
0.169355
0.180863
0.170583
0.163303
0.240673
0.224887
0.186812
0.198259
0.316031
0.296135
0.250946
0.234509
0.37001
0.35008
0.308938
0.329643
0.444179
0.42589
0.407819
0.389284
0.518675
0.497324
0.474193
0.451191
0.580769
0.574665
0.561841
0.542349
0.593353
0.600885
0.601971
0.550321
0.576831
0.608571
0.620794
0.601239
0.521721
0.498692
0.51627
0.547792
0.497098
0.536801
0.55617
0.505944
0.497744
0.502038
0.519346
0.555647
0.572629
0.583204
0.57676
0.523903
0.452313
0.305366
0.105213
0.146215
0.100758
0.100263
0.100875
0.105689
0.121259
0.152202
0.187432
0.207479
0.210498
0.205146
0.194393
0.183716
0.178662
0.189129
0.220016
0.256266
0.278855
0.287985
0.287197
0.274922
0.243563
0.200074
0.185427
0.246727
0.330539
0.384011
0.400757
0.397816
0.405303
0.404169
0.404427
0.405518
0.396932
0.401633
0.381158
0.390161
0.355328
0.369652
0.317883
0.337969
0.21925
0.245774
0.177891
0.196181
0.149525
0.142708
0.181269
0.174363
0.179225
0.166748
0.2203
0.208139
0.187676
0.1941
0.288561
0.269176
0.229411
0.217379
0.345463
0.323735
0.281354
0.302164
0.429216
0.40829
0.38769
0.366868
0.517386
0.488719
0.459501
0.431688
0.599134
0.587997
0.570797
0.546073
0.618701
0.621409
0.620275
0.576411
0.603788
0.633735
0.644165
0.626902
0.541064
0.51067
0.53224
0.569237
0.506134
0.539435
0.561491
0.511292
0.504953
0.510427
0.526828
0.566237
0.582245
0.594164
0.587355
0.524756
0.42483
0.258583
0.100911
0.11678
0.100394
0.100745
0.105127
0.121281
0.154783
0.194497
0.215268
0.217427
0.211495
0.200542
0.191512
0.189512
0.204063
0.23711
0.267919
0.283502
0.291549
0.294896
0.294142
0.285556
0.264662
0.24928
0.274503
0.334651
0.380667
0.389895
0.393616
0.39089
0.394334
0.394588
0.389437
0.392621
0.376855
0.384257
0.354064
0.366868
0.319425
0.338308
0.272373
0.297308
0.165443
0.191163
0.139812
0.146497
0.156378
0.145591
0.137653
0.195985
0.188794
0.210497
0.194265
0.208194
0.200934
0.200412
0.203797
0.261932
0.244583
0.21848
0.213348
0.315917
0.293836
0.254271
0.272969
0.406434
0.383216
0.360689
0.338335
0.514718
0.4789
0.441287
0.406924
0.613046
0.599235
0.578226
0.549894
0.638405
0.638614
0.63383
0.598941
0.626444
0.652211
0.6634
0.649024
0.559532
0.523502
0.547792
0.590034
0.516943
0.54882
0.573131
0.523778
0.517676
0.528543
0.544381
0.574622
0.594268
0.606366
0.597914
0.519401
0.392276
0.20636
0.100276
0.106803
0.10056
0.104386
0.119781
0.155036
0.198582
0.22116
0.223004
0.21615
0.205785
0.198586
0.19954
0.21804
0.248985
0.268917
0.281459
0.288141
0.291601
0.294142
0.297281
0.299452
0.302504
0.31872
0.348886
0.378532
0.382571
0.351613
0.373337
0.373425
0.371194
0.373036
0.362448
0.3678
0.344104
0.354627
0.313824
0.33057
0.270982
0.293906
0.218239
0.245428
0.126933
0.139422
0.127177
0.122865
0.175621
0.156649
0.139111
0.159622
0.23064
0.22309
0.263096
0.240585
0.208467
0.20576
0.234195
0.234227
0.23852
0.226425
0.222071
0.223716
0.283653
0.263994
0.235301
0.247362
0.377327
0.351368
0.327406
0.30485
0.514718
0.474031
0.429868
0.386876
0.623165
0.606423
0.583065
0.553149
0.653803
0.652105
0.643639
0.620948
0.648677
0.667622
0.679516
0.670679
0.577413
0.537083
0.564247
0.610268
0.53456
0.567989
0.591054
0.547966
0.543503
0.561842
0.570086
0.581077
0.609011
0.617679
0.608052
0.507797
0.354535
0.168186
0.100079
0.102907
0.102939
0.117558
0.152862
0.199893
0.22559
0.227818
0.220481
0.210999
0.205222
0.208973
0.229693
0.253837
0.266926
0.27399
0.273294
0.27148
0.277522
0.289636
0.30079
0.314558
0.331289
0.351339
0.373095
0.370165
0.337291
0.277495
0.334157
0.272967
0.337173
0.333981
0.336944
0.320373
0.328476
0.295841
0.30956
0.259038
0.278967
0.21203
0.236443
0.161193
0.186531
0.112301
0.114203
0.127292
0.116018
0.214401
0.186582
0.156829
0.194
0.288216
0.279409
0.333282
0.305488
0.227443
0.232441
0.289866
0.288044
0.227763
0.223044
0.246932
0.257077
0.257989
0.245593
0.233727
0.237787
0.349549
0.318998
0.294531
0.274462
0.516365
0.473615
0.426312
0.378489
0.62968
0.611917
0.588549
0.559221
0.667907
0.663193
0.652825
0.644225
0.67672
0.682609
0.700029
0.693846
0.598359
0.560734
0.597322
0.63857
0.569237
0.593343
0.609978
0.580588
0.58621
0.603594
0.599447
0.583252
0.622078
0.627957
0.616004
0.492544
0.316193
0.142691
0.100025
0.101032
0.11275
0.148719
0.198693
0.228891
0.232239
0.225046
0.216427
0.211947
0.218539
0.239095
0.254994
0.262509
0.259551
0.241198
0.220824
0.221067
0.246903
0.280196
0.304062
0.323948
0.342901
0.356496
0.344765
0.302968
0.21341
0.282755
0.205902
0.196023
0.285577
0.281352
0.285148
0.264001
0.27421
0.23513
0.250945
0.195728
0.21677
0.151329
0.173179
0.1211
0.133159
0.108482
0.105992
0.15508
0.130113
0.117204
0.271263
0.232986
0.197283
0.245302
0.361568
0.352455
0.408511
0.37818
0.270097
0.281064
0.361851
0.356833
0.234307
0.237992
0.289493
0.307749
0.250345
0.246077
0.250365
0.246524
0.335092
0.300164
0.275799
0.260089
0.523906
0.481475
0.433669
0.383045
0.637747
0.620952
0.599832
0.573738
0.682661
0.67738
0.66406
0.682502
0.704607
0.701247
0.71149
0.709914
0.643925
0.605795
0.650272
0.694324
0.619616
0.616572
0.625826
0.615717
0.636126
0.645996
0.627392
0.583971
0.638211
0.639552
0.624357
0.47306
0.281064
0.125567
0.100015
0.100404
0.138575
0.194573
0.230511
0.236366
0.230147
0.222174
0.219299
0.228095
0.245061
0.254456
0.257324
0.244179
0.210896
0.17501
0.164013
0.178695
0.212061
0.253863
0.287261
0.308244
0.312782
0.293419
0.245463
0.172567
0.116456
0.213081
0.138194
0.13436
0.216997
0.212866
0.216821
0.194885
0.205449
0.166213
0.181576
0.135045
0.149975
0.114838
0.123371
0.106302
0.109214
0.109191
0.104034
0.189387
0.144922
0.117912
0.136721
0.339671
0.294337
0.245766
0.30388
0.437728
0.428791
0.47414
0.443726
0.32589
0.342847
0.436819
0.428347
0.260666
0.273818
0.349386
0.371237
0.261704
0.264473
0.289435
0.27498
0.335382
0.29735
0.27366
0.263295
0.541598
0.503385
0.459139
0.410365
0.651035
0.635886
0.618251
0.598244
0.697702
0.688568
0.680096
0.712679
0.718382
0.712412
0.732511
0.724266
0.695541
0.65716
0.693015
0.71283
0.667795
0.634455
0.644932
0.642958
0.664705
0.661266
0.645643
0.581728
0.64869
0.647859
0.629915
0.452155
0.253003
0.114653
0.100013
0.100256
0.182111
0.230267
0.240151
0.235546
0.228302
0.22655
0.236691
0.248572
0.253677
0.251704
0.230473
0.18856
0.14743
0.132159
0.13423
0.151137
0.179387
0.208706
0.229644
0.235455
0.220928
0.181829
0.137067
0.108595
0.100508
0.105311
0.142501
0.106568
0.144832
0.141499
0.144255
0.130587
0.136662
0.117567
0.123973
0.107796
0.112041
0.103256
0.104927
0.102537
0.102401
0.125322
0.118317
0.108926
0.10436
0.236327
0.178341
0.157788
0.405176
0.358158
0.299375
0.359354
0.505189
0.495274
0.521291
0.491573
0.393118
0.412424
0.505498
0.499108
0.306862
0.326834
0.420393
0.444661
0.291384
0.30437
0.34503
0.323033
0.360647
0.317988
0.293307
0.288866
0.574518
0.54562
0.510329
0.469633
0.668852
0.655265
0.641181
0.625325
0.710901
0.707435
0.707643
0.72425
0.734418
0.737289
0.742435
0.740906
0.709874
0.69007
0.704152
0.719291
0.681836
0.64858
0.652423
0.654925
0.676858
0.673697
0.655375
0.577958
0.658932