/*--------------------------------*- C++ -*----------------------------------*\
  =========                 |
  \\      /  F ield         | OpenFOAM: The Open Source CFD Toolbox
   \\    /   O peration     | Website:  https://openfoam.org
    \\  /    A nd           | Version:  dev
     \\/     M anipulation  |
\*---------------------------------------------------------------------------*/
FoamFile
{
    version     2.0;
    format      ascii;
    class       volScalarField;
    location    "2500";
    object      alphat;
}
// * * * * * * * * * * * * * * * * * * * * * * * * * * * * * * * * * * * * * //

dimensions      [1 -1 -1 0 0 0 0];

internalField   nonuniform List<scalar> 
9842
(
0.000155432
0.000159201
0.000150296
0.000144834
0.000186806
0.000133012
0.000130847
0.000196716
0.000174457
0.00012587
0.000126682
0.000190997
0.000196629
0.000149423
0.000123437
0.000122974
0.000174837
0.000210878
0.000179105
0.000136163
0.000121834
0.000120921
0.000154833
0.000212483
0.000203017
0.000153549
0.000130738
0.000120686
0.000120296
0.000143595
0.000207578
0.000213802
0.000177735
0.000139453
0.000127794
0.000119861
0.000120067
0.00013531
0.000192311
0.000223313
0.000202266
0.000153864
0.000133489
0.000125709
0.000119305
0.000119882
0.0001298
0.000170757
0.000223392
0.000218428
0.000174133
0.000140235
0.000130423
0.000124174
0.000118929
0.000119341
0.000126247
0.00015448
0.000217039
0.000226431
0.000198585
0.000152705
0.000134233
0.000128211
0.000123
0.000118658
0.000118565
0.000124026
0.000143344
0.000200243
0.000232882
0.000218111
0.000171169
0.000140316
0.000131349
0.000126392
0.000122063
0.000118443
0.000117996
0.000123185
0.000136168
0.000177727
0.000231422
0.000230134
0.000193761
0.000151339
0.000134654
0.000129118
0.000125008
0.000121326
0.000118271
0.000117584
0.000122654
0.000131834
0.000160493
0.000223089
0.000237676
0.000215956
0.000168891
0.00014025
0.000132052
0.00012744
0.000123934
0.000120769
0.000118137
0.000117315
0.000122262
0.000129133
0.000148958
0.000204048
0.00024137
0.000231912
0.000188065
0.000150701
0.000135068
0.000130136
0.000126104
0.00012308
0.000120345
0.000118022
0.000117132
0.000121759
0.000127308
0.000141289
0.000181156
0.000237857
0.000240524
0.000211759
0.000165596
0.000140405
0.000132597
0.00012851
0.000125018
0.000122452
0.00011999
0.000117924
0.000117002
0.000121265
0.000126231
0.000136292
0.000163995
0.000226694
0.00024777
0.000230892
0.000184204
0.000149889
0.000135395
0.000130781
0.000127101
0.000124233
0.000121936
0.000119663
0.000117846
0.000116908
0.000120853
0.000125541
0.000133062
0.000152584
0.000204812
0.000248
0.000243836
0.000205685
0.000163042
0.000140706
0.000132918
0.000129226
0.000125983
0.000123573
0.000121451
0.000119392
0.000117779
0.000116878
0.000120516
0.000124981
0.000130857
0.000144909
0.000182362
0.000242359
0.000249982
0.000228602
0.00018055
0.000149015
0.000135589
0.000131208
0.00012789
0.000125117
0.000122992
0.000121037
0.000119152
0.000117739
0.000116892
0.000120145
0.000124389
0.000129211
0.000140029
0.000166336
0.000227625
0.000255885
0.000244581
0.000200785
0.000161527
0.000140847
0.000133103
0.000129805
0.000126758
0.000124398
0.000122508
0.000120674
0.000118917
0.000117702
0.000116915
0.000119732
0.00012375
0.000127991
0.000136756
0.000155558
0.000203918
0.000254045
0.000254291
0.000225331
0.000176685
0.000148643
0.00013578
0.000131541
0.000128537
0.000125863
0.000123843
0.000122075
0.00012031
0.000118722
0.000117667
0.000116928
0.000119351
0.000123175
0.000127044
0.000133912
0.000148779
0.000182102
0.000245313
0.000261658
0.000245088
0.000197672
0.000159782
0.000141052
0.000133229
0.000130235
0.000127418
0.000125185
0.000123368
0.000121644
0.000119944
0.000118581
0.000117581
0.000116932
0.000118985
0.000122641
0.000126279
0.000131699
0.000144509
0.000167521
0.000225209
0.000263489
0.000258474
0.000219691
0.000173911
0.000148648
0.000136157
0.00013171
0.00012906
0.000126532
0.00012464
0.000122902
0.000121212
0.000119573
0.000118464
0.000117501
0.000116937
0.000118656
0.000122155
0.000125579
0.000130017
0.000141065
0.000157859
0.000199228
0.000258489
0.000264628
0.000244165
0.000193738
0.000158069
0.000141595
0.000133372
0.000130552
0.000127954
0.000125921
0.000124146
0.000122439
0.000120784
0.000119281
0.000118274
0.000117458
0.000116938
0.000118369
0.000121691
0.000124905
0.000128705
0.000137918
0.000151882
0.000179258
0.000244601
0.000270855
0.000259959
0.000215719
0.000172065
0.000148363
0.000136661
0.000131902
0.000129474
0.000126975
0.000125385
0.000123673
0.000121976
0.00012034
0.000119052
0.000118039
0.000117416
0.000116946
0.000118114
0.000121257
0.000124266
0.000127636
0.000135105
0.000147751
0.000166933
0.000218602
0.000268901
0.000269457
0.000241738
0.000189553
0.000157314
0.000142194
0.000133697
0.000130818
0.00012841
0.00012632
0.000124881
0.000123195
0.000121497
0.000119917
0.000118783
0.000117856
0.000117357
0.000116959
0.000117867
0.000120803
0.000123659
0.000126677
0.000132834
0.000144433
0.000158618
0.000193231
0.000260075
0.000276779
0.000261088
0.000213177
0.000169569
0.000148199
0.000137628
0.000132144
0.000129798
0.000127488
0.000125873
0.000124376
0.000122681
0.000121023
0.000119554
0.000118453
0.000117711
0.000117315
0.000116964
0.000117661
0.000120297
0.000123043
0.000125825
0.000131027
0.000141296
0.00015339
0.000177246
0.000239453
0.000278442
0.000274365
0.00023635
0.000186907
0.000156545
0.000142403
0.000134337
0.000131054
0.000128882
0.000126727
0.000125456
0.000123863
0.000122149
0.000120564
0.000119212
0.00011814
0.000117565
0.000117273
0.000116955
0.000117505
0.000119763
0.000122437
0.000125092
0.000129474
0.000138323
0.000149674
0.000166394
0.000211221
0.000273232
0.000279968
0.00026176
0.000208814
0.000167422
0.000148458
0.000138191
0.000132454
0.000130149
0.000128108
0.000126176
0.00012496
0.000123319
0.0001216
0.000120086
0.000118838
0.000117836
0.000117402
0.000117264
0.000116929
0.000117409
0.00011922
0.000121902
0.000124424
0.000128018
0.000135555
0.000146443
0.000159146
0.000188807
0.000259128
0.000286744
0.000276186
0.000232548
0.000184293
0.000155286
0.000143005
0.000135019
0.000131394
0.000129386
0.000127387
0.000125771
0.000124428
0.000122679
0.000121043
0.000119562
0.000118458
0.000117606
0.000117196
0.000117194
0.000116904
0.000117358
0.000118767
0.000121397
0.000123726
0.000126772
0.000133262
0.000143155
0.000154541
0.000175437
0.000232432
0.000284064
0.000285798
0.000259069
0.000204162
0.000166264
0.00014807
0.000138934
0.000132986
0.00013058
0.000128721
0.000126853
0.000125386
0.000123861
0.000122049
0.000120455
0.000119013
0.000118022
0.000117468
0.000117191
0.00011715
0.000116894
0.000117283
0.000118429
0.000120791
0.000123015
0.000125776
0.000131333
0.000139697
0.000151246
0.000166006
0.000204373
0.000275324
0.000292617
0.000278114
0.000229293
0.000180738
0.000154935
0.000143282
0.000135934
0.000131897
0.000129949
0.00012813
0.000126482
0.000124984
0.000123136
0.000121435
0.000119898
0.000118528
0.000117585
0.000117218
0.000117148
0.000117206
0.000116894
0.000117171
0.00011819
0.000120132
0.000122382
0.000124889
0.00012948
0.000136649
0.000147824
0.000159794
0.000186425
0.000254823
0.000295226
0.000290882
0.000253482
0.000200819
0.000164404
0.000148152
0.00013965
0.000133926
0.000131156
0.000129432
0.000127696
0.00012615
0.000124466
0.000122493
0.000120801
0.000119342
0.000118059
0.000117155
0.000116897
0.000116993
0.000117175
0.000116896
0.000117065
0.000118003
0.000119526
0.000121799
0.000124025
0.000127705
0.000134273
0.000143751
0.000155864
0.000174163
0.000225278
0.000290176
0.000296666
0.000279716
0.00022404
0.000178163
0.00015441
0.000143665
0.000136949
0.000132782
0.000130695
0.00012902
0.000127347
0.000125851
0.000123843
0.000121943
0.000120282
0.000118863
0.000117727
0.000116985
0.000116748
0.000116994
0.000117208
0.000117309
0.000116899
0.000116982
0.000117829
0.000119046
0.000121215
0.000123117
0.000126177
0.000132077
0.000140074
0.000152265
0.000166059
0.000198703
0.000276651
0.000305082
0.000293118
0.000249699
0.00019686
0.000162905
0.000148391
0.000140361
0.000135179
0.000132123
0.00013041
0.000128737
0.0001272
0.000125469
0.000123369
0.000121472
0.000119858
0.00011869
0.000117982
0.000117686
0.000117423
0.000117415
0.000117457
0.000117255
0.000117469
0.000116906
0.000116917
0.000117649
0.000118655
0.000120577
0.000122338
0.000125025
0.0001298
0.000137303
0.000147791
0.000160567
0.000184443
0.000249126
0.000301993
0.000304362
0.000276344
0.000219395
0.000175792
0.000153775
0.000144303
0.000138004
0.000133932
0.000131898
0.000130209
0.000128754
0.000127184
0.000125032
0.000122769
0.000121065
0.000119606
0.000118767
0.000118458
0.000117982
0.000118378
0.00011776
0.000118048
0.000118265
0.000117648
0.000117837
0.00011733
0.000117643
0.000116914
0.000116849
0.000117451
0.000118329
0.000119952
0.00012168
0.000123994
0.000127696
0.000134849
0.000143297
0.00015603
0.000173855
0.000219159
0.000293783
0.000310446
0.000297033
0.000245384
0.000193079
0.000161921
0.000148333
0.000141343
0.000136364
0.000133659
0.000131732
0.000130343
0.000128828
0.000127115
0.000124788
0.000122466
0.00012098
0.000119897
0.000119311
0.000118712
0.00011928
0.000118442
0.000118352
0.000118604
0.000118749
0.000117989
0.000118476
0.000117421
0.000117953
0.000116927
0.000116785
0.000117249
0.000118045
0.000119383
0.000121092
0.000123066
0.000126153
0.000132453
0.000139825
0.000151247
0.000166211
0.000196454
0.000274195
0.000315362
0.000308863
0.000271928
0.000214975
0.000173511
0.000153694
0.000144829
0.000139259
0.000135658
0.000133484
0.000131941
0.000130841
0.000129263
0.000127211
0.000124761
0.000122941
0.000122056
0.000121301
0.000119985
0.000121234
0.000118968
0.000119881
0.000119044
0.000118982
0.000119082
0.000115937
0.000118506
0.000114805
0.000111425
0.000105675
0.000116937
0.000116715
0.000117045
0.000117773
0.000118883
0.000120535
0.000122233
0.000125042
0.000130238
0.000137065
0.000146088
0.000160133
0.000183926
0.000245552
0.000309899
0.000316821
0.000297698
0.000240534
0.000189762
0.000160797
0.000148868
0.000142251
0.000138159
0.000135413
0.000133608
0.000132574
0.000131356
0.000129582
0.000127579
0.000125488
0.000124492
0.000124267
0.000122392
0.000123937
0.000121199
0.000118859
0.000118676
0.000112664
0.000112075
0.000105116
0.000102552
9.49802e-05
9.83564e-05
9.09569e-05
8.74358e-05
8.32258e-05
0.000116953
0.000116645
0.000116846
0.000117505
0.000118441
0.000119973
0.000121486
0.00012409
0.000128364
0.000134602
0.000141671
0.000154481
0.000173853
0.000218304
0.000298119
0.000324384
0.000313011
0.000266831
0.000210876
0.000171308
0.000153626
0.000145708
0.000140855
0.000137821
0.00013544
0.000134369
0.000133389
0.000132358
0.000130695
0.000128697
0.000127288
0.000126886
0.000125297
0.00012659
0.000115107
0.000114842
0.000105696
0.00010351
0.00010237
9.67208e-05
9.34702e-05
8.51563e-05
8.53465e-05
7.76558e-05
7.78473e-05
7.33345e-05
7.0773e-05
6.76105e-05
0.000116969
0.000116565
0.000116652
0.000117238
0.000118047
0.000119462
0.000120832
0.000123207
0.00012684
0.000132443
0.000138218
0.000148928
0.000165572
0.000196732
0.000274317
0.000325914
0.000323827
0.000294658
0.000234692
0.000186699
0.000160507
0.000149245
0.000143888
0.000140419
0.000137722
0.000136271
0.000135746
0.000135075
0.000133977
0.000131656
0.00012962
0.000128516
0.00012759
0.000128206
0.000115584
0.000115935
9.96017e-05
0.000100051
9.14617e-05
8.87856e-05
8.58606e-05
8.18245e-05
7.77618e-05
6.9511e-05
7.09931e-05
6.41607e-05
6.32224e-05
6.03012e-05
5.88562e-05
5.62195e-05
0.000116986
0.000116496
0.000116479
0.000116975
0.000117707
0.000119025
0.000120269
0.000122449
0.000125634
0.000130718
0.000135449
0.000143852
0.000158555
0.000183434
0.000248878
0.000318925
0.000331516
0.00031639
0.000262272
0.0002059
0.000170351
0.00015388
0.000146905
0.000143446
0.00014012
0.000138533
0.000137873
0.000137684
0.000136883
0.000134301
0.000131371
0.000129662
0.000128746
0.00012888
0.000124781
0.00012813
9.98359e-05
0.000102724
8.60869e-05
8.68117e-05
7.77854e-05
7.52474e-05
7.2058e-05
6.90921e-05
6.45979e-05
5.73004e-05
5.88249e-05
5.35512e-05
5.25246e-05
5.05682e-05
4.99784e-05
4.76403e-05
0.000116997
0.000116491
0.000116382
0.000116752
0.000117463
0.000118686
0.000119811
0.000121815
0.000124636
0.000129397
0.000133279
0.000139954
0.000152844
0.000173964
0.000222836
0.00030531
0.000338786
0.000329506
0.00028952
0.000230053
0.000183827
0.000160265
0.000150555
0.000146354
0.000143085
0.000140555
0.000139782
0.000140096
0.000139525
0.0001367
0.000133156
0.000130326
0.000129011
0.000128953
0.000128198
0.00012803
0.000108026
0.00011635
8.65517e-05
8.94643e-05
7.42672e-05
7.42254e-05
6.60088e-05
6.41045e-05
6.0494e-05
5.86806e-05
5.37497e-05
4.78623e-05
4.86282e-05
4.47593e-05
4.47824e-05
4.28999e-05
4.38189e-05
4.1528e-05
0.000117041
0.000116668
0.000116506
0.000116733
0.000117429
0.000118513
0.00011949
0.000121329
0.00012389
0.000128391
0.000131652
0.000137109
0.000148048
0.000166398
0.00020111
0.000282634
0.000338783
0.000339477
0.00031632
0.000256293
0.000202624
0.000169123
0.000154841
0.000149841
0.000145879
0.000143389
0.000141872
0.000142636
0.000142132
0.000139285
0.000135279
0.000131414
0.000128794
0.000128495
0.000127504
0.000126364
0.000126106
0.000124378
9.35997e-05
0.000102777
7.42949e-05
7.86804e-05
6.27472e-05
6.44074e-05
5.51658e-05
5.37769e-05
5.12139e-05
4.81132e-05
4.52989e-05
4.10022e-05
4.0811e-05
3.73299e-05
3.88475e-05
3.70855e-05
4.04188e-05
3.77438e-05
0.000117505
0.000117661
0.000117377
0.000117276
0.000117722
0.000118556
0.000119346
0.000121008
0.000123363
0.000127644
0.0001305
0.00013496
0.000144191
0.000160769
0.000187116
0.000259003
0.000330921
0.000348039
0.000334637
0.000284749
0.000225654
0.000181779
0.000160944
0.000153427
0.000149378
0.000145927
0.000144802
0.000145081
0.00014512
0.000142561
0.00013776
0.000132584
0.000128643
0.00013155
0.000125042
0.000122383
0.000120548
0.000113406
0.000114545
0.000105548
8.87077e-05
0.000100728
7.22041e-05
9.4385e-05
5.95271e-05
7.52421e-05
4.74793e-05
5.67025e-05
4.19647e-05
4.29784e-05
3.73333e-05
3.46727e-05
3.40928e-05
3.18019e-05
3.40872e-05
3.20965e-05
3.87424e-05
3.53443e-05
0.000118688
0.000119678
0.000119494
0.000118918
0.000118581
0.000118867
0.000119476
0.000120957
0.00012314
0.000127243
0.000129749
0.000133388
0.000141318
0.00015652
0.000179572
0.000237637
0.000317663
0.000355677
0.000347289
0.000313245
0.000252438
0.0001998
0.000169392
0.000158045
0.000153083
0.000149055
0.000147085
0.000147105
0.000148308
0.000146088
0.000140837
0.000134675
0.000119287
0.000120142
0.000115246
0.000106577
9.80812e-05
9.30288e-05
8.85054e-05
8.82718e-05
8.86557e-05
9.1896e-05
9.48269e-05
9.79268e-05
0.000100678
8.56451e-05
0.00010344
5.58467e-05
9.63738e-05
3.94047e-05
5.45696e-05
3.59718e-05
3.00825e-05
3.29696e-05
2.98678e-05
3.0261e-05
2.89348e-05
4.15891e-05
3.42655e-05
0.00011927
0.000121386
0.00012174
0.000121128
0.000120292
0.000119836
0.00012007
0.000121182
0.000123225
0.000127278
0.000129437
0.000132337
0.000139159
0.000153173
0.000175453
0.00022063
0.000299951
0.000354692
0.000357431
0.000338369
0.000281324
0.000222517
0.00018219
0.000164485
0.000157551
0.000153065
0.000150188
0.000149772
0.000150991
0.000141747
0.000133528
0.000134798
0.000120403
9.12459e-05
9.42758e-05
9.39133e-05
9.07284e-05
9.25248e-05
0.000102749
0.000106603
0.000137916
0.000126958
0.000176465
0.0001335
0.000199997
0.000124101
0.000195732
0.000114442
0.00016139
0.000104147
0.000126736
5.1757e-05
0.000107387
4.68683e-05
2.70432e-05
4.10626e-05
3.4235e-05
2.87257e-05
2.66847e-05
5.4913e-05
3.48864e-05
0.000121038
0.000127067
0.0001286
0.000127244
0.000125409
0.000122825
0.000121703
0.000122077
0.000123731
0.000127735
0.000129477
0.000131848
0.000137614
0.000150751
0.000172701
0.000211377
0.00028441
0.000348507
0.000368668
0.000355556
0.000309998
0.000248339
0.00019961
0.000173841
0.000163789
0.0001574
0.000154762
0.000153269
0.000153944
0.000138887
0.000127678
0.000123379
0.000123588
9.66919e-05
0.000100015
0.000147491
0.000162581
0.000117125
0.000132389
0.000170983
0.000210409
0.000230143
0.000285341
0.000271161
0.000338843
0.000283059
0.000364292
0.000263578
0.000359699
0.000205437
0.000321809
0.000138255
0.000242967
0.000105461
0.000147333
0.000100724
2.69527e-05
9.07357e-05
7.52814e-05
2.87252e-05
2.40838e-05
8.89517e-05
2.91981e-05
0.000122981
0.00013729
0.000143171
0.000142318
0.000138057
0.000131275
0.000126254
0.000124659
0.000125199
0.000128893
0.000129997
0.000131858
0.000136817
0.00014919
0.000171114
0.000208474
0.0002748
0.000340607
0.000374945
0.000369594
0.000338898
0.000277793
0.000222163
0.0001871
0.000171679
0.000163511
0.000159402
0.000157472
0.00015503
0.000135702
0.000124065
0.000118109
0.000122992
0.000100237
7.54312e-05
0.000173344
0.000179915
0.000316851
0.000344407
0.000249376
0.000285179
0.000337451
0.000388005
0.000400225
0.000453392
0.000434312
0.000488771
0.000439295
0.000499327
0.00041884
0.000491541
0.000368112
0.00046256
0.000271648
0.000402518
0.000152533
0.000288545
0.000151149
5.09736e-05
0.00014252
0.000128382
2.10343e-05
2.79353e-05
2.16271e-05
1.8971e-05
0.000122512
0.000147962
0.000164821
0.000169497
0.00016164
0.000148887
0.000136797
0.000130859
0.000128676
0.000130978
0.000131346
0.000132362
0.000136835
0.000148711
0.000171161
0.000209017
0.00027199
0.000336582
0.000378469
0.000384857
0.00036419
0.000310367
0.000251142
0.000207712
0.000183162
0.000171413
0.000164467
0.000161994
0.00015989
0.000135627
0.000119498
0.000110598
0.000126056
0.000148151
0.000180324
0.000182257
0.00036574
0.000379181
0.000503091
0.000529293
0.000433112
0.000471127
0.000498124
0.000536125
0.000532169
0.000563329
0.000544588
0.000573869
0.000542205
0.000575766
0.00052769
0.000569071
0.000494412
0.000552549
0.000426747
0.000517264
0.000292316
0.000441983
0.000279738
0.000110518
0.000249901
0.000208503
1.98096e-05
7.32113e-05
1.03223e-05
1.18605e-05
0.000137043
0.000170352
0.000192035
0.000197346
0.000183311
0.000159757
0.00014477
0.000136215
0.000134877
0.000133735
0.000133747
0.000137541
0.000149264
0.000172651
0.000213189
0.000273221
0.000336385
0.000382247
0.000396364
0.000384857
0.000344387
0.000287613
0.0002381
0.000204405
0.00018302
0.0001725
0.000168543
0.000164334
0.000137584
0.000119679
0.000104397
0.000114262
0.000119468
0.000378432
0.000362786
0.000384013
0.000384124
0.000550761
0.000567132
0.000610731
0.000629044
0.000565976
0.000589905
0.000587076
0.000606544
0.000593642
0.000608734
0.000595141
0.000608148
0.000593021
0.000606336
0.000585687
0.000602087
0.000569461
0.000595273
0.000534215
0.000580854
0.000446407
0.000544502
0.000441244
0.000171533
0.000423459
0.000380976
2.38362e-05
0.000122353
8.06137e-06
1.23848e-05
0.000142585
0.000183558
0.000213343
0.000221593
0.00020429
0.000173405
0.000152236
0.000142763
0.000137999
0.000136226
0.000139446
0.000151484
0.000176211
0.00022309
0.000282553
0.000343173
0.000389795
0.000410702
0.00040998
0.000382275
0.000333593
0.000280322
0.00023706
0.00020619
0.000187118
0.000180139
0.00017188
0.000140574
0.000121578
0.000103517
0.000107239
0.000120962
0.000342093
0.000288541
0.000589353
0.000586986
0.000579808
0.000587589
0.000645794
0.000660726
0.000649606
0.000662246
0.000622762
0.000636737
0.000620617
0.000630216
0.000616838
0.000623744
0.000612412
0.000615398
0.000608434
0.000609845
0.000606528
0.000610855
0.00060134
0.000612498
0.000588436
0.00060474
0.00054771
0.000591912
0.000544486
0.000308533
0.000532506
0.000512048
0.000438452
5.61556e-05
0.000224532
1.0566e-05
5.4586e-05
0.000141024
0.000187503
0.000228434
0.000242296
0.000223705
0.000182175
0.000158138
0.000146081
0.000140369
0.00014255
0.000155686
0.000182958
0.000237652
0.000302502
0.000361259
0.000407055
0.000434788
0.000443864
0.000429151
0.000388148
0.000333774
0.000281998
0.000244934
0.000222963
0.000211123
0.000190367
0.000151513
0.000123552
0.000106112
0.000105219
0.000123812
0.000386625
0.000571818
0.000580884
0.000696863
0.000704254
0.000675182
0.000686989
0.000675263
0.000689001
0.000661391
0.000673506
0.000639744
0.000650265
0.000630365
0.00063756
0.000618398
0.000622531
0.000610261
0.000610573
0.000613042
0.000616421
0.000622322
0.00063276
0.000620837
0.000642533
0.00060604
0.000629208
0.000589321
0.000606144
0.000599689
0.000567834
0.000582946
0.000493162
0.000386764
0.000481306
0.000555484
0.000576306
0.000577281
0.000548527
0.000101825
0.000175703
0.000459541
0.000432609
0.00032038
0.000123208
0.000169927
9.62505e-05
0.000141002
0.00013413
0.000186331
0.000241062
0.000260971
0.000237921
0.000182406
0.000159677
0.000148021
0.000147188
0.000161529
0.000193264
0.000258139
0.000329756
0.000389956
0.000435419
0.000464927
0.000477562
0.000469226
0.000435933
0.000386857
0.000332591
0.000287089
0.000258513
0.000243176
0.00022203
0.000171999
0.000126093
0.000111578
0.000107868
0.000133415
0.000306631
0.000694872
0.000661247
0.000708276
0.000702543
0.000729066
0.000741047
0.000703424
0.000716182
0.000686685
0.000700698
0.000671598
0.000687777
0.000646531
0.000657855
0.000628601
0.000636983
0.000614003
0.000620928
0.000620959
0.000624424
0.000644346
0.000659416
0.000667844
0.000692753
0.000645381
0.000663611
0.000680362
0.000696109
0.000618417
0.000634975
0.00067256
0.000674381
0.000653751
0.000605017
0.000592776
0.000600426
0.000617777
0.000588033
0.000541779
0.00053324
0.000573776
0.00058224
0.000585093
0.000571126
0.000267876
0.000522082
0.000460863
0.000364218
0.000357472
0.000149059
0.000235593
0.000179179
0.000132378
0.000186849
0.000256283
0.000280731
0.000237968
0.000180871
0.000161652
0.000154563
0.000169258
0.000206742
0.000284985
0.000365416
0.000428391
0.000471657
0.00049444
0.000499755
0.00048774
0.000460454
0.000420216
0.000368987
0.000318293
0.000279522
0.000255721
0.00024
0.000214197
0.000142388
0.000113914
0.000105945
0.0001465
0.000258593
0.000703359
0.000762041
0.000775744
0.000750175
0.000759053
0.000740141
0.000752768
0.000715668
0.000727465
0.000705824
0.000724741
0.000690237
0.000715642
0.000650308
0.00066826
0.000631707
0.000647498
0.000632405
0.000646025
0.000669342
0.000680694
0.000704938
0.000716434
0.000704095
0.000710925
0.00071397
0.000717206
0.000689482
0.000700179
0.000706185
0.000634821
0.000654225
0.000687926
0.000676054
0.000671082
0.000613924
0.000596155
0.000608117
0.000631143
0.000591157
0.000568444
0.000564743
0.000579343
0.000585714
0.000580072
0.000577255
0.000317037
0.000547647
0.00050641
0.000410457
0.000214465
0.000190169
0.000455028
0.000266595
0.000280074
0.000215515
0.000131397
0.000196545
0.000281737
0.000292476
0.000230665
0.00017848
0.000166342
0.000179168
0.000223567
0.000317265
0.000409025
0.000475004
0.000512021
0.000521004
0.000510073
0.000489149
0.000463134
0.000428532
0.000383684
0.000334405
0.000291422
0.000264145
0.000251298
0.000232746
0.000199027
0.000129894
0.00010657
0.00014221
0.000219176
0.000631479
0.000794408
0.000783058
0.000786762
0.000795646
0.000765444
0.000778017
0.000774423
0.000786547
0.000744282
0.000761421
0.000743598
0.000771852
0.000731609
0.00076885
0.000669861
0.000698048
0.00066454
0.000689866
0.000694615
0.000712976
0.00072517
0.000687467
0.000716754
0.000719304
0.00071944
0.000705201
0.000708693
0.000710383
0.00070979
0.000707699
0.000694905
0.000699289
0.00070008
0.000644918
0.000628648
0.000662003
0.00062277
0.000618651
0.000624059
0.000600874
0.000604396
0.000607368
0.000592507
0.000575345
0.000572515
0.00057499
0.000583374
0.000574057
0.000570347
0.000375019
0.000568185
0.000562258
0.000479511
0.000274994
0.000235483
0.000257263
0.0002305
0.000313372
0.000131888
0.000225198
0.000316004
0.000288818
0.000204805
0.000187227
0.000191746
0.000243204
0.000354504
0.000459287
0.00052825
0.000556842
0.000550654
0.000526396
0.000493912
0.000463129
0.000430477
0.000391247
0.000345437
0.00030273
0.000280482
0.000263894
0.000246365
0.000224963
0.00020308
0.000139178
0.000146322
0.000195447
0.0004531
0.000797813
0.000816406
0.000819292
0.00080658
0.000812139
0.000795126
0.000801012
0.000840775
0.000856317
0.000799419
0.000823525
0.000806772
0.000843234
0.000803026
0.00084455
0.000722635
0.00076094
0.000715275
0.00071182
0.000650906
0.000617301
0.000719738
0.000660272
0.000671362
0.000581694
0.000704966
0.000702948
0.000702296
0.000703696
0.000696866
0.000690823
0.000683672
0.000676812
0.000664908
0.000682994
0.000674809
0.000586665
0.00058004
0.00063226
0.000605155
0.000587621
0.000574252
0.000577583
0.000547242
0.000556531
0.000559029
0.000565549
0.000559871
0.000564621
0.000546731
0.000542168
0.000555007
0.000454615
0.000552883
0.000543652
0.000555985
0.000400995
0.00038418
0.000406149
0.000245995
0.000185687
0.000138974
0.000288647
0.000332744
0.000270082
0.000206206
0.000212532
0.000265213
0.000395273
0.000515117
0.00058774
0.000610517
0.000598639
0.000577865
0.000560242
0.000540502
0.000513566
0.000479075
0.000435093
0.000383469
0.000339237
0.000302391
0.000278223
0.000249453
0.000221948
0.000199457
0.000184408
0.000194118
0.000341668
0.000780147
0.000846084
0.000831117
0.000855001
0.000851884
0.000868379
0.000862903
0.000867614
0.000871534
0.000930066
0.000950222
0.000877224
0.000906976
0.000884136
0.000922013
0.000777325
0.000815073
0.000722739
0.000745933
0.000602049
0.000600055
0.000571033
0.000540768
0.000690245
0.000666139
0.000633121
0.000590926
0.000671241
0.000667661
0.000666592
0.000668442
0.000663797
0.000652073
0.00064133
0.000632621
0.000652826
0.000648643
0.00063386
0.000550174
0.000561811
0.00062675
0.000601766
0.000581609
0.000528815
0.000525731
0.000508186
0.000528743
0.000510719
0.000545025
0.000534753
0.000543918
0.000504484
0.000503524
0.000536154
0.000553754
0.000523113
0.000511236
0.000534365
0.000552918
0.000551181
0.0004324
0.000440536
0.000158368
0.000178551
0.000353934
0.000323537
0.000235961
0.000229148
0.000290983
0.000437323
0.000575076
0.000653857
0.000678578
0.00067994
0.000692012
0.000713669
0.000726215
0.000721422
0.000703817
0.00067026
0.000612006
0.000529788
0.000444386
0.000375738
0.000320781
0.000267507
0.000229656
0.000207993
0.000203026
0.00028849
0.000720789
0.00084379
0.00091313
0.000898079
0.000955206
0.00093633
0.000973604
0.000968256
0.000965283
0.000972964
0.00101851
0.00104364
0.000957387
0.000989678
0.000868188
0.000941962
0.000632777
0.00065363
0.000604044
0.000620652
0.000515623
0.000508528
0.000540299
0.000501807
0.000476221
0.000495822
0.000669111
0.000627869
0.00058188
0.00055663
0.000626626
0.00062379
0.000624373
0.000628126
0.000619308
0.00060661
0.000596305
0.000588683
0.000621604
0.000604287
0.000588383
0.000541068
0.000558664
0.000595107
0.000569803
0.000574692
0.000508695
0.000492631
0.000493143
0.000523208
0.000483283
0.000520684
0.000504807
0.000511969
0.000480777
0.0004832
0.000517203
0.000531461
0.00048938
0.000475112
0.000501392
0.000537539
0.00054225
0.000244581
0.000177934
0.000156695
0.000320722
0.000364302
0.000286197
0.000253586
0.000315838
0.000477654
0.000637083
0.000725762
0.000760655
0.000789657
0.000840484
0.000894757
0.000925385
0.000933337
0.000925107
0.000905321
0.000869218
0.00082646
0.00077947
0.00074033
0.000665794
0.000530303
0.000385217
0.00027448
0.000240776
0.000280874
0.000625498
0.000802864
0.000986651
0.000942019
0.00104581
0.00102307
0.00108353
0.00106935
0.00108938
0.00109133
0.00106474
0.00108045
0.00106661
0.00110757
0.00098655
0.00102475
0.000690491
0.000735976
0.000484764
0.00049134
0.000495854
0.000490871
0.00046995
0.000445543
0.000393137
0.000498601
0.00047446
0.000440634
0.000455226
0.000634454
0.000591727
0.000548786
0.000521918
0.000584133
0.000582805
0.000584997
0.000590393
0.000574171
0.000562162
0.00055409
0.000549554
0.000575497
0.00055745
0.00054223
0.00053893
0.000547997
0.000547753
0.000522154
0.000546401
0.000507636
0.000482175
0.000495245
0.000521153
0.000475899
0.00049623
0.000475603
0.000493246
0.000474525
0.000477671
0.000498823
0.00050359
0.000456554
0.000442812
0.000468149
0.000519416
0.000532479
0.000239743
0.000203089
0.000167923
0.00040419
0.000344499
0.000287688
0.000337594
0.000512262
0.000698523
0.0008008
0.000850282
0.000910166
0.000994847
0.00106779
0.00110535
0.00111642
0.0011132
0.0011013
0.00108759
0.00107799
0.00110909
0.00113333
0.00108559
0.000973396
0.000781471
0.000534976
0.000329641
0.000301932
0.00055894
0.000738555
0.000990626
0.00115107
0.00113733
0.0011961
0.00117903
0.00121179
0.00120863
0.00119263
0.00120704
0.00114229
0.00117024
0.000994548
0.0011185
0.000798358
0.000884199
0.000514586
0.000550299
0.000311807
0.000317311
0.000351036
0.000327072
0.000427523
0.000406481
0.000324032
0.000304387
0.000451159
0.000428165
0.000382656
0.000404619
0.000594838
0.000547016
0.000507168
0.000476511
0.000548356
0.000549976
0.000554321
0.000560956
0.000530855
0.000522888
0.000519312
0.000518932
0.000527984
0.000512103
0.000502191
0.000525691
0.000520199
0.000500479
0.000474639
0.000499005
0.000507326
0.00048615
0.000497737
0.000508501
0.000482308
0.000473667
0.00044825
0.000489159
0.00047946
0.000482289
0.000480338
0.000478159
0.000428088
0.000415527
0.000439724
0.000503226
0.000463154
0.000240731
0.000135156
0.000184929
0.000410295
0.000324727
0.000353987
0.00054014
0.000754914
0.000876716
0.000940272
0.00102703
0.00114047
0.00121951
0.00124898
0.00125776
0.00125474
0.0012517
0.00125311
0.00128095
0.00133977
0.00135201
0.00131144
0.00121484
0.00106118
0.000842272
0.000590225
0.000391844
0.000556202
0.000688174
0.000931159
0.00128738
0.00124132
0.00132047
0.00130609
0.00133619
0.00133251
0.00131816
0.00133214
0.00126771
0.00129722
0.00117949
0.00122798
0.000786874
0.000890581
0.000609475
0.000688846
0.000338636
0.000378695
0.000234845
0.000249521
0.000286016
0.000271093
0.000247061
0.000359599
0.000337177
0.000277455
0.000257783
0.000400974
0.000377491
0.000332085
0.000354255
0.000538363
0.000491854
0.000455482
0.00042648
0.000521356
0.00052611
0.000532717
0.000535787
0.000495277
0.000491617
0.000492625
0.000496039
0.000482948
0.000470993
0.00046591
0.000497568
0.000478043
0.000455179
0.000428047
0.000450877
0.000496848
0.000492062
0.000490081
0.000481241
0.000487735
0.000450232
0.000424071
0.000485124
0.000485304
0.000481422
0.000456559
0.000457403
0.000403259
0.000391573
0.000416305