/*--------------------------------*- C++ -*----------------------------------*\
  =========                 |
  \\      /  F ield         | OpenFOAM: The Open Source CFD Toolbox
   \\    /   O peration     | Website:  https://openfoam.org
    \\  /    A nd           | Version:  dev
     \\/     M anipulation  |
\*---------------------------------------------------------------------------*/
FoamFile
{
    version     2.0;
    format      ascii;
    class       volScalarField;
    location    "2500";
    object      CO2;
}
// * * * * * * * * * * * * * * * * * * * * * * * * * * * * * * * * * * * * * //

dimensions      [0 0 0 0 0 0 0];

internalField   nonuniform List<scalar> 
9842
(
5.73529e-31
2.49961e-30
7.77689e-31
6.04504e-30
5.55451e-30
7.55069e-31
1.47102e-29
1.37148e-29
5.92855e-30
4.24518e-31
3.70092e-29
3.917e-29
1.48229e-29
5.29321e-30
5.37408e-31
8.85759e-29
9.74943e-29
4.84493e-29
1.68897e-29
3.73592e-30
2.21669e-31
1.94219e-28
2.71793e-28
1.76503e-28
5.58607e-29
1.47848e-29
1.24422e-30
8.77786e-32
3.82161e-28
6.32833e-28
4.07197e-28
1.80255e-28
4.64715e-29
8.26616e-30
5.45592e-31
4.335e-32
4.00286e-28
1.43715e-27
8.56123e-28
4.99278e-28
1.666e-28
3.17121e-29
5.12651e-30
3.20699e-31
1.32784e-32
6.34358e-28
3.60487e-27
2.51299e-27
1.29056e-27
4.69531e-28
1.05688e-28
1.72586e-29
1.39951e-30
1.77269e-31
7.5276e-33
2.40414e-27
7.35316e-27
6.47269e-27
3.45321e-27
1.17857e-27
3.75225e-28
8.10177e-29
9.53733e-30
9.66404e-31
6.80029e-32
1.32885e-33
5.20884e-27
1.38175e-26
1.45752e-26
7.69347e-27
3.13385e-27
1.10419e-27
2.85802e-28
4.48876e-29
5.42768e-30
4.5984e-31
2.36505e-32
3.46008e-34
5.81746e-27
2.1114e-26
3.36438e-26
1.99549e-26
1.04473e-26
3.28169e-27
6.97677e-28
1.53691e-28
2.41113e-29
2.56504e-30
1.37107e-31
8.04049e-33
2.00632e-34
1.37159e-26
5.17523e-26
7.5931e-26
5.61898e-26
2.4741e-26
9.65881e-27
2.69089e-27
6.28739e-28
8.22103e-29
1.12665e-29
7.84473e-31
4.99906e-32
1.96167e-33
2.82005e-35
2.45515e-26
8.05359e-26
1.20876e-25
1.25578e-25
5.86917e-26
2.20166e-26
6.92253e-27
2.06047e-27
3.04691e-28
4.58674e-29
5.63026e-30
3.17434e-31
1.63197e-32
6.41508e-34
2.41601e-34
6.09054e-26
1.66815e-25
2.7522e-25
2.70838e-25
1.68561e-25
6.69222e-26
1.78984e-26
5.06652e-27
1.4838e-27
1.45929e-28
2.12531e-29
2.77162e-30
9.4303e-32
7.34221e-33
1.58844e-33
5.64645e-34
1.34344e-25
3.24585e-25
5.30945e-25
6.49748e-25
4.8167e-25
2.08724e-25
5.98229e-26
1.53002e-26
3.43958e-27
7.54431e-28
1.12176e-28
1.17505e-29
9.00136e-31
4.55936e-32
1.38603e-32
5.43122e-33
2.0374e-33
2.10726e-25
8.1401e-25
1.06628e-24
1.43112e-24
1.02597e-24
4.75817e-25
2.18826e-25
6.02689e-26
1.55838e-26
2.60961e-27
5.9278e-28
5.78616e-29
3.8197e-30
2.89795e-31
7.15875e-32
5.00773e-32
2.25324e-32
3.0606e-32
1.21364e-24
2.42039e-24
2.58187e-24
2.72824e-24
2.52174e-24
1.50953e-24
5.6774e-25
1.5374e-25
5.07558e-26
1.15703e-26
1.74351e-27
2.00533e-28
2.77871e-29
2.2447e-30
2.51927e-31
2.41388e-31
3.04842e-31
2.40084e-31
3.34862e-31
8.02506e-24
1.07393e-23
7.55828e-24
5.20561e-24
4.5029e-24
3.36724e-24
1.6056e-24
5.77701e-25
1.39239e-25
3.36627e-26
6.82164e-27
1.11474e-27
9.55139e-29
1.15476e-29
1.60706e-30
1.3137e-30
1.87803e-30
2.22485e-30
3.50175e-30
3.47823e-30
2.43874e-23
4.34072e-23
3.58822e-23
2.2039e-23
1.27669e-23
6.14099e-24
3.79463e-24
1.56098e-24
4.59507e-25
9.31612e-26
2.64957e-26
4.62501e-27
4.91678e-28
3.92162e-29
7.23947e-30
5.68439e-30
8.31371e-30
2.07992e-29
3.96522e-29
4.38398e-29
2.86583e-29
9.83483e-23
1.38508e-22
1.37523e-22
8.73214e-23
3.31515e-23
1.98538e-23
7.1465e-24
3.74694e-24
1.3808e-24
4.14512e-25
9.31373e-26
1.8808e-26
2.70568e-27
2.40256e-28
4.84192e-29
4.54084e-29
4.42076e-29
7.16808e-29
2.13015e-28
3.6327e-28
4.13767e-28
1.97575e-28
2.99804e-22
5.86651e-22
4.87118e-22
3.34204e-22
1.32747e-22
6.64575e-23
2.67623e-23
6.95964e-24
3.49989e-24
1.16422e-24
3.18869e-25
6.37361e-26
1.10084e-26
1.69024e-27
2.36802e-28
2.67081e-28
3.64928e-28
3.05505e-28
1.0982e-27
2.82088e-27
3.50219e-27
3.21014e-27
2.6088e-27
3.19758e-22
1.81856e-21
1.49265e-21
1.48287e-21
7.02677e-22
2.47102e-22
8.29132e-23
2.24182e-23
7.40326e-24
3.04216e-24
7.69859e-25
2.20279e-25
4.18378e-26
7.11618e-27
1.79369e-27
1.29245e-27
2.70288e-27
3.29301e-27
3.48812e-27
1.24017e-26
2.89218e-26
2.33343e-26
3.17325e-26
9.91095e-27
1.54214e-21
3.01019e-21
6.75993e-21
5.75427e-21
2.42401e-21
8.63327e-22
3.32977e-22
9.84591e-23
1.79769e-23
6.6261e-24
2.05648e-24
6.75849e-25
1.39726e-25
3.00343e-26
7.77484e-27
1.01206e-26
1.66048e-26
3.31031e-26
3.18302e-26
5.36692e-26
1.52313e-25
2.69658e-25
1.86395e-25
2.72823e-25
5.00098e-26
4.06054e-21
6.45622e-21
1.64922e-20
1.69426e-20
1.14292e-20
5.15817e-21
1.55114e-21
3.80144e-22
7.28758e-23
2.04656e-23
7.01046e-24
1.88089e-24
3.99287e-25
8.45585e-26
4.1603e-26
8.11048e-26
1.01557e-25
1.6288e-25
2.09347e-25
2.4615e-25
6.71974e-25
1.62569e-24
2.25316e-24
2.8747e-24
1.63944e-24
4.88465e-25
2.78735e-21
2.31676e-20
2.99763e-20
4.66033e-20
3.6942e-20
1.79974e-20
6.79915e-21
1.97676e-21
3.95816e-22
6.14662e-23
2.03072e-23
5.76279e-24
1.58578e-24
3.70359e-25
2.82855e-25
4.67563e-25
8.02163e-25
8.75033e-25
1.40282e-24
2.072e-24
3.36785e-24
9.10966e-24
1.35879e-23
1.78257e-23
1.76857e-23
7.70271e-24
3.2501e-24
3.65105e-21
2.93811e-20
8.22164e-20
9.56755e-20
9.91517e-20
6.32094e-20
2.73662e-20
7.99152e-21
1.7777e-21
3.32725e-22
7.12919e-23
1.7979e-23
6.55242e-24
2.0084e-24
9.43591e-25
2.2023e-24
4.4778e-24
5.3283e-24
6.18336e-24
2.07126e-23
1.90386e-23
2.80926e-23
8.0549e-23
8.50369e-23
1.20609e-22
9.02626e-23
6.34608e-23
1.87165e-23
1.32268e-20
6.40277e-20
1.17364e-19
2.34233e-19
2.53159e-19
1.75648e-19
7.92573e-20
2.5716e-20
8.35546e-21
1.95932e-21
2.93558e-22
6.73989e-23
2.81739e-23
1.29752e-23
5.78413e-24
9.76416e-24
1.53385e-23
2.39586e-23
5.32961e-23
6.91972e-23
9.60082e-23
1.82504e-22
2.70761e-22
5.98884e-22
7.68305e-22
6.42247e-22
5.24362e-22
5.08869e-22
1.80235e-22
1.88404e-20
8.06816e-20
2.36968e-19
3.77388e-19
5.20722e-19
4.0659e-19
2.96391e-19
1.0227e-19
3.14818e-20
8.01968e-21
1.66415e-21
4.23851e-22
1.68526e-22
1.14626e-22
6.36364e-23
4.38282e-23
9.18504e-23
1.41191e-22
2.67079e-22
3.46635e-22
1.08086e-21
7.09431e-22
1.00379e-21
2.43079e-21
4.62519e-21
4.48003e-21
2.97262e-21
3.8313e-21
2.04863e-21
8.06328e-22
4.15914e-20
9.34913e-20
2.49057e-19
7.31427e-19
1.15504e-18
1.00278e-18
9.20107e-19
5.01839e-19
9.92967e-20
3.13369e-20
7.29342e-21
2.11968e-21
8.13077e-22
7.96892e-22
5.20462e-22
4.01014e-22
4.41187e-22
8.67335e-22
1.56299e-21
2.8189e-21
4.71453e-21
3.71746e-21
5.58493e-21
1.16039e-20
2.12923e-20
2.53018e-20
2.77351e-20
2.70432e-20
1.54359e-20
9.26329e-21
3.73046e-21
3.60629e-20
2.43316e-19
4.49032e-19
1.39646e-18
1.67064e-18
2.52654e-18
1.89958e-18
1.35988e-18
4.67629e-19
8.87283e-20
2.29081e-20
8.15468e-21
6.08336e-21
5.83421e-21
5.06462e-21
3.60068e-21
2.73543e-21
3.34737e-21
4.9153e-21
8.92903e-21
2.45929e-20
2.32881e-20
4.58571e-20
3.9943e-20
6.39123e-20
1.05079e-19
1.39651e-19
1.58437e-19
1.505e-19
7.45686e-20
5.1432e-20
2.78307e-20
6.40528e-20
7.45773e-19
1.51199e-18
2.91031e-18
2.9957e-18
4.15831e-18
4.38425e-18
2.92525e-18
1.47203e-18
3.9653e-19
9.30736e-20
3.70417e-20
2.84569e-20
2.67887e-20
3.49307e-20
2.53467e-20
1.46708e-20
1.37764e-20
4.62697e-20
3.98555e-20
7.60128e-20
1.94785e-19
1.55139e-19
2.40595e-19
2.91011e-19
3.49419e-19
6.38176e-19
9.80954e-19
1.23413e-18
1.18683e-18
1.40539e-18
4.8908e-19
1.73949e-19
1.67734e-19
1.15499e-18
2.99892e-18
4.68719e-18
5.92157e-18
6.92173e-18
9.92842e-18
8.22009e-18
3.75073e-18
1.5089e-18
4.01204e-19
1.28283e-19
1.59809e-19
1.69992e-19
1.99696e-19
1.55574e-19
1.59591e-19
1.30967e-19
1.27209e-19
3.12628e-19
3.72132e-19
6.45504e-19
4.47876e-19
8.43135e-19
9.63754e-19
1.20108e-18
1.90509e-18
3.16362e-18
1.10892e-17
1.36587e-17
1.39553e-17
1.54011e-17
4.25486e-18
4.46888e-19
3.35671e-18
3.54747e-19
1.48389e-18
5.03218e-18
8.8149e-18
1.26674e-17
1.65761e-17
1.96462e-17
1.59944e-17
1.16445e-17
5.50598e-18
1.57485e-18
7.24896e-19
6.00605e-19
8.1222e-19
9.58958e-19
9.48384e-19
6.4802e-19
9.7409e-19
6.65902e-19
2.02043e-18
2.04743e-18
2.89268e-18
3.64247e-18
1.95335e-18
4.03651e-18
6.50868e-18
5.79057e-18
2.33993e-17
3.74212e-17
1.71851e-16
2.48637e-16
2.74996e-16
0
2.45392e-17
2.24066e-16
3.23409e-18
3.11491e-17
4.61779e-19
2.21961e-18
4.891e-18
1.6193e-17
1.85413e-17
3.05166e-17
3.28548e-17
3.72565e-17
2.47507e-17
1.79568e-17
5.75751e-18
2.95631e-18
3.35178e-18
4.78749e-18
4.3167e-18
4.37182e-18
3.25289e-18
5.19569e-18
5.81244e-18
6.10157e-18
1.1469e-17
1.17552e-17
1.33044e-17
1.21578e-17
9.55607e-18
1.59346e-17
2.51086e-17
5.4525e-17
3.02094e-16
8.40984e-16
2.60769e-15
3.10227e-15
1.38101e-15
4.2894e-15
1.11165e-15
5.48073e-15
7.49864e-15
1.41563e-16
1.1148e-15
1.51624e-17
1.66556e-16
3.77383e-18
8.51757e-18
9.17141e-18
2.31971e-17
4.16649e-17
5.6496e-17
6.35164e-17
5.68079e-17
4.80139e-17
4.72268e-17
1.95741e-17
1.00535e-17
1.4348e-17
2.17322e-17
3.03086e-17
3.26475e-17
1.78751e-17
2.05242e-17
2.57353e-17
2.16249e-17
4.5302e-17
4.24281e-17
4.09896e-17
3.91519e-17
3.91693e-17
4.27662e-17
6.26884e-17
1.68991e-16
9.41954e-16
6.15361e-15
2.26577e-14
5.26347e-14
2.07099e-14
1.00561e-13
3.18055e-14
8.13871e-15
4.73054e-14
5.77495e-14
9.72368e-16
7.38613e-15
4.05644e-17
5.38676e-16
2.92663e-17
4.8208e-17
2.3907e-17
3.49938e-17
6.60505e-17
8.08287e-17
9.47483e-17
1.11052e-16
1.03125e-16
9.12394e-17
6.70954e-17
3.29035e-17
5.06837e-17
8.91789e-17
1.44122e-16
1.20618e-16
1.19162e-16
9.78107e-17
6.77837e-17
8.97043e-17
1.41302e-16
1.16402e-16
1.39573e-16
1.33981e-16
1.16655e-16
1.53811e-16
1.956e-16
6.3999e-16
3.91463e-15
2.60078e-14
1.68141e-13
5.98569e-13
5.12579e-13
1.84939e-12
1.78623e-13
8.4463e-13
2.7821e-13
5.83418e-14
3.72417e-13
4.13565e-13
5.42386e-15
4.64212e-14
1.61096e-16
2.81602e-15
4.43495e-16
4.20096e-16
1.92795e-16
9.27867e-17
1.29196e-16
1.25866e-16
2.00303e-16
2.19384e-16
1.7776e-16
1.45388e-16
1.3415e-16
1.39922e-16
1.59416e-16
3.18068e-16
4.65476e-16
7.87031e-16
4.90513e-16
3.27186e-16
4.21155e-16
3.99904e-16
6.03959e-16
4.40883e-16
4.91201e-16
4.75749e-16
3.71152e-16
3.53418e-16
5.23519e-16
1.58172e-15
1.07364e-14
1.18803e-13
8.47036e-13
4.50377e-12
7.6456e-12
2.19263e-11
4.15968e-12
1.50667e-11
1.50738e-12
7.17879e-12
2.21093e-12
3.75787e-13
2.71301e-12
2.82127e-12
2.85131e-14
2.74759e-13
4.5682e-16
1.25953e-14
2.70733e-15
3.31636e-15
1.68442e-15
6.44346e-16
2.82621e-16
3.03085e-16
3.66084e-16
3.6791e-16
3.47773e-16
2.76664e-16
2.614e-16
2.52097e-16
6.42905e-16
1.15722e-15
2.27774e-15
3.13762e-15
3.30167e-15
2.03798e-15
1.32501e-15
1.38007e-15
1.96778e-15
1.70692e-15
1.75646e-15
1.48898e-15
1.17889e-15
1.13692e-15
1.42651e-15
3.40396e-15
3.93001e-14
3.87785e-13
3.95062e-12
2.66369e-11
6.95439e-11
1.74366e-10
6.04976e-11
1.79915e-10
3.34063e-11
1.28314e-10
1.19632e-11
5.93529e-11
1.693e-11
2.40088e-12
1.96124e-11
1.92635e-11
1.61432e-13
1.65935e-12
2.12685e-15
6.78398e-14
2.90707e-14
3.8175e-14
1.84842e-14
6.18676e-15
1.78431e-15
7.76307e-16
6.05049e-16
6.05918e-16
7.5905e-16
6.04841e-16
5.08222e-16
5.59082e-16
1.3959e-15
3.7543e-15
8.78749e-15
1.52222e-14
2.52535e-14
1.74221e-14
8.43963e-15
7.17271e-15
8.68476e-15
9.30251e-15
9.4217e-15
7.9114e-15
6.00302e-15
4.35008e-15
3.87031e-15
9.66528e-15
8.10627e-14
1.84791e-12
1.45162e-11
1.30503e-10
4.54261e-10
1.11156e-09
5.69107e-10
1.53188e-09
4.92856e-10
1.56708e-09
2.71803e-10
1.10929e-09
9.64383e-11
4.93776e-10
1.29358e-10
1.53207e-11
1.41813e-10
1.30559e-10
9.14504e-13
9.88033e-12
1.05206e-14
3.63349e-13
3.02726e-13
4.29335e-13
2.17699e-13
7.70067e-14
2.07505e-14
4.80446e-15
1.52171e-15
1.10422e-15
1.14021e-15
1.14551e-15
9.4713e-16
1.25929e-15
3.72499e-15
1.23921e-14
3.59605e-14
7.1355e-14
1.28403e-13
1.07268e-13
6.7847e-14
4.75382e-14
5.07343e-14
5.77598e-14
5.75217e-14
4.92001e-14
3.59406e-14
2.38767e-14
1.67765e-14
2.73591e-14
2.10394e-13
2.89862e-12
7.91079e-11
5.40668e-10
2.70441e-09
6.26403e-09
4.09688e-09
1.05407e-08
4.86193e-09
1.38831e-08
4.18208e-09
1.40482e-08
2.30817e-09
9.68025e-09
7.74639e-10
4.07173e-09
9.82415e-10
9.60125e-11
1.01565e-09
8.68139e-10
5.05782e-12
5.69429e-11
5.07544e-14
1.85284e-12
2.84846e-12
4.40862e-12
2.41131e-12
9.2615e-13
2.59686e-13
5.89595e-14
1.28195e-14
3.56376e-15
2.41229e-15
1.97948e-15
1.83872e-15
2.90298e-15
9.85748e-15
4.09364e-14
1.34043e-13
3.0675e-13
5.54589e-13
6.67077e-13
6.56842e-13
3.31511e-13
3.04909e-13
3.4463e-13
3.57091e-13
3.11772e-13
2.23276e-13
1.40916e-13
8.77565e-14
8.65457e-14
5.91627e-13
8.36156e-12
9.78068e-11
2.81608e-09
1.38021e-08
2.73658e-08
2.60104e-08
6.29953e-08
3.81366e-08
1.00129e-07
4.35758e-08
1.27444e-07
3.66492e-08
1.25148e-07
1.94224e-08
8.2336e-08
6.11762e-09
3.2783e-08
7.33925e-09
5.8498e-10
7.15738e-09
5.64425e-09
2.67196e-11
3.1481e-10
2.30085e-13
8.72194e-12
2.35205e-11
4.03887e-11
2.45697e-11
9.94241e-12
3.16506e-12
7.52547e-13
1.60077e-13
2.80276e-14
7.82246e-15
4.36354e-15
4.0979e-15
6.43755e-15
2.64501e-14
1.26068e-13
4.65502e-13
1.20922e-12
2.3021e-12
4.86905e-12
3.73317e-12
2.56096e-12
1.84052e-12
1.95264e-12
2.06843e-12
1.88289e-12
1.38824e-12
8.53007e-13
4.98861e-13
3.4624e-13
9.61496e-13
2.45142e-11
4.6009e-10
2.37212e-09
5.42637e-08
1.02509e-07
1.27108e-07
2.57305e-07
2.46734e-07
5.85877e-07
3.50873e-07
9.06448e-07
3.90379e-07
1.14614e-06
3.14167e-07
1.0779e-06
1.58422e-07
6.76297e-07
4.69912e-08
2.56027e-07
5.35041e-08
3.46944e-09
4.96076e-08
3.62295e-08
1.31817e-10
1.6633e-09
9.73182e-13
3.75912e-11
1.64936e-10
3.21114e-10
2.21954e-10
9.96169e-11
3.44703e-11
9.21228e-12
1.83087e-12
3.46471e-13
6.55099e-14
1.50166e-14
9.15978e-15
1.48073e-14
7.13951e-14
3.7845e-13
1.52582e-12
4.38549e-12
9.11363e-12
1.62845e-11
2.28008e-11
2.4295e-11
1.14449e-11
1.0785e-11
1.12566e-11
1.05121e-11
8.11793e-12
5.12353e-12
2.89616e-12
1.56971e-12
1.97592e-12
2.79345e-11
1.06311e-09
2.45372e-08
1.47364e-07
0
4.92627e-07
8.49584e-07
1.15232e-06
2.3654e-06
2.1497e-06
4.92716e-06
3.07979e-06
7.72249e-06
3.37167e-06
9.5282e-06
2.58042e-06
8.55589e-06
1.24056e-06
5.19919e-06
3.4958e-07
1.90901e-06
3.79981e-07
2.03005e-08
3.3838e-07
2.33583e-07
6.07386e-10
8.56547e-09
3.84625e-12
1.50019e-10
9.4108e-10
2.13753e-09
1.71986e-09
8.86762e-10
3.24706e-10
9.24932e-11
2.16776e-11
4.26433e-12
8.07708e-13
1.2149e-13
2.94581e-14
3.68554e-14
1.86226e-13
1.0992e-12
4.84291e-12
1.51051e-11
3.3364e-11
6.0906e-11
1.31378e-10
1.47973e-10
7.41488e-11
5.86826e-11
5.88646e-11
5.51387e-11
4.38816e-11
2.89889e-11
1.62116e-11
8.24064e-12
6.21703e-12
3.25679e-11
1.02305e-09
4.03588e-08
1.20172e-06
1.23148e-06
1.94752e-06
4.2085e-06
7.32283e-06
9.93526e-06
2.05617e-05
1.82756e-05
4.13074e-05
2.50656e-05
6.14838e-05
2.54217e-05
6.91109e-05
1.85332e-05
5.69954e-05
8.90757e-06
3.3767e-05
2.47632e-06
1.2905e-05
2.6016e-06
1.19909e-07
2.25692e-06
1.51346e-06
2.68663e-09
4.46041e-08
1.48057e-11
5.71549e-10
4.20873e-09
1.13093e-08
1.09998e-08
6.72579e-09
2.86095e-09
8.90105e-10
2.24853e-10
5.11046e-11
1.04357e-11
1.64298e-12
1.83121e-13
9.81722e-14
4.70715e-13
3.09678e-12
1.49248e-11
5.06568e-11
1.18493e-10
2.13406e-10
3.86072e-10
5.52833e-10
5.46599e-10
3.13501e-10
2.97451e-10
2.75792e-10
2.22909e-10
1.52179e-10
8.69502e-11
4.34048e-11
2.51172e-11
4.67029e-11
1.05697e-09
3.45639e-08
1.32185e-06
1.98668e-05
2.37801e-05
1.08015e-05
1.47724e-05
3.59074e-05
5.92295e-05
8.31113e-05
0.000146174
0.000141576
0.000261575
0.000170153
0.000350594
0.000153195
0.000365344
0.000107976
0.000287559
5.28332e-05
0.00017407
1.5974e-05
7.14893e-05
1.65201e-05
7.32913e-07
1.42524e-05
9.63302e-06
1.18594e-08
2.43675e-07
5.69367e-11
2.13304e-09
1.40461e-08
4.48363e-08
5.46615e-08
4.13512e-08
2.12563e-08
7.70646e-09
2.12916e-09
5.60943e-10
1.25217e-10
1.79559e-11
1.74147e-12
3.42693e-13
1.17165e-12
8.39307e-12
4.50431e-11
1.65372e-10
4.18444e-10
7.55662e-10
1.21292e-09
1.88932e-09
2.9761e-09
1.62125e-09
1.44446e-09
1.3185e-09
1.07259e-09
7.49374e-10
4.42443e-10
2.24135e-10
1.07763e-10
9.68031e-11
1.06182e-09
4.21024e-08
8.45227e-07
2.6059e-05
2.66692e-05
0.000140631
0.000163021
8.54772e-05
0.000113703
0.000221086
0.000310192
0.000403258
0.000555786
0.000566568
0.000791236
0.000652847
0.000962081
0.000632636
0.00102702
0.000467679
0.000942493
0.000246329
0.000666118
8.46474e-05
0.000310871
8.64235e-05
4.66608e-06
7.49939e-05
5.26115e-05
5.45083e-08
1.44795e-06
1.89467e-10
7.25143e-09
3.29435e-08
1.23808e-07
1.92331e-07
1.89563e-07
1.2436e-07
5.71929e-08
1.70325e-08
5.62262e-09
1.34725e-09
1.96344e-10
1.67425e-11
2.11032e-12
2.68417e-12
2.29016e-11
1.31801e-10
5.32392e-10
1.4531e-09
2.78429e-09
4.08549e-09
7.54158e-09
9.89903e-09
8.55209e-09
6.62684e-09
6.00272e-09
4.88495e-09
3.47503e-09
2.12775e-09
1.118e-09
5.00137e-10
3.09273e-10
1.13872e-09
3.73093e-08
1.73074e-06
2.5407e-05
1.14769e-05
0.000174928
0.000177168
0.000541809
0.000592794
0.00039651
0.000474479
0.000706389
0.000854179
0.00101038
0.00121621
0.00126559
0.00154578
0.00142386
0.00179835
0.00144861
0.00193253
0.00127817
0.00189215
0.000858037
0.0016095
0.000351538
0.00101321
0.000353211
2.7396e-05
0.000307871
0.000226116
2.65043e-07
8.87602e-06
4.88927e-10
3.30508e-08
4.50046e-08
2.22631e-07
4.38723e-07
5.81631e-07
5.15789e-07
3.20481e-07
1.13873e-07
3.81606e-08
1.19954e-08
1.57836e-09
1.69422e-10
2.0255e-11
7.99167e-12
4.92545e-11
4.07666e-10
1.6499e-09
4.9865e-09
1.03946e-08
1.58516e-08
1.92258e-08
2.77063e-08
3.96084e-08
2.80837e-08
2.57486e-08
2.10284e-08
1.5149e-08
9.62541e-09
5.34684e-09
2.30508e-09
1.175e-09
1.68884e-09
2.94308e-08
1.41841e-06
8.18863e-05
0.000173272
0.000185095
0.000619094
0.000623414
0.00117635
0.00124057
0.000983316
0.00108979
0.00140487
0.00157742
0.00179872
0.00202387
0.00213626
0.00243086
0.00237321
0.00276086
0.00246239
0.00296611
0.00233201
0.00298575
0.00189931
0.00274096
0.0010941
0.00212677
0.00107469
0.000129772
0.000936505
0.000729908
1.62441e-06
4.71271e-05
3.81174e-09
1.68928e-07
2.11894e-07
6.33204e-07
1.11147e-06
1.35236e-06
1.16754e-06
5.83799e-07
2.31129e-07
6.10154e-08
1.29104e-08
1.49742e-09
1.70075e-10
3.11199e-11
1.18035e-10
8.41585e-10
4.85044e-09
1.63425e-08
3.84666e-08
6.21417e-08
7.94982e-08
7.98206e-08
1.07154e-07
1.06437e-07
1.01996e-07
8.49446e-08
6.19766e-08
4.07935e-08
2.39954e-08
1.01894e-08
4.80132e-09
4.05338e-09
2.78158e-08
9.55968e-07
4.03353e-05
0.000563767
0.000507827
0.000618294
0.000604189
0.00127294
0.00127704
0.00192845
0.00199331
0.0017223
0.00183774
0.0022252
0.00239959
0.00268492
0.00290357
0.00309097
0.00336394
0.00339611
0.0037501
0.00354318
0.0040127
0.00346154
0.00408568
0.00306363
0.00389134
0.0022486
0.00329138
0.00224878
0.000470356
0.00208664
0.00174713
8.01112e-06
0.000186899
1.50439e-07
2.02994e-06
4.16438e-07
1.254e-06
1.98047e-06
2.39581e-06
1.96097e-06
1.03328e-06
3.58604e-07
8.67964e-08
1.21561e-08
1.15648e-09
1.40058e-10
2.55161e-10
1.96744e-09
1.04191e-08
3.66883e-08
8.95994e-08
1.78908e-07
2.5912e-07
2.67169e-07
2.99078e-07
3.71182e-07
3.66203e-07
3.17872e-07
2.36174e-07
1.62167e-07
9.86794e-08
4.26407e-08
1.98266e-08
1.28968e-08
3.11587e-08
6.34591e-07
2.81962e-05
0.000445325
0.000311093
0.00119411
0.00112116
0.00127075
0.00124932
0.0020222
0.00202261
0.00273679
0.00279226
0.00254165
0.00265258
0.00309381
0.0032492
0.0035872
0.0037723
0.00403226
0.00425082
0.00438242
0.00465866
0.00455627
0.00486633
0.00451529
0.00487741
0.00417499
0.00475028
0.00340966
0.00433021
0.00338832
0.00121277
0.00323094
0.0029946
0.0021807
4.62981e-05
0.000662684
7.79884e-06
3.64561e-05
5.68734e-07
1.69716e-06
2.99405e-06
3.65402e-06
3.02529e-06
1.51154e-06
3.67552e-07
8.55795e-08
8.99316e-09
8.02295e-10
5.11084e-10
4.74698e-09
2.65416e-08
9.87982e-08
2.47771e-07
4.65997e-07
7.00593e-07
8.34264e-07
8.93942e-07
9.87535e-07
1.19299e-06
1.09653e-06
8.2349e-07
5.95198e-07
3.61402e-07
1.6635e-07
7.96558e-08
4.71154e-08
5.43872e-08
5.05823e-07
1.60481e-05
0.00045534
0.000987405
0.000948733
0.00191102
0.00181861
0.00201259
0.00198155
0.00281028
0.00280711
0.00352269
0.00355504
0.00336952
0.0034596
0.00392427
0.00403986
0.00441962
0.00455391
0.00486119
0.00500912
0.0050659
0.00520814
0.00507496
0.00518701
0.00501518
0.00512208
0.00487456
0.0050464
0.00440712
0.00494757
0.00470036
0.00384633
0.00437008
0.00276131
0.001643
0.00254902
0.00363644
0.00425816
0.00428717
0.00351918
0.00011337
0.000399656
0.00225487
0.0020088
0.0011359
0.000104109
0.000361401
0.000153765
0.000357714
4.98494e-07
2.15795e-06
4.2505e-06
5.22506e-06
4.35364e-06
1.51827e-06
3.64426e-07
6.07606e-08
5.58208e-09
1.35282e-09
9.25651e-09
6.2199e-08
2.52148e-07
6.79373e-07
1.30402e-06
1.95814e-06
2.49037e-06
2.69043e-06
2.76608e-06
2.92744e-06
2.98485e-06
2.71251e-06
1.96794e-06
1.15078e-06
5.98163e-07
3.06394e-07
1.81115e-07
1.46377e-07
5.02069e-07
8.99336e-06
0.000268004
0.00139365
0.00111525
0.00168317
0.00155076
0.00266394
0.00255929
0.00279032
0.00274709
0.00355726
0.00354821
0.00420787
0.00420914
0.00412264
0.00417881
0.0046551
0.00472322
0.00511988
0.00520102
0.0053185
0.00540959
0.00527423
0.00535355
0.0051742
0.00520063
0.00508476
0.00508496
0.00507293
0.00504924
0.00502851
0.00504852
0.00502938
0.00498059
0.0050351
0.00492677
0.00470314
0.00496206
0.00503118
0.00470718
0.00333821
0.00312565
0.00414227
0.00462261
0.00467808
0.0040207
0.000950116
0.00291373
0.0027436
0.00183005
0.00127048
0.000436123
0.000966167
0.00104049
4.95061e-07
2.89521e-06
5.90381e-06
7.21976e-06
4.44443e-06
1.34059e-06
3.31891e-07
3.81258e-08
4.24673e-09
1.74056e-08
1.30186e-07
5.84772e-07
1.7011e-06
3.51624e-06
5.54477e-06
7.12885e-06
7.8678e-06
7.90058e-06
7.68107e-06
7.47272e-06
6.58393e-06
5.03212e-06
3.45083e-06
2.02392e-06
1.16101e-06
7.31687e-07
4.98942e-07
6.73766e-07
5.32451e-06
0.000140481
0.00123066
0.00204559
0.00196525
0.00241211
0.00227121
0.00336798
0.00325685
0.00352018
0.00345905
0.00419993
0.00417239
0.00477283
0.00474887
0.00476357
0.00478004
0.00525035
0.00526689
0.00548147
0.00552433
0.00542764
0.00549731
0.00522219
0.00524763
0.00502345
0.00499905
0.00498638
0.0049788
0.0049981
0.00495416
0.00491569
0.00504667
0.00500192
0.00491783
0.00484444
0.00492341
0.00503104
0.00494356
0.00503099
0.00502991
0.00493769
0.00386786
0.00370827
0.00454885
0.0049191
0.00489079
0.00445552
0.00177594
0.00356714
0.00345968
0.00265177
0.00294723
0.00117643
0.00213235
0.00315477
0.0018948
0.00221883
5.4889e-07
3.8831e-06
8.08954e-06
8.78532e-06
3.87162e-06
9.18657e-07
2.48541e-07
1.77661e-08
3.00005e-08
2.47147e-07
1.21454e-06
3.85664e-06
8.57652e-06
1.44213e-05
1.94015e-05
2.20592e-05
2.23636e-05
2.11812e-05
1.94182e-05
1.67205e-05
1.29787e-05
8.81294e-06
6.20728e-06
3.86314e-06
2.37566e-06
1.51892e-06
1.30912e-06
3.80635e-06
6.46182e-05
0.00079207
0.00238373
0.00201367
0.00276559
0.00256489
0.0031128
0.00295943
0.00392737
0.00381294
0.00411259
0.00403023
0.00469178
0.00459945
0.00514145
0.00501824
0.00525652
0.00522165
0.00552851
0.00551063
0.00554912
0.00556298
0.00527994
0.0053142
0.004976
0.00497333
0.00497243
0.0049691
0.00488765
0.00486921
0.0048571
0.00484662
0.00486184
0.00482299
0.00480615
0.0049626
0.00486635
0.00478714
0.00473777
0.00478016
0.00501628
0.00502511
0.00500511
0.00492704
0.00502294
0.00434828
0.00424129
0.00485071
0.00502029
0.00501933
0.00480056
0.00267432
0.0041425
0.00405958
0.00340786
0.00311048
0.00358787
0.00107109
0.00308692
0.00284339
7.4071e-07
5.7724e-06
1.04197e-05
8.44939e-06
2.43591e-06
6.36294e-07
8.89762e-08
5.09323e-08
4.22927e-07
2.27445e-06
7.81439e-06
1.89096e-05
3.41886e-05
4.92715e-05
5.88577e-05
6.16002e-05
5.87904e-05
5.29001e-05
4.50668e-05
3.53643e-05
2.33847e-05
1.64381e-05
1.06061e-05
7.23843e-06
5.05679e-06
3.72036e-06
4.72351e-06
3.03561e-05
0.000456867
0.00207399
0.00294237
0.0028353
0.00335951
0.00318832
0.00367759
0.00353456
0.00427016
0.00415476
0.0044944
0.00438447
0.00488041
0.00473473
0.00517503
0.00497295
0.00545825
0.00534343
0.00554217
0.00547363
0.00531664
0.00528268
0.00496612
0.00495884
0.00495271
0.00493766
0.00483485
0.00481969
0.00480116
0.00477764
0.00480162
0.00479933
0.00479273
0.00477665
0.00476578
0.00476768
0.00477982
0.00481684
0.00473132
0.0047355
0.00472547
0.00470828
0.00490306
0.00500321
0.00489159
0.00477912
0.00500977
0.00474371
0.00468165
0.00501744
0.00502387
0.00504522
0.00501395
0.00345177
0.00461488
0.00455323
0.00401923
0.00361372
0.00379301
0.0038401
0.00100096
0.00310367
1.39573e-06
9.09564e-06
1.19515e-05
6.12776e-06
1.36173e-06
3.01691e-07
9.54533e-08
6.52227e-07
3.83932e-06
1.42615e-05
3.71348e-05
7.28443e-05
0.000112205
0.000145534
0.00016314
0.000160849
0.000145777
0.000123372
9.51215e-05
6.11974e-05
4.34909e-05
3.23634e-05
2.54451e-05
1.90971e-05
1.35328e-05
1.04275e-05
2.45411e-05
0.00024497
0.00151884
0.00309573
0.0027429
0.00344475
0.0032702
0.00376816
0.00362597
0.00403266
0.00390916
0.00434498
0.00424095
0.00459217
0.00446159
0.00475818
0.00455548
0.00478856
0.004489
0.00531894
0.00507762
0.00517611
0.00495746
0.00474348
0.00457559
0.00475052
0.00471837
0.00468476
0.0046431
0.00474839
0.00470749
0.00465861
0.00460432
0.00479365
0.00479943
0.00479266
0.0047671
0.00475965
0.00480256
0.00484849
0.00469975
0.00468856
0.00478721
0.00484055
0.00473582
0.00475704
0.0048928
0.00474842
0.00468116
0.00490798
0.00500845
0.00500049
0.00507347
0.00493784
0.00498367
0.00510767
0.00405138
0.00498651
0.00496544
0.00452177
0.00414093
0.00416307
0.00396624
0.00230366
0.00357409
3.72522e-06
1.22854e-05
1.11206e-05
3.69244e-06
1.03908e-06
1.74014e-07
9.10067e-07
5.83608e-06
2.34451e-05
6.5309e-05
0.000135621
0.000221987
0.000301211
0.000340312
0.000334379
0.000299855
0.000251304
0.000196834
0.000146836
0.000118372
0.000106996
9.86633e-05
7.85716e-05
5.44471e-05
3.61817e-05
3.02438e-05
0.000147912
0.000998726
0.00272566
0.00343136
0.00334002
0.00372966
0.00360757
0.00395083
0.00385175
0.00414213
0.00404857
0.00414931
0.00407604
0.00438403
0.00425028
0.00421735
0.0040025
0.0038753
0.00353313
0.00464222
0.00426523
0.00428854
0.00390595
0.0042293
0.00410461
0.00378231
0.00396444
0.0045441
0.00447815
0.00440613
0.00432339
0.00472121
0.00465434
0.00456621
0.00446972
0.00488326
0.00489367
0.00487747
0.00482855
0.00487189
0.00495962
0.00503356
0.00467991
0.00475851
0.00497138
0.00508102
0.00490285
0.00467273
0.0047532
0.00467192
0.00467784
0.00477296
0.0051438
0.00518636
0.00504449
0.00481082
0.00487113
0.00512022
0.00452195
0.00522724
0.00526202
0.00493944
0.00451253
0.0043814
0.00409711
0.00211791
0.00349573
1.01771e-05
1.3804e-05
7.81985e-06
2.14554e-06
4.28678e-07
1.12304e-06
7.9998e-06
3.47753e-05
0.000102788
0.000222005
0.000370851
0.000490632
0.000540324
0.000526849
0.000470355
0.000393272
0.000317484
0.0002688
0.000277583
0.000323628
0.000339632
0.000293023
0.000206317
0.000123913
6.09856e-05
0.000132762
0.000661315
0.00227496
0.00342065
0.00319296
0.00364417
0.00355346
0.00381389
0.00374843
0.00392574
0.00387554
0.00402185
0.00397498
0.00371558
0.00370621
0.00385262
0.00376299
0.00328023
0.00313159
0.00260092
0.00232127
0.00345102
0.00299981
0.00358061
0.0033217
0.00270426
0.00387865
0.00371739
0.00333215
0.00353743
0.00436628
0.00425764
0.00414285
0.00401824
0.00474762
0.00463982
0.0045128
0.0043688
0.00507588
0.00507954
0.00503835
0.00494875
0.00510531
0.00522459
0.00530885
0.00477997
0.00496013
0.00526489
0.00541791
0.0051842
0.00467877
0.0046773
0.00467863
0.0047941
0.00469216
0.00520578
0.00529307
0.00495772
0.00472204
0.00477328
0.00506788
0.00490026
0.00537519
0.00545306
0.00526217
0.00479969
0.00457259
0.00406293
0.00104233
0.00256487
1.41558e-05
1.24154e-05
4.47393e-06
1.29166e-06
1.31206e-06
9.93939e-06
4.6853e-05
0.000145483
0.000322694
0.000532337
0.000684419
0.000741679
0.000716103
0.000636527
0.000534533
0.000445339
0.000422866
0.000511983
0.000683447
0.000808918
0.000784522
0.000602807
0.000354574
0.000153549
0.000153142
0.000529558
0.00181361
0.00316108
0.00357515
0.00352199
0.00370475
0.00365782
0.00376554
0.00374659
0.00376073
0.00377014
0.00371559
0.00373745
0.00312309
0.00321156
0.00306793
0.00307783
0.00217087
0.00213609
0.00147079
0.00130661
0.00219361
0.00179621
0.0031145
0.00288801
0.0021801
0.00192846
0.00355532
0.0033579
0.00291403
0.00314441
0.00421814
0.00406409
0.0039054
0.00373738
0.0048177
0.00465192
0.00446728
0.00427281
0.0053367
0.00531568
0.0052226
0.00507026
0.0054319
0.00555963
0.00561945
0.00500204
0.00526675
0.0056336
0.00581276
0.00554903
0.0047919
0.00467853
0.00477572
0.00501449
0.00468662
0.00520318
0.00535603
0.00486119
0.00470978
0.00474877
0.00499484
0.00519638
0.00548718
0.00559201
0.00549235
0.00502156
0.0046627
0.00380556
0.000498128
0.00166768
1.48195e-05
7.97913e-06
2.39903e-06
1.54065e-06
1.11901e-05
5.73489e-05
0.000185829
0.000420194
0.000686596
0.000868693
0.000924553
0.000883295
0.000783894
0.000664909
0.000577014
0.000592642
0.000778262
0.00106958
0.00130857
0.00133329
0.00114522
0.000789611
0.000370892
0.000235695
0.000529299
0.00153246
0.00284274
0.00352734
0.00341761
0.00363295
0.00360081
0.00366944
0.00366131
0.00363251
0.00366632
0.00349823
0.00357372
0.00331015
0.00340856
0.0024714
0.0026688
0.00217783
0.00229328
0.00126215
0.00128825
0.000904804
0.000782663
0.00171169
0.00146516
0.00113115
0.00267375
0.00242757
0.00182561
0.00161545
0.00324976
0.00301974
0.00253347
0.00278035
0.00407586
0.00387874
0.00367817
0.00346969
0.00486748
0.00463663
0.00438999
0.0041434
0.00561452
0.00553134
0.00536439
0.00512402
0.00580406
0.00590141
0.00591514
0.00531535
0.00564336
0.00602578
0.00621642
0.00595692
0.00499748
0.00475208
0.00495299
0.00531775
0.00473303
0.00517824
0.00538412
0.00482189
0.00473775
0.00477388
0.00495297
0.00543007
0.00557779
0.00571745
0.00565921
0.0051794
0.0046336
0.00322433
0.000170442
0.00105176
1.28326e-05
3.80928e-06
1.80497e-06
1.13648e-05
6.29894e-05
0.00021652
0.000502024
0.000824269
0.00102645
0.00107025
0.0010149
0.000904499
0.000780175
0.000707449
0.000776294
0.00103584
0.00143746
0.00172614
0.00180027
0.00167672
0.00134464
0.000833618
0.000438161
0.000602831
0.00149323
0.00261372
0.003381
0.00357643
0.0035448
0.00360716
0.00360051
0.0035737
0.00360416
0.00343811
0.00351808
0.00319946
0.00333175
0.00286217
0.00304162
0.00183467
0.00210534
0.00139444
0.00158903
0.000696677
0.000681016
0.000858981
0.00075768
0.000679358
0.00143151
0.00126512
0.000916341
0.00102886
0.00228766