/*--------------------------------*- C++ -*----------------------------------*\
  =========                 |
  \\      /  F ield         | OpenFOAM: The Open Source CFD Toolbox
   \\    /   O peration     | Website:  https://openfoam.org
    \\  /    A nd           | Version:  dev
     \\/     M anipulation  |
\*---------------------------------------------------------------------------*/
FoamFile
{
    version     2.0;
    format      ascii;
    class       volScalarField;
    location    "2500";
    object      G;
}
// * * * * * * * * * * * * * * * * * * * * * * * * * * * * * * * * * * * * * //

dimensions      [1 0 -3 0 0 0 0];

internalField   nonuniform List<scalar> 
9842
(
4076.35
4082.29
4083.81
4087.46
4089.77
4092.08
4091.88
4094.96
4098.05
4101.14
4095.54
4099.38
4103.24
4107.12
4111.02
4098.46
4103.04
4107.66
4112.32
4117.01
4121.73
4100.65
4105.95
4111.31
4116.72
4122.2
4127.74
4133.3
4102.13
4108.13
4114.2
4120.35
4126.59
4132.92
4139.31
4145.74
4102.92
4109.6
4116.36
4123.21
4130.18
4137.28
4144.48
4151.76
4159.1
4103.05
4110.37
4117.79
4125.32
4132.99
4140.82
4148.8
4156.91
4165.12
4173.39
4102.52
4110.47
4118.52
4126.7
4135.04
4143.56
4152.28
4161.18
4170.24
4179.42
4188.67
4101.39
4109.92
4118.57
4127.36
4136.34
4145.53
4154.94
4164.58
4174.44
4184.5
4194.69
4204.98
4099.66
4108.75
4117.96
4127.34
4136.91
4146.72
4156.79
4167.14
4177.75
4188.63
4199.73
4211
4222.37
4097.37
4106.99
4116.74
4126.65
4136.79
4147.19
4157.87
4168.87
4180.18
4191.83
4203.77
4215.97
4228.38
4240.91
4094.55
4104.67
4114.91
4125.34
4136
4146.93
4158.19
4169.79
4181.76
4194.11
4206.83
4219.91
4233.29
4246.89
4260.65
4091.23
4101.81
4112.52
4123.42
4134.56
4146
4157.78
4169.94
4182.51
4195.51
4208.94
4222.81
4237.09
4251.72
4266.62
4281.7
4087.44
4098.45
4109.59
4120.93
4132.52
4144.42
4156.68
4169.34
4182.45
4196.04
4210.13
4224.72
4239.82
4255.38
4271.35
4287.63
4304.12
4083.21
4094.61
4106.16
4117.9
4129.9
4142.22
4154.92
4168.04
4181.63
4195.75
4210.42
4225.66
4241.49
4257.89
4274.83
4292.24
4310.02
4328.03
4078.57
4090.34
4102.25
4114.37
4126.74
4139.44
4152.53
4166.06
4180.09
4194.67
4209.85
4225.67
4242.15
4259.3
4277.1
4295.52
4314.49
4333.88
4353.56
4073.56
4085.66
4097.91
4110.36
4123.07
4136.12
4149.55
4163.45
4177.86
4192.85
4208.48
4224.79
4241.83
4259.63
4278.19
4297.5
4317.53
4338.19
4359.34
4380.83
4068.19
4080.6
4093.15
4105.9
4118.92
4132.28
4146.02
4160.24
4174.98
4190.33
4206.33
4223.07
4240.59
4258.94
4278.15
4298.23
4319.17
4340.94
4363.45
4386.53
4410.01
4062.51
4075.19
4088.01
4101.04
4114.33
4127.96
4141.98
4156.47
4171.5
4187.15
4203.48
4220.56
4238.47
4257.27
4277.02
4297.76
4319.48
4342.21
4365.88
4390.41
4415.61
4441.28
4056.54
4069.46
4082.53
4095.8
4109.34
4123.2
4137.46
4152.19
4167.46
4183.35
4199.95
4217.32
4235.54
4254.71
4274.88
4296.14
4318.52
4342.03
4366.69
4392.45
4419.21
4446.76
4474.86
4050.31
4063.45
4076.73
4090.22
4103.96
4118.03
4132.49
4147.43
4162.9
4179
4195.8
4213.39
4231.86
4251.3
4271.8
4293.46
4316.34
4340.5
4365.96
4392.74
4420.8
4450.02
4480.19
4511
4043.84
4057.17
4070.64
4084.31
4098.24
4112.49
4127.12
4142.22
4157.86
4174.11
4191.07
4208.83
4227.48
4247.12
4267.86
4289.79
4313.03
4337.67
4363.77
4391.36
4420.48
4451.09
4483.06
4516.15
4550.07
4037.15
4050.65
4064.29
4078.12
4092.2
4106.6
4121.38
4136.61
4152.38
4168.75
4185.83
4203.7
4222.47
4242.24
4263.12
4285.23
4308.7
4333.65
4360.19
4388.41
4418.35
4450.05
4483.49
4518.53
4554.98
4592.45
4030.29
4043.93
4057.7
4071.67
4085.89
4100.41
4115.3
4130.64
4146.5
4162.96
4180.11
4198.05
4216.87
4236.71
4257.66
4279.86
4303.45
4328.57
4355.36
4383.98
4414.52
4447.04
4481.61
4518.22
4556.79
4597.07
4638.49
4023.26
4037.02
4050.91
4064.99
4079.31
4093.93
4108.91
4124.33
4140.25
4156.77
4173.95
4191.92
4210.76
4230.59
4251.55
4273.75
4297.36
4322.53
4349.42
4378.22
4409.1
4442.19
4477.57
4515.35
4555.58
4598.18
4642.75
4688.71
4016.09
4029.95
4043.93
4058.1
4072.51
4087.2
4102.25
4117.72
4133.68
4150.22
4167.41
4185.36
4204.18
4223.96
4244.86
4266.99
4290.53
4315.63
4342.48
4371.29
4402.27
4435.63
4471.54
4510.11
4551.53
4595.89
4643
4692.49
4743.69
4008.81
4022.73
4036.79
4051.03
4065.5
4080.25
4095.34
4110.84
4126.82
4143.35
4160.53
4178.43
4197.18
4216.88
4237.65
4259.66
4283.04
4307.98
4334.68
4363.34
4394.22
4427.57
4463.66
4502.69
4544.86
4590.42
4639.41
4691.69
4746.9
4804.17
4001.42
4015.4
4029.51
4043.8
4058.31
4073.1
4088.21
4103.72
4119.7
4136.21
4153.33
4171.17
4189.81
4209.38
4230
4251.81
4274.98
4299.68
4326.11
4354.51
4385.12
4418.24
4454.18
4493.28
4535.81
4582.06
4632.26
4686.54
4744.8
4806.69
4871.11
3993.95
4007.97
4022.12
4036.43
4050.96
4065.77
4080.89
4096.39
4112.34
4128.8
4145.86
4163.61
4182.13
4201.54
4221.96
4243.54
4266.43
4290.82
4316.9
4344.92
4375.13
4407.83
4443.38
4482.16
4524.6
4571.08
4621.89
4677.36
4737.73
4802.99
4872.73
4945.55
3986.41
4000.46
4014.63
4028.95
4043.49
4058.28
4073.39
4088.87
4104.77
4121.18
4138.15
4155.78
4174.16
4193.39
4213.59
4234.9
4257.47
4281.49
4307.15
4334.69
4364.38
4396.53
4431.48
4469.67
4511.57
4557.77
4608.64
4664.59
4726.1
4793.52
4867.03
4946.11
5028.87
3978.84
3992.87
4007.05
4021.38
4035.9
4050.68
4065.76
4081.19
4097.03
4113.36
4130.22
4147.72
4165.94
4184.98
4204.93
4225.95
4248.17
4271.77
4296.96
4323.95
4353.02
4384.48
4418.69
4456.07
4497.13
4542.52
4592.86
4648.64
4710.44
4778.91
4854.57
4938.02
5028.17
5097.77
5099.67
3971.24
3985.25
3999.42
4013.73
4028.23
4042.97
4058
4073.37
4089.14
4105.37
4122.12
4139.48
4157.51
4176.33
4196.03
4216.74
4238.59
4261.75
4286.41
4312.8
4341.17
4371.85
4405.18
4441.59
4481.59
4525.82
4575.04
4629.97
4691.28
4759.77
4836.32
4921.63
5017.51
5098.72
5094.62
5147.81
5149.49
3963.64
3977.61
3991.74
4006.02
4020.48
4035.17
4050.14
4065.44
4081.13
4097.25
4113.87
4131.07
4148.92
4167.5
4186.92
4207.3
4228.76
4251.47
4275.59
4301.34
4328.97
4358.79
4391.14
4426.44
4465.2
4508.04
4555.73
4609.13
4669.17
4736.77
4812.95
4899
4983.59
4971.48
5087.85
5023
5077.8
5147.93
5143.07
5201.32
5202.69
3956.06
3969.97
3984.05
3998.27
4012.68
4027.31
4042.21
4057.42
4073
4089.01
4105.49
4122.53
4140.17
4158.52
4177.66
4197.69
4218.75
4240.98
4264.54
4289.64
4316.51
4345.42
4376.73
4410.82
4448.2
4489.47
4535.39
4586.81
4644.8
4710.57
4785.31
4870.43
4958.06
4942.53
5009.99
5135.05
5065.25
5123.81
5200.45
5194.66
5258.63
5259.62
3948.51
3962.34
3976.35
3990.51
4004.84
4019.4
4034.21
4049.33
4064.8
4080.68
4097.01
4113.87
4131.32
4149.42
4168.27
4187.97
4208.62
4230.36
4253.35
4277.78
4303.86
4331.86
4362.08
4394.91
4430.82
4470.38
4514.34
4563.52
4618.97
4682.03
4754.24
4837.18
4926.05
4907.79
4994.83
4977.73
5050.5
5185.38
5109.73
5172.68
5256.61
5249.73
5320.12
5320.73
3941
3954.75
3968.67
3982.74
3996.99
4011.45
4026.17
4041.18
4056.53
4072.27
4088.45
4105.13
4122.37
4140.23
4158.79
4178.14
4198.39
4219.66
4242.08
4265.83
4291.11
4318.17
4347.3
4378.85
4413.25
4451.03
4492.89
4539.66
4592.31
4652.12
4720.77
4800.21
4888.85
4868.33
4959.23
4939.31
5033.47
5014.46
5093.13
5239.04
5156.82
5224.64
5316.82
5308.64
5386.24
5386.44
3933.55
3947.2
3961.02
3974.99
3989.14
4003.49
4018.1
4032.99
4048.21
4063.81
4079.83
4096.33
4113.35
4130.97
4149.24
4168.26
4188.11
4208.9
4230.77
4253.86
4278.36
4304.48
4332.5
4362.75
4395.62
4431.6
4471.33
4515.57
4565.24
4621.57
4686.09
4760.86
4847.39
4825.23
4918.25
4896
4993.91
4971.94
5074.09
5052.94
5138.15
5296.32
5206.74
5279.94
5381.51
5371.82
5457.42
5457.25
3926.18
3939.71
3953.42
3967.28
3981.3
3995.54
4010.01
4024.77
4039.85
4055.3
4071.16
4087.46
4104.28
4121.65
4139.65
4158.33
4177.8
4198.13
4219.46
4241.91
4265.65
4290.88
4317.82
4346.77
4378.1
4412.27
4449.86
4491.54
4538.17
4590.86
4651.05
4720.58
4803.13
4780.3
4872.89
4849
4948.73
4924.37
5030.1
5005.82
5116.89
5093.33
5185.73
5357.59
5259.68
5338.92
5451.22
5439.76
5534.32
5533.74
3918.89
3932.29
3945.88
3959.61
3973.5
3987.6
4001.94
4016.55
4031.48
4046.76
4062.44
4078.56
4095.16
4112.3
4130.02
4148.39
4167.48
4187.38
4208.18
4230.01
4253.02
4277.38
4303.3
4331.02
4360.86
4393.22
4428.67
4467.81
4511.39
4560.43
4616.2
4680.37
4757.9
4735.18
4824.79
4800.32
4899.08
4873.1
4980.24
4953.52
5067.9
5040.99
5161.98
5135.69
5236.02
5423.31
5315.98
5402
5526.46
5512.96
5617.59
5616.48
3911.7
3924.97
3938.42
3952.01
3965.76
3979.7
3993.89
4008.34
4023.1
4038.21
4053.71
4069.63
4086.02
4102.92
4120.37
4138.43
4157.17
4176.65
4196.96
4218.21
4240.52
4264.04
4288.98
4315.53
4343.98
4374.65
4407.98
4444.61
4485.19
4530.59
4581.99
4640.82
4713.06
4690.83
4775.96
4751.73
4846.77
4820.33
4925.84
4897.54
5012.78
4983.41
5107.34
5077.5
5209.43
5180.05
5289.31
5493.94
5376
5469.61
5607.77
5592.04
5708.07
5706.33
3904.63
3917.75
3931.05
3944.48
3958.08
3971.86
3985.87
4000.15
4014.74
4029.66
4044.97
4060.69
4076.86
4093.52
4110.71
4128.48
4146.88
4165.96
4185.81
4206.51
4228.17
4250.92
4274.91
4300.35
4327.47
4356.56
4387.96
4422.18
4459.85
4501.71
4548.78
4602.36
4669.24
4647.69
4727.87
4704.29
4794.03
4768.03
4868.94
4840.33
4953.12
4922.27
5046.34
5014
5148.47
5115.37
5259.45
5226.59
5345.89
5570.06
5440.15
5542.23
5696.12
5677.86
5806.73
5804.26
3897.67
3910.63
3923.78
3937.05
3950.48
3964.09
3977.92
3992.01
4006.4
4021.13
4036.23
4051.74
4067.69
4084.12
4101.05
4118.53
4136.61
4155.32
4174.73
4194.93
4215.98
4238.01
4261.14
4285.54
4311.4
4338.99
4368.6
4400.62
4435.59
4474.12
4517.05
4565.47
4626.8
4606.43
4681.14
4658.33
4742.44
4717.28
4811.96
4784.04
4891.21
4860.27
4980.83
4947.26
5080.94
5045.33
5191.4
5154.68
5312.28
5275.47
5406.13
5652.37
5508.82
5620.4
5792.33
5771.17
5914.59
5911.23
3890.85
3903.65
3916.63
3929.73
3942.98
3956.4
3970.04
3983.93
3998.11
4012.63
4027.51
4042.8
4058.53
4074.72
4091.4
4108.6
4126.37
4144.73
4163.74
4183.45
4203.95
4225.32
4247.67
4271.12
4295.83
4322.02
4349.95
4379.93
4412.41
4447.91
4487.07
4530.77
4580.06
4636.08
4614.56
4692.6
4668.35
4756.66
4729.85
4829.72
4799.83
4913.63
4880.33
5009.11
4972.78
5116.69
5077.72
5236.27
5195.65
5368.19
5326.94
5470.27
5741.62
5582.33
5704.77
5897.24
5872.87
6032.96
6028.51
3884.17
3896.79
3909.6
3922.53
3935.58
3948.81
3962.25
3975.92
3989.89
4004.17
4018.83
4033.88
4049.37
4065.32
4081.75
4098.69
4116.16
4134.19
4152.82
4172.1
4192.08
4212.85
4234.48
4257.07
4280.76
4305.69
4332.08
4360.18
4390.37
4423.08
4458.83
4498.28
4542.36
4600.16
4579.05
4644.78
4622.08
4703.63
4677.94
4770.67
4742.23
4847.67
4815.78
4936.65
4900.93
5038.5
4999.4
5154.06
5111.85
5283.44
5238.95
5427.48
5381.53
5538.68
5838.74
5661.33
5796.19
6012.07
5983.99
6163.4
6157.63
3877.63
3890.08
3902.71
3915.45
3928.32
3941.34
3954.56
3968.01
3981.74
3995.79
4010.2
4025.01
4040.25
4055.95
4072.13
4088.8
4105.99
4123.71
4141.99
4160.86
4180.37
4200.58
4221.56
4243.38
4266.15
4289.97
4315
4341.43
4369.55
4399.7
4432.33
4467.92
4507.37
4558.94
4539.65
4606.3
4584.28
4653.07
4629.22
4714.49
4687.38
4784.74
4754.58
4865.92
4831.93
4960.43
4922.15
5069.44
5027.26
5193.88
5148.19
5333.86
5285.63
5490.82
5440.51
5612.23
5944.59
5746.85
5895.65
6138.16
6105.62
6307.92
6300.55
3871.25
3883.52
3895.97
3908.51
3921.18
3934
3946.99
3960.21
3973.69
3987.48
4001.63
4016.18
4031.15
4046.59
4062.52
4078.93
4095.85
4113.28
4131.24
4149.73
4168.81
4188.52
4208.91
4230.04
4251.98
4274.81
4298.65
4323.62
4349.93
4377.85
4407.67
4439.81
4474.78
4521.25
4503.82
4563.26
4543.22
4612.2
4589.24
4661.19
4636.17
4725.26
4696.74
4799.03
4767.17
4884.9
4848.84
4985.61
4944.81
5102.62
5057.54
5237.02
5188.13
5389.08
5337.29
5559.74
5505.9
5692.83
6060.16
5840.87
6005.08
6277.32
6239.49
6468.5
6459.02
3865.11
3877.11
3889.37
3901.72
3914.19
3926.79
3939.56
3952.54
3965.76
3979.28
3993.15
4007.42
4022.11
4037.28
4052.93
4069.09
4085.74
4102.9
4120.55
4138.71
4157.4
4176.65
4196.51
4217.01
4238.22
4260.19
4282.98
4306.68
4331.43
4357.4
4384.82
4413.96
4445.15
4478.88
4524.12
4505.77
4567.35
4546.53
4618.15
4594.27
4669.29
4643.13
4736.28
4706.31
4813.99
4780.25
4905.12
4866.71
5012.97
4969.21
5139.33
5090.83
5285.41
5232.92
5451.42
5396.27
5637.03
5580.85
5783.94
6187.51
5947.4
6129.12
6431.45
6387.69
6646.94
6634.69
3870.95
3882.94
3895.09
3907.35
3919.74
3932.28
3945.01
3957.96
3971.2
3984.78
3998.74
4013.14
4028.01
4043.38
4059.27
4075.66
4092.55
4109.93
4127.79
4146.13
4164.97
4184.35
4204.3
4224.87
4246.07
4267.96
4290.57
4313.96
4338.26
4363.63
4390.22
4418.25
4448.05
4489.32
4472.31
4526.65
4507.56
4571.52
4549.9
4624.17
4599.33
4677.56
4650.22
4747.52
4715.95
4829.57
4793.6
4926.6
4885.35
5042.67
4995.27
5180.06
5127.2
5340.26
5283
5523.4
5463.83
5726.84
5668.03
5890.71
6331.24
6073.27
6275.27
6601.93
6552.29
6846.68
6829.87
3876.75
3888.62
3900.67
3912.84
3925.15
3937.63
3950.32
3963.26
3976.53
3990.17
4004.25
4018.8
4033.87
4049.47
4065.6
4082.24
4099.37
4116.96
4134.99
4153.46
4172.41
4191.87
4211.86
4232.41
4253.51
4275.19
4297.45
4320.33
4343.95
4368.4
4393.78
4420.27
4456.25
4441.59
4490.83
4473.29
4529.26
4509.53
4575.72
4553.27
4629.99
4604.15
4685.82
4657.2
4758.78
4725.39
4845.48
4806.88
4949.08
4904.42
5074.52
5022.63
5224.74
5166.17
5401.82
5337.82
5606.13
5539.8
5832.22
5768.24
6017.05
6499.47
6225.21
6395.37
6421.92
6789.9
6740.76
7075.12
7050.51
3882.41
3894.17
3906.11
3918.18
3930.41
3942.84
3955.48
3968.42
3981.73
3995.46
4009.68
4024.42
4039.71
4055.57
4071.96
4088.86
4106.2
4123.96
4142.12
4160.68
4179.69
4199.17
4219.13
4239.58
4260.47
4281.78
4303.5
4325.65
4348.29
4371.48
4395.23
4419.91
4456.89
4441.37
4492.42
4474.45
4531.88
4511.57
4579.64
4556.36
4635.26
4608.37
4693.71
4663.69
4769.69
4734.29
4861.33
4819.7
4972.15
4923.48
5107.8
5050.49
5272.38
5206.56
5469.01
5396.21
5699.4
5623.41
5955.95
5835.77
5873.49
6145.74
6113.08
6517.09
6663.08
6640.84
6372.78
6343.92
6224.97
6494.82
6963.94
6941.51
6774.07
6908.23
6925.12
7355.29
7084.14
7262.95
7244.34
3887.93
3899.56
3911.39
3923.37
3935.53
3947.88
3960.49
3973.44
3986.81
4000.66
4015.05
4030.01
4045.56
4061.69
4078.36
4095.49
4113.02
4130.9
4149.13
4167.74
4186.75
4206.2
4226.08
4246.32
4266.87
4287.65
4308.61
4329.75
4351.12
4372.65
4394.39
4426.8
4413.27
4457.61
4441.75
4493.94
4475.61
4534.29
4513.48
4582.94
4558.88
4639.58
4611.61
4700.85
4669.3
4779.84
4742.19
4876.67
4831.65
4994.98
4941.73
5141.24
5077.55
5321.55
5246.72
5543.43
5502.92
5462.2
5420.46
5797.45
5755.92
5581.12
5667.14
5712.7
5934.56
6080.53
6042.29
5895.24
6192.98
6623.99
6759.94
6470.68
6442.39
6313.57
6603.85
7067.2
6902.12
7056.08
7060.15
7789.48
7430.58
7228.68
7415.95
3893.29
3904.8
3916.52
3928.4
3940.47
3952.76
3965.35
3978.33
3991.78
4005.77
4020.36
4035.58
4051.42
4067.85
4084.79
4102.13
4119.8
4137.75
4156
4174.59
4193.57
4212.94
4232.66
4252.61
4272.65
4292.67
4312.62
4332.48
4352.22
4371.71
4393.02
4427.08
4412.77
4458.42
4442.24
4495.15
4476.56
4536.22
4515.01
4585.26
4560.51
4642.57
4613.48
4706.82
4673.64
4788.83
4748.68
4890.75
4842.06
5016.35
4958.06
5173.13
5102.2
5379.03
5337.22
5295.98
5254.63
5538.03
5493.92
5449.09
5853.12
5808.09
5620.67
5711.33
5760.66
6001.54
6157.1
6116.55
5957.81
6278.9
6744.67
6893.49
6579.26
6409.54
6549.13
6724.86
7224.12
7053.32
7231.38
7227.97
7954.49
7638.35
8455.33
8409.94
7416.86
7648.84
3898.51
3909.88
3921.48
3933.27
3945.24
3957.46
3970.03
3983.05
3996.62
4010.79
4025.63
4041.15
4057.32
4074.07
4091.26
4108.76
4126.49
4144.44
4162.65
4181.19
4200.11
4219.36
4238.85
4258.37
4277.71
4296.73
4315.4
4333.67
4351.46
4369.64
4399.11
4386.75
4427.3
4412.8
4459.12
4442.72
4495.87
4477.12
4537.41
4515.91
4586.28
4561.02
4643.82
4613.69
4711.2
4676.28
4796.08
4753.26
4902.62
4850.11
5034.84
4971.36
5214.6
5174.75
5136.71
5098.97
5404.34
5359.68
5315.34
5271.52
5573.65
5525.84
5477.49
5911.35
5862.03
5660.86
5756.58
5810.16
6071.72
6239.43
6194.89
6023.26
6371.2
6879.63
7045.98
6698.71
6512.74
6664.93
6858.56
7425.87
7229.58
7438.45
7435.21
7968.95
8382.06
8907.45
8879.69
7664.8
3903.56
3914.79
3926.27
3937.94
3949.8
3961.95
3974.52
3987.62
4001.33
4015.73
4030.87
4046.75
4063.29
4080.35
4097.73
4115.31
4133.01
4150.88
4169
4187.48
4206.31
4225.44
4244.64
4263.56
4281.93
4299.66
4316.76
4333.22
4349.25
4368.21
4398.99
4386.01
4427.43
4412.77
4459.53
4442.99
4495.89
4477.1
4537.66
4516.01
4585.87
4560.33
4643.18
4612.19
4713.58
4676.93
4800.92
4755.4
4911.32
4855.07
5063.42
5028.16
4995.07
4962.29
5228.74
5186.94
5146.54
5107.39
5429.31
5381.42
5333.94
5287.3
5609.67
5557.86
5505.68
5971.95
5917.77
5701.71
5802.82
5861.13
6145.39
6327.14
6277.51
6091.79
6469.62
7030.75
7219.46
6828.96
6623.32
6789.76
7005.74
7677.28
7432.16
7676.87
7682.17
7976.44
8360.83
8837.04
9327.35
9331.46
3908.43
3919.51
3930.86
3942.37
3954.11
3966.21
3978.81
3992.02
4005.93
4020.63
4036.16
4052.45
4069.35
4086.64
4104.09
4121.6
4139.16
4156.88
4174.92
4193.35
4212.18
4231.2
4249.97
4268.03
4285.11
4301.29
4316.67
4331.3
4347.09
4373.12
4362.01
4398.59
4385.47
4427.27
4412.52
4459.48
4442.9
4495.14
4476.42
4536.86
4515.21
4583.97
4558.35
4640.56
4609.05
4713.6
4675.38
4802.83
4754.83
4915.98
4856.59
5069.88
5033.62
4998.92
4965.49
5241.83
5197.73
5155.23
5114.4
5453.82
5402.45
5351.69
5302
5646.05
5589.95
5533.67
6035.01
5975.55
5743.18
5850.35
5913.8
6222.63
6419.94
6364.28
6163.35
6574.25
7199.05
7414.57
6970.13
6741.46
6923.79
7166.73
7976.02
7660.18
7944.59
7965.8
8341.15
8791.09
9301.24
9834.88
9842.38
3913.1
3924.03
3935.2
3946.54
3958.17
3970.23
3982.89
3996.26
4010.45
4025.56
4041.55
4058.26
4075.4
4092.72
4110.05
4127.34
4144.68
4162.26
4180.27
4198.8
4217.73
4236.57
4254.67
4271.51
4287.02
4301.49
4315.2
4328.83
4345.31
4372.44
4360.89
4397.9
4384.76
4426.67
4411.87
4458.85
4442.3
4493.58
4475.01
4534.97
4513.47
4580.74
4555.24
4636.36
4604.68
4711.26
4671.85
4801.98
4752
4933.79
4901.18
4841.24
4870.91
5075.26
5037.66
5001.66
4967.08
5253.78
5207.25
5162.63
5120.07
5477.89
5422.8
5368.53
5315.63
5682.82
5622.19
5561.5
6100.72
6035.63
5785.49
5899.23
5968.39
6303.42
6518.07
6455.7
6238.06
6685.19
7384.46
7630.53
7122.54
6867.4
7067.13
7341.43
8315.19
7911.54
8238.61
8281.63
8741.64
9240.83
9797.33
10456.2
10423.8
3917.57
3928.31
3939.26
3950.41
3961.94
3974
3986.77
4000.39
4014.99
4030.61
4047.04
4063.99
4081.15
4098.31
4115.35
4132.33
4149.44
4166.96
4185.09
4203.81
4222.73
4241.14
4258.25
4273.58
4287.4
4300.36
4312.78
4326.43
4348.68
4338.66
4371.37
4359.71
4396.82
4383.71
4425.51
4410.74
4457.57
4441.1
4491.22
4472.86
4532.07
4510.85
4576.48
4551.19
4631.4
4599.74
4707.2
4667.1
4813.66
4787.15
4748.19
4933.77
4901.13
4840.38
4870.11
5079.42
5040.5
5003.4
4967.86
5264.52
5215.48
5168.74
5124.44
5501.52
5442.46
5384.46
5328.16
5720.08
5654.57
5589.18
6169.26
6098.06
5828.7
5949.35
6024.71
6388.3
6621.63
6552.02
6316.42
6802.57
7586.62
7865
7286.21
7001.25
7219.76
7529.69
8686.32
8183.97
8555.21
8624.64
9165.44
9712.64
10327.5
11002.1
10967.9
3921.8
3932.29
3942.99
3953.96
3965.41
3977.51
3990.49
4004.51
4019.66
4035.76
4052.47
4069.44
4086.4
4103.21
4119.85
4136.49
4153.44
4170.96
4189.12
4207.81
4226.47
4244.26
4260.2
4273.97
4286.36
4298.07
4309.82
4323.32
4347.18
4336.84
4369.86
4358.18
4395.26
4382.2
4423.73
4409.09
4455.57
4439.21
4488.03
4469.88
4528.31
4507.4
4571.59
4546.37
4626.53
4594.59
4703.05
4662.48
4812.3
4785.57
4758.9
4734.51
4933.3
4900.41
4839.3
4869.13
5082.35
5042.25
5004.21
4967.93
5274.05
5222.43
5173.57
5127.58
5524.72
5461.42
5399.47
5339.59
5757.85
5687.1
5616.67
6240.94
6162.9
5872.81
6000.72
6082.73
6477.51
6730.87
6653.43
6398.55
6927.04
7804.19
8116.57
7461.17
7143.41
7382.1
7730.72
9080.95
8475.44
8890.68
8989.46
9608.35
10204.5
10852.4
11460.3
11438.3
3925.73
3935.93
3946.36
3957.16
3968.56
3980.81
3994.18
4008.78
4024.49
4040.93
4057.66
4074.4
4090.97
4107.32
4123.53
4139.87
4156.56
4173.81
4191.69
4210.08
4228.43
4245.62
4260.41
4272.79
4284
4294.7
4305.96
4325.03
4315.84
4345.27
4334.89
4367.85
4356.23
4393.12
4380.14
4421.27
4406.81
4452.75
4436.56
4483.86
4465.91
4523.68
4503.01
4566.05
4540.61
4622.01
4588.87
4711.79
4690.63
4658.71
4811.1
4784.39
4757.99
4733.69
4932.45
4899.4
4838.29
4868.07
5084.16
5043.04
5004.25
4967.44
5282.36
5228.13
5177.16
5129.58
5547.44
5479.65
5413.52
5349.91
5796.14
5719.69
5643.89
6315.78
6230.16
5917.84
6053.22
6142.46
6571.1
6846.48
6760.49
6484.38
7059.22
8036.39
8384.75
7646.9
7294.21
7553.95
7944.82
9493.21
8783.63
9242.3
9371.03
10066
10699.6
11337.7
11860.4
11853.4
3929.32
3939.17
3949.31
3959.97
3971.44
3984.04
3998.02
4013.29
4029.41
4045.91
4062.42
4078.75
4094.83
4110.66
4126.4
4142.23
4158.33
4174.96
4192.42
4210.6
4228.74
4245.37
4258.93
4270.06
4280.12
4289.98
4301.12
4322.75
4313.3
4342.98
4332.62
4365.34
4353.86
4390.3
4377.48
4418.04
4403.81
4449
4433.06
4478.39
4460.72
4517.9
4497.35
4559.45
4533.52
4627.78
4610.06
4582.06
4710.81
4688.96
4647.03
4666.94
4810.17
4783.52
4757.62
4733.38
4931.35
4898.25
4837.5
4867.04
5084.97
5043.01
5003.66
4966.51
5289.46
5232.57
5179.56
5130.48
5569.63
5497.14
5426.7
5359.22
5834.9
5752.27
5670.79
6393.58
6299.68
5963.47
6106.58
6203.73
6669.53
6968.78
6873.14
6574.09
7198.84
8283.4
8668.34
7844.02
7453.28
7735.77
8172.51
9918.24
9107.2
9607.55
9765.22
10529.3
11178.4
11778.1
12226.5
12231.4
3932.5
3941.94
3951.82
3962.43
3974.19
3987.45
4002.22
4018
4034.24
4050.53
4066.64
4082.47
4097.96
4113.19
4128.21
4143.14
4158.37
4174.43
4191.59
4209.64
4227.56
4243.34
4255.56
4265.4
4274.47
4284.24
4301.58
4292.74
4320.18
4310.71
4340.31
4330.03
4362.34
4351.06
4386.76
4374.22
4413.93
4399.99
4444.17
4428.62
4471.41
4454.21
4510.61
4490.09
4551.44
4524.64
4625.73
4606.85
4584.56
4567.77
4710.37
4688.24
4645.52
4666.12
4809.59
4783.07
4757.71
4733.52
4930.17
4897.21
4837.08
4866.26
5084.87
5042.27
5002.57
4965.3
5295.43
5235.85
5180.8
5130.32
5591.32
5514.01
5439.17
5367.76
5873.76
5784.67
5697.36
6474.31
6371.27
6009.29
6160.77
6266.41
6772.53
7097.41
6990.97
6667.14
7345.84
8544.7
8966.6
8053.71
7621
7928.43
8413.78
10350.7
9445.66
9984.35
10168.6
10988
11629.9
12182.5
12570.3
12577.7
3935.19
3944.19
3953.87
3964.69
3977.12
3991.29
4006.72
4022.7
4038.78
4054.69
4070.3
4085.53
4100.34
4114.69
4128.64
4142.59
4157.07
4172.65
4189.55
4207.34
4224.56
4238.94
4249.72
4258.69
4267.79
4278.15
4298.8
4289.86
4317.38
4307.95
4337.29
4327.15
4358.87
4347.85
4382.55
4370.42
4408.86
4395.35
4438.18
4423.11
4463.05
4446.45
4501.45
4481.19
4551.51
4537.19
4513.83
4623.26
4603.47
4580.56
4562.85
4710.3
4687.79
4643.86
4665.15
4809.44
4783.05
4758.17
4733.86
4929.09
4896.48
4837.1
4865.9
5083.87
5040.87
5001.04
4963.91
5300.57
5238.19
5181.02
5129.12
5612.57
5530.36
5451.14
5375.84
5912.39
5816.77
5723.62
6557.34
6444.38
6055.29
6215.14
6329.96
6879.49
7232.48
7113.85
6762.9
7500.15
8820.67
9280.33
8276.56
7797.66
8133.09
8669.84
10784.3
9798.03
10369.6
10576.9
11433.1
12053.4
12552.3
12900.2
12905.5
3937.28
3945.87
3955.61
3967.07
3980.53
3995.54
4011.28
4027.16
4042.92
4058.36
4073.38
4087.91
4101.8
4115.09
4127.99
4140.95
4154.7
4169.91
4186.52
4203.56
4219.24
4231.89
4241.91
4251.16
4261.19
4272.72
4296
4287.07
4314.44
4305.1
4334
4324.06
4355
4344.3
4377.79
4366.15
4402.94
4390.03
4431.06
4416.6
4453.43
4437.75
4490.61
4470.8
4546.38
4531.55
4498.28
4510.59
4620.27
4599.81
4575.6
4557.3
4710.27
4687.31
4641.63
4663.66
4809.75
4783.47
4758.62
4734.06
4928.22
4896.14
4837.53
4865.98
5081.99
5038.85
4999.16
4962.45
5305.3
5240.09
5180.68
5127.26
5633.41
5546.24
5462.69
5383.66
5950.78
5848.48
5749.35
6642.05
6518.41
6100.94
6268.85
6393.58
6990.02
7373.27
7240.99
6861.15
7661.47
9112.69
9610.37
8513.87
7984.43
8351.5
8942.47
11213.2
10162
10759.4
10986.2
11860.9
12449.1
12895.5
13226.1
13230.4
3938.67
3947.03
3957.32
3969.91
3984.44
3999.93
4015.67
4031.31
4046.64
4061.54
4075.9
4089.55
4102.51
4114.72
4126.44
4138.43
4151.65
4166.59
4182.61
4198.31
4212.2
4223.78
4233.96
4244.22
4255.72
4273.82
4284.57
4265.51
4293.31
4311.44
4302.26
4330.56
4320.86
4350.87
4340.55
4372.68
4361.57
4396.49
4384.29
4423.16
4409.42
4442.98
4428.32
4478.12
4459.26
4540.37
4524.89
4491.6
4503.83
4616.31
4595.31
4569.42
4550.78
4709.97
4686.42
4638.32
4661.09
4810.33
4784.01
4758.42
4733.4
4927.54
4896.02
4837.83
4866.19
5079.48
5036.42
4997.15
4961.06
5309.88
5241.96
5180.37
5125.37
5653.57
5561.43
5473.68
5391.13
5988.49
5879.21
5773.84
6728.23
6592.87
6145.59
6321.52
6456.74
7103.66
7519.59
7372.66
6961.28
7830.98
9422.01
9954.26
8767.38
8183.49
8585.17
9231.9
11633.6
10533.5
11152.4
11393.7
12270.2
12818.8
13227.7
13550.3
13554.3
3939.26
3947.91
3959.43
3973.35
3988.59
4004.23
4019.82
4035.11
4049.98
4064.27
4077.89
4090.77
4102.72
4113.82
4124.64
4136.08
4148.86
4163.14
4178.08
4192.3
4204.99
4216.29
4227.3
4239.14
4252.62
4282.26
4272.27
4264.38
4290.84
4308.55
4299.6
4327.11
4317.72
4346.67
4336.75
4367.47
4356.89
4389.93
4378.47
4414.72
4401.96
4431.81
4418.49
4472.68
4462.9
4446.58
4533.6
4517.93
4483.9
4496.33
4610.86
4589.48
4561.71
4543.03
4708.72
4684.54
4633.38
4656.82
4810.55
4784.07
4756.65
4730.96
4926.56
4895.41
4837.26
4865.74
5076.8
5033.81
4995.08
4959.58
5314.36
5243.9
5180.23
5123.66
5672.36
5575.35
5483.58
5397.74
6024.96
5908.26
5796.22
6814.66
6666.14
6188.7
6372.66
6518.36
7220.47
7672.5
7508.79
7062.51
8010.72
9746.06
10307.6
9037.26
8396.28
8833.57
9535.52
12044.3
10911.5
11548
11798.5
12661.5
13171.5
13555.2
13873.4
13878.3
3939.14
3949.01
3962.2
3977.17
3992.77
4008.38
4023.72
4038.64
4052.98
4066.7
4079.68
4091.7
4102.76
4113.21
4123.71
4134.77
4146.9
4160.12
4173.69
4186.71
4198.95
4210.93
4223.45
4237.28
4252.21
4280.43
4271.28
4263.53
4288.78
4305.98
4297.3
4323.89
4314.84
4342.65
4333.16
4362.38
4352.39
4383.34
4372.67
4406.11
4394.44
4420.02
4408.34
4465.26
4456.01
4432.88
4440.24
4525.9
4510.33
4476.01
4488.2
4603.48
4581.9
4552.24
4533.86
4705.65
4680.92
4626.3
4650.14
4809.65
4782.79
4752.51
4726.06
4924.66
4893.59
4834.96
4863.84
5074.17
5031.04
4992.67
4957.53
5318.29
5245.63
5180.13
5122.02
5688.93
5586.97
5491.24
5402.35
6059.56
5934.91
5815.71
6899.94
6737.57
6229.6
6416.8
6578
7339.2
7833.04
7648.78
7165.2
8201.24
10080.5
10669.5
9319.96
8619.79
9093.83
9849.45
12445.3
11296.4
11947.6
12200.8
13037.6
13515.6
13880.3
14196.3
14206
3938.81
3950.86
3965.55
3981.16
3996.9
4012.38
4027.44
4041.95
4055.87
4069.04
4081.3
4092.62
4103.19
4113.43
4123.7
4134.44
4145.97
4158.23
4170.79
4183.34
4195.98
4209.1
4223.14
4237.87
4252.04
4263.28
4279.16
4270.67
4287.22
4303.83
4295.45
4321.01
4312.35
4338.83
4329.84
4357.37
4348
4376.81
4366.96
4397.39
4386.92
4426.4
4413.81
4408.27
4397.95
4457.41
4448.36
4433.08
4517.09
4501.88
4467.74
4479.42
4593.77
4572.25
4540.99
4523.18
4700.1
4674.79
4616.65
4640.71
4806.79
4779.36
4745.3
4718.15
4921.11
4889.74
4830.01
4859.51
5071.39
5027.72
4989.31
4954.14
5320.54
5246.03
5178.99
5119.5
5702.06
5594.77
5494.82
5402.88
6091.28
5952.33
5824.12
6979.37
6799.47
6262.11
6480.1
6632.34
7459.26
8001.22
7789.33
7269.37
8398.4
10423.6
11040.6
9612.26
8849.59
9366.59
10171.4
12837.5
11688.9
12351.8
12602.1
13404.8
13853.4
14210
14514.9
14540.7
3939.25
3953.57
3969.29
3985.26
4001.02
4016.33
4031.11
4045.29
4058.71
4071.27
4082.92
4093.79
4104.11
4114.2
4124.36
4134.94
4146.15
4157.96
4170.23
4182.95
4196.21
4210.11
4224.4
4238.33
4254.94
4262.82
4262.36
4248.36
4278.26
4270.06
4286.01
4301.92
4293.9
4318.32
4310.06
4335.19
4326.7
4352.5
4343.79
4370.26
4361.32
4388.52
4379.32
4419.54
4407.43
4402.51
4387.61
4449.23
4440.62
4425.78
4507.06
4492.51
4459
4469.99
4581.73
4560.52
4528.13
4511.14
4691.62
4665.77
4604.46
4628.51
4801.14
4772.96
4734.5
4706.83
4914.58
4882.58
4821.36
4851.59
5067.54
5022.77
4983.78
4948.15
5318.89
5242.78
5174.47
5113.78
5706.4
5595.61
5492.53
5398.17
6121.81
5993.37
5812.89
7076.12
6809.74
6262.56
6458.52
6650.59
7575.75
8175.55
7945.36
7386.63
8590.75
10777.6
11422.7
9911.43
9091.42
9653.21
10504.6
13225.9
12091.2
12764.6
13006.3
13768.2
14193.1
14551.9
14815.1
14891.9
3941.09
3956.99
3973.34
3989.51
4005.23
4020.39
4034.88
4048.6
4061.46
4073.41
4084.59
4095.14
4105.32
4115.36
4125.54
4136.14
4147.33
4159.12
4171.5
4184.48
4197.96
4211.68
4225.25
4238.25
4261.76
4254.49
4269.39
4247.97
4277.42
4284.88
4300.12
4292.46
4315.72
4307.87
4331.61
4323.63
4347.66
4339.63
4363.69
4355.68
4379.62
4371.68
4412.66
4401.11
4396.68
4390.85
4381.77
4378.23
4440.83
4432.82
4418.4
4495.94
4482.28
4449.87
4460.01
4567.6
4546.97
4514.05
4498.09
4679.91
4653.75
4589.93
4613.71
4791.79
4762.86
4719.73
4691.86
4903.45
4870.55
4807.94
4838.8
5060.52
5014.57
4974.7
4938.02
5312.13
5234.55
5165.54
5104.89
5698.29
5589.26
5486.72
5392.29
6130.89
5972.79
5808.5
7050.74
6804.64
6257.78
6452.49
6646.48
7622.15
8356.46
7924.66
7367.79
8673.07
11146
11820.1
10221.4
9078.72
9941.31
9525.35
10857.1
13617.6
12506.2
13192.8
13421.2
14137
14549.7
14927.3
15218.8
15376
3944.11
3960.98
3977.73
3994.03
4009.7
4024.6
4038.65
4051.8
4064.03
4075.48
4086.27
4096.61
4106.71
4116.79
4127.1
4137.85
4149.15
4161.05
4173.52
4186.44
4199.58
4212.73
4225.57
4237.87
4268.62
4261.11
4253.95
4276.51
4247.53
4283.72
4298.34
4291
4313.14
4305.72
4328.03
4320.58
4342.81
4335.45
4357.21
4350.08
4370.92
4364.18
4405.85
4394.88
4385.22
4376.6
4373.48
4432.27
4424.91
4411.09
4483.95
4471.34
4440.5
4449.7
4551.74
4531.94
4499.16
4484.39
4664.85
4638.75
4573.33
4596.44
4777.85
4748.43
4700.73
4673.17
4886.19
4852.28
4789.01
4820.13
5051.75
5004.12
4960.95
4922.32
5305.78
5227.84
5158.75
5098.13
5694.07
5585.22
5482.75
5388.46
6126.99
5967.56
5804.51
7044.64
6799.79
6253.39
6447.45
6642.24
7618.06
8339.36
7917.98
7361.24
8669.12
11543.4
12232.7
10554
9071.52
9944.92
9515.12
11231
14022.1
12938.5
13643.5
13854.5
14529.1
14955.8
15433.9
17300.7
16355.5
3948.02
3965.52
3982.6
3998.95
4014.36
4028.81
4042.27
4054.77
4066.46
4077.46
4087.96
4098.15
4108.23
4118.4
4128.86
4139.75
4151.16
4163.08
4175.42
4188.03
4200.72
4213.29
4225.53
4237.26
4247.13
4275.54
4267.78
4260.42
4253.4
4282.51
4296.54
4289.52
4310.6
4303.58
4324.52
4317.59
4338.08
4331.36
4350.96
4344.63
4362.73
4357.02
4399.13
4388.81
4379.68
4371.71
4369.02
4423.64
4417
4403.85
4471.44
4459.97
4431.05
4439.3
4534.61
4515.92
4483.84
4470.39
4646.52
4620.89
4555.11
4577.14
4758.76
4729.32
4677.63
4650.92
4865.21
4829.07
4764.5
4795.8
5044.68
4978.11
4940.41
4902.5
5302.05
5224.22
5155.18