/*--------------------------------*- C++ -*----------------------------------*\
  =========                 |
  \\      /  F ield         | OpenFOAM: The Open Source CFD Toolbox
   \\    /   O peration     | Website:  https://openfoam.org
    \\  /    A nd           | Version:  dev
     \\/     M anipulation  |
\*---------------------------------------------------------------------------*/
FoamFile
{
    version     2.0;
    format      ascii;
    class       volScalarField;
    location    "2500";
    object      H2O;
}
// * * * * * * * * * * * * * * * * * * * * * * * * * * * * * * * * * * * * * //

dimensions      [0 0 0 0 0 0 0];

internalField   nonuniform List<scalar> 
9842
(
5.46617e-31
2.38232e-30
7.41197e-31
5.76139e-30
5.29388e-30
7.19639e-31
1.40199e-29
1.30712e-29
5.65037e-30
4.04598e-31
3.52726e-29
3.7332e-29
1.41273e-29
5.04484e-30
5.12191e-31
8.44197e-29
9.29195e-29
4.61759e-29
1.60972e-29
3.56062e-30
2.11268e-31
1.85106e-28
2.5904e-28
1.68221e-28
5.32395e-29
1.40911e-29
1.18584e-30
8.36598e-32
3.64229e-28
6.03139e-28
3.8809e-28
1.71797e-28
4.42909e-29
7.87828e-30
5.19991e-31
4.13158e-32
3.81503e-28
1.36972e-27
8.15951e-28
4.7585e-28
1.58783e-28
3.02241e-29
4.88596e-30
3.05651e-31
1.26554e-32
6.04592e-28
3.43572e-27
2.39508e-27
1.23001e-27
4.47499e-28
1.00729e-28
1.64488e-29
1.33384e-30
1.68951e-31
7.17439e-33
2.29133e-27
7.00813e-27
6.16898e-27
3.29118e-27
1.12327e-27
3.57618e-28
7.72161e-29
9.08981e-30
9.21057e-31
6.4812e-32
1.2665e-33
4.96443e-27
1.31692e-26
1.38913e-26
7.33247e-27
2.9868e-27
1.05238e-27
2.72391e-28
4.27813e-29
5.173e-30
4.38263e-31
2.25407e-32
3.29772e-34
5.54449e-27
2.01232e-26
3.20652e-26
1.90185e-26
9.95706e-27
3.12771e-27
6.6494e-28
1.46479e-28
2.29799e-29
2.44468e-30
1.30673e-31
7.66321e-33
1.91218e-34
1.30723e-26
4.9324e-26
7.23681e-26
5.35532e-26
2.35801e-26
9.20559e-27
2.56463e-27
5.99236e-28
7.83527e-29
1.07378e-29
7.47663e-31
4.76449e-32
1.86962e-33
2.68772e-35
2.33994e-26
7.67569e-26
1.15204e-25
1.19686e-25
5.59377e-26
2.09835e-26
6.5977e-27
1.96379e-27
2.90394e-28
4.37152e-29
5.36607e-30
3.02539e-31
1.5554e-32
6.11406e-34
2.30264e-34
5.80476e-26
1.58987e-25
2.62306e-25
2.5813e-25
1.60651e-25
6.3782e-26
1.70585e-26
4.82878e-27
1.41417e-27
1.39082e-28
2.02558e-29
2.64157e-30
8.9878e-32
6.99769e-33
1.51391e-33
5.3815e-34
1.28041e-25
3.09354e-25
5.06032e-25
6.1926e-25
4.59068e-25
1.9893e-25
5.70159e-26
1.45823e-26
3.27818e-27
7.19031e-28
1.06912e-28
1.11992e-29
8.57899e-31
4.34542e-32
1.32099e-32
5.17637e-33
1.9418e-33
2.00838e-25
7.75814e-25
1.01625e-24
1.36397e-24
9.77832e-25
4.5349e-25
2.08558e-25
5.74409e-26
1.48526e-26
2.48716e-27
5.64965e-28
5.51466e-29
3.64047e-30
2.76197e-31
6.82284e-32
4.77275e-32
2.14751e-32
2.91698e-32
1.15669e-24
2.30682e-24
2.46072e-24
2.60022e-24
2.40341e-24
1.4387e-24
5.411e-25
1.46526e-25
4.83742e-26
1.10274e-26
1.6617e-27
1.91123e-28
2.64832e-29
2.13937e-30
2.40106e-31
2.30061e-31
2.90538e-31
2.28818e-31
3.19149e-31
7.6485e-24
1.02354e-23
7.20362e-24
4.96134e-24
4.29161e-24
3.20923e-24
1.53026e-24
5.50594e-25
1.32705e-25
3.20831e-26
6.50155e-27
1.06243e-27
9.10321e-29
1.10058e-29
1.53165e-30
1.25205e-30
1.7899e-30
2.12045e-30
3.33744e-30
3.31502e-30
2.32431e-23
4.13704e-23
3.41985e-23
2.10048e-23
1.21679e-23
5.85284e-24
3.61657e-24
1.48774e-24
4.37946e-25
8.87898e-26
2.52525e-26
4.40799e-27
4.68607e-28
3.7376e-29
6.89977e-30
5.41766e-30
7.9236e-30
1.98233e-29
3.77916e-29
4.17827e-29
2.73136e-29
9.37335e-23
1.32009e-22
1.3107e-22
8.3224e-23
3.15959e-23
1.89222e-23
6.81117e-24
3.57112e-24
1.31601e-24
3.95062e-25
8.8767e-26
1.79255e-26
2.57872e-27
2.28983e-28
4.61472e-29
4.32777e-29
4.21332e-29
6.83173e-29
2.0302e-28
3.46225e-28
3.94351e-28
1.88305e-28
2.85736e-22
5.59124e-22
4.64261e-22
3.18523e-22
1.26518e-22
6.33391e-23
2.55065e-23
6.63307e-24
3.33566e-24
1.10959e-24
3.03906e-25
6.07454e-26
1.04918e-26
1.61093e-27
2.25691e-28
2.54549e-28
3.47805e-28
2.9117e-28
1.04667e-27
2.68851e-27
3.33786e-27
3.05951e-27
2.48639e-27
3.04754e-22
1.73323e-21
1.42261e-21
1.41329e-21
6.69705e-22
2.35508e-22
7.90227e-23
2.13663e-23
7.05588e-24
2.89941e-24
7.33735e-25
2.09943e-25
3.98746e-26
6.78226e-27
1.70953e-27
1.2318e-27
2.57606e-27
3.13849e-27
3.32444e-27
1.18198e-26
2.75647e-26
2.22393e-26
3.02436e-26
9.4459e-27
1.46978e-21
2.86894e-21
6.44273e-21
5.48426e-21
2.31027e-21
8.22817e-22
3.17353e-22
9.38391e-23
1.71334e-23
6.31518e-24
1.95999e-24
6.44136e-25
1.3317e-25
2.8625e-26
7.41002e-27
9.64573e-27
1.58256e-26
3.15498e-26
3.03366e-26
5.11508e-26
1.45166e-25
2.57005e-25
1.77648e-25
2.60022e-25
4.76632e-26
3.87001e-21
6.15328e-21
1.57184e-20
1.61476e-20
1.08929e-20
4.91613e-21
1.47836e-21
3.62307e-22
6.94562e-23
1.95053e-23
6.68151e-24
1.79263e-24
3.80551e-25
8.05908e-26
3.96509e-26
7.72991e-26
9.67921e-26
1.55237e-25
1.99524e-25
2.346e-25
6.40443e-25
1.5494e-24
2.14743e-24
2.73981e-24
1.56251e-24
4.65544e-25
2.65656e-21
2.20805e-20
2.85698e-20
4.44165e-20
3.52086e-20
1.71529e-20
6.48011e-21
1.88401e-21
3.77243e-22
5.8582e-23
1.93543e-23
5.49238e-24
1.51137e-24
3.5298e-25
2.69582e-25
4.45623e-25
7.64523e-25
8.33974e-25
1.33699e-24
1.97477e-24
3.20982e-24
8.68221e-24
1.29504e-23
1.69893e-23
1.68559e-23
7.34127e-24
3.09759e-24
3.47973e-21
2.80025e-20
7.83586e-20
9.11861e-20
9.44992e-20
6.02434e-20
2.60821e-20
7.61654e-21
1.69429e-21
3.17113e-22
6.79467e-23
1.71354e-23
6.24496e-24
1.91416e-24
8.99315e-25
2.09896e-24
4.26769e-24
5.07828e-24
5.89322e-24
1.97407e-23
1.81452e-23
2.67744e-23
7.67694e-23
8.10467e-23
1.14949e-22
8.60272e-23
6.0483e-23
1.78383e-23
1.26061e-20
6.10233e-20
1.11857e-19
2.23242e-19
2.4128e-19
1.67407e-19
7.55383e-20
2.45093e-20
7.9634e-21
1.86738e-21
2.79783e-22
6.42363e-23
2.68519e-23
1.23663e-23
5.51272e-24
9.306e-24
1.46188e-23
2.28344e-23
5.07952e-23
6.59503e-23
9.15032e-23
1.7394e-22
2.58056e-22
5.70782e-22
7.32254e-22
6.1211e-22
4.99758e-22
4.84992e-22
1.71778e-22
1.79564e-20
7.68957e-20
2.25849e-19
3.5968e-19
4.96288e-19
3.87512e-19
2.82483e-19
9.74709e-20
3.00046e-20
7.64338e-21
1.58606e-21
4.03962e-22
1.60618e-22
1.09248e-22
6.06504e-23
4.17716e-23
8.75405e-23
1.34566e-22
2.54547e-22
3.3037e-22
1.03014e-21
6.76142e-22
9.56689e-22
2.31673e-21
4.40816e-21
4.26981e-21
2.83314e-21
3.65152e-21
1.9525e-21
7.68492e-22
3.96398e-20
8.91044e-20
2.3737e-19
6.97106e-19
1.10084e-18
9.5573e-19
8.76933e-19
4.78291e-19
9.46374e-20
2.98665e-20
6.95119e-21
2.02021e-21
7.74925e-22
7.59499e-22
4.9604e-22
3.82197e-22
4.20485e-22
8.26637e-22
1.48965e-21
2.68662e-21
4.49331e-21
3.54302e-21
5.32287e-21
1.10594e-20
2.02932e-20
2.41145e-20
2.64337e-20
2.57742e-20
1.47116e-20
8.82862e-21
3.55542e-21
3.43707e-20
2.31899e-19
4.27962e-19
1.33093e-18
1.59225e-18
2.40798e-18
1.81045e-18
1.29607e-18
4.45686e-19
8.45649e-20
2.18332e-20
7.77204e-21
5.79791e-21
5.56045e-21
4.82697e-21
3.43173e-21
2.60707e-21
3.1903e-21
4.68466e-21
8.51006e-21
2.34389e-20
2.21954e-20
4.37053e-20
3.80687e-20
6.09134e-20
1.00148e-19
1.33098e-19
1.51003e-19
1.43438e-19
7.10696e-20
4.90187e-20
2.65248e-20
6.10473e-20
7.10779e-19
1.44104e-18
2.77375e-18
2.85514e-18
3.96319e-18
4.17853e-18
2.78798e-18
1.40296e-18
3.77924e-19
8.87063e-20
3.53036e-20
2.71216e-20
2.55317e-20
3.32917e-20
2.41574e-20
1.39824e-20
1.31299e-20
4.40986e-20
3.79854e-20
7.2446e-20
1.85645e-19
1.47859e-19
2.29305e-19
2.77356e-19
3.33024e-19
6.08231e-19
9.34925e-19
1.17622e-18
1.13114e-18
1.33944e-18
4.66131e-19
1.65787e-19
1.59863e-19
1.10079e-18
2.8582e-18
4.46726e-18
5.64371e-18
6.59694e-18
9.46255e-18
7.83438e-18
3.57474e-18
1.4381e-18
3.82378e-19
1.22264e-19
1.5231e-19
1.62015e-19
1.90326e-19
1.48274e-19
1.52103e-19
1.24822e-19
1.2124e-19
2.97958e-19
3.5467e-19
6.15215e-19
4.2686e-19
8.03572e-19
9.18532e-19
1.14472e-18
1.8157e-18
3.01517e-18
1.05688e-17
1.30178e-17
1.33005e-17
1.46784e-17
4.05521e-18
4.25918e-19
3.1992e-18
3.38102e-19
1.41426e-18
4.79606e-18
8.40128e-18
1.2073e-17
1.57983e-17
1.87244e-17
1.52439e-17
1.10981e-17
5.24763e-18
1.50095e-18
6.90882e-19
5.72423e-19
7.74108e-19
9.13961e-19
9.03882e-19
6.17613e-19
9.28382e-19
6.34655e-19
1.92563e-18
1.95136e-18
2.75695e-18
3.47155e-18
1.86169e-18
3.84711e-18
6.20327e-18
5.51886e-18
2.23013e-17
3.56653e-17
1.63788e-16
2.3697e-16
2.62092e-16
0
2.33878e-17
2.13552e-16
3.08233e-18
2.96875e-17
4.40111e-19
2.11546e-18
4.6615e-18
1.54332e-17
1.76713e-17
2.90846e-17
3.13132e-17
3.55083e-17
2.35894e-17
1.71142e-17
5.48735e-18
2.81759e-18
3.1945e-18
4.56284e-18
4.11415e-18
4.16668e-18
3.10026e-18
4.95189e-18
5.5397e-18
5.81526e-18
1.09309e-17
1.12036e-17
1.26801e-17
1.15873e-17
9.10767e-18
1.51869e-17
2.39304e-17
5.19665e-17
2.87919e-16
8.01522e-16
2.48533e-15
2.9567e-15
1.31621e-15
4.08812e-15
1.05949e-15
5.22356e-15
7.14678e-15
1.34921e-16
1.06249e-15
1.4451e-17
1.58741e-16
3.59675e-18
8.1179e-18
8.74106e-18
2.21086e-17
3.97099e-17
5.3845e-17
6.0536e-17
5.41423e-17
4.5761e-17
4.50108e-17
1.86556e-17
9.58172e-18
1.36747e-17
2.07125e-17
2.88865e-17
3.11155e-17
1.70364e-17
1.95611e-17
2.45277e-17
2.06102e-17
4.31763e-17
4.04373e-17
3.90663e-17
3.73148e-17
3.73313e-17
4.07594e-17
5.97468e-17
1.61061e-16
8.97754e-16
5.86487e-15
2.15945e-14
5.01649e-14
1.97382e-14
9.58422e-14
3.03131e-14
7.75682e-15
4.50857e-14
5.50398e-14
9.26741e-16
7.03955e-15
3.8661e-17
5.13399e-16
2.7893e-17
4.5946e-17
2.27852e-17
3.33518e-17
6.29512e-17
7.70359e-17
9.03025e-17
1.05841e-16
9.8286e-17
8.69582e-17
6.39471e-17
3.13596e-17
4.83055e-17
8.49943e-17
1.37359e-16
1.14959e-16
1.13571e-16
9.32211e-17
6.46031e-17
8.54951e-17
1.34672e-16
1.1094e-16
1.33023e-16
1.27694e-16
1.11181e-16
1.46593e-16
1.86422e-16
6.0996e-16
3.73094e-15
2.47874e-14
1.60251e-13
5.70483e-13
4.88527e-13
1.76261e-12
1.70242e-13
8.04997e-13
2.65156e-13
5.56042e-14
3.54942e-13
3.94159e-13
5.16936e-15
4.4243e-14
1.53537e-16
2.68388e-15
4.22685e-16
4.00384e-16
1.83748e-16
8.84328e-17
1.23133e-16
1.1996e-16
1.90905e-16
2.0909e-16
1.69419e-16
1.38566e-16
1.27855e-16
1.33357e-16
1.51936e-16
3.03143e-16
4.43635e-16
7.50101e-16
4.67497e-16
3.11833e-16
4.01393e-16
3.81139e-16
5.75619e-16
4.20196e-16
4.68152e-16
4.53426e-16
3.53736e-16
3.36834e-16
4.98954e-16
1.5075e-15
1.02326e-14
1.13229e-13
8.0729e-13
4.29244e-12
7.28684e-12
2.08974e-11
3.96449e-12
1.43598e-11
1.43665e-12
6.84194e-12
2.10719e-12
3.58154e-13
2.58571e-12
2.68889e-12
2.71752e-14
2.61866e-13
4.35385e-16
1.20043e-14
2.58029e-15
3.16074e-15
1.60538e-15
6.14111e-16
2.6936e-16
2.88863e-16
3.48906e-16
3.50647e-16
3.31455e-16
2.63682e-16
2.49134e-16
2.40268e-16
6.12738e-16
1.10292e-15
2.17086e-15
2.99039e-15
3.14674e-15
1.94235e-15
1.26283e-15
1.31532e-15
1.87544e-15
1.62683e-15
1.67404e-15
1.41912e-15
1.12357e-15
1.08357e-15
1.35958e-15
3.24424e-15
3.74561e-14
3.69589e-13
3.76524e-12
2.5387e-11
6.62807e-11
1.66184e-10
5.76589e-11
1.71473e-10
3.18387e-11
1.22293e-10
1.14018e-11
5.65678e-11
1.61356e-11
2.28822e-12
1.86922e-11
1.83596e-11
1.53857e-13
1.58149e-12
2.02705e-15
6.46566e-14
2.77066e-14
3.63837e-14
1.76168e-14
5.89645e-15
1.70059e-15
7.3988e-16
5.76658e-16
5.77486e-16
7.23433e-16
5.7646e-16
4.84375e-16
5.32849e-16
1.3304e-15
3.57814e-15
8.37516e-15
1.45079e-14
2.40685e-14
1.66046e-14
8.04361e-15
6.83615e-15
8.27724e-15
8.86601e-15
8.9796e-15
7.54017e-15
5.72134e-15
4.14596e-15
3.68871e-15
9.21175e-15
7.7259e-14
1.7612e-12
1.3835e-11
1.24379e-10
4.32945e-10
1.05941e-09
5.42403e-10
1.46e-09
4.6973e-10
1.49355e-09
2.59049e-10
1.05724e-09
9.19131e-11
4.70606e-10
1.23288e-10
1.46018e-11
1.35159e-10
1.24433e-10
8.71592e-13
9.41672e-12
1.0027e-14
3.463e-13
2.88522e-13
4.09189e-13
2.07484e-13
7.33933e-14
1.97768e-14
4.57902e-15
1.45031e-15
1.05241e-15
1.08671e-15
1.09176e-15
9.02688e-16
1.2002e-15
3.5502e-15
1.18106e-14
3.42731e-14
6.80068e-14
1.22378e-13
1.02234e-13
6.46634e-14
4.53076e-14
4.83537e-14
5.50495e-14
5.48226e-14
4.68915e-14
3.42541e-14
2.27564e-14
1.59893e-14
2.60753e-14
2.00521e-13
2.76261e-12
7.53959e-11
5.15298e-10
2.57751e-09
5.97011e-09
3.90464e-09
1.00461e-08
4.63379e-09
1.32316e-08
3.98584e-09
1.3389e-08
2.19986e-09
9.22602e-09
7.3829e-10
3.88067e-09
9.36317e-10
9.15073e-11
9.67995e-10
8.27403e-10
4.8205e-12
5.4271e-11
4.83729e-14
1.7659e-12
2.71481e-12
4.20175e-12
2.29816e-12
8.82692e-13
2.475e-13
5.61929e-14
1.22179e-14
3.39653e-15
2.2991e-15
1.88659e-15
1.75245e-15
2.76676e-15
9.39494e-15
3.90155e-14
1.27753e-13
2.92356e-13
5.28566e-13
6.35775e-13
6.26021e-13
3.15955e-13
2.90602e-13
3.28459e-13
3.40335e-13
2.97143e-13
2.12799e-13
1.34304e-13
8.36387e-14
8.24847e-14
5.63866e-13
7.96921e-12
9.32174e-11
2.68394e-09
1.31545e-08
2.60817e-08
2.47899e-08
6.00394e-08
3.63471e-08
9.54302e-08
4.15311e-08
1.21464e-07
3.49295e-08
1.19275e-07
1.85111e-08
7.84726e-08
5.83056e-09
3.12447e-08
6.99487e-09
5.57531e-10
6.82154e-09
5.3794e-09
2.54658e-11
3.00038e-10
2.19288e-13
8.31268e-12
2.24169e-11
3.84935e-11
2.34168e-11
9.47588e-12
3.01654e-12
7.17235e-13
1.52566e-13
2.67125e-14
7.45541e-15
4.15879e-15
3.90561e-15
6.13548e-15
2.5209e-14
1.20152e-13
4.43659e-13
1.15248e-12
2.19407e-12
4.64058e-12
3.558e-12
2.44079e-12
1.75415e-12
1.86102e-12
1.97137e-12
1.79454e-12
1.3231e-12
8.12981e-13
4.75453e-13
3.29993e-13
9.16379e-13
2.33639e-11
4.38501e-10
2.26081e-09
5.17174e-08
9.76985e-08
1.21144e-07
2.45232e-07
2.35157e-07
5.58386e-07
3.34409e-07
8.63915e-07
3.72062e-07
1.09236e-06
2.99425e-07
1.02732e-06
1.50988e-07
6.44563e-07
4.47862e-08
2.44014e-07
5.09936e-08
3.30664e-09
4.72798e-08
3.45295e-08
1.25631e-10
1.58525e-09
9.27517e-13
3.58273e-11
1.57197e-10
3.06046e-10
2.11539e-10
9.49426e-11
3.28529e-11
8.78002e-12
1.74496e-12
3.30213e-13
6.2436e-14
1.4312e-14
8.72998e-15
1.41125e-14
6.8045e-14
3.60692e-13
1.45422e-12
4.17971e-12
8.68599e-12
1.55204e-11
2.17309e-11
2.3155e-11
1.09079e-11
1.02789e-11
1.07284e-11
1.00188e-11
7.73701e-12
4.88312e-12
2.76027e-12
1.49605e-12
1.88321e-12
2.66237e-11
1.01323e-09
2.33858e-08
1.40449e-07
0
4.69512e-07
8.09719e-07
1.09825e-06
2.25441e-06
2.04883e-06
4.69596e-06
2.93528e-06
7.36013e-06
3.21346e-06
9.0811e-06
2.45934e-06
8.15442e-06
1.18235e-06
4.95523e-06
3.33177e-07
1.81943e-06
3.62151e-07
1.93479e-08
3.22502e-07
2.22623e-07
5.78885e-10
8.16355e-09
3.66577e-12
1.42979e-10
8.96922e-10
2.03723e-09
1.63916e-09
8.45152e-10
3.0947e-10
8.81532e-11
2.06604e-11
4.06424e-12
7.69808e-13
1.15789e-13
2.80758e-14
3.5126e-14
1.77487e-13
1.04763e-12
4.61566e-12
1.43963e-11
3.17985e-11
5.80481e-11
1.25214e-10
1.4103e-10
7.06695e-11
5.5929e-11
5.61025e-11
5.25514e-11
4.18225e-11
2.76286e-11
1.54509e-11
7.85396e-12
5.92531e-12
3.10397e-11
9.75045e-10
3.84651e-08
1.14533e-06
1.17369e-06
1.85614e-06
4.01102e-06
6.97922e-06
9.46906e-06
1.95968e-05
1.74181e-05
3.93691e-05
2.38895e-05
5.85988e-05
2.42288e-05
6.5868e-05
1.76636e-05
5.4321e-05
8.4896e-06
3.21825e-05
2.36012e-06
1.22995e-05
2.47953e-06
1.14282e-07
2.15102e-06
1.44244e-06
2.56056e-09
4.25112e-08
1.4111e-11
5.4473e-10
4.01124e-09
1.07787e-08
1.04837e-08
6.4102e-09
2.72671e-09
8.48339e-10
2.14302e-10
4.87066e-11
9.94598e-12
1.56589e-12
1.74528e-13
9.35657e-14
4.48628e-13
2.95147e-12
1.42245e-11
4.82798e-11
1.12933e-10
2.03393e-10
3.67957e-10
5.26892e-10
5.20951e-10
2.9879e-10
2.83494e-10
2.62851e-10
2.1245e-10
1.45038e-10
8.28702e-11
4.13681e-11
2.39386e-11
4.45114e-11
1.00738e-09
3.2942e-08
1.25983e-06
1.89346e-05
2.26643e-05
1.02946e-05
1.40792e-05
3.42225e-05
5.64503e-05
7.92115e-05
0.000139315
0.000134932
0.000249301
0.000162169
0.000334143
0.000146007
0.000348201
0.000102909
0.000274066
5.03541e-05
0.000165902
1.52244e-05
6.81348e-05
1.57449e-05
6.98522e-07
1.35836e-05
9.18101e-06
1.13029e-08
2.32241e-07
5.4265e-11
2.03295e-09
1.3387e-08
4.27324e-08
5.20966e-08
3.94109e-08
2.02589e-08
7.34484e-09
2.02926e-09
5.34622e-10
1.19341e-10
1.71133e-11
1.65975e-12
3.26613e-13
1.11667e-12
7.99924e-12
4.29295e-11
1.57612e-10
3.9881e-10
7.20204e-10
1.15601e-09
1.80067e-09
2.83645e-09
1.54517e-09
1.37668e-09
1.25664e-09
1.02226e-09
7.14211e-10
4.21682e-10
2.13618e-10
1.02707e-10
9.22608e-11
1.01199e-09
4.01268e-08
8.05566e-07
2.48363e-05
2.54178e-05
0.000134032
0.000155372
8.14663e-05
0.000108367
0.000210712
0.000295637
0.000384336
0.000529707
0.000539983
0.000754109
0.000622214
0.000916937
0.000602951
0.000978829
0.000445734
0.000898269
0.000234771
0.000634862
8.06755e-05
0.000296284
8.23683e-05
4.44714e-06
7.14749e-05
5.01428e-05
5.19506e-08
1.38e-06
1.80577e-10
6.91117e-09
3.13977e-08
1.17999e-07
1.83306e-07
1.80669e-07
1.18525e-07
5.45093e-08
1.62333e-08
5.35879e-09
1.28403e-09
1.87131e-10
1.59569e-11
2.0113e-12
2.55822e-12
2.1827e-11
1.25617e-10
5.07411e-10
1.38491e-09
2.65365e-09
3.89378e-09
7.18771e-09
9.43454e-09
8.1508e-09
6.31589e-09
5.72106e-09
4.65573e-09
3.31197e-09
2.02791e-09
1.06554e-09
4.76669e-10
2.94761e-10
1.08529e-09
3.55586e-08
1.64952e-06
2.42148e-05
1.09383e-05
0.00016672
0.000168855
0.000516385
0.000564978
0.000377904
0.000452215
0.000673243
0.000814098
0.000962969
0.00115914
0.0012062
0.00147324
0.00135705
0.00171396
0.00138064
0.00184185
0.00121819
0.00180337
0.000817775
0.00153398
0.000335043
0.000965669
0.000336637
2.61105e-05
0.000293425
0.000215505
2.52607e-07
8.45953e-06
4.65985e-10
3.14999e-08
4.28928e-08
2.12184e-07
4.18136e-07
5.54339e-07
4.91587e-07
3.05443e-07
1.08529e-07
3.637e-08
1.14325e-08
1.5043e-09
1.61473e-10
1.93046e-11
7.61667e-12
4.69433e-11
3.88537e-10
1.57248e-09
4.75252e-09
9.90689e-09
1.51077e-08
1.83236e-08
2.64063e-08
3.77498e-08
2.6766e-08
2.45404e-08
2.00416e-08
1.44382e-08
9.17376e-09
5.09595e-09
2.19692e-09
1.11986e-09
1.60959e-09
2.80498e-08
1.35185e-06
7.80439e-05
0.000165141
0.00017641
0.000590044
0.000594161
0.00112115
0.00118236
0.000937175
0.00103866
0.00133895
0.0015034
0.00171431
0.0019289
0.00203602
0.00231679
0.00226186
0.00263131
0.00234685
0.00282694
0.00222259
0.00284565
0.00181018
0.00261234
0.00104276
0.00202698
0.00102427
0.000123682
0.000892562
0.000695658
1.54819e-06
4.49157e-05
3.63288e-09
1.61001e-07
2.01951e-07
6.03492e-07
1.05931e-06
1.28891e-06
1.11275e-06
5.56405e-07
2.20284e-07
5.81524e-08
1.23046e-08
1.42716e-09
1.62095e-10
2.96597e-11
1.12497e-10
8.02095e-10
4.62284e-09
1.55757e-08
3.66616e-08
5.92258e-08
7.57679e-08
7.60751e-08
1.02126e-07
1.01443e-07
9.72103e-08
8.09588e-08
5.90685e-08
3.88793e-08
2.28695e-08
9.71129e-09
4.57603e-09
3.86319e-09
2.65106e-08
9.11111e-07
3.84426e-05
0.000537314
0.000483998
0.000589281
0.000575838
0.00121321
0.00121712
0.00183796
0.00189977
0.00164148
0.00175151
0.00212079
0.00228699
0.00255893
0.00276732
0.00294594
0.0032061
0.00323676
0.00357413
0.00337692
0.00382441
0.00329912
0.00389397
0.00291987
0.00370875
0.00214309
0.00313694
0.00214326
0.000448285
0.00198873
0.00166515
7.63521e-06
0.000178129
1.4338e-07
1.93469e-06
3.96898e-07
1.19516e-06
1.88754e-06
2.28339e-06
1.86895e-06
9.84796e-07
3.41777e-07
8.27236e-08
1.15857e-08
1.10221e-09
1.33486e-10
2.43188e-10
1.87512e-09
9.93025e-09
3.49668e-08
8.53952e-08
1.70513e-07
2.46961e-07
2.54633e-07
2.85044e-07
3.53765e-07
3.49019e-07
3.02956e-07
2.25092e-07
1.54557e-07
9.40491e-08
4.06399e-08
1.88962e-08
1.22917e-08
2.96966e-08
6.04814e-07
2.68732e-05
0.000424429
0.000296495
0.00113808
0.00106856
0.00121113
0.0011907
0.00192732
0.0019277
0.00260837
0.00266124
0.00242239
0.00252812
0.00294864
0.00309673
0.00341887
0.00359529
0.00384305
0.00405136
0.00417679
0.00444006
0.00434248
0.00463798
0.00430342
0.00464855
0.00397908
0.00452739
0.00324967
0.00412702
0.00322933
0.00115587
0.00307934
0.00285409
0.00207838
4.41256e-05
0.000631589
7.4329e-06
3.47454e-05
5.42048e-07
1.61753e-06
2.85356e-06
3.48256e-06
2.88333e-06
1.44061e-06
3.50305e-07
8.15639e-08
8.57117e-09
7.64649e-10
4.87102e-10
4.52424e-09
2.52961e-08
9.41623e-08
2.36145e-07
4.44131e-07
6.67719e-07
7.95118e-07
8.51995e-07
9.41197e-07
1.13702e-06
1.04508e-06
7.8485e-07
5.67269e-07
3.44444e-07
1.58544e-07
7.59181e-08
4.49046e-08
5.18352e-08
4.82089e-07
1.5295e-05
0.000433974
0.000941073
0.000904216
0.00182134
0.00173328
0.00191816
0.00188857
0.00267841
0.00267539
0.00335739
0.00338822
0.00321141
0.00329726
0.00374013
0.0038503
0.00421224
0.00434022
0.00463308
0.00477407
0.00482819
0.00496376
0.00483683
0.00494362
0.00477986
0.00488174
0.00464583
0.00480961
0.00420032
0.00471542
0.0044798
0.00366585
0.00416502
0.00263174
0.00156591
0.00242942
0.00346581
0.00405835
0.004086
0.00335405
0.00010805
0.000380903
0.00214907
0.00191455
0.0010826
9.92242e-05
0.000344443
0.00014655
0.000340929
4.75103e-07
2.05669e-06
4.05105e-06
4.97988e-06
4.14935e-06
1.44702e-06
3.47326e-07
5.79095e-08
5.32015e-09
1.28934e-09
8.82217e-09
5.92805e-08
2.40317e-07
6.47495e-07
1.24283e-06
1.86626e-06
2.37352e-06
2.56418e-06
2.63629e-06
2.79008e-06
2.84479e-06
2.58523e-06
1.87559e-06
1.09679e-06
5.70096e-07
2.92017e-07
1.72616e-07
1.39509e-07
4.7851e-07
8.57136e-06
0.000255428
0.00132825
0.00106292
0.00160419
0.00147799
0.00253894
0.0024392
0.00265939
0.00261819
0.00339034
0.00338172
0.00401043
0.00401163
0.00392919
0.00398273
0.00443667
0.00450159
0.00487964
0.00495697
0.00506894
0.00515575
0.00502674
0.00510235
0.00493141
0.0049566
0.00484616
0.00484636
0.00483489
0.00481231
0.00479256
0.00481163
0.00479339
0.00474689
0.00479883
0.00469559
0.00448245
0.00472923
0.0047951
0.00448631
0.00318157
0.00297898
0.0039479
0.00440571
0.00445857
0.00383204
0.000905534
0.002777
0.00261486
0.00174418
0.00121086
0.000415659
0.000920831
0.000991663
4.71831e-07
2.75936e-06
5.62679e-06
6.88099e-06
4.23588e-06
1.27768e-06
3.16317e-07
3.63368e-08
4.04746e-09
1.65889e-08
1.24077e-07
5.57333e-07
1.62128e-06
3.35125e-06
5.2846e-06
6.79435e-06
7.49862e-06
7.52986e-06
7.32065e-06
7.12208e-06
6.275e-06
4.796e-06
3.2889e-06
1.92895e-06
1.10653e-06
6.97354e-07
4.7553e-07
6.42151e-07
5.07467e-06
0.000133889
0.00117291
0.0019496
0.00187304
0.00229893
0.00216463
0.00320994
0.00310403
0.003355
0.00329674
0.00400286
0.00397661
0.00454888
0.00452604
0.00454005
0.00455574
0.00500399
0.00501976
0.00522426
0.00526511
0.00517296
0.00523936
0.00497715
0.0050014
0.00478773
0.00476448
0.00475241
0.00474518
0.00476357
0.0047217
0.00468503
0.00480987
0.00476721
0.00468707
0.00461713
0.00469238
0.00479497
0.00471159
0.00479492
0.00479389
0.00470599
0.00368637
0.00353426
0.0043354
0.00468828
0.0046613
0.00424646
0.00169261
0.00339976
0.00329734
0.00252734
0.00280894
0.00112123
0.00203229
0.00300673
0.00180589
0.00211472
5.23134e-07
3.70089e-06
7.70995e-06
8.37308e-06
3.68996e-06
8.75551e-07
2.36879e-07
1.69324e-08
2.85927e-08
2.3555e-07
1.15755e-06
3.67567e-06
8.17409e-06
1.37446e-05
1.84911e-05
2.10241e-05
2.13142e-05
2.01873e-05
1.8507e-05
1.59359e-05
1.23697e-05
8.39941e-06
5.91602e-06
3.68187e-06
2.26418e-06
1.44765e-06
1.24769e-06
3.62775e-06
6.15861e-05
0.000754904
0.00227188
0.00191919
0.00263582
0.00244454
0.00296674
0.00282056
0.00374309
0.00363403
0.00391962
0.00384112
0.00447163
0.00438363
0.0049002
0.00478277
0.00500987
0.00497664
0.00526909
0.00525206
0.00528874
0.00530195
0.00503219
0.00506484
0.00474251
0.00473997
0.00473911
0.00473593
0.00465831
0.00464073
0.00462919
0.0046192
0.00463371
0.00459668
0.00458063
0.00472974
0.00463801
0.00456252
0.00451546
0.00455586
0.0047809
0.00478931
0.00477025
0.00469585
0.00478725
0.00414425
0.00404227
0.0046231
0.00478472
0.0047838
0.0045753
0.00254883
0.00394812
0.00386909
0.00324795
0.00296453
0.00341952
0.00102083
0.00294208
0.00270997
7.05953e-07
5.50154e-06
9.93077e-06
8.05292e-06
2.32161e-06
6.06437e-07
8.48011e-08
4.85424e-08
4.03082e-07
2.16772e-06
7.44771e-06
1.80223e-05
3.25844e-05
4.69595e-05
5.60959e-05
5.87098e-05
5.60318e-05
5.04178e-05
4.29522e-05
3.37049e-05
2.22874e-05
1.56668e-05
1.01084e-05
6.89878e-06
4.81951e-06
3.54579e-06
4.50187e-06
2.89317e-05
0.000435429
0.00197667
0.00280431
0.00270226
0.00320187
0.00303871
0.00350502
0.00336871
0.0040698
0.00395981
0.00428351
0.00417874
0.0046514
0.00451256
0.0049322
0.0047396
0.00520214
0.0050927
0.00528211
0.00521679
0.00506717
0.0050348
0.00473309
0.00472615
0.00472031
0.00470597
0.00460798
0.00459353
0.00457588
0.00455346
0.00457632
0.00457413
0.00456784
0.00455251
0.00454216
0.00454396
0.00455554
0.00459082
0.00450931
0.0045133
0.00450373
0.00448736
0.004673
0.00476844
0.00466206
0.00455487
0.0047747
0.00452112
0.00446197
0.00478201
0.00478814
0.00480848
0.00477868
0.0032898
0.00439833
0.00433958
0.00383064
0.00344415
0.00361503
0.00365991
0.000953991
0.00295804
1.33024e-06
8.66884e-06
1.13907e-05
5.84023e-06
1.29784e-06
2.87535e-07
9.09744e-08
6.21623e-07
3.65917e-06
1.35923e-05
3.53923e-05
6.94262e-05
0.00010694
0.000138705
0.000155485
0.000153302
0.000138937
0.000117583
9.06581e-05
5.83258e-05
4.14502e-05
3.08448e-05
2.42511e-05
1.8201e-05
1.28978e-05
9.93817e-06
2.33896e-05
0.000233475
0.00144757
0.00295046
0.00261419
0.00328312
0.00311675
0.00359134
0.00345583
0.00384344
0.00372573
0.0041411
0.00404195
0.00437669
0.00425224
0.00453491
0.00434172
0.00456387
0.00427836
0.00506935
0.00483936
0.00493323
0.00472484
0.0045209
0.00436089
0.00452761
0.00449697
0.00446494
0.00442523
0.00452558
0.0044866
0.00444001
0.00438827
0.00456872
0.00457423
0.00456777
0.00454342
0.00453631
0.00457721
0.00462099
0.00447922
0.00446856
0.00456258
0.00461341
0.0045136
0.00453382
0.00466322
0.00452561
0.00446151
0.00467768
0.00477344
0.00476585
0.0048354
0.00470614
0.00474982
0.004868
0.00386128
0.00475253
0.00473245
0.0043096
0.00394663
0.00396772
0.00378013
0.00219557
0.00340639
3.55042e-06
1.17089e-05
1.05988e-05
3.51917e-06
9.9032e-07
1.65849e-07
8.67364e-07
5.56223e-06
2.2345e-05
6.22445e-05
0.000129257
0.00021157
0.000287077
0.000324344
0.000318689
0.000285785
0.000239512
0.000187598
0.000139946
0.000112818
0.000101976
9.40337e-05
7.48848e-05
5.18923e-05
3.44839e-05
2.88247e-05
0.000140972
0.000951863
0.00259776
0.00327035
0.00318329
0.00355465
0.00343829
0.00376544
0.00367101
0.00394777
0.0038586
0.00395462
0.00388478
0.00417832
0.00405084
0.00401946
0.00381469
0.00369346
0.00336734
0.00442439
0.0040651
0.00408731
0.00372267
0.00403084
0.00391201
0.00360484
0.00377841
0.00433087
0.00426802
0.00419938
0.00412053
0.00449967
0.00443595
0.00435195
0.00425999
0.00465412
0.00466405
0.0046486
0.00460198
0.00464328
0.0047269
0.00479737
0.00446032
0.00453522
0.00473811
0.00484261
0.0046728
0.00445347
0.00453017
0.0044527
0.00445834
0.004549
0.00490243
0.004943
0.00480779
0.00458508
0.00464256
0.00487997
0.00430976
0.00498196
0.00501511
0.00470767
0.00430079
0.00417581
0.00390486
0.00201853
0.0033317
9.69957e-06
1.31562e-05
7.45291e-06
2.04486e-06
4.08563e-07
1.07034e-06
7.62443e-06
3.31435e-05
9.79649e-05
0.000211588
0.000353449
0.00046761
0.00051497
0.000502128
0.000448285
0.000374818
0.000302587
0.000256187
0.000264558
0.000308442
0.000323695
0.000279273
0.000196636
0.000118099
5.81239e-05
0.000126532
0.000630284
0.00216821
0.00326014
0.00304314
0.00347318
0.00338672
0.00363493
0.00357254
0.00374153
0.00369369
0.00383313
0.00378846
0.00354123
0.00353231
0.00367184
0.00358641
0.00312631
0.00298465
0.00247888
0.00221235
0.00328909
0.00285905
0.0034126
0.00316584
0.00257737
0.00369665
0.00354296
0.0031758
0.00337144
0.0041614
0.00405786
0.00394845
0.00382969
0.00452485
0.00442211
0.00430105
0.0041638
0.0048377
0.00484119
0.00480193
0.00471654
0.00486575
0.00497944
0.00505974
0.00455568
0.00472739
0.00501784
0.00516369
0.00494094
0.00445923
0.00445782
0.0044591
0.00456914
0.00447199
0.00496151
0.00504471
0.00472508
0.00450047
0.0045493
0.00483008
0.00467033
0.00512297
0.00519719
0.00501526
0.00457447
0.00435803
0.00387229
0.000993421
0.00244452
1.34915e-05
1.18328e-05
4.264e-06
1.23105e-06
1.25049e-06
9.473e-06
4.46545e-05
0.000138656
0.000307552
0.000507358
0.000652303
0.000706877
0.000682501
0.00060666
0.000509451
0.000424442
0.000403024
0.000487959
0.000651378
0.000770961
0.00074771
0.000574521
0.000337936
0.000146344
0.000145956
0.00050471
0.00172851
0.00301275
0.00340739
0.00335673
0.00353091
0.00348618
0.00358885
0.00357079
0.00358427
0.00359323
0.00354124
0.00356208
0.00297654
0.00306086
0.00292398
0.00293341
0.00206901
0.00203586
0.00140178
0.0012453
0.00209068
0.00171193
0.00296836
0.0027525
0.0020778
0.00183797
0.00338849
0.00320034
0.00277729
0.00299687
0.00402021
0.00387339
0.00372214
0.00356201
0.00459163
0.00443364
0.00425766
0.00407232
0.00508628
0.00506626
0.00497754
0.00483235
0.00517702
0.00529876
0.00535577
0.00476733
0.00501962
0.00536925
0.00554
0.00528865
0.00456705
0.004459
0.00455163
0.0047792
0.00446671
0.00495903
0.00510471
0.00463309
0.00448878
0.00452594
0.00476047
0.00495255
0.0052297
0.00532961
0.00523463
0.00478593
0.00444392
0.00362699
0.000474755
0.00158942
1.41241e-05
7.60473e-06
2.28646e-06
1.46836e-06
1.0665e-05
5.46579e-05
0.000177109
0.000400477
0.000654379
0.000827931
0.00088117
0.000841848
0.000747111
0.000633709
0.000549939
0.000564833
0.000741744
0.00101939
0.00124717
0.00127073
0.00109148
0.00075256
0.000353489
0.000224636
0.000504462
0.00146055
0.00270935
0.00336183
0.00325724
0.00346248
0.00343185
0.00349726
0.00348951
0.00346206
0.00349428
0.00333409
0.00340603
0.00315483
0.00324862
0.00235543
0.00254357
0.00207564
0.00218567
0.00120293
0.0012278
0.000862348
0.000745938
0.00163138
0.00139641
0.00107808
0.00254829
0.00231366
0.00173995
0.00153965
0.00309727
0.00287805
0.00241459
0.00264989
0.00388461
0.00369674
0.00350558
0.00330688
0.00463908
0.00441907
0.004184
0.00394898
0.00535107
0.0052718
0.00511267
0.00488358
0.00553172
0.0056245
0.00563759
0.00506594
0.00537856
0.00574303
0.00592472
0.0056774
0.00476299
0.00452909
0.00472058
0.00506823
0.00451094
0.00493526
0.00513148
0.00459564
0.00451544
0.00454988
0.00472056
0.00517528
0.00531606
0.00544917
0.00539366
0.00493636
0.00441617
0.00307304
0.000162444
0.00100241
1.22305e-05
3.63053e-06
1.72028e-06
1.08315e-05
6.00338e-05
0.000206361
0.000478468
0.000785592
0.000978288
0.00102003
0.000967282
0.000862057
0.000743567
0.000674253
0.000739868
0.000987235
0.00137001
0.00164514
0.0017158
0.00159804
0.00128155
0.000794502
0.000417601
0.000574544
0.00142316
0.00249108
0.00322236
0.00340861
0.00337846
0.0034379
0.00343157
0.00340601
0.00343504
0.00327678
0.003353
0.00304933
0.00317542
0.00272787
0.0028989
0.00174858
0.00200655
0.00132901
0.00151446
0.000663987
0.000649061
0.000818675
0.000722128
0.00064748
0.00136434
0.00120575
0.000873343
0.000980581
0.00218031