/*--------------------------------*- C++ -*----------------------------------*\
  =========                 |
  \\      /  F ield         | OpenFOAM: The Open Source CFD Toolbox
   \\    /   O peration     | Website:  https://openfoam.org
    \\  /    A nd           | Version:  dev
     \\/     M anipulation  |
\*---------------------------------------------------------------------------*/
FoamFile
{
    version     2.0;
    format      ascii;
    class       volScalarField;
    location    "2500";
    object      k;
}
// * * * * * * * * * * * * * * * * * * * * * * * * * * * * * * * * * * * * * //

dimensions      [0 2 -2 0 0 0 0];

internalField   nonuniform List<scalar> 
9842
(
0.000167836
0.000172868
0.000156729
0.00014677
0.000215945
0.000125516
0.000121472
0.000228266
0.000190863
0.000112055
0.000112139
0.00021613
0.00022586
0.000146512
0.00010792
0.000106476
0.000185617
0.000244968
0.000192101
0.000124403
0.000105601
0.000103474
0.000151305
0.000245075
0.000228712
0.00014834
0.000115955
0.000104021
0.000101796
0.00013157
0.000233526
0.000244567
0.00018378
0.000126498
0.000111728
0.000102911
0.000100809
0.000119151
0.000204952
0.000255116
0.00022084
0.00014475
0.000117717
0.000108868
0.000102151
0.000100201
0.000111306
0.000169692
0.000252949
0.000244269
0.000172979
0.000125223
0.000113268
0.000106788
0.000101623
9.95702e-05
0.000106524
0.000143039
0.000240203
0.000254745
0.000208558
0.000139696
0.000116902
0.000110308
0.000105258
0.000101247
9.90494e-05
0.000103565
0.0001269
0.000212194
0.000261478
0.000237336
0.000163888
0.000123005
0.000112702
0.000108115
0.000104151
0.000100974
9.8697e-05
0.000101775
0.000116688
0.000176348
0.00025788
0.000254393
0.000195688
0.000134926
0.000115426
0.00010997
0.000106535
0.000103326
0.000100746
9.84546e-05
0.000100614
0.000110523
0.000147961
0.000243533
0.000263808
0.00022778
0.00015618
0.000120638
0.000111499
0.000108057
0.000105317
0.00010267
0.000100577
9.82848e-05
9.98093e-05
0.000106703
0.000130843
0.00021347
0.000267588
0.000251074
0.000183324
0.000131296
0.000113867
0.000109086
0.000106561
0.000104361
0.000102163
0.000100443
9.81593e-05
9.9221e-05
0.000104205
0.000119987
0.000177383
0.000261872
0.00026368
0.00021627
0.000148713
0.000118697
0.000110266
0.000107319
0.000105374
0.000103657
0.000101742
0.000100324
9.80672e-05
9.87906e-05
0.000102484
0.000113203
0.000149464
0.000244306
0.000272552
0.000244167
0.000174213
0.00012809
0.000112483
0.000107981
0.000105934
0.000104544
0.000103052
0.000101354
0.000100232
9.8003e-05
9.84693e-05
0.000101262
0.000108835
0.000132492
0.000211019
0.000272613
0.000263451
0.000203864
0.000143115
0.000117196
0.00010903
0.000106345
0.000104937
0.000103857
0.000102483
0.000101038
0.000100154
9.79955e-05
9.82025e-05
0.000100345
0.000105902
0.000121745
0.000175555
0.000264264
0.000272845
0.000235746
0.00016614
0.000125313
0.000111175
0.000106869
0.000105168
0.000104178
0.000103222
0.000102014
0.00010076
0.000100099
9.80283e-05
9.78876e-05
9.9583e-05
0.000103783
0.000115111
0.000149427
0.000242258
0.000280463
0.000259808
0.00019403
0.00013909
0.00011577
0.000107887
0.000105423
0.000104258
0.000103528
0.000102709
0.000101605
0.000100491
0.000100049
9.80672e-05
9.75244e-05
9.8899e-05
0.00010213
0.000110784
0.000133498
0.000206541
0.000278081
0.000275115
0.000226618
0.000159002
0.000123254
0.000110066
0.000105891
0.000104337
0.00010357
0.000103022
0.000102263
0.000101192
0.000100258
0.000100002
9.80923e-05
9.71807e-05
9.83208e-05
0.000100847
0.000107386
0.000123815
0.000171964
0.000265535
0.000285455
0.000255392
0.000186562
0.000135328
0.000114623
0.000106909
0.000104508
0.000103495
0.000103072
0.000102591
0.000101803
0.000100778
0.000100072
9.99135e-05
9.81083e-05
9.6854e-05
9.7785e-05
9.98471e-05
0.000104822
0.000117914
0.000148279
0.000236479
0.000288622
0.000276419
0.000216425
0.000153472
0.000121794
0.000109306
0.000104951
0.000103524
0.0001029
0.000102666
0.000102151
0.00010133
0.000100364
9.99084e-05
9.98305e-05
9.81262e-05
9.65532e-05
9.728e-05
9.89973e-05
0.000102909
0.000113607
0.000134115
0.000197652
0.000282184
0.000287393
0.000249701
0.000178962
0.000132101
0.000113973
0.00010608
0.000103697
0.000102721
0.000102536
0.000102269
0.000101689
0.000100859
0.000100015
9.96818e-05
9.97794e-05
9.81357e-05
9.62799e-05
9.68102e-05
9.8225e-05
0.000101415
0.00011003
0.000125692
0.000165555
0.000262711
0.000296507
0.000274595
0.000208613
0.000149125
0.000120359
0.000108764
0.000104229
0.000102769
0.000102083
0.000102208
0.000101862
0.000101212
0.000100367
9.9709e-05
9.9415e-05
9.97288e-05
9.81343e-05
9.60437e-05
9.63819e-05
9.75071e-05
0.00010018
0.000107016
0.000120306
0.000145826
0.000225787
0.000294936
0.000291224
0.000242877
0.000171892
0.000129949
0.000113482
0.00010556
0.000103012
0.000101997
0.000101746
0.000101863
0.000101425
0.000100698
9.98787e-05
9.93634e-05
9.91932e-05
9.96623e-05
9.81294e-05
9.58261e-05
9.5915e-05
9.68497e-05
9.90739e-05
0.000104625
0.000116263
0.000133792
0.000186954
0.000283268
0.000302444
0.000272342
0.000202218
0.00014468
0.000119158
0.000108751
0.000103686
0.00010209
0.000101418
0.000101558
0.000101481
0.000100922
0.000100169
9.94271e-05
9.8958e-05
9.90065e-05
9.96061e-05
9.81212e-05
9.56248e-05
9.54031e-05
9.62248e-05
9.80513e-05
0.000102714
0.00011269
0.000126581
0.000160011
0.000254844
0.000306502
0.000294158
0.000233862
0.000166456
0.000127921
0.000112838
0.000105386
0.000102433
0.000101439
0.000101055
0.000101342
0.000101038
0.000100375
9.96344e-05
9.89668e-05
9.8559e-05
9.88243e-05
9.9555e-05
9.81032e-05
9.54444e-05
9.49046e-05
9.56063e-05
9.71358e-05
0.000101029
0.000109411
0.000121812
0.000143526
0.000213788
0.000300377
0.00030567
0.000268878
0.000194537
0.000140907
0.000118446
0.000108504
0.000103299
0.000101621
0.000101004
0.000100829
0.000101013
0.000100537
9.97838e-05
9.90581e-05
9.84682e-05
9.81675e-05
9.86099e-05
9.95187e-05
9.80702e-05
9.53064e-05
9.44283e-05
9.49965e-05
9.62999e-05
9.94387e-05
0.000106459
0.000118007
0.000133355
0.000177948
0.000281342
0.000315975
0.000293691
0.000226446
0.000161241
0.000125747
0.000112591
0.000105319
0.000102116
0.000101103
0.000100702
0.000100681
0.000100611
9.99145e-05
9.91401e-05
9.84144e-05
9.79591e-05
9.7856e-05
9.83751e-05
9.94408e-05
9.80365e-05
9.52058e-05
9.40149e-05
9.4399e-05
9.54984e-05
9.80308e-05
0.00010397
0.000114209
0.000127148
0.000155693
0.000244147
0.000314738
0.0003112
0.000262174
0.000186992
0.000138015
0.000117335
0.000108487
0.000103236
0.000101416
0.000100773
0.000100539
0.000100515
0.000100129
9.92494e-05
9.8453e-05
9.77427e-05
9.74324e-05
9.76464e-05
9.83227e-05
9.93591e-05
9.80133e-05
9.50845e-05
9.36795e-05
9.37652e-05
9.47073e-05
9.68174e-05
0.00010185
0.000110227
0.00012301
0.0001418
0.00020226
0.000303532
0.00032299
0.000292675
0.000219381
0.000155629
0.000124346
0.000112193
0.000105562
0.000102111
0.000101017
0.000100606
0.000100501
0.000100291
9.94651e-05
9.85665e-05
9.7766e-05
9.70949e-05
9.69137e-05
9.73944e-05
9.83151e-05
9.94504e-05
9.79973e-05
9.49389e-05
9.34088e-05
9.31312e-05
9.39349e-05
9.56876e-05
9.98439e-05
0.000106799
0.000119023
0.000133272
0.000171644
0.000275667
0.000329307
0.00031514
0.000253176
0.000180606
0.000134855
0.000116724
0.000108577
0.00010364
0.000101535
0.000100839
0.000100592
0.00010046
9.9906e-05
9.88264e-05
9.79067e-05
9.7116e-05
9.6478e-05
9.63374e-05
9.69903e-05
9.81375e-05
9.94549e-05
9.79821e-05
9.48075e-05
9.31656e-05
9.25613e-05
9.31775e-05
9.46272e-05
9.79211e-05
0.000104107
0.000114276
0.000128065
0.000152554
0.000233461
0.000323887
0.000328338
0.000290315
0.000210938
0.000151054
0.000122964
0.000112016
0.00010603
0.000102606
0.000101291
0.000100862
0.000100694
0.000100437
9.93847e-05
9.82371e-05
9.72832e-05
9.65041e-05
9.60257e-05
9.6122e-05
9.68803e-05
9.81848e-05
9.97519e-05
9.93687e-05
9.79647e-05
9.47028e-05
9.29264e-05
9.20956e-05
9.2464e-05
9.36168e-05
9.61659e-05
0.000101641
0.000109897
0.00012365
0.000140908
0.000192526
0.000306008
0.000341203
0.000316086
0.000245661
0.000174078
0.000132192
0.000116307
0.000108806
0.000104458
0.000102145
0.000101352
0.00010109
0.000100939
0.000100288
9.89801e-05
9.77477e-05
9.67351e-05
9.61244e-05
9.61103e-05
9.66988e-05
9.75418e-05
9.9033e-05
9.8621e-05
9.98188e-05
9.96163e-05
9.79482e-05
9.46092e-05
9.26839e-05
9.1692e-05
9.17696e-05
9.27181e-05
9.47061e-05
9.91269e-05
0.000106538
0.000118391
0.000133475
0.000167114
0.000268441
0.000340929
0.000336426
0.000283353
0.000203213
0.000146924
0.000121617
0.000112138
0.000106688
0.000103508
0.000102166
0.000101679
0.000101646
0.000101312
0.000100072
9.85056e-05
9.73926e-05
9.65586e-05
9.6399e-05
9.69049e-05
9.73978e-05
9.74626e-05
9.84099e-05
9.76407e-05
9.84336e-05
9.94072e-05
9.91495e-05
9.99216e-05
9.99187e-05
9.79331e-05
9.4506e-05
9.24332e-05
9.13288e-05
9.11288e-05
9.19151e-05
9.34865e-05
9.68078e-05
0.000103581
0.000112991
0.000127677
0.000151204
0.000223977
0.000330819
0.000349147
0.000317202
0.000237862
0.000168046
0.000130093
0.000115748
0.000109374
0.000105425
0.000103445
0.000102479
0.000102402
0.00010227
0.000101664
0.000100105
9.84734e-05
9.76388e-05
9.73321e-05
9.76316e-05
9.76667e-05
9.8165e-05
9.78468e-05
9.91607e-05
9.86164e-05
9.92573e-05
9.99445e-05
9.99988e-05
0.000100065
0.000100402
9.79194e-05
9.43913e-05
9.21763e-05
9.098e-05
9.05476e-05
9.11831e-05
9.24614e-05
9.49941e-05
0.000100794
0.000108653
0.000121722
0.000140631
0.000188027
0.000304372
0.000358725
0.000340862
0.000275405
0.000195909
0.000143217
0.00012078
0.000112269
0.000107746
0.000105019
0.000103683
0.000103303
0.000103556
0.000103254
0.000102122
0.000100391
9.92962e-05
9.92064e-05
9.94464e-05
9.88438e-05
0.00010015
9.83073e-05
9.91617e-05
9.90037e-05
0.000100097
9.95418e-05
0.000100275
0.000100738
0.000100941
0.000100226
0.00010084
9.79028e-05
9.42627e-05
9.19077e-05
9.06283e-05
9.00319e-05
9.05031e-05
9.15629e-05
9.36103e-05
9.829e-05
0.000105173
0.000115434
0.000132436
0.0001665
0.000263193
0.000354754
0.000357597
0.000314361
0.000229658
0.000162666
0.000128095
0.000115728
0.000110165
0.000107019
0.000105195
0.000104465
0.000104663
0.000104808
0.000104189
0.000102867
0.000101579
0.000101492
0.000102307
0.000101369
0.000103216
0.000100525
0.000102117
9.97764e-05
0.000101058
0.000100076
0.00010107
0.000100595
0.000101251
0.000101364
0.000101659
0.000100321
0.000101176
9.78833e-05
9.41153e-05
9.1627e-05
9.02755e-05
8.95623e-05
8.98523e-05
9.07594e-05
9.24501e-05
9.62085e-05
0.000102175
0.000110005
0.000124979
0.000151436
0.000222931
0.000339348
0.000371287
0.000343961
0.000266658
0.000188991
0.000139789
0.000120088
0.000112981
0.000109204
0.000107115
0.000105918
0.000106033
0.000106437
0.000106666
0.000105883
0.000104739
0.00010447
0.00010551
0.000104786
0.000106796
0.0001039
0.000105943
0.000102886
0.000104772
0.000101157
0.000102838
0.000101208
0.000101824
0.000101593
0.000102051
0.00010191
0.000102291
0.000100425
0.000101517
9.78595e-05
9.39427e-05
9.13349e-05
8.99164e-05
8.91247e-05
8.92714e-05
9.00408e-05
9.14409e-05
9.4516e-05
9.96376e-05
0.000105782
0.000117935
0.000139673
0.000190688
0.000306875
0.00037733
0.00036596
0.000307534
0.00022053
0.00015778
0.000126862
0.000115956
0.000111656
0.000109232
0.000107773
0.000107586
0.000108408
0.000109172
0.000109369
0.000108124
0.000107463
0.000108115
0.000108314
0.000110166
0.00010777
0.000110072
0.000107161
0.000109366
0.000105107
0.000107432
0.000102573
0.000104675
0.00010231
0.000102488
0.000102477
0.000102765
0.000102435
0.000102869
0.000100541
0.000101878
9.78281e-05
9.37606e-05
9.10438e-05
8.95507e-05
8.87224e-05
8.87715e-05
8.94049e-05
9.0577e-05
9.30979e-05
9.76096e-05
0.000102463
0.000111779
0.000129965
0.000168922
0.00026995
0.000370998
0.000382039
0.00034465
0.000258175
0.000181736
0.000137486
0.000120054
0.000114158
0.000111674
0.000109748
0.000109509
0.000110302
0.00011161
0.000112564
0.000111536
0.000110427
0.00011075
0.000111654
0.000113182
0.000111579
0.000113887
0.000111728
0.000114092
0.000110321
0.000112849
0.000107503
0.000110425
0.000104043
0.000106683
0.000103397
0.000103099
0.000103322
0.000103444
0.000102938
0.000103388
0.000100663
0.000102262
9.77749e-05
9.36246e-05
9.08056e-05
8.92175e-05
8.83982e-05
8.83768e-05
8.88739e-05
8.98583e-05
9.19144e-05
9.60203e-05
9.98626e-05
0.000107064
0.000122209
0.000152642
0.000232694
0.000353444
0.000395825
0.000371941
0.000298496
0.000212794
0.000153183
0.000126151
0.000117255
0.000114033
0.000112187
0.000111231
0.00011197
0.0001139
0.000115316
0.00011467
0.00011362
0.000113705
0.000114533
0.000115928
0.000115175
0.000117323
0.00011591
0.000118475
0.000115631
0.000118288
0.000113693
0.00011691
0.000110259
0.000113857
0.000105617
0.000109395
0.000104644
0.000103664
0.000104199
0.000104115
0.000103391
0.000103865
0.000100806
0.000102571
9.7734e-05
9.36587e-05
9.07851e-05
8.90971e-05
8.82775e-05
8.81516e-05
8.84834e-05
8.9306e-05
9.10209e-05
9.47709e-05
9.78752e-05
0.000103543
0.000115962
0.000140655
0.00020101
0.000322879
0.000400324
0.000392776
0.00034055
0.000249103
0.000176105
0.000135561
0.000121117
0.000116924
0.000114462
0.00011359
0.00011379
0.000116276
0.000117857
0.000117951
0.000117272
0.000117119
0.000117515
0.000118977
0.000118613
0.000121246
0.000120513
0.000124522
0.000121372
0.000126428
0.000120337
0.000126384
0.000117421
0.000123866
0.000112808
0.000118219
0.000107631
0.000111275
0.000105843
0.000104205
0.000105138
0.000104916
0.000103765
0.000104299
0.000100914
0.000102703
9.79903e-05
9.44735e-05
9.15435e-05
8.95596e-05
8.85163e-05
8.81869e-05
8.83198e-05
8.89713e-05
9.04274e-05
9.38351e-05
9.64135e-05
0.000100855
0.000111076
0.000132049
0.000177931
0.000289155
0.000393845
0.000410044
0.000375395
0.000290658
0.000205797
0.000150083
0.000127015
0.000120101
0.000117317
0.000115748
0.000116375
0.000118515
0.000120672
0.000122004
0.000121107
0.00012099
0.00012189
0.000120698
0.000123428
0.000127907
0.000128691
0.000137347
0.000134735
0.000151786
0.000138806
0.000165653
0.00013812
0.000172432
0.000130534
0.000162894
0.000119086
0.000140744
0.000109497
0.000119344
0.000108011
0.000104921
0.000107084
0.000106558
0.00010407
0.000104833
0.00010095
0.000102733
9.90019e-05
9.68587e-05
9.39378e-05
9.13083e-05
8.94888e-05
8.85981e-05
8.84591e-05
8.89502e-05
9.02205e-05
9.33268e-05
9.54131e-05
9.88706e-05
0.000107419
0.000125884
0.000163356
0.000257556
0.000377154
0.000425259
0.000402346
0.00033466
0.000241953
0.000171627
0.000136134
0.000124545
0.000120469
0.000118422
0.000118433
0.000120376
0.000123947
0.000125932
0.000125206
0.00012582
0.000135607
0.000131672
0.000140993
0.000150102
0.000169885
0.000180575
0.000242582
0.000223377
0.000343458
0.00025402
0.000446544
0.000250648
0.000477491
0.000208072
0.000401031
0.00015364
0.000272861
0.000118735
0.000165492
0.000117193
0.000106214
0.000115081
0.000112441
0.000104262
0.000105573
0.00010078
0.000102531
0.000100764
0.000100959
9.84588e-05
9.50391e-05
9.19765e-05
8.99431e-05
8.91631e-05
8.93131e-05
9.03911e-05
9.33274e-05
9.49577e-05
9.7528e-05
0.000104681
0.000121361
0.000154683
0.000231963
0.000353531
0.000429825
0.000423919
0.000376497
0.000283038
0.00020025
0.00015078
0.000131361
0.000124602
0.000122021
0.000121152
0.00012278
0.00012672
0.000129161
0.000129678
0.000130105
0.000145345
0.00026514
0.000307392
0.000197501
0.000228536
0.000336584
0.000485894
0.000585747
0.000983323
0.000882908
0.00158115
0.00100768
0.0019875
0.000889006
0.00198225
0.00063363
0.00151181
0.000347671
0.000908903
0.000172939
0.00041398
0.00017166
0.000109752
0.000161772
0.00014502
0.000104169
0.000107334
0.00010037
0.000102098
0.000104896
0.000111589
0.000110624
0.000105085
9.92289e-05
9.40488e-05
9.12821e-05
9.05241e-05
9.11204e-05
9.38407e-05
9.49708e-05
9.69096e-05
0.000102757
0.000118209
0.000149854
0.000217091
0.000331481
0.00042592
0.000445639
0.000410387
0.000326906
0.000235225
0.000172154
0.000142068
0.000131003
0.000126047
0.000125248
0.000125937
0.000129685
0.000131994
0.000134174
0.000134965
0.000146633
0.000338685
0.000363398
0.00111351
0.0013358
0.0006781
0.00089559
0.00146869
0.00206882
0.00241927
0.00331625
0.0031434
0.00428669
0.00341869
0.0048201
0.0031707
0.00486635
0.00228462
0.00431803
0.0011795
0.00302856
0.000454692
0.00139318
0.000451582
0.000127554
0.000403372
0.00032033
0.000104862
0.000114956
0.000100204
0.000102629
0.000111885
0.000136292
0.000143362
0.000135763
0.000121286
0.000106528
9.72592e-05
9.36531e-05
9.29234e-05
9.52154e-05
9.55724e-05
9.68994e-05
0.000101855
0.000116361
0.000147822
0.000212018
0.000317895
0.000418098
0.000461601
0.000440587
0.00037439
0.000278115
0.000202064
0.000158701
0.000140322
0.000132109
0.00012982
0.000129977
0.000132261
0.000134785
0.000138268
0.000139819
0.000162511
0.000362421
0.000232202
0.00150101
0.00160316
0.00380064
0.00425831
0.00268832
0.00327483
0.00418952
0.00502747
0.00531658
0.00619194
0.00602212
0.00694941
0.00630536
0.00738376
0.00613208
0.00751376
0.00534317
0.00720685
0.00366234
0.00621685
0.00150993
0.00410538
0.00149158
0.000228933
0.0013253
0.00103472
0.000109583
0.000158782
0.000102062
0.000107916
0.000112651
0.000162663
0.000194378
0.000200068
0.000177825
0.000143368
0.000115246
0.000102232
9.71379e-05
9.78276e-05
9.72209e-05
9.75423e-05
0.000101921
0.000116081
0.000148468
0.000212763
0.000314553
0.000415394
0.000473843
0.000471857
0.000421209
0.000329673
0.000243363
0.000186227
0.000155261
0.000141215
0.000135672
0.000134916
0.000134889
0.000137346
0.000141192
0.000144113
0.000164666
0.000893288
0.00160978
0.00175192
0.00462238
0.0048664
0.00687708
0.00728784
0.00576159
0.0063701
0.0069108
0.00748104
0.00762374
0.00807972
0.00811816
0.00856537
0.00845632
0.00902932
0.0085518
0.00943828
0.00818267
0.0095784
0.00697136
0.00913062
0.00431963
0.00759567
0.00423337
0.000696567
0.00380483
0.00307641
0.00012736
0.000380277
0.000103565
0.000112181
0.000145544
0.000210601
0.000252618
0.000260143
0.000225103
0.000167133
0.000127521
0.000107865
0.000103105
0.000100266
9.93829e-05
0.000102969
0.000117366
0.000152499
0.000220046
0.000318783
0.000419648
0.000486873
0.000499353
0.00046594
0.000389288
0.000299555
0.000228883
0.000183566
0.000156845
0.00014604
0.000142973
0.000139721
0.00014045
0.000143183
0.000147195
0.000165148
0.000572973
0.0048654
0.00458595
0.00497464
0.00498391
0.00762804
0.00789029
0.00851553
0.00874912
0.00791223
0.00824258
0.00838788
0.00859153
0.00880877
0.00892982
0.00933839
0.00948887
0.00998317
0.0102784
0.0105334
0.0111431
0.0106804
0.011798
0.0100714
0.0118372
0.00802283
0.0108995
0.00821793
0.00224675
0.00803871
0.00721371
0.000183413
0.00122017
0.000104426
0.000141091
0.00016033
0.00024134
0.000299678
0.000313364
0.000270253
0.000194604
0.000137133
0.000114795
0.000105954
0.000102661
0.000105648
0.000121081
0.000160888
0.000238465
0.000338055
0.000437015
0.000508049
0.000533787
0.000519821
0.000460595
0.000375212
0.000291847
0.000229233
0.000188528
0.000167216
0.000159448
0.000150108
0.00014613
0.000145729
0.00014909
0.000164507
0.000482938
0.00418457
0.00321244
0.00828332
0.00825852
0.00810361
0.00824499
0.00896606
0.00917081
0.00895194
0.00905649
0.00873626
0.00884968
0.00899333
0.00901699
0.00954617
0.00956476
0.0104069
0.0104404
0.0115157
0.0116934
0.0126312
0.0132064
0.0132441
0.0144925
0.0130052
0.0147299
0.0115277
0.0140232
0.011863
0.00574658
0.0118514
0.0115541
0.00906114
0.000554123
0.00401081
0.000229285
0.000796801
0.000157984
0.000252172
0.000333927
0.00035921
0.000310542
0.000209418
0.000142657
0.00011768
0.000108254
0.000109966
0.000127662
0.000174952
0.000266782
0.00037699
0.000476088
0.000549649
0.000590168
0.000595365
0.000553871
0.000472537
0.000379478
0.000298128
0.000243348
0.000213957
0.000199382
0.000176733
0.000157735
0.000150841
0.000151507
0.000163686
0.000380219
0.0046756
0.00801282
0.00834183
0.00973082
0.00987735
0.00937771
0.00956223
0.00917565
0.00931168
0.00918223
0.00927112
0.00904861
0.00910885
0.00957723
0.00959838
0.0104325
0.0104238
0.0117359
0.0117359
0.0136259
0.0138853
0.0155876
0.0164521
0.0166419
0.018497
0.0161793
0.0187703
0.0146989
0.017294
0.0159052
0.0135115
0.015011
0.0111215
0.00796835
0.0109354
0.0134063
0.01513
0.0149975
0.0133283
0.00137301
0.00301055
0.0103915
0.0098769
0.00657119
0.00145078
0.0032496
0.00258791
0.00365892
0.000143265
0.000250731
0.000363206
0.000400303
0.000337404
0.000207544
0.000142737
0.000119006
0.000116494
0.000137036
0.000195835
0.000308084
0.000434056
0.000540792
0.000620706
0.000671614
0.000687434
0.000658733
0.000584256
0.000487739
0.00039229
0.000316807
0.000270998
0.00024881
0.000219937
0.000186059
0.000162308
0.000156537
0.000164335
0.000302119
0.003094
0.00979749
0.00918762
0.00996004
0.00996849
0.00981818
0.0100091
0.00947677
0.00964216
0.00937729
0.00949313
0.00986818
0.0100258
0.00964994
0.00974051
0.0104362
0.0104921
0.0117467
0.0117833
0.0140134
0.0140533
0.0171129
0.0175129
0.0200048
0.0208454
0.0196448
0.0208319
0.0216951
0.0224268
0.0186511
0.0202569
0.02189
0.0228495
0.0215292
0.0176891
0.0163675
0.0180234
0.0192821
0.0165305
0.0132065
0.0129986
0.0150551
0.0165816
0.0166057
0.0150079
0.00609693
0.0127162
0.0123562
0.00947885
0.0123788
0.00641976
0.00641796
0.00747657
0.000133725
0.000252881
0.000399178
0.000442844
0.000335871
0.000198923
0.000140478
0.000127061
0.000149756
0.000223964
0.000365047
0.000514698
0.000637247
0.000728363
0.00078342
0.000797578
0.000768331
0.000701533
0.000608723
0.000504077
0.000408395
0.000337391
0.000296407
0.000260889
0.000224967
0.000190181
0.00016894
0.000169162
0.000251564
0.00193901
0.00965287
0.0105154
0.0108162
0.0101941
0.0104148
0.00977365
0.00988233
0.00962515
0.00968883
0.0102056
0.01038
0.0111274
0.0114422
0.0106365
0.0108534
0.0118783
0.0120571
0.014093
0.0141844
0.0176454
0.0176235
0.0209179
0.0206589
0.0226299
0.0226672
0.022504
0.0222058
0.0228567
0.0233391
0.0234441
0.0208656
0.022267
0.0235589
0.0238773
0.0233133
0.0196441
0.0181202
0.0197966
0.0212696
0.018175
0.0149217
0.0147736
0.01651
0.0181078
0.0179536
0.0164051
0.00933028
0.0145248
0.014145
0.012058
0.0163877
0.0104448
0.0230792
0.0287474
0.00977133
0.0113489
0.000129498
0.00027649
0.000459504
0.000466043
0.000317606
0.00017962
0.000146317
0.000166357
0.000260261
0.000438921
0.0006234
0.000773517
0.00088468
0.00094642
0.000957177
0.000926705
0.000864886
0.000773553
0.000661388
0.000547425
0.000449345
0.000378582
0.000324573
0.000275839
0.00023328
0.000198959
0.000184919
0.000234749
0.00111714
0.00830821
0.0106229
0.0106026
0.0103339
0.010561
0.0100289
0.0101914
0.0106574
0.0106412
0.0105415
0.0106425
0.0117706
0.012058
0.0131899
0.0136641
0.0123525
0.0127378
0.0143586
0.0146623
0.0175416
0.0175592
0.0202442
0.0199233
0.0218329
0.0214726
0.0210414
0.0206948
0.0232905
0.0229905
0.0225629
0.0220274
0.0238743
0.0238592
0.0236088
0.0226689
0.0235917
0.0240634
0.0241055
0.0240181
0.021431
0.0198237
0.0214258
0.0228138
0.0197074
0.0162534
0.0160064
0.0177475
0.0194693
0.0191479
0.0174831
0.0119344
0.0156156
0.0150452
0.0137041
0.0137892
0.0168281
0.0102649
0.0238716
0.0123007
0.000134775
0.000349413
0.000539849
0.000455583
0.000261319
0.000182976
0.000189126
0.000304192
0.000531138
0.000763778
0.000959428
0.00111198
0.00120662
0.00125231
0.00124205
0.00118529
0.00109234
0.000971278
0.00083254
0.000689383
0.000565024
0.000469489
0.000387776
0.000317325
0.000262379
0.000227324
0.000244282
0.000686289
0.00542403
0.0104592
0.0104412
0.0104682
0.0104454
0.0104233
0.0105956
0.0105285
0.0124303
0.0123769
0.0122922
0.0124304
0.0140878
0.014418
0.0160926
0.0165033
0.0150976
0.0155904
0.0176611
0.0178315
0.0195493
0.0193408
0.0203112
0.0200175
0.0197576
0.0196399
0.0214583
0.0208816
0.0203485
0.0198795
0.0231401
0.0225223
0.0218318
0.0211175
0.0239819
0.0236063
0.0230263
0.0236657
0.0240201
0.0238912
0.0236846
0.0240108
0.0227731
0.0212675
0.0225801
0.023592
0.0209791
0.0171412
0.0166774
0.0187388
0.0205754
0.0200708
0.0182484
0.0133628
0.0160551
0.0152514
0.0143666
0.0135081
0.0142802
0.0160613
0.00832743
0.0211743
0.000165998
0.000505453
0.000571506
0.000409739
0.000234654
0.000225897
0.000354497
0.00064055
0.000938205
0.00120533
0.00144179
0.00163932
0.00179828
0.00189379
0.00189485
0.00181821
0.00169468
0.00152629
0.00130635
0.00108531
0.00089663
0.00073376
0.00057917
0.000440268
0.000340576
0.000302353
0.000552312
0.00321551
0.0100501
0.0106895
0.0104611
0.011044
0.0107993
0.0116395
0.0113189
0.0122319
0.0119815
0.0147479
0.0146712
0.0146492
0.0147657
0.0167834
0.0169605
0.0181866
0.0181798
0.0180216
0.0181595
0.0192023
0.0190338
0.0190856
0.0186917
0.0194861
0.0191546
0.018902
0.0187252
0.0204165
0.019757
0.0191708
0.0186782
0.0223203
0.0215607
0.0207916
0.0200321
0.0234283
0.0228446
0.0221802
0.0238859
0.0238084
0.0232096
0.0229925
0.0234333
0.0233804
0.022265
0.0230729
0.0236549
0.0218321
0.0176562
0.0169461
0.0194577
0.0212845
0.020635
0.0187394
0.0137719
0.0160694
0.0150985
0.0143781
0.0137095
0.0141365
0.0159638
0.017832
0.0217435
0.000282261
0.000662789
0.000544218
0.000320784
0.000270972
0.000411728
0.000762861
0.00114489
0.00151614
0.00189937
0.00230274
0.002717
0.00305395
0.00322947
0.00325492
0.00319784
0.00306375
0.00282435
0.00252511
0.00227215
0.00199076
0.00160319
0.00114475
0.000771281
0.000523289
0.000582173
0.00211704
0.00889808
0.0104723
0.0117059
0.0113319
0.0128401
0.0122404
0.0138583
0.0133919
0.0145074
0.0142352
0.0170233
0.0169316
0.0170489
0.0170648
0.0181663
0.0181765
0.0180961
0.0176803
0.0188235
0.0185052
0.0181594
0.0173387
0.0171114
0.01679
0.0159
0.0163984
0.0182843
0.0179702
0.0176958
0.0174089
0.0192998
0.0186166
0.0180116
0.0175039
0.0214929
0.0208021
0.0200887
0.0193438
0.0227024
0.0221943
0.0216941
0.0235342
0.0231675
0.0225958
0.0224796
0.0227805
0.0233358
0.0226681
0.0229403
0.0232295
0.0221607
0.0179104
0.0169414
0.0198774
0.0215545
0.0208267
0.0189859
0.0136872
0.0158753
0.0148101
0.0141564
0.0136738
0.0143408
0.0166786
0.0217681
0.0231516
0.000630196
0.000676096
0.000446753
0.000339748
0.00046971
0.000890157
0.0013763
0.00188467
0.00248049
0.00319582
0.00394829
0.00453625
0.00483692
0.00493368
0.00493176
0.00491067
0.00492256
0.00515528
0.005566
0.00582125
0.00525053
0.00381745
0.002349
0.00130632
0.000849093
0.00182213
0.00709879
0.00969969
0.0126561
0.0118241
0.0140723
0.013383
0.0154065
0.0148039
0.0162998
0.015919
0.0167911
0.0165908
0.0184097
0.0185415
0.0181929
0.0182689
0.017446
0.0174403
0.0140866
0.0133947
0.0162936
0.0151351
0.015328
0.0145708
0.0123858
0.0156591
0.0151988
0.0140104
0.0146589
0.0170936
0.0167564
0.0164241
0.0160596
0.0185912
0.0178611
0.0172022
0.0166425
0.0211473
0.0205195
0.0198364
0.019084
0.0222549
0.0219512
0.0215939
0.022892
0.0225533
0.0222656
0.0222008
0.0223221
0.0228888
0.0224862
0.022489
0.0225967
0.0219659
0.0179405
0.0167731
0.0199804
0.0213639
0.0206541
0.0189639
0.0136297
0.0155898
0.0146165
0.0139904
0.0138632
0.0151517
0.0181578
0.0158394
0.0208285
0.000827123
0.000607918
0.000426794
0.000526853
0.00101017
0.00162097
0.00229002
0.00314854
0.00423914
0.00533924
0.00608736
0.00643094
0.00653703
0.00657798
0.00669026
0.00709596
0.00801308
0.00962955
0.0108287
0.0105493
0.00904098
0.00651593
0.00375401
0.00180451
0.00196315
0.00580237
0.00853747
0.0124269
0.015615
0.0151702
0.0170098
0.0164313
0.01798
0.0175666
0.0184809
0.0182932
0.0185935
0.0185679
0.0186356
0.0191492
0.01763
0.018099
0.0132621
0.0135826
0.00753851
0.00704218
0.0103737
0.00873889
0.0132959
0.0126658
0.00932046
0.00823382
0.0143241
0.0137114
0.0121968
0.0130062
0.0161751
0.0157653
0.0153355
0.0148611
0.0182949
0.0174996
0.0167623
0.0161241
0.0211568
0.020605
0.0199384
0.0191359
0.0221212
0.0219954
0.0218191
0.0222978
0.0221136
0.0221572
0.0220218
0.0220377
0.0222701
0.0220342
0.0218956
0.022009
0.0215076
0.0177791
0.0164792
0.0197908
0.0209117
0.0201846
0.0186958
0.0137652
0.0153827
0.0146018
0.0140129
0.0143388
0.0164043
0.0198884
0.0074464
0.0170721
0.000821966
0.00052029
0.000581709
0.00111368
0.00185485
0.00271088
0.00384594
0.00533656
0.00675203
0.00754787
0.00779106
0.00786029
0.00792475
0.00821538
0.00901809
0.0107491
0.013021
0.0141786
0.0139647
0.0126189
0.0103394
0.00736105
0.00439151
0.00277591
0.00535145
0.00750518
0.011252
0.0178554
0.0167214
0.0189796
0.0185138
0.0198001
0.0194617
0.0201763
0.0200599
0.0201376
0.0202112
0.0195751
0.0199216
0.0170663
0.0183411
0.0144684
0.0157192
0.00714246
0.00800957
0.00413674
0.00372818
0.00730814
0.00626691
0.00502313
0.0113058
0.0103503
0.00770435
0.00681355
0.0131665
0.012392
0.010601
0.0115344
0.015573
0.0150474
0.0144835
0.0138627
0.0182545
0.0173577
0.016526
0.0158071
0.0214892
0.020951
0.0202356
0.0193318
0.0221492
0.0221531
0.0220878
0.0218265
0.021749
0.0220775
0.0217498
0.0217276
0.0216831
0.0214609
0.0213132
0.0215018
0.0209445
0.0173786
0.016219
0.019273
0.020294
0.0194807
0.0180995
0.0140992
0.0153369
0.0147195
0.0142098
0.0151825
0.0178931
0.0195436
0.00227933
0.0113873
0.000741494
0.000653592
0.00116167
0.00208358
0.003097
0.0045384
0.00639664
0.00810174
0.00878737
0.00885213
0.00881118
0.00893153
0.00935479
0.0105848
0.0127936
0.0149792
0.0158251
0.0152017
0.0134148
0.0113487
0.00914563
0.00662224
0.00459251
0.00543984
0.00714259
0.0105409
0.0180308
0.0212966
0.0213735
0.0218716
0.0216794
0.0220557
0.0220103
0.02183
0.0220195
0.021032
0.0215139
0.0194509
0.0203417
0.0136903
0.0158266
0.00961002
0.0115374
0.00346857
0.00371273
0.00392596
0.00353225
0.00317335
0.0060356
0.00541176
0.00428857
0.00478692
0.00962814
0.00865672
0.00690987
0.00628997
0.0121764
0.0112767
0.00938917
0.0103378
0.0151652
0.0145008
0.0137889
0.0130183
0.0183117
0.0172695
0.0163195
0.0155045
0.0217754
0.0212215
0.0204456
0.0194509
0.0221717
0.0222314
0.0221879
0.0213774
0.0212957
0.0218356
0.0212353
0.0212466
0.0211454
0.0208893
0.0207673
0.0209841
0.0202952
0.0169932
0.0161024
0.0184878
0.0195176
0.0186183
0.0175733
0.0146575
0.0154176
0.0150019
0.0146201
0.0164487
0.0192838
0.0181803
0.00121053
0.00666092
0.000807746
0.00124874
0.0022059
0.00347543
0.00513069
0.0074142
0.00928632
0.00981366
0.00963117
0.00947553
0.00957351
0.0102392
0.0116505
0.0140096
0.0155243
0.0159181
0.01485
0.0128369
0.0109864
0.00956665
0.00785745
0.00591462
0.00590032
0.00725412
0.0105498
0.0176633
0.0236067
0.0230871
0.0239728