/*--------------------------------*- C++ -*----------------------------------*\
  =========                 |
  \\      /  F ield         | OpenFOAM: The Open Source CFD Toolbox
   \\    /   O peration     | Website:  https://openfoam.org
    \\  /    A nd           | Version:  dev
     \\/     M anipulation  |
\*---------------------------------------------------------------------------*/
FoamFile
{
    version     2.0;
    format      ascii;
    class       volScalarField;
    location    "2500";
    object      N2;
}
// * * * * * * * * * * * * * * * * * * * * * * * * * * * * * * * * * * * * * //

dimensions      [0 0 0 0 0 0 0];

internalField   nonuniform List<scalar> 
9842
(
0.76699
0.76699
0.76699
0.76699
0.76699
0.76699
0.76699
0.76699
0.76699
0.76699
0.76699
0.76699
0.76699
0.76699
0.76699
0.76699
0.76699
0.76699
0.76699
0.76699
0.76699
0.76699
0.76699
0.76699
0.76699
0.76699
0.76699
0.76699
0.76699
0.76699
0.76699
0.76699
0.76699
0.76699
0.76699
0.76699
0.76699
0.76699
0.76699
0.76699
0.76699
0.76699
0.76699
0.76699
0.76699
0.76699
0.76699
0.76699
0.76699
0.76699
0.76699
0.76699
0.76699
0.76699
0.76699
0.76699
0.76699
0.76699
0.76699
0.76699
0.76699
0.76699
0.76699
0.76699
0.76699
0.76699
0.76699
0.76699
0.76699
0.76699
0.76699
0.76699
0.76699
0.76699
0.76699
0.76699
0.76699
0.76699
0.76699
0.76699
0.76699
0.76699
0.76699
0.76699
0.76699
0.76699
0.76699
0.76699
0.76699
0.76699
0.76699
0.76699
0.76699
0.76699
0.76699
0.76699
0.76699
0.76699
0.76699
0.76699
0.76699
0.76699
0.76699
0.76699
0.76699
0.76699
0.76699
0.76699
0.76699
0.76699
0.76699
0.76699
0.76699
0.76699
0.76699
0.76699
0.76699
0.76699
0.76699
0.76699
0.76699
0.76699
0.76699
0.76699
0.76699
0.76699
0.76699
0.76699
0.76699
0.76699
0.76699
0.76699
0.76699
0.76699
0.76699
0.76699
0.76699
0.76699
0.76699
0.76699
0.76699
0.76699
0.76699
0.76699
0.76699
0.76699
0.76699
0.76699
0.76699
0.76699
0.76699
0.76699
0.76699
0.76699
0.76699
0.76699
0.76699
0.76699
0.76699
0.76699
0.76699
0.76699
0.76699
0.76699
0.76699
0.76699
0.76699
0.76699
0.76699
0.76699
0.76699
0.76699
0.76699
0.76699
0.76699
0.76699
0.76699
0.76699
0.76699
0.76699
0.76699
0.76699
0.76699
0.76699
0.76699
0.76699
0.76699
0.76699
0.76699
0.76699
0.76699
0.76699
0.76699
0.76699
0.76699
0.76699
0.76699
0.76699
0.76699
0.76699
0.76699
0.76699
0.76699
0.76699
0.76699
0.76699
0.76699
0.76699
0.76699
0.76699
0.76699
0.76699
0.76699
0.76699
0.76699
0.76699
0.76699
0.76699
0.76699
0.76699
0.76699
0.76699
0.76699
0.76699
0.76699
0.76699
0.76699
0.76699
0.76699
0.76699
0.76699
0.76699
0.76699
0.76699
0.76699
0.76699
0.76699
0.76699
0.76699
0.76699
0.76699
0.76699
0.76699
0.76699
0.76699
0.76699
0.76699
0.76699
0.76699
0.76699
0.76699
0.76699
0.76699
0.76699
0.76699
0.76699
0.76699
0.76699
0.76699
0.76699
0.76699
0.76699
0.76699
0.76699
0.76699
0.76699
0.76699
0.76699
0.76699
0.76699
0.76699
0.76699
0.76699
0.76699
0.76699
0.76699
0.76699
0.76699
0.76699
0.76699
0.76699
0.76699
0.76699
0.76699
0.76699
0.76699
0.76699
0.76699
0.76699
0.76699
0.76699
0.76699
0.76699
0.76699
0.76699
0.76699
0.76699
0.76699
0.76699
0.76699
0.76699
0.76699
0.76699
0.76699
0.76699
0.76699
0.76699
0.76699
0.76699
0.76699
0.76699
0.76699
0.76699
0.76699
0.76699
0.76699
0.76699
0.76699
0.76699
0.76699
0.76699
0.76699
0.76699
0.76699
0.76699
0.76699
0.76699
0.76699
0.76699
0.76699
0.76699
0.76699
0.76699
0.76699
0.76699
0.76699
0.76699
0.76699
0.76699
0.76699
0.76699
0.76699
0.76699
0.76699
0.76699
0.76699
0.76699
0.76699
0.76699
0.76699
0.76699
0.76699
0.76699
0.76699
0.76699
0.76699
0.76699
0.76699
0.76699
0.76699
0.76699
0.76699
0.76699
0.76699
0.76699
0.76699
0.76699
0.76699
0.76699
0.76699
0.76699
0.76699
0.76699
0.76699
0.76699
0.76699
0.76699
0.76699
0.76699
0.76699
0.76699
0.76699
0.76699
0.76699
0.76699
0.76699
0.76699
0.76699
0.76699
0.76699
0.76699
0.76699
0.76699
0.76699
0.76699
0.76699
0.76699
0.76699
0.76699
0.76699
0.76699
0.76699
0.76699
0.76699
0.76699
0.76699
0.76699
0.76699
0.76699
0.76699
0.76699
0.76699
0.76699
0.76699
0.76699
0.76699
0.76699
0.76699
0.76699
0.76699
0.76699
0.76699
0.76699
0.76699
0.76699
0.76699
0.76699
0.76699
0.76699
0.76699
0.76699
0.76699
0.76699
0.76699
0.76699
0.76699
0.76699
0.76699
0.76699
0.76699
0.76699
0.76699
0.76699
0.76699
0.76699
0.76699
0.76699
0.76699
0.76699
0.76699
0.76699
0.76699
0.76699
0.76699
0.76699
0.76699
0.76699
0.76699
0.76699
0.76699
0.76699
0.76699
0.76699
0.76699
0.76699
0.76699
0.76699
0.76699
0.76699
0.76699
0.76699
0.76699
0.76699
0.76699
0.76699
0.76699
0.76699
0.76699
0.76699
0.76699
0.76699
0.76699
0.76699
0.76699
0.76699
0.76699
0.76699
0.76699
0.76699
0.76699
0.76699
0.76699
0.76699
0.76699
0.76699
0.76699
0.76699
0.76699
0.76699
0.76699
0.76699
0.76699
0.76699
0.76699
0.76699
0.76699
0.76699
0.76699
0.76699
0.76699
0.76699
0.76699
0.76699
0.76699
0.76699
0.76699
0.76699
0.76699
0.76699
0.76699
0.76699
0.76699
0.76699
0.76699
0.76699
0.76699
0.76699
0.76699
0.76699
0.76699
0.76699
0.76699
0.76699
0.76699
0.76699
0.76699
0.76699
0.76699
0.76699
0.76699
0.76699
0.76699
0.76699
0.76699
0.76699
0.76699
0.76699
0.76699
0.76699
0.76699
0.76699
0.76699
0.76699
0.76699
0.76699
0.76699
0.76699
0.76699
0.76699
0.76699
0.76699
0.76699
0.76699
0.76699
0.76699
0.76699
0.76699
0.76699
0.76699
0.76699
0.76699
0.76699
0.76699
0.76699
0.76699
0.76699
0.76699
0.76699
0.76699
0.76699
0.76699
0.76699
0.76699
0.76699
0.76699
0.76699
0.76699
0.76699
0.76699
0.76699
0.76699
0.76699
0.76699
0.76699
0.76699
0.76699
0.76699
0.76699
0.76699
0.76699
0.76699
0.76699
0.76699
0.76699
0.76699
0.76699
0.76699
0.76699
0.76699
0.76699
0.76699
0.76699
0.76699
0.76699
0.76699
0.76699
0.76699
0.76699
0.76699
0.76699
0.76699
0.76699
0.76699
0.76699
0.76699
0.76699
0.76699
0.76699
0.76699
0.76699
0.76699
0.76699
0.76699
0.76699
0.76699
0.76699
0.76699
0.76699
0.76699
0.76699
0.76699
0.76699
0.76699
0.76699
0.76699
0.76699
0.76699
0.76699
0.76699
0.76699
0.76699
0.76699
0.76699
0.76699
0.76699
0.76699
0.76699
0.76699
0.76699
0.76699
0.76699
0.76699
0.76699
0.76699
0.76699
0.76699
0.76699
0.76699
0.76699
0.76699
0.76699
0.76699
0.76699
0.76699
0.76699
0.76699
0.76699
0.76699
0.76699
0.76699
0.76699
0.76699
0.76699
0.76699
0.76699
0.76699
0.76699
0.76699
0.76699
0.76699
0.76699
0.76699
0.76699
0.76699
0.76699
0.76699
0.76699
0.76699
0.76699
0.76699
0.76699
0.76699
0.76699
0.76699
0.76699
0.76699
0.76699
0.76699
0.76699
0.76699
0.76699
0.76699
0.76699
0.76699
0.76699
0.76699
0.76699
0.76699
0.76699
0.76699
0.76699
0.76699
0.76699
0.76699
0.76699
0.76699
0.76699
0.76699
0.76699
0.76699
0.76699
0.76699
0.76699
0.76699
0.76699
0.76699
0.76699
0.76699
0.76699
0.76699
0.76699
0.76699
0.76699
0.76699
0.76699
0.76699
0.76699
0.76699
0.76699
0.76699
0.76699
0.76699
0.76699
0.76699
0.76699
0.76699
0.76699
0.76699
0.76699
0.76699
0.76699
0.76699
0.76699
0.76699
0.76699
0.76699
0.76699
0.76699
0.76699
0.76699
0.76699
0.76699
0.76699
0.76699
0.76699
0.76699
0.76699
0.76699
0.76699
0.76699
0.76699
0.76699
0.76699
0.76699
0.76699
0.76699
0.76699
0.76699
0.76699
0.76699
0.76699
0.76699
0.76699
0.76699
0.76699
0.76699
0.76699
0.76699
0.76699
0.76699
0.76699
0.76699
0.76699
0.76699
0.76699
0.76699
0.76699
0.76699
0.76699
0.76699
0.76699
0.76699
0.76699
0.76699
0.76699
0.76699
0.76699
0.76699
0.76699
0.76699
0.76699
0.76699
0.76699
0.76699
0.76699
0.76699
0.76699
0.76699
0.76699
0.76699
0.76699
0.76699
0.76699
0.76699
0.76699
0.76699
0.76699
0.76699
0.76699
0.76699
0.76699
0.76699
0.76699
0.76699
0.76699
0.76699
0.76699
0.76699
0.76699
0.76699
0.76699
0.76699
0.76699
0.76699
0.76699
0.76699
0.76699
0.76699
0.76699
0.76699
0.76699
0.76699
0.76699
0.76699
0.76699
0.76699
0.76699
0.76699
0.76699
0.76699
0.76699
0.76699
0.76699
0.76699
0.76699
0.76699
0.76699
0.76699
0.76699
0.76699
0.76699
0.76699
0.76699
0.76699
0.76699
0.76699
0.76699
0.76699
0.76699
0.76699
0.76699
0.76699
0.76699
0.76699
0.76699
0.76699
0.76699
0.76699
0.76699
0.76699
0.76699
0.76699
0.76699
0.76699
0.76699
0.76699
0.76699
0.76699
0.76699
0.76699
0.76699
0.76699
0.76699
0.76699
0.76699
0.76699
0.76699
0.76699
0.76699
0.76699
0.76699
0.76699
0.76699
0.76699
0.76699
0.76699
0.76699
0.76699
0.76699
0.76699
0.76699
0.76699
0.76699
0.76699
0.76699
0.76699
0.76699
0.76699
0.76699
0.76699
0.76699
0.76699
0.76699
0.76699
0.76699
0.76699
0.76699
0.76699
0.76699
0.76699
0.76699
0.76699
0.76699
0.76699
0.76699
0.76699
0.76699
0.76699
0.76699
0.76699
0.76699
0.76699
0.76699
0.76699
0.76699
0.76699
0.76699
0.76699
0.76699
0.76699
0.76699
0.76699
0.76699
0.76699
0.76699
0.76699
0.76699
0.76699
0.76699
0.76699
0.76699
0.76699
0.76699
0.76699
0.76699
0.76699
0.76699
0.76699
0.76699
0.76699
0.76699
0.76699
0.76699
0.76699
0.76699
0.76699
0.76699
0.76699
0.76699
0.76699
0.76699
0.76699
0.76699
0.76699
0.76699
0.76699
0.76699
0.76699
0.76699
0.76699
0.76699
0.76699
0.76699
0.76699
0.76699
0.76699
0.76699
0.76699
0.76699
0.76699
0.76699
0.76699
0.76699
0.76699
0.76699
0.76699
0.76699
0.76699
0.76699
0.76699
0.76699
0.76699
0.76699
0.76699
0.76699
0.76699
0.76699
0.76699
0.76699
0.76699
0.76699
0.76699
0.76699
0.76699
0.76699
0.76699
0.76699
0.76699
0.76699
0.76699
0.76699
0.76699
0.76699
0.76699
0.76699
0.76699
0.76699
0.76699
0.76699
0.76699
0.76699
0.76699
0.76699
0.76699
0.76699
0.76699
0.76699
0.76699
0.76699
0.76699
0.76699
0.76699
0.76699
0.76699
0.76699
0.76699
0.76699
0.76699
0.76699
0.76699
0.76699
0.76699
0.76699
0.76699
0.76699
0.76699
0.76699
0.76699
0.76699
0.76699
0.76699
0.76699
0.76699
0.76699
0.76699
0.76699
0.76699
0.76699
0.76699
0.76699
0.76699
0.76699
0.76699
0.766989
0.766989
0.766988
0.766989
0.766987
0.766989
0.766986
0.766989
0.766987
0.766989
0.766988
0.76699
0.766989
0.76699
0.76699
0.76699
0.76699
0.76699
0.76699
0.76699
0.76699
0.76699
0.76699
0.76699
0.76699
0.76699
0.76699
0.76699
0.76699
0.76699
0.76699
0.76699
0.76699
0.76699
0.76699
0.76699
0.76699
0.76699
0.76699
0.76699
0.76699
0.76699
0.76699
0.76699
0.76699
0.76699
0.76699
0.76699
0.76699
0.76699
0.76699
0.76699
0.76699
0.766989
0.76699
0.766989
0.766988
0.766987
0.766986
0.766982
0.766983
0.766973
0.76698
0.766965
0.76698
0.766962
0.766982
0.766967
0.766986
0.766976
0.766989
0.766985
0.766989
0.76699
0.766989
0.766989
0.76699
0.76699
0.76699
0.76699
0.76699
0.76699
0.76699
0.76699
0.76699
0.76699
0.76699
0.76699
0.76699
0.76699
0.76699
0.76699
0.76699
0.76699
0.76699
0.76699
0.76699
0.76699
0.76699
0.76699
0.76699
0.76699
0.76699
0.76699
0.76699
0.76699
0.76699
0.76699
0.76699
0.76699
0.76699
0.76699
0.766989
0.766982
0.76698
0.766986
0.766984
0.766975
0.766966
0.766956
0.766931
0.766932
0.766884
0.766921
0.766847
0.766928
0.766841
0.766946
0.766873
0.766969
0.766919
0.766984
0.766961
0.766983
0.76699
0.766984
0.766986
0.76699
0.76699
0.76699
0.76699
0.76699
0.76699
0.76699
0.76699
0.76699
0.76699
0.76699
0.76699
0.76699
0.76699
0.76699
0.76699
0.76699
0.76699
0.76699
0.76699
0.76699
0.76699
0.76699
0.76699
0.76699
0.76699
0.76699
0.76699
0.76699
0.76699
0.76699
0.76699
0.76699
0.76699
0.76699
0.76699
0.76699
0.766979
0.766979
0.766933
0.766924
0.766955
0.766944
0.7669
0.766864
0.766826
0.766764
0.766759
0.766668
0.766724
0.766599
0.766733
0.766572
0.7668
0.766607
0.76689
0.766719
0.766956
0.766864
0.766955
0.766988
0.766959
0.766969
0.76699
0.766989
0.76699
0.76699
0.76699
0.76699
0.76699
0.76699
0.76699
0.76699
0.76699
0.76699
0.76699
0.76699
0.76699
0.76699
0.76699
0.76699
0.76699
0.76699
0.76699
0.76699
0.76699
0.76699
0.76699
0.76699
0.76699
0.76699
0.76699
0.76699
0.76699
0.76699
0.76699
0.76699
0.76699
0.76699
0.766989
0.76698
0.766985
0.766919
0.766918
0.76677
0.766749
0.766829
0.766797
0.766703
0.766642
0.766579
0.766495
0.766475
0.766361
0.766411
0.766258
0.766401
0.766204
0.76647
0.76622
0.766641
0.766335
0.766847
0.766578
0.766846
0.766979
0.766865
0.766898
0.76699
0.766986
0.76699
0.76699
0.76699
0.76699
0.76699
0.76699
0.76699
0.76699
0.76699
0.76699
0.76699
0.76699
0.76699
0.76699
0.76699
0.76699
0.76699
0.76699
0.76699
0.76699
0.76699
0.76699
0.76699
0.76699
0.76699
0.76699
0.76699
0.76699
0.76699
0.76699
0.76699
0.76699
0.76699
0.76699
0.766989
0.766957
0.76692
0.766915
0.766738
0.766736
0.766511
0.766485
0.76659
0.766547
0.766418
0.766348
0.766258
0.766167
0.766121
0.766001
0.766024
0.765867
0.765988
0.765783
0.766041
0.765775
0.766217
0.765875
0.766545
0.766125
0.766553
0.766937
0.766609
0.766693
0.766989
0.766971
0.76699
0.76699
0.76699
0.76699
0.76699
0.766989
0.76699
0.76699
0.76699
0.76699
0.76699
0.76699
0.76699
0.76699
0.76699
0.76699
0.76699
0.76699
0.76699
0.76699
0.76699
0.76699
0.76699
0.76699
0.76699
0.76699
0.76699
0.76699
0.76699
0.76699
0.76699
0.76699
0.76699
0.76699
0.766974
0.766761
0.766783
0.766738
0.766744
0.766472
0.76647
0.766205
0.766179
0.766289
0.766242
0.766085
0.766014
0.765898
0.765809
0.765732
0.765621
0.765608
0.765464
0.765548
0.765357
0.765582
0.765328
0.765744
0.765407
0.766075
0.765651
0.766075
0.766799
0.766141
0.766279
0.766987
0.766914
0.76699
0.766989
0.76699
0.766989
0.766989
0.766989
0.766989
0.76699
0.76699
0.76699
0.76699
0.76699
0.76699
0.76699
0.76699
0.76699
0.76699
0.76699
0.76699
0.76699
0.76699
0.76699
0.76699
0.76699
0.76699
0.76699
0.76699
0.76699
0.76699
0.76699
0.76699
0.76699
0.76699
0.766979
0.766809
0.766863
0.766504
0.766534
0.766473
0.766482
0.766167
0.766167
0.765877
0.765854
0.765956
0.765911
0.765731
0.765668
0.765531
0.765455
0.765349
0.765261
0.765207
0.765095
0.765136
0.76501
0.765153
0.765006
0.765291
0.765057
0.765603
0.765228
0.765611
0.766497
0.765675
0.765772
0.766103
0.766971
0.76672
0.766987
0.766975
0.76699
0.766989
0.766989
0.766989
0.766989
0.766989
0.76699
0.76699
0.76699
0.76699
0.76699
0.76699
0.76699
0.76699
0.76699
0.76699
0.76699
0.76699
0.76699
0.76699
0.76699
0.76699
0.76699
0.76699
0.76699
0.76699
0.76699
0.76699
0.76699
0.76699
0.766983
0.766805
0.766588
0.766604
0.766213
0.76625
0.766171
0.766184
0.765847
0.765848
0.765557
0.765544
0.765619
0.765582
0.765393
0.765346
0.765192
0.765137
0.765012
0.764952
0.764929
0.764871
0.764925
0.76488
0.76495
0.764906
0.765007
0.764937
0.765197
0.764977
0.765078
0.765425
0.765212
0.765867
0.766322
0.765953
0.765511
0.765258
0.765246
0.765558
0.766944
0.766827
0.766073
0.766173
0.766528
0.766948
0.766843
0.766927
0.766844
0.76699
0.766989
0.766988
0.766988
0.766988
0.766989
0.76699
0.76699
0.76699
0.76699
0.76699
0.76699
0.76699
0.76699
0.766989
0.766989
0.766989
0.766989
0.766989
0.766989
0.766989
0.766989
0.766989
0.76699
0.76699
0.76699
0.76699
0.76699
0.76699
0.766986
0.766881
0.766423
0.766536
0.766305
0.766359
0.765906
0.765949
0.765855
0.765872
0.765543
0.765546
0.765278
0.765278
0.765313
0.76529
0.765096
0.765068
0.764907
0.764874
0.764826
0.764789
0.764844
0.764812
0.764885
0.764874
0.764921
0.764921
0.764926
0.764936
0.764944
0.764936
0.764944
0.764964
0.764941
0.764986
0.765077
0.764971
0.764943
0.765075
0.765632
0.765718
0.765305
0.765109
0.765087
0.765354
0.766603
0.765805
0.765874
0.766245
0.766473
0.766813
0.766597
0.766567
0.76699
0.766989
0.766988
0.766987
0.766988
0.766989
0.76699
0.76699
0.76699
0.76699
0.76699
0.76699
0.766989
0.766989
0.766988
0.766987
0.766987
0.766987
0.766987
0.766987
0.766987
0.766988
0.766989
0.766989
0.76699
0.76699
0.76699
0.76699
0.766988
0.766933
0.766489
0.766158
0.76619
0.766009
0.766066
0.76562
0.765665
0.765558
0.765583
0.765281
0.765292
0.765048
0.765058
0.765052
0.765045
0.764854
0.764847
0.76476
0.764742
0.764782
0.764753
0.764865
0.764855
0.764946
0.764956
0.764961
0.764964
0.764957
0.764974
0.76499
0.764937
0.764955
0.764989
0.765019
0.764987
0.764943
0.764979
0.764943
0.764944
0.764981
0.765416
0.765481
0.765139
0.764989
0.765
0.765177
0.766267
0.765539
0.765582
0.765911
0.765791
0.766511
0.766122
0.765706
0.766219
0.766087
0.76699
0.766988
0.766987
0.766986
0.766988
0.76699
0.76699
0.76699
0.76699
0.76699
0.76699
0.766988
0.766987
0.766984
0.766982
0.766981
0.766981
0.766981
0.766982
0.766983
0.766985
0.766986
0.766987
0.766988
0.766989
0.766989
0.766989
0.766988
0.766964
0.766668
0.76602
0.766171
0.765865
0.765946
0.765724
0.765786
0.765392
0.765439
0.765317
0.76535
0.765081
0.765119
0.764898
0.764948
0.764851
0.764866
0.764741
0.764748
0.764732
0.764727
0.764842
0.764828
0.764966
0.764967
0.764967
0.764968
0.765001
0.765009
0.765014
0.765018
0.765012
0.765028
0.765035
0.764971
0.76501
0.765042
0.765062
0.765045
0.764949
0.764946
0.764954
0.764985
0.764946
0.765221
0.765264
0.765016
0.764948
0.764948
0.765037
0.765902
0.765305
0.765338
0.765604
0.765725
0.76553
0.766554
0.765734
0.765833
0.76699
0.766988
0.766986
0.766987
0.766989
0.76699
0.76699
0.76699
0.76699
0.766989
0.766987
0.766982
0.766976
0.76697
0.766966
0.766965
0.766966
0.766968
0.766972
0.766976
0.76698
0.766983
0.766986
0.766987
0.766988
0.766988
0.766988
0.766978
0.766804
0.766146
0.765793
0.765836
0.765623
0.765693
0.765494
0.765552
0.765253
0.7653
0.765161
0.765206
0.765004
0.765064
0.764885
0.764967
0.764769
0.764816
0.764735
0.764763
0.764827
0.764841
0.76497
0.764973
0.764975
0.764981
0.765023
0.765029
0.765037
0.765046
0.765036
0.765037
0.76504
0.765047
0.765051
0.76505
0.765045
0.76503
0.765065
0.765063
0.765067
0.765074
0.764995
0.764954
0.765
0.765046
0.764952
0.76506
0.765085
0.764949
0.764946
0.764937
0.76495
0.765586
0.765112
0.765138
0.765355
0.76552
0.765447
0.765428
0.766583
0.765727
0.766989
0.766986
0.766985
0.766988
0.766989
0.76699
0.76699
0.76699
0.766988
0.766984
0.766975
0.76696
0.766944
0.766931
0.766924
0.766925
0.766931
0.76694
0.766951
0.766965
0.766972
0.766977
0.76698
0.766982
0.766984
0.766986
0.76698
0.76689
0.766372
0.765731
0.765874
0.765589
0.76566
0.765457
0.765515
0.765349
0.7654
0.765222
0.765265
0.765122
0.765175
0.765054
0.765137
0.765042
0.765164
0.764826
0.764924
0.764884
0.764973
0.76506
0.765128
0.765057
0.76507
0.765084
0.765101
0.765058
0.765075
0.765095
0.765117
0.76504
0.765037
0.76504
0.765051
0.765054
0.765036
0.765017
0.765078
0.765082
0.765042
0.765021
0.765063
0.765055
0.764999
0.765058
0.765085
0.764993
0.764952
0.764956
0.764926
0.764981
0.764962
0.764912
0.765342
0.764961
0.76497
0.76515
0.765305
0.765296
0.765376
0.766053
0.765536
0.766988
0.766985
0.766985
0.766988
0.76699
0.76699
0.76699
0.766988
0.76698
0.766963
0.766935
0.7669
0.766867
0.766852
0.766854
0.766868
0.766888
0.76691
0.76693
0.766942
0.766946
0.76695
0.766958
0.766968
0.766975
0.766978
0.76693
0.766584
0.765881
0.765594
0.765631
0.765473
0.765522
0.765383
0.765423
0.765305
0.765343
0.765302
0.765332
0.765206
0.765261
0.765274
0.765362
0.765413
0.765553
0.765101
0.765255
0.765245
0.765401
0.765269
0.76532
0.765451
0.765377
0.765141
0.765168
0.765197
0.765231
0.765069
0.765096
0.765132
0.765172
0.765003
0.764999
0.765006
0.765026
0.765008
0.764972
0.764942
0.765086
0.765054
0.764967
0.764923
0.764995
0.765089
0.765056
0.765089
0.765087
0.765048
0.764897
0.76488
0.764938
0.765033
0.765008
0.764907
0.76515
0.764863
0.764849
0.76498
0.765154
0.765207
0.765323
0.766128
0.765568
0.766986
0.766984
0.766987
0.766989
0.76699
0.76699
0.766987
0.766976
0.766948
0.7669
0.766839
0.76679
0.76677
0.766776
0.766799
0.76683
0.766861
0.766881
0.766877
0.766858
0.766852
0.766871
0.766906
0.76694
0.766965
0.766936
0.766721
0.766064
0.765598
0.765691
0.765507
0.765544
0.765438
0.765465
0.765393
0.765413
0.765354
0.765373
0.765478
0.765482
0.765423
0.765459
0.765655
0.765716
0.765932
0.766046
0.765586
0.76577
0.765533
0.765639
0.76589
0.765412
0.765478
0.765634
0.765551
0.765214
0.765258
0.765304
0.765355
0.765058
0.765102
0.765154
0.765213
0.764925
0.764923
0.76494
0.764977
0.764913
0.764864
0.76483
0.765045
0.764972
0.764848
0.764786
0.764881
0.765086
0.765087
0.765087
0.76504
0.765081
0.764872
0.764837
0.764973
0.765069
0.765048
0.764928
0.764996
0.764803
0.764771
0.764849
0.765037
0.76513
0.765337
0.766566
0.765946
0.766984
0.766985
0.766988
0.766989
0.766989
0.766986
0.766971
0.766931
0.766859
0.766773
0.766712
0.766688
0.766699
0.766731
0.766773
0.766809
0.766818
0.766782
0.766712
0.766661
0.766671
0.766745
0.766846
0.766928
0.766928
0.766774
0.766252
0.765704
0.765535
0.765557
0.765483
0.765502
0.765458
0.765466
0.76546
0.765456
0.765478
0.765469
0.765719
0.765683
0.765742
0.765738
0.766107
0.766121
0.766392
0.766458
0.766098
0.766259
0.765723
0.765815
0.766103
0.766205
0.765544
0.765624
0.765804
0.765711
0.765274
0.765337
0.765401
0.765469
0.76503
0.765097
0.765172
0.765252
0.764819
0.764827
0.764865
0.764927
0.76478
0.764728
0.764704
0.764955
0.764847
0.764698
0.764625
0.764732
0.76504
0.765087
0.765047
0.76495
0.765083
0.764873
0.764811
0.765012
0.765074
0.765058
0.764958
0.764876
0.764758
0.764715
0.764755
0.764947
0.765093
0.765442
0.766787
0.766312
0.766984
0.766987
0.766989
0.766989
0.766985
0.766967
0.766914
0.766819
0.766711
0.766637
0.766614
0.766631
0.766671
0.766719
0.766755
0.766749
0.766673
0.766555
0.766458
0.766448
0.766524
0.766669
0.766839
0.766894
0.766775
0.766366
0.765833
0.765555
0.7656
0.765512
0.765525
0.765497
0.7655
0.765512
0.765498
0.765567
0.765536
0.765643
0.765603
0.765985
0.765904
0.766104
0.766057
0.766476
0.766466
0.766622
0.766672
0.766294
0.766394
0.76653
0.765902
0.766002
0.766247
0.766333
0.765668
0.765761
0.765959
0.765859
0.765332
0.765412
0.765494
0.765578
0.76501
0.765104
0.765204
0.765304
0.764706
0.76474
0.764808
0.764905
0.764629
0.764589
0.764583
0.764827
0.764694
0.764538
0.764461
0.764566
0.764957
0.765057
0.764975
0.764826
0.765064
0.764883
0.764799
0.765028
0.765062
0.765048
0.764975
0.764781
0.764721
0.764664
0.764688
0.764883
0.765105
0.765678
0.766921
0.766562
0.766985
0.766988
0.766989
0.766985
0.766964
0.766902
0.766786
0.766655
0.766572
0.766555
0.766577
0.766622
0.766673
0.766702
0.766674
0.766569
0.766405
0.766288
0.766258
0.766308
0.766443
0.766651
0.766812
0.766745
0.766382
0.765927
0.765614
0.765535
0.765548
0.765522
0.765525
0.765536
0.765524
0.765591
0.765559
0.765688
0.765634
0.765826
0.765753
0.766244
0.766133
0.766423
0.766344
0.766707
0.766713
0.766641
0.766682
0.766714
0.766408
0.766475
0.766617
0.766571
0.766059
0.766156
0.766366
0.766435
0.765794
0.765898
0.766103
0.766001
0.765402
0.765497
0.765594
0.765692
0.76502
0.765145
0.765271
0.76539
0.764611
0.764677
0.764781
0.764916
0.764483
0.76447
0.764483
0.764677
0.764529
0.76439
0.764312
0.764403
0.764845
0.765
0.764881
0.764688
0.765022
0.764889
0.764786
0.76502
0.765036
0.765027
0.764965
0.764707
0.764687
0.764612
0.764629
0.76484
0.765185
0.765934
0.766955
0.766726
0.766987
0.766989
0.766986
0.766964
0.766895
0.766761
0.766609
0.766523
0.766511
0.766536
0.766584
0.766631
0.766651
0.766602
0.766462
0.766297
0.766193
0.766153
0.766163
0.766233
0.766394
0.766601
0.766647
0.766355
0.765943
0.765664
0.765575
0.765591
0.765553
0.765558
0.76556
0.765553
0.765604
0.765577
0.765692
0.765642
0.76583
0.765754
0.766023
0.765921
0.766492
0.76637
0.766678
0.766597
0.766778
0.766813
0.76662
0.76665
0.766605
0.766672
0.76649
0.766535
0.76659
0.766566
0.766199
0.766287
0.766447
0.766484
0.765933
0.766041
0.766238
0.766144
0.7655
0.765608
0.765716
0.765824
0.765071
0.765229
0.76538
0.765515
0.764539
0.764636
0.764769
0.764938
0.764365
0.764368
0.764408
0.764524
0.764377
0.764274
0.764199
0.764263
0.764728
0.764923
0.764786
0.764561
0.764964
0.764875
0.76476
0.764991
0.764991
0.764983
0.764925
0.764651
0.76464
0.764554
0.764573
0.764826
0.765325
0.766165
0.766982
0.766873
0.766988
0.766986
0.766966
0.766894
0.766748
0.766576
0.766487
0.766479
0.766506
0.766555
0.766595
0.766601
0.766533
0.766382
0.76624
0.766166
0.766129
0.766116
0.766124
0.766181
0.766298
0.766381
0.766245
0.765927
0.765685
0.765632
0.765614
0.765627
0.765613
0.76561
0.765642
0.765623
0.765712
0.765671
0.765834
0.765766
0.766012
0.765916
0.766244
0.766123
0.766727
0.766615
0.76683
0.766806
0.766728
0.766786
0.766826
0.766513
0.766552
0.766424
0.766516
0.766514
0.766543
0.766489
0.766476
0.766322
0.766392
0.766461
0.766471
0.766087
0.766188
0.766352
0.766278
0.765638
0.765754
0.765867
0.765978
0.76513
0.765328
0.765511
0.765668
0.764483
0.764599
0.764753
0.764943
0.764271
0.764288
0.764354
0.764395
0.764252
0.764184
0.764109
0.764147
0.764621
0.764848
0.764696
0.764443
0.764902
0.764824
0.764698
0.76493
0.764921
0.764888
0.764837
0.764604
0.764574
0.764488
0.764515
0.764845
0.765495
0.766406
0.766987
0.766938
0.766987
0.766969
0.7669
0.766745
0.766555
0.766459
0.766452
0.766484
0.76653
0.766562
0.766555
0.766468
0.766326
0.766233
0.766174
0.766142
0.766126
0.766116
0.766105
0.766107
0.766106
0.766023
0.765859
0.765696
0.765669
0.765823
0.765719
0.765717
0.765734
0.765722
0.765782
0.765753
0.76588
0.765825
0.766036
0.76595
0.766246
0.766135
0.766493
0.766368
0.766883
0.766833
0.766876
0.766898
0.766618
0.766721
0.766811
0.766705
0.766304
0.766351
0.766143
0.766271
0.766477
0.766472
0.766281
0.76628
0.766405
0.766439
0.766392
0.766357
0.766233
0.76631
0.766396
0.766365
0.765803
0.765925
0.766037
0.76614
0.765159
0.765388
0.765611
0.765803
0.764447
0.764575
0.764739
0.764938
0.764191
0.764237
0.764316
0.764272
0.764127
0.764105
0.764025
0.764048
0.764517
0.764771
0.764602
0.764325
0.764809
0.764719
0.764596
0.764805
0.764788
0.764717
0.764705
0.764566
0.764487
0.764424
0.764458
0.764902
0.765682
0.766591
0.766989
0.766969
0.766976
0.766909
0.766752
0.766547
0.766438
0.76643
0.766464
0.766506
0.766531
0.766512
0.766415
0.766304
0.766243
0.766208
0.766206
0.766209
0.76618
0.766129
0.766082
0.766018
0.765937
0.765835
0.765719
0.765727
0.765887
0.766179
0.765912
0.766196
0.7659
0.765921
0.765903
0.765993
0.765951
0.766118
0.766049
0.766297
0.766201
0.766516
0.766404
0.766741
0.766631
0.766941
0.766934
0.766871
0.766924
0.766414
0.766563
0.766725
0.766535
0.765984
0.766045
0.765784
0.765943
0.766321
0.76629
0.765966
0.765972
0.766411
0.766408
0.766212
0.766141
0.766318
0.766351
0.76636
0.766365
0.765959
0.766084
0.766183
0.766262
0.765164
0.765407
0.76565
0.765869
0.764421
0.764549
0.764712
0.764902
0.76412
0.764186
0.764271
0.764132
0.763994
0.764021
0.763921
0.763934
0.764394
0.764645
0.764423
0.764153
0.764628
0.764584
0.764486
0.764631
0.764571
0.764494
0.764549
0.764547
0.764413
0.764363
0.76441
0.764979
0.765867
0.766732
0.76699
0.766983
0.76693
0.766769
0.76655
0.766421
0.766409
0.766443
0.766481
0.7665
0.766467
0.766372
0.7663
0.766265
0.766279
0.766358
0.766436
0.76642
0.766297
0.766158
0.766055
0.765962
0.765867
0.765792
0.765842
0.766037
0.766463
0.766158
0.766506
0.766547
0.766148
0.766175
0.766153
0.766263
0.766212
0.766403
0.766327
0.766585
0.766488
0.766781
0.766686
0.766906
0.766857
0.766956
0.766966
0.766738
0.766857
0.766917
0.76613
0.766333
0.766531
0.766292
0.765592
0.765664
0.76541
0.765587
0.766064
0.766002
0.765579
0.765594
0.766325
0.766279
0.765958
0.765852
0.766311
0.766307
0.766222
0.766272
0.766044
0.76617
0.766249
0.766295
0.765123
0.765368
0.765619
0.765856
0.764379
0.764496
0.764639
0.764809
0.764046
0.764114
0.764211
0.763955
0.763881
0.76393
0.763868
0.763869
0.764149
0.764409
0.764145
0.763921
0.764373
0.764455
0.764398
0.764434
0.764304
0.764261
0.764406
0.764539
0.764327
0.764303
0.764364
0.765079
0.766043
0.766839
0.76699
0.766988
0.766811
0.766565
0.766412
0.76639
0.76642
0.766455
0.766467
0.766424
0.766346
0.766303
0.766291
0.766355
0.766505
0.766655
0.766691
0.766612
0.766446
0.766255
0.766105
0.766008
0.765981
0.766074
0.766298
0.766645
0.766911
0.766478
0.766812
0.766828
0.766464
0.76649
0.766469
0.766578
0.766527
0.76671
0.76664
0.766846
0.766782
0.766931
0.766896
0.766965
0.766954
0.766953
0.766974
0.766585
0.766793
0.766915
0.766834
0.7658
0.76604
0.766313
0.766024
0.765197
0.765278
0.765095
0.765276
0.76575
0.765658
0.765183
0.765208
0.766145
0.766058
0.765624
0.765501
0.766218
0.76616
0.765984
0.766081
0.766048
0.766173
0.766227
0.766233
0.765008
0.765231
0.76547
0.765709
0.764297
0.764402
0.764512
0.764638
0.763984
0.764051
0.764121
0.76385
0.763826
0.763886
0.763782
0.763794
0.763923
0.764149
0.763947
0.763854
0.764118
0.764358
0.764307
0.764285
0.764149
0.764189
0.764288
0.764546
0.764272
0.764255
0.76433
0.765192
0.76619
0.766907
0.76699
0.766989
0.766616
0.766411
0.766372
0.766395
0.766427
0.766433
0.766385
0.76633
0.766308
0.76632
0.766422
0.766613
0.766786
0.766843
0.766824
0.766737
0.766601
0.766462
0.766361
0.766335
0.766405
0.766592
0.766808
0.766947
0.766987
0.766964
0.766795
0.766958
0.766787
0.766807
0.766792
0.766859
0.766831
0.766917
0.766889
0.766958
0.766941
0.766977
0.76697
0.76698
0.766981
0.766887
0.766917
0.766955
0.766973
0.766379
0.766648
0.76675
0.765492
0.765744
0.766076
0.765774
0.764855
0.764952
0.764887
0.765071
0.765383
0.765284
0.764828
0.764838
0.765874
0.765753
0.765233
0.7651
0.766015
0.765917
0.765665
0.765797
0.765918
0.766059
0.766091
0.766081
0.764786
0.76496
0.765152
0.765359
0.7642
0.764284
0.764368
0.764454
0.76393
0.763978
0.76399
0.7638
0.763748
0.763788
0.763744
0.763737
0.763875
0.763994
0.76391
0.763832
0.76406
0.764286
0.764258
0.764223
0.764082
0.764139
0.764245
0.764564
0.764213
0.764209
0.7643
0.76528
0.766348
0.766935
0.76699
0.766989
0.766429
0.766356
0.766371
0.766399
0.766399
0.766356
0.766325
0.766315
0.76635
0.76648
0.766681
0.766847
0.766914
0.766925
0.766897
0.766833
0.766755
0.766695
0.766674
0.766712
0.766815
0.766917
0.766973
0.766989
0.76699
0.766987
0.76699
0.76699
0.766954
0.766987
0.766952
0.766957
0.766953
0.766968
0.766962
0.766979
0.766974
0.766985
0.766982
0.766987
0.766987
0.766983
0.766986
0.766823
0.766887
0.766944
0.766963
0.76619
0.766494
0.766616
0.76527
0.765501
0.765879
0.765607
0.764596
0.764727
0.764814
0.765014
0.764984
0.764893
0.764518
0.764498
0.765523
0.765377
0.76481
0.764681
0.765695
0.76557
0.765264
0.765422
0.765567
0.765743
0.765791
0.765779
0.76453
0.764602
0.764675
0.764777
0.764072
0.764141
0.764201
0.764297
0.763801
0.763831
0.763699
0.763788
0.763567
0.763613
0.763618
0.763587
0.763866
0.763965
0.763922
0.76383
0.76401
0.764229
0.764195
0.764206
0.764077
0.764153
0.764212
0.76458
0.764159
0.764158
0.764268
0.765371
0.766437
0.766939
0.766974
0.766985
0.766349
0.766351
0.766373
0.76637
0.766341
0.766326
0.766326
0.766388
0.766532
0.766728
0.766878
0.766943
0.766964
0.76696
0.76694
0.76691
0.766885
0.766875
0.76689