/*--------------------------------*- C++ -*----------------------------------*\
  =========                 |
  \\      /  F ield         | OpenFOAM: The Open Source CFD Toolbox
   \\    /   O peration     | Website:  https://openfoam.org
    \\  /    A nd           | Version:  dev
     \\/     M anipulation  |
\*---------------------------------------------------------------------------*/
FoamFile
{
    version     2.0;
    format      ascii;
    class       volScalarField;
    location    "2500";
    object      nut;
}
// * * * * * * * * * * * * * * * * * * * * * * * * * * * * * * * * * * * * * //

dimensions      [0 2 -1 0 0 0 0];

internalField   nonuniform List<scalar> 
9842
(
0.000132652
0.000135889
0.000128274
0.000123628
0.000159494
0.00011352
0.000111689
0.000167981
0.000148953
0.000107417
0.000108131
0.000163106
0.000167929
0.000127572
0.00010534
0.000104964
0.000149301
0.000180132
0.000152961
0.000116239
0.000103969
0.00010321
0.000132223
0.000181528
0.000173431
0.000131125
0.000111596
0.000102987
0.000102674
0.000122623
0.000177338
0.000182682
0.000151825
0.000119074
0.000109078
0.000102281
0.000102472
0.000115544
0.000164286
0.000190833
0.000172827
0.000131419
0.000113973
0.000107296
0.000101805
0.000102312
0.000110838
0.000145868
0.000190919
0.000186674
0.000148777
0.000119765
0.000111343
0.000105983
0.000101483
0.000101852
0.0001078
0.000131967
0.000185494
0.000193541
0.000169712
0.000130457
0.000114629
0.000109452
0.000104978
0.000101251
0.000101191
0.000105898
0.000122451
0.000171125
0.000199075
0.000186439
0.000146271
0.000119857
0.000112159
0.000107895
0.000104176
0.000101066
0.000100701
0.000105172
0.000116316
0.000151881
0.000197842
0.000196746
0.000165614
0.000129307
0.000115009
0.000110247
0.00010671
0.000103545
0.00010092
0.000100352
0.000104723
0.000112612
0.000137152
0.000190717
0.000203216
0.000184627
0.000144346
0.000119819
0.000112778
0.000108808
0.000105789
0.000103067
0.000100804
0.000100121
0.000104384
0.000110295
0.000127289
0.000174435
0.000206387
0.000198298
0.000160771
0.00012878
0.00011538
0.000111136
0.000107664
0.000105059
0.000102704
0.000100707
9.99656e-05
0.000103953
0.000108735
0.000120726
0.000154855
0.000203391
0.000205686
0.00018106
0.000141549
0.000119967
0.000113261
0.000109742
0.000106732
0.00010452
0.000102401
0.000100622
9.98545e-05
0.000103529
0.000107811
0.000116453
0.000140185
0.000193847
0.0002119
0.000197453
0.000157487
0.000128104
0.000115678
0.000111704
0.000108532
0.00010606
0.000104079
0.00010212
0.000100555
9.9771e-05
0.000103177
0.000107218
0.000113689
0.000130422
0.000175131
0.000212107
0.000208551
0.000175891
0.00013938
0.000120245
0.000113552
0.000110368
0.000107573
0.000105493
0.000103663
0.000101889
0.000100498
9.97451e-05
0.000102888
0.000106738
0.000111799
0.000123854
0.000155925
0.000207285
0.000213824
0.00019552
0.000154382
0.000127374
0.000115858
0.000112085
0.000109223
0.000106829
0.000104995
0.000103309
0.000101682
0.000100463
9.97599e-05
0.000102571
0.000106228
0.000110383
0.000119676
0.000142213
0.000194679
0.000218886
0.000209212
0.000171717
0.000138102
0.00012038
0.000113725
0.00011088
0.000108252
0.000106214
0.000104579
0.000102997
0.000101482
0.000100432
9.97785e-05
0.000102216
0.000105683
0.000109343
0.00011687
0.00013299
0.000174396
0.000217316
0.000217539
0.000192741
0.000151095
0.000127071
0.000116037
0.000112383
0.00010979
0.000107482
0.000105737
0.000104209
0.000102686
0.000101315
0.000100402
9.97893e-05
0.000101887
0.000105189
0.00010853
0.000114434
0.000127187
0.00015573
0.000209845
0.000223855
0.000209672
0.000169073
0.000136624
0.00012057
0.000113849
0.000111262
0.000108831
0.000106901
0.000105328
0.000103839
0.000102372
0.000101195
0.000100328
9.9793e-05
0.000101576
0.000104731
0.000107869
0.000112532
0.000123527
0.00014325
0.000192642
0.000225428
0.000221143
0.000187938
0.000148736
0.000127088
0.000116376
0.000112543
0.000110253
0.00010807
0.000106432
0.00010493
0.00010347
0.000102055
0.000101094
0.000100259
9.97945e-05
0.000101294
0.00010431
0.000107272
0.000111096
0.000120575
0.000134978
0.000170406
0.00022115
0.000226422
0.000208898
0.000165724
0.000135171
0.000121047
0.000113986
0.000111547
0.000109303
0.000107545
0.000106007
0.000104532
0.000103103
0.000101805
0.000100932
0.000100223
9.97972e-05
0.000101048
0.000103916
0.000106694
0.000109967
0.000117873
0.000129849
0.000153315
0.000209266
0.000231758
0.000222435
0.000184555
0.000147169
0.000126858
0.000116817
0.000112722
0.000110621
0.000108463
0.000107084
0.000105601
0.000104135
0.000102723
0.000101608
0.000100731
0.000100186
9.98046e-05
0.000100827
0.000103545
0.000106144
0.000109053
0.000115467
0.000126315
0.000142768
0.000187008
0.000230089
0.00023058
0.000206841
0.000162155
0.000134536
0.000121571
0.000114276
0.000111789
0.000109708
0.0001079
0.000106649
0.00010519
0.000103725
0.000102361
0.000101379
0.000100575
0.000100137
9.98131e-05
0.000100619
0.000103154
0.000105624
0.00010823
0.000113518
0.000123471
0.000135642
0.000165294
0.000222532
0.000236855
0.000223422
0.000182395
0.000145045
0.000126731
0.000117658
0.000112942
0.000110912
0.000108915
0.000107515
0.000106217
0.000104751
0.00010332
0.00010205
0.000101097
0.000100451
0.0001001
9.98181e-05
0.000100443
0.000102721
0.000105095
0.000107498
0.00011197
0.000120782
0.00013116
0.000151608
0.000204877
0.000238281
0.000234801
0.000202248
0.000159905
0.00013389
0.000121762
0.000114836
0.000112003
0.000110124
0.000108262
0.000107156
0.000105775
0.000104295
0.000102926
0.000101758
0.00010083
0.000100326
0.000100065
9.98121e-05
0.00010031
0.000102264
0.000104574
0.000106869
0.000110638
0.00011823
0.000127973
0.000142313
0.00018071
0.000233821
0.000239609
0.000224016
0.000178675
0.000143221
0.000126962
0.00011815
0.000113218
0.000111226
0.000109458
0.000107788
0.00010673
0.000105309
0.000103826
0.000102518
0.000101438
0.000100569
0.000100187
0.000100057
9.97899e-05
0.000100227
0.0001018
0.000104116
0.000106296
0.000109389
0.000115859
0.000125203
0.000136101
0.00016152
0.000221742
0.000245413
0.000236382
0.00019901
0.000157681
0.000132825
0.000122288
0.000115431
0.000112307
0.000110568
0.000108841
0.000107438
0.000106272
0.000104762
0.000103349
0.000102069
0.000101113
0.000100374
0.000100011
9.99972e-05
9.97682e-05
0.000100181
0.000101409
0.000103682
0.000105697
0.000108322
0.000113896
0.000122383
0.000132153
0.000150072
0.000198885
0.000243118
0.000244621
0.00022173
0.000174707
0.000142241
0.000126642
0.000118799
0.000113686
0.000111607
0.000109996
0.000108381
0.000107107
0.000105787
0.000104223
0.000102846
0.000101601
0.000100741
0.000100256
0.000100008
9.99605e-05
9.97583e-05
0.000100116
0.00010112
0.000103164
0.000105085
0.000107469
0.00011224
0.00011942
0.000129326
0.000141993
0.000174866
0.000235631
0.000250464
0.00023805
0.000196238
0.00015465
0.000132536
0.000122535
0.000116224
0.00011275
0.000111063
0.000109488
0.000108062
0.000106761
0.000105166
0.000103697
0.00010237
0.000101186
0.000100368
0.000100043
9.99706e-05
0.000100008
9.97581e-05
0.000100023
0.000100918
0.000102601
0.000104542
0.000106708
0.000110652
0.000116809
0.000126385
0.000136667
0.000159495
0.000218074
0.000252697
0.000248993
0.000216963
0.000171858
0.00014066
0.000126721
0.000119421
0.000114501
0.00011211
0.000110618
0.000109114
0.000107773
0.000106318
0.000104614
0.000103155
0.000101895
0.000100786
0.000100002
9.97692e-05
9.98387e-05
9.99821e-05
9.97613e-05
9.99324e-05
0.000100758
0.00010208
0.000104042
0.000105964
0.000109134
0.000114771
0.000122898
0.000133298
0.00014899
0.000192777
0.000248369
0.000253951
0.000239438
0.000191755
0.000152457
0.000132097
0.000122872
0.000117103
0.000113517
0.000111711
0.000110261
0.000108813
0.000107515
0.000105782
0.000104143
0.000102711
0.000101486
0.000100502
9.98568e-05
9.96428e-05
9.98405e-05
0.000100003
0.000100096
9.97644e-05
9.98609e-05
0.000100609
0.00010167
0.000103544
0.000105189
0.000107825
0.00011289
0.000119749
0.000130207
0.000142045
0.000170022
0.000236783
0.000261156
0.000250925
0.00021374
0.00016848
0.000139387
0.000126936
0.000120039
0.000115584
0.00011295
0.000111466
0.000110016
0.000108685
0.000107189
0.000105376
0.000103742
0.000102348
0.000101338
0.000100721
0.000100456
0.000100217
0.000100195
0.000100237
0.000100044
0.000100234
9.97693e-05
9.98038e-05
0.000100453
0.000101335
0.000102995
0.000104522
0.000106839
0.000110941
0.000117372
0.000126372
0.000137336
0.000157807
0.00021321
0.000258509
0.00026056
0.000236567
0.000187792
0.000150437
0.000131563
0.000123427
0.000118017
0.000114512
0.000112753
0.00011129
0.000110027
0.000108669
0.000106813
0.000104862
0.000103394
0.000102133
0.000101404
0.000101128
0.000100705
0.000101049
0.000100502
0.000100757
0.000100939
0.000100393
0.000100561
0.000100108
0.000100383
9.97768e-05
9.97485e-05
0.000100283
0.000101057
0.000102463
0.000103959
0.000105953
0.000109139
0.000115272
0.000122524
0.000133445
0.000148734
0.00018755
0.000251471
0.000265772
0.000254295
0.000210059
0.000165254
0.000138554
0.000126895
0.000120888
0.000116607
0.000114273
0.000112608
0.000111401
0.000110088
0.000108608
0.000106602
0.000104603
0.000103319
0.000102382
0.000101869
0.000101341
0.000101832
0.0001011
0.000101008
0.000101236
0.000101353
0.000100684
0.000101107
0.000100185
0.000100647
9.97873e-05
9.9693e-05
0.00010011
0.000100813
0.000101975
0.000103452
0.000105157
0.000107817
0.000113221
0.000119549
0.000129343
0.00014218
0.000168105
0.000234692
0.000269978
0.000264433
0.000232802
0.000184018
0.000148492
0.000131503
0.000123888
0.000119098
0.000115998
0.000114121
0.000112783
0.000111823
0.000110458
0.000108689
0.000106578
0.000105009
0.000104239
0.000103581
0.00010244
0.000103513
0.000101556
0.000102343
0.000101618
0.000101546
0.000101644
9.8954e-05
0.000101125
9.7975e-05
9.50696e-05
9.017e-05
9.97985e-05
9.96349e-05
9.99373e-05
0.000100579
0.000101548
0.000102975
0.000104445
0.000106864
0.000111327
0.000117183
0.000124924
0.000136971
0.00015737
0.00021016
0.000265292
0.00027125
0.00025488
0.000205917
0.000162425
0.0001376
0.000127361
0.000121674
0.000118152
0.000115783
0.000114222
0.000113319
0.000112261
0.000110728
0.000108998
0.000107198
0.000106333
0.000106127
0.000104509
0.000105835
0.000103475
0.000101484
0.000101309
9.61841e-05
9.56695e-05
8.97128e-05
8.75357e-05
8.10678e-05
8.39318e-05
7.76233e-05
7.46018e-05
7.10153e-05
9.98109e-05
9.95721e-05
9.97663e-05
0.000100349
0.000101168
0.000102495
0.000103806
0.000106047
0.00010972
0.000115073
0.000121142
0.000132127
0.000148736
0.000186823
0.000255196
0.000277725
0.000268002
0.000228451
0.000180518
0.000146616
0.000131451
0.000124649
0.000120472
0.000117857
0.000115802
0.000114868
0.000114013
0.000113112
0.000111675
0.000109954
0.000108735
0.000108377
0.000107003
0.000108114
9.82871e-05
9.80679e-05
9.02412e-05
8.8381e-05
8.73916e-05
8.25741e-05
7.97892e-05
7.26784e-05
7.28505e-05
6.62819e-05
6.6431e-05
6.25848e-05
6.0385e-05
5.76913e-05
9.98247e-05
9.9504e-05
9.96001e-05
0.00010012
0.000100829
0.000102057
0.000103243
0.00010529
0.000108414
0.000113225
0.000118185
0.000127371
0.000141641
0.000168347
0.000234806
0.000279028
0.000277269
0.000252293
0.000200928
0.000159811
0.000137359
0.000127693
0.000123083
0.000120094
0.000117768
0.000116509
0.000116042
0.00011545
0.000114497
0.000112492
0.000110742
0.000109784
0.000108975
0.000109508
9.87076e-05
9.90136e-05
8.50493e-05
8.54383e-05
7.80896e-05
7.58099e-05
7.32986e-05
6.98579e-05
6.63811e-05
5.93264e-05
6.05996e-05
5.47642e-05
5.39513e-05
5.14626e-05
5.02175e-05
4.79717e-05
9.98392e-05
9.9446e-05
9.94532e-05
9.98954e-05
0.000100538
0.000101681
0.00010276
0.000104639
0.000107379
0.000111746
0.000115813
0.000123023
0.00013563
0.000156955
0.000213014
0.000273034
0.000283853
0.000270914
0.000224561
0.000176268
0.000145805
0.000131677
0.000125682
0.000122699
0.000119834
0.000118457
0.000117874
0.000117696
0.000116993
0.000114774
0.000112255
0.000110776
0.000109977
0.000110098
0.000106576
0.000109443
8.52607e-05
8.77327e-05
7.35107e-05
7.41347e-05
6.64142e-05
6.42519e-05
6.15165e-05
5.89889e-05
5.51449e-05
4.89056e-05
5.02138e-05
4.57093e-05
4.48226e-05
4.31568e-05
4.26429e-05
4.06515e-05
9.98499e-05
9.94432e-05
9.93712e-05
9.97052e-05
0.00010033
0.000101391
0.000102367
0.000104097
0.000106524
0.000110611
0.000113952
0.000119684
0.000130737
0.000148841
0.00019071
0.000261363
0.000290075
0.000282153
0.000247908
0.000196967
0.00015736
0.000137161
0.000128822
0.000125203
0.000122385
0.000120201
0.000119522
0.000119773
0.000119266
0.000116834
0.000113793
0.000111361
0.000110217
0.000110173
0.000109509
0.000109372
9.22674e-05
9.93837e-05
7.3918e-05
7.64108e-05
6.34195e-05
6.33885e-05
5.63607e-05
5.4739e-05
5.16455e-05
5.01013e-05
4.58853e-05
4.08509e-05
4.15108e-05
3.82057e-05
3.82162e-05
3.66128e-05
3.73876e-05
3.54361e-05
9.98889e-05
9.95955e-05
9.9478e-05
9.96903e-05
0.000100301
0.000101242
0.000102091
0.000103681
0.000105884
0.000109748
0.000112559
0.000117245
0.000126628
0.000142358
0.000172103
0.000241936
0.000290063
0.000290693
0.000270872
0.000219454
0.000173473
0.000144762
0.000132509
0.000128203
0.00012479
0.00012264
0.000121323
0.000121959
0.000121511
0.000119057
0.000115615
0.000112305
0.000110046
0.000109796
0.000108931
0.000107962
0.000107725
0.000106255
7.99487e-05
8.77936e-05
6.34528e-05
6.7204e-05
5.35843e-05
5.5007e-05
4.71043e-05
4.59226e-05
4.37241e-05
4.10806e-05
3.86721e-05
3.49964e-05
3.48387e-05
3.18649e-05
3.31518e-05
3.16511e-05
3.44867e-05
3.22073e-05
0.000100286
0.000100446
0.000100224
0.000100155
0.00010055
0.000101278
0.000101969
0.000103406
0.000105432
0.000109109
0.000111572
0.000115405
0.000123323
0.000137534
0.000160115
0.000221691
0.000283319
0.000298023
0.000286566
0.000243837
0.000193211
0.000155616
0.00013775
0.000131289
0.000127799
0.000124825
0.000123843
0.000124063
0.000124079
0.000121874
0.000117755
0.000113312
0.000109933
0.000112421
0.00010684
0.000104575
0.000102992
9.68977e-05
9.7856e-05
9.01795e-05
7.5777e-05
8.60579e-05
6.16731e-05
8.06342e-05
5.08388e-05
6.42726e-05
4.05437e-05
4.84274e-05
3.58291e-05
3.66991e-05
3.18732e-05
2.95947e-05
2.91049e-05
2.71472e-05
2.90899e-05
2.73937e-05
3.30564e-05
3.01601e-05
0.000101298
0.000102171
0.000102035
0.00010156
0.000101286
0.000101544
0.000102081
0.000103362
0.00010524
0.000108765
0.000110929
0.000114059
0.000120862
0.000133893
0.000153651
0.000203388
0.000271951
0.000304557
0.000297405
0.000268253
0.000216164
0.000171063
0.000145
0.000135258
0.000130986
0.000127517
0.000125811
0.000125809
0.00012682
0.000124904
0.000120399
0.000115118
0.000101955
0.000102667
9.84931e-05
9.10712e-05
8.38209e-05
7.94956e-05
7.56493e-05
7.54358e-05
7.57998e-05
7.85356e-05
8.10991e-05
8.36825e-05
8.61078e-05
7.31706e-05
8.84425e-05
4.76982e-05
8.23574e-05
3.36464e-05
4.66091e-05
3.07135e-05
2.56775e-05
2.81482e-05
2.54977e-05
2.5825e-05
2.46958e-05
3.54856e-05
2.92399e-05
0.000101798
0.000103635
0.000103957
0.00010345
0.00010275
0.000102373
0.00010259
0.000103554
0.000105312
0.000108794
0.000110661
0.000113159
0.000119013
0.000131026
0.000150119
0.000188822
0.000256773
0.000303701
0.00030609
0.000289781
0.000240917
0.000190534
0.000155975
0.000140789
0.000134826
0.000130963
0.00012848
0.000128104
0.000129129
0.000121207
0.00011416
0.000115235
0.000102921
7.80103e-05
8.06111e-05
8.02692e-05
7.75569e-05
7.9111e-05
8.7895e-05
9.12191e-05
0.000118153
0.000108742
0.000151478
0.000114394
0.000171937
0.000106299
0.000168301
9.79376e-05
0.000138569
8.90285e-05
0.000108585
4.42072e-05
9.18256e-05
4.00298e-05
2.30842e-05
3.50673e-05
2.92316e-05
2.45151e-05
2.27759e-05
4.68543e-05
2.977e-05
0.000103313
0.000108494
0.000109824
0.000108681
0.000107125
0.000104928
0.000103986
0.000104317
0.000105743
0.000109188
0.000110697
0.000112741
0.00011769
0.000128952
0.000147761
0.000180894
0.000243455
0.000298391
0.000315709
0.000304507
0.000265486
0.000212664
0.000170909
0.000148817
0.000140183
0.000134689
0.000132409
0.000131111
0.000131668
0.000118773
0.000109173
0.000105483
0.000105653
8.2687e-05
8.55343e-05
0.00012637
0.000139364
0.000100246
0.000113372
0.000146684
0.000180802
0.000198062
0.000246239
0.000234019
0.000293599
0.000244639
0.000316567
0.000227703
0.000312903
0.000176946
0.000279509
0.000118603
0.000209996
9.01957e-05
0.00012653
8.61418e-05
2.30094e-05
7.75779e-05
6.43328e-05
2.45151e-05
2.05569e-05
7.58978e-05
2.49161e-05
0.000104979
0.000117236
0.000122283
0.000121569
0.000117937
0.000112152
0.000107876
0.000106523
0.000106997
0.000110179
0.000111139
0.000112747
0.000117006
0.000127615
0.000146401
0.000178405
0.00023522
0.000291615
0.000321076
0.000316531
0.000290252
0.000237904
0.00019024
0.000160188
0.000146955
0.000139935
0.000136395
0.000134721
0.000132611
0.000116062
0.000106094
0.000100986
0.000105155
8.57257e-05
6.44968e-05
0.000148631
0.000154278
0.000273415
0.000297475
0.000214624
0.000245785
0.000291991
0.000336618
0.000348126
0.000395799
0.000379421
0.000429076
0.000384787
0.000440193
0.000366992
0.000434269
0.000321572
0.000408342
0.000235563
0.000353604
0.000131084
0.000250876
0.00012989
4.35356e-05
0.000122366
0.000110057
1.79517e-05
2.38482e-05
1.84534e-05
1.61889e-05
0.000104586
0.000126364
0.000140795
0.000144808
0.000138103
0.000127211
0.00011689
0.000111824
0.000109969
0.000111961
0.000112291
0.000113173
0.00011702
0.000127204
0.000146441
0.000178868
0.000232809
0.00028816
0.000324085
0.000329602
0.000311924
0.000265816
0.000215074
0.000177855
0.000156805
0.000146718
0.000140746
0.000138605
0.000136784
0.000116011
0.0001022
9.45752e-05
0.00010778
0.000126841
0.000154623
0.000156316
0.000316068
0.000327719
0.000438964
0.000462363
0.000376614
0.000410444
0.000436284
0.000470981
0.000469216
0.000498614
0.000482866
0.000511372
0.000482604
0.000515804
0.000470319
0.00051144
0.000439651
0.00049667
0.000376707
0.000463035
0.000254494
0.000391611
0.000243445
9.45687e-05
0.000216942
0.000180337
1.69071e-05
6.25452e-05
8.80741e-06
1.0121e-05
0.000117037
0.000145525
0.000164082
0.000168639
0.000156651
0.000136523
0.000123715
0.000116413
0.000115292
0.00011433
0.000114359
0.000117625
0.000127677
0.000147716
0.000182439
0.00023386
0.000287984
0.00032731
0.000339452
0.00032963
0.000294971
0.000246326
0.000203897
0.000175012
0.000156671
0.000147638
0.000144225
0.000140601
0.000117696
0.000102366
8.92805e-05
9.77056e-05
0.00010222
0.000326758
0.000312952
0.000331873
0.000331896
0.000481416
0.00049578
0.000539818
0.000556652
0.000498462
0.000520584
0.000521428
0.00054033
0.000531263
0.000546776
0.000536085
0.000550274
0.000536717
0.000551918
0.000531221
0.000550193
0.000515736
0.000544456
0.000480671
0.000529549
0.000396297
0.000491658
0.000391675
0.000147671
0.000374836
0.000335281
2.03458e-05
0.000104788
6.87804e-06
1.05688e-05
0.000121782
0.000156824
0.000182314
0.00018939
0.000174608
0.000148201
0.000130111
0.000122033
0.000117973
0.000116476
0.000119252
0.000129577
0.000150763
0.000190913
0.00024185
0.000293796
0.000333773
0.000351731
0.000351152
0.000327436
0.000285728
0.000240074
0.000202994
0.000176527
0.000160168
0.000154166
0.000147074
0.000120267
0.000104001
8.85377e-05
9.17112e-05
0.000103486
0.000294791
0.000248069
0.000514508
0.000511811
0.000506816
0.00051344
0.0005718
0.000585045
0.000582069
0.000594002
0.000556133
0.000569701
0.000559236
0.000569379
0.000560195
0.000568202
0.000559987
0.0005647
0.000559244
0.000562982
0.000558834
0.00056555
0.000553562
0.000567003
0.000538738
0.000558585
0.000495414
0.00054312
0.000492257
0.000269042
0.000480153
0.000459892
0.000388612
4.79667e-05
0.000193921
9.01666e-06
4.66159e-05
0.000120441
0.000160193
0.000195223
0.000207109
0.000191225
0.000155721
0.000135178
0.000124882
0.000120016
0.000121906
0.00013317
0.000156537
0.000203378
0.000258929
0.000309284
0.000348556
0.000372362
0.00038018
0.000367599
0.000332477
0.000285881
0.0002415
0.000209722
0.000190873
0.000180704
0.000162911
0.000129639
0.000105699
9.07671e-05
8.99937e-05
0.000105912
0.000333257
0.000497446
0.00050501
0.00061593
0.000621502
0.000597758
0.00060791
0.000605912
0.000618231
0.000600396
0.000611807
0.000579177
0.000589622
0.000575687
0.000583399
0.000569008
0.000574075
0.000565172
0.000566795
0.000569366
0.000573814
0.00057792
0.000588745
0.000575846
0.000597084
0.000560725
0.000583838
0.000541269
0.000561357
0.000553281
0.000516982
0.000535021
0.000441224
0.000339699
0.000429119
0.000504001
0.000527927
0.000529093
0.000496727
8.70862e-05
0.000151041
0.000407721
0.000382266
0.000278971
0.000105335
0.00014598
8.23763e-05
0.000121118
0.000114525
0.000159181
0.000206022
0.000223095
0.000203405
0.000155934
0.000136506
0.000126555
0.000125865
0.000138168
0.000165355
0.000220916
0.000282266
0.000333863
0.000372855
0.000398187
0.000409057
0.000401947
0.000373434
0.000331382
0.000284869
0.000245855
0.000221338
0.000208167
0.000190031
0.000147184
0.000107884
9.54528e-05
9.22669e-05
0.000114123
0.000263457
0.000608817
0.000576587
0.000623623
0.000617186
0.000652703
0.000662289
0.00063102
0.000642031
0.000623846
0.000636519
0.00061649
0.000631422
0.000592468
0.000603474
0.00058067
0.000589135
0.000571016
0.000578269
0.000579082
0.000583189
0.000600427
0.000615324
0.000621319
0.000644991
0.000599324
0.00061641
0.000632041
0.000646627
0.000573505
0.000589176
0.000624237
0.000625533
0.00060665
0.000560083
0.000546806
0.000556062
0.000572884
0.000542398
0.000489187
0.000479829
0.000524634
0.000536268
0.000539398
0.000521194
0.000232508
0.000468185
0.000412163
0.000320893
0.000312005
0.000128224
0.000204552
0.000155773
0.000113017
0.000159614
0.000219046
0.000240017
0.000203471
0.000154631
0.00013821
0.000132168
0.00014478
0.000176888
0.000243895
0.000312802
0.000366789
0.000403915
0.000423501
0.00042811
0.000417852
0.000394486
0.000360005
0.000316093
0.000272629
0.000239376
0.000218946
0.000205439
0.000183316
0.00012184
9.74625e-05
9.06319e-05
0.00012532
0.000221705
0.000614568
0.000675206
0.000686426
0.000668807
0.000675129
0.000670511
0.000680737
0.000649864
0.000659969
0.000647955
0.000665104
0.000639245
0.000662621
0.000601962
0.000618873
0.000588879
0.000603913
0.000591392
0.000604701
0.000625395
0.000636784
0.000656797
0.000667953
0.000653976
0.000660256
0.000663089
0.00066612
0.000639865
0.000649599
0.000654993
0.000588978
0.000606793
0.000637746
0.000626098
0.000621966
0.000569247
0.000551888
0.000563799
0.000585375
0.000547148
0.00051749
0.000512823
0.000532954
0.000541895
0.000536382
0.000530238
0.000279083
0.000496199
0.000458077
0.000366558
0.000192583
0.000165723
0.000402995
0.000240225
0.000247058
0.000191165
0.000112173
0.000167901
0.000240837
0.000250111
0.000197231
0.0001526
0.000142238
0.000153251
0.000191284
0.000271527
0.000350148
0.000406733
0.000438542
0.000446343
0.00043706
0.000419177
0.000396896
0.000367231
0.000328771
0.000286504
0.000249628
0.000226211
0.000215154
0.000199226
0.000170331
0.000111149
9.11789e-05
0.000121661
0.000187683
0.000547602
0.000708038
0.000693535
0.000705734
0.000711302
0.000690575
0.000700146
0.000708155
0.00071796
0.000682477
0.000697355
0.000688022
0.000713282
0.00068145
0.000714974
0.000624771
0.00065083
0.000622181
0.000645829
0.00065047
0.000667961
0.000676573
0.000641858
0.000665754
0.00066818
0.000668354
0.000655148
0.000657204
0.000658715
0.000658141
0.000656173
0.000643905
0.000647779
0.000648481
0.000597795
0.000582146
0.000612777
0.000576031
0.000572405
0.000578634
0.000556964
0.000560246
0.00056266
0.000549116
0.000527587
0.000524114
0.000531299
0.000540549
0.000531821
0.000526556
0.000335062
0.000519359
0.000513306
0.000433423
0.000247509
0.000213641
0.000223689
0.000207434
0.000280791
0.000112589
0.000192405
0.000270196
0.000247006
0.000175125
0.000160097
0.000163998
0.000208084
0.000303405
0.000393198
0.00045238
0.000477046
0.000471939
0.000451312
0.000423557
0.000397188
0.000369162
0.00033547
0.000296126
0.00025944
0.000240287
0.000226005
0.000210936
0.000192569
0.000173804
0.000119096
0.000125193
0.000167284
0.000390655
0.000707383
0.00073463
0.000735915
0.000730855
0.000733808
0.000724227
0.000727901
0.000773287
0.000786199
0.000737672
0.000758711
0.000748831
0.000781082
0.000748546
0.000785049
0.000676115
0.00071092
0.000670013
0.000666229
0.000607836
0.000576236
0.000668678
0.000613406
0.000623696
0.000540306
0.000653585
0.000651622
0.000650889
0.000652008
0.000645551
0.000639997
0.000633362
0.000626903
0.000615417
0.000632269
0.000624869
0.000542854
0.000536275
0.0005849
0.000559679
0.000543244
0.00053174
0.000535294
0.000506572
0.000514647
0.000518056
0.000521634
0.000515882
0.000522976
0.000506661
0.000502482
0.000513963
0.000411253
0.000508918
0.00049997
0.000507307
0.000363737
0.000349541
0.000369905
0.000213624
0.000167128
0.000118643
0.000246704
0.000284586
0.000230986
0.000176333
0.00018177
0.000226916
0.000338304
0.000441023
0.000503411
0.000523234
0.000513457
0.000496037
0.000481223
0.000464424
0.000441258
0.000411495
0.00037354
0.000329014
0.000290845
0.000259124
0.000238327
0.000213623
0.00019002
0.000170724
0.000157812
0.000166142
0.00029352
0.000685169
0.000763443
0.000745472
0.000776014
0.000770925
0.00079238
0.000785546
0.000795054
0.000797079
0.000856669
0.000873871
0.000810916
0.000836835
0.000819334
0.000851922
0.000720611
0.000752271
0.000675067
0.000694395
0.000561192
0.000557603
0.000528968
0.00049971
0.000639331
0.000616747
0.000585916
0.000546556
0.000621526
0.000617879
0.000616492
0.000617756
0.000614837
0.000604055
0.000594067
0.000585811
0.000604208
0.000600737
0.000587433
0.00050838
0.000519171
0.000580207
0.000557387
0.000537905
0.000488797
0.000486582
0.000469594
0.000488378
0.000472692
0.000504608
0.000494984
0.0005042
0.000467009
0.000466301
0.000497143
0.00050559
0.000484074
0.000472929
0.000491235
0.000505624
0.000504332
0.000394514
0.000391223
0.000143623
0.000152472
0.00030264
0.000276746
0.000201801
0.00019598
0.000248958
0.000374299
0.000492392
0.000560163
0.000581898
0.000583893
0.000595246
0.000614788
0.000626052
0.000621849
0.000606273
0.000576817
0.000526106
0.000454945
0.000381335
0.000322308
0.000275085
0.000229288
0.000196734
0.000178095
0.000173799
0.000247446
0.000627387
0.000756667
0.000828744
0.000813842
0.00087129
0.000852329
0.000891315
0.000884982
0.000886379
0.000892127
0.000935461
0.000957492
0.000882382
0.00091034
0.000798028
0.000863017
0.000578507
0.000594368
0.000558724
0.000570841
0.000474426
0.000465153
0.000496656
0.000460405
0.000434766
0.00045394
0.000617866
0.00057925
0.000536272
0.000512384
0.000579902
0.000576744
0.000576578
0.00057927
0.000574224
0.00056253
0.000552851
0.000545421
0.000576131
0.000560745
0.000546517
0.000499862
0.000516761
0.000552202
0.000529389
0.000532661
0.000469723
0.000455158
0.000455267
0.000483262
0.000446539
0.000482959
0.000468446
0.0004744
0.000444337
0.000446815
0.000479632
0.00048864
0.000454342
0.000441281
0.000463672
0.000494269
0.000497723
0.000223538
0.000157509
0.000141884
0.00027413
0.00031162
0.000244812
0.000216888
0.000270211
0.000408818
0.00054552
0.000621921
0.000652763
0.00067922
0.000724957
0.000773483
0.000800696
0.000807377
0.000799412
0.000781164
0.000748887
0.000711288
0.000670802
0.000637513
0.000573413
0.000456295
0.000330912
0.000235414
0.00020625
0.000240867
0.000541305
0.000714454
0.00089545
0.000851635
0.00095275
0.00093059
0.000989963
0.000975927
0.000997135
0.000998111
0.000976056
0.000989736
0.000972995
0.00101027
0.000901807
0.000935464
0.000625365
0.000664973
0.000434192
0.000438019
0.000450321
0.000442564
0.000427687
0.000403807
0.000352775
0.000455863
0.000432715
0.000399436
0.000414007
0.000584256
0.000544065
0.000503739
0.000478191
0.000540613
0.0005386
0.000539676
0.000543552
0.000533604
0.000522457
0.000514659
0.00050982
0.00053495
0.000518974
0.000505343
0.000498562
0.000508214
0.000510124
0.000487156
0.00050824
0.000468791
0.000445074
0.000457247
0.000482116
0.00043926
0.000460625
0.000441938
0.000456504
0.000438049
0.000441123
0.000462225
0.000465507
0.000424659
0.00041227
0.000434816
0.000479532
0.000490012
0.00021893
0.000176498
0.000149727
0.000345693
0.00029472
0.000246084
0.000288809
0.000438435
0.000598162
0.0006864
0.000730279
0.000784346
0.000860654
0.000926342
0.000959941
0.000969105
0.000964896
0.00095274
0.000939215
0.000930326
0.000958429
0.000982134
0.000942695
0.000844826
0.00067604
0.000460745
0.000282865
0.000259036
0.000482644
0.000652063
0.000895133
0.00104753
0.00103409
0.00109097
0.00107451
0.00110644
0.00110319
0.00108889
0.00110221
0.00104213
0.00106804
0.00089856
0.00101206
0.000720614
0.000798245
0.000457566
0.000489012
0.000273947
0.000277959
0.000312311
0.00028901
0.0003862
0.000365846
0.000288211
0.000269575
0.000410393
0.000388273
0.000344539
0.000365675
0.000546473
0.000501421
0.000463808
0.00043467
0.000507799
0.000508146
0.000510864
0.000515579
0.000494903
0.000487322
0.00048337
0.000482015
0.000492766
0.000478712
0.000469783
0.000487708
0.0004843
0.000468214
0.000444964
0.000466256
0.000469214
0.000448737
0.000460143
0.000471746
0.000445119
0.000439607
0.000416802
0.000452119
0.000442501
0.000445206
0.000444624
0.00044375
0.000398689
0.000387466
0.000409583
0.000465931
0.000426642
0.000218905
0.000116353
0.000162426
0.000351039
0.000277808
0.000302836
0.000462289
0.00064647
0.000751635
0.000808188
0.000886648
0.000989412
0.0010615
0.00108828
0.00109513
0.00109049
0.00108541
0.00108472
0.00110881
0.00116318
0.00117953
0.00114872
0.00106445
0.000926722
0.000730961
0.000508437
0.000336688
0.0004803
0.000604678
0.000836857
0.00117069
0.00112667
0.00120301
0.00118921
0.00121815
0.00121459
0.00120105
0.00121442
0.00115256
0.00118085
0.00106901
0.00111478
0.000703194
0.000798535
0.000541968
0.00061374
0.000296391
0.000331581
0.000204242
0.000216513
0.000252356
0.000238157
0.000215755
0.000322505
0.000301159
0.00024528
0.000227057
0.000362953
0.000340446
0.000297122
0.000318251
0.00049343
0.000449512
0.00041503
0.000387368
0.000482939
0.000485821
0.000490249
0.000491371
0.00046326
0.000459302
0.000459202
0.000460882
0.000452773
0.00044208
0.000437358
0.000463437
0.000447124
0.000427842
0.000403209
0.000423372
0.000460738
0.000454628
0.000454091
0.000448156
0.000450369
0.000417654
0.000394355
0.000448128
0.000448007
0.000444514
0.000422341
0.00042571
0.00037588
0.000365574