/*--------------------------------*- C++ -*----------------------------------*\
  =========                 |
  \\      /  F ield         | OpenFOAM: The Open Source CFD Toolbox
   \\    /   O peration     | Website:  https://openfoam.org
    \\  /    A nd           | Version:  dev
     \\/     M anipulation  |
\*---------------------------------------------------------------------------*/
FoamFile
{
    version     2.0;
    format      ascii;
    class       volScalarField;
    location    "2500";
    object      O2;
}
// * * * * * * * * * * * * * * * * * * * * * * * * * * * * * * * * * * * * * //

dimensions      [0 0 0 0 0 0 0];

internalField   nonuniform List<scalar> 
9842
(
0.23301
0.23301
0.23301
0.23301
0.23301
0.23301
0.23301
0.23301
0.23301
0.23301
0.23301
0.23301
0.23301
0.23301
0.23301
0.23301
0.23301
0.23301
0.23301
0.23301
0.23301
0.23301
0.23301
0.23301
0.23301
0.23301
0.23301
0.23301
0.23301
0.23301
0.23301
0.23301
0.23301
0.23301
0.23301
0.23301
0.23301
0.23301
0.23301
0.23301
0.23301
0.23301
0.23301
0.23301
0.23301
0.23301
0.23301
0.23301
0.23301
0.23301
0.23301
0.23301
0.23301
0.23301
0.23301
0.23301
0.23301
0.23301
0.23301
0.23301
0.23301
0.23301
0.23301
0.23301
0.23301
0.23301
0.23301
0.23301
0.23301
0.23301
0.23301
0.23301
0.23301
0.23301
0.23301
0.23301
0.23301
0.23301
0.23301
0.23301
0.23301
0.23301
0.23301
0.23301
0.23301
0.23301
0.23301
0.23301
0.23301
0.23301
0.23301
0.23301
0.23301
0.23301
0.23301
0.23301
0.23301
0.23301
0.23301
0.23301
0.23301
0.23301
0.23301
0.23301
0.23301
0.23301
0.23301
0.23301
0.23301
0.23301
0.23301
0.23301
0.23301
0.23301
0.23301
0.23301
0.23301
0.23301
0.23301
0.23301
0.23301
0.23301
0.23301
0.23301
0.23301
0.23301
0.23301
0.23301
0.23301
0.23301
0.23301
0.23301
0.23301
0.23301
0.23301
0.23301
0.23301
0.23301
0.23301
0.23301
0.23301
0.23301
0.23301
0.23301
0.23301
0.23301
0.23301
0.23301
0.23301
0.23301
0.23301
0.23301
0.23301
0.23301
0.23301
0.23301
0.23301
0.23301
0.23301
0.23301
0.23301
0.23301
0.23301
0.23301
0.23301
0.23301
0.23301
0.23301
0.23301
0.23301
0.23301
0.23301
0.23301
0.23301
0.23301
0.23301
0.23301
0.23301
0.23301
0.23301
0.23301
0.23301
0.23301
0.23301
0.23301
0.23301
0.23301
0.23301
0.23301
0.23301
0.23301
0.23301
0.23301
0.23301
0.23301
0.23301
0.23301
0.23301
0.23301
0.23301
0.23301
0.23301
0.23301
0.23301
0.23301
0.23301
0.23301
0.23301
0.23301
0.23301
0.23301
0.23301
0.23301
0.23301
0.23301
0.23301
0.23301
0.23301
0.23301
0.23301
0.23301
0.23301
0.23301
0.23301
0.23301
0.23301
0.23301
0.23301
0.23301
0.23301
0.23301
0.23301
0.23301
0.23301
0.23301
0.23301
0.23301
0.23301
0.23301
0.23301
0.23301
0.23301
0.23301
0.23301
0.23301
0.23301
0.23301
0.23301
0.23301
0.23301
0.23301
0.23301
0.23301
0.23301
0.23301
0.23301
0.23301
0.23301
0.23301
0.23301
0.23301
0.23301
0.23301
0.23301
0.23301
0.23301
0.23301
0.23301
0.23301
0.23301
0.23301
0.23301
0.23301
0.23301
0.23301
0.23301
0.23301
0.23301
0.23301
0.23301
0.23301
0.23301
0.23301
0.23301
0.23301
0.23301
0.23301
0.23301
0.23301
0.23301
0.23301
0.23301
0.23301
0.23301
0.23301
0.23301
0.23301
0.23301
0.23301
0.23301
0.23301
0.23301
0.23301
0.23301
0.23301
0.23301
0.23301
0.23301
0.23301
0.23301
0.23301
0.23301
0.23301
0.23301
0.23301
0.23301
0.23301
0.23301
0.23301
0.23301
0.23301
0.23301
0.23301
0.23301
0.23301
0.23301
0.23301
0.23301
0.23301
0.23301
0.23301
0.23301
0.23301
0.23301
0.23301
0.23301
0.23301
0.23301
0.23301
0.23301
0.23301
0.23301
0.23301
0.23301
0.23301
0.23301
0.23301
0.23301
0.23301
0.23301
0.23301
0.23301
0.23301
0.23301
0.23301
0.23301
0.23301
0.23301
0.23301
0.23301
0.23301
0.23301
0.23301
0.23301
0.23301
0.23301
0.23301
0.23301
0.23301
0.23301
0.23301
0.23301
0.23301
0.23301
0.23301
0.23301
0.23301
0.23301
0.23301
0.23301
0.23301
0.23301
0.23301
0.23301
0.23301
0.23301
0.23301
0.23301
0.23301
0.23301
0.23301
0.23301
0.23301
0.23301
0.23301
0.23301
0.23301
0.23301
0.23301
0.23301
0.23301
0.23301
0.23301
0.23301
0.23301
0.23301
0.23301
0.23301
0.23301
0.23301
0.23301
0.23301
0.23301
0.23301
0.23301
0.23301
0.23301
0.23301
0.23301
0.23301
0.23301
0.23301
0.23301
0.23301
0.23301
0.23301
0.23301
0.23301
0.23301
0.23301
0.23301
0.23301
0.23301
0.23301
0.23301
0.23301
0.23301
0.23301
0.23301
0.23301
0.23301
0.23301
0.23301
0.23301
0.23301
0.23301
0.23301
0.23301
0.23301
0.23301
0.23301
0.23301
0.23301
0.23301
0.23301
0.23301
0.23301
0.23301
0.23301
0.23301
0.23301
0.23301
0.23301
0.23301
0.23301
0.23301
0.23301
0.23301
0.23301
0.23301
0.23301
0.23301
0.23301
0.23301
0.23301
0.23301
0.23301
0.23301
0.23301
0.23301
0.23301
0.23301
0.23301
0.23301
0.23301
0.23301
0.23301
0.23301
0.23301
0.23301
0.23301
0.23301
0.23301
0.23301
0.23301
0.23301
0.23301
0.23301
0.23301
0.23301
0.23301
0.23301
0.23301
0.23301
0.23301
0.23301
0.23301
0.23301
0.23301
0.23301
0.23301
0.23301
0.23301
0.23301
0.23301
0.23301
0.23301
0.23301
0.23301
0.23301
0.23301
0.23301
0.23301
0.23301
0.23301
0.23301
0.23301
0.23301
0.23301
0.23301
0.23301
0.23301
0.23301
0.23301
0.23301
0.23301
0.23301
0.23301
0.23301
0.23301
0.23301
0.23301
0.23301
0.23301
0.23301
0.23301
0.23301
0.23301
0.23301
0.23301
0.23301
0.23301
0.23301
0.23301
0.23301
0.23301
0.23301
0.23301
0.23301
0.23301
0.23301
0.23301
0.23301
0.23301
0.23301
0.23301
0.23301
0.23301
0.23301
0.23301
0.23301
0.23301
0.23301
0.23301
0.23301
0.23301
0.23301
0.23301
0.23301
0.23301
0.23301
0.23301
0.23301
0.23301
0.23301
0.23301
0.23301
0.23301
0.23301
0.23301
0.23301
0.23301
0.23301
0.23301
0.23301
0.23301
0.23301
0.23301
0.23301
0.23301
0.23301
0.23301
0.23301
0.23301
0.23301
0.23301
0.23301
0.23301
0.23301
0.23301
0.23301
0.23301
0.23301
0.23301
0.23301
0.23301
0.23301
0.23301
0.23301
0.23301
0.23301
0.23301
0.23301
0.23301
0.23301
0.23301
0.23301
0.23301
0.23301
0.23301
0.23301
0.23301
0.23301
0.23301
0.23301
0.23301
0.23301
0.23301
0.23301
0.23301
0.23301
0.23301
0.23301
0.23301
0.23301
0.23301
0.23301
0.23301
0.23301
0.23301
0.23301
0.23301
0.23301
0.23301
0.23301
0.23301
0.23301
0.23301
0.23301
0.23301
0.23301
0.23301
0.23301
0.23301
0.23301
0.23301
0.23301
0.23301
0.23301
0.23301
0.23301
0.23301
0.23301
0.23301
0.23301
0.23301
0.23301
0.23301
0.23301
0.23301
0.23301
0.23301
0.23301
0.23301
0.23301
0.23301
0.23301
0.23301
0.23301
0.23301
0.23301
0.23301
0.23301
0.23301
0.23301
0.23301
0.23301
0.23301
0.23301
0.23301
0.23301
0.23301
0.23301
0.23301
0.23301
0.23301
0.23301
0.23301
0.23301
0.23301
0.23301
0.23301
0.23301
0.23301
0.23301
0.23301
0.23301
0.23301
0.23301
0.23301
0.23301
0.23301
0.23301
0.23301
0.23301
0.23301
0.23301
0.23301
0.23301
0.23301
0.23301
0.23301
0.23301
0.23301
0.23301
0.23301
0.23301
0.23301
0.23301
0.23301
0.23301
0.23301
0.23301
0.23301
0.23301
0.23301
0.23301
0.23301
0.23301
0.23301
0.23301
0.23301
0.23301
0.23301
0.23301
0.23301
0.23301
0.23301
0.23301
0.23301
0.23301
0.23301
0.23301
0.23301
0.23301
0.23301
0.23301
0.23301
0.23301
0.23301
0.23301
0.23301
0.23301
0.23301
0.23301
0.23301
0.23301
0.23301
0.23301
0.23301
0.23301
0.23301
0.23301
0.23301
0.23301
0.23301
0.23301
0.23301
0.23301
0.23301
0.23301
0.23301
0.23301
0.23301
0.23301
0.23301
0.23301
0.23301
0.23301
0.23301
0.23301
0.23301
0.23301
0.23301
0.23301
0.23301
0.23301
0.23301
0.23301
0.23301
0.23301
0.23301
0.23301
0.23301
0.23301
0.23301
0.23301
0.23301
0.23301
0.23301
0.23301
0.23301
0.23301
0.23301
0.23301
0.23301
0.23301
0.23301
0.23301
0.23301
0.23301
0.23301
0.23301
0.23301
0.23301
0.23301
0.23301
0.23301
0.23301
0.23301
0.23301
0.23301
0.23301
0.23301
0.23301
0.23301
0.23301
0.23301
0.23301
0.23301
0.23301
0.23301
0.23301
0.23301
0.23301
0.23301
0.23301
0.23301
0.23301
0.23301
0.23301
0.23301
0.23301
0.23301
0.23301
0.23301
0.23301
0.23301
0.23301
0.23301
0.23301
0.23301
0.23301
0.23301
0.23301
0.23301
0.23301
0.23301
0.23301
0.23301
0.23301
0.23301
0.23301
0.23301
0.23301
0.23301
0.23301
0.23301
0.23301
0.23301
0.23301
0.23301
0.23301
0.23301
0.23301
0.23301
0.23301
0.23301
0.23301
0.23301
0.23301
0.23301
0.23301
0.23301
0.23301
0.23301
0.23301
0.23301
0.23301
0.23301
0.23301
0.23301
0.23301
0.23301
0.23301
0.23301
0.23301
0.23301
0.23301
0.23301
0.23301
0.23301
0.23301
0.23301
0.23301
0.23301
0.23301
0.23301
0.23301
0.23301
0.23301
0.23301
0.23301
0.23301
0.23301
0.23301
0.23301
0.23301
0.23301
0.23301
0.23301
0.23301
0.23301
0.23301
0.23301
0.23301
0.23301
0.23301
0.23301
0.23301
0.23301
0.23301
0.23301
0.23301
0.23301
0.23301
0.23301
0.23301
0.23301
0.23301
0.23301
0.23301
0.23301
0.23301
0.23301
0.23301
0.23301
0.23301
0.23301
0.23301
0.23301
0.23301
0.23301
0.23301
0.23301
0.23301
0.23301
0.23301
0.23301
0.23301
0.23301
0.23301
0.23301
0.23301
0.23301
0.23301
0.23301
0.23301
0.23301
0.23301
0.23301
0.23301
0.23301
0.23301
0.23301
0.23301
0.23301
0.23301
0.23301
0.23301
0.23301
0.23301
0.23301
0.23301
0.23301
0.23301
0.23301
0.23301
0.23301
0.23301
0.23301
0.23301
0.23301
0.23301
0.23301
0.23301
0.23301
0.23301
0.23301
0.23301
0.23301
0.23301
0.23301
0.23301
0.23301
0.23301
0.23301
0.23301
0.23301
0.23301
0.23301
0.23301
0.23301
0.23301
0.23301
0.23301
0.23301
0.23301
0.23301
0.23301
0.23301
0.23301
0.23301
0.23301
0.23301
0.23301
0.23301
0.233009
0.233009
0.233009
0.233009
0.233008
0.23301
0.233008
0.23301
0.233009
0.23301
0.23301
0.23301
0.23301
0.23301
0.23301
0.23301
0.23301
0.23301
0.23301
0.23301
0.23301
0.23301
0.23301
0.23301
0.23301
0.23301
0.23301
0.23301
0.23301
0.23301
0.23301
0.23301
0.23301
0.23301
0.23301
0.23301
0.23301
0.23301
0.23301
0.23301
0.23301
0.23301
0.23301
0.23301
0.23301
0.23301
0.23301
0.23301
0.23301
0.23301
0.23301
0.23301
0.23301
0.233009
0.233009
0.233008
0.233006
0.233007
0.233002
0.233005
0.232998
0.233005
0.232995
0.233006
0.232997
0.233008
0.233002
0.233009
0.233007
0.233009
0.23301
0.233009
0.23301
0.23301
0.23301
0.23301
0.23301
0.23301
0.23301
0.23301
0.23301
0.23301
0.23301
0.23301
0.23301
0.23301
0.23301
0.23301
0.23301
0.23301
0.23301
0.23301
0.23301
0.23301
0.23301
0.23301
0.23301
0.23301
0.23301
0.23301
0.23301
0.23301
0.23301
0.23301
0.23301
0.23301
0.23301
0.23301
0.23301
0.233008
0.233008
0.233007
0.233003
0.232999
0.232995
0.232978
0.232982
0.232946
0.232971
0.232915
0.232971
0.232903
0.232981
0.232922
0.232996
0.232958
0.233006
0.23299
0.233006
0.23301
0.233007
0.233008
0.23301
0.23301
0.23301
0.23301
0.23301
0.23301
0.23301
0.23301
0.23301
0.23301
0.23301
0.23301
0.23301
0.23301
0.23301
0.23301
0.23301
0.23301
0.23301
0.23301
0.23301
0.23301
0.23301
0.23301
0.23301
0.23301
0.23301
0.23301
0.23301
0.23301
0.23301
0.23301
0.23301
0.23301
0.23301
0.23301
0.233008
0.232979
0.232973
0.232993
0.232987
0.232954
0.232918
0.232881
0.232784
0.232791
0.232606
0.232747
0.232468
0.232773
0.232445
0.232843
0.232565
0.232928
0.232741
0.232985
0.232899
0.232984
0.233009
0.232988
0.232995
0.23301
0.23301
0.23301
0.23301
0.23301
0.23301
0.23301
0.23301
0.23301
0.23301
0.23301
0.23301
0.23301
0.23301
0.23301
0.23301
0.23301
0.23301
0.23301
0.23301
0.23301
0.23301
0.23301
0.23301
0.23301
0.23301
0.23301
0.23301
0.23301
0.23301
0.23301
0.23301
0.23301
0.23301
0.23301
0.23301
0.233009
0.23297
0.232969
0.232793
0.232758
0.232878
0.232834
0.232668
0.23253
0.232386
0.232151
0.232134
0.231787
0.232001
0.231522
0.232032
0.231422
0.232287
0.231553
0.232629
0.23198
0.232879
0.232529
0.232876
0.233003
0.232894
0.232929
0.23301
0.233008
0.23301
0.23301
0.23301
0.23301
0.23301
0.23301
0.23301
0.23301
0.23301
0.23301
0.23301
0.23301
0.23301
0.23301
0.23301
0.23301
0.23301
0.23301
0.23301
0.23301
0.23301
0.23301
0.23301
0.23301
0.23301
0.23301
0.23301
0.23301
0.23301
0.23301
0.23301
0.23301
0.23301
0.23301
0.233007
0.232971
0.232992
0.23274
0.232736
0.232172
0.232093
0.232397
0.232276
0.231918
0.231689
0.231448
0.231129
0.231053
0.23062
0.230808
0.230229
0.23077
0.230022
0.231034
0.230084
0.231683
0.230521
0.232466
0.231443
0.232464
0.232968
0.232534
0.23266
0.23301
0.232996
0.23301
0.23301
0.23301
0.23301
0.233009
0.233009
0.233009
0.23301
0.23301
0.23301
0.23301
0.23301
0.23301
0.23301
0.23301
0.23301
0.23301
0.23301
0.23301
0.23301
0.23301
0.23301
0.23301
0.23301
0.23301
0.23301
0.23301
0.23301
0.23301
0.23301
0.23301
0.23301
0.23301
0.23301
0.233008
0.232883
0.232742
0.232724
0.232053
0.232046
0.231191
0.231092
0.23149
0.231325
0.230838
0.230571
0.230229
0.229881
0.229707
0.229251
0.22934
0.228741
0.229203
0.228424
0.229404
0.228393
0.230073
0.228772
0.231318
0.229722
0.231348
0.232809
0.231562
0.231881
0.233007
0.232937
0.23301
0.23301
0.23301
0.233009
0.233008
0.233008
0.233008
0.233009
0.23301
0.23301
0.23301
0.23301
0.23301
0.23301
0.23301
0.23301
0.23301
0.23301
0.23301
0.23301
0.23301
0.23301
0.23301
0.23301
0.23301
0.23301
0.23301
0.23301
0.23301
0.23301
0.23301
0.23301
0.23301
0.233009
0.232948
0.232138
0.232225
0.232054
0.232076
0.231042
0.231035
0.230028
0.229928
0.230347
0.230168
0.229569
0.2293
0.228859
0.22852
0.228231
0.227809
0.227759
0.227211
0.227531
0.226805
0.227658
0.226693
0.228273
0.226993
0.229533
0.227921
0.229533
0.232283
0.229784
0.230309
0.232998
0.232721
0.23301
0.233007
0.233009
0.233008
0.233007
0.233006
0.233007
0.233008
0.233009
0.23301
0.23301
0.23301
0.23301
0.23301
0.23301
0.23301
0.23301
0.23301
0.23301
0.23301
0.23301
0.23301
0.233009
0.233009
0.23301
0.23301
0.23301
0.23301
0.23301
0.23301
0.23301
0.23301
0.233009
0.232966
0.232321
0.232529
0.231164
0.231276
0.231045
0.231078
0.229883
0.229883
0.228778
0.228693
0.22908
0.228909
0.228226
0.227986
0.227463
0.227177
0.226775
0.226437
0.226234
0.225807
0.225965
0.225486
0.226028
0.225468
0.226555
0.225665
0.227738
0.226315
0.227771
0.231135
0.228014
0.22838
0.229638
0.232938
0.231985
0.232998
0.232954
0.233009
0.233007
0.233005
0.233004
0.233005
0.233008
0.233009
0.23301
0.23301
0.23301
0.23301
0.23301
0.23301
0.23301
0.23301
0.233009
0.233009
0.233009
0.233009
0.233008
0.233008
0.233008
0.233009
0.233009
0.233009
0.23301
0.23301
0.23301
0.23301
0.233009
0.232985
0.232306
0.231483
0.231543
0.230055
0.230198
0.229898
0.229946
0.228665
0.22867
0.227563
0.227513
0.2278
0.227661
0.226942
0.226763
0.226176
0.225969
0.225493
0.225265
0.225177
0.224957
0.225163
0.22499
0.225255
0.22509
0.225473
0.225207
0.226196
0.22536
0.225742
0.227063
0.226253
0.22874
0.23047
0.229069
0.227387
0.226426
0.226381
0.227569
0.232835
0.232392
0.229523
0.229904
0.231254
0.232849
0.232451
0.232772
0.232457
0.233009
0.233007
0.233003
0.233002
0.233003
0.233008
0.233009
0.23301
0.23301
0.23301
0.23301
0.23301
0.23301
0.233009
0.233008
0.233007
0.233006
0.233006
0.233006
0.233005
0.233005
0.233006
0.233007
0.233008
0.233009
0.23301
0.23301
0.23301
0.233009
0.232996
0.232596
0.230855
0.231286
0.230407
0.230612
0.228891
0.229053
0.228696
0.228762
0.22751
0.227524
0.226504
0.226502
0.226635
0.226549
0.225812
0.225707
0.225093
0.224968
0.224786
0.224646
0.224855
0.224732
0.22501
0.224969
0.225148
0.225147
0.225166
0.225203
0.225235
0.225204
0.225233
0.225309
0.225225
0.225392
0.225738
0.225338
0.225231
0.225732
0.227848
0.228177
0.226605
0.225862
0.225777
0.226793
0.231541
0.228505
0.228768
0.23018
0.231046
0.232336
0.231516
0.231401
0.233009
0.233006
0.233001
0.232999
0.233003
0.233008
0.233009
0.23301
0.23301
0.23301
0.23301
0.233009
0.233007
0.233005
0.233001
0.232999
0.232998
0.232998
0.232998
0.232998
0.233
0.233002
0.233005
0.233007
0.233008
0.233009
0.233009
0.233009
0.233002
0.232793
0.231107
0.229847
0.229971
0.22928
0.229498
0.227802
0.227974
0.227567
0.227662
0.226516
0.226559
0.22563
0.225667
0.225644
0.225619
0.224892
0.224866
0.224534
0.224468
0.224618
0.22451
0.224935
0.224896
0.225243
0.22528
0.2253
0.225312
0.225282
0.22535
0.225409
0.225207
0.225276
0.225406
0.225519
0.225397
0.225231
0.225366
0.225231
0.225233
0.225375
0.227029
0.227276
0.225976
0.225404
0.225448
0.226121
0.230264
0.227494
0.227661
0.22891
0.228453
0.231191
0.229713
0.228132
0.23008
0.229579
0.233009
0.233004
0.232997
0.232996
0.233004
0.233009
0.23301
0.23301
0.23301
0.23301
0.233008
0.233004
0.232997
0.232988
0.23298
0.232976
0.232975
0.232977
0.23298
0.232984
0.23299
0.232996
0.233
0.233004
0.233006
0.233008
0.233008
0.233004
0.23291
0.231785
0.229324
0.229896
0.228734
0.229044
0.228197
0.228434
0.226937
0.227114
0.226651
0.226778
0.225755
0.225898
0.22506
0.225251
0.224882
0.224936
0.224462
0.224489
0.22443
0.224408
0.224846
0.224793
0.225316
0.22532
0.225321
0.225327
0.225453
0.225481
0.2255
0.225516
0.225492
0.225553
0.225579
0.225337
0.225486
0.225608
0.225684
0.225619
0.225254
0.22524
0.225271
0.225392
0.225243
0.226287
0.226452
0.22551
0.225247
0.225249
0.225587
0.228875
0.226605
0.226733
0.227741
0.2282
0.227462
0.231354
0.228237
0.228613
0.233009
0.233001
0.232994
0.232997
0.233006
0.233009
0.23301
0.23301
0.233009
0.233006
0.232998
0.232981
0.232957
0.232934
0.232919
0.232915
0.232919
0.232928
0.23294
0.232955
0.232974
0.232985
0.232994
0.232999
0.233002
0.233004
0.233003
0.232963
0.232304
0.229803
0.22846
0.228626
0.227815
0.22808
0.227324
0.227545
0.226407
0.226586
0.226061
0.226231
0.225464
0.225689
0.225008
0.225321
0.22457
0.224748
0.224441
0.224547
0.224789
0.224842
0.225331
0.225343
0.225352
0.225375
0.225534
0.225558
0.225586
0.225623
0.225586
0.225589
0.225599
0.225624
0.225641
0.225638
0.225619
0.225562
0.225694
0.225688
0.225703
0.22573
0.225429
0.225274
0.225446
0.22562
0.225264
0.225675
0.225771
0.225252
0.225242
0.225209
0.225257
0.227673
0.225874
0.22597
0.226795
0.227422
0.227145
0.227072
0.231462
0.228211
0.233008
0.232996
0.232992
0.233001
0.233008
0.23301
0.23301
0.233009
0.233004
0.232988
0.232953
0.232897
0.232837
0.232785
0.232758
0.232761
0.232785
0.232819
0.232863
0.232915
0.232943
0.23296
0.232971
0.23298
0.232989
0.232994
0.232972
0.232631
0.230662
0.228223
0.228769
0.227684
0.227954
0.227184
0.227403
0.226775
0.226966
0.226292
0.226453
0.225909
0.226111
0.225653
0.225966
0.225606
0.226069
0.224786
0.225159
0.225007
0.225345
0.225675
0.225935
0.225665
0.225714
0.225766
0.225831
0.225668
0.225731
0.225807
0.225891
0.225598
0.225589
0.225599
0.225639
0.22565
0.225584
0.225513
0.225743
0.22576
0.225608
0.225525
0.225687
0.225655
0.225445
0.225668
0.225772
0.225421
0.225266
0.225278
0.225165
0.225375
0.225304
0.225112
0.226746
0.2253
0.225332
0.226018
0.226607
0.226573
0.226877
0.229448
0.227484
0.233004
0.232991
0.232993
0.233004
0.233008
0.23301
0.233009
0.233001
0.232974
0.232909
0.2328
0.232667
0.232544
0.232484
0.232493
0.232546
0.232621
0.232706
0.232783
0.232827
0.232845
0.232857
0.232889
0.232926
0.232954
0.232963
0.232781
0.231466
0.228796
0.227704
0.227846
0.227243
0.227432
0.226901
0.227054
0.226605
0.22675
0.226594
0.226708
0.226231
0.226438
0.226489
0.226821
0.227018
0.227547
0.225832
0.226415
0.226379
0.226971
0.226471
0.226663
0.227162
0.22688
0.225984
0.226086
0.226197
0.226325
0.22571
0.225813
0.22595
0.226099
0.225459
0.225443
0.225468
0.225544
0.225477
0.225341
0.225227
0.225774
0.225652
0.225323
0.225154
0.225429
0.225785
0.22566
0.225786
0.225777
0.22563
0.225057
0.224991
0.22521
0.225571
0.225478
0.225093
0.226018
0.224927
0.224874
0.225372
0.226033
0.226235
0.226675
0.229735
0.227605
0.232994
0.232989
0.232998
0.233007
0.233009
0.233008
0.232998
0.232956
0.232851
0.232667
0.232437
0.232251
0.232175
0.232195
0.232283
0.232402
0.232519
0.232594
0.232581
0.23251
0.232485
0.232557
0.232691
0.232818
0.232916
0.232805
0.231988
0.229492
0.227721
0.228073
0.227375
0.227516
0.227113
0.227214
0.22694
0.227018
0.226791
0.226864
0.227265
0.227279
0.227053
0.227192
0.227938
0.228168
0.228988
0.229421
0.227674
0.228372
0.227474
0.227874
0.228829
0.227013
0.227262
0.227858
0.22754
0.226259
0.226427
0.226604
0.226797
0.225669
0.225836
0.226032
0.226255
0.225162
0.225156
0.22522
0.225358
0.225116
0.224932
0.224801
0.225619
0.22534
0.224869
0.224633
0.224994
0.225776
0.225778
0.225776
0.225597
0.225755
0.224961
0.224826
0.225344
0.225709
0.225629
0.225174
0.225433
0.224699
0.224578
0.224873
0.225589
0.22594
0.226728
0.231398
0.229044
0.232988
0.232991
0.233003
0.233008
0.233008
0.232995
0.232938
0.232785
0.232511
0.232187
0.231952
0.231863
0.231903
0.232026
0.232183
0.232321
0.232356
0.232218
0.231953
0.231759
0.231797
0.232078
0.232462
0.232773
0.232773
0.232191
0.230206
0.228122
0.227482
0.227564
0.227282
0.227354
0.227188
0.227217
0.227195
0.227181
0.227265
0.227231
0.228181
0.228044
0.228266
0.228251
0.229653
0.229707
0.230736
0.23099
0.229618
0.230233
0.228194
0.228544
0.229639
0.230028
0.227513
0.227818
0.228504
0.228148
0.226488
0.226726
0.226971
0.227231
0.225561
0.225817
0.226103
0.226403
0.224758
0.224791
0.224935
0.22517
0.224611
0.224414
0.224321
0.225276
0.224866
0.224299
0.224022
0.22443
0.225601
0.225776
0.225626
0.225256
0.225763
0.224965
0.224728
0.225493
0.225728
0.225667
0.225287
0.224975
0.224526
0.224363
0.224518
0.225246
0.2258
0.227126
0.23224
0.230431
0.232987
0.232998
0.233006
0.233008
0.232993
0.232921
0.232723
0.23236
0.231948
0.231667
0.23158
0.231644
0.231798
0.231982
0.232118
0.232094
0.231807
0.231356
0.230987
0.230948
0.231239
0.231789
0.232437
0.232646
0.232192
0.23064
0.228614
0.227556
0.227726
0.227393
0.227442
0.227336
0.227349
0.227393
0.227341
0.227601
0.227484
0.227892
0.22774
0.229189
0.228883
0.229643
0.229464
0.231058
0.231018
0.231611
0.2318
0.230363
0.230745
0.231261
0.228876
0.229256
0.230187
0.230512
0.227985
0.228341
0.229093
0.228711
0.226708
0.227013
0.227323
0.227645
0.225484
0.225841
0.226222
0.226603
0.224329
0.224457
0.224715
0.225087
0.224036
0.223885
0.223864
0.224791
0.224284
0.223693
0.223398
0.223799
0.225283
0.225662
0.225352
0.224788
0.225692
0.225003
0.224685
0.225554
0.225684
0.225628
0.225352
0.224614
0.224385
0.22417
0.22426
0.225001
0.225845
0.228024
0.232746
0.231384
0.23299
0.233004
0.233007
0.232992
0.232913
0.232675
0.232234
0.231735
0.231423
0.231355
0.231441
0.231611
0.231804
0.231916
0.23181
0.231408
0.230787
0.230341
0.230226
0.230417
0.230931
0.231721
0.232333
0.232078
0.230701
0.228969
0.227782
0.22748
0.227529
0.227433
0.227443
0.227484
0.227437
0.227694
0.22757
0.228063
0.227858
0.228584
0.228307
0.230173
0.229755
0.230854
0.230553
0.231933
0.231957
0.231682
0.231838
0.23196
0.230797
0.231054
0.231593
0.231419
0.229473
0.229839
0.230637
0.230901
0.228465
0.228859
0.229638
0.229252
0.226973
0.227337
0.227704
0.228078
0.225522
0.225999
0.226477
0.226928
0.223968
0.224221
0.224614
0.225128
0.223482
0.223433
0.223481
0.22422
0.223659
0.223127
0.222832
0.223177
0.224858
0.225446
0.224994
0.224262
0.225532
0.225025
0.224633
0.225524
0.225585
0.225551
0.225313
0.224332
0.224256
0.223973
0.224038
0.22484
0.226151
0.228996
0.232876
0.232006
0.232998
0.233006
0.232994
0.232912
0.23265
0.23214
0.231563
0.231236
0.23119
0.231284
0.231467
0.231645
0.231722
0.231536
0.231004
0.230377
0.229983
0.229828
0.229867
0.230133
0.230746
0.231531
0.231707
0.230596
0.229033
0.227972
0.227634
0.227692
0.227549
0.227568
0.227577
0.227548
0.227744
0.227641
0.228076
0.227888
0.228603
0.228313
0.229337
0.228947
0.231119
0.230654
0.231824
0.231516
0.232205
0.232338
0.231603
0.231718
0.231545
0.231801
0.231111
0.231281
0.23149
0.2314
0.230003
0.230337
0.230947
0.231089
0.228993
0.229404
0.230154
0.229795
0.227348
0.227759
0.228167
0.228577
0.225717
0.226316
0.22689
0.227406
0.223695
0.224063
0.224568
0.22521
0.223032
0.223045
0.223197
0.223639
0.223078
0.222688
0.222403
0.222646
0.224412
0.225156
0.224634
0.22378
0.22531
0.224973
0.224535
0.225414
0.225412
0.225384
0.225162
0.224119
0.224077
0.223754
0.223825
0.224784
0.226684
0.229874
0.23298
0.232567
0.233004
0.232996
0.232919
0.232647
0.232089
0.231435
0.231097
0.231066
0.231171
0.231357
0.231508
0.231533
0.231273
0.230699
0.230158
0.229879
0.229739
0.229688
0.229721
0.229935
0.230379
0.230696
0.230181
0.228971
0.228051
0.22785
0.227781
0.22783
0.227776
0.227765
0.227886
0.227816
0.228152
0.227997
0.228616
0.228357
0.229295
0.228928
0.230175
0.229714
0.232009
0.231583
0.232403
0.232309
0.232014
0.232234
0.232385
0.231195
0.231344
0.23086
0.231207
0.231202
0.231309
0.231106
0.231057
0.230471
0.230738
0.231001
0.231036
0.229577
0.229963
0.230584
0.230306
0.22787
0.228312
0.228741
0.229164
0.225941
0.226692
0.227388
0.227985
0.223483
0.223922
0.224509
0.22523
0.222675
0.222742
0.222993
0.223148
0.222603
0.222348
0.222062
0.222205
0.224006
0.224869
0.224291
0.223332
0.225075
0.224778
0.2243
0.225183
0.225147
0.225022
0.224826
0.223941
0.223829
0.2235
0.223604
0.224858
0.227328
0.230789
0.233
0.232813
0.233
0.232931
0.232667
0.232079
0.231357
0.230992
0.230967
0.231087
0.231262
0.231383
0.231357
0.231027
0.230488
0.230133
0.22991
0.229789
0.229726
0.229689
0.229648
0.229654
0.229649
0.229334
0.228714
0.228091
0.22799
0.228574
0.228179
0.228172
0.228235
0.228192
0.22842
0.228308
0.228792
0.228581
0.229383
0.229059
0.230184
0.22976
0.23112
0.230645
0.232605
0.232413
0.232579
0.232661
0.231596
0.231988
0.232329
0.231928
0.230401
0.230581
0.229791
0.230276
0.23106
0.231042
0.230316
0.230312
0.230785
0.230914
0.230736
0.230604
0.230132
0.230426
0.230753
0.230633
0.228499
0.228961
0.229387
0.22978
0.226051
0.226923
0.227769
0.2285
0.223344
0.223832
0.224457
0.22521
0.222373
0.222547
0.222849
0.22268
0.22213
0.222045
0.22174
0.221831
0.223611
0.224577
0.223933
0.222881
0.22472
0.224377
0.223911
0.224707
0.224641
0.22437
0.224324
0.223797
0.223498
0.223259
0.223387
0.225073
0.228041
0.231494
0.233008
0.232929
0.232956
0.232702
0.232105
0.231325
0.230911
0.230882
0.231011
0.231171
0.231266
0.231193
0.230823
0.230403
0.23017
0.230037
0.230032
0.230043
0.229931
0.229738
0.229558
0.229318
0.229009
0.228622
0.228181
0.22821
0.228816
0.229926
0.228913
0.229994
0.228867
0.228946
0.22888
0.229222
0.22906
0.229695
0.229433
0.230378
0.230012
0.23121
0.230783
0.232065
0.231646
0.232823
0.232797
0.232559
0.232761
0.230822
0.231388
0.232002
0.231281
0.229187
0.229417
0.228425
0.22903
0.230467
0.23035
0.229119
0.22914
0.23081
0.2308
0.230055
0.229783
0.230455
0.230583
0.230615
0.230635
0.229092
0.229566
0.229943
0.230242
0.226069
0.226993
0.227919
0.22875
0.223248
0.223735
0.224352
0.225075
0.222104
0.222353
0.222677
0.222148
0.221623
0.221726
0.221345
0.221397
0.223146
0.224097
0.223255
0.222228
0.224034
0.223867
0.223493
0.224043
0.223815
0.223524
0.223734
0.223724
0.223216
0.223027
0.223204
0.225368
0.228742
0.23203
0.23301
0.232984
0.232781
0.232169
0.231336
0.230849
0.230803
0.230932
0.231077
0.231148
0.231024
0.230661
0.230389
0.230254
0.230306
0.230606
0.230904
0.230844
0.230376
0.229848
0.229457
0.229103
0.228743
0.228458
0.228647
0.22939
0.231006
0.229847
0.23117
0.231328
0.229811
0.229912
0.229831
0.230248
0.230053
0.230777
0.23049
0.231471
0.231104
0.232215
0.231854
0.232692
0.232504
0.232881
0.23292
0.232052
0.232504
0.232734
0.229742
0.230513
0.231267
0.230356
0.227698
0.227972
0.227005
0.227678
0.22949
0.229256
0.227649
0.227706
0.230481
0.230307
0.229089
0.228686
0.230431
0.230413
0.23009
0.23028
0.229416
0.229892
0.230195
0.230368
0.225914
0.226844
0.227801
0.228701
0.223086
0.223531
0.224075
0.224721
0.221821
0.222082
0.222447
0.221475
0.221192
0.221379
0.221146
0.22115
0.222211
0.2232
0.222198
0.221345
0.223065
0.223375
0.223159
0.223297
0.222803
0.222639
0.22319
0.223694
0.222888
0.222797
0.223029
0.225749
0.22941
0.232437
0.23301
0.233001
0.232331
0.231394
0.230812
0.23073
0.230844
0.230978
0.231021
0.230859
0.230561
0.230399
0.230354
0.230596
0.231168
0.231737
0.231873
0.231575
0.230942
0.230219
0.229647
0.229279
0.229174
0.229527
0.230381
0.231701
0.232709
0.231063
0.232333
0.232393
0.231012
0.23111
0.231028
0.231443
0.23125
0.231944
0.231679
0.232464
0.232219
0.232785
0.232651
0.232916
0.232872
0.232869
0.23295
0.231472
0.232261
0.232727
0.232418
0.228487
0.2294
0.230437
0.229337
0.226195
0.226502
0.225808
0.226496
0.228297
0.227947
0.226144
0.226239
0.229799
0.229466
0.227819
0.227351
0.230075
0.229857
0.229188
0.229556
0.229429
0.229905
0.230108
0.230135
0.225478
0.226326
0.227234
0.228141
0.222777
0.223173
0.223591
0.224072
0.221586
0.221841
0.222104
0.221077
0.220984
0.221212
0.220819
0.220862
0.221353
0.222214
0.221446
0.221093
0.222097
0.223006
0.222812
0.22273
0.222214
0.222365
0.22274
0.223722
0.222678
0.222616
0.222901
0.226176
0.229971
0.232695
0.23301
0.233005
0.231587
0.230809
0.230661
0.230749
0.230872
0.230893
0.230709
0.230503
0.230416
0.230462
0.230852
0.231578
0.232235
0.232452
0.23238
0.232049
0.231531
0.231003
0.230619
0.23052
0.230787
0.231496
0.232319
0.232847
0.233
0.23291
0.23227
0.23289
0.23224
0.232314
0.232259
0.232511
0.232404
0.232732
0.232625
0.23289
0.232822
0.232961
0.232936
0.232972
0.232975
0.232618
0.232733
0.232875
0.232945
0.230688
0.231711
0.232099
0.227318
0.228274
0.229535
0.228387
0.224897
0.225263
0.225017
0.225717
0.226903
0.226526
0.224793
0.22483
0.22877
0.228309
0.226332
0.225826
0.229306
0.228932
0.227973
0.228477
0.228937
0.229473
0.229592
0.229554
0.224634
0.225294
0.226026
0.226812
0.222406
0.222724
0.223045
0.223372
0.221382
0.221562
0.221608
0.220885
0.220687
0.220841
0.220673
0.220646
0.221172
0.221622
0.221303
0.221008
0.221873
0.222735
0.222625
0.222493
0.221957
0.222176
0.222579
0.22379
0.222455
0.222441
0.222787
0.226513
0.230569
0.232801
0.23301
0.233006
0.230877
0.230601
0.230657
0.230765
0.230764
0.230602
0.230484
0.230443
0.230578
0.231073
0.231836
0.232467
0.232721
0.232763
0.232656
0.232412
0.232117
0.231888
0.23181
0.231955
0.232347
0.232732
0.232946
0.233005
0.23301
0.232999
0.23301
0.23301
0.232875
0.232997
0.232867
0.232884
0.232871
0.232927
0.232904
0.232967
0.232948
0.232991
0.232981
0.232998
0.232997
0.232985
0.232995
0.232375
0.232617
0.232834
0.232907
0.229968
0.231124
0.231587
0.226475
0.227351
0.228786
0.227754
0.223913
0.224411
0.224739
0.225502
0.225386
0.225039
0.223614
0.223537
0.227436
0.22688
0.224726
0.224236
0.22809
0.227613
0.226451
0.227051
0.227602
0.22827
0.228453
0.228407
0.223662
0.223933
0.224212
0.224599
0.22192
0.222184
0.22241
0.222775
0.220892
0.221005
0.220504
0.220841
0.22
0.220177
0.220193
0.220075
0.221136
0.221515
0.221349
0.221001
0.221683
0.222518
0.222389
0.222431
0.221939
0.222228
0.222454
0.223849
0.22225
0.222246
0.222665
0.226858
0.230908
0.232817
0.233026
0.232996
0.230575
0.230581
0.230664
0.230655
0.230544
0.230486
0.230488
0.230721
0.23127
0.232016
0.232585
0.23283