/*--------------------------------*- C++ -*----------------------------------*\
  =========                 |
  \\      /  F ield         | OpenFOAM: The Open Source CFD Toolbox
   \\    /   O peration     | Website:  https://openfoam.org
    \\  /    A nd           | Version:  dev
     \\/     M anipulation  |
\*---------------------------------------------------------------------------*/
FoamFile
{
    version     2.0;
    format      ascii;
    class       volScalarField;
    location    "2500";
    object      omega;
}
// * * * * * * * * * * * * * * * * * * * * * * * * * * * * * * * * * * * * * //

dimensions      [0 0 -1 0 0 0 0];

internalField   nonuniform List<scalar> 
9842
(
1.26524
1.27212
1.22182
1.18719
1.35394
1.10567
1.08759
1.35888
1.28136
1.04318
1.03707
1.32509
1.34497
1.14847
1.0245
1.01441
1.24324
1.35993
1.25588
1.07024
1.0157
1.00256
1.14432
1.35007
1.31875
1.13129
1.03906
1.01004
0.991449
1.07297
1.31684
1.33876
1.21047
1.06235
1.02429
1.00616
0.98377
1.03122
1.24753
1.33686
1.27781
1.10144
1.03286
1.01466
1.0034
0.979374
1.00422
1.16332
1.3249
1.30853
1.16268
1.04557
1.01729
1.0076
1.00137
0.977598
0.98816
1.0839
1.29494
1.31623
1.22889
1.07082
1.01983
1.00782
1.00267
0.999965
0.978841
0.977974
1.03633
1.24
1.31346
1.273
1.12044
1.02626
1.00485
1.00204
0.999756
0.999092
0.980096
0.967705
1.00319
1.16109
1.30346
1.293
1.18159
1.04345
1.00362
0.997488
0.998365
0.997888
0.998279
0.981097
0.960766
0.98145
1.07881
1.27693
1.29817
1.23373
1.08199
1.00684
0.988659
0.993103
0.995534
0.996148
0.997745
0.981658
0.956177
0.967432
1.02792
1.22378
1.29653
1.26614
1.14028
1.01953
0.986886
0.981555
0.989759
0.993353
0.994728
0.997379
0.98193
0.954478
0.95834
0.993873
1.14548
1.28753
1.28195
1.19447
1.05061
0.989411
0.973556
0.97792
0.987275
0.991743
0.993568
0.997038
0.982101
0.954228
0.950594
0.972093
1.0662
1.2603
1.28623
1.23658
1.10621
0.999893
0.972385
0.966671
0.976068
0.985708
0.99013
0.99249
0.996788
0.98228
0.954375
0.944453
0.957306
1.01587
1.20492
1.28526
1.26325
1.15904
1.02679
0.974644
0.960177
0.963554
0.975497
0.984486
0.988618
0.991651
0.996573
0.98246
0.954456
0.940107
0.947246
0.982967
1.12589
1.27488
1.27603
1.20574
1.07616
0.983821
0.959581
0.953461
0.962878
0.975184
0.983114
0.987468
0.990925
0.996376
0.982642
0.954339
0.937449
0.940212
0.961861
1.05073
1.2444
1.28132
1.24184
1.12994
1.00716
0.961698
0.948659
0.950785
0.963102
0.974714
0.982116
0.986492
0.990231
0.996193
0.98285
0.9541
0.935811
0.934032
0.947923
1.00382
1.18432
1.27962
1.26467
1.17576
1.05233
0.969966
0.94854
0.942237
0.95033
0.963601
0.974322
0.981327
0.985458
0.989566
0.996021
0.982995
0.953806
0.934704
0.929215
0.938414
0.973493
1.10425
1.26539
1.27518
1.21806
1.10344
0.990516
0.950678
0.939043
0.939299
0.950977
0.964179
0.974022
0.98039
0.984425
0.988906
0.995871
0.983118
0.95351
0.933673
0.925636
0.931487
0.954556
1.03511
1.22756
1.28033
1.24996
1.15158
1.03184
0.958342
0.93925
0.932539
0.938964
0.952162
0.964613
0.973519
0.979323
0.983438
0.988269
0.995723
0.983282
0.953195
0.932604
0.922866
0.926306
0.942207
0.993609
1.15989
1.27598
1.26928
1.19532
1.07988
0.977286
0.941559
0.930639
0.929631
0.939781
0.953421
0.964735
0.972806
0.978238
0.982414
0.987614
0.995578
0.983351
0.952814
0.931624
0.920622
0.922235
0.933456
0.967983
1.07984
1.25539
1.27938
1.23449
1.13036
1.01329
0.948771
0.931066
0.924655
0.929023
0.941177
0.954462
0.964595
0.97193
0.977061
0.981307
0.986933
0.995432
0.983265
0.952559
0.930818
0.918629
0.918638
0.926814
0.952431
1.02142
1.20737
1.28184
1.263
1.17422
1.06005
0.965902
0.933458
0.923722
0.921488
0.929711
0.942971
0.955125
0.964203
0.970815
0.975753
0.980119
0.986264
0.995263
0.983132
0.952368
0.929826
0.916928
0.915403
0.921659
0.941627
0.986365
1.13104
1.27293
1.27692
1.21896
1.10868
0.997483
0.940245
0.924294
0.91805
0.920457
0.931166
0.944591
0.955408
0.963444
0.969507
0.974297
0.978841
0.985623
0.995064
0.983001
0.952035
0.928761
0.9156
0.912123
0.917336
0.933
0.965088
1.05542
1.24388
1.2863
1.25279
1.15631
1.04097
0.955419
0.926707
0.917711
0.914555
0.921127
0.933424
0.945744
0.955216
0.962409
0.968022
0.972573
0.97748
0.985028
0.994905
0.982879
0.951494
0.928037
0.914242
0.908921
0.913151
0.925409
0.951859
1.00852
1.18305
1.28464
1.27571
1.20026
1.08878
0.983844
0.932921
0.918359
0.912395
0.913648
0.922768
0.935439
0.946432
0.954688
0.961068
0.966252
0.97072
0.976117
0.984254
0.994619
0.982766
0.950909
0.927587
0.912414
0.905959
0.909041
0.918869
0.942521
0.979821
1.10171
1.26878
1.28752
1.24244
1.13786
1.02258
0.946715
0.920706
0.912403
0.909258
0.91439
0.925223
0.937102
0.946736
0.95373
0.959274
0.964192
0.968811
0.974914
0.983639
0.994435
0.982643
0.950339
0.927085
0.910463
0.903511
0.904992
0.912844
0.933211
0.962125
1.03746
1.22757
1.29459
1.27217
1.1824
1.07032
0.970292
0.926509
0.913199
0.908078
0.908689
0.916149
0.927649
0.938451
0.946523
0.952279
0.957287
0.962026
0.967156
0.973973
0.983153
0.993984
0.982507
0.949741
0.926418
0.908893
0.901241
0.900885
0.90743
0.923017
0.95116
0.998644
1.15666
1.28817
1.28957
1.22947
1.11793
1.00633
0.938203
0.9156
0.908261
0.90564
0.909545
0.91888
0.930034
0.939391
0.945794
0.950521
0.955029
0.959567
0.96558
0.973527
0.98344
0.994425
0.982349
0.949167
0.925589
0.907706
0.898535
0.896724
0.902325
0.914301
0.941748
0.975159
1.07617
1.2641
1.30317
1.26566
1.16691
1.0509
0.958728
0.921104
0.909198
0.90515
0.905672
0.91159
0.921896
0.932145
0.939695
0.944673
0.94912
0.953101
0.957257
0.963358
0.972146
0.982961
0.994727
0.982166
0.948716
0.924646
0.906751
0.895579
0.893013
0.897257
0.907081
0.929849
0.960742
1.02392
1.21104
1.30406
1.29292
1.21249
1.10004
0.990798
0.930858
0.911653
0.905444
0.903879
0.906721
0.914759
0.925386
0.934168
0.939521
0.943286
0.947159
0.950908
0.955458
0.962599
0.972275
0.983417
0.997484
0.992734
0.981961
0.948347
0.923637
0.905828
0.892991
0.889985
0.891868
0.900354
0.917726
0.949642
0.991992
1.13236
1.29236
1.30651
1.25968
1.14934
1.03322
0.948385
0.91627
0.90642
0.903737
0.904342
0.909266
0.918868
0.928724
0.93562
0.939305
0.942219
0.945161
0.948549
0.95422
0.962594
0.973307
0.988405
0.983876
0.997748
0.993841
0.981746
0.947951
0.922664
0.904837
0.89101
0.887071
0.886438
0.893508
0.907693
0.936843
0.97189
1.05898
1.25905
1.31883
1.29117
1.19777
1.08212
0.976646
0.924397
0.908531
0.904009
0.903907
0.906103
0.913641
0.923832
0.932304
0.936889
0.939383
0.941957
0.945418
0.95064
0.958236
0.967164
0.964511
0.979187
0.969067
0.97518
0.990184
0.985965
0.998141
0.99538
0.981521
0.947443
0.921722
0.903734
0.889386
0.884148
0.882338
0.887012
0.89858
0.922193
0.956781
1.0166
1.19423
1.31554
1.31371
1.24738
1.13235
1.01689
0.938933
0.912157
0.904753
0.904101
0.905247
0.910045
0.919216
0.928988
0.936058
0.939058
0.941401
0.945018
0.95068
0.958403
0.963747
0.963989
0.96782
0.981716
0.974128
0.979322
0.992651
0.989039
0.998801
0.997568
0.981281
0.946821
0.920748
0.902467
0.887936
0.881402
0.879272
0.881071
0.89024
0.908854
0.94108
0.9891
1.11851
1.2969
1.32872
1.28903
1.183
1.06462
0.964477
0.918455
0.906212
0.904683
0.905349
0.908539
0.915944
0.926072
0.934788
0.939575
0.941947
0.9456
0.951721
0.960081
0.964892
0.967509
0.968007
0.968915
0.974277
0.985734
0.979318
0.985011
0.996166
0.993432
0.999901
1.00036
0.981005
0.946081
0.919654
0.901069
0.886591
0.878888
0.876659
0.875979
0.882899
0.897513
0.924032
0.966891
1.05802
1.25234
1.33722
1.31833
1.23337
1.11529
1.00148
0.930922
0.908661
0.905415
0.905778
0.908554
0.914579
0.923615
0.933612
0.940951
0.943745
0.947584
0.954479
0.964008
0.969948
0.975257
0.971488
0.976127
0.975264
0.977848
0.980204
0.991682
0.985652
0.991941
1.00078
1.00013
1.0011
1.00491
0.980688
0.945198
0.918417
0.899613
0.885279
0.876654
0.874316
0.871783
0.876855
0.887918
0.908064
0.945902
1.01815
1.19328
1.32975
1.33689
1.28343
1.16725
1.04694
0.953438
0.913554
0.906398
0.906463
0.908857
0.914649
0.923085
0.933554
0.943011
0.948131
0.952571
0.960772
0.973538
0.979276
0.987813
0.982144
0.991597
0.984436
0.992624
0.982857
0.988845
0.987894
0.999741
0.993546
1.00064
1.00777
1.00865
1.00278
1.01062
0.980314
0.94411
0.917016
0.898082
0.883917
0.87472
0.872123
0.868466
0.871805
0.879997
0.895054
0.92592
0.986101
1.13271
1.30693
1.3523
1.31987
1.21895
1.09756
0.987292
0.923578
0.908086
0.907155
0.909549
0.915129
0.923415
0.934213
0.945619
0.955219
0.961169
0.970392
0.984799
0.993937
1.00601
0.999315
1.01401
1.00569
1.01917
1.00181
1.01661
0.993284
1.00548
0.997992
1.00945
1.0037
1.01152
1.01677
1.0193
1.00498
1.01765
0.979856
0.942829
0.915443
0.896445
0.882478
0.873036
0.870037
0.865616
0.867003
0.873495
0.884726
0.908602
0.958228
1.07624
1.26729
1.3588
1.3459
1.27217
1.14969
1.03102
0.942944
0.911731
0.908311
0.91015
0.915841
0.924456
0.935757
0.94829
0.962146
0.971786
0.983719
0.999763
1.01525
1.02802
1.02276
1.0406
1.03509
1.05342
1.03787
1.05731
1.02789
1.05287
1.00816
1.03023
1.01168
1.02132
1.01713
1.02529
1.02778
1.03186
1.00775
1.02651
0.979219
0.941488
0.913802
0.894813
0.881076
0.871641
0.868186
0.863217
0.862854
0.868089
0.876359
0.894554
0.934768
1.02554
1.22014
1.35231
1.36456
1.31823
1.20406
1.08035
0.973451
0.919729
0.910209
0.910786
0.916675
0.925374
0.936819
0.950968
0.966881
0.981471
0.998475
1.02105
1.03916
1.05223
1.05174
1.0727
1.06892
1.09254
1.08172
1.10731
1.08404
1.11318
1.06747
1.10376
1.0303
1.07115
1.03131
1.03563
1.03504
1.04281
1.04022
1.04635
1.01106
1.03555
0.978426
0.940391
0.912615
0.893739
0.880124
0.870701
0.86671
0.861358
0.859629
0.863535
0.869543
0.883131
0.915768
0.988034
1.16797
1.33457
1.38013
1.35117
1.25724
1.1351
1.01517
0.936439
0.914031
0.912023
0.917233
0.926205
0.937907
0.953405
0.969926
0.990714
1.01433
1.04286
1.06787
1.08362
1.08888
1.12304
1.1187
1.17191
1.14229
1.21362
1.1546
1.2431
1.14717
1.23617
1.11269
1.18738
1.0644
1.11516
1.05768
1.0525
1.06002
1.06651
1.05316
1.06205
1.01372
1.04122
0.977106
0.940543
0.913393
0.894212
0.880318
0.870744
0.866141
0.860406
0.857687
0.860015
0.864139
0.873925
0.900696
0.960119
1.11127
1.30431
1.39011
1.37588
1.30998
1.19202
1.06514
0.964445
0.922073
0.914785
0.91798
0.927282
0.939691
0.95528
0.972537
1.00106
1.02847
1.06776
1.10876
1.07362
1.15526
1.22311
1.24952
1.41744
1.36492
1.68315
1.44958
1.9249
1.45206
1.99758
1.36525
1.84081
1.22799
1.54116
1.11135
1.2596
1.10794
1.075
1.10736
1.10849
1.06607
1.08143
1.01487
1.04448
0.977335
0.948008
0.920646
0.899062
0.883523
0.872508
0.866558
0.860573
0.857281
0.858059
0.860128
0.86684
0.888771
0.940183
1.06316
1.26633
1.38684
1.39632
1.35286
1.24755
1.1193
1.0033
0.938855
0.920792
0.91971
0.928682
0.941362
0.956812
0.977344
1.00823
1.03993
1.09297
1.33007
1.28252
1.4315
1.64818
2.02676
2.27151
3.20667
2.96116
4.53112
3.23445
5.50616
2.99523
5.54527
2.43504
4.53437
1.74377
3.1524
1.2776
1.9255
1.27711
1.11046
1.26077
1.23164
1.07773
1.1063
1.01105
1.0423
0.989846
0.974183
0.947108
0.918692
0.895148
0.87858
0.869122
0.862481
0.858319
0.857833
0.858092
0.861868
0.879569
0.926236
1.0304
1.22848
1.37683
1.41529
1.38495
1.29925
1.17484
1.05099
0.966693
0.933031
0.924168
0.93172
0.942967
0.958435
0.981348
1.01168
1.05
1.10529
1.4122
3.39878
3.81327
2.46048
2.94669
4.25458
5.52812
6.42133
8.32248
8.11931
10.4382
8.80885
11.5595
8.36324
11.778
6.46973
10.9102
3.86862
8.37045
2.04682
4.44366
2.06408
1.19719
1.98274
1.81323
1.08196
1.15908
1.00475
1.03658
1.01533
1.02853
1.00728
0.966913
0.926293
0.896322
0.877827
0.867776
0.861717
0.859438
0.857934
0.85958
0.873119
0.916694
1.01417
1.2001
1.36157
1.42739
1.41155
1.34771
1.23135
1.10608
1.00728
0.954648
0.934513
0.935835
0.945922
0.960536
0.983753
1.01374
1.05904
1.11794
1.38787
4.096
4.24856
8.8115
9.58495
6.76436
7.89961
10.0126
11.4424
12.2147
13.4676
13.4323
14.6005
13.9744
15.2262
13.9247
15.5522
12.9114
15.4486
9.94495
14.422
4.77714
11.0107
4.80901
1.59448
4.55404
3.98519
1.11347
1.39863
1.00333
1.07984
1.06578
1.16254
1.17238
1.11675
1.02839
0.949853
0.90158
0.879178
0.868471
0.864192
0.859933
0.859438
0.870506
0.911817
1.00971
1.18841
1.35148
1.43373
1.43767
1.39192
1.28988
1.16902
1.06215
0.990717
0.95486
0.944072
0.951799
0.964786
0.984593
1.01598
1.06529
1.12652
1.54544
4.22769
3.60021
10.0989
10.3914
13.9006
14.3148
12.5257
13.324
14.3481
14.9352
15.272
15.6442
15.8719
16.1962
16.3866
16.7739
16.709
17.3021
16.6158
17.6491
15.5472
17.5814
11.5188
16.3642
11.4834
3.19448
10.8306
9.40162
1.33349
2.5006
1.05613
1.37709
1.07711
1.28726
1.38058
1.38161
1.28762
1.12701
0.98593
0.914222
0.883324
0.873769
0.865791
0.861888
0.870966
0.912558
1.01385
1.18949
1.35112
1.44154
1.4621
1.4316
1.35036
1.24023
1.13153
1.04707
0.990152
0.962499
0.963949
0.973384
0.986146
1.01818
1.06737
1.13135
1.50474
7.04259
10.411
11.2075
14.6247
14.8493
15.6666
15.7622
15.2984
15.52
15.8401
15.884
16.2478
16.2043
16.8124
16.7498
17.5223
17.5053
18.183
18.4543
18.6117
19.2852
18.5061
19.7191
16.9734
19.3959
17.3895
7.36572
17.5385
17.0592
2.14377
5.65274
1.2285
1.69759
1.24357
1.44718
1.53958
1.5426
1.43697
1.22421
1.03076
0.926571
0.894297
0.876985
0.869044
0.8754
0.919241
1.03238
1.20614
1.36314
1.45719
1.4875
1.47105
1.41352
1.31975
1.21609
1.12254
1.04887
1.00111
0.989175
0.991319
0.993744
1.02221
1.06578
1.13203
1.42432
5.60528
14.8899
14.6538
14.9896
15.0165
15.845
15.9149
15.7748
15.7174
15.8733
15.8333
16.0864
15.9005
16.5808
16.3318
17.4196
17.2439
18.6004
18.6231
19.8287
20.2531
20.709
21.6694
20.9528
22.3533
20.2445
22.1689
20.9815
15.2145
21.4459
21.5154
3.65593
11.6442
1.41396
3.07928
1.31654
1.53893
1.64374
1.6546
1.54777
1.31311
1.05397
0.940688
0.898126
0.881395
0.885923
0.934433
1.06716
1.24908
1.39779
1.48748
1.52214
1.5176
1.48033
1.40667
1.31318
1.21565
1.12926
1.06798
1.04401
1.03426
1.02063
1.03266
1.06609
1.12706
1.3447
4.66672
14.195
12.9498
16.0995
16.1359
15.9893
16.0583
15.6804
15.6754
15.3795
15.2465
15.7089
15.5339
16.0815
15.8365
17.0408
16.8334
18.5842
18.4884
20.5915
20.7705
22.6028
23.3515
23.9252
25.5599
24.1401
26.37
23.2688
25.8197
24.0992
21.3594
24.6826
25.1234
23.3167
8.52991
20.6827
4.75369
11.1963
1.31171
1.57418
1.71049
1.7344
1.62396
1.34483
1.05532
0.942326
0.901999
0.90206
0.958646
1.11764
1.31175
1.45596
1.53932
1.57693
1.58493
1.56601
1.50672
1.42126
1.3274
1.23449
1.16034
1.12094
1.10336
1.08484
1.06059
1.07289
1.12389
1.27879
3.58995
14.03
16.1079
16.5182
15.7986
15.8927
15.6881
15.7297
15.1435
15.0618
15.2936
15.1537
15.6232
15.4486
16.6362
16.4525
18.3345
18.1575
20.7652
20.7058
23.9318
24.1983
26.9719
27.9444
28.9
30.9788
28.8543
32.1499
27.1563
30.8075
28.7471
26.1354
28.0568
25.2059
23.4571
25.4833
26.5998
28.6592
28.3457
26.8323
14.246
19.9321
25.4867
25.606
23.5551
13.3601
21.2832
21.8503
23.723
1.25095
1.57513
1.76295
1.79432
1.65878
1.33098
1.04565
0.940352
0.925541
0.99181
1.18433
1.39458
1.53776
1.6198
1.66474
1.68668
1.68053
1.63886
1.56455
1.47183
1.37709
1.28859
1.22436
1.19524
1.15738
1.1179
1.09985
1.12888
1.24586
2.64731
11.7438
16.0927
15.9345
15.9713
16.1515
15.0423
15.1129
15.0182
15.0182
15.0314
14.9141
16.007
15.8781
16.2877
16.1407
17.9726
17.8093
20.5716
20.3768
24.1993
24.0972
28.5013
28.4612
32.1972
32.3188
32.7783
33.7955
34.3254
34.6827
32.5213
34.3818
35.0668
36.5281
35.4887
31.583
29.933
32.4126
33.6579
30.4767
26.9968
27.0901
28.6964
30.9204
30.7856
28.7953
23.6231
27.1607
27.0393
25.5001
37.8178
32.2867
23.9209
26.8401
1.18322
1.58433
1.82235
1.84505
1.65071
1.28644
1.01641
0.961359
1.03437
1.26614
1.49674
1.64544
1.73737
1.80326
1.84987
1.86302
1.83877
1.77835
1.69088
1.59471
1.49799
1.40946
1.35379
1.26991
1.20554
1.16429
1.16051
1.24762
2.00737
8.7459
15.7067
15.5736
15.7573
15.2423
15.4263
14.5764
14.5171
14.811
14.6807
15.7504
15.6066
17.4071
17.2681
17.6697
17.5373
20.171
19.9649
23.8302
23.4568
28.2148
27.6758
31.8483
30.9287
34.6036
34.3309
33.9382
33.3361
35.7212
35.9285
35.793
35.4267
36.6963
36.9408
37.8463
37.4832
34.5089
32.8332
35.1128
36.335
33.2176
28.8349
28.8084
30.9782
33.4156
33.4717
30.939
25.3464
28.6496
28.2273
26.6988
39.6727
36.5258
57.2692
62.5761
25.4848
28.4936
1.15445
1.64675
1.90794
1.86334
1.61032
1.17706
1.02868
1.08552
1.3606
1.61649
1.78039
1.90178
2.01732
2.12039
2.19004
2.21077
2.17913
2.10645
2.0117
1.9107
1.80006
1.67358
1.50856
1.38455
1.29987
1.25519
1.29086
1.72049
5.9523
15.172
15.0033
15.2878
14.6427
14.8474
14.5225
14.5561
15.0495
14.8214
15.4459
15.2613
17.1078
16.905
19.3556
19.1114
19.7712
19.5716
23.0778
22.7031
26.9676
26.2877
29.9216
29.0274
32.7942
32.136
31.4823
30.8201
35.4388
34.902
34.2828
33.5696
37.0352
36.8323
36.4063
37.645
38.4332
37.9153
38.7412
38.7539
37.0373
35.5924
37.5958
38.4309
35.8893
30.8071
30.5399
33.4039
36.0176
36.0044
33.2028
26.2196
30.067
29.3103
27.5416
28.8899
35.9511
45.8891
53.9373
26.6017
1.19705
1.81603
1.99799
1.84442
1.49218
1.14291
1.15322
1.46187
1.75059
1.94248
2.12084
2.33096
2.55673
2.77483
2.93243
2.9842
2.95896
2.89527
2.81144
2.6572
2.35145
2.07734
1.83836
1.64786
1.50963
1.45153
1.70303
4.10253
13.8845
14.7858
14.2129
14.2248
14.2921
14.2044
14.6303
14.4642
16.0747
15.7427
16.6635
16.3836
18.8131
18.4591
21.4985
21.022
22.3299
21.9299
25.6766
25.0613
28.1197
27.3861
30.1605
29.5579
29.0055
28.6558
32.8318
32.0455
31.2626
30.4896
35.8454
35.1912
34.4698
33.6855
37.7196
37.3358
36.8498
39.2511
39.5377
38.5536
39.3703
39.5135
39.0798
38.0088
39.5914
39.9304
38.2641
32.8606
32.328
35.8311
38.3542
38.2905
35.5054
26.7224
31.5474
30.5047
28.3194
26.9844
28.3077
32.4113
38.9817
48.6909
1.39913
2.04883
2.0082
1.77387
1.33074
1.24276
1.56224
1.89341
2.12734
2.39432
2.75554
3.19271
3.62529
3.93536
4.08001
4.12051
4.11835
4.08603
3.97051
3.73159
3.46024
3.07879
2.71117
2.31696
1.99489
1.91591
3.32434
10.955
14.6681
14.0017
14.0328
14.2317
14.0082
14.6892
14.4089
15.385
15.0317
17.2155
16.7888
18.065
17.6447
20.4842
19.9085
23.1198
22.3785
24.4581
23.8152
26.7229
26.0019
27.7457
27.0105
29.765
29.0921
28.5142
28.0487
32.849
31.9755
31.0966
30.2355
36.3028
35.6933
34.9987
34.1956
38.2909
38.0277
37.7578
40.2071
40.2159
39.323
40.4177
40.2029
40.4833
39.9664
40.9199
40.777
40.1859
34.99
34.2357
38.0726
40.2337
40.1465
37.6941
27.2393
33.1962
31.9255
29.2693
27.1141
28.0301
31.5517
45.5802
48.5821
1.85123
2.19002
1.96649
1.5896
1.38265
1.6538
2.03811
2.32516
2.70661
3.26409
3.94376
4.56449
4.96748
5.15847
5.23427
5.27459
5.31147
5.36841
5.55037
5.95843
6.17658
5.82798
4.99265
3.92042
2.93826
3.3497
8.55557
14.1828
13.8401
14.1248
13.924
14.7369
14.3611
15.5481
15.1325
16.367
15.9565
18.1978
17.6833
19.3214
18.7455
21.6172
20.8712
23.6075
22.731
25.2798
24.4616
26.3374
25.4605
26.8224
26.3343
25.3569
25.8418
29.4104
28.6456
27.9773
27.3633
33.2811
32.2787
31.2388
30.2172
37.4295
36.9796
36.3366
35.4658
39.4049
39.58
39.6952
40.8562
41.016
40.9194
42.4633
41.5362
41.2659
41.2366
41.6662
41.4288
41.4173
37.0848
36.1652
39.9359
41.4833
41.4427
39.5843
28.0108
34.9413
33.5616
30.5311
27.6646
28.8128
32.8643
57.1682
51.0917
2.2989
2.16962
1.82488
1.56647
1.73831
2.17739
2.52292
3.03041
3.79999
4.70514
5.44625
5.86471
6.04089
6.11076
6.16923
6.28635
6.57316
7.2478
8.29752
9.13119
9.15662
8.3662
7.09857
5.54903
4.11682
7.56487
13.1142
13.5764
14.1338
13.884
14.7702
14.3812
15.5627
15.1691
16.3466
15.9491
17.2031
16.7628
18.9206
18.353
20.1738
19.5292
21.8978
21.1374
22.3909
21.4211
24.5594
23.455
24.8635
24.3333
22.9291
26.1565
25.5487
24.3796
24.9662
29.2571
28.3779
27.5777
26.828
34.3892
33.1621
31.875
30.618
39.6311
39.2751
38.5428
37.4328
41.6019
42.2973
42.7312
41.7714
42.5921
43.6474
45.5723
43.9205
41.917
41.9679
42.304
42.4221
42.1605
38.9482
37.9536
41.3171
42.2685
42.3244
41.0275
29.2792
36.7114
35.4537
32.1756
28.9098
30.6338
35.758
53.6504
53.2578
2.39265
2.0627
1.73434
1.82423
2.30404
2.70992
3.33628
4.31143
5.40468
6.20371
6.5714
6.69931
6.74543
6.81729
7.02213
7.5552
8.6132
10.0472
11.0257
11.1906
10.7016
9.63838
8.1477
6.37942
7.57868
12.0221
13.093
13.8827
14.9065
14.6701
15.5915
15.2918
16.2502
15.9234
16.9723
16.5969
17.8418
17.3851
19.2906
18.7838
20.4561
19.8477
20.7102
20.1999
18.3839
17.4539
21.4204
19.741
23.8181
23.3162
21.35
20.2887
25.8015
25.0879
23.6993
24.4014
29.4443
28.3798
27.4312
26.5735
36.0278
34.4381
32.8117
31.2738
42.7494
42.2821
41.2487
39.6999
44.8919
45.9471
46.4449
43.5022
45.1816
47.323
49.4912
47.2651
42.9244
42.5919
43.2875
44.196
42.7845
40.443
39.5373
42.2717
42.9539
43.0578
42.0486
31.0202
38.5832
37.6855
34.2126
30.7745
33.2317
39.4969
49.9444
50.2271
2.34152
1.87284
1.92087
2.40906
2.8692
3.60665
4.75872
6.0188
6.82429
7.11056
7.15908
7.17753
7.26712
7.56893
8.31379
9.69427
11.1943
12.0205
12.1568
11.8548
11.157
10.0704
8.63728
8.24474
11.1419
12.4119
13.4455
15.252
14.8415
15.7768
15.5681
16.2543
16.0232
16.7989
16.518
17.4721
17.1159
18.3115
17.8704
19.2752
18.9402
19.8353
19.564
17.1668
17.2628
15.1335
14.0677
19.4476
18.1814
16.8512
22.9746
22.2014
20.8694
19.9445
25.7401
24.9487
23.4089
24.1854
29.8843
28.6509
27.5665
26.6023
37.7988
35.7285
33.7094
31.8982
46.3869
45.6148
44.0669
41.9453
48.9191
50.111
50.5028
46.1694
48.642
51.6021
53.9418
51.3203
44.6699
43.5259
44.9361
46.847
43.7098
41.6101
41.1279
43.0078
43.8513
43.8248
42.8551
33.1192
40.8026
40.2641
36.5776
33.185
36.3312
42.1567
33.1574
47.5191
2.1676
2.01434
2.45915
3.01099
3.81199
5.13019
6.52721
7.31722
7.50518
7.48251
7.45987
7.57493
7.97587
8.90772
10.396
11.7855
12.3523
12.4155
12.0549
11.486
10.8605
10.0452
9.55085
10.8506
11.7618
12.9951
15.0563
16.0572
16.0519
16.4145
16.2749
16.7875
16.593
17.2688
17.0149
17.8844
17.5571
18.5882
18.2384
18.3893
18.5284
17.5936
18.057
13.1158
12.8435
16.0477
14.9732
14.2209
18.9828
18.0082
16.951
18.0574
22.6051
21.7518
21.4073
20.6379
26.0177
25.2116
23.6769
24.4415
30.3448
29.0189
27.8818
26.8912
39.4116
36.7786
34.341
32.302
50.2968
49.1427
47.0078
44.2395
53.3763
54.5847
54.8767
49.642
52.7489
56.274
58.791
55.8706
47.2077
45.0995
47.3616
50.2017
45.1486
42.8471
43.2027
43.7276
44.9541
44.7706
43.9801
35.5859
43.4498
43.3551
39.3295
36.0862
39.6337
43.9619
25.2073
41.6097
2.18869
2.53863
3.07434
3.97123
5.38996
6.94236
7.69691
7.8199
7.71929
7.66065
7.79176
8.29533
9.35202
10.8853
11.8706
12.3227
12.2781
11.8242
11.3373
10.9602
10.5241
10.1937
10.8943
11.5844
12.7848
14.8082
16.3989
16.2037
16.6471
16.5568
16.9029
16.7804
17.2325
17.0542
17.6838
17.446
18.1586
17.927
18.5144
18.3772
16.2619
17.1175
13.6752
15.1089
12.3067
11.2134
19.3805
17.8359
21.0615
18.5204
19.8327
18.9874
20.6499
21.5445
22.9193
22.1603
23.4375
23.0556
26.674
25.9893
24.8014
25.3689
30.6736
29.3677
28.3114
27.4312
40.9692
37.6608
34.7336
32.4792
54.5903
53.1863
50.5995
47.1972
58.1768
59.4344
59.7831
53.6294
57.1812
61.343
63.9092
60.6474
50.4163
47.2617
50.1663
53.9737
46.7421
44.8877
45.9122
45.1147
46.3263
46.7009
46.3285
38.4285
46.9165
46.9417
42.4813
39.2406
42.439
44.6163
11.1381
33.8318
2.52455
3.18687
4.02121
5.56836
7.234
8.02447
8.07219
7.93757
7.82239
7.96955
8.55326
9.69358
10.9576
11.758
12.0751
11.809
11.2622
11.0604
10.9533
10.7655
10.6568
11.0834
11.7049
12.838
14.8286
16.4052
16.8321
16.8196
17.0365
16.9443
17.2736
17.1467
17.5818
17.4214
17.9157
17.7515
18.0545
18.0271
17.673
17.9599
12.7188
14.4809
10.5906
10.9901
16.264
13.8658
12.3018
24.6677
23.1068
26.8607
24.3606
22.6583
22.1891
25.8511
26.6677
24.2854
23.8322
27.1488
27.2434
27.8478
27.486
27.0627
27.2299
30.8675
29.7345
28.9323
28.3209
43.0922
38.8916
35.267
32.6972
59.5751
58.1808
55.4936
51.7573
63.4185
64.847
65.4564
57.8689
61.8557
66.824
69.6001
65.8204
53.6752
49.2815
52.5474
57.6441
48.6855
47.9822
50.0185
48.3028
49.0808
51.3983
50.4586
41.4222
50.9655
50.1832
45.6053
42.2493
44.4903
46.2881
7.35304
27.0708
3.15309
4.08653
5.60202
7.45337
8.27477
8.32739
8.12872
8.00341
8.14074
8.77031
9.90508
10.85
11.4388
11.5925
11.0618
10.8077
10.8312
10.93
11.1767
11.4182
11.6651
12.2058
13.1146
14.9702
16.3684
16.9551
17.0621
17.0038
17.2336
17.146
17.4571
17.3391
17.6606
17.5731
17.6685
17.6954
17.1843
17.5172
15.776
16.6179
9.25371
10.6007
9.98585
9.23877
21.3091
17.5746
15.1272
19.3243
30.5714
28.9323
32.2611
29.6149
27.2497
27.1228
31.826
32.6667
26.9713
27.0115
32.27
32.7464
29.9221
30.0544
30.6522
30.2358
31.1588
30.3395
29.9643
29.8642
47.0648
41.9338
37.181
33.7392
65.4193
64.3022
61.8309
58.0579
69.289
71.1896
72.3072
61.9626
66.4802
73.1241
75.8873
71.1776
56.5473
51.9574
56.3256
61.3584
52.5183
53.2416
54.4986
53.9608
55.7918
58.608
57.273
44.245
54.01
52.7001
48.2687
44.7004
46.8822
46.5148
5.9656
24.6207
3.99154
5.61039
7.51894
8.52187
8.53458
8.35224
8.17315
8.3257
8.96134
9.86867
10.5699
10.9854
10.8826
10.492
10.3182
10.582
10.9013
11.4999
12.0916
12.5635
13.1555
13.9324
15.3028
16.3429
16.7019
16.4802
17.0364
16.4398
17.0437
17.1673
17.1158
17.255
17.2243
17.1675
17.2497
16.6348
16.9707
15.2868
16.0982
12.6458
14.1326
8.09359
7.8628
12.2175
9.03609
26.7405
23.4506
19.2615
24.2097
36.5591
34.6055
37.0483
34.1498
32.9831
33.0417
38.0636
38.9862
31.0732
31.623
37.9411
38.7347
32.9717
33.5579
35.1142
34.2604
32.1387
31.6923
31.8168
32.368
53.2171
47.5852
41.8628
37.173
72.4741
72.073
69.9405
66.7631
76.2583
78.9353
80.9213
66.9025
73.0476
80.4682
85.9902
79.4591
62.1047
57.2996
63.8358
69.4079
61.7352
58.1887
57.5378
62.3319
64.5564
68.8591
62.8658
46.6035
57.1072
56.4343
50.8397
47.3325
48.8426
45.7127
3.15566
20.7216
5.3869
7.5369
8.65952
8.78165
8.5278
8.37581
8.4741
9.04588
9.74564
10.2068
10.4421
10.3908
10.1193
9.94414
10.1376
10.694
11.4301
12.2142
12.9639
13.736
14.5399
15.4523
16.268
16.3271
14.9283
16.6276
15.1482
14.9057
16.6888
16.6798
16.7066
16.4583
16.6008
15.8781
16.2342
14.5077
15.3253
12.029
13.428
8.62742
10.3317
7.99734
7.09263
19.7052
14.5407
11.0839
31.1579
27.9281
24.5569
28.2244
42.1055
39.727
40.7888
37.5432
39.1754
39.2843
43.9888
45.0754
36.0357
37.0246
43.8788
44.7916
36.8487
37.9449
40.2525
39.0285
34.8273
34.3528
34.6926
35.7796
62.2649
56.7718
50.7071
44.8146
81.6671
81.7226
80.7587
78.4126
84.808
88.8592
92.2174
77.904
86.7161
92.2125
106.012
95.9263
72.5219
69.5952
79.972
83.2389
72.5594
62.518
63.2358
69.4652
78.0753
79.653
69.8974
49.5118
63.1592
60.8697
54.3614
49.2233
50.7234
45.0303
2.15075
15.833
7.27873
8.81278
8.93517
8.76053
8.52111
8.60834
9.01418
9.51292
9.86614
10.0989
10.0973
10.0521
9.89949
9.71882
9.9388
10.7503
11.7314
12.6831
13.5988
14.4739
15.3397
15.959
15.6148
13.1083
7.91796
15.3864
11.3486
11.0684
15.4812
15.2769
15.4353
14.59
15.0022
13.2399
14.0139
10.713
12.1378
7.90581
9.22576
6.81955
7.14885
9.2578
7.02184
23.2464
17.8238
11.9779
16.7962
34.4817
31.4518
27.3007
30.6499
47.0521
44.0062
43.5593
39.7871
45.2998
45.4253
49.4635
50.8843
41.556
42.7637
50.3884
51.359
42.0966
43.5313
46.3698
44.985
40.5051
39.4516
39.6101
40.6923
75.0543
70.6941
65.498
59.5527
94.5391
95.346
95.384
94.3921
98.0312
103.881
110.688
95.9708
112.857
118.501
155.954
130.746
93.3286
83.7417
99.9172
112.832
91.5334
73.6787
72.3994
81.5202
95.8656
101.552
90.5219
51.0962
68.4109
63.4409
56.1432
51.709
52.4047
44.1976
2.22287
16.0467
8.74541
9.16543
8.88972
8.67251
8.64742
8.92468
9.27467
9.58936
9.83473
10.0335
10.111
9.94731
9.43648
8.66456
8.62137
9.65731
11.2659
12.6733
13.7762
14.6314
14.9223
13.6866
10.4039
6.27913
3.89454
6.39468
11.7539
6.67629
11.944
11.6154
11.8807
10.4136
11.1159
8.50054
9.53249
6.8935
7.56919
6.16268
6.44058
6.31178
6.10479
14.0457
12.3909
9.3648
7.64546
25.9516
22.0126
19.4969
36.573
33.6368
29.1016
31.847
51.4689
47.5499
45.446
40.9924
51.6767
51.6669
54.6037
56.6181
47.9075
49.2542
57.2488
58.0947
49.4189
50.7649
53.4819
52.1607
53.7557
49.4334
48.4969
48.4856
92.4033
89.8048
86.75
82.4529
114.427
116.883
117.323
117.386
132.484
153.086
176.383
148.314
186.291
182.788
199.424
186.094
125.06
111.846
148.892
160.948
122.208
84.1401
77.9613
115.514
145.131
158.203
99.0015
54.0325
72.3295
69.5338
59.9986
53.2731
54.0677
44.952
16.8811
28.5911
9.20725
9.11719
8.72122
8.62402
8.75136
9.04532
9.36719
9.72992
10.1093
10.2817
10.1123
9.22775
7.59583
6.07385
6.0445
7.44407
9.39359
10.9968
11.9163
11.5829
9.88152
7.2268
4.76156
3.45885
3.22044
4.38423
3.64995
3.15057
6.97505
4.53639
7.12916
6.9476
7.09664
6.40313
6.69488
5.84229
6.10463
5.6023
5.66622
5.63573
5.60808
6.22893
5.7707
17.3799
14.346
10.3307
8.58445
27.0457
23.8241
21.6436
37.4178
34.5063
29.6483
32.0869
55.5287
50.445
46.6284
41.2297
58.2495
58.0476
59.5533
62.2498
54.8704
56.2737
64.217
64.8866
61.2188
61.1542
62.1265
61.2551
77.094
70.2708
64.844
62.1475
116.583
115.189
114.703
112.131
173.391
173.212
171.232
164.116
183.924
184.813
393.344
193.94
443.14
425.412
408.724
445.91
189.08
158.773
199.403
188.884
193.19
91.6047
85.2957
123.501
196.792
140.186
115.728
55.5322
83.684
73.504
62.3844
55.3977
55.5292
49.5967
16.9611
48.6335
9.19144
8.83058
8.53308
8.59035
8.83163
9.2638
9.7601
10.3118
10.4902
10.2356
8.97338
6.72495
4.34762
3.73014
4.34663
5.54222
6.64789
7.30968
7.15861
6.16257
4.73928
3.62272
3.03418
2.76939
3.29942
2.97591
3.83654
2.81727
4.70718
4.83679
4.94476
4.90906
4.98122
4.96275
5.04575
5.00632
5.21698
5.11988
5.40951
5.32553
6.40218
5.6598
18.9241
16.3634
12.008
13.2379
11.4472
8.51924
27.4128
24.876
22.5459
37.4503
34.5935
29.6903
31.9065
59.4026
52.9847
47.4579
40.9306
64.8739
64.3613
64.3667
67.8497
62.6035
63.7348
71.7684
71.917
81.0176
77.9685
73.731
74.9304
109.401
101.754
94.1715
88.6335
162.16
153.65
154.431
149.713
394.495
376.25
380.725
368.093
429.146
369.378
796.751
447.963
856.719
835.467
810.936
854.445
466.145
202.87
460.881
436.556
488.182
107.997
110.847
165.897
493.901
272.661
490.823
161.501
58.9396
90.5481
83.6217
68.3659
57.2488
59.1331
67.8804
205.768
121.099
8.8126
8.46442
8.4111
8.6926
9.19246
9.86009
10.4068
10.5776
10.1852
8.61541
5.89992
3.37396
2.59829
2.71695
3.24103
3.7949
4.16438
4.18768
3.82421
3.29998
2.91116
2.66942
2.50856
2.39984
3.48642
3.09022
2.7554
3.97278
2.65765
4.09828
4.30924
4.20784
4.51753
4.41041
4.748
4.63101
5.02623
4.89281
5.22755
5.07591
6.90198
5.64109
20.2202
17.6345
15.5132
12.8814
9.35998
27.4511
25.226
23.0992
36.8503
34.1843
29.4614
31.3761
63.2469
55.3429
48.0385
40.0998
71.4018
70.7117
69.1387
73.5442
72.4114
72.1457
80.7207
79.713
117.214
107.769
92.0822
96.3664
151.088
145.362
129.444
129.237
369.69
355.656