/*--------------------------------*- C++ -*----------------------------------*\
  =========                 |
  \\      /  F ield         | OpenFOAM: The Open Source CFD Toolbox
   \\    /   O peration     | Website:  https://openfoam.org
    \\  /    A nd           | Version:  dev
     \\/     M anipulation  |
\*---------------------------------------------------------------------------*/
FoamFile
{
    version     2.0;
    format      ascii;
    class       volScalarField;
    location    "2500";
    object      p_rgh;
}
// * * * * * * * * * * * * * * * * * * * * * * * * * * * * * * * * * * * * * //

dimensions      [1 -1 -2 0 0 0 0];

internalField   nonuniform List<scalar> 
9842
(
0.00446534
0.00600278
0.00482873
0.00604439
0.00879934
0.00416857
0.00577168
0.0102502
0.0087572
0.00318145
0.0052578
0.01056
0.011451
0.00777637
0.00270078
0.00485941
0.00987077
0.013178
0.0110717
0.00627982
0.00200554
0.00446842
0.00986235
0.0142486
0.0136917
0.00981863
0.00477605
0.00139006
0.00407582
0.00933942
0.0138696
0.0154973
0.0127637
0.00821565
0.00389242
0.000833226
0.0032926
0.00869509
0.0129283
0.0163665
0.0153099
0.0112867
0.00701349
0.00325799
0.000225868
0.00297168
0.00831605
0.0121702
0.0168928
0.0169371
0.0141111
0.00967902
0.00549673
0.00258755
-0.000204726
0.00299599
0.00771278
0.0120772
0.0166915
0.017928
0.0164143
0.0127886
0.00831973
0.00484019
0.00185499
-0.000774155
0.00292927
0.00688936
0.0115094
0.0154296
0.0183892
0.0180574
0.0152416
0.0110017
0.00721867
0.00404727
0.00127541
-0.00123636
0.00247393
0.00594828
0.0107536
0.0148944
0.0186235
0.0190719
0.0170464
0.0134352
0.00961758
0.00618971
0.00318261
0.00069793
-0.0016194
0.00244182
0.00610443
0.0102149
0.01435
0.0180309
0.0195795
0.0188126
0.0159239
0.0118548
0.00833953
0.00517923
0.00248466
5.71222e-05
-0.00219064
0.00225078
0.00550571
0.00908215
0.0135224
0.0172957
0.0196011
0.0197391
0.0177899
0.014079
0.0104548
0.00745364
0.00447514
0.001887
-0.000471354
-0.00251219
0.00219103
0.00520834
0.00865469
0.0123998
0.0161983
0.0193917
0.0202735
0.0190592
0.0164449
0.0124552
0.00931773
0.00658463
0.00362727
0.00125824
-0.000975591
-0.00294767
0.00203386
0.00482548
0.00802931
0.0117342
0.0156652
0.0189133
0.0204626
0.0201281
0.0179512
0.0146081
0.0113724
0.00838308
0.00554318
0.00299468
0.000712315
-0.00142865
-0.00344321
0.00162263
0.00454801
0.00748326
0.0110413
0.0146679
0.0181487
0.0203313
0.0207812
0.0194715
0.0166314
0.0134542
0.010153
0.0072666
0.00471874
0.00239103
0.000127168
-0.00194154
-0.0038039
0.001481
0.0042486
0.00703088
0.0102301
0.0136469
0.0171139
0.0198219
0.0208961
0.0203721
0.0182623
0.015138
0.0117673
0.00915304
0.00653023
0.00392607
0.00167118
-0.000352055
-0.00244487
-0.00422749
0.00154141
0.003989
0.00642118
0.00913388
0.0126996
0.0159708
0.019052
0.0207928
0.0208775
0.0194292
0.0168785
0.0137633
0.010709
0.00817111
0.00570116
0.00337008
0.00110472
-0.000984795
-0.00285671
-0.00463353
0.00133415
0.00362331
0.00613627
0.00890393
0.0116523
0.0149848
0.0181412
0.0203191
0.0210752
0.0203289
0.0183882
0.0153285
0.0124232
0.00964911
0.00719577
0.00490522
0.00272142
0.000651963
-0.0013691
-0.00325975
-0.00504749
0.00120699
0.00318478
0.0056888
0.00821488
0.0108356
0.0140049
0.0171003
0.019635
0.0209702
0.0209724
0.0194791
0.016945
0.0140867
0.0113237
0.00885624
0.0064878
0.00421224
0.00197063
9.43065e-06
-0.00189791
-0.00370146
-0.00548519
0.00107025
0.00301447
0.0052698
0.00738983
0.00971709
0.0129145
0.0159225
0.0187925
0.0205505
0.0210962
0.0203239
0.0182773
0.0154568
0.0129153
0.0102878
0.00800394
0.00574322
0.00359425
0.00152645
-0.000458115
-0.00235905
-0.00415563
-0.0058369
0.000765195
0.00276681
0.00458944
0.00703022
0.00934438
0.0119287
0.0147797
0.0176051
0.0199155
0.0209488
0.0206711
0.0193162
0.0168615
0.0142382
0.0117983
0.00932867
0.00719132
0.00507944
0.00285598
0.00088939
-0.000992165
-0.00284892
-0.00456011
-0.00625606
0.000758948
0.00246081
0.00439481
0.00659124
0.00835136
0.010656
0.013227
0.016469
0.0191681
0.0205398
0.0208762
0.0200216
0.0180581
0.0155762
0.0130057
0.0108133
0.00856438
0.0065319
0.00439442
0.00221335
0.000367853
-0.00148218
-0.00339013
-0.00496652
-0.00662773
0.00063925
0.00203748
0.00407523
0.00593578
0.00789259
0.0100477
0.0125226
0.0155609
0.0178729
0.0199428
0.020833
0.0204175
0.0188978
0.0166323
0.0143262
0.0120641
0.00991485
0.00781919
0.00574468
0.00360968
0.0016008
-0.000149239
-0.00199369
-0.00373978
-0.00538381
-0.00694641
0.000385357
0.00195331
0.00358518
0.00544387
0.00725176
0.00902893
0.011514
0.0141682
0.0167875
0.0190859
0.0204109
0.0205738
0.0196523
0.0177562
0.0155869
0.0132661
0.0111599
0.00912403
0.00706434
0.00509294
0.00310687
0.0011508
-0.000701203
-0.00249415
-0.00416071
-0.00580586
-0.00729914
0.000264205
0.00174411
0.00322831
0.00488863
0.00656873
0.00837157
0.0106017
0.012936
0.0155476
0.0180217
0.0197698
0.0204773
0.0200658
0.0186596
0.0165004
0.0143911
0.0122954
0.0102587
0.00833374
0.0064783
0.00441535
0.00237681
0.000598116
-0.00131021
-0.0029837
-0.00463907
-0.00617282
-0.00762401
0.000247894
0.00154286
0.00286128
0.00437899
0.00600719
0.00757372
0.00943782
0.0118393
0.0142853
0.0168197
0.0189841
0.0201269
0.0201765
0.0192413
0.0175061
0.0154254
0.0133153
0.0112829
0.00955479
0.00752954
0.00571884
0.00379347
0.00178687
6.71359e-05
-0.00177241
-0.00347821
-0.00508485
-0.00647657
-0.00783702
0.000135432
0.00125587
0.00256286
0.00390145
0.0053941
0.00675759
0.0086007
0.0107886
0.012954
0.0155662
0.0179349
0.0195145
0.0200654
0.0196135
0.0183037
0.0162931
0.0143599
0.0123883
0.0105216
0.00880136
0.0070405
0.00505328
0.00307579
0.0012764
-0.000526563
-0.00230567
-0.00403103
-0.00545948
-0.00684116
-0.00806205
2.77408e-05
0.000952125
0.00209685
0.00343774
0.00479428
0.00619411
0.00789087
0.00970619
0.0118261
0.0143459
0.0167622
0.0186665
0.0196669
0.0196784
0.0188021
0.0171786
0.0152643
0.0134516
0.0116214
0.00993472
0.00811257
0.00635092
0.00445889
0.00254217
0.000704144
-0.00111662
-0.00283403
-0.00444554
-0.00589952
-0.00714837
-0.00823064
-0.000137961
0.000757213
0.00179266
0.00305499
0.00414741
0.00554029
0.00690089
0.00874656
0.0107059
0.0130949
0.015578
0.0176584
0.0190435
0.019505
0.0190406
0.0178221
0.0161013
0.0142041
0.0124963
0.0108587
0.00923669
0.00748168
0.00580075
0.0037538
0.0018717
7.79118e-05
-0.00172786
-0.00344104
-0.00495213
-0.00634815
-0.00745282
-0.00829311
-0.000227239
0.00068156
0.00159988
0.00265362
0.00360682
0.00488567
0.00610266
0.00785228
0.00927596
0.0117916
0.0142239
0.0164789
0.0182104
0.0190768
0.0190623
0.0182399
0.0167568
0.0150375
0.0133762
0.0117364
0.0101153
0.00865336
0.00689559
0.0050106
0.00317835
0.00124316
-0.000554422
-0.00236962
-0.00402613
-0.00546625
-0.00666885
-0.00762896
-0.00830044
-0.000276418
0.000480803
0.00131789
0.00217046
0.00307774
0.00411572
0.00548735
0.00689177
0.00832819
0.0106684
0.0128409
0.0152435
0.0171981
0.0184312
0.0188406
0.0183967
0.0173066
0.0157687
0.0140011
0.0125377
0.0110628
0.00945667
0.0078962
0.00628764
0.00436351
0.00244517
0.000534678
-0.00126851
-0.00296103
-0.00462754
-0.00601516
-0.00699941
-0.00775597
-0.00866527
-0.00847306
-0.000300211
0.000318388
0.00106868
0.00182771
0.0026847
0.00365652
0.00478693
0.00605103
0.0074047
0.00934404
0.0115148
0.0138771
0.0160597
0.01757
0.0183771
0.0183763
0.0176096
0.0162868
0.0147658
0.0132786
0.0118605
0.0104457
0.00899854
0.00728777
0.00567927
0.00389294
0.00172303
-1.93151e-06
-0.00200618
-0.00363448
-0.00523957
-0.00647638
-0.00757951
-0.00813796
-0.00793155
-0.0085307
-0.00832526
-0.000406608
0.000108718
0.000708339
0.00147267
0.00211693
0.00306967
0.00412394
0.00527797
0.00636091
0.00815001
0.0101937
0.012499
0.0147563
0.0165698
0.0177009
0.0180679
0.0177493
0.0167074
0.0153593
0.0137955
0.0125662
0.0112434
0.00988306
0.00837747
0.00668507
0.00504612
0.00312958
0.00100025
-0.000806914
-0.0028132
-0.00452101
-0.00594895
-0.00712836
-0.00698975
-0.00781522
-0.0078273
-0.00775802
-0.00816877
-0.00800828
-0.00834957
-0.00817922
-0.000430429
6.38142e-05
0.000509711
0.00117803
0.00178196
0.00256622
0.00335223
0.00448356
0.00552705
0.00716208
0.00891497
0.0110945
0.0133813
0.0153849
0.0168435
0.0175962
0.0176179
0.0169161
0.0158179
0.0144472
0.0131296
0.0119076
0.0106516
0.00941556
0.00782869
0.0061427
0.00440514
0.00227341
0.000286601
-0.00179139
-0.00370811
-0.0053936
-0.00676704
-0.00660104
-0.00766798
-0.00792176
-0.00770583
-0.0078702
-0.00806327
-0.00796916
-0.00812871
-0.00801325
-0.000488284
-5.95175e-05
0.000283593
0.000831721
0.00138155
0.00195522
0.0026727
0.00368784
0.00473476
0.00611764
0.00762974
0.00963649
0.0119266
0.0140867
0.0157994
0.0168621
0.01725
0.0169181
0.0160096
0.01494
0.013626
0.0124645
0.0113493
0.0102164
0.00885754
0.00726771
0.00560197
0.00378505
0.00152452
-0.000621359
-0.00278377
-0.00477381
-0.00638938
-0.00619995
-0.00749093
-0.0073247
-0.00767112
-0.00792148
-0.00786037
-0.00793342
-0.00789198
-0.00783816
-0.00782368
-0.00773535
-0.000450358
-0.000129342
0.000168748
0.000524422
0.00103427
0.00143805
0.00215684
0.00291958
0.00397772
0.00504075
0.00650598
0.00829464
0.0104652
0.0126797
0.0145749
0.0159479
0.0166533
0.0166876
0.0161916
0.0152178
0.0140386
0.0129343
0.0118895
0.0108439
0.00969031
0.00823808
0.00670294
0.00492938
0.00275731
0.000652951
-0.00167133
-0.00400241
-0.00593383
-0.00567334
-0.0071507
-0.00696746
-0.00763542
-0.00759659
-0.00788587
-0.00785535
-0.00799044
-0.00793253
-0.00766575
-0.00765725
-0.00744812
-0.00738104
-0.000497786
-0.000292875
-1.38747e-05
0.000277721
0.000654558
0.00106639
0.00163299
0.00220912
0.00308077
0.00408679
0.00544233
0.00698157
0.00892797
0.0111356
0.0132535
0.0148764
0.0158985
0.0162791
0.0160307
0.0153474
0.0143055
0.0133407
0.0123525
0.0114265
0.0104141
0.00921009
0.00781744
0.00599863
0.00408353
0.00207407
-0.000372991
-0.00296642
-0.0053117
-0.00492698
-0.00674479
-0.00648994
-0.00753625
-0.00745135
-0.00792436
-0.00796358
-0.00809178
-0.00772914
-0.00806458
-0.00787332
-0.00734751
-0.00739723
-0.00698584
-0.00695435
-0.000493473
-0.000331665
-0.000160396
5.21225e-05
0.000291066
0.000663606
0.00103223
0.00156348
0.00229563
0.00326254
0.00435692
0.00580853
0.00755908
0.00961831
0.0118157
0.01364
0.0149387
0.0156475
0.0157605
0.0153285
0.0145278
0.0136422
0.0127631
0.0119249
0.0110776
0.0100556
0.00881619
0.0073
0.00562208
0.00320256
0.00115308
-0.0016348
-0.00443212
-0.00386551
-0.00616416
-0.00577323
-0.00732103
-0.00714032
-0.00798777
-0.00798399
-0.00821803
-0.00834411
-0.00825197
-0.00753148
-0.00808542
-0.00774399
-0.00696142
-0.00706368
-0.00645271
-0.00645445
-0.000469949
-0.000358847
-0.000234482
-0.000120375
3.70405e-05
0.000253572
0.000522631
0.00092801
0.00149404
0.00232801
0.00336151
0.00461367
0.00621924
0.00813301
0.0102716
0.0122797
0.0138131
0.0148448
0.0152682
0.0151324
0.0145673
0.013806
0.0130348
0.012308
0.0115937
0.0107795
0.00977743
0.00851078
0.00689982
0.00520286
0.00287714
-0.000120214
-0.00317845
-0.00245024
-0.00527604
-0.00472699
-0.0068723
-0.00652295
-0.00793694
-0.00782338
-0.00846262
-0.00855109
-0.00847545
-0.00870193
-0.00836556
-0.0072551
-0.00803793
-0.00753038
-0.00649853
-0.00664811
-0.00585109
-0.00588196
-0.000431159
-0.00036281
-0.000296593
-0.00024394
-0.000164415
-3.72191e-05
0.000112192
0.000424944
0.000812092
0.0014235
0.00229
0.00343932
0.00488214
0.00664093
0.00870732
0.0107857
0.0125641
0.0138397
0.0145462
0.0147442
0.0144373
0.0138443
0.0131794
0.0125561
0.0119715
0.0113431
0.0105845
0.00958263
0.00819083
0.0064519
0.00454136
0.00199969
-0.0015711
-0.00073629
-0.00397607
-0.0032766
-0.00603946
-0.00551105
-0.00761449
-0.00729763
-0.00859449
-0.00854759
-0.00892735
-0.00911689
-0.00869144
-0.00902604
-0.00841215
-0.0068873
-0.00790088
-0.00721293
-0.00595796
-0.00614434
-0.00518931
-0.00524307
-0.000376271
-0.000342883
-0.000326811
-0.000318454
-0.000317143
-0.000301707
-0.000252005
-2.38321e-05
0.000205431
0.000634898
0.00141906
0.00230424
0.00356197
0.00518148
0.00710868
0.00920822
0.0111385
0.0126427
0.0136712
0.014161
0.0141306
0.0137394
0.0131946
0.0126668
0.0122022
0.0117456
0.011203
0.0104881
0.00946951
0.00784598
0.00581918
0.00396387
0.00036415
0.00133652
-0.00230779
-0.00139227
-0.00471169
-0.00394027
-0.00681713
-0.00622244
-0.0083762
-0.00800401
-0.00923103
-0.00916866
-0.00935592
-0.00958496
-0.00883978
-0.00926049
-0.0083598
-0.00641795
-0.00764191
-0.00676754
-0.00534281
-0.00554979
-0.00448932
-0.00455753
-0.000305682
-0.000299707
-0.000325367
-0.00037031
-0.000444764
-0.000505383
-0.000482024
-0.000395415
-0.00032107
-2.29279e-05
0.000570655
0.00129112
0.00231843
0.00374371
0.00551715
0.00755342
0.00959243
0.0113254
0.0126029
0.0133528
0.0136373
0.0134757
0.0130809
0.0126484
0.0122803
0.0119717
0.0116384
0.0111833
0.0104885
0.00937823
0.00791748
0.00551703
0.00285785
0.00373806
-0.000226489
0.00093897
-0.00284747
-0.00169422
-0.00520849
-0.0040011
-0.00725327
-0.00595861
-0.00872235
-0.00746063
-0.00952399
-0.008639
-0.00956396
-0.00930401
-0.00884266
-0.0091303
-0.00812123
-0.00583211
-0.00718736
-0.00614745
-0.00466614
-0.00487024
-0.00377784
-0.00385235
-0.000222413
-0.000233011
-0.000290894
-0.000378307
-0.000494611
-0.000611154
-0.000661701
-0.000708546
-0.00075105
-0.00059445
-0.000171442
0.000344631
0.00115694
0.00237085
0.00395268
0.00586541
0.00792616
0.00984403
0.0113451
0.0123773
0.0129621
0.0130465
0.012831
0.012502
0.0122142
0.0120173
0.0118704
0.0116622
0.0112665
0.0106224
0.00943168
0.00789278
0.00573179
0.00222447
0.00383743
-0.000202041
0.00147148
-0.00217189
0.00064053
-0.00344575
0.00119595
-0.00446221
0.00215935
-0.00575317
0.00182256
-0.00731666
-0.000884109
-0.00845805
-0.00455366
-0.00835417
-0.00708462
-0.00733933
-0.00510626
-0.00621939
-0.00512858
-0.00394812
-0.00410705
-0.0031054
-0.00317754
-0.000131307
-0.000142856
-0.000220556
-0.000343263
-0.000503622
-0.000682521
-0.000786344
-0.000942014
-0.00110869
-0.00107925
-0.000825442
-0.00051649
7.05358e-05
0.00106568
0.00244056
0.00418055
0.00618376
0.00820116
0.00993832
0.0112604
0.0120703
0.0124539
0.0124359
0.0122253
0.0120122
0.0118971
0.0118908
0.0118994
0.0118171
0.01154
0.0106538
0.00965051
0.00811508
0.00734797
0.00929735
0.00337368
0.00530575
0.00426304
0.0092448
0.00902384
0.0201529
0.016107
0.0363579
0.0191097
0.049363
0.0154694
0.0512612
0.00798669
0.0385341
-0.000541544
0.0202775
-0.00548959
0.00397964
-0.00406633
-0.00413101
-0.00304169
-0.00253668
-0.00324263
-0.00325727
-0.00254196
-0.00260372
-4.5345e-05
-3.85419e-05
-0.000111966
-0.000257487
-0.000458857
-0.0006962
-0.00084152
-0.00110173
-0.00136414
-0.00134866
-0.00134263
-0.0012665
-0.000930662
-0.000166283
0.000986429
0.00252209
0.00440481
0.00644427
0.00837931
0.00995723
0.0110121
0.0116986
0.0118966
0.0118263
0.0116843
0.0116213
0.0117089
0.0118875
0.0120683
0.0121242
0.0119013
0.0111744
0.0101176
0.0111203
0.0124691
0.0252504
0.0298454
0.0146091
0.0200685
0.0329242
0.0477145
0.0596646
0.0841273
0.0846587
0.120382
0.0985866
0.147894
0.0963838
0.160189
0.0705163
0.149538
0.0345144
0.106777
0.00796509
0.0481644
0.0101025
-0.00235202
0.00977911
0.00706257
-0.00260013
-0.00219639
-0.00223819
-0.00221484
1.55628e-05
5.30499e-05
2.07997e-05
-0.000114507
-0.000344499
-0.000630478
-0.00084513
-0.00117728
-0.00152001
-0.00160406
-0.00182195
-0.00193188
-0.00183243
-0.00131089
-0.000404371
0.000903498
0.00261049
0.00460605
0.00664412
0.00845527
0.00985344
0.010746
0.011228
0.0113187
0.01125
0.0112014
0.011332
0.0116227
0.0120077
0.0123905
0.0125514
0.0123106
0.0120999
0.013407
0.0122882
0.0328578
0.034164
0.084478
0.0923796
0.0617332
0.074057
0.107659
0.130164
0.154238
0.185119
0.194737
0.236565
0.221908
0.277798
0.230021
0.30326
0.20808
0.304032
0.143086
0.267009
0.0581284
0.174038
0.0611958
0.00325729
0.0553478
0.0418714
-0.00197459
0.000130053
-0.00235682
-0.00213926
2.52974e-05
8.34309e-05
0.000121682
5.18997e-05
-0.000152381
-0.000467147
-0.000772993
-0.00115927
-0.00156828
-0.00177399
-0.00213258
-0.00254646
-0.00259962
-0.0023469
-0.0017143
-0.000670829
0.000821943
0.0027023
0.00478121
0.00679789
0.00850304
0.00963974
0.0104148
0.010712
0.010724
0.0106659
0.010777
0.0111079
0.0116341
0.0122866
0.0128806
0.013186
0.0131321
0.0236744
0.0344715
0.0370074
0.0966007
0.0973618
0.176229
0.184585
0.149267
0.164441
0.212553
0.23682
0.273024
0.304332
0.326272
0.366963
0.366678
0.419832
0.387884
0.457611
0.378366
0.472132
0.320425
0.44897
0.192803
0.364682
0.194015
0.0244528
0.173239
0.138272
-0.00115035
0.00872918
-0.00390753
-0.00304884
4.05657e-05
0.000119897
0.00014691
4.6265e-05
-0.00021949
-0.000595853
-0.00105737
-0.00152001
-0.00183776
-0.00236182
-0.00281055
-0.00313709
-0.00322233
-0.00290597
-0.00218149
-0.000971072
0.000721609
0.00276658
0.00493166
0.00692738
0.00848815
0.00945886
0.00999991
0.0101184
0.0100429
0.0100763
0.0103547
0.0109504
0.011811
0.0128219
0.0135598
0.014159
0.0196151
0.0891802
0.0816063
0.0966293
0.0946457
0.188293
0.187724
0.281671
0.288469
0.256351
0.271025
0.331325
0.353675
0.400729
0.428624
0.463147
0.497457
0.513674
0.557265
0.546194
0.604091
0.550061
0.630413
0.507634
0.62271
0.392164
0.552688
0.399432
0.0912121
0.378099
0.323564
7.00799e-05
0.0369566
-0.00819073
-0.00477562
4.13174e-05
0.000116644
0.000115029
-3.26808e-05
-0.000345903
-0.000848616
-0.00135827
-0.00177892
-0.00240397
-0.0029978
-0.00356827
-0.00389102
-0.00393443
-0.00357547
-0.00269215
-0.00123962
0.000701883
0.00293024
0.00516205
0.00708707
0.00846224
0.00918817
0.00944279
0.009368
0.0092791
0.00942327
0.00999996
0.0109745
0.0122735
0.0135596
0.0148222
0.0190916
0.0734747
0.0554347
0.172661
0.161899
0.185518
0.181251
0.290173
0.28753
0.391011
0.394954
0.370802
0.382998
0.451861
0.469622
0.524247
0.545432
0.590168
0.614297
0.646199
0.675214
0.684894
0.7156
0.700348
0.737345
0.675683
0.74574
0.581003
0.710761
0.58688
0.23061
0.569556
0.535005
0.39958
0.00759803
0.129699
-0.0147974
-0.00191595
3.56637e-05
6.75287e-05
1.65029e-05
-0.000179296
-0.000559785
-0.00106151
-0.00161547
-0.00227326
-0.00300508
-0.00372207
-0.00437829
-0.00474884
-0.0047984
-0.00433003
-0.00322145
-0.00148548
0.0007338
0.0031649
0.00545319
0.00729193
0.00842971
0.00882561
0.00873833
0.00848473
0.00842664
0.00884933
0.00980122
0.0112584
0.0130274
0.0148784
0.0182187
0.0742295
0.14344
0.138487
0.26461
0.250296
0.283356
0.276434
0.393513
0.388741
0.493513
0.493048
0.481988
0.48973
0.561829
0.572935
0.631958
0.645216
0.694885
0.708194
0.73151
0.740987
0.75087
0.7534
0.76847
0.76887
0.777524
0.789577
0.734433
0.799171
0.768424
0.660657
0.736805
0.498365
0.308463
0.465038
0.635688
0.728997
0.72903
0.620023
0.0192052
0.0769152
0.416174
0.374321
0.217459
-0.0147031
0.066195
0.00934342
0.0560889
-5.60372e-07
-3.08112e-05
-0.000136457
-0.000380098
-0.000775063
-0.00136614
-0.00203792
-0.00284309
-0.00374814
-0.00456104
-0.00531498
-0.00578491
-0.00578857
-0.00512652
-0.00371843
-0.00162511
0.000936876
0.00357816
0.00591687
0.00760198
0.00842984
0.00840614
0.00790992
0.0075123
0.00757624
0.00831396
0.00982618
0.0119177
0.0141228
0.0172885
0.0503992
0.190505
0.153267
0.23087
0.212186
0.357582
0.340591
0.382141
0.372265
0.487724
0.480584
0.580163
0.573882
0.579277
0.581595
0.654256
0.658789
0.717832
0.724382
0.747986
0.754244
0.753559
0.754951
0.762455
0.75355
0.783191
0.77712
0.769407
0.759596
0.805502
0.803238
0.780868
0.783887
0.796133
0.80383
0.781924
0.815357
0.81394
0.78778
0.593523
0.56114
0.714763
0.784262
0.788373
0.69907
0.180571
0.527636
0.499898
0.34221
0.119473
0.0551693
0.178654
0.18236
-5.01835e-05
-0.000163538
-0.00032465
-0.000594309
-0.00100026
-0.00171354
-0.00249387
-0.00349335
-0.00444022
-0.0055522
-0.00646154
-0.00697807
-0.00684632
-0.00588213
-0.00403866
-0.00145447
0.00154107
0.00441384
0.00670282
0.00813422
0.00848347
0.0079236
0.00698986
0.00635707
0.00661921
0.00800772
0.0102557
0.0128855
0.0161273
0.0343576
0.165053
0.267449
0.25538
0.318703
0.298039
0.440941
0.422146
0.471045
0.457693
0.565675
0.554994
0.648817
0.638361
0.659501
0.656403
0.727199
0.725868
0.759992
0.763736
0.758078
0.763119
0.746143
0.741544
0.749745
0.739998
0.731996
0.724465
0.769805
0.75762
0.745706
0.811724
0.801464
0.770103
0.771116
0.786557
0.821229
0.818591
0.827934
0.817605
0.823019
0.677875
0.654737
0.77671
0.824855
0.824467
0.765601
0.329886
0.633573
0.616533
0.483535
0.496878
0.178724
0.180034
0.500796
0.345751
0.392449
-0.000113984
-0.000317714
-0.000517806
-0.00074374
-0.00128456
-0.00203719
-0.0030301
-0.00411811
-0.00543569
-0.00674526
-0.00779358
-0.0082424
-0.00779471
-0.00628018
-0.00373828
-0.000449507
0.00298154
0.00605929
0.00821831
0.00906912
0.00859228
0.00719122
0.00570496
0.00516275
0.0059629
0.00805667
0.0110137
0.0145363
0.0245901
0.110978
0.297911
0.250681
0.34987
0.322623
0.399816
0.376964
0.504307
0.484227
0.540504
0.523461
0.623606
0.604495
0.693131
0.670804
0.719641
0.709489
0.761603
0.755998
0.768307
0.769585
0.740694
0.743333
0.718599
0.713174
0.709195
0.705405
0.734745
0.724953
0.716063
0.707792
0.756399
0.744237
0.734055
0.805275
0.788931
0.757588
0.761787
0.773167
0.823286
0.832906
0.828378
0.808852
0.837516
0.751703
0.736999
0.821647
0.841067
0.843915
0.816702
0.484526
0.722532
0.709259
0.606849
0.540682
0.608396
0.168554
0.536027
0.507246
-0.000210061
-0.000490019
-0.000675517
-0.00090762
-0.00151466
-0.00239106
-0.00356879
-0.00496769
-0.00659521
-0.00813579
-0.00916382
-0.00920988
-0.00794801
-0.00533523
-0.0016729
0.00249564
0.00645821
0.00955519
0.0110427
0.0106302
0.00854266
0.00594055
0.00410929
0.00393092
0.00540255
0.00837701
0.0121147
0.0189445
0.0701733
0.252596
0.357829
0.341877
0.414381
0.390036
0.462147
0.439815
0.540958
0.519906
0.583693
0.562415
0.64596
0.619687
0.69978
0.667739
0.745398
0.726494
0.765811
0.755541
0.743557
0.740082
0.703214
0.70084
0.700136
0.699398
0.7001
0.692913
0.686468
0.680513
0.724979
0.716175
0.707051
0.697352
0.74749
0.739227
0.731627
0.791442
0.776475
0.754111
0.762959
0.767869
0.812935
0.833385
0.817317
0.794448
0.838421
0.810104
0.801897
0.845864
0.843317
0.848341
0.846983
0.610775
0.792018
0.781787
0.701178
0.631024
0.65251
0.659072
0.154826
0.531765
-0.000353181
-0.000652305
-0.000732779
-0.000996081
-0.00168572
-0.00276632
-0.00414635
-0.0060022
-0.00794157
-0.00947241
-0.00989498
-0.00857479
-0.00535419
-0.000562049
0.00503845
0.0102957
0.0144394
0.0165768
0.0158864
0.0122912
0.00831877
0.00458533
0.00278518
0.00325027
0.00544949
0.00931806
0.0152797
0.0435444
0.185989
0.362677
0.319823
0.409788
0.386074
0.456067
0.434811
0.498698
0.478025
0.546454
0.525995
0.593549
0.568966
0.633117
0.599157
0.658712
0.613912
0.733961
0.7003
0.727605
0.700413
0.676408
0.658095
0.675329
0.670356
0.666145
0.6609
0.687012
0.676221
0.665896
0.65629
0.723902
0.715115
0.705038
0.693382
0.74863
0.744509
0.739973
0.780751
0.774245
0.762465
0.779093
0.773862
0.79812
0.822009
0.802045
0.785447
0.82726
0.847209
0.846356
0.853508
0.833273
0.840451
0.858996
0.702827
0.84379
0.839392
0.77501
0.712205
0.712676
0.676628
0.204147
0.548979
-0.000563945
-0.000697162
-0.000661746
-0.0010048
-0.00182577
-0.00309407
-0.00499897
-0.00719655
-0.00909334
-0.00968919
-0.00790853
-0.00329103
0.00358564
0.0108578
0.0172306
0.0221026
0.0247254
0.0241941
0.0205873
0.015373
0.0102754
0.00664995
0.00462282
0.00470843
0.0073238
0.0121972
0.0293867
0.124775
0.311402
0.395688
0.381824
0.436724
0.418856
0.471862
0.455234
0.506862
0.489166
0.521155
0.503608
0.568584
0.542671
0.571076
0.534273
0.552056
0.499964
0.659289
0.60786
0.623802
0.575227
0.610869
0.596868
0.559012
0.580835
0.647236
0.63856
0.630088
0.620748
0.680263
0.665789
0.650355
0.635609
0.733569
0.724192
0.711863
0.696442
0.763437
0.76382
0.761541
0.780823
0.785299
0.786009
0.809331
0.796105
0.789967
0.806259
0.793932
0.786881
0.811037
0.864329
0.870056
0.848928
0.816985
0.824931
0.859043
0.772402
0.874898
0.87848
0.833884
0.76855
0.745167
0.680124
0.180898
0.526436
-0.000581315
-0.000512171
-0.000454869
-0.000913938
-0.00191946
-0.00367075
-0.00594891
-0.00803795
-0.00859649
-0.00604385
0.000217613
0.0085371
0.0166096
0.023647
0.0290531
0.0322301
0.0327713
0.0310974
0.0295772
0.0287903
0.0251263
0.019241
0.0135767
0.0103623
0.0106301
0.0237808
0.0840084
0.25684
0.384117
0.356367
0.414934
0.401805
0.441444
0.429958
0.464374
0.453164
0.489079
0.476366
0.467834
0.457398
0.505183
0.483665
0.457621
0.427702
0.390621
0.344387
0.514307
0.450551
0.534179
0.501556
0.419196
0.564897
0.546319
0.499873
0.525036
0.621428
0.607874
0.594541
0.580538
0.678472
0.658983
0.638709
0.618053
0.75474
0.7434
0.726911
0.705596
0.792051
0.795215
0.793036
0.795173
0.811303
0.821712
0.849819
0.830886
0.79173
0.797247
0.79484
0.802602
0.800428
0.870364
0.881798
0.835786
0.804504
0.810514
0.849757
0.826784
0.892285
0.90225
0.877556
0.810449
0.769782
0.668975
0.063801
0.401601
-0.000421945
-0.000177432
-0.000163565
-0.000765129
-0.00216366
-0.00430995
-0.00640688
-0.00679742
-0.00343717
0.00396222
0.0129335
0.0213819
0.0284844
0.033999
0.0377316
0.0399532
0.0425946
0.0485492
0.0574854
0.0626742
0.0578169
0.0429424
0.0258374
0.0139627
0.0212377
0.0650628
0.202656
0.346801
0.397612
0.388251
0.417793
0.409457
0.431802
0.42583
0.441309
0.436898
0.449952
0.445068
0.393971
0.395346
0.408522
0.398739
0.314184
0.298684
0.234341
0.20281
0.347123
0.287137
0.472345
0.44265
0.34515
0.309914
0.520942
0.497707
0.443026
0.471834
0.598223
0.579428
0.561044
0.541874
0.680762
0.653642
0.62639
0.599864
0.783254
0.767661
0.743855
0.713994
0.83065
0.83368
0.827596
0.823141
0.848534
0.864867
0.895272
0.873998
0.806287
0.796461
0.806553
0.829652
0.797869
0.867067
0.887222
0.820904
0.800456
0.804552
0.837455
0.867895
0.904617
0.918774
0.907397
0.841703
0.783555
0.643538
0.0294791
0.280843
-0.000125055
0.000268122
0.000209582
-0.000669321
-0.00246167
-0.0043827
-0.0046053
-0.00072384
0.00723943
0.0164018
0.0244731
0.0311538
0.036506
0.0408111
0.0451578
0.0527119
0.067536
0.0865783
0.100997
0.100154
0.0851118
0.0585182
0.0279284
0.0234694
0.0599026
0.168316
0.308651
0.384325
0.371896
0.401333
0.39492
0.410567
0.406968
0.413213
0.413276
0.40748
0.410939
0.398817
0.403197
0.310325
0.325992
0.293287
0.297637
0.18743
0.181289
0.148745
0.122907
0.278157
0.241448
0.188708
0.412007
0.379102
0.293553
0.26348
0.477892
0.450259
0.389181
0.42065
0.574717
0.551029
0.527794
0.503683
0.679907
0.64467
0.60954
0.576623
0.812775
0.788293
0.75478
0.713415
0.872981
0.871383
0.859058
0.860436
0.892136
0.908675
0.939099
0.919878
0.830742
0.804238
0.826715
0.864884
0.801078
0.860809
0.887511
0.813183
0.800647
0.804622
0.829368
0.899666
0.913794
0.933725
0.928798
0.86568
0.788036
0.570236
0.0244879
0.196217
0.000299945
0.000782039
0.000581342
-0.000652612
-0.00222345
-0.00229843
0.00172212
0.00986264
0.0185326
0.0255458
0.0315073
0.036739
0.0416289
0.0482765
0.0607693
0.0824208
0.111071
0.131095
0.135675
0.125968
0.101606
0.064202
0.0363987
0.0614679
0.158194
0.279645
0.363878
0.388969
0.382507
0.396534
0.393692
0.397396
0.398287
0.38829
0.393994
0.369508
0.380105
0.341793
0.356577
0.226069
0.252731
0.186065
0.202724
0.102379
0.0920903
0.139887
0.121291
0.102759
0.236243
0.210693
0.15162
0.170879
0.356907
0.324902
0.249272
0.224512
0.432594
0.40144
0.337196
0.36944
0.546613
0.518529
0.490866
0.462455
0.669327
0.623753
0.58063
0.542105
0.835552
0.80045
0.755676
0.702322
0.911568
0.901468
0.882858
0.902179
0.936322
0.946694
0.975226
0.961993
0.861674
0.819138
0.851604
0.902068
0.810923
0.855608
0.888219
0.813134
0.805108
0.807873
0.830273
0.92522
0.921219
0.948111
0.947336
0.885901
0.771192
0.48057
0.0225898
0.133484
0.000799422
0.00126753
0.00088632
-0.00017883
-0.000108045
0.00379199
0.0116527
0.0193413
0.0250465
0.0303209
0.0351588
0.0408863
0.0493518
0.0657069
0.0935967
0.124382
0.145087
0.154487
0.153858
0.142361
0.114586
0.0787995
0.0788226
0.158562
0.268523
0.346298
0.374394
0.370244
0.383527
0.380169
0.385052
0.385318
0.376968
0.382331
0.357912
0.368905
0.325884
0.343702
0.279524
0.304304
0.143314
0.176357
0.0960201
0.115808
0.0719108
0.0523619
0.144654
0.130219
0.138776
0.110994
0.203859
0.18629
0.158389
0.169802
0.305842
0.276491
0.216456
0.203295
0.381119
0.34815
0.285872
0.316009
0.508265
0.476498
0.445332
0.41377
0.64482
0.588875
0.537462
0.493384
0.850163
0.805628
0.751186
0.687413
0.94014
0.924451
0.896643
0.941702
0.973794
0.972342
0.997953
0.993678
0.891838
0.837818
0.873903
0.933029
0.82446
0.85679
0.891552
0.819756
0.816399
0.818759
0.839729
0.946736
0.930919
0.963696
0.965837
0.899766
0.729051
0.390862
0.0125845
0.0689312
0.00136648
0.0017068
0.00153293
0.00179075
0.00532929
0.0127004
0.0192982
0.0238517
0.0281371
0.0324804
0.0388668
0.049023
0.0678707
0.0974331
0.126602
0.145123
0.156614
0.163023
0.164584
0.157367
0.140152
0.133039
0.178226
0.265587
0.335331
0.356317
0.364807
0.359164
0.367789
0.36712
0.362783
0.366427
0.346685
0.356276
0.316738
0.333578
0.271274
0.296021
0.210251
0.242454
0.0649565
0.0973433
0.0400704
0.0430746
0.0876332
0.0635873
0.0436802
0.17901
0.161522
0.198078
0.162255
0.192102
0.180615
0.190713
0.198135
0.258647
0.235192
0.207085
0.204317
0.322268
0.291173
0.240339
0.263259
0.455952
0.421294
0.387927
0.354954
0.617744
0.548352
0.485917
0.434044
0.858436
0.807838
0.746291
0.676269
0.958773
0.937897
0.901614
0.971294
0.999884
0.987817
1.01079
1.01508
0.915784
0.854806
0.893839
0.958213
0.839765
0.868178
0.902681
0.834465
0.835001
0.842881
0.859307
0.967035
0.943281
0.980755
0.985401
0.901822
0.670342
0.289461
0.0114457
0.041065
0.00197326
0.00236186
0.00323597
0.0062997
0.0129803
0.0188391
0.0225034
0.0256404
0.0295355
0.0361489
0.0472589
0.0675081
0.0957874
0.119191
0.137044
0.150505
0.160361
0.167602
0.174404
0.179466
0.18903
0.220954
0.273775
0.326598
0.343979
0.31361
0.339247
0.340159
0.336968
0.339069
0.325489
0.332662
0.3006
0.314903
0.259497
0.282201
0.201825
0.23258
0.132361
0.167905
0.0117564
0.0261149
0.0210213
0.00975485
0.12294
0.083618
0.0439074
0.0830723
0.247987
0.227632
0.28987
0.24245
0.201749
0.201879
0.259326
0.262646
0.224002
0.213884
0.226734
0.239583
0.263457
0.240738
0.217809
0.225449
0.392084
0.35503
0.32144
0.290838
0.598765
0.518546
0.442434
0.378346
0.858228
0.803552
0.738156
0.664783
0.970018
0.938972
0.898227
0.99571
1.022