/*--------------------------------*- C++ -*----------------------------------*\
  =========                 |
  \\      /  F ield         | OpenFOAM: The Open Source CFD Toolbox
   \\    /   O peration     | Website:  https://openfoam.org
    \\  /    A nd           | Version:  dev
     \\/     M anipulation  |
\*---------------------------------------------------------------------------*/
FoamFile
{
    version     2.0;
    format      ascii;
    class       surfaceScalarField;
    location    "2500";
    object      phi;
}
// * * * * * * * * * * * * * * * * * * * * * * * * * * * * * * * * * * * * * //

dimensions      [1 0 -1 0 0 0 0];

internalField   nonuniform List<scalar> 
19515
(
1.74154e-07
1.24942e-07
1.52004e-07
3.13373e-07
4.88557e-07
1.13724e-07
1.26185e-07
4.36071e-07
4.85558e-07
3.16313e-07
7.15089e-07
9.6506e-08
1.05235e-07
5.29044e-07
4.53219e-07
4.68388e-07
7.40393e-07
2.90965e-07
8.96703e-07
8.26854e-08
8.90948e-08
6.03829e-07
4.00957e-07
5.81292e-07
7.48562e-07
4.6018e-07
9.32102e-07
2.5556e-07
1.05699e-06
7.32783e-08
7.60442e-08
6.64553e-07
3.44812e-07
6.59899e-07
7.3225e-07
5.97557e-07
9.69295e-07
4.22975e-07
1.08705e-06
2.25489e-07
1.20147e-06
6.68137e-08
6.55773e-08
7.1531e-07
2.94378e-07
7.14937e-07
6.91189e-07
7.00946e-07
9.9122e-07
5.75589e-07
1.13014e-06
3.79856e-07
1.22267e-06
2.04269e-07
1.3361e-06
6.16324e-08
5.69229e-08
7.5938e-07
2.52705e-07
7.56924e-07
6.32084e-07
7.74016e-07
9.87954e-07
7.04154e-07
1.17536e-06
5.30356e-07
1.26067e-06
3.41873e-07
1.35289e-06
1.87456e-07
1.46174e-06
5.72439e-08
5.01099e-08
7.98001e-07
2.20362e-07
7.9166e-07
5.66742e-07
8.22345e-07
9.58971e-07
8.02916e-07
1.20822e-06
6.71228e-07
1.30956e-06
4.81431e-07
1.38119e-06
3.13548e-07
1.4744e-06
1.74768e-07
1.57918e-06
5.36104e-08
4.57093e-08
8.31401e-07
1.96865e-07
8.21351e-07
5.05344e-07
8.53041e-07
9.07972e-07
8.73126e-07
1.21721e-06
7.93879e-07
1.36049e-06
6.20265e-07
1.42236e-06
4.40297e-07
1.49621e-06
2.91708e-07
1.59047e-06
1.63458e-07
1.69038e-06
5.05707e-08
4.26693e-08
8.61741e-07
1.78904e-07
8.49302e-07
4.52008e-07
8.74567e-07
8.40506e-07
9.20376e-07
1.19881e-06
8.91455e-07
1.40206e-06
7.5225e-07
1.47467e-06
5.67838e-07
1.52837e-06
4.08112e-07
1.60858e-06
2.73569e-07
1.69962e-06
1.54158e-07
1.79554e-06
4.81831e-08
3.98674e-08
8.90425e-07
1.64249e-07
8.76494e-07
4.09521e-07
8.91737e-07
7.68154e-07
9.469e-07
1.15605e-06
9.63116e-07
1.4219e-06
8.71558e-07
1.52917e-06
6.977e-07
1.57089e-06
5.25282e-07
1.63388e-06
3.82765e-07
1.71487e-06
2.58336e-07
1.80353e-06
1.46157e-07
1.89659e-06
4.59884e-08
3.75966e-08
9.16223e-07
1.54661e-07
8.99919e-07
3.78201e-07
9.07754e-07
6.9979e-07
9.60076e-07
1.09463e-06
1.0083e-06
1.41439e-06
9.70587e-07
1.57604e-06
8.2464e-07
1.62408e-06
6.44453e-07
1.66743e-06
4.91705e-07
1.73582e-06
3.61782e-07
1.81669e-06
2.45168e-07
1.90362e-06
1.39131e-07
1.99374e-06
4.41033e-08
3.5978e-08
9.39721e-07
1.47116e-07
9.23643e-07
3.52422e-07
9.25661e-07
6.3949e-07
9.67974e-07
1.02117e-06
1.03345e-06
1.38028e-06
1.04239e-06
1.60436e-06
9.42248e-07
1.68109e-06
7.67629e-07
1.7099e-06
6.01862e-07
1.76306e-06
4.64415e-07
1.83478e-06
3.43608e-07
1.91527e-06
2.33455e-07
1.99939e-06
1.33442e-07
2.0866e-06
4.25896e-08
3.47002e-08
9.62264e-07
1.39638e-07
9.47022e-07
3.3191e-07
9.4407e-07
5.89878e-07
9.75227e-07
9.43223e-07
1.04589e-06
1.32462e-06
1.08902e-06
1.60693e-06
1.03981e-06
1.73195e-06
8.91355e-07
1.76178e-06
7.15719e-07
1.79712e-06
5.67737e-07
1.85776e-06
4.41394e-07
1.93113e-06
3.27708e-07
2.00924e-06
2.23622e-07
2.09204e-06
1.27979e-07
2.17749e-06
4.09864e-08
3.36063e-08
9.83846e-07
1.34249e-07
9.67578e-07
3.15707e-07
9.63289e-07
5.49925e-07
9.83924e-07
8.69047e-07
1.04948e-06
1.25395e-06
1.11652e-06
1.58244e-06
1.11351e-06
1.76715e-06
1.00456e-06
1.8188e-06
8.34309e-07
1.83916e-06
6.73621e-07
1.88645e-06
5.38959e-07
1.95123e-06
4.21252e-07
2.02314e-06
3.13791e-07
2.1008e-06
2.14872e-07
2.18223e-06
1.23212e-07
2.26488e-06
3.96117e-08
3.23278e-08
1.00477e-06
1.29924e-07
9.8813e-07
3.01263e-07
9.8199e-07
5.19122e-07
9.94041e-07
8.04622e-07
1.04843e-06
1.17429e-06
1.12904e-06
1.53376e-06
1.16519e-06
1.77892e-06
1.10171e-06
1.87305e-06
9.50285e-07
1.88993e-06
7.83442e-07
1.92178e-06
6.38283e-07
1.97561e-06
5.14533e-07
2.04071e-06
4.03613e-07
2.11292e-06
3.01563e-07
2.19069e-06
2.06416e-07
2.26941e-06
1.18679e-07
2.34961e-06
3.82462e-08
3.12541e-08
1.02522e-06
1.25633e-07
1.00901e-06
2.90062e-07
9.99292e-07
4.93713e-07
1.00733e-06
7.50378e-07
1.04828e-06
1.09156e-06
1.13115e-06
1.46621e-06
1.19657e-06
1.76379e-06
1.18032e-06
1.91429e-06
1.06046e-06
1.94651e-06
8.93764e-07
1.96334e-06
7.41758e-07
2.00448e-06
6.09357e-07
2.06197e-06
4.93192e-07
2.1291e-06
3.87413e-07
2.20169e-06
2.90516e-07
2.27684e-06
1.98979e-07
2.35382e-06
1.14515e-07
2.43217e-06
3.7025e-08
3.05866e-08
1.0453e-06
1.21613e-07
1.02922e-06
2.80431e-07
1.01859e-06
4.70431e-07
1.02251e-06
7.05766e-07
1.05193e-06
1.01259e-06
1.12726e-06
1.38584e-06
1.21153e-06
1.72242e-06
1.23794e-06
1.93374e-06
1.16085e-06
2.0019e-06
1.00503e-06
2.01231e-06
8.44689e-07
2.03906e-06
7.0715e-07
2.08736e-06
5.83956e-07
2.14861e-06
4.73655e-07
2.21552e-06
3.73513e-07
2.28765e-06
2.79686e-07
2.36098e-06
1.91805e-07
2.43594e-06
1.10727e-07
2.51214e-06
3.56835e-08
2.99254e-08
1.06466e-06
1.18408e-07
1.04851e-06
2.71033e-07
1.03862e-06
4.5063e-07
1.03834e-06
6.67507e-07
1.06077e-06
9.42519e-07
1.12206e-06
1.2987e-06
1.21442e-06
1.65929e-06
1.27467e-06
1.92693e-06
1.24476e-06
2.04735e-06
1.11542e-06
2.06744e-06
9.49893e-07
2.08003e-06
8.03691e-07
2.11643e-06
6.78045e-07
2.17058e-06
5.61915e-07
2.23261e-06
4.56519e-07
2.3008e-06
3.60287e-07
2.37085e-06
2.69703e-07
2.44312e-06
1.8461e-07
2.51644e-06
1.06444e-07
2.58985e-06
3.4424e-08
2.91324e-08
1.08361e-06
1.15436e-07
1.06759e-06
2.62062e-07
1.05727e-06
4.34253e-07
1.0549e-06
6.34141e-07
1.07163e-06
8.83873e-07
1.11945e-06
1.21075e-06
1.21002e-06
1.58036e-06
1.29337e-06
1.89349e-06
1.30813e-06
2.07359e-06
1.21848e-06
2.12328e-06
1.05965e-06
2.12779e-06
9.02023e-07
2.15069e-06
7.69382e-07
2.19619e-06
6.52366e-07
2.25271e-06
5.41737e-07
2.31634e-06
4.40939e-07
2.38378e-06
3.47394e-07
2.45275e-06
2.60049e-07
2.52321e-06
1.77797e-07
2.59384e-06
1.02449e-07
2.66494e-06
3.3161e-08
2.82575e-08
1.10207e-06
1.12812e-07
1.08621e-06
2.52858e-07
1.07675e-06
4.18575e-07
1.073e-06
6.04644e-07
1.08443e-06
8.34264e-07
1.12141e-06
1.12858e-06
1.20167e-06
1.49185e-06
1.29856e-06
1.83603e-06
1.35085e-06
2.07503e-06
1.30669e-06
2.17158e-06
1.17014e-06
2.18193e-06
1.00551e-06
2.19071e-06
8.61911e-07
2.22597e-06
7.39517e-07
2.2755e-06
6.29537e-07
2.33466e-06
5.23341e-07
2.39909e-06
4.25587e-07
2.46492e-06
3.35142e-07
2.53294e-06
2.50314e-07
2.60084e-06
1.70797e-07
2.66915e-06
9.82293e-08
2.73762e-06
3.18435e-08
2.71845e-08
1.11942e-06
1.09731e-07
1.1051e-06
2.43007e-07
1.09599e-06
4.03981e-07
1.09123e-06
5.79214e-07
1.0985e-06
7.91283e-07
1.12743e-06
1.05653e-06
1.19352e-06
1.39869e-06
1.29488e-06
1.76012e-06
1.3745e-06
2.0496e-06
1.3763e-06
2.20291e-06
1.27533e-06
2.2378e-06
1.11425e-06
2.23698e-06
9.59133e-07
2.26022e-06
8.27654e-07
2.30199e-06
7.12991e-07
2.3554e-06
6.08734e-07
2.41627e-06
5.06032e-07
2.4799e-06
4.10568e-07
2.54493e-06
3.23087e-07
2.61056e-06
2.40558e-07
2.6762e-06
1.63739e-07
2.74184e-06
9.40067e-08
2.80782e-06
3.03725e-08
2.62657e-08
1.13561e-06
1.05363e-07
1.12374e-06
2.34404e-07
1.11365e-06
3.90037e-07
1.10991e-06
5.55554e-07
1.11498e-06
7.51764e-07
1.13811e-06
9.94021e-07
1.19002e-06
1.30706e-06
1.28509e-06
1.67157e-06
1.38348e-06
1.99859e-06
1.42554e-06
2.21131e-06
1.36796e-06
2.28838e-06
1.22462e-06
2.28981e-06
1.06151e-06
2.29951e-06
9.19787e-07
2.33237e-06
7.97209e-07
2.37914e-06
6.89167e-07
2.43587e-06
5.89133e-07
2.49702e-06
4.88878e-07
2.55945e-06
3.95991e-07
2.62269e-06
3.10928e-07
2.6864e-06
2.30334e-07
2.74951e-06
1.5606e-07
2.81214e-06
8.96886e-08
2.875e-06
2.87788e-08
2.5423e-08
1.15121e-06
1.01329e-07
1.13966e-06
2.27423e-07
1.13068e-06
3.74965e-07
1.1287e-06
5.33734e-07
1.13173e-06
7.16509e-07
1.15033e-06
9.40876e-07
1.19126e-06
1.22396e-06
1.27319e-06
1.57482e-06
1.38199e-06
1.92699e-06
1.45514e-06
2.19356e-06
1.44325e-06
2.32474e-06
1.33171e-06
2.34549e-06
1.16891e-06
2.34457e-06
1.01645e-06
2.36656e-06
8.85528e-07
2.40638e-06
7.69942e-07
2.45817e-06
6.66807e-07
2.51639e-06
5.69676e-07
2.57655e-06
4.71718e-07
2.63733e-06
3.81326e-07
2.69917e-06
2.98125e-07
2.75992e-06
2.1989e-07
2.82007e-06
1.48128e-07
2.87993e-06
8.47557e-08
2.94988e-06
2.74086e-08
2.42902e-08
1.16518e-06
9.8038e-08
1.15444e-06
2.18982e-07
1.14802e-06
3.60017e-07
1.14563e-06
5.14408e-07
1.14806e-06
6.85325e-07
1.163e-06
8.94362e-07
1.19688e-06
1.15117e-06
1.26404e-06
1.47584e-06
1.37231e-06
1.84043e-06
1.46862e-06
2.15011e-06
1.49862e-06
2.33979e-06
1.42823e-06
2.39841e-06
1.27885e-06
2.39582e-06
1.11763e-06
2.40553e-06
9.77457e-07
2.43734e-06
8.5452e-07
2.48326e-06
7.44793e-07
2.53762e-06
6.45534e-07
2.59492e-06
5.51187e-07
2.65436e-06
4.54585e-07
2.7142e-06
3.66279e-07
2.77332e-06
2.84688e-07
2.83128e-06
2.08655e-07
2.88847e-06
1.39576e-07
2.95486e-06
7.97901e-08
3.01166e-06
2.69756e-08
2.29928e-08
1.17703e-06
9.44399e-08
1.16874e-06
2.09976e-07
1.16347e-06
3.45206e-07
1.16284e-06
4.94265e-07
1.1658e-06
6.56114e-07
1.17724e-06
8.50993e-07
1.2064e-06
1.08796e-06
1.26017e-06
1.3822e-06
1.35794e-06
1.74378e-06
1.46902e-06
2.08411e-06
1.53467e-06
2.32946e-06
1.50898e-06
2.43959e-06
1.38702e-06
2.45102e-06
1.22361e-06
2.44986e-06
1.07329e-06
2.4718e-06
9.42973e-07
2.51126e-06
8.26465e-07
2.56071e-06
7.2156e-07
2.61603e-06
6.24438e-07
2.67394e-06
5.31515e-07
2.73165e-06
4.37028e-07
2.78925e-06
3.50302e-07
2.84542e-06
2.70516e-07
2.90042e-06
1.96691e-07
2.96358e-06
1.30842e-07
3.01698e-06
7.44842e-08
3.06984e-06
2.68217e-08
2.17792e-08
1.18679e-06
9.03671e-08
1.18111e-06
2.01147e-07
1.17754e-06
3.29815e-07
1.17885e-06
4.75059e-07
1.1821e-06
6.29049e-07
1.19292e-06
8.10622e-07
1.21778e-06
1.03274e-06
1.26175e-06
1.29842e-06
1.34409e-06
1.64123e-06
1.46055e-06
2.00058e-06
1.55262e-06
2.29368e-06
1.57047e-06
2.46132e-06
1.48725e-06
2.50471e-06
1.33338e-06
2.49978e-06
1.17368e-06
2.51057e-06
1.0345e-06
2.54248e-06
9.11706e-07
2.5866e-06
8.00625e-07
2.63932e-06
6.98209e-07
2.69491e-06
6.03399e-07
2.7513e-06
5.11803e-07
2.80781e-06
4.18442e-07
2.86225e-06
3.33425e-07
2.91569e-06
2.55174e-07
2.97616e-06
1.84097e-07
3.02738e-06
1.20433e-07
3.07541e-06
6.89105e-08
3.12224e-06
2.61119e-08
2.05533e-08
1.19404e-06
8.58463e-08
1.19127e-06
1.9169e-07
1.19055e-06
3.14588e-07
1.19277e-06
4.55403e-07
1.19852e-06
6.01244e-07
1.20986e-06
7.73361e-07
1.23033e-06
9.82247e-07
1.26839e-06
1.22523e-06
1.33502e-06
1.53946e-06
1.44598e-06
1.90472e-06
1.55646e-06
2.23379e-06
1.61252e-06
2.45869e-06
1.5731e-06
2.54927e-06
1.44268e-06
2.55414e-06
1.27903e-06
2.55407e-06
1.13016e-06
2.5766e-06
1.00032e-06
2.61518e-06
8.83051e-07
2.66397e-06
7.75898e-07
2.71743e-06
6.75639e-07
2.77346e-06
5.81136e-07
2.82815e-06
4.91356e-07
2.88133e-06
3.99333e-07
2.93374e-06
3.15351e-07
2.99181e-06
2.39497e-07
3.04202e-06
1.69439e-07
3.087e-06
1.08842e-07
3.12964e-06
6.15181e-08
3.17017e-06
2.304e-08
1.88281e-08
1.19928e-06
8.02129e-08
1.19964e-06
1.81062e-07
1.20188e-06
2.99751e-07
1.2054e-06
4.33921e-07
1.21428e-06
5.74719e-07
1.22516e-06
7.39156e-07
1.24428e-06
9.34377e-07
1.27824e-06
1.16098e-06
1.33281e-06
1.44503e-06
1.42958e-06
1.80114e-06
1.54964e-06
2.15425e-06
1.63607e-06
2.43032e-06
1.64095e-06
2.57667e-06
1.54573e-06
2.6083e-06
1.38854e-06
2.60274e-06
1.23033e-06
2.61488e-06
1.09191e-06
2.64707e-06
9.68369e-07
2.69101e-06
8.55917e-07
2.74235e-06
7.50892e-07
2.797e-06
6.52015e-07
2.85068e-06
5.5847e-07
2.9033e-06
4.69248e-07
2.95448e-06
3.7855e-07
3.01015e-06
2.96956e-07
3.06049e-06
2.20999e-07
3.10392e-06
1.5253e-07
3.14386e-06
9.4621e-08
3.17991e-06
5.17744e-08
3.21349e-06
1.81938e-08
1.75163e-08
1.20219e-06
7.45557e-08
1.20487e-06
1.70241e-07
1.21043e-06
2.85747e-07
1.2159e-06
4.11282e-07
1.22806e-06
5.48946e-07
1.24013e-06
7.04082e-07
1.26026e-06
8.89166e-07
1.28956e-06
1.10274e-06
1.33663e-06
1.36146e-06
1.41644e-06
1.69457e-06
1.53621e-06
2.05977e-06
1.64419e-06
2.37689e-06
1.68954e-06
2.58114e-06
1.63652e-06
2.65506e-06
1.499e-06
2.6559e-06
1.33539e-06
2.65755e-06
1.18765e-06
2.68148e-06
1.0575e-06
2.72063e-06
9.38755e-07
2.76875e-06
8.29473e-07
2.82157e-06
7.26292e-07
2.87537e-06
6.27245e-07
2.92763e-06
5.34052e-07
2.97748e-06
4.46178e-07
3.03076e-06
3.57888e-07
3.08193e-06
2.75474e-07
3.12446e-06
2.00403e-07
3.16329e-06
1.33091e-07
3.19724e-06
7.72992e-08
3.22683e-06
3.84391e-08
3.2491e-06
9.75727e-09
1.58914e-08
1.20213e-06
6.95547e-08
1.20714e-06
1.60499e-07
1.21462e-06
2.71223e-07
1.22497e-06
3.88705e-07
1.23849e-06
5.21906e-07
1.25516e-06
6.69276e-07
1.27507e-06
8.46767e-07
1.30275e-06
1.04632e-06
1.34611e-06
1.28749e-06
1.41069e-06
1.58993e-06
1.52118e-06
1.95483e-06
1.64122e-06
2.30116e-06
1.71998e-06
2.55971e-06
1.71101e-06
2.68695e-06
1.60465e-06
2.70947e-06
1.44541e-06
2.70477e-06
1.28818e-06
2.71935e-06
1.14981e-06
2.75279e-06
1.02529e-06
2.79721e-06
9.1028e-07
2.84836e-06
8.02602e-07
2.90188e-06
6.99738e-07
2.95385e-06
6.00953e-07
3.00324e-06
5.08171e-07
3.05397e-06
4.22925e-07
3.10618e-06
3.3358e-07
3.14834e-06
2.51561e-07
3.18669e-06
1.76926e-07
3.22041e-06
1.09906e-07
3.24697e-06
5.71531e-08
3.2652e-06
2.23578e-08
3.26689e-06
-9.08797e-11
1.47231e-08
1.19758e-06
6.49281e-08
1.20672e-06
1.51215e-07
1.21642e-06
2.5515e-07
1.2307e-06
3.66965e-07
1.24679e-06
4.94082e-07
1.26643e-06
6.37056e-07
1.28751e-06
8.05835e-07
1.31605e-06
9.9234e-07
1.3568e-06
1.22203e-06
1.41167e-06
1.49364e-06
1.50707e-06
1.84394e-06
1.63214e-06
2.20723e-06
1.73524e-06
2.51226e-06
1.76749e-06
2.697e-06
1.701e-06
2.7573e-06
1.55685e-06
2.75617e-06
1.39399e-06
2.76098e-06
1.24647e-06
2.78736e-06
1.11522e-06
2.82773e-06
9.94701e-07
2.8764e-06
8.82156e-07
2.92948e-06
7.74943e-07
2.98162e-06
6.71915e-07
3.0309e-06
5.73115e-07
3.07996e-06
4.8208e-07
3.13314e-06
3.95918e-07
3.17496e-06
3.06898e-07
3.21362e-06
2.24666e-07
3.24778e-06
1.49544e-07
3.27418e-06
8.2696e-08
3.28942e-06
3.29133e-08
3.29182e-06
-2.58222e-09
3.26842e-06
-1.12903e-09
-7.99048e-09
1.37762e-08
1.18933e-06
6.03656e-08
1.20214e-06
1.41874e-07
1.21606e-06
2.39588e-07
1.23192e-06
3.46184e-07
1.25157e-06
4.66179e-07
1.27479e-06
6.04683e-07
1.29887e-06
7.64217e-07
1.32919e-06
9.43293e-07
1.36527e-06
1.16192e-06
1.41705e-06
1.41126e-06
1.49417e-06
1.73357e-06
1.61753e-06
2.10128e-06
1.73819e-06
2.44039e-06
1.80717e-06
2.68093e-06
1.78361e-06
2.79203e-06
1.66628e-06
2.80843e-06
1.5046e-06
2.80671e-06
1.34829e-06
2.82457e-06
1.20925e-06
2.86045e-06
1.08246e-06
2.90671e-06
9.64418e-07
2.9585e-06
8.53065e-07
3.0108e-06
7.45701e-07
3.06082e-06
6.42045e-07
3.10854e-06
5.44482e-07
3.16297e-06
4.52108e-07
3.204e-06
3.66855e-07
3.24316e-06
2.77255e-07
3.278e-06
1.94383e-07
3.30636e-06
1.17309e-07
3.32285e-06
4.92545e-08
3.33175e-06
-7.02038e-09
3.30425e-06
-1.66366e-08
-2.1774e-08
1.62371e-06
-1.65211e-09
1.62857e-06
-1.28523e-08
1.23817e-08
1.17847e-06
5.54946e-08
1.19424e-06
1.32528e-07
1.21146e-06
2.25116e-07
1.23055e-06
3.25904e-07
1.25233e-06
4.39113e-07
1.27862e-06
5.71848e-07
1.30766e-06
7.22044e-07
1.34114e-06
8.95274e-07
1.37719e-06
1.10216e-06
1.42515e-06
1.33855e-06
1.48989e-06
1.62931e-06
1.59856e-06
1.9912e-06
1.72773e-06
2.35077e-06
1.82791e-06
2.63869e-06
1.84946e-06
2.80617e-06
1.76952e-06
2.8557e-06
1.61905e-06
2.85571e-06
1.45553e-06
2.86522e-06
1.30763e-06
2.89545e-06
1.17429e-06
2.9384e-06
1.05074e-06
2.98878e-06
9.34024e-07
3.04166e-06
8.22148e-07
3.09258e-06
7.13869e-07
3.14063e-06
6.09826e-07
3.1947e-06
5.12665e-07
3.23602e-06
4.19931e-07
3.27472e-06
3.35229e-07
3.31064e-06
2.44604e-07
3.34108e-06
1.59629e-07
3.36218e-06
7.79598e-08
3.37374e-06
3.28059e-09
3.95605e-09
1.67044e-06
-2.52801e-08
1.67631e-06
-2.42149e-08
1.63533e-06
-2.34086e-08
1.64697e-06
-3.34176e-08
1.61806e-06
-6.53436e-10
1.62193e-06
-1.6725e-08
1.09337e-08
1.16403e-06
5.11813e-08
1.18279e-06
1.23488e-07
1.20326e-06
2.1029e-07
1.22632e-06
3.06299e-07
1.2502e-06
4.1281e-07
1.27871e-06
5.39157e-07
1.31142e-06
6.81602e-07
1.34817e-06
8.47557e-07
1.38893e-06
1.04569e-06
1.43374e-06
1.27096e-06
1.49287e-06
1.53498e-06
1.58435e-06
1.87673e-06
1.71315e-06
2.24822e-06
1.83039e-06
2.57573e-06
1.89092e-06
2.79809e-06
1.85758e-06
2.89156e-06
1.73368e-06
2.90555e-06
1.56931e-06
2.90809e-06
1.41262e-06
2.9319e-06
1.27111e-06
2.97142e-06
1.14127e-06
3.02048e-06
1.01912e-06
3.07334e-06
9.02298e-07
3.12558e-06
7.89112e-07
3.17432e-06
6.80067e-07
3.22711e-06
5.77354e-07
3.27073e-06
4.77686e-07
3.30835e-06
3.86183e-07
3.34419e-06
3.01581e-07
3.37756e-06
2.08079e-07
3.40476e-06
1.17011e-07
3.42288e-06
1.32429e-08
1.55665e-08
1.68674e-06
-1.30439e-08
1.70075e-06
-1.00624e-08
1.66068e-06
-3.89883e-08
1.69186e-06
-2.85868e-08
1.67768e-06
-4.12079e-08
1.63075e-06
-3.22312e-08
1.64311e-06
-4.57757e-08
1.61007e-06
1.85258e-09
1.61319e-06
-1.98408e-08
9.5445e-09
1.146e-06
4.67403e-08
1.16846e-06
1.14256e-07
1.19195e-06
1.95392e-07
1.2182e-06
2.87425e-07
1.24524e-06
3.86646e-07
1.27644e-06
5.0636e-07
1.31157e-06
6.4291e-07
1.35022e-06
8.00559e-07
1.39526e-06
9.92619e-07
1.44213e-06
1.20678e-06
1.49817e-06
1.45244e-06
1.57553e-06
1.76429e-06
1.69692e-06
2.13551e-06
1.82593e-06
2.49017e-06
1.91602e-06
2.76544e-06
1.92363e-06
2.91353e-06
1.83566e-06
2.95446e-06
1.68478e-06
2.9537e-06
1.52377e-06
2.97042e-06
1.37408e-06
3.00475e-06
1.23778e-06
3.05244e-06
1.10928e-06
3.10569e-06
9.86763e-07
3.15945e-06
8.6819e-07
3.21012e-06
7.53312e-07
3.26161e-06
6.4552e-07
3.30785e-06
5.4025e-07
3.34452e-06
4.41441e-07
3.38025e-06
3.50014e-07
3.41451e-06
2.64573e-07
3.44813e-06
1.64651e-07
3.4776e-06
2.75192e-08
3.47226e-08
1.71482e-06
-8.39705e-10
1.72907e-06
1.30099e-09
1.7084e-06
-2.66045e-08
1.65947e-06
-5.536e-08
1.69556e-06
-4.647e-08
1.67877e-06
-6.05087e-08
1.62281e-06
-4.18482e-08
1.63725e-06
-6.02209e-08
1.59712e-06
1.97025e-09
1.60082e-06
-2.35432e-08
8.36962e-09
1.12419e-06
4.20047e-08
1.15071e-06
1.05414e-07
1.17729e-06
1.81119e-07
1.20632e-06
2.68289e-07
1.2374e-06
3.60763e-07
1.27116e-06
4.743e-07
1.30858e-06
6.0421e-07
1.3503e-06
7.53037e-07
1.39785e-06
9.38764e-07
1.44925e-06
1.14336e-06
1.50561e-06
1.37736e-06
1.57339e-06
1.66038e-06
1.67957e-06
2.01893e-06
1.81364e-06
2.38891e-06
1.92726e-06
2.70661e-06
1.97492e-06
2.91085e-06
1.92637e-06
2.99464e-06
1.79552e-06
3.00517e-06
1.63333e-06
3.01327e-06
1.48103e-06
3.03943e-06
1.33944e-06
3.08495e-06
1.20528e-06
3.13798e-06
1.07696e-06
3.19404e-06
9.52265e-07
3.24689e-06
8.31353e-07
3.29764e-06
7.17212e-07
3.34818e-06
6.05144e-07
3.38437e-06
5.00347e-07
3.41815e-06
4.0347e-07
3.45205e-06
3.12382e-07
3.48804e-06
2.24591e-07
3.52534e-06
5.2026e-08
6.4838e-08
1.74613e-06
1.04517e-08
1.7606e-06
2.02433e-08
1.72561e-06
-1.80631e-08
1.74327e-06
-1.63616e-08
1.71542e-06
-4.64674e-08
1.65637e-06
-7.44867e-08
1.69964e-06
-6.73452e-08
1.67978e-06
-8.39258e-08
1.61139e-06
-5.24198e-08
1.62762e-06
-7.6458e-08
1.58227e-06
-2.21601e-09
1.58559e-06
-2.68661e-08
6.89735e-09
1.09914e-06
3.68083e-08
1.12938e-06
9.66975e-08
1.15944e-06
1.67951e-07
1.19055e-06
2.49405e-07
1.22524e-06
3.36895e-07
1.26134e-06
4.4352e-07
1.30208e-06
5.65682e-07
1.34725e-06
7.06126e-07
1.3974e-06
8.83422e-07
1.45323e-06
1.08049e-06
1.51224e-06
1.30538e-06
1.57774e-06
1.56633e-06
1.66749e-06
1.90192e-06
1.79666e-06
2.2778e-06
1.92485e-06
2.62717e-06
2.00679e-06
2.88473e-06
2.0011e-06
3.01743e-06
1.90364e-06
3.05303e-06
1.74769e-06
3.05898e-06
1.58762e-06
3.07955e-06
1.44093e-06
3.11963e-06
1.3047e-06
3.17038e-06
1.1729e-06
3.22836e-06
1.04258e-06
3.28392e-06
9.15148e-07
3.33543e-06
7.93481e-07
3.3907e-06
6.74737e-07
3.42663e-06
5.62806e-07
3.45751e-06
4.60928e-07
3.48816e-06
3.67266e-07
3.52409e-06
2.76247e-07
3.56572e-06
8.62644e-08
9.7893e-08
1.77658e-06
3.60297e-08
1.78895e-06
5.24572e-08
1.7619e-06
-8.18657e-09
1.77922e-06
2.91033e-09
1.7369e-06
-3.95488e-08
1.7576e-06
-3.70809e-08
1.72262e-06
-6.94557e-08
1.64867e-06
-9.5543e-08
1.70284e-06
-9.04116e-08
1.67422e-06
-1.09475e-07
1.59611e-06
-6.2938e-08
1.61414e-06
-9.44888e-08
1.55563e-06
-6.53727e-09
1.56342e-06
-3.46626e-08
5.10635e-09
1.07008e-06
3.12178e-08
1.10471e-06
8.77654e-08
1.13833e-06
1.5481e-07
1.17261e-06
2.305e-07
1.20951e-06
3.13721e-07
1.24851e-06
4.12406e-07
1.29256e-06
5.28017e-07
1.33987e-06
6.60274e-07
1.3931e-06
8.28531e-07
1.45244e-06
1.01872e-06
1.51517e-06
1.23353e-06
1.58419e-06
1.48011e-06
1.6641e-06
1.78913e-06
1.78037e-06
2.15997e-06
1.91457e-06
2.52987e-06
2.02223e-06
2.83473e-06
2.05685e-06
3.02094e-06
1.99762e-06
3.09377e-06
1.86296e-06
3.10537e-06
1.70132e-06
3.11897e-06
1.54818e-06
3.15496e-06
1.40558e-06
3.20557e-06
1.26946e-06
3.26371e-06
1.13754e-06
3.32113e-06
1.00536e-06
3.37649e-06
8.74026e-07
3.43381e-06
7.50184e-07
3.4725e-06
6.28805e-07
3.50116e-06
5.19011e-07
3.5265e-06
4.22522e-07
3.55705e-06
3.34208e-07
3.59802e-06
1.15547e-07
1.28331e-07
1.80195e-06
7.32392e-08
1.81092e-06
8.89081e-08
1.7959e-06
1.93347e-08
1.81051e-06
3.78275e-08
1.77884e-06
-2.94304e-08
1.799e-06
-1.7268e-08
1.748e-06
-6.49328e-08
1.77254e-06
-6.16383e-08
1.72991e-06
-9.65279e-08
1.63776e-06
-1.19167e-07
1.70232e-06
-1.18519e-07
1.66654e-06
-1.38265e-07
1.57545e-06
-7.49677e-08
1.59568e-06
-1.1472e-07
1.52598e-06
-1.13542e-08
1.53786e-06
-4.65401e-08
2.88901e-09
1.03624e-06
2.53893e-08
1.0759e-06
7.84836e-08
1.11402e-06
1.41479e-07
1.1517e-06
2.125e-07
1.19069e-06
2.90816e-07
1.2325e-06
3.81896e-07
1.27914e-06
4.92516e-07
1.32819e-06
6.15754e-07
1.38448e-06
7.74732e-07
1.4471e-06
9.57952e-07
1.51331e-06
1.16094e-06
1.58783e-06
1.39779e-06
1.66661e-06
1.6835e-06
1.76981e-06
2.03961e-06
1.90082e-06
2.41904e-06
2.02548e-06
2.76147e-06
2.09557e-06
3.00119e-06
2.07666e-06
3.11945e-06
1.97198e-06
3.15095e-06
1.81739e-06
3.16163e-06
1.65868e-06
3.19036e-06
1.51278e-06
3.23877e-06
1.37236e-06
3.29798e-06
1.23516e-06
3.36046e-06
1.09818e-06
3.41943e-06
9.6237e-07
3.47812e-06
8.29723e-07
3.52314e-06
6.99453e-07
3.55138e-06
5.78499e-07
3.57156e-06
4.73818e-07
3.59369e-06
3.85808e-07
3.62572e-06
1.44978e-07
1.61449e-07
1.82072e-06
1.05723e-07
1.8273e-06
1.21732e-07
1.82393e-06
5.97927e-08
1.8353e-06
7.75193e-08
1.81852e-06
-2.10412e-10
1.83548e-06
2.0844e-08
1.79742e-06
-5.43179e-08
1.82168e-06
-4.15552e-08
1.76098e-06
-9.60207e-08
1.78875e-06
-8.94257e-08
1.73408e-06
-1.28305e-07
1.62217e-06
-1.4566e-07
1.69956e-06
-1.5155e-07
1.65502e-06
-1.71132e-07
1.54996e-06
-8.70675e-08
1.57125e-06
-1.36017e-07
1.48927e-06
-1.47931e-08
1.49947e-06
-5.67381e-08
-3.35112e-11
9.96666e-07
1.9008e-08
1.04262e-06
6.83219e-08
1.08609e-06
1.28332e-07
1.12722e-06
1.95658e-07
1.16862e-06
2.69252e-07
1.21234e-06
3.53824e-07
1.26069e-06
4.59475e-07
1.31232e-06
5.72854e-07
1.37123e-06
7.22154e-07
1.43716e-06
8.98814e-07
1.50635e-06
1.08826e-06
1.5861e-06
1.31593e-06
1.66979e-06
1.5848e-06
1.76541e-06
1.92163e-06
1.88788e-06
2.30055e-06
2.0194e-06
2.66865e-06
2.11837e-06
2.9568e-06
2.14003e-06
3.12544e-06
2.07073e-06
3.18922e-06
1.93375e-06
3.20452e-06
1.77451e-06
3.22674e-06
1.62231e-06
3.27063e-06
1.48091e-06
3.33034e-06
1.33998e-06
3.39663e-06
1.19896e-06
3.46146e-06
1.0561e-06
3.52352e-06
9.16901e-07
3.57693e-06
7.75848e-07
3.60752e-06
6.43238e-07
3.6253e-06
5.24687e-07
3.63729e-06
4.30136e-07
3.65368e-06
1.71593e-07
1.86206e-07
1.83391e-06
1.3835e-07
1.83983e-06
1.5551e-07
1.84422e-06
9.67839e-08
1.85146e-06
1.14471e-07
1.8512e-06
4.40498e-08
1.86369e-06
6.5006e-08
1.84495e-06
-2.35e-08
1.86553e-06
2.39133e-10
1.81834e-06
-8.39229e-08
1.84784e-06
-7.10792e-08
1.76908e-06
-1.31035e-07
1.80439e-06
-1.24756e-07
1.73662e-06
-1.65374e-07
1.60081e-06
-1.75224e-07
1.69323e-06
-1.89768e-07
1.63773e-06
-2.08061e-07
1.51557e-06
-1.03162e-07
1.53924e-06
-1.59692e-07
1.44787e-06
-1.73649e-08
1.45798e-06
-6.68438e-08
-4.05051e-09
9.49363e-07
1.20731e-08
1.00361e-06
5.69658e-08
1.05401e-06
1.15285e-07
1.0992e-06
1.79391e-07
1.14356e-06
2.48749e-07
1.18922e-06
3.28293e-07
1.23796e-06
4.28371e-07
1.29187e-06
5.33204e-07
1.35202e-06
6.71929e-07
1.42149e-06
8.4242e-07
1.49365e-06
1.01718e-06
1.57753e-06
1.23278e-06
1.66932e-06
1.49001e-06
1.76467e-06
1.80825e-06
1.87887e-06
2.17947e-06
2.00904e-06
2.56121e-06
2.12693e-06
2.89005e-06
2.1852e-06
3.11008e-06
2.15545e-06
3.21497e-06
2.04503e-06
3.24436e-06
1.89395e-06
3.26271e-06
1.73855e-06
3.30231e-06
1.59062e-06
3.36293e-06
1.4483e-06
3.42962e-06
1.30696e-06
3.49992e-06
1.16046e-06
3.56576e-06
1.01381e-06
3.63051e-06
8.63265e-07
3.66632e-06
7.16899e-07
3.68644e-06
5.82058e-07
3.68856e-06
4.7334e-07
3.69308e-06
1.90688e-07
1.9993e-07
1.84377e-06
1.6763e-07
1.85071e-06
1.79254e-07
1.8562e-06
1.33591e-07
1.86017e-06
1.51513e-07
1.87295e-06
8.74993e-08
1.88014e-06
1.07248e-07
1.88338e-06
2.61701e-08
1.89775e-06
5.05959e-08
1.87553e-06
-5.12228e-08
1.90057e-06
-2.48343e-08
1.84132e-06
-1.2088e-07
1.8776e-06
-1.07393e-07
1.77779e-06
-1.72233e-07
1.82116e-06
-1.68148e-07
1.73659e-06
-2.08755e-07
1.57209e-06
-2.08078e-07
1.68226e-06
-2.34314e-07
1.61319e-06
-2.49177e-07
1.47659e-06
-1.2177e-07
1.49996e-06
-1.83062e-07
1.40191e-06
-1.93408e-08
1.41238e-06
-7.73159e-08
-8.69302e-09
8.9141e-07
4.3293e-09
9.57117e-07
4.4396e-08
1.01621e-06
1.01345e-07
1.06802e-06
1.62587e-07
1.11609e-06
2.28952e-07
1.16346e-06
3.06039e-07
1.21157e-06
4.00134e-07
1.26631e-06
4.97814e-07
1.32735e-06
6.25051e-07
1.39899e-06
7.89243e-07
1.47477e-06
9.49037e-07
1.56189e-06
1.14854e-06
1.66186e-06
1.39661e-06
1.76279e-06
1.69951e-06
1.87348e-06
2.05922e-06
1.99919e-06
2.44528e-06
2.12504e-06
2.804e-06
2.21305e-06
3.07194e-06
2.22342e-06
3.22317e-06
2.14732e-06
3.27838e-06
2.01106e-06
3.29881e-06
1.85787e-06
3.33211e-06
1.70875e-06
3.38879e-06
1.56475e-06
3.45968e-06
1.41822e-06
3.53562e-06
1.27123e-06
3.60929e-06
1.11688e-06
3.68203e-06
9.62225e-07
3.72838e-06
8.01182e-07
3.7539e-06
6.49288e-07
3.75965e-06
5.109e-07
3.75644e-06
1.98555e-07
2.11326e-07
1.85565e-06
1.85726e-07
1.86691e-06
1.88647e-07
1.86198e-06
1.65803e-07
1.86575e-06
1.75468e-07
1.88343e-06
1.30265e-07
1.8854e-06
1.4951e-07
1.90768e-06
7.75358e-08
1.91418e-06
1.00694e-07
1.92229e-06
4.40155e-09
1.93961e-06
3.32133e-08
1.91153e-06
-8.51955e-08
1.94226e-06
-5.56267e-08
1.86635e-06
-1.66106e-07
1.91182e-06
-1.52926e-07
1.78492e-06
-2.20586e-07
1.83809e-06
-2.2136e-07
1.73203e-06
-2.58542e-07
1.53355e-06
-2.4168e-07
1.66487e-06
-2.86009e-07
1.57891e-06
-2.94552e-07
1.43081e-06
-1.40193e-07
1.45223e-06
-2.04483e-07
1.3504e-06
-2.05388e-08
1.35695e-06
-8.3858e-08
-1.32206e-08
8.19734e-07
-4.26298e-09
9.00018e-07
3.02497e-08
9.7131e-07
8.50762e-08
1.03256e-06
1.44516e-07
1.08618e-06
2.09954e-07
1.13519e-06
2.86892e-07
1.1827e-06
3.75307e-07
1.23651e-06
4.66829e-07
1.2974e-06
5.83087e-07
1.36938e-06
7.39479e-07
1.44885e-06
8.85114e-07
1.5388e-06
1.06436e-06
1.64614e-06
1.30269e-06
1.75584e-06
1.59362e-06
1.86873e-06
1.94209e-06
1.99067e-06
2.32586e-06
2.11868e-06
2.70337e-06
2.22575e-06
3.01188e-06
2.27319e-06
3.21069e-06
2.23597e-06
3.30281e-06
2.12295e-06
3.33308e-06
1.97682e-06
3.36041e-06
1.82958e-06
3.41128e-06
1.68625e-06
3.48379e-06
1.54063e-06
3.56738e-06
1.38643e-06
3.65306e-06
1.22742e-06
3.73431e-06
1.06456e-06
3.7967e-06
8.93882e-07
3.83028e-06
7.24722e-07
3.84546e-06
5.6344e-07
3.83062e-06
4.36629e-07
1.87481e-06
1.90623e-07
1.89059e-06
1.9553e-07
1.86926e-06
1.82193e-07
1.8798e-06
1.78083e-07
1.88502e-06
1.66143e-07
1.88746e-06
1.72981e-07
1.91859e-06
1.25783e-07
1.92416e-06
1.43832e-07
1.95404e-06
6.29991e-08
1.96949e-06
8.5038e-08
1.97258e-06
-2.60455e-08
2.00286e-06
2.66532e-09
1.95566e-06
-1.29137e-07
2.00128e-06
-1.01501e-07
1.89439e-06
-2.22478e-07
1.95139e-06
-2.10093e-07
1.78942e-06
-2.78023e-07
1.85394e-06
-2.85962e-07
1.7221e-06
-3.1581e-07
1.48611e-06
-2.75567e-07
1.63547e-06
-3.42594e-07
1.53418e-06
-3.42639e-07
1.37e-06
-1.5324e-07
1.39293e-06
-2.27411e-07
1.29657e-06
-2.04399e-08
1.29499e-06
-8.22733e-08
-1.62061e-08
7.30201e-07
-1.28808e-08
8.28373e-07
1.43344e-08
9.15986e-07
6.51533e-08
9.91312e-07
1.23663e-07
1.05351e-06
1.90314e-07
1.10592e-06
2.69414e-07
1.15277e-06
3.54188e-07
1.20395e-06
4.40467e-07
1.26297e-06
5.46907e-07
1.33364e-06
6.93726e-07
1.41524e-06
8.25961e-07
1.5081e-06
9.82094e-07
1.62113e-06
1.20828e-06
1.74058e-06
1.4897e-06
1.85979e-06
1.82811e-06
1.98276e-06
2.20616e-06
2.11043e-06
2.59359e-06
2.22853e-06
2.93259e-06
2.30511e-06
3.17788e-06
2.30608e-06
3.31266e-06
2.22619e-06
3.36168e-06
2.0944e-06
3.38765e-06
1.94961e-06
3.43318e-06
1.80769e-06
3.50427e-06
1.66575e-06
3.59176e-06
1.51622e-06
3.68812e-06
1.35134e-06
3.78475e-06
1.17693e-06
3.87173e-06
9.89485e-07
3.91913e-06
8.04986e-07
3.94552e-06
6.2461e-07
3.93235e-06
4.61678e-07
-1.90216e-06
3.87594e-06
1.76382e-07
1.76891e-07
1.88852e-06
1.81877e-07
1.81877e-07
1.89308e-06
1.76512e-07
1.90465e-06
1.66449e-07
1.93452e-06
1.55597e-07
1.95212e-06
1.55088e-07
1.99636e-06
9.85274e-08
2.04089e-06
9.85305e-08
2.05286e-06
1.23834e-08
2.13961e-06
-3.00061e-09
2.06923e-06
-9.4596e-08
2.18861e-06
-1.18135e-07
2.02445e-06
-2.02635e-07
2.15136e-06
-2.29615e-07
1.92535e-06
-2.94125e-07
2.03361e-06
-3.19035e-07
1.78784e-06
-3.43859e-07
1.87289e-06
-3.71307e-07
1.69929e-06
-3.79722e-07
1.42646e-06
-3.09097e-07
1.5904e-06
-3.98879e-07
1.4705e-06
-3.86722e-07
1.30295e-06
-1.61187e-07
1.32188e-06
-2.46329e-07
1.24234e-06
-1.632e-08
1.23092e-06
-7.08384e-08
-1.45713e-08
6.17036e-07
-1.81122e-08
7.35461e-07
-1.69292e-09
8.4446e-07
4.05761e-08
9.4065e-07
9.74501e-08
1.01763e-06
1.67629e-07
1.0763e-06
2.52408e-07
1.12304e-06
3.36317e-07
1.17078e-06
4.1867e-07
1.22584e-06
5.17306e-07
1.29265e-06
6.53381e-07
1.37407e-06
7.71784e-07
1.46953e-06
9.04177e-07
1.58609e-06
1.11453e-06
1.7149e-06
1.38691e-06
1.84337e-06
1.71636e-06
1.97156e-06
2.08829e-06
2.10066e-06
2.47946e-06
2.22462e-06
2.83979e-06
2.3214e-06
3.12544e-06
2.35764e-06
3.30246e-06
2.31635e-06
3.3806e-06
2.20733e-06
3.4126e-06
2.06949e-06
3.4524e-06
1.93041e-06
3.519e-06
1.79295e-06
3.60776e-06
1.64974e-06
3.71264e-06
1.49168e-06
3.82293e-06
1.31312e-06
3.93321e-06
1.1154e-06
4.01061e-06
8.97983e-07
4.05555e-06
6.94991e-07
4.05111e-06
5.05821e-07
3.99706e-06
1.70428e-07
1.70309e-07
1.96442e-06
-1.9415e-06
1.53512e-07