/*--------------------------------*- C++ -*----------------------------------*\
  =========                 |
  \\      /  F ield         | OpenFOAM: The Open Source CFD Toolbox
   \\    /   O peration     | Website:  https://openfoam.org
    \\  /    A nd           | Version:  dev
     \\/     M anipulation  |
\*---------------------------------------------------------------------------*/
FoamFile
{
    version     2.0;
    format      ascii;
    class       volScalarField;
    location    "2500";
    object      qr;
}
// * * * * * * * * * * * * * * * * * * * * * * * * * * * * * * * * * * * * * //

dimensions      [1 0 -3 0 0 0 0];

internalField   uniform 0;

boundaryField
{
    lowerOutlet
    {
        type            calculated;
        value           nonuniform List<scalar> 
144
(
1117.89
1121.62
1125.75
1130.27
1135.21
1140.56
1146.33
1152.55
1159.21
1166.35
1173.98
1182.12
1190.81
1200.06
1209.92
1220.43
1231.63
1243.57
1256.31
1269.93
1284.5
1300.11
1316.88
1334.92
1354.43
1375.59
1398.58
1423.66
1451.11
1481.32
1514.75
1551.92
1593.53
1629.15
1680.9
1740.27
1808.89
1888.93
1983.43
2096.47
2233.88
2403.3
2617.24
2878.98
3743.23
4787.06
5529.96
6177.68
-12222
3533.78
2845.05
2486.13
2245.74
2049.1
1917.23
1813.03
1728.26
1658.29
1599.37
1548.92
1505.1
1466.59
1432.48
1394.42
1367.69
1343.37
1321.13
1300.71
1281.86
1264.39
1248.15
1233.01
1218.88
1205.65
1193.23
1181.53
1170.51
1160.11
1150.29
1141.01
1132.23
1123.92
1116.06
1108.62
1101.58
1094.93
1088.64
1082.71
1077.12
1071.86
1066.93
1062.31
1057.99
1053.98
1050.27
1046.85
2037.33
2161.66
2314.13
2503.11
2757.05
3533.33
4532.19
5365.08
6016.34
5292.27
3861.76
2968.59
2561.14
2298.51
2128.04
1978.99
1862.31
1768.54
1691.68
1627.64
1847.32
1934.14
3876.74
5010.09
5692.88
6336.88
4663.64
3298.89
2738.52
2418.05
2196.93
1573.22
1526.27
3178.34
4209.02
5193.21
5854.89
6486.8
4257.4
3116.08
2644.66
2355.75
1654.16
1709.54
1773.32
1485.24
1449.03
1416.85
)
;
    }
    top
    {
        type            calculated;
        value           nonuniform List<scalar> 
100
(
1010.67
1012.17
1014.72
1017.79
1023.86
1026.54
1029.15
1031.67
1034.1
1036.42
1032.37
1032.09
1032.73
1034.14
1035.62
1036.41
1036.01
1033.94
1026.88
1008.52
975.771
940.532
924.303
921.479
923.931
928.281
934.721
950.241
976.404
1006.8
1025.07
1031.1
1032.8
1030.61
1028.37
1027.49
1027.83
1029.15
1032.14
1037.17
1044.34
1053.38
1063.33
1070.79
1073.59
1074.31
1074.45
1074.39
1074.19
1073.88
1073.47
1072.96
1072.37
1071.68
1070.87
1070
1069.04
1068.02
1066.94
1065.81
1064.62
1063.39
1062.11
1060.78
1059.34
1057.8
1056.19
1054.45
1052.61
1050.65
1048.58
1046.33
1043.93
1041.44
1038.82
1036.2
1033.78
1031.56
1029.63
1029.61
1037.13
1034.23
1031.3
1028.34
1025.36
1022.37
1019.38
1016.37
1013.36
1010.34
1007.33
1004.32
998.158
993.961
989.824
986.006
982.908
980.525
979.056
978.657
)
;
    }
    sides
    {
        type            calculated;
        value           nonuniform List<scalar> 
100
(
1117.9
1120.86
1123.45
1125.65
1127.48
1128.94
1130.03
1130.77
1131.16
1131.23
1130.97
1130.4
1129.54
1128.39
1126.98
1125.33
1123.43
1121.32
1119.01
1116.5
1113.83
1110.99
1108.01
1104.9
1101.67
1098.33
1094.9
1091.39
1087.81
1084.18
1080.49
1076.76
1073
1069.22
1065.44
1061.65
1057.86
1054.1
1050.35
1046.63
1042.96
1039.32
1035.73
1032.2
1028.73
1025.33
1022
1018.73
1015.55
1012.48
1046.86
1049.71
1052.28
1054.57
1056.58
1058.31
1059.77
1060.97
1061.9
1062.59
1063.02
1063.22
1063.18
1062.93
1062.47
1061.81
1060.95
1059.92
1058.71
1057.34
1055.82
1054.17
1052.38
1050.46
1048.44
1046.31
1044.09
1041.78
1039.39
1036.93
1034.4
1031.81
1029.16
1026.47
1023.74
1020.98
1018.18
1015.36
1012.51
1009.65
1006.76
1003.87
1000.97
998.055
995.137
992.215
989.291
986.365
983.437
980.545
)
;
    }
    front
    {
        type            empty;
    }
    back
    {
        type            empty;
    }
    roller
    {
        type            calculated;
        value           nonuniform List<scalar> 
144
(
5801.52
4345.4
3240.17
1643.59
1351.09
1321.56
1261.54
1220.42
1221.95
8024.16
8466.07
6465.27
6577.47
3409.22
2914.19
2229.84
2129.57
1681.76
1520.8
1344.24
1272.18
1274.34
1245.28
5562.36
5874.16
5236.25
2660.55
2502.06
2016.95
2597.63
2478.11
1618.22
1383.49
1407.11
1301.99
1216.44
7684.99
6982.75
4686.42
6213.27
4276.77
4714.55
3235.39
4041.03
3829.69
2755.59
2399.55
1806.37
1755.57
1722.67
1539.66
1452.57
1428.67
1339.15
1328.63
1239.36
1234.09
1231.67
1228.6
6995.14
8444.34
7943.33
2302.1
2205.27
1534.77
1457.52
1399.33
1501.44
1475.93
1208
1205.12
1210.66
9141.4
9161.24
5256.56
1879.11
2060.24
1981.11
1556.53
1924.07
1771.58
1475.11
1728.46
1624.91
1412.14
1598.22
1360.57
1283.89
1251.21
1223.88
1229.13
1219.51
1225.32
1210.04
1205.01
1208.63
7333.83
7488.13
3033.39
2140.3
1513.82
1441.15
1566.61
1300.34
1309.37
1258
1255.37
1238.02
1234.91
1206.45
1205.78
1213
8809.06
9017.57
9068.33
8867.24
4973.14
3873.45
3541.55
3609.2
2352.25
2884.56
1942.6
1586.61
1869.75
1818.61
1493.84
1689.62
1655.14
1426.03
1370.07
1318.55
1384.57
1364.74
1292.15
1285.57
1265.71
1249.66
1244.44
1216.32
1241.6
1212.58
1205.45
1206.97
)
;
    }
    burner
    {
        type            calculated;
        value           nonuniform List<scalar> 
16
(
-125455
-120089
-117178
-117623
-121259
-117669
-117050
-123185
-124027
-119128
-116887
-118667
-122633
-118325
-116827
-120385
)
;
    }
}


// ************************************************************************* //
