/*--------------------------------*- C++ -*----------------------------------*\
  =========                 |
  \\      /  F ield         | OpenFOAM: The Open Source CFD Toolbox
   \\    /   O peration     | Website:  https://openfoam.org
    \\  /    A nd           | Version:  dev
     \\/     M anipulation  |
\*---------------------------------------------------------------------------*/
FoamFile
{
    version     2.0;
    format      ascii;
    class       volScalarField;
    location    "2500";
    object      rAU;
}
// * * * * * * * * * * * * * * * * * * * * * * * * * * * * * * * * * * * * * //

dimensions      [-1 3 1 0 0 0 0];

internalField   nonuniform List<scalar> 
9842
(
0.00820805
0.00827483
0.00822147
0.00824907
0.00839625
0.00815081
0.00821576
0.00839065
0.00840205
0.00809064
0.00818612
0.00838734
0.00838808
0.00841483
0.00803479
0.00816467
0.00838979
0.00838092
0.00839938
0.00842381
0.00798411
0.00814721
0.00839803
0.0083811
0.0083862
0.00841395
0.00842767
0.00793749
0.00813128
0.00840552
0.00838495
0.00837886
0.00840075
0.00842342
0.00842956
0.00789435
0.00811538
0.00841112
0.00839319
0.00837457
0.00838804
0.00841553
0.00842792
0.00843078
0.00785417
0.00810231
0.00841386
0.00840467
0.00837576
0.00837809
0.00840407
0.0084245
0.00842959
0.00843157
0.00781644
0.008093
0.00841589
0.0084156
0.00838113
0.00837278
0.00839098
0.00841816
0.00842874
0.00843099
0.00843206
0.00778086
0.00808372
0.00841868
0.00842372
0.00839052
0.00837043
0.00837991
0.00840756
0.00842615
0.00843064
0.00843195
0.00843247
0.00774702
0.00807319
0.0084194
0.00842899
0.00840301
0.00837268
0.00837229
0.0083945
0.00842016
0.00842995
0.00843173
0.00843256
0.00843274
0.00771471
0.00806465
0.00841892
0.00843233
0.0084143
0.00837888
0.00836805
0.0083827
0.00841062
0.00842748
0.00843152
0.00843245
0.0084331
0.00843285
0.00768383
0.00805755
0.00841857
0.00843383
0.00842264
0.00838981
0.00836672
0.00837313
0.00839917
0.00842195
0.00843085
0.00843254
0.00843315
0.00843353
0.00843294
0.00765409
0.00805075
0.00841974
0.00843518
0.00842795
0.0084025
0.00836974
0.00836681
0.00838625
0.00841422
0.00842849
0.00843235
0.0084333
0.00843357
0.0084338
0.008433
0.00762543
0.00804349
0.00842059
0.00843582
0.00843163
0.00841419
0.00837791
0.00836307
0.00837483
0.00840325
0.00842417
0.00843185
0.00843325
0.00843376
0.00843398
0.00843405
0.00843306
0.00759784
0.00803563
0.00842073
0.00843621
0.00843391
0.00842241
0.00839039
0.00836363
0.00836619
0.00839033
0.00841728
0.00843033
0.00843323
0.00843376
0.0084342
0.00843429
0.00843424
0.00843304
0.00757113
0.00802872
0.00842043
0.00843655
0.0084352
0.00842776
0.00840352
0.00836837
0.00836148
0.00837696
0.00840678
0.00842648
0.00843304
0.00843399
0.00843438
0.0084345
0.00843444
0.00843446
0.00843301
0.00754538
0.00802286
0.00842087
0.00843666
0.00843568
0.00843113
0.00841432
0.00837813
0.00835915
0.00836663
0.00839363
0.00841946
0.0084319
0.00843455
0.00843446
0.0084348
0.00843488
0.00843466
0.00843453
0.00843303
0.00752046
0.00801642
0.00842169
0.00843718
0.00843684
0.00843312
0.00842207
0.00839159
0.00836086
0.00835968
0.00837937
0.00840968
0.00842768
0.00843481
0.00843523
0.00843481
0.00843508
0.00843506
0.00843491
0.0084348
0.00843304
0.00749648
0.00800983
0.00842183
0.00843739
0.00843722
0.0084347
0.0084269
0.00840495
0.00836775
0.0083556
0.00836746
0.00839686
0.00842112
0.00843272
0.00843636
0.00843582
0.00843527
0.0084353
0.00843513
0.00843502
0.00843494
0.00843299
0.00747344
0.00800388
0.00842186
0.00843765
0.00843734
0.00843552
0.00842984
0.00841518
0.00838007
0.00835524
0.00835844
0.00838288
0.00841218
0.00842835
0.00843561
0.0084371
0.00843624
0.00843555
0.00843548
0.00843541
0.00843527
0.00843514
0.00843292
0.00745132
0.00799848
0.00842199
0.00843751
0.0084379
0.00843687
0.00843189
0.00842197
0.00839471
0.00835934
0.00835354
0.00836875
0.00840025
0.0084227
0.00843283
0.00843718
0.00843755
0.00843661
0.00843573
0.00843553
0.00843553
0.00843546
0.00843528
0.0084329
0.0074302
0.00799358
0.00842252
0.00843798
0.00843832
0.00843724
0.00843321
0.00842561
0.00840775
0.00836935
0.00835089
0.0083583
0.00838591
0.00841443
0.00842925
0.00843553
0.00843796
0.00843806
0.00843703
0.00843581
0.00843564
0.00843576
0.0084357
0.00843536
0.00843293
0.00741048
0.00798792
0.00842276
0.00843829
0.00843843
0.00843806
0.00843498
0.00842876
0.00841709
0.00838384
0.00835252
0.00835137
0.00837068
0.00840317
0.00842405
0.00843315
0.00843722
0.00843841
0.00843854
0.00843717
0.00843577
0.00843577
0.00843601
0.00843591
0.00843562
0.00843321
0.00739125
0.00798175
0.00842199
0.00843833
0.00843872
0.00843854
0.00843596
0.00843079
0.00842249
0.00839893
0.00835961
0.00834715
0.00835844
0.00838876
0.00841666
0.00843018
0.00843576
0.00843807
0.00843887
0.00843893
0.0084373
0.00843597
0.00843609
0.00843623
0.00843612
0.00843611
0.00843327
0.00737179
0.00797721
0.00841988
0.0084386
0.00843891
0.00843888
0.0084371
0.00843254
0.00842595
0.00841038
0.00837244
0.00834681
0.00834942
0.00837372
0.00840588
0.00842546
0.00843374
0.00843745
0.00843845
0.00843919
0.00843936
0.00843735
0.00843598
0.00843633
0.00843642
0.00843659
0.00843643
0.00843315
0.0073535
0.00797536
0.00841866
0.00843884
0.00843914
0.0084393
0.00843789
0.00843378
0.00842835
0.00841804
0.00838828
0.00835093
0.00834475
0.00835912
0.00839219
0.00841877
0.00843088
0.00843612
0.00843828
0.00843883
0.00843943
0.00843953
0.00843748
0.00843615
0.00843661
0.00843699
0.0084369
0.00843689
0.00843301
0.00733719
0.00797428
0.00841904
0.0084392
0.00843941
0.00843961
0.00843847
0.0084353
0.00843026
0.00842267
0.00840254
0.00836108
0.00834192
0.00834889
0.00837666
0.00840856
0.00842694
0.0084342
0.00843779
0.00843879
0.00843904
0.0084399
0.00843972
0.00843758
0.00843647
0.00843709
0.00843739
0.00843717
0.00843741
0.00843275
0.00732037
0.00796997
0.00841937
0.00843925
0.0084397
0.00843995
0.00843936
0.00843686
0.00843196
0.00842577
0.00841259
0.00837641
0.00834361
0.00834185
0.00836098
0.00839563
0.00842052
0.0084318
0.00843654
0.00843882
0.00843915
0.00843922
0.00844009
0.00843992
0.00843785
0.00843694
0.0084375
0.00843775
0.00843757
0.00843786
0.0084321
0.00727924
0.00796537
0.00841728
0.00843946
0.00844014
0.00844017
0.00844003
0.00843778
0.00843394
0.008428
0.00841906
0.00839274
0.00835056
0.00833769
0.00834856
0.00837977
0.00841136
0.00842809
0.00843468
0.00843802
0.00843928
0.00843927
0.0084394
0.00844033
0.00844006
0.00843825
0.00843735
0.00843784
0.00843805
0.00843797
0.00843845
0.00839858
0.00709479
0.00796445
0.00841336
0.00843988
0.00844053
0.0084405
0.00844053
0.00843882
0.00843582
0.00842971
0.00842327
0.00840561
0.00836379
0.00833694
0.00833941
0.00836381
0.00839858
0.00842237
0.00843246
0.00843677
0.00843901
0.00843945
0.0084394
0.00843953
0.00844035
0.00844049
0.00843871
0.00843771
0.00843816
0.00843837
0.00843855
0.00843882
0.00815763
0.00728609
0.00796518
0.0084103
0.00844015
0.00844074
0.00844083
0.00844081
0.00843999
0.00843715
0.00843202
0.0084262
0.00841459
0.00838101
0.00834103
0.00833467
0.00834865
0.00838341
0.00841361
0.0084291
0.008435
0.00843811
0.00843946
0.00843945
0.00843928
0.00843955
0.00844048
0.0084409
0.008439
0.00843793
0.0084385
0.00843867
0.00843899
0.00842076
0.00842037
0.00619031
0.00815823
0.00796518
0.00840896
0.00844037
0.00844111
0.00844132
0.00844157
0.00844098
0.00843852
0.00843421
0.00842825
0.00841992
0.00839707
0.00835156
0.00833172
0.00833896
0.00836681
0.0084016
0.00842372
0.00843282
0.00843684
0.00843896
0.00843965
0.0084395
0.0084392
0.0084395
0.00844102
0.00844121
0.00843939
0.00843812
0.00843867
0.00843895
0.00843075
0.00851878
0.00818292
0.00818227
0.00617701
0.00812902
0.00796337
0.00840578
0.00844023
0.00844135
0.00844144
0.00844187
0.0084417
0.00843995
0.00843594
0.00843073
0.00842365
0.00840793
0.00836733
0.00833341
0.0083317
0.0083515
0.00838755
0.00841581
0.0084298
0.00843492
0.0084379
0.00843933
0.00843951
0.00843927
0.00843894
0.00843963
0.00844121
0.00844149
0.00843953
0.00843818
0.00843852
0.00843178
0.00840896
0.00818673
0.00818134
0.00837702
0.00818389
0.0081543
0.00815334
0.00617935
0.00812861
0.00796264
0.00839995
0.00844041
0.00844163
0.00844197
0.00844227
0.00844196
0.00844098
0.0084376
0.00843353
0.00842673
0.00841569
0.00838474
0.00833973
0.00832731
0.00833835
0.00837138
0.0084056
0.00842556
0.0084333
0.00843645
0.0084384
0.0084391
0.00843935
0.00843888
0.00843887
0.00843957
0.00844114
0.00844167
0.00843931
0.00843779
0.00843175
0.00818968
0.00818922
0.00815432
0.00815251
0.00815608
0.00815614
0.00815441
0.00815426
0.00618442
0.00813235
0.00796515
0.00839352
0.00844047
0.00844172
0.00844232
0.00844244
0.00844231
0.00844168
0.00843896
0.00843552
0.00842951
0.00842061
0.00839954
0.00835293
0.00832577
0.00832904
0.00835393
0.00839156
0.00841899
0.00843155
0.00843568
0.00843749
0.00843842
0.00843872
0.00843866
0.00843843
0.00843858
0.00843943
0.00844105
0.00844128
0.00843853
0.00843136
0.00818588
0.0081839
0.00815741
0.00815884
0.00815595
0.0081577
0.00816351
0.00817293
0.00816437
0.00817489
0.00620787
0.00816819
0.00796932
0.00838943
0.00844076
0.00844182
0.0084427
0.0084427
0.00844292
0.00844222
0.00844027
0.00843694
0.00843227
0.00842429
0.00840896
0.00836953
0.00832957
0.00832371
0.00833879
0.00837466
0.00840837
0.00842759
0.00843477
0.00843753
0.00843832
0.00843836
0.00843809
0.0084377
0.00843779
0.00843802
0.00843869
0.00844047
0.00844024
0.00843354
0.00818396
0.00818377
0.00815669
0.00815931
0.00816565
0.00817949
0.00817764
0.00819317
0.00819984
0.00821722
0.0082152
0.00822898
0.00625562
0.00821978
0.00796846
0.00838508
0.0084408
0.00844198
0.00844285
0.00844318
0.00844343
0.00844274
0.0084412
0.00843836
0.00843482
0.00842768
0.00841554
0.00838533
0.0083377
0.00831994
0.00832836
0.00835805
0.00839489
0.00842048
0.00843192
0.00843655
0.00843853
0.00843892
0.00843848
0.00843707
0.00843689
0.00843659
0.00843689
0.00843803
0.0084395
0.00843721
0.00818627
0.00818816
0.00816569
0.00816738
0.00818973
0.00819611
0.00820033
0.00821848
0.00822241
0.00824385
0.00824526
0.00826286
0.00826849
0.00827809
0.00630599
0.00825988
0.00795925
0.00837432
0.00844086
0.00844209
0.00844291
0.00844348
0.00844363
0.00844323
0.00844203
0.0084398
0.00843694
0.00843119
0.00842095
0.00839856
0.00835096
0.00831864
0.00831973
0.00834134
0.00838014
0.00841163
0.00842822
0.00843422
0.00843695
0.00843857
0.00843925
0.00843822
0.00843623
0.00843544
0.00843536
0.00843589
0.00843744
0.00843903
0.00818678
0.00818707
0.00816971
0.00816801
0.00820343
0.00820467
0.00822978
0.00823541
0.00824257
0.00825802
0.0082655
0.00828664
0.00828464
0.00830002
0.00830757
0.00831548
0.00635717
0.00828936
0.00798097
0.00834443
0.00844106
0.00844225
0.00844311
0.00844359
0.00844384
0.00844356
0.00844255
0.00844074
0.00843873
0.0084342
0.00842548
0.00840835
0.00836636
0.00832264
0.00831331
0.00832639
0.00836183
0.00839965
0.00842331
0.00843289
0.00843513
0.0084364
0.00843799
0.00843875
0.00843748
0.00843548
0.00843433
0.00843499
0.00843622
0.00843863
0.00818757
0.00818644
0.00815501
0.00814607
0.00820708
0.00820345
0.00824008
0.00824047
0.00826816
0.00827201
0.00827896
0.0082917
0.00830176
0.00832079
0.0083178
0.00833013
0.00833515
0.00834345
0.00641336
0.00831277
0.00799153
0.00834533
0.00843283
0.0084424
0.00844327
0.0084438
0.00844408
0.008444
0.00844309
0.00844135
0.00843987
0.00843658
0.00842918
0.00841548
0.00838212
0.0083315
0.00830941
0.0083156
0.00834292
0.00838304
0.00841433
0.0084303
0.00843506
0.00843566
0.00843579
0.00843673
0.00843726
0.00843619
0.00843498
0.00843482
0.00843563
0.00843918
0.00818564
0.00818677
0.0081414
0.00813959
0.00819023
0.0081717
0.00824265
0.00823772
0.00827349
0.00827372
0.00830184
0.0083039
0.00831009
0.00832133
0.00833162
0.00834771
0.00834493
0.00835481
0.00835565
0.00836456
0.00647225
0.00833072
0.00801618
0.00833665
0.00842436
0.00844246
0.00844332
0.00844383
0.00844419
0.00844431
0.00844348
0.00844184
0.00844097
0.0084383
0.0084321
0.0084207
0.00839556
0.00834498
0.00830952
0.00830794
0.00832603
0.00836475
0.00840115
0.0084239
0.00843347
0.00843588
0.0084362
0.00843508
0.00843496
0.00843472
0.00843472
0.00843541
0.00843625
0.00844113
0.00788163
0.00763378
0.0081399
0.00814325
0.00815344
0.00815494
0.00822468
0.0082029
0.0082718
0.00825556
0.00830125
0.00829234
0.00833109
0.00832511
0.00833753
0.00834696
0.00835659
0.00836911
0.00836652
0.00837551
0.00837059
0.00838036
0.00653232
0.00834335
0.00804664
0.00833878
0.00842128
0.00844211
0.00844308
0.00844371
0.00844438
0.00844451
0.00844374
0.0084423
0.00844167
0.00843969
0.00843443
0.00842435
0.00840507
0.00835943
0.00831426
0.00830227
0.00831311
0.00834568
0.00838549
0.0084148
0.00842895
0.00843398
0.0084361
0.00843618
0.00843455
0.00843292
0.00843221
0.00843382
0.00843682
0.0084396
0.00768807
0.00777703
0.0081461
0.00816015
0.00816524
0.00816663
0.00818936
0.00818916
0.00823967
0.00821791
0.00826757
0.00823411
0.00829823
0.00826464
0.00834441
0.00830229
0.00835947
0.00835323
0.00837409
0.00838717
0.008381
0.00839019
0.00838219
0.00839168
0.00659243
0.00835227
0.00808468
0.00834396
0.00841786
0.00844121
0.00844258
0.00844352
0.00844435
0.0084445
0.00844383
0.00844254
0.00844219
0.00844071
0.00843624
0.008427
0.00841085
0.00837257
0.0083226
0.00829856
0.00830342
0.00832738
0.00836768
0.00840283
0.00842301
0.00843044
0.00843336
0.00843562
0.00843567
0.00843378
0.00843207
0.00843309
0.00843552
0.00843936
0.00825344
0.00782874
0.00745194
0.00789698
0.00769948
0.00818437
0.00806731
0.00820324
0.00811154
0.00820952
0.00816787
0.00822337
0.00817237
0.00824332
0.00816203
0.0083057
0.00822603
0.00836078
0.00830553
0.00837204
0.00839973
0.00838023
0.00839367
0.00839142
0.00839895
0.00664264
0.00835582
0.00813269
0.00830779
0.00841584
0.00843936
0.00844119
0.0084427
0.00844394
0.00844425
0.00844364
0.00844249
0.00844242
0.00844139
0.0084376
0.00842903
0.00841404
0.00838268
0.00833297
0.00829852
0.00829565
0.00831145
0.00834851
0.00838786
0.0084146
0.00842618
0.00843014
0.00843245
0.00843408
0.00843393
0.00843365
0.00843758
0.00843947
0.0084397
0.00845099
0.00790136
0.0081248
0.007619
0.00758152
0.00789875
0.00788127
0.00805728
0.0080395
0.00809469
0.00798899
0.00809208
0.00797153
0.00807607
0.00797076
0.00814328
0.0080255
0.00821808
0.00810563
0.00830937
0.00818594
0.00832166
0.00840472
0.00833621
0.00836047
0.00839667
0.00840337
0.00665949
0.00832668
0.00819226
0.00835685
0.00836808
0.00843479
0.00843742
0.00844034
0.0084427
0.00844343
0.00844311
0.00844247
0.00844246
0.00844173
0.00843852
0.00843049
0.00841581
0.00838843
0.00834228
0.0083019
0.00828905
0.00829886
0.00832912
0.00837037
0.00840299
0.00842017
0.00842647
0.00842943
0.00843065
0.00843134
0.00843325
0.00844183
0.00844687
0.0084463
0.00844839
0.00810887
0.00805602
0.00801106
0.00799392
0.00799327
0.0080405
0.00797193
0.00791231
0.00788877
0.007787
0.00783596
0.00770596
0.00782047
0.00768069
0.00785811
0.00769329
0.00794516
0.00776934
0.00805939
0.00789404
0.00817166
0.008025
0.00817532
0.0083837
0.00819292
0.00823896
0.00837449
0.00839865
0.00648933
0.00802111
0.00827015
0.00838384
0.00840208
0.00842463
0.00842886
0.00843445
0.00843931
0.00844141
0.0084419
0.00844171
0.0084419
0.00844159
0.00843891
0.00843133
0.0084166
0.0083904
0.00834785
0.00830595
0.00828451
0.00828798
0.00831041
0.00835028
0.00838749
0.00841106
0.00842145
0.00842599
0.00842776
0.00842814
0.0084311
0.00844298
0.0084518
0.0084536
0.00843666
0.00741715
0.00726738
0.00796052
0.00796024
0.00771905
0.00766932
0.00784666
0.00777745
0.00769425
0.00761806
0.00759245
0.00749985
0.00756151
0.00746636
0.0075697
0.00748155
0.00761119
0.00749067
0.0076991
0.00756407
0.00786554
0.0076676
0.00801273
0.00784329
0.00802048
0.00829335
0.0080442
0.0080775
0.00827814
0.00836313
0.00660713
0.00820943
0.00835591
0.00839901
0.00841191
0.00835513
0.00841294
0.00842202
0.00843144
0.00843676
0.00843928
0.00844011
0.00844087
0.00844077
0.00843874
0.00843143
0.00841622
0.00838993
0.00834947
0.00830801
0.00828167
0.00827803
0.00829329
0.00832784
0.00836716
0.00839656
0.00841331
0.00842106
0.00842453
0.0084254
0.00842843
0.00844251
0.00845377
0.00845936
0.00845297
0.00820318
0.00777724
0.00759853
0.00762869
0.00760392
0.00740059
0.00735312
0.00753865
0.00746116
0.00743179
0.00738584
0.00739485
0.00732722
0.00736882
0.00729026
0.00737203
0.00727212
0.00740764
0.00727431
0.00750435
0.00747679
0.00765263
0.00753286
0.0078436
0.0076405
0.00784386
0.00814711
0.00785534
0.0079116
0.00830558
0.00826989
0.00653419
0.00840494
0.00844507
0.00841036
0.00839152
0.00831994
0.00840025
0.00841509
0.00842663
0.00843369
0.00843706
0.0084388
0.0084399
0.00843815
0.00843072
0.00841444
0.00838645
0.00834748
0.00830686
0.00827792
0.00826868
0.00827707
0.00830394
0.00834143
0.00837519
0.00839849
0.00841247
0.00841888
0.00842121
0.00842567
0.00844139
0.00845384
0.00846235
0.00845745
0.00834604
0.00763608
0.00764799
0.00759413
0.00761037
0.00731339
0.00728418
0.00724346
0.00721072
0.00733466
0.00728309
0.00729218
0.00725206
0.00722827
0.00715598
0.00709628
0.00707417
0.00717887
0.00729567
0.00738471
0.00731018
0.00745102
0.00748344
0.00753047
0.00750252
0.00764965
0.00752744
0.00766593
0.00802173
0.00769562
0.00757795
0.00835939
0.00812478
0.00622897
0.00814054
0.00843389
0.008402
0.00837622
0.00835416
0.00838779
0.0084069
0.00841355
0.00838873
0.00843548
0.00843786
0.0084347
0.00842666
0.008411
0.00837921
0.00834012
0.008301
0.00827118
0.00825717
0.00825844
0.00827729
0.00831007
0.0083461
0.00837531
0.00839494
0.00840615
0.00841164
0.00841983
0.00843891
0.00845319
0.00846308
0.00846043
0.00834433
0.00733348
0.00713464
0.00726135
0.0070634
0.00727285
0.007269
0.00717956
0.0071571
0.00717607
0.00715852
0.00721329
0.00719901
0.00714131
0.00712531
0.00705721
0.00711965
0.0071861
0.00720896
0.00730027
0.00750932
0.00749884
0.00751732
0.00750205
0.00737025
0.0075081
0.00752187
0.00754207
0.0072368
0.00730681
0.00766764
0.00732436
0.00523871
0.00571643
0.00822156
0.00782572
0.00595307
0.00796459
0.00843817
0.00839815
0.00837139
0.00836066
0.00837593
0.00838915
0.00834333
0.00841841
0.00843446
0.00842374
0.00840943
0.00840321
0.00836874
0.00832662
0.00828828
0.00825872
0.00824142
0.00823714
0.00824842
0.00827568
0.00831143
0.00834544
0.00837004
0.00838453
0.00839296
0.00840708
0.00843209
0.0084518
0.00846205
0.0084607
0.00837853
0.0080524
0.00623927
0.00623247
0.00709573
0.00706573
0.00714454
0.00712449
0.00714261
0.00713874
0.0071012
0.00712586
0.00710575
0.00710957
0.00722952
0.00723186
0.00723316
0.00734755
0.00752048
0.00751982
0.00753678
0.00754536
0.00736734
0.00750317
0.00670218
0.00662565
0.0070019
0.00700431
0.00723827
0.00457456
0.00488
0.00527287
0.0049565
0.00542031
0.00592566
0.00538178
0.0050504
0.0049986
0.00516187
0.0050002
0.00747751
0.00684638
0.00551558
0.00568982
0.00617372
0.00563438
0.00691888
0.00723874
0.00725721
0.00834886
0.0083964
0.00836518
0.00835235
0.0083639
0.00833028
0.00840844
0.00842857
0.0084299
0.00839382
0.00838311
0.0083543
0.00830788
0.00826883
0.0082404
0.00822345
0.00821792
0.00822522
0.00824699
0.00827925
0.00831504
0.00831273
0.00836417
0.00837462
0.00838696
0.00841673
0.00844811
0.00846041
0.00845915
0.00840486
0.00825677
0.0069343
0.00674495
0.00704446
0.00703375
0.00708199
0.0070418
0.0071338
0.00712054
0.00715338
0.00715405
0.00718604
0.0071974
0.00721896
0.00720381
0.0074638
0.00743823
0.00751829
0.00752474
0.00754225
0.00753062
0.00749667
0.00748201
0.00709491
0.00714707
0.00469799
0.00435829
0.00466411
0.00462961
0.00483731
0.00480802
0.00492277
0.00471171
0.00476129
0.00505035
0.00493448
0.00493404
0.00479748
0.00487855
0.00501513
0.00503613
0.00491518
0.00489435
0.00489285
0.0049314
0.0062615
0.00510842
0.00532836
0.00574252
0.00546081
0.00687059
0.00645123
0.00664836
0.00833478
0.00839389
0.00835457
0.00834035
0.00832112
0.00840327
0.00841941
0.00842414
0.00840301
0.00837008
0.00833575
0.00828384
0.00824371
0.00821798
0.00820613
0.00820531
0.00821418
0.00823242
0.00798003
0.00801629
0.00801876
0.00802153
0.00836476
0.00837436
0.00839033
0.00843244
0.00845717
0.00846074
0.00841858
0.0082908
0.00794363
0.0069402
0.00669227
0.00700459
0.00696901
0.00710509
0.00706265
0.00712605
0.00713803
0.00721389
0.00718821
0.00730869
0.00726111
0.00740042
0.00735808
0.00750898
0.0074629
0.00751905
0.00750767
0.00746239
0.00744647
0.00714472
0.00714564
0.00459527
0.00458771
0.00458871
0.00459049
0.00456262
0.00453401
0.00450478
0.00474063
0.00470542
0.00458524
0.00465934
0.00466898
0.00483347
0.00486735
0.00484709
0.0047789
0.00488586
0.00492672
0.00493305
0.00491918
0.00490428
0.00492527
0.00491608
0.00596974
0.00502108
0.00516511
0.00552673
0.00602174
0.00614277
0.002685
0.00543144
0.00620494
0.00652892
0.00831816
0.00838112
0.0083384
0.00832382
0.00831452
0.00840648
0.00841505
0.00840214
0.00836235
0.0083137
0.00825497
0.00821374
0.00819263
0.00818912
0.0081975
0.00821211
0.00805548
0.00776016
0.00785104
0.00784956
0.00776972
0.00805269
0.00836698
0.00837849
0.00839727
0.00843895
0.00845599
0.00843741
0.00832588
0.00820843
0.00685799
0.00656919
0.00695709
0.00692517
0.00702321
0.00698882
0.00706504
0.00698371
0.00712982
0.00711447
0.0072159
0.00715422
0.00689645
0.00716987
0.00642818
0.0061088
0.00747122
0.00741297
0.00744112
0.0074311
0.00715947
0.00722123
0.00459518
0.00459853
0.00460494
0.00460299
0.00448305
0.00448445
0.00449261
0.00449904
0.00456701
0.00455264
0.00451964
0.00474333
0.00477931
0.0046743
0.00480158
0.00480481
0.00484164
0.00487164
0.00488363
0.00485649
0.00491158
0.0049118
0.00492259
0.0049512
0.00494177
0.00498262
0.00494988
0.00567923
0.00497653
0.0050176
0.00524895
0.00613163
0.0059426
0.00331344
0.00545899
0.00593373
0.00830055
0.00835676
0.00831829
0.00826219
0.00838477
0.00840177
0.00839646
0.00835475
0.00828865
0.00822213
0.00817952
0.00816331
0.00816771
0.00818218
0.00817517
0.00793031
0.0079021
0.00799889
0.008012
0.00791969
0.00778775
0.0080457
0.00804919
0.00838193
0.00840155
0.00843239
0.00843277
0.00836149
0.00824226
0.00791514
0.00692061
0.00648368
0.00678907
0.00693811
0.00691166
0.00684876
0.0069604
0.00687318
0.00708689
0.00702528
0.00711571
0.00702779
0.00706438
0.00708367
0.00690499
0.00673601
0.00740693
0.00716116
0.00747538
0.0075394
0.00461131
0.00468681
0.00474576
0.00511409
0.00450724
0.00451333
0.0045153
0.00450689
0.00451112
0.00453466
0.00456224
0.00458481
0.00466578
0.00462726
0.0045914
0.00489618
0.0049381
0.00478485
0.00488317
0.00493049
0.00496197
0.00494813
0.00503528
0.00502463
0.00500769
0.00496241
0.0049811
0.00499993
0.00504476
0.0050743
0.00502292
0.00534312
0.00501416
0.00503169
0.00504957
0.00549472
0.00543299
0.00532964
0.00346584
0.00524334
0.00826023
0.00832853
0.00829144
0.00827101
0.00838731
0.00838238
0.00834356
0.00826159
0.00818606
0.00814117
0.00812761
0.00812476
0.00813777
0.00813116
0.00802519
0.00804402
0.00811575
0.00812326
0.00811616
0.00795317
0.0077765
0.00766584
0.00800751
0.00801957
0.00800073
0.00841428
0.00837135
0.00825437
0.0082395
0.00682802
0.00678522
0.00667324
0.00664314
0.00656791
0.00669602
0.00676991
0.00664536
0.00681338
0.00676188
0.00694728
0.00687411
0.00698352
0.00687873
0.00720387
0.00710886
0.00711548
0.0072714
0.00734994
0.00732135
0.00732095
0.00750809
0.00449808
0.00455045
0.00461777
0.0049864
0.00460361
0.00461616
0.00461801
0.00460704
0.00460316
0.00464916
0.00469224
0.00472495
0.00472697
0.00468864
0.00470256
0.005047
0.00502852
0.00482427
0.00491249
0.00497413
0.00512472
0.00510998
0.00519492
0.00514812
0.00516458
0.00505464
0.0051016
0.00507808
0.00518781
0.00519985
0.00511446
0.00508766
0.00513384
0.00509025
0.00498003
0.00498368
0.00502177
0.00483002
0.00278146
0.00590928
0.00821417
0.00829562
0.00821209
0.00836399
0.00836898
0.00832547
0.00823391
0.0081478
0.00809903
0.00808061
0.0080773
0.00807799
0.0080785
0.00805801
0.00806242
0.00809553
0.00811144
0.0081355
0.00809475
0.00801134
0.0076667
0.00756551
0.00761733
0.00759968
0.00830666
0.00839458
0.00784312
0.00818913
0.00683423
0.00625723
0.00558902
0.00646154
0.00639448
0.00656734
0.00652701
0.00669511
0.00660718
0.00664682
0.0065941
0.006793
0.0067138
0.00697875
0.00684012
0.00740441
0.00732061
0.00749601
0.00746069
0.00753169
0.00768202
0.00517209
0.00529473
0.00542536
0.00537154
0.00460009
0.00463046
0.00476191
0.00489451
0.00474898
0.00476118
0.00475773
0.00474206
0.00474462
0.00480532
0.00485289
0.00488544
0.00477881
0.00481074
0.00465361
0.0051097
0.00505253
0.00488378
0.0049892
0.00500282
0.00522104
0.0052568
0.00527477
0.00519111
0.0052865
0.0051717
0.00523805
0.00516968
0.00530562
0.00528709
0.00520883
0.00455287
0.00527873
0.0053295
0.00475265
0.0049761
0.00493013
0.00552961
0.00295402
0.00648738
0.00833653
0.00823416
0.00833273
0.00835206
0.00830856
0.00820728
0.00810882
0.00805432
0.00803462
0.0080244
0.00800992
0.00800472
0.00799507
0.00798851
0.00798605
0.00798862
0.00799748
0.00801112
0.00803245
0.00791112
0.00771273
0.00758799
0.00757841
0.0080453
0.0083707
0.00757007
0.00819737
0.00671501
0.0053236
0.00489249
0.00630561
0.00627273
0.00645349
0.00641492
0.00652265
0.00650343
0.00655547
0.00653269
0.00654256
0.00646284
0.00673148
0.00663444
0.00721198
0.00708989
0.00760524
0.00754884
0.0076674
0.0076389
0.00546332
0.00585251
0.00770595
0.00512735
0.00525053
0.00541628
0.00534372
0.00473032
0.0047335
0.00487069
0.00501474
0.00490592
0.00491277
0.0049021
0.00488021
0.00460762
0.00487984
0.00502384
0.005047
0.00491365
0.00499273
0.00479267
0.00512886
0.00508631
0.00503673
0.00515243
0.00509172
0.00524515
0.00531668
0.00528183
0.00520492
0.00533695
0.00529264
0.00537009
0.00525116
0.00535058
0.00532538
0.00528953
0.00511047
0.0054357
0.00548366
0.00534012
0.00509481
0.00500655
0.00610313
0.00476139
0.0067908
0.00824627
0.00817614
0.00833023
0.00829324
0.00818414
0.00807108
0.00800899
0.00798588
0.0079693
0.00794853
0.00792965
0.00791652
0.00790629
0.00789706
0.00788961
0.00788378
0.00788079
0.00787952
0.00789722
0.00790436
0.00781879
0.00773635
0.00785011
0.00821842
0.00785883
0.00818688
0.00712183
0.0068817
0.00614491
0.00592768
0.00632859
0.00629918
0.00631388
0.00631904
0.00635178
0.00632864
0.00641473
0.00638018
0.0066151
0.00645749
0.00695265
0.00679231
0.00747123
0.00737252
0.00783794
0.00780116
0.00766938
0.00784995
0.00547007
0.00590679
0.00605749
0.00611505
0.00531043
0.00542897
0.00564916
0.00554956
0.00486408
0.00486999
0.00501846
0.00518425
0.00505552
0.00504921
0.00502574
0.00499543
0.0043389
0.00460064
0.00518142
0.00518688
0.00511148
0.00519304
0.00505894
0.00517695
0.00518579
0.00524451
0.00536494
0.00525457
0.00524343
0.00531643
0.005274
0.00524194
0.0053339
0.00540432
0.00550352
0.00529496
0.00535038
0.00532794
0.00537434
0.0052798
0.00558328
0.00562597
0.00547918
0.00514331
0.005253
0.00628393
0.00599145
0.00674053
0.0080942
0.00830307
0.0082803
0.00816595
0.00803685
0.00796468
0.00793671
0.00791402
0.00788629
0.00786649
0.00785568
0.00784508
0.00783306
0.0078181
0.00780133
0.00778762
0.00778463
0.00781338
0.00786944
0.00793503
0.00794489
0.00793727
0.00803334
0.00804493
0.00814163
0.00790921
0.0073405
0.00608492
0.00589136
0.00613499
0.00610954
0.00613542
0.00613231
0.00614457
0.00613676
0.00622004
0.00616904
0.00636503
0.00629098
0.00691166
0.00673484
0.00723939
0.00708243
0.00769642
0.00761639
0.00774234
0.00784628
0.00617038
0.0066311
0.00792229
0.00574227
0.00585317
0.00620154
0.00628178
0.00553121
0.00565421
0.00588951
0.00578148
0.00498671
0.0050589
0.00522667
0.00539869
0.00517789
0.00515509
0.00511737
0.00507812
0.00442625
0.0046025
0.00531851
0.00530321
0.00532801
0.00540138
0.00543872
0.00528339
0.00535799
0.00547169
0.00560617
0.00547866
0.00527611
0.00530026
0.00530484
0.00534391
0.00532547
0.00552092
0.00562935
0.00534872
0.00534256
0.00536622
0.00549312
0.0053645
0.00571852
0.00576056
0.00559421
0.0051524
0.00551483
0.00625404
0.00499953
0.00677663
0.00816573
0.00826316
0.00815508
0.00800656
0.00792295
0.00788891
0.00786197
0.00782903
0.00781598
0.00781137
0.00780335
0.00778904
0.00777274
0.00775088
0.00773515
0.00774579
0.00779485
0.0078703
0.00795173
0.00801876
0.00807453
0.00806633
0.00809785
0.00812249
0.00825194
0.00793903
0.00753158
0.00592287
0.00577945
0.00592167
0.00591998
0.00596595
0.00593629
0.00605731
0.00601021
0.00622356
0.00611473
0.0065597
0.00638366
0.00720226
0.00702255
0.00751396
0.00736484
0.00771613
0.00756868
0.00623241
0.00651728
0.007681
0.00634315
0.00683859
0.00638939
0.00646682
0.00599133
0.0061028
0.00642714
0.00648184
0.00577299
0.00589947
0.00612953
0.00602216
0.00510614
0.00527156
0.00546153
0.00563573
0.00527347
0.00523241
0.00517982
0.00515443
0.00485715
0.0048791
0.00546004
0.0054221
0.00555971
0.00561856
0.00564284
0.00545894
0.00559015
0.00571786
0.00588029
0.00574218
0.00538016
0.00532725
0.00540946
0.0055225
0.00536417
0.0056343
0.00575749
0.00547567
0.00541309
0.00550278
0.0056265
0.00530304
0.00585223
0.00588475
0.00568444
0.0052375
0.00574098
0.00617388
0.00673052
0.00691044
0.00808852
0.00814372
0.00798631
0.00788228
0.00784397
0.00781289
0.00778017
0.00777458
0.0077797
0.00777768
0.00776552
0.00774559
0.00772849
0.00772013
0.00775006
0.00776201
0.00779457
0.0078999
0.00804263
0.0081128
0.00814916
0.00817959
0.00811527
0.00824196
0.00812076
0.00788957
0.00593739
0.00592069
0.00575558
0.00574874
0.00579376
0.0057674
0.00590005
0.00583348
0.00616585
0.00601966
0.00646544
0.00631103
0.00682817
0.00663921
0.00738196
0.00723822
0.00751924
0.0074575
0.00749288
0.00710905
0.0062968
0.00667943
0.00616117
0.00622905
0.00653221
0.00656044
0.00636384
0.00644553
0.0062316
0.00634173
0.006539
0.00655074
0.00601315
0.00613493
0.00634225
0.00624383
0.00528289
0.00549443
0.00568777
0.00587044
0.00536836
0.00530511
0.00523709
0.0052183
0.00527739
0.00521491
0.00550711
0.00546659
0.00581241
0.0058659
0.00573275
0.0056948
0.00586498
0.00600187
0.00591401
0.00590433
0.00555914
0.00543934
0.00535818
0.00556715
0.00543573
0.00576596
0.00589526
0.0056354
0.0054293
0.00552274
0.00578952
0.0053111
0.00600094
0.00599879
0.00576458
0.00547227
0.00583551
0.00611228
0.00724183
0.00725091
0.00795413
0.00795198
0.00785057
0.0077996
0.00776902
0.00773751
0.00774204
0.00775593
0.00776357
0.00775363
0.00774071
0.00772366
0.0077323
0.00770583
0.00773012
0.00769612
0.00755629