/*--------------------------------*- C++ -*----------------------------------*\
  =========                 |
  \\      /  F ield         | OpenFOAM: The Open Source CFD Toolbox
   \\    /   O peration     | Website:  https://openfoam.org
    \\  /    A nd           | Version:  dev
     \\/     M anipulation  |
\*---------------------------------------------------------------------------*/
FoamFile
{
    version     2.0;
    format      ascii;
    class       volScalarField;
    location    "2500";
    object      rho;
}
// * * * * * * * * * * * * * * * * * * * * * * * * * * * * * * * * * * * * * //

dimensions      [1 -3 0 0 0 0 0];

internalField   nonuniform List<scalar> 
9842
(
1.17173
1.17155
1.17167
1.17153
1.17124
1.17171
1.17153
1.17106
1.17122
1.17178
1.17157
1.17099
1.1709
1.17129
1.17179
1.17159
1.17104
1.17068
1.17091
1.17141
1.17183
1.17161
1.171
1.17052
1.17059
1.17101
1.17153
1.17186
1.17164
1.17103
1.17052
1.17035
1.17066
1.17115
1.17158
1.17187
1.17171
1.17107
1.17059
1.1702
1.17034
1.17078
1.17123
1.17161
1.1719
1.17173
1.17108
1.17063
1.17009
1.1701
1.17043
1.17092
1.17136
1.17164
1.1719
1.17171
1.17112
1.1706
1.17006
1.16993
1.17012
1.17054
1.17103
1.17139
1.17168
1.17192
1.1717
1.17119
1.17062
1.17016
1.16982
1.16988
1.17022
1.1707
1.1711
1.17143
1.1717
1.17193
1.17174
1.17128
1.17067
1.17017
1.16973
1.1697
1.16996
1.17038
1.17081
1.17117
1.17148
1.17172
1.17193
1.17173
1.17123
1.1707
1.17018
1.16974
1.16957
1.16969
1.17005
1.17052
1.17091
1.17124
1.17151
1.17174
1.17195
1.17173
1.17128
1.1708
1.17023
1.16977
1.1695
1.16951
1.16977
1.17022
1.17064
1.17096
1.17128
1.17154
1.17176
1.17194
1.17172
1.17129
1.17082
1.17033
1.16985
1.16946
1.16938
1.16955
1.16989
1.17036
1.17072
1.17102
1.17133
1.17156
1.17177
1.17195
1.17172
1.17131
1.17086
1.17036
1.16985
1.16945
1.16928
1.16935
1.16964
1.17006
1.17044
1.17078
1.17109
1.17135
1.17158
1.17178
1.17196
1.17177
1.17132
1.17089
1.1704
1.16992
1.16948
1.16922
1.16919
1.16939
1.16976
1.17015
1.17054
1.17087
1.17114
1.17138
1.1716
1.17179
1.17195
1.17177
1.17133
1.17092
1.17046
1.17
1.16954
1.16921
1.1691
1.1692
1.1695
1.1699
1.17031
1.17061
1.17091
1.17119
1.17141
1.17161
1.1718
1.17196
1.17174
1.17134
1.17096
1.17057
1.17007
1.16963
1.16923
1.16903
1.16906
1.16928
1.16962
1.17002
1.17039
1.17069
1.17096
1.17121
1.17143
1.17163
1.1718
1.17196
1.17175
1.17136
1.17096
1.17055
1.17016
1.1697
1.16928
1.16901
1.16895
1.16908
1.16936
1.16977
1.17014
1.17047
1.17075
1.17101
1.17123
1.17144
1.17163
1.17181
1.17196
1.17175
1.1714
1.17099
1.1706
1.17021
1.16977
1.16935
1.16902
1.16888
1.16891
1.16915
1.1695
1.16988
1.17023
1.17052
1.17079
1.17104
1.17127
1.17147
1.17165
1.17181
1.17197
1.17175
1.17139
1.171
1.17067
1.17032
1.16985
1.16944
1.16905
1.16884
1.16881
1.16895
1.16926
1.16965
1.16998
1.17031
1.17058
1.17084
1.17107
1.17128
1.17148
1.17165
1.17182
1.17197
1.17178
1.17139
1.17107
1.17067
1.17031
1.16993
1.16952
1.16914
1.16884
1.16874
1.16882
1.16904
1.1694
1.16976
1.17007
1.17038
1.17063
1.17087
1.17111
1.17131
1.17149
1.17166
1.17182
1.17197
1.17175
1.17141
1.17105
1.17068
1.1704
1.17005
1.16968
1.16922
1.16885
1.1687
1.1687
1.16886
1.16916
1.16952
1.16987
1.17015
1.17043
1.17067
1.1709
1.17114
1.17132
1.1715
1.17168
1.17182
1.17197
1.17175
1.17145
1.17106
1.17073
1.17041
1.17007
1.1697
1.16926
1.16895
1.16868
1.1686
1.16871
1.16897
1.16931
1.16964
1.16994
1.17022
1.17048
1.17072
1.17095
1.17116
1.17133
1.17151
1.17167
1.17183
1.17197
1.17178
1.17142
1.17109
1.17075
1.17044
1.17016
1.16978
1.16939
1.16901
1.16871
1.16856
1.16859
1.16877
1.16908
1.1694
1.16973
1.17002
1.17027
1.17052
1.17075
1.17096
1.17117
1.17135
1.17152
1.17167
1.17183
1.17197
1.17178
1.17142
1.17111
1.17078
1.17049
1.17019
1.16984
1.16949
1.16911
1.16876
1.16855
1.1685
1.16861
1.16886
1.1692
1.16952
1.16981
1.17009
1.17033
1.17055
1.17078
1.171
1.17118
1.17137
1.17153
1.17168
1.17183
1.17198
1.17175
1.17142
1.17112
1.17081
1.17051
1.17025
1.16995
1.16957
1.16921
1.16884
1.16855
1.16844
1.16849
1.16868
1.16898
1.16931
1.16962
1.1699
1.17013
1.17038
1.1706
1.17081
1.17102
1.17119
1.17137
1.17153
1.17168
1.17182
1.17197
1.17175
1.17144
1.17112
1.17083
1.17054
1.17031
1.17
1.16965
1.16932
1.16893
1.1686
1.16841
1.16839
1.16852
1.16877
1.1691
1.16941
1.1697
1.16996
1.17019
1.1704
1.17063
1.17084
1.17103
1.17121
1.17138
1.17154
1.17168
1.17182
1.17197
1.17175
1.17146
1.17116
1.17085
1.17058
1.17032
1.17003
1.16973
1.1694
1.16902
1.16867
1.16842
1.16833
1.1684
1.16859
1.16889
1.16921
1.16949
1.16976
1.17
1.17023
1.17044
1.17065
1.17086
1.17104
1.17122
1.17138
1.17153
1.17168
1.17182
1.17197
1.17177
1.17147
1.17117
1.17086
1.17062
1.17035
1.17011
1.1698
1.16949
1.16911
1.16874
1.16846
1.1683
1.1683
1.16844
1.16869
1.169
1.16931
1.16958
1.16982
1.17004
1.17027
1.17046
1.17069
1.17088
1.17106
1.17123
1.17139
1.17153
1.17168
1.17182
1.17196
1.17177
1.17144
1.17115
1.17087
1.17065
1.17038
1.17016
1.16985
1.16963
1.16922
1.16885
1.16852
1.1683
1.16824
1.16832
1.16852
1.16881
1.16911
1.16939
1.16965
1.16988
1.17008
1.1703
1.17051
1.1707
1.1709
1.17106
1.17123
1.17139
1.17153
1.17167
1.17182
1.17196
1.17176
1.17145
1.17115
1.1709
1.17067
1.17044
1.17017
1.16992
1.16968
1.16929
1.16895
1.16859
1.16833
1.1682
1.16822
1.16837
1.16862
1.16891
1.16923
1.16947
1.1697
1.16993
1.17014
1.17033
1.17054
1.17073
1.17091
1.17108
1.17123
1.17138
1.17153
1.17166
1.17181
1.17204
1.17196
1.17175
1.17145
1.17115
1.1709
1.17066
1.17043
1.1702
1.16996
1.16973
1.1694
1.16905
1.16869
1.16837
1.1682
1.16815
1.16824
1.16845
1.16873
1.16902
1.16929
1.16953
1.16975
1.16996
1.17017
1.17035
1.17054
1.17075
1.1709
1.17108
1.17122
1.17137
1.17151
1.17168
1.17187
1.17179
1.17203
1.17195
1.17176
1.17147
1.17119
1.17091
1.17071
1.17046
1.17022
1.16999
1.16981
1.16949
1.16916
1.16879
1.16845
1.16821
1.16811
1.16814
1.16829
1.16855
1.16883
1.16913
1.16937
1.16959
1.1698
1.17
1.17021
1.17038
1.17057
1.17077
1.17091
1.17108
1.17123
1.17137
1.17156
1.17149
1.17172
1.17161
1.17164
1.17188
1.1718
1.17203
1.17195
1.17175
1.17144
1.17119
1.17091
1.17069
1.17046
1.17027
1.17003
1.16984
1.16954
1.16925
1.16889
1.16854
1.16826
1.16809
1.16806
1.16816
1.16838
1.16865
1.16894
1.1692
1.16943
1.16964
1.16983
1.17003
1.17023
1.1704
1.1706
1.17076
1.17093
1.17108
1.17122
1.17141
1.17134
1.17153
1.17172
1.17157
1.17164
1.17187
1.17179
1.17204
1.17195
1.17176
1.17144
1.1712
1.17093
1.1707
1.17051
1.17031
1.17007
1.16986
1.1696
1.16935
1.16901
1.16864
1.16832
1.1681
1.16802
1.16807
1.16823
1.16849
1.16875
1.16904
1.16928
1.16949
1.16968
1.16987
1.17007
1.17025
1.17041
1.17061
1.17077
1.17093
1.17107
1.17126
1.17119
1.17145
1.17137
1.17149
1.17171
1.17156
1.17163
1.17187
1.17178
1.17203
1.17195
1.17174
1.17143
1.17118
1.17095
1.17071
1.17054
1.17031
1.17011
1.16987
1.16967
1.16941
1.1691
1.16875
1.1684
1.16814
1.168
1.16799
1.16811
1.16831
1.16858
1.16886
1.16912
1.16934
1.16954
1.16972
1.16992
1.1701
1.17027
1.17046
1.17062
1.17078
1.17093
1.17111
1.17104
1.17129
1.17121
1.17142
1.17134
1.17148
1.1717
1.17155
1.17161
1.17186
1.17177
1.17203
1.17194
1.17175
1.17147
1.17119
1.17096
1.17073
1.17053
1.17032
1.17014
1.16993
1.16972
1.16946
1.16919
1.16887
1.16851
1.1682
1.16801
1.16794
1.168
1.16817
1.16841
1.1687
1.16895
1.16919
1.16939
1.16958
1.16977
1.16995
1.17015
1.17032
1.17046
1.17062
1.17078
1.17097
1.17089
1.17113
1.17105
1.17126
1.17118
1.1714
1.17132
1.17146
1.17169
1.17153
1.1716
1.17185
1.17176
1.17203
1.17194
1.17175
1.17146
1.1712
1.17097
1.17076
1.17054
1.17036
1.17017
1.16996
1.16973
1.16951
1.16925
1.16895
1.16861
1.16827
1.16803
1.16792
1.16792
1.16804
1.16825
1.16852
1.16878
1.16902
1.16924
1.16943
1.16962
1.16981
1.16999
1.17014
1.17035
1.17046
1.17063
1.17082
1.17075
1.17097
1.17089
1.17111
1.17103
1.17124
1.17116
1.17138
1.1713
1.17144
1.17167
1.17151
1.17158
1.17184
1.17175
1.17203
1.17193
1.17174
1.17145
1.17119
1.17097
1.17077
1.17057
1.17039
1.1702
1.17001
1.16978
1.16955
1.16931
1.16902
1.1687
1.16836
1.16808
1.16791
1.16786
1.16793
1.16811
1.16835
1.16861
1.16886
1.16909
1.16929
1.16948
1.16966
1.16983
1.17001
1.17014
1.1703
1.17049
1.17067
1.1706
1.17082
1.17074
1.17095
1.17087
1.17108
1.171
1.17122
1.17113
1.17136
1.17127
1.17142
1.17165
1.17149
1.17156
1.17183
1.17173
1.17202
1.17192
1.17173
1.17144
1.17118
1.17097
1.17077
1.17058
1.17041
1.17021
1.17004
1.16984
1.16961
1.16937
1.16909
1.16879
1.16845
1.16814
1.16793
1.16783
1.16785
1.16798
1.16819
1.16845
1.1687
1.16893
1.16914
1.16933
1.16951
1.16968
1.16986
1.17003
1.17016
1.17029
1.17052
1.17046
1.17066
1.17059
1.17079
1.17072
1.17092
1.17083
1.17105
1.17096
1.17118
1.17109
1.17133
1.17124
1.17139
1.17163
1.17146
1.17153
1.17182
1.17172
1.17202
1.17191
1.17172
1.17142
1.17117
1.17096
1.17077
1.17059
1.17043
1.17022
1.17006
1.16987
1.16963
1.16942
1.16916
1.16887
1.16855
1.16822
1.16796
1.16782
1.16779
1.16787
1.16804
1.16828
1.16854
1.16878
1.169
1.16919
1.16937
1.16954
1.16971
1.1699
1.17008
1.17015
1.17037
1.17031
1.17051
1.17044
1.17063
1.17056
1.17075
1.17066
1.17087
1.17077
1.171
1.17089
1.17114
1.17103
1.1713
1.17119
1.17136
1.17161
1.17143
1.1715
1.1718
1.1717
1.17201
1.1719
1.1717
1.17139
1.17115
1.17094
1.17077
1.1706
1.17041
1.17022
1.17007
1.16988
1.16965
1.16944
1.16922
1.16894
1.16863
1.16831
1.16802
1.16783
1.16775
1.16779
1.16792
1.16813
1.16838
1.16862
1.16885
1.16905
1.16923
1.16941
1.16957
1.16974
1.16988
1.17008
1.17019
1.17015
1.17036
1.17029
1.17046
1.17037
1.17055
1.17042
1.17064
1.17047
1.17075
1.17053
1.1709
1.17067
1.17107
1.17088
1.17125
1.1711
1.17131
1.17159
1.17138
1.17146
1.17179
1.17168
1.17201
1.17189
1.17167
1.17135
1.17111
1.17092
1.17075
1.17059
1.1704
1.17023
1.17008
1.16989
1.16966
1.16946
1.16925
1.16899
1.1687
1.16839
1.16809
1.16785
1.16773
1.16772
1.16781
1.16799
1.16822
1.16847
1.1687
1.16891
1.1691
1.16927
1.16944
1.16959
1.16976
1.16989
1.17
1.17021
1.17009
1.17026
1.17013
1.17024
1.16994
1.17016
1.1696
1.17012
1.16927
1.17022
1.16921
1.17049
1.16957
1.17083
1.17019
1.17114
1.17079
1.1712
1.17155
1.17129
1.17139
1.17177
1.17165
1.172
1.17188
1.17163
1.17129
1.17106
1.17088
1.17073
1.17058
1.17039
1.17024
1.1701
1.1699
1.16966
1.16948
1.16927
1.16903
1.16875
1.16846
1.16816
1.1679
1.16773
1.16767
1.16772
1.16786
1.16807
1.16831
1.16855
1.16877
1.16896
1.16914
1.16931
1.16947
1.16965
1.16977
1.16986
1.16967
1.16951
1.16998
1.16983
1.16956
1.169
1.16865
1.16727
1.16752
1.16496
1.16702
1.1632
1.16747
1.16299
1.16852
1.1647
1.16982
1.16717
1.17078
1.16947
1.17084
1.1715
1.17097
1.17116
1.17175
1.17162
1.172
1.17186
1.17157
1.17119
1.17096
1.17081
1.17068
1.17057
1.17038
1.17024
1.17011
1.16986
1.16965
1.16948
1.16929
1.16905
1.16879
1.16851
1.16822
1.16795
1.16775
1.16764
1.16766
1.16775
1.16793
1.16815
1.16839
1.16862
1.16882
1.16901
1.16918
1.16934
1.1695
1.16966
1.16976
1.16937
1.1693
1.16713
1.16659
1.16838
1.16774
1.16565
1.16375
1.16197
1.1588
1.15871
1.1541
1.15705
1.15076
1.15755
1.14955
1.16102
1.15134
1.1657
1.15701
1.16924
1.16441
1.16928
1.17138
1.16961
1.17019
1.17174
1.17157
1.17199
1.17186
1.17148
1.17105
1.17081
1.17068
1.17059
1.17052
1.17035
1.17025
1.17012
1.16985
1.16968
1.1695
1.16931
1.16906
1.1688
1.16854
1.16827
1.168
1.16778
1.16764
1.1676
1.16767
1.1678
1.16801
1.16824
1.16847
1.16868
1.16887
1.16905
1.16922
1.16938
1.16955
1.16963
1.16928
1.16954
1.16626
1.16617
1.15886
1.15777
1.16192
1.16028
1.15569
1.15266
1.14965
1.14551
1.14467
1.13912
1.14166
1.13434
1.14128
1.13188
1.14473
1.13277
1.15318
1.13833
1.16363
1.15015
1.16367
1.17085
1.1647
1.1665
1.17172
1.17138
1.17199
1.17185
1.1714
1.17092
1.17065
1.17049
1.17043
1.1704
1.1703
1.17023
1.17012
1.16986
1.16969
1.16956
1.16933
1.16907
1.16881
1.16855
1.1683
1.16804
1.16781
1.16764
1.16756
1.1676
1.1677
1.16787
1.16809
1.16832
1.16854
1.16874
1.16893
1.1691
1.16926
1.16942
1.16957
1.16801
1.16622
1.16595
1.15716
1.15703
1.14609
1.14476
1.15001
1.14785
1.14174
1.13832
1.13417
1.12979
1.12783
1.12221
1.1235
1.11625
1.12198
1.11268
1.12455
1.11251
1.13284
1.11712
1.14862
1.12863
1.14908
1.16865
1.15193
1.15619
1.17167
1.17053
1.172
1.17187
1.17094
1.1706
1.17036
1.17023
1.17019
1.17018
1.17018
1.1701
1.16987
1.16973
1.16954
1.16932
1.16907
1.16881
1.16855
1.16831
1.16807
1.16784
1.16766
1.16754
1.16753
1.16761
1.16775
1.16795
1.16818
1.1684
1.16861
1.1688
1.16897
1.16913
1.16931
1.16945
1.16873
1.15814
1.15924
1.15711
1.15737
1.14404
1.14392
1.13136
1.13005
1.13544
1.13316
1.1259
1.12254
1.11742
1.11331
1.11016
1.10517
1.1049
1.0986
1.10253
1.09432
1.10417
1.09334
1.11139
1.09689
1.12645
1.10748
1.12656
1.16159
1.12972
1.13629
1.17155
1.16762
1.17204
1.17183
1.17082
1.17047
1.1702
1.17004
1.16999
1.17006
1.17004
1.16987
1.16975
1.16956
1.16934
1.16907
1.1688
1.16854
1.1683
1.16807
1.16785
1.16766
1.16753
1.16748
1.16752
1.16765
1.16782
1.16803
1.16826
1.16848
1.16867
1.16885
1.16901
1.16918
1.16931
1.16888
1.16046
1.16315
1.14547
1.14688
1.14402
1.14441
1.12941
1.12936
1.11603
1.11489
1.11981
1.11767
1.10976
1.10685
1.10111
1.09775
1.09362
1.08978
1.08796
1.08324
1.08535
1.08011
1.08631
1.08024
1.09225
1.08263
1.10556
1.08984
1.1061
1.14678
1.10903
1.11341
1.12825
1.17072
1.15785
1.17183
1.17097
1.1709
1.17048
1.17012
1.1699
1.16985
1.16988
1.16985
1.16975
1.16959
1.16935
1.16908
1.16879
1.16852
1.16828
1.16805
1.16784
1.16765
1.16751
1.16744
1.16744
1.16753
1.16769
1.1679
1.16812
1.16834
1.16853
1.16873
1.1689
1.16905
1.16918
1.16901
1.16014
1.14951
1.15024
1.1314
1.13315
1.12952
1.13008
1.11446
1.11447
1.10159
1.10085
1.10457
1.10285
1.09498
1.09284
1.0868
1.08441
1.07978
1.07724
1.07671
1.07425
1.07683
1.07476
1.07813
1.07612
1.08081
1.07771
1.08878
1.07978
1.08388
1.09836
1.08958
1.11771
1.13855
1.12161
1.10215
1.09164
1.09108
1.10428
1.16925
1.16329
1.1271
1.13169
1.14843
1.16968
1.16405
1.16842
1.16418
1.17118
1.17056
1.17008
1.16978
1.16969
1.16977
1.16974
1.16962
1.16941
1.16908
1.16878
1.1685
1.16825
1.16801
1.1678
1.16761
1.16747
1.16738
1.16736
1.1674
1.16752
1.16772
1.16795
1.16818
1.16839
1.1686
1.16878
1.16893
1.16909
1.16904
1.16388
1.14135
1.14683
1.13574
1.1383
1.117
1.11892
1.11474
1.1155
1.10073
1.10083
1.08939
1.08925
1.09125
1.09011
1.08254
1.08122
1.07528
1.07377
1.07232
1.07071
1.07315
1.07166
1.07488
1.07405
1.07685
1.07657
1.07645
1.07652
1.07831
1.07773
1.07741
1.07809
1.07764
1.08023
1.08407
1.07978
1.07836
1.08414
1.10751
1.11131
1.09367
1.08573
1.08471
1.0958
1.15211
1.11512
1.11816
1.13502
1.14573
1.16249
1.15175
1.15026
1.1713
1.17063
1.17
1.16963
1.16955
1.1697
1.16962
1.16944
1.16907
1.16877
1.16847
1.1682
1.16795
1.16771
1.16751
1.16735
1.16726
1.16722
1.16725
1.16734
1.1675
1.16771
1.16797
1.16823
1.16846
1.16865
1.1688
1.16896
1.16901
1.16638
1.14448
1.12861
1.13012
1.12166
1.12431
1.10385
1.10581
1.10126
1.10227
1.08931
1.08967
1.07977
1.08002
1.08031
1.0798
1.07273
1.07217
1.06935
1.06834
1.07027
1.06896
1.0733
1.07258
1.07664
1.07674
1.07673
1.07669
1.07754
1.07786
1.07816
1.07783
1.07817
1.07868
1.07979
1.07897
1.07848
1.08021
1.07861
1.07819
1.08043
1.09846
1.10124
1.08704
1.08086
1.08145
1.08867
1.136
1.10368
1.10551
1.11976
1.11363
1.14751
1.12912
1.10977
1.13364
1.12737
1.17138
1.1706
1.16982
1.16938
1.16951
1.16959
1.16947
1.16912
1.16877
1.16844
1.16815
1.16785
1.16755
1.16727
1.16705
1.16693
1.16689
1.16693
1.16702
1.16719
1.16742
1.16769
1.16799
1.16825
1.16847
1.16865
1.1688
1.1689
1.1678
1.15317
1.12199
1.12908
1.11481
1.11858
1.10842
1.11122
1.09358
1.09553
1.09056
1.09187
1.08078
1.08211
1.07361
1.07535
1.07217
1.07255
1.06808
1.06819
1.06787
1.06739
1.07183
1.07106
1.0766
1.07651
1.07644
1.0764
1.07835
1.07844
1.07848
1.07852
1.0792
1.07952
1.07957
1.07883
1.07988
1.08033
1.08114
1.08079
1.0785
1.07884
1.0788
1.07946
1.07902
1.09052
1.09235
1.08223
1.07922
1.07942
1.08317
1.11925
1.09401
1.09537
1.10634
1.11105
1.10224
1.15009
1.11119
1.11603
1.17141
1.17043
1.16954
1.16928
1.16948
1.16946
1.1692
1.16878
1.16842
1.16808
1.16771
1.16727
1.16679
1.16637
1.1661
1.16602
1.16609
1.16626
1.16652
1.16686
1.16727
1.16764
1.16796
1.16822
1.16844
1.16863
1.16877
1.16835
1.15985
1.12784
1.11132
1.1133
1.10361
1.10675
1.0979
1.10044
1.08727
1.08919
1.0837
1.08543
1.07738
1.07957
1.07278
1.07579
1.06881
1.07036
1.06755
1.06843
1.07086
1.07126
1.07636
1.0764
1.07643
1.0766
1.07861
1.07877
1.07898
1.07928
1.07949
1.07942
1.07943
1.07961
1.08042
1.08023
1.07992
1.08071
1.08161
1.08097
1.08125
1.08169
1.07995
1.079
1.08028
1.08139
1.07909
1.08419
1.08527
1.07963
1.07909
1.07898
1.07986
1.10544
1.08639
1.08737
1.09595
1.10243
1.0991
1.09798
1.15153
1.11105
1.17136
1.17002
1.16922
1.16926
1.16941
1.16924
1.16877
1.16839
1.168
1.16752
1.16681
1.1659
1.16496
1.1642
1.16381
1.16387
1.16423
1.16478
1.16551
1.16639
1.16698
1.1674
1.16772
1.16803
1.1683
1.16853
1.16839
1.16403
1.13862
1.10825
1.11489
1.10178
1.10501
1.09591
1.09847
1.09126
1.09341
1.08568
1.08737
1.08177
1.08382
1.07909
1.08227
1.0787
1.08348
1.07062
1.07422
1.0728
1.07613
1.07952
1.08216
1.07964
1.08009
1.08057
1.08118
1.07999
1.08057
1.08127
1.08205
1.07963
1.07949
1.07956
1.07991
1.08047
1.07975
1.07903
1.08221
1.08213
1.08022
1.07962
1.08125
1.08187
1.08046
1.08218
1.08265
1.08045
1.0801
1.08034
1.07877
1.08025
1.07983
1.07847
1.09526
1.08064
1.081
1.0878
1.09353
1.09289
1.09603
1.12605
1.10267
1.17104
1.16949
1.16908
1.16927
1.16925
1.1688
1.16838
1.16792
1.16726
1.16615
1.16449
1.16256
1.16084
1.15999
1.16013
1.16089
1.162
1.16328
1.16451
1.16534
1.16577
1.16612
1.16669
1.16734
1.16788
1.16817
1.16587
1.14887
1.11514
1.10182
1.10351
1.09631
1.09855
1.09232
1.0941
1.08902
1.09061
1.08878
1.08997
1.085
1.08715
1.08792
1.09148
1.09381
1.0997
1.08111
1.08726
1.08684
1.09325
1.08787
1.08992
1.09535
1.09226
1.08294
1.08394
1.08505
1.08635
1.08057
1.08157
1.08289
1.08434
1.07851
1.07836
1.0786
1.07932
1.07893
1.07765
1.0766
1.08244
1.08109
1.0777
1.07634
1.07891
1.08297
1.08233
1.0832
1.08266
1.08229
1.07811
1.07762
1.07919
1.08201
1.08143
1.07833
1.08763
1.07712
1.07666
1.08135
1.08754
1.08946
1.09414
1.12967
1.10438
1.16997
1.16906
1.16905
1.1692
1.16886
1.16838
1.16785
1.16697
1.16529
1.1626
1.15936
1.15679
1.15573
1.15601
1.15723
1.15894
1.16068
1.16192
1.162
1.16128
1.16111
1.1622
1.16411
1.16594
1.1674
1.1661
1.15554
1.12374
1.10185
1.10613
1.09767
1.09937
1.09451
1.09573
1.09251
1.09339
1.09086
1.09166
1.09622
1.09631
1.09397
1.09545
1.10414
1.10678
1.11647
1.12173
1.10111
1.10915
1.09882
1.10336
1.11441
1.09375
1.09647
1.10314
1.09956
1.08592
1.0876
1.08942
1.09144
1.0805
1.08207
1.08398
1.08618
1.07603
1.076
1.07662
1.07794
1.0758
1.07414
1.07299
1.08097
1.07828
1.07376
1.07184
1.07508
1.08286
1.08336
1.0831
1.08097
1.08341
1.07729
1.07618
1.08049
1.08327
1.08285
1.07918
1.08181
1.07511
1.07408
1.07666
1.08317
1.08666
1.09507
1.15066
1.12152
1.16922
1.16891
1.16906
1.16892
1.16839
1.16778
1.16667
1.16433
1.16041
1.15592
1.1527
1.15148
1.15201
1.1537
1.15593
1.15798
1.15872
1.1572
1.15395
1.15159
1.15218
1.15595
1.16111
1.16537
1.1656
1.15808
1.13264
1.10668
1.09884
1.09984
1.09637
1.09727
1.09521
1.09557
1.09527
1.09511
1.09611
1.0957
1.10682
1.10517
1.10789
1.10768
1.12462
1.12533
1.1382
1.14158
1.124
1.1317
1.107
1.11107
1.12428
1.12913
1.09933
1.10274
1.11063
1.1065
1.08851
1.09093
1.09349
1.09626
1.07987
1.08232
1.08506
1.08801
1.07264
1.07298
1.07436
1.07659
1.07147
1.06975
1.06898
1.07788
1.07413
1.06891
1.06669
1.07024
1.08123
1.08337
1.0817
1.07791
1.08355
1.07748
1.07545
1.08193
1.08352
1.0833
1.08032
1.07754
1.07374
1.07242
1.07359
1.08004
1.08558
1.09971
1.1616
1.13854
1.1688
1.16889
1.1689
1.1684
1.16775
1.16641
1.16343
1.15833
1.15267
1.14885
1.14766
1.14851
1.15062
1.1532
1.15525
1.15525
1.15182
1.14623
1.14166
1.14128
1.14509
1.15228
1.16086
1.16382
1.15803
1.13808
1.11269
1.09968
1.10176
1.09764
1.09828
1.09691
1.09708
1.09751
1.09693
1.09991
1.09855
1.10335
1.10155
1.119
1.11527
1.12456
1.12237
1.14253
1.14209
1.14984
1.15245
1.13338
1.13829
1.1451
1.11502
1.1196
1.13118
1.13532
1.10475
1.10881
1.11767
1.11313
1.09106
1.09419
1.09747
1.10097
1.07955
1.08293
1.08663
1.09039
1.06911
1.07035
1.07278
1.07628
1.06665
1.0654
1.06528
1.07365
1.06915
1.0639
1.0616
1.06497
1.07838
1.08234
1.07926
1.07383
1.08297
1.078
1.07535
1.08256
1.08325
1.08303
1.08102
1.07445
1.07284
1.07112
1.07161
1.07805
1.08642
1.11008
1.1684
1.15058
1.16868
1.16883
1.16845
1.16775
1.16628
1.16276
1.15659
1.14981
1.1456
1.14466
1.14579
1.14812
1.15083
1.15258
1.15155
1.14667
1.13898
1.13351
1.1322
1.1347
1.1413
1.15154
1.15967
1.1565
1.13881
1.11705
1.10245
1.0987
1.09933
1.09807
1.09822
1.0986
1.09809
1.10102
1.09958
1.10537
1.10295
1.11164
1.10829
1.1314
1.12613
1.14003
1.13621
1.15428
1.15465
1.15094
1.15305
1.15474
1.13901
1.14238
1.14973
1.14739
1.12228
1.1268
1.13702
1.14047
1.1104
1.11499
1.1244
1.11969
1.09413
1.09792
1.10185
1.106
1.08035
1.08494
1.0896
1.0941
1.06633
1.06873
1.0724
1.07723
1.06218
1.06186
1.06239
1.06879
1.06397
1.05943
1.05722
1.05996
1.07469
1.08042
1.07618
1.06939
1.08158
1.07846
1.07532
1.08234
1.08245
1.08239
1.08077
1.0723
1.0723
1.07007
1.07018
1.07694
1.08996
1.12153
1.1701
1.15861
1.16865
1.16848
1.1678
1.16626
1.16241
1.15532
1.14751
1.14314
1.1425
1.14374
1.14623
1.14874
1.15005
1.148
1.14153
1.1338
1.12902
1.12724
1.12785
1.13128
1.1391
1.14926
1.15166
1.13746
1.11786
1.1048
1.10059
1.10133
1.0995
1.09977
1.09977
1.09946
1.10168
1.10049
1.1056
1.10337
1.11193
1.10843
1.12093
1.11613
1.1437
1.13767
1.15293
1.14889
1.1581
1.15995
1.15003
1.15158
1.14949
1.15284
1.14327
1.14553
1.14854
1.14731
1.12894
1.13316
1.14123
1.14313
1.11675
1.12166
1.13095
1.12646
1.09841
1.10277
1.10724
1.11189
1.08284
1.08862
1.09428
1.09951
1.06447
1.06792
1.07262
1.07862
1.05876
1.05899
1.06054
1.06403
1.05937
1.0562
1.05417
1.05594
1.07096
1.07799
1.07328
1.0655
1.0797
1.07832
1.07516
1.08139
1.08084
1.08087
1.07966
1.07091
1.07166
1.06911
1.069
1.07684
1.09594
1.13213
1.17153
1.16596
1.16846
1.16786
1.16638
1.16235
1.15463
1.14582
1.14134
1.14091
1.14229
1.14483
1.14696
1.14761
1.14466
1.13764
1.13106
1.12769
1.1261
1.1256
1.12614
1.12892
1.13459
1.13869
1.13222
1.11711
1.10581
1.10326
1.10233
1.10296
1.10221
1.10211
1.10346
1.10265
1.10659
1.10476
1.11217
1.10905
1.12049
1.11597
1.13155
1.12573
1.15557
1.14989
1.16085
1.15962
1.15568
1.15862
1.16071
1.14494
1.14686
1.14073
1.1452
1.14465
1.14609
1.14377
1.14312
1.135
1.13847
1.14215
1.14267
1.12393
1.1287
1.13661
1.13302
1.10437
1.10918
1.11403
1.11897
1.08563
1.09297
1.09996
1.10615
1.06325
1.0673
1.0727
1.07941
1.05626
1.05701
1.0595
1.06021
1.05585
1.05391
1.05198
1.05287
1.06779
1.07564
1.07049
1.06208
1.07755
1.0772
1.07427
1.0796
1.07834
1.07793
1.07754
1.06987
1.07092
1.06809
1.06786
1.07793
1.10318
1.1434
1.17181
1.1692
1.16797
1.16656
1.16263
1.15448
1.1448
1.13999
1.13966
1.14127
1.14365
1.14538
1.14537
1.14153
1.13498
1.13069
1.12805
1.12668
1.12606
1.12574
1.12533
1.12548
1.12549
1.12162
1.11396
1.10633
1.10498
1.11191
1.10709
1.10702
1.10771
1.10722
1.10991
1.10857
1.1144
1.11183
1.12166
1.11766
1.13172
1.12636
1.14379
1.13762
1.16373
1.16109
1.16338
1.16451
1.15027
1.15544
1.16008
1.15472
1.13496
1.1372
1.12729
1.13333
1.14303
1.14288
1.13392
1.13388
1.13925
1.14097
1.13905
1.13746
1.13096
1.1347
1.13901
1.1374
1.11168
1.11687
1.12184
1.12658
1.08726
1.09586
1.10448
1.11222
1.06275
1.06721
1.07291
1.07986
1.05434
1.05619
1.0591
1.05676
1.05253
1.05214
1.05026
1.05054
1.06461
1.07293
1.06723
1.05858
1.07433
1.07507
1.07246
1.07661
1.07459
1.0741
1.07498
1.06903
1.0694
1.06661
1.06655
1.08035
1.11131
1.15224
1.17194
1.17077
1.16695
1.16312
1.15485
1.14439
1.13897
1.1386
1.14035
1.14252
1.1439
1.1433
1.13896
1.13388
1.13111
1.12958
1.12967
1.12998
1.12871
1.12642
1.12424
1.12133
1.11756
1.11281
1.10741
1.10764
1.11488
1.12857
1.116
1.12943
1.11543
1.11637
1.11558
1.11973
1.11775
1.12561
1.12234
1.13423
1.12959
1.145
1.13944
1.15637
1.15076
1.16686
1.16646
1.16322
1.16599
1.14028
1.14762
1.15575
1.14624
1.12002
1.12273
1.11058
1.11784
1.13578
1.13435
1.11928
1.11957
1.13983
1.13976
1.13082
1.12751
1.13522
1.13692
1.13751
1.13769
1.11875
1.12422
1.12876
1.13248
1.08805
1.09714
1.10656
1.11539
1.0628
1.06726
1.07293
1.07964
1.05297
1.05579
1.05904
1.05311
1.04997
1.05068
1.04949
1.04927
1.06079
1.06901
1.06272
1.05443
1.06991
1.07308
1.07074
1.07352
1.07032
1.07077
1.07287
1.06876
1.06812
1.06548
1.0655
1.0836
1.11944
1.15905
1.17201
1.17156
1.16424
1.15571
1.14455
1.1382
1.13763
1.13939
1.14135
1.14244
1.14118
1.1369
1.13363
1.13208
1.13287
1.13679
1.1407
1.14008
1.13429
1.12778
1.12299
1.11866
1.11425
1.11071
1.11291
1.12192
1.14231
1.12756
1.14444
1.14649
1.12711
1.12836
1.12735
1.1326
1.13014
1.13938
1.13569
1.14845
1.14362
1.1584
1.15354
1.16496
1.16235
1.16776
1.1683
1.15648
1.16259
1.16576
1.1266
1.13633
1.14608
1.13429
1.10233
1.10532
1.09381
1.10154
1.12393
1.12104
1.10189
1.10267
1.13597
1.13388
1.11933
1.11451
1.13518
1.13504
1.13131
1.13354
1.1228
1.12834
1.13204
1.13428
1.08756
1.09649
1.10603
1.11535
1.06284
1.06701
1.07203
1.07788
1.05251
1.05553
1.05906
1.05062
1.04957
1.05031
1.05012
1.04954
1.05636
1.0644
1.05889
1.05245
1.06586
1.07166
1.06997
1.07142
1.06745
1.06926
1.07159
1.06891
1.06738
1.0648
1.06479
1.0877
1.12727
1.16432
1.17204
1.17182
1.15793
1.14532
1.13774
1.13672
1.13832
1.14013
1.14087
1.13912
1.1356
1.13369
1.13325
1.13642
1.1438
1.15125
1.15313
1.1494
1.14141
1.13237
1.12528
1.12072
1.11938
1.12365
1.1343
1.15134
1.16491
1.14304
1.15982
1.1606
1.1424
1.14368
1.14261
1.14805
1.14552
1.15472
1.15118
1.16177
1.15843
1.16626
1.16437
1.16818
1.16752
1.16772
1.16881
1.14876
1.15933
1.16573
1.16151
1.11113
1.12228
1.13528
1.12141
1.08519
1.08828
1.08018
1.08775
1.10985
1.10562
1.08487
1.08614
1.12785
1.12386
1.10476
1.0993
1.13106
1.12858
1.12078
1.12509
1.12326
1.12872
1.13125
1.13167
1.08475
1.09257
1.10119
1.11011
1.0625
1.06616
1.06998
1.07423
1.05287
1.05587
1.05949
1.05099
1.05079
1.05235
1.05439
1.05236
1.05521
1.0615
1.05796
1.05381
1.06429
1.07117
1.06933
1.07085
1.06696
1.06955
1.07141
1.06942
1.06645
1.064
1.06414
1.0923
1.13397
1.1677
1.17205
1.17191
1.14788
1.13771
1.13588
1.13714
1.13881
1.13929
1.13724
1.13483
1.13383
1.13452
1.13954
1.14893
1.15758
1.16056
1.15974
1.15556
1.14895
1.14224
1.13736
1.13608
1.13946
1.1486
1.15952
1.16675
1.16901
1.1677
1.15898
1.16745
1.1586
1.15964
1.15888
1.16236
1.16088
1.16544
1.16394
1.16772
1.16673
1.16883
1.1684
1.16911
1.16909
1.16427
1.16592
1.16789
1.16885
1.13849
1.15196
1.15718
1.09715
1.10844
1.12379
1.10968
1.07104
1.07447
1.07143
1.07891
1.09408
1.08963
1.07036
1.0711
1.11587
1.11047
1.08852
1.08282
1.1223
1.11807
1.10711
1.11288
1.11826
1.12403
1.12544
1.12506
1.07909
1.08469
1.091
1.09788
1.06268
1.06543
1.06815
1.07065
1.05616
1.06089
1.0636
1.05404
1.05539
1.05882
1.05697
1.05658
1.05598
1.06145
1.05954
1.05551
1.06487
1.07054
1.06866
1.0714
1.06855
1.0713
1.07158
1.07036
1.06599
1.06321
1.06357
1.09605
1.14117
1.16912
1.17205
1.17192
1.13859
1.13513
1.13596
1.13747
1.1377
1.13585
1.13449
1.1341
1.13587
1.14223
1.15212
1.16048
1.16397
1.16468
1.16341
1.16032
1.15655
1.15362
1.15263
1.15456
1.15978
1.16503
1.16806
1.16903
1.16928
1.16901
1.16924
1.16923
1.16727
1.16902
1.16719
1.16749
1.16728
1.16815
1.1678
1.16881
1.1685
1.16925
1.16906
1.1695
1.1694
1.1694
1.16952
1.16097
1.16433
1.16734
1.16844
1.12918
1.14415
1.15029
1.08732
1.09738
1.11442
1.10198
1.06075
1.0653
1.06845
1.0765
1.0778
1.07377
1.05844
1.0582
1.10101
1.09472
1.07208
1.06672
1.1091
1.10384
1.091
1.09762
1.10511
1.11136
1.11321
1.11264
1.07306
1.07508
1.07719
1.0797
1.06683
1.06784
1.0698
1.0706
1.05975
1.06137
1.08352
1.05591
1.07991
1.08094
1.07784
1.07858
1.05989
1.06373
1.06353
1.0597
1.06786
1.07033
1.06811
1.07189
1.0707
1.07139
1.07219
1.07129
1.06532
1.06246
1.06309
1.09988
1.14534
1.16931
1.17245
1.1718
1.13478
1.13501
1.13619
1.13633
1.13511
1.13445
1.13458
1.13759
1.14462
1.15434
1.16191
1.1653
1.16651
1.16649
1.16559
1.16423
1.16308
1.16264
1.16347
1.16564
1.16762
1.16864
1.16903
1.1692
1.16931
1.16933
1.16927
1.16929
1.16903
1.16905
1.16915
1.16909
1.1693
1.16923
1.16946
1.16938
1.16962
1.16953
1.16972
1.16967
1.16947
1.16968
1.15693
1.16176
1.16607
1.16524
1.16694
1.16854
1.12156
1.1362
1.14426
1.08416
1.09226
1.10917
1.09948
1.05386
1.06039
1.06843
1.07712
1.06247
1.05946
1.04963
1.04768
1.08449
1.07794
1.05663
1.05214
1.08967
1.0852
1.07347
1.07989
1.08332
1.08875
1.09245
1.09227
1.0714
1.07169
1.07178
1.07151
1.08361
1.08267
1.0829
1.08186
1.08139
1.08028
1.10296
1.07966
1.10297
1.10296
1.10135
1.10252
1.08066
1.06665
1.08199
1.07869
1.08518
1.0704
1.06834
1.07392
1.0877
1.07721
1.08945
1.07446
1.07204
1.06442
1.06196
1.0627
1.10173
1.14557
1.16734
0.917349
1.16269
1.13395
1.13536
1.13536
1.1348
1.13457
1.13553
1.13952
1.1471
1.15634
1.16291
1.1659
1.16706
1.16739
1.16732
1.16704
1.16677
1.1667
1.16705
1.1678
1.16844
1.16878
1.16898
1.16914
1.16926
1.16935
1.16937
1.16937
1.1693
1.16932
1.16934
1.16942
1.16938
1.16952
1.16947
1.16964
1.16958
1.16977
1.1697
1.1698
1.16981
1.16934
1.16973
1.152
1.15891
1.16306
1.16611
1.16819
1.11779
1.13014
1.13904
1.08442
1.09148
1.10781
1.09976
1.05044
1.05905
1.07093
1.08095
1.0491
1.04775
1.044
1.04006
1.06753
1.0614
1.04336
1.04025
1.06395
1.06129
1.05515
1.0597
1.07031
1.06788
1.06705
1.06619
1.08164
1.07958
1.07921
1.0765
1.10273
1.10112
1.10125
1.09932
1.10336
1.10116
1.12927
1.10302
1.13053
1.13007
1.12932
1.12992
1.10392
1.08294
1.10463
1.10285
1.10661
1.07277
1.06868
1.07721
1.10822
1.09096
1.10929
1.07583
1.07208
1.06428
1.06134
1.06204
1.10146
1.14045
1.15759
0.504944
1.10047
1.13415
1.13497
1.13478
1.13496
1.13693
1.14204
1.14985
1.15847
1.16382
1.16624
1.16721
1.16755
1.16769
1.16775
1.16779
1.16787
1.16807
1.16836
1.16861
1.16877
1.1689
1.16906
1.16919
1.16932
1.16935
1.16939
1.16941
1.16941
1.16941
1.16944
1.16953
1.16948
1.16962
1.16957
1.16973
1.16967
1.16985
1.1698
1.16987
1.16987
1.16905
1.16974
1.14753
1.15467
1.16092
1.16488
1.16752
1.11692
1.12709
1.13645
1.08803
1.09365
1.10869
1.10287
1.04987
1.05964
1.07547
1.08642
1.03892
1.03887
1.04214
1.03704
1.05146
1.04634
1.03422
1.03355
1.05154
1.04703
1.04078
1.04416
1.07608
1.06566
1.06026
1.05773
1.09903
1.09601
1.0957