/*--------------------------------*- C++ -*----------------------------------*\
  =========                 |
  \\      /  F ield         | OpenFOAM: The Open Source CFD Toolbox
   \\    /   O peration     | Website:  https://openfoam.org
    \\  /    A nd           | Version:  dev
     \\/     M anipulation  |
\*---------------------------------------------------------------------------*/
FoamFile
{
    version     2.0;
    format      ascii;
    class       volScalarField;
    location    "2500";
    object      T;
}
// * * * * * * * * * * * * * * * * * * * * * * * * * * * * * * * * * * * * * //

dimensions      [0 0 0 1 0 0 0];

internalField   nonuniform List<scalar> 
9842
(
300.096
300.14
300.11
300.146
300.22
300.1
300.144
300.266
300.226
300.082
300.135
300.282
300.305
300.208
300.079
300.128
300.27
300.362
300.303
300.176
300.07
300.122
300.278
300.402
300.384
300.278
300.146
300.063
300.115
300.271
300.402
300.446
300.367
300.244
300.132
300.058
300.095
300.26
300.384
300.483
300.45
300.336
300.221
300.125
300.052
300.089
300.257
300.372
300.512
300.509
300.425
300.301
300.19
300.117
300.051
300.094
300.246
300.381
300.519
300.552
300.504
300.398
300.274
300.182
300.108
300.046
300.096
300.227
300.374
300.493
300.58
300.566
300.48
300.357
300.254
300.171
300.103
300.044
300.085
300.203
300.36
300.49
300.603
300.611
300.546
300.438
300.329
300.236
300.158
300.098
300.044
300.088
300.216
300.353
300.486
300.6
300.643
300.614
300.523
300.402
300.303
300.218
300.15
300.091
300.039
300.085
300.202
300.325
300.472
300.592
300.661
300.659
300.594
300.479
300.373
300.289
300.209
300.144
300.087
300.041
300.087
300.199
300.321
300.447
300.571
300.671
300.693
300.648
300.564
300.442
300.351
300.275
300.196
300.137
300.084
300.04
300.086
300.193
300.309
300.438
300.569
300.673
300.717
300.699
300.625
300.519
300.421
300.334
300.256
300.189
300.133
300.082
300.037
300.074
300.19
300.299
300.426
300.55
300.665
300.732
300.739
300.69
300.595
300.495
300.396
300.313
300.244
300.183
300.128
300.079
300.038
300.073
300.186
300.293
300.41
300.53
300.647
300.734
300.763
300.737
300.663
300.56
300.455
300.377
300.303
300.232
300.174
300.125
300.076
300.037
300.081
300.184
300.28
300.382
300.511
300.624
300.727
300.779
300.774
300.718
300.63
300.529
300.434
300.359
300.29
300.227
300.169
300.119
300.076
300.036
300.077
300.177
300.28
300.387
300.488
300.607
300.715
300.784
300.801
300.767
300.696
300.592
300.498
300.413
300.341
300.277
300.22
300.167
300.119
300.075
300.036
300.077
300.167
300.273
300.374
300.473
300.588
300.697
300.781
300.819
300.81
300.751
300.66
300.564
300.475
300.4
300.331
300.268
300.209
300.161
300.115
300.074
300.034
300.076
300.168
300.268
300.354
300.444
300.565
300.673
300.773
300.827
300.836
300.8
300.722
300.623
300.538
300.454
300.385
300.32
300.262
300.208
300.159
300.113
300.072
300.035
300.067
300.166
300.25
300.354
300.447
300.545
300.65
300.75
300.827
300.854
300.834
300.777
300.686
300.595
300.514
300.436
300.372
300.312
300.251
300.201
300.155
300.111
300.072
300.033
300.073
300.162
300.254
300.351
300.422
300.512
300.609
300.729
300.824
300.864
300.865
300.823
300.746
300.655
300.566
300.494
300.423
300.363
300.303
300.244
300.197
300.152
300.107
300.071
300.033
300.073
300.151
300.252
300.337
300.42
300.507
300.602
300.717
300.798
300.867
300.888
300.861
300.796
300.709
300.625
300.547
300.476
300.411
300.351
300.291
300.238
300.194
300.15
300.109
300.07
300.034
300.066
300.157
300.242
300.331
300.41
300.483
300.583
300.684
300.78
300.86
300.899
300.892
300.846
300.768
300.684
300.6
300.528
300.462
300.399
300.342
300.288
300.236
300.19
300.147
300.108
300.069
300.033
300.065
300.156
300.238
300.321
300.398
300.475
300.566
300.657
300.755
300.845
300.901
300.915
300.886
300.822
300.735
300.655
300.579
300.51
300.448
300.393
300.334
300.278
300.233
300.185
300.146
300.106
300.069
300.032
300.07
300.156
300.234
300.314
300.392
300.46
300.537
300.635
300.729
300.823
300.899
300.93
300.917
300.868
300.792
300.708
300.629
300.556
300.498
300.434
300.381
300.327
300.273
300.23
300.185
300.144
300.106
300.071
300.034
300.07
300.151
300.233
300.307
300.382
300.444
300.524
300.615
300.699
300.8
300.886
300.935
300.941
300.908
300.845
300.76
300.682
300.608
300.542
300.485
300.43
300.372
300.318
300.271
300.226
300.183
300.142
300.107
300.071
300.034
300.069
300.144
300.221
300.301
300.373
300.44
300.516
300.592
300.677
300.777
300.867
300.932
300.956
300.94
300.89
300.815
300.733
300.661
300.592
300.533
300.473
300.42
300.366
300.315
300.268
300.223
300.182
300.144
300.107
300.071
300.035
300.064
300.143
300.219
300.3
300.361
300.432
300.494
300.575
300.655
300.752
300.848
300.922
300.963
300.964
300.928
300.864
300.786
300.706
300.637
300.576
300.52
300.464
300.414
300.357
300.308
300.264
300.221
300.18
300.144
300.106
300.071
300.035
300.063
300.149
300.224
300.296
300.354
300.423
300.481
300.561
300.617
300.724
300.821
300.905
300.962
300.98
300.96
300.909
300.835
300.757
300.686
300.62
300.561
300.511
300.456
300.402
300.353
300.304
300.262
300.219
300.18
300.144
300.109
300.073
300.036
300.065
300.146
300.222
300.287
300.347
300.406
300.478
300.543
300.603
300.705
300.792
300.886
300.955
300.988
300.985
300.946
300.884
300.808
300.728
300.665
300.606
300.548
300.497
300.448
300.395
300.346
300.3
300.259
300.221
300.181
300.145
300.111
300.074
300.017
300.036
300.068
300.145
300.221
300.286
300.348
300.408
300.47
300.531
300.59
300.675
300.766
300.86
300.942
300.989
301.002
300.979
300.926
300.854
300.779
300.71
300.649
300.594
300.542
300.487
300.441
300.395
300.34
300.303
300.257
300.222
300.184
300.148
300.105
300.058
300.078
300.017
300.038
300.063
300.139
300.21
300.283
300.336
300.401
300.463
300.523
300.57
300.651
300.739
300.834
300.922
300.984
301.011
301.003
300.966
300.901
300.828
300.751
300.692
300.635
300.583
300.531
300.479
300.435
300.387
300.337
300.3
300.257
300.221
300.186
300.136
300.154
300.097
300.124
300.116
300.057
300.077
300.018
300.038
300.065
300.146
300.211
300.283
300.339
300.399
300.448
300.512
300.562
300.639
300.714
300.806
300.899
300.972
301.015
301.023
300.998
300.943
300.875
300.8
300.733
300.675
300.621
300.575
300.522
300.473
300.429
300.378
300.337
300.296
300.258
300.223
300.174
300.193
300.144
300.097
300.135
300.117
300.058
300.079
300.017
300.038
300.062
300.145
300.207
300.277
300.336
300.387
300.438
300.501
300.556
300.622
300.689
300.775
300.871
300.955
301.011
301.033
301.023
300.98
300.916
300.848
300.775
300.714
300.661
300.613
300.564
300.513
300.468
300.426
300.376
300.335
300.296
300.26
300.212
300.23
300.165
300.186
300.154
300.099
300.137
300.12
300.06
300.081
300.018
300.039
300.068
300.147
300.211
300.271
300.335
300.379
300.438
300.49
300.552
300.604
300.672
300.751
300.844
300.933
301
301.037
301.04
301.011
300.96
300.892
300.819
300.755
300.698
300.648
300.6
300.55
300.505
300.461
300.413
300.374
300.334
300.296
300.249
300.267
300.206
300.226
300.173
300.192
300.157
300.102
300.141
300.123
300.061
300.083
300.018
300.041
300.064
300.137
300.207
300.269
300.328
300.38
300.435
300.48
300.537
300.591
300.659
300.728
300.812
300.904
300.986
301.036
301.053
301.038
300.995
300.934
300.861
300.797
300.736
300.684
300.636
300.589
300.544
300.493
300.45
300.415
300.373
300.333
300.286
300.304
300.246
300.265
300.212
300.232
300.177
300.197
300.161
300.105
300.145
300.127
300.064
300.086
300.019
300.042
300.064
300.139
300.204
300.265
300.319
300.376
300.423
300.473
300.528
300.587
300.644
300.713
300.79
300.877
300.966
301.028
301.059
301.058
301.028
300.974
300.907
300.84
300.777
300.722
300.674
300.626
300.579
300.534
300.494
300.441
300.413
300.372
300.323
300.342
300.285
300.304
300.251
300.271
300.218
300.238
300.182
300.203
300.166
300.109
300.15
300.132
300.066
300.09
300.02
300.044
300.065
300.14
300.207
300.263
300.317
300.368
300.415
300.463
300.514
300.573
300.634
300.697
300.771
300.853
300.942
301.016
301.059
301.073
301.056
301.011
300.949
300.882
300.818
300.761
300.71
300.663
300.617
300.573
300.529
300.495
300.455
300.408
300.361
300.379
300.324
300.343
300.291
300.311
300.258
300.278
300.224
300.245
300.188
300.21
300.172
300.114
300.156
300.138
300.069
300.094
300.021
300.046
300.067
300.143
300.208
300.264
300.316
300.366
300.41
300.461
300.507
300.559
300.617
300.681
300.751
300.83
300.917
300.998
301.055
301.081
301.075
301.044
300.99
300.924
300.859
300.8
300.747
300.699
300.654
300.61
300.565
300.522
300.491
300.456
300.399
300.415
300.364
300.38
300.331
300.349
300.299
300.32
300.266
300.288
300.232
300.255
300.195
300.218
300.179
300.119
300.163
300.144
300.072
300.098
300.022
300.049
300.07
300.147
300.211
300.266
300.316
300.361
300.405
300.458
300.501
300.549
300.612
300.667
300.733
300.809
300.893
300.977
301.044
301.082
301.091
301.072
301.027
300.966
300.901
300.839
300.784
300.735
300.689
300.646
300.604
300.555
300.51
300.492
300.437
300.452
300.401
300.418
300.372
300.39
300.342
300.363
300.311
300.336
300.278
300.305
300.243
300.27
300.204
300.231
300.189
300.124
300.171
300.152
300.076
300.103
300.023
300.051
300.074
300.153
300.216
300.269
300.314
300.358
300.407
300.457
300.496
300.545
300.606
300.659
300.719
300.791
300.87
300.955
301.03
301.08
301.101
301.092
301.059
301.005
300.942
300.879
300.821
300.77
300.724
300.68
300.638
300.596
300.559
300.511
300.483
300.491
300.439
300.458
300.414
300.436
300.393
300.423
300.369
300.413
300.34
300.396
300.305
300.361
300.262
300.31
300.217
300.254
300.201
300.131
300.183
300.162
300.08
300.109
300.025
300.055
300.08
300.162
300.224
300.274
300.318
300.36
300.409
300.454
300.493
300.542
300.603
300.653
300.709
300.777
300.852
300.933
301.011
301.073
301.104
301.107
301.087
301.041
300.982
300.919
300.859
300.806
300.758
300.714
300.671
300.632
300.591
300.559
300.53
300.478
300.507
300.465
300.497
300.47
300.544
300.49
300.63
300.5
300.713
300.475
300.729
300.408
300.638
300.321
300.483
300.243
300.331
300.227
300.14
300.206
300.181
300.084
300.115
300.026
300.058
300.089
300.177
300.237
300.284
300.323
300.361
300.411
300.452
300.488
300.54
300.601
300.649
300.702
300.767
300.838
300.914
300.992
301.06
301.103
301.12
301.107
301.073
301.02
300.958
300.898
300.842
300.793
300.747
300.704
300.665
300.618
300.588
300.566
300.614
300.652
300.535
300.572
300.642
300.783
300.87
301.22
301.156
301.804
301.283
302.25
301.169
302.304
300.903
301.871
300.576
301.246
300.334
300.665
300.32
300.152
300.288
300.239
300.089
300.122
300.027
300.061
300.104
300.202
300.261
300.302
300.334
300.365
300.415
300.449
300.485
300.55
300.603
300.647
300.697
300.76
300.829
300.9
300.975
301.045
301.099
301.126
301.122
301.1
301.055
300.997
300.937
300.879
300.828
300.781
300.737
300.695
300.657
300.616
300.591
300.688
300.706
301.252
301.389
300.938
301.099
301.627
302.11
302.563
303.375
303.397
304.583
303.825
305.451
303.696
305.764
302.808
305.3
301.618
303.835
300.721
301.944
300.713
300.184
300.63
300.484
300.093
300.136
300.028
300.063
300.127
300.237
300.299
300.334
300.357
300.377
300.419
300.448
300.482
300.551
300.596
300.642
300.692
300.756
300.824
300.892
300.962
301.032
301.09
301.127
301.137
301.121
301.087
301.035
300.976
300.916
300.863
300.814
300.769
300.727
300.685
300.643
300.623
300.712
300.647
301.473
301.496
303.357
303.639
302.577
302.995
304.174
304.957
305.737
306.819
307.039
308.503
307.833
309.777
307.933
310.434
307.025
310.194
304.822
308.714
302.143
305.608
302.133
300.317
301.872
301.413
300.098
300.183
300.03
300.064
300.147
300.27
300.341
300.381
300.399
300.408
300.431
300.452
300.481
300.548
300.593
300.626
300.687
300.753
300.821
300.888
300.955
301.021
301.081
301.125
301.147
301.137
301.113
301.069
301.014
300.954
300.899
300.848
300.801
300.758
300.716
300.675
300.637
301.031
301.484
301.552
303.796
303.829
306.668
307.016
305.643
306.208
307.81
308.717
309.822
310.996
311.526
313.049
312.699
314.684
313.112
315.67
312.412
315.718
310.178
314.445
306.008
311.309
305.886
300.871
305.147
304.046
300.109
300.396
300.026
300.06
300.265
300.352
300.414
300.449
300.46
300.462
300.463
300.484
300.544
300.581
300.632
300.689
300.752
300.822
300.887
300.95
301.013
301.072
301.121
301.151
301.156
301.135
301.1
301.05
300.991
300.935
300.881
300.833
300.789
300.748
300.703
300.667
300.851
303.543
303.261
303.808
303.742
307.204
307.236
310.572
310.926
309.481
310.091
312.047
312.959
314.363
315.496
316.372
317.767
317.842
319.624
318.51
320.843
318.047
321.124
316.027
320.109
311.898
317.117
311.868
302.662
311.014
309.255
300.139
301.13
300.015
300.069
300.294
300.385
300.456
300.498
300.511
300.493
300.498
300.544
300.575
300.625
300.681
300.753
300.823
300.89
300.953
301.014
301.071
301.12
301.154
301.167
301.157
301.125
301.081
301.027
300.97
300.915
300.865
300.819
300.779
300.736
300.702
300.812
302.949
302.263
306.829
306.46
307.21
307.106
311.099
311.112
314.747
315.061
313.707
314.295
316.485
317.298
318.912
319.867
321.046
322.151
322.675
324.047
323.432
324.963
323.15
324.923
321.435
324.222
317.655
322.128
317.502
306.486
316.681
315.464
311.407
300.349
303.617
300.07
300.285
300.275
300.382
300.476
300.533
300.546
300.54
300.549
300.574
300.617
300.68
300.748
300.825
300.894
300.957
301.017
301.073
301.121
301.158
301.177
301.177
301.156
301.114
301.061
301.005
300.95
300.9
300.851
300.808
300.768
300.735
300.779
303.03
305.774
305.582
310.562
310.093
311.068
310.917
315.181
315.176
318.779
318.99
317.937
318.423
320.658
321.273
323.013
323.709
325.062
325.81
325.964
326.692
325.928
326.541
325.542
326.138
324.752
325.666
322.433
325.053
323.855
319.685
322.201
314.277
308.653
313.209
318.612
321.606
321.768
318.01
300.72
302.228
311.718
310.481
306.054
300.61
302.036
300.927
302.002
300.202
300.362
300.487
300.564
300.587
300.569
300.575
300.609
300.663
300.748
300.825
300.9
300.965
301.026
301.082
301.13
301.168
301.19
301.197
301.186
301.157
301.107
301.047
300.99
300.936
300.883
300.837
300.798
300.759
300.77
302.077
307.913
306.472
309.4
308.72
314.48
313.952
315.102
314.894
319.024
318.996
322.268
322.309
321.73
322.058
324.254
324.643
326.389
326.838
327.268
327.749
327.021
327.466
326.506
326.756
325.922
326.005
326.042
326.024
325.487
325.659
325.758
325.559
325.688
324.922
323.798
325.052
325.471
323.778
317.105
316.045
321.022
323.314
323.608
320.412
305.097
314.991
314.155
309.593
306.763
302.433
305.192
305.58
300.172
300.345
300.507
300.603
300.625
300.587
300.608
300.654
300.75
300.827
300.905
300.976
301.041
301.103
301.156
301.197
301.222
301.231
301.224
301.203
301.163
301.109
301.044
300.976
300.918
300.87
300.831
300.792
300.779
301.442
307.089
311.315
310.906
313.2
312.479
318.144
317.59
318.875
318.588
322.292
322.19
325.072
325
324.91
325.062
327.15
327.317
328.156
328.461
327.881
328.275
326.982
327.197
325.992
325.963
325.967
325.98
325.721
325.63
325.546
325.629
325.533
325.387
325.063
325.301
325.435
324.925
325.398
325.525
324.859
319.654
318.866
322.932
324.733
324.559
322.46
309.332
318.178
317.664
313.716
315.409
306.296
311.176
316.481
309.962
311.647
300.152
300.351
300.552
300.665
300.633
300.614
300.647
300.737
300.827
300.912
300.989
301.065
301.143
301.215
301.271
301.305
301.315
301.306
301.282
301.24
301.181
301.113
301.037
300.971
300.915
300.87
300.831
300.807
301.083
304.822
313.112
311.186
315.083
314.045
316.862
316.079
321.065
320.506
321.932
321.556
324.778
324.388
326.894
326.377
327.318
327.206
328.54
328.509
328.604
328.748
327.422
327.653
326.007
326.035
326.058
326.069
325.492
325.466
325.455
325.442
325.237
325.146
325.133
325.339
325.034
324.906
324.67
324.769
325.43
325.329
325.342
325.154
325.275
321.925
321.399
324.33
325.214
325.156
324.057
313.856
320.923
320.536
317.434
316.123
318.594
305.621
316.084
314.741
300.144
300.394
300.625
300.692
300.641
300.648
300.716
300.825
300.918
301.005
301.1
301.214
301.336
301.445
301.513
301.534
301.517
301.474
301.409
301.323
301.218
301.124
301.044
300.978
300.922
300.875
300.838
300.945
303.104
311.522
316.053
315.503
318.211
317.33
319.831
319.108
322.886
322.332
323.923
323.422
325.78
325.135
327.141
326.249
328.325
327.861
328.7
328.438
327.714
327.593
326.081
326.069
326.063
326.012
325.416
325.372
325.31
325.223
325.157
325.18
325.174
325.123
324.883
324.94
325.03
324.791
324.53
324.72
324.637
324.508
325.009
325.283
324.909
324.592
325.255
323.758
323.443
325.092
325.255
325.285
325.025
317.687
323.119
322.834
320.369
318.534
319.48
319.799
305.246
316.124
300.157
300.501
300.706
300.698
300.659
300.704
300.825
300.923
301.024
301.15
301.329
301.562
301.8
301.994
302.095
302.081
301.99
301.849
301.666
301.443
301.293
301.185
301.103
301.027
300.957
300.9
300.936
302.037
308.634
316.909
315.063
318.728
317.816
320.398
319.667
321.732
321.115
323.352
322.86
324.491
323.893
325.277
324.345
325.392
323.991
327.785
326.715
327.136
326.149
325.152
324.378
325.117
324.986
324.846
324.666
325.012
324.842
324.639
324.41
325.115
325.156
325.137
325.035
324.869
325.08
325.289
324.353
324.378
324.941
325.115
324.637
324.449
324.858
324.357
324.223
324.859
324.954
324.88
325.344
324.916
325.037
325.431
320.567
324.791
324.688
322.711
321.063
321.249
320.353
312.004
318.471
300.239
300.636
300.743
300.694
300.702
300.817
300.926
301.044
301.213
301.498
301.919
302.41
302.852
303.069
303.036
302.84
302.558
302.232
301.918
301.706
301.597
301.51
301.365
301.2
301.064
300.99
301.571
305.938
314.992
318.717
318.242
320.285
319.646
321.43
320.92
322.383
321.923
322.452
322.109
323.549
322.925
322.703
321.676
321.005
319.324
324.684
322.893
323.017
321.168
322.717
322.125
320.567
321.452
324.151
323.86
323.537
323.158
324.84
324.547
324.162
323.741
325.442
325.486
325.415
325.205
325.318
325.693
326.001
324.288
324.683
325.678
326.076
325.322
324.13
324.312
324.062
324.221
324.323
325.535
325.679
325.221
324.401
324.568
325.471
322.76
325.826
325.959
324.586
322.789
322.235
320.893
311.024
317.986
300.513
300.747
300.751
300.712
300.802
300.926
301.063
301.287
301.715
302.401
303.23
303.89
304.165
304.092
303.777
303.34
302.894
302.577
302.557
302.739
302.783
302.505
302.019
301.553
301.184
301.514
304.21
312.632
318.711
317.503
319.898
319.413
320.802
320.453
321.378
321.123
321.852
321.624
320.317
320.29
320.96
320.536
318.071
317.33
314.637
313.193
318.927
316.668
319.578
318.294
315.207
321.024
320.246
318.355
319.368
323.283
322.794
322.268
321.687
324.858
324.399
323.844
323.206
326.171
326.179
325.996
325.607
326.238
326.727
327.064
324.717
325.504
326.836
327.404
326.445
324.161
324.013
324.089
324.714
323.996
325.775
326.103
324.842
324.035
324.154
325.223
324.453
326.418
326.72
325.961
324.056
323.042
320.623
305.474
313.233
300.706
300.786
300.747
300.786
300.922
301.079
301.363
301.959
302.957
304.112
304.947
305.264
305.127
304.688
304.112
303.586
303.395
303.785
304.621
305.233
305.078
304.104
302.781
301.699
301.64
303.557
310.228
317.349
319.567
319.282
320.271
320.013
320.604
320.5
320.586
320.632
320.347
320.465
317.316
317.779
317.02
317.078
312.407
312.213
308.759
307.865
312.579
310.496
317.271
316.135
312.5
311.187
319.432
318.468
316.257
317.411
322.532
321.833
321.099
320.307
325.04
324.324
323.525
322.672
327.168
327.067
326.659
326
327.515
328.026
328.254
325.62
326.726
328.275
328.937
327.879
324.638
324.009
324.497
325.609
323.955
325.72
326.315
324.421
323.96
324.024
324.886
325.702
326.82
327.209
326.866
324.968
323.354
319.302
302.656
308.653
300.812
300.791
300.788
300.918
301.087
301.427
302.185
303.492
304.951
305.946
306.257
306.036
305.488
304.817
304.288
304.287
305.173
306.628
307.83
307.929
306.926
305.052
302.845
302.091
303.569
308.776
315.672
319.328
318.735
319.907
319.725
320.119
320.067
319.948
320.111
319.265
319.651
318.292
318.802
313.939
314.966
312.422
313.016
307.611
307.728
305.698
305.018
310.045
308.735
306.938
315.04
313.78
310.637
309.526
317.9
316.764
314.309
315.563
321.793
320.895
319.961
318.969
325.131
324.143
323.07
321.983
328.216
327.844
327.122
326.087
328.951
329.324
329.358
326.866
328.201
329.775
330.465
329.452
325.471
324.31
325.211
326.812
324.124
325.565
326.342
324.237
324.038
324.101
324.682
326.611
327.083
327.592
327.449
325.551
323.106
316.384
300.932
305.494
300.843
300.807
300.906
301.086
301.461
302.356
303.938
305.695
306.796
307.042
306.746
306.137
305.433
304.978
305.243
306.513
308.537
309.994
310.346
309.677
307.924
305.243
303.149
303.962
308.582
314.464
318.54
319.604
319.426
319.787
319.742
319.636
319.781
318.951
319.357
317.722
318.405
315.972
316.904
310.572
311.992
308.271
309.285
304.544
304.447
305.411
304.862
304.425
308.546
307.655
305.725
306.338
313.046
311.818
309.073
308.156
316.32
315.046
312.47
313.754
320.911
319.832
318.717
317.551
324.891
323.555
322.207
320.917
329.043
328.325
327.231
325.802
330.29
330.387
330.224
328.307
329.75
331.122
331.79
330.959
326.556
324.869
326.114
328.128
324.526
325.428
326.347
324.3
324.272
324.288
324.755
327.244
327.239
327.898
327.871
325.873
322.081
313.227
300.504
303.421
300.853
300.898
301.073
301.464
302.446
304.266
306.293
307.442
307.612
307.284
306.631
305.974
305.633
306.165
307.864
309.916
311.199
311.679
311.516
310.591
308.505
305.835
305.211
308.94
314.241
317.877
319.067
318.857
319.378
319.301
319.304
319.39
318.762
319.099
317.658
318.286
315.89
316.865
313.41
314.728
307.301
308.894
304.891
305.942
303.56
303.086
305.647
305.243
305.786
304.915
307.418
306.823
306.036
306.356
311.24
310.106
307.957
307.456
314.562
313.214
310.697
311.91
319.688
318.457
317.201
315.905
324.161
322.484
320.859
319.373
329.598
328.562
327.159
325.388
331.324
331.251
330.78
329.73
331.137
332.098
332.716
332.177
327.659
325.577
326.967
329.287
325.074
325.466
326.39
324.577
324.74
324.729
325.077
327.652
327.419
328.176
328.215
325.901
320.366
310.36
300.145
301.548
300.902
301.055
301.434
302.458
304.443
306.734
307.916
308.03
307.666
306.998
306.439
306.268
307.041
308.891
310.65
311.557
311.988
312.125
311.978
311.226
309.704
308.613
310.34
314.447
317.591
318.312
318.575
318.397
318.61
318.636
318.258
318.487
317.378
317.892
315.823
316.691
313.527
314.769
310.531
312.101
304.208
305.68
302.853
303.169
304.182
303.426
302.89
306.975
306.471
308.082
306.905
307.056
306.678
307.283
307.455
309.612
308.687
307.713
307.576
312.595
311.303
309.182
310.142
318.002
316.658
315.31
313.951
323.346
321.229
319.243
317.499
329.96
328.739
327.13
325.153
332.078
331.847
331.088
330.878
332.203
332.793
333.38
333.112
328.599
326.267
327.792
330.311
325.705
325.788
326.641
325.095
325.471
325.588
325.69
327.957
327.625
328.47
328.547
325.577
318.313
307.367
300.076
300.732
301.027
301.388
302.387
304.479
307.002
308.272
308.361
307.935
307.308
306.853
306.855
307.863
309.599
310.75
311.461
311.83
311.998
312.084
312.196
312.157
312.154
313.207
315.316
317.445
317.825
315.888
317.235
317.253
317.062
317.198
316.449
316.823
315.203
315.913
313.207
314.303
310.482
311.927
307.275
308.907
302.117
302.79
302.209
301.919
305.581
304.243
303.05
304.427
309.616
309.019
311.678
310.051
307.479
307.518
309.895
309.906
308.48
308.023
308.531
308.951
310.694
309.69
308.543
308.97
315.959
314.527
313.162
311.874
322.867
320.4
317.963
315.807
330.101
328.761
327.062
325.015
332.659
332.091
331.201
331.924
333.213
333.331
333.901
333.819
329.549
327.07
328.766
331.368
326.653
326.403
327.161
325.963
326.57
326.697
326.428
328.203
328.067
328.904
328.933
324.862
316.035
305.061
300.041
300.337
301.286
302.262
304.384
307.109
308.541
308.641
308.177
307.604
307.239
307.396
308.543
309.892
310.636
311.047
311.022
310.939
311.281
311.9
312.492
313.287
314.322
315.635
317.142
317.077
315.065
311.327
314.757
311.094
314.916
314.657
314.875
313.733
314.277
312.131
313.021
309.808
311.055
306.956
308.422
304.002
305.453
301.322
301.425
302.248
301.543
308.201
306.272
304.161
306.633
313.655
312.915
316.263
314.256
309.397
309.78
313.859
313.777
308.326
308.341
310.725
311.618
309.55
309.096
308.939
308.893
314.007
312.514
311.286
310.284
322.636
320.034
317.377
314.926
330.079
328.737
327.048
325.071
333.07
332.201
331.207
333.032
333.984
333.767
334.115
334.191
330.698
328.231
330.107
332.62
327.949
326.97
327.656
326.848
327.806
327.646
327.024
328.281
328.436
329.235
329.244
323.912
313.795
303.308
300.024
300.138
301.975
304.161
307.067
308.745
308.897
308.428
307.91
307.624
307.955
309.089
309.961
310.374
310.163
309.115
308.079
308.244
309.784
311.533
312.832
314.018
315.235
316.218
315.609
313.13
307.659
311.599
307.1
306.563
311.723
311.384
311.658
310.245
310.904
308.437
309.419
306.054
307.317
303.478
304.73
301.805
302.469
301.096
300.958
303.972
302.408
301.602
311.863
309.251
306.675
309.794
318.575
317.734
321.003
318.802
312.589
313.376
318.7
318.479
309.349
309.906
313.841
315.17
309.561
309.597
310.594
309.995
312.898
311.398
310.401
309.801
322.769
320.21
317.52
314.936
330.056
328.8
327.301
325.575
333.195
332.262
331.183
333.767
334.079
333.856
333.9
334.084
332.011
329.581
331.217
333.177
329.12
327.363
327.864
327.432
328.61
328.042
327.37
328.231
328.64
329.428
329.451
322.721
311.662
301.965
300.017
300.071
303.589
306.864
308.865
309.138
308.713
308.234
308.035
308.497
309.434
309.943
310.062
309.215
307.261
305.316
304.83
305.797
307.893
310.298
312.209
313.454
313.824
312.655
309.786
305.296
301.813
307.468
303.112
302.911
307.639
307.301
307.582
306.156
306.818
304.424
305.342
302.615
303.471
301.475
301.954
300.989
301.157
301.106
300.828
305.973
303.241
301.61
302.682
316.111
313.039
309.529
313.276
323.492
322.597
324.963
322.753
316.463
317.648
323.584
323.212
311.525
312.607
317.886
319.428
310.662
311.327
313.446
312.272
312.772
311.294
310.613
310.497
323.572
321.32
318.874
316.38
330.135
329.032
327.892
326.629
333.06
332.133
331.02
333.616
333.675
333.195
332.521
333.166
332.307
330.405
331.451
332.726
329.529
327.486
328.033
327.561
328.716
327.929
327.39
328.076
328.909
329.662
329.641
321.392
309.864
301.109
300.013
300.048
306.192
308.873
309.36
309.025
308.582
308.453
308.998
309.638
309.906
309.721
308.386
305.921
303.683
302.918
303.128
304.203
305.915
307.674
308.966
309.306
308.411
306.008
303.188
301.346
300.775
301.108
303.328
301.17
303.425
303.158
303.354
302.464
302.842
301.68
302.062
301.105
301.355
300.824
300.931
300.753
300.759
301.979
301.56
301.062
300.819
308.676
305.14
303.791
320.05
316.861
312.628
316.517
327.664
326.646
327.553
325.338
320.918
322.2
327.863
327.64
314.793
316.288
322.513
324.171
313.029
314.186
317.221
315.616
314.133
312.559
312.178
312.281
325.201
323.575
321.758
319.801
330.052
329.222
328.41
327.667
332.008
330.54
329.701
332.638
332.196
331.132
331.697
331.817
332.049
330.374
330.943
332.183
329.331
327.656
328.225
327.374
328.207
327.379
327.326
327.795
329.033
329.893
329.81
320.32
307.952
300.751
300.012
300.046
308.639
309.56
309.338
308.935
308.875
309.365
309.73
309.833
309.361
307.677
305.091
302.94
302.051
301.869
302.193
302.98
303.948
304.702
304.958
304.46
303.119
301.782
301.015
300.769
300.708
300.776
300.719
300.72
301.217
300.773
301.238
301.162
301.215
300.995
301.082
300.83
300.907
300.717
300.766
300.655
300.68
300.681
300.649
302.819
301.964
301.199
300.923
311.168
307.181
305.574
322.879
319.987
315.201
318.679
330.765
329.393
328.447
326.049
325.647
326.843
331.463
331.532
318.938
320.73
327.334
328.941
316.663
318.135
321.789
319.894
317.77
316.033
315.521
315.678
326.953
326.36
325.742
325.017
328.728
328.438
327.854
327.637
330.844
330.348
323.555
332.046
324.601
324.304
325.239
325.006
330.822
329.658
329.706
330.871
328.395
327.705
328.374
327.219
327.544
327.355
327.13
327.514
329.225
330.11
329.947
319.23
306.857
300.704
299.911
300.077
309.654
309.591
309.277
309.239
309.564
309.74
309.706
308.905
307.047
304.516
302.573
301.713
301.405
301.412
301.639
301.985
302.275
302.388
302.177
301.626
301.126
300.868
300.77
300.727
300.699
300.695
300.711
300.704
300.772
300.767
300.741
300.756
300.704
300.722
300.665
300.684
300.624
300.646
300.598
300.61
300.663
300.608
303.855
302.617
301.521
301.733
301.3
300.895
313.237
309.285
307.152
323.799
321.451
316.659
319.388
332.874
330.88
328.452
325.866
330.226
331.145
334.172
334.771
323.675
325.595
331.99
333.374
322.159
323.455
326.906
325.009
323.971
322.414
321.355
321.409
327.403
327.331
327.312
327.4
323.537
323.841
323.772
324.1
324.176
324.528
317.8
324.677
317.778
317.791
318.254
317.912
324.388
328.758
323.995
324.98
323.056
327.674
328.29
326.589
322.312
325.559
321.799
326.424
327.289
329.49
330.253
330.06
318.707
306.795
301.2
381.576
302.381
309.873
309.495
309.496
309.645
309.707
309.45
308.392
306.397
304
302.32
301.559
301.266
301.183
301.202
301.271
301.34
301.357
301.268
301.08
300.918
300.833
300.783
300.743
300.711
300.689
300.685
300.684
300.703
300.696
300.694
300.672
300.683
300.648
300.66
300.619
300.634
300.585
300.604
300.577
300.574
300.695
300.595
305.131
303.347
302.285
301.511
300.984
314.271
310.91
308.532
323.723
321.678
317.04
319.309
333.927
331.286
327.701
324.738
334.321
334.744
335.925
337.15
328.681
330.533
336.091
337.073
329.718
330.529
332.416
331.021
327.767
328.507
328.782
329.039
324.163
324.791
324.896
325.712
317.873
318.344
318.303
318.865
317.677
318.324
310.36
317.765
310.008
310.139
310.346
310.177
317.508
323.722
317.309
317.817
316.748
326.929
328.175
325.57
316.292
321.361
315.99
325.99
327.276
329.515
330.432
330.255
318.78
308.142
303.68
681.052
319.13
309.82
309.6
309.651
309.601
309.078
307.726
305.68
303.453
302.088
301.474
301.229
301.144
301.106
301.091
301.082
301.061
301.012
300.939
300.876
300.834
300.803
300.763
300.728
300.695
300.688
300.679
300.674
300.673
300.674
300.668
300.646
300.657
300.621
300.634
300.594
300.609
300.565
300.578
300.56
300.56
300.767
300.592
306.295
304.439
302.831
301.822
301.155
314.511
311.734
309.22
322.673
321.055
316.795
318.429
334.101
331.104
326.351
323.139
337.497
337.519
336.502
338.099
333.56
335.153
338.964
339.179
333.482
334.881
336.855
335.792
325.832
329.133
330.805
331.572
318.946
319.825
319.909