/*--------------------------------*- C++ -*----------------------------------*\
  =========                 |
  \\      /  F ield         | OpenFOAM: The Open Source CFD Toolbox
   \\    /   O peration     | Website:  https://openfoam.org
    \\  /    A nd           | Version:  dev
     \\/     M anipulation  |
\*---------------------------------------------------------------------------*/
FoamFile
{
    version     2.0;
    format      ascii;
    class       volVectorField;
    location    "2500";
    object      U;
}
// * * * * * * * * * * * * * * * * * * * * * * * * * * * * * * * * * * * * * //

dimensions      [0 1 -1 0 0 0 0];

internalField   nonuniform List<vector> 
9842
(
(0.0051451 0.00769632 -5.94752e-28)
(0.0124562 0.00692448 -2.01152e-27)
(0.00510483 0.0204715 -4.58888e-28)
(0.0175263 0.00582968 -1.13781e-27)
(0.0136178 0.0208212 -2.42512e-27)
(0.00442509 0.0299162 -3.09252e-28)
(0.0216949 0.00487083 0)
(0.0194814 0.0202521 -1.47651e-27)
(0.0130463 0.0310527 -1.12576e-27)
(0.00373599 0.0378357 -3.41547e-28)
(0.0250889 0.0041132 0)
(0.0236183 0.0183859 0)
(0.0200818 0.0319938 -1.59799e-27)
(0.0115502 0.0389392 -1.00767e-27)
(0.00328718 0.0448828 -1.04052e-28)
(0.0278089 0.00348422 0)
(0.0266482 0.0158878 0)
(0.0254659 0.0319041 -2.00278e-27)
(0.0189829 0.0406749 0)
(0.0100786 0.0457276 -1.01519e-27)
(0.00297119 0.0511915 1.33709e-28)
(0.0300815 0.00298744 0)
(0.0290542 0.0135287 0)
(0.0292659 0.0305938 0)
(0.0253469 0.0421291 -2.14187e-28)
(0.0170168 0.0473281 -1.53201e-27)
(0.00905503 0.0518095 -1.72666e-27)
(0.00273248 0.0570097 2.43972e-28)
(0.0320374 0.00259083 0)
(0.0310857 0.0115684 0)
(0.0318254 0.0284097 0)
(0.0303777 0.042633 0)
(0.0237077 0.0493726 -1.9834e-27)
(0.0152354 0.0530419 -1.38245e-27)
(0.00830051 0.0575214 0)
(0.00253268 0.0624223 0)
(0.0337594 0.00228576 0)
(0.0328335 0.0100246 -9.85375e-29)
(0.0335439 0.0256868 -1.14565e-27)
(0.0340182 0.0419312 0)
(0.0296545 0.0512197 0)
(0.0214808 0.0549262 0)
(0.0138814 0.0584738 -1.15161e-27)
(0.00769332 0.0628535 0)
(0.00236108 0.0674792 0)
(0.0352864 0.00206411 0)
(0.0343767 0.00887871 4.96971e-29)
(0.034808 0.0229095 -1.20139e-27)
(0.0364075 0.0401372 9.86476e-28)
(0.0344725 0.0522126 0)
(0.0276297 0.057208 0)
(0.0195253 0.059933 -3.12038e-27)
(0.0128536 0.063581 0)
(0.00718468 0.0678694 0)
(0.00221893 0.0722688 0)
(0.0366424 0.00190506 0)
(0.0357617 0.00801818 0)
(0.0359081 0.020413 6.68454e-29)
(0.0378571 0.037565 1.28028e-27)
(0.038055 0.0520464 -2.18382e-28)
(0.0332653 0.0593407 0)
(0.0252446 0.0619663 -1.94723e-27)
(0.0180127 0.0646993 0)
(0.0120226 0.0685015 -1.02315e-27)
(0.00674703 0.0726034 0)
(0.00210313 0.0767948 2.98296e-29)
(0.0378703 0.00178093 0)
(0.0370307 0.00734953 0)
(0.0369405 0.0183592 0)
(0.0387024 0.0345249 1.74519e-28)
(0.0404672 0.0506978 1.75025e-28)
(0.0379831 0.0607733 -1.81614e-27)
(0.0309673 0.0643643 0)
(0.0232058 0.0663014 0)
(0.0168152 0.0693983 -1.32569e-27)
(0.0113148 0.0731361 0)
(0.00638154 0.0770906 -7.09875e-28)
(0.00200514 0.0811343 -4.78286e-28)
(0.0389909 0.0016794 3.76597e-28)
(0.0381835 0.00685125 0)
(0.0379358 0.0168116 -6.24505e-29)
(0.0392835 0.0314358 -1.24003e-27)
(0.0418808 0.0484063 3.84922e-28)
(0.0415954 0.0610973 -1.25407e-27)
(0.0363795 0.0666944 -1.00773e-27)
(0.0285255 0.0683874 -1.32956e-28)
(0.0216171 0.0706586 -1.35243e-28)
(0.0158467 0.0738721 -1.11455e-27)
(0.0107122 0.0775518 0)
(0.00606539 0.0814087 7.17954e-35)
(0.00191524 0.0853026 -4.95306e-28)
(0.040021 0.00159754 7.38018e-28)
(0.0392562 0.00648178 -5.08373e-29)
(0.0388746 0.0156346 0)
(0.0397969 0.0286222 -1.30566e-27)
(0.0425908 0.0454747 -1.42665e-27)
(0.0440942 0.0602165 1.86925e-28)
(0.0410633 0.0684286 -4.92149e-28)
(0.0339293 0.0708324 3.01367e-32)
(0.0264886 0.0723011 -9.07207e-38)
(0.0203502 0.0749028 -1.66284e-27)
(0.0150244 0.0781811 1.36199e-28)
(0.0101813 0.0818267 5.45874e-28)
(0.00578884 0.0855548 5.44685e-28)
(0.00183909 0.0892941 -9.81571e-28)
(0.0409965 0.00153414 7.33767e-28)
(0.040258 0.00616543 0)
(0.0398042 0.0146728 8.64522e-28)
(0.040353 0.0262653 0)
(0.0428805 0.0421769 -1.39806e-27)
(0.0456007 0.058236 -4.32076e-28)
(0.044757 0.0691796 4.80013e-28)
(0.0391607 0.0732922 -1.37462e-27)
(0.0315035 0.0743402 5.36175e-28)
(0.0248881 0.0762385 2.71096e-28)
(0.0192941 0.0790678 0)
(0.0142928 0.0823669 -1.13374e-27)
(0.00972983 0.0859092 -3.27524e-28)
(0.00555041 0.0895223 4.12332e-28)
(0.00177028 0.0931824 -4.95514e-28)
(0.0419257 0.00148433 3.18623e-28)
(0.041197 0.00589885 0)
(0.0407285 0.013882 1.77869e-27)
(0.0409844 0.0243817 0)
(0.0430272 0.038845 0)
(0.0463494 0.0554611 0)
(0.0474161 0.0687293 -2.03134e-27)
(0.0438431 0.0752819 6.85572e-28)
(0.0366447 0.0767547 -9.01375e-28)
(0.0295092 0.0778853 1.03578e-27)
(0.0235687 0.0802001 1.35584e-28)
(0.0183803 0.0831317 0)
(0.013663 0.0863458 -1.07639e-27)
(0.00933359 0.0898635 -2.99371e-28)
(0.00533439 0.0934036 5.46721e-28)
(0.00170313 0.0969341 -1.47853e-27)
(0.0428109 0.00143524 0)
(0.0421061 0.00569004 -5.25274e-29)
(0.0415843 0.0132275 8.13309e-28)
(0.0416756 0.0228956 1.06616e-27)
(0.0431759 0.0357992 2.73048e-27)
(0.0465568 0.0521796 0)
(0.0490951 0.0671242 1.61241e-27)
(0.0476717 0.0763804 1.06326e-27)
(0.0417232 0.0792714 -3.43295e-28)
(0.034269 0.0798933 2.39196e-27)
(0.0278852 0.0815865 0)
(0.0224478 0.0841168 1.61889e-27)
(0.0175715 0.0870125 0)
(0.0131155 0.0902536 -4.89706e-28)
(0.00896157 0.0937274 1.09379e-27)
(0.00512832 0.0971445 -6.63052e-28)
(0.00164258 0.100564 5.63232e-35)
(0.0436924 0.00138572 3.57958e-28)
(0.042996 0.00549796 5.67175e-28)
(0.0424094 0.012694 0)
(0.0423863 0.0216993 2.0879e-27)
(0.043409 0.0332555 2.53138e-27)
(0.0464466 0.0486453 1.42551e-27)
(0.0499314 0.0645636 3.26837e-27)
(0.0505101 0.0763396 1.63063e-27)
(0.0464115 0.0814646 -1.01875e-27)
(0.0391885 0.082265 9.49498e-28)
(0.0323025 0.083248 1.20922e-27)
(0.0265278 0.085285 2.7558e-27)
(0.0214716 0.0878965 0)
(0.0168613 0.0908316 2.7075e-28)
(0.0126068 0.0940766 -4.46273e-28)
(0.00861923 0.0974609 1.09511e-27)
(0.00493804 0.100762 0)
(0.00158365 0.104099 1.95784e-27)
(0.0445669 0.00134796 3.0373e-28)
(0.0438658 0.00531199 1.24737e-27)
(0.0432724 0.0122522 -1.16796e-28)
(0.0430871 0.0206714 1.02086e-27)
(0.0438181 0.0311872 -7.6763e-29)
(0.0462785 0.0451094 2.82058e-27)
(0.050169 0.0613362 1.6393e-27)
(0.0523966 0.0751108 0)
(0.0503809 0.0828638 0)
(0.0441398 0.0847881 1.44447e-27)
(0.0368843 0.085224 1.54999e-28)
(0.0306877 0.0866616 2.10282e-27)
(0.0253782 0.0889235 0)
(0.0205998 0.0916304 0)
(0.0162256 0.0945939 -9.19477e-28)
(0.0121358 0.0977756 -9.50269e-28)
(0.00830224 0.101072 5.49904e-28)
(0.00476082 0.104289 0)
(0.00152541 0.107524 1.46943e-27)
(0.045391 0.00131987 0)
(0.0447156 0.00515997 1.125e-27)
(0.044124 0.0118395 -5.97901e-29)
(0.0438542 0.0197635 1.00372e-27)
(0.0443662 0.0294355 -1.48384e-28)
(0.0462261 0.0418587 1.66191e-27)
(0.0500132 0.05769 2.95362e-27)
(0.0534279 0.0728113 -5.34614e-37)
(0.0534481 0.083191 -1.68043e-27)
(0.0488532 0.0870765 0)
(0.0416437 0.0875013 1.36735e-27)
(0.0349764 0.088305 0)
(0.0293354 0.0901064 1.18899e-27)
(0.0243577 0.0925689 0)
(0.0198296 0.0953007 0)
(0.0156348 0.0982441 -1.13844e-27)
(0.0117 0.101367 0)
(0.00799889 0.104598 0)
(0.00458313 0.107712 6.61944e-28)
(0.00146627 0.110849 4.54633e-28)
(0.0461928 0.00128999 3.65942e-28)
(0.0455375 0.00503682 5.4939e-28)
(0.0449265 0.0114497 -1.20149e-28)
(0.0446543 0.0189909 9.27019e-28)
(0.0449592 0.0279032 1.41006e-27)
(0.0463836 0.0391005 -8.45361e-29)
(0.0496993 0.0538677 1.72578e-27)
(0.0537822 0.0697005 -2.2273e-28)
(0.0555844 0.0823187 -3.58381e-28)
(0.0529798 0.0887159 0)
(0.0465021 0.0899807 1.62133e-27)
(0.0394164 0.0902326 -1.80459e-27)
(0.0333945 0.0914879 1.19276e-27)
(0.0281628 0.093611 -9.48434e-28)
(0.0234558 0.096126 -1.07112e-27)
(0.0191345 0.0989142 0)
(0.0150808 0.101802 -5.4516e-28)
(0.0112798 0.104888 -5.51051e-28)
(0.00769496 0.108036 1.1033e-27)
(0.00440035 0.111034 -6.73213e-28)
(0.00140534 0.114065 -5.38551e-28)
(0.0469774 0.00125552 3.02782e-28)
(0.0463429 0.00491591 0)
(0.0457458 0.011062 7.78354e-28)
(0.0454441 0.0183071 -6.46736e-29)
(0.0456063 0.0265596 1.17322e-27)
(0.0467085 0.0368106 1.77739e-27)
(0.049423 0.0501286 0)
(0.0536849 0.0660476 1.40754e-27)
(0.0568573 0.0803235 3.79282e-27)
(0.0562813 0.0893684 1.48751e-27)
(0.051226 0.0923312 2.55051e-28)
(0.0440449 0.0924513 -1.01738e-27)
(0.0375688 0.0931012 -5.22064e-28)
(0.0320396 0.0948132 1.28905e-28)
(0.0271209 0.0970559 -9.46882e-28)
(0.0226501 0.0996921 -1.0705e-27)
(0.0184689 0.10245 0)
(0.0145501 0.105296 -5.46826e-28)
(0.0108584 0.108329 3.09264e-28)
(0.00738892 0.111367 3.4168e-28)
(0.00421676 0.114246 -7.03281e-28)
(0.00134369 0.117168 -5.81785e-28)
(0.0477095 0.00121408 0)
(0.0471366 0.00478478 -1.33102e-28)
(0.0465552 0.010649 8.3716e-28)
(0.0462515 0.0176621 -6.68663e-29)
(0.0463191 0.0253877 0)
(0.0471475 0.0348452 2.71863e-27)
(0.0492756 0.0467804 1.84797e-28)
(0.0533104 0.062098 2.15988e-27)
(0.0573861 0.0773895 1.1241e-27)
(0.0586811 0.088872 2.04064e-27)
(0.0554995 0.0941531 0)
(0.0488293 0.0948825 2.05446e-27)
(0.0418998 0.0949606 2.59352e-28)
(0.036006 0.0962114 -2.172e-27)
(0.0308378 0.0981449 -1.95718e-27)
(0.0261887 0.100534 0)
(0.0218832 0.103213 0)
(0.01782 0.105916 5.43288e-28)
(0.0140261 0.108726 1.55925e-27)
(0.0104359 0.111668 -2.25969e-27)
(0.00708045 0.11459 0)
(0.00402702 0.11735 -7.48207e-28)
(0.00127632 0.120168 -1.65102e-32)
(0.0484076 0.00117048 -3.56912e-28)
(0.0478923 0.00462401 -7.1248e-29)
(0.0473312 0.0102546 -1.37863e-28)
(0.0470547 0.0170475 0)
(0.0470751 0.0243495 -7.19872e-29)
(0.0476847 0.0330924 2.84721e-27)
(0.0493508 0.0439335 1.78157e-28)
(0.052838 0.0580648 1.73588e-27)
(0.0573887 0.0738038 2.28412e-27)
(0.0602172 0.0872065 -4.77822e-28)
(0.0590458 0.0950673 0)
(0.0535716 0.0972827 3.03687e-27)
(0.0464339 0.0971206 2.01934e-42)
(0.0400879 0.0978057 -9.95667e-28)
(0.0346334 0.0993941 -1.58706e-27)
(0.0297638 0.10151 1.63426e-34)
(0.0253226 0.104025 9.77671e-29)
(0.0211342 0.106671 0)
(0.0171908 0.109329 1.09566e-27)
(0.013503 0.112053 -4.1494e-28)
(0.0100108 0.114909 -8.45266e-28)
(0.00675813 0.117716 0)
(0.00382713 0.120353 8.18498e-28)
(0.00120265 0.123039 -1.63435e-27)
(0.0490748 0.00113219 -3.54421e-28)
(0.0485861 0.00445011 -7.62699e-29)
(0.0480898 0.00991088 -7.30664e-29)
(0.047828 0.0164161 7.26428e-29)
(0.0478449 0.0233889 1.46583e-28)
(0.0482995 0.0314938 1.41085e-27)
(0.0496525 0.0414887 0)
(0.0524625 0.054229 2.53987e-27)
(0.0570347 0.0697839 -1.4021e-27)
(0.0609766 0.0845145 0)
(0.061725 0.0948995 0)
(0.0579871 0.0992582 1.74608e-27)
(0.051153 0.0995107 1.33088e-27)
(0.0443401 0.0996322 -2.54865e-28)
(0.0385321 0.1008 -9.29429e-28)
(0.0334074 0.102635 0)
(0.0287847 0.104938 9.80854e-28)
(0.0244847 0.107476 9.30453e-29)
(0.0203975 0.110071 1.0862e-27)
(0.016572 0.112654 5.53889e-28)
(0.012969 0.115304 -1.51769e-27)
(0.00956444 0.118066 1.71864e-27)
(0.00642201 0.120729 8.67014e-28)
(0.00361353 0.123232 1.22999e-27)
(0.00112158 0.125781 0)
(0.0496589 0.00109076 -4.30003e-28)
(0.0492462 0.00429851 0)
(0.0487877 0.009572 -9.96457e-28)
(0.0485651 0.015772 0)
(0.0486046 0.0224958 1.53074e-28)
(0.0489554 0.0300662 4.79878e-28)
(0.0500623 0.0393547 1.58418e-27)
(0.0522968 0.0508669 -3.83499e-28)
(0.0564736 0.0655252 -2.8423e-27)
(0.0611341 0.0810487 2.39092e-27)
(0.0635321 0.0935681 0)
(0.061759 0.100444 1.8499e-27)
(0.0559163 0.101943 1.69221e-27)
(0.0488077 0.101711 4.96421e-28)
(0.0425673 0.102382 -2.48858e-28)
(0.0371549 0.103905 1.61688e-27)
(0.0322976 0.105971 9.60386e-28)
(0.0278575 0.108363 -9.30785e-28)
(0.0236625 0.110865 2.14355e-27)
(0.0196697 0.113409 1.59428e-27)
(0.0159323 0.115928 0)
(0.0124093 0.118475 -5.80128e-28)
(0.00909466 0.121103 2.06358e-27)
(0.00606078 0.123638 -1.1394e-27)
(0.00337757 0.125989 2.13338e-27)
(0.00102928 0.128379 -3.29101e-27)
(0.0501587 0.00104027 -4.22215e-28)
(0.0498461 0.00415094 -6.87395e-28)
(0.0494309 0.00920923 -1.50179e-27)
(0.0492911 0.0151339 -1.13514e-27)
(0.0493351 0.0216376 3.21439e-28)
(0.0496337 0.028788 0)
(0.0505377 0.0374358 1.92647e-27)
(0.052378 0.0479974 3.72062e-28)
(0.0559007 0.0612895 -4.20165e-28)
(0.0608516 0.0770595 4.36369e-27)
(0.0645445 0.0911708 4.78272e-28)
(0.0647074 0.100581 2.42261e-27)
(0.0604356 0.104065 1.81219e-27)
(0.0534807 0.104047 1.1311e-27)
(0.0467784 0.104177 3.56027e-32)
(0.0410208 0.105318 7.43465e-28)
(0.0358992 0.107132 4.90674e-28)
(0.0312718 0.109339 0)
(0.026964 0.111735 0)
(0.0228377 0.114221 3.69117e-27)
(0.0189266 0.116718 1.12297e-27)
(0.0152662 0.119107 0)
(0.0118207 0.121538 1.55974e-27)
(0.00859306 0.12406 2.1594e-27)
(0.00566671 0.12642 -1.14938e-27)
(0.00311426 0.128604 0)
(0.000922213 0.130805 -3.09191e-27)
(0.0505768 0.000988835 0)
(0.0503549 0.00397964 -6.90496e-28)
(0.0500418 0.0088384 -1.0089e-27)
(0.0499517 0.01448 -1.75447e-27)
(0.0500547 0.0207941 0)
(0.0503503 0.0275832 3.33986e-28)
(0.0510857 0.0356505 -3.48772e-28)
(0.052664 0.0454844 2.11408e-27)
(0.0554908 0.0574155 4.07888e-28)
(0.0602546 0.0727434 1.97256e-27)
(0.0648622 0.0878964 -4.72849e-28)
(0.0667845 0.0995935 4.85473e-28)
(0.0644147 0.105504 2.40295e-27)
(0.0582494 0.106472 1.75473e-27)
(0.0511946 0.106212 1.06941e-27)
(0.0450296 0.106905 8.72972e-28)
(0.039622 0.108423 9.21541e-28)
(0.0347538 0.110415 0)
(0.0302904 0.112699 0)
(0.0260668 0.115109 -1.0558e-27)
(0.0219978 0.117549 2.14357e-27)
(0.0181551 0.119934 0)
(0.0145659 0.122202 0)
(0.0111915 0.12453 1.62063e-27)
(0.0080418 0.126894 1.22628e-27)
(0.00522643 0.12907 7.92299e-29)
(0.00281545 0.131056 0)
(0.000795343 0.133034 3.18287e-27)
(0.0508852 0.00094066 2.1268e-28)
(0.050771 0.00379395 1.16808e-27)
(0.0505804 0.0084501 1.93618e-28)
(0.0505459 0.0138266 -1.23238e-27)
(0.0507489 0.0199617 -1.81275e-28)
(0.0510571 0.0263895 0)
(0.0517111 0.0339904 0)
(0.0530662 0.0432231 -3.73354e-28)
(0.0553529 0.0540755 3.99119e-28)
(0.0595427 0.0682878 1.55149e-27)
(0.064667 0.0839942 0)
(0.0680376 0.097502 -4.819e-28)
(0.0676217 0.105961 -4.83983e-28)
(0.0628595 0.108697 1.39546e-27)
(0.0558356 0.10849 2.89917e-27)
(0.0492098 0.10868 1.47701e-27)
(0.0434807 0.109847 1.7385e-27)
(0.0383515 0.111599 0)
(0.0336828 0.113753 0)
(0.029324 0.116076 0)
(0.0251425 0.11845 -8.20947e-29)
(0.0211305 0.120818 0)
(0.0173498 0.123077 -1.20988e-27)
(0.0138213 0.12523 -6.32062e-28)
(0.0105008 0.12743 2.70475e-28)
(0.00743177 0.129605 2.61367e-27)
(0.00472829 0.131564 -1.88791e-28)
(0.00246437 0.13333 -3.10725e-28)
(0.000646468 0.135022 0)
(0.0510875 0.000887381 -1.14556e-28)
(0.0510892 0.0036033 1.35193e-27)
(0.0510168 0.00802598 0)
(0.0510831 0.0132078 2.00815e-28)
(0.0513664 0.0190949 0)
(0.0517249 0.0252266 -3.7435e-28)
(0.0523822 0.0324506 3.92111e-27)
(0.0535325 0.0411286 -1.75125e-27)
(0.0554979 0.0511838 -3.97345e-28)
(0.0589412 0.0639835 2.88717e-27)
(0.0641129 0.0796626 -2.57061e-27)
(0.0685635 0.0944512 1.18188e-27)
(0.0699755 0.105318 1.13205e-27)
(0.0670187 0.110324 3.51295e-27)
(0.0606038 0.110901 1.35464e-27)
(0.0536025 0.110674 1.15365e-27)
(0.0474856 0.111411 1.40185e-27)
(0.042083 0.112908 4.49603e-28)
(0.037173 0.114882 -1.01036e-27)
(0.032638 0.117115 -4.84159e-28)
(0.0283394 0.119448 -3.21746e-28)
(0.024196 0.121757 1.11413e-27)
(0.0202253 0.12401 6.8033e-29)
(0.0164946 0.126156 -1.27787e-27)
(0.0130182 0.128186 -3.92168e-28)
(0.00974437 0.130206 -1.5061e-28)
(0.0067414 0.132189 4.91663e-27)
(0.00414382 0.133907 2.61014e-27)
(0.00203225 0.135372 -9.15506e-27)
(0.000464563 0.136717 0)
(0.0511707 0.000823429 -5.41233e-28)
(0.0513126 0.00339318 -1.18562e-28)
(0.0513418 0.00758453 -9.02735e-28)
(0.0515393 0.0126235 -4.10822e-27)
(0.0518887 0.01818 8.33147e-28)
(0.0523564 0.0241331 0)
(0.0530229 0.030979 3.20167e-27)
(0.0540488 0.0391535 7.81621e-28)
(0.0558135 0.0485895 -7.98201e-28)
(0.0585875 0.0601338 -4.26783e-28)
(0.0633662 0.0750997 3.06273e-27)
(0.0685023 0.0906535 2.19428e-27)
(0.0714961 0.103533 2.17965e-27)
(0.0704877 0.111075 1.14909e-27)
(0.06529 0.113168 0)
(0.0582273 0.112893 1.7566e-27)
(0.0516695 0.113156 1.53985e-27)
(0.0459513 0.114343 0)
(0.0407836 0.116115 1.21584e-42)
(0.0360381 0.118227 9.33626e-28)
(0.0315888 0.12052 2.87786e-28)
(0.0273192 0.122784 4.26771e-35)
(0.0232026 0.125009 -1.09401e-27)
(0.0192649 0.127165 -2.46102e-27)
(0.0155855 0.129171 0)
(0.012144 0.131035 -1.47781e-28)
(0.00890391 0.132891 -1.73506e-28)
(0.00595437 0.134654 2.99077e-27)
(0.00343424 0.13605 5.25351e-27)
(0.00146487 0.137166 -7.04085e-27)
(0.000238135 0.138188 2.62625e-27)
(0.0511166 0.000756124 -3.38697e-33)
(0.0514025 0.00316577 0)
(0.0515443 0.00716941 0)
(0.051893 0.0120273 -7.17317e-27)
(0.0523285 0.017239 -1.7905e-27)
(0.0529419 0.0230343 -4.8214e-27)
(0.0536196 0.0295253 0)
(0.0546276 0.0372986 1.41828e-26)
(0.0562112 0.0461558 -7.62255e-27)
(0.0585455 0.0568383 -8.50696e-28)
(0.0626302 0.0705084 4.34506e-27)
(0.0680436 0.086333 0)
(0.0722644 0.100721 -4.5121e-27)
(0.0731359 0.110729 5.36262e-27)
(0.0696163 0.114954 0)
(0.0630137 0.115247 0)
(0.056075 0.115092 0)
(0.0499796 0.115913 1.46054e-27)
(0.0445395 0.117456 1.65625e-27)
(0.0395517 0.119421 2.07908e-27)
(0.0349172 0.121644 0)
(0.0305043 0.123911 -6.8826e-28)
(0.026247 0.126105 1.10853e-27)
(0.0221458 0.128225 -3.1471e-27)
(0.0182457 0.130243 -2.72178e-27)
(0.0146063 0.13211 6.8087e-29)
(0.0111763 0.133815 3.11409e-27)
(0.00794782 0.135508 0)
(0.00500054 0.137 5.55017e-28)
(0.00252342 0.138038 0)
(0.000730449 0.138691 0)
(-0.000117816 0.138923 -1.34678e-26)
(0.0509244 0.000695032 -3.93047e-27)
(0.0513416 0.00294055 0)
(0.0516204 0.0067761 -2.58823e-28)
(0.052099 0.0113832 -3.96235e-27)
(0.0526981 0.0162976 1.93327e-27)
(0.0534235 0.0218725 -7.5123e-27)
(0.0541872 0.0281079 -1.78074e-27)
(0.0552339 0.0355298 3.03114e-26)
(0.0566568 0.043798 -5.96391e-27)
(0.0587822 0.0539527 1.67039e-26)
(0.0620921 0.0661831 0)
(0.06734 0.0816907 0)
(0.0723885 0.0970502 -2.71736e-27)
(0.0749474 0.109267 3.62748e-27)
(0.0733449 0.115929 0)
(0.0677694 0.117515 0)
(0.0607079 0.117237 8.48962e-28)
(0.0541968 0.117627 3.22236e-27)
(0.0484491 0.118899 1.37802e-27)
(0.0432136 0.120703 3.63435e-28)
(0.038358 0.12283 -4.21401e-28)
(0.0337694 0.125103 4.57782e-28)
(0.0293513 0.127303 5.10279e-28)
(0.025103 0.129386 4.60233e-28)
(0.0210156 0.1314 -2.65526e-27)
(0.0171477 0.133288 5.67472e-29)
(0.0135277 0.134976 0)
(0.0101023 0.136519 6.87912e-27)
(0.00685569 0.138009 3.41755e-27)
(0.003887 0.139178 6.15878e-27)
(0.00145181 0.139678 9.48456e-27)
(-0.000107422 0.139561 -1.71979e-26)
(-0.000464536 0.139052 -8.77506e-27)
(0.0505948 0.000639757 -1.96182e-28)
(0.0511354 0.00272856 -8.21627e-27)
(0.0515631 0.00636882 -5.06944e-27)
(0.0521666 0.0107195 7.3869e-27)
(0.0529274 0.015387 1.15213e-26)
(0.053767 0.0206897 0)
(0.0546844 0.0267278 0)
(0.0557815 0.0337747 1.24956e-26)
(0.057162 0.0415794 -5.95736e-27)
(0.0591499 0.0512675 1.86879e-26)
(0.0618597 0.0623716 -1.79543e-26)
(0.0665638 0.0769057 0)
(0.0720683 0.0927736 1.95468e-27)
(0.0759804 0.106702 1.94874e-27)
(0.0762867 0.115877 -9.43798e-28)
(0.0722534 0.119409 0)
(0.0655066 0.119528 0)
(0.0586295 0.119514 2.56262e-27)
(0.0525266 0.120457 0)
(0.0470233 0.122078 0)
(0.0419316 0.124099 0)
(0.0371437 0.126337 4.21282e-28)
(0.0325607 0.128559 -6.42389e-28)
(0.0281419 0.130644 9.44699e-28)
(0.023887 0.132635 0)
(0.0198131 0.134519 4.43485e-29)
(0.0159823 0.136272 0)
(0.012341 0.137836 0)
(0.00886315 0.139219 4.29814e-27)
(0.00555775 0.1404 3.75179e-27)
(0.0025862 0.140997 6.49739e-27)
(0.000104955 0.140957 8.86955e-27)
(-0.00117118 0.139939 -1.08009e-26)
(-0.000326105 0.138414 1.33106e-30)
(-0.00115068 0.138861 3.09258e-28)
(0.0501286 0.000582513 -3.42575e-28)
(0.0507995 0.0025239 8.45875e-28)
(0.0513589 0.00594848 -1.47181e-26)
(0.0521197 0.0100632 1.37421e-27)
(0.0529958 0.0145017 9.17972e-27)
(0.0539645 0.0195177 2.15366e-27)
(0.0550482 0.0253378 -4.14273e-27)
(0.0562483 0.0319957 -1.43452e-26)
(0.0577069 0.0395156 7.79307e-27)
(0.0595268 0.0486685 -1.70591e-26)
(0.061957 0.0590871 -3.26801e-26)
(0.0658811 0.0722061 0)
(0.0714657 0.0880885 0)
(0.0763419 0.103211 -1.78182e-26)
(0.0784043 0.114711 0)
(0.0762136 0.120585 1.86385e-26)
(0.0703167 0.121792 -1.6845e-27)
(0.0632723 0.121589 -7.77394e-27)
(0.0567983 0.122143 0)
(0.0509995 0.123547 0)
(0.0456606 0.125441 0)
(0.040654 0.127619 0)
(0.0358868 0.129863 -7.19341e-28)
(0.0312748 0.13201 6.44957e-29)
(0.0268332 0.134032 -1.50934e-27)
(0.0225622 0.135878 3.3796e-29)
(0.0185015 0.137612 0)
(0.0146963 0.139208 0)
(0.0110395 0.140613 3.68791e-28)
(0.00749298 0.141777 5.68586e-28)
(0.00405543 0.142591 0)
(0.000937794 0.142743 3.01674e-26)
(-0.00166606 0.141683 -3.99972e-27)
(-0.00182331 0.139272 0)
(-0.00271242 0.140049 -2.15387e-28)
(-0.000537386 0.137808 2.09881e-27)
(-0.00154464 0.138315 3.16333e-27)
(0.0495195 0.000521502 -1.41823e-28)
(0.0503316 0.00231929 0)
(0.051016 0.00553581 -2.46029e-27)
(0.0519267 0.00940456 -4.84974e-27)
(0.0529315 0.0136354 4.4161e-27)
(0.0540118 0.0183577 -5.77475e-28)
(0.0552601 0.0239207 0)
(0.0566013 0.030214 -1.85827e-26)
(0.0582026 0.0374948 1.56399e-26)
(0.0599465 0.0461825 -1.72321e-26)
(0.0622443 0.0561099 -1.45667e-26)
(0.0654559 0.0679094 3.92963e-27)
(0.0707114 0.0831927 -2.01477e-26)
(0.0761772 0.0990099 -1.64513e-26)
(0.0797297 0.112435 3.91457e-27)
(0.0794496 0.120797 2.3408e-26)
(0.0749496 0.123759 1.51902e-26)
(0.06809 0.123801 -1.00423e-26)
(0.0612737 0.12399 1.40998e-27)
(0.0551537 0.125098 1.28602e-27)
(0.0495622 0.126858 1.24102e-27)
(0.0443211 0.128973 0)
(0.0393386 0.131227 0)
(0.0345326 0.133427 -8.34502e-28)
(0.0298916 0.135465 -8.71764e-28)
(0.0254248 0.137319 6.3062e-28)
(0.0211597 0.139048 0)
(0.0171555 0.140693 0)
(0.0133668 0.142166 0)
(0.00959456 0.143363 4.46844e-28)
(0.00586879 0.144258 0)
(0.00206836 0.144805 3.51535e-26)
(-0.000991792 0.143244 -3.15998e-27)
(-0.000843035 0.144425 -3.57864e-27)
(-0.003055 0.141105 -1.43003e-27)
(-0.00183335 0.143577 0)
(-0.00351948 0.142463 -3.81789e-27)
(-0.00262005 0.138805 2.12903e-28)
(-0.00361979 0.139705 6.38999e-28)
(-0.000671146 0.136938 0)
(-0.00201347 0.137496 -2.07087e-28)
(0.0487582 0.000460682 0)
(0.0497156 0.00211532 0)
(0.0505324 0.00513462 1.1256e-27)
(0.0515701 0.00874748 -1.85863e-27)
(0.0527315 0.0128018 8.41234e-27)
(0.053911 0.01722 -1.23978e-27)
(0.0552939 0.0225 -6.04693e-28)
(0.0567962 0.028487 0)
(0.0585351 0.0354503 0)
(0.0603946 0.0438404 -4.23991e-27)
(0.062586 0.0532776 4.07065e-27)
(0.065366 0.0641414 2.39465e-26)
(0.0699424 0.0782636 -4.13996e-26)
(0.0756996 0.0943394 2.11123e-26)
(0.0803478 0.109158 3.69203e-30)
(0.0818671 0.119916 3.80061e-27)
(0.0791362 0.125098 1.98536e-26)
(0.0729797 0.126032 -2.7474e-30)
(0.0659719 0.125986 0)
(0.0595024 0.126767 3.69258e-27)
(0.0536392 0.128324 1.3411e-26)
(0.0481735 0.130359 1.10305e-27)
(0.0429712 0.132608 1.90246e-27)
(0.0379602 0.134869 -6.9069e-28)
(0.0330967 0.136997 -8.58141e-28)
(0.0284086 0.138939 0)
(0.0239194 0.140632 -1.61456e-33)
(0.0196597 0.142172 0)
(0.0157262 0.143681 0)
(0.0119271 0.145082 1.03158e-26)
(0.00792679 0.146182 -1.25812e-26)
(0.00380149 0.147012 0)
(-7.47446e-05 0.145652 0)
(0.00036748 0.147047 0)
(-0.00180578 0.145049 0)
(-0.00438745 0.140943 -1.10538e-27)
(-0.00363412 0.143961 1.73513e-27)
(-0.00499709 0.142441 -2.0747e-28)
(-0.00343215 0.138072 -1.31516e-27)
(-0.00476702 0.139118 9.7315e-29)
(-0.000838435 0.13574 0)
(-0.00255166 0.136368 2.12623e-27)
(0.0478417 0.00040367 0)
(0.048945 0.00190921 0)
(0.049914 0.00474072 -4.17493e-27)
(0.0510684 0.0081116 -5.29388e-27)
(0.0523785 0.0119765 7.90748e-27)
(0.0536767 0.0160977 0)
(0.0551613 0.0211067 -7.40564e-32)
(0.0568255 0.0268188 6.94949e-27)
(0.0586617 0.033399 0)
(0.0607458 0.0415395 0)
(0.0629284 0.0505234 -6.5499e-27)
(0.0655658 0.0607829 2.02666e-26)
(0.0693567 0.0735479 -3.8296e-26)
(0.0750152 0.0893768 1.33119e-26)
(0.0804045 0.10508 2.19769e-26)
(0.0834936 0.117943 1.7775e-26)
(0.0826371 0.125518 0)
(0.0777537 0.128033 -3.2248e-27)
(0.0708291 0.128108 2.09864e-26)
(0.0640808 0.12855 1.37128e-26)
(0.0579164 0.129858 1.59945e-26)
(0.0522158 0.131794 0)
(0.0467912 0.13406 2.24366e-27)
(0.0415528 0.136389 3.17599e-27)
(0.0364542 0.138586 6.69277e-28)
(0.0315103 0.140569 1.9991e-28)
(0.0267818 0.142321 0)
(0.0223039 0.143867 -3.3135e-27)
(0.0181568 0.145328 -2.15192e-27)
(0.0142684 0.14675 0)
(0.0102997 0.148166 1.17328e-26)
(0.00581502 0.149358 -3.40292e-27)
(0.00143305 0.148418 0)
(0.00217755 0.149836 0)
(-0.00136221 0.146567 9.14183e-27)
(-0.000900562 0.148159 0)
(-0.00356903 0.145662 1.7624e-27)
(-0.00587216 0.140545 -3.12557e-28)
(-0.00531808 0.144161 2.73665e-27)
(-0.00671957 0.14223 3.08883e-27)
(-0.00437171 0.137042 0)
(-0.00608486 0.138243 0)
(-0.00102388 0.134165 1.39554e-26)
(-0.00313238 0.134856 1.66097e-26)
(0.0467669 0.000345183 2.90012e-29)
(0.0480158 0.00170145 0)
(0.0491471 0.00435822 0)
(0.0504259 0.00751936 -4.00588e-31)
(0.051856 0.0111489 -7.50944e-27)
(0.0532923 0.0150204 8.37047e-27)
(0.0548901 0.0197564 2.78507e-27)
(0.0566809 0.0251619 8.78534e-27)
(0.0586477 0.0313693 0)
(0.0609063 0.0391767 -1.2568e-27)
(0.0632413 0.0477976 1.19728e-27)
(0.065891 0.0576422 -2.26086e-27)
(0.069123 0.0692414 -2.62419e-26)
(0.0742596 0.0842846 -1.8079e-26)
(0.0800591 0.100448 1.42967e-26)
(0.0844067 0.114932 1.46196e-26)
(0.0853544 0.124907 0)
(0.0821158 0.129462 0)
(0.0758069 0.130274 1.9752e-26)
(0.0688064 0.130447 3.81412e-26)
(0.0623933 0.131484 1.3635e-26)
(0.0564371 0.133278 0)
(0.0508129 0.135519 1.50571e-27)
(0.0453523 0.137888 -3.90847e-27)
(0.0400248 0.140183 0)
(0.0348377 0.14232 2.12668e-27)
(0.0298004 0.144203 -9.61661e-28)
(0.0250296 0.145686 -1.47038e-28)
(0.0206165 0.14703 -6.0652e-27)
(0.0166441 0.148376 -2.51643e-27)
(0.0127218 0.14985 0)
(0.00848902 0.151327 -7.5606e-27)
(0.00356132 0.151175 3.64817e-27)
(0.00465975 0.152396 7.76711e-27)
(2.88763e-06 0.149743 0)
(0.000875073 0.151342 2.87974e-27)
(-0.00318441 0.147436 9.44169e-27)
(-0.0026548 0.149283 0)
(-0.00538326 0.146117 4.04122e-27)
(-0.00754438 0.13987 8.70735e-29)
(-0.00729793 0.144212 1.6736e-26)
(-0.008703 0.141784 5.99925e-27)
(-0.00542892 0.135635 0)
(-0.00760054 0.137025 0)
(-0.00122867 0.132149 0)
(-0.00379185 0.132886 1.12131e-26)
(0.0455191 0.00027493 1.24912e-29)
(0.0469417 0.00148144 -5.05935e-27)
(0.0482318 0.00398029 0)
(0.0496574 0.00695765 1.17682e-27)
(0.0511759 0.0103363 -3.26321e-27)
(0.0527512 0.0140055 -1.01092e-26)
(0.0544628 0.0184212 5.92575e-27)
(0.0563741 0.0235215 4.44447e-27)
(0.0584843 0.0293711 4.74662e-32)
(0.0608701 0.0367855 0)
(0.063429 0.0450967 8.31655e-27)
(0.066173 0.0545511 1.22498e-27)
(0.0692388 0.0653855 1.11775e-26)
(0.0736252 0.079251 -2.08866e-26)
(0.0794579 0.0954551 0)
(0.0847093 0.111046 0)
(0.0872854 0.123247 1.38345e-29)
(0.0858455 0.130074 0)
(0.0806833 0.132256 0)
(0.0737226 0.132463 3.91982e-26)
(0.0670389 0.13317 1.94464e-26)
(0.0608814 0.134759 0)
(0.0550526 0.136949 1.13758e-26)
(0.0494028 0.139426 -9.59729e-27)
(0.0438436 0.141876 0)
(0.0383821 0.144088 -2.48895e-27)
(0.0330374 0.146033 -5.80834e-29)
(0.0279581 0.147601 1.84481e-32)
(0.0232237 0.148848 3.06303e-28)
(0.0191097 0.149996 -9.07445e-27)
(0.0153072 0.151396 0)
(0.0112314 0.153055 1.97406e-27)
(0.00627733 0.153555 -8.68612e-27)
(0.0076941 0.154419 -2.25271e-28)
(0.00226641 0.152774 2.77661e-27)
(0.00354303 0.154217 8.09915e-27)
(-0.00179036 0.151085 0)
(-0.000742664 0.152934 3.87053e-27)
(-0.00512774 0.148185 9.83174e-27)
(-0.00460027 0.150364 6.08182e-27)
(-0.00751046 0.146478 -2.84592e-30)
(-0.00946237 0.138878 1.26131e-27)
(-0.00959666 0.144094 1.45555e-26)
(-0.0110226 0.141044 4.81151e-27)
(-0.00662769 0.133764 1.89037e-26)
(-0.00933617 0.135369 0)
(-0.0014444 0.12967 8.2437e-27)
(-0.00449419 0.130434 2.12883e-26)
(0.0440651 0.00019306 0)
(0.0456981 0.0012347 1.46269e-28)
(0.0471808 0.00359201 -4.60748e-27)
(0.0487632 0.00638875 1.00466e-27)
(0.0503847 0.00954527 -2.86549e-27)
(0.0520704 0.0130151 -1.98821e-26)
(0.0538873 0.017091 -1.79194e-27)
(0.0559226 0.0219494 -2.88854e-27)
(0.0581279 0.0274195 -4.14496e-27)
(0.0606506 0.0344467 -7.59057e-28)
(0.0633864 0.0424509 9.64266e-27)
(0.0662916 0.0514336 0)
(0.0694908 0.0618082 1.1428e-26)
(0.0733151 0.0745225 -1.20594e-27)
(0.0787619 0.0902616 2.33633e-27)
(0.0845119 0.106493 -2.19809e-27)
(0.0884821 0.120555 2.44321e-26)
(0.0888334 0.129721 7.3479e-27)
(0.0851799 0.133735 2.27843e-26)
(0.0788103 0.134483 4.26172e-26)
(0.0718946 0.134878 0)
(0.0655158 0.136262 0)
(0.0594991 0.138417 1.36222e-26)
(0.0536624 0.140943 -6.23821e-28)
(0.0479096 0.143502 -1.00061e-26)
(0.04216 0.145899 -2.34455e-27)
(0.0365323 0.148014 -1.71608e-27)
(0.0311026 0.149715 2.7855e-27)
(0.0259522 0.15092 2.56051e-27)
(0.0214493 0.151835 0)
(0.0176443 0.152935 -5.55265e-27)
(0.0139661 0.154462 -4.76073e-27)
(0.00925 0.155418 0)
(0.0108174 0.155924 1.13645e-27)
(0.00526487 0.155362 -9.26023e-27)
(0.00681547 0.15653 -4.86046e-27)
(0.000663962 0.154569 -2.77639e-31)
(0.00217566 0.15629 1.89609e-26)
(-0.00376586 0.152511 9.71962e-28)
(-0.0026005 0.154687 5.16845e-27)
(-0.00742614 0.148925 5.75528e-27)
(-0.00694087 0.151479 6.43687e-27)
(-0.0100115 0.146699 3.67594e-27)
(-0.0116418 0.137465 0)
(-0.0122447 0.143712 6.99513e-27)
(-0.0136853 0.139909 -2.24405e-28)
(-0.00792592 0.131395 3.44018e-26)
(-0.0112488 0.133227 0)
(-0.00167121 0.12672 -4.46543e-27)
(-0.00521398 0.127496 -5.37527e-27)
(0.0423504 8.67201e-05 0)
(0.0442467 0.000963342 4.80898e-27)
(0.0459714 0.00317618 4.95421e-28)
(0.0477235 0.00581768 -5.49716e-27)
(0.049474 0.00879232 -5.88671e-27)
(0.0512441 0.0120555 2.89178e-27)
(0.053154 0.0158227 -1.09733e-26)
(0.0553012 0.02047 -2.22841e-27)
(0.0575817 0.025536 -6.90381e-27)
(0.0602408 0.0321671 1.67054e-27)
(0.0631099 0.039879 -2.00205e-28)
(0.0661964 0.0483081 0)
(0.069634 0.0583039 -1.37631e-27)
(0.0733037 0.070146 -1.28777e-27)
(0.0781987 0.0850798 -1.23062e-27)
(0.0840166 0.1015 0)
(0.0890029 0.11692 3.62768e-26)
(0.0910501 0.128331 -1.05871e-26)
(0.0891103 0.134451 2.75742e-26)
(0.0837641 0.136324 4.5892e-26)
(0.0769501 0.136735 0)
(0.0703011 0.137841 -6.02064e-27)
(0.0641283 0.139813 -1.67919e-26)
(0.0581417 0.142334 -3.34715e-28)
(0.0522065 0.145108 -1.59976e-26)
(0.0462438 0.147792 -3.33418e-27)