/*--------------------------------*- C++ -*----------------------------------*\
  =========                 |
  \\      /  F ield         | OpenFOAM: The Open Source CFD Toolbox
   \\    /   O peration     | Website:  https://openfoam.org
    \\  /    A nd           | Version:  dev
     \\/     M anipulation  |
\*---------------------------------------------------------------------------*/
FoamFile
{
    version     2.0;
    format      ascii;
    class       volScalarField;
    location    "2500";
    object      a;
}
// * * * * * * * * * * * * * * * * * * * * * * * * * * * * * * * * * * * * * //

dimensions      [0 -1 0 0 0 0 0];

internalField   nonuniform List<scalar> 
9848
(
0.100011
0.100011
0.100011
0.100011
0.100011
0.100011
0.100011
0.100011
0.100011
0.100011
0.10001
0.100011
0.100011
0.100011
0.100011
0.10001
0.10001
0.100011
0.100011
0.100011
0.100011
0.10001
0.10001
0.10001
0.100011
0.100011
0.100011
0.100011
0.10001
0.10001
0.10001
0.10001
0.100011
0.100011
0.100011
0.100011
0.100009
0.10001
0.10001
0.10001
0.10001
0.100011
0.100011
0.100011
0.100011
0.100009
0.100009
0.10001
0.10001
0.10001
0.10001
0.100011
0.100011
0.100011
0.100011
0.100009
0.100009
0.100009
0.10001
0.10001
0.10001
0.10001
0.100011
0.100011
0.100011
0.100011
0.100009
0.100009
0.100009
0.100009
0.10001
0.10001
0.10001
0.10001
0.100011
0.100011
0.100011
0.100011
0.100009
0.100009
0.100009
0.100009
0.100009
0.10001
0.10001
0.10001
0.10001
0.100011
0.100011
0.100011
0.100011
0.100008
0.100009
0.100009
0.100009
0.100009
0.100009
0.10001
0.10001
0.10001
0.10001
0.100011
0.100011
0.100011
0.100011
0.100008
0.100008
0.100009
0.100009
0.100009
0.100009
0.100009
0.10001
0.10001
0.10001
0.10001
0.100011
0.100011
0.100011
0.100011
0.100008
0.100008
0.100008
0.100009
0.100009
0.100009
0.100009
0.100009
0.10001
0.10001
0.10001
0.10001
0.100011
0.100011
0.100011
0.100011
0.100008
0.100008
0.100008
0.100008
0.100009
0.100009
0.100009
0.100009
0.100009
0.10001
0.10001
0.10001
0.10001
0.100011
0.100011
0.100011
0.100011
0.100007
0.100008
0.100008
0.100008
0.100008
0.100009
0.100009
0.100009
0.100009
0.100009
0.10001
0.10001
0.10001
0.10001
0.100011
0.100011
0.100011
0.100011
0.100007
0.100007
0.100008
0.100008
0.100008
0.100008
0.100009
0.100009
0.100009
0.100009
0.100009
0.10001
0.10001
0.10001
0.10001
0.100011
0.100011
0.100011
0.100011
0.100007
0.100007
0.100007
0.100008
0.100008
0.100008
0.100008
0.100009
0.100009
0.100009
0.100009
0.100009
0.10001
0.10001
0.10001
0.10001
0.100011
0.100011
0.100011
0.100011
0.100007
0.100007
0.100007
0.100007
0.100008
0.100008
0.100008
0.100008
0.100009
0.100009
0.100009
0.100009
0.100009
0.10001
0.10001
0.10001
0.10001
0.100011
0.100011
0.100011
0.100011
0.100006
0.100007
0.100007
0.100007
0.100007
0.100008
0.100008
0.100008
0.100008
0.100009
0.100009
0.100009
0.100009
0.100009
0.10001
0.10001
0.10001
0.10001
0.100011
0.100011
0.100011
0.100011
0.100006
0.100006
0.100007
0.100007
0.100007
0.100007
0.100008
0.100008
0.100008
0.100008
0.100009
0.100009
0.100009
0.100009
0.100009
0.10001
0.10001
0.10001
0.10001
0.100011
0.100011
0.100011
0.100011
0.100006
0.100006
0.100006
0.100007
0.100007
0.100007
0.100007
0.100008
0.100008
0.100008
0.100008
0.100009
0.100009
0.100009
0.100009
0.100009
0.10001
0.10001
0.10001
0.10001
0.100011
0.100011
0.100011
0.100011
0.100006
0.100006
0.100006
0.100006
0.100007
0.100007
0.100007
0.100007
0.100008
0.100008
0.100008
0.100008
0.100009
0.100009
0.100009
0.100009
0.100009
0.10001
0.10001
0.10001
0.10001
0.100011
0.100011
0.100011
0.100011
0.100006
0.100006
0.100006
0.100006
0.100006
0.100007
0.100007
0.100007
0.100007
0.100008
0.100008
0.100008
0.100008
0.100009
0.100009
0.100009
0.100009
0.100009
0.10001
0.10001
0.10001
0.10001
0.100011
0.100011
0.100011
0.100011
0.100005
0.100006
0.100006
0.100006
0.100006
0.100006
0.100007
0.100007
0.100007
0.100007
0.100008
0.100008
0.100008
0.100008
0.100009
0.100009
0.100009
0.100009
0.100009
0.10001
0.10001
0.10001
0.10001
0.100011
0.100011
0.100011
0.100011
0.100005
0.100005
0.100006
0.100006
0.100006
0.100006
0.100006
0.100007
0.100007
0.100007
0.100007
0.100008
0.100008
0.100008
0.100008
0.100009
0.100009
0.100009
0.100009
0.100009
0.10001
0.10001
0.10001
0.10001
0.100011
0.100011
0.100011
0.100011
0.100005
0.100005
0.100005
0.100006
0.100006
0.100006
0.100006
0.100006
0.100007
0.100007
0.100007
0.100007
0.100008
0.100008
0.100008
0.100008
0.100009
0.100009
0.100009
0.100009
0.100009
0.10001
0.10001
0.10001
0.10001
0.100011
0.100011
0.100011
0.100011
0.100005
0.100005
0.100005
0.100005
0.100006
0.100006
0.100006
0.100006
0.100006
0.100007
0.100007
0.100007
0.100007
0.100008
0.100008
0.100008
0.100008
0.100009
0.100009
0.100009
0.100009
0.100009
0.10001
0.10001
0.10001
0.10001
0.100011
0.100011
0.100011
0.100011
0.100004
0.100005
0.100005
0.100005
0.100005
0.100006
0.100006
0.100006
0.100006
0.100006
0.100007
0.100007
0.100007
0.100007
0.100008
0.100008
0.100008
0.100008
0.100009
0.100009
0.100009
0.100009
0.100009
0.10001
0.10001
0.10001
0.10001
0.100011
0.100011
0.100011
0.100011
0.100004
0.100004
0.100005
0.100005
0.100005
0.100005
0.100006
0.100006
0.100006
0.100006
0.100006
0.100007
0.100007
0.100007
0.100007
0.100008
0.100008
0.100008
0.100008
0.100009
0.100009
0.100009
0.100009
0.100009
0.10001
0.10001
0.10001
0.10001
0.100011
0.100011
0.100011
0.100011
0.100004
0.100004
0.100004
0.100005
0.100005
0.100005
0.100005
0.100006
0.100006
0.100006
0.100006
0.100006
0.100007
0.100007
0.100007
0.100007
0.100008
0.100008
0.100008
0.100008
0.100009
0.100009
0.100009
0.100009
0.100009
0.10001
0.10001
0.10001
0.10001
0.100011
0.100011
0.100011
0.100011
0.100004
0.100004
0.100004
0.100004
0.100005
0.100005
0.100005
0.100005
0.100006
0.100006
0.100006
0.100006
0.100006
0.100007
0.100007
0.100007
0.100007
0.100008
0.100008
0.100008
0.100008
0.100009
0.100009
0.100009
0.10001
0.10001
0.100011
0.100011
0.100011
0.100011
0.100011
0.100011
0.100011
0.100011
0.100011
0.100004
0.100004
0.100004
0.100004
0.100004
0.100005
0.100005
0.100005
0.100005
0.100006
0.100006
0.100006
0.100006
0.100006
0.100007
0.100007
0.100007
0.100007
0.100008
0.100008
0.100008
0.100008
0.100009
0.10001
0.100012
0.100015
0.100018
0.10002
0.100019
0.100017
0.100014
0.100011
0.100011
0.100011
0.100011
0.100011
0.100011
0.100003
0.100004
0.100004
0.100004
0.100004
0.100004
0.100005
0.100005
0.100005
0.100005
0.100006
0.100006
0.100006
0.100006
0.100006
0.100007
0.100007
0.100007
0.100007
0.100008
0.100008
0.100008
0.100009
0.100012
0.10002
0.100036
0.100057
0.100074
0.100077
0.100065
0.100043
0.100021
0.100011
0.100012
0.100011
0.100011
0.100011
0.100011
0.100011
0.100011
0.100011
0.100003
0.100003
0.100004
0.100004
0.100004
0.100004
0.100004
0.100005
0.100005
0.100005
0.100005
0.100006
0.100006
0.100006
0.100006
0.100006
0.100007
0.100007
0.100007
0.100007
0.100008
0.100008
0.100011
0.10002
0.100048
0.100113
0.100218
0.100335
0.100402
0.10038
0.10028
0.10013
0.100016
0.100032
0.100013
0.100011
0.100012
0.100011
0.100011
0.100011
0.100011
0.100011
0.100003
0.100003
0.100003
0.100004
0.100004
0.100004
0.100004
0.100004
0.100005
0.100005
0.100005
0.100005
0.100006
0.100006
0.100006
0.100006
0.100006
0.100007
0.100007
0.100007
0.100007
0.100008
0.100016
0.100043
0.100126
0.100339
0.100753
0.101302
0.101793
0.101954
0.101702
0.101049
0.100088
0.100296
0.100021
0.100055
0.100017
0.100011
0.100014
0.100012
0.100011
0.100011
0.100011
0.100011
0.100003
0.100003
0.100003
0.100003
0.100004
0.100004
0.100004
0.100004
0.100004
0.100005
0.100005
0.100005
0.100005
0.100006
0.100006
0.100006
0.100006
0.100006
0.100007
0.100007
0.100007
0.100008
0.100019
0.100074
0.100312
0.100904
0.102112
0.104076
0.106143
0.107595
0.107641
0.106278
0.100967
0.103206
0.100179
0.100606
0.100036
0.100111
0.100024
0.100011
0.100017
0.100013
0.100011
0.100011
0.100011
0.100011
0.100002
0.100003
0.100003
0.100003
0.100003
0.100004
0.100004
0.100004
0.100004
0.100004
0.100005
0.100005
0.100005
0.100005
0.100006
0.100006
0.100006
0.100006
0.100006
0.100007
0.100007
0.100008
0.100019
0.100098
0.100599
0.102103
0.105049
0.109753
0.116006
0.121142
0.123723
0.122478
0.1089
0.120511
0.102048
0.106355
0.10038
0.101298
0.100066
0.100224
0.100039
0.100012
0.100023
0.100016
0.100011
0.100011
0.100011
0.100011
0.100002
0.100002
0.100003
0.100003
0.100003
0.100003
0.100004
0.100004
0.100004
0.100004
0.100004
0.100005
0.100005
0.100005
0.100005
0.100006
0.100006
0.100006
0.100006
0.100006
0.100007
0.100007
0.100018
0.100105
0.100821
0.103724
0.109966
0.119068
0.129315
0.139629
0.146315
0.148211
0.131688
0.147048
0.116219
0.128927
0.104215
0.112034
0.100779
0.102627
0.100124
0.100436
0.100066
0.100013
0.100035
0.10002
0.100011
0.100011
0.100011
0.100011
0.100002
0.100002
0.100002
0.100003
0.100003
0.100003
0.100003
0.100004
0.100004
0.100004
0.100004
0.100004
0.100005
0.100005
0.100005
0.100005
0.100006
0.100006
0.100006
0.100006
0.100006
0.100007
0.100016
0.1001
0.100876
0.104986
0.115937
0.132151
0.148733
0.161549
0.171518
0.177703
0.160644
0.179094
0.143313
0.159357
0.124507
0.139233
0.107968
0.119548
0.101525
0.10495
0.10023
0.100827
0.100115
0.100014
0.100055
0.100026
0.100011
0.100011
0.100011
0.100011
0.100002
0.100002
0.100002
0.100002
0.100003
0.100003
0.100003
0.100003
0.100004
0.100004
0.100004
0.100004
0.100004
0.100005
0.100005
0.100005
0.100005
0.100006
0.100006
0.100006
0.100006
0.100007
0.100011
0.100085
0.100845
0.105343
0.120432
0.146173
0.17229
0.192452
0.203645
0.210156
0.194761
0.216554
0.177069
0.196183
0.15603
0.1749
0.134338
0.151821
0.114025
0.128755
0.102876
0.108869
0.100423
0.101547
0.100203
0.100015
0.100089
0.100036
0.100011
0.100012
0.100011
0.100011
0.100001
0.100002
0.100002
0.100002
0.100002
0.100003
0.100003
0.100003
0.100003
0.100004
0.100004
0.100004
0.100004
0.100004
0.100005
0.100005
0.100005
0.100005
0.100006
0.100006
0.100006
0.100006
0.100008
0.100058
0.100704
0.105213
0.12176
0.156091
0.195635
0.226063
0.24645
0.256089
0.233951
0.258486
0.216674
0.237643
0.195619
0.217525
0.171859
0.194173
0.146904
0.16822
0.122548
0.141283
0.105313
0.115702
0.100788
0.102961
0.100371
0.100017
0.100155
0.100058
0.100011
0.100012
0.100011
0.100011
0.100001
0.100001
0.100002
0.100002
0.100002
0.100002
0.100003
0.100003
0.100003
0.100003
0.100004
0.100004
0.100004
0.100004
0.100004
0.100005
0.100005
0.100005
0.100005
0.100006
0.100006
0.100006
0.100007
0.100031
0.100418
0.104569
0.121431
0.158827
0.209083
0.243539
0.261864
0.27255
0.271558
0.279762
0.259376
0.274421
0.239641
0.261115
0.217949
0.241471
0.192162
0.217714
0.164076
0.189912
0.134875
0.159235
0.109966
0.127476
0.101558
0.10606
0.100757
0.100024
0.100326
0.100124
0.100013
0.100019
0.100012
0.100022
0.100001
0.100001
0.100001
0.100002
0.100002
0.100002
0.100002
0.100003
0.100003
0.100003
0.100003
0.100004
0.100004
0.100004
0.100004
0.100004
0.100005
0.100005
0.100005
0.100005
0.100006
0.100006
0.100006
0.100015
0.10021
0.102996
0.11941
0.158604
0.210458
0.242368
0.259505
0.269864
0.276698
0.280351
0.281662
0.274634
0.280341
0.262116
0.274123
0.242959
0.262329
0.217206
0.243724
0.187338
0.216593
0.153704
0.184274
0.119567
0.14742
0.103477
0.113475
0.101878
0.10006
0.10091
0.100443
0.100056
0.100118
0.100046
0.100304
0.100001
0.100001
0.100001
0.100001
0.100002
0.100002
0.100002
0.100002
0.100003
0.100003
0.100003
0.100003
0.100004
0.100004
0.100004
0.100004
0.100004
0.100005
0.100005
0.100005
0.100005
0.100006
0.100006
0.100009
0.100098
0.101587
0.114241
0.154166
0.205393
0.233912
0.24929
0.254363
0.251842
0.264801
0.237732
0.280982
0.276859
0.279547
0.279296
0.272907
0.277799
0.262285
0.27142
0.244075
0.262109
0.215722
0.243964
0.180791
0.214524
0.13947
0.176568
0.108931
0.131005
0.105638
0.100384
0.103365
0.10219
0.10062
0.101117
0.101311
0.103623
0.100001
0.100001
0.100001
0.100001
0.100001
0.100002
0.100002
0.100002
0.100002
0.100003
0.100003
0.100003
0.100003
0.100004
0.100004
0.100004
0.100004
0.100004
0.100005
0.100005
0.100005
0.100005
0.100006
0.100006
0.10004
0.100708
0.108678
0.14295
0.194235
0.218824
0.226352
0.214234
0.189812
0.208076
0.164475
0.232512
0.199486
0.273878
0.259244
0.27688
0.270113
0.275514
0.273848
0.270065
0.273168
0.261856
0.269177
0.243393
0.261395
0.213025
0.242814
0.171209
0.210916
0.12383
0.164407
0.118083
0.102768
0.11302
0.110892
0.105401
0.1082
0.114131
0.120927
0.1
0.100001
0.100001
0.100001
0.100001
0.100001
0.100002
0.100002
0.100002
0.100002
0.100003
0.100003
0.100003
0.100003
0.100004
0.100004
0.100004
0.100004
0.100004
0.100005
0.100005
0.100005
0.100005
0.100006
0.100016
0.100362
0.104423
0.129862
0.180595
0.205021
0.205993
0.174345
0.138134
0.140747
0.116905
0.162931
0.131572
0.19516
0.15997
0.253595
0.227216
0.26587
0.247954
0.270658
0.261507
0.271278
0.267926
0.268933
0.270289
0.261357
0.269401
0.242216
0.261841
0.207644
0.241273
0.156774
0.20321
0.148553
0.11628
0.141184
0.141026
0.127648
0.137687
0.153486
0.171788
0.1
0.100001
0.100001
0.100001
0.100001
0.100001
0.100001
0.100002
0.100002
0.100002
0.100002
0.100003
0.100003
0.100003
0.100003
0.100004
0.100004
0.100004
0.100004
0.100004
0.100005
0.100005
0.100005
0.100005
0.100009
0.100136
0.101845
0.118
0.164131
0.193171
0.193361
0.155256
0.124417
0.107717
0.114092
0.10618
0.129128
0.111989
0.157455
0.129587
0.221945
0.190945
0.242789
0.217774
0.257703
0.239116
0.266394
0.255528
0.270751
0.267145
0.271187
0.273247
0.262559
0.273692
0.239451
0.26319
0.197833
0.23676
0.191688
0.157596
0.187138
0.191213
0.180968
0.192653
0.164077
0.20877
0.100002
0.100002
0.100001
0.100001
0.100001
0.100001
0.100001
0.100002
0.100002
0.100002
0.100002
0.100003
0.100003
0.100003
0.100003
0.100004
0.100004
0.100004
0.100004
0.100004
0.100005
0.100005
0.100005
0.100006
0.100046
0.100728
0.109124
0.145618
0.182468
0.185927
0.152295
0.126194
0.111095
0.102329
0.104435
0.104672
0.102448
0.112614
0.104781
0.134396
0.116685
0.188532
0.159144
0.216184
0.191033
0.239014
0.220355
0.257487
0.244655
0.270972
0.264154
0.27745
0.276648
0.276794
0.283395
0.263329
0.280212
0.233293
0.262895
0.229593
0.209048
0.228307
0.233672
0.224848
0.233819
0.123449
0.198169
0.100004
0.100002
0.100001
0.100001
0.100001
0.100001
0.100001
0.100002
0.100002
0.100002
0.100002
0.100003
0.100003
0.100003
0.100003
0.100004
0.100004
0.100004
0.100004
0.100004
0.100005
0.100005
0.100005
0.100018
0.100392
0.103958
0.128311
0.169742
0.181335
0.154896
0.132692
0.119547
0.106747
0.111748
0.101594
0.102905
0.101879
0.101208
0.106928
0.102648
0.126601
0.112919
0.167057
0.145111
0.200215
0.179925
0.229669
0.213505
0.253892
0.241576
0.272245
0.264777
0.285258
0.284058
0.290605
0.296699
0.283468
0.298443
0.261919
0.286121
0.260765
0.2461
0.261417
0.263215
0.252518
0.237677
0.255482
0.115446
0.189464
0.100005
0.100002
0.100001
0.100001
0.100001
0.100001
0.100001
0.100002
0.100002
0.100002
0.100002
0.100003
0.100003
0.100003
0.100003
0.100004
0.100004
0.100004
0.100004
0.100004
0.100005
0.100005
0.100009
0.100153
0.101511
0.114866
0.153311
0.176187
0.161141
0.141382
0.129626
0.117986
0.10591
0.10935
0.100807
0.101643
0.101065
0.10068
0.105198
0.10192
0.125388
0.111793
0.160622
0.142301
0.195852
0.178821
0.22793
0.214159
0.255468
0.245368
0.28011
0.273809
0.299565
0.298927
0.309779
0.31715
0.306002
0.322853
0.288289
0.311979
0.300255
0.275395
0.289011
0.266764
0.260747
0.268883
0.276151
0.289478
0.289669
0.27728
0.241562
0.271326
0.270395
0.259571
0.121863
0.199834
0.100006
0.100002
0.100001
0.100001
0.100001
0.100001
0.100001
0.100002
0.100002
0.100002
0.100002
0.100003
0.100003
0.100003
0.100003
0.100004
0.100004
0.100004
0.100004
0.100004
0.100005
0.100006
0.100049
0.100644
0.1067
0.135022
0.167504
0.165608
0.149662
0.139392
0.128638
0.110936
0.117336
0.103674
0.107141
0.100414
0.100756
0.100751
0.100403
0.104416
0.101541
0.125953
0.110783
0.163065
0.14581
0.200597
0.18574
0.234343
0.22002
0.26492
0.252501
0.294548
0.285521
0.319809
0.316834
0.335476
0.334061
0.335417
0.322592
0.332931
0.348134
0.341203
0.314842
0.302889
0.317024
0.326949
0.303715
0.278955
0.280121
0.290051
0.304352
0.304182
0.290611
0.265255
0.237329
0.255898
0.280237
0.277569
0.15875
0.241942
0.226656
0.203744
0.100007
0.100002
0.100002
0.100001
0.100001
0.100001
0.100001
0.100002
0.100002
0.100002
0.100002
0.100003
0.100003
0.100003
0.100003
0.100004
0.100004
0.100004
0.100004
0.100004
0.100005
0.100017
0.100353
0.102633
0.119117
0.153984
0.165666
0.156639
0.147894
0.138936
0.123923
0.108424
0.112918
0.101906
0.104453
0.100223
0.100348
0.10058
0.100271
0.103508
0.101159
0.123373
0.108006
0.167594
0.146193
0.204143
0.186169
0.237119
0.219578
0.27224
0.25576
0.308746
0.297031
0.335529
0.33435
0.33266
0.329973
0.352794
0.35593
0.345909
0.346744
0.338275
0.348239
0.361759
0.356049
0.330503
0.318441
0.333312
0.343237
0.319605
0.291085
0.290909
0.304512
0.320209
0.320392
0.304341
0.271387
0.261466
0.289355
0.285385
0.211887
0.168523
0.191777
0.248405
0.234129
0.100009
0.100003
0.100002
0.100001
0.100001
0.100001
0.100001
0.100002
0.100002
0.100002
0.100002
0.100003
0.100003
0.100003
0.100003
0.100004
0.100004
0.100004
0.100004
0.100004
0.100008
0.100124
0.100976
0.108895
0.137026
0.162504
0.160575
0.154756
0.147944
0.135304
0.113546
0.120476
0.104791
0.10896
0.100797
0.10201
0.10013
0.10016
0.100462
0.100209
0.102311
0.100888
0.116275
0.105
0.164662
0.13965
0.199672
0.177072
0.236689
0.214832
0.281837
0.262645
0.32702
0.32292
0.318283
0.312014
0.346773
0.346194
0.345182
0.343624
0.365695
0.368631
0.357827
0.359109
0.354438
0.36348
0.375029
0.370157
0.347507
0.335479
0.350981
0.360076
0.337003
0.303729
0.302239
0.320108
0.337771
0.337884
0.319162
0.278386
0.268253
0.299317
0.294238
0.217885
0.168575
0.194568
0.255468
0.240093
0.10001
0.100004
0.100001
0.100001
0.100001
0.100001
0.100001
0.100002
0.100002
0.100002
0.100002
0.100003
0.100003
0.100003
0.100003
0.100004
0.100004
0.100004
0.100004
0.100005
0.100039
0.100559
0.103678
0.121046
0.152253
0.160662
0.159165
0.155142
0.145582
0.126784
0.109264
0.114418
0.101958
0.104797
0.100328
0.100789
0.10009
0.100077
0.100414
0.100185
0.101741
0.100783
0.110452
0.103831
0.152032
0.127137
0.190113
0.164962
0.239914
0.214025
0.304926
0.295665
0.285524
0.27299
0.341371
0.338058
0.333502
0.32739
0.360028
0.360623
0.360687
0.359931
0.378977
0.371149
0.382664
0.373532
0.37028
0.377996
0.388678
0.383789
0.365004
0.353737
0.369097
0.376488
0.355623
0.317491
0.314753
0.337125
0.356608
0.356646
0.335449
0.286531
0.275989
0.310561
0.30441
0.220737
0.158121
0.189177
0.26229
0.244668
0.100012
0.100003
0.100001
0.100001
0.100001
0.100001
0.100001
0.100002
0.100002
0.100002
0.100002
0.100003
0.100003
0.100003
0.100003
0.100004
0.100004
0.100004
0.100004
0.100014
0.100258
0.101383
0.110083
0.136265
0.157991
0.16045
0.160109
0.154036
0.138533
0.113796
0.12094
0.104327
0.108769
0.100724
0.101779
0.100131
0.100295
0.100079
0.100048
0.100405
0.100182
0.101558
0.100749
0.108674
0.103537
0.140971
0.120757
0.187019
0.160999
0.257468
0.227119
0.319658
0.310061
0.298634
0.285115
0.357969
0.354478
0.349365
0.34242
0.375642
0.377145
0.377479
0.376368
0.393426
0.386321
0.398188
0.389727
0.385213
0.391903
0.403282
0.39764
0.38195
0.372411
0.38661
0.391813
0.374714
0.332748
0.328801
0.355509
0.376011
0.37611
0.353223
0.295795
0.284161
0.323343
0.315942
0.220107
0.138072
0.175954
0.268555
0.247743
0.10001
0.100002
0.100001
0.100001
0.100001
0.100001
0.100002
0.100002
0.100002
0.100002
0.100002
0.100003
0.100003
0.100003
0.100003
0.100004
0.100004
0.100004
0.100007
0.100081
0.100694
0.104346
0.121187
0.149271
0.159758
0.162254
0.16025
0.148813
0.126842
0.108045
0.113609
0.101527
0.103692
0.100248
0.100615
0.100054
0.100106
0.100084
0.100042
0.100443
0.100206
0.101546
0.100819
0.108467
0.103692
0.137788
0.119451
0.195742
0.167077
0.281165
0.264007
0.229672
0.247771
0.333636
0.323028
0.310662
0.2966
0.373427
0.368371
0.361188
0.352237
0.392259
0.393198
0.39226
0.388436
0.408969
0.402555
0.414094
0.40576
0.399322
0.405799
0.418605
0.412178
0.397651
0.390462
0.402752
0.406076
0.393258
0.349556
0.344448
0.374837
0.395016
0.395418
0.372074
0.305973
0.29247
0.337665
0.328714
0.214547
0.117392
0.159898
0.274171
0.248108
0.100007
0.100001
0.100001
0.100001
0.100002
0.100002
0.100002
0.100003
0.100003
0.100003
0.100003
0.100003
0.100003
0.100003
0.100003
0.100004
0.100004
0.100005
0.100027
0.100402
0.101708
0.110536
0.134734
0.156315
0.162285
0.164013
0.157044
0.138792
0.111778
0.118907
0.102938
0.106628
0.100492
0.10123
0.100082
0.100197
0.100031
0.10004
0.100142
0.100056
0.100517
0.100332
0.101754
0.101029
0.109798
0.104765
0.142287
0.122213
0.213227
0.1956
0.172667
0.285054
0.267711
0.231785
0.250021
0.34173
0.32973
0.316252
0.301344
0.382156
0.374156
0.364809
0.354182
0.406684
0.405057
0.399608
0.392042
0.424376
0.417605
0.427988
0.418306
0.413155
0.420094
0.43344
0.427121
0.412051
0.407048
0.417356
0.419758
0.410372
0.367669
0.36148
0.39428
0.412695
0.413609
0.391383
0.316789
0.300696
0.35329
0.342448
0.204879
0.120274
0.15097
0.279091
0.245475
0.100005
0.100001
0.100001
0.100003
0.100004
0.100005
0.100006
0.100005
0.100005
0.100004
0.100004
0.100003
0.100003
0.100003
0.100003
0.100004
0.100004
0.10001
0.100143
0.100826
0.104751
0.120875
0.146937
0.160823
0.165276
0.162947
0.149132
0.124368
0.105467
0.110821
0.10094
0.102316
0.100148
0.100373
0.100029
0.100061
0.100029
0.100022
0.100304
0.100134
0.100714
0.100514
0.102875
0.102116
0.110948
0.10758
0.143833
0.121653
0.214081
0.196792
0.174388
0.158131
0.282666
0.264772
0.227564
0.246331
0.342375
0.329384
0.315137
0.299571
0.382675
0.371898
0.360189
0.347874
0.415312
0.408641
0.399062
0.387066
0.437202
0.428391
0.437512
0.424472
0.427117
0.434555
0.445438
0.441383
0.425564
0.421898
0.430767
0.433277
0.425628
0.386518
0.379485
0.412976
0.428449
0.430076
0.41038
0.328031
0.30911
0.369787
0.356806
0.194849
0.107682
0.136825
0.282314
0.240524
0.100003
0.100003
0.100007
0.100014
0.10002
0.100021
0.100019
0.100014
0.10001
0.100007
0.100005
0.100004
0.100004
0.100004
0.100004
0.100004
0.100006
0.100047
0.100534
0.10202
0.110849
0.133821
0.15606
0.164908
0.166499
0.157381
0.136341
0.108238
0.114935
0.101721
0.103967
0.100271
0.100691
0.100044
0.100106
0.100016
0.100021
0.100047
0.100021
0.100553
0.100311
0.101607
0.10101
0.106727
0.106347
0.117736
0.119283
0.145058
0.131219
0.121502
0.209117
0.191258
0.164848
0.150926
0.272806
0.25431
0.216356
0.235372
0.335041
0.321406
0.306557
0.290359
0.373614
0.35969
0.34603
0.332739
0.416324
0.404269
0.389104
0.372106
0.445867
0.433191
0.441721
0.423994
0.441049
0.448271
0.453575
0.452798
0.438653
0.435257
0.443447
0.44663
0.439136
0.405446
0.397732
0.430214
0.442329
0.444634
0.428302
0.33967
0.31701
0.386728
0.371613
0.18336
0.102946
0.122823
0.284004
0.234374
0.100012
0.100026
0.10005
0.100076
0.100087
0.100079
0.10006
0.10004
0.100024
0.100016
0.10001
0.100007
0.100006
0.100005
0.100004
0.100005
0.100017
0.100224
0.100946
0.105203
0.121167
0.146474
0.162818
0.167812
0.163452
0.146582
0.119615
0.103026
0.107029
0.100491
0.101245
0.100074
0.10019
0.100016
0.100031
0.100015
0.100012
0.100125
0.100035
0.101452
0.100593
0.105055
0.103121
0.120302
0.119918
0.135419
0.139139
0.155485
0.139605
0.131103
0.132348
0.131738
0.197958
0.180683
0.152821
0.143067
0.254564
0.235678
0.198331
0.216739
0.319306
0.305058
0.289541
0.272699
0.354757
0.338325
0.323244
0.309028
0.409948
0.392005
0.371393
0.349713
0.450035
0.432308
0.441276
0.417603
0.454269
0.459334
0.458567
0.460411
0.451475
0.447608
0.45571
0.459416
0.451424
0.423655
0.415769
0.445606
0.454725
0.45745
0.444538
0.351742
0.324184
0.403841
0.387174
0.169541
0.100887
0.1119
0.284091
0.226333
0.100107
0.100181
0.100277
0.100338
0.10032
0.100247
0.100164
0.100099
0.100056
0.100034
0.100019
0.100013
0.100008
0.100006
0.100005
0.100009
0.100078
0.100667
0.102391
0.11165
0.134723
0.157321
0.167496
0.167416
0.154972
0.130795
0.104238
0.109199
0.100874
0.102116
0.10013
0.10034
0.100022
0.100051
0.100009
0.100012
0.100022
0.100011
0.100292
0.100091
0.104621
0.101711
0.115807
0.109898
0.157388
0.154234
0.161489
0.163564
0.213545
0.215525
0.136555
0.132523
0.156646
0.151006
0.181196
0.16593
0.146944
0.143514
0.228542
0.210161
0.176723
0.192591
0.294852
0.280027
0.263981
0.246746
0.328817
0.309892
0.29307
0.277778
0.398391
0.375503
0.350379
0.324478
0.450585
0.427313
0.43852
0.409192
0.465469
0.467173
0.460295
0.466284
0.463875
0.459505
0.46779
0.471136
0.462969
0.440851
0.433381
0.459123
0.466175
0.469033
0.459464
0.363559
0.329969
0.421257
0.402498
0.153723
0.100221
0.10533
0.283314
0.21657
0.100736
0.100974
0.101209
0.10121
0.100968
0.100656
0.100394
0.100221
0.100121
0.100063
0.100039
0.100023
0.100014
0.100009
0.100009
0.10003
0.100327
0.101125
0.106034
0.122822
0.148873
0.165581
0.169417
0.161524
0.140755
0.111829
0.101566
0.103769
0.100233
0.100616
0.100035
0.100087
0.10001
0.100016
0.100008
0.100008
0.100049
0.100013
0.100541
0.100222
0.113636
0.105101
0.142868
0.12764
0.215236
0.213054
0.220046
0.202541
0.209797
0.262726
0.263957
0.143558
0.145902
0.19379
0.184304
0.163255
0.153186
0.152698
0.15785
0.198458
0.182838
0.159977
0.169564
0.263024
0.247929
0.231834
0.215105
0.299799
0.27776
0.258895
0.242576
0.387355
0.361995
0.33356
0.303558
0.450327
0.422658
0.437174
0.403897
0.473895
0.474329
0.464779
0.47159
0.475886
0.471123
0.479507
0.480379
0.474304
0.456892
0.450577
0.471979
0.477385
0.481426
0.473169
0.374497
0.335904
0.438302
0.418082
0.137076
0.10007
0.102424
0.281182
0.20456
0.103512
0.103943
0.104143
0.103546
0.102493
0.101526
0.100857
0.100455
0.100235
0.100129
0.10007
0.100038
0.100022
0.100012
0.100018
0.100128
0.100839
0.103041
0.113496
0.138665
0.160968
0.169636
0.166284
0.149476
0.121563
0.102225
0.100458
0.101234
0.100059
0.100163
0.100012
0.100024
0.100007
0.100009
0.100009
0.100007
0.100122
0.100021
0.101461
0.100393
0.134905
0.113785
0.196125
0.165094
0.262749
0.25605
0.281473
0.296092
0.250015
0.258135
0.311374
0.312325
0.164701
0.1745
0.239779
0.228249
0.154396
0.151914
0.177491
0.189204
0.172499
0.163622
0.158333
0.159073
0.227627
0.213033
0.198347
0.184404
0.274399
0.248588
0.227053
0.209571
0.382335
0.356557
0.326661
0.293924
0.454716
0.421907
0.442413
0.403931
0.481909
0.481835
0.471971
0.478727
0.485994
0.483068
0.491317
0.488686
0.486484
0.472631
0.467667
0.484332
0.490978
0.494077
0.486848
0.386677
0.340278
0.45642
0.434619
0.124852
0.100028
0.10115
0.277686
0.191821
0.11169
0.111909
0.111451
0.108724
0.10562
0.103201
0.101662
0.100832
0.100421
0.100217
0.100111
0.100059
0.100029
0.10002
0.100058
0.100514
0.101489
0.107666
0.127428
0.15422
0.168725
0.16925
0.156596
0.13176
0.105892
0.10017
0.100383
0.100659
0.10012
0.100017
0.100042
0.100008
0.10001
0.100007
0.100007
0.100011
0.100007
0.100246
0.100041
0.104006
0.100859
0.173944
0.132336
0.272215
0.224465
0.310789
0.305589
0.320318
0.335
0.299934
0.307502
0.355839
0.355805
0.202134
0.215832
0.289447
0.277065
0.160196
0.167354
0.216073
0.231977
0.161667
0.161884
0.174129
0.166258
0.195042
0.182606
0.172251
0.164762
0.260784
0.230453
0.205945
0.186989
0.382664
0.357949
0.328795
0.296134
0.461355
0.428132
0.450353
0.411585
0.490139
0.49
0.477626
0.485549
0.495331
0.4955
0.500669
0.497669
0.499632
0.486567
0.482816
0.497239
0.501912
0.504842
0.498356
0.397294
0.345016
0.473275
0.450539
0.117128
0.10002
0.100749
0.27355
0.180599
0.126914
0.126188
0.123934
0.117817
0.110747
0.105682
0.102811
0.101345
0.100657
0.100323
0.10016
0.100078
0.100035
0.100044
0.10023
0.10103
0.104361
0.117925
0.146313
0.166049
0.170793
0.162284
0.140558
0.111472
0.100954
0.100073
0.100055
0.100182
0.100028
0.100008
0.100013
0.100007
0.100007
0.100007
0.100007
0.100016
0.100008
0.100392
0.100083
0.10978
0.102097
0.225464
0.163004
0.337286
0.311921
0.288495
0.352533
0.34554
0.353006
0.366964
0.346775
0.353287
0.392988
0.391677
0.248109
0.263346
0.337039
0.324904
0.186379
0.200453
0.260196
0.278323
0.169207
0.178694
0.206493
0.191305
0.173688
0.16564
0.162943
0.163619
0.261451
0.228063
0.200019
0.179647
0.39261
0.371066
0.346053
0.31708
0.470189
0.438136
0.461386
0.425053
0.498092
0.494656
0.482159
0.488831
0.503247
0.504812
0.507129
0.503587
0.507287
0.497685
0.494489
0.505478
0.509042
0.509152
0.505759
0.409651
0.349579
0.485047
0.465416
0.113709
0.100029
0.100903
0.270981
0.175357
0.144753
0.141596
0.136817
0.128068
0.117454
0.108757
0.104168
0.101949
0.100931
0.100432
0.100205
0.100087
0.100052
0.100125
0.100803
0.102422
0.111364
0.137449
0.161833
0.170945
0.166541
0.148238
0.11959
0.102368
0.100092
0.100021
0.100017
0.100045
0.10001
0.100007
0.100007
0.100007
0.100006
0.100007
0.100007
0.100025
0.100009
0.100754
0.100171
0.120817
0.104508
0.266342
0.198665
0.355653
0.336622
0.298907
0.329326
0.386661
0.378299
0.373165
0.388348
0.386531
0.391594
0.421597
0.418152
0.295431
0.311004
0.377973
0.36693
0.223889
0.241637
0.304232
0.322046
0.194184
0.210075
0.246717
0.227828
0.170479
0.168993
0.171368
0.180996
0.284764
0.251638
0.22111
0.198056
0.410825
0.395733
0.378358
0.358781
0.474765
0.452391
0.467796
0.4425
0.501578
0.497964
0.48953
0.493414
0.507804
0.510611
0.512234
0.50787
0.512948
0.505015
0.500832
0.50937
0.514323
0.514654
0.509091
0.422483
0.355556
0.493773
0.477419
0.11452
0.100339
0.103537
0.273164
0.180035
0.160217
0.154549
0.147429
0.136644
0.123914
0.112138
0.105572
0.102518
0.101138
0.100516
0.100219
0.100094
0.100106
0.100484
0.101424
0.107133
0.12786
0.156579
0.170425
0.169348
0.154686
0.128245
0.104855
0.100306
0.100009
0.100014
0.100021
0.100009
0.100008
0.100007
0.100006
0.100006
0.100006
0.100006
0.100007
0.100007
0.10004
0.10001
0.101439
0.100301
0.136847
0.108487
0.309218
0.291404
0.260048
0.218905
0.364785
0.346836
0.329545
0.411099
0.400948
0.382091
0.398696
0.418015
0.421335
0.442106
0.436127
0.338613
0.353682
0.412069
0.403754
0.266097
0.285229
0.350987
0.366944
0.234379
0.254123
0.29483
0.274504
0.190667
0.19145
0.200738
0.216011
0.335579
0.310382
0.284813
0.261495
0.432715
0.422804
0.413384
0.40437
0.486933
0.461151
0.479822
0.454924
0.50744
0.505856
0.500312
0.504305
0.513268
0.516128
0.518551
0.514747
0.518848
0.507782
0.506318
0.514382
0.520353
0.520988