/*--------------------------------*- C++ -*----------------------------------*\
  =========                 |
  \\      /  F ield         | OpenFOAM: The Open Source CFD Toolbox
   \\    /   O peration     | Website:  https://openfoam.org
    \\  /    A nd           | Version:  dev
     \\/     M anipulation  |
\*---------------------------------------------------------------------------*/
FoamFile
{
    version     2.0;
    format      ascii;
    class       volScalarField;
    location    "2500";
    object      alphat;
}
// * * * * * * * * * * * * * * * * * * * * * * * * * * * * * * * * * * * * * //

dimensions      [1 -1 -1 0 0 0 0];

internalField   nonuniform List<scalar> 
9848
(
0.000150189
0.000154546
0.00014776
0.000141013
0.000189356
0.000131814
0.000131027
0.000199611
0.000180143
0.000124711
0.000126039
0.000191344
0.000207933
0.00015459
0.000122297
0.000122532
0.000170193
0.000222813
0.000193103
0.000139167
0.000120937
0.000120626
0.000151739
0.000221124
0.000219258
0.000164251
0.000132099
0.000119957
0.000119662
0.000140178
0.000208941
0.000234449
0.000197669
0.00014663
0.000127907
0.000119239
0.000119416
0.000131878
0.000184919
0.000241414
0.00022488
0.000168578
0.000137682
0.000125101
0.000118689
0.000119286
0.000127298
0.000161978
0.000237156
0.000241078
0.000195991
0.000150658
0.000132189
0.000123015
0.000118397
0.000119181
0.000124582
0.000149062
0.000222795
0.000252191
0.000225582
0.000168182
0.000140965
0.000128416
0.000121383
0.000118147
0.000118939
0.000122905
0.000139138
0.000197983
0.00025667
0.000245372
0.000191696
0.000151646
0.000134818
0.000125529
0.000120344
0.00011798
0.00011852
0.000121979
0.000132858
0.000171728
0.000251954
0.000257554
0.000218943
0.000165835
0.000142301
0.0001305
0.000123274
0.000119532
0.000117713
0.000117969
0.000121411
0.00012877
0.000158059
0.000238768
0.000267262
0.000244581
0.000185542
0.000150798
0.000135982
0.000127142
0.000121645
0.000119052
0.000117462
0.000117508
0.000120971
0.000126178
0.000146787
0.000212537
0.00027131
0.000261218
0.000210273
0.000162424
0.000142033
0.000131392
0.000124531
0.000120438
0.000118457
0.000117371
0.000117123
0.000120611
0.000124571
0.000138956
0.000186329
0.00026666
0.000271912
0.000235768
0.000178536
0.000149087
0.000135953
0.00012784
0.000122494
0.000119686
0.000117836
0.000117277
0.000116956
0.000120209
0.000123434
0.000134159
0.000167762
0.000254669
0.000279886
0.000258911
0.000199531
0.00015818
0.000140962
0.000131429
0.000125129
0.000121029
0.000118882
0.000117556
0.000117202
0.000117076
0.000119604
0.000122652
0.000130921
0.000157553
0.000232685
0.000284135
0.000273285
0.000223625
0.000171557
0.000146772
0.000135326
0.000127914
0.000122968
0.000120053
0.00011805
0.000117308
0.000117159
0.000117218
0.000118766
0.000121994
0.000128618
0.000149276
0.000208223
0.000281702
0.000283577
0.000247186
0.000188879
0.000154371
0.000139647
0.000131105
0.000125221
0.000121359
0.000119105
0.000117617
0.000117092
0.000117125
0.000117302
0.000118022
0.000121314
0.000126952
0.000143193
0.000186701
0.00027377
0.000289708
0.000269237
0.000209934
0.000164881
0.000144613
0.000134561
0.000127816
0.000123091
0.000120231
0.000118143
0.000117312
0.000116975
0.000117103
0.000117323
0.000117392
0.000120729
0.000125612
0.000139085
0.000172414
0.000258665
0.000295743
0.000282306
0.000231384
0.000179179
0.00015091
0.000138411
0.000130759
0.000125233
0.000121466
0.000119211
0.000117533
0.000117032
0.000116922
0.000117088
0.000117287
0.000116893
0.000120247
0.000124534
0.000136214
0.000164213
0.000238794
0.000296121
0.000292743
0.000254294
0.000196288
0.000159343
0.000142784
0.000133927
0.000127778
0.000123139
0.000120282
0.000118233
0.000117188
0.000116828
0.0001169
0.000117084
0.000117208
0.000116547
0.000119878
0.000123724
0.000134299
0.000158065
0.000217384
0.000292548
0.000298444
0.000273733
0.000215801
0.000170437
0.000148013
0.000137431
0.000130526
0.000125374
0.000121524
0.000119283
0.000117475
0.000116958
0.000116727
0.000116905
0.000117095
0.000117109
0.000116323
0.000119627
0.000123133
0.000133477
0.000153575
0.000199626
0.000283688
0.000303993
0.000288894
0.000235818
0.00018405
0.000154697
0.000141235
0.000133543
0.000127879
0.000123425
0.000120371
0.00011846
0.000116989
0.000116822
0.000116729
0.000116907
0.000117116
0.000116983
0.000116193
0.000119445
0.000122785
0.000133209
0.000152091
0.000186407
0.000269568
0.000307075
0.000298449
0.000255153
0.000200142
0.000162922
0.000145697
0.000136688
0.000130599
0.000125738
0.00012185
0.000119458
0.000117794
0.000116702
0.000116775
0.000116778
0.000116908
0.000117129
0.000116842
0.000116154
0.000119333
0.000122643
0.0001332
0.000151772
0.000178137
0.00025333
0.000306333
0.000305066
0.000273792
0.000216864
0.000173461
0.000150881
0.000140156
0.000133401
0.000128292
0.000123988
0.000120661
0.000118786
0.00011734
0.00011657
0.00011683
0.000116861
0.000116925
0.000117133
0.000116692
0.000116209
0.00011929
0.000122656
0.000133511
0.000152121
0.000174532
0.000234976
0.000302693
0.000308862
0.000288196
0.000234612
0.000185804
0.000157293
0.000143961
0.000136416
0.000130985
0.000126461
0.000122567
0.000119893
0.000118352
0.000117153
0.00011667
0.000116891
0.000116928
0.000116932
0.000117107
0.000116547
0.000116351
0.000119316
0.000122824
0.000134117
0.000152674
0.000171768
0.000218454
0.000294049
0.000311754
0.000300271
0.000251109
0.00019997
0.000165081
0.000148273
0.000139599
0.000133837
0.000129123
0.000125053
0.000121509
0.000119389
0.000118223
0.00011734
0.000116974
0.000116982
0.000116868
0.00011679
0.000117002
0.000116409
0.000116577
0.000119409
0.000123193
0.000134997
0.000153373
0.000170089
0.000205374
0.00028047
0.000312607
0.000306464
0.000266943
0.000214708
0.000174651
0.000153275
0.000143038
0.000136774
0.00013199
0.000127763
0.000123996
0.0001209
0.00011917
0.000118475
0.000117991
0.000117671
0.000117479
0.000117173
0.000116842
0.000116939
0.000116288
0.000116891
0.000119589
0.000123833
0.000136371
0.000154123
0.000168789
0.000195605
0.000265347
0.00031209
0.000310697
0.0002815
0.000229178
0.000185361
0.000159176
0.000146831
0.000139807
0.000134973
0.000130726
0.000126876
0.000123459
0.00012075
0.000119358
0.000119004
0.000118846
0.000118629
0.000118265
0.000117646
0.000116952
0.00011691
0.000116199
0.000117284
0.000119841
0.000124759
0.000138191
0.000154776
0.000167809
0.000190197
0.000249034
0.000307823
0.000312792
0.000293289
0.000243018
0.000197075
0.000166124
0.000150772
0.000143118
0.000137975
0.000133945
0.000130112
0.000126573
0.00012354
0.000121114
0.000120094
0.000119807
0.000119553
0.000119063
0.000118446
0.000117803
0.000117033
0.000116917
0.000116159
0.000117724
0.000120197
0.000125934
0.000140291
0.000155391
0.000166865
0.000185016
0.000232494
0.000298587
0.000313354
0.000302615
0.000256751
0.000208926
0.000173886
0.000155465
0.000146386
0.000141132
0.000137298
0.000133697
0.000130164
0.000126964
0.000124389
0.000122421
0.000121621
0.000121334
0.000120807
0.000119679
0.00011853
0.000117813
0.00011711
0.000116947
0.000116169
0.000118191
0.000120685
0.000127592
0.000142417
0.000155693
0.000165711
0.000180441
0.000218004
0.000286579
0.000313887
0.000307044
0.000268091
0.000221349
0.00018275
0.000160281
0.000150027
0.0001443
0.000140735
0.000137433
0.000134227
0.000131069
0.000128351
0.000126451
0.000125161
0.000124919
0.000124576
0.000123577
0.00012094
0.000118756
0.000117727
0.000117279
0.000117024
0.000116247
0.000118693
0.000121309
0.00012995
0.000144341
0.000155694
0.000164464
0.00017639
0.000206299
0.000272521
0.000311635
0.000310495
0.000280416
0.000232499
0.000192204
0.000165953
0.000153524
0.000147511
0.000144146
0.000141268
0.000138643
0.000135927
0.000133278
0.000131321
0.000130252
0.000129748
0.000129935
0.000129183
0.00012739
0.000122718
0.000118886
0.00011773
0.000117569
0.000117107
0.000117099
0.000116401
0.000119176
0.000122124
0.000132617
0.000145706
0.000155119
0.000163198
0.000172838
0.000197089
0.000256074
0.000307483
0.000311025
0.000290662
0.000243533
0.000201954
0.000172035
0.000157328
0.00015048
0.000147474
0.000145108
0.000143249
0.000141441
0.000139349
0.000137662
0.000136758
0.000136437
0.000136028
0.000135464
0.000133473
0.000129566
0.000122826
0.000118879
0.000117972
0.000117454
0.000117876
0.000117102
0.000117186
0.000116653
0.000119634
0.000123222
0.000135398
0.000146566
0.000153991
0.000161684
0.000169473
0.00018918
0.000239325
0.000299406
0.000311263
0.00029954
0.000255183
0.000211367
0.000178977
0.000160973
0.000153396
0.000150539
0.000148807
0.000147885
0.000147285
0.000146555
0.000145537
0.000145261
0.000144985
0.000143803
0.000141818
0.000138776
0.000134314
0.000128102
0.000121945
0.000118511
0.000119567
0.000118182
0.000118882
0.000118798
0.000117613
0.000118001
0.000117106
0.000117284
0.00011698
0.000120071
0.000124784
0.000138164
0.000146914
0.00015272
0.000160031
0.00016655
0.000181969
0.000223307
0.000288232
0.000311351
0.000304109
0.000265102
0.000221907
0.000186048
0.000165066
0.00015578
0.00015329
0.000152159
0.00015242
0.000153148
0.000154388
0.000155185
0.000155739
0.000155492
0.000152925
0.000148714
0.000143488
0.000137317
0.000130633
0.000124338
0.000122003
0.000124312
0.000120149
0.000118651
0.000119736
0.000119406
0.000117669
0.00011812
0.000117126
0.000117361
0.000117351
0.00012053
0.000126899
0.000140558
0.000146695
0.000151606
0.000158166
0.000163801
0.000175565
0.000208324
0.000274096
0.000309541
0.000307655
0.000276661
0.000231385
0.000194352
0.000169541
0.000158106
0.000155392
0.000154914
0.000156506
0.000158898
0.000162285
0.000166142
0.000168601
0.000168999
0.000164059
0.000157969
0.000151063
0.000142902
0.000132931
0.000122201
0.000123196
0.000118823
0.000122575
0.000122673
0.000121248
0.000119076
0.000120148
0.000119645
0.00011763
0.000118257
0.000117168
0.000117415
0.000117758
0.000121139
0.000129673
0.000142369
0.00014647
0.000150955
0.00015593
0.000161103
0.000170002
0.00019679
0.000258193
0.000305436
0.000308351
0.000287827
0.000241654
0.000202877
0.000174534
0.000160646
0.000156984
0.00015662
0.000159553
0.000164298
0.000169994
0.000177919
0.000185014
0.00018736
0.000188857
0.000186492
0.000177205
0.000168363
0.00015393
0.000136074
0.000110728
0.000104059
0.000119364
0.000110794
0.000121968
0.000120084
0.000120748
0.000119068
0.000119954
0.000119343
0.000117651
0.000118318
0.000117263
0.000117494
0.000118194
0.000121961
0.000132645
0.000143516
0.000146575
0.000150084
0.000153353
0.00015845
0.000165302
0.000186866
0.000240409
0.000297505
0.000308956
0.000296694
0.000252607
0.00021166
0.000180563
0.000163506
0.000158166
0.000157869
0.000160959
0.000168142
0.000177178
0.000189144
0.00020528
0.000217097
0.000228117
0.000244926
0.000266734
0.000276274
0.000276267
0.000256211
0.000145779
0.000229586
9.93733e-05
0.000119947
0.000113219
0.000102067
0.000120221
0.000115889
0.000119808
0.000118759
0.000119281
0.000118744
0.000117808
0.000118265
0.000117436
0.000117694
0.000118601
0.000123047
0.000135779
0.000144352
0.000147082
0.000148938
0.000150869
0.000155701
0.000161393
0.000178638
0.000223638
0.0002858
0.000308941
0.000302028
0.000264242
0.000221239
0.000187437
0.000166764
0.000159232
0.000159214
0.000161697
0.000169652
0.000181745
0.000198063
0.000224848
0.000258767
0.000285414
0.000316944
0.000350037
0.000386478
0.000398473
0.000392344
0.000295887
0.000371997
0.000197236
0.000276609
0.000102707
0.000163411
0.000105796
9.58658e-05
0.000117481
0.000109747
0.0001182
0.000118367
0.000118203
0.000117993
0.000118075
0.000117251
8.28834e-05
8.20396e-05
0.000118928
0.000124409
0.000138938
0.00014506
0.000147513
0.000147487
0.000148529
0.000153057
0.000157997
0.000171914
0.000208871
0.000271474
0.000307389
0.000305922
0.000276472
0.000231215
0.000195817
0.00017002
0.00016024
0.000159925
0.000162926
0.000170052
0.000182792
0.000198477
0.000237819
0.000296133
0.000358789
0.000406552
0.000448456
0.000476483
0.000492426
0.000484513
0.000422675
0.000477018
0.000349767
0.000412929
0.000247908
0.000326238
0.000128677
0.000214499
9.81081e-05
0.000104266
0.000113538
0.000103408
0.000115823
9.759e-05
0.000115519
9.03956e-05
8.09658e-05
7.20835e-05
4.44879e-05
4.62716e-05
0.00011919
0.000126243
0.000142037
0.000145937
0.000147768
0.000146136
0.000146412
0.000150624
0.000154974
0.000166369
0.00019633
0.000255546
0.000302487
0.00030714
0.00028933
0.000243026
0.000203843
0.00017567
0.000162006
0.000160225
0.000163081
0.000170778
0.000183011
0.000199279
0.000241244
0.000317324
0.000418412
0.00050783
0.000551305
0.000558121
0.000551197
0.000548688
0.000507341
0.0005386
0.00046503
0.000503247
0.000394979
0.000451957
0.000298325
0.00037342
0.000173095
0.000264941
9.52311e-05
0.000130727
0.000108614
9.87692e-05
0.000102521
6.24162e-05
8.53618e-05
6.31186e-05
4.90872e-05
4.72753e-05
2.45447e-05
2.85304e-05
0.000119443
0.000128666
0.00014499
0.000147107
0.000147882
0.000144999
0.000144636
0.000148331
0.000152319
0.000161685
0.000186297
0.000238947
0.000293983
0.00030819
0.000297901
0.000255357
0.000213709
0.000182475
0.000164173
0.000159856
0.000162081
0.000170242
0.000183167
0.000201098
0.000240519
0.000320977
0.000456268
0.000577999
0.000595161
0.000585133
0.000574475
0.000550514
0.000547506
0.000552685
0.000530367
0.000543099
0.00049484
0.00052375
0.000435985
0.000483745
0.000347524
0.000417033
0.00022509
0.000316752
0.000105649
0.00017576
0.000102633
9.86878e-05
8.23736e-05
4.3829e-05
6.51518e-05
4.69072e-05
3.24106e-05
3.16367e-05
1.44131e-05
1.98323e-05
0.000119678
0.000131499
0.000147739
0.00014856
0.000148103
0.000144183
0.000143244
0.000146179
0.000149985
0.000157642
0.000177819
0.000222837
0.000282082
0.000308456
0.000303552
0.000269646
0.000224095
0.000191051
0.000166869
0.000159413
0.000160832
0.0001676
0.000181738
0.000200339
0.00023527
0.000316983
0.000461767
0.000612641
0.000611479
0.000585662
0.000570842
0.00055364
0.000551562
0.000558702
0.000549193
0.000555425
0.00053902
0.000548321
0.000516164
0.000536943
0.000471367
0.000508732
0.00039447
0.000456652
0.000279732
0.000368311
0.000133141
0.000234253
0.000101184
0.000111364
7.3601e-05
3.14155e-05
5.34451e-05
3.78155e-05
2.52848e-05
2.74513e-05
8.04037e-06
1.72326e-05
0.000119921
0.000134636
0.00015054
0.000150399
0.000148418
0.000143628
0.000142171
0.000144237
0.000147908
0.000154196
0.000170609
0.000208468
0.000266592
0.000306481
0.000307082
0.000284953
0.000237176
0.0001992
0.000171864
0.000160497
0.000160018
0.000164961
0.000178108
0.000197655
0.000226376
0.000299499
0.000453041
0.000626331
0.000629195
0.000582689
0.000562618
0.000566295
0.000594062
0.000567474
0.00059867
0.000563862
0.00058355
0.000552787
0.000572642
0.000535319
0.000561414
0.000503295
0.000537826
0.000440008
0.000496886
0.000338025
0.000422449
0.000182623
0.000302792
0.000104641
0.000143798
8.66479e-05
3.11114e-05
5.97635e-05
4.80116e-05
3.20634e-05
4.34508e-05
2.12921e-05
8.36731e-05
0.000120258
0.000138194
0.000153569
0.000152485
0.000148772
0.000143254
0.000141309
0.000142579
0.000146044
0.000151257
0.000164577
0.000195951
0.000249367
0.000300884
0.00030995
0.000296371
0.000251749
0.000209621
0.000179055
0.000162578
0.000159487
0.000162723
0.000174073
0.000193192
0.000219274
0.000274282
0.000420813
0.000627111
0.00064665
0.000580135
0.000547019
0.00055136
0.000578126
0.000628712
0.000620363
0.00061214
0.000632496
0.0006027
0.000631853
0.000588313
0.000619768
0.000570406
0.000606577
0.000544831
0.000585377
0.00049109
0.000550591
0.000403394
0.00048702
0.000259262
0.00038197
0.000122657
0.000213736
0.000109007
5.93463e-05
9.62193e-05
9.13422e-05
0.000101675
0.000103779
0.000183785
0.000218884
0.000120824
0.000142102
0.000156633
0.000154725
0.000149314
0.00014307
0.00014064
0.00014123
0.000144409
0.000148727
0.000159672
0.00018555
0.000232514
0.000290041
0.000310963
0.000305025
0.000267749
0.000221344
0.000188575
0.000165169
0.000158982
0.000160627
0.000169532
0.000187136
0.000212804
0.000253748
0.000366531
0.000614845
0.000661733
0.000594412
0.000542319
0.000528182
0.000542208
0.000589578
0.000519731
0.00062692
0.000580937
0.000643176
0.00063997
0.000643321
0.000650032
0.000637279
0.000650884
0.000623349
0.000644234
0.000603446
0.000637777
0.000556736
0.000616991
0.000482881
0.000565315
0.000357487
0.000478061
0.000176076
0.000328333
0.000152235
0.000108457
0.000135999
0.000139101
0.000186357
0.000156881
0.000475153
0.000503819
0.000122396
0.000146458
0.000159258
0.000156918
0.000150004
0.000143009
0.000140067
0.000140246
0.000142994
0.000146571
0.000155663
0.00017693
0.000216943
0.000274315
0.000310411
0.000309634
0.000286189
0.00023665
0.000198419
0.000169774
0.000159919
0.000159455
0.000165177
0.00018066
0.00020492
0.000238747
0.00031879
0.000555722
0.000676712
0.000618867
0.00057068
0.000547382
0.000506143
0.00045003
0.000387307
0.000485206
0.000378161
0.000561521
0.000452779
0.000648472
0.000626039
0.000654252
0.000648144
0.000652178
0.000653899
0.000649335
0.00065113
0.000645606
0.000648633
0.000628714
0.000651089
0.000573172
0.000638753
0.000470625
0.000579063
0.000296947
0.000459847
0.000268291
0.000181768
0.000250918
0.000275807
0.000400453
0.000361875
0.000700588
0.000559008
0.00013
0.000152047
0.00016135
0.000158612
0.000150436
0.000143075
0.000139601
0.000139389
0.000141849
0.000144838
0.00015246
0.000169898
0.000203443
0.000256564
0.000306389
0.000313684
0.000299786
0.000253927
0.00021049
0.000178712
0.000161903
0.000159342
0.00016222
0.000174839
0.000196146
0.000226527
0.000279477
0.0004574
0.000678614
0.000655849
0.000604217
0.000593763
0.000555321
0.000361689
0.000296708
0.000281046
0.00032602
0.000248674
0.000414004
0.000285481
0.000613705
0.000534464
0.000639178
0.000590299
0.000645842
0.00061664
0.000646567
0.00062919
0.000648031
0.000636521
0.0006553
0.000647586
0.000646289
0.000659187
0.000581825
0.00065328
0.000447684
0.000581828
0.000438052
0.000389083
0.000442416
0.000483156
0.000559372
0.00055571
0.0006272
0.000466816
0.000166772
0.000162669
0.000159411
0.000150397
0.000143063
0.000139288
0.000138721
0.000140846
0.000143566
0.000150127
0.000164479
0.000192291
0.000239394
0.000296021
0.000315812
0.000309671
0.00027306
0.000224584
0.000190169
0.000164742
0.000159608
0.000160384
0.000169621
0.000187634
0.000214959
0.000253402
0.000372377
0.000649217
0.000681504
0.000648424
0.000645162
0.000630552
0.00045102
0.000239935
0.000303915
0.000228393
0.000232494
0.000217958
0.000191777
0.000266974
0.000195133
0.000499281
0.000378879
0.000553305
0.00045806
0.000583435
0.000510578
0.0006031
0.000543657
0.000624208
0.000575506
0.000646063
0.000610862
0.000663732
0.000644174
0.000658899
0.000669095
0.000580889
0.000662345
0.000583613
0.000558343
0.000593933
0.00061565
0.000558648
0.000661253
0.00028076
0.000384952
0.000171228
0.000159668
0.000150073
0.000142949
0.000139111
0.00013835
0.000140085
0.000142605
0.000148588
0.000160774
0.00018321
0.00022384
0.000279449
0.000315021
0.00031476
0.000293254
0.0002432
0.00020233
0.000170775
0.000160899
0.000159787
0.000164992
0.000179887
0.000203972
0.00023565
0.000309918
0.000544621
0.000690538
0.000693138
0.000718352
0.000766529
0.000640522
0.000360027
0.000471316
0.000218626
0.000251814
0.000192743
0.000200677
0.000166431
0.000166445
0.000193758
0.000155973
0.000349071
0.000261674
0.000422217
0.000340178
0.00047271
0.000406389
0.000516367
0.000463103
0.000558957
0.000510804
0.000602302
0.00055446
0.000643865
0.000598565
0.000674914
0.000645306
0.000665512
0.000679687
0.000670728
0.00065242
0.00067238
0.000668495
0.000656653
0.00075919
0.000721065
0.000160742
0.000357696
0.000164881
0.000150202
0.000142956
0.000139078
0.000138272
0.000139669
0.000142015
0.000147797
0.000158523
0.000176266
0.000210418
0.000262124
0.000310531
0.000319246
0.000307363
0.000263396
0.000217677
0.000182921
0.000162774
0.000160465
0.000162232
0.000173598
0.00019382
0.000220918
0.000269488
0.000428757
0.000679846
0.000714342
0.000763144
0.000888124
0.000826881
0.00060649
0.000320118
0.000400792
0.000191809
0.000211598
0.000175801
0.000184852
0.000149159
0.000157863
0.00016949
0.000143689
0.000269691
0.000214751
0.000345461
0.000292247
0.000412687
0.000365427
0.00046569
0.000420051
0.000507261
0.000463046
0.000548335
0.000502031
0.000595649
0.000543929
0.000648305
0.000594109
0.000682064
0.000645891
0.000668502
0.000682707
0.000680514
0.000676217
0.000692683
0.000687623
0.000680155
0.000678121
0.000680777
0.000679268
0.000700569
0.000709372
0.000734656
0.000749665
0.000191653
0.000316833
0.000155407
0.000143674
0.000139328
0.000138411
0.000139596
0.000141907
0.000147696
0.000157397
0.000171553
0.000199549
0.000246177
0.00029911
0.000321023
0.000316656
0.000285149
0.000236017
0.000197594
0.000167321
0.000161722
0.000161411
0.000168806
0.000185188
0.000208523
0.000243302
0.000342366
0.000609235
0.000718383
0.000775672
0.000936409
0.00100148
0.000830647
0.000429655
0.000585697
0.000256705
0.000338649
0.000176099
0.000181645
0.000167658
0.000172914
0.00014436
0.000154825
0.00015342
0.000135492
0.000244906
0.000197181
0.000316547
0.000271022
0.000377115
0.000337583
0.000425558
0.000396613
0.000467196
0.00044377
0.000504708
0.000480194
0.000546539
0.000528531
0.000513914
0.00062171
0.000593971
0.000549938
0.000570515
0.000646628
0.00066901
0.000646931
0.000621302
0.000669068
0.000683857
0.000695137
0.000677497
0.000665717
0.000667856
0.00067697
0.000754502
0.000682531
0.000724683
0.000714984
0.000735512
0.000193847
0.000574852
0.000582645
0.000297557
0.000150639
0.000140719
0.000139037
0.000139782
0.000142223
0.000148009
0.000156996
0.000168988
0.000191403
0.000232402
0.000283852
0.000319504
0.000321392
0.000304808
0.000258234
0.000213382
0.000178585
0.000163222
0.000162083
0.000165607
0.000178344
0.000198035
0.000224334
0.000286572
0.000464294
0.000698466
0.000778231
0.00094154
0.00111085
0.00102878
0.00074751
0.000365153
0.000479545
0.000204505
0.000263088
0.000165983
0.000167812
0.000161405
0.000163922
0.000142691
0.000152902
0.000148241
0.00013411
0.000229975
0.000187501
0.000303734
0.000271308
0.000371643
0.000345516
0.000425933
0.000407934
0.000464485
0.000450906
0.000502849
0.000492787
0.000484609
0.000476638
0.000535029
0.000522634
0.000518953
0.000508276
0.000595026
0.000570822
0.000537082
0.000551612
0.000621814
0.000648219
0.00062177
0.000595224
0.000647629
0.000681136
0.000692679
0.000664063
0.000645891
0.000643608
0.000664171
0.000751628
0.000751856
0.000710007
0.000728048
0.000354341
0.000224082
0.000205928
0.000727866
0.000622846
0.000149573
0.000141038
0.000140621
0.000143275
0.000149226
0.000157138
0.000168071
0.000186412
0.000221152
0.000269502
0.000313795
0.000327298
0.000318205
0.000281327
0.00023334
0.00019353
0.000167746
0.000163529
0.000164441
0.000173332
0.00018957
0.000210268
0.000250339
0.000362778
0.000620633
0.000761574
0.000930784
0.00113066
0.00119451
0.0010055
0.000494542
0.000675141
0.00026287
0.000374254
0.000173133
0.000193734
0.00015294
0.000154856
0.000154777
0.000153266
0.000143744
0.000149401
0.000141836
0.000133958
0.00022908
0.000183514
0.000312928
0.000270188
0.000385011
0.000353086
0.00043562
0.000415298
0.00046978
0.00046287
0.000456596
0.000450232
0.000499032
0.000490574
0.000482882
0.000475899
0.00052579
0.000516056
0.000512954
0.00050384
0.000571594
0.000552831
0.000527709
0.000538815
0.000594956
0.000621589
0.000594244
0.000571499
0.000620188
0.000668948
0.000680606
0.000642138
0.000617953
0.000615619
0.000643137
0.00073901
0.000734581
0.000696168
0.000711946
0.000374939
0.000228381
0.000201748
0.000715233
0.000657924
0.000151046
0.000143151
0.000145111
0.000151427
0.000158215
0.000168144
0.000184298
0.000213514
0.000257057
0.00030251
0.000327751
0.00032668
0.00030411
0.000257019
0.000211097
0.000178362
0.000166049
0.000165464
0.000170621
0.000183404
0.000200402
0.00022609
0.000295301
0.000473849
0.000713159
0.000884923
0.00112245
0.00129159
0.00120797
0.000843653
0.000385908
0.000527758
0.000188188
0.000260696
0.00015819
0.00016773
0.000142355
0.000141898
0.000147006
0.000144361
0.000143264
0.000144263
0.000135483
0.000134071
0.000221082
0.000168491
0.000310743
0.000260775
0.000387012
0.000348463
0.000443498
0.000436128
0.000426838
0.0004158
0.000469651
0.00046407
0.000459112
0.000454327
0.000495147
0.000487319
0.000480611
0.000474819
0.000517733
0.000506948
0.000508137
0.000498084
0.000553232
0.000539536
0.000517837
0.00052835
0.000570496
0.000592859
0.000568787
0.000552431
0.000590574
0.000648751
0.000659831
0.000614599
0.000587797
0.000585269
0.000616154
0.000719002
0.00071363
0.000674
0.000687542
0.000363398
0.00022765
0.000217104
0.00070285
0.000584353
0.000154315
0.000148701
0.000153652
0.000161257
0.000169421
0.000184148
0.000209923
0.000248141
0.00029167
0.000325499
0.000334244
0.000321885
0.000282458
0.000232768
0.000194423
0.000172622
0.000167191
0.000169949
0.000179698
0.000193337
0.000210308
0.000252931
0.000363168
0.000606331
0.000807876
0.00108559
0.00130247
0.00135575
0.0011247
0.000514043
0.000711921
0.000246179
0.000372411
0.000164429
0.000186743
0.000144647
0.000150864
0.000134265
0.000132243
0.000140006
0.000137112
0.000142463
0.000140167
0.000133876
0.00013244
0.000208608
0.000160708
0.000300945
0.000250025
0.000397183
0.000359704
0.000449359
0.000443354
0.000435411
0.000424365
0.000470234
0.000466697
0.000463928
0.000461516
0.000489996
0.000483638
0.000478308
0.000474468
0.0005074
0.000499022
0.000497531
0.000490527
0.000538986
0.000527613
0.000504768
0.000516351
0.000550521
0.000566126
0.000547562
0.000537113
0.000562681
0.00062249
0.000632936
0.000584273
0.000558952
0.000555683
0.000585893
0.000694989
0.000693641
0.00064523
0.000658606
0.000313768
0.000205335
0.000219944
0.000694165
0.000484476
0.00016041
0.000157652
0.000164402
0.000173351
0.000185429
0.000209434
0.000244179
0.000284305
0.000320292
0.000339056
0.00033456
0.000307023
0.00026027
0.000214381
0.000186863
0.000171754
0.000170854
0.000178398
0.000189133
0.000201815
0.000225471
0.000293307
0.000467637
0.000702439
0.000983942
0.00128431
0.00144581
0.00134203
0.00087882
0.000357725
0.000522816
0.000188365
0.000234387
0.000148417
0.000163757
0.000134606
0.000140043
0.000128845
0.000127092
0.0001349
0.000131803
0.000138123
0.000135003
0.000134473
0.000130239
0.000201309
0.000160458
0.000313491
0.000263966
0.000428241
0.000412978
0.000370479
0.000393021
0.000458865
0.000455151
0.000449392
0.000440646
0.000472196
0.000471199
0.000471054
0.000471207
0.000484213
0.000479605
0.000476351
0.000474888
0.000493626
0.000488787
0.000484058
0.000481862
0.000525525
0.000513436
0.000487619
0.000500458
0.000534
0.000543515
0.000529739
0.000522177
0.000538748
0.000591999
0.000602148
0.000553986
0.000533682
0.00052908
0.000554823
0.000668591
0.000675955
0.000613427
0.000626704
0.000297945
0.00017371
0.000216099
0.000688448
0.000432454
0.000169252
0.000169288
0.000178547
0.00019021
0.000210894
0.000244061
0.000282514
0.000318487
0.000342475
0.000348422
0.000331477
0.000291481
0.000242524
0.000206009
0.000184229
0.000173089
0.000178916
0.000187717
0.000197566
0.000209256
0.000249203
0.000356435
0.000577708
0.000846435
0.00121099
0.00145634
0.00148748
0.00118016
0.000473284
0.000682309
0.000225714
0.000319031
0.00016553
0.000190852
0.000139789
0.000149539
0.000128834
0.000133643
0.000125242
0.000123469
0.000130097
0.000127834
0.000135507
0.000131034
0.000140653
0.000135038
0.000216306
0.000172639
0.000346394
0.000319778
0.000285532
0.000444014
0.000425833
0.000383688
0.000404873
0.00047087
0.000469024
0.000464514
0.000456326
0.000475223
0.000476798
0.000479122
0.00048147
0.000477582
0.000474737
0.000473882
0.000474741
0.000476303
0.000476193
0.000467066
0.000472299
0.000509292
0.000494789
0.000466282
0.00047988
0.000517749
0.00052443
0.000512349
0.000504186
0.000518409
0.000559229
0.000568456
0.000525835
0.000511965
0.000505787
0.000524604
0.000642756
0.000660268
0.00058056
0.000595769
0.000344508
0.000208616
0.000397865
0.000554646
0.000428448
0.00018218
0.000185432
0.000198616
0.000216796
0.000246798
0.000283732
0.000319853
0.000347608
0.000359072
0.000349982
0.000320383
0.000274372
0.000231345
0.000203923
0.000181829
0.000179923
0.000188192
0.000196586
0.000202422
0.000221913
0.00028582
0.000448525
0.000702127
0.00106734
0.00142777
0.00157263
0.00141554
0.000845808
0.0002957
0.000456042
0.000190579
0.00022167
0.000152857
0.000168242
0.000135468
0.000142247
0.000124968
0.000129863
0.000119552
0.000118171
0.000125431
0.000122374
0.000141023
0.000135808
0.000157214
0.00015625
0.000231676
0.000184834
0.000357709
0.000330358
0.000282292
0.000262415
0.00038517
0.000364696
0.000322774
0.000343242
0.000482681
0.000458166
0.000429498
0.000406216
0.00047699
0.000480681
0.000485072
0.000456656
0.000468632
0.000467331
0.000467667
0.000470418
0.000454805
0.000461857
0.000446721
0.000457997
0.00048816
0.00047095
0.000439984
0.000454558
0.000498441
0.000506077
0.000492054
0.000481093
0.000499165
0.000526526
0.000534123
0.000500152
0.000491757
0.000483699
0.00049613
0.000618011
0.000643714
0.000548385
0.000566777
0.000447661
9.11071e-05
0.000303428
0.000490241
0.000448306
0.000201864
0.000209788
0.000229551
0.000256944
0.000290688
0.000326449
0.000357406
0.000374574
0.000371808
0.000347789
0.000305449
0.000260661
0.000226283
0.000201443
0.000184388
0.000189559
0.00019745
0.000201416
0.000207435
0.000242115
0.000345368
0.000559748
0.000893362
0.00132352
0.00158655
0.00157659
0.00116767
0.000377788
0.000594227
0.000219745
0.000265714
0.000170862
0.000190521
0.000146111
0.000156535
0.000131954
0.000138679
0.000119793
0.000125044
0.000116209
0.000113566
0.000128249
0.000121716
0.000161225
0.000156146
0.000199124
0.000202341
0.000246102
0.000219377
0.000207407
0.000302253
0.000280746
0.000241392
0.000229919
0.000329947
0.0003117
0.000276389
0.000293201
0.000420947
0.000392467
0.000368869
0.00034911
0.000475509
0.000466035
0.000422107
0.000386679
0.000455206
0.00045515
0.000458506
0.000464298
0.000427721
0.000441742
0.00042147
0.000437969
0.000461499
0.000441796
0.000407746
0.000423696
0.000473899
0.000485217
0.000466617
0.000452231
0.000477915
0.000496067
0.000503183
0.000475919
0.000469316
0.000460556
0.000470478
0.00059366
0.000530325
0.000518128
0.000539607
0.000397799
6.24575e-05
0.000229022