/*--------------------------------*- C++ -*----------------------------------*\
  =========                 |
  \\      /  F ield         | OpenFOAM: The Open Source CFD Toolbox
   \\    /   O peration     | Website:  https://openfoam.org
    \\  /    A nd           | Version:  dev
     \\/     M anipulation  |
\*---------------------------------------------------------------------------*/
FoamFile
{
    version     2.0;
    format      ascii;
    class       volScalarField;
    location    "2500";
    object      CO2;
}
// * * * * * * * * * * * * * * * * * * * * * * * * * * * * * * * * * * * * * //

dimensions      [0 0 0 0 0 0 0];

internalField   nonuniform List<scalar> 
9848
(
2.83896e-24
9.48712e-24
5.23194e-24
2.0289e-23
2.24798e-23
5.7155e-24
2.50722e-23
5.49854e-23
2.52996e-23
3.789e-24
6.29792e-23
1.17214e-22
6.99303e-23
1.74815e-23
1.92024e-24
1.04523e-22
1.90128e-22
1.55317e-22
5.92533e-23
1.1727e-23
7.32125e-25
7.89526e-23
4.23292e-22
3.60059e-22
1.7492e-22
4.61421e-23
5.13267e-24
1.2203e-25
2.74729e-22
7.38232e-22
6.98778e-22
3.74173e-22
1.47014e-22
3.17627e-23
2.05087e-24
3.83547e-26
4.01403e-22
1.14738e-21
1.21479e-21
8.57647e-22
3.59839e-22
1.05351e-22
1.41721e-23
5.72233e-25
2.08076e-26
3.83303e-22
1.71498e-21
2.09381e-21
1.74758e-21
8.10142e-22
2.81088e-22
5.85614e-23
5.73877e-24
3.03665e-25
1.0937e-26
3.36376e-22
1.53172e-21
3.49094e-21
3.09949e-21
1.74173e-21
5.8455e-22
1.49058e-22
1.88104e-23
2.36476e-24
1.15268e-25
4.23177e-27
7.82983e-22
1.70829e-21
5.9018e-21
6.41779e-21
3.31495e-21
1.44564e-21
4.89883e-22
7.51766e-23
8.08619e-24
5.95121e-25
4.28214e-26
1.32611e-27
5.58816e-22
4.18326e-21
6.87976e-21
1.05887e-20
7.27981e-21
3.23511e-21
1.17076e-21
3.26873e-22
3.89504e-23
3.05571e-24
2.56625e-25
1.40361e-26
1.74584e-28
9.32458e-22
5.80312e-21
1.27845e-20
1.89375e-20
1.36945e-20
5.77306e-21
2.33684e-21
7.80735e-22
1.77552e-22
2.25197e-23
1.2794e-24
7.96831e-26
4.37797e-27
4.20745e-29
1.69434e-21
9.53968e-21
1.72729e-20
2.78934e-20
2.40698e-20
1.30334e-20
4.31299e-21
1.8452e-21
4.90153e-22
9.14911e-23
8.84706e-24
5.01738e-25
2.67838e-26
1.03631e-27
1.69289e-29
3.02816e-21
8.44963e-21
2.87893e-20
4.23076e-20
4.15662e-20
2.70209e-20
1.16907e-20
3.48115e-21
1.25244e-21
2.38512e-22
3.56833e-23
3.24718e-24
1.17193e-25
5.93579e-27
2.64201e-28
7.06757e-30
2.02668e-21
2.07971e-20
4.60446e-20
6.73648e-20
6.8556e-20
4.58739e-20
2.35906e-20
9.03966e-21
2.72002e-21
7.28847e-22
9.49665e-23
1.57312e-23
8.80851e-25
4.95744e-26
2.21181e-27
8.08249e-29
4.80396e-29
1.23679e-21
2.18974e-20
6.83975e-20
1.02016e-19
1.0617e-19
7.74892e-20
3.85069e-20
1.8444e-20
6.22791e-21
1.65116e-21
3.306e-22
5.3991e-23
6.15611e-24
2.6777e-25
1.29004e-26
8.34355e-28
9.19614e-28
1.45595e-27
3.1809e-21
2.45024e-20
8.72744e-20
1.21004e-19
1.61751e-19
1.44476e-19
7.37918e-20
2.96687e-20
1.29884e-20
3.9818e-21
9.25947e-22
1.70635e-22
2.37297e-23
2.14375e-24
4.85e-26
5.08903e-27
1.19817e-26
2.94415e-26
3.37278e-26
3.87297e-21
1.57985e-20
6.20673e-20
1.74396e-19
2.82493e-19
2.45862e-19
1.47915e-19
6.64715e-20
2.02085e-20
8.77192e-21
2.17559e-21
3.86713e-22
5.34612e-23
9.21207e-24
4.34129e-25
4.76272e-26
1.34864e-25
4.40557e-25
8.13326e-25
1.1075e-24
5.69271e-21
2.23628e-20
6.5628e-20
2.67415e-19
3.66764e-19
3.84458e-19
2.5738e-19
1.16602e-19
4.91612e-20
1.59371e-20
5.00129e-21
1.3685e-21
1.9647e-22
2.79667e-23
2.90719e-24
4.74643e-25
1.43039e-24
4.78016e-24
1.37431e-23
2.27375e-23
2.65506e-23
3.71399e-21
3.70639e-20
1.07703e-19
2.9216e-19
5.62356e-19
5.21892e-19
4.22602e-19
2.33751e-19
7.56598e-20
3.09454e-20
1.0336e-20
3.16482e-21
5.69165e-22
6.94833e-23
7.96139e-24
3.53761e-24
1.39777e-23
4.64734e-23
1.479e-22
3.68236e-22
5.36874e-22
4.95341e-22
1.13806e-20
3.946e-20
2.0212e-19
2.76536e-19
6.94969e-19
8.07199e-19
6.75977e-19
3.72167e-19
1.84547e-19
4.7196e-20
1.88946e-20
6.32274e-21
1.15364e-21
2.75025e-22
3.71986e-23
2.18725e-23
1.14117e-22
5.20088e-22
1.71599e-21
3.82636e-21
8.86686e-21
8.98461e-21
9.11229e-21
3.8317e-21
7.33129e-20
1.7158e-19
5.98357e-19
7.83824e-19
1.18473e-18
9.99533e-19
6.71047e-19
3.23717e-19
9.12253e-20
3.27185e-20
1.26389e-20
3.0757e-21
5.09987e-22
9.7875e-23
1.0336e-22
8.40321e-22
4.16104e-21
1.56164e-20
4.96288e-20
1.14033e-19
1.7256e-19
1.74258e-19
1.13388e-19
1.04137e-20
4.54435e-20
2.96659e-19
5.55065e-19
1.08673e-18
2.02693e-18
1.51481e-18
1.04786e-18
5.51584e-19
2.2187e-19
6.66311e-20
2.33204e-20
5.27063e-21
1.30884e-21
2.46636e-22
6.28151e-22
4.80712e-21
3.33181e-20
1.66344e-19
5.43119e-19
1.16379e-18
2.32994e-18
3.3236e-18
3.09924e-18
1.30221e-18
1.19883e-20
5.60208e-20
3.69292e-19
6.67776e-19
1.82992e-18
2.65332e-18
2.53773e-18
1.7113e-18
8.12408e-19
3.74363e-19
1.24699e-19
4.43196e-20
1.49785e-20
3.64992e-21
9.11062e-22
2.5198e-21
2.94777e-20
2.43446e-19
1.12098e-18
5.10223e-18
1.31135e-17
1.9919e-17
3.64126e-17
4.33042e-17
3.42761e-17
1.56769e-17
3.05963e-20
6.43519e-20
4.65719e-19
1.08578e-18
1.7564e-18
3.33067e-18
3.98092e-18
2.73379e-18
1.63437e-18
5.5027e-19
2.41156e-19
8.42745e-20
2.69209e-20
8.63858e-21
2.39589e-21
1.18619e-20
1.33839e-19
1.35036e-18
9.00549e-18
3.44062e-17
1.20182e-16
2.92241e-16
3.32067e-16
4.58e-16
5.29084e-16
3.94828e-16
1.44187e-16
1.75657e-20
1.95198e-19
5.26441e-19
1.00599e-18
1.9234e-18
4.12195e-18
5.66226e-18
4.27756e-18
2.4473e-18
1.26623e-18
3.98807e-19
1.43412e-19
4.82768e-20
1.79401e-20
6.31427e-21
4.15832e-20
6.02696e-19
5.91469e-18
5.10846e-17
2.79871e-16
8.0539e-16
2.25179e-15
4.31417e-15
5.86849e-15
6.26857e-15
4.91606e-15
3.23301e-15
8.98628e-16
1.58368e-20
2.66157e-19
7.2786e-19
1.6426e-18
3.19343e-18
4.16198e-18
7.57543e-18
6.59447e-18
4.0459e-18
1.9235e-18
9.40678e-19
2.07613e-19
1.01031e-19
3.2472e-20
1.24932e-20
1.27276e-19
2.16841e-18
2.7779e-17
2.7117e-16
1.77846e-15
7.23878e-15
2.03625e-14
4.63707e-14
7.60966e-14
9.0679e-14
8.19287e-14
5.82129e-14
3.20808e-14
7.93103e-15
8.61559e-21
1.91018e-19
9.35309e-19
1.68074e-18
3.52012e-18
5.7315e-18
9.94027e-18
9.11634e-18
6.38599e-18
3.20479e-18
1.44279e-18
4.14518e-19
1.4693e-19
6.59147e-20
2.97858e-20
3.89099e-19
6.26284e-18
1.03954e-16
1.14557e-15
1.0417e-14
5.89401e-14
1.72815e-13
4.43074e-13
8.40973e-13
1.1652e-12
1.20792e-12
9.48564e-13
5.84676e-13
2.73014e-13
5.60081e-14
2.81839e-20
2.05071e-19
9.535e-19
1.94748e-18
4.80995e-18
8.44032e-18
1.11483e-17
1.27293e-17
8.96123e-18
4.91266e-18
2.57352e-18
1.03689e-18
2.6508e-19
1.1012e-19
4.9875e-20
6.95199e-19
2.33575e-17
3.44138e-16
4.96959e-15
5.3634e-14
3.75881e-13
1.2292e-12
3.69099e-12
7.9041e-12
1.25965e-11
1.50353e-11
1.35202e-11
9.24843e-12
4.91785e-12
1.92715e-12
3.0805e-13
2.15523e-20
2.54156e-19
7.63551e-19
2.264e-18
6.12329e-18
9.23899e-18
1.50168e-17
1.63244e-17
1.51578e-17
8.29568e-18
4.04662e-18
1.87482e-18
6.53147e-19
1.99323e-19
8.16924e-20
8.92928e-19
4.28074e-17
1.26162e-15
1.68674e-14
2.41236e-13
2.08795e-12
7.50733e-12
2.51463e-11
6.38516e-11
1.14557e-10
1.56737e-10
1.62213e-10
1.27087e-10
7.52872e-11
3.36932e-11
1.04234e-11
1.09275e-12
1.01824e-19
4.41458e-19
7.69695e-19
2.89525e-18
6.34852e-18
1.46118e-17
2.2047e-17
2.52246e-17
2.069e-17
1.4602e-17
6.79182e-18
3.01004e-18
1.24733e-18
3.67427e-19
1.32595e-19
8.81416e-19
5.07684e-17
2.57885e-15
6.75424e-14
8.76112e-13
9.29077e-12
4.53606e-11
1.40296e-10
4.20635e-10
8.8423e-10
1.36184e-09
1.61305e-09
1.45641e-09
9.93436e-10
5.00175e-10
1.77691e-10
3.48819e-11
1.70594e-12
3.44599e-19
3.57706e-19
1.53909e-18
3.82294e-18
5.82521e-18
1.40998e-17
2.71836e-17
3.3937e-17
2.96495e-17
2.10336e-17
1.15249e-17
4.76195e-18
2.17712e-18
6.69006e-19
2.31275e-19
7.32377e-19
4.86884e-17
2.93454e-15
1.50269e-13
3.62585e-12
3.39215e-11
1.74103e-10
6.54006e-10
2.25936e-09
5.55617e-09
9.92072e-09
1.32243e-08
1.36742e-08
1.08064e-08
6.33743e-09
2.58646e-09
5.68169e-10
3.76611e-11
1.54594e-13
2.0888e-12
2.48417e-18
1.94601e-18
1.53922e-18
4.19382e-18
7.23172e-18
1.48342e-17
3.7512e-17
4.35152e-17
4.20716e-17
3.09238e-17
1.95643e-17
8.6029e-18
3.27621e-18
1.4061e-18
3.98467e-19
5.67697e-19
3.71268e-17
2.76094e-15
1.6506e-13
7.90894e-12
1.41699e-10
8.49732e-10
2.69617e-09
1.01392e-08
2.83025e-08
5.84535e-08
8.99843e-08
1.0474e-07
9.54072e-08
6.5788e-08
3.19129e-08
8.5164e-09
1.90513e-11
1.53151e-11
9.54899e-11
2.12949e-13
3.61448e-12
1.56772e-17
1.17727e-17
6.55728e-18
7.29102e-18
1.28261e-17
1.79598e-17
4.98894e-17
5.50452e-17
6.19419e-17
4.52808e-17
3.06935e-17
1.45175e-17
7.10097e-18
2.31205e-18
7.65961e-19
4.87558e-19
2.24401e-17
2.08767e-15
1.5309e-13
8.73416e-12
3.06845e-10
3.45019e-09
1.03286e-08
3.82392e-08
1.1956e-07
2.78296e-07
4.92656e-07
6.60316e-07
6.8183e-07
5.53433e-07
3.24728e-07
1.09598e-07
2.63369e-09
1.22164e-08
4.71218e-10
4.72975e-09
2.71335e-09
2.91234e-11
1.91101e-10
4.12957e-13
7.25717e-12
5.72963e-17
6.02045e-17
3.19425e-17
1.28352e-17
1.74834e-17
2.95142e-17
5.69863e-17
7.86645e-17
8.64931e-17
7.26322e-17
4.30283e-17
2.50289e-17
1.06633e-17
4.26652e-18
1.45578e-18
5.92715e-19
1.13967e-17
1.15998e-15
1.09997e-13
7.9619e-12
3.39827e-10
6.04053e-09
3.32178e-08
1.24551e-07
4.19967e-07
1.09131e-06
2.16431e-06
3.33153e-06
3.96893e-06
3.70855e-06
2.68406e-06
1.17666e-06
5.06972e-08
2.0967e-07
2.37532e-08
1.11368e-09
1.29961e-08
5.9897e-09
5.98804e-11
3.98453e-10
7.70319e-13
1.37354e-11
2.02805e-16
4.17008e-16
2.16282e-16
5.20879e-17
2.53511e-17
3.39543e-17
6.23441e-17
1.14869e-16
1.08937e-16
1.02628e-16
6.9571e-17
3.90066e-17
1.99461e-17
7.34269e-18
3.07263e-18
9.77271e-19
5.98718e-18
5.21241e-16
6.00326e-14
5.61686e-12
3.52851e-10
8.92088e-09
9.45173e-08
3.82214e-07
1.26163e-06
3.49958e-06
7.76468e-06
1.33063e-05
1.81351e-05
1.95682e-05
1.68599e-05
1.02096e-05
7.56858e-07
2.76393e-06
1.07001e-07
4.35129e-07
5.89036e-08
2.36219e-09
2.91826e-08
1.27192e-08
1.16732e-10
7.94303e-10
1.32128e-12
2.39793e-11
1.2497e-15
2.63225e-15
1.55931e-15
3.86974e-16
7.12961e-17
4.55891e-17
7.27118e-17
1.40585e-16
1.61607e-16
1.49282e-16
1.05767e-16
6.13918e-17
3.34551e-17
1.34592e-17
5.0729e-18
1.87948e-18
2.94914e-18
2.59715e-16
2.71983e-14
3.07462e-12
2.66914e-10
8.3539e-09
1.32202e-07
7.4433e-07
3.30567e-06
9.54338e-06
2.21384e-05
4.2266e-05
6.30624e-05
7.7151e-05
7.68531e-05
6.23712e-05
9.21875e-06
3.08223e-05
1.62033e-06
5.72396e-06
2.48201e-07
9.71694e-07
1.3046e-07
4.75191e-09
6.14392e-08
2.53852e-08
2.1117e-10
1.48269e-09
2.0548e-12
3.81917e-11
7.438e-15
1.50619e-14
1.06718e-14
2.00668e-15
3.74526e-16
1.00117e-16
9.53939e-17
1.58912e-16
2.14567e-16
2.08151e-16
1.44327e-16
9.59167e-17
4.5432e-17
2.30914e-17
7.82729e-18
3.61786e-18
2.26275e-18
9.44959e-17
1.08254e-14
1.34124e-12
1.47595e-10
7.55451e-09
1.44043e-07
1.03903e-06
6.5798e-06
2.26124e-05
5.34788e-05
0.00010235
0.000166718
0.000218419
0.000242824
0.000227715
8.65547e-05
0.000206111
1.95439e-05
6.12985e-05
3.54473e-06
1.2322e-05
5.3649e-07
2.0505e-06
2.69931e-07
9.04572e-09
1.22363e-07
4.87577e-08
3.5224e-10
2.58481e-09
2.71877e-12
5.28455e-11
4.06e-14
9.62561e-14
5.69816e-14
1.09694e-14
2.43402e-15
3.32567e-16
1.80323e-16
1.99599e-16
3.00949e-16
2.78282e-16
2.38951e-16
1.36882e-16
8.16785e-17
3.56928e-17
1.61604e-17
6.10801e-18
2.37962e-18
3.89624e-17
3.99035e-15
5.05145e-13
6.06943e-11
5.18644e-09
1.36123e-07
1.13837e-06
9.2665e-06
4.08388e-05
0.000106919
0.000202147
0.000308757
0.000416099
0.000484739
0.00050146
0.000323354
0.000487025
0.000160494
0.000293383
4.0423e-05
0.000117315
7.35832e-06
2.50514e-05
1.08675e-06
4.07806e-06
5.30122e-07
1.62424e-08
2.33164e-07
8.909e-08
5.19944e-10
4.00776e-09
1.99124e-12
4.80086e-11
2.06605e-13
5.23491e-13
2.50819e-13
6.21135e-14
1.24346e-14
1.73763e-15
3.89552e-16
3.17975e-16
3.80389e-16
3.99984e-16
3.30255e-16
2.05124e-16
1.25776e-16
5.28829e-17
2.59434e-17
1.10089e-17
4.38215e-18
1.63974e-17
1.29059e-15
1.71711e-13
2.1375e-11
2.35111e-09
1.08105e-07
1.09933e-06
1.0058e-05
5.57497e-05
0.000173388
0.000344619
0.000518977
0.000653473
0.00075857
0.000823489
0.000633909
0.000835747
0.000445994
0.000618704
0.000246351
0.000401691
7.67621e-05
0.000194025
1.44857e-05
4.75211e-05
2.10225e-06
7.81446e-06
1.00065e-06
2.62197e-08
4.25192e-07
1.48675e-07
5.51374e-10
4.92208e-09
1.36865e-12
4.51904e-11
9.65731e-13
2.56435e-12
1.22627e-12
3.34538e-13
5.42861e-14
1.03163e-14
1.49662e-15
5.40371e-16
4.95146e-16
5.73641e-16
4.6807e-16
3.09396e-16
1.66033e-16
9.9703e-17
4.25547e-17
1.64343e-17
7.10546e-18
8.72381e-18
4.59987e-16
5.42666e-14
6.85685e-12
7.75379e-10
5.67842e-08
9.35846e-07
9.77136e-06
6.05873e-05
0.000225642
0.00050133
0.000779489
0.000995972
0.001115
0.00118358
0.00100929
0.00125339
0.000812091
0.00102362
0.000581713
0.000787073
0.000349196
0.000535684
0.000136957
0.00028993
2.74873e-05
8.58631e-05
3.95671e-06
1.47581e-05
1.84529e-06
3.77206e-08
7.48363e-07
2.45014e-07
6.3369e-10
6.74501e-09
2.80603e-12
1.07494e-10
3.916e-12
1.13885e-11
5.665e-12
1.83859e-12
2.96307e-13
4.98454e-14
8.64167e-15
1.29309e-15
6.92925e-16
7.51915e-16
6.87719e-16
5.3639e-16
2.60858e-16
1.50855e-16
6.80326e-17
3.09168e-17
1.15135e-17
8.66379e-18
1.41361e-16
1.63467e-14
2.06936e-12
2.32836e-10
2.03736e-08
6.14966e-07
8.3418e-06
5.94614e-05
0.000243101
0.000616319
0.00104604
0.0013786
0.00160176
0.00170698
0.00145062
0.00173187
0.00125331
0.00149118
0.00101605
0.00126159
0.000752968
0.000998868
0.000482448
0.000712778
0.000224387
0.000422194
5.13182e-05
0.000153928
7.48798e-06
2.85577e-05
3.47292e-06
6.07569e-08
1.38857e-06
4.56334e-07
1.23996e-09
1.25239e-08
6.79181e-11
2.39278e-09
1.27186e-11
4.38433e-11
2.41223e-11
9.46279e-12
1.59866e-12
2.89511e-13
4.84828e-14
5.45023e-15
1.24624e-15
1.09827e-15
9.41623e-16
7.52975e-16
5.00291e-16
2.04316e-16
9.82562e-17
5.23707e-17
2.52973e-17
1.32911e-17
6.27483e-17
4.73253e-15
5.97117e-13
6.74443e-11
6.17469e-09
3.13117e-07
5.06191e-06
5.29557e-05
0.000240599
0.000653262
0.00120348
0.0015787
0.00178038
0.0018981
0.00188283
0.0019789
0.00174063
0.00191473
0.00151269
0.00175913
0.0012652
0.00153237
0.000975945
0.00126158
0.000667385
0.000950642
0.000354305
0.000615021
9.77415e-05
0.000276139
1.50491e-05
5.94719e-05
7.2743e-06
1.25463e-07
3.07538e-06
1.10425e-06
1.55733e-08
8.2498e-08
4.00442e-09
1.06904e-07
4.05009e-11
1.34239e-10
8.67652e-11
3.30614e-11
8.46985e-12
1.54059e-12
2.28597e-13
2.85751e-14
3.79772e-15
1.70124e-15
1.38893e-15
1.07983e-15
6.79488e-16
4.04802e-16
1.90266e-16
8.40601e-17
4.49428e-17
2.55372e-17
3.63324e-17
1.4084e-15
1.66522e-13
1.89112e-11
1.75362e-09
1.14864e-07
2.53053e-06
3.57824e-05
0.000220253
0.000653305
0.00122153
0.00156723
0.00175536
0.00186828
0.00194308
0.00198378
0.00199986
0.0019156
0.0019827
0.0017691
0.00190832
0.00154811
0.00177104
0.00125527
0.00155615
0.000921965
0.00124778
0.000555783
0.000888552
0.000195648
0.000488912
3.42687e-05
0.000135379
1.8563e-05
4.88232e-07
8.97172e-06
4.35237e-06
4.46533e-07
1.0648e-06
3.28717e-07
2.86055e-06
1.25778e-10
3.98157e-10
2.5248e-10
9.04143e-11
4.88401e-11
8.13378e-12
1.16948e-12
1.61801e-13
1.99176e-14
3.57502e-15
2.16991e-15
1.61658e-15
1.13226e-15
7.19489e-16
2.88087e-16
1.44564e-16
8.62141e-17
5.12621e-17
4.43754e-17
4.57722e-16
4.50725e-14
5.14912e-12
4.87138e-10
3.36041e-08
1.13711e-06
1.93567e-05
0.000165344
0.000608262
0.00116538
0.00147588
0.0016403
0.001689
0.00165567
0.00180135
0.00149224
0.00199015
0.00194156
0.00197189
0.0019686
0.00189378
0.00195068
0.00177039
0.00187697
0.00155929
0.00176855
0.00123772
0.00155679
0.00085122
0.00122501
0.000405746
0.000806324
9.01675e-05
0.000318549
5.73024e-05
3.77127e-06
3.43597e-05
2.24168e-05
5.97317e-06
1.10099e-05
1.21379e-05
3.51348e-05
3.85239e-10
1.13058e-09
6.98978e-10
2.71835e-10
1.2478e-10
4.26074e-11
6.36808e-12
1.16828e-12
1.25183e-13
1.50846e-14
3.47451e-15
2.28987e-15
1.90238e-15
1.0146e-15
6.96765e-16
3.79686e-16
2.10132e-16
1.0987e-16
9.15524e-17
2.43501e-16
1.19324e-14
1.36656e-12
1.32123e-10
9.59937e-09
4.39742e-07
8.49576e-06
0.000102502
0.000489266
0.00104133
0.00130538
0.00137743
0.00122973
0.000958291
0.00116101
0.000684139
0.00143168
0.00106501
0.00190492
0.00173509
0.00193964
0.00186041
0.00192428
0.00190472
0.00186242
0.00189826
0.00176587
0.00185362
0.00155087
0.00176154
0.00120945
0.00154651
0.000750164
0.00118768
0.000246354
0.000678522
0.000187817
2.80069e-05
0.000135629
0.000113072
5.28145e-05
8.16473e-05
0.000125047
0.000206572
1.18136e-09
3.06548e-09
1.90701e-09
7.75193e-10
2.61824e-10
1.47931e-10
2.9191e-11
4.89042e-12
9.71348e-13
5.44266e-14
1.35322e-14
4.02212e-15
2.58615e-15
2.16047e-15
1.066e-15
8.12293e-16
4.85057e-16
3.22547e-16
2.05082e-16
2.93664e-16
3.41486e-15
3.55105e-13
3.50332e-11
2.67471e-09
1.39713e-07
4.34978e-06
5.33786e-05
0.000342956
0.000893573
0.00115017
0.00114144
0.000778912
0.000394167
0.000428856
0.000173288
0.000667867
0.000332419
0.00101652
0.000635572
0.00166956
0.00137101
0.00181199
0.00160601
0.00186942
0.00176404
0.00187849
0.00184083
0.00185361
0.00187053
0.00176388
0.00186248
0.001542
0.00177195
0.00115323
0.00153367
0.000598953
0.0011064
0.000512622
0.000166494
0.00043476
0.00043066
0.000276021
0.000382174
0.000544902
0.000738407
3.31888e-09
7.94124e-09
5.02563e-09
2.11704e-09
7.04125e-10
3.45957e-10
1.18402e-10
2.00185e-11
3.31891e-12
3.87958e-13
5.09904e-14
1.12392e-14
4.82807e-15
4.62086e-15
2.75438e-15
1.91026e-15
1.77831e-15
1.29601e-15
6.95536e-16
6.28418e-16
2.01898e-15
9.09745e-14
9.09549e-12
7.27444e-10
4.17414e-08
1.73387e-06
2.28062e-05
0.000210212
0.000718449
0.00101804
0.000998458
0.000566006
0.000246949
7.60184e-05
0.00014667
6.22949e-05
0.000307348
0.000126142
0.000610065
0.000314353
0.00131328
0.000971211
0.00155072
0.00126982
0.00172472
0.00151434
0.00182775
0.00170608
0.00188064
0.00184253
0.00188652
0.00191482
0.001783
0.00191878
0.00151555
0.00179339
0.00104901
0.00148754
0.000982611
0.000600118
0.000932216
0.000973117
0.00083955
0.000974338
0.000687426
0.00116729
1.88564e-08
1.29505e-08
5.48208e-09
1.9676e-09
7.18404e-10
5.52271e-10
1.19004e-10
1.45399e-11
2.78104e-12
1.77611e-13
4.79833e-14
1.08923e-14
1.09833e-14
1.11034e-14
6.12221e-15
5.65043e-15
6.27305e-15
3.24385e-15
2.06764e-15
2.49495e-15
2.55243e-14
2.31485e-12
1.93032e-10
1.20189e-08
5.29504e-07
8.64915e-06
0.000108715
0.000517108
0.00090151
0.000917365
0.000534545
0.000264529
0.000109175
2.22668e-05
4.19654e-05
4.84983e-05
2.4178e-05
0.000134387
5.09139e-05
0.000369375
0.000180147
0.000949196
0.000633549
0.00125897
0.000984353
0.00152061
0.0013136
0.00173604
0.00159123
0.0018908
0.00181685
0.00196843
0.0019622
0.00195876
0.0020426
0.00179822
0.00200285
0.0014504
0.0017963
0.00140967
0.00116456
0.00139441
0.00145226
0.00134008
0.00144332
0.000249534
0.00107248
3.49398e-08
1.50832e-08
5.53579e-09
1.94785e-09
1.35743e-09
5.36795e-10
6.47036e-11
1.1143e-11
1.04458e-12
1.57557e-13
3.93713e-14
2.95401e-14
4.79855e-14
2.94847e-14
2.46183e-14
3.34489e-14
1.95449e-14
9.66903e-15
7.62822e-15
1.79945e-14
5.85266e-13
5.00249e-11
3.33719e-09
1.63375e-07
4.59893e-06
4.80397e-05
0.000325995
0.000767846
0.000872343
0.000563949
0.000332641
0.000195464
6.42814e-05
0.00011477
1.47821e-05
2.64169e-05
1.96224e-05
1.17493e-05
7.49189e-05
2.84588e-05
0.000288368
0.000140161
0.000724545
0.000488293
0.00109092
0.000869111
0.00142245
0.0012416
0.00169962
0.00155921
0.00191448
0.00182763
0.00206892
0.00205654
0.0021323
0.00220858
0.00204518
0.00222975
0.0017876
0.00208026
0.00177549
0.00159162
0.00178284
0.00180305
0.00167262
0.00150436
0.0017048
0.000156043
0.000970722
4.8394e-08
1.65325e-08
5.70563e-09
2.46919e-09
1.21583e-09
4.09166e-10
3.53587e-11
5.07552e-12
6.33431e-13
1.52071e-13
1.08343e-13
1.98959e-13
1.52746e-13
1.19453e-13
1.38713e-13
1.40023e-13
6.11699e-14
3.77659e-14
3.77408e-14
2.08615e-13
1.26903e-11
8.96745e-10
4.77228e-08
1.92043e-06
1.85653e-05
0.000174314
0.000594046
0.000822576
0.000633946
0.000425716
0.000301665
0.000179017
5.55461e-05
8.97098e-05
7.35535e-06
1.45306e-05
1.11661e-05
6.57055e-06
5.62136e-05
2.05898e-05
0.000274636
0.000127084
0.000658172
0.000459638
0.00104524
0.000857881
0.00140432
0.00124765
0.0017196
0.00160033
0.00200998
0.00193244
0.00224309
0.00223334
0.00236838
0.00245567
0.00232426
0.00252921
0.00210906
0.00239846
0.00225487
0.00195244
0.00211906
0.00184385
0.00176798
0.00186808
0.00196111
0.00212519
0.00212735
0.00197393
0.0015602
0.00189819
0.00188955
0.00176214
0.000219971
0.00109709
6.10309e-08
1.81174e-08
6.55546e-09
3.67883e-09
1.10545e-09
1.79052e-10
2.41331e-11
2.60466e-12
6.15046e-13
4.70039e-13
6.54556e-13
8.66957e-13
5.94743e-13
6.08267e-13
8.45561e-13
3.97489e-13
2.11342e-13
1.62714e-13
2.38735e-13
3.36235e-12
2.34356e-10
1.33644e-08
5.65552e-07
7.42918e-06
7.98757e-05
0.000397172
0.000735125
0.000691576
0.000515226
0.000406102
0.000290998
0.000105035
0.000171293
3.31981e-05
6.7277e-05
3.81432e-06
6.65008e-06
7.87637e-06
3.95266e-06
4.73643e-05
1.6363e-05
0.000276748
0.000114008
0.000682014
0.000490127
0.00109205
0.000921258
0.00146929
0.00130164
0.00182372
0.00167496
0.00217781
0.00206705
0.00248538
0.0024485
0.0026802
0.00266158
0.00267839
0.00252777
0.00265289
0.00283693
0.00275281
0.00243455
0.00228911
0.00246252
0.00258248
0.0023001
0.00199322
0.002007
0.00213184
0.00230861
0.00230627
0.0021382
0.0018351
0.00152206
0.00173296
0.00200951
0.00198058
0.000655332
0.00158273
0.00142369
0.00117389
7.40302e-08
2.06265e-08
9.92025e-09
4.04969e-09
6.81944e-10
1.03017e-10
1.12954e-11
2.60595e-12
2.11113e-12
3.17544e-12
4.79827e-12
3.08373e-12
2.72359e-12
3.59084e-12
2.62411e-12
1.23747e-12
8.0521e-13
7.36821e-13
1.8381e-12
6.0214e-11
3.61897e-09
1.63719e-07
4.09833e-06
3.19076e-05
0.000221067
0.000595082
0.000698223
0.000592692
0.000498171
0.000401083
0.000239738
7.97422e-05
0.00012491
1.66631e-05
4.04803e-05
2.04547e-06
3.05029e-06
6.0289e-06
2.67906e-06
3.67444e-05
1.20283e-05
0.000243133
8.1933e-05
0.000720784
0.000487938
0.00112017
0.00091744
0.00149323
0.00128866
0.00190706
0.00170988
0.00235126
0.00220865
0.00268092
0.00266853
0.00264896
0.00261664
0.00289485
0.00293613
0.00280951
0.0028219
0.00271988
0.00284047
0.00300745
0.00293582
0.00262728
0.00248092
0.0026629
0.00278216
0.00249601
0.0021436
0.00214169
0.00231062
0.00250403
0.00250675
0.0023085
0.00191286
0.00180583
0.00212429
0.00207971
0.00129401
0.00082886
0.00109094
0.00166642
0.00152461
8.76705e-08
2.71041e-08
1.12151e-08
2.73732e-09
3.54109e-10
4.92448e-11
1.4187e-11
8.75997e-12
1.63315e-11
2.07613e-11
1.60556e-11
1.29116e-11
1.3457e-11
1.50473e-11
7.1005e-12
4.14903e-12
3.22717e-12
3.13265e-12
1.87426e-11
9.53961e-10
4.57456e-08
1.5217e-06
1.14252e-05
0.000104307
0.000414858
0.000670672
0.000640692
0.000573791
0.00049875
0.000360781
0.000130812
0.000203237
4.31049e-05
8.45101e-05
6.93135e-06
1.73408e-05
1.19466e-06
1.37681e-06
4.76133e-06
2.0826e-06
2.36004e-05
9.10677e-06
0.000163489
5.04729e-05
0.000678408
0.000408052
0.00105991
0.000806232
0.0014843
0.0012304
0.00202241
0.0017891
0.00257903
0.00252634
0.0024656
0.00238432
0.00282458
0.00281887
0.00280602
0.00278419
0.00305943
0.00309982
0.00296248
0.00298097
0.00291818
0.00302905
0.00317775
0.00311333
0.00283589
0.00269055
0.0028798
0.00298896
0.0027102
0.00230117
0.00228367
0.0025037
0.00272045
0.00272262
0.00249254
0.00200209
0.00189213
0.00224988
0.00219209
0.00137247
0.000840613
0.00114456
0.00175773
0.00160607
1.03452e-07
3.44318e-08
8.49944e-09
1.3109e-09
1.93794e-10
5.36447e-11
3.64714e-11
6.27392e-11
1.44647e-10
8.22585e-11
6.47094e-11
5.59986e-11
6.57947e-11
3.87898e-11
2.14881e-11
1.47398e-11
1.16575e-11
1.69085e-11
2.52761e-10
1.2439e-08
4.43906e-07
6.37819e-06
4.36729e-05
0.000240442
0.000573244
0.000644828
0.000624465
0.000577935
0.000471882
0.000269384
8.75197e-05
0.000139878
1.7099e-05
4.30414e-05
2.8121e-06
6.84685e-06
8.44287e-07
6.55978e-07
4.25912e-06
1.86775e-06
1.77758e-05
8.02892e-06
0.000104443
3.86717e-05
0.000533282
0.000271198
0.000950046
0.000672618
0.00151734
0.00121696
0.00229276
0.00217534
0.00204838
0.00189474
0.00275166
0.00270465
0.00264135
0.00255857
0.00299324
0.00299829
0.00299469
0.00297762
0.0032314
0.00313385
0.00328008
0.00316342
0.00311447
0.00321216
0.00335472
0.00328874
0.00305091
0.00291481
0.00310248
0.00319239
0.00293908
0.00247275
0.00244044
0.00271414
0.00295224
0.00295381
0.0026945
0.00210636
0.00199241
0.00239157
0.00232132
0.00141592
0.000705579
0.00108194
0.00184851
0.00167077
1.2026e-07
2.65666e-08
4.40934e-09
7.03963e-10
1.64868e-10
1.43469e-10
2.52494e-10
3.89522e-10
4.32737e-10
3.32053e-10
2.62242e-10
2.42512e-10
2.14451e-10
1.10235e-10
6.84769e-11
4.99415e-11
4.00814e-11
1.09447e-10
3.31725e-09
1.26089e-07
3.13844e-06
1.65147e-05
0.000116886
0.000403453
0.000621125
0.000641667
0.000634007
0.000564664
0.000395026
0.000133208
0.000208192
3.84665e-05
8.22227e-05
6.2622e-06
1.56384e-05
1.08595e-06
2.51373e-06
7.64239e-07
4.14459e-07
4.18541e-06
1.85825e-06
1.59856e-05
7.7857e-06
8.65837e-05
3.57964e-05
0.000416189
0.000207222
0.000912621
0.000628266
0.00170061
0.00134638
0.00245635
0.00233236
0.00218825
0.00202199
0.00294386
0.00289124
0.00281756
0.00272182
0.00318578
0.00319586
0.00319019
0.00316334
0.00341663
0.00332451
0.00347361
0.00336045
0.00330291
0.00339121
0.00354151
0.00346838
0.00326084
0.00314438
0.00331916
0.00338554
0.0031738
0.00266264
0.00261615
0.00294111
0.0031909
0.00319345
0.00291452
0.00222555
0.00209944
0.00255251
0.00246798
0.00141363
0.000437432
0.00090695
0.00193336
0.0017171
1.01471e-07
1.55422e-08
2.44187e-09
5.32674e-10
5.80965e-10
1.0794e-09
1.62159e-09
1.92434e-09
1.69944e-09
1.31471e-09
1.00813e-09
1.02886e-09
5.31578e-10
3.14677e-10
2.13856e-10
1.55586e-10
1.40639e-10
9.71638e-10
3.50402e-08
9.55151e-07
7.63839e-06
5.08092e-05
0.000239508
0.000536941
0.000636063
0.000660164
0.00063405
0.000506647
0.000270404
7.4998e-05
0.000131926
1.34707e-05
3.28253e-05
2.10409e-06
5.32331e-06
4.31631e-07
8.59134e-07
8.9829e-07
3.90603e-07
4.67103e-06
2.26598e-06
1.6084e-05
8.86066e-06
8.40948e-05
3.76772e-05
0.000382437
0.00019367
0.000993893
0.000682258
0.0019462
0.00174297
0.00134664
0.00155265
0.00260478
0.00246687
0.00230939
0.00213418
0.00311202
0.00303446
0.00293468
0.00281566
0.00337927
0.00337752
0.00334391
0.00327704
0.00360884
0.00351893
0.00366074
0.00354094
0.00348441
0.00357135
0.0037298
0.003654
0.00345821
0.00336737
0.00352136
0.00356857
0.00340254
0.00287147
0.00281157
0.00317946
0.0034251
0.00343136
0.00314765
0.00235681
0.0022086
0.00273277
0.00263048
0.00134872
0.000200119
0.000702493
0.00201192
0.00172698
7.28833e-08
9.22176e-09
1.88179e-09
2.12318e-09
5.86943e-09
7.2148e-09
8.83329e-09
8.46378e-09
6.69202e-09
4.7659e-09
3.68808e-09
2.63771e-09
1.4217e-09
8.99218e-10
6.23548e-10
4.23253e-10
6.52182e-10
9.7259e-09
2.8235e-07
4.57317e-06
2.01291e-05
0.000120659
0.000383338
0.000603196
0.000661779
0.000677239
0.000597313
0.000398217
0.00011328
0.00018772
2.65592e-05
6.11577e-05
4.27589e-06
1.09075e-05
6.5289e-07
1.66393e-06
2.49871e-07
2.96551e-07
1.7717e-06
6.47191e-07
5.77646e-06
3.82736e-06
1.90726e-05
1.20068e-05
9.7739e-05
5.21915e-05
0.000419119
0.000214152
0.00116159
0.000967797
0.000716683
0.00197318
0.00176673
0.00135304
0.00156061
0.00267923
0.00252616
0.00235648
0.00217147
0.00318657
0.00308026
0.0029577
0.00282057
0.00353282
0.00348201
0.00339758
0.00329048
0.00378673
0.00368035
0.00380322
0.00366263
0.00366356
0.00375379
0.00389882
0.00383704
0.00364231
0.00357431
0.00370717
0.00374554
0.00361523
0.00309631
0.00302414
0.00341932
0.00364411
0.00365629
0.00338647
0.00249632
0.00231687
0.00292932
0.00280506
0.00123146
0.000269941
0.000619141
0.00207908
0.00169681
4.67008e-08
7.07212e-09
7.6228e-09
1.82072e-08
3.19135e-08
4.05664e-08
4.08917e-08
3.35745e-08
2.37023e-08
1.56889e-08
1.26277e-08
6.23719e-09
3.73617e-09
2.46658e-09
1.62998e-09
1.13769e-09
3.70044e-09
8.18993e-08
1.70684e-06
9.07919e-06
5.47307e-05
0.000233513
0.000509722
0.000648277
0.00069321
0.00066336
0.000510347
0.000245263
5.05552e-05
0.000104015
8.38181e-06
2.1064e-05
1.24238e-06
3.25198e-06
2.00081e-07
4.75061e-07
2.53569e-07
1.57575e-07
3.74213e-06
1.78457e-06
8.59041e-06
5.97145e-06
3.58764e-05
2.90259e-05
0.000120717
9.84234e-05
0.000419009
0.000210213
0.00115595
0.00096812
0.000715767
0.00055057
0.0019283
0.0017151
0.00128772
0.00150061
0.00267011
0.00250589
0.00232742
0.00213432
0.00316472
0.00302512
0.00287881
0.00272685
0.00359097
0.00348628
0.00334667
0.00318648
0.00391397
0.0037777
0.0038853
0.00368969
0.00384192
0.00393109
0.00401535
0.00399891
0.00381674
0.00376216
0.00387973
0.00391864
0.00380707
0.00333035
0.00324882
0.00365043
0.00384109
0.00386125
0.00362168
0.00264086
0.0024265
0.0031367
0.00298709
0.00111275
0.000106706
0.000460713
0.00212175
0.00163714
3.47348e-08
2.83627e-08
6.90383e-08
1.29529e-07
1.78211e-07
1.89399e-07
1.61578e-07
1.16064e-07
7.39442e-08
4.70773e-08
2.75098e-08
1.55019e-08
9.64427e-09
6.30224e-09
3.80813e-09
3.78479e-09
2.52569e-08
5.28694e-07
5.93382e-06
2.3397e-05
0.000122604
0.000370365
0.000601844
0.000690413
0.000704044
0.000600926
0.000372766
7.8123e-05
0.000147653
1.57418e-05
3.69622e-05
2.36735e-06
6.20142e-06
3.27923e-07
8.83624e-07
9.23771e-08
1.29158e-07
5.44407e-07
1.64563e-07
6.97171e-06
3.88931e-06
2.25557e-05
1.40038e-05
9.44164e-05
9.07094e-05
0.000235901
0.000274364
0.0004242
0.000297618
0.000242971
0.00108387
0.000891856
0.000614998
0.000483974
0.00179544
0.00157677
0.00114764
0.00135927
0.00256728
0.00239568
0.00220913
0.00200841
0.00301833
0.00285234
0.00269153
0.00253128
0.00355504
0.00337543
0.00317211
0.00296126
0.00398873
0.00378388
0.00388334
0.00362377
0.00401368
0.004088
0.00408926
0.00410922
0.00398484
0.00393332
0.00404306
0.00408485
0.00397915
0.00356551
0.00347665
0.00386437
0.00401671
0.00404411
0.00384403
0.00278886
0.00252915
0.00334937
0.00317396
0.000983371
4.73844e-05
0.000303006
0.00214326
0.00156587
1.27351e-07
2.60255e-07
4.89953e-07
7.30546e-07
8.18798e-07
7.27174e-07
5.36021e-07
3.43866e-07
2.0244e-07
1.25179e-07
6.45135e-08
3.73973e-08
2.40941e-08
1.39335e-08
8.8345e-09
1.45632e-08
1.64962e-07
2.61e-06
1.04461e-05
5.90107e-05
0.00023419
0.000501558
0.000670025
0.000720309
0.000668456
0.000483163
0.000196328
2.83159e-05
6.7205e-05
4.42779e-06
1.14343e-05
6.06241e-07
1.6577e-06
8.07195e-08
2.18825e-07
9.09291e-08
4.8361e-08
1.63817e-06
3.86042e-07
2.04409e-05
7.6546e-06
7.18196e-05
4.4257e-05
0.000287209
0.0002766
0.000501003