/*--------------------------------*- C++ -*----------------------------------*\
  =========                 |
  \\      /  F ield         | OpenFOAM: The Open Source CFD Toolbox
   \\    /   O peration     | Website:  https://openfoam.org
    \\  /    A nd           | Version:  dev
     \\/     M anipulation  |
\*---------------------------------------------------------------------------*/
FoamFile
{
    version     2.0;
    format      ascii;
    class       volScalarField;
    location    "2500";
    object      G;
}
// * * * * * * * * * * * * * * * * * * * * * * * * * * * * * * * * * * * * * //

dimensions      [1 0 -3 0 0 0 0];

internalField   nonuniform List<scalar> 
9848
(
3841.38
3846.72
3847.98
3851.43
3853.35
3855.33
3855.48
3858.08
3860.72
3863.37
3858.88
3862.15
3865.45
3868.77
3872.12
3861.65
3865.56
3869.51
3873.5
3877.52
3881.58
3863.78
3868.33
3872.91
3877.55
3882.25
3886.99
3891.77
3865.3
3870.45
3875.65
3880.93
3886.28
3891.7
3897.19
3902.73
3866.24
3871.96
3877.75
3883.64
3889.62
3895.71
3901.89
3908.15
3914.47
3866.61
3872.88
3879.23
3885.69
3892.28
3899
3905.85
3912.83
3919.89
3927.03
3866.43
3873.23
3880.12
3887.12
3894.28
3901.6
3909.09
3916.74
3924.54
3932.45
3940.45
3865.73
3873.03
3880.42
3887.94
3895.64
3903.52
3911.61
3919.91
3928.4
3937.07
3945.86
3954.76
3864.53
3872.3
3880.17
3888.18
3896.38
3904.79
3913.44
3922.33
3931.47
3940.85
3950.43
3960.16
3970.02
3862.87
3871.07
3879.39
3887.86
3896.52
3905.43
3914.59
3924.04
3933.78
3943.82
3954.13
3964.68
3975.41
3986.27
3860.76
3869.38
3878.11
3887
3896.1
3905.46
3915.1
3925.06
3935.35
3945.99
3956.98
3968.28
3979.86
3991.65
4003.6
3858.23
3867.23
3876.35
3885.63
3895.14
3904.91
3914.98
3925.41
3936.2
3947.4
3958.99
3970.98
3983.35
3996.03
4008.95
4022.06
3855.32
3864.67
3874.14
3883.79
3893.66
3903.81
3914.28
3925.12
3936.37
3948.06
3960.2
3972.81
3985.88
3999.37
4013.24
4027.38
4041.73
3852.04
3861.72
3871.52
3881.5
3891.7
3902.19
3913.02
3924.24
3935.88
3948.01
3960.64
3973.8
3987.49
4001.71
4016.42
4031.56
4047.02
4062.73
3848.44
3858.41
3868.51
3878.78
3889.29
3900.09
3911.23
3922.78
3934.78
3947.28
3960.33
3973.97
3988.21
4003.07
4018.53
4034.56
4051.08
4067.97
4085.14
3844.52
3854.76
3865.13
3875.68
3886.45
3897.53
3908.95
3920.79
3933.09
3945.92
3959.34
3973.38
3988.09
4003.5
4019.6
4036.4
4053.85
4071.87
4090.32
4109.09
3840.32
3850.81
3861.42
3872.21
3883.23
3894.54
3906.21
3918.29
3930.86
3943.97
3957.68
3972.06
3987.16
4003.03
4019.68
4037.14
4055.39
4074.39
4094.05
4114.21
4134.73
3835.87
3846.58
3857.4
3868.41
3879.64
3891.16
3903.04
3915.34
3928.12
3941.46
3955.42
3970.07
3985.48
4001.71
4018.82
4036.83
4055.75
4075.58
4096.28
4117.73
4139.77
4162.22
3831.19
3842.09
3853.11
3864.3
3875.72
3887.43
3899.48
3911.96
3924.92
3938.44
3952.59
3967.46
3983.11
3999.62
4017.07
4035.51
4054.98
4075.5
4097.05
4119.61
4143.05
4167.16
4191.75
3826.3
3837.37
3848.56
3859.91
3871.49
3883.36
3895.56
3908.18
3921.28
3934.95
3949.24
3964.26
3980.09
3996.81
4014.5
4033.26
4053.15
4074.21
4096.47
4119.92
4144.53
4170.15
4196.56
4223.53
3821.23
3832.44
3843.78
3855.28
3866.99
3878.99
3891.32
3904.05
3917.26
3931.03
3945.42
3960.55
3976.48
3993.33
4011.19
4030.15
4050.32
4071.79
4094.59
4118.75
4144.29
4171.16
4199.21
4228.18
4257.88
3815.99
3827.33
3838.79
3850.41
3862.24
3874.34
3886.77
3899.6
3912.88
3926.72
3941.18
3956.35
3972.35
3989.26
4007.2
4026.27
4046.6
4068.31
4091.48
4116.18
4142.44
4170.29
4199.68
4230.44
4262.34
4295.09
3810.6
3822.06
3833.62
3845.35
3857.27
3869.46
3881.96
3894.85
3908.19
3922.06
3936.54
3951.73
3967.73
3984.64
4002.59
4021.69
4042.08
4063.89
4087.25
4112.3
4139.09
4167.67
4198.07
4230.27
4264.12
4299.33
4335.44
3805.09
3816.64
3828.29
3840.1
3852.1
3864.36
3876.91
3889.84
3903.21
3917.09
3931.56
3946.73
3962.69
3979.55
3997.44
4016.49
4036.83
4058.63
4082.04
4107.21
4134.31
4163.4
4194.55
4227.81
4263.19
4300.54
4339.41
4379.36
3799.48
3811.09
3822.82
3834.69
3846.76
3859.06
3871.65
3884.6
3897.97
3911.84
3926.28
3941.4
3957.28
3974.04
3991.82
4010.74
4030.95
4052.63
4075.95
4101.09
4128.25
4157.59
4189.23
4223.24
4259.72
4298.72
4339.96
4383
4427.31
3793.76
3805.44
3817.22
3829.15
3841.25
3853.59
3866.21
3879.16
3892.52
3906.35
3920.74
3935.77
3951.54
3968.17
3985.78
4004.51
4024.52
4045.99
4069.1
4094.06
4121.08
4150.41
4182.24
4216.71
4253.93
4294.07
4337.1
4382.74
4430.54
4479.86
3787.96
3799.69
3811.52
3823.48
3835.61
3847.97
3860.59
3873.54
3886.87
3900.65
3914.96
3929.89
3945.53
3961.99
3979.4
3997.89
4017.63
4038.8
4061.59
4086.24
4112.98
4142.06
4173.77
4208.36
4245.99
4286.85
4331.06
4378.64
4429.32
4482.58
4537.68
3782.1
3793.86
3805.73
3817.71
3829.86
3842.22
3854.83
3867.76
3881.04
3894.76
3908.99
3923.8
3939.28
3955.55
3972.72
3990.94
4010.36
4031.16
4053.55
4077.76
4104.06
4132.73
4164.07
4198.4
4236.05
4277.26
4322.18
4370.99
4423.74
4480.2
4539.79
4601.61
3776.18
3787.96
3799.85
3811.85
3824.01
3836.36
3848.95
3861.84
3875.07
3888.71
3902.84
3917.51
3932.83
3948.89
3965.81
3983.72
4002.77
4023.15
4045.06
4068.75
4094.49
4122.58
4153.34
4187.15
4224.39
4265.49
4310.69
4360.16
4414.17
4472.85
4535.98
4602.96
4672.65
3770.23
3782.01
3793.91
3805.92
3818.07
3830.41
3842.97
3855.81
3868.98
3882.53
3896.54
3911.07
3926.21
3942.04
3958.69
3976.28
3994.95
4014.87
4036.25
4059.33
4084.39
4111.76
4141.78
4174.83
4211.35
4251.86
4296.8
4346.43
4401.05
4461.01
4526.47
4597.44
4673.03
4730.76
4732.67
3764.25
3776.02
3787.92
3799.93
3812.07
3824.38
3836.9
3849.69
3862.79
3876.24
3890.13
3904.5
3919.45
3935.05
3951.42
3968.67
3986.93
4006.37
4027.19
4049.61
4073.92
4100.44
4129.55
4161.66
4197.22
4236.76
4280.89
4330.09
4384.72
4445.17
4511.95
4585.1
4665.69
4732.39
4729.72
4772.87
4774.6
3758.26
3770.01
3781.9
3793.89
3806.01
3818.29
3830.77
3843.5
3856.51
3869.87
3883.62
3897.84
3912.59
3927.95
3944.03
3960.92
3978.77
3997.73
4017.96
4039.69
4063.19
4088.78
4116.85
4147.84
4182.22
4220.55
4263.44
4311.55
4365.51
4425.8
4492.9
4567.44
4638.25
4629.08
4725.02
4672.43
4717.83
4773.86
4770.65
4817.61
4819.14
3752.26
3763.99
3775.85
3787.82
3799.91
3812.15
3824.58
3837.24
3850.17
3863.42
3877.04
3891.09
3905.65
3920.78
3936.56
3953.11
3970.54
3988.98
4008.62
4029.65
4052.31
4076.92
4103.85
4133.57
4166.59
4203.47
4244.84
4291.4
4343.94
4403.25
4469.95
4544.57
4618.73
4606.52
4662.58
4765.05
4708.72
4757.05
4817.91
4814
4865.28
4866.55
3746.27
3757.96
3769.79
3781.72
3793.78
3805.97
3818.35
3830.94
3843.78
3856.92
3870.4
3884.29
3898.65
3913.54
3929.04
3945.25
3962.26
3980.21
3999.25
4019.56
4041.38
4064.99
4090.73
4119.07
4150.56
4185.8
4225.42
4270.13
4320.73
4378.19
4443.51
4517.5
4593.58
4579.03
4650.93
4637.66
4697.7
4807.49
4746.86
4798.45
4864.75
4860.03
4916.07
4917.08
3740.28
3751.93
3763.73
3775.62
3787.63
3799.77
3812.09
3824.6
3837.35
3850.38
3863.73
3877.45
3891.61
3906.26
3921.49
3937.36
3953.98
3971.45
3989.91
4009.52
4030.49
4053.08
4077.61
4104.51
4134.35
4167.8
4205.52
4248.16
4296.53
4351.57
4414.47
4486.53
4563.93
4547.22
4623.24
4607.55
4684.76
4670.17
4734.59
4852.5
4787.02
4842.24
4914.69
4909.02
4970.29
4971.07
3734.32
3745.92
3757.67
3769.51
3781.47
3793.56
3805.8
3818.24
3830.9
3843.81
3857.03
3870.59
3884.56
3898.98
3913.92
3929.47
3945.7
3962.71
3980.62
3999.57
4019.74
4041.33
4064.65
4090.07
4118.17
4149.69
4185.41
4225.94
4271.9
4324.21
4384.04
4452.82
4530.13
4511.4
4590.84
4572.95
4654.26
4637.12
4720.3
4704.21
4773.38
4900.3
4829.4
4888.62
4968
4961.25
5028.36
5028.88
3728.38
3739.93
3751.63
3763.41
3775.31
3787.34
3799.51
3811.87
3824.43
3837.23
3850.31
3863.72
3877.49
3891.69
3906.37
3921.61
3937.46
3954.04
3971.42
3989.74
4009.14
4029.81
4051.98
4075.97
4102.27
4131.71
4165.31
4203.72
4247.29
4296.69
4353.05
4417.84
4492.77
4472.86
4554.12
4534.23
4618.84
4599.4
4686.64
4667.83
4757.6
4739.81
4814.16
4951.13
4874.15
4937.83
5025.05
5017.09
5090.73
5090.93
3722.47
3733.96
3745.6
3757.33
3769.16
3781.12
3793.22
3805.49
3817.95
3830.64
3843.59
3856.84
3870.43
3884.41
3898.84
3913.78
3929.28
3945.44
3962.33
3980.05
3998.74
4018.54
4039.65
4062.31
4086.93
4114.24
4145.49
4181.67
4222.94
4269.48
4322.17
4382.36
4453.57
4433.33
4513.69
4492.54
4578.88
4557.29
4647.82
4626.6
4720.38
4699.71
4796.65
4776.95
4857.1
5005.34
4921.5
4990.12
5086.23
5076.87
5157.87
5157.68
3716.59
3728.02
3739.6
3751.27
3763.04
3774.92
3786.94
3799.12
3811.48
3824.05
3836.87
3849.97
3863.38
3877.15
3891.34
3905.99
3921.16
3936.92
3953.35
3970.53
3988.56
4007.56
4027.69
4049.13
4072.22
4097.56
4126.38
4160.11
4199.06
4242.87
4291.86
4347.22
4413.85
4393.72
4471.22
4449.69
4534.92
4511.99
4604.15
4580.58
4677.72
4654.42
4755.49
4732.7
4837.6
4815.75
4902.37
5063.24
4971.65
5045.8
5151.97
5141.01
5230.42
5229.73
3710.76
3722.12
3733.64
3745.24
3756.93
3768.74
3780.67
3792.76
3805.02
3817.48
3830.16
3843.11
3856.35
3869.92
3883.87
3898.25
3913.11
3928.5
3944.5
3961.17
3978.61
3996.89
4016.13
4036.47
4058.16
4081.72
4108.32
4139.53
4176.12
4217.22
4262.56
4312.91
4374.41
4354.68
4428.28
4406.87
4488.77
4465.44
4556.18
4531.19
4629.77
4604
4708.5
4682.8
4792.01
4766.81
4880.6
4856.29
4950.14
5125.26
5024.86
5105.22
5222.77
5209.94
5309.14
5307.71
3704.97
3716.26
3727.71
3739.24
3750.86
3762.58
3774.43
3786.43
3798.58
3810.92
3823.48
3836.28
3849.35
3862.73
3876.45
3890.57
3905.13
3920.17
3935.77
3951.98
3968.86
3986.5
4004.96
4024.36
4044.81
4066.73
4091.3
4120.21
4154.49
4193.14
4235.02
4280.41
4335.98
4317.69
4385.72
4364.77
4442.18
4419.03
4505.88
4480.5
4577.32
4550
4655.71
4627.45
4740.13
4711.76
4829.96
4802.09
4925.78
4898.71
5000.63
5191.75
5081.4
5168.76
5299.15
5284.09
5395.06
5392.55
3699.22
3710.45
3721.83
3733.28
3744.82
3756.47
3768.23
3780.12
3792.17
3804.4
3816.82
3829.47
3842.38
3855.57
3869.08
3882.95
3897.23
3911.95
3927.17
3942.94
3959.32
3976.37
3994.15
4012.72
4032.16
4052.67
4075.31
4102.12
4134.31
4170.96
4210.18
4251.33
4295.27
4344.6
4325.47
4396.16
4373.78
4455.19
4430.15
4522.34
4494.66
4598.18
4568.23
4681.92
4650.84
4772.61
4741.28
4869.48
4838.69
4973.35
4943.29
5054.06
5263.14
5141.61
5236.87
5381.9
5364.11
5489.62
5485.41
3693.53
3704.68
3715.99
3727.37
3738.83
3750.39
3762.05
3773.85
3785.79
3797.9
3810.2
3822.71
3835.45
3848.46
3861.77
3875.41
3889.41
3903.82
3918.69
3934.06
3949.97
3966.49
3983.65
4001.51
4020.09
4039.49
4060.4
4085.09
4115.45
4150.49
4187.8
4225.9
4264.87
4313.21
4295.92
4352.33
4332.13
4405.62
4381.77
4467.23
4440.29
4537.99
4507.93
4618.65
4585.8
4708.36
4674.06
4806.04
4771.37
4910.98
4876.85
5023.56
4990.39
5110.76
5339.94
5206.01
5310.09
5471.92
5450.74
5595.72
5589.01
3687.89
3698.97
3710.2
3721.5
3732.88
3744.35
3755.93
3767.62
3779.46
3791.45
3803.62
3815.99
3828.57
3841.41
3854.52
3867.93
3881.68
3895.8
3910.34
3925.33
3940.82
3956.84
3973.45
3990.67
4008.52
4027.03
4046.57
4069.12
4097.56
4131.22
4167.28
4203.39
4239.22
4280.4
4266.69
4318.65
4301.29
4359.09
4337.98
4414.07
4388.78
4478.35
4449.49
4552.89
4520.42
4638.67
4602.83
4734.95
4697.15
4840.6
4802.15
4954.93
4916.92
5076.92
5040.8
5171.59
5423.05
5275.62
5390.01
5571.84
5547.01
5723.69
5713.31
3682.29
3693.3
3704.47
3715.69
3726.99
3738.37
3749.85
3761.44
3773.17
3785.04
3797.08
3809.31
3821.75
3834.41
3847.33
3860.53
3874.04
3887.89
3902.11
3916.75
3931.84
3947.42
3963.52
3980.17
3997.38
4015.15
4033.63
4054.26
4080.42
4112.62
4147.73
4182.59
4216.73
4254.13
4242.65
4285.92
4272.29
4323.79
4306.56
4365
4343.28
4421.57
4394.99
4488.66
4457.86
4567.2
4532.26
4658.43
4619.51
4761.87
4720.34
4876.57
4833.87
5001.74
4959.4
5134.86
5095.61
5238.48
5516.42
5353.36
5481.81
5691.69
5663.36
5901.77
5883.5
3676.82
3687.69
3698.78
3709.93
3721.15
3732.44
3743.82
3755.31
3766.93
3778.68
3790.6
3802.69
3814.97
3827.47
3840.21
3853.21
3866.49
3880.08
3894.01
3908.32
3923.04
3938.21
3953.84
3969.97
3986.6
4003.74
4021.42
4040.46
4064.08
4094.41
4128.49
4162.66
4195.86
4228.56
4259.85
4248.15
4291.43
4277.86
4328.93
4311.95
4370.43
4348.37
4428.39
4400.82
4498.35
4465.81
4581.07
4543.72
4678.13
4636.02
4789.38
4743.89
4914.33
4866.85
5052.33
5004.93
5199.24
5155.94
5314.61
5630.7
5444.81
5595.24
5853.48
5818.97
6149.65
6119.72
3682.21
3693.16
3704.23
3715.36
3726.57
3737.85
3749.24
3760.74
3772.38
3784.16
3796.12
3808.26
3820.6
3833.16
3845.96
3859.02
3872.37
3886.04
3900.04
3914.41
3929.19
3944.4
3960.05
3976.17
3992.74
4009.77
4027.64
4048.76
4076.61
4109.36
4142.94
4175.44
4207.11
4241.53
4230.26
4265.24
4253.17
4296.9
4283.16
4334.2
4317.23
4375.78
4353.61
4435.08
4406.78
4507.9
4473.85
4594.83
4555.25
4698.02
4652.67
4817.79
4768.01
4954.34
4901.47
5107.45
5053.99
5271.77
5222.82
5403.35
5781.33
5556.11
5738.87
6073.99
6025
6407.53
6381.85
3687.67
3698.59
3709.64
3720.76
3731.95
3743.23
3754.62
3766.13
3777.79
3789.61
3801.61
3813.79
3826.18
3838.8
3851.66
3864.78
3878.18
3891.89
3905.95
3920.37
3935.17
3950.39
3966.03
3982.09
3998.57
4015.59
4034.63
4059.5
4090.38
4123.18
4155.1
4186.08
4219.41
4208.73
4245.9
4234.46
4270.21
4257.81
4302.05
4288.02
4339.33
4322.17
4381.38
4358.93
4442.01
4412.98
4517.58
4482
4608.72
4566.84
4718.27
4669.52
4847.35
4792.92
4997.05
4938.07
5167.72
5107.12
5354.55
5297.38
5507.33
5972.61
5690.85
5854.82
5885.53
6328.91
6264.98
6659.3
6643.83
3693.09
3703.99
3715.01
3726.11
3737.28
3748.56
3759.95
3771.48
3783.17
3795.02
3807.05
3819.28
3831.72
3844.38
3857.28
3870.44
3883.89
3897.64
3911.72
3926.16
3940.97
3956.17
3971.75
3987.73
4004.13
4021.67
4043.47
4071.81
4103.45
4134.77
4165.23
4194.67
4223.41
4212.61
4249.75
4238.07
4274.7
4261.95
4306.76
4292.39
4344.12
4326.71
4387
4364.07
4449.03
4419.17
4527.29
4490.19
4622.69
4578.38
4738.97
4686.53
4878.33
4818.68
5042.99
4976.86
5234.27
5165.27
5450.06
5343.48
5377.99
5614.92
5582.4
5980.28
6157.03
6119.56
5824.72
5789.84
5681.07
5946.53
6596.9
6273.14
6439.15
6480.18
6934.26
6928.28
3698.47
3709.34
3720.34
3731.41
3742.57
3753.84
3765.24
3776.79
3788.49
3800.38
3812.45
3824.72
3837.19
3849.89
3862.83
3876.02
3889.49
3903.25
3917.34
3931.78
3946.56
3961.72
3977.23
3993.12
4009.65
4028.84
4054.08
4083.96
4114.55
4144.48
4173.55
4205.06
4194.43
4226.81
4215.85
4253.08
4241.1
4278.7
4265.6
4311.02
4296.29
4348.59
4330.92
4392.48
4368.93
4455.98
4425.07
4536.73
4497.9
4636.48
4589.43
4760.05
4703.51
4910.83
4845.28
5092.93
5026.36
4989.9
5308.52
5270.81
5192.72
5232.73
5423.81
5549.4
5512.21
5387.02
5645.99
6083.08
6233.57
5910.53
5871.8
5753.43
6044.1
6613.69
6828.03
6795.34
6397.43
6572.64
7271.92
6978.18
7170.35
7188.23
3703.81
3714.64
3725.61
3736.66
3747.81
3759.07
3770.48
3782.04
3793.78
3805.69
3817.8
3830.1
3842.6
3855.32
3868.28
3881.48
3894.96
3908.72
3922.8
3937.21
3951.95
3967.03
3982.45
3998.3
4015.61
4037.57
4065.12
4094.59
4123.92
4152.59
4179.86
4207.63
4196.98
4229.61
4218.49
4255.9
4243.59
4282.22
4268.77
4314.9
4299.77
4352.89
4334.92
4397.55
4373.5
4462.38
4430.51
4545.56
4505
4650.01
4600.1
4781.49
4720.62
4954.51
4918.44
4883.61
4848.39
5153.05
5111.73
5048.42
5010.26
5348.7
5308.47
5224.51
5266.99
5473.53
5608.75
5568.71
5433.11
5714.07
6191.75
6353
6002.56
5830.71
5958.66
6147.35
6756.79
6947.63
6527.09
6712.39
7367.71
7596.83
7591.61
7145.89
7354.26
3709.1
3719.88
3730.82
3741.85
3752.98
3764.25
3775.66
3787.24
3799.01
3810.95
3823.09
3835.41
3847.94
3860.67
3873.62
3886.82
3900.29
3914.04
3928.09
3942.45
3957.12
3972.1
3987.43
4003.54
4022.61
4047.24
4075.16
4103.67
4131.85
4158.91
4188.24
4177.85
4209.51
4198.79
4231.8
4220.47
4258.2
4245.55
4285.29
4271.44
4318.46
4302.83
4357.13
4338.74
4402.34
4377.97
4468.2
4435.51
4553.89
4511.62
4663.52
4610.68
4814.87
4781.27
4749.57
4718.02
4972.5
4934.95
4898
4861.59
5181.55
5137.93
5071.24
5030.87
5391.3
5347.84
5257.39
5303
5526.19
5672.35
5628.33
5481.8
5786.66
6305.87
6477.93
6100.22
5912.59
6050.71
6256.01
6907.34
7111.46
6662.9
6859.61
7579.78
7833.98
7827.07
7326.51
7556.7
3714.34
3725.07
3735.98
3746.97
3758.09
3769.36
3780.78
3792.39
3804.18
3816.16
3828.32
3840.65
3853.18
3865.91
3878.85
3892.03
3905.48
3919.19
3933.18
3947.47
3962.03
3976.91
3992.25
4009.23
4030.66
4056.61
4083.96
4111.47
4138.24
4163.06
4189.44
4179.12
4210.73
4199.97
4233.45
4221.86
4259.97
4246.97
4287.89
4273.6
4321.67
4305.44
4361.28
4342.21
4406.96
4382.46
4473.7
4440.41
4562.01
4518.16
4688.58
4659.47
4632.43
4606.06
4826.26
4791.77
4758.55
4726.38
4990.91
4951.42
4912.55
4874.55
5211.23
5094.65
5164.66
5051.78
5436.19
5389.08
5291.54
5340.66
5581.75
5740.1
5691.49
5533.18
5863.72
6425.67
6609.12
6203.41
5999.21
6148.23
6370.41
7067.48
7287.3
6805.9
7015.5
7806.14
8082.45
8071.95
7521.54
7773.38
3719.52
3730.2
3741.06
3752.03
3763.13
3774.4
3785.85
3797.49
3809.31
3821.31
3833.47
3845.81
3858.33
3871.04
3883.96
3897.11
3910.5
3924.15
3938.06
3952.24
3966.69
3981.49
3997.15
4015.71
4039.1
4065.05
4091.65
4117.98
4142.78
4169.48
4159.57
4189.91
4179.62
4211.36
4200.46
4234.56
4222.7
4261.17
4247.81
4289.96
4275.21
4324.41
4307.52
4364.97
4345.15
4411.58
4386.75
4479.3
4445.35
4570.29
4525.09
4695.7
4666.15
4638.01
4610.93
4837.67
4801.95
4767.55
4734.49
5009.46
4967.8
4926.93
4887.18
5241.87
5118.47
5191.94
5072.82
5483.39
5432.3
5326.97
5380.01
5640.56
5812.1
5758.34
5587.48
5945.18
6551.62
6747.21
6312.28
6090.76
6251.33
6490.6
7238.18
7475.5
6956.85
7180.76
8043.08
8329.88
8318.16
7729.59
8001.24
3724.63
3735.25
3746.07
3757.01
3768.1
3779.39
3790.87
3802.53
3814.38
3826.39
3838.56
3850.88
3863.38
3876.05
3888.92
3902.01
3915.33
3928.9
3942.71
3956.77
3971.12
3985.96
4002.43
4022.89
4047.12
4072.6
4098.26
4122.94
4145.14
4169.59
4159.88
4189.75
4179.52
4211.43
4200.37
4235.09
4222.99
4261.72
4248.01
4291.45
4276.19
4326.59
4308.99
4368.14
4347.52
4416.04
4390.65
4485.35
4450.52
4590.43
4565.25
4520.36
4542.41
4702.93
4672.74
4643.94
4616.46
4848.76
4811.77
4776.27
4742.33
5027.9
4983.86
4940.85
4899.25
5273.37
5142.49
5219.64
5093.76
5533
5477.53
5363.5
5420.97
5702.56
5888.16
5828.73
5644.48
6030.91
6684.06
6892.6
6426.55
6187.46
6359.5
6616.94
7419.85
7675.49
7116.33
7355.86
8285.32
8566.1
8558.81
7948.49
8236.86
3729.67
3740.22
3750.99
3761.9
3773
3784.31
3795.83
3807.54
3819.4
3831.42
3843.57
3855.87
3868.31
3880.93
3893.73
3906.74
3919.97
3933.44
3947.13
3961.07
3975.35
3990.5
4008.31
4030.25
4054.46
4079.26
4103.6
4126.03
4150.02
4140.76
4169.05
4159.47
4189.07
4178.87
4210.92
4199.73
4235.01
4222.66
4261.55
4247.49
4292.27
4276.46
4328.14
4309.74
4370.94
4349.41
4420.45
4394.27
4500.41
4481.67
4456.28
4595.4
4570.25
4524.65
4546.79
4710.03
4679.24
4649.91
4621.98
4859.28
4821.04
4784.54
4749.8
5045.97
4999.33
4954.04
4910.54
5305.52
5166.54
5247.61
5114.37
5584.88
5524.53
5400.8
5463.16
5767.43
5968.22
5902.79
5703.98
6121.05
6823.36
7045.77
6546.53
6288.95
6472.78
6749.85
7612.22
7886.08
7284.7
7540.86
8527.93
8804.63
8799.93
8176.21
8476.81
3734.63
3745.1
3755.82
3766.72
3777.84
3789.19
3800.76
3812.51
3824.39
3836.39
3848.5
3860.73
3873.11
3885.64
3898.36
3911.27
3924.4
3937.75
3951.32
3965.16
3979.48
3995.36
4014.69
4037.3
4061.11
4084.9
4107.37
4127.05
4149.32
4140.34
4168
4158.53
4187.94
4177.77
4209.81
4198.58
4234.22
4221.67
4260.53
4246.13
4292.3
4275.9
4329.04
4309.67
4373.75
4350.94
4425.41
4398.17
4504.09
4484.71
4470.59
4453.34
4600.56
4575.21
4529.11
4551.45
4716.85
4685.53
4655.76
4627.47
4869.03
4829.58
4792.15
4756.7
5063.43
5014
4966.31
4920.83
5338.12
5190.48
5275.8
5134.51
5638.92
5573.12
5438.81
5506.41
5835.36
6052.15
5980.24
5766.12
6215.47
6969.87
7207.11
6672.64
6395.31
6591.6
6889.48
7814.7
8105.69
7462.19
7735.38
8771.25
9046.02
9042.46
8410.63
8719.69
3739.48
3749.86
3760.53
3771.44
3782.62
3794.05
3805.68
3817.45
3829.32
3841.27
3853.32
3865.47
3877.75
3890.19
3902.8
3915.61
3928.62
3941.84
3955.29
3969.06
3983.67
4000.67
4021.21
4043.87
4066.95
4089.26
4109.36
4130.73
4122.29
4148.11
4139.34
4166.51
4157.15
4186.34
4176.23
4208.1
4196.93
4232.63
4219.98
4258.5
4243.8
4291.41
4274.34
4329.27
4308.69
4376.6
4351.93
4437.52
4423.01
4402.6
4508.28
4488.82
4474.52
4457.04
4605.69
4580.17
4533.74
4556.23
4723.22
4691.49
4661.39
4632.82
4877.79
4837.2
4798.94
4762.91
5080.15
5027.73
4977.51
4929.99
5371.16
5214.35
5304.17
5154.21
5695.18
5623.31
5477.61
5550.73
5906.19
6139.6
6060.83
5830.7
6314.48
7123.97
7376.92
6804.81
6506.67
6715.78
7036.03
8026.32
8333.07
7648.84
7938.82
9015.8
9280.87
9280.67
8650.13
8964.98
3744.21
3754.49
3765.15
3776.12
3787.39
3798.9
3810.58
3822.34
3834.17
3846.06
3858.01
3870.06
3882.23
3894.56
3907.05
3919.73
3932.61
3945.7
3959.05
3972.86
3988.11
4006.41
4027.58
4049.82
4071.78
4092.08
4109.48
4129.67
4121.48
4146.59
4138.03
4164.63
4155.44
4184.23
4174.22
4205.77
4194.71
4230.18
4217.54
4255.26
4240.39
4289.4
4271.57
4328.57
4306.5
4384.78
4371.83
4351.46
4440.78
4425.34
4398.84
4413.08
4512.75
4493.09
4478.66
4460.91
4610.68
4585.05
4538.49
4561.03
4729.01
4696.99
4666.67
4637.93
4885.42
4843.75
4804.76
4768.26
5096.17
5040.56
4987.65
4938
5404.76
5238.11
5332.79
5173.61
5753.47
5675.09
5517.4
5596.25
5979.84
6231.02
6145.03
5897.54
6418.04
7285.87
7555.47
6943.22
6622.83
6845.75
7189.58
8246.1
8567.12
7843.99
8150.61
9259.39
9513.71
9514.99
8893.67
9211.19
3748.78
3758.98
3769.67
3780.75
3792.15
3803.75
3815.44
3827.18
3838.94
3850.72
3862.56
3874.49
3886.53
3898.73
3911.09
3923.64
3936.39
3949.35
3962.63
3976.71
3992.98
4012.35
4033.56
4054.98
4075.31
4093.22
4112.33
4104.59
4128.25
4120.23
4144.81
4136.43
4162.41
4153.45
4181.58
4171.77
4202.76
4191.88
4226.81
4214.33
4250.66
4235.8
4285.99
4267.34
4326.34
4302.61
4385.5
4371.41
4355.79
4342.63
4444.23
4428.32
4400.15
4415.22
4517.39
4497.52
4482.79
4464.7
4615.5
4589.88
4543.28
4565.84
4734.09
4701.92
4671.51
4642.73
4891.86
4849.12
4809.5
4772.68
5111.71
5052.72
4996.94
4945
5439.1
5261.93
5361.87
5193.08
5813.64
5728.45
5558.2
5643.09
6056.68
6326.55
6232.78
5966.76
6526.2
7455.87
7742.3
7088.05
6744.44
6981.81
7350.55
8473.38
8806.58
8047.39
8370.29
9500.63
9745.21
9746.59
9139.7
9457.11
3753.14
3763.31
3774.13
3785.38
3796.93
3808.59
3820.28
3831.94
3843.59
3855.24
3866.94
3878.73
3890.63
3902.69
3914.92
3927.33
3939.94
3952.8
3966.11
3980.8
3998.27
4018.2
4038.93
4059.09
4077.37
4092.7
4111.15
4103.62
4126.62
4118.81
4142.78
4134.6
4159.87
4151.19
4178.41
4168.91
4199.01
4188.42
4222.44
4210.28
4244.61
4229.93
4280.87
4261.5
4328.97
4316.76
4296.35
4385.4
4370.46
4353.77
4339.7
4447.52
4431.03
4400.76
4416.57
4522.07
4501.95
4486.59
4468.02
4620.2
4594.69
4548.06
4570.66
4738.41
4706.24
4675.87
4647.23
4897.18
4853.37
4813.19
4776.2
5127.26
5064.69
5005.81
4951.36
5474.12
5286.19
5391.48
5213.12
5875.57
5783.37
5599.9
5691.26
6136.46
6426.35
6323.98
6038.35
6639.39
7633.98
7937.05
7239.83
6871.66
7124.43
7519.53
8707.26
9050.49
8258.97
8597.67
9737.82
9977.86
9978.35
9387.24
9700.99
3757.25
3767.52
3778.56
3790.05
3801.73
3813.42
3825.05
3836.61
3848.11
3859.6
3871.14
3882.77
3894.53
3906.44
3918.53
3930.79
3943.28
3956.07
3969.67
3985.37
4003.8
4023.66
4043.45
4061.91
4077.89
4091.08
4109.78
4102.44
4124.82
4117.23
4140.51
4132.57
4157.03
4148.65
4174.79
4165.71
4194.52
4184.37
4217
4205.32
4237.12
4222.8
4273.8
4254.01
4326.01
4313.14
4284
4295.51
4384.18
4368.67
4350.34
4335.78
4450.2
4433.04
4400.21
4416.72
4526.66
4506.15
4489.57
4470.31
4624.78
4599.41
4552.49
4575.32
4742.01
4710.04
4679.88
4651.52
4901.69
4856.73
4816.02
4778.98
5143.37
5077.08
5014.93
4957.74
5509.79
5311.03
5421.69
5233.81
5939.37
5839.96
5642.54
5740.76
6219.25
6530.59
6418.96
6112.64
6757.39
7820.09
8140.05
7399.4
7004.73
7274.2
7696.58
8947.2
9297.53
8478.91
8832.12
9971.93
10213.9
10213.4
9635.26
9942.11
3761.07
3771.62
3783
3794.73
3806.52
3818.21
3829.74
3841.14
3852.46
3863.77
3875.14
3886.6
3898.21
3909.97
3921.91
3934.04
3946.42
3959.28
3973.55
3990.41
4009.22
4028.47
4046.89
4063.32
4077.04
4092.84
4101.13
4086.08
4108.28
4122.88
4115.52
4138.03
4130.38
4153.9
4145.86
4170.78
4162.18
4189.31
4179.79
4210.46
4199.45
4228.32
4214.55
4264.54
4244.89
4321.8
4308.47
4278.68
4290.35
4381.56
4365.6
4345.49
4330.63
4451.73
4433.86
4398.15
4415.33
4530.72
4509.72
4491.07
4471.02
4628.99
4603.57
4555.99
4579.25
4745.03
4713.44
4683.66
4655.58
4905.99
4859.69
4818.35
4781.23
5160.16
5090.23
5024.84
4964.85
5546.14
5336.5
5452.46
5255.11
6005.37
5898.19
5686.07
5791.41
6305.16
6638.95
6517.5
6189.4
6880.29
8014.21
8351.81
7566.92
7144.1
7431.37
7881.59
9192.16
9547.41
8707.18
9073.4
10206.8
10453.9
10452.9
9883.37
10182.3
3764.65
3775.67
3787.42
3799.38
3811.26
3822.9
3834.29
3845.5
3856.62
3867.74
3878.92
3890.22
3901.66
3913.28
3925.08
3937.09
3949.42
3962.64
3978
3995.62
4014.18
4032.37
4049.04
4063.33
4075.38
4099.72
4091.54
4084.88
4106.67
4120.83
4113.71
4135.4
4128.06
4150.52
4142.88
4166.42
4158.36
4183.51
4174.77
4202.94
4192.79
4218.38
4205.42
4261.01
4251
4234.11
4316.46
4303.04
4272.24
4284.01
4377.35
4361.05
4339.23
4324.23
4451.7
4433.15
4394.37
4412.11
4533.57
4511.89
4490.6
4469.78
4632.19
4606.48
4557.74
4581.69
4747.53
4716.36
4686.92
4658.92
4910.79
4862.82
4820.55
4783.18
5177.59
5104.17
5035.72
4973
5583.08
5362.47
5483.19
5276.78
6073.05
5957.3
5729.58
5842.54
6393.77
6751.45
6619.24
6268.24
7008.77
8216.9
8572.71
7741.89
7290.12
7595.41
8074.39
9442.32
9801.12
8943.64
9322.6
10445.2
10699.5
10698.1
10132.7
10425.2
3768.09
3779.67
3791.79
3803.96
3815.88
3827.45
3838.66
3849.66
3860.56
3871.47
3882.47
3893.6
3904.89
3916.36
3928.03
3939.95
3952.42
3966.48
3982.87
4000.6
4018.39
4035.13
4049.86
4062.32
4073.51
4098.24
4090.18
4083.7
4105
4118.69
4111.81
4132.66
4125.64
4146.98
4139.77
4161.8
4154.32
4177.31
4169.44
4194.72
4185.58
4207.58
4195.76
4254.56
4244.88
4221.16
4229.14
4310
4296.6
4265.25
4276.77
4371.51
4354.98
4331.61
4316.61
4449.74
4430.56
4388.83
4406.98
4534.52
4512.11
4487.77
4466.3
4633.63
4607.32
4557.12
4581.85
4749.53
4718.43
4689.05
4660.86
4916.55
4866.57
4822.82
4784.58
5195.21
5118.27
5046.87
4981.6
5619.19
5387.79
5512.21
5297.45
6142.21
6017.17
5766.64
5893.37
6484.6
6868.46
6723.99
6348.83
7143.03
8428.93
8803.08
7923.85
7442.49
7765.82
8275.99
9699.64
10059.5
9190.08
9581.97
10689.6
10953.6
10953.2
10387
10676.3
3771.53
3783.63
3796.08
3808.39
3820.33
3831.79
3842.82
3853.58
3864.26
3874.97
3885.78
3896.75
3907.9
3919.23
3930.79
3942.72
3955.74
3970.92
3987.74
4004.99
4021.61
4036.63
4049.48
4060.89
4075.05
4082.42
4068.96
4096.7
4088.76
4103.26
4116.49
4109.86
4129.86
4123.16
4143.37
4136.6
4157.05
4150.18
4170.93
4163.96
4186.17
4178.15
4215.14
4202.33
4196.36
4185.99
4247.38
4237.96
4222.6
4302.45
4289.17
4257.64
4268.79
4364.05
4347.43
4322.76
4307.89
4445.67
4425.94
4381.53
4399.9
4533.1
4509.99
4482.28
4460.32
4632.55
4605.43
4553.63
4579.14
4750.39
4718.92
4689.21
4660.49
4922.81
4870.64
4824.86
4784.78
5211.45
5130.53
5056.01
4988.19
5647.2
5410.33
5536.46
5310.89
6212.29
6074.51
5821.08
5942.63
6577.08
6990.16
6828.93
6427.69
7282.82
8651.21
9044.33
8114
7600.87
7944.2
8487.93
9965.88
10326.7
9448.39
9852.76
10947
11223.8
11232.6
10653.6
10948.9
3775.08
3787.59
3800.26
3812.66
3824.57
3835.89
3846.72
3857.25
3867.7
3878.21
3888.86
3899.68
3910.69
3921.91
3933.41
3945.65
3959.7
3975.57
3992.2
4008.55
4023.67
4036.87
4048.52
4059.26
4081.18
4073.92
4067.9
4095.11
4087.34
4101.47
4114.25
4107.86
4127.02
4120.64
4139.74
4133.4
4152.3
4146.04
4164.59
4158.48
4177.65
4170.78
4208.8
4196.46
4190.99
4176.95
4181.19
4239.75
4230.81
4215.8
4293.91
4280.87
4249.51
4260.2
4355.06
4338.49
4312.84
4298.22
4439.27
4419.15
4372.51
4390.89
4528.9
4505.12
4474.01
4451.75
4628.03
4600.08
4546.82
4572.99
4749.15
4716.6
4686.17
4656.78
4927.13
4872.78
4824.83
4782.5
5218.98
5135.27
5058.78
4989.06
5649.57
5434.03
5541.68
5343.79
6280.35
6146.76
5803.14
5960.41
6668.01
7116.1
6946.78
6519.3
7428
8884.54
9298.36
8314.76
7766.7
8133.11
8711.41
10245.5
10612.7
9720.01
10139.3
11247.5
11575.6
11606.4
10950.1
11278.8
3778.77
3791.56
3804.34
3816.74
3828.57
3839.73
3850.34
3860.63
3870.87
3881.2
3891.7
3902.39
3913.28
3924.41
3936.07
3949.13
3964.06
3979.99
3995.95
4011.04
4024.49
4036.34
4047.33
4057.67
4079.93
4072.78
4066.91
4093.51
4085.93
4099.68
4111.99
4105.84
4124.19
4118.11
4136.16
4130.22
4147.68
4141.99
4158.5
4153.19
4169.45
4163.75
4202.43
4190.7
4185.71
4172.52
4176.35
4231.79
4223.44
4208.89
4284.53
4271.86
4240.97
4251.12
4344.68
4328.32
4302.01
4287.79
4430.53
4410.24
4361.93
4380.12
4521.57
4497.3
4462.91
4440.65
4619.22
4590.56
4536.3
4562.89
4744.68
4710.6
4679.2
4648.81
4926.19
4870.23
4821.07
4777.92
5212.85
5130.85
5055.62
4986.27
5647.16
5444.71
5539.47
5329.17
6307.46
6130.27
5800.21
5958.36
6705.77
7253.22
6932.34
6503.06
7584.76
9131.23
9566.89
8527.44
7944.6
8333.15
8948.32
10547.1
10931.3
10007.7
10448.2
11660.8
12082.7
12173
11304.3
11713.4
3782.6
3795.52
3808.32
3820.65
3832.32
3843.29
3853.66
3863.72
3873.77
3883.95
3894.32
3904.89
3915.69
3926.87
3939.14
3953.16
3968.36
3983.84
3998.77
4012.36
4024.38
4035.52
4046.08
4056.05
4065.89
4078.65
4071.66
4091.93
4084.51
4097.91
4109.77
4103.86
4121.41
4115.62
4132.66
4127.1
4143.28
4138.07
4152.86
4148.21
4162.07
4157.32
4196.13
4185.05
4180.52
4168.49
4171.82
4223.65
4215.93
4202
4274.54
4262.31
4232.2
4241.76
4333.06
4317.1
4290.48
4276.82
4419.46
4399.3
4349.92
4367.68
4510.78
4486.31
4449.01
4427.06
4605.85
4576.49
4521.98
4548.6
4739.07
4702.69
4668.44
4636.54
4923.23
4866.96
4817.61
4774.28
5210.82
5128.87
5053.69
4984.38
5644.93
5442.96
5537.41
5326.6
6305.38
6127.01
5797.66
5956.23
6703.52
7243.31
6928.75
6499.49
7577.51
9400.08
9851.83
8748.65
7940.52
8332.35
9197.23
10879.2
11298.9
10315.9
10785.6
12235.2
12799.2
12942
11740
12266.7
3786.54
3799.46
3812.19
3824.36
3835.83
3846.55
3856.68
3866.53
3876.42
3886.47
3896.74
3907.22
3918
3929.61
3942.81
3957.28
3972.22
3986.87
4000.5
4012.64
4023.88
4034.59
4044.78
4054.48
4064.96
4064.01
4077.41
4070.6
4090.35
4083.13
4096.16
4107.62
4101.93
4118.74
4113.23
4129.34
4124.12
4139.15
4134.37
4147.75
4143.62
4158.33
4164.31
4156.08
4151.59
4189.95
4179.62
4175.55
4167.46
4215.45
4208.4
4195.22
4264.11
4252.4
4223.35
4232.27
4320.43
4305.03
4278.49
4265.48
4406.2
4386.41
4336.69
4353.83
4496.52
4472.19
4432.66
4411.3
4590.42
4559.46
4504.34
4530.82
4734.88
4683.41
4653.54
4621.89
4921.33
4865.08
4815.67
4772.24
5208.89
5126.96