/*--------------------------------*- C++ -*----------------------------------*\
  =========                 |
  \\      /  F ield         | OpenFOAM: The Open Source CFD Toolbox
   \\    /   O peration     | Website:  https://openfoam.org
    \\  /    A nd           | Version:  dev
     \\/     M anipulation  |
\*---------------------------------------------------------------------------*/
FoamFile
{
    version     2.0;
    format      ascii;
    class       volScalarField;
    location    "2500";
    object      H2O;
}
// * * * * * * * * * * * * * * * * * * * * * * * * * * * * * * * * * * * * * //

dimensions      [0 0 0 0 0 0 0];

internalField   nonuniform List<scalar> 
9848
(
2.70575e-24
9.04196e-24
4.98644e-24
1.9337e-23
2.1425e-23
5.44731e-24
2.38957e-23
5.24053e-23
2.41125e-23
3.61121e-24
6.0024e-23
1.11714e-22
6.6649e-23
1.66613e-23
1.83014e-24
9.9618e-23
1.81206e-22
1.48029e-22
5.6473e-23
1.11768e-23
6.97771e-25
7.52479e-23
4.0343e-22
3.43164e-22
1.66712e-22
4.3977e-23
4.89183e-24
1.16304e-25
2.61838e-22
7.03592e-22
6.6599e-22
3.56615e-22
1.40116e-22
3.02723e-23
1.95463e-24
3.65549e-26
3.82568e-22
1.09354e-21
1.15779e-21
8.17404e-22
3.42955e-22
1.00407e-22
1.35071e-23
5.45382e-25
1.98313e-26
3.65317e-22
1.63451e-21
1.99556e-21
1.66558e-21
7.72128e-22
2.67899e-22
5.58135e-23
5.46949e-24
2.89416e-25
1.04238e-26
3.20593e-22
1.45984e-21
3.32713e-21
2.95406e-21
1.66e-21
5.57121e-22
1.42064e-22
1.79278e-23
2.2538e-24
1.09859e-25
4.03321e-27
7.46243e-22
1.62813e-21
5.62487e-21
6.11664e-21
3.1594e-21
1.3778e-21
4.66896e-22
7.16491e-23
7.70676e-24
5.67196e-25
4.08121e-26
1.26389e-27
5.32595e-22
3.98696e-21
6.55694e-21
1.00919e-20
6.93822e-21
3.08331e-21
1.11582e-21
3.11535e-22
3.71227e-23
2.91233e-24
2.44583e-25
1.33775e-26
1.66392e-28
8.88704e-22
5.53082e-21
1.21846e-20
1.80489e-20
1.30519e-20
5.50217e-21
2.22719e-21
7.44101e-22
1.69221e-22
2.14631e-23
1.21937e-24
7.59442e-26
4.17254e-27
4.01003e-29
1.61484e-21
9.09205e-21
1.64624e-20
2.65846e-20
2.29404e-20
1.24218e-20
4.11061e-21
1.75862e-21
4.67153e-22
8.7198e-23
8.43193e-24
4.78195e-25
2.5527e-26
9.87681e-28
1.61345e-29
2.88607e-21
8.05315e-21
2.74384e-20
4.03224e-20
3.96158e-20
2.5753e-20
1.11422e-20
3.31781e-21
1.19367e-21
2.2732e-22
3.40089e-23
3.09481e-24
1.11694e-25
5.65726e-27
2.51804e-28
6.73593e-30
1.93159e-21
1.98212e-20
4.38841e-20
6.42039e-20
6.53392e-20
4.37213e-20
2.24836e-20
8.61549e-21
2.59239e-21
6.94647e-22
9.05104e-23
1.49931e-23
8.39519e-25
4.72482e-26
2.10803e-27
7.70324e-29
4.57854e-29
1.17875e-21
2.08699e-20
6.5188e-20
9.72286e-20
1.01188e-19
7.38531e-20
3.67e-20
1.75786e-20
5.93568e-21
1.57369e-21
3.15087e-22
5.14576e-23
5.86725e-24
2.55206e-25
1.22951e-26
7.95204e-28
8.76463e-28
1.38763e-27
3.03164e-21
2.33527e-20
8.31792e-20
1.15326e-19
1.54161e-19
1.37696e-19
7.03292e-20
2.82766e-20
1.23789e-20
3.79496e-21
8.82499e-22
1.62628e-22
2.26162e-23
2.04316e-24
4.62243e-26
4.85023e-27
1.14194e-26
2.806e-26
3.21452e-26
3.69124e-21
1.50572e-20
5.91549e-20
1.66213e-19
2.69238e-19
2.34325e-19
1.40975e-19
6.33524e-20
1.92602e-20
8.36031e-21
2.07351e-21
3.68567e-22
5.09526e-23
8.77982e-24
4.13758e-25
4.53924e-26
1.28536e-25
4.19884e-25
7.75163e-25
1.05553e-24
5.42559e-21
2.13134e-20
6.25485e-20
2.54867e-19
3.49554e-19
3.66418e-19
2.45303e-19
1.11131e-19
4.68544e-20
1.51893e-20
4.76662e-21
1.30429e-21
1.87251e-22
2.66544e-23
2.77078e-24
4.52372e-25
1.36327e-24
4.55586e-24
1.30982e-23
2.16706e-23
2.53047e-23
3.53972e-21
3.53248e-20
1.02649e-19
2.78451e-19
5.35968e-19
4.97403e-19
4.02772e-19
2.22783e-19
7.21096e-20
2.94934e-20
9.85096e-21
3.01631e-21
5.42458e-22
6.62229e-23
7.58782e-24
3.37161e-24
1.33218e-23
4.42927e-23
1.4096e-22
3.50958e-22
5.11683e-22
4.72098e-22
1.08466e-20
3.76084e-20
1.92636e-19
2.6356e-19
6.62359e-19
7.69323e-19
6.44258e-19
3.54704e-19
1.75888e-19
4.49814e-20
1.8008e-20
6.02605e-21
1.09951e-21
2.6212e-22
3.54531e-23
2.08462e-23
1.08762e-22
4.95684e-22
1.63547e-21
3.64681e-21
8.4508e-21
8.56302e-21
8.68471e-21
3.6519e-21
6.98728e-20
1.63529e-19
5.7028e-19
7.47045e-19
1.12914e-18
9.52632e-19
6.39559e-19
3.08527e-19
8.69447e-20
3.11833e-20
1.20459e-20
2.93138e-21
4.86057e-22
9.32824e-23
9.851e-23
8.0089e-22
3.96579e-21
1.48836e-20
4.73e-20
1.08683e-19
1.64463e-19
1.66081e-19
1.08068e-19
9.9251e-21
4.33112e-20
2.82738e-19
5.29019e-19
1.03574e-18
1.93182e-18
1.44373e-18
9.98689e-19
5.25702e-19
2.11459e-19
6.35046e-20
2.22261e-20
5.02331e-21
1.24742e-21
2.35063e-22
5.98676e-22
4.58156e-21
3.17547e-20
1.58538e-19
5.17634e-19
1.10919e-18
2.22061e-18
3.16764e-18
2.95382e-18
1.24111e-18
1.14257e-20
5.33922e-20
3.51964e-19
6.36442e-19
1.74405e-18
2.52881e-18
2.41866e-18
1.631e-18
7.74288e-19
3.56796e-19
1.18847e-19
4.224e-20
1.42757e-20
3.47865e-21
8.68312e-22
2.40156e-21
2.80945e-20
2.32023e-19
1.06838e-18
4.86282e-18
1.24982e-17
1.89843e-17
3.4704e-17
4.12723e-17
3.26678e-17
1.49413e-17
2.91606e-20
6.13323e-20
4.43866e-19
1.03483e-18
1.67398e-18
3.17438e-18
3.79413e-18
2.60552e-18
1.55768e-18
5.24449e-19
2.2984e-19
8.032e-20
2.56577e-20
8.23323e-21
2.28347e-21
1.13053e-20
1.27559e-19
1.287e-18
8.58292e-18
3.27918e-17
1.14542e-16
2.78528e-16
3.16485e-16
4.36509e-16
5.04257e-16
3.76301e-16
1.37421e-16
1.67415e-20
1.86039e-19
5.01738e-19
9.58786e-19
1.83315e-18
3.92853e-18
5.39657e-18
4.07685e-18
2.33246e-18
1.20682e-18
3.80094e-19
1.36683e-19
4.60115e-20
1.70983e-20
6.01798e-21
3.9632e-20
5.74416e-19
5.63715e-18
4.86876e-17
2.66739e-16
7.67598e-16
2.14613e-15
4.11174e-15
5.59312e-15
5.97443e-15
4.68538e-15
3.08131e-15
8.56462e-16
1.50937e-20
2.53668e-19
6.93706e-19
1.56552e-18
3.04358e-18
3.96668e-18
7.21997e-18
6.28504e-18
3.85606e-18
1.83325e-18
8.96538e-19
1.97871e-19
9.62906e-20
3.09483e-20
1.1907e-20
1.21304e-19
2.06667e-18
2.64756e-17
2.58446e-16
1.69501e-15
6.89911e-15
1.9407e-14
4.41948e-14
7.25259e-14
8.64241e-14
7.80844e-14
5.54814e-14
3.05754e-14
7.55888e-15
8.21132e-21
1.82055e-19
8.91422e-19
1.60187e-18
3.35494e-18
5.46256e-18
9.47384e-18
8.68857e-18
6.08634e-18
3.05442e-18
1.37509e-18
3.95068e-19
1.40036e-19
6.28218e-20
2.83882e-20
3.70842e-19
5.96897e-18
9.9076e-17
1.09182e-15
9.92823e-15
5.61744e-14
1.64706e-13
4.22283e-13
8.01512e-13
1.11053e-12
1.15124e-12
9.04055e-13
5.57241e-13
2.60203e-13
5.338e-14
2.68614e-20
1.95448e-19
9.08759e-19
1.8561e-18
4.58426e-18
8.04427e-18
1.06252e-17
1.2132e-17
8.54074e-18
4.68215e-18
2.45276e-18
9.88238e-19
2.52642e-19
1.04953e-19
4.75347e-20
6.62578e-19
2.22614e-17
3.2799e-16
4.7364e-15
5.11174e-14
3.58243e-13
1.17152e-12
3.5178e-12
7.53321e-12
1.20054e-11
1.43298e-11
1.28858e-11
8.81447e-12
4.68709e-12
1.83673e-12
2.93596e-13
2.0541e-20
2.4223e-19
7.27723e-19
2.15776e-18
5.83597e-18
8.80547e-18
1.43121e-17
1.55584e-17
1.44465e-17
7.90642e-18
3.85674e-18
1.78685e-18
6.225e-19
1.8997e-19
7.78591e-20
8.51029e-19
4.07987e-17
1.20242e-15
1.60759e-14
2.29916e-13
1.98998e-12
7.15506e-12
2.39664e-11
6.08554e-11
1.09182e-10
1.49383e-10
1.54602e-10
1.21124e-10
7.17545e-11
3.21122e-11
9.93435e-12
1.04148e-12
9.70464e-20
4.20743e-19
7.33578e-19
2.7594e-18
6.05062e-18
1.39261e-17
2.10124e-17
2.40409e-17
1.97192e-17
1.39169e-17
6.47312e-18
2.8688e-18
1.1888e-18
3.50186e-19
1.26373e-19
8.40057e-19
4.83862e-17
2.45785e-15
6.43731e-14
8.35002e-13
8.85482e-12
4.32322e-11
1.33713e-10
4.00897e-10
8.42739e-10
1.29794e-09
1.53736e-09
1.38808e-09
9.46821e-10
4.76705e-10
1.69353e-10
3.32452e-11
1.6259e-12
3.28429e-19
3.40922e-19
1.46687e-18
3.64355e-18
5.55188e-18
1.34382e-17
2.5908e-17
3.23446e-17
2.82583e-17
2.00466e-17
1.09842e-17
4.53851e-18
2.07496e-18
6.37614e-19
2.20422e-19
6.98011e-19
4.64038e-17
2.79684e-15
1.43217e-13
3.45571e-12
3.23298e-11
1.65933e-10
6.23318e-10
2.15334e-09
5.29546e-09
9.45521e-09
1.26038e-08
1.30326e-08
1.02994e-08
6.04006e-09
2.46509e-09
5.41509e-10
3.58939e-11
1.4734e-13
1.99078e-12
2.36761e-18
1.85469e-18
1.467e-18
3.99703e-18
6.89238e-18
1.41381e-17
3.57519e-17
4.14733e-17
4.00974e-17
2.94728e-17
1.86462e-17
8.19923e-18
3.12248e-18
1.34012e-18
3.7977e-19
5.41059e-19
3.53847e-17
2.63138e-15
1.57315e-13
7.53783e-12
1.3505e-10
8.0986e-10
2.56966e-09
9.66343e-09
2.69744e-08
5.57107e-08
8.57619e-08
9.98252e-08
9.09304e-08
6.2701e-08
3.04154e-08
8.11678e-09
1.81573e-11
1.45965e-11
9.10092e-11
2.02956e-13
3.44488e-12
1.49415e-17
1.12203e-17
6.24959e-18
6.9489e-18
1.22242e-17
1.71171e-17
4.75484e-17
5.24623e-17
5.90354e-17
4.31561e-17
2.92533e-17
1.38363e-17
6.76777e-18
2.20356e-18
7.3002e-19
4.6468e-19
2.13872e-17
1.98971e-15
1.45907e-13
8.32432e-12
2.92447e-10
3.28829e-09
9.84394e-09
3.64449e-08
1.1395e-07
2.65237e-07
4.69539e-07
6.29332e-07
6.49837e-07
5.27464e-07
3.09491e-07
1.04455e-07
2.51011e-09
1.16431e-08
4.49107e-10
4.50781e-09
2.58603e-09
2.77569e-11
1.82134e-10
3.9358e-13
6.91664e-12
5.46078e-17
5.73795e-17
3.04436e-17
1.22329e-17
1.6663e-17
2.81293e-17
5.43123e-17
7.49733e-17
8.24346e-17
6.92241e-17
4.10093e-17
2.38544e-17
1.01629e-17
4.06632e-18
1.38747e-18
5.64903e-19
1.08619e-17
1.10555e-15
1.04835e-13
7.5883e-12
3.23881e-10
5.75709e-09
3.16591e-08
1.18706e-07
4.00261e-07
1.04011e-06
2.06276e-06
3.1752e-06
3.78269e-06
3.53453e-06
2.55811e-06
1.12144e-06
4.83183e-08
1.99831e-07
2.26386e-08
1.06142e-09
1.23863e-08
5.70864e-09
5.70706e-11
3.79757e-10
7.34174e-13
1.30909e-11
1.93288e-16
3.97441e-16
2.06133e-16
4.96438e-17
2.41616e-17
3.23611e-17
5.94187e-17
1.09479e-16
1.03825e-16
9.7812e-17
6.63065e-17
3.71763e-17
1.90102e-17
6.99815e-18
2.92845e-18
9.31414e-19
5.70624e-18
4.96783e-16
5.72157e-14
5.3533e-12
3.36294e-10
8.50228e-09
9.00822e-08
3.64279e-07
1.20243e-06
3.33537e-06
7.40034e-06
1.26819e-05
1.72841e-05
1.865e-05
1.60688e-05
9.73055e-06
7.21344e-07
2.63424e-06
1.0198e-07
4.14711e-07
5.61396e-08
2.25135e-09
2.78133e-08
1.21224e-08
1.11254e-10
7.57032e-10
1.25928e-12
2.28541e-11
1.19106e-15
2.50873e-15
1.48614e-15
3.68816e-16
6.79507e-17
4.34499e-17
6.92999e-17
1.33988e-16
1.54024e-16
1.42277e-16
1.00804e-16
5.85111e-17
3.18853e-17
1.28276e-17
4.83486e-18
1.79129e-18
2.81076e-18
2.47529e-16
2.59221e-14
2.93035e-12
2.54389e-10
7.96191e-09
1.25998e-07
7.09404e-07
3.15056e-06
9.09557e-06
2.10996e-05
4.02827e-05
6.01033e-05
7.35308e-05
7.3247e-05
5.94446e-05
8.78618e-06
2.9376e-05
1.5443e-06
5.45538e-06
2.36554e-07
9.26099e-07
1.24338e-07
4.52893e-09
5.85563e-08
2.41941e-08
2.01261e-10
1.41312e-09
1.95839e-12
3.63996e-11
7.08898e-15
1.43551e-14
1.0171e-14
1.91252e-15
3.56952e-16
9.54195e-17
9.09177e-17
1.51455e-16
2.04499e-16
1.98384e-16
1.37555e-16
9.1416e-17
4.33002e-17
2.20079e-17
7.46001e-18
3.4481e-18
2.15657e-18
9.00619e-17
1.03174e-14
1.2783e-12
1.4067e-10
7.20003e-09
1.37284e-07
9.90278e-07
6.27106e-06
2.15513e-05
5.09694e-05
9.75479e-05
0.000158895
0.000208171
0.00023143
0.00021703
8.24933e-05
0.000196439
1.86269e-05
5.84222e-05
3.3784e-06
1.17438e-05
5.11316e-07
1.95429e-06
2.57265e-07
8.62126e-09
1.16621e-07
4.64699e-08
3.35712e-10
2.46352e-09
2.59119e-12
5.03658e-11
3.86949e-14
9.17395e-14
5.43079e-14
1.04547e-14
2.31981e-15
3.16962e-16
1.71862e-16
1.90233e-16
2.86828e-16
2.65224e-16
2.27739e-16
1.30459e-16
7.78459e-17
3.4018e-17
1.54021e-17
5.8214e-18
2.26797e-18
3.71342e-17
3.80311e-15
4.81442e-13
5.78463e-11
4.94308e-09
1.29735e-07
1.08495e-06
8.83169e-06
3.89226e-05
0.000101902
0.000192662
0.000294269
0.000396574
0.000461994
0.00047793
0.000308181
0.000464173
0.000152963
0.000279616
3.85262e-05
0.00011181
7.01305e-06
2.38759e-05
1.03576e-06
3.88671e-06
5.05247e-07
1.54803e-08
2.22223e-07
8.49097e-08
4.95546e-10
3.81971e-09
1.89781e-12
4.57559e-11
1.9691e-13
4.98927e-13
2.39049e-13
5.91989e-14
1.18511e-14
1.65609e-15
3.71273e-16
3.03055e-16
3.6254e-16
3.81215e-16
3.14759e-16
1.95499e-16
1.19874e-16
5.04015e-17
2.4726e-17
1.04924e-17
4.17653e-18
1.56279e-17
1.23003e-15
1.63654e-13
2.0372e-11
2.24079e-09
1.03033e-07
1.04775e-06
9.58609e-06
5.31337e-05
0.000165252
0.000328449
0.000494625
0.00062281
0.000722976
0.000784848
0.000604164
0.000796531
0.000425067
0.000589672
0.000234791
0.000382842
7.31602e-05
0.000184921
1.38059e-05
4.52913e-05
2.0036e-06
7.44778e-06
9.53693e-07
2.49894e-08
4.05241e-07
1.41699e-07
5.25502e-10
4.69112e-09
1.30443e-12
4.307e-11
9.20416e-13
2.44402e-12
1.16873e-12
3.18841e-13
5.17389e-14
9.8322e-15
1.4264e-15
5.15015e-16
4.71912e-16
5.46724e-16
4.46107e-16
2.94878e-16
1.58242e-16
9.50246e-17
4.05579e-17
1.56632e-17
6.77205e-18
8.31446e-18
4.38403e-16
5.17202e-14
6.53511e-12
7.38996e-10
5.41197e-08
8.91934e-07
9.31285e-06
5.77443e-05
0.000215054
0.000477806
0.000742913
0.000949238
0.00106268
0.00112804
0.000961933
0.00119457
0.000773986
0.000975589
0.000554417
0.000750141
0.000332811
0.000510548
0.00013053
0.000276326
2.61975e-05
8.18342e-05
3.77105e-06
1.40656e-05
1.7587e-06
3.59506e-08
7.13248e-07
2.33517e-07
6.03955e-10
6.42851e-09
2.67436e-12
1.0245e-10
3.73224e-12
1.08541e-11
5.39918e-12
1.75231e-12
2.82403e-13
4.75065e-14
8.23617e-15
1.23241e-15
6.60411e-16
7.16633e-16
6.55449e-16
5.11221e-16
2.48618e-16
1.43777e-16
6.48403e-17
2.94661e-17
1.09733e-17
8.25726e-18
1.34728e-16
1.55797e-14
1.97226e-12
2.2191e-10
1.94176e-08
5.8611e-07
7.95038e-06
5.66713e-05
0.000231694
0.0005874
0.000996958
0.00131391
0.0015266
0.00162688
0.00138255
0.00165061
0.0011945
0.00142121
0.000968376
0.00120239
0.000717636
0.000951998
0.00045981
0.000679332
0.000213858
0.000402383
4.89102e-05
0.000146706
7.13662e-06
2.72177e-05
3.30996e-06
5.7906e-08
1.32341e-06
4.34921e-07
1.18178e-09
1.19363e-08
6.47312e-11
2.2805e-09
1.21218e-11
4.1786e-11
2.29904e-11
9.01877e-12
1.52365e-12
2.75927e-13
4.62079e-14
5.19449e-15
1.18776e-15
1.04673e-15
8.97439e-16
7.17643e-16
4.76816e-16
1.94729e-16
9.36457e-17
4.99133e-17
2.41103e-17
1.26675e-17
5.98039e-17
4.51047e-15
5.69098e-13
6.42796e-11
5.88495e-09
2.98424e-07
4.82439e-06
5.04709e-05
0.000229309
0.000622609
0.00114701
0.00150462
0.00169684
0.00180903
0.00179448
0.00188604
0.00165895
0.00182488
0.00144171
0.00167658
0.00120583
0.00146047
0.000930151
0.00120238
0.000636069
0.000906035
0.00033768
0.000586163
9.31552e-05
0.000263181
1.43429e-05
5.66813e-05
6.93297e-06
1.19576e-07
2.93107e-06
1.05244e-06
1.48426e-08
7.86269e-08
3.81652e-09
1.01887e-07
3.86005e-11
1.2794e-10
8.26939e-11
3.151e-11
8.07241e-12
1.4683e-12
2.1787e-13
2.72343e-14
3.61952e-15
1.62141e-15
1.32375e-15
1.02916e-15
6.47604e-16
3.85808e-16
1.81338e-16
8.01158e-17
4.28339e-17
2.4339e-17
3.46276e-17
1.34231e-15
1.58708e-13
1.80238e-11
1.67133e-09
1.09475e-07
2.41179e-06
3.41034e-05
0.000209918
0.00062265
0.00116421
0.00149369
0.00167299
0.00178062
0.0018519
0.00189069
0.00190602
0.00182571
0.00188966
0.00168609
0.00181878
0.00147547
0.00168793
0.00119637
0.00148313
0.000878703
0.00118923
0.000529704
0.000846859
0.000186468
0.00046597
3.26607e-05
0.000129027
1.7692e-05
4.65322e-07
8.55074e-06
4.14814e-06
4.25581e-07
1.01484e-06
3.13293e-07
2.72632e-06
1.19876e-10
3.79475e-10
2.40633e-10
8.61718e-11
4.65484e-11
7.75212e-12
1.11461e-12
1.54209e-13
1.8983e-14
3.40727e-15
2.06809e-15
1.54072e-15
1.07914e-15
6.85728e-16
2.74569e-16
1.37781e-16
8.21686e-17
4.88568e-17
4.22931e-17
4.36245e-16
4.29576e-14
4.90751e-12
4.6428e-10
3.20273e-08
1.08375e-06
1.84484e-05
0.000157586
0.000579721
0.00111069
0.00140663
0.00156333
0.00160975
0.00157798
0.00171682
0.00142222
0.00189676
0.00185045
0.00187936
0.00187623
0.00180492
0.00185915
0.00168732
0.0017889
0.00148612
0.00168556
0.00117964
0.00148374
0.000811278
0.00116753
0.000386707
0.000768489
8.59365e-05
0.000303602
5.46136e-05
3.59431e-06
3.27474e-05
2.13649e-05
5.69289e-06
1.04933e-05
1.15683e-05
3.34862e-05
3.67162e-10
1.07753e-09
6.6618e-10
2.59079e-10
1.18925e-10
4.06081e-11
6.06927e-12
1.11346e-12
1.19309e-13
1.43767e-14
3.31148e-15
2.18242e-15
1.81311e-15
9.66988e-16
6.64071e-16
3.6187e-16
2.00272e-16
1.04715e-16
8.72565e-17
2.32075e-16
1.13725e-14
1.30244e-12
1.25923e-10
9.14894e-09
4.19108e-07
8.09711e-06
9.76926e-05
0.000466308
0.000992466
0.00124413
0.00131279
0.00117202
0.000913325
0.00110653
0.000652037
0.0013645
0.00101504
0.00181554
0.00165368
0.00184862
0.00177311
0.00183399
0.00181535
0.00177503
0.00180918
0.00168301
0.00176664
0.0014781
0.00167889
0.0011527
0.00147394
0.000714964
0.00113195
0.000234794
0.000646684
0.000179004
2.66928e-05
0.000129265
0.000107767
5.03363e-05
7.78161e-05
0.000119179
0.000196879
1.12593e-09
2.92164e-09
1.81753e-09
7.38818e-10
2.49539e-10
1.4099e-10
2.78213e-11
4.66095e-12
9.25769e-13
5.18727e-14
1.28972e-14
3.83339e-15
2.4648e-15
2.05909e-15
1.01598e-15
7.74177e-16
4.62296e-16
3.07412e-16
1.95459e-16
2.79885e-16
3.25463e-15
3.38443e-13
3.33893e-11
2.5492e-09
1.33157e-07
4.14568e-06
5.08739e-05
0.000326863
0.000851644
0.0010962
0.00108788
0.000742363
0.000375672
0.000408733
0.000165157
0.000636529
0.00031682
0.000968819
0.000605749
0.00159122
0.00130667
0.00172696
0.00153065
0.0017817
0.00168127
0.00179035
0.00175445
0.00176663
0.00178276
0.00168111
0.00177509
0.00146964
0.0016888
0.00109912
0.0014617
0.000570848
0.00105448
0.000488568
0.000158681
0.00041436
0.000410452
0.000263069
0.000364241
0.000519334
0.000703759
3.16315e-09
7.56861e-09
4.78982e-09
2.0177e-09
6.71086e-10
3.29724e-10
1.12846e-10
1.90792e-11
3.16318e-12
3.69754e-13
4.85978e-14
1.07118e-14
4.60152e-15
4.40403e-15
2.62513e-15
1.82063e-15
1.69487e-15
1.2352e-15
6.62899e-16
5.9893e-16
1.92425e-15
8.67057e-14
8.6687e-12
6.9331e-10
3.97827e-08
1.65251e-06
2.1736e-05
0.000200348
0.000684737
0.00097027
0.000951608
0.000539448
0.000235361
7.24513e-05
0.000139788
5.93718e-05
0.000292927
0.000120223
0.000581439
0.000299603
0.00125165
0.000925639
0.00147796
0.00121023
0.00164379
0.00144329
0.00174199
0.00162603
0.00179239
0.00175607
0.00179799
0.00182497
0.00169934
0.00182875
0.00144443
0.00170924
0.000999786
0.00141774
0.000936504
0.000571959
0.000888474
0.000927455
0.000800156
0.000928619
0.00065517
0.00111252
1.79716e-08
1.23429e-08
5.22485e-09
1.87527e-09
6.84694e-10
5.26356e-10
1.1342e-10
1.38576e-11
2.65055e-12
1.69277e-13
4.57318e-14
1.03812e-14
1.0468e-14
1.05824e-14
5.83493e-15
5.38529e-15
5.9787e-15
3.09164e-15
1.97062e-15
2.37788e-15
2.43266e-14
2.20623e-12
1.83975e-10
1.14549e-08
5.04658e-07
8.24331e-06
0.000103614
0.000492844
0.000859208
0.00087432
0.000509462
0.000252116
0.000104052
2.1222e-05
3.99962e-05
4.62226e-05
2.30435e-05
0.000128081
4.85248e-05
0.000352043
0.000171694
0.000904657
0.000603821
0.0011999
0.000938164
0.00144925
0.00125196
0.00165458
0.00151657
0.00180207
0.0017316
0.00187607
0.00187012
0.00186685
0.00194675
0.00171384
0.00190887
0.00138235
0.00171201
0.00134353
0.00110991
0.00132898
0.00138412
0.00127719
0.0013756
0.000237825
0.00102216
3.33003e-08
1.43754e-08
5.27603e-09
1.85645e-09
1.29373e-09
5.11607e-10
6.16675e-11
1.06201e-11
9.95564e-13
1.50164e-13
3.75239e-14
2.8154e-14
4.57339e-14
2.81011e-14
2.34631e-14
3.18794e-14
1.86278e-14
9.21533e-15
7.27028e-15
1.71501e-14
5.57803e-13
4.76776e-11
3.1806e-09
1.55709e-07
4.38313e-06
4.57855e-05
0.000310699
0.000731816
0.00083141
0.000537487
0.000317032
0.000186293
6.12651e-05
0.000109385
1.40884e-05
2.51773e-05
1.87017e-05
1.1198e-05
7.14034e-05
2.71234e-05
0.000274837
0.000133584
0.000690547
0.000465381
0.00103974
0.00082833
0.00135571
0.00118334
0.00161987
0.00148604
0.00182465
0.00174187
0.00197184
0.00196004
0.00203225
0.00210494
0.00194921
0.00212512
0.00170372
0.00198265
0.00169218
0.00151694
0.00169918
0.00171844
0.00159414
0.00143377
0.0016248
0.000148721
0.000925172
4.61232e-08
1.57567e-08
5.43791e-09
2.35333e-09
1.15878e-09
3.89967e-10
3.36995e-11
4.83736e-12
6.03708e-13
1.44935e-13
1.03259e-13
1.89623e-13
1.45578e-13
1.13848e-13
1.32204e-13
1.33453e-13
5.82997e-14
3.59938e-14
3.59699e-14
1.98826e-13
1.20948e-11
8.54667e-10
4.54835e-08
1.83032e-06
1.76941e-05
0.000166135
0.000566171
0.000783978
0.000604199
0.000405741
0.00028751
0.000170617
5.29397e-05
8.55004e-05
7.01021e-06
1.38488e-05
1.06422e-05
6.26224e-06
5.35759e-05
1.96236e-05
0.000261749
0.000121121
0.000627289
0.00043807
0.000996191
0.000817627
0.00133843
0.00118911
0.00163891
0.00152524
0.00191567
0.00184177
0.00213783
0.00212855
0.00225724
0.00234044
0.0022152
0.00241053
0.0020101
0.00228592
0.00214906
0.00186083
0.00201962
0.00175733
0.00168502
0.00178042
0.00186909
0.00202547
0.00202753
0.00188131
0.00148699
0.00180912
0.00180088
0.00167946
0.000209649
0.00104561
5.81671e-08
1.72673e-08
6.24786e-09
3.50621e-09
1.05358e-09
1.70651e-10
2.30007e-11
2.48244e-12
5.86186e-13
4.47983e-13
6.23842e-13
8.26277e-13
5.66835e-13
5.79725e-13
8.05885e-13
3.78838e-13
2.01425e-13
1.55079e-13
2.27533e-13
3.20458e-12
2.23359e-10
1.27373e-08
5.39014e-07
7.08058e-06
7.61277e-05
0.000378536
0.00070063
0.000659125
0.00049105
0.000387047
0.000277343
0.000100107
0.000163255
3.16404e-05
6.41202e-05
3.63534e-06
6.33804e-06
7.50679e-06
3.76719e-06
4.51418e-05
1.55952e-05
0.000263762
0.000108658
0.000650011
0.000467128
0.00104081
0.00087803
0.00140035
0.00124057
0.00173814
0.00159637
0.00207562
0.00197006
0.00236876
0.00233361
0.00255444
0.00253669
0.00255271
0.00240916
0.00252841
0.00270381
0.00262364
0.00232031
0.0021817
0.00234697
0.0024613
0.00219217
0.00189969
0.00191282
0.0020318
0.00220028
0.00219805
0.00203787
0.00174899
0.00145064
0.00165165
0.00191522
0.00188765
0.000624581
0.00150847
0.00135688
0.0011188
7.05565e-08
1.96586e-08
9.45476e-09
3.85966e-09
6.49945e-10
9.81834e-11
1.07654e-11
2.48367e-12
2.01207e-12
3.02644e-12
4.57312e-12
2.93903e-12
2.59579e-12
3.42235e-12
2.50098e-12
1.1794e-12
7.67427e-13
7.02247e-13
1.75185e-12
5.73886e-11
3.44915e-09
1.56037e-07
3.90602e-06
3.04104e-05
0.000210693
0.000567159
0.00066546
0.000564881
0.000474796
0.000382263
0.000228489
7.60005e-05
0.000119049
1.58812e-05
3.85809e-05
1.94949e-06
2.90716e-06
5.746e-06
2.55335e-06
3.50203e-05
1.14639e-05
0.000231724
7.80885e-05
0.000686963
0.000465043
0.00106761
0.000874391
0.00142316
0.00122819
0.00181758
0.00162964
0.00224093
0.00210501
0.00255512
0.00254331
0.00252467
0.00249385
0.00275901
0.00279836
0.00267767
0.00268949
0.00259226
0.00270718
0.00286633
0.00279806
0.002504
0.0023645
0.00253795
0.00265161
0.00237889
0.00204301
0.0020412
0.00220219
0.00238653
0.00238913
0.00220018
0.0018231
0.00172109
0.00202461
0.00198213
0.00123329
0.000789968
0.00103975
0.00158823
0.00145308
8.35567e-08
2.58323e-08
1.06888e-08
2.60887e-09
3.37493e-10
4.69341e-11
1.35213e-11
8.34893e-12
1.55652e-11
1.97871e-11
1.53022e-11
1.23057e-11
1.28255e-11
1.43413e-11
6.76733e-12
3.95435e-12
3.07574e-12
2.98566e-12
1.78631e-11
9.09198e-10
4.3599e-08
1.4503e-06
1.0889e-05
9.94123e-05
0.000395391
0.000639202
0.000610629
0.000546867
0.000475347
0.000343852
0.000124674
0.000193701
4.10823e-05
8.05447e-05
6.60611e-06
1.65271e-05
1.1386e-06
1.3122e-06
4.53792e-06
1.98488e-06
2.2493e-05
8.67946e-06
0.000155818
4.81045e-05
0.000646575
0.000388905
0.00101017
0.000768401
0.00141465
0.00117266
0.00192751
0.00170515
0.00245802
0.0024078
0.00234991
0.00227244
0.00269204
0.0026866
0.00267436
0.00265355
0.00291587
0.00295436
0.00282348
0.00284109
0.00278125
0.00288692
0.00302864
0.00296725
0.00270283
0.0025643
0.00274467
0.00284871
0.00258303
0.00219319
0.00217651
0.00238622
0.0025928
0.00259486
0.00237559
0.00190815
0.00180335
0.00214431
0.00208923
0.00130807
0.000801169
0.00109085
0.00167525
0.00153071
9.85978e-08
3.28161e-08
8.10062e-09
1.24939e-09
1.84701e-10
5.11276e-11
3.47601e-11
5.97953e-11
1.3786e-10
7.83987e-11
6.1673e-11
5.33709e-11
6.27074e-11
3.69696e-11
2.04798e-11
1.40482e-11
1.11105e-11
1.61151e-11
2.40901e-10
1.18553e-08
4.23077e-07
6.07891e-06
4.16236e-05
0.00022916
0.000546345
0.000614571
0.000595163
0.000550816
0.00044974
0.000256744
8.3413e-05
0.000133315
1.62966e-05
4.10218e-05
2.68014e-06
6.52557e-06
8.0467e-07
6.25198e-07
4.05927e-06
1.78011e-06
1.69417e-05
7.65217e-06
9.9542e-05
3.68571e-05
0.000508259
0.000258472
0.000905467
0.000641057
0.00144614
0.00115986
0.00218518
0.00207326
0.00195226
0.00180584
0.00262254
0.00257774
0.00251741
0.00243852
0.00285279
0.00285761
0.00285417
0.0028379
0.00307977
0.0029868
0.00312617
0.00301498
0.00296833
0.00306143
0.00319731
0.00313443
0.00290776
0.00277804
0.0029569
0.0030426
0.00280117
0.00235672
0.00232593
0.00258678
0.00281371
0.00281521
0.00256807
0.00200753
0.00189892
0.00227935
0.0022124
0.00134948
0.000672471
0.00103117
0.00176177
0.00159237
1.14617e-07
2.532e-08
4.20244e-09
6.70931e-10
1.57131e-10
1.36737e-10
2.40646e-10
3.71244e-10
4.12432e-10
3.16473e-10
2.49936e-10
2.31132e-10
2.04388e-10
1.05063e-10
6.52638e-11
4.75981e-11
3.82007e-11
1.04312e-10
3.16159e-09
1.20173e-07
2.99118e-06
1.57397e-05
0.000111401
0.000384521
0.00059198
0.000611558
0.000604258
0.000538168
0.00037649
0.000126958
0.000198423
3.66615e-05
7.83646e-05
5.96836e-06
1.49046e-05
1.03499e-06
2.39578e-06
7.28379e-07
3.95011e-07
3.98902e-06
1.77105e-06
1.52355e-05
7.42037e-06
8.25209e-05
3.41167e-05
0.00039666
0.000197498
0.000869798
0.000598786
0.00162081
0.0012832
0.00234109
0.00222292
0.00208557
0.00192711
0.00280573
0.00275557
0.00268535
0.00259411
0.00303629
0.0030459
0.00304049
0.00301491
0.00325631
0.00316851
0.00331062
0.00320276
0.00314793
0.00323208
0.00337533
0.00330563
0.00310783
0.00299683
0.00316341
0.00322668
0.00302488
0.0025377
0.00249339
0.0028031
0.00304117
0.0030436
0.00277776
0.00212112
0.00200092
0.00243274
0.00235217
0.0013473
0.000416906
0.000864393
0.00184264
0.00163653
9.671e-08
1.48129e-08
2.32729e-09
5.07679e-10
5.53704e-10
1.02875e-09
1.5455e-09
1.83404e-09
1.61969e-09
1.25302e-09
9.60823e-10
9.80587e-10
5.06635e-10
2.99912e-10
2.03821e-10
1.48285e-10
1.3404e-10
9.26045e-10
3.3396e-08
9.10332e-07
7.27997e-06
4.84251e-05
0.00022827
0.000511746
0.000606217
0.000629187
0.000604299
0.000482874
0.000257716
7.14789e-05
0.000125736
1.28386e-05
3.1285e-05
2.00535e-06
5.07353e-06
4.11378e-07
8.1882e-07
8.56139e-07
3.72275e-07
4.45185e-06
2.15966e-06
1.53293e-05
8.44489e-06
8.01489e-05
3.59093e-05
0.000364492
0.000184583
0.000947257
0.000650244
0.00185488
0.00166118
0.00128345
0.00147979
0.00248255
0.00235112
0.00220102
0.00203404
0.002966
0.00289207
0.00279698
0.00268354
0.0032207
0.00321904
0.003187
0.00312327
0.0034395
0.00335381
0.00348897
0.00337479
0.00332091
0.00340377
0.00355479
0.00348254
0.00329594
0.00320936
0.00335613
0.00340112
0.00324289
0.00273673
0.00267964
0.00303027
0.00326438
0.00327035
0.00299995
0.00224622
0.00210496
0.00260454
0.00250705
0.00128543
0.000190728
0.00066953
0.00191751
0.00164594
6.94634e-08
8.78905e-09
1.79349e-09
2.02355e-09
5.59401e-09
6.87626e-09
8.4188e-09
8.06664e-09
6.37801e-09
4.54227e-09
3.51502e-09
2.51394e-09
1.35499e-09
8.57024e-10
5.94289e-10
4.03393e-10
6.2158e-10
9.26953e-09
2.69101e-07
4.35858e-06
1.91846e-05
0.000114997
0.000365351
0.000574893
0.000630726
0.000645461
0.000569285
0.000379531
0.000107964
0.000178912
2.5313e-05
5.8288e-05
4.07526e-06
1.03957e-05
6.22254e-07
1.58586e-06
2.38147e-07
2.82636e-07
1.68857e-06
6.16823e-07
5.50541e-06
3.64777e-06
1.81776e-05
1.14434e-05
9.31528e-05
4.97425e-05
0.000399453
0.000204104
0.00110708
0.000922385
0.000683054
0.00188059
0.00168383
0.00128955
0.00148738
0.00255351
0.00240762
0.0022459
0.00206958
0.00303705
0.00293573
0.00281891
0.00268822
0.00336705
0.00331862
0.00323816
0.00313608
0.00360904
0.00350766
0.00362476
0.00349077
0.00349165
0.00357765
0.00371588
0.00365699
0.0034714
0.00340659
0.00353321
0.00356979
0.00344559
0.00295102
0.00288224
0.00325888
0.00347312
0.00348472
0.00322756
0.00237918
0.00220816
0.00279187
0.00267344
0.00117367
0.000257274
0.000590089
0.00198152
0.00161719
4.45095e-08
6.74028e-09
7.26511e-09
1.73529e-08
3.0416e-08
3.86629e-08
3.8973e-08
3.19991e-08
2.25901e-08
1.49527e-08
1.20352e-08
5.94452e-09
3.56085e-09
2.35084e-09
1.5535e-09
1.08431e-09
3.5268e-09
7.80563e-08
1.62675e-06
8.65316e-06
5.21626e-05
0.000222556
0.000485804
0.000617858
0.000660682
0.000632233
0.0004864
0.000233754
4.8183e-05
9.91346e-05
7.98851e-06
2.00756e-05
1.18408e-06
3.09939e-06
1.90693e-07
4.5277e-07
2.41671e-07
1.50181e-07
3.56654e-06
1.70084e-06
8.18732e-06
5.69125e-06
3.41929e-05
2.76639e-05
0.000115052
9.3805e-05
0.000399348
0.000200349
0.00110171
0.000922693
0.000682181
0.000524735
0.00183781
0.00163463
0.0012273
0.0014302
0.00254482
0.00238831
0.00221821
0.00203418
0.00301622
0.00288317
0.00274372
0.0025989
0.00342247
0.00332269
0.00318963
0.00303696
0.00373031
0.00360043
0.00370299
0.00351655
0.00366165
0.00374663
0.00382694
0.00381127
0.00363764
0.00358563
0.00369768
0.00373477
0.00362843
0.00317408
0.00309638
0.00347914
0.00366086
0.00368007
0.00345174
0.00251694
0.00231264
0.00298952
0.00284693
0.00106054
0.000101699
0.000439095
0.00202219
0.00156032
3.31049e-08
2.70318e-08
6.57989e-08
1.23451e-07
1.69849e-07
1.80512e-07
1.53996e-07
1.10617e-07
7.04745e-08
4.48683e-08
2.6219e-08
1.47745e-08
9.19173e-09
6.00651e-09
3.62944e-09
3.6072e-09
2.40718e-08
5.03886e-07
5.65538e-06
2.22991e-05
0.000116851
0.000352986
0.000573604
0.000658017
0.000671008
0.000572729
0.000355275
7.44573e-05
0.000140725
1.50031e-05
3.52278e-05
2.25627e-06
5.91043e-06
3.12535e-07
8.42161e-07
8.80425e-08
1.23098e-07
5.18862e-07
1.56841e-07
6.64458e-06
3.70682e-06
2.14973e-05
1.33467e-05
8.99861e-05
8.6453e-05
0.000224832
0.00026149
0.000404296
0.000283652
0.00023157
0.00103301
0.000850008
0.000586141
0.000461265
0.00171119
0.00150278
0.00109379
0.00129549
0.00244681
0.00228327
0.00210547
0.00191417
0.0028767
0.0027185
0.00256524
0.00241251
0.00338823
0.00321704
0.00302326
0.00282231
0.00380157
0.00360633
0.00370112
0.00345373
0.00382535
0.00389618
0.00389738
0.00391641
0.00379785
0.00374876
0.00385335
0.00389318
0.00379244
0.0033982
0.00331351
0.00368304
0.00382823
0.00385435
0.00366366
0.002658
0.00241048
0.0031922
0.00302503
0.000937228
4.5161e-05
0.000288788
0.00204269
0.00149239
1.21375e-07
2.48043e-07
4.66963e-07
6.96267e-07
7.80377e-07
6.93053e-07
5.10869e-07
3.27731e-07
1.92941e-07
1.19305e-07
6.14863e-08
3.56425e-08
2.29635e-08
1.32797e-08
8.41996e-09
1.38798e-08
1.57222e-07
2.48753e-06
9.95591e-06
5.62417e-05
0.000223201
0.000478024
0.000638585
0.00068651
0.00063709
0.000460491
0.000187116
2.69873e-05
6.40516e-05
4.22002e-06
1.08978e-05
5.77794e-07
1.57991e-06
7.69319e-08
2.08557e-07
8.66624e-08
4.60917e-08
1.5613e-06
3.67927e-07
1.94817e-05
7.29542e-06
6.84496e-05
4.21803e-05