/*--------------------------------*- C++ -*----------------------------------*\
  =========                 |
  \\      /  F ield         | OpenFOAM: The Open Source CFD Toolbox
   \\    /   O peration     | Website:  https://openfoam.org
    \\  /    A nd           | Version:  dev
     \\/     M anipulation  |
\*---------------------------------------------------------------------------*/
FoamFile
{
    version     2.0;
    format      ascii;
    class       volScalarField;
    location    "2500";
    object      k;
}
// * * * * * * * * * * * * * * * * * * * * * * * * * * * * * * * * * * * * * //

dimensions      [0 2 -2 0 0 0 0];

internalField   nonuniform List<scalar> 
9848
(
0.000159869
0.000167034
0.000154413
0.000142244
0.000222461
0.000125493
0.000120833
0.000236079
0.000203098
0.00011067
0.000111217
0.000219742
0.00024729
0.0001572
0.00010626
0.000105825
0.000180956
0.000269486
0.000219126
0.000129734
0.000104212
0.000103145
0.000146897
0.000264805
0.000261186
0.000167993
0.000118102
0.000102823
0.000101695
0.000127816
0.000241934
0.000284094
0.000220785
0.000138172
0.000111946
0.000101895
0.000100968
0.000115867
0.000199222
0.000293119
0.000264828
0.000170112
0.000124128
0.000107928
0.000101198
0.000100577
0.000109371
0.000160309
0.000284603
0.000290358
0.000213019
0.000141088
0.00011618
0.000105146
0.000100658
0.000100318
0.000105715
0.000138047
0.000259017
0.000306504
0.000260151
0.000166034
0.000126619
0.000110763
0.00010312
0.000100272
0.000100118
0.000103552
0.000123581
0.000216869
0.000312022
0.000292009
0.000201038
0.000140103
0.000117962
0.000106881
0.00010156
0.000100016
9.99019e-05
0.000102154
0.000114796
0.000174849
0.000303713
0.000311135
0.000243847
0.000159207
0.00012648
0.000111894
0.000104014
0.000100441
9.97002e-05
9.95818e-05
0.000101129
0.000109349
0.000149652
0.000281152
0.000325439
0.000284671
0.000187529
0.000136723
0.000117762
0.000107461
0.000101757
9.97127e-05
9.94185e-05
9.93087e-05
0.000100363
0.000105864
0.000132672
0.000239613
0.000331771
0.000311801
0.000224339
0.00015169
0.000124383
0.000111572
0.000104099
0.000100137
9.89629e-05
9.92896e-05
9.90549e-05
9.97656e-05
0.000103674
0.000121542
0.000197034
0.00032492
0.000329716
0.000264476
0.000173475
0.000132507
0.000116255
0.000106983
0.000101435
9.90428e-05
9.8247e-05
9.91722e-05
9.89325e-05
9.92454e-05
0.000102143
0.000114727
0.000165852
0.000305611
0.000342096
0.000301895
0.000203526
0.000143616
0.000121488
0.000110325
0.000103459
9.95019e-05
9.80132e-05
9.78626e-05
9.9082e-05
9.89987e-05
9.86742e-05
0.000100927
0.000110266
0.000146967
0.000270479
0.000349656
0.00032654
0.000239128
0.00016063
0.000127795
0.000114122
0.00010584
0.000100685
9.81381e-05
9.70416e-05
9.75438e-05
9.90272e-05
9.90725e-05
9.80166e-05
9.98257e-05
0.000107175
0.000134091
0.000231299
0.000346414
0.000344483
0.000276514
0.000183865
0.000136414
0.00011834
0.000108692
0.000102374
9.85923e-05
9.692e-05
9.64665e-05
9.72855e-05
9.89871e-05
9.90937e-05
9.74607e-05
9.88055e-05
0.000104922
0.000125325
0.000195894
0.000334276
0.000355291
0.000311954
0.000213664
0.000148902
0.000123324
0.000111818
0.000104529
9.96453e-05
9.70631e-05
9.57921e-05
9.60537e-05
9.71413e-05
9.89639e-05
9.90738e-05
9.69733e-05
9.79514e-05
0.000103142
0.000119548
0.000171204
0.000309968
0.000365035
0.00033599
0.000245704
0.000166888
0.000129951
0.000115321
0.000107021
0.000101257
9.75343e-05
9.57528e-05
9.50382e-05
9.57103e-05
9.70774e-05
9.895e-05
9.90279e-05
9.65606e-05
9.72399e-05
0.000101677
0.000115556
0.000155599
0.000277065
0.000366167
0.000354616
0.000280771
0.000189755
0.000139336
0.00011941
0.00010973
0.000103293
9.86146e-05
9.59497e-05
9.45884e-05
9.45749e-05
9.547e-05
9.70535e-05
9.89469e-05
9.89706e-05
9.62332e-05
9.66649e-05
0.000100522
0.000112801
0.000144883
0.000242799
0.000360684
0.000365498
0.000312565
0.000217061
0.000152477
0.000124537
0.000112713
0.000105543
0.000100311
9.65539e-05
9.46533e-05
9.37067e-05
9.42596e-05
9.5361e-05
9.70668e-05
9.8964e-05
9.89064e-05
9.59582e-05
9.62401e-05
9.96525e-05
0.000111303
0.000137642
0.000213364
0.000346395
0.000374358
0.000339086
0.000246231
0.000169636
0.000131477
0.000116052
0.000107976
0.000102317
9.79105e-05
9.50243e-05
9.36173e-05
9.31276e-05
9.40794e-05
9.53779e-05
9.70789e-05
9.89903e-05
9.88246e-05
9.57293e-05
9.59201e-05
9.90836e-05
0.000110565
0.00013421
0.000190605
0.000322327
0.000378726
0.000357276
0.000275629
0.000190683
0.000140739
0.00012018
0.000110588
0.00010448
9.97339e-05
9.59765e-05
9.3825e-05
9.28173e-05
9.2776e-05
9.40262e-05
9.54357e-05
9.7095e-05
9.90063e-05
9.87254e-05
9.55519e-05
9.56833e-05
9.87859e-05
0.000110249
0.000133165
0.000175263
0.000294212
0.000377087
0.000369553
0.000304377
0.000213867
0.000153153
0.000125357
0.00011356
0.000106761
0.000101803
9.76596e-05
9.44886e-05
9.29575e-05
9.22806e-05
9.26158e-05
9.41054e-05
9.55203e-05
9.71184e-05
9.90118e-05
9.86117e-05
9.54279e-05
9.55404e-05
9.86842e-05
0.000110374
0.000133092
0.000165764
0.000263593
0.000369886
0.000376203
0.000329054
0.000238574
0.00016847
0.000132108
0.000116964
0.000109257
0.000104026
9.96931e-05
9.60025e-05
9.34953e-05
9.2378e-05
9.20571e-05
9.27597e-05
9.41951e-05
9.55933e-05
9.71175e-05
9.89977e-05
9.84902e-05
9.53618e-05
9.54904e-05
9.87557e-05
0.000110886
0.000133199
0.000159445
0.000235534
0.000353687
0.000379533
0.00034955
0.000262704
0.00018645
0.000140797
0.000121042
0.000111961
0.000106421
0.000101962
9.80765e-05
9.47918e-05
9.28716e-05
9.21486e-05
9.22918e-05
9.31517e-05
9.43284e-05
9.5516e-05
9.69443e-05
9.89267e-05
9.83609e-05
9.53568e-05
9.55452e-05
9.90777e-05
0.00011169
0.000133327
0.000155476
0.00021233
0.000329935
0.000378978
0.000361787
0.000285943
0.000205813
0.000151807
0.00012601
0.000114995
0.000108915
0.000104467
0.000100496
9.69091e-05
9.41089e-05
9.26689e-05
9.24125e-05
9.29947e-05
9.39068e-05
9.4846e-05
9.57118e-05
9.68465e-05
9.88491e-05
9.82265e-05
9.54167e-05
9.5725e-05
9.96958e-05
0.000113012
0.000133417
0.000152405
0.000193973
0.000303029
0.000375004
0.000368937
0.000307846
0.000225185
0.000164587
0.000132161
0.000118443
0.00011154
0.00010713
0.000103251
9.95825e-05
9.63572e-05
9.40042e-05
9.30179e-05
9.32315e-05
9.40179e-05
9.48734e-05
9.55256e-05
9.59843e-05
9.67807e-05
9.8781e-05
9.80977e-05
9.55477e-05
9.60168e-05
0.000100653
0.000114834
0.000133276
0.000149589
0.000181584
0.000274334
0.000365026
0.000371107
0.000326786
0.000243825
0.000178815
0.000139625
0.000122135
0.000114437
0.000109852
0.000106309
0.000102784
9.93869e-05
9.65443e-05
9.45644e-05
9.41096e-05
9.46282e-05
9.53819e-05
9.5866e-05
9.60563e-05
9.61961e-05
9.67476e-05
9.87317e-05
9.79857e-05
9.57494e-05
9.64712e-05
0.000101871
0.000116815
0.000132876
0.000146756
0.000171627
0.00024561
0.000347879
0.00037007
0.00034176
0.000262362
0.000193407
0.000148201
0.000126632
0.000117371
0.000112725
0.000109505
0.000106415
0.000103177
0.000100077
9.76811e-05
9.6258e-05
9.62402e-05
9.69346e-05
9.7378e-05
9.70959e-05
9.6569e-05
9.6385e-05
9.67899e-05
9.86871e-05
9.78974e-05
9.60146e-05
9.7089e-05
0.000103626
0.000118654
0.00013214
0.000143637
0.000163025
0.000219561
0.000325642
0.00036682
0.000350742
0.000278199
0.000208433
0.000158113
0.000131463
0.000120592
0.000115645
0.000112801
0.000110281
0.000107603
0.000104681
0.000102065
0.000100366
9.97183e-05
0.000100375
0.000100985
0.000100797
9.88771e-05
9.71862e-05
9.6604e-05
9.7079e-05
9.87116e-05
9.784e-05
9.63432e-05
9.78613e-05
0.000106021
0.000120097
0.000130953
0.000140342
0.000155459
0.000197501
0.000299528
0.000359658
0.000354858
0.000295542
0.000222356
0.000168728
0.000137077
0.000123738
0.000118525
0.000116096
0.000114321
0.000112543
0.00011036
0.000107939
0.000106227
0.000105489
0.000105757
0.000106921
0.000107067
0.000105711
0.000101372
9.7842e-05
9.70734e-05
9.76632e-05
9.94538e-05
9.85205e-05
9.78215e-05
9.67361e-05
9.88119e-05
0.000108629
0.000120873
0.000129235
0.000136809
0.000148603
0.000180928
0.00027078
0.000349277
0.000354469
0.000310796
0.000236058
0.000179639
0.00014332
0.000127064
0.000121097
0.000119212
0.000118378
0.000117801
0.000117023
0.00011556
0.000114347
0.000114046
0.000114565
0.000115352
0.000115943
0.000114615
0.00011035
0.000103034
9.86467e-05
9.78538e-05
9.80919e-05
9.80755e-05
9.94449e-05
9.86285e-05
9.78669e-05
9.72064e-05
0.000100017
0.000111295
0.000121204
0.000127043
0.000132988
0.000142203
0.000167223
0.000241243
0.000333572
0.000352077
0.000324477
0.00025053
0.000190278
0.000150348
0.000130215
0.000123475
0.000121929
0.000122179
0.000123166
0.00012428
0.000124975
0.000125178
0.000126531
0.00012814
0.000129663
0.000130215
0.000128511
0.000123391
0.000114317
0.000104779
9.85719e-05
0.000100319
9.82788e-05
9.90887e-05
9.89242e-05
9.84213e-05
9.85583e-05
9.9431e-05
9.87565e-05
9.79762e-05
9.77116e-05
0.000101605
0.000113881
0.00012108
0.000124541
0.000129006
0.000136204
0.000155392
0.000213932
0.00031279
0.000347991
0.000332712
0.000263297
0.000201886
0.000157631
0.000133741
0.000125207
0.000124191
0.000125411
0.000128352
0.000131734
0.000135701
0.000139388
0.000144453
0.000151652
0.000157651
0.000162298
0.000161795
0.00015441
0.000140152
0.000121464
0.00010461
0.00011132
0.000101277
9.91328e-05
0.000100265
0.000100014
9.87132e-05
9.90814e-05
9.94338e-05
9.89158e-05
9.81156e-05
9.82549e-05
0.000103787
0.000116121
0.000120439
0.00012192
0.000125014
0.000130645
0.00014522
0.000189714
0.000287912
0.000341566
0.000336584
0.00027904
0.000212636
0.000165871
0.000137658
0.0001266
0.000125645
0.000127799
0.0001328
0.000139045
0.000147076
0.000157297
0.000170857
0.000193235
0.000221034
0.000246248
0.000261533
0.000255133
0.000226698
0.000180388
0.000119517
0.000136072
0.000106194
0.00011282
0.00010316
0.000100067
0.000101444
0.000101095
9.89867e-05
9.96697e-05
9.9466e-05
9.91398e-05
9.82823e-05
9.89676e-05
0.000106585
0.000117792
0.000119578
0.000119508
0.000120946
0.00012554
0.000136576
0.000171039
0.000261051
0.00033206
0.000336419
0.000294778
0.000224295
0.000174537
0.000142083
0.000128031
0.000126257
0.000129003
0.000135778
0.000145615
0.000158367
0.000178651
0.000211715
0.000265366
0.000355307
0.000466032
0.000540964
0.000574131
0.00053566
0.000438324
0.000173742
0.000282574
0.000124597
0.000150709
0.00010791
0.000116369
0.000104143
0.000100901
0.000102633
0.000102064
9.93608e-05
0.000100398
9.95923e-05
9.95371e-05
9.84842e-05
9.99325e-05
0.000109539
0.000118769
0.000118704
0.000116907
0.000116812
0.000120848
0.000129354
0.000156048
0.000232646
0.00031732
0.000334755
0.000308794
0.000237479
0.00018351
0.00014747
0.000129592
0.000126309
0.000129201
0.000136911
0.000149876
0.000168384
0.00020037
0.000269981
0.000394182
0.000589177
0.000854337
0.00114949
0.00131392
0.00135165
0.0012409
0.00055652
0.00109114
0.000221676
0.000427553
0.00013449
0.000181036
0.000109576
0.000121441
0.000105687
0.000101757
0.000103929
0.000103139
0.00010006
0.000101516
9.99539e-05
0.000100296
9.87218e-05
0.000101209
0.000112663
0.000119464
0.000118003
0.00011424
0.000113024
0.000116399
0.000123349
0.000144048
0.000206295
0.000297305
0.000331363
0.000317666
0.000251985
0.00019355
0.000153694
0.00013163
0.000126079
0.000128945
0.000136912
0.000151275
0.000173834
0.000216525
0.000331034
0.000591722
0.000970632
0.00142904
0.00184523
0.0021755
0.0022628
0.00223482
0.0015439
0.00213868
0.000895057
0.00142638
0.00031787
0.000692211
0.000151188
0.000237685
0.0001125
0.000130037
0.000107845
0.000102994
0.000105626
0.000104748
0.000101594
0.000103357
0.000100316
0.000101686
9.89927e-05
0.000102865
0.000115933
0.000120107
0.000117265
0.000111651
0.000109646
0.000112341
0.000118183
0.000134431
0.000183533
0.00027371
0.000325975
0.00032234
0.000269076
0.000204229
0.000161425
0.000134074
0.000125639
0.000127974
0.000136232
0.000151138
0.000174725
0.000221459
0.000369533
0.000793978
0.00150894
0.00223638
0.00278261
0.00301976
0.00314781
0.00311003
0.00256761
0.00315052
0.00198369
0.00253857
0.00124057
0.00182952
0.000491209
0.00102598
0.000181499
0.000339464
0.000117604
0.000146308
0.00011124
0.000105077
0.000108232
0.000107333
0.000103758
0.000105781
0.000100763
0.000103719
9.92923e-05
0.000104983
0.000119281
0.000120958
0.000116516
0.000109407
0.000106689
0.000108731
0.000113666
0.000126587
0.000164627
0.000248495
0.000316535
0.000323031
0.000287646
0.000217511
0.000169255
0.000138601
0.000125631
0.000126529
0.000134123
0.000149911
0.000174073
0.00022078
0.000377106
0.000916361
0.00202694
0.00321305
0.00386461
0.00399534
0.00391908
0.00400366
0.00353725
0.00407441
0.00310598
0.00361643
0.00244233
0.00306942
0.00164767
0.00232173
0.000772271
0.00142785
0.00023947
0.000521491
0.000126936
0.000178254
0.000116972
0.000107747
0.000112291
0.000110818
0.000106909
0.000109399
0.000101675
0.00010694
9.96122e-05
0.000107649
0.000122661
0.000122146
0.00011586
0.000107578
0.000104202
0.000105535
0.000109721
0.000120071
0.000149597
0.00022321
0.000302118
0.000322325
0.000301777
0.000232874
0.0001789
0.000144225
0.00012614
0.00012447
0.000130866
0.000146472
0.000171799
0.00021628
0.000370608
0.000934976
0.00238072
0.00395086
0.00446567
0.0045466
0.00448007
0.00433938
0.00430746
0.00461389
0.00409676
0.00442865
0.00366298
0.00417807
0.00302053
0.00369438
0.00216778
0.00295641
0.00116651
0.00197456
0.000351632
0.000854084
0.000145125
0.000245343
0.000127489
0.000111753
0.000118936
0.000116361
0.000111805
0.000115296
0.00010318
0.000112551
9.99431e-05
0.000110837
0.000126032
0.000123688
0.000115502
0.000106207
0.000102204
0.000102732
0.000106258
0.000114586
0.000137718
0.000199062
0.000283019
0.000320342
0.000310712
0.000251569
0.000189874
0.000151541
0.000127697
0.000122418
0.000127334
0.000141026
0.00016648
0.00020728
0.000341315
0.00090367
0.00244511
0.00433709
0.00470783
0.00467699
0.00467625
0.00474482
0.00475391
0.00503306
0.00471345
0.00499286
0.00456126
0.00489791
0.00428231
0.00475987
0.00373364
0.00440807
0.00286453
0.0037669
0.00173217
0.00274132
0.000579128
0.00142602
0.000184752
0.000399528
0.000150706
0.000119102
0.000133043
0.00012855
0.00012022
0.000126343
0.000102864
0.000122091
0.00010031
0.000114441
0.000129505
0.00012563
0.000115413
0.000105217
0.000100628
0.000100326
0.000103219
0.000109946
0.000128079
0.00017733
0.00025955
0.000315763
0.000315439
0.000273417
0.000204062
0.000159241
0.000131487
0.000121629
0.000124177
0.000135338
0.000158558
0.000197247
0.000294881
0.000785757
0.00236631
0.00446649
0.0048626
0.0046422
0.00464088
0.00509978
0.00596916
0.00534135
0.00600775
0.00531198
0.00578589
0.00518943
0.00567957
0.00499585
0.00558344
0.00459068
0.00530479
0.00378893
0.00478344
0.00258021
0.00380791
0.00106826
0.00236612
0.000285096
0.000775571
0.000215805
0.000136776
0.000176274
0.000170655
0.000163406
0.000192446
0.000146554
0.00042997
0.000100794
0.000118573
0.00013326
0.000127856
0.000115479
0.000104528
9.93619e-05
9.8314e-05
0.000100584
0.000106024
0.000120261
0.00015885
0.000233968
0.000306242
0.000318188
0.00029219
0.000221916
0.000169307
0.000137146
0.00012188
0.000121532
0.000129845
0.000150238
0.000185834
0.000258096
0.000599408
0.00208179
0.00443378
0.00496194
0.00457381
0.00449111
0.00495743
0.00577899
0.00683429
0.00665256
0.00637898
0.00680423
0.006292
0.0068859
0.00616361
0.00680455
0.00600397
0.00672226
0.00570618
0.00651399
0.00499479
0.00610667
0.00381107
0.00523689
0.00205694
0.00377763
0.000571461
0.00169101
0.000428195
0.000236605
0.000344695
0.000372219
0.000587238
0.000614056
0.0020258
0.00316121
0.000101556
0.000123186
0.000137114
0.00013025
0.000115734
0.000104068
9.83666e-05
9.66758e-05
9.83566e-05
0.000102719
0.000114009
0.000143841
0.000208972
0.000289468
0.000318501
0.000305653
0.000242962
0.000181807
0.000144974
0.000123155
0.000119352
0.000124812
0.000141758
0.000172968
0.000230839
0.000444852
0.00156526
0.00423271
0.00499523
0.00456809
0.00430702
0.0045153
0.00507876
0.00615624
0.00511925
0.006902
0.00620695
0.00717109
0.00713924
0.00728838
0.00744832
0.00732599
0.00761897
0.00726259
0.00770699
0.00709289
0.0077714
0.00651541
0.00762014
0.00547262
0.00697153
0.00367988
0.00568681
0.00136701
0.00349258
0.00113369
0.000700909
0.000983475
0.00114529
0.00262357
0.00202729
0.0153295
0.0127898
0.000103769
0.000128541
0.000140468
0.000132502
0.000116121
0.000103711
9.75174e-05
9.54145e-05
9.65159e-05
9.998e-05
0.000109004
0.000132205
0.000186131
0.000266261
0.000316434
0.000313333
0.000268544
0.000198546
0.000154047
0.000126526
0.000118509
0.000121082
0.000133625
0.000160265
0.000208094
0.00033944
0.00106378
0.00362714
0.00498155
0.00461565
0.00429197
0.00426055
0.00403258
0.00401863
0.00299825
0.0048726
0.00332788
0.006061
0.00455012
0.0073802
0.00700226
0.00765767
0.00750746
0.00784392
0.00780325
0.00804928
0.00803823
0.00820394
0.00831182
0.00813885
0.00862533
0.00740791
0.00863617
0.00584122
0.00781224
0.00323328
0.00591094
0.00296716
0.00213982
0.00284531
0.00336724
0.00784243
0.00565005
0.0226264
0.0210986
0.000114526
0.000135906
0.000143574
0.000133969
0.000116214
0.000103433
9.67707e-05
9.43274e-05
9.50726e-05
9.78134e-05
0.000105076
0.000123257
0.000166325
0.000240485
0.000309385
0.000318306
0.000290934
0.000219833
0.000166183
0.000133432
0.000118772
0.000118762
0.000126936
0.000148948
0.000188105
0.00027355
0.000684963
0.00264502
0.00486402
0.0047445
0.00433622
0.00428472
0.00392631
0.00219383
0.00219511
0.00170639
0.00285406
0.00173576
0.00413183
0.00244018
0.00694393
0.00576951
0.00749795
0.00669997
0.00785563
0.00730438
0.0082081
0.00780466
0.00859617
0.00833966
0.00903707
0.00892594
0.0091105
0.00946838
0.00815272
0.00958473
0.00592045
0.00842214
0.00593215
0.00537172
0.00606915
0.00674131
0.0119285
0.00885507
0.0153827
0.020007
0.000160309
0.000146077
0.000134691
0.000115872
0.000103072
9.61614e-05
9.3443e-05
9.39116e-05
9.61964e-05
0.000102187
0.000116524
0.000150217
0.000215325
0.000293449
0.000320197
0.00030681
0.000244899
0.000181682
0.000142933
0.000120404
0.000117345
0.000121964
0.000139235
0.000170907
0.000231206
0.000452162
0.00170281
0.00449145
0.00479909
0.00450281
0.00447237
0.00427993
0.00277199
0.00124645
0.00160962
0.00130205
0.00121746
0.00146762
0.00106485
0.00223935
0.00136316
0.00535871
0.00369804
0.00627483
0.00485572
0.0069767
0.0057958
0.00767844
0.00664958
0.00849256
0.00760139
0.00928156
0.00868118
0.00994824
0.00969196
0.0100376
0.010473
0.00864572
0.0104394
0.00885746
0.00815951
0.00905964
0.00929103
0.0133109
0.0104899
0.00492017
0.0149886
0.000162006
0.000135177
0.000115558
0.000102755
9.57278e-05
9.28572e-05
9.30744e-05
9.50215e-05
0.000100193
0.000111848
0.000137599
0.000192549
0.000269549
0.000318327
0.000315612
0.000273285
0.000202794
0.000154749
0.000124896
0.000117138
0.000118848
0.000130786
0.000156269
0.000201962
0.00032426
0.00101419
0.00351504
0.00478404
0.00472207
0.00487847
0.00522393
0.00415961
0.00201634
0.00283299
0.00102593
0.00123098
0.000949422
0.000943836
0.000969128
0.000841617
0.00146262
0.00102171
0.0033519
0.00223669
0.00447942
0.0033363
0.00550739
0.00447583
0.00656848
0.00564237
0.00775557
0.00689062
0.00902497
0.00822129
0.0102084
0.00955709
0.0110249
0.0108039
0.0108054
0.0115404
0.0110877
0.00991013
0.0111318
0.0109272
0.0102656
0.0137943
0.0117326
0.00292386
0.0132239
0.000144748
0.000116383
0.000102862
9.56081e-05
9.26442e-05
9.26362e-05
9.43271e-05
9.90413e-05
0.000108849
0.000128377
0.000173205
0.000244431
0.000311094
0.000321322
0.000296651
0.000228392
0.00017107
0.000134452
0.000117922
0.0001175
0.000124374
0.000144505
0.00018021
0.00025347
0.000601773
0.00231909
0.00461671
0.00479186
0.00509598
0.00606611
0.00564718
0.00386959
0.00169675
0.0022933
0.000825992
0.000935498
0.000808221
0.000805392
0.000833999
0.000771802
0.00126445
0.000944188
0.00242926
0.00176341
0.00356394
0.00281276
0.00479623
0.00404692
0.00610381
0.00535487
0.0074475
0.00674224
0.00883573
0.00818543
0.0102405
0.00963896
0.011443
0.0109861
0.0119885
0.0118574
0.0119409
0.0117426
0.012125
0.0109954
0.0109574
0.0111077
0.0116619
0.0121444
0.0122057
0.0115437
0.0140752
0.0116561
0.0124506
0.0128414
0.0032574
0.0135175
0.000127101
0.000104642
9.60577e-05
9.27833e-05
9.25914e-05
9.41643e-05
9.86817e-05
0.000107251
0.000122298
0.000157849
0.000221063
0.000293896
0.000322923
0.000312234
0.000257368
0.000191944
0.0001474
0.000121211
0.000117394
0.000120532
0.000135462
0.000163516
0.000212372
0.00038488
0.00135047
0.00396349
0.00474037
0.0050866
0.00637576
0.00703242
0.00568017
0.00249931
0.00369423
0.00123276
0.00179851
0.000692026
0.00071322
0.000744155
0.000713245
0.000802507
0.00074517
0.00123594
0.000925916
0.00220714
0.00169079
0.00335178
0.00275958
0.0046802
0.00407071
0.00613431
0.00562204
0.00768585
0.00729445
0.00924878
0.00900003
0.0107372
0.0104155
0.0103708
0.0117513
0.0116458
0.0116477
0.0115959
0.0121445
0.0123255
0.012366
0.0120671
0.0124373
0.011539
0.0117039
0.0120797
0.0124347
0.0124819
0.0119815
0.0134209
0.0142016
0.0142127
0.0122076
0.0129589
0.008733
0.0143416
0.0140503
0.0133778
0.000118071
9.87326e-05
9.37085e-05
9.29397e-05
9.44472e-05
9.88935e-05
0.000106702
0.000118994
0.000146453
0.000200911
0.000271472
0.000320259
0.000320531
0.000285767
0.000218531
0.000164066
0.000129869
0.000118209
0.000119031
0.000128736
0.000150798
0.000186574
0.000275705
0.00075432
0.00269725
0.00452232
0.00501067
0.00633379
0.0078542
0.00735515
0.00502256
0.00197364
0.0028638
0.000857797
0.00125381
0.000614057
0.00059333
0.000699419
0.000651776
0.000792768
0.000725001
0.00123838
0.000915459
0.00227024
0.00176018
0.00354243
0.0030372
0.00512825
0.00457984
0.00689447
0.00639653
0.00873658
0.00835368
0.0103183
0.0102592
0.0101645
0.010032
0.0117399
0.0118964
0.0111375
0.0111504
0.0120337
0.0120703
0.0124096
0.0122023
0.0123623
0.0125413
0.012585
0.0123907
0.0126486
0.0119803
0.0121766
0.0123586
0.0126706
0.0126204
0.0122837
0.0137459
0.0142653
0.0126358
0.013287
0.0138008
0.0128949
0.0142563
0.0142252
0.0141062
0.000114697
9.71532e-05
9.42586e-05
9.55143e-05
0.000100032
0.000106899
0.000117722
0.000139366
0.0001846
0.000250144
0.000311255
0.000327366
0.000308062
0.000248515
0.00018617
0.000142619
0.000121585
0.00011917
0.000124614
0.000141345
0.000169134
0.000220219
0.000443354
0.00157691
0.00387808
0.00482272
0.00612176
0.00797764
0.00874815
0.00720707
0.00300198
0.00444015
0.00125082
0.00204707
0.00062096
0.000781379
0.000545866
0.000515235
0.000656753
0.000593627
0.000782516
0.000696162
0.00117696
0.000887424
0.00241257
0.00176227
0.00392521
0.00315925
0.00575986
0.00496212
0.00781283
0.00710245
0.00986362
0.00965009
0.00940583
0.00911825
0.0111426
0.0110935
0.0109921
0.0108401
0.0126436
0.0128661
0.0120087
0.0120829
0.0125128
0.0127398
0.0133798
0.0130458
0.0126828
0.0127563
0.0129029
0.0128905
0.0128418
0.0123059
0.0125138
0.0125465
0.012841
0.0127816
0.0124906
0.0138946
0.014162
0.0129128
0.0134417
0.0144534
0.0147873
0.0160885
0.0141077
0.0143857
0.000114699
9.82622e-05
9.76732e-05
0.000102298
0.00010835
0.000117751
0.000136078
0.000173454
0.000231646
0.000293928
0.00032767
0.000322412
0.000279987
0.000214179
0.000160472
0.000130013
0.000120909
0.000123244
0.000135146
0.000157072
0.000190958
0.000294927
0.000856667
0.00272343
0.00442474
0.00565733
0.00781823
0.00950325
0.0089841
0.00589377
0.00212863
0.00326097
0.000726478
0.00123226
0.000505647
0.000551471
0.000495006
0.000457445
0.000613803
0.000547174
0.000766255
0.000667981
0.00110149
0.000876622
0.00236863
0.00161076
0.00404003
0.00310174
0.00621642
0.00519426
0.00879991
0.00843554
0.00803115
0.00757684
0.0106422
0.0104004
0.0101221
0.00980675
0.0120903
0.0120364
0.0119143
0.0117316
0.0136986
0.0130359
0.0139685
0.0131292
0.0132144
0.0136225
0.0144715
0.0140572
0.0131838
0.0130501
0.0133883
0.0136036
0.0131031
0.0125289
0.0127122
0.0127031
0.013074
0.01299
0.0126469
0.0138628
0.0140346
0.0130357
0.0134371
0.0153329
0.015036
0.0169892
0.014246
0.0151137
0.000116732
0.000102553
0.000105008
0.00011173
0.000119256
0.000135502
0.000167748
0.000218143
0.000277129
0.000323973
0.000333064
0.000307373
0.000247073
0.000184741
0.000144291
0.00012613
0.000123753
0.000131968
0.000149163
0.000173957
0.000225966
0.00048176
0.00163285
0.00363401
0.00500851
0.00731367
0.00954411
0.0102901
0.00834727
0.00318928
0.00478854
0.00113966
0.00204851
0.000506646
0.00068465
0.000438958
0.000446429
0.000461492
0.000420376
0.000581052
0.000514907
0.000759809
0.000649758
0.00109262
0.000885207
0.00224721
0.00153588
0.00411485
0.00312034
0.00700273
0.00585745
0.00945814
0.00906483
0.008617
0.0080924
0.011497
0.0112187
0.0109051
0.0105627
0.0131386
0.0130631
0.0128993
0.0126639
0.0148384
0.0141627
0.0151347
0.0142501
0.0141112
0.0146462
0.0156113
0.0151556
0.013889
0.0134994
0.0140644
0.0144964
0.0135072
0.0126815
0.0128174
0.0128868
0.0134346
0.0133031
0.0128067
0.0137753
0.0140577
0.0130421
0.0133664
0.0166939
0.0112777
0.0168443
0.014708
0.0160534
0.000121337
0.000110425
0.000115356
0.000123956
0.000136849
0.00016633
0.000211407
0.000265109
0.000315312
0.000340087
0.000328976
0.000282138
0.000217981
0.000165599
0.000138443
0.000127225
0.000131282
0.000145007
0.000163952
0.000194626
0.00030702
0.000890484
0.00259456
0.00420642
0.00632982
0.00925636
0.0110222
0.0102811
0.00625525
0.00194129
0.00324986
0.000646155
0.00104309
0.000415756
0.000479863
0.00040004
0.000397228
0.000441518
0.000402621
0.000560039
0.000494042
0.000762067
0.000646333
0.00118929
0.000951741
0.00228894
0.00163577
0.00469553
0.00363356
0.00822165
0.00760437
0.00628117
0.00695314
0.0101915
0.00978479
0.00932908
0.00881027
0.012375
0.0120471
0.0116934
0.0113205
0.014237
0.0141095
0.0138683
0.01355
0.0159964
0.0153253
0.0162855
0.0153715
0.0151248
0.0157232
0.0167216
0.0162614
0.014755
0.0141298
0.0148914
0.0154802
0.0140825
0.0128012
0.0128845
0.0131509
0.0139501
0.0137517
0.0130172
0.0137254
0.0142866
0.0130263
0.0132899
0.0174917
0.00528928
0.014596
0.0154169
0.0170786
0.000128923
0.000121752
0.000129981
0.00014244
0.000167843
0.000210375
0.000261496
0.000311914
0.00034516
0.000349461
0.000318362
0.000258584
0.000197444
0.000158175
0.000137645
0.000132661
0.000143971
0.0001592
0.000179987
0.000229682
0.000495168
0.00158812
0.00331864
0.00519287
0.00842423
0.0110454
0.0115957
0.00891658
0.00289074
0.00454784
0.000938931
0.00167631
0.000465309
0.00060902
0.000379586
0.000403659
0.000381164
0.000374735
0.000434485
0.00039523
0.000555136
0.000487969
0.000806531
0.00067281
0.00140627
0.00111995
0.00274056
0.00197858
0.00565523
0.00501859
0.00432344
0.00882776
0.0081618
0.00674613
0.00746198
0.0109249
0.0104935
0.0100075
0.00945053
0.0131866
0.0127971
0.0123979
0.0119915
0.015285
0.0150546
0.0146972
0.0142645
0.0170828
0.0164146
0.0172892
0.0163829
0.0161593
0.0167655
0.0177014
0.017287
0.0156941
0.0149015
0.0157777
0.0164547
0.0147927
0.0129365
0.0129513
0.0135313
0.0145938
0.014328
0.0133173
0.0137767
0.0146916
0.0130446
0.0132929
0.0174434
0.0059907
0.0122883
0.0162015
0.0177506
0.00014129
0.000138803
0.000153058
0.00017499
0.000213702
0.000263015
0.000314023
0.000353779
0.000367646
0.00034924
0.000300277
0.000236874
0.000186113
0.000156798
0.000139724
0.000144567
0.000158276
0.000174042
0.000197728
0.000311237
0.000878492
0.00237915
0.00410122
0.00702514
0.0106344
0.0123318
0.0110357
0.00595173
0.00147939
0.00272141
0.000571655
0.000845348
0.000401987
0.000455782
0.000365711
0.000375795
0.000373113
0.000365259
0.000435628
0.000394204
0.000572958
0.000495824
0.000963332
0.000810069
0.00179739
0.00156733
0.00323902
0.00236701
0.00604135
0.00535947
0.00485317
0.00421729
0.00926531
0.00853393
0.00699102
0.00776822
0.0115636
0.011094
0.0105581
0.00994642
0.0137972
0.0133362
0.012893
0.0124533
0.0161494
0.0157382
0.015193
0.0146197
0.0179614
0.0173086
0.0180066
0.0171053
0.0171201
0.0176779
0.0183961
0.0181229
0.0165998
0.0157219
0.0166099
0.0173181
0.0155533
0.0131404
0.0130526
0.0140284
0.015299
0.0149684
0.0137134
0.0139333
0.0151734
0.0131174
0.0134026
0.016791
0.00275027
0.0107013
0.0169734
0.0180716
0.000162745
0.000167983
0.000192582
0.000227733
0.000274129
0.000326141
0.000372897
0.00039882
0.00039101
0.000347886
0.000282755
0.000222472
0.000181933
0.000157391
0.000148673
0.00015944
0.000173172
0.000187143
0.00023233
0.000492973
0.00150392
0.00307651
0.00550725
0.00954182
0.0123959
0.0125063
0.00876094
0.00213257
0.00372768
0.000749903
0.00121742
0.000446907
0.000538513
0.000379026
0.000402946
0.00036109
0.000365901
0.000371098
0.000362335
0.000465075
0.000405994
0.000675329
0.000557013
0.00140981
0.00122349
0.00279987
0.00273182
0.00372268
0.00322132
0.00304547
0.00623335
0.00551442
0.00482864
0.00431567
0.00939068
0.00858578
0.00693888
0.00775919
0.0119765
0.0114395
0.010831
0.0101465
0.0140724
0.0135709
0.0130879
0.0125808
0.0166325
0.0160033
0.0153102
0.0146268
0.0184508
0.0178303
0.0183195
0.0173831
0.017903
0.0183414
0.018669
0.018612
0.0173648
0.0164846
0.0172833
0.0179645
0.0162698
0.0134096
0.0132287
0.0145752
0.0159517
0.0155338
0.0141225
0.01417
0.0156354
0.0132826
0.0136144
0.0164871
0.00179137
0.00804879
0.0176402
0.0184487
0.000205777
0.000222541
0.000260043
0.00031001
0.000363851
0.000425951
0.000470261
0.000477967
0.00043839
0.000359434
0.000278665
0.000219549
0.000182369
0.000162049
0.000165035
0.000175064
0.000185749
0.000202183
0.000312205
0.000857384
0.00218588
0.00414621
0.00790989
0.0119734
0.0133543
0.0110409
0.00489431
0.00104435
0.00192203
0.000509508
0.000669006
0.00040308
0.000438516
0.000369548
0.000382206
0.000360213
0.000362725
0.000375027
0.000362596
0.000566431
0.000450597
0.000992563
0.000754629
0.00255289
0.00224419
0.00449432
0.00455102
0.00524366
0.00390026
0.00356528
0.00440716
0.00439088
0.00615849
0.00544998
0.00482555
0.0045433
0.00909531
0.00821757
0.00654692
0.00735328
0.0120269
0.0114076
0.0107121
0.00993873
0.0139866
0.0133899
0.0128113
0.0122207
0.0167144
0.0158915
0.0150006
0.0141424
0.0185978
0.0179504
0.018264
0.0173028
0.0183987
0.018613
0.0185367
0.0186477
0.0178848
0.0170969
0.0177092
0.018269
0.0167949
0.0137217
0.0134828
0.0150086
0.0163654
0.0158292
0.0144901
0.0144177
0.016056
0.0135108
0.013864
0.0157375
0.000794208
0.00566374
0.0182505
0.018786
0.000298033
0.000328453
0.000383491
0.000452309
0.00051485
0.000574976
0.000608115
0.000588548
0.000510953
0.000395493
0.000289886