/*--------------------------------*- C++ -*----------------------------------*\
  =========                 |
  \\      /  F ield         | OpenFOAM: The Open Source CFD Toolbox
   \\    /   O peration     | Website:  https://openfoam.org
    \\  /    A nd           | Version:  dev
     \\/     M anipulation  |
\*---------------------------------------------------------------------------*/
FoamFile
{
    version     2.0;
    format      ascii;
    class       volScalarField;
    location    "2500";
    object      N2;
}
// * * * * * * * * * * * * * * * * * * * * * * * * * * * * * * * * * * * * * //

dimensions      [0 0 0 0 0 0 0];

internalField   nonuniform List<scalar> 
9848
(
0.76699
0.76699
0.76699
0.76699
0.76699
0.76699
0.76699
0.76699
0.76699
0.76699
0.76699
0.76699
0.76699
0.76699
0.76699
0.76699
0.76699
0.76699
0.76699
0.76699
0.76699
0.76699
0.76699
0.76699
0.76699
0.76699
0.76699
0.76699
0.76699
0.76699
0.76699
0.76699
0.76699
0.76699
0.76699
0.76699
0.76699
0.76699
0.76699
0.76699
0.76699
0.76699
0.76699
0.76699
0.76699
0.76699
0.76699
0.76699
0.76699
0.76699
0.76699
0.76699
0.76699
0.76699
0.76699
0.76699
0.76699
0.76699
0.76699
0.76699
0.76699
0.76699
0.76699
0.76699
0.76699
0.76699
0.76699
0.76699
0.76699
0.76699
0.76699
0.76699
0.76699
0.76699
0.76699
0.76699
0.76699
0.76699
0.76699
0.76699
0.76699
0.76699
0.76699
0.76699
0.76699
0.76699
0.76699
0.76699
0.76699
0.76699
0.76699
0.76699
0.76699
0.76699
0.76699
0.76699
0.76699
0.76699
0.76699
0.76699
0.76699
0.76699
0.76699
0.76699
0.76699
0.76699
0.76699
0.76699
0.76699
0.76699
0.76699
0.76699
0.76699
0.76699
0.76699
0.76699
0.76699
0.76699
0.76699
0.76699
0.76699
0.76699
0.76699
0.76699
0.76699
0.76699
0.76699
0.76699
0.76699
0.76699
0.76699
0.76699
0.76699
0.76699
0.76699
0.76699
0.76699
0.76699
0.76699
0.76699
0.76699
0.76699
0.76699
0.76699
0.76699
0.76699
0.76699
0.76699
0.76699
0.76699
0.76699
0.76699
0.76699
0.76699
0.76699
0.76699
0.76699
0.76699
0.76699
0.76699
0.76699
0.76699
0.76699
0.76699
0.76699
0.76699
0.76699
0.76699
0.76699
0.76699
0.76699
0.76699
0.76699
0.76699
0.76699
0.76699
0.76699
0.76699
0.76699
0.76699
0.76699
0.76699
0.76699
0.76699
0.76699
0.76699
0.76699
0.76699
0.76699
0.76699
0.76699
0.76699
0.76699
0.76699
0.76699
0.76699
0.76699
0.76699
0.76699
0.76699
0.76699
0.76699
0.76699
0.76699
0.76699
0.76699
0.76699
0.76699
0.76699
0.76699
0.76699
0.76699
0.76699
0.76699
0.76699
0.76699
0.76699
0.76699
0.76699
0.76699
0.76699
0.76699
0.76699
0.76699
0.76699
0.76699
0.76699
0.76699
0.76699
0.76699
0.76699
0.76699
0.76699
0.76699
0.76699
0.76699
0.76699
0.76699
0.76699
0.76699
0.76699
0.76699
0.76699
0.76699
0.76699
0.76699
0.76699
0.76699
0.76699
0.76699
0.76699
0.76699
0.76699
0.76699
0.76699
0.76699
0.76699
0.76699
0.76699
0.76699
0.76699
0.76699
0.76699
0.76699
0.76699
0.76699
0.76699
0.76699
0.76699
0.76699
0.76699
0.76699
0.76699
0.76699
0.76699
0.76699
0.76699
0.76699
0.76699
0.76699
0.76699
0.76699
0.76699
0.76699
0.76699
0.76699
0.76699
0.76699
0.76699
0.76699
0.76699
0.76699
0.76699
0.76699
0.76699
0.76699
0.76699
0.76699
0.76699
0.76699
0.76699
0.76699
0.76699
0.76699
0.76699
0.76699
0.76699
0.76699
0.76699
0.76699
0.76699
0.76699
0.76699
0.76699
0.76699
0.76699
0.76699
0.76699
0.76699
0.76699
0.76699
0.76699
0.76699
0.76699
0.76699
0.76699
0.76699
0.76699
0.76699
0.76699
0.76699
0.76699
0.76699
0.76699
0.76699
0.76699
0.76699
0.76699
0.76699
0.76699
0.76699
0.76699
0.76699
0.76699
0.76699
0.76699
0.76699
0.76699
0.76699
0.76699
0.76699
0.76699
0.76699
0.76699
0.76699
0.76699
0.76699
0.76699
0.76699
0.76699
0.76699
0.76699
0.76699
0.76699
0.76699
0.76699
0.76699
0.76699
0.76699
0.76699
0.76699
0.76699
0.76699
0.76699
0.76699
0.76699
0.76699
0.76699
0.76699
0.76699
0.76699
0.76699
0.76699
0.76699
0.76699
0.76699
0.76699
0.76699
0.76699
0.76699
0.76699
0.76699
0.76699
0.76699
0.76699
0.76699
0.76699
0.76699
0.76699
0.76699
0.76699
0.76699
0.76699
0.76699
0.76699
0.76699
0.76699
0.76699
0.76699
0.76699
0.76699
0.76699
0.76699
0.76699
0.76699
0.76699
0.76699
0.76699
0.76699
0.76699
0.76699
0.76699
0.76699
0.76699
0.76699
0.76699
0.76699
0.76699
0.76699
0.76699
0.76699
0.76699
0.76699
0.76699
0.76699
0.76699
0.76699
0.76699
0.76699
0.76699
0.76699
0.76699
0.76699
0.76699
0.76699
0.76699
0.76699
0.76699
0.76699
0.76699
0.76699
0.76699
0.76699
0.76699
0.76699
0.76699
0.76699
0.76699
0.76699
0.76699
0.76699
0.76699
0.76699
0.76699
0.76699
0.76699
0.76699
0.76699
0.76699
0.76699
0.76699
0.76699
0.76699
0.76699
0.76699
0.76699
0.76699
0.76699
0.76699
0.76699
0.76699
0.76699
0.76699
0.76699
0.76699
0.76699
0.76699
0.76699
0.76699
0.76699
0.76699
0.76699
0.76699
0.76699
0.76699
0.76699
0.76699
0.76699
0.76699
0.76699
0.76699
0.76699
0.76699
0.76699
0.76699
0.76699
0.76699
0.76699
0.76699
0.76699
0.76699
0.76699
0.76699
0.76699
0.76699
0.76699
0.76699
0.76699
0.76699
0.76699
0.76699
0.76699
0.76699
0.76699
0.76699
0.76699
0.76699
0.76699
0.76699
0.76699
0.76699
0.76699
0.76699
0.76699
0.76699
0.76699
0.76699
0.76699
0.76699
0.76699
0.76699
0.76699
0.76699
0.76699
0.76699
0.76699
0.76699
0.76699
0.76699
0.76699
0.76699
0.76699
0.76699
0.76699
0.76699
0.76699
0.76699
0.76699
0.76699
0.76699
0.76699
0.76699
0.76699
0.76699
0.76699
0.76699
0.76699
0.76699
0.76699
0.76699
0.76699
0.76699
0.76699
0.76699
0.76699
0.76699
0.76699
0.76699
0.76699
0.76699
0.76699
0.76699
0.76699
0.76699
0.76699
0.76699
0.76699
0.76699
0.76699
0.76699
0.76699
0.76699
0.76699
0.76699
0.76699
0.76699
0.76699
0.76699
0.76699
0.76699
0.76699
0.76699
0.76699
0.76699
0.76699
0.76699
0.76699
0.76699
0.76699
0.76699
0.76699
0.76699
0.76699
0.76699
0.76699
0.76699
0.76699
0.76699
0.76699
0.76699
0.76699
0.76699
0.76699
0.76699
0.76699
0.76699
0.76699
0.76699
0.76699
0.76699
0.76699
0.76699
0.76699
0.76699
0.76699
0.76699
0.76699
0.76699
0.76699
0.76699
0.76699
0.76699
0.76699
0.76699
0.76699
0.76699
0.76699
0.76699
0.76699
0.76699
0.76699
0.76699
0.76699
0.76699
0.76699
0.76699
0.76699
0.76699
0.76699
0.76699
0.76699
0.76699
0.76699
0.76699
0.76699
0.76699
0.76699
0.76699
0.76699
0.76699
0.76699
0.76699
0.76699
0.76699
0.76699
0.76699
0.76699
0.76699
0.76699
0.76699
0.76699
0.76699
0.76699
0.76699
0.76699
0.76699
0.76699
0.76699
0.76699
0.76699
0.76699
0.76699
0.76699
0.76699
0.76699
0.76699
0.76699
0.76699
0.76699
0.76699
0.766989
0.766989
0.766988
0.766988
0.766989
0.76699
0.76699
0.76699
0.76699
0.76699
0.76699
0.76699
0.76699
0.76699
0.76699
0.76699
0.76699
0.76699
0.76699
0.76699
0.76699
0.76699
0.76699
0.76699
0.76699
0.76699
0.76699
0.76699
0.76699
0.76699
0.76699
0.76699
0.76699
0.76699
0.76699
0.76699
0.76699
0.76699
0.76699
0.76699
0.766989
0.766989
0.766987
0.766985
0.766983
0.766982
0.766983
0.766986
0.76699
0.766989
0.76699
0.76699
0.76699
0.76699
0.76699
0.76699
0.76699
0.76699
0.76699
0.76699
0.76699
0.76699
0.76699
0.76699
0.76699
0.76699
0.76699
0.76699
0.76699
0.76699
0.76699
0.76699
0.76699
0.76699
0.76699
0.76699
0.76699
0.76699
0.76699
0.76699
0.76699
0.76699
0.76699
0.76699
0.766989
0.766986
0.766981
0.766973
0.766964
0.766959
0.766959
0.766965
0.766986
0.766977
0.766989
0.766988
0.76699
0.76699
0.76699
0.76699
0.76699
0.76699
0.76699
0.76699
0.76699
0.76699
0.76699
0.76699
0.76699
0.76699
0.76699
0.76699
0.76699
0.76699
0.76699
0.76699
0.76699
0.76699
0.76699
0.76699
0.76699
0.76699
0.76699
0.76699
0.76699
0.76699
0.76699
0.76699
0.76699
0.76699
0.766987
0.766981
0.766968
0.766948
0.766922
0.766901
0.766891
0.766897
0.766955
0.766906
0.766982
0.766965
0.766989
0.766985
0.76699
0.766989
0.76699
0.76699
0.76699
0.76699
0.76699
0.76699
0.76699
0.76699
0.76699
0.76699
0.76699
0.76699
0.76699
0.76699
0.76699
0.76699
0.76699
0.76699
0.76699
0.76699
0.76699
0.76699
0.76699
0.76699
0.76699
0.76699
0.76699
0.76699
0.76699
0.76699
0.76699
0.76699
0.766986
0.766973
0.766946
0.766908
0.766864
0.766821
0.766793
0.766786
0.766858
0.766792
0.766925
0.766871
0.766974
0.766942
0.766987
0.76698
0.76699
0.766988
0.76699
0.76699
0.76699
0.76699
0.76699
0.76699
0.76699
0.76699
0.76699
0.76699
0.76699
0.76699
0.76699
0.76699
0.76699
0.76699
0.76699
0.76699
0.76699
0.76699
0.76699
0.76699
0.76699
0.76699
0.76699
0.76699
0.76699
0.76699
0.76699
0.76699
0.76699
0.76699
0.766986
0.766967
0.766919
0.76685
0.766779
0.766724
0.766681
0.766655
0.766732
0.76665
0.766809
0.766738
0.76689
0.766827
0.766959
0.766911
0.766984
0.766971
0.766989
0.766987
0.76699
0.76699
0.76699
0.76699
0.76699
0.76699
0.76699
0.76699
0.76699
0.76699
0.76699
0.76699
0.76699
0.76699
0.76699
0.76699
0.76699
0.76699
0.76699
0.76699
0.76699
0.76699
0.76699
0.76699
0.76699
0.76699
0.76699
0.76699
0.76699
0.76699
0.76699
0.76699
0.766986
0.766965
0.766898
0.766786
0.766673
0.766585
0.766536
0.766508
0.766579
0.76648
0.76666
0.766574
0.766753
0.76667
0.766848
0.766772
0.766934
0.766872
0.766979
0.766955
0.766988
0.766984
0.766989
0.76699
0.76699
0.76699
0.76699
0.76699
0.76699
0.76699
0.76699
0.76699
0.76699
0.76699
0.76699
0.76699
0.76699
0.76699
0.76699
0.76699
0.76699
0.76699
0.76699
0.76699
0.76699
0.76699
0.76699
0.76699
0.76699
0.76699
0.76699
0.76699
0.76699
0.76699
0.766987
0.766966
0.766891
0.766739
0.766564
0.766429
0.766338
0.766296
0.7664
0.766285
0.76648
0.766383
0.766577
0.766477
0.766684
0.766584
0.766794
0.7667
0.766899
0.766818
0.766969
0.766927
0.766987
0.766978
0.766989
0.76699
0.766989
0.76699
0.76699
0.76699
0.76699
0.76699
0.76699
0.76699
0.76699
0.76699
0.76699
0.76699
0.76699
0.76699
0.76699
0.76699
0.76699
0.76699
0.76699
0.76699
0.76699
0.76699
0.76699
0.76699
0.76699
0.76699
0.76699
0.76699
0.76699
0.76699
0.766988
0.766968
0.766892
0.766724
0.7665
0.766348
0.766266
0.766218
0.766224
0.766185
0.766282
0.766211
0.766375
0.766274
0.766475
0.766367
0.766593
0.766477
0.766718
0.766603
0.766846
0.76674
0.76695
0.766878
0.766984
0.766966
0.766987
0.76699
0.766989
0.76699
0.76699
0.76699
0.76699
0.76699
0.76699
0.76699
0.76699
0.76699
0.76699
0.76699
0.76699
0.76699
0.76699
0.76699
0.76699
0.76699
0.76699
0.76699
0.76699
0.76699
0.76699
0.76699
0.76699
0.76699
0.76699
0.76699
0.76699
0.76699
0.766989
0.766975
0.7669
0.766724
0.766493
0.766352
0.766276
0.76623
0.766199
0.766183
0.766176
0.766211
0.766183
0.76627
0.766214
0.76636
0.766269
0.766479
0.766357
0.766615
0.766482
0.766764
0.766628
0.76691
0.766791
0.766976
0.766935
0.766982
0.76699
0.766986
0.766988
0.76699
0.76699
0.76699
0.766989
0.76699
0.76699
0.76699
0.76699
0.76699
0.76699
0.76699
0.76699
0.76699
0.76699
0.76699
0.76699
0.76699
0.76699
0.76699
0.76699
0.76699
0.76699
0.76699
0.76699
0.76699
0.76699
0.76699
0.76699
0.76699
0.766982
0.766923
0.766743
0.766516
0.76639
0.766323
0.766303
0.766316
0.766257
0.766383
0.76618
0.7662
0.766188
0.766189
0.766219
0.766196
0.76627
0.766226
0.766356
0.76627
0.766486
0.766357
0.766644
0.766492
0.766825
0.766662
0.766953
0.76686
0.766967
0.766988
0.766976
0.766981
0.766988
0.766986
0.766985
0.766976
0.76699
0.76699
0.76699
0.76699
0.76699
0.76699
0.76699
0.76699
0.76699
0.76699
0.76699
0.76699
0.76699
0.76699
0.76699
0.76699
0.76699
0.76699
0.76699
0.76699
0.76699
0.76699
0.76699
0.76699
0.76699
0.766987
0.766948
0.766791
0.766566
0.766459
0.76643
0.76649
0.7666
0.766518
0.766712
0.766408
0.766557
0.766215
0.766284
0.766201
0.766233
0.766207
0.766215
0.766232
0.766218
0.766272
0.766236
0.766359
0.766273
0.766498
0.766361
0.766685
0.766507
0.76689
0.766714
0.766914
0.766979
0.766935
0.766944
0.766969
0.766957
0.766939
0.766906
0.76699
0.76699
0.76699
0.76699
0.76699
0.76699
0.76699
0.76699
0.76699
0.76699
0.76699
0.76699
0.76699
0.76699
0.76699
0.76699
0.76699
0.76699
0.76699
0.76699
0.76699
0.76699
0.76699
0.76699
0.76699
0.766988
0.766968
0.76685
0.766626
0.766522
0.766526
0.766673
0.76683
0.766816
0.766919
0.766718
0.766855
0.766576
0.766731
0.766311
0.766432
0.766253
0.766337
0.766229
0.766272
0.766226
0.766241
0.766236
0.766229
0.766272
0.766232
0.766363
0.766269
0.766521
0.766366
0.766746
0.76654
0.766781
0.766922
0.766813
0.766815
0.766878
0.766835
0.766768
0.76669
0.76699
0.76699
0.76699
0.76699
0.76699
0.76699
0.76699
0.76699
0.76699
0.76699
0.76699
0.76699
0.76699
0.76699
0.76699
0.76699
0.76699
0.76699
0.76699
0.76699
0.76699
0.76699
0.76699
0.76699
0.76699
0.766989
0.766981
0.766904
0.766698
0.766576
0.766584
0.76676
0.76689
0.766959
0.76693
0.766965
0.766865
0.766939
0.766742
0.766862
0.766456
0.766595
0.766359
0.766473
0.766288
0.766374
0.766246
0.766296
0.766225
0.76624
0.766222
0.766211
0.766265
0.766209
0.766373
0.76626
0.766563
0.766385
0.76659
0.766746
0.766611
0.766594
0.766648
0.766594
0.76671
0.766515
0.76699
0.76699
0.76699
0.76699
0.76699
0.76699
0.76699
0.76699
0.76699
0.76699
0.76699
0.76699
0.76699
0.76699
0.76699
0.76699
0.76699
0.76699
0.76699
0.76699
0.76699
0.76699
0.76699
0.76699
0.76699
0.766986
0.766946
0.76678
0.766623
0.766617
0.766773
0.766882
0.766946
0.766981
0.766973
0.76697
0.76698
0.766935
0.766969
0.76684
0.766917
0.766604
0.766732
0.766478
0.76659
0.766371
0.766456
0.766284
0.766343
0.766221
0.766251
0.766189
0.766192
0.766193
0.766159
0.766258
0.766175
0.7664
0.766259
0.766416
0.766516
0.766423
0.766399
0.766445
0.766403
0.766888
0.766554
0.76699
0.76699
0.76699
0.76699
0.76699
0.76699
0.76699
0.76699
0.76699
0.76699
0.76699
0.76699
0.76699
0.76699
0.76699
0.76699
0.76699
0.76699
0.76699
0.76699
0.76699
0.76699
0.76699
0.76699
0.766988
0.76697
0.766857
0.766678
0.766635
0.766761
0.766855
0.76691
0.766964
0.766943
0.766984
0.766979
0.766982
0.766985
0.76696
0.766978
0.766873
0.766933
0.766695
0.766791
0.766546
0.766636
0.766411
0.766485
0.766298
0.766356
0.766211
0.766246
0.766148
0.766153
0.766122
0.766091
0.766158
0.766083
0.766263
0.766144
0.766268
0.766342
0.766265
0.766256
0.766309
0.766378
0.766296
0.766927
0.766595
0.76699
0.76699
0.76699
0.76699
0.76699
0.76699
0.76699
0.76699
0.76699
0.76699
0.76699
0.76699
0.76699
0.76699
0.76699
0.76699
0.76699
0.76699
0.76699
0.76699
0.76699
0.76699
0.76699
0.766989
0.766982
0.766919
0.766748
0.766655
0.766732
0.766817
0.766867
0.766917
0.766967
0.766954
0.766987
0.766984
0.766985
0.766987
0.766967
0.766982
0.766878
0.766938
0.766722
0.766803
0.766565
0.766641
0.766419
0.766482
0.76629
0.766339
0.766172
0.766204
0.766077
0.766081
0.766026
0.765991
0.766044
0.765961
0.766132
0.766014
0.766073
0.766196
0.766128
0.76624
0.766271
0.76623
0.766192
0.766125
0.766124
0.766187
0.766355
0.766218
0.766221
0.766273
0.766901
0.766544
0.76699
0.76699
0.76699
0.76699
0.76699
0.76699
0.76699
0.76699
0.76699
0.76699
0.76699
0.76699
0.76699
0.76699
0.76699
0.76699
0.76699
0.76699
0.76699
0.76699
0.76699
0.76699
0.76699
0.766987
0.766958
0.766828
0.766691
0.766709
0.76678
0.766825
0.766872
0.766947
0.76692
0.766976
0.766963
0.766988
0.766987
0.766987
0.766988
0.766971
0.766983
0.766877
0.766944
0.766713
0.766791
0.766546
0.766615
0.766392
0.76646
0.766248
0.766309
0.766104
0.766149
0.765979
0.765994
0.7659
0.765907
0.7659
0.765962
0.765911
0.765836
0.76587
0.765999
0.766059
0.765988
0.765939
0.766054
0.766179
0.766173
0.766123
0.766051
0.766052
0.76612
0.766243
0.766371
0.766285
0.766172
0.766184
0.766723
0.766346
0.766411
0.766512
0.76699
0.76699
0.76699
0.76699
0.76699
0.76699
0.76699
0.76699
0.76699
0.76699
0.76699
0.76699
0.76699
0.76699
0.76699
0.76699
0.76699
0.76699
0.76699
0.76699
0.76699
0.76699
0.766988
0.766977
0.7669
0.766748
0.766706
0.766749
0.766787
0.766827
0.766892
0.766958
0.766939
0.766983
0.766974
0.766989
0.766989
0.766988
0.766989
0.766975
0.766985
0.766891
0.766957
0.766697
0.766791
0.766534
0.766617
0.766382
0.766466
0.766214
0.766294
0.766033
0.766091
0.765899
0.765904
0.765912
0.765925
0.765812
0.765795
0.765847
0.765842
0.765883
0.765834
0.765766
0.765796
0.765921
0.765981
0.765907
0.765858
0.765974
0.766118
0.766119
0.76605
0.765971
0.76597
0.766051
0.766212
0.766255
0.766126
0.766144
0.766464
0.766653
0.766546
0.766312
0.76637
0.76699
0.76699
0.76699
0.76699
0.76699
0.76699
0.76699
0.76699
0.76699
0.76699
0.76699
0.76699
0.76699
0.76699
0.76699
0.76699
0.76699
0.76699
0.76699
0.76699
0.76699
0.766989
0.766985
0.766948
0.766821
0.766717
0.766729
0.766757
0.766787
0.766843
0.766937
0.766907
0.766972
0.766956
0.766987
0.766983
0.76699
0.766989
0.766988
0.766989
0.76698
0.766986
0.766923
0.766969
0.766714
0.766824
0.766559
0.766662
0.766386
0.766489
0.766167
0.766262
0.765941
0.765962
0.765987
0.76602
0.765841
0.765843
0.765848
0.765857
0.765745
0.765729
0.765785
0.765777
0.765803
0.765758
0.765697
0.765723
0.765836
0.765895
0.765818
0.765774
0.765887
0.766054
0.766061
0.765971
0.765883
0.765882
0.765976
0.766175
0.76622
0.766075
0.766098
0.766432
0.766648
0.766524
0.766275
0.766337
0.76699
0.76699
0.76699
0.76699
0.76699
0.76699
0.76699
0.76699
0.76699
0.76699
0.76699
0.76699
0.76699
0.76699
0.76699
0.76699
0.76699
0.76699
0.76699
0.76699
0.76699
0.766987
0.766972
0.766892
0.766757
0.766728
0.766736
0.766755
0.766798
0.76688
0.766954
0.766933
0.766983
0.766972
0.766989
0.766987
0.76699
0.76699
0.766988
0.766989
0.766983
0.766987
0.766948
0.766974
0.766773
0.76688
0.766603
0.766716
0.766373
0.766495
0.766057
0.766105
0.766157
0.766219
0.76587
0.76589
0.765915
0.765949
0.765772
0.76577
0.765772
0.765779
0.765675
0.765715
0.765655
0.765703
0.765723
0.765683
0.765625
0.765652
0.765749
0.765804
0.765728
0.765691
0.765794
0.765984
0.765997
0.765886
0.765789
0.765788
0.765894
0.766133
0.766179
0.766017
0.766046
0.766414
0.766703
0.76655
0.766238
0.76631
0.76699
0.76699
0.76699
0.76699
0.76699
0.76699
0.76699
0.76699
0.76699
0.76699
0.76699
0.76699
0.76699
0.76699
0.76699
0.76699
0.76699
0.76699
0.76699
0.76699
0.766989
0.766983
0.766942
0.766826
0.766737
0.766729
0.766732
0.76676
0.766829
0.766936
0.766905
0.766974
0.766957
0.766987
0.766984
0.76699
0.766989
0.76699
0.76699
0.766988
0.766989
0.766983
0.766987
0.766955
0.766975
0.766821
0.766906
0.766619
0.766734
0.766298
0.766442
0.765991
0.766041
0.7661
0.766167
0.765792
0.765814
0.765844
0.765883
0.765694
0.76569
0.765692
0.765703
0.7656
0.765637
0.765577
0.765623
0.765646
0.76561
0.765549
0.765579
0.765663
0.765711
0.76564
0.765613
0.765699
0.765907
0.765926
0.765793
0.765692
0.765691
0.765804
0.766085
0.766136
0.765951
0.765986
0.766415
0.766812
0.766621
0.766203
0.766291
0.76699
0.76699
0.76699
0.76699
0.76699
0.76699
0.76699
0.76699
0.76699
0.76699
0.76699
0.76699
0.76699
0.76699
0.76699
0.76699
0.76699
0.76699
0.76699
0.76699
0.766987
0.766969
0.766893
0.766772
0.766731
0.766721
0.766732
0.766784
0.76688
0.766959
0.766936
0.766985
0.766977
0.766989
0.766988
0.76699
0.76699
0.76699
0.76699
0.766988
0.766989
0.766983
0.766986
0.766956
0.766975
0.766834
0.766911
0.766586
0.766712
0.766198
0.766281
0.766442
0.766358
0.76593
0.765986
0.76605
0.766122
0.765724
0.765755
0.765796
0.765844
0.765615
0.765616
0.765629
0.765657
0.765522
0.765558
0.765501
0.765549
0.765572
0.765537
0.765472
0.765503
0.765583
0.76562
0.765557
0.765538
0.765606
0.765822
0.765846
0.765696
0.765596
0.765594
0.765709
0.766031
0.766091
0.765878
0.76592
0.766441
0.766909
0.766704
0.766171
0.766287
0.76699
0.76699
0.76699
0.76699
0.76699
0.76699
0.76699
0.76699
0.76699
0.76699
0.76699
0.76699
0.76699
0.76699
0.76699
0.76699
0.76699
0.76699
0.76699
0.766988
0.766982
0.766941
0.766834
0.766745
0.766721
0.766714
0.766747
0.766828
0.766944
0.766914
0.766979
0.766965
0.766988
0.766986
0.76699
0.766989
0.76699
0.76699
0.766989
0.76699
0.766988
0.766988
0.766982
0.766985
0.76695
0.766969
0.766819
0.766903
0.766517
0.766596
0.766698
0.766187
0.766271
0.76644
0.766355
0.7659
0.765962
0.766031
0.766107
0.765694
0.765737
0.765787
0.765842
0.765553
0.765573
0.765608
0.765651
0.765449
0.765493
0.765443
0.7655
0.765499
0.765463
0.765404
0.765429
0.765508
0.765536
0.765482
0.765466
0.765519
0.76573
0.76576
0.765599
0.765507
0.765502
0.765612
0.765974
0.766047
0.765798
0.765849
0.766489
0.76688
0.766738
0.766144
0.7663
0.76699
0.76699
0.76699
0.76699
0.76699
0.76699
0.76699
0.76699
0.76699
0.76699
0.76699
0.76699
0.76699
0.76699
0.76699
0.76699
0.76699
0.76699
0.766989
0.766986
0.766968
0.766895
0.766783
0.766726
0.766708
0.76672
0.766782
0.76689
0.766969
0.766948
0.766987
0.766981
0.766989
0.766989
0.76699
0.76699
0.76699
0.76699
0.766988
0.766989
0.766987
0.766988
0.766975
0.766978
0.766941
0.76695
0.76682
0.766904
0.76652
0.766596
0.766699
0.766766
0.766205
0.766292
0.766466
0.766379
0.765904
0.76597
0.766043
0.766122
0.765702
0.765759
0.765819
0.765881
0.765529
0.765572
0.765628
0.765694
0.765398
0.765453
0.765409
0.765489
0.765427
0.765391
0.765356
0.765363
0.765437
0.765459
0.765411
0.765396
0.765441
0.765635
0.765668
0.765505
0.765427
0.765419
0.765516
0.765916
0.766003
0.765714
0.765775
0.766537
0.766947
0.766803
0.766127
0.766324
0.76699
0.76699
0.76699
0.76699
0.76699
0.76699
0.76699
0.76699
0.76699
0.76699
0.76699
0.76699
0.76699
0.76699
0.76699
0.76699
0.76699
0.76699
0.766988
0.76698
0.76694
0.766839
0.766745
0.766709
0.766704
0.766746
0.766838
0.766958
0.76693
0.766984
0.766975
0.766989
0.766987
0.76699
0.76699
0.76699
0.76699
0.76699
0.76699
0.766987
0.766988
0.766981
0.766984
0.766952
0.766953
0.766894
0.766878
0.766817
0.766869
0.766891
0.766549
0.766627
0.76674
0.766793
0.76626
0.766348
0.766523
0.766437
0.765945
0.766015
0.766091
0.766173
0.765762
0.76583
0.765895
0.76596
0.765544
0.765617
0.765699
0.765785
0.765367
0.76545
0.76541
0.765516
0.765357
0.765327
0.765326
0.765318
0.765369
0.76539
0.765345
0.765328
0.765371
0.765539
0.765575
0.765418
0.765356
0.765345
0.765426
0.765855
0.765961
0.765627
0.765699
0.76659
0.766971
0.766867
0.766118
0.766353
0.76699
0.76699
0.76699
0.76699
0.76699
0.76699
0.76699
0.76699
0.76699
0.76699
0.76699
0.76699
0.76699
0.76699
0.76699
0.76699
0.76699
0.766989
0.766986
0.766966
0.766895
0.766786
0.766717
0.766697
0.766718
0.766793
0.76691
0.766978
0.766963
0.766988
0.766985
0.76699
0.766989
0.76699
0.76699
0.76699
0.76699
0.766989
0.76699
0.766982
0.766987
0.766961
0.766972
0.766873
0.766877
0.766786
0.766764
0.766678
0.766832
0.76686
0.766806
0.76682
0.766604
0.766676
0.766779
0.766808
0.766352
0.766441
0.766606
0.766526
0.766028
0.766101
0.76618
0.766264
0.765867
0.765942
0.766012
0.766081
0.765602
0.765703
0.765809
0.765912
0.765367
0.765479
0.765434
0.765573
0.765294
0.765283
0.76532
0.765288
0.765303
0.765325
0.765281
0.765266
0.765307
0.765447
0.765484
0.76534
0.765291
0.765278
0.765344
0.765792
0.765924
0.76554
0.76562
0.766652
0.766984
0.766922
0.766117
0.766391
0.76699
0.766989
0.766989
0.766989
0.766989
0.766989
0.766989
0.76699
0.76699
0.76699
0.76699
0.76699
0.76699
0.76699
0.76699
0.76699
0.76699
0.766987
0.766979
0.766937
0.766837
0.76674
0.766698
0.7667
0.766756
0.766862
0.766974
0.766953
0.766987
0.766982
0.76699
0.766989
0.76699
0.76699
0.76699
0.76699
0.76699
0.76699
0.766989
0.76699
0.766964
0.76698
0.766902
0.766935
0.766672
0.766697
0.766641
0.766631
0.766378
0.766371
0.766825
0.766827
0.766667
0.766701
0.766676
0.766735
0.766778
0.766775
0.766475
0.766557
0.766692
0.76663
0.766152
0.766227
0.766307
0.76639
0.766006
0.766089
0.766164
0.766236
0.765685
0.765808
0.765933
0.766053
0.765382
0.765526
0.765465
0.765637
0.765249
0.765249
0.765324
0.765273
0.76524
0.765263
0.765219
0.765217
0.765246
0.76536
0.765395
0.76527
0.765231
0.765218
0.765268
0.765731
0.765894
0.765453
0.765541
0.766723
0.766989
0.76696
0.766121
0.766437
0.766987
0.766986
0.766985
0.766985
0.766986
0.766988
0.766989
0.766989
0.76699
0.76699
0.76699
0.76699
0.76699
0.76699
0.76699
0.76699
0.766988
0.766985
0.766963
0.766888
0.766776
0.766706
0.76669
0.766727
0.766819
0.766943
0.766984
0.766975
0.766989
0.766988
0.76699
0.76699
0.76699
0.76699
0.76699
0.76699
0.76699
0.76699
0.766987
0.766989
0.766916
0.766962
0.766761
0.766842
0.766376
0.766391
0.766366
0.766429
0.766394
0.766139
0.766135
0.766763
0.766734
0.766473
0.766521
0.766737
0.766764
0.766711
0.766673
0.766604
0.766665
0.766734
0.766709
0.766307
0.76638
0.766457
0.766533
0.76616
0.766252
0.766331
0.766403
0.765763
0.765899
0.766041
0.766177
0.765395
0.765565
0.765479
0.765678
0.765212
0.765219
0.765306
0.765254
0.765185
0.765202
0.765161
0.765173
0.765187
0.765279
0.765309
0.765205
0.765173
0.765155
0.765199
0.765675
0.765864
0.765367
0.765462
0.766803
0.76699
0.766977
0.766132
0.766495
0.766975
0.766974
0.766974
0.766976
0.766981
0.766984
0.766987
0.766988
0.766989
0.76699
0.76699
0.76699
0.76699
0.76699
0.76699
0.766989
0.766986
0.766976
0.76693
0.76682
0.766725
0.766689
0.766705
0.76678
0.766902
0.766981
0.766988
0.766985
0.76699
0.766989
0.76699
0.76699
0.76699
0.76699
0.76699
0.76699
0.766989
0.76699
0.766982
0.766988
0.76681
0.766918
0.766496
0.766656
0.766146
0.766183
0.766081
0.766002
0.766194
0.766157
0.765905
0.765905
0.766627
0.766573
0.766242
0.766298
0.766743
0.766739
0.766562
0.766497
0.766694
0.766715
0.766707
0.766717
0.766471
0.766537
0.7666
0.766655
0.766299
0.7664
0.766483
0.766551
0.765804
0.765946
0.766097
0.766248
0.765372
0.765573
0.76545
0.765681
0.765172
0.765185
0.765271
0.765219
0.76514
0.765141
0.76511
0.765131
0.765124
0.765201
0.765223
0.765142
0.765105
0.765092
0.765129
0.765613
0.765842
0.765276
0.765378
0.766867
0.76699
0.766984
0.766151
0.766558
0.766941
0.766941
0.766945
0.766956
0.766969
0.766978
0.766984
0.766987
0.766988
0.766989
0.76699
0.76699
0.76699
0.76699
0.76699
0.766988
0.766983
0.766956
0.766869
0.766754
0.766692
0.766692
0.766749
0.766858
0.766966
0.766989
0.766989
0.766987
0.76699
0.76699
0.76699
0.76699
0.76699
0.76699
0.76699
0.76699
0.76699
0.766989
0.76699
0.766969
0.766986
0.766624
0.766829
0.766135
0.766376
0.76592
0.765952
0.765905
0.76583
0.765951
0.765919
0.765696
0.765703
0.766429
0.76636
0.765999
0.766058
0.766672
0.766623
0.766359
0.766279
0.766704
0.766683
0.766587
0.766642
0.766609
0.766657
0.766692
0.766706
0.766383
0.766495
0.766583
0.766647
0.765805
0.765943
0.766094
0.766248
0.765336
0.765537
0.7654
0.765635
0.76513
0.765143
0.765229
0.765181
0.765096
0.765086
0.765066
0.765089
0.765066
0.76513
0.765147
0.765077
0.765054
0.76504
0.765072
0.76556
0.76582
0.765191
0.765298
0.766909
0.76699
0.766987
0.766174
0.766618
0.766877
0.766882
0.766893
0.76692
0.766949
0.766969
0.76698
0.766985
0.766988
0.766989
0.766989
0.76699
0.76699
0.76699
0.766989
0.766986
0.766971
0.766911
0.766789
0.766704
0.766684
0.766723
0.766819
0.766943
0.766986
0.76699
0.76699
0.766989
0.76699
0.76699
0.76699
0.76699
0.76699
0.76699
0.76699
0.76699
0.76699
0.766988
0.76699
0.766942
0.76698
0.766392
0.766691
0.765848
0.765975
0.766095
0.765728
0.765771
0.765768
0.765693
0.765727
0.765702
0.765524
0.765542
0.766199
0.766124
0.76577
0.765827
0.766517
0.766441
0.76614
0.766051
0.766627
0.766567
0.766411
0.766494
0.766687
0.766701
0.766698
0.766672
0.766394
0.766519
0.766613
0.766663
0.765745
0.765867
0.766001
0.766146
0.765277
0.765472
0.765328
0.765548
0.765093
0.765125
0.765208
0.765163
0.765056
0.765043
0.765033
0.765059
0.765029
0.765074
0.765088
0.765039
0.76502
0.765017
0.765036
0.765497
0.7658
0.765132
0.765225
0.766934
0.76699
0.766987
0.766197
0.766663
0.7668
0.766816
0.766839
0.766878
0.766923
0.766957
0.766974
0.766983
0.766987
0.766988
0.766989
0.76699
0.76699
0.766989
0.766986
0.766979
0.76694
0.766827
0.766722
0.766683
0.766704
0.766785
0.766909
0.766981
0.76699
0.76699
0.76699
0.76699
0.76699
0.76699
0.76699
0.76699
0.76699
0.76699
0.76699
0.76699
0.76699
0.766986
0.766989
0.766892
0.766969
0.766237
0.766541
0.765786
0.76588
0.766076
0.765936
0.765578
0.765629
0.765698
0.765616
0.76554
0.765524
0.765398
0.76543
0.765968
0.765892
0.765576
0.765626
0.766322
0.766232
0.765924
0.765838
0.766481
0.766396
0.766208
0.766304
0.766672
0.766663
0.766619
0.766557
0.766292
0.766424
0.766526
0.766568
0.765628
0.765713
0.765808
0.765911
0.765252
0.76538
0.765293
0.765434
0.765081
0.76511
0.765179
0.765146
0.765034
0.765017
0.765013
0.765042
0.765005
0.765038
0.765057
0.765018
0.764998
0.764994
0.765019
0.765434
0.765777
0.765089
0.765167
0.766936
0.76699
0.766984
0.766198
0.766663
0.766733
0.76676
0.766793
0.766841
0.766897
0.766945
0.766969
0.766981
0.766986
0.766988
0.766989
0.76699
0.76699
0.766988
0.766984
0.766959
0.766868
0.766745
0.766685
0.766691
0.766757
0.766872
0.76697
0.766989
0.76699
0.76699
0.76699
0.76699
0.76699
0.76699
0.76699
0.76699
0.76699
0.76699
0.76699
0.76699
0.76699
0.76699
0.766984
0.766989
0.766824
0.766952
0.766048
0.766142
0.766286
0.766479
0.76577
0.765856
0.765949
0.765479
0.76554
0.765684
0.765596
0.765395
0.765389
0.765313
0.76536
0.765759
0.765688
0.765416
0.765451
0.766111
0.766017
0.765697
0.76562
0.766272
0.766172
0.765969
0.76607
0.766567
0.766525
0.766456
0.766368
0.766022
0.766129
0.766221
0.76628
0.765486
0.765536
0.765583
0.765622
0.765201
0.765332
0.765242
0.765365
0.765058
0.765083
0.765127
0.765101
0.765014
0.764996
0.764992
0.765021
0.764981
0.765024
0.765031
0.764995
0.764972
0.764967
0.764996
0.765362
0.765728
0.765054
0.765131
0.766914
0.766979
0.766959
0.766172
0.766604
0.766689
0.766721
0.766761
0.766815
0.766876
0.766932
0.766965
0.766979
0.766985
0.766988
0.766989
0.766989
0.766989
0.766985
0.766969
0.766903
0.76677
0.766692
0.766683
0.766733
0.766837
0.766954
0.766987
0.76699
0.76699
0.76699
0.76699
0.76699
0.76699
0.76699
0.76699
0.76699
0.76699
0.76699
0.76699
0.76699
0.76699
0.76699
0.76698
0.766988
0.766766
0.766933
0.766057
0.766186
0.766285
0.766567
0.766412
0.765783
0.765865
0.765982
0.765425
0.765507
0.765697
0.765605
0.765272
0.765283
0.765252
0.765321
0.765554
0.765496
0.765273
0.765291
0.765873
0.765782
0.765475
0.765411
0.766003
0.765901
0.76571
0.765805
0.766286
0.76627
0.7662
0.7661
0.765659
0.765696
0.765729
0.765758
0.76538
0.765417
0.765438
0.765458
0.765112
0.765274
0.765129
0.765297
0.765037
0.765056
0.765094
0.765076
0.764993
0.764976
0.764975
0.765008
0.764964
0.765011
0.76502
0.764966
0.764956
0.764951
0.764969
0.765295
0.765638
0.76505
0.765093
0.766829
0.766775
0.766726
0.766067
0.766381
0.766668
0.766699
0.766742
0.766799
0.766863
0.766922
0.766961
0.766978
0.766985
0.766988
0.766989
0.766989
0.766986
0.766977
0.766927
0.766798
0.766702
0.766678
0.766714
0.766807
0.766932
0.766984
0.76699
0.76699
0.76699
0.76699
0.76699
0.76699
0.76699
0.76699
0.76699
0.76699
0.76699
0.76699
0.76699
0.76699