/*--------------------------------*- C++ -*----------------------------------*\
  =========                 |
  \\      /  F ield         | OpenFOAM: The Open Source CFD Toolbox
   \\    /   O peration     | Website:  https://openfoam.org
    \\  /    A nd           | Version:  dev
     \\/     M anipulation  |
\*---------------------------------------------------------------------------*/
FoamFile
{
    version     2.0;
    format      ascii;
    class       volScalarField;
    location    "2500";
    object      nut;
}
// * * * * * * * * * * * * * * * * * * * * * * * * * * * * * * * * * * * * * //

dimensions      [0 2 -1 0 0 0 0];

internalField   nonuniform List<scalar> 
9848
(
0.000128175
0.000131909
0.00012611
0.000120361
0.000161659
0.000112497
0.00011183
0.000170437
0.000153796
0.00010643
0.000107575
0.000163391
0.000177566
0.00013197
0.000104366
0.000104579
0.00014532
0.000190299
0.000164898
0.000118796
0.000103202
0.000102945
0.000129561
0.000188874
0.000187279
0.000140249
0.000112754
0.000102362
0.000102124
0.000119685
0.000178464
0.000200283
0.00016883
0.000125193
0.000109171
0.000101748
0.000101912
0.000112591
0.000157931
0.000206248
0.000192112
0.00014397
0.000117542
0.000106772
0.000101278
0.000101799
0.000108674
0.000138331
0.000202621
0.000205979
0.000167422
0.000128654
0.000112846
0.000104989
0.000101029
0.000101707
0.000106347
0.000127288
0.000190348
0.000215498
0.000192736
0.00014365
0.000120361
0.00010962
0.000103595
0.000100815
0.000101501
0.000104911
0.000118814
0.000169141
0.000219335
0.000209682
0.000163777
0.000129512
0.000115106
0.000107151
0.000102707
0.000100672
0.00010114
0.000104121
0.000113439
0.000146696
0.000215308
0.000220118
0.000187093
0.000141668
0.00012152
0.000111414
0.000105225
0.000102012
0.000100443
0.00010067
0.000103636
0.000109948
0.000135017
0.000204037
0.000228428
0.000209034
0.000158537
0.000128807
0.000116118
0.000108543
0.000103832
0.000101602
0.000100228
0.000100277
0.000103258
0.000107731
0.000125374
0.000181603
0.000231895
0.000223278
0.000179707
0.000138767
0.000121309
0.000112192
0.000106312
0.0001028
0.000101093
0.000100151
9.99483e-05
0.000102946
0.000106357
0.000118678
0.000159205
0.000227929
0.000232442
0.000201526
0.000152567
0.000127358
0.000116106
0.000109154
0.00010457
0.000102157
0.000100562
0.000100071
9.98053e-05
0.000102605
0.000105385
0.000114578
0.000143333
0.00021767
0.000239272
0.000221338
0.000170541
0.000135157
0.000120403
0.000112237
0.000106835
0.000103318
0.00010147
0.000100323
0.000100007
9.99065e-05
0.000102087
0.000104716
0.000111807
0.000134598
0.000198873
0.000242909
0.00023365
0.000191166
0.000146615
0.000125392
0.000115584
0.000109232
0.000104988
0.000102484
0.000100759
0.000100111
9.997e-05
0.000100029
0.000101371
0.000104152
0.000109831
0.00012751
0.000177956
0.000240831
0.000242463
0.000211338
0.000161449
0.000131913
0.000119296
0.000111974
0.000106928
0.000103611
0.000101672
0.000100389
9.99268e-05
9.99404e-05
0.0001001
0.000100733
0.000103566
0.000108408
0.000122324
0.000159561
0.000234048
0.000247717
0.000230215
0.000179479
0.000140921
0.00012356
0.000114942
0.00010916
0.000105106
0.000102648
0.000100851
0.000100129
9.98269e-05
9.99215e-05
0.000100118
0.000100195
0.000103065
0.000107268
0.00011881
0.000147341
0.000221134
0.00025288
0.000241418
0.000197846
0.000153169
0.000128969
0.000118253
0.00011169
0.000106951
0.000103717
0.000101776
0.00010033
9.98894e-05
9.97812e-05
9.9909e-05
0.000100087
9.97698e-05
0.000102655
0.000106343
0.000116356
0.000140312
0.00020414
0.000253215
0.000250359
0.000217465
0.000167825
0.000136201
0.000122011
0.000114413
0.000109138
0.000105159
0.000102705
0.00010094
0.000100035
9.97148e-05
9.97627e-05
9.99055e-05
0.00010002
9.94741e-05
0.000102342
0.000105644
0.000114716
0.000135061
0.000185841
0.000250162
0.000255243
0.000234111
0.000184535
0.000145709
0.000126497
0.000117428
0.000111505
0.000107082
0.000103779
0.00010185
0.000100294
9.98387e-05
9.96293e-05
9.97668e-05
9.99152e-05
9.99343e-05
9.92846e-05
0.000102125
0.000105147
0.000114006
0.000131225
0.000170651
0.00024259
0.000259998
0.000247103
0.000201681
0.000157376
0.000132235
0.000120694
0.000114097
0.000109237
0.000105416
0.000102792
0.000101147
9.98781e-05
9.97229e-05
9.96307e-05
9.97693e-05
9.99332e-05
9.98284e-05
9.91728e-05
0.000101973
0.000104849
0.000113779
0.000129971
0.000159334
0.000230517
0.000262643
0.000255298
0.000218249
0.000171161
0.000139287
0.00012453
0.000116802
0.000111576
0.000107404
0.00010407
0.000102011
0.000100578
9.96327e-05
9.96835e-05
9.96739e-05
9.9771e-05
9.99447e-05
9.97079e-05
9.91395e-05
0.000101878
0.000104729
0.000113784
0.00012969
0.000152267
0.000216641
0.000262014
0.000260972
0.000234213
0.000185489
0.000148329
0.000128985
0.000119788
0.000113985
0.000109602
0.000105909
0.000103052
0.000101438
0.00010019
9.95204e-05
9.9731e-05
9.9745e-05
9.97862e-05
9.99484e-05
9.95804e-05
9.91867e-05
0.000101843
0.000104746
0.000114044
0.000129988
0.000149202
0.000200945
0.000258917
0.00026423
0.00024656
0.000200696
0.000158908
0.00013449
0.000123058
0.000116582
0.000111918
0.000108036
0.000104694
0.000102396
0.000101066
0.000100031
9.96063e-05
9.97836e-05
9.98027e-05
9.97929e-05
9.99268e-05
9.94558e-05
9.93112e-05
0.000101866
0.000104885
0.000114561
0.000130464
0.000146842
0.000186817
0.00025153
0.000266721
0.000256907
0.00021483
0.000171047
0.000141173
0.000126763
0.00011932
0.000114372
0.000110323
0.000106831
0.000103789
0.000101964
0.000100956
0.000100191
9.9867e-05
9.98622e-05
9.97522e-05
9.96717e-05
9.98366e-05
9.93387e-05
9.95068e-05
0.000101949
0.000105211
0.000115327
0.000131061
0.000145414
0.000175634
0.000239919
0.000267465
0.000262228
0.000228401
0.000183684
0.000149379
0.000131055
0.000122278
0.000116899
0.000112789
0.00010916
0.000105926
0.000103267
0.000101778
0.000101172
0.000100748
0.000100464
0.000100288
0.000100014
9.9717e-05
9.9783e-05
9.92355e-05
9.97734e-05
0.000102106
0.000105757
0.000116502
0.00013171
0.000144309
0.000167273
0.000226992
0.000267037
0.000265868
0.000240882
0.000196084
0.000158565
0.000136129
0.000125539
0.000119505
0.000115353
0.000111705
0.000108399
0.000105466
0.00010314
0.000101939
0.000101626
0.00010148
0.000101284
0.000100961
0.000100419
9.98119e-05
9.97592e-05
9.91609e-05
0.000100111
0.000102323
0.000106551
0.000118065
0.000132279
0.000143461
0.000162656
0.000213053
0.000263395
0.000267681
0.000250998
0.000207953
0.000168608
0.000142092
0.000128925
0.000122356
0.000117935
0.000114471
0.000111177
0.000108139
0.000105535
0.000103451
0.000102569
0.000102314
0.000102086
0.000101657
0.000101118
0.000100555
9.9882e-05
9.97655e-05
9.91262e-05
0.000100487
0.000102624
0.000107559
0.000119866
0.000132805
0.000142663
0.000158242
0.00019891
0.000255508
0.000268179
0.000259
0.000219731
0.000178772
0.000148754
0.000132964
0.000125168
0.000120649
0.000117351
0.000114254
0.00011122
0.000108473
0.000106261
0.000104569
0.000103875
0.000103621
0.00010316
0.000102185
0.000101192
0.000100564
9.99479e-05
9.97909e-05
9.91373e-05
0.000100891
0.000103043
0.000108984
0.000121687
0.00013308
0.000141692
0.000154331
0.00018651
0.000245248
0.000268655
0.000262809
0.000229458
0.000189424
0.00015636
0.000137102
0.000128301
0.000123375
0.000120301
0.000117461
0.000114702
0.000111991
0.000109657
0.000108024
0.000106911
0.000106696
0.000106393
0.000105529
0.000103265
0.000101387
0.000100493
0.000100093
9.98574e-05
9.92031e-05
0.000101314
0.000103586
0.000111007
0.000123334
0.000133081
0.000140629
0.000150873
0.000176506
0.000233235
0.000266737
0.000265781
0.000240029
0.000198987
0.000164471
0.000141972
0.000131308
0.00012614
0.000123241
0.000120753
0.000118491
0.000116153
0.000113879
0.000112196
0.000111273
0.000110834
0.000110984
0.000110332
0.000108789
0.000104787
0.000101501
0.000100497
0.000100341
9.99194e-05
9.99217e-05
9.93358e-05
0.00010173
0.000104281
0.000113285
0.000124509
0.000132599
0.000139561
0.000147844
0.000168638
0.000219165
0.000263204
0.000266259
0.000248818
0.000208456
0.000172835
0.000147198
0.000134581
0.000128694
0.000126103
0.000124062
0.000122443
0.000120879
0.000119078
0.000117625
0.000116844
0.00011656
0.000116204
0.000115714
0.000114002
0.000110654
0.000104884
0.000101497
0.000100702
0.000100235
0.000100604
9.99147e-05
9.99959e-05
9.95528e-05
0.000102121
0.000105229
0.000115675
0.000125261
0.000131644
0.000138277
0.000144967
0.000161873
0.000204836
0.000256305
0.000266481
0.000256445
0.000218452
0.000180912
0.000153158
0.000137716
0.000131204
0.00012873
0.000127235
0.00012643
0.000125891
0.000125246
0.000124366
0.000124121
0.000123878
0.000122861
0.000121158
0.000118551
0.000114729
0.000109411
0.000104136
0.000101175
0.000102087
0.000100875
0.00010149
0.000101411
0.00010037
0.00010071
9.9918e-05
0.000100079
9.98315e-05
0.00010249
0.000106555
0.000118039
0.000125566
0.000130568
0.000136866
0.000142481
0.000155717
0.000191141
0.000246747
0.000266574
0.000260376
0.000226967
0.000189958
0.00015923
0.000141242
0.000133263
0.000131103
0.000130109
0.000130316
0.000130921
0.000131958
0.000132622
0.000133087
0.000132871
0.000130675
0.000127073
0.000122604
0.000117322
0.000111599
0.000106204
0.00010418
0.000106164
0.000102583
0.000101275
0.000102222
0.00010193
0.000100418
0.000100812
9.99356e-05
0.000100145
0.000100147
0.000102883
0.000108363
0.000120086
0.000125387
0.000129621
0.000135271
0.000140142
0.000150233
0.000178319
0.000234662
0.000265044
0.000263433
0.000236885
0.000198099
0.000166359
0.000145089
0.000135276
0.000132919
0.00013248
0.000133822
0.000135853
0.00013873
0.000142005
0.000144094
0.000144433
0.000140222
0.000135029
0.000129133
0.000122156
0.000113618
0.000104422
0.000105225
0.000101507
0.000104668
0.000104766
0.000103525
0.000101638
0.000102575
0.000102134
0.000100384
0.000100929
9.99711e-05
0.000100191
0.000100495
0.000103405
0.000110751
0.000121657
0.000125213
0.000129075
0.000133366
0.000137839
0.000145485
0.000168456
0.000221059
0.000261543
0.000264049
0.000246468
0.000206911
0.000173679
0.000149384
0.000137462
0.000134304
0.000133961
0.000136439
0.000140477
0.000145333
0.000152095
0.000158146
0.000160159
0.00016148
0.000159528
0.00015165
0.000144123
0.000131762
0.000116434
9.46173e-05
8.89712e-05
0.000101956
9.46565e-05
0.000104153
0.00010256
0.0001031
0.000101631
0.00010241
0.000101877
0.000100402
0.000100981
0.000100052
0.000100259
0.000100868
0.000104108
0.000113303
0.000122637
0.000125309
0.000128344
0.000131169
0.000135571
0.000141472
0.00015996
0.000205842
0.000254765
0.000264579
0.000254084
0.000216306
0.000181222
0.000154564
0.000139934
0.000135331
0.000135047
0.000137661
0.000143776
0.000151489
0.000161706
0.000175506
0.000185652
0.000195196
0.000209803
0.000228801
0.000237245
0.000237359
0.000220051
0.000124808
0.000197086
8.49369e-05
0.000102629
9.67156e-05
8.72186e-05
0.000102664
9.89831e-05
0.000102298
0.000101367
0.000101835
0.000101365
0.000100537
0.000100936
0.0001002
0.00010043
0.000101217
0.000105039
0.000115973
0.000123364
0.000125753
0.000127374
0.000129057
0.000133225
0.000138134
0.000152922
0.000191493
0.00024475
0.00026459
0.000258673
0.000226297
0.000189443
0.000160466
0.00014274
0.000136261
0.000136217
0.000138312
0.000145085
0.0001554
0.000169345
0.000192266
0.000221396
0.000244516
0.000272071
0.000301164
0.000333266
0.000344101
0.000338922
0.000254646
0.000321236
0.000169141
0.000237896
8.78312e-05
0.000139995
9.03859e-05
8.19465e-05
0.000100328
9.37437e-05
0.000100927
0.000101033
0.000100916
0.000100724
0.000100765
0.00010007
7.07188e-05
7.00057e-05
0.000101497
0.000106206
0.000118679
0.000123988
0.000126122
0.00012614
0.000127062
0.000130967
0.000135228
0.000147175
0.000178852
0.000232494
0.000263278
0.00026202
0.000236792
0.000198007
0.000167665
0.000145545
0.000137146
0.000136843
0.00013938
0.000145447
0.00015631
0.000169705
0.00020337
0.000253466
0.000307817
0.000350004
0.000387462
0.000412827
0.000427548
0.000421207
0.000366077
0.000414761
0.000301776
0.00035751
0.00021299
0.000281205
0.000110133
0.000184071
8.38345e-05
8.9175e-05
9.69639e-05
8.83389e-05
9.88991e-05
8.32983e-05
9.86245e-05
7.71655e-05
6.90958e-05
6.15213e-05
3.79586e-05
3.94842e-05
0.000101722
0.000107777
0.000121334
0.000124745
0.000126346
0.000124985
0.000125257
0.000128889
0.000132642
0.000142431
0.000168117
0.000218863
0.00025909
0.000263088
0.000247827
0.00020814
0.000174556
0.000150402
0.000138674
0.000137121
0.000139533
0.000146087
0.000156518
0.0001704
0.000206303
0.000271644
0.00035937
0.000438553
0.000478703
0.000486675
0.000481773
0.000480207
0.000442569
0.000471941
0.000404131
0.000439086
0.000341698
0.000392554
0.000256852
0.000322728
0.000148347
0.000227812
8.1402e-05
0.000111902
9.27637e-05
8.43903e-05
8.75423e-05
5.32755e-05
7.28782e-05
5.38808e-05
4.18906e-05
4.0348e-05
2.09423e-05
2.43453e-05
0.000101939
0.000109851
0.000123865
0.000125753
0.000126453
0.000124022
0.000123741
0.00012693
0.000130369
0.000138421
0.000159526
0.000204654
0.000251822
0.000264006
0.000255186
0.000218726
0.000183024
0.000156248
0.000140549
0.000136821
0.000138696
0.000145647
0.000156672
0.000171975
0.000205687
0.000274769
0.000392038
0.000500283
0.000519372
0.00051379
0.000506486
0.000486293
0.000481439
0.000488393
0.000464698
0.00047788
0.000431656
0.000458932
0.000378399
0.000421802
0.000300001
0.000361632
0.000193263
0.000273078
9.03562e-05
0.000150668
8.76631e-05
8.43477e-05
7.03416e-05
3.74103e-05
5.56248e-05
4.00423e-05
2.76588e-05
2.70008e-05
1.22977e-05
1.69229e-05
0.000102141
0.000112276
0.000126222
0.000126998
0.000126646
0.00012333
0.000122552
0.000125089
0.000128374
0.000134961
0.000152267
0.00019086
0.000241638
0.000264244
0.000260042
0.000230987
0.000191945
0.000163612
0.000142873
0.000136461
0.000137644
0.000143406
0.00015547
0.000171345
0.000201204
0.000271322
0.00039675
0.000530668
0.000535187
0.000516095
0.000504819
0.000490602
0.000488664
0.000495771
0.000485352
0.000492333
0.000474437
0.000484706
0.000452272
0.000472732
0.000410787
0.000445682
0.000341726
0.000397724
0.000240802
0.000318697
0.000113982
0.000201304
8.64413e-05
9.5246e-05
6.28562e-05
2.68147e-05
4.56319e-05
3.22818e-05
2.15775e-05
2.34287e-05
6.86022e-06
1.47043e-05
0.000102349
0.00011496
0.00012862
0.000128568
0.00012692
0.000122859
0.000121634
0.000123429
0.000126599
0.000132007
0.00014609
0.000178553
0.000228374
0.000262565
0.00026309
0.00024412
0.000203169
0.000170611
0.000147172
0.000137408
0.000136967
0.000141166
0.000152384
0.000169071
0.000193609
0.000256285
0.000389101
0.000542541
0.000550902
0.000513358
0.000497308
0.000501514
0.000526749
0.00050359
0.000531386
0.000499783
0.00051783
0.000488702
0.00050747
0.000471387
0.000496305
0.000440815
0.000473615
0.000382969
0.000435087
0.000292108
0.0003674
0.000156655
0.000261275
8.94325e-05
0.000123178
7.40176e-05
2.65555e-05
5.1034e-05
4.09894e-05
2.73614e-05
3.70844e-05
1.81666e-05
7.13994e-05
0.000102639
0.000118006
0.000131215
0.000130359
0.000127233
0.000122541
0.000120898
0.000122015
0.000125005
0.000129496
0.000140927
0.000167826
0.000213622
0.000257784
0.000265563
0.000253921
0.000215673
0.000179557
0.000153348
0.000139212
0.000136532
0.000139271
0.000148951
0.000165275
0.000187551
0.000234649
0.000361038
0.000542767
0.000565615
0.000510272
0.000482502
0.000486671
0.000509916
0.000555976
0.000545514
0.000543225
0.000560765
0.000534678
0.000560466
0.000521189
0.000549582
0.000504206
0.000537174
0.000479757
0.000517378
0.000429877
0.000484756
0.000350525
0.000426158
0.000223309
0.000331571
0.000104952
0.000183748
9.31944e-05
5.06596e-05
8.22106e-05
7.80129e-05
8.67743e-05
8.85904e-05
0.000156845
0.000186904
0.000103125
0.000121351
0.000133841
0.000132284
0.000127692
0.000122385
0.000120327
0.000120864
0.000123606
0.000127332
0.000136726
0.000158919
0.000199187
0.000248501
0.000266447
0.000261357
0.0002294
0.000189619
0.00016152
0.000141446
0.00013612
0.000137496
0.000145086
0.000160116
0.000182038
0.000217057
0.000314086
0.000530945
0.000577521
0.000521242
0.000476088
0.000462311
0.000472176
0.000515323
0.000450311
0.000550659
0.000506868
0.000569827
0.00056523
0.000570317
0.000575416
0.000564813
0.000576634
0.000551845
0.000570677
0.000533271
0.000564483
0.000490065
0.000545154
0.000422358
0.000497528
0.000309937
0.000417919
0.000151131
0.000284226
0.000130495
9.26282e-05
0.000116437
0.000119021
0.000159201
0.000134115
0.000406461
0.000431723
0.000104474
0.000125085
0.000136095
0.000134165
0.000128288
0.000122339
0.000119841
0.000120023
0.000122395
0.000125485
0.000133292
0.000151531
0.000185846
0.000235035
0.000265982
0.000265322
0.000245219
0.000202752
0.000169971
0.000145406
0.000136943
0.000136513
0.000141379
0.000154596
0.000175316
0.000204224
0.000272924
0.000478522
0.000589009
0.000541197
0.000498873
0.000475232
0.000436234
0.000388084
0.000332424
0.000420263
0.000325512
0.00048948
0.000391932
0.00057204
0.000549262
0.000578623
0.000571074
0.000577383
0.000577783
0.000574948
0.000576118
0.000571356
0.000574185
0.000555489
0.000576254
0.000504349
0.000564391
0.000411103
0.000509404
0.000256625
0.000401287
0.000231439
0.000155675
0.000216094
0.000237479
0.000343649
0.000311225
0.000604388
0.000484114
0.000110978
0.00012988
0.000137897
0.000135618
0.000128662
0.000122393
0.000119446
0.00011929
0.000121418
0.000123999
0.00013055
0.000145512
0.000174281
0.000219826
0.000262547
0.000268805
0.00025689
0.000217574
0.000180333
0.000153078
0.000138655
0.000136436
0.000138869
0.000149636
0.000167833
0.000193785
0.000239144
0.000392828
0.000588724
0.0005722
0.000526888
0.000513542
0.00047742
0.000309897
0.000254516
0.000240709
0.000280491
0.00021322
0.000358191
0.000245638
0.000537861
0.000465496
0.000562589
0.000516922
0.000570222
0.000542364
0.000571887
0.000555281
0.000573693
0.000563084
0.00058017
0.000573587
0.000571107
0.000583881
0.000511614
0.000577333
0.000390206
0.000511303
0.000381289
0.000336089
0.00038468
0.000420396
0.000485398
0.000483498
0.000542609
0.000407701
0.000142496
0.000139044
0.000136307
0.000128634
0.000122386
0.000119184
0.000118721
0.000120561
0.000122909
0.00012855
0.000140869
0.000164723
0.000205115
0.000253667
0.000270642
0.000265377
0.000233988
0.000192428
0.000162914
0.000141102
0.000136683
0.000137316
0.000145192
0.000160572
0.000183913
0.000216795
0.000319173
0.000561024
0.000593352
0.000564666
0.000557809
0.000542357
0.000386731
0.000205335
0.000260208
0.000195546
0.00019897
0.000186906
0.000164195
0.000229943
0.00016747
0.000434667
0.000327935
0.000484409
0.000399022
0.000513175
0.000447416
0.000532482
0.000478751
0.000552615
0.000508799
0.000572704
0.000541401
0.000588249
0.000571681
0.000582287
0.000593381
0.00051008
0.000585251
0.000512043
0.000487577
0.000520918
0.000540535
0.000489514
0.000580534
0.000240771
0.000335592
0.000146393
0.00013654
0.000128366
0.000122295
0.000119034
0.000118403
0.000119907
0.000122086
0.000127229
0.000137696
0.000156943
0.000191784
0.000239467
0.000269975
0.000269755
0.000251312
0.000208398
0.000173353
0.00014629
0.000137804
0.000136826
0.00014125
0.000153966
0.000174538
0.000201607
0.000265337
0.00046886
0.000599726
0.000603177
0.000621489
0.000660269
0.000550243
0.00030841
0.000404192
0.000187062
0.000215522
0.000164924
0.000171689
0.000142553
0.000142438
0.00016662
0.000133753
0.000302634
0.000225871
0.000368497
0.000295696
0.000415014
0.000355631
0.000455556
0.000407539
0.000494954
0.000451603
0.000534695
0.000492072
0.000572197
0.000532543
0.000598902
0.000574332
0.000587901
0.000603429
0.000592339
0.000574328
0.000593858
0.00059063
0.000578863
0.000667344
0.000636151
0.00013759
0.000311211
0.000141022
0.000128486
0.000122308
0.000119007
0.000118337
0.000119551
0.000121581
0.00012655
0.000135768
0.000150992
0.000180282
0.000224622
0.000266135
0.000273614
0.000263423
0.000225724
0.000186523
0.000156715
0.000139426
0.000137425
0.000138909
0.000148605
0.000165876
0.00018902
0.000230615
0.000368006
0.000588452
0.00062111
0.000661198
0.000766479
0.000711918
0.000520839
0.000274167
0.000343524
0.000164085
0.00018105
0.000150394
0.000158125
0.000127705
0.000135064
0.000145703
0.000123178
0.000233518
0.000185258
0.000301239
0.000253964
0.000362166
0.000319784
0.000410916
0.000369856
0.000449786
0.000410016
0.000488071
0.000446751
0.000531268
0.000485775
0.000577828
0.000531211
0.000605772
0.000576314
0.000595137
0.000604727
0.000604446
0.000597914
0.000611743
0.000608291
0.000602551
0.000602363
0.000604751
0.000601914
0.00061644
0.000627909
0.000650224
0.000662053
0.000164265
0.000276343
0.000132954
0.000122929
0.000119227
0.000118459
0.000119491
0.000121489
0.000126465
0.000134805
0.000146953
0.000170966
0.000210956
0.00025635
0.000275149
0.000271405
0.000244386
0.000202258
0.000169307
0.000143341
0.000138515
0.000138226
0.000144526
0.000158513
0.000178442
0.000208185
0.000293321
0.000525277
0.000623605
0.000672846
0.000809623
0.000864086
0.000715026
0.00036839
0.000502897
0.000219746
0.000290118
0.000150628
0.000155389
0.000143411
0.000147899
0.000123565
0.000132445
0.000131883
0.000116113
0.000212129
0.000170179
0.000276229
0.000235771
0.00033128
0.000295677
0.000376114
0.000349638
0.000415352
0.000393791
0.000450937
0.000428763
0.000489812
0.000473532
0.000460549
0.000555861
0.00053209
0.00049404
0.000511865
0.000577277
0.000595868
0.000577781
0.000555951
0.000596006
0.000606213
0.000616396
0.00060189
0.000593088
0.000594974
0.000601506
0.000667156
0.000600105
0.000639614
0.000634063
0.000651969
0.000167623
0.000505974
0.000511321
0.000259914
0.0001289
0.000120423
0.000118998
0.000119653
0.000121758
0.000126732
0.00013446
0.000144754
0.000163985
0.00019915
0.000243275
0.000273856
0.000275481
0.000261255
0.000221317
0.000182855
0.000153012
0.000139819
0.000138818
0.000141809
0.000152678
0.000169494
0.000191959
0.000245314
0.000398909
0.000604651
0.000675165
0.000815318
0.000960244
0.0008876
0.000642768
0.000312913
0.000411347
0.000174993
0.00022525
0.000141963
0.000143537
0.000138049
0.000140197
0.000122102
0.00013078
0.000127343
0.000114851
0.000199329
0.000161813
0.000265171
0.000235994
0.00032659
0.000302535
0.000376942
0.000359798
0.000414067
0.000401007
0.00045064
0.000441521
0.000434047
0.000426675
0.000481068
0.00047021
0.000466002
0.00045649
0.000533571
0.000512818
0.000483733
0.000496283
0.000556777
0.000579082
0.000557026
0.000534244
0.000578677
0.000605293
0.000615568
0.000591643
0.000577185
0.000575166
0.000591736
0.000665477
0.000664415
0.000630818
0.000646383
0.000310217
0.00019442
0.000179596
0.000641596
0.000547601
0.000128007
0.000120714
0.000120372
0.000122659
0.000127775
0.000134576
0.000143967
0.000159707
0.000189508
0.000230976
0.00026897
0.000280556
0.000272758
0.000241129
0.000199979
0.000165837
0.000143715
0.000140072
0.000140831
0.000148411
0.000162275
0.000179946
0.000214242
0.000310983
0.000535339
0.000660361
0.00080674
0.000978843
0.00103262
0.00086679
0.000424271
0.000580101
0.000225081
0.000320751
0.000148111
0.000165782
0.000130798
0.000132444
0.00013237
0.000131075
0.000122964
0.000127771
0.00012165
0.000114645
0.000198388
0.000158127
0.000272881
0.000234526
0.000338255
0.000308816
0.000386205
0.000366735
0.000420273
0.000413733
0.000407721
0.000401507
0.000448191
0.000440538
0.000433528
0.000427101
0.000473925
0.000465418
0.000461672
0.000453579
0.000514107
0.000498071
0.000476489
0.000486059
0.000534425
0.000557085
0.000534126
0.000514559
0.000555982
0.000595948
0.000606193
0.000573828
0.000554053
0.00055197
0.000574631
0.000655253
0.000650078
0.000619741
0.000633202
0.000328719
0.000198206
0.000176123
0.000631446
0.000579264
0.000129284
0.00012254
0.000124231
0.000129659
0.000135495
0.000144029
0.000157895
0.000182961
0.000220309
0.000259302
0.000280955
0.000280039
0.000260678
0.000220293
0.000180911
0.000152832
0.000142252
0.000141721
0.000146113
0.000157022
0.000171531
0.000193486
0.000252863
0.000407306
0.00061717
0.000767037
0.000972695
0.00111833
0.00104371
0.000725903
0.000330764
0.000452859
0.000161037
0.000223222
0.000135307
0.00014349
0.000121739
0.000121352
0.000125717
0.000123454
0.000122534
0.000123367
0.000116065
0.000114711
0.000190934
0.000144801
0.000270415
0.000225784
0.000340161
0.00030467
0.000394909
0.000387597
0.00037854
0.0003678
0.00042127
0.000415951
0.000411094
0.000406276
0.000445816
0.000438784
0.000432707
0.000427371
0.000467835
0.000457415
0.000459468
0.000449593
0.000499061
0.000487417
0.000468767
0.000477842
0.000514119
0.000533147
0.00051296
0.000498905
0.000531271
0.000579486
0.000589105
0.000550982
0.000528862
0.000526587
0.000552213
0.000638568
0.000632565
0.00060131
0.000612713
0.000318839
0.000197041
0.000189293
0.000621449
0.000515046
0.000132098
0.000127305
0.000131564
0.000138098
0.000145124
0.000157765
0.000179882
0.000212669
0.000250015
0.000279034
0.000286538
0.000275936
0.000242117
0.000199504
0.000166615
0.000147904
0.000143219
0.000145557
0.000153874
0.000165512
0.000179993
0.000216496
0.000311417
0.000522925
0.000699906
0.000941033
0.001129
0.0011736
0.000970243
0.000441036
0.000611782
0.000210774
0.000319165
0.000140665
0.000159798
0.000123711
0.00012904
0.000114816
0.000113088
0.000119725
0.00011725
0.000121839
0.000119857
0.000114644
0.000113304
0.000179758
0.000137938
0.000261691
0.000216286
0.000350166
0.000315178
0.000401177
0.000395023
0.000387031
0.000376169
0.000423021
0.000419501
0.000416542
0.000413764
0.000442417
0.000436726
0.000431866
0.000428221
0.000459704
0.000451494
0.000451101
0.000444014
0.000487563
0.000477883
0.000458129
0.000468184
0.000497671
0.000510862
0.000495407
0.000486447
0.000507957
0.000557628
0.000566592
0.000525581
0.000504701
0.00050175
0.000526822
0.000618386
0.00061589
0.00057704
0.000588231
0.000275265
0.000176771
0.000191114
0.000614607
0.000427329
0.000137329
0.000134988
0.000140791
0.000148489
0.000158862
0.000179463
0.000209275
0.000243704
0.000274579
0.000290676
0.00028682
0.000263196
0.000223097
0.000183739
0.000160128
0.00014715
0.000146346
0.000152785
0.00016194
0.000172753
0.000192981
0.00025121
0.000401988
0.000607509
0.000852801
0.00111379
0.00125329
0.00116036
0.000756197
0.000306535
0.000448556
0.000161179
0.000200655
0.000126947
0.000140088
0.000115114
0.000119772
0.000110175
0.000108679
0.000115345
0.000112699
0.00011812
0.000115434
0.000115143
0.000111418
0.000173349
0.00013768
0.000272968
0.000228546
0.000379127
0.000364355
0.000324615
0.00034561
0.000410634
0.000406419
0.000400256
0.000391337
0.000425843
0.000424455
0.00042369
0.000423063
0.000438397
0.000434196
0.000431025
0.000429276
0.000448407
0.000443427
0.000439994
0.00043725
0.000476628
0.00046622
0.000443688
0.000454933
0.000484129
0.000492077
0.000480693
0.000474156
0.000487994
0.000531967
0.0005406
0.000500099
0.000483544
0.000479398
0.000500605
0.000596093
0.000601202
0.000550072
0.000561099
0.000261051
0.000148823
0.000187017
0.000610296
0.000381476
0.000144919
0.000144973
0.000152937
0.000162957
0.000180714
0.000209177
0.000242173
0.000273039
0.00029362
0.000298721
0.000284184
0.000249873
0.000207882
0.000176557
0.000157861
0.000148283
0.000153244
0.000160754
0.000169145
0.00017911
0.000213339
0.000305689
0.000498075
0.000733111
0.00105022
0.00126349
0.00128849
0.00101817
0.000405908
0.000586104
0.000193207
0.000273302
0.000141601
0.000163299
0.000119554
0.000127905
0.000110171
0.000114289
0.000107083
0.000105573
0.000111233
0.000109296
0.000115883
0.000112042
0.000120456
0.000115546
0.000186372
0.000148177
0.000302516
0.000278303
0.000247366
0.000393272
0.000375849
0.000336224
0.000356081
0.00042187
0.000419205
0.000414045
0.000405516
0.000429009
0.000429762
0.000431071
0.000432289
0.000433285
0.000430366
0.000429055
0.000429157
0.00043368
0.000432922
0.000425315
0.00042923
0.000463057
0.0004504
0.000425187
0.000437281
0.000470623
0.000476225
0.000466135
0.000458938
0.000471017
0.000504187
0.000511951
0.000476353
0.000465336
0.00045978
0.000474991
0.000574265
0.000588218
0.000522108
0.00053478
0.000301164
0.000178993
0.000343748
0.000492189
0.000377702
0.000156011
0.000158831
0.000170158
0.000185773
0.000211526
0.000243223
0.000274219
0.000298033
0.000307868
0.000300069
0.000274673
0.000235204
0.000198293
0.000174761
0.000155795
0.000154124
0.000161184
0.000168335
0.000173286
0.000189959
0.000244836
0.00038554
0.000606949
0.000925362
0.00123906
0.00136404
0.00122404
0.000727437
0.00025326
0.000391049
0.000163058
0.000189725
0.000130741
0.000143918
0.000115848
0.000121655
0.00010686
0.000111049
0.000102211
0.000101033
0.000107244
0.000104626
0.000120629
0.000116154
0.000134693
0.000133808
0.000199608
0.000158626
0.000312364
0.000287509
0.000244548
0.000226637
0.000340893
0.000321602
0.000282517
0.00030156
0.000432376
0.00040936
0.000382647
0.000360761
0.000430394
0.000432831
0.000435839
0.000409371
0.000425417
0.000423572
0.00042299
0.000424469
0.000414748
0.000420364
0.000407146
0.000416269
0.000444903
0.000429686
0.000401758
0.000415041
0.000454155
0.000460777
0.000448724
0.000438921
0.00045476
0.000476324
0.000482607
0.000454597
0.000448211
0.000440974
0.000450732
0.000553345
0.000574417
0.000494664
0.000510108
0.000390435
7.79078e-05
0.000261331
0.0004353
0.000394741
0.000172901
0.000179727
0.000196705
0.000220227
0.000249194
0.000279884
0.000306447
0.000321176
0.000318802
0.000298194
0.000261869
0.000223446
0.000193947
0.000172626
0.000157973
0.000162369
0.000169101
0.000172455
0.000177571
0.000207301
0.000296232
0.000482496
0.000773773
0.00114851
0.00137721
0.00136579
0.0010069
0.000323778
0.000510036
0.000188057
0.000227516
0.000146157
0.000163001
0.000124959
0.000133886
0.000112835
0.000118593
0.000102427
0.000106924
9.93534e-05
9.70903e-05
0.000109676
0.000104073
0.000138056
0.000133697
0.00017096
0.000173846
0.00021205
0.000188575
0.000178099
0.000263595
0.000243991
0.000208726
0.000198323
0.000291354
0.000274207
0.000241311
0.000256954
0.000376434
0.000350019
0.000327984
0.000309387
0.000427998
0.000418444
0.000378098
0.000345526
0.000412877
0.000411699
0.000413472
0.000417382
0.000390342
0.000401945
0.000383964
0.000397519
0.000421526
0.000403854
0.00037259
0.00038735
0.000432746
0.000442814
0.000426434
0.000413451
0.000436421
0.000450289
0.000456141
0.00043388
0.000428783
0.000420927
0.000428772
0.000532696
0.000473954
0.000468798
0.000486957
0.000346077