/*--------------------------------*- C++ -*----------------------------------*\
  =========                 |
  \\      /  F ield         | OpenFOAM: The Open Source CFD Toolbox
   \\    /   O peration     | Website:  https://openfoam.org
    \\  /    A nd           | Version:  dev
     \\/     M anipulation  |
\*---------------------------------------------------------------------------*/
FoamFile
{
    version     2.0;
    format      ascii;
    class       volScalarField;
    location    "2500";
    object      O2;
}
// * * * * * * * * * * * * * * * * * * * * * * * * * * * * * * * * * * * * * //

dimensions      [0 0 0 0 0 0 0];

internalField   nonuniform List<scalar> 
9848
(
0.23301
0.23301
0.23301
0.23301
0.23301
0.23301
0.23301
0.23301
0.23301
0.23301
0.23301
0.23301
0.23301
0.23301
0.23301
0.23301
0.23301
0.23301
0.23301
0.23301
0.23301
0.23301
0.23301
0.23301
0.23301
0.23301
0.23301
0.23301
0.23301
0.23301
0.23301
0.23301
0.23301
0.23301
0.23301
0.23301
0.23301
0.23301
0.23301
0.23301
0.23301
0.23301
0.23301
0.23301
0.23301
0.23301
0.23301
0.23301
0.23301
0.23301
0.23301
0.23301
0.23301
0.23301
0.23301
0.23301
0.23301
0.23301
0.23301
0.23301
0.23301
0.23301
0.23301
0.23301
0.23301
0.23301
0.23301
0.23301
0.23301
0.23301
0.23301
0.23301
0.23301
0.23301
0.23301
0.23301
0.23301
0.23301
0.23301
0.23301
0.23301
0.23301
0.23301
0.23301
0.23301
0.23301
0.23301
0.23301
0.23301
0.23301
0.23301
0.23301
0.23301
0.23301
0.23301
0.23301
0.23301
0.23301
0.23301
0.23301
0.23301
0.23301
0.23301
0.23301
0.23301
0.23301
0.23301
0.23301
0.23301
0.23301
0.23301
0.23301
0.23301
0.23301
0.23301
0.23301
0.23301
0.23301
0.23301
0.23301
0.23301
0.23301
0.23301
0.23301
0.23301
0.23301
0.23301
0.23301
0.23301
0.23301
0.23301
0.23301
0.23301
0.23301
0.23301
0.23301
0.23301
0.23301
0.23301
0.23301
0.23301
0.23301
0.23301
0.23301
0.23301
0.23301
0.23301
0.23301
0.23301
0.23301
0.23301
0.23301
0.23301
0.23301
0.23301
0.23301
0.23301
0.23301
0.23301
0.23301
0.23301
0.23301
0.23301
0.23301
0.23301
0.23301
0.23301
0.23301
0.23301
0.23301
0.23301
0.23301
0.23301
0.23301
0.23301
0.23301
0.23301
0.23301
0.23301
0.23301
0.23301
0.23301
0.23301
0.23301
0.23301
0.23301
0.23301
0.23301
0.23301
0.23301
0.23301
0.23301
0.23301
0.23301
0.23301
0.23301
0.23301
0.23301
0.23301
0.23301
0.23301
0.23301
0.23301
0.23301
0.23301
0.23301
0.23301
0.23301
0.23301
0.23301
0.23301
0.23301
0.23301
0.23301
0.23301
0.23301
0.23301
0.23301
0.23301
0.23301
0.23301
0.23301
0.23301
0.23301
0.23301
0.23301
0.23301
0.23301
0.23301
0.23301
0.23301
0.23301
0.23301
0.23301
0.23301
0.23301
0.23301
0.23301
0.23301
0.23301
0.23301
0.23301
0.23301
0.23301
0.23301
0.23301
0.23301
0.23301
0.23301
0.23301
0.23301
0.23301
0.23301
0.23301
0.23301
0.23301
0.23301
0.23301
0.23301
0.23301
0.23301
0.23301
0.23301
0.23301
0.23301
0.23301
0.23301
0.23301
0.23301
0.23301
0.23301
0.23301
0.23301
0.23301
0.23301
0.23301
0.23301
0.23301
0.23301
0.23301
0.23301
0.23301
0.23301
0.23301
0.23301
0.23301
0.23301
0.23301
0.23301
0.23301
0.23301
0.23301
0.23301
0.23301
0.23301
0.23301
0.23301
0.23301
0.23301
0.23301
0.23301
0.23301
0.23301
0.23301
0.23301
0.23301
0.23301
0.23301
0.23301
0.23301
0.23301
0.23301
0.23301
0.23301
0.23301
0.23301
0.23301
0.23301
0.23301
0.23301
0.23301
0.23301
0.23301
0.23301
0.23301
0.23301
0.23301
0.23301
0.23301
0.23301
0.23301
0.23301
0.23301
0.23301
0.23301
0.23301
0.23301
0.23301
0.23301
0.23301
0.23301
0.23301
0.23301
0.23301
0.23301
0.23301
0.23301
0.23301
0.23301
0.23301
0.23301
0.23301
0.23301
0.23301
0.23301
0.23301
0.23301
0.23301
0.23301
0.23301
0.23301
0.23301
0.23301
0.23301
0.23301
0.23301
0.23301
0.23301
0.23301
0.23301
0.23301
0.23301
0.23301
0.23301
0.23301
0.23301
0.23301
0.23301
0.23301
0.23301
0.23301
0.23301
0.23301
0.23301
0.23301
0.23301
0.23301
0.23301
0.23301
0.23301
0.23301
0.23301
0.23301
0.23301
0.23301
0.23301
0.23301
0.23301
0.23301
0.23301
0.23301
0.23301
0.23301
0.23301
0.23301
0.23301
0.23301
0.23301
0.23301
0.23301
0.23301
0.23301
0.23301
0.23301
0.23301
0.23301
0.23301
0.23301
0.23301
0.23301
0.23301
0.23301
0.23301
0.23301
0.23301
0.23301
0.23301
0.23301
0.23301
0.23301
0.23301
0.23301
0.23301
0.23301
0.23301
0.23301
0.23301
0.23301
0.23301
0.23301
0.23301
0.23301
0.23301
0.23301
0.23301
0.23301
0.23301
0.23301
0.23301
0.23301
0.23301
0.23301
0.23301
0.23301
0.23301
0.23301
0.23301
0.23301
0.23301
0.23301
0.23301
0.23301
0.23301
0.23301
0.23301
0.23301
0.23301
0.23301
0.23301
0.23301
0.23301
0.23301
0.23301
0.23301
0.23301
0.23301
0.23301
0.23301
0.23301
0.23301
0.23301
0.23301
0.23301
0.23301
0.23301
0.23301
0.23301
0.23301
0.23301
0.23301
0.23301
0.23301
0.23301
0.23301
0.23301
0.23301
0.23301
0.23301
0.23301
0.23301
0.23301
0.23301
0.23301
0.23301
0.23301
0.23301
0.23301
0.23301
0.23301
0.23301
0.23301
0.23301
0.23301
0.23301
0.23301
0.23301
0.23301
0.23301
0.23301
0.23301
0.23301
0.23301
0.23301
0.23301
0.23301
0.23301
0.23301
0.23301
0.23301
0.23301
0.23301
0.23301
0.23301
0.23301
0.23301
0.23301
0.23301
0.23301
0.23301
0.23301
0.23301
0.23301
0.23301
0.23301
0.23301
0.23301
0.23301
0.23301
0.23301
0.23301
0.23301
0.23301
0.23301
0.23301
0.23301
0.23301
0.23301
0.23301
0.23301
0.23301
0.23301
0.23301
0.23301
0.23301
0.23301
0.23301
0.23301
0.23301
0.23301
0.23301
0.23301
0.23301
0.23301
0.23301
0.23301
0.23301
0.23301
0.23301
0.23301
0.23301
0.23301
0.23301
0.23301
0.23301
0.23301
0.23301
0.23301
0.23301
0.23301
0.23301
0.23301
0.23301
0.23301
0.23301
0.23301
0.23301
0.23301
0.23301
0.23301
0.23301
0.23301
0.23301
0.23301
0.23301
0.23301
0.23301
0.23301
0.23301
0.23301
0.23301
0.23301
0.23301
0.23301
0.23301
0.23301
0.23301
0.23301
0.23301
0.23301
0.23301
0.23301
0.23301
0.23301
0.23301
0.23301
0.23301
0.23301
0.23301
0.23301
0.23301
0.23301
0.23301
0.23301
0.23301
0.23301
0.23301
0.23301
0.23301
0.23301
0.23301
0.23301
0.23301
0.23301
0.23301
0.23301
0.23301
0.23301
0.23301
0.23301
0.23301
0.23301
0.23301
0.23301
0.23301
0.23301
0.23301
0.23301
0.23301
0.23301
0.233009
0.233009
0.233009
0.233009
0.233009
0.23301
0.23301
0.23301
0.23301
0.23301
0.23301
0.23301
0.23301
0.23301
0.23301
0.23301
0.23301
0.23301
0.23301
0.23301
0.23301
0.23301
0.23301
0.23301
0.23301
0.23301
0.23301
0.23301
0.23301
0.23301
0.23301
0.23301
0.23301
0.23301
0.23301
0.23301
0.23301
0.23301
0.23301
0.233009
0.233008
0.233007
0.233005
0.233004
0.233004
0.233006
0.233008
0.23301
0.23301
0.23301
0.23301
0.23301
0.23301
0.23301
0.23301
0.23301
0.23301
0.23301
0.23301
0.23301
0.23301
0.23301
0.23301
0.23301
0.23301
0.23301
0.23301
0.23301
0.23301
0.23301
0.23301
0.23301
0.23301
0.23301
0.23301
0.23301
0.23301
0.23301
0.23301
0.23301
0.233009
0.233008
0.233005
0.232998
0.232989
0.232982
0.23298
0.232984
0.232994
0.233009
0.233006
0.23301
0.233009
0.23301
0.23301
0.23301
0.23301
0.23301
0.23301
0.23301
0.23301
0.23301
0.23301
0.23301
0.23301
0.23301
0.23301
0.23301
0.23301
0.23301
0.23301
0.23301
0.23301
0.23301
0.23301
0.23301
0.23301
0.23301
0.23301
0.23301
0.23301
0.23301
0.23301
0.23301
0.233009
0.233005
0.232995
0.232976
0.232945
0.232912
0.232891
0.232891
0.232914
0.232996
0.232962
0.233007
0.233001
0.23301
0.233008
0.23301
0.23301
0.23301
0.23301
0.23301
0.23301
0.23301
0.23301
0.23301
0.23301
0.23301
0.23301
0.23301
0.23301
0.23301
0.23301
0.23301
0.23301
0.23301
0.23301
0.23301
0.23301
0.23301
0.23301
0.23301
0.23301
0.23301
0.23301
0.23301
0.23301
0.23301
0.233008
0.233
0.232975
0.232927
0.232852
0.232752
0.232672
0.232635
0.232658
0.232876
0.232691
0.23298
0.232915
0.233005
0.232991
0.233009
0.233007
0.23301
0.23301
0.23301
0.23301
0.23301
0.23301
0.23301
0.23301
0.23301
0.23301
0.23301
0.23301
0.23301
0.23301
0.23301
0.23301
0.23301
0.23301
0.23301
0.23301
0.23301
0.23301
0.23301
0.23301
0.23301
0.23301
0.23301
0.23301
0.23301
0.23301
0.23301
0.233008
0.232996
0.232947
0.232845
0.232697
0.232533
0.232367
0.23226
0.232235
0.23251
0.232257
0.232762
0.232556
0.232947
0.232829
0.232999
0.232971
0.233008
0.233004
0.233009
0.23301
0.23301
0.23301
0.23301
0.23301
0.23301
0.23301
0.23301
0.23301
0.23301
0.23301
0.23301
0.23301
0.23301
0.23301
0.23301
0.23301
0.23301
0.23301
0.23301
0.23301
0.23301
0.23301
0.23301
0.23301
0.23301
0.23301
0.23301
0.23301
0.23301
0.233008
0.232994
0.232924
0.232742
0.232477
0.232208
0.232
0.231837
0.231737
0.23203
0.231718
0.23232
0.232053
0.232629
0.232389
0.232891
0.23271
0.232988
0.232937
0.233007
0.232998
0.233008
0.23301
0.233009
0.23301
0.23301
0.23301
0.23301
0.23301
0.23301
0.23301
0.23301
0.23301
0.23301
0.23301
0.23301
0.23301
0.23301
0.23301
0.23301
0.23301
0.23301
0.23301
0.23301
0.23301
0.23301
0.23301
0.23301
0.23301
0.23301
0.23301
0.23301
0.233009
0.232995
0.232916
0.232661
0.232235
0.231805
0.23147
0.231286
0.23118
0.231449
0.231072
0.231754
0.231427
0.232111
0.231793
0.23247
0.232182
0.232798
0.232562
0.232967
0.232877
0.233004
0.232987
0.233007
0.23301
0.233009
0.23301
0.23301
0.23301
0.23301
0.23301
0.23301
0.23301
0.23301
0.23301
0.23301
0.23301
0.23301
0.23301
0.23301
0.23301
0.23301
0.23301
0.23301
0.23301
0.23301
0.23301
0.23301
0.23301
0.23301
0.23301
0.23301
0.23301
0.23301
0.233009
0.232997
0.232918
0.232634
0.232057
0.231393
0.230878
0.230533
0.230371
0.230767
0.230332
0.231072
0.230704
0.231439
0.231059
0.231846
0.231466
0.232264
0.231908
0.232663
0.232357
0.232931
0.232772
0.232998
0.232966
0.233005
0.23301
0.233008
0.233009
0.23301
0.23301
0.23301
0.23301
0.23301
0.23301
0.23301
0.23301
0.23301
0.23301
0.23301
0.23301
0.23301
0.23301
0.23301
0.23301
0.23301
0.23301
0.23301
0.23301
0.23301
0.23301
0.23301
0.23301
0.23301
0.23301
0.23301
0.23301
0.233002
0.232928
0.232638
0.232
0.231149
0.230569
0.230257
0.230075
0.230099
0.22995
0.230319
0.230049
0.230671
0.23029
0.231054
0.230641
0.231501
0.231059
0.231978
0.23154
0.232462
0.232059
0.232859
0.232583
0.232987
0.232918
0.232999
0.23301
0.233005
0.233008
0.23301
0.23301
0.23301
0.23301
0.23301
0.23301
0.23301
0.23301
0.23301
0.23301
0.23301
0.23301
0.23301
0.23301
0.23301
0.23301
0.23301
0.23301
0.23301
0.23301
0.23301
0.23301
0.23301
0.23301
0.23301
0.23301
0.23301
0.23301
0.233006
0.232955
0.232669
0.232
0.231121
0.230587
0.230296
0.230121
0.230006
0.229943
0.229918
0.230048
0.229944
0.230275
0.230059
0.230616
0.230272
0.231069
0.230604
0.231584
0.231081
0.232151
0.231636
0.232707
0.232254
0.232957
0.232801
0.232981
0.233009
0.232996
0.233003
0.233009
0.233008
0.233009
0.233006
0.23301
0.23301
0.23301
0.23301
0.23301
0.23301
0.23301
0.23301
0.23301
0.23301
0.23301
0.23301
0.23301
0.23301
0.23301
0.23301
0.23301
0.23301
0.23301
0.23301
0.23301
0.23301
0.23301
0.23301
0.233008
0.23298
0.232754
0.232069
0.231208
0.230728
0.230474
0.230398
0.23045
0.230225
0.230703
0.229933
0.230008
0.229961
0.229966
0.230082
0.229994
0.230273
0.230108
0.230599
0.230275
0.231096
0.230603
0.231694
0.231116
0.232383
0.231763
0.232871
0.232517
0.232921
0.233004
0.232957
0.232975
0.233001
0.232993
0.232991
0.232956
0.23301
0.23301
0.23301
0.23301
0.23301
0.23301
0.23301
0.23301
0.23301
0.23301
0.23301
0.23301
0.23301
0.23301
0.23301
0.23301
0.23301
0.23301
0.23301
0.23301
0.23301
0.23301
0.23301
0.23301
0.233009
0.232997
0.232852
0.232253
0.2314
0.230992
0.23088
0.231109
0.231528
0.231215
0.231952
0.230796
0.231363
0.230065
0.230327
0.230011
0.230133
0.230035
0.230065
0.23013
0.230075
0.23028
0.230144
0.230612
0.230286
0.23114
0.230619
0.23185
0.231174
0.232629
0.231961
0.23272
0.232967
0.2328
0.232835
0.232928
0.232884
0.232817
0.232691
0.23301
0.23301
0.23301
0.23301
0.23301
0.23301
0.23301
0.23301
0.23301
0.23301
0.23301
0.23301
0.23301
0.23301
0.23301
0.23301
0.23301
0.23301
0.23301
0.23301
0.23301
0.23301
0.23301
0.23301
0.23301
0.233003
0.232927
0.23248
0.231628
0.231232
0.231245
0.231806
0.232401
0.232347
0.232742
0.231977
0.232496
0.231438
0.232027
0.230428
0.23089
0.230208
0.230527
0.230119
0.230282
0.230105
0.230164
0.230144
0.230118
0.230283
0.23013
0.230626
0.23027
0.231227
0.230639
0.232084
0.231299
0.232217
0.232753
0.232338
0.232344
0.232583
0.232419
0.232167
0.231868
0.23301
0.23301
0.23301
0.23301
0.23301
0.23301
0.23301
0.23301
0.23301
0.23301
0.23301
0.23301
0.23301
0.23301
0.23301
0.23301
0.23301
0.23301
0.23301
0.23301
0.23301
0.23301
0.23301
0.23301
0.23301
0.233007
0.232975
0.232685
0.231899
0.231436
0.231466
0.232135
0.232628
0.232892
0.232783
0.232914
0.232535
0.232815
0.232067
0.232524
0.230979
0.231508
0.230612
0.231047
0.230343
0.230668
0.230184
0.230372
0.230102
0.230161
0.230093
0.230049
0.230253
0.230043
0.230667
0.230237
0.231388
0.23071
0.231491
0.232082
0.231569
0.231505
0.231712
0.231503
0.231947
0.231205
0.23301
0.23301
0.23301
0.23301
0.23301
0.23301
0.23301
0.23301
0.23301
0.23301
0.23301
0.23301
0.23301
0.23301
0.23301
0.23301
0.23301
0.23301
0.23301
0.23301
0.23301
0.23301
0.23301
0.23301
0.233009
0.232997
0.232842
0.23221
0.231616
0.231592
0.232183
0.232601
0.232841
0.232976
0.232945
0.232935
0.232973
0.232802
0.232931
0.232439
0.232731
0.231542
0.23203
0.231063
0.231488
0.230659
0.230979
0.230326
0.23055
0.230086
0.230201
0.229966
0.229976
0.229981
0.229852
0.23023
0.229913
0.230767
0.230233
0.23083
0.231209
0.230854
0.230764
0.230938
0.230778
0.232624
0.231352
0.23301
0.23301
0.23301
0.23301
0.23301
0.23301
0.23301
0.23301
0.23301
0.23301
0.23301
0.23301
0.23301
0.23301
0.23301
0.23301
0.23301
0.23301
0.23301
0.23301
0.23301
0.23301
0.23301
0.23301
0.233003
0.232936
0.232506
0.231823
0.231661
0.232138
0.232496
0.232708
0.232911
0.232833
0.232987
0.232969
0.23298
0.232992
0.232894
0.232966
0.232564
0.232793
0.23189
0.232255
0.231323
0.231666
0.230811
0.23109
0.230382
0.230599
0.23005
0.230184
0.229811
0.22983
0.229713
0.229595
0.229848
0.229562
0.230246
0.229793
0.230265
0.230549
0.230253
0.230222
0.230424
0.230684
0.230374
0.232769
0.231509
0.23301
0.23301
0.23301
0.23301
0.23301
0.23301
0.23301
0.23301
0.23301
0.23301
0.23301
0.23301
0.23301
0.23301
0.23301
0.23301
0.23301
0.23301
0.23301
0.23301
0.23301
0.23301
0.23301
0.233007
0.232981
0.23274
0.232091
0.231738
0.23203
0.232352
0.232544
0.232733
0.232924
0.232871
0.232999
0.232988
0.232993
0.233
0.232923
0.232978
0.232585
0.232814
0.231992
0.232299
0.231394
0.231684
0.230839
0.231081
0.230351
0.230536
0.229902
0.230022
0.229542
0.229557
0.229348
0.229213
0.229416
0.229099
0.229749
0.229301
0.229523
0.229991
0.229733
0.230159
0.230276
0.230122
0.229978
0.229724
0.229721
0.229958
0.230598
0.230075
0.230088
0.230285
0.23267
0.231314
0.23301
0.23301
0.23301
0.23301
0.23301
0.23301
0.23301
0.23301
0.23301
0.23301
0.23301
0.23301
0.23301
0.23301
0.23301
0.23301
0.23301
0.23301
0.23301
0.23301
0.23301
0.23301
0.233009
0.232999
0.232886
0.232396
0.231873
0.231941
0.232213
0.232382
0.23256
0.232848
0.232745
0.232959
0.232906
0.233004
0.233
0.232998
0.233004
0.232937
0.232985
0.232582
0.232834
0.231955
0.232252
0.231321
0.231586
0.230738
0.230997
0.23019
0.23042
0.229643
0.229814
0.229167
0.229224
0.228866
0.228895
0.228869
0.229102
0.228908
0.228624
0.228754
0.229246
0.229471
0.229202
0.229017
0.229454
0.229928
0.229907
0.229714
0.22944
0.229444
0.229704
0.230173
0.230657
0.23033
0.229903
0.229948
0.231997
0.230563
0.230809
0.231195
0.23301
0.23301
0.23301
0.23301
0.23301
0.23301
0.23301
0.23301
0.23301
0.23301
0.23301
0.23301
0.23301
0.23301
0.23301
0.23301
0.23301
0.23301
0.23301
0.23301
0.23301
0.23301
0.233004
0.232961
0.232668
0.23209
0.23193
0.232094
0.23224
0.23239
0.232639
0.232887
0.232817
0.232984
0.232947
0.233007
0.233005
0.233001
0.233006
0.232953
0.232991
0.232634
0.232883
0.231896
0.232256
0.231278
0.231591
0.230701
0.231017
0.230061
0.230366
0.229374
0.229595
0.228865
0.228884
0.228914
0.228964
0.228534
0.22847
0.228666
0.228647
0.228804
0.228618
0.22836
0.228471
0.228948
0.229174
0.228893
0.228708
0.229151
0.229696
0.229698
0.229437
0.229138
0.229134
0.229441
0.230052
0.230218
0.229725
0.229794
0.231009
0.231728
0.231323
0.230433
0.230653
0.23301
0.23301
0.23301
0.23301
0.23301
0.23301
0.23301
0.23301
0.23301
0.23301
0.23301
0.23301
0.23301
0.23301
0.23301
0.23301
0.23301
0.23301
0.23301
0.23301
0.23301
0.233008
0.232992
0.232849
0.232369
0.231973
0.232019
0.232123
0.232239
0.232452
0.232808
0.232696
0.232943
0.232879
0.232999
0.232983
0.233008
0.233008
0.233003
0.233007
0.232974
0.232996
0.232757
0.232932
0.231961
0.232379
0.231371
0.231763
0.230715
0.231108
0.229883
0.230244
0.229022
0.229104
0.229198
0.229323
0.228643
0.228651
0.228671
0.228705
0.228279
0.228217
0.228429
0.228401
0.228498
0.228326
0.228097
0.228196
0.228625
0.22885
0.228557
0.228388
0.228819
0.229452
0.229479
0.229139
0.228804
0.2288
0.229156
0.229914
0.230084
0.229531
0.229621
0.230888
0.23171
0.23124
0.230292
0.230527
0.23301
0.23301
0.23301
0.23301
0.23301
0.23301
0.23301
0.23301
0.23301
0.23301
0.23301
0.23301
0.23301
0.23301
0.23301
0.23301
0.23301
0.23301
0.23301
0.23301
0.233009
0.233
0.232942
0.232638
0.232124
0.232013
0.232044
0.232116
0.23228
0.232593
0.232875
0.232794
0.232984
0.232943
0.233006
0.232999
0.233009
0.233009
0.233003
0.233007
0.232983
0.232998
0.232849
0.23295
0.232185
0.232591
0.231541
0.23197
0.230664
0.231128
0.229465
0.229646
0.229843
0.23008
0.228755
0.228828
0.228926
0.229054
0.228382
0.228374
0.22838
0.228406
0.228014
0.228164
0.227938
0.228119
0.228194
0.228043
0.227823
0.227925
0.228293
0.228503
0.228213
0.228074
0.228466
0.229187
0.229237
0.228813
0.228445
0.228443
0.228844
0.229753
0.229929
0.229312
0.229421
0.230821
0.231919
0.231337
0.230152
0.230427
0.23301
0.23301
0.23301
0.23301
0.23301
0.23301
0.23301
0.23301
0.23301
0.23301
0.23301
0.23301
0.23301
0.23301
0.23301
0.23301
0.23301
0.23301
0.23301
0.23301
0.233005
0.232984
0.232829
0.232386
0.23205
0.232018
0.23203
0.232137
0.232399
0.232804
0.232688
0.232951
0.232883
0.233
0.232986
0.233008
0.233006
0.233009
0.233009
0.233004
0.233007
0.232985
0.232998
0.232876
0.232955
0.232366
0.23269
0.231599
0.232039
0.23038
0.230928
0.229212
0.229404
0.229626
0.229884
0.228458
0.22854
0.228653
0.228801
0.228084
0.228069
0.228077
0.228119
0.227727
0.22787
0.227639
0.227814
0.227903
0.227766
0.227534
0.227647
0.227968
0.228148
0.227878
0.227775
0.228103
0.228893
0.228965
0.228462
0.228076
0.228072
0.228504
0.229569
0.229764
0.229063
0.229194
0.230824
0.232334
0.231608
0.230021
0.230355
0.23301
0.23301
0.23301
0.23301
0.23301
0.23301
0.23301
0.23301
0.23301
0.23301
0.23301
0.23301
0.23301
0.23301
0.23301
0.23301
0.23301
0.23301
0.23301
0.233009
0.232998
0.232931
0.23264
0.23218
0.232027
0.231989
0.23203
0.232227
0.232592
0.232894
0.232806
0.232989
0.232959
0.233007
0.233002
0.233009
0.233009
0.233009
0.233009
0.233003
0.233006
0.232985
0.232996
0.23288
0.232952
0.232419
0.232711
0.231473
0.231955
0.230001
0.230315
0.230928
0.230609
0.228982
0.229196
0.229439
0.22971
0.228198
0.228318
0.228472
0.228656
0.227785
0.227788
0.22784
0.227943
0.22743
0.227569
0.22735
0.227535
0.227622
0.227488
0.227243
0.22736
0.227663
0.227803
0.227565
0.227492
0.227749
0.22857
0.228663
0.228094
0.227714
0.227704
0.228143
0.229366
0.229595
0.228785
0.228943
0.230925
0.232701
0.231924
0.229899
0.23034
0.23301
0.23301
0.23301
0.23301
0.23301
0.23301
0.23301
0.23301
0.23301
0.23301
0.23301
0.23301
0.23301
0.23301
0.23301
0.23301
0.23301
0.23301
0.23301
0.233003
0.232979
0.232823
0.232417
0.232077
0.231987
0.231963
0.232086
0.232394
0.232835
0.23272
0.232969
0.232915
0.233003
0.232993
0.233009
0.233007
0.23301
0.23301
0.233007
0.233009
0.233001
0.233004
0.232981
0.232991
0.232859
0.232929
0.232362
0.232679
0.231214
0.231514
0.231902
0.229959
0.230278
0.230918
0.230597
0.228867
0.229104
0.229366
0.229652
0.228083
0.228247
0.228437
0.228649
0.227547
0.227626
0.227757
0.227922
0.227155
0.227319
0.227129
0.227347
0.227345
0.227206
0.226982
0.227077
0.227378
0.227483
0.227278
0.227219
0.22742
0.228222
0.228334
0.227723
0.227375
0.227357
0.227774
0.22915
0.229428
0.228481
0.228673
0.231106
0.232593
0.232053
0.229795
0.230386
0.23301
0.23301
0.23301
0.23301
0.23301
0.23301
0.23301
0.23301
0.23301
0.23301
0.23301
0.23301
0.23301
0.23301
0.23301
0.23301
0.23301
0.23301
0.233007
0.232996
0.232925
0.232649
0.232222
0.232008
0.231938
0.231984
0.232221
0.232631
0.232932
0.232849
0.232997
0.232977
0.233008
0.233005
0.23301
0.233009
0.23301
0.23301
0.233004
0.233007
0.232997
0.233001
0.232955
0.232965
0.232823
0.232858
0.232362
0.232685
0.231223
0.231513
0.231903
0.232159
0.230028
0.230358
0.231019
0.23069
0.228881
0.229135
0.229411
0.22971
0.228117
0.228333
0.228559
0.228794
0.227458
0.227619
0.227835
0.228083
0.226958
0.227169
0.227002
0.227305
0.22707
0.226932
0.226801
0.226827
0.227109
0.227193
0.227011
0.226951
0.227123
0.227861
0.227987
0.227366
0.227071
0.22704
0.22741
0.228927
0.229258
0.22816
0.228391
0.231289
0.232845
0.232298
0.229729
0.230479
0.23301
0.23301
0.23301
0.23301
0.23301
0.23301
0.23301
0.23301
0.23301
0.23301
0.23301
0.23301
0.23301
0.23301
0.23301
0.23301
0.23301
0.233009
0.233001
0.232974
0.23282
0.232437
0.232079
0.231942
0.231921
0.232081
0.232434
0.232889
0.232782
0.232986
0.232953
0.233006
0.233
0.233009
0.233009
0.23301
0.23301
0.233009
0.23301
0.232999
0.233004
0.232975
0.232988
0.232864
0.23287
0.232645
0.232586
0.232354
0.23255
0.232634
0.231334
0.231631
0.232059
0.232262
0.230234
0.230572
0.231235
0.230908
0.22904
0.229306
0.229594
0.229905
0.228343
0.2286
0.228848
0.229096
0.227513
0.227791
0.228105
0.228431
0.226843
0.227159
0.227006
0.227407
0.226804
0.226689
0.226687
0.226656
0.226849
0.226928
0.226759
0.226694
0.226857
0.227497
0.227634
0.227035
0.226799
0.226757
0.227066
0.228698
0.229099
0.227831
0.228102
0.231489
0.232937
0.232541
0.229696
0.230589
0.23301
0.23301
0.233009
0.233009
0.233009
0.233009
0.233009
0.233009
0.23301
0.23301
0.23301
0.23301
0.23301
0.23301
0.23301
0.23301
0.23301
0.233006
0.232994
0.232919
0.232648
0.232234
0.231974
0.231896
0.231976
0.232263
0.232706
0.232966
0.232906
0.233003
0.232992
0.233009
0.233007
0.23301
0.23301
0.23301
0.23301
0.233007
0.233009
0.232978
0.232998
0.232899
0.232942
0.232566
0.232582
0.232235
0.232152
0.231824
0.232408
0.232516
0.232311
0.232364
0.231541
0.231817
0.232209
0.23232
0.230585
0.230922
0.231549
0.231247
0.229355
0.229631
0.229931
0.23025
0.228742
0.229028
0.229295
0.229556
0.227736
0.228117
0.22852
0.228912
0.226843
0.227269
0.227097
0.227626
0.226566
0.226523
0.226664
0.22654
0.226599
0.226682
0.226516
0.226457
0.226613
0.227147
0.227286
0.226738
0.226554
0.226506
0.226754
0.228459
0.228958
0.227501
0.227802
0.231724
0.232987
0.232753
0.229693
0.230734
0.233008
0.233007
0.233006
0.233005
0.233005
0.233006
0.233008
0.233009
0.233009
0.23301
0.23301
0.23301
0.23301
0.23301
0.23301
0.23301
0.233009
0.232999
0.232968
0.232809
0.232427
0.23206
0.2319
0.231907
0.232121
0.232524
0.232949
0.232871
0.232998
0.232979
0.233008
0.233005
0.23301
0.233009
0.23301
0.23301
0.23301
0.23301
0.233004
0.233008
0.232911
0.232974
0.232675
0.2328
0.231802
0.231896
0.231685
0.231644
0.230683
0.230656
0.232383
0.232389
0.231784
0.231911
0.231816
0.23204
0.232205
0.232194
0.231054
0.231364
0.231877
0.231643
0.229825
0.230109
0.230413
0.230731
0.229269
0.229586
0.229872
0.230143
0.228052
0.228519
0.228994
0.229448
0.2269
0.227448
0.227213
0.22787
0.226395
0.226395
0.226679
0.226486
0.226361
0.226445
0.226281
0.226271
0.226383
0.226816
0.226949
0.226475
0.226326
0.226277
0.226466
0.228227
0.228845
0.227167
0.227504
0.231994
0.233005
0.232894
0.229708
0.23091
0.232998
0.232995
0.232992
0.232992
0.232996
0.233001
0.233004
0.233007
0.233008
0.233009
0.233009
0.23301
0.23301
0.23301
0.23301
0.23301
0.233004
0.232991
0.232906
0.232624
0.232199
0.231929
0.231871
0.23201
0.232359
0.23283
0.232987
0.232954
0.233007
0.233001
0.23301
0.233009
0.23301
0.23301
0.23301
0.23301
0.233009
0.23301
0.233
0.233006
0.23273
0.232905
0.232138
0.232448
0.230675
0.230734
0.230639
0.230878
0.230745
0.229774
0.229761
0.232146
0.232039
0.231043
0.231229
0.232048
0.232152
0.231951
0.231805
0.231544
0.231776
0.232039
0.231943
0.230413
0.230693
0.230986
0.231275
0.229856
0.230206
0.230507
0.230778
0.228347
0.228865
0.229403
0.229921
0.226949
0.227593
0.227268
0.228025
0.226252
0.22628
0.226611
0.226411
0.226151
0.226217
0.226059
0.226107
0.226158
0.226509
0.22662
0.226225
0.226104
0.226036
0.226203
0.228013
0.228732
0.226841
0.227204
0.232298
0.233009
0.232959
0.22975
0.231127
0.232954
0.232949
0.232947
0.232958
0.232974
0.232988
0.232998
0.233004
0.233007
0.233008
0.233009
0.23301
0.23301
0.23301
0.23301
0.233008
0.232996
0.232958
0.232781
0.232366
0.232003
0.231865
0.231928
0.232213
0.232674
0.232977
0.233003
0.232992
0.233009
0.233008
0.23301
0.23301
0.23301
0.23301
0.23301
0.23301
0.233008
0.23301
0.23298
0.233003
0.232325
0.232738
0.231132
0.231741
0.229803
0.229942
0.229557
0.229255
0.229984
0.229844
0.228888
0.228887
0.231631
0.231426
0.230168
0.230382
0.232072
0.232054
0.231383
0.231137
0.231886
0.231967
0.231936
0.231973
0.231036
0.231288
0.231529
0.231735
0.230382
0.230768
0.231082
0.231343
0.228503
0.229041
0.229618
0.23019
0.226862
0.227625
0.227157
0.228036
0.2261
0.226151
0.226477
0.22628
0.225978
0.225983
0.225864
0.225946
0.225919
0.22621
0.226297
0.225986
0.225846
0.225795
0.225938
0.227778
0.228649
0.226495
0.226884
0.232541
0.23301
0.232988
0.229821
0.231367
0.232823
0.232826
0.232837
0.232882
0.232929
0.232964
0.232987
0.232998
0.233004
0.233007
0.233008
0.233009
0.23301
0.23301
0.233009
0.233001
0.232984
0.23288
0.23255
0.232114
0.231879
0.231876
0.232093
0.232507
0.23292
0.233008
0.233004
0.233
0.233008
0.23301
0.233009
0.23301
0.23301
0.23301
0.23301
0.23301
0.23301
0.233006
0.233009
0.232931
0.232993
0.23162
0.232399
0.22976
0.230676
0.228943
0.229064
0.228885
0.2286
0.229062
0.228939
0.228092
0.228118
0.230877
0.230617
0.229245
0.229468
0.231801
0.231613
0.230613
0.230307
0.231924
0.231842
0.231478
0.231687
0.231563
0.231745
0.231876
0.231931
0.230703
0.23113
0.231462
0.231706
0.228506
0.229031
0.229604
0.230192
0.226723
0.227487
0.226969
0.227861
0.225942
0.225992
0.226319
0.226137
0.225811
0.225774
0.225699
0.225786
0.225697
0.225943
0.226007
0.225738
0.225654
0.2256
0.225722
0.227575
0.228563
0.226175
0.226578
0.232701
0.23301
0.232999
0.229909
0.231595
0.232579
0.232599
0.232643
0.232745
0.232855
0.232929
0.23297
0.232991
0.233001
0.233006
0.233008
0.233009
0.23301
0.233009
0.233006
0.232993
0.232936
0.232709
0.232244
0.231922
0.231848
0.231996
0.232361
0.232833
0.232996
0.233009
0.233009
0.233007
0.23301
0.23301
0.23301
0.23301
0.23301
0.23301
0.23301
0.23301
0.23301
0.233003
0.233009
0.232826
0.232971
0.230738
0.231872
0.228671
0.229154
0.22961
0.228215
0.228377
0.228364
0.228081
0.22821
0.228116
0.22744
0.227508
0.230003
0.22972
0.228375
0.228589
0.231212
0.230922
0.229779
0.229441
0.231631
0.231402
0.230811
0.231125
0.231858
0.23191
0.2319
0.2318
0.230746
0.231222
0.231576
0.231768
0.228279
0.228741
0.229252
0.229803
0.226499
0.227243
0.226696
0.227529
0.2258
0.225923
0.226236
0.226068
0.225659
0.225609
0.225572
0.22567
0.225558
0.225729
0.225783
0.225596
0.225525
0.225511
0.225582
0.227334
0.228486
0.22595
0.226302
0.232795
0.23301
0.233
0.229995
0.231767
0.232289
0.23235
0.232435
0.232584
0.232756
0.232885
0.232951
0.232983
0.232997
0.233004
0.233007
0.233009
0.233009
0.233008
0.232997
0.232969
0.232819
0.232389
0.231991
0.231844
0.231923
0.232233
0.232704
0.232974
0.233009
0.23301
0.23301
0.233009
0.23301
0.23301
0.23301
0.23301
0.23301
0.23301
0.23301
0.23301
0.23301
0.232997
0.233007
0.232636
0.23293
0.23015
0.231304
0.228434
0.22879
0.229536
0.229006
0.227644
0.227838
0.228102
0.227786
0.2275
0.22744
0.22696
0.227081
0.229125
0.228839
0.227637
0.227826
0.230471
0.230129
0.22896
0.228632
0.231077
0.230752
0.230037
0.230401
0.231803
0.231769
0.2316
0.231365
0.230356
0.230859
0.231248
0.231405
0.227835
0.228158
0.22852
0.228911
0.226406
0.226891
0.226561
0.227096
0.225755
0.225867
0.226127
0.226003
0.225578
0.225511
0.225498
0.225607
0.225467
0.225591
0.225662
0.225518
0.225438
0.225424
0.225518
0.227098
0.2284
0.225785
0.226083
0.232807
0.233009
0.232985
0.230001
0.231767
0.232035
0.232137
0.232262
0.232445
0.232656
0.232837
0.232931
0.232974
0.232994
0.233003
0.233007
0.233009
0.233008
0.233002
0.232986
0.232891
0.232547
0.232078
0.231852
0.231875
0.232124
0.232563
0.232935
0.233005
0.23301
0.23301
0.23301
0.23301
0.23301
0.23301
0.23301
0.23301
0.23301
0.23301
0.23301
0.23301
0.233009
0.23301
0.232985
0.233005
0.232377
0.232866
0.22943
0.229787
0.230334
0.231066
0.228373
0.2287
0.229055
0.227266
0.227501
0.228046
0.227713
0.226947
0.226926
0.226639
0.226817
0.228332
0.22806
0.227028
0.22716
0.22967
0.229311
0.228097
0.227805
0.230282
0.2299
0.229131
0.229513
0.231401
0.231243
0.230981
0.230647
0.229331
0.229736
0.230086
0.230313
0.227293
0.227484
0.227663
0.227812
0.226211
0.226709
0.226369
0.226835
0.22567
0.225763
0.225929
0.225831
0.2255
0.22543
0.225418
0.225525
0.225376
0.225538
0.225564
0.225429
0.225341
0.225322
0.225433
0.226824
0.228212
0.225654
0.225945
0.232722
0.232969
0.232892
0.229902
0.231544
0.231866
0.231988
0.232139
0.232344
0.232576
0.232789
0.232914
0.232967
0.232992
0.233002
0.233007
0.233008
0.233005
0.232991
0.232931
0.23268
0.232175
0.231877
0.231843
0.232035
0.232429
0.232875
0.232999
0.23301
0.23301
0.23301
0.23301
0.23301
0.23301
0.23301
0.23301
0.23301
0.23301
0.23301
0.23301
0.23301
0.233009
0.23301
0.232972
0.233003
0.23216
0.232792
0.229465
0.229955
0.230329
0.231403
0.230814
0.228422
0.228734
0.229178
0.227063
0.227376
0.228097
0.227745
0.226479
0.226522
0.226405
0.226669
0.227554
0.227332
0.226485
0.226552
0.228764
0.228417
0.227253
0.22701
0.229258
0.228872
0.228145
0.228506
0.230334
0.230272
0.230009
0.229628
0.227953
0.228094
0.228217
0.228328
0.226891
0.227031
0.227111
0.227187
0.225873
0.226488
0.225939
0.226578
0.225588
0.225661
0.225806
0.225735
0.22542
0.225354
0.225353
0.225479
0.225311
0.225488
0.225524
0.225317
0.225281
0.225261
0.225329
0.22657
0.227871
0.225637
0.2258
0.232398
0.232192
0.232009
0.229503
0.230694
0.231786
0.231905
0.232067
0.232282
0.232526
0.232753
0.232901
0.232966
0.232992
0.233003
0.233007
0.233006
0.232995
0.23296
0.232772
0.232279
0.231916
0.231824
0.231961
0.232315
0.232789
0.232987
0.233009
0.23301
0.23301
0.23301