/*--------------------------------*- C++ -*----------------------------------*\
  =========                 |
  \\      /  F ield         | OpenFOAM: The Open Source CFD Toolbox
   \\    /   O peration     | Website:  https://openfoam.org
    \\  /    A nd           | Version:  dev
     \\/     M anipulation  |
\*---------------------------------------------------------------------------*/
FoamFile
{
    version     2.0;
    format      ascii;
    class       volScalarField;
    location    "2500";
    object      omega;
}
// * * * * * * * * * * * * * * * * * * * * * * * * * * * * * * * * * * * * * //

dimensions      [0 0 -1 0 0 0 0];

internalField   nonuniform List<scalar> 
9848
(
1.24727
1.26628
1.22443
1.18181
1.37612
1.11552
1.08051
1.38514
1.32056
1.03984
1.03386
1.34489
1.39267
1.19118
1.01815
1.01192
1.24522
1.41612
1.32886
1.09207
1.00979
1.00195
1.13381
1.40203
1.39463
1.19782
1.04743
1.0045
0.995799
1.06794
1.35565
1.41847
1.30773
1.10367
1.02542
1.00144
0.990731
1.0291
1.26145
1.4212
1.37851
1.18158
1.05603
1.01082
0.999211
0.987993
1.00641
1.15889
1.40461
1.40964
1.27234
1.09665
1.02954
1.00149
0.996331
0.986341
0.994057
1.08452
1.36076
1.42231
1.34978
1.15582
1.052
1.01043
0.995412
0.994617
0.986374
0.987041
1.04012
1.28218
1.42258
1.39263
1.22751
1.08177
1.02481
0.997484
0.988836
0.99349
0.987754
0.981109
1.01196
1.19191
1.4106
1.41349
1.30334
1.12381
1.04082
1.00431
0.988499
0.984593
0.992605
0.989189
0.975813
0.994557
1.10839
1.37794
1.42469
1.36184
1.18287
1.06146
1.01415
0.990029
0.980016
0.981406
0.99192
0.99034
0.97196
0.982675
1.05821
1.31943
1.43069
1.39647
1.24836
1.09312
1.02534
0.994476
0.979182
0.974092
0.978928
0.9914
0.991061
0.969102
0.97478
1.02413
1.23762
1.42553
1.41849
1.31237
1.13704
1.04043
1.00128
0.980115
0.970023
0.969517
0.976975
0.991022
0.991255
0.967255
0.969233
1.0013
1.15711
1.40401
1.42974
1.36396
1.19341
1.06259
1.00901
0.982967
0.968397
0.963062
0.965933
0.975475
0.990752
0.990913
0.966573
0.963823
0.986215
1.09189
1.36006
1.43945
1.39756
1.25089
1.09559
1.01916
0.987346
0.968946
0.959012
0.957594
0.963109
0.974358
0.99057
0.990441
0.96691
0.958458
0.975815
1.05161
1.29976
1.43841
1.42076
1.3084
1.13884
1.03412
0.991985
0.970691
0.957416
0.951558
0.953261
0.96093
0.973568
0.990461
0.989948
0.967516
0.954033
0.967845
1.02454
1.2277
1.42824
1.43426
1.35505
1.19047
1.05664
0.998088
0.972825
0.957574
0.948048
0.945592
0.949835
0.959304
0.973098
0.990416
0.98957
0.967845
0.95038
0.961537
1.00621
1.16196
1.40172
1.44351
1.39174
1.24189
1.08957
1.00761
0.9752
0.95819
0.946766
0.940392
0.940816
0.947259
0.958163
0.972903
0.990402
0.989421
0.967834
0.947249
0.956118
0.993122
1.10895
1.35723
1.44607
1.41643
1.29111
1.13068
1.02302
0.978683
0.959064
0.946449
0.937763
0.93423
0.937076
0.945418
0.957431
0.972844
0.990405
0.989508
0.96742
0.944531
0.951508
0.983305
1.07273
1.30648
1.4418
1.43196
1.33511
1.17625
1.04645
0.984501
0.959847
0.946529
0.936763
0.930382
0.929339
0.934324
0.944119
0.957159
0.972937
0.99048
0.989715
0.966497
0.942375
0.947742
0.976288
1.0489
1.2503
1.4279
1.43985
1.37225
1.2209
1.0779
0.994269
0.961536
0.946357
0.936651
0.928802
0.92443
0.925561
0.932412
0.943408
0.957314
0.973034
0.990565
0.989944
0.965277
0.940642
0.945011
0.97175
1.03261
1.19626
1.39828
1.44198
1.39945
1.26291
1.11406
1.01043
0.965071
0.946806
0.936406
0.92859
0.922232
0.919751
0.922842
0.93118
0.943248
0.957479
0.973179
0.990611
0.990146
0.963812
0.939191
0.943254
0.968925
1.0268
1.15102
1.35806
1.43918
1.41606
1.29957
1.15299
1.03252
0.971874
0.948004
0.93662
0.928846
0.922105
0.916899
0.9164
0.921057
0.930622
0.943592
0.957645
0.973264
0.990629
0.990272
0.962104
0.938111
0.942132
0.967825
1.02388
1.111
1.31177
1.42859
1.42377
1.33458
1.18873
1.06017
0.982293
0.950477
0.937169
0.929484
0.92278
0.916981
0.913077
0.914032
0.920285
0.931263
0.943994
0.957823
0.973191
0.990703
0.990291
0.960232
0.937413
0.941561
0.96792
1.02096
1.08583
1.26077
1.40614
1.42296
1.36061
1.22285
1.09005
0.997338
0.954875
0.938332
0.930479
0.924212
0.918055
0.913314
0.910827
0.912757
0.921155
0.932757
0.944586
0.957533
0.972636
0.990886
0.990157
0.958294
0.937188
0.941705
0.968464
1.01729
1.06919
1.20893
1.37519
1.41693
1.37966
1.25194
1.12047
1.01626
0.961505
0.940434
0.931699
0.926216
0.920627
0.914877
0.911315
0.910498
0.913416
0.923043
0.934731
0.945738
0.956984
0.971213
0.990641
0.989833
0.956334
0.937508
0.942691
0.970046
1.01296
1.0561
1.15962
1.33498
1.40431
1.38767
1.278
1.14841
1.03798
0.970856
0.943475
0.933348
0.92871
0.924314
0.918669
0.913631
0.911425
0.912484
0.917396
0.926465
0.936708
0.946166
0.955841
0.969632
0.990194
0.989278
0.95442
0.938373
0.944651
0.97263
1.00753
1.04271
1.11637
1.28764
1.38585
1.38638
1.30195
1.1725
1.06054
0.982638
0.947337
0.935281
0.931457
0.928698
0.924505
0.919064
0.914808
0.914098
0.917525
0.924883
0.93433
0.943036
0.949947
0.956655
0.968619
0.989637
0.988494
0.95285
0.940041
0.94712
0.974546
1.00053
1.02869
1.08459
1.23478
1.36152
1.37994
1.31954
1.19402
1.08186
0.996282
0.952378
0.937712
0.934319
0.933139
0.931387
0.92769
0.922605
0.919258
0.920526
0.926499
0.935476
0.943948
0.950198
0.954318
0.95844
0.968403
0.988939
0.987493
0.951671
0.942219
0.950839
0.975072
0.992934
1.01373
1.05633
1.17721
1.3278
1.3654
1.33459
1.21242
1.10035
1.01121
0.958866
0.939917
0.937346
0.937653
0.938878
0.938111
0.934721
0.930763
0.929109
0.932718
0.940765
0.94917
0.955155
0.957507
0.958569
0.9613
0.969885
0.988525
0.98626
0.950939
0.944735
0.95509
0.973751
0.984005
0.997961
1.0304
1.11895
1.28423
1.34836
1.33515
1.23127
1.11744
1.02589
0.965522
0.942349
0.939626
0.942021
0.946732
0.949803
0.950125
0.947842
0.946804
0.948026
0.9542
0.963392
0.970405
0.971707
0.967407
0.963956
0.96593
0.973309
0.99534
0.985978
0.984756
0.950911
0.947551
0.958898
0.970799
0.974634
0.980287
1.00513
1.07288
1.2355
1.32702
1.3313
1.24909
1.13241
1.03936
0.973656
0.944142
0.940964
0.945357
0.954191
0.96209
0.968107
0.970456
0.972126
0.976056
0.982883
0.99267
1.00199
1.00537
0.997252
0.982366
0.971916
0.971712
0.978621
0.974866
0.995298
0.986325
0.983066
0.951872
0.950477
0.96214
0.967616
0.96505
0.961753
0.980929
1.03305
1.17774
1.30147
1.32121
1.26529
1.14684
1.05177
0.98165
0.945533
0.941086
0.947164
0.960262
0.974185
0.987206
0.997829
1.00653
1.01942
1.03441
1.05536
1.07475
1.08401
1.0755
1.04485
1.00618
0.974267
0.982678
0.974259
0.976341
0.975474
0.980586
0.978631
0.995126
0.986782
0.981416
0.953376
0.953543
0.964777
0.964274
0.953842
0.942574
0.955946
0.99791
1.11923
1.26766
1.30542
1.27782
1.16007
1.06279
0.989961
0.946896
0.939552
0.947272
0.963893
0.984933
1.00621
1.02837
1.05101
1.08541
1.14135
1.20644
1.2772
1.31965
1.31612
1.25586
1.14368
1.00413
1.04856
0.987265
0.978845
0.980849
0.981206
0.983025
0.982835
0.994979
0.987723
0.979719
0.955013
0.957772
0.966984
0.960544
0.940592
0.924174
0.932235
0.966632
1.0639
1.22692
1.28871
1.27768
1.17796
1.07338
0.997068
0.948784
0.93586
0.945273
0.964662
0.992368
1.0235
1.06016
1.10768
1.18574
1.33788
1.57632
1.82367
2.0253
2.08858
1.99526
1.72749
1.13582
1.34052
1.01458
1.07688
0.996476
0.984539
0.988976
0.989827
0.986076
0.987523
0.994948
0.989503
0.977981
0.957088
0.962387
0.968228
0.954996
0.925878
0.906876
0.910768
0.93876
1.01533
1.18091
1.26962
1.27407
1.19601
1.08402
1.00494
0.951125
0.93139
0.940083
0.962992
0.995155
1.03658
1.08968
1.1746
1.33873
1.65689
2.20032
2.92133
3.56719
3.98362
4.06535
3.76458
1.83626
3.17602
1.22206
1.59216
1.03607
1.13465
1.01012
0.992817
1.00218
1.00184
0.989627
0.994228
0.995406
0.992798
0.976368
0.95989
0.966784
0.96846
0.94729
0.910892
0.890546
0.891401
0.914346
0.975543
1.13022
1.24554
1.26524
1.21533
1.09788
1.01263
0.9541
0.926091
0.933332
0.956712
0.994551
1.04243
1.11153
1.23911
1.5383
2.12322
3.01839
4.0721
5.02398
5.53823
5.69454
5.63912
4.459
5.53636
2.60989
4.16601
1.39058
2.07565
1.06732
1.22689
1.03313
1.00384
1.02056
1.0175
0.995258
1.00575
0.997542
0.998663
0.975351
0.963538
0.971456
0.968384
0.938367
0.896892
0.87577
0.873704
0.892971
0.941973
1.0773
1.21473
1.25237
1.22806
1.11352
1.02168
0.957796
0.92217
0.925277
0.946612
0.989878
1.04267
1.11862
1.2786
1.72176
2.67268
3.96961
5.25245
6.12699
6.52783
6.57598
6.5939
6.06292
6.65766
5.29176
5.9958
3.61911
4.94454
1.6727
2.9005
1.12132
1.38716
1.06855
1.01942
1.04667
1.03995
1.00823
1.02685
1.00169
1.0127
0.975327
0.968542
0.976861
0.968699
0.929774
0.885131
0.862929
0.857779
0.87395
0.913406
1.02617
1.17728
1.23814
1.23021
1.13634
1.03142
0.962783
0.92119
0.916093
0.935189
0.977412
1.03913
1.11781
1.2845
1.81705
3.13248
4.90208
6.38959
7.18163
7.31483
7.36248
7.38362
7.01384
7.59597
6.57339
7.10068
5.82453
6.50598
4.46014
5.57382
2.16497
3.80671
1.21286
1.65621
1.12478
1.04545
1.08568
1.07568
1.04069
1.06827
1.01077
1.05761
0.976116
0.974076
0.983077
0.969642
0.922194
0.875358
0.851761
0.843602
0.856934
0.88876
0.979237
1.13539
1.22172
1.22784
1.16067
1.04502
0.96963
0.92154
0.905945
0.922754
0.961234
1.02617
1.11216
1.27858
1.82792
3.37339
5.64026
7.32647
8.07309
8.20947
8.1347
8.33737
7.99253
8.6333
7.68557
8.23627
7.14763
7.8191
6.41485
7.19407
5.20584
6.26764
2.94181
4.66025
1.36838
2.11226
1.21632
1.09538
1.14776
1.13965
1.11326
1.15575
1.04601
1.17481
0.977178
0.979954
0.990284
0.971318
0.91623
0.867407
0.842091
0.831438
0.841623
0.867433
0.937755
1.09067
1.19973
1.2209
1.18258
1.06468
0.977469
0.923053
0.897477
0.909727
0.943549
1.00566
1.09656
1.25414
1.80181
3.40277
6.07267
7.89726
8.59821
8.84914
8.84538
8.92338
8.94705
9.44708
8.81597
9.26729
8.48588
9.10391
7.98241
8.75856
7.22592
8.17519
6.03587
7.23073
3.89162
5.66866
1.63622
2.90871
1.37856
1.19369
1.26114
1.26157
1.26933
1.34333
1.16218
1.45034
0.978486
0.98718
0.998501
0.973937
0.912004
0.861158
0.833965
0.821271
0.827724
0.849033
0.904451
1.04297
1.17125
1.21229
1.19485
1.0891
0.989213
0.926225
0.893782
0.897089
0.925097
0.983403
1.07082
1.20972
1.69636
3.33062
6.16285
8.17289
8.79659
9.06227
9.26322
9.67144
9.72837
10.152
9.7114
10.1412
9.61406
10.1049
9.46845
10.0689
9.089
9.8906
8.38255
9.47113
7.19331
8.60165
5.08085
7.0839
2.13731
4.1947
1.7155
1.4086
1.50921
1.55123
1.60057
1.72395
1.19294
2.04416
0.980074
0.995481
1.00688
0.977149
0.909335
0.856409
0.827303
0.812826
0.815322
0.832879
0.876715
0.993152
1.13651
1.20261
1.19898
1.12001
1.00439
0.933357
0.893423
0.885166
0.906618
0.958717
1.04051
1.16665
1.52308
3.06595
6.08147
8.23253
8.82661
9.04281
9.332
10.1688
11.3321
10.6065
11.3058
10.6286
11.1733
10.6188
11.1919
10.5982
11.25
10.4141
11.2006
9.89355
10.9942
8.83307
10.3645
6.81922
9.05605
3.18784
6.29637
2.52935
1.89519
2.21054
2.37097
2.70472
3.04765
2.62084
5.76219
0.982019
1.00481
1.01559
0.980798
0.907616
0.853005
0.821862
0.805752
0.804638
0.818742
0.853357
0.946516
1.09524
1.18798
1.19816
1.15071
1.02894
0.942913
0.894348
0.875501
0.890136
0.932319
1.00864
1.12439
1.37614
2.55449
5.76613
8.16885
8.77265
8.96347
9.30796
10.1864
11.3332
12.2924
12.195
11.7428
12.1338
11.7678
12.286
11.826
12.3813
11.9078
12.5141
11.8939
12.5904
11.6191
12.5974
10.8725
12.2886
9.21118
11.3931
5.44497
9.20289
4.59464
3.50875
4.19283
4.77124
6.76741
6.9314
11.7588
16.9136
0.984785
1.01512
1.02445
0.984621
0.906347
0.850338
0.817492
0.799869
0.795724
0.806705
0.833848
0.905122
1.04912
1.16486
1.19536
1.16948
1.05912
0.958802
0.897558
0.870687
0.876814
0.907746
0.977059
1.08027
1.26808
2.04947
4.98354
7.97204
8.64943
8.76384
9.04669
9.7668
10.7561
11.9464
11.3682
12.5341
12.2457
12.5847
12.6307
12.7795
12.9442
12.9707
13.2128
13.1606
13.505
13.3007
13.7673
13.295
13.978
12.9573
14.0124
11.873
13.6074
9.04525
12.288
8.68762
7.5669
8.44638
9.62257
16.4796
15.116
30.7774
29.625
0.993247
1.02763
1.03214
0.987605
0.905157
0.847734
0.813725
0.794972
0.788561
0.79675
0.817782
0.872459
1.00154
1.13286
1.18968
1.18096
1.09512
0.979255
0.906313
0.870162
0.865389
0.886961
0.94515
1.03667
1.18697
1.6621
3.8977
7.57987
8.45751
8.52859
8.60332
8.9652
9.24408
10.355
9.01935
11.5942
10.2235
12.3825
11.6095
12.9015
12.7485
13.2343
13.1462
13.5853
13.5055
14
13.9524
14.3587
14.4758
14.6517
14.9679
14.688
15.3018
14.2087
15.336
12.5992
14.7299
12.8205
13.7455
13.167
14.1791
22.821
18.1542
34.1741
33.5478
1.03196
1.0464
1.04117
0.987847
0.903249
0.845088
0.810161
0.790742
0.783022
0.788823
0.804877
0.847053
0.954347
1.09398
1.1784
1.18415
1.13252
1.01038
0.921533
0.871656
0.856599
0.870464
0.914068
0.995403
1.12079
1.41162
2.86422
6.73327
8.26198
8.29168
8.22987
8.34347
8.22403
7.0792
8.62466
7.089
10.1752
8.14071
11.5353
9.93403
12.9103
12.3943
13.3276
12.9613
13.7764
13.4677
14.3527
14.0553
14.9839
14.8107
15.5766
15.5616
15.9524
16.2163
15.9353
16.6017
15.1726
16.4719
15.5581
15.983
15.7772
16.0356
23.0304
18.3146
28.3494
30.8056
1.12501
1.05058
0.988148
0.900789
0.842186
0.80683
0.787079
0.778958
0.782664
0.794921
0.827182
0.911936
1.04978
1.15683
1.1831
1.15613
1.04663
0.944156
0.877354
0.853312
0.858517
0.888194
0.958974
1.06436
1.25715
2.08567
5.33507
8.00582
8.0881
7.97428
8.01775
7.89135
7.16774
6.0703
6.18589
6.65854
6.11882
7.85218
6.48527
9.73873
8.13973
12.3283
11.2767
12.9536
12.1691
13.5952
12.9539
14.4201
13.8894
15.3679
14.9399
16.2066
16.0346
16.9116
16.9534
17.2383
17.6498
16.9497
17.8375
17.2983
16.7348
17.3917
17.1886
21.7412
18.0694
20.4351
26.197
1.10665
0.990016
0.900225
0.840224
0.804206
0.784249
0.776219
0.778313
0.7875
0.812281
0.876748
1.00399
1.12562
1.1791
1.16999
1.08743
0.97311
0.892686
0.85376
0.850038
0.868605
0.925914
1.01496
1.15712
1.60837
3.82228
7.497
7.97704
7.82868
7.84965
7.91182
7.55958
6.53786
7.00903
5.48442
5.71161
5.75672
5.49735
6.79836
5.90866
8.77818
7.63881
11.0758
9.90249
12.1559
11.2829
13.2704
12.5856
14.4186
13.845
15.6693
15.2581
16.8787
16.7075
17.8407
17.9462
18.4086
18.8112
18.3796
19.1248
18.7184
17.2552
18.7449
18.5009
17.7341
20.5939
18.4432
18.1924
24.5178
1.02643
0.905804
0.841009
0.803382
0.782882
0.774866
0.775839
0.782624
0.801723
0.850226
0.960744
1.08819
1.16893
1.17436
1.12614
1.01182
0.917151
0.857938
0.845773
0.855008
0.895367
0.97241
1.08641
1.34097
2.60943
6.30177
7.84551
7.71501
7.7072
7.91425
7.93235
7.42954
6.18875
6.67581
5.03393
5.16706
5.37402
5.09337
6.53068
5.71434
8.67826
7.66526
10.4029
9.51866
11.8309
11.0754
13.2432
12.6552
14.8542
14.4782
16.5579
16.4438
18.1034
18.3221
19.2757
19.8424
19.8035
20.6813
19.7905
20.5745
20.0641
19.418
20.0597
18.3896
17.9118
18.2606
19.3543
20.1613
20.1831
19.1783
20.9509
18.5634
19.1482
19.3963
18.1341
24.556
0.955971
0.851233
0.805671
0.78325
0.774881
0.775087
0.780311
0.7956
0.83222
0.92328
1.04791
1.14646
1.17363
1.15043
1.05312
0.949006
0.870608
0.845612
0.847517
0.871989
0.937284
1.03156
1.19014
1.84874
4.60407
7.54553
7.60156
7.55983
7.87497
8.13857
7.944
6.78442
7.3459
5.60992
6.19925
4.59426
4.5899
5.18898
4.82251
6.49462
5.62628
9.37148
7.97426
10.4047
9.93539
12.1341
11.7045
14.1276
13.7674
16.3097
16.0796
18.5044
18.5237
20.5101
20.9907
21.921
21.9953
22.5183
21.1407
21.8869
23.5765
22.6543
21.0376
20.685
21.4026
21.7053
20.8677
19.0345
18.9877
20.0695
20.9661
20.979
19.9192
20.1166
21.8029
21.1235
19.2529
19.8765
23.5696
22.1888
23.1262
24.2147
0.915992
0.819885
0.787481
0.776746
0.775699
0.780333
0.793559
0.822038
0.893091
1.00884
1.11591
1.16944
1.16353
1.09383
0.987411
0.897246
0.848756
0.845442
0.857461
0.907814
0.987683
1.10077
1.43627
3.07492
6.76157
7.47923
7.4214
7.76849
8.17938
8.28656
7.81395
6.3073
6.96199
4.90189
5.56629
4.32548
4.13363
5.06645
4.64901
6.49266
5.54365
9.72473
7.97084
11.3894
10.8779
13.359
12.8698
15.7024
15.1382
18.2905
17.7781
21.0995
20.8317
22.897
23.236
23.4181
23.5122
24.4039
25.3001
23.9001
24.4263
22.5531
23.5373
25.6537
24.5873
22.2034
21.6573
22.5932
23.193
21.8578
19.7926
19.7812
20.8887
21.9524
21.9422
20.7587
20.6557
21.4705
20.0307
20.556
24.0917
28.5653
27.9935
22.1717
22.8853
0.89602
0.804824
0.783059
0.778701
0.782882
0.794335
0.817704
0.87264
0.974101
1.08299
1.15721
1.16685
1.12944
1.03063
0.930951
0.859995
0.846014
0.850779
0.884846
0.952386
1.04227
1.22381
2.06941
5.07074
7.24415
7.30315
7.58827
8.15007
8.47176
8.31467
7.07562
7.65409
5.55721
6.38214
4.19253
4.7133
4.17336
3.89022
4.9615
4.52891
6.3638
5.4485
9.67491
7.74059
12.1608
11.1446
14.3843
13.4708
17.0281
16.0682
20.2297
19.3667
23.4695
23.3244
23.0693
22.7101
24.8614
25.1817
25.3549
25.3807
26.6786
27.6443
26.0114
26.6389
24.3388
25.5783
28.0801
26.8399
23.7317
22.8983
24.1571
25.0515
23.0975
20.6492
20.6432
21.8646
23.1764
23.1563
21.7367
21.2049
21.7851
20.8358
21.2281
24.4604
32.1347
31.0037
22.3418
23.3642
0.887189
0.801881
0.786225
0.78898
0.799661
0.81755
0.861827
0.948036
1.05146
1.13354
1.16627
1.15131
1.07408
0.972247
0.887019
0.85069
0.849966
0.869627
0.924939
1.00032
1.11325
1.52428
3.38787
6.68644
7.1694
7.37557
8.0377
8.49774
8.60787
8.11923
6.4355
7.20084
4.51125
5.52033
3.73703
3.84328
4.06613
3.76957
4.88242
4.43223
6.25343
5.4146
9.49028
7.642
12.4054
11.124
14.9401
13.7376
18.2749
17.0488
22.2834
21.7637
21.2161
20.6004
25.2622
25.0038
24.6222
24.1381
27.1196
27.4313
27.5343
27.4506
29.2809
28.4992
30.4014
29.2024
26.4784
27.9483
30.8715
29.418
25.6434
24.4775
26.1001
27.2669
24.6637
21.6206
21.5788
23.0554
24.7211
24.6683
22.9023
21.7091
22.1868
21.6788
21.9304
25.9591
37.3815
34.0795
22.9238
24.5307
0.883678
0.80557
0.798149
0.809063
0.821752
0.858879
0.932546
1.02574
1.10845
1.16105
1.16237
1.11393
1.02047
0.926001
0.866018
0.852781
0.864085
0.906643
0.969382
1.05103
1.25542
2.22525
5.24329
6.94939
7.15598
7.77196
8.45358
8.76799
8.60327
7.23135
7.82721
5.40704
6.41835
3.60179
4.28448
3.54826
3.45961
4.01941
3.71724
4.85324
4.39151
6.23619
5.42112
9.53052
7.81267
12.5013
11.1345
15.7241
14.4269
19.9983
18.5845
23.576
22.9476
22.2644
21.5127
27.1783
26.7429
26.18
25.5284
29.6972
29.9115
29.8688
29.5733
32.2782
31.3684
33.5506
32.0938
28.9423
30.648
34.0761
32.3711
27.9081
26.4249
28.3896
29.8006
26.5913
22.7418
22.6219
24.5192
26.6188
26.5134
24.3093
22.2762
22.8251
22.6017
22.7231
28.4401
38.8035
38.0689
23.9308
26.2149
0.883544
0.818039
0.81934
0.834781
0.861431
0.92682
1.01018
1.08783
1.14835
1.16999
1.14698
1.07197
0.977066
0.901273
0.864579
0.864591
0.897065
0.949094
1.01243
1.12661
1.59093
3.54478
6.45431
6.92404
7.42239
8.31068
8.79459
8.86022
8.27199
6.33302
7.24516
4.00892
5.19842
3.27504
3.42543
3.47516
3.31654
4.00745
3.70469
4.85532
4.38372
6.45163
5.59915
10.3288
8.54211
13.2042
11.881
17.2017
15.8986
21.6858
20.8708
19.3496
20.1185
24.8189
24.0756
23.3078
22.5132
29.0599
28.3825
27.5989
26.7584
32.4752
32.4957
32.1752
31.5649
35.6739
34.561
37.013
35.1549
31.733
33.7249
37.6877
35.7447
30.4775
28.7145
30.9791
32.6479
28.858
24.064
23.8336
26.2966
28.8498
28.6854
26.0029
23.0257
23.7634
23.6811
23.6854
31.3901
34.772
38.3639
25.2614
28.3805
0.889622
0.839821
0.849901
0.874096
0.928776
1.00573
1.07979
1.14238
1.17553
1.16986
1.12027
1.03486
0.94979
0.895887
0.871937
0.894647
0.939486
0.990337
1.0641
1.28235
2.32104
5.19522
6.66293
7.08333
8.0214
8.74198
8.99943
8.75742
7.12166
7.75944
4.85971
6.13355
3.28605
3.72947
3.17503
3.15593
3.45975
3.27884
4.05747
3.74366
4.99074
4.46465
6.95985
6.00497
11.6745
9.69274
14.7048
13.3529
18.694
18.0328
17.4779
22.4469
21.6208
20.0644
20.8308
25.8963
25.0318
24.1702
23.305
30.7373
29.7772
28.7607
27.7395
35.2769
34.981
34.2548
33.2385
39.3903
37.9158
40.6504
38.1682
34.8969
37.2236
41.632
39.533
33.3475
31.2909
33.8479
35.8539
31.4059
25.6581
25.2979
28.4061
31.3618
31.1626
28.0368
23.9902
24.9765
24.9844
24.8568
33.3022
33.4689
35.7479
26.8833
30.6928
0.905637
0.873907
0.899505
0.941958
1.01029
1.08137
1.14516
1.18705
1.19417
1.16386
1.09322
1.0071
0.938576
0.897216
0.896845
0.937986
0.981962
1.0339
1.14105
1.63845
3.58809
6.17094
6.75711
7.59177
8.58261
9.04063
9.01579
8.18178
5.84139
6.95927
3.50585
4.45566
3.07468
3.16695
3.15681
3.08903
3.49159
3.28917
4.26204
3.90173
5.34258
4.739
7.98591
6.97412
13.3444
11.7133
16.2269
14.9219
19.3407
18.641
18.6932
18.0597
23.1213
22.3027
20.773
21.5214
26.7443
25.7872
24.87
23.9803
32.0571
30.8115
29.582
28.4234
37.9613
37.1558
35.918
34.4423
43.3067
41.1753
44.2265
41.0919
38.4806
41.1414
45.789
43.6652
36.5509
34.1204
37.0158
39.4561
34.201
27.5872
27.046
30.8589
34.1336
33.9441
30.4246
25.1801
26.4153
26.5179
26.2742
34.435
35.3016
39.1417
28.7856
32.7557
0.941262
0.934658
0.97904
1.03408
1.10007
1.16527
1.21684
1.24175
1.2265
1.16664
1.07976
0.995642
0.938053
0.911745
0.941124
0.981959
1.02407
1.08517
1.30838
2.37806
5.07684
6.37623
7.1174
8.30801
9.00077
9.15687
8.70092
6.58651
7.30866
3.98764
5.35093
3.05772
3.30375
3.03321
3.00962
3.20015
3.08536
3.62305
3.38872
4.68102
4.18162
6.1575
5.35216
10.2118
9.15123
16.3773
15.714
17.5557
17.0825
17.0999
20.0609
19.3739
19.5822
19.1326
23.7376
22.9312
21.4302
22.1615
27.3621
26.3785
25.4581
24.5791
32.8797
31.3672
30.0075
28.8188
40.2844
38.8714
37.0283
35.0442
47.2682
44.3601
47.7114
43.7288
42.4718
45.4161
50.106
48.0494
40.127
37.2268
40.5299
43.4502
37.2801
29.7799
29.0014
33.5927
37.2023
36.9038
32.9371
26.6005
28.1127
28.3333
27.958
36.8418
33.5815
40.9346
30.7326
35.0754
1.02273
1.04349
1.09874
1.167
1.23358
1.2955
1.34044
1.34223
1.29236
1.1987
1.09007
1.00255
0.950965
0.954969
0.988935
1.02484
1.06943
1.16495
1.68353
3.63384
5.88867
6.67813
7.89431
8.86534
9.21929
9.01442
7.7186
4.7789
6.17577
3.12206
3.606
2.94471
2.95898
3.04154
2.98288
3.33802
3.15526
3.83096
3.56191
5.5826
4.70204
7.99654
6.73562
14.6269
13.3062
21.009
21.0068
22.3975
18.6653
18.2073
20.9069
20.9308
20.7526
20.1334
20.9561
20.8663
24.2598
23.4775
22.1131
22.7535
27.7692
26.8149
25.9259
25.0745
33.1343
31.4565
30.044
28.8727
42.2219
40.0711
37.5611
35.0451
51.2423
47.4964
51.4015
46.1552
46.8123
49.9522
54.5849
52.6098
44.0891
40.6953
44.4543
47.7935
40.6989
32.0713
31.222
36.2178
40.3185
39.4888
35.3634
28.2744
29.8597
30.4202
29.8719
39.3978
22.2538
41.9123
32.7991
37.7284
1.20189
1.24802
1.32656
1.40778
1.46534
1.49723
1.50081
1.46301
1.37836
1.26142
1.13784
1.03912
0.998699
1.01458
1.03636
1.07017
1.11861
1.34596
2.45978
5.02014
6.20428
7.37184
8.62349
9.20612
9.21125
8.36768
5.45383
6.24375
3.3039
4.12309
2.86967
2.96331
2.92615
2.87867
3.12233
3.00351
3.515
3.29277
4.1343
3.77087
7.4319
5.74491
11.5581
9.49347
21.5184
19.6008
24.8112
24.472
28.9023
28.3664
20.8585
20.9236
24.8251
24.6229
21.5921
21.2034
22.9423
23.3315
24.584
23.8925
22.9486
23.337
27.8777
26.9843
26.1503
25.3484
32.7984
30.9611
29.5416
28.4479
43.9015
40.9502
37.7102
34.5563
55.5452
50.7139
55.6097
48.8523
51.4229
54.6882
59.3697
57.3785
48.4453
44.4897
48.5205
52.4594
43.9016
34.5487
33.6059
38.6216
42.7867
41.8404
37.8821
29.9244
31.8376
32.5738
31.6976
42.2976
12.7347
39.976
35.2937
40.5377
1.59406
1.68959
1.76926
1.82662
1.79534
1.73797
1.66886
1.58432
1.47163
1.34228
1.21898
1.12422
1.08596
1.07636
1.08501
1.1151
1.20741
1.76206
3.77667
5.68012
6.83132
8.25915
9.11109
9.31063
8.81524
6.72621
3.61006
4.79771
2.83259
3.05607
2.8129
2.78621
2.95335
2.86553
3.23633
3.08252
3.6972
3.43881
4.65482
4.0408
10.7133
7.70458
17.0779
14.0204
27.7433
26.8764
26.6647
29.0997
29.1876
32.291
31.7286
23.7336
24.2331
28.8747
28.4838
22.7562
22.7843
26.037
26.7498
24.8848
24.5184
24.471
24.3955
27.5677
26.7974
26.0758
25.4214
31.8865
29.8403
28.4498
27.5519
45.9254
42.2307
38.2017
34.292
60.5613
54.754
60.7465
52.7458
56.2296
59.5576
64.8529
62.4354
52.5675
47.6102
51.377
56.4215
46.2319
36.9553
35.8517
41.1024
45.2609
44.5235
40.2152
32.1174
34.2046
34.8346
34.594
45.5913
7.17232
35.0405
37.6451
43.938
2.34901
2.5278
2.49677
2.40872
2.21136
2.00773
1.83331
1.68906
1.55401
1.42638
1.31821
1.24242
1.18669
1.13731
1.13051
1.17374
1.41859
2.6389
5.00607
6.29441
7.7906
8.9078
9.31984
9.10565
7.6489
3.6943
2.87386
3.28657
2.70945
2.72727
2.80533
2.74508
3.0201
2.88906
3.33911
3.16528
3.91148
3.58092
5.59965
4.45244
15.4488
10.9352
23.5056
19.7583
30.9449
29.8726
29.8907
31.6633
32.6238
32.5781
35.5786
34.8492
27.3943
28.0168
32.5525
32.3241
24.829
25.3789
29.9359
30.7139
25.9339
26.0913
27.3344
26.607
26.9491
26.488
26.1247
25.9227
31.0589
28.7609
27.5301
27.0726
49.7242
45.7092
41.049
36.3407
66.6849
60.4612
67.7983
58.9643
60.1109
63.6597
70.6487
67.1874
55.3146
50.0043
54.4774
59.4903
49.3218
39.3669
38.7924
43.7978
48.9356
48.8188
43.4871
34.5209
36.1307
38.513
37.2062
48.3214
4.65501
30.2264
40.7934
47.4242
3.38116
3.48414
3.28529
3.02406
2.64863
2.28598
1.98589
1.77284
1.61819
1.50443
1.41868
1.34932
1.274
1.19403
1.18091
1.28676
1.92404
4.03896
5.7129
7.268
8.6146
9.25927
9.25973
8.35076
4.98538
2.57325
2.76702
2.75864
2.63951
2.6776
2.63855
2.82362
2.74071
3.07509
2.93811
3.4393
3.23087
4.18482
3.7361
7.24282
5.11193
20.5516
15.18
28.6561
24.9008
33.9468
32.8692
31.9866
33.5414
36.2831
36.0714
38.6697
37.7154
31.3785
31.9465
36.2872
36.1521
28.1572
29.0578
34.0625
34.7907
28.3969
29.2362
31.262
30.2213
26.9579
26.9932
27.2583
27.7456
32.3529
29.5226
28.245
27.9605
56.2877
52.6142
47.9384
42.8585
73.8054
67.9714
76.385
67.7091
64.0203
68.9456
79.8353
74.3897
59.6481
54.6329
61.6262
65.577
55.2618
43.6411
43.5126
49.3469
56.1255
58.8414
50.4665
36.5775
39.4621
41.9387
40.6636
50.4645
3.52564
26.8446
43.7081
50.6426
4.28531
4.22127
3.8938
3.52382
3.02826
2.54411
2.13581
1.85064
1.67827
1.57965
1.51192
1.44069
1.34517
1.23264
1.26783
1.56585
2.99079
5.11057
6.73119
8.2394
9.10382
9.3068
8.77746
6.37151
2.86117
2.54442
2.45939
2.48738
2.56595
2.67362
2.61184
2.85253
2.75084
3.11469
2.96987
3.5445
3.29656
4.54465
3.89858
9.80668
6.13478
23.7204
19.2224
31.8175
29.4525
27.4263
36.5303
35.1071
33.534
35.4681
39.6391
39.2876
41.5168
40.3509
35.381
35.8618
39.7837
39.7195
32.261
33.2166
38.0297
38.708
32.0665
33.244
35.4491
34.3716
28.1514
28.9737
30.0572
30.9801
38.0079
34.0467
31.8749
31.5398
66.2589
63.734
60.4466
56.1998
84.7398
78.3462
89.0572
79.8826
72.3953
79.9485
96.2939
87.8621
70.5166
64.4374
74.8143
79.3938
67.2108
50.5423
49.2607
61.1229
72.3918
74.5133
61.3979
40.8365
41.7317
48.0984
46.3401
52.7584
3.77325
29.8284
46.9665
54.1094
4.80348
4.64691
4.27117
3.86123
3.30836
2.75827
2.28453
1.94308
1.75389
1.66429
1.6023
1.51488
1.38782
1.29463
1.4332
2.24835
4.46011
6.20346
7.81218
8.88155
9.28154
9.02326
7.41009
3.41647
2.33297
2.48935
2.40938
2.38032
2.54289
2.6729
2.6039
2.86652
2.76164
3.15355
2.99245
3.6377
3.3592
5.02172
4.0609
13.0385
7.58692
24.508
20.9297
32.4628
30.5401
26.873
29.0535
38.9423
37.2968
34.633
36.841
42.8106
42.2991
44.1907
42.7268
39.1677
39.5547
43.1553
43.1653
36.4224
37.2896
41.9739
42.5604
36.728
37.9178
39.9039
38.9211
31.8113
32.9739
34.2609
35.5191
51.4661
47.0055
43.5958
41.6532
80.4246
80.465
79.6498
77.6228
107.054
93.034
117.416
97.221
89.2831
101.299
149.502
120.32
84.4834
79.4855
92.3437
97.7923
85.4267
60.4522
58.7592
74.5956
86.844
86.6188
73.4244
43.2253
45.6652
55.1831
49.6453
55.6033
8.13737
44.0377
51.0486
57.985
5.03092
4.8576
4.46895
4.04917
3.47971
2.90632
2.40539
2.04084
1.84583
1.75817
1.68335
1.57679
1.41112
1.42377
1.85009
3.64702
5.6726
7.37047
8.60374
9.18526
9.14254
8.07333
4.42748
2.38041
2.26497
2.34068
2.21819
2.4673
2.38258
2.53078
2.67369
2.59732
2.87906
2.76735
3.18606
3.01594
3.71139
3.4112
5.6044
4.24464
15.9517
9.32445
26.9498
25.2576
23.4355
21.1386
32.9427
30.7496
28.6265
40.9771
38.98
35.3643
37.8728
45.9102
45.1855
46.7703
44.9653
42.8615
43.1204
46.5279
46.7127
40.7003
41.4401
46.4709
46.8149
43.4947
44.3407
45.4314
44.8006
41.1401
41.1428
41.698
42.5831
75.1697
72.3266
69.05
65.3521
102.019
104.758
107.346
108.074
174.318
129.32
183.167
147.352
116.853
144.586
172.111
172.659
114.693
101.375
135.445
148.429
104.633
70.9625
66.5594
85.5653
105.79
105.57
83.5391
48.7735
49.4429
60.2632
57.0093
62.5972
22.1899
65.8014
55.4015
61.693
5.08934
4.92606
4.53097
4.10999
3.54971
2.98441
2.48496
2.12592
1.93936
1.84558
1.75768
1.61465
1.47557
1.68721
2.88455
5.16102
6.94498
8.2847
9.02769
9.16533
8.50845
5.62257
2.55496
2.15238
2.29424
2.21928
2.19956
2.45178
2.35858
2.51874
2.67418
2.59054
2.89088
2.7738
3.20831
3.03162
3.76466
3.44731
6.22289
4.43345
16.9894
10.9487
26.5651
24.5061
23.281
19.7451
21.5948
32.9054
30.6318
28.1903
42.8128
40.3977
35.5016
38.4528
49.2143
48.0894
49.4271
47.112
46.9059
46.9613
50.1829
50.5886
45.7629
46.2607
51.66
51.6561
54.543
54.219
52.8438
53.2312
61.4414
58.1928
56.1826
55.4922
108.612
109.288
109.085
106.73
171.683
165.957
166.977
164.94
429.263
193.223
436.502
215.269
174.24
188.364
437.595
435.285
171.646
139.999
178.657
166.979
143.523
80.3559
75.2775
104.799
144.921
146.392
102.73
51.0986
52.9133
73.1544
60.9802
70.1375
58.6818
71.2727
55.8825
60.7826
5.0184
4.86648
4.49832
4.09436
3.55569
3.01327
2.53451
2.19864
2.02209
1.92332
1.8098
1.64137
1.67407
2.40915
4.67263
6.54956
7.94882
8.83073
9.13727
8.7557
6.69507
2.9039
2.10291
2.07704
2.26804
2.19622
2.15798
2.43078
2.33835
2.50497
2.67345
2.58312
2.9022
2.78084
3.22834
3.04688
3.81403
3.46955
6.50215
4.5821
16.9478
11.4244
25.8377
23.8313
22.7246
19.5697
20.8532
32.4313
30.0911
27.2933
44.4417
41.4869
35.3484
38.7353
52.774
51.1756
52.1836
49.3028
51.3895
51.2878
54.1167
54.8387
52.1527
51.9857
57.8449
57.2724
73.6536
71.0092
64.1732
66.245
100.662
91.052
82.9569
80.527
161.615
161.683
160.835
161.266
391.148
397.093
383.57
385.791
842.182
417.156
855.813
422.591
453.954
452.603
846.073
850.956
460.406
188.007
459.456
440.401
192.277
98.0304
101.703
147.917
196.935
203.462
146.019
55.5525
53.1325
81.2205
71.592
63.1322
78.8158
63.7396
53.5803
51.4921
4.86394
4.71655
4.38525
4.01506
3.52295
3.01544
2.57075
2.26328
2.09789
1.98461
1.83447
1.73269
2.15133
4.10597
6.16099
7.62461
8.60303
9.04975
8.88666
7.41912
3.47092
2.10027
1.98313
2.01006
2.12236
2.24225
2.15614
2.41989
2.31752
2.49739
2.67349
2.57886
2.91367
2.78583
3.25282
3.06448
3.86556
3.49765
6.48751
4.63621
16.1013
11.1835
24.9278
22.9476
21.9776
18.9047
20.2151
31.4946
29.0763
26.1503
45.9996
42.3988
34.7532
38.8145
56.6325
54.4538
55.083
51.5531
56.3872
56.0412
58.3592
59.5963
60.8303
59.6257
65.7739
64.0739
107.365
99.3157
82.1548
86.9006
158.035
150.746
123.795
122.687
373.192
376.268
375.763
384.368
819.004
810.327
803.846
806.435
2480.53
798.402
2550.74