/*--------------------------------*- C++ -*----------------------------------*\
  =========                 |
  \\      /  F ield         | OpenFOAM: The Open Source CFD Toolbox
   \\    /   O peration     | Website:  https://openfoam.org
    \\  /    A nd           | Version:  dev
     \\/     M anipulation  |
\*---------------------------------------------------------------------------*/
FoamFile
{
    version     2.0;
    format      ascii;
    class       volScalarField;
    location    "2500";
    object      p_rgh;
}
// * * * * * * * * * * * * * * * * * * * * * * * * * * * * * * * * * * * * * //

dimensions      [1 -1 -2 0 0 0 0];

internalField   nonuniform List<scalar> 
9848
(
0.00402463
0.00534269
0.00465268
0.00543597
0.00790592
0.00420116
0.00455764
0.00926365
0.00798081
0.00344986
0.00460973
0.0099005
0.0105791
0.00696071
0.00275155
0.00419116
0.00906633
0.0119031
0.0102539
0.00603168
0.0021308
0.00334251
0.00863815
0.0126701
0.0127778
0.00921261
0.00499473
0.00149188
0.00337077
0.00807252
0.0122772
0.0140835
0.0121547
0.00814908
0.00429094
0.00112682
0.00306721
0.00718897
0.0111106
0.0146601
0.014263
0.0110306
0.00698473
0.00359978
0.000797091
0.00271021
0.00641648
0.0103824
0.0149668
0.0155848
0.0135362
0.00983618
0.00618961
0.00316718
0.000496278
0.00233724
0.00547467
0.00930092
0.0145574
0.0164499
0.0153542
0.0121862
0.00833528
0.00550604
0.00275959
0.000177171
0.0021823
0.00495987
0.00909277
0.0137999
0.0166809
0.0170114
0.0148678
0.0109401
0.00758839
0.0047893
0.00239006
-0.000123617
0.00179642
0.00483491
0.00783454
0.0125901
0.0165258
0.0179205
0.0167774
0.0137279
0.00992691
0.00692655
0.00444277
0.00204023
-0.000453169
0.0016197
0.00454146
0.00756477
0.0122381
0.0161656
0.0182255
0.0181221
0.0158258
0.0123725
0.00927196
0.00638216
0.00401187
0.00175656
-0.000663858
0.00148325
0.0042102
0.00702005
0.0108894
0.0149249
0.0182675
0.0190003
0.0178288
0.0145841
0.0113998
0.00845998
0.00598789
0.00374276
0.00148009
-0.000829176
0.00128125
0.00361841
0.0066481
0.010054
0.0143621
0.0182842
0.0196694
0.0190733
0.0167719
0.0133494
0.0104159
0.00787229
0.00552127
0.00338135
0.00122047
-0.000963128
0.00101857
0.00352881
0.00631924
0.00959508
0.0136037
0.0175825
0.0198737
0.0201817
0.0185304
0.0156453
0.0122062
0.00979738
0.00736844
0.00529343
0.00319937
0.00101673
-0.00111086
0.000774725
0.00316911
0.00591306
0.00892684
0.0125534
0.0169568
0.0197467
0.0208448
0.0199209
0.0174509
0.0143337
0.0116723
0.00934922
0.00700882
0.00501926
0.00292601
0.00091211
-0.00121415
0.000667222
0.00296242
0.00558886
0.00794307
0.0111043
0.0161167
0.0194272
0.021036
0.0210209
0.019173
0.016425
0.0135635
0.0111158
0.00888367
0.00667447
0.00468411
0.00279539
0.000805312
-0.00131818
0.000473344
0.00249282
0.00488712
0.00765839
0.0113823
0.0156734
0.0189932
0.021061
0.0216942
0.0206252
0.0181735
0.015304
0.0126678
0.0106338
0.00845536
0.00653648
0.00455861
0.00267747
0.000695175
-0.00135011
0.000311646
0.00224609
0.00452419
0.00758577
0.0107666
0.0147544
0.0185534
0.0207725
0.0223341
0.0217514
0.0198159
0.0174612
0.0146971
0.0123849
0.010244
0.00827408
0.00633301
0.00444075
0.00258205
0.000636041
-0.00136444
8.1512e-05
0.00210884
0.00431879
0.00700904
0.0102988
0.0131676
0.0178974
0.0207213
0.022521
0.0226314
0.0212647
0.0191245
0.0164131
0.0139304
0.0117852
0.00990738
0.00803242
0.00611284
0.0043396
0.00250016
0.00060349
-0.00139206
-9.6177e-06
0.00184409
0.00412737
0.00621275
0.00963191
0.0129145
0.0175926
0.02034
0.0223569
0.0231051
0.0223141
0.0205758
0.0178391
0.0158599
0.0136722
0.0115075
0.00970317
0.00785223
0.00604688
0.00420169
0.00243847
0.000528402
-0.00135593
-0.000233437
0.0017104
0.00369327
0.00635771
0.00878258
0.0124678
0.0166311
0.0199927
0.0221508
0.0235322
0.0232385
0.0220495
0.0195528
0.0171526
0.0151276
0.013081
0.0113186
0.00945997
0.00766624
0.00594654
0.00416547
0.00238538
0.000539861
-0.00135765
-0.000285043
0.001436
0.00363875
0.00592764
0.00844275
0.0127236
0.0153538
0.019433
0.0218791
0.0237585
0.0240755
0.0230641
0.0207865
0.0188191
0.0166557
0.0147228
0.0127504
0.0111572
0.00930002
0.00754618
0.00582002
0.00414792
0.00240538
0.000596177
-0.00130249
-0.000410796
0.00123375
0.00341719
0.00559564
0.00874746
0.0117707
0.0148991
0.0191957
0.0214574
0.0236159
0.0243169
0.023989
0.0224792
0.0204655
0.0185307
0.0161579
0.0144663
0.0127387
0.0109143
0.0091977
0.00742838
0.00573251
0.00409258
0.00238119
0.000621066
-0.0012465
-0.000481352
0.00103326
0.00321161
0.00559224
0.00797086
0.0112086
0.0150906
0.0185472
0.021296
0.0233157
0.024611
0.0246655
0.0235204
0.0218614
0.0198433
0.0179686
0.0160212
0.0143197
0.0125756
0.0108199
0.00907198
0.00740964
0.00566636
0.00403104
0.00239912
0.000664576
-0.00116946
-0.000650608
0.0010534
0.00293088
0.00498927
0.00748402
0.0108632
0.0145761
0.0179089
0.0208049
0.0231346
0.0245109
0.0249746
0.0243474
0.0231568
0.0211431
0.0193426
0.017606
0.0157215
0.0141172
0.0124073
0.0106236
0.00892882
0.007274
0.00563053
0.00400061
0.00236251
0.000671414
-0.00113638
-0.000703206
0.000991455
0.00283165
0.00517352
0.00774615
0.0102703
0.0142441
0.0172938
0.0202074
0.0227808
0.0244767
0.0252191
0.025237
0.0241037
0.0220972
0.0207661
0.0190544
0.0173636
0.0156983
0.0139208
0.0122118
0.0105207
0.00883274
0.00719954
0.00559487
0.0040177
0.00240467
0.000731168
-0.00106535
-0.000779183
0.000740347
0.00274277
0.00474419
0.00731799
0.0100862
0.0138212
0.016324
0.0197139
0.0223907
0.024211
0.0253723
0.0255209
0.0250186
0.0235899
0.0219971
0.020209
0.0187903
0.0171928
0.0154696
0.0137976
0.012096
0.0103978
0.00874394
0.00714579
0.00559908
0.00404598
0.00246649
0.000795772
-0.000988896
-0.000758541
0.000647403
0.00252434
0.00451142
0.00719497
0.00994592
0.0127142
0.0158814
0.0193573
0.0217899
0.0239622
0.0254533
0.0258589
0.0255921
0.0244776
0.0229211
0.0217086
0.0201812
0.0186593
0.0169814
0.0153472
0.0136548
0.0119491
0.0102867
0.00866362
0.00712907
0.00561233
0.00410722
0.00253996
0.000880048
-0.000899419
-0.000832107
0.000534815
0.00214701
0.00435502
0.006964
0.0093533
0.0123755
0.0157176
0.0187668
0.0213315
0.0235034
0.0251871
0.02605
0.0260472
0.0253026
0.0242989
0.0229025
0.0214412
0.020013
0.0184531
0.0168729
0.0152
0.0135002
0.0118132
0.0101763
0.00862306
0.00712397
0.00566805
0.0041942
0.00264421
0.000989924
-0.000802751
-0.000744063
0.000587056
0.00197962
0.00435191
0.00664829
0.00938757
0.0122415
0.0150058
0.0178034
0.0208127
0.0230828
0.0248036
0.0259255
0.0262184
0.0258803
0.0250384
0.0239579
0.0226995
0.0211955
0.0198677
0.0182215
0.016685
0.0150634
0.013345
0.0116724
0.0101033
0.0085908
0.00716643
0.00576768
0.00433011
0.0027912
0.00111688
-0.000713238
-0.000811062
0.000257964
0.00215431
0.00432125
0.00627856
0.00879234
0.0116276
0.0144185
0.017233
0.0203152
0.0223436
0.0242858
0.0256645
0.0262032
0.0262562
0.0256007
0.0247627
0.0238792
0.0229539
0.0212365
0.0197646
0.0181248
0.016586
0.0149003
0.0131625
0.0115572
0.0100366
0.00860849
0.00727058
0.00593855
0.00453155
0.00296988
0.00126436
-0.00156372
-0.000568958
-0.000771992
0.000286823
0.00187205
0.00392871
0.00604492
0.00849071
0.0114082
0.0139009
0.0167348
0.0195045
0.0218141
0.0238575
0.0251787
0.0261581
0.0263858
0.0261213
0.0254774
0.0246452
0.023994
0.0231857
0.0213006
0.0196687
0.0181037
0.0164696
0.0147266
0.0130075
0.0114547
0.0100319
0.00871071
0.00747628
0.00620693
0.00476538
0.00294203
0.000449226
0.00143075
-0.00154964
-0.000514996
-0.000699482
0.000191807
0.00196028
0.00403958
0.0061158
0.00818869
0.011021
0.0131272
0.0158668
0.0186962
0.0211311
0.023226
0.0248237
0.0259001
0.0263353
0.0263965
0.0258198
0.0252665
0.0243727
0.0240289
0.02325
0.021438
0.0195979
0.0179908
0.0163072
0.0145762
0.0129137
0.0114911
0.0102082
0.00901214
0.00784604
0.00655948
0.00406217
0.00501468
0.00243383
0.00386702
0.00338576
0.000485877
0.00146013
-0.00149601
-0.000438616
-0.000722509
-6.47263e-05
0.0014953
0.00365747
0.00586641
0.00792658
0.010372
0.0127774
0.0154102
0.0180891
0.0202382
0.0225313
0.0241944
0.0255345
0.0262513
0.0264557
0.0263903
0.0258834
0.0252881
0.0245556
0.0240428
0.0231652
0.0213921
0.0196288
0.0178896
0.0162628
0.0147054
0.0133291
0.0121599
0.0110276
0.00982761
0.00847596
0.0060771
0.00709208
0.00489965
0.00244384
0.00435177
0.0034527
0.000576401
0.00155931
-0.00144468
-0.000357295
-0.000735337
-9.53841e-05
0.00130766
0.00333365
0.00558658
0.007443
0.00964187
0.0123502
0.0143761
0.0171668
0.0195568
0.0218309
0.0235543
0.0249938
0.0260591
0.0263663
0.0264559
0.0265006
0.0258831
0.0252949
0.0249172
0.024471
0.0234087
0.0215845
0.0197156
0.0182471
0.0173149
0.016689
0.0162285
0.0155372
0.014195
0.0119759
0.00823507
0.00960114
0.00603137
0.00721587
0.00537994
0.00255138
0.00451317
0.00358487
0.000685867
0.00168848
-0.00140629
-0.000278688
-0.000697459
-0.000126918
0.00162553
0.00359968
0.00558746
0.00713351
0.00912367
0.0116553
0.0138396
0.0164076
0.0187723
0.020984
0.0228309
0.0243931
0.0255544
0.0261782
0.0264995
0.0263558
0.0264946
0.0260801
0.0255175
0.0251454
0.0247061
0.0236924
0.0220916
0.0209901
0.0214643
0.0236569
0.0263311
0.0282324
0.0278498
0.0245727
0.0119672
0.0174845
0.00858296
0.0105605
0.0065139
0.00781167
0.00565642
0.00270017
0.00469635
0.00376282
0.000804172
0.00183802
-0.00138784
-0.000207888
-0.000650535
-0.000167783
0.00173544
0.00317869
0.00520938
0.00688988
0.00861831
0.0108695
0.0131886
0.0153863
0.0179034
0.0201179
0.0219005
0.0236838
0.0248506
0.0258627
0.0262734
0.0265766
0.0265572
0.0264911
0.0262449
0.0258291
0.0257645
0.025185
0.0248094
0.025346
0.028632
0.0360193
0.0469533
0.0565007
0.061645
0.0595364
0.0302678
0.0557245
0.014642
0.0246485
0.00953489
0.012624
0.00694973
0.00854182
0.00593852
0.00288119
0.00492397
0.00397766
0.000925782
0.00200641
-0.00139646
-0.000157111
-0.000600219
-0.000158975
0.00131776
0.00310148
0.00495662
0.00650737
0.00823593
0.0102062
0.0124758
0.014532
0.0170687
0.0191348
0.02116
0.022906
0.0243024
0.0252943
0.0258136
0.0263251
0.0264755
0.0266892
0.026685
0.026459
0.0262287
0.0263891
0.0269748
0.0304667
0.0393704
0.0542706
0.0727416
0.0924258
0.106589
0.111861
0.0794131
0.110744
0.0464787
0.0739441
0.0198913
0.037407
0.0109784
0.0161326
0.00742405
0.0094591
0.00627866
0.003096
0.00519993
0.00424107
0.00103786
0.00218856
-0.00146702
-0.000157721
-0.000549054
-0.000119543
0.00122894
0.00311541
0.00442584
0.00608172
0.00769507
0.00952183
0.0115903
0.013799
0.0160648
0.0182392
0.0202874
0.0219288
0.0235174
0.0246574
0.0254601
0.0259432
0.0264673
0.0265811
0.0267887
0.0268958
0.0266784
0.0268714
0.0281775
0.0345768
0.0516667
0.0781484
0.107151
0.131647
0.152327
0.167128
0.137057
0.171795
0.103727
0.135498
0.0648146
0.0958002
0.0285272
0.054222
0.0131455
0.0217461
0.00801862
0.0107615
0.00669558
0.00335056
0.00554169
0.00456972
0.00112802
0.00238867
-0.00169454
-0.000258503
-0.000499433
-8.48053e-05
0.00114278
0.00285191
0.00403612
0.00545407
0.00711461
0.00880499
0.0107273
0.012877
0.0150811
0.0172878
0.0192576
0.0211375
0.0227161
0.0238311
0.0248025
0.0254897
0.0260011
0.026483
0.0267318
0.0270041
0.0271044
0.0271615
0.0286784
0.0364246
0.060942
0.10258
0.146241
0.182698
0.206189
0.222739
0.199683
0.237768
0.169151
0.204056
0.129615
0.166037
0.0859406
0.121707
0.0421057
0.0742711
0.0166161
0.0307127
0.00881985
0.0128063
0.00723666
0.00366726
0.00598356
0.00499807
0.00118148
0.00261185
-0.00221439
-0.000540703
-0.000455758
-6.70965e-05
0.00103408
0.00257363
0.003696
0.0050441
0.00649525
0.00807764
0.00977836
0.0118839
0.0140169
0.0163053
0.0183248
0.0201787
0.0217636
0.023114
0.0240605
0.0249041
0.0255985
0.0259782
0.026479
0.0268637
0.0271836
0.0274156
0.0287261
0.0366574
0.0640418
0.119195
0.183049
0.234836
0.273152
0.296715
0.266269
0.306228
0.240142
0.275675
0.204524
0.243729
0.160983
0.203082
0.112022
0.154476
0.0607781
0.100517
0.0224452
0.0456266
0.0100376
0.0164106
0.00803383
0.00405263
0.00660785
0.00555101
0.00117523
0.00287147
-0.00328567
-0.0011767
-0.000427024
-7.21161e-05
0.00089632
0.00222425
0.00328331
0.0045441
0.00582401
0.00730217
0.00897855
0.0109577
0.0129844
0.0152406
0.0173
0.0190978
0.0207234
0.0222506
0.0233956
0.0242241
0.0248959
0.0254962
0.0259829
0.0265056
0.0269583
0.0273237
0.028383
0.0356546
0.0633384
0.123139
0.201786
0.257273
0.29133
0.316346
0.325238
0.335799
0.311142
0.33399
0.281886
0.317491
0.246392
0.287693
0.200341
0.247631
0.146607
0.19689
0.0869631
0.137019
0.0329564
0.0707647
0.0122584
0.0237194
0.00945111
0.00455888
0.00760124
0.00637653
0.00105902
0.0032381
-0.00536047
-0.00225038
-0.000397356
-9.21825e-05
0.000723582
0.00177713
0.00285201
0.00400631
0.00512507
0.00654703
0.00816545
0.00988442
0.0118502
0.0140894
0.0161791
0.018035
0.0198279
0.0212793
0.022516
0.0234493
0.0242858
0.0249177
0.0254613
0.0259616
0.0265068
0.0269747
0.0277642
0.0329631
0.0595487
0.120746
0.199671
0.248899
0.280144
0.304208
0.324742
0.340838
0.339353
0.338189
0.345276
0.322388
0.341054
0.292747
0.325881
0.248176
0.296419
0.19252
0.248359
0.12568
0.187023
0.0536054
0.112478
0.0171515
0.0402324
0.0127095
0.005346
0.00976999
0.00802107
0.000681238
0.00391126
-0.00947575
-0.00326053
-0.000362202
-0.000120742
0.000552176
0.00149873
0.00250829
0.00346682
0.00450773
0.00587652
0.00733652
0.00906042
0.0108657
0.0128652
0.0150408
0.0169891
0.0187654
0.0202682
0.0215767
0.0226353
0.0234812
0.0243298
0.0248269
0.0253613
0.0258801
0.0264163
0.0270231
0.0301272
0.0507814
0.11178
0.186776
0.229396
0.255633
0.270321
0.275182
0.307568
0.258832
0.342736
0.331814
0.347738
0.343803
0.342502
0.348449
0.328733
0.343177
0.299037
0.33115
0.247925
0.300653
0.180593
0.246951
0.0957565
0.172637
0.0298452
0.0779523
0.0220737
0.00687179
0.0164558
0.013062
0.0018354
0.00658941
-0.0112053
0.00185
-0.00031183
-0.000151341
0.00037992
0.00122273
0.00198058
0.00291362
0.00388109
0.00519775
0.00651439
0.00814163
0.00982193
0.011753
0.0138983
0.0158352
0.0176762
0.019253
0.0205837
0.0217083
0.0226445
0.0234449
0.0241543
0.0246708
0.0251905
0.0256934
0.0262078
0.0278644
0.0409487
0.0931482
0.165308
0.199692
0.211482
0.197409
0.168066
0.207137
0.134423
0.254164
0.19705
0.330884
0.302273
0.343583
0.328452
0.347936
0.342005
0.343798
0.346909
0.333066
0.344923
0.301636
0.334643
0.245493
0.302914
0.16259
0.243123
0.0629757
0.149548
0.0506207
0.0130945
0.0393318
0.0338817
0.012263
0.0227646
0.0152543
0.0390174
-0.00022726
-0.000173488
0.00021232
0.000906031
0.00157738
0.00244643
0.00330663
0.00447782
0.00568631
0.0072032
0.00877268
0.0105661
0.0126724
0.0146882
0.0164811
0.0181302
0.0195206
0.0207527
0.021709
0.0225234
0.0234029
0.0239247
0.0244237
0.0249025
0.0253336
0.0261299
0.0330816
0.0712578
0.141565
0.172795
0.171762
0.12729
0.0804838
0.0941229
0.0543564
0.135504
0.0831062
0.193248
0.133691
0.296607
0.248956
0.324889
0.290679
0.339752
0.320759
0.346363
0.337826
0.347082
0.34712
0.337303
0.350721
0.304362
0.341093
0.238741
0.30556
0.13479
0.232251
0.118329
0.0440628
0.103069
0.102122
0.0609138
0.0874242
0.0603312
0.144273
-9.40362e-05
-0.000168076
6.95671e-05
0.000590472
0.00119154
0.00190189
0.00275915
0.00378953
0.00494399
0.00626815
0.00779094
0.00953623
0.0114837
0.0134406
0.0153067
0.0169583
0.0184448
0.0197065
0.0207979
0.021571
0.0223978
0.0231161
0.0236283
0.0240598
0.0244351
0.0247743
0.0278828
0.0517529
0.115274
0.150128
0.145533
0.0901247
0.052488
0.0349442
0.0529429
0.037633
0.0820159
0.0523941
0.132418
0.0853347
0.243657
0.189441
0.285316
0.239896
0.317149
0.282071
0.337618
0.315941
0.350489
0.341408
0.356819
0.35778
0.345775
0.364622
0.305522
0.350984
0.22377
0.304066
0.213316
0.135919
0.205251
0.213944
0.179221
0.211052
0.0834544
0.236451
-8.18022e-05
-3.51543e-05
0.000316926
0.000828614
0.00145274
0.00225925
0.00315405
0.00419713
0.00538185
0.00678999
0.00842648
0.0102381
0.0121876
0.0140541
0.0157672
0.0172837
0.0186078
0.0197639
0.0206716
0.0214072
0.0222822
0.0227899
0.0232238
0.0235349
0.023739
0.0248837
0.0370292
0.0867151
0.130926
0.128755
0.0788719
0.046101
0.0314003
0.0274513
0.0267801
0.0380869
0.0313496
0.0558544
0.0408017
0.0958295
0.0647686
0.188679
0.138333
0.240487
0.196248
0.284741
0.250727
0.321946
0.297143
0.350693
0.33595
0.368325
0.363332
0.374347
0.382722
0.355987
0.385737
0.301041
0.360366
0.297053
0.251385
0.296756
0.308858
0.283726
0.306142
0.0399631
0.227705
-4.09325e-05
0.000115943
0.000520584
0.00105154
0.00172808
0.00252081
0.00345208
0.00455601
0.00580776
0.00738897
0.0090604
0.0109038
0.0127543
0.0145318
0.0160914
0.0174621
0.0186824
0.0196941
0.0204903
0.0212398
0.0219623
0.0223652
0.0226596
0.0227726
0.0230039
0.0280933
0.0605999
0.11094
0.118371
0.0761363
0.0470687
0.0346718
0.0259055
0.0292659
0.0256966
0.0235959
0.0332946
0.0288734
0.04656
0.0369826
0.0833898
0.0585201
0.154475
0.116249
0.21462
0.178764
0.269091
0.239588
0.315243
0.29147
0.35226
0.335727
0.381557
0.374941
0.400643
0.40612
0.397908
0.421285
0.363672
0.409479
0.365817
0.335455
0.370081
0.374501
0.3503
0.318855
0.357476
0.0263516
0.207994
1.2809e-05
0.000252592
0.000692842
0.00124915
0.00194796
0.00277103
0.00376833
0.00489007
0.0063607
0.00789149
0.00962316
0.0114541
0.0132522
0.0148498
0.0162852
0.0175378
0.0186463
0.0195448
0.0202304
0.0210355
0.0215313
0.0217963
0.0218841
0.0217162
0.0234557
0.0405334
0.0873029
0.10914
0.080509
0.0527128
0.0404965
0.0308007
0.0238761
0.0242706
0.0239535
0.0211272
0.0314325
0.0274647
0.0433833
0.0352749
0.0813312
0.0563725
0.144622
0.112071
0.207786
0.177358
0.265901
0.240236
0.316555
0.296467
0.363765
0.349037
0.405236
0.398598
0.435454
0.441208
0.442823
0.467018
0.420163
0.459859
0.439419
0.397698
0.425221
0.382298
0.368778
0.386904
0.401939
0.42963
0.428737
0.404961
0.329027
0.392468
0.390397
0.367552
0.0274771
0.224796
6.23654e-05
0.000366986
0.000839298
0.00143532
0.00216261
0.00303063
0.00404238
0.00538065
0.00677783
0.00836968
0.0101439
0.0119084
0.0135568
0.015041
0.0163374
0.0175279
0.0185187
0.0193034
0.0199338
0.0206613
0.0209773
0.0210516
0.0208521
0.0211375
0.0282566
0.0621886
0.0966791
0.0846844
0.0593806
0.0468144
0.0373131
0.0215979
0.0268187
0.0197939
0.0205144
0.022828
0.0193057
0.030376
0.0265113
0.0416742
0.0342328
0.0818865
0.0543811
0.148441
0.116883
0.215033
0.18754
0.275158
0.248671
0.330703
0.307073
0.386327
0.367104
0.438838
0.427495
0.481436
0.472216
0.470701
0.476646
0.492241
0.511307
0.503147
0.46943
0.451268
0.477074
0.489231
0.455616
0.408734
0.411319
0.431428
0.460073
0.458537
0.433107
0.379123
0.314721
0.355681
0.41151
0.4053
0.0589475
0.321381
0.274342
0.208856
0.000103935
0.000462081
0.000964397
0.0015946
0.00233458
0.00324918
0.00441887
0.00568049
0.00715338
0.00882675
0.0105368
0.0122133
0.0137376
0.0151007
0.0163241
0.0174146
0.0183094
0.0189798
0.0196604
0.0201463
0.0202638
0.0200753
0.0196766
0.0220158
0.0408413
0.0789867
0.0840941
0.0659764
0.0531407
0.0441916
0.0291951
0.0174226
0.0193044
0.016661
0.015974
0.0219025
0.0181461
0.0295978
0.0256961
0.0398276
0.0332224
0.0771378
0.0495521
0.15521
0.117388
0.220001
0.187756
0.278686
0.246808
0.341588
0.31116
0.408643
0.384783
0.467042
0.461258
0.454899
0.446951
0.514965
0.515871
0.493569
0.490319
0.506779
0.521085
0.536494
0.53087
0.500097
0.482714
0.50902
0.520602
0.487523
0.434284
0.433896
0.461146
0.490535
0.492079
0.461205
0.389978
0.365092
0.430224
0.420439
0.22425
0.0508537
0.146758
0.328723
0.285164
0.000137899
0.000539611
0.0010768
0.00170771
0.00250934
0.00349536
0.00464489
0.00597481
0.00753069
0.00916314
0.0108274
0.012373
0.0138009
0.0150592
0.0162349
0.0172291
0.0180249
0.0186019
0.0193013
0.0194963
0.0193673
0.0188327
0.0191975
0.027238
0.0577222
0.0807128
0.0702407
0.059061
0.0507338
0.0377997
0.0159633
0.0223132
0.0115693
0.0133815
0.0146576
0.0119761
0.0210803
0.0171841
0.0289443
0.0250257
0.0376402
0.0324335
0.0649992
0.0447647
0.149374
0.105498
0.211007
0.170903
0.276768
0.237715
0.355999
0.321157
0.439049
0.429306
0.419304
0.40661
0.485947
0.480621
0.474708
0.468088
0.538615
0.538523
0.514326
0.511366
0.537517
0.549845
0.561199
0.55738
0.53287
0.516236
0.543142
0.552744
0.521609
0.460049
0.456741
0.492211
0.524802
0.526099
0.490614
0.402756
0.375883
0.449817
0.437334
0.234465
0.0564692
0.160993
0.340508
0.298637
0.000164926
0.000604222
0.0011476
0.00183078
0.00265399
0.00368984
0.00485868
0.00625769
0.00778125
0.0094095
0.0109545
0.0124178
0.013739
0.0149609
0.0160624
0.0169833
0.0176678
0.0182119
0.018734
0.0186927
0.0182741
0.0178365
0.0203957
0.0383055
0.0697419
0.0708466
0.0635264
0.0567172
0.0461862
0.0257157
0.009698
0.0132065
0.00734794
0.00715373
0.013406
0.00994287
0.0202617
0.0162308
0.0284074
0.0243825
0.0366593
0.0317322
0.0560582
0.0430881
0.127155
0.0843732
0.194168
0.150486
0.280673
0.235534
0.39315
0.376006
0.357848
0.335694
0.460675
0.451949
0.441685
0.429284
0.507673
0.503281
0.498202
0.491943
0.562718
0.537162
0.562887
0.534981
0.5676
0.577375
0.586235
0.583048
0.566289
0.551405
0.57763
0.583961
0.557313
0.487211
0.481183
0.525199
0.560743
0.561759
0.522079
0.417808
0.390616
0.471481
0.456797
0.246584
0.0473678
0.166305
0.356066
0.314139
0.000186018
0.000641793
0.00122217
0.00191362
0.00281456
0.00381078
0.0050417
0.0064469
0.00798778
0.0094915
0.0109617
0.0123507
0.0136089
0.0147994
0.0158406
0.0166768
0.0172455
0.0178312
0.0180227
0.0177241
0.0169681
0.0174047
0.0252854
0.0513806
0.0694493
0.0655745
0.0616059
0.0537549
0.0364657
0.00949118
0.016849
0.00264337
0.00547797
0.00539724
0.00297664
0.0123567
0.00869499
0.0194429
0.0152546
0.0277605
0.0236524
0.0362153
0.0311674
0.0536461
0.0426599
0.109343
0.0748819
0.188834
0.144325
0.307143
0.255016
0.414653
0.397163
0.376744
0.352799
0.484245
0.474857
0.463436
0.449695
0.531908
0.527498
0.521558
0.513579
0.587967
0.561997
0.588267
0.559705
0.596011
0.603705
0.611884
0.608634
0.598417
0.586769
0.610579
0.613059
0.593209
0.516557
0.508088
0.560018
0.597009
0.597967
0.55567
0.436054
0.408692
0.495999
0.479461
0.258987
0.0279183
0.159481
0.373841
0.331804
0.000197476
0.000674736
0.00126298
0.00200289
0.00285011
0.00389902
0.00514944
0.00654821
0.00799854
0.00944287
0.0108575
0.0121754
0.0134347
0.0145909
0.0155745
0.0163132
0.0167943
0.0173092
0.0171935
0.0165982
0.0161799
0.01872
0.034621
0.0615754
0.0662766
0.0644604
0.0600498
0.0465758
0.0214571
0.0017733
0.00682983
-0.000966245
-0.0012917
0.00421622
0.00119122
0.0113027
0.0076285
0.0182733
0.0142278
0.026475
0.0222801
0.0358438
0.0303729
0.0534952
0.0427538
0.104844
0.0733357
0.201719
0.153312
0.342576
0.313607
0.255629
0.285969
0.433528
0.4147
0.393102
0.368787
0.503352
0.490697
0.476049
0.459596
0.555205
0.548351
0.537917
0.524159
0.613329
0.586371
0.611781
0.581115
0.622708
0.629403
0.636817
0.6342
0.62796
0.620417
0.640577
0.639853
0.627428
0.548302
0.53778
0.595874
0.631804
0.633119
0.590656
0.457673
0.429471
0.523719
0.505519
0.264466
0.028973
0.140909
0.394087
0.346159
0.000203091
0.000682908
0.00129342
0.00198168
0.0028529
0.00391344
0.00514599
0.00648393
0.00787232
0.00927543
0.01066
0.0119646
0.0132227
0.0143516
0.0152731
0.0158915
0.0163854
0.016635
0.0162514
0.0154572
0.0159328
0.023193
0.0460455
0.0645582
0.0658669
0.0647102
0.0554231
0.034187
0.00318016
0.0112126
-0.00458115
-0.00199145
-0.00243699
-0.00426418
0.0031982
0.000168961
0.0102127
0.00653727
0.0165225
0.0127258
0.0254389
0.0207281
0.0357096
0.0298773
0.0556119
0.0444255
0.111174
0.0770165
0.227811
0.19848
0.159564
0.34584
0.316709
0.256535
0.287031
0.441321
0.42098
0.398294
0.373215
0.508553
0.492192
0.474789
0.456334
0.571919
0.557574
0.539742
0.520146
0.635717
0.605346
0.628468
0.593687
0.648156
0.654424
0.658015
0.658355
0.654634
0.6508
0.667173
0.664732
0.658348
0.582098
0.570058
0.631238
0.663419
0.665473
0.62594
0.482263
0.452409
0.554435
0.534531
0.256117
0.0356851
0.129179
0.415043
0.351856
0.000196596
0.000673276
0.00124256
0.00191907
0.00278054
0.00380057
0.00497481
0.00625397
0.00760779
0.00900154
0.0103767
0.0117249
0.0129921
0.0140904
0.0149406
0.015418
0.015948
0.0158599
0.0151995
0.0148818
0.0173968
0.0317182
0.0562654
0.0662976
0.0674281
0.0625846
0.0458563
0.0168915
-0.00464609
0.000899021
-0.00686085
-0.00699695
-0.00327894
-0.00540612
0.00210576
-0.000751085
0.0090101
0.00536471
0.014717
0.0106674
0.0245083
0.0194138
0.0371184
0.0309842
0.0590777
0.050882
0.112009
0.0767845
0.226985
0.198282
0.159158
0.133481
0.338117
0.308239
0.246303
0.277481
0.436677
0.415397
0.392065
0.366295
0.499559
0.478648
0.458352
0.438446
0.574839
0.55239
0.526101
0.498681
0.650602
0.614983
0.636405
0.592695
0.672349
0.677528
0.671531
0.67839
0.67877
0.677313
0.69061
0.687771
0.685134
0.616992
0.604294
0.664555
0.690751
0.693954
0.660149
0.509195
0.477325
0.587381
0.565643
0.240451
0.0249813
0.107447
0.431792
0.348575
0.00017682
0.000612812
0.00114511
0.00177137
0.00255892
0.00349728
0.00460331
0.00584943
0.0072121
0.00864005
0.0100646
0.0114691
0.0127455
0.0138268
0.0145225
0.015007
0.0153672
0.0150309
0.0143637
0.0149485
0.0219782
0.0430715
0.0632147
0.0688626
0.0678165
0.0558721
0.0310556
-0.00212249
0.00605063
-0.00875495
-0.00689021
-0.00767626
-0.0087404
-0.00405551
-0.0060495
0.000912012
-0.00176843
0.00722264
0.00402999
0.0130887
0.0085755
0.0247692
0.0185676
0.0447898
0.0383891
0.0759035
0.0764599
0.112838
0.092112
0.0814171
0.215846
0.186553
0.143062
0.122539
0.316766
0.286107
0.223857
0.254879
0.418202
0.396492
0.372447
0.345834
0.472068
0.447745
0.425962
0.40556
0.564209
0.530119
0.494337
0.459399
0.657743
0.611374
0.631774
0.577971
0.694244
0.696428
0.678406
0.690818
0.700576
0.700139
0.71122
0.708245
0.707809
0.651832
0.639124
0.694563
0.713818
0.718183
0.691919
0.537714
0.501786
0.621548
0.598042
0.22268
0.018244
0.0806092
0.44311
0.342244
0.000133704
0.000515417
0.000959532
0.00145622
0.00210555
0.00294301
0.00401273
0.00528227
0.006708
0.00821721
0.00974531
0.0112102
0.0125209
0.0135096
0.0141405
0.0146706
0.0147382
0.0141782
0.0140875
0.0166882
0.0305245
0.0542248
0.0684261
0.0709644
0.0639119
0.0436179
0.012054
-0.00792992
-0.00338341
-0.00990541
-0.00966111
-0.00816068
-0.00927328
-0.00498909
-0.00671362
-0.000406141
-0.00292359
0.00493359
0.00210824
0.0123836
0.00664247
0.0298413
0.0204852
0.0721453
0.063969
0.116662
0.122095
0.149064
0.107298
0.0955167
0.111852
0.108256
0.194337
0.167208
0.126706
0.11568
0.280143
0.24945
0.190652
0.219227
0.384774
0.3623
0.337318
0.309841
0.428056
0.401376
0.378384
0.357003
0.537591
0.493333
0.448757
0.407286
0.652992
0.596252
0.618288
0.552198
0.711969
0.70776
0.674952
0.697125
0.719728
0.71977
0.729092
0.724993
0.727048
0.68509
0.673406
0.720553
0.733089
0.738273
0.72006
0.567757
0.52374
0.655899
0.631491
0.198318
0.0132931
0.0552994
0.450079
0.330366
6.89011e-05
0.000347324
0.000594165
0.000856378
0.00133406
0.00210465
0.00320224
0.00456602
0.00612914
0.00778426
0.00945174
0.0110031
0.0123013
0.0132361
0.0137926
0.0143198
0.0141175
0.0137179
0.0145977
0.0217985
0.0429503
0.0640437
0.0723059
0.0698723
0.0543032
0.0258696
-0.00554808
0.000831504
-0.00994644
-0.00838071
-0.0101711
-0.0103869
-0.0086961
-0.00957985
-0.00612019
-0.00755317
-0.00235531
-0.00422396
0.00265463
-0.000248904
0.0155075
0.00582827
0.0486572
0.0309016
0.143518
0.12681
0.17033
0.171282
0.257436
0.255466
0.108976
0.107509
0.16308
0.152545
0.165048
0.143242
0.12526
0.12682
0.230268
0.202121
0.154738
0.176446
0.335394
0.312214
0.286608
0.259019
0.371511
0.341879
0.317081
0.294677
0.502144
0.449165
0.397143
0.349229
0.641902
0.574164
0.601529
0.523566
0.722757
0.714237
0.665574
0.695149
0.73565
0.736756
0.744162
0.735634
0.743235
0.715741
0.706168
0.742274
0.749038
0.754681
0.744351
0.596782
0.541728
0.689728
0.66406
0.167523
0.012181
0.0394853
0.454034
0.313083
-1.86353e-05
2.29289e-05
-8.1473e-05
-0.000132207
0.00018458
0.000957986
0.00218225
0.00374705
0.00553867
0.00742069
0.00925327
0.0108711
0.012157
0.0129658
0.0135946
0.0139121
0.0135628
0.013821
0.0171582
0.0317463
0.0559952
0.0715089
0.0735753
0.0630679
0.0386147
0.00504572
-0.00802795
-0.00492055
-0.0103042
-0.00959558
-0.0103558
-0.0104873
-0.00939629
-0.00998673
-0.00735516
-0.00857415
-0.00471109
-0.00608396
0.00042085
-0.0027719
0.0287761
0.00857968
0.0963096
0.0605246
0.249159
0.238783
0.239245
0.246766
0.255968
0.339052
0.335125
0.1314
0.141409
0.233629
0.217871
0.138961
0.129656
0.148351
0.163589
0.176261
0.156042
0.134576
0.141798
0.272591
0.249469
0.224742
0.199784
0.308077
0.274721
0.248035
0.225034
0.468172
0.409662
0.350878
0.29601
0.629049
0.554478
0.587531
0.502432
0.729046
0.717046
0.661699
0.692461
0.746974
0.750816
0.755468
0.742657
0.75655
0.74296
0.736293
0.760183
0.762027
0.767999
0.764382
0.622925
0.558406
0.721499
0.695453
0.130278
0.0111465
0.032773
0.453455
0.288749
-0.000146087
-0.000523662
-0.00111835
-0.00150771
-0.00128166
-0.000394316
0.00106092
0.002924
0.00503662
0.00718927
0.00918353
0.0108547
0.0120411
0.0127933
0.0135064
0.0135324
0.0135248
0.0149499
0.0234214
0.0461915
0.0672791
0.0748938
0.0696263
0.0499326
0.0178332
-0.00405842
-0.00874709
-0.00702795
-0.0102699
-0.00970935
-0.0106385
-0.0105608
-0.0102403
-0.0105349
-0.00895542
-0.00969478
-0.0073707
-0.00832717
-0.0011592
-0.00525313
0.0622347
0.0199509
0.185055
0.121587
0.326295
0.308518
0.328054
0.36041
0.328153
0.337197
0.414986
0.409571
0.180712
0.200161
0.314171
0.296525
0.133321
0.136821
0.201754
0.226589
0.135652
0.131144
0.140747
0.133972
0.203809
0.183275
0.163659
0.14706
0.248778
0.210991
0.182386
0.159924
0.446127
0.384736
0.321424
0.260494
0.625216
0.542207
0.584833
0.491373
0.733863
0.716871
0.658515
0.691164
0.753112
0.761866
0.761365
0.745786
0.766967
0.766298
0.763335
0.774084
0.771849
0.777265
0.779478
0.649436
0.570468
0.75278
0.726339
0.0989158
0.00610564
0.0270859
0.447398
0.258603
-0.000346381
-0.00129382
-0.00229167
-0.00301047
-0.00276114
-0.0016843
5.55092e-05
0.00225329
0.00470835
0.00713215
0.0092626
0.0109053
0.0120059
0.012766
0.0133481
0.0133461
0.0140287
0.0186763
0.0359015
0.060586
0.0743672
0.0737663
0.0590456
0.0309588
0.00194937
-0.00620794
-0.00755353
-0.00435158
-0.00877032
-0.0102422
-0.00961389
-0.0110151
-0.0107049
-0.0111735
-0.0111731
-0.0110132
-0.0109272
-0.0099799
-0.01081
-0.000572566
-0.00775529
0.120642
0.0457321
0.300589
0.211443
0.39909
0.382868
0.380883
0.411398
0.408592
0.415462
0.479468
0.471392
0.251727
0.275864