/*--------------------------------*- C++ -*----------------------------------*\
  =========                 |
  \\      /  F ield         | OpenFOAM: The Open Source CFD Toolbox
   \\    /   O peration     | Website:  https://openfoam.org
    \\  /    A nd           | Version:  dev
     \\/     M anipulation  |
\*---------------------------------------------------------------------------*/
FoamFile
{
    version     2.0;
    format      ascii;
    class       surfaceScalarField;
    location    "2500";
    object      phi;
}
// * * * * * * * * * * * * * * * * * * * * * * * * * * * * * * * * * * * * * //

dimensions      [1 0 -1 0 0 0 0];

internalField   nonuniform List<scalar> 
19527
(
1.47694e-07
1.04826e-07
1.28028e-07
2.64352e-07
4.21183e-07
9.59992e-08
1.04469e-07
3.67816e-07
4.14142e-07
2.71399e-07
6.17382e-07
8.16131e-08
8.62113e-08
4.46498e-07
3.81476e-07
4.00484e-07
6.35063e-07
2.53745e-07
7.75221e-07
6.97906e-08
7.27546e-08
5.11342e-07
3.31501e-07
4.96522e-07
6.33222e-07
4.02356e-07
8.03982e-07
2.24985e-07
9.15471e-07
6.16214e-08
6.14646e-08
5.71806e-07
2.77438e-07
5.65428e-07
6.07151e-07
5.226e-07
8.31168e-07
3.75246e-07
9.42243e-07
1.98244e-07
1.04419e-06
5.53493e-08
5.3074e-08
6.30208e-07
2.31954e-07
6.17322e-07
5.58189e-07
6.1443e-07
8.40323e-07
5.13431e-07
9.80254e-07
3.37274e-07
1.06581e-06
1.76675e-07
1.16247e-06
5.00826e-08
4.79762e-08
6.88097e-07
1.97867e-07
6.64332e-07
4.93274e-07
6.8227e-07
8.23582e-07
6.31193e-07
1.01713e-06
4.7651e-07
1.10242e-06
3.00668e-07
1.18062e-06
1.58527e-07
1.27186e-06
4.52136e-08
4.4534e-08
7.46032e-07
1.74759e-07
7.11236e-07
4.25584e-07
7.32051e-07
7.83366e-07
7.22496e-07
1.03932e-06
6.09061e-07
1.14931e-06
4.29639e-07
1.21181e-06
2.69476e-07
1.28718e-06
1.43215e-07
1.37196e-06
4.07062e-08
4.2092e-08
8.03648e-07
1.59443e-07
7.61379e-07
3.64488e-07
7.72293e-07
7.24514e-07
7.90924e-07
1.03813e-06
7.23701e-07
1.19664e-06
5.61753e-07
1.25644e-06
3.85096e-07
1.31366e-06
2.43026e-07
1.38676e-06
1.28437e-07
1.46338e-06
3.63705e-08
4.00359e-08
8.61556e-07
1.48177e-07
8.14932e-07
3.1753e-07
8.08289e-07
6.55208e-07
8.41678e-07
1.01175e-06
8.17316e-07
1.23377e-06
6.86556e-07
1.31289e-06
5.05314e-07
1.3523e-06
3.46475e-07
1.41131e-06
2.18501e-07
1.47671e-06
1.15131e-07
1.54601e-06
3.2149e-08
3.82035e-08
9.18229e-07
1.40633e-07
8.69171e-07
2.86557e-07
8.45946e-07
5.84031e-07
8.79557e-07
9.64178e-07
8.89258e-07
1.25171e-06
7.99429e-07
1.37319e-06
6.26267e-07
1.40632e-06
4.51302e-07
1.44599e-06
3.11791e-07
1.49975e-06
1.95464e-07
1.55898e-06
1.02188e-07
1.62009e-06
2.83169e-08
3.64658e-08
9.73406e-07
1.34835e-07
9.24059e-07
2.6592e-07
8.89911e-07
5.18355e-07
9.11576e-07
9.01955e-07
9.41779e-07
1.24495e-06
8.95991e-07
1.42674e-06
7.45893e-07
1.47236e-06
5.60262e-07
1.49339e-06
4.03961e-07
1.53307e-06
2.78516e-07
1.58089e-06
1.7358e-07
1.63243e-06
8.98748e-08
1.6863e-06
2.44949e-08
3.51522e-08
1.02671e-06
1.2897e-07
9.79332e-07
2.50477e-07
9.39535e-07
4.63118e-07
9.44984e-07
8.32207e-07
9.81341e-07
1.21559e-06
9.71134e-07
1.46449e-06
8.58259e-07
1.54455e-06
6.73715e-07
1.55429e-06
4.99376e-07
1.57686e-06
3.602e-07
1.61195e-06
2.47499e-07
1.6537e-06
1.52353e-07
1.69839e-06
7.77462e-08
1.74499e-06
2.072e-08
3.36488e-08
1.07877e-06
1.22148e-07
1.03353e-06
2.37872e-07
9.91993e-07
4.21843e-07
9.80835e-07
7.63172e-07
1.014e-06
1.16981e-06
1.02714e-06
1.48156e-06
9.54036e-07
1.61437e-06
7.88385e-07
1.62753e-06
6.00497e-07
1.63191e-06
4.4436e-07
1.65292e-06
3.19247e-07
1.68355e-06
2.17671e-07
1.71842e-06
1.3239e-07
1.75619e-06
6.65262e-08
1.79607e-06
1.73047e-08
3.16279e-08
1.12907e-06
1.17056e-07
1.08388e-06
2.2876e-07
1.04268e-06
3.96075e-07
1.01777e-06
7.00345e-07
1.04362e-06
1.11357e-06
1.07022e-06
1.47704e-06
1.03164e-06
1.67395e-06
8.94421e-07
1.70992e-06
7.06034e-07
1.69954e-06
5.32838e-07
1.70402e-06
3.93279e-07
1.72266e-06
2.80173e-07
1.74718e-06
1.88942e-07
1.77569e-06
1.12993e-07
1.80728e-06
5.53006e-08
1.84019e-06
1.391e-08
2.9702e-08
1.17657e-06
1.13359e-07
1.13278e-06
2.19761e-07
1.0929e-06
3.78225e-07
1.0605e-06
6.44124e-07
1.07393e-06
1.05239e-06
1.10475e-06
1.45369e-06
1.09357e-06
1.71716e-06
9.88449e-07
1.79477e-06
8.09552e-07
1.77988e-06
6.2573e-07
1.76634e-06
4.70562e-07
1.7714e-06
3.44556e-07
1.78513e-06
2.42247e-07
1.80359e-06
1.61065e-07
1.82623e-06
9.41002e-08
1.8506e-06
4.49282e-08
1.87739e-06
1.07035e-08
2.83379e-08
1.2216e-06
1.10122e-07
1.17989e-06
2.10498e-07
1.14204e-06
3.6061e-07
1.11049e-06
5.96713e-07
1.10782e-06
9.91148e-07
1.1351e-06
1.41659e-06
1.14181e-06
1.74063e-06
1.07006e-06
1.87472e-06
9.08506e-07
1.87084e-06
7.18635e-07
1.84115e-06
5.50904e-07
1.83066e-06
4.11313e-07
1.83196e-06
2.97769e-07
1.83996e-06
2.05935e-07
1.85265e-06
1.34683e-07
1.86874e-06
7.59937e-08
1.88745e-06
3.48986e-08
1.90793e-06
7.73767e-09
2.69484e-08
1.26477e-06
1.05702e-07
1.22603e-06
1.98904e-07
1.19144e-06
3.41837e-07
1.16078e-06
5.63869e-07
1.14326e-06
9.34801e-07
1.16421e-06
1.372e-06
1.17962e-06
1.74482e-06
1.1376e-06
1.9433e-06
1.00137e-06
1.96803e-06
8.11313e-07
1.92841e-06
6.31374e-07
1.89997e-06
4.8158e-07
1.88794e-06
3.55348e-07
1.88523e-06
2.52434e-07
1.88745e-06
1.71176e-07
1.8948e-06
1.08655e-07
1.90461e-06
5.88688e-08
1.91733e-06
2.55198e-08
1.93196e-06
4.96121e-09
2.51078e-08
1.30541e-06
9.96959e-08
1.27083e-06
1.87316e-07
1.23761e-06
3.26291e-07
1.20703e-06
5.43996e-07
1.18057e-06
8.84672e-07
1.19329e-06
1.3245e-06
1.2116e-06
1.73282e-06
1.19156e-06
1.99663e-06
1.0843e-06
2.06613e-06
9.03276e-07
2.02724e-06
7.12505e-07
1.98141e-06
5.49909e-07
1.95459e-06
4.14941e-07
1.94016e-06
3.00534e-07
1.93148e-06
2.08459e-07
1.92889e-06
1.37104e-07
1.92951e-06
8.38005e-08
1.93386e-06
4.23737e-08
1.94095e-06
1.65791e-08
1.95034e-06
2.06944e-09
2.31854e-08
1.34178e-06
9.27743e-08
1.31231e-06
1.78855e-07
1.27929e-06
3.11485e-07
1.25237e-06
5.27774e-07
1.22312e-06
8.40516e-07
1.2246e-06
1.27745e-06
1.24022e-06
1.71041e-06
1.23393e-06
2.03302e-06
1.15513e-06
2.15868e-06
9.91723e-07
2.13457e-06
7.95908e-07
2.07546e-06
6.18459e-07
2.03198e-06
4.72515e-07
2.00417e-06
3.50919e-07
1.98422e-06
2.47796e-07
1.97073e-06
1.66675e-07
1.96233e-06
1.04321e-07
1.95721e-06
6.04956e-08
1.95642e-06
2.69299e-08
1.95964e-06
7.34152e-09
1.96442e-06
-2.27588e-10
2.1273e-08
1.37427e-06
8.58149e-08
1.34875e-06
1.71082e-07
1.32011e-06
2.9555e-07
1.29515e-06
5.1243e-07
1.2676e-06
8.07214e-07
1.25628e-06
1.2352e-06
1.26674e-06
1.68269e-06
1.26783e-06
2.05268e-06
1.21422e-06
2.24015e-06
1.07362e-06
2.24617e-06
8.80072e-07
2.18108e-06
6.90277e-07
2.11941e-06
5.31021e-07
2.07831e-06
3.98351e-07
2.04639e-06
2.8875e-07
2.02144e-06
1.97124e-07
2.00318e-06
1.25829e-07
1.98834e-06
7.32259e-08
1.9787e-06
3.82399e-08
1.97308e-06
1.35221e-08
1.97155e-06
2.35444e-10
1.97241e-06
-2.58066e-09
1.9462e-08
1.40223e-06
7.95864e-08
1.3805e-06
1.62685e-07
1.3571e-06
2.83134e-07
1.33244e-06
4.96887e-07
1.31062e-06
7.87982e-07
1.28675e-06
1.19861e-06
1.29271e-06
1.65322e-06
1.29608e-06
2.05894e-06
1.2615e-06
2.30792e-06
1.14636e-06
2.35772e-06
9.6194e-07
2.29675e-06
7.64227e-07
2.21865e-06
5.91105e-07
2.16243e-06
4.46897e-07
2.11846e-06
3.26279e-07
2.08211e-06
2.28115e-07
2.0528e-06
1.47567e-07
2.02778e-06
8.64427e-08
2.00798e-06
4.40187e-08
1.99293e-06
1.84275e-08
1.98372e-06
1.39082e-09
1.9799e-06
-7.21374e-09
1.97687e-06
-4.08191e-09
1.77546e-08
1.42579e-06
7.27339e-08
1.40907e-06
1.54822e-07
1.38835e-06
2.72582e-07
1.36753e-06
4.8213e-07
1.34698e-06
7.7979e-07
1.31857e-06
1.16648e-06
1.31865e-06
1.62536e-06
1.32043e-06
2.05574e-06
1.29912e-06
2.36111e-06
1.20826e-06
2.46427e-06
1.03978e-06
2.41919e-06
8.39638e-07
2.32871e-06
6.54002e-07
2.25595e-06
4.97536e-07
2.20031e-06
3.65013e-07
2.152e-06
2.56384e-07
2.11101e-06
1.69932e-07
2.07556e-06
9.97981e-08
2.04505e-06
4.941e-08
2.02016e-06
1.68421e-08
2.00154e-06
6.55112e-10
1.99097e-06
-9.64712e-09
1.98201e-06
-1.23418e-08
1.97923e-06
-4.56683e-09
1.61068e-08
1.44506e-06
6.61215e-08
1.43244e-06
1.47101e-07
1.41671e-06
2.61903e-07
1.39878e-06
4.73605e-07
1.37586e-06
7.7632e-07
1.35018e-06
1.14289e-06
1.34192e-06
1.60169e-06
1.34215e-06
2.0472e-06
1.3288e-06
2.40021e-06
1.26e-06
2.56068e-06
1.11174e-06
2.54476e-06
9.14189e-07
2.45015e-06
7.18222e-07
2.36133e-06
5.48626e-07
2.29241e-06
4.05423e-07
2.23143e-06
2.85596e-07
2.17963e-06
1.87785e-07
2.13303e-06
1.12512e-07
2.09056e-06
5.43511e-08
2.05486e-06
1.47456e-08
2.02611e-06
-7.66329e-09
2.00624e-06
-1.45788e-08
1.99178e-06
-1.93711e-08
1.98231e-06
-1.54122e-08
1.98425e-06
-5.45864e-09
1.44557e-08
1.45963e-06
6.01016e-08
1.45104e-06
1.38999e-07
1.44045e-06
2.56063e-07
1.42249e-06
4.71083e-07
1.40114e-06
7.7495e-07
1.37686e-06
1.13221e-06
1.36064e-06
1.58253e-06
1.3609e-06
2.0368e-06
1.35232e-06
2.42657e-06
1.30245e-06
2.64502e-06
1.17566e-06
2.67005e-06
9.86397e-07
2.58049e-06
7.83795e-07
2.47769e-06
6.0184e-07
2.39424e-06
4.46755e-07
2.3218e-06
3.1503e-07
2.25856e-06
2.06613e-07
2.20063e-06
1.20208e-07
2.14604e-06
5.70735e-08
2.09834e-06
1.09392e-08
2.05756e-06
-1.6675e-08
2.02691e-06
-2.82794e-08
2.00511e-06
-2.78534e-08
1.98931e-06
-2.63319e-08
1.98719e-06
-1.83272e-08
1.98214e-06
-6.07904e-09
1.28561e-08
1.46881e-06
5.52062e-08
1.46449e-06
1.31969e-07
1.45797e-06
2.52272e-07
1.44405e-06
4.70585e-07
1.4226e-06
7.77842e-07
1.3978e-06
1.13119e-06
1.37772e-06
1.56711e-06
1.37587e-06
2.02644e-06
1.3711e-06
2.44313e-06
1.33572e-06
2.71601e-06
1.23142e-06
2.78936e-06
1.05625e-06
2.71637e-06
8.50539e-07
2.60445e-06
6.57012e-07
2.50626e-06
4.89795e-07
2.42186e-06
3.46683e-07
2.34717e-06
2.26489e-07
2.27783e-06
1.29415e-07
2.21174e-06
5.45233e-08
2.15091e-06
4.54188e-09
2.09712e-06
-2.85679e-08
2.05421e-06
-4.39164e-08
2.02251e-06
-4.56326e-08
1.99934e-06
-3.78454e-08
1.99086e-06
-2.99455e-08
1.98397e-06
-2.01526e-08
1.97984e-06
-6.28806e-09
1.13868e-08
1.47232e-06
5.08909e-08
1.47307e-06
1.25627e-07
1.47054e-06
2.49101e-07
1.46097e-06
4.76531e-07
1.43785e-06
7.84866e-07
1.4154e-06
1.13767e-06
1.39114e-06
1.5574e-06
1.38718e-06
2.01727e-06
1.38487e-06
2.45249e-06
1.36158e-06
2.77282e-06
1.27879e-06
2.89988e-06
1.12092e-06
2.85498e-06
9.17435e-07
2.7399e-06
7.14987e-07
2.62754e-06
5.35685e-07
2.53232e-06
3.79328e-07
2.44665e-06
2.47162e-07
2.36576e-06
1.38609e-07
2.28835e-06
5.27805e-08
2.21403e-06
-8.59847e-09
2.14642e-06
-4.46964e-08
2.08912e-06
-6.34153e-08
2.04519e-06
-6.65431e-08
2.01274e-06
-5.8973e-08
1.99653e-06
-4.3475e-08
1.98641e-06
-3.2346e-08
1.98074e-06
-2.10321e-08
1.97834e-06
-6.37892e-09
9.85674e-09
1.47121e-06
4.60103e-08
1.47708e-06
1.20331e-07
1.47823e-06
2.48661e-07
1.47092e-06
4.87247e-07
1.44999e-06
7.94989e-07
1.4274e-06
1.1506e-06
1.40212e-06
1.55219e-06
1.39622e-06
2.00954e-06
1.39476e-06
2.45676e-06
1.38042e-06
2.81669e-06
1.31762e-06
2.99873e-06
1.17977e-06
2.99193e-06
9.8396e-07
2.88222e-06
7.75069e-07
2.75912e-06
5.83273e-07
2.65348e-06
4.14453e-07
2.55616e-06
2.69781e-07
2.46508e-06
1.47795e-07
2.37618e-06
5.07519e-08
2.28828e-06
-2.14162e-08
2.20646e-06
-6.85971e-08
2.13348e-06
-8.90143e-08
2.07469e-06
-9.28494e-08
2.03042e-06
-8.41598e-08
2.00447e-06
-6.68512e-08
1.98919e-06
-4.62094e-08
1.98111e-06
-3.26884e-08
1.97857e-06
-2.12562e-08
1.97806e-06
-6.22412e-09
9.17559e-09
1.4661e-06
4.19744e-08
1.47518e-06
1.169e-07
1.48036e-06
2.50764e-07
1.4758e-06
5.00681e-07
1.4573e-06
8.10881e-07
1.43384e-06
1.16671e-06
1.411e-06
1.55205e-06
1.40228e-06
2.00386e-06
1.40161e-06
2.45726e-06
1.39399e-06
2.84825e-06
1.34872e-06
3.08387e-06
1.23233e-06
3.12257e-06
1.04899e-06
3.02892e-06
8.37197e-07
2.89955e-06
6.34631e-07
2.78238e-06
4.54288e-07
2.67542e-06
2.95122e-07
2.57553e-06
1.59312e-07
2.47598e-06
4.79988e-08
2.37514e-06
-3.61027e-08
2.27814e-06
-9.30721e-08
2.1887e-06
-1.23766e-07
2.1126e-06
-1.26863e-07
2.05335e-06
-1.15714e-07
2.01515e-06
-9.47741e-08
1.99271e-06
-7.03189e-08
1.9807e-06
-4.57549e-08
1.97756e-06
-3.16489e-08
1.97823e-06
-2.1421e-08
1.97969e-06
-6.37648e-09
8.06811e-09
1.45648e-06
3.92307e-08
1.46877e-06
1.14521e-07
1.47736e-06
2.58038e-07
1.47279e-06
5.1983e-07
1.45648e-06
8.32058e-07
1.43573e-06
1.1852e-06
1.41488e-06
1.55894e-06
1.40379e-06
1.99894e-06
1.40664e-06
2.45457e-06
1.40411e-06
2.86873e-06
1.3733e-06
3.15352e-06
1.27896e-06
3.24327e-06
1.11153e-06
3.17577e-06
9.02041e-07
3.04601e-06
6.90662e-07
2.91939e-06
4.97387e-07
2.80519e-06
3.24504e-07
2.69649e-06
1.74034e-07
2.5882e-06
4.71102e-08
2.47556e-06
-5.24153e-08
2.36301e-06
-1.20947e-07
2.25596e-06
-1.60286e-07
2.16117e-06
-1.72275e-07
2.08367e-06
-1.57117e-07
2.02961e-06
-1.30112e-07
1.99752e-06
-9.95231e-08
1.97908e-06
-6.86431e-08
1.97433e-06
-4.24861e-08
1.97674e-06
-3.01359e-08
1.98043e-06
-2.21628e-08
1.98041e-06
-5.74994e-09
7.31009e-09
1.4402e-06
3.75092e-08
1.45812e-06
1.13779e-07
1.46934e-06
2.71127e-07
1.46407e-06
5.43056e-07
1.44934e-06
8.58122e-07
1.43e-06
1.20718e-06
1.41308e-06
1.57068e-06
1.40287e-06
1.99381e-06
1.40871e-06
2.44965e-06
1.4114e-06
2.87918e-06
1.39329e-06
3.20659e-06
1.32008e-06
3.35089e-06
1.17131e-06
3.31878e-06
9.68452e-07
3.19695e-06
7.50996e-07
3.06431e-06
5.45778e-07
2.94305e-06
3.5942e-07
2.82747e-06
1.93367e-07
2.71205e-06
5.01442e-08
2.58979e-06
-6.7145e-08
2.46279e-06
-1.52182e-07
2.33756e-06
-2.02498e-07
2.22223e-06
-2.21291e-07
2.12361e-06
-2.12144e-07
2.04949e-06
-1.76927e-07
2.00448e-06
-1.37007e-07
1.97672e-06
-9.71097e-08
1.96873e-06
-6.30065e-08
1.97224e-06
-3.79644e-08
1.98049e-06
-3.01818e-08
1.98376e-06
-2.55165e-08
1.98502e-06
-5.6541e-09
6.86439e-09
1.41747e-06
3.67851e-08
1.44079e-06
1.16922e-07
1.45475e-06
2.89781e-07
1.45012e-06
5.70224e-07
1.43654e-06
8.87285e-07
1.41971e-06
1.23123e-06
1.40543e-06
1.58724e-06
1.39647e-06
1.99202e-06
1.40435e-06
2.44286e-06
1.41522e-06
2.88119e-06
1.40926e-06
3.24405e-06
1.35576e-06
3.44254e-06
1.22833e-06
3.4539e-06
1.03613e-06
3.34916e-06
8.16107e-07
3.21417e-06
6.01079e-07
3.08783e-06
4.00908e-07
2.96853e-06
2.18476e-07
2.84775e-06
5.74811e-08
2.71835e-06
-7.84117e-08
2.57919e-06
-1.83519e-07
2.43605e-06
-2.50633e-07
2.29848e-06
-2.78695e-07
2.17611e-06
-2.73716e-07
2.07704e-06
-2.39613e-07
2.01454e-06
-1.8691e-07
1.97403e-06
-1.3426e-07
1.96028e-06
-8.86036e-08
1.9646e-06
-5.53287e-08
1.97681e-06
-3.42698e-08
1.98815e-06
-3.45633e-08
1.98827e-06
-2.87681e-08
1.99006e-06
-2.05382e-10
-3.87723e-09
6.2242e-09
1.39018e-06
3.70709e-08
1.41705e-06
1.23148e-07
1.43433e-06
3.12971e-07
1.43119e-06
6.03204e-07
1.41696e-06
9.18405e-07
1.40495e-06
1.2576e-06
1.39296e-06
1.60632e-06
1.38635e-06
1.99168e-06
1.3965e-06
2.43372e-06
1.41327e-06
2.8785e-06
1.41772e-06
3.26828e-06
1.38492e-06
3.51687e-06
1.2813e-06
3.57793e-06
1.10427e-06
3.49891e-06
8.8628e-07
3.36716e-06
6.63075e-07
3.23868e-06
4.5017e-07
3.11767e-06
2.51635e-07
2.99429e-06
7.17538e-08
2.86101e-06
-8.54152e-08
2.71319e-06
-2.12419e-07
2.55437e-06
-3.01759e-07
2.39408e-06
-3.46157e-07
2.24476e-06
-3.47275e-07
2.11759e-06
-3.14179e-07
2.02966e-06
-2.54646e-07
1.97081e-06
-1.83614e-07
1.94794e-06
-1.21866e-07
1.95268e-06
-7.66522e-08
1.96986e-06
-4.83646e-08
1.99103e-06
-3.7158e-08
1.99697e-06
-4.32681e-08
1.99342e-06
-1.58696e-08
-1.62529e-08
9.9408e-07
2.52378e-09
9.95075e-07
-4.87215e-09
6.10678e-09
1.35806e-06
3.93784e-08
1.38755e-06
1.32039e-07
1.40789e-06
3.41317e-07
1.40552e-06
6.41084e-07
1.39289e-06
9.51654e-07
1.38335e-06
1.28597e-06
1.37624e-06
1.62529e-06
1.37373e-06
1.9907e-06
1.38697e-06
2.42082e-06
1.4091e-06
2.86797e-06
1.42352e-06
3.27935e-06
1.40637e-06
3.5746e-06
1.32701e-06
3.68981e-06
1.16925e-06
3.6439e-06
9.59197e-07
3.52122e-06
7.32087e-07
3.39259e-06
5.09035e-07
3.27208e-06
2.95709e-07
3.14985e-06
9.61816e-08
3.0165e-06
-8.38968e-08
2.86369e-06
-2.3615e-07
2.6936e-06
-3.51679e-07
2.51194e-06
-4.19554e-07
2.33416e-06
-4.35481e-07
2.17447e-06
-4.04063e-07
2.05318e-06
-3.37599e-07
1.968e-06
-2.51741e-07
1.92824e-06
-1.63849e-07
1.92861e-06
-9.77595e-08
1.95195e-06
-5.87359e-08
1.98465e-06
-4.19997e-08
2.0053e-06
-2.40197e-08
-2.15004e-08
9.99629e-07
-2.50068e-08
1.00013e-06
-2.46032e-08
9.93689e-07
-1.44834e-08
9.97735e-07
-2.02967e-08
9.96511e-07
3.79548e-09
9.9485e-07
-3.21025e-09
5.87092e-09
1.32288e-06
4.21674e-08
1.35494e-06
1.41569e-07
1.37787e-06
3.73573e-07
1.37526e-06
6.8171e-07
1.36459e-06
9.87222e-07
1.35696e-06
1.31191e-06
1.35704e-06
1.64301e-06
1.35816e-06
1.9903e-06
1.37374e-06
2.40598e-06
1.40155e-06
2.85128e-06
1.42566e-06
3.278e-06
1.42478e-06
3.61251e-06
1.36833e-06
3.78294e-06
1.23373e-06
3.77927e-06
1.03381e-06
3.67418e-06
8.06111e-07
3.54856e-06
5.76123e-07
3.43013e-06
3.50694e-07
3.31279e-06
1.32784e-07
3.18331e-06
-7.04606e-08
3.03036e-06
-2.50682e-07
2.85393e-06
-3.96691e-07
2.65545e-06
-4.95159e-07
2.44916e-06
-5.3446e-07
2.25447e-06
-5.15378e-07
2.09341e-06
-4.44186e-07
1.97499e-06
-3.44495e-07
1.90874e-06
-2.32179e-07
1.8962e-06
-1.31409e-07
1.92333e-06
-6.9146e-08
1.96571e-06
-3.98227e-08
2.00848e-06
-2.20931e-08
-2.31468e-08
1.00224e-06
-2.66466e-08
1.0076e-06
-2.68727e-08
9.98688e-07
-2.59613e-08
1.00423e-06
-3.0758e-08
1.00461e-06
-3.05335e-08
9.94343e-07
-1.39742e-08
9.9586e-07
-2.18108e-08
9.99362e-07
4.80258e-09
9.96285e-07
-1.31011e-10
5.81911e-09
1.28305e-06
4.56024e-08
1.31932e-06
1.53397e-07
1.34316e-06
4.10275e-07
1.34086e-06
7.23519e-07
1.33307e-06
1.02299e-06
1.32847e-06
1.33432e-06
1.3341e-06
1.65918e-06
1.34055e-06
1.98925e-06
1.35898e-06
2.38667e-06
1.39292e-06
2.828e-06
1.4246e-06
3.26608e-06
1.43739e-06
3.63409e-06
1.40296e-06
3.85639e-06
1.29473e-06
3.90149e-06
1.11114e-06
3.82128e-06
8.8659e-07
3.70287e-06
6.51534e-07
3.58893e-06
4.17083e-07
3.47858e-06
1.84626e-07
3.35816e-06
-4.21237e-08
3.21223e-06
-2.52275e-07
3.0357e-06
-4.32547e-07
2.82718e-06
-5.6852e-07
2.59519e-06
-6.41128e-07
2.36496e-06
-6.44813e-07
2.16407e-06
-5.85894e-07
2.00801e-06
-4.7709e-07
1.91512e-06
-3.50818e-07
1.8862e-06
-2.22223e-07
1.90508e-06
-1.13276e-07
1.95317e-06
-5.67535e-08
2.01866e-06
-2.42393e-08
-2.58985e-08
1.01187e-06
-2.63919e-08
1.01784e-06
-2.91529e-08
1.00976e-06
-3.2423e-08
9.9823e-07
-2.83314e-08
1.00914e-06
-3.52963e-08
1.00319e-06
-3.54973e-08
9.94297e-07
-1.19821e-08
9.94046e-07
-2.15556e-08
1.00095e-06
6.09956e-09
9.97832e-07
2.99033e-09
6.83615e-09
1.23786e-06
5.10788e-08
1.27738e-06
1.73384e-07
1.29883e-06
4.51928e-07
1.30073e-06
7.65606e-07
1.29832e-06
1.05699e-06
1.29865e-06
1.35511e-06
1.3075e-06
1.67077e-06
1.32217e-06
1.98725e-06
1.34231e-06
2.36372e-06
1.38179e-06
2.79854e-06
1.42208e-06
3.24201e-06
1.44851e-06
3.63742e-06
1.43401e-06
3.90941e-06
1.34981e-06
4.00942e-06
1.18679e-06
3.96083e-06
9.71445e-07
3.85437e-06
7.34715e-07
3.74486e-06
4.95606e-07
3.64244e-06
2.5302e-07
3.53533e-06
7.26132e-09
3.40448e-06
-2.3425e-07
3.2374e-06
-4.53882e-07
3.02954e-06
-6.3504e-07
2.77854e-06
-7.51963e-07
2.51363e-06
-7.89688e-07
2.27583e-06
-7.56348e-07
2.09827e-06
-6.75977e-07
1.98625e-06
-5.4822e-07
1.95081e-06
-4.15728e-07
1.96702e-06
-2.84768e-07
2.00731e-06
-1.68168e-07
2.05859e-06
-3.50709e-08
-6.22779e-08
1.02435e-06
-3.07962e-08
1.03279e-06
-3.44288e-08
1.01642e-06
-3.30779e-08
1.02479e-06
-3.75663e-08
1.01623e-06
-3.95456e-08
9.96039e-07
-3.03233e-08
1.01044e-06
-4.25651e-08
1.00089e-06
-4.03578e-08
9.93786e-07
-7.93061e-09
9.91107e-07
-1.88699e-08
1.0037e-06
6.99786e-09
1.00078e-06
5.9115e-09
8.81837e-09
1.18944e-06
5.86773e-08
1.23013e-06
1.99599e-07
1.25086e-06
4.94608e-07
1.25581e-06
8.06508e-07
1.25953e-06
1.0892e-06
1.26577e-06
1.37478e-06
1.27876e-06
1.67768e-06
1.30024e-06
1.98524e-06
1.3241e-06
2.3383e-06
1.36761e-06
2.76362e-06
1.41647e-06
3.20821e-06
1.45576e-06
3.62313e-06
1.46264e-06
3.9387e-06
1.40453e-06
4.09417e-06
1.26491e-06
4.08931e-06
1.05807e-06
4.0015e-06
8.24383e-07
3.90006e-06
5.79237e-07
3.80456e-06
3.33274e-07
3.71064e-06
7.74875e-08
3.59686e-06
-1.85377e-07
3.45026e-06
-4.47118e-07
3.25763e-06
-6.81952e-07
3.00417e-06
-8.60651e-07
2.71486e-06
-9.53074e-07
2.44555e-06
-9.59029e-07
2.26227e-06
-9.1985e-07
2.17609e-06
-8.65685e-07
2.17844e-06
-7.76495e-07
2.22576e-06
-6.76209e-07
2.26898e-06
-5.4905e-07
2.28855e-06
-1.31523e-07
-2.69579e-07
1.04923e-06
-5.17347e-08
1.08906e-06
-1.02757e-07
1.0352e-06
-4.12829e-08
1.05232e-06
-5.17191e-08
1.02533e-06
-4.22119e-08
1.03567e-06
-4.79708e-08
1.02039e-06
-4.95308e-08
9.92005e-07
-3.12181e-08
1.00893e-06
-5.06221e-08
9.96052e-07
-4.44109e-08
9.93503e-07
-6.43928e-10
9.86266e-07
-1.16233e-08
1.00917e-06
8.77096e-09
1.004e-06
1.10824e-08
1.15102e-08
1.13814e-06
6.80511e-08
1.17988e-06
2.28035e-07
1.20123e-06
5.37995e-07
1.20697e-06
8.44113e-07
1.21783e-06
1.11816e-06
1.23033e-06
1.39173e-06
1.24846e-06
1.68096e-06
1.27519e-06
1.97975e-06
1.30546e-06
2.31172e-06
1.35043e-06
2.72339e-06
1.40766e-06
3.16605e-06
1.45844e-06
3.59437e-06
1.48436e-06
3.94745e-06
1.45372e-06
4.15533e-06
1.3432e-06
4.20005e-06
1.15401e-06
4.1353e-06
9.24121e-07
4.04445e-06
6.79986e-07
3.95946e-06
4.24185e-07
3.88504e-06
1.58673e-07
3.78787e-06
-1.13752e-07
3.66614e-06
-4.01283e-07
3.49901e-06
-6.88356e-07
3.26488e-06
-9.42514e-07
2.97699e-06
-1.12237e-06
2.69566e-06
-1.20231e-06
2.52343e-06
-1.21895e-06
2.48711e-06
-1.2298e-06
2.56909e-06
-1.25651e-06
2.68218e-06
-1.23548e-06
2.75808e-06
-1.17073e-06
2.78266e-06
-4.44233e-07
-6.06418e-07
1.17793e-06
-2.21973e-07
1.30337e-06
-3.97126e-07
1.08663e-06
-8.65053e-08
1.16391e-06
-1.81284e-07
1.05171e-06
-5.74532e-08
1.08149e-06
-8.18232e-08
1.03309e-06
-5.4967e-08
1.04719e-06
-6.21728e-08
1.01999e-06
-6.06326e-08
9.84784e-07
-2.9731e-08
1.00381e-06
-5.84069e-08
9.86981e-07
-4.66127e-08
9.92229e-07
1.11385e-08
9.7951e-07
1.10659e-09
1.02252e-06
1.14753e-08
1.01107e-06
2.2539e-08
1.48197e-08
1.08431e-06
7.85328e-08
1.12739e-06
2.60293e-07
1.14706e-06
5.81591e-07
1.15721e-06
8.7631e-07
1.1744e-06
1.14284e-06
1.19288e-06
1.40543e-06
1.21639e-06
1.68128e-06
1.24794e-06
1.9701e-06
1.28481e-06
2.28547e-06
1.33153e-06
2.67813e-06
1.39558e-06
3.11647e-06
1.457e-06
3.55302e-06
1.49965e-06
3.93643e-06
1.49521e-06
4.1941e-06
1.41484e-06
4.2917e-06
1.25138e-06
4.25774e-06
1.03146e-06
4.1775e-06
7.90936e-07
4.10231e-06
5.36923e-07
4.0417e-06
2.6732e-07
3.97314e-06
-2.68043e-08
3.88099e-06
-3.28877e-07
3.74675e-06
-6.48971e-07
3.54398e-06
-9.67193e-07
3.28495e-06
-1.24961e-06
3.026e-06
-1.45054e-06
2.90107e-06
-1.57675e-06
2.93762e-06
-1.66642e-06
3.0925e-06
-1.75182e-06
3.25878e-06
-1.83423e-06
3.36594e-06
-1.84745e-06
3.40377e-06
-8.18532e-07
-9.8094e-07
1.43811e-06
-5.81297e-07
1.61076e-06
-7.81456e-07
1.28436e-06
-3.44667e-07
1.42289e-06
-5.38154e-07
1.14495e-06
-1.5085e-07
1.25561e-06
-2.94021e-07
1.07236e-06
-8.28441e-08
1.12178e-06
-1.3186e-07
1.03505e-06
-7.01024e-08
1.05645e-06
-8.37319e-08
1.01573e-06
-7.26012e-08
9.72757e-07
-2.29693e-08
9.93441e-07
-6.48927e-08
9.71561e-07
-4.54191e-08
9.91865e-07
3.03505e-08
9.70176e-07
2.28088e-08
1.04221e-06
1.8327e-08
1.02277e-06
4.19936e-08
1.85743e-08
1.02852e-06
9.04563e-08
1.07207e-06
2.96811e-07
1.09035e-06
6.20962e-07
1.10737e-06
9.04692e-07
1.12856e-06
1.16376e-06
1.15327e-06
1.41542e-06
1.1827e-06
1.67837e-06
1.21915e-06
1.95614e-06
1.26178e-06
2.25824e-06
1.31187e-06
2.62965e-06
1.37984e-06
3.06038e-06
1.45156e-06
3.5002e-06
1.50964e-06
3.90691e-06
1.52898e-06
4.21015e-06
1.47882e-06
4.36235e-06
1.34403e-06
4.36876e-06
1.14015e-06
4.30274e-06
9.0605e-07
4.23501e-06
6.5798e-07
4.185e-06
3.93388e-07
4.13953e-06
1.00719e-07
4.08057e-06
-2.26635e-07
3.99449e-06
-5.76849e-07
3.8334e-06
-9.38132e-07
3.62125e-06
-1.30227e-06
3.41479e-06
-1.63452e-06
3.36607e-06
-1.90881e-06
3.5274e-06
-2.15979e-06
3.77257e-06
-2.34253e-06
3.97727e-06
-2.47019e-06
4.09812e-06
-2.56975e-06
4.12615e-06
-1.19703e-06
-1.37893e-06
1.76979e-06
-9.79888e-07
1.96702e-06
-1.18037e-06
1.583e-06
-7.44041e-07
1.75758e-06
-9.58662e-07
1.39353e-06
-4.85161e-07
1.55112e-06
-6.98549e-07
1.21778e-06
-2.48448e-07
1.35135e-06
-4.30171e-07
1.09499e-06
-1.21784e-07
1.17248e-06
-2.10387e-07
1.03388e-06
-8.83603e-08
1.06438e-06
-1.14475e-07
1.00611e-06
-8.53336e-08
9.54638e-07
-7.41993e-09
9.76211e-07
-6.95709e-08
9.48132e-07
-3.89136e-08
9.90207e-07
6.2921e-08
9.54945e-07
5.80882e-08
1.07821e-06
3.04311e-08
1.04741e-06
7.28045e-08
2.25827e-08
9.71683e-07
1.03811e-07
1.01483e-06
3.35199e-07
1.03321e-06
6.5653e-07
1.05455e-06
9.31466e-07
1.08024e-06
1.18089e-06
1.11116e-06
1.42126e-06
1.14727e-06
1.67208e-06
1.18888e-06
1.93846e-06
1.23673e-06
2.22846e-06
1.29147e-06
2.57907e-06
1.36235e-06
2.99712e-06
1.44282e-06
3.43751e-06
1.51411e-06
3.86076e-06
1.55573e-06
4.20363e-06
1.53549e-06
4.40892e-06
1.43201e-06
4.46317e-06
1.2495e-06
4.41966e-06
1.02305e-06
4.35914e-06
7.81716e-07
4.31813e-06
5.24611e-07
4.28946e-06
2.43197e-07
4.25916e-06
-7.81246e-08
4.21223e-06
-4.44655e-07
4.11647e-06
-8.59922e-07
3.96705e-06
-1.28273e-06
3.8372e-06
-1.71962e-06
3.88063e-06
-2.13787e-06
4.18392e-06
-2.55258e-06
4.56553e-06
-2.94449e-06
4.87814e-06
-3.24041e-06
4.99582e-06
-3.37009e-06
4.96436e-06
-1.61132e-06
-1.80292e-06
2.14981e-06
-1.38191e-06
2.37035e-06
-1.60153e-06
1.94756e-06
-1.17241e-06
2.14296e-06
-1.37818e-06
1.727e-06
-9.22775e-07
1.9183e-06
-1.15279e-06
1.50748e-06
-6.44166e-07
1.68364e-06
-8.77706e-07
1.29644e-06
-3.74782e-07
1.44974e-06
-5.86331e-07
1.12222e-06
-1.80289e-07
1.22938e-06
-3.19222e-07
1.02837e-06
-1.10768e-07
1.06995e-06
-1.56444e-07
9.88856e-07
-9.8059e-08
9.27732e-07
1.98086e-08
9.49306e-07
-7.07766e-08
9.13052e-07
-2.42321e-08
9.89721e-07
1.20626e-07
9.33011e-07
1.14818e-07
1.13656e-06
5.45102e-08
1.07988e-06
1.29495e-07
2.6792e-08
9.14018e-07
1.19196e-07
9.55963e-07
3.74526e-07
9.75072e-07
6.8948e-07
1.00005e-06
9.55741e-07
1.02992e-06
1.19468e-06
1.06626e-06
1.42369e-06
1.10867e-06
1.66314e-06
1.15613e-06
1.91781e-06
1.20946e-06
2.19645e-06
1.26871e-06
2.52694e-06
1.34344e-06
2.92892e-06
1.43045e-06
3.36656e-06
1.51367e-06
3.79923e-06
1.57543e-06
4.17595e-06
1.58331e-06
4.43163e-06
1.51252e-06
4.53771e-06
1.35712e-06
4.52557e-06
1.14339e-06
4.47382e-06
9.08381e-07
4.43941e-06
6.60244e-07
4.42423e-06
3.89601e-07
4.41762e-06
8.44828e-08
4.40438e-06
-2.70562e-07
4.36438e-06
-6.92714e-07
4.28601e-06
-1.17789e-06
4.25371e-06
-1.69395e-06
4.40564e-06
-2.23012e-06
4.85161e-06
-2.78586e-06
5.3819e-06
-3.35329e-06
5.74203e-06
-3.80131e-06
5.77945e-06
-4.02577e-06
5.67192e-06
-2.02123e-06
-2.06357e-06
2.55289e-06
-1.79597e-06
2.73647e-06
-1.98891e-06
2.34398e-06
-1.58529e-06
2.51704e-06
-1.77702e-06
2.11863e-06
-1.37543e-06
2.30997e-06
-1.57213e-06
1.87468e-06
-1.11682e-06
2.07314e-06
-1.35418e-06
1.625e-06
-8.22498e-07
1.81534e-06
-1.07114e-06
1.37554e-06
-5.23811e-07
1.54947e-06
-7.63334e-07
1.15378e-06
-2.65173e-07
1.28801e-06
-4.55952e-07
1.01562e-06
-1.37749e-07
1.07349e-06
-2.14927e-07
9.60968e-07
-1.09827e-07
8.909e-07
6.19402e-08
9.08542e-07
-6.63049e-08
8.64027e-07
2.6441e-09
9.85612e-07
2.14905e-07
9.03122e-07
1.97331e-07
1.23642e-06
1.01495e-07
1.11191e-06
2.54012e-07
3.12449e-08
8.55037e-07
1.37236e-07
8.95655e-07
4.1317e-07
9.16945e-07
7.20123e-07
9.44278e-07
9.78633e-07
9.76876e-07
1.20638e-06
1.01822e-06
1.42415e-06
1.06589e-06
1.6522e-06
1.11956e-06
1.89485e-06
1.17903e-06
2.162e-06
1.2439e-06
2.47309e-06
1.32252e-06
2.85676e-06
1.41563e-06
3.28761e-06
1.50932e-06
3.72512e-06
1.58764e-06
4.12801e-06
1.62321e-06
4.42999e-06
1.58497e-06
4.58957e-06
1.46057e-06
4.61677e-06
1.2657e-06
4.57968e-06
1.03741e-06
4.5487e-06
7.98833e-07
4.54332e-06
5.40902e-07
4.5545e-06
2.52458e-07
4.57089e-06
-8.23227e-08
4.57733e-06
-4.83769e-07
4.56313e-06
-9.6926e-07
4.59946e-06
-1.5183e-06
4.87915e-06
-2.15194e-06
5.47194e-06
-2.82414e-06
6.13908e-06
-3.52179e-06
6.42672e-06
-4.03114e-06
6.29207e-06
-4.3157e-06
5.99837e-06
-4.35982e-06
2.80936e-06
-2.09683e-06
2.86963e-06
-2.12656e-06
2.65298e-06
-1.93464e-06
2.74107e-06
-2.08006e-06
2.46509e-06
-1.74311e-06
2.57043e-06
-1.88536e-06
2.25544e-06
-1.56058e-06
2.39336e-06
-1.71299e-06
2.0102e-06
-1.31473e-06
2.18007e-06
-1.52708e-06
1.73737e-06
-1.01353e-06
1.92709e-06
-1.26393e-06
1.45576e-06
-6.94519e-07
1.64185e-06
-9.52507e-07
1.18776e-06
-3.8101e-07
1.34637e-06
-6.17443e-07
9.94021e-07
-1.71124e-07
1.07681e-06
-2.98667e-07
9.19133e-07
-1.20573e-07
8.40863e-07
1.24222e-07
8.4892e-07
-5.12531e-08
7.9245e-07
5.10567e-08
9.68838e-07
3.57991e-07
8.52682e-07
3.13511e-07
1.38682e-06
2.05408e-07
1.17274e-06
4.68094e-07
3.62809e-08
7.93209e-07
1.5824e-07
8.3372e-07
4.51554e-07
8.56934e-07
7.51896e-07
8.84978e-07
1.00178e-06
9.20889e-07
1.2171e-06
9.66181e-07
1.42347e-06
1.01884e-06
1.63981e-06
1.07817e-06
1.8697e-06
1.14466e-06
2.12506e-06
1.21593e-06
2.41848e-06
1.29848e-06
2.78115e-06
1.39811e-06
3.20221e-06
1.50098e-06
3.64092e-06
1.59344e-06
4.06189e-06
1.65365e-06
4.40453e-06
1.64853e-06
4.6168e-06
1.5576e-06
4.69003e-06
1.38688e-06
4.67536e-06
1.16969e-06
4.64721e-06
9.38557e-07
4.64715e-06
6.9469e-07
4.67104e-06
4.24077e-07
4.71027e-06
1.12788e-07
4.75461e-06
-2.59926e-07
4.79542e-06
-7.15895e-07
4.87996e-06
-1.24541e-06
5.23584e-06
-1.85863e-06
5.97252e-06
-2.62389e-06
6.7841e-06
-3.44574e-06
6.96428e-06
-4.05087e-06
6.69049e-06
-4.4293e-06
6.18451e-06
-4.50787e-06
-2.78775e-06
5.53053e-06
-2.14402e-06
-2.09915e-06
2.77273e-06
-2.13165e-06
-2.14453e-06
2.63694e-06
-2.00449e-06
2.6434e-06
-2.0899e-06
2.48181e-06
-1.83485e-06
2.51768e-06
-1.92476e-06
2.30286e-06
-1.68654e-06
2.37413e-06
-1.78763e-06
2.08658e-06
-1.47733e-06
2.19602e-06
-1.63983e-06
1.82388e-06
-1.19864e-06
1.97331e-06
-1.41653e-06
1.52722e-06
-8.78309e-07
1.70221e-06
-1.13046e-06
1.22126e-06
-5.27655e-07
1.39399e-06
-7.9292e-07
9.65343e-07
-2.17829e-07
1.08099e-06
-4.15615e-07
8.60952e-07
-1.3284e-07
7.61531e-07
2.15397e-07
7.65206e-07
-2.40987e-08
6.90209e-07
1.22366e-07
9.81118e-07
5.4962e-07
8.1791e-07
4.76738e-07
1.62862e-06
4.21798e-07
1.27694e-06
8.1974e-07
4.16891e-08
7.24917e-07
1.82995e-07
7.68156e-07
4.91894e-07
7.93075e-07
7.86152e-07
8.22532e-07
1.0247e-06
8.61982e-07
1.22815e-06
9.0988e-07
1.42225e-06
9.67454e-07
1.62652e-06
1.03208e-06
1.84294e-06
1.10491e-06
2.08618e-06
1.18355e-06
2.36278e-06
1.27169e-06
2.70306e-06
1.37661e-06
3.11147e-06
1.48881e-06
3.5484e-06
1.59335e-06
3.98015e-06
1.67505e-06
4.35676e-06
1.70132e-06
4.6193e-06
1.64587e-06
4.74312e-06
1.50455e-06
4.7584e-06
1.30367e-06
4.73748e-06
1.07913e-06
4.73804e-06
8.47347e-07
4.76902e-06
5.96375e-07
4.82342e-06
3.10609e-07
4.89496e-06