/*--------------------------------*- C++ -*----------------------------------*\
  =========                 |
  \\      /  F ield         | OpenFOAM: The Open Source CFD Toolbox
   \\    /   O peration     | Website:  https://openfoam.org
    \\  /    A nd           | Version:  dev
     \\/     M anipulation  |
\*---------------------------------------------------------------------------*/
FoamFile
{
    version     2.0;
    format      ascii;
    class       volScalarField;
    location    "2500";
    object      qr;
}
// * * * * * * * * * * * * * * * * * * * * * * * * * * * * * * * * * * * * * //

dimensions      [1 0 -3 0 0 0 0];

internalField   uniform 0;

boundaryField
{
    lowerOutlet
    {
        type            calculated;
        value           nonuniform List<scalar> 
146
(
1000.59
1003.89
1007.56
1011.58
1015.94
1020.67
1025.76
1031.23
1037.09
1043.37
1050.07
1057.21
1064.83
1072.95
1081.6
1090.82
1100.65
1111.13
1122.32
1134.28
1147.09
1160.81
1175.56
1191.43
1208.58
1227.15
1247.3
1269.23
1293.17
1319.41
1348.28
1380.2
1415.66
1445.77
1489.17
1538.38
1594.5
1659.22
1734.81
1824.99
1930.01
2103.89
2409.25
2670.7
3081.17
3603.39
4069.24
4556.86
4229.8
4147.95
3298.66
2733.51
2369.65
2119.49
1917.4
1785.93
1683.48
1601.75
1534.96
1479.1
1431.52
1390.39
1354.4
1322.57
1287.1
1262.27
1239.72
1219.12
1200.21
1182.76
1166.59
1151.57
1137.55
1124.47
1112.23
1100.74
1089.92
1079.73
1070.11
1061.03
1052.45
1044.33
1036.65
1029.39
1022.51
1016.01
1009.86
1004.06
998.578
993.415
988.558
983.998
979.729
975.743
972.037
968.607
965.478
1777.74
1877.99
1986.72
2283.34
2546.54
2949.57
3470.24
3952.95
4429.89
5009.76
-8287.1
3547.85
2851.03
2447.59
2174.24
1998.55
1847.27
1731.72
1640.42
1566.78
1505.85
1625.67
1695.47
3218.01
3720.83
4187.2
4663.94
3936.86
3140.49
2628.5
2298.65
2069.1
1454.4
1410.24
2830.77
3363.41
3837.23
4307.18
4774.4
3735.16
2984.9
2533.53
2233.75
1466.81
1513
1565.48
1371.83
1338.01
1308
)
;
    }
    top
    {
        type            calculated;
        value           nonuniform List<scalar> 
100
(
916.645
916.091
916.56
917.808
919.517
921.485
923.586
925.741
927.878
930.055
932.077
934.004
935.741
937.332
938.511
939.029
937.894
932.792
922.338
909.666
898.763
892.449
890.727
892.031
895.996
901.257
907.068
913.287
919.911
926.978
934.377
941.935
949.237
955.268
958.269
954.481
939.796
923.239
915.756
915.888
925.44
944.369
967.153
979.997
984.019
985.286
985.902
986.258
986.433
986.456
986.351
986.144
985.854
985.493
984.947
984.301
983.551
982.714
981.794
980.801
979.733
978.575
977.379
976.07
974.726
973.369
971.841
970.215
968.531
966.746
964.883
962.87
960.799
958.624
956.415
954.109
951.693
949.207
946.645
944.005
941.293
938.596
935.989
933.766
945.425
942.662
939.892
937.114
934.327
931.537
928.748
925.96
923.178
920.402
917.633
914.873
912.123
909.383
906.655
903.988
)
;
    }
    sides
    {
        type            calculated;
        value           nonuniform List<scalar> 
100
(
1000.61
1003.27
1005.62
1007.64
1009.33
1010.71
1011.77
1012.53
1013
1013.18
1013.09
1012.75
1012.15
1011.32
1010.26
1009
1007.55
1005.91
1004.11
1002.16
1000.06
997.839
995.502
993.06
990.527
987.911
985.223
982.472
979.667
976.816
973.924
970.998
968.047
965.078
962.097
959.109
956.117
953.128
950.143
947.167
944.204
941.255
938.324
935.413
932.524
929.658
926.817
924.001
921.21
918.479
965.497
968.123
970.496
972.608
974.462
976.059
977.404
978.502
979.36
979.982
980.378
980.553
980.517
980.278
979.843
979.224
978.428
977.465
976.344
975.075
973.667
972.129
970.469
968.698
966.822
964.851
962.792
960.653
958.44
956.16
953.818
951.42
948.974
946.485
943.96
941.402
938.815
936.204
933.572
930.922
928.258
925.582
922.896
920.203
917.504
914.801
912.095
909.387
906.678
904.005
)
;
    }
    front
    {
        type            empty;
    }
    back
    {
        type            empty;
    }
    roller
    {
        type            calculated;
        value           nonuniform List<scalar> 
142
(
5244.95
4436.12
3450.04
2697.58
1560.37
1255.99
1225.22
1169.91
1135.28
1133.36
6077.41
6694.49
6168.64
4961.6
4798.56
2656.96
2053.91
1978.65
1603.38
1742.26
1384.99
1243.67
1194.69
1181.01
1186.2
1145.82
1140.66
1131.47
4275.83
4502
4179.71
2470.02
1949.65
2231.33
2141.81
1530.46
1293.07
1127.2
1135.01
5828.04
6631.99
6415.91
5223.13
3677.35
4762.65
3564.71
3844.29
2880
2327.79
2058.03
1649.66
1800.6
1400.52
1329.13
1310.2
1234.88
1225.65
1149.78
1142.28
1137.65
6307.71
6681.11
5873.04
1902.43
1441.19
1360.96
1302.47
1287
1369.04
1347.95
1129.48
1128.18
4061.66
1472.3
1684.57
1571.48
1378.99
1539.98
1465.45
1315.27
1445.67
1421.54
1265.02
1244.69
1164.09
1157.76
1137.54
1130.53
1127.63
5573.47
6500.57
6587.42
5551.78
3240.92
2864.28
2542.17
1812.81
1753.68
1698.92
1848.72
1418.96
1344.33
1209.21
1217.27
1208.73
1178.32
1170.96
1160.53
1151.87
1147.74
1133.2
1128.63
1127.13
1127.6
1128.93
3868.5
3304.84
3086.14
3045.25
2309.47
2172.23
2430.14
1878.48
1503.97
1643.63
1606.09
1398.33
1511.87
1487.16
1329.12
1274.24
1275.49
1259.78
1201.86
1193.99
1154.76
1139.39
1144.01
1131.77
1128.03
1127.27
1129.91
)
;
    }
    burner
    {
        type            calculated;
        value           nonuniform List<scalar> 
14
(
-123471
-120483
-121122
-124559
-120968
-120418
-126725
-122430
-120189
-122459
-125599
-121613
-120145
-124817
)
;
    }
}


// ************************************************************************* //
