/*--------------------------------*- C++ -*----------------------------------*\
  =========                 |
  \\      /  F ield         | OpenFOAM: The Open Source CFD Toolbox
   \\    /   O peration     | Website:  https://openfoam.org
    \\  /    A nd           | Version:  dev
     \\/     M anipulation  |
\*---------------------------------------------------------------------------*/
FoamFile
{
    version     2.0;
    format      ascii;
    class       volScalarField;
    location    "2500";
    object      rAU;
}
// * * * * * * * * * * * * * * * * * * * * * * * * * * * * * * * * * * * * * //

dimensions      [-1 3 1 0 0 0 0];

internalField   nonuniform List<scalar> 
9848
(
0.0082184
0.00828429
0.00824554
0.00827266
0.00839435
0.00818422
0.00824417
0.00838796
0.00839786
0.00813197
0.00822139
0.00838744
0.00838052
0.00841025
0.00808232
0.00820278
0.00839394
0.00837253
0.00838986
0.00842069
0.00803634
0.00818429
0.00840481
0.0083741
0.00837369
0.00840546
0.00842588
0.0079942
0.00816656
0.0084156
0.00838132
0.00836436
0.0083871
0.00841755
0.00842864
0.00795561
0.0081473
0.00842489
0.00839341
0.00836106
0.0083712
0.00840416
0.00842397
0.00843025
0.00792035
0.00812617
0.00843026
0.00840643
0.00836466
0.00835999
0.0083881
0.00841637
0.00842769
0.00843145
0.00788821
0.0081052
0.00843199
0.00841581
0.00837381
0.00835369
0.00837148
0.00840554
0.00842291
0.00843012
0.00843229
0.00785915
0.00808506
0.00843316
0.00842357
0.00838728
0.00835228
0.00835883
0.00839151
0.00841695
0.00842715
0.0084318
0.00843283
0.00783299
0.00806548
0.00843414
0.00842742
0.00840108
0.00835619
0.00835048
0.00837561
0.0084085
0.00842352
0.00843001
0.00843324
0.00843313
0.0078097
0.00804679
0.00843464
0.00843071
0.008412
0.00836519
0.00834527
0.00836101
0.00839627
0.00841871
0.00842781
0.00843217
0.00843421
0.00843333
0.00778908
0.00802886
0.00843496
0.00843261
0.00841958
0.00837847
0.00834368
0.0083501
0.00838195
0.00841169
0.00842471
0.00843066
0.00843387
0.00843498
0.00843348
0.0077709
0.00801162
0.00843491
0.00843385
0.00842514
0.00839342
0.00834764
0.0083424
0.008367
0.00840231
0.00842078
0.00842847
0.00843288
0.00843508
0.00843542
0.0084336
0.0077552
0.00799507
0.00843537
0.00843471
0.00842871
0.00840544
0.00835565
0.00833763
0.00835327
0.00838991
0.00841606
0.00842596
0.00843133
0.00843458
0.00843608
0.00843594
0.00843363
0.00774173
0.00797882
0.00843561
0.00843523
0.00843095
0.00841334
0.00836807
0.00833589
0.00834308
0.0083751
0.00840848
0.0084237
0.00842968
0.00843355
0.00843595
0.00843677
0.00843633
0.00843365
0.00773051
0.00796388
0.00843567
0.00843574
0.00843211
0.00841879
0.00838159
0.00833844
0.00833574
0.00836053
0.00839768
0.0084202
0.00842842
0.0084323
0.00843522
0.00843696
0.00843731
0.00843665
0.00843362
0.00772142
0.00795051
0.00843575
0.0084358
0.00843346
0.00842418
0.00839462
0.00834427
0.00833159
0.00834751
0.00838454
0.00841384
0.0084267
0.00843138
0.00843425
0.00843643
0.00843785
0.00843792
0.00843687
0.00843353
0.00771441
0.00793813
0.0084366
0.00843617
0.00843477
0.00842706
0.0084041
0.00835377
0.00832881
0.00833848
0.00837077
0.00840485
0.00842366
0.00843087
0.00843392
0.00843582
0.00843753
0.00843855
0.00843838
0.00843703
0.00843343
0.00765196
0.00792705
0.008437
0.00843664
0.00843529
0.00842918
0.00840986
0.00836524
0.00832964
0.00833154
0.00835738
0.00839429
0.00841846
0.00842891
0.00843352
0.00843558
0.00843703
0.0084383
0.00843914
0.00843869
0.00843714
0.00832613
0.00770484
0.00791768
0.00843716
0.00843705
0.0084353
0.00843037
0.00841518
0.00837774
0.00833294
0.00832709
0.00834539
0.00838211
0.00841173
0.00842571
0.00843241
0.00843581
0.00843708
0.00843803
0.00843894
0.0084397
0.00843886
0.00838699
0.00838371
0.00770189
0.0079097
0.00843742
0.00843706
0.00843627
0.00843053
0.00841884
0.00838836
0.00833931
0.0083242
0.00833622
0.00836967
0.00840354
0.00842222
0.00843015
0.00843462
0.00843727
0.00843834
0.00843873
0.00843946
0.00844009
0.00843071
0.00838783
0.00841973
0.00770054
0.00790341
0.00843742
0.0084375
0.00843639
0.00843086
0.0084215
0.00839635
0.00834803
0.0083232
0.00832963
0.00835797
0.00839368
0.00841728
0.00842814
0.00843297
0.0084364
0.00843858
0.00843933
0.00843929
0.0084399
0.00844033
0.00843916
0.00842394
0.00843304
0.00770092
0.00789718
0.00843748
0.00843766
0.00843648
0.00843177
0.00842156
0.00840268
0.00835843
0.00832458
0.00832509
0.00834681
0.00838331
0.00841154
0.00842581
0.00843187
0.00843485
0.00843785
0.00843989
0.00844002
0.00843975
0.0084402
0.00844048
0.00843919
0.00843726
0.00843322
0.0077017
0.00788621
0.00843576
0.0084378
0.00843693
0.0084312
0.00842164
0.00840742
0.00836922
0.00832834
0.0083223
0.00833796
0.00837235
0.00840408
0.0084225
0.00843024
0.00843395
0.00843642
0.00843906
0.00844083
0.0084406
0.00844003
0.00844041
0.00844049
0.00843922
0.00843752
0.00843331
0.0077023
0.00787339
0.00842676
0.00843778
0.0084351
0.00843072
0.00842167
0.00841018
0.00837938
0.00833458
0.00832126
0.0083308
0.00836187
0.00839547
0.00841825
0.00842832
0.00843278
0.00843538
0.00843741
0.00843995
0.00844152
0.00844089
0.00844011
0.00844029
0.00844041
0.00843938
0.00843752
0.0084314
0.00770244
0.00786159
0.00841448
0.00843794
0.00843434
0.00842983
0.0084214
0.00841245
0.00838801
0.00834303
0.00832156
0.00832645
0.00835225
0.00838673
0.00841266
0.00842565
0.00843164
0.0084344
0.00843636
0.00843834
0.00844055
0.0084419
0.00844107
0.00844
0.00844002
0.0084403
0.0084392
0.00843437
0.00843141
0.00770276
0.00785111
0.00839168
0.00843334
0.00842667
0.00842788
0.0084216
0.00841393
0.0083944
0.00835275
0.0083235
0.0083237
0.00834389
0.0083776
0.00840641
0.00842299
0.00843012
0.00843319
0.00843528
0.00843696
0.00843873
0.00844091
0.00844206
0.00844098
0.00843972
0.00843979
0.00843998
0.00843894
0.00843374
0.00843335
0.00770293
0.00783743
0.00836728
0.00841451
0.00841352
0.00842666
0.00842202
0.00841442
0.00839978
0.00836353
0.00832733
0.00832241
0.00833703
0.00836897
0.00839942
0.00841917
0.00842821
0.00843226
0.00843426
0.00843569
0.00843711
0.00843884
0.00844085
0.00844183
0.00844055
0.00843934
0.00843941
0.00843968
0.00843886
0.00843678
0.00843338
0.0077025
0.00782326
0.0083389
0.00839913
0.00841622
0.00842645
0.00842181
0.00841605
0.00840491
0.00837414
0.00833399
0.00832251
0.00833178
0.00836076
0.0083921
0.0084148
0.00842644
0.00843109
0.00843311
0.00843436
0.00843552
0.0084369
0.00843845
0.00844026
0.008441
0.00843966
0.00843841
0.00843852
0.00843924
0.00843881
0.0084374
0.00843346
0.0077009
0.00780985
0.00830955
0.00838724
0.00841914
0.00842853
0.00842265
0.00841796
0.00840876
0.0083835
0.00834282
0.00832403
0.00832877
0.00835365
0.00838453
0.00840958
0.0084238
0.00842965
0.00843196
0.00843286
0.00843385
0.00843475
0.00843601
0.0084374
0.00843885
0.00843938
0.00843776
0.00843642
0.00843685
0.00843844
0.00843862
0.00843756
0.00843094
0.00769209
0.00781066
0.00828139
0.00837542
0.00841207
0.00842775
0.00842281
0.00841915
0.00841223
0.00839199
0.00835247
0.00821108
0.00832744
0.0083473
0.00837813
0.00840419
0.00842064
0.00842796
0.00843081
0.00843199
0.00843213
0.00843262
0.00843329
0.00843431
0.00843523
0.00843632
0.0084366
0.00843469
0.0084337
0.00843488
0.00843772
0.00838598
0.00843764
0.00842094
0.00682883
0.00817138
0.00782226
0.00826901
0.00836699
0.00840735
0.00842755
0.00842366
0.00842113
0.00841569
0.00839963
0.00836277
0.00817489
0.0083272
0.00834161
0.00837189
0.00839936
0.00841797
0.00842648
0.00842944
0.00843039
0.00843095
0.00843039
0.00843029
0.0084307
0.00843113
0.00843152
0.00843254
0.0084327
0.0084315
0.0084288
0.00839766
0.00821559
0.00842883
0.00847913
0.00818139
0.00818352
0.00680131
0.00814159
0.00783557
0.0082683
0.00836059
0.00840471
0.00842813
0.0084248
0.00842277
0.00841837
0.00840595
0.00837389
0.00829582
0.00832737
0.00833695
0.00836481
0.00839381
0.00841501
0.00842554
0.00842892
0.00842877
0.00842876
0.00842844
0.00842725
0.00842632
0.00842613
0.00842594
0.00842653
0.00839659
0.00840827
0.00841785
0.00839469
0.0080966
0.00825562
0.00824175
0.00809113
0.00818102
0.00829648
0.0081812
0.008157
0.0081475
0.00678854
0.00814097
0.00785065
0.00826662
0.00835578
0.00840207
0.00842842
0.00842622
0.00842406
0.00842128
0.008412
0.00838495
0.00834512
0.00830916
0.00833414
0.00835835
0.00838719
0.00841064
0.00842429
0.00842903
0.00842904
0.00842756
0.00842563
0.00842403
0.00842168
0.00842001
0.00841907
0.0084196
0.0083875
0.00839405
0.00838453
0.00834414
0.00810526
0.00808723
0.00817189
0.00817851
0.00815075
0.00815317
0.00815128
0.00815197
0.0081585
0.00814778
0.00675911
0.00812239
0.00786779
0.0082665
0.0083535
0.00840101
0.0084289
0.00842729
0.00842541
0.00842403
0.00841621
0.00839445
0.00835448
0.00831177
0.00833276
0.00835277
0.00838176
0.00840552
0.00842163
0.00842842
0.0084289
0.00842747
0.00842469
0.008421
0.00841727
0.00841307
0.00841039
0.00841006
0.0084128
0.00837717
0.00834985
0.00829773
0.00816763
0.00808755
0.00817953
0.00808923
0.00815182
0.0081538
0.00814943
0.00815242
0.00815068
0.00815155
0.00816007
0.00815587
0.00661617
0.00795471
0.00788664
0.00826967
0.00835699
0.00840434
0.00843011
0.00842868
0.00842742
0.00842634
0.00842089
0.00840301
0.00836475
0.00833487
0.00833189
0.00834697
0.00837644
0.00840169
0.00841926
0.00842747
0.00842872
0.00842708
0.00842384
0.00841905
0.00841326
0.00840616
0.00839953
0.00839671
0.00839638
0.00839202
0.00835298
0.00833361
0.00827357
0.00815309
0.00793436
0.00795087
0.00816216
0.00812402
0.00815356
0.00816252
0.00815052
0.0081528
0.00815151
0.00815238
0.00816069
0.00815756
0.00650942
0.00783504
0.00790697
0.00827386
0.0083655
0.00841039
0.0084304
0.00843033
0.00842958
0.00842845
0.00842492
0.00841019
0.00837604
0.0083404
0.00833112
0.00834131
0.00836927
0.00839721
0.00841701
0.00842761
0.00842958
0.00842749
0.00842305
0.00841725
0.00841011
0.00840016
0.00838751
0.00837832
0.00837382
0.00837071
0.00836926
0.0083568
0.00833689
0.00825985
0.00801949
0.00793571
0.00804166
0.00801937
0.0081722
0.00812758
0.00815765
0.00817514
0.00815346
0.00815434
0.00815364
0.0081542
0.00815998
0.00815973
0.00668047
0.00808451
0.0079287
0.00827913
0.00837346
0.00842008
0.00843096
0.00843181
0.00843202
0.00843081
0.00842828
0.0084166
0.00838735
0.00834829
0.00833195
0.00833729
0.00836161
0.00839059
0.00841306
0.0084264
0.00843035
0.00842895
0.00842452
0.00841654
0.00840751
0.00839552
0.00837632
0.00835569
0.00834498
0.00833875
0.00833573
0.00833446
0.00834056
0.00827334
0.00777271
0.00764259
0.0079596
0.00780739
0.00804311
0.0079764
0.00817772
0.00811562
0.00816427
0.00819092
0.00815851
0.0081634
0.00815724
0.00816575
0.00817181
0.00818457
0.00676432
0.00823022
0.0079515
0.00828611
0.0083737
0.00843026
0.00843079
0.00843326
0.00843406
0.00843303
0.00843096
0.00842222
0.00839744
0.00835803
0.00833437
0.00833452
0.00835405
0.00838363
0.00840777
0.00842402
0.00843008
0.00842935
0.00842588
0.00841862
0.00840755
0.00839385
0.00836772
0.00833477
0.00831058
0.00830504
0.00830737
0.00831312
0.0083213
0.00823087
0.00751541
0.00742921
0.00766479
0.00754426
0.00786531
0.00770841
0.00804707
0.00793394
0.00818187
0.0081107
0.00817451
0.00820566
0.00816898
0.0082144
0.00817554
0.00822985
0.008259
0.00827779
0.00679069
0.00831976
0.00797507
0.00829529
0.00837552
0.00842997
0.00843112
0.00843409
0.0084359
0.00843503
0.00843334
0.00842656
0.00840631
0.00836879
0.00833844
0.0083338
0.00834696
0.00837608
0.00840227
0.00842064
0.00842913
0.00842951
0.00842607
0.00841985
0.00840965
0.0083951
0.00836542
0.00832081
0.00828049
0.00827205
0.00829205
0.00828759
0.00823971
0.00819268
0.007354
0.00731822
0.00745456
0.00738863
0.00757977
0.00748181
0.00775995
0.00761884
0.00798762
0.00782633
0.00816795
0.00806553
0.00818687
0.00819636
0.00819658
0.00830138
0.00824042
0.00830237
0.00834023
0.00834819
0.00675113
0.00837048
0.00800177
0.00830779
0.00837961
0.00842954
0.00843165
0.00843541
0.00843741
0.00843685
0.00843521
0.0084301
0.00841368
0.00837989
0.00834479
0.00833382
0.0083416
0.00836835
0.00839617
0.00841686
0.00842843
0.00843008
0.00842698
0.00842025
0.00841039
0.00839667
0.00836818
0.008319
0.00826094
0.00824608
0.00824634
0.0081814
0.00806967
0.00795969
0.00706553
0.0070955
0.00735276
0.00717702
0.00741318
0.00731217
0.00751156
0.00743847
0.00766396
0.0075429
0.00790921
0.00772456
0.00814878
0.00799819
0.00820057
0.00816962
0.00824232
0.00835756
0.00829533
0.00834928
0.00838756
0.00838853
0.0066337
0.00839345
0.00802981
0.00832734
0.0083872
0.0084287
0.0084318
0.00843626
0.00843851
0.00843838
0.0084372
0.00843329
0.00841998
0.0083907
0.00835308
0.00833461
0.00833766
0.00835968
0.00838969
0.00841216
0.00842695
0.0084311
0.00842865
0.00842225
0.00841137
0.00839719
0.00837292
0.00832362
0.00825839
0.00822874
0.00816993
0.00802085
0.0078901
0.00813788
0.00656569
0.00683274
0.00690021
0.00709118
0.00715708
0.00690907
0.00730155
0.00709603
0.00746061
0.00730656
0.00758088
0.00748194
0.00779783
0.00763134
0.0080722
0.0078903
0.00820354
0.0081407
0.00826259
0.0083888
0.00831825
0.00836679
0.00840501
0.0083963
0.00641715
0.00837332
0.00805738
0.00833983
0.00839918
0.00842723
0.00843182
0.00843686
0.00843927
0.00843978
0.00843894
0.00843562
0.00842512
0.00840053
0.00836317
0.00833698
0.0083355
0.00835103
0.00838144
0.00840699
0.00842456
0.00843151
0.00843047
0.00842499
0.00841433
0.0083992
0.00837782
0.00833277
0.00826239
0.0082234
0.00814993
0.00791015
0.0081036
0.00805889
0.00763779
0.00690565
0.00716365
0.00702228
0.00725619
0.00715204
0.00703217
0.00713256
0.00712371
0.00732241
0.00727226
0.00750824
0.00737491
0.00768735
0.00754097
0.00797838
0.00776195
0.00816329
0.0080471
0.00823217
0.00838063
0.00829816
0.00832866
0.00835106
0.00833417
0.00589562
0.00784649
0.00808584
0.00835041
0.00840331
0.00842639
0.00843214
0.00843728
0.00844008
0.00844121
0.00844042
0.00843818
0.00842971
0.00840902
0.00837442
0.00834185
0.00833406
0.00834394
0.00837215
0.00840037
0.00842061
0.00843133
0.00843201
0.00842779
0.0084182
0.00840324
0.00838311
0.00834595
0.00827166
0.00819522
0.00812059
0.00821034
0.00806353
0.00788654
0.00772448
0.00712867
0.00712753
0.00715871
0.00710665
0.00701713
0.00690311
0.00728841
0.00708714
0.00716958
0.00725435
0.00726552
0.00730081
0.00742925
0.00729431
0.00757302
0.00743682
0.00785114
0.00762053
0.00810292
0.00790955
0.00815163
0.00830403
0.00821943
0.00823001
0.00805937
0.00814025
0.00537709
0.0072297
0.00811936
0.00835949
0.00840741
0.00842552
0.00843141
0.00843746
0.00844066
0.0084424
0.0084417
0.00844013
0.00843334
0.0084165
0.00838582
0.00834935
0.00833411
0.00833844
0.00836201
0.00839265
0.00841531
0.00842984
0.00843326
0.00843039
0.00842242
0.00840842
0.00838894
0.00835903
0.00829326
0.0081849
0.00806413
0.00816196
0.00836388
0.00764058
0.00810003
0.00716879
0.00724241
0.00718305
0.0072481
0.00711152
0.00717653
0.00705011
0.007183
0.0071327
0.00710279
0.00703983
0.00695992
0.0072687
0.00709474
0.00732436
0.00724005
0.00744111
0.00730952
0.00767713
0.00745825
0.00796759
0.00772456
0.00804378
0.00815775
0.00808242
0.00806892
0.00778686
0.00794971
0.00592516
0.00716162
0.00817083
0.0083677
0.0084122
0.00842445
0.00843118
0.00843788
0.00844127
0.00844312
0.00844269
0.00844164
0.00843622
0.0084225
0.00839639
0.00835953
0.0083355
0.008335
0.0083514
0.00838303
0.00840893
0.00842698
0.00843373
0.00843243
0.00842639
0.00841398
0.00839558
0.00837023
0.00831935
0.00821863
0.00805286
0.00811357
0.00831142
0.00796292
0.0078663
0.00734363
0.00732751
0.00738656
0.00755288
0.00727868
0.00745092
0.00716777
0.00718548
0.00715918
0.00717101
0.00712366
0.00715195
0.00705935
0.00715952
0.00713198
0.00711654
0.00721486
0.00715711
0.00729362
0.00719729
0.00747915
0.00729249
0.00777459
0.00749146
0.0078203
0.00793877
0.00784313
0.00778123
0.0074558
0.00758278
0.00600717
0.00710805
0.00827285
0.00837408
0.00841794
0.00842363
0.00843108
0.00843765
0.00844186
0.00844376
0.00844371
0.00844274
0.00843862
0.00842773
0.00840574
0.00837092
0.00833949
0.00833268
0.00834287
0.0083718
0.00840116
0.00842206
0.00843294
0.00843374
0.00842965
0.00841926
0.00840269
0.00837996
0.00834245
0.00825381
0.00811211
0.00809542
0.00826451
0.00812311
0.00767818
0.00804011
0.00768534
0.00764747
0.0076541
0.00780737
0.00752007
0.00773964
0.00721219
0.00732649
0.0071819
0.00725712
0.00716572
0.00721553
0.00717798
0.0072016
0.00716203
0.00720881
0.00716274
0.00718297
0.007181
0.00715683
0.00728995
0.0071781
0.00751269
0.00727861
0.0075362
0.00756332
0.00752401
0.00742818
0.00723795
0.00723363
0.0060275
0.00724513
0.0083889
0.00841831
0.00842336
0.00843127
0.00843787
0.00844248
0.00844437
0.00844446
0.00844357
0.00844022
0.00843156
0.00841342
0.00838249
0.00834678
0.00833206
0.00833634
0.00835965
0.00839159
0.00841556
0.00843115
0.00843458
0.00843215
0.00842407
0.00840966
0.00838915
0.00836031
0.00829238
0.00816868
0.0081255
0.00822117
0.00816766
0.00798246
0.00802455
0.00765878
0.00754119
0.00787221
0.00787376
0.00789514
0.00796469
0.00780196
0.00796105
0.00739277
0.00757674
0.00732199
0.0074734
0.00727278
0.00739867
0.00725949
0.00734753
0.0072382
0.00731883
0.00718706
0.00726044
0.00715199
0.00719656
0.00716406
0.00715339
0.00728072
0.00714824
0.00728438
0.00726804
0.00725482
0.0071232
0.00708258
0.00685215
0.006081
0.00738026
0.0083848
0.0084242
0.00843182
0.0084383
0.0084426
0.00844458
0.00844486
0.00844424
0.00844115
0.00843444
0.0084198
0.00839302
0.00835697
0.00833349
0.00833253
0.00834782
0.00837969
0.00840745
0.00842745
0.00843434
0.00843384
0.00842823
0.00841612
0.00839791
0.00837379
0.00832565
0.00822335
0.00814395
0.00818968
0.00812688
0.00806371
0.00806821
0.00733764
0.00714758
0.00790669
0.00780122
0.00797318
0.00795298
0.00803219
0.00804124
0.00798724
0.00807104
0.00765993
0.00782654
0.00755334
0.00770696
0.00747046
0.00760618
0.0074146
0.00751375
0.0073574
0.00745311
0.00727813
0.00738072
0.00720504
0.00729823
0.0071407
0.00721545
0.00714901
0.00696678
0.00702163
0.00671201
0.00687774
0.00472032
0.00489841
0.00705041
0.00661807
0.00636523
0.00752618
0.00836361
0.008433
0.00843872
0.00844271
0.0084447
0.00844508
0.00844458
0.00844163
0.00843617
0.00842458
0.00840207
0.00836827
0.00833778
0.00833016
0.00833878
0.0083664
0.00839721
0.00842076
0.00843345
0.0084345
0.00843128
0.0084217
0.00840597
0.00838506
0.00835089
0.00826691
0.00817769
0.00815607
0.00810969
0.00801315
0.00800913
0.00789373
0.00764637
0.00743335
0.00797101
0.00790663
0.00802396
0.00800145
0.0080889
0.00807222
0.00806565
0.00811175
0.00785135
0.00797163
0.00772987
0.00783703
0.0076181
0.00772259
0.00754024
0.00762378
0.00748158
0.00756694
0.00740436
0.00750477
0.00731768
0.00723639
0.00704143
0.00715697
0.00686595
0.00471377
0.00483932
0.00482081
0.00465576
0.00460818
0.00473228
0.00465507
0.00466787
0.00467846
0.00462406
0.00447294
0.00671049
0.00449164
0.00443424
0.00446199
0.00609064
0.00722607
0.00835049
0.00843964
0.00844281
0.00844478
0.00844524
0.0084446
0.00844174
0.00843707
0.00842791
0.00840939
0.00837898
0.00834532
0.00832973
0.00833251
0.00835282
0.008385
0.00841161
0.00843042
0.00843437
0.00843304
0.00842611
0.00841303
0.00839502
0.00836915
0.00831028
0.00820085
0.00810787
0.00810871
0.00799202
0.00793754
0.00802077
0.00703329
0.00694549
0.00777986
0.00750016
0.00801746
0.00798771
0.00804902
0.00803195
0.00810774
0.00808418
0.00810544
0.00813329
0.00793592
0.00802959
0.00781649
0.00789939
0.00770924
0.00778705
0.00763268
0.00768339
0.00757986
0.00762587
0.00732692
0.00739434
0.0071434
0.00529925
0.00517143
0.00480481
0.00490683
0.00506511
0.00499916
0.00473857
0.00468422
0.00476852
0.00465563
0.00450848
0.0044477
0.00440581
0.00447286
0.00450629
0.00452083
0.00448474
0.00433011
0.00468831
0.00448061
0.0043436
0.00427917
0.00631688
0.00466596
0.00451561
0.00528482
0.00834048
0.00844342
0.00844451
0.00844519
0.00844426
0.00844153
0.00843717
0.00842962
0.00841483
0.00838819
0.00835471
0.0083314
0.0083287
0.00834082
0.00837043
0.00840071
0.00842368
0.00843369
0.00843339
0.0084293
0.00841891
0.00840346
0.00838263
0.00834208
0.00825182
0.0080583
0.00805189
0.00799865
0.00789049
0.00791356
0.00783641
0.00736948
0.00726434
0.0079115
0.00763976
0.00804507
0.00803491
0.00806475
0.00805374
0.00811548
0.00809064
0.00811977
0.00813736
0.00797738
0.00805488
0.00784926
0.00790777
0.00773073
0.0077791
0.00765131
0.0076737
0.00743847
0.0074689
0.00522713
0.00527466
0.00532109
0.00535527
0.00513236
0.00517081
0.0052079
0.0050998
0.00475621
0.00486388
0.00500162
0.00494395
0.00468224
0.00457006
0.00467714
0.00476201
0.00459083
0.00445825
0.00441419
0.00452799
0.00458906
0.00458589
0.00452468
0.00424252
0.00429055
0.00435866
0.00430264
0.00502576
0.00501386
0.00610212
0.00414068
0.00443229
0.00833174
0.0084449
0.00844474
0.00844368
0.00844101
0.00843683
0.00843033
0.0084183
0.00839579
0.00836425
0.00833599
0.00832596
0.00833192
0.00835517
0.00838717
0.00841405
0.00843033
0.00843306
0.00843102
0.00842325
0.00841047
0.00839363
0.00836542
0.00830202
0.00819416
0.00795138
0.00800534
0.00788478
0.00783498
0.00793057
0.00708698
0.00695558
0.00767844
0.00742056
0.0080069
0.00792357
0.00807467
0.00806896
0.00808046
0.00807796
0.00811549
0.00809768
0.0081231
0.0081373
0.00797888
0.00805816
0.0078285
0.00789264
0.00770775
0.00775451
0.00749233
0.00752167
0.00539136
0.00542086
0.00545326
0.00547304
0.00514727
0.00519402
0.00523394
0.00526701
0.00505797
0.00509539
0.00499245
0.00488074
0.00485209
0.00494108
0.0050453
0.00500189
0.00478771
0.00467006
0.00477818
0.00486282
0.00469314
0.00449779
0.00445463
0.00460803
0.00468303
0.004693
0.00459411
0.00427362
0.00429329
0.00440309
0.00435366
0.00531887
0.0050177
0.00635992
0.00435363
0.00450665
0.00832365
0.00844478
0.0084425
0.00843978
0.00843603
0.0084305
0.00842006
0.00840117
0.00837291
0.00834314
0.0083259
0.00832586
0.00834116
0.00837159
0.00840218
0.00842373
0.00843206
0.00843128
0.00842626
0.0084159
0.00840276
0.00838277
0.00833967
0.00825165
0.00800108
0.0079718
0.00789754
0.00779597
0.00782277
0.0078102
0.00747793
0.00727159
0.00793617
0.00773829
0.00805713
0.00802494
0.00810161
0.00810092
0.00809675
0.00809936
0.00811573
0.00810702
0.00813237
0.00813832
0.00797557
0.00806625
0.00781294
0.0078916
0.00770064
0.00775147
0.0054979
0.00552622
0.00556338
0.00589674
0.00529524
0.00532027
0.00534001
0.00535272
0.00501017
0.00521415
0.00525193
0.00528059
0.00509638
0.00491011
0.00513313
0.00474838
0.00493237
0.00500093
0.00509252
0.00504991
0.00488774
0.00478609
0.00487976
0.00495035
0.00480474
0.00456685
0.00452529
0.00470806
0.00479389
0.00481897
0.00468813
0.00433078
0.00434899
0.00447345
0.00442775
0.00539182
0.00530974
0.0064265
0.00438572
0.00457983
0.00831559
0.00844208
0.00843787
0.00843403
0.00842973
0.00842035
0.00840375
0.00837913
0.00835083
0.00832848
0.00832195
0.00833035
0.00835531
0.00838804
0.00841408
0.00842841
0.00843153
0.00842824
0.00841998
0.00840952
0.00839563
0.00836722
0.00830542
0.00819968
0.00791849
0.00792634
0.00779081
0.00774963
0.00786568
0.00709367
0.0069492
0.00773033
0.00750628
0.00800497
0.00787413
0.00809333
0.0080752
0.00812297
0.00812614
0.00811216
0.00811725
0.00811693
0.00811559
0.00813848
0.00814076
0.00798534
0.00807948
0.00781842
0.00790274
0.00752305
0.00761814
0.00536254
0.00538629
0.00527661
0.00544784
0.00530289
0.00531976
0.00533026
0.0053321
0.00497873
0.00523956
0.00527187
0.005293
0.00514521
0.00488058
0.00518423
0.00466132
0.00499739
0.00505257
0.00515545
0.00510384
0.00497273
0.00490249
0.00497118
0.0050275
0.00491033
0.00466019
0.00461986
0.00481686
0.0049179
0.00494422
0.00480059
0.00440272
0.00440313
0.00456842
0.00451838
0.00566919
0.00535947
0.00608423
0.00427313
0.00490259
0.00830663
0.00843736
0.00843145
0.00842703
0.00841933
0.00840406
0.00838149
0.00835543
0.00833191
0.0083192
0.00832162
0.0083396
0.00837027
0.00840072
0.00841987
0.00842945
0.00842897
0.00842264
0.00841348
0.00840416
0.00838674
0.00834518
0.00826061
0.0080829
0.00796064
0.00780819
0.00771237
0.00775341
0.0078136
0.00743144
0.00723036
0.00791394
0.00779587
0.00808743
0.00799686
0.00812115
0.0081093
0.00813759
0.00814241
0.00812359
0.00813043
0.00812478
0.00812732
0.0081357
0.00814239
0.00799452
0.00808097
0.00767477
0.00788211
0.00559291
0.00563104
0.00578383
0.00571198
0.00533081
0.00534402
0.00536008
0.00539988
0.00530567
0.00531155
0.00531007
0.00529949
0.00494394
0.00526744
0.005291
0.00530162
0.00521145
0.00485072
0.00525165
0.00488213
0.00505971
0.00511119
0.00523753
0.00517431
0.00504049
0.00500432
0.00505622
0.00509725
0.00500974
0.00477557
0.0047311
0.00493296
0.00503909
0.00505488
0.00492829
0.00448185
0.00445311
0.00468109
0.0046234
0.00583282
0.00418699
0.00584686
0.00429501
0.0052335
0.0082969
0.00843068
0.00842331
0.00841612
0.00840308
0.00838159
0.00835662
0.00833322
0.00831742
0.00831385
0.00832511
0.00835067
0.00838213
0.00840648
0.00842112
0.00842752
0.00842287
0.00841501
0.00840699
0.00839824
0.00837263
0.00831317
0.00799767
0.00798824
0.00785547
0.00770645
0.0076788
0.00783227
0.00716012
0.0070434
0.00772743
0.00749228
0.00801658
0.0079433
0.00811462
0.00808428
0.00814006
0.00813094
0.0081486
0.00815494
0.00813544
0.0081413
0.00813123
0.0081361
0.00811787
0.00813224
0.00796935
0.00805601
0.00587515
0.00637672
0.00783415
0.00540532
0.00545665
0.00563115
0.00554172
0.00528683
0.00528948
0.00531028
0.00535642
0.00530272
0.00529651
0.00528349
0.00526143
0.00527153
0.00529876
0.00531121
0.00531103
0.00529472
0.00522428
0.00533508
0.00524978
0.00513165
0.0051897
0.00533977
0.0052684
0.00510899
0.0050918
0.00514238
0.00517572
0.00510134
0.00490136
0.00486007
0.00505754
0.00514399
0.00516182
0.00505665
0.00456249
0.00444044
0.00480352
0.00473365
0.00572125
0.00578323
0.005806
0.00470824
0.00534802
0.00828588
0.0084209
0.0084103
0.00839874
0.00837973
0.00835575
0.00833229
0.00831414
0.00830651
0.00831239
0.00833228
0.00836205
0.00838929
0.00840795
0.00842117
0.008422
0.00841542
0.00840752
0.00840208
0.00839005
0.00835151
0.00813078
0.00750051
0.0079256
0.00772896
0.00763818
0.00770885
0.0078219
0.00744902
0.00715887
0.00797767
0.00784281
0.00807284
0.00803358
0.0081255
0.0081026
0.00815395
0.00814293
0.00816363
0.00813641
0.00814656
0.00815483
0.00812221
0.0081283
0.00807996
0.00809361
0.00776899
0.00801994
0.00573063
0.00627495
0.00620756
0.00625785
0.00557533
0.0056578
0.00585238
0.00575986
0.00525973
0.00528783
0.00536882
0.00548039
0.0053023
0.00528548
0.00527386
0.00528821
0.00531811
0.00533866
0.00534309
0.00533217
0.00539543
0.00535879
0.00543833
0.00537421
0.00522843
0.00529924
0.00546616
0.00538974
0.00519194
0.00516874
0.0052338
0.00527493
0.00519473
0.00503927
0.00499588
0.00517925
0.00524404
0.00526839
0.00518771
0.00464607
0.00459071
0.00493239
0.00484358
0.00541139
0.00564633
0.00614459
0.0051083
0.00531283
0.00827129
0.0084041
0.0083893
0.00837196
0.00835036
0.00832651
0.00830538
0.00829339
0.00829481
0.00831136
0.00834021
0.00837007
0.00839302
0.00841001
0.00841937
0.00841549
0.00840922
0.00840367
0.00839832
0.00837728
0.00832021
0.0071597
0.00799915
0.00778893
0.00763088
0.00762526
0.00783398
0.00710225
0.0070636
0.00769869
0.00721251
0.00803584
0.0079763
0.00809702
0.00807423
0.00813193
0.00811383
0.00792478
0.008152
0.0081546
0.00767819
0.00814473
0.00816141
0.00808457
0.00809328
0.00775415
0.00801598
0.00632218
0.00686527
0.0079325
0.00594927
0.00606169
0.00634813
0.0063939
0.00585229
0.0059365
0.00611738
0.00603388
0.00538215
0.00550896
0.00563309
0.00575468
0.00531087
0.00531439
0.00538483
0.00551605
0.00538276
0.00539632
0.00538826
0.00536274
0.0055241
0.0054632
0.00556812
0.00547209
0.00535729
0.00544284
0.00562553
0.00554144
0.00529702
0.0052594
0.00534942
0.00540179
0.00530295
0.00517471
0.00513587
0.00529746
0.00534755
0.00538108
0.00531457
0.00475683
0.00498621
0.00505991
0.00495795
0.00553854
0.00652435
0.00654626
0.00526011
0.00541106
0.00824997
0.00837677
0.00835765
0.00833656
0.00831407
0.00828905
0.00827055
0.00826453
0.00827587
0.0083053
0.00834233
0.00837341
0.00839555
0.00841107
0.00841324
0.00840958
0.00840586
0.0084025
0.00839274
0.00835754
0.00764645
0.00784614
0.00788259
0.00765592
0.00758048
0.00770013
0.00782648
0.00699933
0.00694136
0.00796893
0.00768303
0.00806108
0.00801918
0.00811499
0.00809416
0.00814456
0.00812889
0.00722273
0.00816229
0.00813035
0.00765658
0.00811826
0.00814144
0.00801264
0.00802804
0.00629718
0.00662517
0.0076965
0.00641558
0.00694197
0.00631776
0.00635667
0.00619915
0.00629434
0.0065381
0.00653791
0.00611193
0.00619164
0.00635103
0.0062768
0.00566525
0.00580212
0.00591481
0.00602325
0.0053688
0.00547081
0.00563665
0.00579603
0.00547073
0.0054722
0.00545545
0.0054493
0.00569308
0.00559909
0.0057494
0.00560448
0.00551875
0.00562476
0.00584061
0.00573496
0.0054405
0.00537912
0.00550245
0.00557129
0.00543364
0.00530595
0.0052735
0.00541606
0.00547024
0.00550271
0.00543209
0.00500561
0.00526289
0.00518686
0.0051158
0.00571831
0.00649381
0.00688343
0.00539154
0.0055339
0.00821941
0.00833793
0.00831828
0.00829694
0.0082747
0.00824988
0.00823209
0.0082305
0.00825072
0.00829081
0.00833753
0.00837169
0.00839443
0.00840409
0.00840412
0.00840483
0.00840406
0.00840055
0.00837067
0.00807882
0.00764801
0.00789116
0.00771754
0.00756895
0.00760697
0.00778193
0.00689213
0.0070839
0.00728329
0.00670816
0.00801586
0.00797464
0.00807365
0.00804619
0.00812827
0.00810216
0.00816151
0.00814781
0.00738597
0.00817285
0.00814105
0.00817139
0.00806199
0.00810489
0.00759393
0.00795263
0.00624811
0.0066241
0.0058443
0.00583206
0.00652268
0.00648664
0.00624577
0.00627317
0.00642485
0.0065017
0.00659656
0.00653488
0.00632712
0.00640188
0.00653712
0.00647323
0.00592557
0.00604406
0.00614476
0.0062441
0.00553113
0.00569102
0.00586203
0.00599262
0.0055977
0.00559723
0.00559748
0.0056184
0.00594485
0.00580042
0.0060387
0.00582691
0.00572295
0.00586363
0.00613518
0.0060015
0.00563816
0.00553678
0.00568913
0.00579819
0.00559058
0.0054408
0.00540531
0.00553211
0.00560838
0.00563434
0.00556201
0.00531199
0.00547197
0.00531613
0.00537545
0.00597473
0.00563117
0.00720462
0.00554009
0.0057037
0.0081796
0.00829229
0.00827837
0.00826462
0.00824402
0.00822035
0.00820192
0.00820176
0.0082261
0.0082718
0.00832326
0.00836219
0.00838301
0.00839015
0.00839608
0.00840171
0.0082613
0.00837003
0.00835297
0.00742609
0.00788081
0.00780895
0.00758763
0.0075511