/*--------------------------------*- C++ -*----------------------------------*\
  =========                 |
  \\      /  F ield         | OpenFOAM: The Open Source CFD Toolbox
   \\    /   O peration     | Website:  https://openfoam.org
    \\  /    A nd           | Version:  dev
     \\/     M anipulation  |
\*---------------------------------------------------------------------------*/
FoamFile
{
    version     2.0;
    format      ascii;
    class       volScalarField;
    location    "2500";
    object      rDeltaT;
}
// * * * * * * * * * * * * * * * * * * * * * * * * * * * * * * * * * * * * * //

dimensions      [0 0 -1 0 0 0 0];

internalField   nonuniform List<scalar> 
9848
(
100
100
100
100
100
100
100
100
100
100
100
100
100
100
100
100
100
100
100
100
100
100
100
100
100
100
100
100
100
100
100
100
100
100
100
100
100
100
100
100
100
100
100
100
100
100
100
100
100
100
100
100
100
100
100
100
100
100
100
100
100
100
100
100
100
100
100
100
100
100
100
100
100
100
100
100
100
100
100
100
100
100
100
100
100
100
100
100
100
100
100
100
100
100
100
100
100
100
100
100
100
100
100
100
100
100
100
100
100
100
100
100
100
100
100
100
100
100
100
100
100
100
100
100
100
100
100
100
100
100
100
100
100
100
100
100
100
100
100
100
100
100
100
100
100
100
100
100
100
100
100
100
100
100
100
100
100
100
100
100
100
100
100
100
100
100
100
100
100
100
100
100
100
100
100
100
100
100
100
100
100
100
100
100
100
100
100
100
100
100
100
100
100
100
100
100
100
100
100
100
100
100
100
100
100
100
100
100
100
100
100
100
100
100
100
100
100
100
100
100
100
100
100
100
100
100
100
100
100
100
100
100
100
100
100
100
100
100
100
100
100
100
100
100
100
100
100
100
100
100
100
100
100
100
100
100
100
100
100
100
100
100
100
100
100
100
100
100
100
100
100
100
100
100
100
100
100
100
100
100
100
100
100
100
100
100
100
100
100
100
100
100
100
100
100
100
100
100
100
100
100
100
100
100
100
100
100
100
100
100
100
100
100
100
100
100
100
100
100
100
100
100
100
100
100
100
100
100
100
100
100
100
100
100
100
100
100
100
100
100
100
100
100
100
100
100
100
100
100
100
100
100
100
100
100
100
100
100
100
100
100
100
100
100
100
100
100
100
100
100
100
100
100
100
100
100
100
100
100
100
100
100
100
100
100
100
100
100
100
100
100
100
100
100
100
100
100
100
100
100
100
100
100
100
100
100
100
100
100
100
100
100
100
100
100
100
100
100
100
100
100
100
100
100
100
100
100
100
100
100
100
100
100
100
100
100
100
100
100
100
100
100
100
100
100
100
100
100
100
100
100
100
100
100
100
100
100
100
100
100
100
100
100
100
100
100
100
100
100
100
100
100
100
100
100
100
100
100
100
100
100
100
100
100
100
100
100
100
100
100
100
100
100
100
100
100
100
100
100
100
100
100
100
100
100
100
100
100
100
100
100
100
100
100
100
100
100
100
100
100
100
100
100
100
100
100
100
100
100
100
100
100
100
100
100
100
100
100
100
100
100
100
100
100
100
100
100
100
100
100
100
100
100
100
100
100
100
100
100
100
100
100
100
100
100
100
100
100
100
100
100
100
100
100
100
100
100
100
100
100
100
100
100
100
100
100
100
100
100
100
100
100
100
100
100
100
100
100
100
100
100
100
100
100
100
100
100
100
100
100
100
100
100
100
100
100
100
100
100
100
100
100
100
100
100
100
100
100
100
100
100
100
100
100
100
100
100
100
100
100
100
100
100
100
100
100
100
100
100
100
100
100
100
100
100
100
100
100
100
100
100
100
100
100
100
100
100
100
100
100
100
100
100
100
100
100
100
100
100
100
100
100
100
100
100
100
100
100
100
100
100
100
100
100
100
100
100
100
100
100
100
100
100
100
100
100
100
100
100
100
100
100
100
100
100
100
100
100
100
100
100
100
100
100
100
100
100
100
100
100
100
100
100
100
100
100
100
100
100
100
100
100
100
100
100
100
100
100
100
100
100
100
100
100
100
100
100
100
100
100
100
100
100
100
100
100
100
100
100
100
100
100
100
100
100
100
100
100
100
100
100
100
100
100
100
100
100
100
100
100
100
100
100
100
100
100
100
100
100
100
100
100
100
100
100
100
100
100
100
100
100
100
100
100
100
100
100
100
100
100
100
100
100
100
100
100
100
100
100
100
100
100
100
100
100
100
100
100
100
100
100
100
100
100
100
100
100
100
100
100
100
100
100
100
100
100
100
100
100
100
100
100
100
100
100
100
100
100
100
100
100
100
100
100
100
100
100
100
100
100
100
100
100
100
100
100
100
100
100
100
100
100
100
100
100
100
100
100
100
100
100
100
100
100
100
100
100
100
100
100
100
100
100
100
100
100
100
100
100
100
100
100
100
100
100
100
100
100
100
100
100
100
100
100
100
100
100
100
100
100
100
100
100
100
100
100
100
100
100
100
100
100
100
100
100
100
100
100
100
100
100
100
100
100
100
100
100
100
100
100
100
100
100
100
100
100
100
100
100
100
100
100
100
100
100
100
100
100
100
100
100
100
100
100
100
100
100
100
100
100
100
100
100
100
100
100
100
100
100
100
100
100
100
100
100
100
100
100
100
100
100
100
100
100
100
100
100
100
100
100
100
100
100
100
100
100
100
100
100
100
100
100
100
100
100
100
100
100
100
100
100
100
100
100
100
100
100
100
100
100
100
100
100
100
100
100
100
100
100
100
100
100
100
100
100
100
100
100
100
100
100
100
100
100
100
100
100
100
100
100
100
100
100
100
100
100
100
100
100
100
100
100
100
100
100
100
100
100
100
100
100
100
100
100
100
100
100
100
100
100
100
100
100
100
100
100
100
100
100
100
100
100
100
100
100
100
100
100
100
100
100
100
100
100
100
100
100
100
100
100
100
100
100
100
100
100
100
100
100
100
100
100
100
100
100
100
100
100
100
100
100
100
100
100
100
100
100
100
100
100
100
100
100
100
100
100
100
100
100
100
100
100
100
100
100
100
100
100
100
100
100
100
100
100
100
100
100
100
100
100
100
100
100
100
100
100
100
100
100
100
100
100
100
100
100
100
100
100
100
100
100
100
100
100
100
100
100
100
100
100
100
100
100
100
100
100
100
100
100
100
100
100
100
100
100
100
100
100
100
100
100
100
100
100
100
100
100
100
100
100
100
100
100
100
100
100
100
100
100
100
100
100
100
100
100
100
100
100
100
100
100
100
100
100
100
100
100
100
100
100
100
100
100
100
100
100
100
100
100
100
100
100
100
100
100
100
100
100
100
100
100
100
100
100
100
100
100
100
100
100
100
100
100
100
100
100
100
100
100
100
100
100
100
100
100
100
100
100
100
100
100
100
100
100
100
100
100
100
100
100
100
100
100
100
100
100
100
100
100
100
100
100
100
100
100
100
100
100
100
100
100
100
100
100
100
100
100
100
100
100
100
100
100
100
100
100
100
100
100
100
100
100
100
100
100
100
100
100
100
100
100
100
100
100
100
100
100
100
100
100
100
100
100
100
100
100
100
100
100
100
100
100
100
100
100
100
100
100
100
100
100
100
100
100
100
100
100
100
100
100
100
100
100
100
100
100
100
100
100
100
100
100
100
100
100
100
100
100
100
100
100
100
100
100
100
100
100
100
100
100
100
100
100
100
100
100
100
100
100
100
100
100
100
100
100
100
100
100
100
100
100
100
100
100
100
100
100
100
100
100
100
100
100
100
100
100
100
100
100
100
100
100
100
100
100
100
100
100
100
100
100
100
100
100
100
100
100
100
100
100
100
100
100
100
100
100
100
100
100
100
100
100
100
100
100
100
100
100
100
100
100
100
100
100
100
100
100
100
100
100
100
100
100
100
100
100
100
100
100
100
100
100
100
100
100
100
100
100
100
100
100
100
100
100
100
100
100
100
100
100
100
100
100
100
100
100
100
100
100
100
100
100
100
100
100
100
100
100
100
100
100
100
100
100
100
100
100
100
100
100
100
100
100
100
100
100
100
100
100
100
100
100
100
100
100
100
100
100
100
100
100
100
100
100
100
100
100
100
100
100
100
100
100
100
100
100
100
100
100
100
100
100
100
100
100
100
100
100
100
100
100
100
100
100
100
100
100
100
100
100
100
100
100
100
100
100
100
100
100
100
100
100
100
100
100
100
100
100
100
100
100
100
100
100
100
100
100
100
100
100
100
100
100
100
100
100
100
100
100
100
100
100
100
100
100
100
100
100
100
100
100
100
100
100
100
100
100
100
100
100
100
100
100
100
100
100
100
100
100
100
100
100
100
100
100
100
100
100
100
100
100
100
100
100
100
100
100
100
100
100
100
100
100
100
100
100
100
100
100
100
100
100
100
100
100
100
100
100
100
100
100
100
100
100
100
100
100
100
100
100
100
100
100
100
100
100
100
100
100
100
100
100
100
100
100
100
100
100
100
100
100
100
100
100
100
100
100
100
100
100
100
100
100
100
100
100
100
100
100
100
100
100
100
100
100
100
100
100
100
100
100
100
100
100
100
100
100
100
100
100
100
100
100
100
100
100
100
100
100
100
100
100
100
100
100
100
100
100
100
100
100
100
100
100
100
100
100
100
100
100
100
100
100
100
100
100
100
100
100
100
100
100
100
100
100
100
100
100
100
100
100
100
100
100
100
100
100
100
100
100
100
100
100
100
100
100
100
100
100
100
100
100
100
100
100
100
100
100
100
100
100
100
100
100
100
100
100
100
100
100
100
100
100
100
100
100
100
100
100
100
100
100
100
100
100
100
100
100
100
100
100
100
100
100
100
100
100
100
100
100
100
100
100
100
100
100
100
100
100
100
100
100
100
100
100
100
100
100
100
100
100
100
100
100
100
100
100
100
100
100
100
100
100
100
100
100
100
100
100
100
100
100
100
100
100
100
100
100
100
100
100
100
100
100
100
100
100
100
100
100
100
100
100
100
100
100
100
100
100
100
100
100
100
100
100
100
100
100
100
100
100
100
100
100
100
100
100
100
100
100
100
100
100
100
100
100
100
100
100
100
100
100
100
100
100
100
100
100
100
100
100
100
100
100
100
100
100
100
100
100
100
100
100
100
100
100
100
100
100
100
100
100
100
100
100
100
100
100
100
100
100
100
100
100
100
100
100
100
100
100
100
100
100
100
100
100
100
100
100
100
100
100
100
100
100
100
100
100
100
100
100
100
100
100
100
100
100
100
100
100
100
100
100
100
100
100
100
100
100
100
100
100
100
100
100
100
100
100
100
100
100
100
100
100
100
100
100
100
100
100
100
100
100
100
100
100
100
100
100
100
100
100
100
100
100
100
100
100
100
100
100
100
100
100
100
100
100
100
100
100
100
100
100
100
100
100
100
100
100
100
100
100
100
100
100
100
100
100
100
100
100
100
100
100
100
100
100
100
100
100
100
100
100
100
100
100
100
100
100
100
100
100
100
100
100
100
100
100
100
100
100
100
100
100
100
100
100
100
100
100
100
100
100
100
100
100
100
100
100
100
100
100
100
100
100
100
100
100
100
100
100
100
100
100
100
100
100
100
100
100
100
100
100
100
100
100
100
100
100
100
100
100
100
100
100
100
100
100
100
100
100
100
100
100
100
100
100
100
100
100
100
100
100
100
100
100
100
100
100
100
100
100
100
100
100
100
100
100
100
100
100
100
100
100
100
100
100
100
100
100
100
100
100
100
100
100
100
100
100
100
100
100
100
100
100
100
100
100
100
100
100
100
100
100
100
100
100
100
100
100
100
100
100
100
100
100
100
100
100
100
100
100
100
100
100
100
100
100
100
100
100
100
100
100
100
100
100
100
100
100
100
100
100
100
100
100
100
100
100
100
100
100
100
100
100
100
100
100
100
100
100
100
100
100
100
100
100
100
100
100
100
100
100
100
100
100
100
100
100
100
100
100
100
100
100
100
100
100
100
100
100
100
100
100
100
100
100
100
100
100
100
100
100
100
100
100
100
100
100
100
100
100
100
100
100
100
100
100
100
100
100
100
100
100
100
100
100
100
100
100
100
100
100
100
100
100
100
100
100
100
100
100
100
100
100
100
100
100
100
100
100
100
100
100
100
100
100
100
100
100
100
100
100
100
100
100
100
100
100
100
100
100
100
100
100
100
100
100
100
100
100
100
100
100
100
100
100
100
100
100
100
100
100
100
100
100
100
100
100
100
100
100
100
100
100
100
100
100
100
100
100
100
100
100
100
100
100
100
100
100
100
100
100
100
100
100
100
100
100
100
100
100
100
100
100
100
100
100
100
100
100
100
100
100
100
100
100
100
100
100
100
100
100
100
100
100
100
100
100
100
100
100
100
100
100
100
100
100
100
100
100
100
100
100
100
100
100
100
100
100
100
100
100
100
100
100
100
100
100
100
100
100
100
100
100
100
100
100
100
100
100
100
100
100
100
100
100
100
100
100
100
100
100
100
100
100
100
100
100
100
100
100
100
100
100
100
100
100
100
100
100
100
100
100
100
100
100
100
100
100
100
100
100
100
100
100
100
101.793
100
100
102.462
113.851
108.534
100.192
100
107.333
107.564
103.248
100
100
100
105.759
106.737
100
100
100
100
100
100
100
100
100
100
100
100
100
100
100
100
100
100
100
100
100
100
100
100
100
100
100
100
100
100
100
100
100
100
100
100
100
100
100
100
100
100
100
100
100
100
100
100
100
100
100
100
100
100
100
100
100
100
100
100
100
100
100
100
100
100
100
100
100
100
100
100
100
100
100
100
100
100
100
100
101.414
103.657
102.868
105.205
105.9
105.071
118.681
107.327
123.742
113.206
114.635
121.406
134.766
128.315
114.176
110.713
118.918
121.387
114.165
100
100
105.721
116.375
116.005
105.047
100
100
100
100
100
100
100
100
100
100
100
100
100
100
100
100
100
100
100
100
100
100
100
100
100
100
100
100
100
100
100
100
100
100
100
100
100
100
100
100
100
100
100
100
100
100
100
100
100
100
100
100
100
100
100
100
100
100
100
100
100
100
100
100
100
100
100
100
100
100
100
100
100
100
104.461
102.185
100
100
106.853
110.579
112.977
113.682
117.121
119.655
121.727
121.875
140.754
129.383
147.338
135.058
129.497
137.129
154.089
145.126
126.792
122.946
133.204
135.254
126.694
104.254
101.538
116.686
128.893
132.24
117.475
100
100
100
100
100
100
100
100
100
100
100
100
100
100
100
100
100
100
100
100
100
100
100
100
100
100
100
100
100
100
100
100
100
100
100
100
100
100
100
100
100
100
100
100
100
100
100
100
100
100
100
100
100
100
100
100
100
100
100
100
100
100
100
100
100
100
100
100
100
103.228
101.285
104.858
105.227
104.782
105.196
113.317
109.528
104.054
103.963
123.249
124.411
124.792
123.643
138.112
140.236
142.281
142.724
161.995
155.284
170.272
161.826
146.709
160.206
188.703
174.671
145.288
140.084
157.006
160.538
146.258
116.191
112.343
134.311
153.319
156.58
134.42
100
100
108.082
102.401
100
104.213
100
100
100
100
100
100
100
100
100
100
100
100
100
100
100
100
100
100
100
100
100
100
100
100
100
100
100
100
100
100
100
100
100
100
100
100
100
100
100
100
100
100
100
100
100
100
100
100
100
100
100
100
100
100
100.838
100
100.424
100
100.907
100
103.544
105.313
103.434
103.75
112.03
110.264
114.225
114.826
113.76
114.743
120.834
114.916
112.195
113.371
142.464
141.082
138.283
132.904
165.343
166.988
167.501
166.964
196.614
181.396
201.282
191.626
178.747
196.924
219.936
212.045
175.745
169.303
193.026
196.673
178.869
130.962
127.097
156.717
181.935
182.113
153.976
100
100
121.723
113.925
100
128.72
110.645
100
100
100
100
100
100
100
100
100
100
100
100
100
100
100
100
100
100
100
100
100
100
100
100
100
100
100
100
100
100
100
100
100
100
100
100
100
100
100
100
100
100
100
100
100
100
100
100
100
100
100
100
100
100
100
109.675
105.37
110.129
103.156
109.982
108.123
113.155
114.818
112.8
113.311
120.891
120.077
124.188
124.838
123.619
124.738
127.783
123.439
123.359
123.693
166.723
165.114
161.045
154.199
194.981
195.967
196.177
194.775
214.988
214.903
222.225
225.031
212.657
222.565
238.545
229.931
212.492
205.226
227.823
227.175
208.918
150.042
144.164
179.085
208.648
206.818
175.754
107.567
100
136.051
130.065
103.64
130.363
110.267
100
104.607
100
100
100
100
100
100
100
100
100
100
100
100
100
100
100
100
100
100
100
100
100
100
100
100
100
100
100
100
100
100
100
100
100
100
100
100
100
100
100
100
100
100
100
100
100
100
100
100
100
100
100
100
100
100
119.845
115.584
120.411
112.794
119.381
117.091
123.724
125.898
122.955
122.919
130.93
131.279
136.03
136.185
134.578
135.464
147.282
142.104
138.811
136.907
195.691
196.992
196.028
193.788
223.856
227.619
226.335
224.225
251.361
240.147
268.027
256.603
231.024
241.212
151.74
274.522
230.798
234.104
237.87
246.307
234.008
170.279
162.542
204.101
234.009
232.914
200.971
123.052
117.909
155.089
145.045
114.361
161.708
159.413
120.394
132.071
100
100
100
100
100
100
100
100
100
100
100
100
100
100
100
100
100
100
100
100
100
100
100
100
100
100
100
100
100
100
100
100
100
100
100
100
100
100
100
100
100
100
100
100
100
100
100
100
100
100
104.337
100
100
100
131.47
126.719
131.6
123.828
129.767
127.79
135.339
137.676
133.622
132.969
142.157
142.779
153.455
151.849
148.339
149.526
186.863
175.308
164.267
157.537
223.985
226.398
229.417
231.486
260.66
266.892
261.858
261.941
295.702
279.807
308.563
161.339
268.355
154.236
179.489
323.919
278.799
241.57
152.052
161.057
242.775
194.866
186.163
233.634
242.343
245.689
230.528
140.212
139.789
172.542
163.26
159.073
183.039
180.039
144.756
158.566
100
100
100
100
100
100
100
100
100
100
100
100
100
100
100
100
100
100
100
100
100
100
100
100
100
100
100
100
100
100
100
100
100
100
100
100
100
100
100
100
100
100
100
100
100
100
100
100
100
100
115.01
104.671
100
102.668
144.021
138.381
144.488
136.276
140.491
139.73
148.209
150.747
145.508
144.156
155.865
155.966
184.227
177.505
167.675
171.006
227.002
222.424
201.928
189.462
258.755
258.624
266.293
266.805
294.055
298.876
293.496
292.743
344.626
322.513
354.864
182.663
320.96
182.719
209.718
379.557
333.413
153.661
183.117
190.937
155.029
224.038
206.268
246.452
155.489
158.038
236.884
157.292
157.341
192.532
177.794
171.22
407.038
172.621
161.515
165.487
100
100
100
100
100
100
100
100
100
100
100
100
100
100
100
100
100
100
100
100
100
100
100
100
100
100
100
100
100
100
100
100
100
100
100
100
100
100
100
100
100
100
100
100
100
100
100
100
100
100
100
100
126.517
115.07
100
112.655
158.03
151.53
159.049
149.62
153.272
153.834
163.027
165.884
161.03
158.96
172.859
172.046
215.561
216.105
195.047
203.525
266.51
282.024
246.718
223.404
290.307
291.13
296.944
298.923
335.266
338.357
333.113
330.929
392.688
374.883
400.62
208.87
380.102
215.265
239.207
434.804
391.147
185.603
216.214
222.232
186.575
233.607
224.289
160.442
187.286
189.977
154.237
172.256
169.26
207.755
193.642
153.635
158.435
100
166.056
156.094
100
100
100
100
100
100
100
100
100
100
100
100
100
100
100
100
100
100
100
100
100
100
100
100
100
100
100
100
100
100
100
100
100
100
100
100
100
100
100
100
100
100
100
100
100
100
100
100
100
100
100
100
138.346
125.954
108.519
122.678
173.527
166.615
174.803
163.431
168.418
169.46
179.036
182.836
182.78
178.712
195.967
192.539
261.936
248.85
226.522
233.212
301.23
177.091
283.764
266.664
330.299
332.866
338.118
344.956
376.128
377.517
370.558
365.723
424.855
235.706
435.352
246.812
443.838
219.632
246.179
250.808
220.17
249.617
284.755
236.196
191.433
220.913
223.373
184.003
182.911
173.836
222.461
206.216
129.828
100
100
161.771
144.967
100
100
100
100
100
100
100
100
100
100
100
100
100
100
100
100
100
100
100
100
100
100
100
100
100
100
100
100
100
100
100
100
100
100
100
100
100
100
100
100
100
100
100
100
100
100
100
100
100
100
100
100
104.289
100
100
150.856
137.334
118.051
132.677
191.347
183.912
191.596
178.167
186.053
186.219
196.733
201.079
212.363
205.816
223.555
217.655
302.335
160.817
253.969
282.69
347.104
195.952
324.873
304.528
365.081
368.2
374.698
384.487
249.872
250.073
165.799
340.135
253.745
286.844
224.348
250.414
252.674
217.639
189.269
172.546
230.834
213.488
100
100
100
154.354
123.686
100
100
100
100
100
100
100
100
100
100
100
100
100
100
100
100
100
100
100
100
100
100
100
100
100
100
100
100
100
100
100
100
100
100
100
100
100
100
100
100
100
100
100
100
100
100
100
100
100
100
100
100
112.962
102.219
102
163.949
148.661
127.176
142.528
211.674
203.126
209.786
194.091
207.192
204.138
216.775
220.687
237.349
234.221
244.863
247.415
354.645
184.12
162.289
332.281
385.483
221.606
379.319
356.374
193.966
401.165
172.005
340.962
252.926
246.51
189.745
167.942
245.938
290.831
214.996
100
114.759
100
141.901
114.403
100
100
100
100
100
100
100
100
100
100
100
100
100
100
100
100
100
100
100
100
100
100
100
100
100
100
100
100
100
100
100
100
100
100
100
100
100
100
100
100
100
100
100
100
100
100
100
100
100
101.994
102.198
100
100
121.486
110.767
110.405
177.292
159.928
136.503
152.879
232.986
223.213
230.394
212.627
232.827
224.203
238.171
240.862
288.565
259.116
302.368
262.654
399.479
213.26
189.292
387.339
242.857
428.676
404.293
225.238
454.286
198.45
399.645
189.615
159.901
254.605
292.03
336.263
212.328
100
132.726
145.397
132.294
110.134
100
100
100
100
100
100
100
100
100
100
100
100
100
100
100
100
100
100
100
100
100
100
100
100
100
100
100
100
100
100
100
100
100
100
100
100
100
100
100
100
100
100
100
100
100
100
100
100
100
100
100
109.639
109.181
101.261
100
129.895
119.246
117.904
192.431
172.367
145.427
162.723
253.758
244.157
252.852
232.954
262.619
247.496
258.793
263.65
334.455
169.386
176.089
344.873
241.241
218.7
438.106
252.091
225.902
449.116
181.58
150.898
165.033
341.293
383.908
203.17
267.713
125.252
130.124
173.889
126.402
122.673
100
100
100
100
100
100
100
100
100
100
100
100
100
100
100
100
100
100
100
100
100
100
100
100
100
100
100
100
100
100
100
100
100
100
100
100
100
100
100
100
100
100
100
100
100
100
100
100
100
100
100
100
117.099
113.728
105.726
103.077
137.841
126.568
125.573
208.182
184.588
154.637
173.159
273.764
266.034
276.46
255.649
276.645
273.91
279.387
287.343
386.758
194.541
180.143
198.416
391.13
247.828
248.216
170.606
144.465
191.184
395.094
423.375
194.171
249.815
309.176
147.935
123.382
195.247
129.92
139.642
100
100
100
100
100
100
100
100
100
100
100
100
100
100
100
100
100
100
100
100
100
100
100
100
100
100
100
100
100
100
100
100
100
100
100
100
100
100
100
100
100
100
100
100
100
100
100
100
100
100
100
100
100
122.568
117.822
110.507
106.272
144.619
133.575
132.009
226.193
197.856
162.418
182.684
295.182
288.199
299.273
278.922
287.46
301.279
300.015
437.276
221.008
202.54
187
220.872
440.389
164.35
142.538
218.827
442.454
188.085
249.066
295.496
353.193
163.33
120.456
209.661
143.343
151.388
100
100
100
100
100
100
100
100
100
100
100
100
100
100
100
100
100
100
100
100
100
100
100
100
100
100
100
100
100
100
100
100
100
100
100
100
100
100
100
100
100
100
100
100
100
100
100
100
100
100
100
100
100
100
126.062
121.631
113.967
106.982
151.003
140.17
135.722
245.18
211.284
168.741
190.583
318.238
310.972
320.545
302.44
316.451
195.157
248.642
224.747
207.56
245.339
161.396
153.277
241.335
186.154
237.079
293.391
342.958
390.317
183.325
115.132
221.139
152.586
164.135
100
100
100
100
100
100
100
100
100
100
100
100
100
100
100
100
100
100
100
100
100
100
100
100
100
100
100
100
100
100
100
100
100
100
100
100
100
100
100
100
100
100
100
100
100
100.308
100
100
100
100
100
100
100
100
100
129.656
122.631
114.601
106.656
157.051
144.645
138.656
266.227
225.356
175.486
199.432
331.93
332.835
337.708
322.414
201.058
214.479
249.097
227.416
168.995
160.026
191.087
235.978
280.692
337.975
382.253
203.179
106.986
222.716
160.552
175.696
100
100
100
100
100
100
100
100
100
100
100
100
100
100
100
100
100
100
100
100
100
100
100
100
100
100
100
100
100
100
100
100
100
100
100
100
100
100
100
100
100
100
100
100
106.34
100.035
100
100
100
100
100
100
100
100
100
100
131.268
121.945
114.024
160.083
146.638
140.841
287.107
240.607
179.707
208.137
204.67
337.417
344.262
338.019
220.467
232.383
249.404
173.961
165.398
196.438
238.389
277.715
326.471
374.03
215.089
104.882
219.639
166.684
183.642
100
100
100
100
100
100
100
100
100
100
100
100
100
100
100
100
100
100
100
100
100
100
100
100
100
100
100
100
100
100
100
100
100
100
100
100
100
100
100
100
100
100
100
100
112.8
105.496
100
100
100
100
100
100
100
100
100
100
100
100
130.482
120.074
162.5
148.63
139.968
305.903
256.418
181.856
216.444
222.763
205.27
353.993
375.589
343.919
238.003
251.021
177.428
168.684
198.775
242.579
277.308
320.654
364.821
220.071
111.062
209.342
170.736
188.213
100
100
100
100
100
100
100
100
100
100
100
100
100
100
100
100
100
100
100
100
100
100
100
100
100
100
100
100
100
100
100
100
100
100
100
100
100
100
100
100
100
100
100
100
100
110.979
103.445
100
100
100
100
100
100
100
100
100
100
100
100
100
128.207
117.47
165.206
148.818
137.429
321.39
271.589
186.725
229.039
239.81
223.318
206.865
408.807
347.707
254.94
179.905
170.947
203.578
236.968
281.857
318.026
356.95
212.183
159.259
213.967
172.617
186.642
100
100
100
100
100
100
100
100
100
100
100
100
100
100
100
100
100
100
100
100
100
100
100
100
100
100
100
100
100
100
100
100
100
100
100
100
100
100
100
100
100
100
100
100
108.851
101.357
100
100
100
100
100
100
100
100
100
100
100
100
100
100
125.346
115.398
166.65
147.804
134.939
330.331
287.066
190.943
240.98
255.454
239.249
371.6
226.728
440.78
356.947
181.616
172.531
206.263
244.213
277.461
322.522
353.033
201.602
340.825
230.905
172.14
173.965
100
100
100
100
100
100
100
100
100
100
100
100
100
100
100
100
100
100
100
100
100
100
100
100
100
100
100
100
100
100
100
100
100
100
100
100
100
100
100
100
100
100
100
100
100
106.256
100
100
100
100
100
100
100
100
100
100
100
100
100
100
100
100
123.533
112.442
168.588
147.504
133.849
332.545
299.318
195.815
250.579
251.801
404.632
205.175
245.502
465.439
181.956
173.479
209.285
250.065
280.84
320.938
355.598
184.473
787.759
271.007
165.852
159.301
100
100
100
100
100
100
100
100
100
100
100
100
100
100
100
100
100
100
100
100
100
100
100
100
100
100
100
100
100
100
100
100
100
100
100
100
100
100
100
100
100
100
100
100
100
103.528
100
100
100
100
100
100
100
100
100
100
100
100
100
100
100
100
100
120.821
109.861
170.787
148.204
132.356
326.975
304.747
201.783
259.945
438.265
222.508
342.389
258.209
185.949
172.973
213.815
261.527
290.756
323.119
357.692
154.272
164.114
100
160.677
138.575
100
100
100
100
100
100
100
100
100
100
100
100
100
100
100
100
100
100
100
100
100
100
100
100
100
100
100
100
100
100
100
100
100
100
100
100
100
100
100
100
100
100
100
100
100
101.282
100
100
100
100
100
100
100
100
100
100
100
100
100
100
100
100
100
118.728
107.919
173.565
148.973
131.383
339.256
308.603
208.219
268.211
461.517
240.359
371.51
358.874
187.752
171.338
217.618
253.56
302.826
333.686
358.641
100
100
100
148.485
114.863
100
100
100
100
100
100
100
100
100
100
100
100
100
100
100
100
100
100
100
100
100
100
100
100
100
100
100
100
100
100
100
100
100
100
100
100
100
100
100
100
100
100
100
100
100
100
100
100
100
100
100
100
100
100
100
100
100
100
100
100
100
100
100
106.347
117.199
175.31
149.521
130.553
350.76
307.066
211.365
267.84
252.693
406.378
392.101
201.056
188.711
165.203
218.717
261.61
293.058
345.242
366.844
100
100
100
134.306
103.44
100
100
100
100
100
100
100
100
100
100
100
100
100
100
100
100
100
100
100
100
100
100
100
100
100
100
100
100
100
100
100
100
100
100
100
100
100
100
100
100
100
100
100
100
100
100
100
100
100
100
100
100
100
100
100
100
100
100
100
100
100
100
100
105.04
102.76
115.991
175.117
149.359
129.836
292.709
210.525
261.21
431.648
429.662
216.85
309.468
184.014
156.678
220.243
261.571
302.046
338.051
374.493
100
100
100
134.478
100
100
100
100
100
100
100
100
100
100
100
100
100
100
100
100
100
100
100
100
100
100
100
100
100
100
100
100
100
100
100
100
100
100
100
100
100
100
100
100
100
100
100
100
100
100
100
100
100
100
100
100
100
100
100
100
100
100
100
100
100
100
100
100
100
114.914
112.528
174.573
149.069
128.912
283.131
208.414
255.121
455.963
233.256
337.441
303.272
176.622
154.738
249.493
213.461
159.805
303.334
347.478
373.87
100
100
100
136.909
100
100
100
100
100
100
100
100
100
100
100
100
100
100
100
100
100
100
100
100
100
100
100
100
100
100
100
100
100
100
100
100
100
100
100
100
100
100
100
100
100
100
100
100
100
100
100
100
100
100
100
100
100
100
100
100
100
100
100
100
100
100
100
100
100
109.388
105.584
126.513
173.372
148.094
274.342
206.665
250.293
245.75
370.035
332.698
296.965
170.946
156.048
245.897
204.643
300.306
186.269
350.154
383.14
100
100
100
123.04
100
100
100
100
100
100
100
100
100
100
100
100
100
100
100
100
100
100
100
100
100
100
100
100
100
100
100
100
100
100
100
100
100
100
100
100
100
100
100
100
100
100
100
100
100
100
100
100
100
100
100
100
100
100
100
100
100
100
100
100
101.596
100.258
102.468
100.931
104.224
102.246
105.663
123.299
119.028
145.808
172.044
268.475
206.992
252.009
396.194
365.465
326.506
298.328
169.56
156.909
230.521
197.702
345.7
271.117
214.929
387.081
100
100
100
104.526
100
100
100
100
100
100
100
100
100
100
100
100
100
100
100
100
100
100
100
100
100
100
100
100
100
100
100
100
100
100
100
100
100
100
100
100
100
100
100
100
100
100
100
100
100
100
100
100
100
100
100
100
100
100
100
101.932
102.624
100
102.525
103.149
104.644
106.599
106.449
108.703
109.674
113.052
115.043
118.767
142.799
138.108
169.948
275.402
206.727
254.559
391.026
358.498
330.418
312.505
168.521
146.662
231.054
189.862
393.958
317.35
160.137
238.172
100
100
100
100
100
100
100
100
100
100
100
100
100
100
100
100
100
100
100
100
100
100
100
100
100
100
100
100
100
100
100
100
100
100
100
100
100
100
100
100
100
100
100
100
100
100
100
100
100
100
102.204
100
100
100
100
100
100
100
101.831
100.263
102.595
106.508
107.238
107.653
107.662
110.864
112.887
115.151
117.287
122.584
125.807
133.317
137.931
164.98
288.098
202.729
290.995
384.089
362.355
343.142
343.297
165.557
132.417
227.626
250.102
183.073
437.853
369.135
186.73
288.154
100
100
100
100
100
100
100
100
100
100
100
100
100
100
100
100
100
100
100
100
100
100
100
100
100
100
100
100
100
100
100
100
100
100
100
100
100
100
100
100
100
100
100
100
100
100
100
100
100
100
100
106.056
100
100
100
100
100
100
100.794
101.145
104.147
102.601
105.759
112.287
113.273
114.21
113.691
119.417
121.432
127.684
129.42
141.227
144.048
159.713
165.161
362.45
197.258
287.171
386.697
375.727
379.612
213.76
161.336
114.958
216.15
249.734
177.318
414.628
215.967
339.044
169.085
100
100
100
100
100
100
100
100
100
100
100
100
100
100
100
100
100
100
100
100
100
100
100
100
100
100
100
100
100
100
100
100
100
100
100
100
100
100
100
100
100
100
100
100
100
100
100
100
100
100
100
100
100
110.865
100
100
100
100
100
100
100
103.284
103.031
106.435
105.166
109.189
119.975
121.272
122.81
121.964
131.235
132.873
145.791
146.953
167.274
168.935
201.056
373.524
241.795
402.639
416.343
233.457
212.868
149.73
100
248.084
202.787
171.149
242.453
394.712
195.814
268.644
300.035
100
100
100
100
100
100
100
100
100
100
100
100
100
100
100
100
100
100
100
100
100
100
100
100
100
100
100
100
100
100
100
100
100
100
100
100
100
100
100
100
100
100
100
100
100
100
100
100
100
100
100
100
100
100
117.742
100.903
100
100
100
100.699
101.404
101.077
105.38
104.693
110.556
108.949
114.351
130.036
131.745
133.88
132.886
148.175
148.84
170.571
171.53
201.17
201.106
290.928
237.504
443.229
254.414
231.414
337.619
134.658
100
237.845
192.348
161.735
444.554