/*--------------------------------*- C++ -*----------------------------------*\
  =========                 |
  \\      /  F ield         | OpenFOAM: The Open Source CFD Toolbox
   \\    /   O peration     | Website:  https://openfoam.org
    \\  /    A nd           | Version:  dev
     \\/     M anipulation  |
\*---------------------------------------------------------------------------*/
FoamFile
{
    version     2.0;
    format      ascii;
    class       volScalarField;
    location    "2500";
    object      rho;
}
// * * * * * * * * * * * * * * * * * * * * * * * * * * * * * * * * * * * * * //

dimensions      [1 -3 0 0 0 0 0];

internalField   nonuniform List<scalar> 
9848
(
1.17175
1.17161
1.17168
1.17158
1.17133
1.17171
1.17166
1.17117
1.17131
1.17176
1.17164
1.17108
1.17102
1.1714
1.17181
1.17167
1.17115
1.17086
1.17104
1.17148
1.17185
1.17175
1.17118
1.17075
1.17076
1.17114
1.17156
1.17189
1.17173
1.17122
1.17077
1.17059
1.17081
1.17124
1.17161
1.1719
1.17175
1.1713
1.17089
1.1705
1.17057
1.17092
1.17134
1.17166
1.17191
1.17178
1.17138
1.17095
1.17044
1.1704
1.17064
1.17104
1.17141
1.17169
1.17191
1.1718
1.17147
1.17105
1.17046
1.17027
1.17042
1.17078
1.17119
1.17146
1.17171
1.17192
1.1718
1.17151
1.17105
1.17052
1.17022
1.17021
1.17047
1.1709
1.17125
1.17152
1.17172
1.17193
1.17183
1.1715
1.17119
1.17064
1.1702
1.17007
1.17023
1.17059
1.171
1.1713
1.17153
1.17174
1.17194
1.17183
1.17152
1.17119
1.17065
1.17022
1.17001
1.17005
1.17034
1.17073
1.17106
1.17135
1.17156
1.17175
1.17194
1.17183
1.17154
1.17123
1.1708
1.17034
1.16997
1.16992
1.17009
1.17048
1.17083
1.17114
1.17137
1.17157
1.17176
1.17194
1.17183
1.17159
1.17125
1.17087
1.17037
1.16993
1.1698
1.16992
1.17021
1.17062
1.17094
1.17119
1.17141
1.17159
1.17177
1.17194
1.17185
1.17157
1.17127
1.1709
1.17044
1.16998
1.16974
1.16975
1.16999
1.17035
1.17074
1.171
1.17123
1.17142
1.1716
1.17178
1.17194
1.17186
1.17159
1.17129
1.17095
1.17054
1.17002
1.16971
1.16963
1.16979
1.17012
1.1705
1.1708
1.17104
1.17126
1.17144
1.17161
1.17178
1.17195
1.17185
1.17159
1.1713
1.17106
1.1707
1.17008
1.16971
1.16957
1.16962
1.1699
1.17025
1.17059
1.17086
1.17108
1.17129
1.17146
1.17162
1.17178
1.17195
1.17185
1.17163
1.17137
1.17105
1.17061
1.17009
1.16972
1.16952
1.1695
1.16969
1.17003
1.17039
1.17069
1.17091
1.17112
1.17129
1.17146
1.17162
1.17178
1.17195
1.17185
1.17164
1.17138
1.17102
1.17065
1.17017
1.16972
1.1695
1.16937
1.16951
1.16981
1.17012
1.17046
1.17072
1.17094
1.17113
1.1713
1.17146
1.17162
1.17178
1.17194
1.17186
1.17162
1.17137
1.17106
1.17066
1.17035
1.16975
1.16945
1.16929
1.16936
1.1696
1.16991
1.17026
1.17056
1.17079
1.17098
1.17115
1.17132
1.17147
1.17162
1.17178
1.17195
1.17185
1.17163
1.17136
1.17113
1.17071
1.17032
1.16973
1.16943
1.16925
1.16924
1.16943
1.16971
1.17009
1.17034
1.17059
1.17082
1.17099
1.17116
1.17131
1.17147
1.17162
1.17178
1.17194
1.17186
1.17161
1.17138
1.17105
1.17078
1.17032
1.1698
1.16941
1.16921
1.16912
1.16926
1.16949
1.16986
1.17019
1.17043
1.17066
1.17084
1.17101
1.17117
1.17132
1.17146
1.17161
1.17177
1.17194
1.17184
1.17163
1.17134
1.17106
1.17077
1.17019
1.16992
1.16941
1.16917
1.16902
1.16909
1.16932
1.16969
1.16998
1.17026
1.17049
1.1707
1.17085
1.17102
1.17117
1.17132
1.17146
1.1716
1.17176
1.17194
1.17184
1.17162
1.17133
1.17106
1.17064
1.17027
1.1699
1.16935
1.16915
1.16896
1.16899
1.16915
1.16943
1.16976
1.17003
1.17034
1.17053
1.1707
1.17088
1.17103
1.17117
1.17131
1.17145
1.1716
1.17176
1.17194
1.17183
1.17162
1.17131
1.17099
1.1707
1.17027
1.16977
1.16935
1.16907
1.16891
1.16887
1.16899
1.16926
1.16955
1.16987
1.17012
1.17036
1.17055
1.17072
1.17088
1.17103
1.17116
1.17131
1.17144
1.17159
1.17175
1.17193
1.17185
1.17158
1.17131
1.17103
1.1707
1.17024
1.16975
1.16935
1.16904
1.16884
1.16879
1.16887
1.16909
1.16935
1.16969
1.16996
1.17019
1.17041
1.17057
1.17073
1.17089
1.17103
1.17116
1.17129
1.17143
1.17158
1.17175
1.17193
1.17184
1.17155
1.17127
1.17091
1.17056
1.17024
1.16969
1.16933
1.16902
1.16878
1.16869
1.16875
1.1689
1.16918
1.16954
1.16977
1.17002
1.17024
1.17042
1.1706
1.17075
1.17088
1.17102
1.17115
1.17128
1.17142
1.17157
1.17174
1.17193
1.17184
1.17157
1.17122
1.17092
1.17054
1.17017
1.16964
1.16938
1.16897
1.16871
1.16861
1.16862
1.16877
1.16899
1.1693
1.1696
1.16989
1.17008
1.17027
1.17045
1.1706
1.17074
1.17088
1.171
1.17113
1.17125
1.1714
1.17155
1.17173
1.17192
1.17182
1.17155
1.17121
1.17089
1.17046
1.17007
1.16972
1.16932
1.16889
1.16867
1.16852
1.16849
1.16862
1.16883
1.16913
1.16946
1.16969
1.16992
1.17012
1.17031
1.17047
1.17061
1.17074
1.17086
1.17098
1.1711
1.17123
1.17137
1.17153
1.17172
1.17192
1.17183
1.17154
1.17123
1.17084
1.1704
1.17007
1.16964
1.1692
1.16884
1.1686
1.16845
1.1684
1.16848
1.16867
1.16895
1.16922
1.16951
1.16977
1.16998
1.17017
1.17033
1.17048
1.1706
1.17072
1.17083
1.17095
1.17106
1.1712
1.17135
1.17152
1.17171
1.17192
1.17179
1.17148
1.17121
1.17074
1.17036
1.16992
1.16952
1.16918
1.16886
1.16853
1.16836
1.16831
1.16836
1.16854
1.16878
1.16907
1.16934
1.1696
1.16985
1.17003
1.17022
1.17035
1.17047
1.17059
1.1707
1.1708
1.17091
1.17102
1.17116
1.17132
1.1715
1.1717
1.17192
1.17181
1.17154
1.17109
1.17065
1.17032
1.16992
1.16949
1.16913
1.1688
1.16844
1.16832
1.16824
1.16826
1.16841
1.16862
1.16891
1.16918
1.16942
1.16962
1.16989
1.17007
1.17024
1.17035
1.17046
1.17057
1.17066
1.17075
1.17086
1.17097
1.17112
1.17128
1.17148
1.17169
1.17201
1.17191
1.17179
1.17149
1.1711
1.17065
1.17025
1.16984
1.16937
1.16906
1.16871
1.16841
1.16823
1.16813
1.16817
1.16827
1.16848
1.16874
1.16902
1.16928
1.16948
1.16965
1.16992
1.17011
1.17024
1.17034
1.17044
1.17052
1.1706
1.17069
1.17079
1.17092
1.17107
1.17125
1.17149
1.17179
1.17168
1.17202
1.17191
1.17177
1.17148
1.171
1.1705
1.17009
1.16975
1.16928
1.16904
1.1687
1.16837
1.16816
1.16805
1.16805
1.16814
1.16834
1.16857
1.16888
1.16914
1.16941
1.16955
1.1697
1.16994
1.17013
1.17024
1.17031
1.17038
1.17045
1.17051
1.1706
1.17071
1.17084
1.17101
1.17134
1.17122
1.17156
1.17137
1.17145
1.1718
1.17168
1.17202
1.17191
1.17178
1.17154
1.17107
1.1705
1.17001
1.16965
1.16926
1.16892
1.16859
1.16828
1.16813
1.16797
1.16796
1.16802
1.16819
1.16842
1.16868
1.16897
1.16923
1.16947
1.16962
1.16977
1.16998
1.17012
1.17021
1.17025
1.17027
1.1703
1.17034
1.17043
1.17056
1.17074
1.17108
1.17094
1.17124
1.17157
1.17133
1.17145
1.17179
1.17168
1.17202
1.1719
1.17179
1.17152
1.17105
1.17047
1.16994
1.16961
1.16925
1.16882
1.16862
1.16826
1.16805
1.16789
1.16787
1.16791
1.16803
1.16827
1.16853
1.16876
1.16907
1.16933
1.16951
1.16964
1.16979
1.16997
1.17008
1.17009
1.17
1.16989
1.16982
1.16983
1.16998
1.17027
1.17078
1.17059
1.17109
1.17093
1.17119
1.17157
1.17132
1.17145
1.17179
1.17168
1.17202
1.1719
1.17178
1.1715
1.17085
1.17025
1.16976
1.16951
1.16919
1.16878
1.16852
1.1682
1.16798
1.16783
1.16778
1.1678
1.16791
1.16812
1.16836
1.16866
1.16887
1.16915
1.1694
1.16957
1.16968
1.16979
1.16989
1.16984
1.16954
1.16903
1.16852
1.16819
1.16824
1.16868
1.17028
1.16958
1.17074
1.17048
1.17104
1.17087
1.17118
1.17157
1.17132
1.17145
1.17179
1.17168
1.17202
1.1719
1.17177
1.17148
1.17071
1.17025
1.16971
1.16939
1.16912
1.16876
1.16844
1.16821
1.16793
1.16776
1.16773
1.1677
1.16782
1.16796
1.16821
1.16845
1.16873
1.16899
1.16924
1.16947
1.16958
1.16968
1.16965
1.16937
1.16866
1.16741
1.16579
1.16451
1.16392
1.16433
1.16802
1.1649
1.16997
1.16875
1.17064
1.17025
1.17101
1.1708
1.17116
1.17157
1.17131
1.17145
1.17179
1.17168
1.17202
1.1719
1.17176
1.17145
1.17078
1.17013
1.16961
1.1693
1.16901
1.16871
1.16838
1.16817
1.16786
1.16772
1.16762
1.16761
1.16768
1.16784
1.16808
1.16831
1.16858
1.16883
1.16908
1.16933
1.16953
1.16958
1.16947
1.16879
1.16726
1.16493
1.16228
1.15967
1.15801
1.15762
1.16195
1.15802
1.1661
1.16273
1.16936
1.16726
1.17049
1.16986
1.17097
1.17071
1.17115
1.17157
1.17131
1.17145
1.17179
1.17168
1.17201
1.1719
1.17174
1.17139
1.17071
1.16995
1.16961
1.16923
1.16895
1.16867
1.16837
1.16809
1.16784
1.16766
1.16754
1.16755
1.16758
1.16771
1.16791
1.16816
1.16839
1.16868
1.16893
1.16917
1.16942
1.16954
1.16939
1.16833
1.16559
1.16156
1.15742
1.15419
1.15174
1.1503
1.15461
1.1501
1.15903
1.15501
1.16394
1.16014
1.16838
1.16531
1.17026
1.16923
1.17093
1.17059
1.17113
1.17157
1.1713
1.17145
1.17179
1.17168
1.17201
1.1719
1.17173
1.17133
1.17063
1.16988
1.16955
1.16923
1.16889
1.16863
1.16836
1.16807
1.16782
1.16761
1.1675
1.16744
1.16747
1.16761
1.16778
1.16801
1.16825
1.1685
1.16877
1.16902
1.16927
1.16948
1.16937
1.16816
1.16429
1.15797
1.15166
1.1468
1.1441
1.14261
1.14635
1.14124
1.15069
1.14612
1.15593
1.15132
1.16147
1.15708
1.16682
1.16298
1.16989
1.16823
1.17086
1.17039
1.1711
1.17157
1.17129
1.17145
1.17179
1.17169
1.17201
1.17191
1.17171
1.17127
1.17055
1.16981
1.16947
1.16914
1.16886
1.1686
1.16838
1.16807
1.16782
1.16756
1.16742
1.16736
1.16739
1.16747
1.16766
1.16786
1.16808
1.16836
1.16861
1.16886
1.16911
1.16935
1.16934
1.16817
1.16384
1.15534
1.14592
1.13886
1.13424
1.13206
1.13723
1.13164
1.14132
1.13647
1.14638
1.14124
1.15218
1.14685
1.15841
1.1532
1.16468
1.15993
1.16925
1.16654
1.17076
1.17001
1.17105
1.17158
1.17127
1.17144
1.1718
1.17169
1.17202
1.17192
1.1717
1.17121
1.17048
1.16978
1.16942
1.16909
1.16884
1.16859
1.16834
1.16805
1.16781
1.16754
1.16737
1.16731
1.16732
1.16736
1.1675
1.16771
1.16795
1.1682
1.16846
1.16871
1.16896
1.16921
1.16931
1.16829
1.16388
1.15447
1.14255
1.1348
1.13079
1.12849
1.12871
1.12693
1.13154
1.12815
1.13613
1.13124
1.14127
1.13583
1.14747
1.14147
1.15435
1.14816
1.16166
1.15568
1.16809
1.16367
1.17055
1.16922
1.17094
1.17158
1.17122
1.17142
1.17181
1.1717
1.17203
1.17194
1.17168
1.17115
1.17042
1.16981
1.16938
1.16905
1.16885
1.16858
1.16832
1.16809
1.16784
1.16755
1.16735
1.16726
1.16721
1.16727
1.16738
1.16757
1.16778
1.16803
1.16829
1.16856
1.16881
1.16906
1.16925
1.16862
1.16433
1.15444
1.14212
1.13505
1.13133
1.12917
1.12779
1.12686
1.12662
1.12821
1.12691
1.13113
1.12843
1.13562
1.13119
1.14174
1.13558
1.14894
1.14204
1.15719
1.14983
1.16577
1.1589
1.17005
1.16741
1.17064
1.17156
1.17105
1.17132
1.17185
1.17167
1.17204
1.1719
1.17166
1.17108
1.17036
1.16973
1.16929
1.16902
1.16882
1.16854
1.16831
1.16804
1.16782
1.16758
1.16733
1.16719
1.16714
1.16718
1.16727
1.16743
1.16764
1.16785
1.16813
1.16839
1.16866
1.16891
1.16915
1.16891
1.16556
1.1554
1.14327
1.13691
1.13371
1.13292
1.13377
1.13083
1.13721
1.12686
1.12792
1.12722
1.12737
1.12879
1.12771
1.13129
1.1292
1.13564
1.13143
1.1424
1.13581
1.15083
1.14282
1.161
1.152
1.16869
1.1632
1.16967
1.17147
1.1704
1.17086
1.17172
1.17145
1.17176
1.1711
1.17162
1.171
1.17029
1.16964
1.16932
1.16902
1.16881
1.1685
1.1683
1.16803
1.16782
1.16758
1.16731
1.16716
1.16707
1.16708
1.16717
1.16731
1.1675
1.16772
1.16795
1.16823
1.16849
1.16876
1.16901
1.16904
1.16698
1.15802
1.14582
1.14038
1.13912
1.14248
1.14832
1.14409
1.15416
1.13849
1.14613
1.12872
1.13223
1.12801
1.12967
1.1283
1.12876
1.12957
1.1289
1.13159
1.12984
1.13604
1.13177
1.1433
1.13625
1.15342
1.14391
1.16506
1.15518
1.1666
1.17089
1.168
1.16871
1.17057
1.16975
1.169
1.167
1.17155
1.17087
1.1702
1.16959
1.16928
1.16896
1.16877
1.1685
1.1683
1.16804
1.16784
1.16761
1.16733
1.16712
1.16704
1.16701
1.16708
1.16719
1.16737
1.16759
1.16778
1.16806
1.16833
1.16859
1.16886
1.16905
1.16805
1.16133
1.1489
1.14351
1.14394
1.15182
1.16026
1.15962
1.1651
1.15453
1.16174
1.14718
1.15525
1.13361
1.13978
1.13071
1.13496
1.12954
1.13174
1.12938
1.1302
1.12995
1.12966
1.13182
1.12986
1.13646
1.13176
1.14479
1.13675
1.15712
1.14593
1.15923
1.16761
1.16115
1.16139
1.16529
1.16274
1.15917
1.1547
1.1714
1.17067
1.17008
1.16955
1.16923
1.16898
1.16874
1.16849
1.16827
1.16806
1.16783
1.16759
1.16733
1.16712
1.16699
1.16696
1.16698
1.16708
1.16723
1.16746
1.16766
1.16789
1.16816
1.16843
1.1687
1.16896
1.16866
1.16438
1.15269
1.14619
1.14677
1.15621
1.16317
1.16712
1.16578
1.16757
1.16232
1.16628
1.15582
1.1622
1.14101
1.14816
1.13614
1.14195
1.13261
1.13695
1.13059
1.1331
1.12958
1.13042
1.1295
1.12901
1.13164
1.12897
1.13724
1.13155
1.1473
1.13793
1.14887
1.15768
1.15009
1.14929
1.1524
1.14935
1.1559
1.145
1.17037
1.16991
1.1695
1.16919
1.16895
1.16867
1.16846
1.16826
1.16807
1.16785
1.1676
1.16736
1.16712
1.16697
1.1669
1.16691
1.16698
1.16711
1.1673
1.16753
1.16772
1.16799
1.16825
1.16853
1.16881
1.16886
1.16669
1.1572
1.14857
1.14833
1.1566
1.16261
1.16624
1.1685
1.16797
1.16798
1.16849
1.16614
1.16798
1.16104
1.16518
1.14865
1.15535
1.14223
1.14796
1.13691
1.14117
1.13262
1.13557
1.12955
1.13111
1.12809
1.1283
1.12832
1.12681
1.13157
1.1276
1.13882
1.13173
1.13977
1.14514
1.14017
1.13896
1.14123
1.13904
1.16609
1.14708
1.16965
1.16938
1.16911
1.16889
1.16867
1.16847
1.16828
1.16807
1.16788
1.16759
1.16737
1.16714
1.16696
1.16685
1.16684
1.16689
1.167
1.16716
1.16738
1.1676
1.16781
1.16808
1.16836
1.16864
1.16886
1.16802
1.16159
1.15142
1.14915
1.15586
1.16093
1.16407
1.16736
1.16607
1.16874
1.16839
1.16868
1.16884
1.1675
1.16854
1.16287
1.16613
1.15344
1.15851
1.14578
1.15043
1.13902
1.14273
1.13349
1.13634
1.12931
1.13109
1.12644
1.12679
1.12525
1.12398
1.12692
1.12358
1.13201
1.12638
1.13234
1.13597
1.13222
1.13183
1.13438
1.13763
1.13348
1.16827
1.14937
1.16919
1.16901
1.16882
1.16865
1.16846
1.16828
1.16807
1.16789
1.1676
1.16739
1.16716
1.16696
1.16681
1.16678
1.1668
1.16689
1.16703
1.16722
1.16746
1.16765
1.1679
1.16818
1.16846
1.16875
1.16856
1.16508
1.15531
1.15011
1.15418
1.15871
1.16148
1.16445
1.1676
1.16671
1.16896
1.16872
1.16894
1.16902
1.168
1.1688
1.16326
1.16652
1.1549
1.1592
1.1468
1.15074
1.1395
1.14273
1.1333
1.13571
1.12778
1.12934
1.12347
1.12374
1.12118
1.11971
1.12197
1.11841
1.12594
1.12073
1.12327
1.12895
1.12585
1.13096
1.13231
1.13042
1.12879
1.12577
1.12571
1.12851
1.13648
1.12974
1.12985
1.13233
1.16673
1.14652
1.16887
1.16875
1.16859
1.16843
1.16825
1.16807
1.16789
1.16759
1.16739
1.16718
1.16696
1.1668
1.16672
1.16673
1.1668
1.16691
1.16707
1.16729
1.16754
1.16773
1.168
1.16828
1.16858
1.16868
1.16721
1.15984
1.15198
1.15282
1.1566
1.15901
1.1617
1.1663
1.16464
1.16819
1.16728
1.1691
1.16897
1.16908
1.16913
1.16829
1.16898
1.16331
1.1669
1.15452
1.15867
1.14596
1.14951
1.13836
1.14173
1.13146
1.13436
1.12482
1.12692
1.11924
1.11995
1.11582
1.11615
1.11587
1.11846
1.1163
1.11314
1.11458
1.12013
1.12275
1.11968
1.11755
1.12259
1.12808
1.12775
1.12562
1.12246
1.1225
1.12546
1.13092
1.13735
1.133
1.12762
1.12814
1.15645
1.13613
1.13949
1.14483
1.16865
1.16854
1.1684
1.16823
1.16808
1.16788
1.16761
1.16741
1.1672
1.16697
1.1668
1.16668
1.16666
1.16671
1.1668
1.16694
1.16714
1.16738
1.16759
1.16782
1.1681
1.16839
1.16866
1.16819
1.16391
1.15516
1.15265
1.15481
1.15685
1.15906
1.16295
1.16695
1.16579
1.16865
1.16798
1.1692
1.16912
1.16919
1.16923
1.16862
1.16915
1.16411
1.16769
1.15375
1.15875
1.14543
1.14964
1.13795
1.14207
1.12997
1.13379
1.12176
1.12443
1.11586
1.11611
1.11649
1.1171
1.11217
1.11149
1.11363
1.11344
1.11518
1.11311
1.11029
1.11149
1.11681
1.11939
1.11623
1.11414
1.11916
1.1253
1.12527
1.12241
1.11904
1.119
1.12241
1.12946
1.13161
1.12553
1.12634
1.14224
1.15257
1.14662
1.13446
1.13741
1.16848
1.16837
1.16822
1.16808
1.16788
1.16765
1.16743
1.16721
1.16698
1.1668
1.16665
1.16661
1.16662
1.16671
1.16682
1.16699
1.16721
1.16746
1.16765
1.16792
1.1682
1.16851
1.16849
1.16656
1.15933
1.15327
1.15376
1.15509
1.15677
1.16003
1.16563
1.16383
1.16789
1.16681
1.16894
1.16861
1.16928
1.16922
1.16928
1.1693
1.169
1.16928
1.16593
1.16845
1.15471
1.16055
1.14676
1.15206
1.13823
1.14336
1.12795
1.13242
1.1178
1.11876
1.11987
1.12136
1.11344
1.11358
1.11384
1.11426
1.10944
1.1088
1.11108
1.11081
1.11182
1.10994
1.1075
1.10854
1.11326
1.11579
1.11255
1.11066
1.11548
1.12249
1.12275
1.11904
1.11533
1.11531
1.11922
1.12782
1.12999
1.12332
1.12436
1.14061
1.15224
1.1455
1.13269
1.13579
1.16833
1.1682
1.16808
1.16788
1.16769
1.16743
1.16722
1.16699
1.1668
1.16663
1.16656
1.16655
1.16661
1.16671
1.16686
1.16705
1.16729
1.16754
1.16773
1.16801
1.16831
1.1685
1.16783
1.16337
1.15553
1.15369
1.15396
1.15493
1.15738
1.16221
1.16672
1.16539
1.1686
1.16788
1.16912
1.16893
1.16935
1.16931
1.16934
1.16935
1.16918
1.16939
1.1673
1.16877
1.15789
1.16361
1.14913
1.15498
1.13773
1.14374
1.12304
1.12521
1.12759
1.13051
1.11485
1.11568
1.1168
1.11827
1.11065
1.11061
1.11071
1.11102
1.10666
1.10829
1.10592
1.10786
1.10855
1.10693
1.10468
1.1057
1.10966
1.112
1.10883
1.10729
1.11163
1.11953
1.12006
1.11546
1.11144
1.11144
1.11579
1.12596
1.12815
1.12089
1.12213
1.13976
1.15535
1.14692
1.13099
1.13457
1.16819
1.16807
1.16789
1.1677
1.16742
1.16723
1.167
1.16679
1.16661
1.16652
1.16649
1.16652
1.16661
1.16674
1.1669
1.16712
1.16738
1.16758
1.16783
1.16812
1.16842
1.16829
1.16618
1.1595
1.15426
1.15362
1.15365
1.15521
1.15919
1.16554
1.16368
1.16798
1.16683
1.16894
1.16862
1.16924
1.16912
1.16939
1.16938
1.1694
1.1694
1.16928
1.16945
1.16775
1.16889
1.16049
1.16507
1.15
1.15599
1.13427
1.14127
1.1201
1.12235
1.125
1.12812
1.11161
1.1125
1.11376
1.11541
1.10754
1.10742
1.10754
1.108
1.10375
1.10527
1.10293
1.10475
1.10547
1.10406
1.1018
1.10288
1.10619
1.10818
1.10528
1.10415
1.10773
1.11632
1.11709
1.11167
1.10749
1.10749
1.11213
1.12388
1.12624
1.11817
1.11964
1.13988
1.16159
1.15085
1.12945
1.13373
1.16807
1.1679
1.1677
1.16743
1.16723
1.167
1.16678
1.1666
1.16649
1.16644
1.16644
1.16652
1.16662
1.16677
1.16696
1.1672
1.16746
1.16764
1.16792
1.16823
1.16836
1.16758
1.16331
1.15626
1.15378
1.15309
1.15361
1.15656
1.16216
1.16699
1.16555
1.16867
1.16811
1.16913
1.16896
1.16933
1.16925
1.16946
1.16942
1.16953
1.16951
1.16934
1.16952
1.16788
1.16892
1.16129
1.16544
1.14845
1.15498
1.12955
1.13345
1.14129
1.13718
1.11745
1.11991
1.12276
1.126
1.10885
1.11013
1.11179
1.1138
1.10451
1.10458
1.10516
1.10625
1.10084
1.10229
1.10015
1.10203
1.10259
1.10127
1.09901
1.10007
1.10301
1.10453
1.10203
1.10128
1.10401
1.11285
1.11385
1.10775
1.10369
1.10364
1.10831
1.12162
1.12434
1.11518
1.11692
1.14133
1.16723
1.15551
1.12806
1.13363
1.16791
1.16772
1.16745
1.16724
1.167
1.16677
1.16658
1.16645
1.16639
1.16638
1.16642
1.16652
1.16665
1.16682
1.16703
1.16729
1.16752
1.16773
1.16802
1.16831
1.16811
1.166
1.15988
1.15458
1.15308
1.15264
1.15444
1.1591
1.16599
1.16414
1.16825
1.16732
1.16898
1.16872
1.16926
1.16914
1.1694
1.16935
1.16958
1.16951
1.16959
1.16961
1.16934
1.16951
1.16767
1.1687
1.16062
1.16509
1.14504
1.14903
1.15429
1.12902
1.13299
1.14117
1.13703
1.11615
1.11884
1.12189
1.1253
1.10772
1.10945
1.11147
1.11377
1.10224
1.1031
1.10448
1.10622
1.09828
1.09995
1.09817
1.10034
1.09985
1.09855
1.09665
1.09742
1.10013
1.10123
1.09914
1.09859
1.10062
1.10917
1.11037
1.10388
1.1002
1.10006
1.10445
1.11927
1.12249
1.11195
1.11405
1.14392
1.1655
1.15743
1.1269
1.13435
1.16773
1.16748
1.16725
1.16699
1.16675
1.16655
1.16642
1.16634
1.16632
1.16634
1.16642
1.16653
1.16668
1.16687
1.1671
1.16739
1.16756
1.16783
1.16814
1.16822
1.16739
1.16337
1.15681
1.15343
1.1523
1.15292
1.15645
1.16272
1.16757
1.1662
1.16879
1.16838
1.16915
1.16901
1.16936
1.16927
1.16945
1.16942
1.16966
1.16963
1.16959
1.16963
1.16907
1.16921
1.1672
1.16772
1.16066
1.16522
1.14517
1.14904
1.15434
1.15786
1.12988
1.134
1.14249
1.13822
1.11635
1.11923
1.12244
1.126
1.10826
1.11055
1.11296
1.11551
1.10158
1.10331
1.10562
1.10825
1.09658
1.09871
1.0972
1.10024
1.09723
1.09603
1.09515
1.09521
1.09751
1.09831
1.09656
1.09608
1.09765
1.10539
1.10675
1.10021
1.09716
1.09689
1.10072
1.11686
1.12064
1.1086
1.11109
1.14657
1.16942
1.16109
1.12622
1.1357
1.16752
1.16726
1.16698
1.16672
1.16651
1.16637
1.16629
1.16626
1.16627
1.16632
1.16642
1.16655
1.16672
1.16693
1.16721
1.16746
1.16764
1.16793
1.16819
1.16794
1.16587
1.16011
1.15455
1.15239
1.152
1.15435
1.15966
1.16681
1.16507
1.1685
1.16789
1.16903
1.16884
1.16927
1.16917
1.16944
1.16937
1.16955
1.16947
1.16965
1.16969
1.16935
1.16953
1.16782
1.16791
1.16474
1.16391
1.16059
1.16335
1.16456
1.14666
1.15064
1.1565
1.15931
1.13246
1.13673
1.14536
1.14107
1.11825
1.12127
1.12466
1.12839
1.11101
1.11373
1.1164
1.1191
1.10252
1.10554
1.10891
1.1124
1.09576
1.09901
1.09768
1.10176
1.09483
1.09395
1.09436
1.09383
1.0951
1.09576
1.09423
1.0938
1.09508
1.10166
1.10313
1.09689
1.09453
1.09415
1.09727
1.11444
1.11894
1.10523
1.10812
1.14945
1.17084
1.16476
1.12597
1.13727
1.16727
1.16697
1.16668
1.16645
1.16631
1.16622
1.16619
1.16619
1.16623
1.16631
1.16643
1.16658
1.16677
1.16702
1.1673
1.1675
1.16774
1.16805
1.16808
1.16721
1.16327
1.15695
1.15289
1.15166
1.15279
1.15706
1.16385
1.1681
1.16707
1.16888
1.16861
1.16918
1.16905
1.16938
1.16928
1.16949
1.16945
1.16967
1.16958
1.16943
1.16967
1.16833
1.16893
1.16363
1.16386
1.15902
1.15786
1.1533
1.16136
1.16289
1.16007
1.1608
1.14944
1.15318
1.1586
1.16015
1.13694
1.14128
1.14957
1.14554
1.12201
1.12522
1.1288
1.13272
1.11573
1.1188
1.1217
1.12462
1.10535
1.10949
1.11385
1.1181
1.09626
1.10063
1.09914
1.10455
1.09284
1.09265
1.09467
1.09306
1.0929
1.09349
1.09212
1.09184
1.09283
1.09815
1.09965
1.094
1.09227
1.09183
1.09422
1.11196
1.11747
1.10192
1.10511
1.15285
1.17164
1.16798
1.12607
1.13931
1.16693
1.1666
1.16635
1.16619
1.16611
1.16609
1.16611
1.16615
1.16621
1.16631
1.16645
1.16663
1.16685
1.16712
1.1674
1.16756
1.16785
1.16806
1.16776
1.16562
1.15988
1.15423
1.15173
1.15178
1.15494
1.16101
1.16772
1.16642
1.16869
1.16829
1.16906
1.16891
1.16928
1.16918
1.16946
1.16938
1.1696
1.16951
1.16974
1.1697
1.16854
1.16941
1.16517
1.16695
1.15296
1.15422
1.15143
1.15085
1.13785
1.13745
1.16105
1.16115
1.1528
1.15456
1.15319
1.15626
1.15858
1.15844
1.14304
1.14712
1.15404
1.15086
1.12772
1.1311
1.13485
1.13887
1.12199
1.12548
1.12868
1.1318
1.10919
1.11429
1.11949
1.12451
1.09741
1.10302
1.10087
1.10762
1.09151
1.09177
1.0955
1.09309
1.09096
1.09144
1.09021
1.09043
1.09084
1.09495
1.09639
1.09157
1.09031
1.08987
1.09162
1.10961
1.11633
1.09872
1.10222
1.15677
1.17194
1.17016
1.12639
1.14177
1.16642
1.16612
1.16593
1.16586
1.16588
1.16594
1.16602
1.1661
1.1662
1.16632
1.16648
1.16669
1.16693
1.16723
1.16746
1.16766
1.16795
1.16793
1.16693
1.16283
1.15635
1.1522
1.15126
1.15327
1.15849
1.16574
1.16842
1.16779
1.16894
1.16874
1.16919
1.16907
1.16938
1.16929
1.16952
1.16947
1.16972
1.16961
1.16973
1.16979
1.16597
1.16848
1.15758
1.16195
1.13766
1.13839
1.13706
1.14052
1.13871
1.12596
1.12574
1.1578
1.15632
1.14278
1.1453
1.1564
1.15785
1.15514
1.15314
1.14957
1.15269
1.1563
1.15498
1.13504
1.1385
1.14223
1.146
1.12907
1.13305
1.13654
1.1398
1.11281
1.1185
1.12446
1.13029
1.09856
1.105
1.10206
1.1097
1.09053
1.0911
1.09544
1.09299
1.08938
1.08959
1.08856
1.08925
1.08906
1.09217
1.09345
1.08954
1.08861
1.08822
1.08947
1.1075
1.11525
1.09576
1.09943
1.16124
1.17202
1.17119
1.12704
1.14482
1.16544
1.16523
1.16514
1.16527
1.1655
1.16573
1.1659
1.16605
1.16618
1.16634
1.16653
1.16675
1.16703
1.16733
1.1675
1.16777
1.16792
1.16753
1.16512
1.15889
1.15333
1.1512
1.15207
1.15629
1.16328
1.16812
1.16877
1.16847
1.16908
1.16895
1.16929
1.16919
1.16947
1.16938
1.16961
1.16954
1.16983
1.16973
1.16953
1.1698
1.16018
1.1661
1.14363
1.15198
1.1262
1.12794
1.12277
1.11898
1.1288
1.12692
1.11474
1.11465
1.15077
1.14798
1.13125
1.1341
1.15677
1.15654
1.14749
1.14418
1.15424
1.15535
1.15495
1.15545
1.14301
1.14624
1.14941
1.15218
1.13558
1.1401
1.14388
1.14712
1.11491
1.12084
1.12727
1.13377
1.09838
1.10591
1.10163
1.11037
1.0895
1.09054
1.09497
1.09245
1.0882
1.08796
1.08739
1.08828
1.08751
1.0898
1.09083
1.08793
1.0872
1.08697
1.08785
1.1053
1.1145
1.09282
1.09664
1.16485
1.17205
1.17165
1.12809
1.1482
1.16334
1.16331
1.16347
1.16411
1.16481
1.16536
1.16573
1.16598
1.16617
1.16636
1.16658
1.16684
1.16714
1.16741
1.16759
1.16785
1.16774
1.16647
1.16164
1.15502
1.15143
1.15131
1.15449
1.1607
1.16713
1.16883
1.1688
1.16859
1.16896
1.16919
1.16908
1.16937
1.16928
1.16954
1.16946
1.16973
1.1696
1.16988
1.16984
1.16889
1.16974
1.15021
1.16122
1.12528
1.13731
1.11523
1.11665
1.11423
1.11076
1.11711
1.11546
1.10502
1.10522
1.1407
1.13723
1.1195
1.12241
1.15314
1.1506
1.13736
1.13334
1.15483
1.15373
1.14886
1.15167
1.14995
1.15236
1.15413
1.1549
1.13974
1.14482
1.14888
1.15196
1.11547
1.12124
1.12761
1.13426
1.09766
1.10525
1.1005
1.10931
1.08871
1.09001
1.09451
1.09217
1.08733
1.08687
1.08674
1.08763
1.08663
1.0881
1.08879
1.08689
1.08653
1.08653
1.0869
1.10343
1.11376
1.09039
1.09402
1.16725
1.17207
1.17184
1.12936
1.15143
1.15971
1.15998
1.16061
1.16211
1.16372
1.16484
1.1655
1.16589
1.16615
1.16639
1.16664
1.16693
1.16727
1.16745
1.16769
1.16776
1.16717
1.16399
1.15699
1.15208
1.15092
1.15306
1.15846
1.16569
1.16845
1.16896
1.16897
1.16882
1.16908
1.16928
1.16918
1.16946
1.16937
1.16959
1.16954
1.16983
1.16972
1.16988
1.16991
1.16739
1.16948
1.13799
1.15369
1.11143
1.11741
1.12311
1.10625
1.10811
1.10776
1.10442
1.1067
1.10541
1.09736
1.09798
1.12937
1.12569
1.10885
1.11159
1.1453
1.14145
1.12677
1.12244
1.15102
1.14798
1.14019
1.14432
1.15396
1.15468
1.15456
1.15326
1.14064
1.14625
1.15053
1.15292
1.11383
1.11881
1.12435
1.13038
1.09691
1.10351
1.09931
1.10671
1.08829
1.09018
1.09486
1.09236
1.08696
1.0865
1.0867
1.08748
1.08645
1.08707
1.08755
1.08655
1.08651
1.08655
1.08657
1.10123
1.11312
1.08877
1.09176
1.16868
1.17207
1.17184
1.13066
1.15388
1.15554
1.15639
1.15761
1.15977
1.16228
1.16421
1.16524
1.1658
1.16615
1.16643
1.16672
1.16708
1.16737
1.16752
1.16772
1.16748
1.16552
1.15916
1.15314
1.15088
1.15198
1.15653
1.16363
1.16797
1.16882
1.16908
1.16906
1.16894
1.16918
1.16936
1.16927
1.16953
1.16945
1.16971
1.16959
1.16991
1.16982
1.16985
1.16996
1.16465
1.16893
1.13001
1.14565
1.10854
1.11283
1.1221
1.11542
1.09942
1.1016
1.10462
1.10095
1.09839
1.09751
1.09195
1.09311
1.11841
1.11477
1.10021
1.10261
1.13574
1.13129
1.1168
1.11269
1.14393
1.1397
1.13049
1.13517
1.15337
1.15293
1.15075
1.14768
1.13653
1.14222
1.14669
1.1485
1.11
1.11347
1.11721
1.12129
1.09759
1.1016
1.10013
1.10391
1.08895
1.09129
1.09837
1.09446
1.08708
1.08668
1.08737
1.0884
1.08687
1.08666
1.08696
1.08656
1.08697
1.08699
1.08657
1.0992
1.11242
1.08786
1.09033
1.16883
1.17203
1.17157
1.13087
1.15391
1.15192
1.15333
1.1551
1.15775
1.16082
1.16352
1.16497
1.16571
1.16617
1.1665
1.16688
1.16722
1.1674
1.16761
1.16756
1.16644
1.16147
1.15444
1.15101
1.15127
1.15491
1.16145
1.16724
1.16862
1.16904
1.16906
1.16893
1.16916
1.16915
1.16926
1.16944
1.16935
1.16958
1.16952
1.16981
1.16969
1.16996
1.1699
1.16976
1.16998
1.1609
1.16804
1.1207
1.12522
1.1324
1.14231
1.10783
1.11171
1.11605
1.09507
1.09768
1.10401
1.10017
1.09225
1.09178
1.08849
1.09024
1.10894
1.10555
1.09341
1.09513
1.12579
1.12124
1.10677
1.10318
1.13415
1.12932
1.11966
1.12445
1.14841
1.14636
1.14302
1.13878
1.12561
1.12983
1.13343
1.13571
1.10597
1.10782
1.1095
1.11094
1.10136
1.10258
1.10267
1.10486
1.09113
1.09512
1.09942
1.09818
1.08843
1.08801
1.08969
1.092
1.08834
1.08664
1.08689
1.08697
1.08846
1.08864
1.08689
1.09684
1.11065
1.08748
1.08945
1.16754
1.17129
1.16999
1.12982
1.15088
1.14955
1.15121
1.15334
1.15628
1.15966
1.16283
1.16475
1.16569
1.16623
1.16665
1.16699
1.16731
1.16744
1.16755
1.16693
1.16338
1.15587
1.15139
1.15081
1.15358
1.1594
1.16621
1.16836
1.16884
1.16913
1.16912
1.16902
1.16924
1.16922
1.16934
1.16951
1.16942
1.16966
1.16958
1.16988
1.16979
1.17001
1.16995
1.16961
1.17
1.15774
1.16698
1.12114
1.1274
1.13231
1.14696
1.13881
1.10848
1.11216
1.11762
1.09286
1.09633
1.1047
1.10064
1.08736
1.08754
1.08615
1.08877
1.10005
1.09732
1.08768
1.08867
1.11508
1.11077
1.09752
1.09456
1.12231
1.11755
1.10859
1.11301
1.1358
1.13492
1.13158
1.12686
1.11219
1.11329
1.11415
1.11479
1.10578
1.10708
1.1076
1.10758
1.11596
1.10416
1.11629
1.10497
1.09548
1.0973
1.1145
1.11419
1.0916
1.08999
1.0917
1.09371
1.09041
1.08689
1.08705
1.08843
1.09092
1.09094
1.0883
1.0949
1.10744
1.08776
1.08903
1.16265
1.16029
1.15746
1.12529
1.14003
1.14843
1.15003
1.1523
1.15538
1.15893
1.16232
1.16464
1.16574
1.16633
1.16674
1.16716
1.16734
1.16748
1.16718
1.16467
1.1574
1.15198
1.15054
1.15249
1.15768
1.16481
1.16803
1.16867
1.16898
1.1692
1.16918
1.16909
1.16931
1.16929
1.1694
1.16957
1.16949
1.16977
1.16964
1.16992
1.16985
1.17007
1.17001
1.16951
1.17003
1.15724
1.16661
1.12367
1.12991
1.13383
1.14722
1.14151
1.11139
1.11455
1.12087
1.09232
1.09637
1.10761
1.10286
1.08354
1.08442
1.08502
1.08838
1.09215
1.09014
1.08342
1.08368
1.10458
1.10079
1.08957
1.08737
1.10832
1.105
1.09793
1.10167
1.11558
1.11586
1.11533
1.1117
1.10755
1.10721
1.10651
1.10522
1.11696
1.11627
1.11569
1.11495
1.12971
1.116
1.13008
1.11643
1.11272
1.11311
1.12936
1.12911
1.11077
1.0922
1.11032
1.11059
1.09283
1.08791
1.08817
1.09139
1.093
1.09389
1.09105
1.09323
1.10334
1.08799
1.08913
1.14356
1.14456
1.13949
1.11732
1.12659
1.14817
1.14963
1.15194
1.15506
1.15871
1.16219
1.1647
1.16583
1.16644
1.1669
1.16724
1.16736
1.16725
1.16552
1.15901
1.15269
1.15046
1.15165
1.15617
1.16311
1.16757
1.1685
1.16882
1.16909
1.16915
1.16927
1.16924
1.16938
1.16936
1.16947
1.16961
1.16955
1.16983
1.16975
1.16999
1.1699
1.17012
1.17007
1.16953
1.17006
1.15878
1.16692
1.12713
1.13357
1.13686
1.1493
1.14418
1.11567
1.11848
1.12522
1.09254
1.09763
1.11168
1.10615
1.08119
1.08263
1.08485
1.08861
1.08572
1.0845
1.08048
1.08039
1.09497
1.09195
1.08341
1.08217
1.09489
1.09295
1.08873
1.09114
1.10372
1.10112
1.10049
1.09715
1.11393
1.11339
1.11225
1.11158
1.12896
1.12814
1.1277
1.12637
1.14668
1.12927
1.14684
1.12969
1.12853
1.12893
1.14662
1.14651
1.12739
1.1102
1.12714
1.12724
1.11005
1.09127
1.08875
1.09381
1.10977
1.11068
1.09329
1.0923
1.09959
1.08881
1.08948
1.12806
0.94561
1.12428
1.10987
1.11614
1.14863
1.14993
1.15212
1.15519
1.15882
1.16231
1.16485
1.16599
1.16662
1.16711
1.16724
1.16723
1.16603
1.16047
1.1535
1.15048
1.15103
1.15487
1.16139
1.16694
1.16832
1.16868
1.16893
1.16918
1.16921
1.16926
1.16933
1.1693
1.16944
1.16942
1.16952
1.16972
1.16959
1.16988
1.1698
1.17005
1.16996
1.17015
1.17012
1.16965
1.1701
1.15885
1.15166
1.1644
1.16784
1.13156
1.13784
1.14035
1.14753
1.12087
1.12346
1.13035
1.09369
1.09974
1.11644
1.10981
1.0804
1.08209
1.08515
1.0896
1.08107
1.08064
1.07948
1.07912
1.08686
1.08504
1.08089
1.08031
1.09103
1.08885
1.08505
1.08647
1.10959
1.09971
1.09711
1.094
1.1259
1.12508
1.12423
1.12364