/*--------------------------------*- C++ -*----------------------------------*\
  =========                 |
  \\      /  F ield         | OpenFOAM: The Open Source CFD Toolbox
   \\    /   O peration     | Website:  https://openfoam.org
    \\  /    A nd           | Version:  dev
     \\/     M anipulation  |
\*---------------------------------------------------------------------------*/
FoamFile
{
    version     2.0;
    format      ascii;
    class       volScalarField;
    location    "2500";
    object      T;
}
// * * * * * * * * * * * * * * * * * * * * * * * * * * * * * * * * * * * * * //

dimensions      [0 0 0 1 0 0 0];

internalField   nonuniform List<scalar> 
9848
(
300.089
300.127
300.109
300.132
300.197
300.101
300.111
300.238
300.203
300.087
300.116
300.259
300.276
300.179
300.075
300.107
300.24
300.316
300.27
300.159
300.065
300.085
300.233
300.343
300.343
300.245
300.137
300.055
300.09
300.221
300.337
300.384
300.328
300.221
300.124
300.052
300.085
300.199
300.308
300.406
300.391
300.3
300.194
300.112
300.05
300.077
300.181
300.291
300.421
300.434
300.372
300.271
300.177
300.106
300.049
300.07
300.156
300.263
300.416
300.465
300.428
300.337
300.233
300.163
300.101
300.047
300.069
300.144
300.263
300.399
300.479
300.482
300.416
300.304
300.216
300.149
300.097
300.045
300.061
300.146
300.228
300.368
300.481
300.515
300.475
300.385
300.279
300.202
300.145
300.093
300.041
300.06
300.142
300.226
300.364
300.477
300.532
300.521
300.448
300.347
300.264
300.191
300.138
300.09
300.041
300.06
300.136
300.214
300.327
300.445
300.541
300.554
300.512
300.412
300.322
300.244
300.184
300.135
300.087
300.041
300.059
300.122
300.208
300.307
300.435
300.551
300.583
300.555
300.479
300.377
300.295
300.231
300.175
300.129
300.084
300.041
300.055
300.125
300.205
300.3
300.419
300.538
300.599
300.597
300.537
300.446
300.344
300.28
300.22
300.173
300.128
300.082
300.04
300.051
300.119
300.198
300.285
300.392
300.527
300.605
300.627
300.586
300.502
300.406
300.33
300.27
300.213
300.169
300.124
300.083
300.04
300.053
300.119
300.195
300.258
300.35
300.509
300.605
300.643
300.629
300.56
300.47
300.383
300.315
300.259
300.206
300.162
300.123
300.083
300.039
300.052
300.108
300.177
300.258
300.372
300.506
300.603
300.655
300.66
300.612
300.526
300.434
300.357
300.303
300.248
300.205
300.162
300.123
300.082
300.04
300.052
300.106
300.172
300.266
300.362
300.486
300.601
300.658
300.693
300.656
300.581
300.501
300.415
300.349
300.293
300.246
300.202
300.161
300.123
300.082
300.041
300.048
300.109
300.174
300.255
300.357
300.439
300.593
300.671
300.712
300.696
300.635
300.556
300.466
300.39
300.331
300.284
300.241
300.198
300.161
300.123
300.083
300.04
300.051
300.107
300.178
300.235
300.345
300.445
300.598
300.674
300.722
300.724
300.678
300.607
300.51
300.446
300.382
300.324
300.28
300.238
300.199
300.16
300.123
300.082
300.041
300.046
300.11
300.17
300.256
300.326
300.445
300.58
300.68
300.731
300.754
300.72
300.662
300.567
300.484
300.422
300.363
300.319
300.275
300.235
300.199
300.161
300.124
300.083
300.041
300.05
300.106
300.181
300.252
300.328
300.476
300.548
300.679
300.741
300.78
300.764
300.705
300.611
300.538
300.465
300.407
300.353
300.315
300.272
300.234
300.198
300.164
300.126
300.086
300.042
300.049
300.106
300.183
300.253
300.361
300.457
300.552
300.693
300.747
300.795
300.788
300.749
300.675
300.594
300.523
300.446
300.398
300.353
300.31
300.272
300.234
300.199
300.165
300.128
300.087
300.042
300.051
300.105
300.187
300.27
300.346
300.454
300.586
300.692
300.766
300.806
300.819
300.788
300.721
300.645
300.565
300.5
300.439
300.392
300.349
300.309
300.272
300.238
300.201
300.167
300.13
300.089
300.044
300.047
300.116
300.187
300.258
300.343
300.463
300.59
300.693
300.773
300.826
300.838
300.818
300.763
300.697
300.61
300.541
300.483
300.427
300.386
300.346
300.306
300.272
300.238
300.205
300.169
300.132
300.09
300.044
300.048
300.123
300.197
300.287
300.38
300.461
300.605
300.696
300.778
300.84
300.863
300.849
300.812
300.74
300.647
300.588
300.525
300.471
300.424
300.38
300.342
300.308
300.274
300.242
300.209
300.174
300.135
300.093
300.045
300.047
300.118
300.207
300.284
300.382
300.48
300.617
300.685
300.79
300.857
300.882
300.881
300.843
300.788
300.708
300.632
300.56
300.51
300.461
300.416
300.378
300.343
300.31
300.278
300.247
300.215
300.179
300.14
300.095
300.046
300.052
300.122
300.21
300.292
300.402
300.503
300.595
300.699
300.81
300.866
300.906
300.915
300.881
300.827
300.751
300.669
300.61
300.55
300.499
300.452
300.413
300.377
300.344
300.314
300.284
300.254
300.221
300.185
300.144
300.098
300.047
300.049
300.125
300.203
300.305
300.417
300.504
300.614
300.729
300.822
300.884
300.923
300.937
300.918
300.868
300.797
300.728
300.654
300.589
300.535
300.487
300.446
300.41
300.378
300.348
300.32
300.292
300.262
300.229
300.192
300.149
300.1
300.048
300.057
300.138
300.209
300.329
300.428
300.54
300.645
300.734
300.816
300.902
300.945
300.959
300.946
300.902
300.84
300.768
300.697
300.631
300.568
300.522
300.475
300.441
300.411
300.381
300.355
300.33
300.302
300.273
300.239
300.199
300.154
300.103
300.048
300.053
300.123
300.238
300.352
300.436
300.542
300.651
300.746
300.832
300.924
300.955
300.978
300.973
300.934
300.88
300.807
300.737
300.677
300.626
300.558
300.511
300.469
300.441
300.414
300.388
300.365
300.342
300.315
300.285
300.25
300.208
300.158
300.105
300.023
300.05
300.056
300.134
300.236
300.352
300.454
300.561
300.682
300.763
300.853
300.932
300.978
301.005
300.994
300.97
300.917
300.851
300.78
300.712
300.663
300.62
300.549
300.502
300.469
300.444
300.42
300.399
300.38
300.358
300.332
300.301
300.263
300.215
300.156
300.079
300.107
300.022
300.05
300.062
300.135
300.261
300.388
300.494
300.582
300.704
300.766
300.855
300.94
300.995
301.024
301.025
301.002
300.951
300.892
300.814
300.748
300.679
300.645
300.606
300.544
300.496
300.47
300.451
300.434
300.417
300.401
300.381
300.354
300.32
300.276
300.193
300.224
300.137
300.186
300.166
300.078
300.106
300.021
300.05
300.059
300.121
300.242
300.389
300.514
300.607
300.71
300.796
300.883
300.962
301.002
301.043
301.047
301.033
300.991
300.93
300.866
300.792
300.724
300.663
300.625
300.588
300.534
300.499
300.477
300.468
300.462
300.456
300.446
300.424
300.39
300.345
300.259
300.295
300.219
300.135
300.197
300.165
300.078
300.106
300.022
300.051
300.055
300.125
300.245
300.394
300.533
300.617
300.71
300.823
300.875
300.966
301.023
301.065
301.07
301.059
301.03
300.968
300.903
300.844
300.765
300.698
300.653
300.621
300.583
300.537
300.509
300.508
300.53
300.558
300.578
300.575
300.537
300.465
300.336
300.384
300.257
300.298
300.231
300.135
300.198
300.165
300.079
300.106
300.022
300.051
300.056
300.129
300.296
300.452
300.576
300.642
300.725
300.832
300.9
300.982
301.04
301.08
301.093
301.087
301.06
301.008
300.946
300.871
300.815
300.745
300.68
300.637
300.61
300.583
300.558
300.571
300.647
300.777
300.907
300.989
300.978
300.866
300.463
300.638
300.345
300.412
300.269
300.313
300.235
300.135
300.199
300.165
300.079
300.107
300.022
300.051
300.058
300.132
300.332
300.45
300.59
300.673
300.742
300.835
300.919
300.98
301.052
301.096
301.106
301.112
301.083
301.047
300.984
300.922
300.851
300.786
300.722
300.663
300.636
300.61
300.619
300.688
300.869
301.186
301.598
301.925
302.075
301.973
301.034
301.826
300.542
300.851
300.371
300.47
300.278
300.331
300.239
300.135
300.2
300.165
300.079
300.107
300.022
300.052
300.061
300.141
300.313
300.482
300.616
300.695
300.77
300.848
300.933
300.99
301.068
301.105
301.132
301.136
301.119
301.079
301.017
300.959
300.888
300.827
300.763
300.699
300.649
300.635
300.664
300.834
301.222
301.815
302.493
303.163
303.589
303.69
302.579
303.589
301.521
302.38
300.694
301.227
300.41
300.569
300.287
300.353
300.243
300.135
300.202
300.165
300.079
300.107
300.023
300.052
300.064
300.155
300.331
300.527
300.615
300.714
300.786
300.859
300.935
301.009
301.073
301.121
301.152
301.151
301.144
301.111
301.06
300.996
300.938
300.864
300.8
300.739
300.674
300.644
300.682
300.95
301.646
302.674
303.739
304.573
305.21
305.587
304.469
305.638
303.329
304.364
302.071
303.044
300.944
301.724
300.468
300.728
300.298
300.384
300.248
300.134
300.203
300.165
300.079
300.106
300.023
300.051
300.067
300.169
300.351
300.543
300.629
300.713
300.799
300.867
300.938
301.013
301.079
301.134
301.163
301.178
301.172
301.136
301.092
301.035
300.972
300.91
300.841
300.778
300.714
300.661
300.688
300.993
301.976
303.596
305.227
306.496
307.208
307.602
306.617
307.962
305.485
306.678
304.127
305.32
302.704
303.831
301.339
302.317
300.562
300.982
300.314
300.436
300.255
300.134
300.205
300.166
300.078
300.105
300.023
300.05
300.071
300.184
300.37
300.56
300.649
300.735
300.808
300.874
300.933
301.012
301.079
301.145
301.181
301.198
301.192
301.17
301.124
301.073
301.015
300.944
300.881
300.816
300.753
300.693
300.694
300.991
302.092
304.271
306.725
308.591
309.823
310.407
309.027
310.52
307.943
309.227
306.611
307.964
305.097
306.486
303.488
304.833
301.883
303.096
300.723
301.41
300.34
300.53
300.267
300.133
300.21
300.167
300.077
300.104
300.021
300.046
300.073
300.198
300.388
300.568
300.661
300.748
300.811
300.875
300.94
301.016
301.08
301.15
301.193
301.209
301.208
301.198
301.164
301.11
301.048
300.986
300.918
300.855
300.791
300.727
300.703
300.96
302.081
304.497
307.612
309.672
310.748
311.367
311.308
311.788
310.549
311.461
309.32
310.627
307.955
309.399
306.323
307.902
304.535
306.143
302.652
304.19
301.017
302.138
300.393
300.729
300.294
300.133
300.223
300.173
300.074
300.103
300.019
300.041
300.077
300.214
300.402
300.56
300.67
300.756
300.809
300.877
300.946
301.005
301.072
301.148
301.199
301.223
301.236
301.222
301.193
301.145
301.092
301.028
300.961
300.893
300.83
300.764
300.718
300.877
301.966
304.504
307.726
309.602
310.601
311.182
311.555
311.81
311.872
311.443
311.794
310.656
311.385
309.454
310.642
307.831
309.466
305.94
307.751
303.799
305.705
301.605
303.359
300.519
301.189
300.371
300.138
300.266
300.199
300.065
300.109
300.015
300.051
300.083
300.231
300.417
300.579
300.694
300.762
300.815
300.888
300.949
301.018
301.076
301.138
301.203
301.239
301.253
301.244
301.22
301.18
301.127
301.075
301.003
300.935
300.868
300.803
300.744
300.804
301.651
304.256
307.422
309.106
309.959
310.171
309.945
310.735
309.026
311.807
311.521
311.711
311.669
311.287
311.579
310.613
311.176
309.449
310.576
307.656
309.403
305.445
307.545
302.821
305.141
300.863
302.257
300.615
300.16
300.431
300.314
300.097
300.166
300.086
300.252
300.091
300.252
300.435
300.602
300.684
300.764
300.818
300.897
300.95
301.02
301.074
301.138
301.207
301.247
301.27
301.269
301.247
301.211
301.163
301.107
301.048
300.978
300.91
300.842
300.777
300.77
301.291
303.579
306.751
308.185
308.519
307.627
306.095
307.203
304.577
308.685
306.669
311.303
310.358
311.497
311.046
311.418
311.292
311.076
311.258
310.532
311.002
309.34
310.483
307.417
309.286
304.772
307.256
301.784
304.315
301.392
300.307
301.037
300.858
300.385
300.594
300.782
301.289
300.11
300.283
300.457
300.614
300.694
300.777
300.826
300.898
300.949
301.017
301.069
301.128
301.203
301.256
301.279
301.286
301.27
301.242
301.195
301.14
301.091
301.021
300.952
300.884
300.816
300.768
301.019
302.73
305.944
307.356
307.244
305.183
303.008
303.171
301.773
304.482
302.629
306.394
304.296
309.987
308.343
310.768
309.628
311.083
310.491
311.127
310.904
310.972
311.052
310.47
310.996
309.23
310.487
307.024
309.153
303.814
306.724
303.272
301.135
302.779
302.717
301.721
302.371
303.286
304.438
300.147
300.333
300.487
300.623
300.705
300.771
300.835
300.899
300.956
301.011
301.07
301.134
301.201
301.255
301.29
301.3
301.294
301.269
301.232
301.174
301.12
301.063
300.995
300.926
300.856
300.789
300.867
301.952
304.958
306.654
306.502
304.047
302.264
301.26
301.602
301.146
302.481
301.475
304.149
302.512
308.018
306.138
309.312
307.769
310.255
309.096
310.801
310.124
311.073
310.845
311.095
311.225
310.518
311.236
309.022
310.543
306.364
308.836
305.954
303.669
305.635
305.844
305.034
305.827
304.129
306.97
300.411
300.529
300.635
300.717
300.779
300.85
300.905
300.958
301.007
301.065
301.129
301.193
301.254
301.295
301.314
301.312
301.293
301.262
301.213
301.153
301.106
301.038
300.97
300.899
300.829
300.816
301.363
303.79
306.031
306.093
303.948
302.406
301.485
300.91
301.046
301.043
300.914
301.511
301.043
302.808
301.753
306.009
304.271
307.696
306.191
309.106
307.975
310.253
309.462
311.079
310.66
311.473
311.417
311.412
311.82
310.536
311.607
308.6
310.494
308.347
306.931
308.242
308.562
307.963
308.542
301.52
306.422
300.595
300.665
300.736
300.793
300.851
300.903
300.953
301.007
301.058
301.131
301.189
301.249
301.296
301.326
301.33
301.316
301.29
301.249
301.193
301.137
301.083
301.013
300.943
300.871
300.815
301.028
302.664
305.287
305.88
304.14
302.836
302.036
301.199
301.528
300.852
300.939
300.867
300.826
301.164
300.901
302.341
301.511
304.764
303.457
306.76
305.545
308.544
307.563
310.02
309.258
311.142
310.663
311.918
311.823
312.241
312.586
311.79
312.696
310.417
311.937
310.33
309.359
310.361
310.465
309.782
308.919
310.026
300.967
305.824
300.715
300.76
300.81
300.855
300.905
300.952
301.006
301.053
301.129
301.183
301.243
301.296
301.334
301.345
301.339
301.316
301.282
301.233
301.171
301.123
301.059
300.988
300.916
300.841
300.889
301.772
304.278
305.63
304.571
303.407
302.696
301.939
301.138
301.365
300.795
300.855
300.802
300.78
301.039
300.835
302.241
301.413
304.386
303.281
306.493
305.464
308.417
307.562
310.069
309.423
311.553
311.133
312.722
312.649
313.347
313.748
313.134
314.107
312.054
313.472
312.778
311.241
312.079
310.701
310.339
310.847
311.283
312.101
312.115
311.359
309.226
311.032
311.001
310.334
301.357
306.569
300.795
300.828
300.869
300.912
300.958
301.006
301.053
301.13
301.182
301.237
301.295
301.337
301.358
301.358
301.339
301.312
301.27
301.214
301.151
301.102
301.034
300.961
300.887
300.859
301.233
303.112
305.141
304.924
303.949
303.329
302.64
301.468
301.889
300.99
301.22
300.76
300.793
300.765
300.751
300.963
300.791
302.229
301.316
304.485
303.415
306.714
305.783
308.719
307.827
310.562
309.785
312.355
311.785
313.876
313.681
314.818
314.727
314.802
314.092
314.686
315.556
315.159
313.634
312.921
313.757
314.342
312.965
311.476
311.568
312.142
313
312.989
312.186
310.713
308.992
310.155
311.601
311.462
303.987
309.318
308.424
307.013
300.852
300.882
300.918
300.962
301.002
301.054
301.125
301.176
301.232
301.292
301.337
301.367
301.374
301.363
301.338
301.303
301.254
301.192
301.138
301.079
301.008
300.934
300.866
300.985
302.07
304.318
304.968
304.41
303.886
303.317
302.32
301.305
301.598
300.874
301.043
300.733
300.755
300.737
300.726
300.88
300.747
302.025
301.117
304.683
303.393
306.852
305.751
308.827
307.736
310.961
309.936
313.185
312.458
314.806
314.735
314.631
314.462
315.825
316.013
315.421
315.472
314.995
315.566
316.348
316.015
314.545
313.837
314.704
315.28
313.902
312.229
312.238
313.015
313.935
313.946
313.014
311.107
310.529
312.167
311.948
307.697
304.991
306.544
309.763
308.977
300.897
300.926
300.966
301.001
301.053
301.114
301.172
301.227
301.289
301.337
301.374
301.387
301.384
301.363
301.334
301.291
301.235
301.17
301.124
301.055
300.981
300.903
300.908
301.397
303.242
304.807
304.681
304.338
303.906
303.069
301.639
302.095
301.064
301.339
300.798
300.883
300.713
300.727
300.714
300.709
300.785
300.713
301.561
300.922
304.436
302.933
306.504
305.12
308.752
307.396
311.505
310.302
314.27
314.004
313.701
313.295
315.473
315.433
315.36
315.245
316.584
316.76
316.127
316.201
315.923
316.444
317.125
316.834
315.523
314.826
315.719
316.245
314.91
312.991
312.921
313.933
314.952
314.958
313.886
311.547
310.963
312.767
312.485
308.127
305.077
306.838
310.237
309.407
300.935
300.969
301.001
301.052
301.104
301.172
301.225
301.285
301.335
301.379
301.399
301.402
301.387
301.361
301.325
301.276
301.214
301.152
301.102
301.029
300.954
300.904
301.073
302.206
304.22
304.699
304.63
304.381
303.747
302.509
301.362
301.699
300.886
301.068
300.755
300.801
300.696
300.705
300.698
300.695
300.737
300.686
301.213
300.842
303.614
302.151
305.882
304.365
308.884
307.295
312.836
312.246
311.601
310.815
315.082
314.851
314.542
314.139
316.244
316.255
316.228
316.14
317.359
316.903
317.564
317.023
316.833
317.284
317.913
317.628
316.523
315.873
316.752
317.184
315.976
313.801
313.657
314.916
316.029
316.028
314.826
312.051
311.458
313.43
313.092
308.353
304.272
306.464
310.694
309.734
300.972
301.002
301.05
301.101
301.173
301.223
301.282
301.337
301.385
301.408
301.416
301.41
301.386
301.355
301.313
301.258
301.191
301.14
301.077
301.003
300.924
300.958
301.493
303.198
304.549
304.718
304.711
304.308
303.282
301.662
302.133
301.042
301.333
300.799
300.879
300.724
300.753
300.685
300.688
300.683
300.684
300.713
300.669
301.099
300.811
302.946
301.779
305.656
304.102
309.805
307.944
313.637
313.023
312.301
311.457
315.978
315.729
315.381
314.926
317.11
317.144
317.11
316.982
318.172
317.746
318.404
317.89
317.693
318.087
318.721
318.418
317.489
316.935
317.746
318.061
317.059
314.681
314.468
315.964
317.127
317.127
315.837
312.616
311.974
314.173
313.771
308.32
302.667
305.438
311.108
309.957
301.003
301.048
301.098
301.169
301.221
301.281
301.338
301.387
301.417
301.429
301.428
301.411
301.384
301.346
301.298
301.237
301.169
301.123
301.053
300.975
300.941
301.138
302.222
304.032
304.676
304.855
304.722
303.961
302.522
301.291
301.657
300.867
301.009
300.75
300.794
300.699
300.72
300.667
300.676
300.65
300.655
300.698
300.651
301.067
300.803
302.742
301.684
306.058
304.363
311.073
310.024
307.94
309.028
314.363
313.69
312.911
312.03
316.744
316.388
315.927
315.37
317.958
317.937
317.775
317.468
318.991
318.582
319.187
318.655
318.501
318.871
319.508
319.21
318.382
317.955
318.658
318.871
318.103
315.637
315.361
317.053
318.192
318.207
316.899
313.229
312.489
314.996
314.515
307.936
301.231
304.23
311.482
309.982
301.044
301.094
301.162
301.219
301.28
301.341
301.391
301.425
301.441
301.445
301.435
301.41
301.378
301.335
301.28
301.213
301.156
301.102
301.026
300.953
301.003
301.536
303.1
304.467
304.856
304.974
304.506
303.307
301.546
302.015
300.973
301.208
300.787
300.853
300.717
300.747
300.681
300.695
300.637
300.655
300.635
300.628
300.698
300.654
301.119
300.859
302.913
301.774
306.951
305.907
304.541
311.213
310.148
307.972
309.07
314.722
313.982
313.148
312.222
317.058
316.577
316.015
315.379
318.596
318.352
317.964
317.476
319.714
319.241
319.746
319.13
319.274
319.639
320.176
319.96
319.193
318.886
319.474
319.629
319.058
316.659
316.324
318.139
319.174
319.214
317.977
313.872
312.992
315.886
315.307
307.252
301.671
303.733
311.795
309.789
301.089
301.154
301.215
301.282
301.345
301.397
301.433
301.453
301.46
301.455
301.436
301.408
301.369
301.32
301.261
301.188
301.144
301.076
300.996
300.976
301.184
302.207
303.889
304.767
305.06
304.899
303.987
302.377
301.144
301.492
300.837
300.94
300.743
300.78
300.692
300.715
300.669
300.677
300.615
300.623
300.635
300.622
300.765
300.73
301.237
301.106
302.903
301.74
306.918
305.906
304.528
303.62
310.982
309.878
307.621
308.752
314.668
313.876
312.999
312.032
316.905
316.269
315.6
314.897
318.779
318.291
317.642
316.906
320.194
319.591
320.017
319.154
320.015
320.354
320.602
320.585
319.936
319.709
320.206
320.341
319.898
317.712
317.334
319.172
320.037
320.113
319.028
314.53
313.496
316.817
316.124
306.555
300.676
302.794
311.979
309.429
301.145
301.211
301.284
301.352
301.407
301.444
301.466
301.475
301.473
301.461
301.435
301.402
301.358
301.305
301.234
301.17
301.123
301.049
300.984
301.045
301.57
303.041
304.474
305.037
305.137
304.531
303.16
301.337
301.779
300.908
301.063
300.774
300.823
300.713
300.74
300.672
300.689
300.644
300.663
300.617
300.606
300.693
300.649
301.079
301.056
301.862
302.072
302.921
302.217
301.908
306.527
305.488
303.97
303.247
310.289
309.148
306.867
307.998
314.145
313.316
312.395
311.383
316.14
315.385
314.651
313.909
318.511
317.661
316.719
315.749
320.426
319.502
319.877
318.724
320.696
320.945
320.825
320.977
320.622
320.434
320.869
320.991
320.628
318.761
318.348
320.112
320.784
320.894
320.005
315.196
313.96
317.759
316.95
305.8
300.318
301.857
312.045
309.01
301.207
301.288
301.363
301.421
301.46
301.482
301.492
301.491
301.482
301.462
301.433
301.393
301.345
301.281
301.21
301.158
301.098
301.019
301.011
301.231
302.231
303.855
304.906
305.227
304.932
303.828
302.09
301.01
301.271
300.812
300.881
300.737
300.769
300.687
300.711
300.657
300.668
300.612
300.635
300.672
300.611
300.951
300.799
302.142
302.084
303.321
303.62
304.796
302.722
302.334
303.052
302.865
305.799
304.827
303.43
303.032
309.093
307.942
305.765
306.82
313.115
312.243
311.274
310.219
314.83
313.988
313.196
312.402
317.714
316.556
315.348
314.177
320.279
319.039
319.46
317.936
321.263
321.313
320.733
321.194
321.247
321.079
321.471
321.548
321.269
319.755
319.33
320.934
321.429
321.556
320.871
315.882
314.362
318.688
317.791
304.915
300.118
301.04
312.017
308.468
301.296
301.381
301.447
301.489
301.509
301.516
301.513
301.504
301.487
301.461
301.427
301.382
301.325
301.257
301.185
301.143
301.071
301.016
301.09
301.634
303.1
304.558
305.207
305.195
304.377
302.815
301.106
301.435
300.861
300.96
300.765
300.803
300.709
300.735
300.664
300.685
300.629
300.653
300.595
300.603
300.897
300.678
301.751
301.298
304.882
304.557
305.282
305.431
308.849
308.956
302.802
302.777
304.924
304.47
304.826
304.031
303.435
303.47
307.478
306.406
304.606
305.431
311.565
310.653
309.65
308.58
313.115
312.167
311.303
310.464
316.637
315.222
313.793
312.426
319.95
318.363
318.968
317.073
321.639
321.564
320.49
321.181
321.801
321.666
322.016
321.949
321.839
320.662
320.253
321.63
321.988
322.116
321.616
316.533
314.674
319.59
318.6
303.902
300.041
300.49
311.928
307.815
301.428
301.505
301.555
301.574
301.569
301.554
301.535
301.515
301.491
301.46
301.419
301.367
301.304
301.228
301.169
301.118
301.043
301.049
301.3
302.343
304.007
305.085
305.329
304.807
303.46
301.609
300.929
301.088
300.797
300.846
300.734
300.762
300.685
300.709
300.649
300.663
300.598
300.627
300.597
300.58
301.546
300.911
303.689
302.571
308.9
308.707
309.061
308.142
308.622
312.045
312.104
303.636
304.017
307.546
306.883
303.997
303.624
304.32
304.837
305.766
304.956
304.023
304.363
309.599
308.676
307.691
306.7
311.195
310.128
309.195
308.331
315.629
314.063
312.436
310.863
319.618
317.801
318.626
316.49
321.919
321.751
320.502
321.206
322.249
322.195
322.486
322.285
322.345
321.457
321.09
322.209
322.475
322.586
322.229
317.12
314.97
320.429
319.388
302.754
300.02
300.231
311.751
307.012
301.676
301.733
301.755
301.725
301.666
301.609
301.565
301.529
301.494
301.456
301.407
301.35
301.278
301.201
301.159
301.091
301.051
301.148
301.761
303.354
304.788
305.344
305.12
304.027
302.235
301.003
300.838
300.916
300.76
300.793
300.709
300.733
300.663
300.685
300.627
300.645
300.569
300.597
300.646
300.577
303.022
301.514
307.321
305.138
311.979
311.508
312.914
313.952
311.276
311.784
315.118
315.144
305.452
306.181
310.613
309.851
303.901
303.96
306.308
307.176
304.556
304.269
304.37
304.242
307.485
306.636
305.808
305.088
309.45
308.251
307.255
306.405
315.045
313.419
311.673
309.928
319.663
317.543
318.743
316.299
322.212
321.908
320.63
321.353
322.586
322.66
322.82
322.56
322.788
322.131
321.836
322.669
322.875
322.937
322.69
317.735
315.176
321.264
320.176
301.834
300.013
300.114
311.466
306.125
302.213
302.221
302.182
302.019
301.841
301.701
301.608
301.546
301.499
301.45
301.394
301.327
301.249
301.181
301.136
301.069
301.095
301.417
302.648
304.351
305.284
305.316
304.492
302.894
301.253
300.824
300.832
300.883
300.79
300.733
300.759
300.686
300.709
300.644
300.663
300.596
300.63
300.558
300.568
300.808
300.593
305.598
302.757
312.23
308.995
314.983
314.593
315.262
316.225
314.464
314.92
317.829
317.775
308.094
309.015
313.805
313.009
304.838
305.497
308.978
310.053
304.402
304.685
305.95
305.22
305.667
305.042
304.582
304.383
308.343
307.006
305.944
305.144
314.887
313.307
311.578
309.794
319.862
317.724
319.056
316.589
322.433
322.052
320.753
321.426
322.831
322.967
322.998
322.739
323.033
322.616
322.415
322.959
323.059
323.053
322.953
318.257
315.38
321.956
320.917
301.225
300.01
300.067
311.123
305.283
303.14
303.073
302.911
302.53
302.118
301.833
301.666
301.568
301.502
301.441
301.377
301.304
301.218
301.17
301.109
301.09
301.24
302.048
303.843
305.113
305.417
304.862
303.466
301.62
300.919
300.79
300.787
300.825
300.761
300.71
300.734
300.665
300.687
300.63
300.644
300.569
300.597
300.556
300.548
301.186
300.658
308.815
304.693
316.039
314.384
312.822
317.485
316.964
317.064
318.002
317.357
317.718
319.999
319.823
311.12
312.117
316.755
315.989
306.88
307.894
311.822
313
305.388
306.18
308.228
307.139
304.628
304.441
304.471
304.807
308.104
306.629
305.514
304.896
315.336
313.966
312.455
310.83
320.064
318.204
319.379
317.305
322.546
321.997
320.642
321.364
322.93
323.064
323.001
322.777
323.076
322.905
322.765
323.05
323.054
323.041
323.041
318.874
315.556
322.417
321.562
300.864
300.009
300.066
310.773
304.647
304.214
303.996
303.682
303.129
302.487
301.995
301.733
301.591
301.503
301.43
301.357
301.266
301.191
301.152
301.1
301.162
301.657
303.283
304.838
305.426
305.141
303.964
302.143
301.041
300.825
300.76
300.764
300.794
300.735
300.689
300.711
300.645
300.666
300.601
300.631
300.549
300.571
300.563
300.537
301.88
300.797
310.951
306.79
316.846
315.651
313.098
314.933
319.414
318.797
317.946
318.98
319.703
319.955
321.547
321.216
314.102
315.106
319.186
318.505
309.411
310.601
314.544
315.68
307.239
308.355
310.816
309.561
304.778
304.892
305.458
306.258
309.189
307.686
306.513
306.042
316.388
315.427
314.397
313.283
319.859
318.73
319.132
318.079
322.346
321.664
319.609
320.744
322.889
323.003
322.795
322.499
322.943
323.017
322.933
323.039
322.91
322.905
323.035
319.446
315.747
322.676
321.965
300.825
300.018
300.135
310.715
304.638
305.152
304.786
304.328
303.647
302.858
302.17
301.8
301.614
301.498
301.414
301.316
301.228
301.183
301.128
301.141
301.425
302.691
304.499
305.391
305.324
304.382
302.7
301.227
300.876
300.769
300.765
300.796
300.738
300.741
300.714
300.669
300.691
300.632
300.647
300.575
300.606
300.535
300.552
300.587
300.53
302.837
301.022
313.48
312.249
310.309
307.671
317.044
315.961
314.76
320.655
319.908
318.117
319.201
321.458
321.595
322.544
322.041
316.727
317.676
321.122
320.63
312.084
313.325
317.328
318.34
309.832
311.128
313.754
312.447
306.067
306.6
307.476
308.598
312.111
310.977
310.013
309.407
317.502
316.986
316.517
316.118
318.749
318.432
318.381
317.787
321.698
320.53
319.288
319.644
322.481
322.601
322.103
321.428
322.499
323.016
322.946
322.911
322.463
322.407
322.935
320.113
316.236
322.778
322.215
301.152
300.206
300.532
310.995
305.426
305.769
305.338
304.785
304.025
303.157
302.346
301.857
301.617
301.482
301.375
301.288
301.205
301.172
301.144
301.301
302.201
304.128
305.293
305.443
304.726
303.224
301.488
300.942
300.819
300.746
300.749
300.774
300.718
300.723
300.694
300.651
300.672
300.611
300.632
300.557
300.578
300.523
300.54
300.625
300.525
303.648
301.29
313.36
311.656
310.333
306.447
308.598
316.86
315.836
314.327
321.286
320.293
317.921
319.067
322.868
322.818
323.223
322.464
319.226
320.002
322.774
322.487
315.015
316.211
319.94
320.787
313.023
314.326
316.813
315.582
309.384
309.62
310.513
311.788
315.773
315.473
315.238
315.066
317.525
317.162
317.018
317.032
314.553
317.961
314.465
317.733
320.413
319.886
314.96
315.044
321.54
322.009
321.504
320.922
321.882
322.938
322.894
322.47
321.729
321.721
322.509
320.659
317.128
322.694
322.329
302.396
302.994
303.723
312.219
308.27
306.059
305.644
305.055
304.257
303.343
302.475
301.885
301.605
301.455
301.35
301.244
301.199
301.161
301.237
301.872
303.734
305.137
305.513
305.007
303.666
301.842
301.025
300.864
300.783
300.727
300.732
300.756
300.699
300.705
300.676
300.636
300.656
300.583
300.618
300.545
300.563
300.508
300.524
300.65
300.517
303.776
301.382
312.671
310.978
309.927
306.379
307.883
316.049
315.172
313.434
321.441
320.282
317.102
318.439
323.976
323.722
323.549
322.576
321.478
322.059
324.01
323.931
317.938
319.008
322.215
322.853
316.874
317.806
319.81
318.749
314.853
314.776
314.925
315.931
317.042
317.143
317.343
317.711
314.289
314.493
314.656
314.869
310.707
314.557
310.607
314.436
315.45
315.343
310.803
310.87
315.993
321.354
316.116
316.052
321.165
322.629
322.557
321.588
321.114
320.853
321.689
321.132
318.272
322.621
322.295
307.335
307.073
308.409
314.389
311.863
306.128
305.747
305.149
304.339
303.401
302.51
301.868
301.581
301.428
301.309
301.222
301.192
301.22
301.657
303.32
304.953
305.535
305.225
304.054
302.275
301.141
300.906
300.824
300.755
300.74
300.71
300.716
300.682
300.688
300.66
300.623
300.641
300.569
300.589
300.529
300.55
300.494
300.508
300.645
300.509
303.38
301.304
311.73
309.994
309.117
305.837
307.176
314.86
314.09
312.248
321.377
319.922
315.967
317.51
324.659
324.242
323.596
322.506
323.334
323.691
324.862
324.886
320.656
321.525
323.994
324.359
320.652
321.21
322.436
321.736
318.136
318.872
319.057
320.006
315.155
315.306
315.626
315.813
310.923
311.147
311.268
311.634
306.1
310.837
306.055
310.719
311.024
310.915
306.115
306.142
311.33
316.15
311.398
311.378
316.188
321.624
322.377
320.873
316.264
316.004
321.026
321.394
319.322
322.372
322.187
311.464
370.376
312.49
316.444
314.709
306.007
305.671
305.1
304.307
303.371
302.479
301.831
301.542
301.381
301.256
301.223
301.224
301.528
302.946
304.743
305.529
305.385
304.39
302.713
301.3
300.952
300.86
300.795
300.731
300.725
300.713
300.695
300.702
300.666
300.673
300.646
300.595
300.629
300.555
300.575
300.513
300.534
300.486
300.495
300.613
300.5
303.363
305.222
301.944
301.07
310.534
308.854
308.19
306.298
313.431
312.725
310.858
321.046
319.319
314.648
316.486
324.888
324.398
323.507
322.218
324.686
324.811
325.152
325.254
322.982
323.512
324.722
324.896
321.746
322.375
323.489
323.076
316.365
319.252
319.998
320.89
311.763
311.988
312.221