/*--------------------------------*- C++ -*----------------------------------*\
  =========                 |
  \\      /  F ield         | OpenFOAM: The Open Source CFD Toolbox
   \\    /   O peration     | Website:  https://openfoam.org
    \\  /    A nd           | Version:  dev
     \\/     M anipulation  |
\*---------------------------------------------------------------------------*/
FoamFile
{
    version     2.0;
    format      ascii;
    class       volVectorField;
    location    "2500";
    object      U;
}
// * * * * * * * * * * * * * * * * * * * * * * * * * * * * * * * * * * * * * //

dimensions      [0 1 -1 0 0 0 0];

internalField   nonuniform List<vector> 
9848
(
(0.00435074 0.00661808 0)
(0.0104492 0.0059595 -1.72614e-28)
(0.00439784 0.0176334 0)
(0.0146884 0.00491769 8.44144e-28)
(0.011654 0.0178506 0)
(0.00384787 0.0257885 1.3484e-28)
(0.0182615 0.00406149 2.31118e-27)
(0.0165346 0.0171792 -1.54081e-27)
(0.0113966 0.0266756 -3.52438e-27)
(0.0032543 0.0326511 4.39674e-28)
(0.0212233 0.00338192 3.61428e-27)
(0.019951 0.0153014 1.00863e-27)
(0.0174458 0.0272682 -3.99259e-27)
(0.0102197 0.0335535 -3.96432e-27)
(0.00287422 0.03881 7.06273e-28)
(0.0238991 0.00282964 1.93283e-28)
(0.0225846 0.0129354 1.75536e-27)
(0.0220289 0.0267261 -1.95271e-27)
(0.0168294 0.0349713 -2.84192e-27)
(0.00892587 0.039514 2.76563e-28)
(0.00258675 0.0444037 9.42525e-28)
(0.0265358 0.00240799 0)
(0.0249832 0.0107425 -7.42074e-28)
(0.0253017 0.025069 -2.13289e-27)
(0.0224744 0.0359419 0)
(0.0152211 0.0409902 1.62527e-28)
(0.0079442 0.0449539 5.77746e-28)
(0.00234613 0.0495146 0)
(0.0291441 0.00212581 0)
(0.0273278 0.00901333 -6.48457e-29)
(0.0276612 0.0225819 -1.33428e-27)
(0.0269565 0.0358739 -4.14595e-28)
(0.0213428 0.0427857 5.22607e-28)
(0.0135187 0.0462456 -1.98885e-27)
(0.00714941 0.0499615 0)
(0.00213188 0.0542206 1.35655e-27)
(0.0316857 0.00196829 0)
(0.0296487 0.00784534 1.64158e-28)
(0.0295384 0.0196471 -6.22455e-28)
(0.0302897 0.0346256 2.64004e-29)
(0.0267968 0.0442142 0)
(0.0193068 0.0481135 -7.51149e-28)
(0.012102 0.0510777 -2.1007e-27)
(0.0064504 0.0546045 -5.61737e-32)
(0.00193045 0.0585249 0)
(0.0341857 0.00186704 4.19177e-28)
(0.0320174 0.00711789 -9.72841e-29)
(0.031336 0.0168056 -3.38257e-28)
(0.0326415 0.0324177 6.8997e-28)
(0.0312798 0.04476 -3.58385e-29)
(0.0251017 0.0502743 0)
(0.0172538 0.052747 -8.46082e-28)
(0.0109034 0.055579 -3.88294e-28)
(0.00581183 0.0588725 0)
(0.00173745 0.062451 1.69837e-27)
(0.0366718 0.00177662 4.27014e-28)
(0.0344344 0.00659877 0)
(0.0332478 0.0144678 5.10857e-28)
(0.0343361 0.0296179 8.43704e-28)
(0.0347187 0.0441702 4.06396e-29)
(0.0304219 0.0522317 -7.34719e-29)
(0.0226508 0.0549656 0)
(0.0154986 0.0570251 2.50109e-29)
(0.00981842 0.0597977 1.07827e-27)
(0.00521676 0.0627592 1.46705e-27)
(0.00155146 0.0659992 -1.84579e-27)
(0.0391003 0.00169506 -1.41501e-28)
(0.0368643 0.0062119 0)
(0.0353063 0.0127945 1.19055e-27)
(0.0357313 0.0265421 6.74641e-28)
(0.0371942 0.0425326 0)
(0.0349182 0.0534956 1.32141e-32)
(0.0280938 0.0575562 0)
(0.0202626 0.0590201 -4.92143e-29)
(0.0139375 0.0611292 -2.25268e-28)
(0.00880234 0.0636295 -1.64125e-28)
(0.00465429 0.0662816 -2.78341e-27)
(0.00137223 0.0691864 1.97595e-27)
(0.0414595 0.00161713 4.40461e-28)
(0.039254 0.00591523 -1.35645e-28)
(0.037498 0.0117367 -4.44038e-32)
(0.0372033 0.0235525 7.18661e-28)
(0.0389716 0.0401201 -7.68388e-29)
(0.0384858 0.0537796 7.94456e-29)
(0.0332447 0.0601305 4.25213e-29)
(0.0252215 0.0616005 3.27975e-29)
(0.0181445 0.0628988 0)
(0.0124843 0.0648933 -5.51351e-28)
(0.00784005 0.0671246 -2.51565e-28)
(0.00411592 0.0694386 6.99652e-28)
(0.00120116 0.0720274 5.18941e-27)
(0.0437504 0.00155621 8.99275e-28)
(0.0415819 0.00565147 -5.57244e-28)
(0.0397815 0.011046 -2.74893e-35)
(0.0389152 0.020912 0)
(0.0403492 0.0372496 0)
(0.0411925 0.0529973 8.06789e-28)
(0.0377736 0.0621955 3.74919e-29)
(0.0302965 0.0646461 -1.65366e-28)
(0.022497 0.0652111 0)
(0.0162275 0.0665468 7.58939e-28)
(0.011111 0.068331 4.31045e-28)
(0.00692223 0.0702569 -2.37706e-28)
(0.00359468 0.0722566 3.03024e-32)
(0.00103454 0.0745465 -3.44533e-27)
(0.045964 0.00150144 9.20575e-28)
(0.0438406 0.00537989 -4.11744e-28)
(0.042108 0.010499 1.28499e-27)
(0.0408274 0.0188361 0)
(0.041602 0.0341918 0)
(0.0432005 0.0513191 7.9577e-28)
(0.0415066 0.0634286 5.7545e-28)
(0.035244 0.0678016 -3.64994e-28)
(0.0270476 0.0681098 2.07103e-28)
(0.0200564 0.0686674 4.79823e-28)
(0.0144333 0.0698811 0)
(0.00980297 0.071429 0)
(0.00603949 0.0730554 -1.69755e-27)
(0.00309171 0.07475 -4.03608e-27)
(0.000873264 0.0767475 -4.4971e-27)
(0.0480883 0.00142516 9.28761e-28)
(0.0460438 0.00513798 0)
(0.0443562 0.0100135 1.61049e-27)
(0.0428384 0.0174139 7.45996e-28)
(0.0429301 0.0312976 8.20289e-28)
(0.0447048 0.0490606 -8.5948e-28)
(0.0444407 0.0637054 6.94499e-28)
(0.0397557 0.0706955 6.03811e-28)
(0.0317469 0.071506 1.00752e-28)
(0.0240334 0.0713123 -2.23149e-36)
(0.0178138 0.0718505 -6.74513e-29)
(0.0127272 0.0729176 1.21377e-27)
(0.00854784 0.0741913 7.73075e-28)
(0.00519156 0.0755214 2.05208e-28)
(0.00260815 0.0769298 -4.18405e-27)
(0.00072031 0.0786417 0)
(0.050121 0.00133708 6.39453e-28)
(0.0481845 0.00494213 5.88739e-28)
(0.0464856 0.00959986 1.37033e-27)
(0.044907 0.0165451 1.81271e-27)
(0.0443858 0.028728 9.56926e-28)
(0.045905 0.046506 -9.04133e-28)
(0.0466721 0.0630707 0)
(0.043612 0.0729631 7.35773e-28)
(0.0364025 0.0751994 7.05617e-29)
(0.0281797 0.0745061 -8.16635e-29)
(0.0212926 0.074295 1.88245e-28)
(0.0156961 0.0747947 9.94942e-28)
(0.0110866 0.0756232 -1.39645e-27)
(0.00733874 0.0766309 7.22744e-28)
(0.00437152 0.0776837 3.72829e-28)
(0.00214656 0.0787967 0)
(0.000571827 0.080242 0)
(0.0520643 0.00126629 4.66375e-28)
(0.0502038 0.00478274 1.71392e-28)
(0.048554 0.00922253 8.69696e-28)
(0.0470493 0.0158589 1.72037e-27)
(0.046072 0.0265316 2.41122e-28)
(0.0470262 0.0438579 1.12035e-27)
(0.0483487 0.0617234 6.15662e-29)
(0.0467503 0.0744162 0)
(0.0407846 0.0788318 1.96135e-28)
(0.0324515 0.078233 3.69065e-29)
(0.0248808 0.0772578 1.5068e-28)
(0.0187219 0.0771187 0)
(0.0136595 0.0774294 3.19552e-29)
(0.00950573 0.0780169 1.52528e-28)
(0.00616972 0.0787693 4.44239e-28)
(0.00357815 0.0795195 -1.46943e-27)
(0.00170337 0.0803805 -1.52467e-28)
(0.000430984 0.081559 0)
(0.0539052 0.00121029 9.33142e-28)
(0.0521286 0.00464747 1.74152e-28)
(0.0505731 0.0087961 0)
(0.0491608 0.0151218 1.91595e-27)
(0.047975 0.0248176 1.0333e-27)
(0.0482654 0.0412637 2.22438e-27)
(0.0496831 0.0599088 7.38638e-29)
(0.0492156 0.0750075 9.73848e-28)
(0.0446963 0.0821014 0)
(0.0367342 0.0823444 8.03797e-29)
(0.0285987 0.080762 9.18184e-30)
(0.0218249 0.0799073 0)
(0.0162691 0.0796558 1.70606e-28)
(0.0116969 0.0797485 3.00702e-29)
(0.0079884 0.0801004 1.84203e-27)
(0.00503901 0.0805834 -3.11091e-27)
(0.00282052 0.0810761 2.98816e-28)
(0.00127786 0.081672 -1.28843e-28)
(0.000299205 0.0825997 -4.45129e-27)
(0.05562 0.00114179 6.34839e-28)
(0.0539912 0.00444204 7.93638e-28)
(0.0525202 0.00830083 1.07225e-27)
(0.0512033 0.014366 1.68412e-27)
(0.0499333 0.023671 2.19949e-27)
(0.0496437 0.0389205 1.18884e-27)
(0.0508651 0.0578832 1.01208e-27)
(0.0511344 0.0748008 2.86094e-32)
(0.0480132 0.0847528 0)
(0.0408789 0.0866168 5.29926e-28)
(0.0324122 0.0847796 0)
(0.0250318 0.0831674 0)
(0.0189432 0.0823111 2.78284e-29)
(0.0139123 0.0819056 1.66897e-28)
(0.00980333 0.0817611 5.70539e-29)
(0.00651791 0.081887 0)
(0.00395357 0.0821023 0)
(0.00209521 0.0823298 2.67691e-28)
(0.000893908 0.08271 -4.29666e-27)
(0.00016669 0.0833791 -4.22767e-27)
(0.0571686 0.00106092 4.43557e-28)
(0.0557328 0.00415775 9.6852e-28)
(0.0543963 0.00787119 1.68497e-27)
(0.0531539 0.0136483 1.05238e-27)
(0.0518959 0.0229242 7.17714e-28)
(0.0511626 0.0369097 1.24276e-27)
(0.0519691 0.055824 2.45418e-27)
(0.0526488 0.074005 -1.29971e-27)
(0.0507163 0.0866852 8.50383e-28)
(0.0447119 0.0907689 1.40863e-27)
(0.0362712 0.0892466 -3.38348e-29)
(0.028298 0.0869405 0)
(0.0216834 0.0854142 -3.74484e-28)
(0.0161741 0.0844856 8.30918e-29)
(0.011625 0.0838432 0)
(0.00797306 0.0834938 5.65405e-29)
(0.00508831 0.0833546 0)
(0.002922 0.083325 0)
(0.00140742 0.0832999 1.74252e-27)
(0.000521476 0.0835404 -4.14447e-27)
(4.90112e-05 0.0840066 0)
(0.0585542 0.000979636 1.01703e-27)
(0.0572907 0.00385834 6.22066e-28)
(0.0561774 0.00750685 1.73027e-27)
(0.0549426 0.0129741 1.64233e-28)
(0.0538542 0.0223041 1.06678e-27)
(0.05281 0.0352604 2.31569e-27)
(0.0530895 0.0538845 2.32151e-27)
(0.0538847 0.0728703 1.24559e-27)
(0.0528615 0.0878687 1.30419e-27)
(0.0481054 0.0945637 8.75346e-28)
(0.0400839 0.0940102 -1.01407e-28)
(0.0316437 0.0912349 -3.09008e-29)
(0.0244608 0.0889691 -2.74679e-28)
(0.0184676 0.0874796 1.12433e-29)
(0.0134859 0.0863436 -8.40197e-29)
(0.00942024 0.0854919 8.2274e-28)
(0.00620359 0.0849039 0)
(0.00372915 0.0845204 0)
(0.0019402 0.0842551 2.97954e-27)
(0.000778524 0.0840369 -4.36784e-28)
(0.00015595 0.084138 0)
(-6.08973e-05 0.0843438 0)
(0.0597524 0.000900884 4.02251e-28)
(0.0586739 0.00356419 3.3255e-28)
(0.0577485 0.00716141 1.75264e-27)
(0.0566098 0.0123977 -3.27622e-28)
(0.0556773 0.0216464 2.05865e-27)
(0.0544937 0.0341324 2.46292e-27)
(0.0542679 0.0521448 2.96707e-27)
(0.054958 0.0716023 2.50919e-27)
(0.0545444 0.0883981 1.26928e-27)
(0.0510018 0.0978017 -7.02928e-28)
(0.0437276 0.0988673 -5.57724e-28)
(0.0350623 0.0960084 -9.62128e-29)
(0.0272881 0.0929885 0)
(0.0208066 0.0908908 2.57772e-28)
(0.0153721 0.0892531 -6.60802e-28)
(0.0108837 0.0879017 7.77965e-28)
(0.00728752 0.0868448 -8.95849e-28)
(0.00449976 0.0859938 0)
(0.00244261 0.0854037 -2.67852e-28)
(0.0010228 0.0849168 -1.90026e-27)
(0.000246882 0.0845209 -1.80451e-27)
(-0.000167172 0.0844581 -6.10961e-29)
(-0.000151991 0.0845718 0)
(0.0607621 0.000825857 -3.76972e-28)
(0.0598683 0.00327577 -6.06464e-28)
(0.0591012 0.00684244 1.76477e-27)
(0.0581537 0.0119157 8.20081e-28)
(0.0572471 0.0209802 1.97115e-27)
(0.0561692 0.0335463 1.03585e-27)
(0.0554774 0.0506427 2.88407e-27)
(0.0559291 0.070357 2.94758e-27)
(0.0558821 0.0884224 2.80868e-27)
(0.0533686 0.100404 -4.06291e-28)
(0.0470851 0.103596 -7.31951e-28)
(0.0384943 0.101174 3.77936e-28)
(0.0301968 0.0974977 -9.31943e-29)
(0.0231918 0.0947211 2.46862e-28)
(0.0172833 0.0925596 -6.34043e-28)
(0.0123654 0.0907283 -4.07546e-30)
(0.00836322 0.0891941 -9.76968e-28)
(0.00521355 0.0878634 0)
(0.00287365 0.0867963 0)
(0.00122913 0.0859824 -1.95018e-27)
(0.000228233 0.0853187 -1.81111e-27)
(-0.00024533 0.0848344 4.11969e-28)
(-0.000441171 0.0845791 3.03877e-27)
(-0.000218691 0.0846474 0)
(0.0615859 0.000752967 -3.26751e-42)
(0.0608776 0.00300065 -1.03141e-27)
(0.0603124 0.0065038 8.11822e-28)
(0.0594988 0.0114611 1.69496e-27)
(0.0586365 0.0204627 2.50233e-28)
(0.0576692 0.0332987 0)
(0.056676 0.0494579 3.01621e-27)
(0.0568401 0.069228 2.71082e-27)
(0.0569558 0.088127 1.0696e-27)
(0.055255 0.10238 2.35668e-27)
(0.0500652 0.108 7.10713e-28)
(0.0418613 0.10656 1.1354e-27)
(0.0331933 0.102488 1.49955e-28)
(0.0256257 0.0989956 9.11281e-29)
(0.0192424 0.0962985 -4.14136e-28)
(0.0138653 0.093955 -5.0648e-29)
(0.00943244 0.091947 -1.05269e-28)
(0.00590123 0.0901537 2.86944e-28)
(0.00322606 0.0885596 0)
(0.00134425 0.0872695 0)
(0.00011717 0.0863069 3.13866e-28)
(-0.000467965 0.0855825 1.13063e-27)
(-0.000712527 0.0849132 3.38253e-27)
(-0.000621508 0.0846146 0)
(-0.000273539 0.0846279 0)
(0.0622071 0.000681906 1.3642e-28)
(0.0617083 0.00274056 -5.74541e-28)
(0.0613036 0.00613924 -6.71568e-28)
(0.0606768 0.0111133 1.03119e-27)
(0.0598566 0.0201914 1.24769e-27)
(0.058876 0.0332211 2.58419e-28)
(0.0578099 0.0487281 3.19316e-27)
(0.0576658 0.0682749 3.4325e-27)
(0.0578466 0.0876843 1.18002e-27)
(0.0567443 0.103758 2.65321e-27)
(0.0526204 0.111917 2.16935e-27)
(0.0450683 0.111996 9.62487e-28)
(0.0362356 0.107909 5.06104e-28)
(0.0281391 0.103752 -8.88334e-29)
(0.0212374 0.100474 -1.81448e-28)
(0.0153765 0.097596 -1.09843e-28)
(0.0105042 0.0951156 0)
(0.00655448 0.0928605 -8.72594e-28)
(0.00351401 0.0907494 3.80266e-28)
(0.00134195 0.0889271 -2.85527e-28)
(-8.45969e-05 0.0874682 0)
(-0.000827385 0.0864289 7.04566e-28)
(-0.00109025 0.0855678 0)
(-0.00106252 0.0848865 0)
(-0.000767922 0.0845809 0)
(-0.000314067 0.0845505 0)
(0.0626013 0.000614649 -1.55494e-28)
(0.0623269 0.00250404 2.68291e-28)
(0.0620807 0.0058108 -1.63251e-27)
(0.061693 0.0108861 -7.64542e-28)
(0.0608173 0.0201287 -6.03299e-28)
(0.0598824 0.0332798 1.78017e-27)
(0.0587937 0.0484836 2.25773e-27)
(0.0583427 0.0675366 3.10939e-27)
(0.0585681 0.0872137 1.82087e-27)
(0.0579005 0.104654 2.29251e-27)
(0.0547515 0.115256 3.06924e-27)
(0.0480576 0.117291 6.89972e-28)
(0.0392845 0.113667 -4.12246e-28)
(0.030727 0.108982 6.26525e-28)
(0.0232879 0.105077 -1.15758e-28)
(0.0169442 0.101689 -4.67616e-28)
(0.0115738 0.0987126 -8.32784e-28)
(0.00718466 0.0959827 -9.28022e-28)
(0.00373176 0.0933753 1.23333e-28)
(0.00122808 0.0910172 -1.33565e-28)
(-0.000431112 0.0889671 -3.57928e-28)
(-0.00133122 0.0874204 0)
(-0.0016266 0.0863041 1.6231e-31)
(-0.00158672 0.0853895 -1.28795e-27)
(-0.0013082 0.0847675 -1.17591e-27)
(-0.000867944 0.0844953 8.38474e-29)
(-0.000338914 0.0844689 0)
(0.0627549 0.000552208 0)
(0.0627114 0.00229613 -1.19974e-27)
(0.0626525 0.00553456 -6.79703e-28)
(0.0624287 0.0107305 -1.0655e-27)
(0.0616166 0.0202959 -2.30997e-27)
(0.0606913 0.0335077 -5.82225e-28)
(0.0595522 0.0486265 -5.74469e-28)
(0.0589214 0.0669945 3.27205e-27)
(0.0590941 0.0867996 -5.49187e-28)
(0.0587809 0.10518 1.32477e-27)
(0.0564698 0.118002 4.05708e-27)
(0.0507412 0.12227 1.98527e-27)
(0.0422977 0.119605 5.08775e-28)
(0.0333966 0.114633 6.57134e-28)
(0.0254438 0.110103 3.31419e-32)
(0.0185607 0.106223 -6.23654e-28)
(0.0126938 0.102768 -6.40993e-28)
(0.00780931 0.0995321 0)
(0.00390902 0.0964396 0)
(0.00100623 0.0935346 -1.26195e-27)
(-0.000930813 0.0908954 0)
(-0.0020201 0.0887203 1.47841e-27)
(-0.00237551 0.0871493 0)
(-0.00229841 0.0859667 -2.33637e-27)
(-0.00194504 0.0851277 -2.52234e-28)
(-0.00145306 0.0846042 -9.026e-28)
(-0.000925131 0.0844132 -4.04109e-29)
(-0.000352274 0.0844082 1.73462e-30)
(0.0627046 0.000496866 4.16933e-28)
(0.0628569 0.00211009 -2.28947e-27)
(0.0630029 0.00531813 2.37459e-28)
(0.0628931 0.010681 5.09987e-28)
(0.0622372 0.0206685 -1.34704e-27)
(0.0612419 0.0338635 5.67091e-28)
(0.060172 0.0490447 -3.73094e-27)
(0.059408 0.0666853 -1.1208e-27)
(0.0594763 0.0864392 0)
(0.0594177 0.105459 4.11698e-27)
(0.0578034 0.120163 3.22225e-27)
(0.0530872 0.126799 0)
(0.0452138 0.125567 3.09021e-27)
(0.0361562 0.120631 1.5836e-27)
(0.0277049 0.115546 -2.885e-28)
(0.0202901 0.111199 -1.31527e-28)
(0.0138847 0.107263 0)
(0.00845513 0.103556 0)
(0.00406432 0.0999684 0)
(0.00070557 0.0964902 -2.34343e-27)
(-0.00159185 0.0932715 8.78254e-28)
(-0.00291179 0.0904402 4.49167e-29)
(-0.00337283 0.0882311 -8.04796e-35)
(-0.00324722 0.0866299 0)
(-0.0027743 0.0855222 -5.63277e-28)
(-0.00213885 0.0848249 0)
(-0.00150772 0.0844486 -3.71608e-29)
(-0.000945439 0.0843689 -4.04745e-30)
(-0.000359383 0.0844057 1.9108e-28)
(0.0624573 0.000448364 3.05436e-27)
(0.0627924 0.00195131 -9.75489e-28)
(0.0631435 0.0051496 -2.15625e-28)
(0.0631477 0.0107539 1.40568e-27)
(0.0625841 0.0211827 5.09615e-28)
(0.0616175 0.0344187 6.58134e-27)
(0.060636 0.0496639 -1.35606e-27)
(0.0598006 0.0665796 -2.06015e-27)
(0.0597609 0.0861476 -4.91609e-27)
(0.05986 0.105552 3.09652e-35)
(0.0588169 0.121774 -6.58593e-32)
(0.0550813 0.13077 3.22129e-27)
(0.0479676 0.131369 1.53357e-27)
(0.0389653 0.126876 -5.62527e-29)
(0.0300925 0.121381 0)
(0.0221579 0.116579 7.13163e-29)
(0.0151849 0.112196 -3.55703e-28)
(0.00920269 0.108066 2.42899e-28)
(0.00421392 0.103999 0)
(0.000347296 0.0999427 -1.20145e-27)
(-0.00238923 0.0961024 1.27593e-27)
(-0.00402632 0.0926119 -1.5402e-28)
(-0.00464623 0.0896844 -1.2253e-27)
(-0.00449319 0.0874739 -2.07031e-27)
(-0.00386464 0.0859617 -1.29561e-27)
(-0.00302786 0.0850288 -2.33944e-27)
(-0.00218229 0.0845456 0)
(-0.00149297 0.0843537 0)
(-0.000945074 0.0844024 -9.35092e-29)
(-0.000373934 0.0844656 2.28655e-28)
(0.0619885 0.000403665 0)
(0.0625355 0.00181999 1.61471e-28)
(0.0630527 0.0050275 2.3508e-27)
(0.0631728 0.0109784 4.24872e-27)
(0.0626623 0.0218906 9.38093e-28)
(0.0617669 0.035244 6.74174e-27)
(0.0608285 0.0504538 1.09718e-27)
(0.0600081 0.0667802 9.66636e-27)
(0.0599164 0.0859302 -5.71121e-27)
(0.0601437 0.105512 -1.06749e-27)
(0.0595609 0.122894 -6.81417e-27)
(0.0567484 0.134114 2.10851e-27)
(0.0505253 0.136819 2.69573e-35)
(0.0418127 0.133223 2.64169e-27)
(0.0326336 0.127569 -2.93752e-28)
(0.0241883 0.122321 6.62432e-28)
(0.0166612 0.117537 -1.50568e-28)
(0.0100767 0.113047 5.71043e-28)
(0.0044666 0.10856 1.15072e-27)
(-4.47405e-05 0.103957 1.12089e-27)
(-0.00330807 0.0994523 -6.42536e-29)
(-0.00533827 0.0952483 0)
(-0.00621228 0.0915705 -6.03431e-28)
(-0.00609048 0.0886198 -1.2858e-28)
(-0.00530163 0.0865201 -7.58006e-28)
(-0.00420732 0.0852216 0)
(-0.00306443 0.0845695 -2.51264e-27)
(-0.00210438 0.084353 -3.41185e-27)
(-0.00143735 0.0843679 0)
(-0.000953197 0.084519 1.75542e-28)
(-0.000375075 0.0845202 -5.70375e-28)
(0.0612696 0.000365136 9.70259e-29)
(0.0620687 0.0017166 -3.87959e-27)
(0.0627317 0.00497477 2.34047e-27)
(0.0629604 0.0114138 3.59427e-27)
(0.0624598 0.0228261 0)
(0.0616069 0.036299 0)
(0.0607945 0.0513742 -2.13009e-27)
(0.0600662 0.0671937 9.95196e-27)
(0.0599139 0.0857756 2.00768e-26)
(0.0602856 0.105377 -1.25072e-27)
(0.060093 0.123567 6.2361e-27)
(0.0581095 0.136778 0)
(0.0528592 0.141775 9.69061e-27)
(0.0446621 0.139506 -1.13463e-27)
(0.0353363 0.133987 3.75484e-27)
(0.0264212 0.128379 1.27288e-27)
(0.0183446 0.123283 0)
(0.0111359 0.118464 -2.21659e-35)
(0.00486583 0.113643 8.10081e-28)
(-0.000356325 0.108574 -1.0123e-35)
(-0.00430921 0.103418 -1.60815e-29)
(-0.00685969 0.0984285 -1.48918e-27)
(-0.00806154 0.0939319 -2.04636e-27)
(-0.00807561 0.0901459 -1.50812e-28)
(-0.00716514 0.0873048 -2.26277e-28)
(-0.00577109 0.0854632 1.94094e-27)
(-0.00426066 0.0845047 -1.64186e-27)
(-0.00291148 0.0842262 1.59061e-29)
(-0.00193108 0.0843104 1.70388e-33)
(-0.00138537 0.0845417 -3.93223e-28)
(-0.00107479 0.0846398 -2.75574e-28)
(-0.000358315 0.0846742 -7.05749e-28)
(0.0603252 0.000338342 -1.22731e-27)
(0.061337 0.00164428 0)
(0.062175 0.00503494 6.8506e-28)
(0.062496 0.0120944 6.83619e-28)
(0.0619853 0.0239522 0)
(0.0612198 0.0375059 -1.81578e-27)
(0.0605249 0.0523976 8.11673e-27)
(0.0598898 0.0678395 9.00146e-31)
(0.0597898 0.0856428 6.21392e-33)
(0.0603021 0.105145 1.01981e-26)
(0.0604773 0.123866 1.02425e-26)
(0.0591993 0.138749 0)
(0.0549774 0.146116 9.18021e-27)
(0.0474627 0.145543 4.48695e-27)
(0.0381927 0.140534 -2.83485e-27)
(0.0289053 0.134722 2.30286e-27)
(0.0202763 0.12937 0)
(0.0124313 0.124307 -1.2216e-27)
(0.00546506 0.119221 0)
(-0.000506128 0.113793 -2.14049e-27)
(-0.00526207 0.108067 -1.40978e-27)
(-0.00853892 0.102285 -1.51586e-27)
(-0.0102212 0.0968693 2.82998e-28)
(-0.0104695 0.0921398 7.08975e-32)
(-0.00952565 0.0883915 -8.35145e-28)
(-0.00781711 0.0858353 4.72165e-27)
(-0.00586138 0.0843848 1.5492e-28)
(-0.00402293 0.0839628 -1.76639e-27)
(-0.00261333 0.0840898 -1.63315e-28)
(-0.00173696 0.0845094 5.15298e-27)
(-0.00145381 0.0848964 -1.81642e-28)
(-0.00123317 0.0848917 2.78731e-28)
(-0.000472267 0.0848149 0)
(0.0591797 0.000303395 0)
(0.0603757 0.0016293 -1.9463e-27)
(0.0613901 0.0052163 2.86752e-27)
(0.0617595 0.0129872 0)
(0.061265 0.025261 7.11443e-28)
(0.0606158 0.0388067 3.36251e-27)
(0.0600471 0.0534983 1.01728e-26)
(0.0595324 0.0686049 0)
(0.0595085 0.0855917 -1.75802e-26)
(0.0601686 0.104802 2.43648e-31)
(0.0607209 0.123831 0)
(0.0600599 0.140072 0)
(0.0568674 0.14974 0)
(0.0501797 0.151193 0)
(0.0411865 0.147077 6.05887e-27)
(0.0316342 0.141251 -1.45604e-27)
(0.0225205 0.135731 -5.87539e-27)
(0.0140397 0.130547 -1.29487e-27)
(0.00633111 0.12528 -1.48939e-27)
(-0.000458256 0.119617 -1.76699e-27)
(-0.00607819 0.113432 -2.71324e-27)
(-0.0102478 0.106929 -1.66656e-27)
(-0.0126574 0.100535 2.17721e-28)
(-0.0132988 0.0947221 2.11908e-27)
(-0.0124448 0.0898852 -1.33391e-28)
(-0.0104515 0.0863827 -6.99087e-28)
(-0.0079513 0.0842895 5.61921e-27)
(-0.0055363 0.0835116 4.76433e-27)
(-0.00354585 0.0837463 -1.82336e-28)
(-0.00227801 0.0842839 -2.20209e-27)
(-0.0016533 0.0849091 8.78041e-27)
(-0.00167178 0.0852595 8.10346e-28)
(-0.00132777 0.0851484 0)
(-0.000318239 0.0848591 1.01803e-27)
(-0.00070325 0.0847735 -5.96899e-28)
(0.0578455 0.000283725 -8.69606e-30)
(0.0592051 0.00167546 -6.50382e-28)
(0.0603646 0.00549473 1.40763e-27)
(0.0607889 0.0140814 -9.63196e-28)
(0.0603195 0.0267634 6.42608e-27)
(0.0597545 0.0401892 0)
(0.0593861 0.0546714 3.71757e-27)
(0.0590247 0.0694351 8.38446e-27)
(0.0590957 0.0855718 2.0293e-26)
(0.0598729 0.104335 5.96597e-27)
(0.060796 0.123562 -2.17834e-26)
(0.0607106 0.140823 1.11442e-26)
(0.0584849 0.152577 -1.53109e-26)
(0.0528053 0.156301 -1.35651e-26)
(0.0442535 0.153458 0)
(0.034613 0.147883 9.29457e-27)
(0.0251152 0.142303 1.60516e-27)
(0.0160535 0.137069 -2.93681e-27)
(0.00759212 0.131778 -1.39141e-27)
(-8.95955e-05 0.126019 1.13875e-27)
(-0.00669165 0.119537 -3.2322e-27)
(-0.0118844 0.112445 -3.33655e-27)
(-0.0152682 0.105094 0)
(-0.0165793 0.0980834 1.93143e-27)
(-0.0159695 0.0919552 -3.35363e-27)
(-0.0138431 0.0872303 6.0213e-28)
(-0.0107113 0.0841807 0)
(-0.00748619 0.0829487 6.1519e-27)
(-0.00481219 0.083108 -1.97306e-28)
(-0.0029808 0.0840527 0)
(-0.00219238 0.085086 1.8838e-27)
(-0.00195656 0.0855118 -4.46369e-29)
(-0.00204072 0.0854808 1.11367e-27)
(-0.00145566 0.0848568 0)
(-0.00175737 0.0850726 0)
(-0.000247774 0.0849222 2.13898e-27)
(-0.000730753 0.0848191 2.38452e-27)
(0.0563488 0.000275491 1.92902e-30)
(0.0578496 0.00176234 0)
(0.059116 0.00586699 2.71295e-27)
(0.0595887 0.015355 -1.55289e-27)
(0.0591574 0.0284183 4.73311e-27)
(0.0586699 0.0416579 7.28475e-28)
(0.058512 0.0558203 8.3684e-27)
(0.0583791 0.070239 -9.32744e-27)
(0.058569 0.0855408 2.49148e-26)
(0.0595047 0.103735 -1.87131e-30)
(0.0607277 0.122942 -5.22992e-27)
(0.0612119 0.141001 -1.16179e-26)
(0.0598398 0.1546 -4.56741e-26)
(0.0552667 0.160722 -1.53669e-26)
(0.0473737 0.159517 -5.48213e-33)
(0.0378223 0.154513 0)
(0.0280391 0.148967 3.77138e-26)
(0.0185228 0.143792 -9.60546e-27)
(0.0093673 0.138606 0)
(0.000791116 0.132932 0)
(-0.00692113 0.126349 1.66554e-28)
(-0.0132979 0.118879 -8.87661e-28)
(-0.0179045 0.110696 0)
(-0.0202159 0.102445 -2.17183e-27)
(-0.0201757 0.0948502 -2.02153e-27)
(-0.0180473 0.0886203 6.69788e-28)
(-0.014469 0.0841886 -2.23954e-28)
(-0.0101262 0.0818875 -9.33056e-28)
(-0.00626523 0.0816846 1.28382e-26)
(-0.00341246 0.0829257 -4.68471e-27)
(-0.00215386 0.0846721 -3.08343e-27)
(-0.00214156 0.0860746 4.32796e-27)
(-0.00226646 0.0855844 -4.45021e-28)
(-0.00232008 0.0858176 8.25356e-28)
(-0.00230084 0.0852886 7.34972e-29)
(-0.0026488 0.0857429 -2.1164e-28)
(-0.00252787 0.0855916 5.58012e-28)
(-0.0014409 0.0848573 2.85597e-28)
(-0.00195554 0.0850365 -5.49848e-29)
(-0.000203746 0.0850163 0)
(-0.000690569 0.084885 1.44989e-27)
(0.0546609 0.000265573 1.27118e-29)
(0.0563508 0.00189462 0)
(0.0576947 0.00634533 1.31137e-27)
(0.0582005 0.0168043 -1.15504e-27)
(0.057814 0.0301695 -7.85603e-27)
(0.0574324 0.0431814 -1.34463e-27)
(0.0574161 0.0568567 8.31307e-27)
(0.0576045 0.0709702 -9.38716e-27)
(0.0579367 0.0854917 0)
(0.0590567 0.102986 -6.39928e-30)
(0.0605251 0.122065 2.32376e-26)
(0.0615552 0.140713 -2.39047e-26)
(0.0609734 0.155839 -3.60789e-26)
(0.0575246 0.164307 1.68501e-26)
(0.050515 0.165093 -2.16823e-26)
(0.0412303 0.160977 1.2513e-26)
(0.0312897 0.155628 1.56182e-26)
(0.0214255 0.150594 6.77437e-27)
(0.011714 0.145644 -6.81511e-27)
(0.0022977 0.140239 6.58841e-27)
(-0.00654657 0.133824 -5.78305e-27)
(-0.0142816 0.126213 5.33861e-27)
(-0.0203494 0.117442 1.38051e-27)
(-0.024036 0.108027 -2.35585e-27)
(-0.0249535 0.0989035 0)
(-0.0232971 0.090965 2.98485e-27)
(-0.0194337 0.0849031 -2.65162e-27)
(-0.0143144 0.0815168 -2.28797e-27)
(-0.00909369 0.0806055 9.92889e-33)
(-0.00511474 0.0814952 6.35881e-27)
(-0.00281069 0.0835961 6.76641e-27)
(-0.00218877 0.0860316 6.15725e-27)
(-0.00244159 0.0862874 5.93555e-29)
(-0.00243922 0.0868348 1.39601e-28)
(-0.00290894 0.0860455 0)
(-0.00249844 0.085219 6.57956e-29)
(-0.00290783 0.0860254 7.47943e-28)
(-0.00296755 0.0854996 1.67574e-28)
(-0.00141621 0.0848649 0)
(-0.00206036 0.0849779 -4.29954e-29)
(-0.000154344 0.0852001 -7.32849e-28)
(-0.000560688 0.0850097 -9.01789e-28)
(0.0527848 0.000284424 -1.11531e-27)
(0.0546285 0.00208622 2.25361e-28)
(0.0560623 0.0070071 -1.30727e-27)
(0.0565901 0.0184334 2.22047e-27)
(0.056318 0.0319599 -1.65403e-27)
(0.0560838 0.0446764 -5.84751e-27)
(0.0561784 0.0577906 5.12586e-27)
(0.0566879 0.0715671 0)
(0.0572049 0.0854323 1.03239e-26)
(0.0584958 0.102078 2.24448e-26)
(0.060236 0.120931 0)
(0.0617292 0.139921 0)
(0.0619135 0.156354 -2.48318e-26)
(0.0595496 0.167008 -1.24752e-26)
(0.0536122 0.170032 -1.6948e-26)
(0.0448126 0.167147 2.14298e-26)
(0.0348495 0.162188 0)
(0.024755 0.157335 -6.96205e-27)
(0.0146355 0.152742 1.04937e-26)
(0.00452627 0.147776 -5.23505e-27)
(-0.00536858 0.141821 5.99919e-27)
(-0.0145709 0.134404 -2.03962e-27)
(-0.0223553 0.125404 1.23076e-26)
(-0.0278148 0.115028 9.63965e-31)
(-0.030134 0.104406 -3.47481e-27)
(-0.0294566 0.0948622 5.27947e-28)
(-0.0262505 0.0873519 -8.60813e-28)
(-0.0209247 0.0826925 -5.46358e-27)
(-0.0155979 0.0811874 -2.35249e-27)
(-0.0104665 0.0820096 -9.55875e-28)
(-0.00583068 0.0839338 1.62704e-27)
(-0.00380812 0.0867264 2.65452e-27)
(-0.00240929 0.087331 1.84227e-29)
(-0.00261558 0.08783 0)
(-0.00307663 0.0865651 -5.06315e-33)
(-0.00314898 0.0872468 -3.53304e-28)
(-0.00332884 0.0865833 2.6491e-28)
(-0.00269629 0.0850687 -5.40165e-29)
(-0.0035246 0.0860347 2.15608e-28)
(-0.00343996 0.0853049 -8.26027e-28)
(-0.00130245 0.0848778 5.91532e-28)
(-0.00199882 0.0848563 1.40748e-27)
(-6.25673e-05 0.085537 -3.99295e-28)
(-0.000335411 0.0852604 -2.67637e-27)
(0.0507637 0.000351392 -2.89829e-29)
(0.0526869 0.00236049 -5.26416e-28)
(0.0542136 0.00793668 -9.53628e-28)
(0.0546534 0.0202458 5.0848e-28)
(0.0546157 0.0337329 4.56749e-27)
(0.0546153 0.0460861 -7.08457e-27)
(0.0548867 0.0586434 1.77951e-26)
(0.0556132 0.0719583 -1.71703e-27)
(0.0564161 0.0853539 1.03202e-26)
(0.0578073 0.101032 0)
(0.0598382 0.119555 0)
(0.061741 0.138671 0)
(0.0626618 0.156136 -2.55579e-26)
(0.0613306 0.168782 -5.12749e-26)
(0.056592 0.174185 1.26243e-26)
(0.0484925 0.172915 -1.0731e-26)
(0.0387089 0.168548 0)
(0.0284646 0.163929 3.65173e-26)
(0.0181109 0.159727 7.08456e-27)
(0.00751486 0.155338 -1.72987e-26)
(-0.00325229 0.150099 -5.80725e-27)
(-0.013837 0.143278 7.14967e-27)
(-0.0235131 0.134539 1.08202e-26)
(-0.0312084 0.123682 -1.24403e-27)
(-0.0356331 0.111749 -4.67445e-27)
(-0.0365002 0.100841 -9.50976e-27)
(-0.0347157 0.0926705 -3.65244e-27)
(-0.0313857 0.0881598 -4.71046e-28)
(-0.0265458 0.086801 -4.9909e-27)
(-0.0214902 0.0876838 -1.89353e-27)
(-0.0159125 0.0891863 -6.363e-27)
(-0.0107328 0.0907058 1.2356e-27)
(-0.00348009 0.088946 1.39102e-28)
(-0.00654632 0.0906691 -1.04532e-27)
(-0.00321046 0.0880158 -4.03859e-28)
(-0.00370374 0.0891258 1.96376e-28)
(-0.00366051 0.087234 -5.60868e-28)
(-0.0039196 0.0880222 -2.96071e-27)
(-0.00405193 0.0867888 0)
(-0.00284459 0.0847735 0)
(-0.00418312 0.0859066 -2.05492e-28)
(-0.00387191 0.0849768 -1.0372e-27)
(-0.000981131 0.084914 -1.00886e-28)
(-0.00169739 0.0846427 -6.52636e-30)
(0.000129937 0.0861527 0)
(6.25566e-05 0.0857241 -2.32854e-27)
(0.0486119 0.000455207 3.26002e-29)
(0.0506122 0.00271637 3.96216e-28)
(0.0521575 0.00909026 2.10696e-27)
(0.052522 0.0221529 -2.47225e-27)
(0.0527217 0.0354224 0)
(0.0530108 0.0473911 -2.01707e-27)
(0.0535224 0.0594053 6.80931e-27)
(0.054435 0.0721484 -1.6381e-27)
(0.0555626 0.0851891 0)
(0.0570111 0.099903 0)
(0.0593078 0.117943 0)
(0.0616086 0.137039 0)
(0.0631957 0.155225 1.33395e-27)
(0.0628736 0.169632 -2.92458e-26)
(0.059371 0.177402 2.6286e-26)
(0.0522314 0.178123 -3.15869e-26)
(0.0427872 0.174604 0)
(0.0325528 0.170309 4.26265e-26)
(0.0220569 0.16648 -1.81469e-26)
(0.011201 0.162757 -1.55103e-26)
(-0.000155762 0.158346 -1.25469e-26)
(-0.0118565 0.152526 -8.13287e-27)
(-0.0233406 0.1446 1.44494e-26)
(-0.0335896 0.134013 4.80562e-27)
(-0.0410345 0.121461 0)
(-0.0445714 0.109656 -3.13487e-26)
(-0.0449379 0.101637 1.37263e-26)
(-0.0441382 0.0989408 -4.35409e-28)
(-0.0439014 0.101082 -2.52027e-27)
(-0.0423854 0.104458 -3.71435e-27)
(-0.0387552 0.106938 -6.20767e-27)
(-0.0323785 0.106966 2.716e-26)
(-0.0135223 0.0961922 -6.01317e-28)
(-0.0286305 0.106528 -4.1868e-29)
(-0.00558374 0.0910388 -4.99441e-28)
(-0.0113831 0.0952927 -5.73821e-28)
(-0.00431686 0.089116 1.61467e-29)
(-0.00558848 0.0909724 1.38666e-29)
(-0.00454393 0.0876325 3.75824e-27)
(-0.00506876 0.0887069 8.84726e-27)
(-0.00493095 0.086688 -2.26004e-27)
(-0.00289936 0.084288 2.14709e-27)
(-0.00488326 0.0854551 0)
(-0.0041636 0.0843109 -1.29132e-27)
(-0.000282604 0.084992 -1.31505e-27)
(-0.00101797 0.0843451 -5.70553e-27)
(0.000454688 0.0873476 5.0594e-28)
(0.000849131 0.0864501 -2.27134e-27)
(0.0463427 0.000588191 -1.45341e-34)
(0.048428 0.0031374 1.93128e-28)
(0.0499124 0.0104238 1.37949e-27)
(0.0503466 0.0240393 6.73858e-29)
(0.0507166 0.0369225 -1.04703e-27)
(0.0513098 0.0485389 7.08664e-27)
(0.0520743 0.0600479 -5.6753e-27)
(0.053185 0.0721982 -1.07812e-26)
(0.0545894 0.0848535 -1.75526e-27)
(0.056185 0.0987565 0)
(0.0586312 0.116097 0)
(0.0613266 0.135068 0)
(0.0635234 0.153713 -1.31606e-26)
(0.0641579 0.169593 2.66729e-27)
(0.0618898 0.179611 1.08208e-26)
(0.0559438 0.182585 2.89429e-27)
(0.0470387 0.180245 6.07618e-27)
(0.0369561 0.176383 2.39666e-26)
(0.0264416 0.172905 -1.84504e-29)
(0.0154954 0.16985 0)
(0.00383361 0.166387 -2.3821e-27)
(-0.0085918 0.161738 -8.14066e-27)
(-0.0215097 0.155123 -5.49279e-28)
(-0.0342208 0.14569 6.85339e-27)
(-0.0452593 0.133667 3.02153e-27)
(-0.0528944 0.122 -4.81601e-26)
(-0.0570589 0.115289 1.90917e-26)
(-0.0593952 0.115377 -4.79625e-27)
(-0.062375 0.120688 3.27459e-27)
(-0.0661007 0.127651 -3.56086e-27)
(-0.0660305 0.131951 1.78995e-27)
(-0.0630412 0.132953 3.70816e-26)
(-0.0419377 0.117358 -2.20145e-34)
(-0.0600911 0.132081 1.66378e-27)