/*--------------------------------*- C++ -*----------------------------------*\
  =========                 |
  \\      /  F ield         | OpenFOAM: The Open Source CFD Toolbox
   \\    /   O peration     | Website:  https://openfoam.org
    \\  /    A nd           | Version:  dev
     \\/     M anipulation  |
\*---------------------------------------------------------------------------*/
FoamFile
{
    version     2.0;
    format      ascii;
    class       volScalarField;
    location    "2500";
    object      a;
}
// * * * * * * * * * * * * * * * * * * * * * * * * * * * * * * * * * * * * * //

dimensions      [0 -1 0 0 0 0 0];

internalField   nonuniform List<scalar> 
9834
(
0.100011
0.100011
0.100011
0.100011
0.100011
0.100011
0.100011
0.100011
0.100011
0.100011
0.10001
0.100011
0.100011
0.100011
0.100011
0.10001
0.10001
0.100011
0.100011
0.100011
0.100011
0.10001
0.10001
0.10001
0.100011
0.100011
0.100011
0.100011
0.10001
0.10001
0.10001
0.10001
0.100011
0.100011
0.100011
0.100011
0.100009
0.10001
0.10001
0.10001
0.10001
0.100011
0.100011
0.100011
0.100011
0.100009
0.100009
0.10001
0.10001
0.10001
0.10001
0.100011
0.100011
0.100011
0.100011
0.100009
0.100009
0.100009
0.10001
0.10001
0.10001
0.10001
0.100011
0.100011
0.100011
0.100011
0.100009
0.100009
0.100009
0.100009
0.10001
0.10001
0.10001
0.10001
0.100011
0.100011
0.100011
0.100011
0.100009
0.100009
0.100009
0.100009
0.100009
0.10001
0.10001
0.10001
0.10001
0.100011
0.100011
0.100011
0.100011
0.100008
0.100009
0.100009
0.100009
0.100009
0.100009
0.10001
0.10001
0.10001
0.10001
0.100011
0.100011
0.100011
0.100011
0.100008
0.100008
0.100009
0.100009
0.100009
0.100009
0.100009
0.10001
0.10001
0.10001
0.10001
0.100011
0.100011
0.100011
0.100011
0.100008
0.100008
0.100008
0.100009
0.100009
0.100009
0.100009
0.100009
0.10001
0.10001
0.10001
0.10001
0.100011
0.100011
0.100011
0.100011
0.100008
0.100008
0.100008
0.100008
0.100009
0.100009
0.100009
0.100009
0.100009
0.10001
0.10001
0.10001
0.10001
0.100011
0.100011
0.100011
0.100011
0.100007
0.100008
0.100008
0.100008
0.100008
0.100008
0.100009
0.100009
0.100009
0.100009
0.10001
0.10001
0.10001
0.10001
0.100011
0.100011
0.100011
0.100011
0.100007
0.100007
0.100008
0.100008
0.100008
0.100008
0.100008
0.100009
0.100009
0.100009
0.100009
0.10001
0.10001
0.10001
0.10001
0.100011
0.100011
0.100011
0.100011
0.100007
0.100007
0.100007
0.100008
0.100008
0.100008
0.100008
0.100008
0.100009
0.100009
0.100009
0.100009
0.10001
0.10001
0.10001
0.10001
0.100011
0.100011
0.100011
0.100011
0.100007
0.100007
0.100007
0.100007
0.100008
0.100008
0.100008
0.100008
0.100008
0.100009
0.100009
0.100009
0.100009
0.10001
0.10001
0.10001
0.10001
0.100011
0.100011
0.100011
0.100011
0.100006
0.100007
0.100007
0.100007
0.100007
0.100008
0.100008
0.100008
0.100008
0.100008
0.100009
0.100009
0.100009
0.100009
0.10001
0.10001
0.10001
0.10001
0.100011
0.100011
0.100011
0.100011
0.100006
0.100006
0.100007
0.100007
0.100007
0.100007
0.100008
0.100008
0.100008
0.100008
0.100008
0.100009
0.100009
0.100009
0.100009
0.10001
0.10001
0.10001
0.10001
0.100011
0.100011
0.100011
0.100011
0.100006
0.100006
0.100006
0.100007
0.100007
0.100007
0.100007
0.100008
0.100008
0.100008
0.100008
0.100008
0.100009
0.100009
0.100009
0.100009
0.10001
0.10001
0.10001
0.10001
0.100011
0.100011
0.100011
0.100011
0.100006
0.100006
0.100006
0.100006
0.100007
0.100007
0.100007
0.100007
0.100008
0.100008
0.100008
0.100008
0.100008
0.100009
0.100009
0.100009
0.100009
0.10001
0.10001
0.10001
0.10001
0.100011
0.100011
0.100011
0.100011
0.100006
0.100006
0.100006
0.100006
0.100006
0.100007
0.100007
0.100007
0.100007
0.100008
0.100008
0.100008
0.100008
0.100008
0.100009
0.100009
0.100009
0.100009
0.10001
0.10001
0.10001
0.10001
0.100011
0.100011
0.100011
0.100011
0.100005
0.100006
0.100006
0.100006
0.100006
0.100006
0.100007
0.100007
0.100007
0.100007
0.100008
0.100008
0.100008
0.100008
0.100008
0.100009
0.100009
0.100009
0.100009
0.10001
0.10001
0.10001
0.10001
0.100011
0.100011
0.100011
0.100011
0.100005
0.100005
0.100006
0.100006
0.100006
0.100006
0.100006
0.100007
0.100007
0.100007
0.100007
0.100008
0.100008
0.100008
0.100008
0.100008
0.100009
0.100009
0.100009
0.100009
0.10001
0.10001
0.10001
0.10001
0.100011
0.100011
0.100011
0.100011
0.100005
0.100005
0.100005
0.100006
0.100006
0.100006
0.100006
0.100006
0.100007
0.100007
0.100007
0.100007
0.100008
0.100008
0.100008
0.100008
0.100008
0.100009
0.100009
0.100009
0.100009
0.10001
0.10001
0.10001
0.10001
0.100011
0.100011
0.100011
0.100011
0.100005
0.100005
0.100005
0.100005
0.100006
0.100006
0.100006
0.100006
0.100006
0.100007
0.100007
0.100007
0.100007
0.100008
0.100008
0.100008
0.100008
0.100008
0.100009
0.100009
0.100009
0.100009
0.10001
0.10001
0.10001
0.10001
0.100011
0.100011
0.100011
0.100011
0.100004
0.100005
0.100005
0.100005
0.100005
0.100006
0.100006
0.100006
0.100006
0.100006
0.100007
0.100007
0.100007
0.100007
0.100008
0.100008
0.100008
0.100008
0.100008
0.100009
0.100009
0.100009
0.100009
0.10001
0.10001
0.10001
0.10001
0.100011
0.100011
0.100011
0.100011
0.100004
0.100004
0.100005
0.100005
0.100005
0.100005
0.100006
0.100006
0.100006
0.100006
0.100006
0.100007
0.100007
0.100007
0.100007
0.100008
0.100008
0.100008
0.100008
0.100008
0.100009
0.100009
0.100009
0.100009
0.10001
0.10001
0.10001
0.10001
0.100011
0.100011
0.100011
0.100011
0.100004
0.100004
0.100004
0.100005
0.100005
0.100005
0.100005
0.100006
0.100006
0.100006
0.100006
0.100006
0.100007
0.100007
0.100007
0.100007
0.100008
0.100008
0.100008
0.100008
0.100009
0.100009
0.100009
0.100009
0.100009
0.10001
0.10001
0.10001
0.10001
0.100011
0.100011
0.100011
0.100011
0.100004
0.100004
0.100004
0.100004
0.100005
0.100005
0.100005
0.100005
0.100006
0.100006
0.100006
0.100006
0.100006
0.100007
0.100007
0.100007
0.100007
0.100008
0.100008
0.100008
0.100009
0.100009
0.100009
0.100009
0.100009
0.100009
0.10001
0.10001
0.10001
0.10001
0.100011
0.100011
0.100011
0.100011
0.100011
0.100004
0.100004
0.100004
0.100004
0.100004
0.100005
0.100005
0.100005
0.100005
0.100006
0.100006
0.100006
0.100006
0.100006
0.100007
0.100007
0.100007
0.100008
0.100009
0.10001
0.100012
0.100013
0.100012
0.100011
0.10001
0.10001
0.10001
0.10001
0.10001
0.10001
0.10001
0.100011
0.100011
0.100011
0.100011
0.100011
0.100011
0.100003
0.100004
0.100004
0.100004
0.100004
0.100004
0.100005
0.100005
0.100005
0.100005
0.100006
0.100006
0.100006
0.100006
0.100006
0.100007
0.100007
0.100009
0.100013
0.10002
0.100032
0.100045
0.100045
0.100033
0.10002
0.100013
0.10001
0.10001
0.10001
0.10001
0.10001
0.10001
0.100011
0.10001
0.100011
0.100011
0.100011
0.100011
0.100011
0.100011
0.100011
0.100003
0.100003
0.100004
0.100004
0.100004
0.100004
0.100004
0.100005
0.100005
0.100005
0.100005
0.100006
0.100006
0.100006
0.100006
0.100007
0.100007
0.100012
0.100027
0.100055
0.100124
0.100222
0.100278
0.100226
0.100123
0.100051
0.100022
0.100013
0.100011
0.10001
0.10001
0.10001
0.10001
0.10001
0.10001
0.100011
0.100011
0.100011
0.100011
0.100011
0.100011
0.100011
0.100003
0.100003
0.100003
0.100004
0.100004
0.100004
0.100004
0.100004
0.100005
0.100005
0.100005
0.100005
0.100006
0.100006
0.100006
0.100006
0.100007
0.100015
0.100048
0.100139
0.100424
0.100913
0.101413
0.101428
0.100921
0.100399
0.100132
0.100042
0.100018
0.100012
0.100011
0.10001
0.10001
0.10001
0.10001
0.10001
0.10001
0.100011
0.100011
0.100011
0.100011
0.100011
0.100011
0.100011
0.100003
0.100003
0.100003
0.100003
0.100004
0.100004
0.100004
0.100004
0.100004
0.100005
0.100005
0.100005
0.100005
0.100006
0.100006
0.100006
0.100007
0.100018
0.100065
0.100257
0.101011
0.102705
0.105055
0.106457
0.105232
0.102735
0.101019
0.100301
0.100082
0.100029
0.100016
0.100012
0.10001
0.100011
0.10001
0.100011
0.10001
0.100011
0.100011
0.100011
0.100011
0.100011
0.100011
0.100011
0.100011
0.100011
0.100002
0.100003
0.100003
0.100003
0.100003
0.100004
0.100004
0.100004
0.100004
0.100004
0.100005
0.100005
0.100005
0.100005
0.100006
0.100006
0.100007
0.10002
0.100084
0.100381
0.101716
0.105365
0.111753
0.118291
0.119781
0.113881
0.106431
0.102086
0.100531
0.100133
0.100044
0.100021
0.100012
0.100016
0.100013
0.10002
0.100012
0.100019
0.100011
0.100015
0.100012
0.100011
0.100013
0.100013
0.100011
0.100011
0.100011
0.100011
0.100002
0.100002
0.100003
0.100003
0.100003
0.100003
0.100004
0.100004
0.100004
0.100004
0.100004
0.100005
0.100005
0.100005
0.100005
0.100006
0.100007
0.100019
0.100098
0.100457
0.102302
0.107949
0.119003
0.132594
0.142004
0.140628
0.125854
0.110212
0.102907
0.100679
0.100171
0.100059
0.100027
0.100054
0.10004
0.100097
0.100043
0.100121
0.100032
0.100098
0.100019
0.100055
0.100024
0.100013
0.100027
0.100027
0.100011
0.100012
0.100011
0.100011
0.100002
0.100002
0.100002
0.100003
0.100003
0.100003
0.100003
0.100004
0.100004
0.100004
0.100004
0.100004
0.100005
0.100005
0.100005
0.100005
0.100006
0.100016
0.1001
0.100473
0.102649
0.109731
0.124473
0.144032
0.161648
0.169819
0.161429
0.135283
0.111711
0.102897
0.100671
0.100191
0.100106
0.100225
0.100236
0.100554
0.100339
0.100897
0.100322
0.100979
0.100205
0.100726
0.100085
0.100362
0.100115
0.100025
0.100132
0.10013
0.100012
0.10002
0.100011
0.100012
0.100002
0.100002
0.100002
0.100002
0.100003
0.100003
0.100003
0.100003
0.100004
0.100004
0.100004
0.100004
0.100004
0.100005
0.100005
0.100005
0.100006
0.100012
0.100084
0.100438
0.10269
0.110687
0.127407
0.149783
0.172372
0.19043
0.195119
0.176818
0.137707
0.110486
0.102467
0.100601
0.100362
0.100603
0.101192
0.102498
0.102186
0.104907
0.102653
0.106515
0.102295
0.106398
0.101391
0.10452
0.100552
0.102255
0.100714
0.100104
0.100786
0.100731
0.100016
0.10007
0.100011
0.100013
0.100001
0.100002
0.100002
0.100002
0.100002
0.100003
0.100003
0.100003
0.100003
0.100004
0.100004
0.100004
0.100004
0.100004
0.100005
0.100005
0.100005
0.100009
0.100063
0.100343
0.102438
0.110593
0.129195
0.150305
0.171396
0.19471
0.212924
0.212393
0.180289
0.132583
0.107786
0.101737
0.101022
0.10151
0.103909
0.106283
0.109766
0.116499
0.114552
0.127247
0.115592
0.133117
0.112852
0.131042
0.107665
0.12198
0.103187
0.111435
0.103863
0.100559
0.104037
0.103593
0.10004
0.100351
0.100012
0.100022
0.100001
0.100001
0.100002
0.100002
0.100002
0.100002
0.100003
0.100003
0.100003
0.100003
0.100004
0.100004
0.100004
0.100004
0.100004
0.100005
0.100005
0.100007
0.100044
0.100254
0.101868
0.109548
0.128284
0.146249
0.161169
0.186297
0.213548
0.230754
0.216696
0.171154
0.122279
0.104868
0.102883
0.101075
0.108126
0.111159
0.124554
0.133499
0.142869
0.159607
0.155935
0.180832
0.159781
0.192334
0.152026
0.191499
0.132849
0.175866
0.114986
0.14412
0.117089
0.102682
0.117012
0.114668
0.10017
0.101645
0.100013
0.100061
0.100001
0.100001
0.100001
0.100002
0.100002
0.100002
0.100002
0.100003
0.100003
0.100003
0.100003
0.100004
0.100004
0.100004
0.100004
0.100004
0.100005
0.100006
0.100027
0.100189
0.101296
0.107572
0.125619
0.141598
0.149613
0.164701
0.198349
0.231887
0.239219
0.206438
0.151314
0.112348
0.113959
0.113583
0.120841
0.142022
0.150835
0.175834
0.19092
0.20524
0.227666
0.224946
0.255701
0.23256
0.27182
0.225165
0.27361
0.198792
0.257013
0.152953
0.217793
0.156758
0.110774
0.154451
0.14743
0.100737
0.106426
0.100016
0.100212
0.100001
0.100001
0.100001
0.100001
0.100002
0.100002
0.100002
0.100002
0.100003
0.100003
0.100003
0.100003
0.100004
0.100004
0.100004
0.100004
0.100004
0.100005
0.100016
0.100138
0.100843
0.10557
0.121631
0.138523
0.143188
0.148059
0.17112
0.219326
0.249121
0.233703
0.180596
0.128431
0.12288
0.172977
0.180198
0.158482
0.165998
0.204127
0.216315
0.247469
0.264879
0.283437
0.307741
0.308265
0.341099
0.319959
0.360837
0.314218
0.365632
0.285095
0.349629
0.231204
0.307575
0.23699
0.135815
0.232929
0.218544
0.102865
0.12178
0.100024
0.100695
0.100001
0.100001
0.100001
0.100001
0.100001
0.100002
0.100002
0.100002
0.100002
0.100003
0.100003
0.100003
0.100003
0.100004
0.100004
0.100004
0.100004
0.100005
0.10001
0.100086
0.100536
0.103824
0.117001
0.136106
0.140051
0.1377
0.150397
0.194789
0.249547
0.252559
0.207836
0.150223
0.135903
0.18791
0.193738
0.243255
0.250396
0.226608
0.235531
0.279734
0.293154
0.328696
0.346689
0.369085
0.393561
0.398779
0.429544
0.413636
0.450591
0.410274
0.457334
0.380075
0.44553
0.322331
0.403909
0.328194
0.192408
0.324224
0.309498
0.10959
0.159208
0.10005
0.102314
0.1
0.100001
0.100001
0.100001
0.100001
0.100001
0.100002
0.100002
0.100002
0.100002
0.100003
0.100003
0.100003
0.100003
0.100004
0.100004
0.100004
0.100004
0.100007
0.10005
0.100319
0.102444
0.112545
0.133262
0.138696
0.133286
0.13667
0.170781
0.238618
0.265178
0.234558
0.177282
0.157599
0.206083
0.202771
0.257192
0.264315
0.32172
0.328728
0.304385
0.313787
0.361744
0.374912
0.413697
0.429774
0.452932
0.468531
0.472856
0.485135
0.481861
0.492282
0.483162
0.496837
0.471022
0.498682
0.418184
0.486331
0.422495
0.281423
0.416221
0.401379
0.130207
0.238895
0.100181
0.108791
0.1
0.1
0.100001
0.100001
0.100001
0.100001
0.100001
0.100002
0.100002
0.100002
0.100002
0.100003
0.100003
0.100003
0.100003
0.100004
0.100004
0.100004
0.100005
0.100026
0.100203
0.101455
0.108728
0.128589
0.138124
0.133234
0.128715
0.149167
0.215193
0.271539
0.260496
0.207247
0.182727
0.258852
0.270844
0.28921
0.335178
0.341131
0.401301
0.407297
0.385574
0.394318
0.44244
0.452498
0.478433
0.485218
0.491543
0.494764
0.495989
0.496377
0.49964
0.496416
0.504695
0.499981
0.508655
0.508381
0.495969
0.516115
0.500911
0.377885
0.498863
0.48675
0.181745
0.346054
0.102668
0.144142
0.1
0.100001
0.100001
0.100001
0.100001
0.100001
0.100001
0.100002
0.100002
0.100002
0.100002
0.100003
0.100003
0.100003
0.100003
0.100004
0.100004
0.100004
0.100014
0.100132
0.100816
0.105702
0.1224
0.137524
0.135235
0.125015
0.133132
0.185395
0.266637
0.280581
0.240024
0.208524
0.274822
0.359863
0.355811
0.347381
0.353401
0.412543
0.416487
0.468838
0.471275
0.460174
0.465524
0.489644
0.492408
0.496873
0.498133
0.494784
0.491642
0.488319
0.475531
0.485308
0.460494
0.494298
0.46103
0.510954
0.482769
0.52361
0.514332
0.531002
0.472238
0.537328
0.541021
0.304535
0.463927
0.179259
0.367562
0.100001
0.100001
0.100001
0.100001
0.100001
0.100001
0.100001
0.100002
0.100002
0.100002
0.100002
0.100003
0.100003
0.100003
0.100003
0.100004
0.100004
0.100008
0.100073
0.100502
0.103496
0.116206
0.136066
0.13765
0.125538
0.124225
0.15561
0.24084
0.289594
0.273572
0.236924
0.286119
0.394936
0.424798
0.432264
0.420686
0.423795
0.472265
0.471861
0.494336
0.493638
0.494241
0.494703
0.497875
0.497032
0.486927
0.481423
0.461946
0.449582
0.435516
0.414011
0.420279
0.386772
0.431235
0.379109
0.471352
0.402703
0.520488
0.466184
0.530979
0.54564
0.543386
0.550334
0.555845
0.50877
0.532499
0.554617
0.354996
0.547184
0.100002
0.100002
0.100001
0.100001
0.100001
0.100001
0.100001
0.100002
0.100002
0.100002
0.100002
0.100003
0.100003
0.100003
0.100003
0.100004
0.100005
0.100037
0.100279
0.102022
0.111124
0.132093
0.139088
0.130534
0.120746
0.133608
0.200106
0.285497
0.298041
0.270251
0.292947
0.391951
0.453991
0.444196
0.46462
0.459721
0.47099
0.468836
0.492077
0.489106
0.490706
0.486765
0.495814
0.493751
0.475325
0.468886
0.438629
0.428298
0.397459
0.384593
0.367086
0.358807
0.347853
0.340881
0.346464
0.323914
0.382674
0.3201
0.468843
0.374094
0.422002
0.51407
0.47367
0.556438
0.567578
0.563672
0.531593
0.49345
0.482927
0.539756
0.569586
0.582852
0.569944
0.577241
0.212033
0.595429
0.486288
0.582041
0.100005
0.100003
0.100001
0.100001
0.100001
0.100001
0.100001
0.100002
0.100002
0.100002
0.100002
0.100003
0.100003
0.100003
0.100003
0.100004
0.100017
0.100164
0.10109
0.107181
0.125678
0.139474
0.135879
0.121152
0.121509
0.161354
0.257407
0.305003
0.301526
0.30329
0.382545
0.438121
0.425842
0.457345
0.449264
0.472588
0.465133
0.484655
0.479151
0.481799
0.475892
0.449544
0.443433
0.46234
0.455873
0.417975
0.407685
0.373347
0.361719
0.354683
0.350194
0.343252
0.349144
0.326589
0.344156
0.31502
0.312149
0.316878
0.329045
0.337312
0.309251
0.305346
0.302573
0.300344
0.373017
0.429003
0.375361
0.330794
0.435225
0.547819
0.573836
0.556464
0.506836
0.459313
0.446028
0.517329
0.596954
0.58771
0.582956
0.187774
0.440661
0.519698
0.599734
0.587953
0.100008
0.100002
0.100001
0.100001
0.100001
0.100001
0.100001
0.100002
0.100002
0.100002
0.100002
0.100003
0.100003
0.100003
0.100004
0.100009
0.100093
0.100611
0.104376
0.11884
0.138719
0.139718
0.126894
0.117158
0.133543
0.208481
0.298012
0.317781
0.321255
0.369793
0.41855
0.440794
0.4341
0.442152
0.436663
0.455244
0.448415
0.469203
0.462231
0.437564
0.432448
0.384685
0.380966
0.398261
0.390494
0.349231
0.336388
0.342449
0.329877
0.354415
0.354675
0.373109
0.402994
0.346519
0.369991
0.393894
0.421245
0.31494
0.333275
0.357999
0.303592
0.294861
0.315747
0.317666
0.298786
0.329653
0.383136
0.332571
0.300108
0.392178
0.526746
0.56593
0.536427
0.473176
0.404304
0.418543
0.485699
0.592036
0.599707
0.57575
0.423098
0.565438
0.565245
0.602238
0.601637
0.100008
0.100002
0.100001
0.100001
0.100001
0.100001
0.100001
0.100002
0.100002
0.100002
0.100002
0.100003
0.100003
0.100003
0.100006
0.100047
0.100367
0.102513
0.113062
0.135065
0.141766
0.133688
0.117378
0.118378
0.163304
0.263224
0.318214
0.334875
0.364063
0.402164
0.421514
0.415721
0.431353
0.426859
0.420399
0.419928
0.42286
0.421291
0.428266
0.425149
0.37987
0.381265
0.318471
0.321253
0.32608
0.319821
0.312398
0.29159
0.347201
0.330894
0.423555
0.427817
0.444649
0.468997
0.485735
0.501464
0.387107
0.418424
0.449714
0.479006
0.339704
0.370452
0.40534
0.291638
0.296399
0.345864
0.350449
0.318233
0.299199
0.339186
0.300496
0.289622
0.348688
0.496996
0.547375
0.508808
0.433662
0.360936
0.375798
0.448594
0.586546
0.597353
0.560163
0.369788
0.60401
0.564022
0.605842
0.612216
0.100007
0.100001
0.100001
0.100001
0.100001
0.100001
0.100001
0.100002
0.100002
0.100002
0.100002
0.100003
0.100003
0.100004
0.100023
0.100198
0.101376
0.108557
0.128541
0.142325
0.139239
0.123425
0.113028
0.130998
0.20923
0.304599
0.337046
0.36219
0.391126
0.408768
0.41685
0.415113
0.419364
0.41857
0.40512
0.409541
0.394391
0.399886
0.384485
0.389179
0.32884
0.340372
0.264772
0.275311
0.271305
0.26299
0.306694
0.277122
0.415569
0.384912
0.508707
0.512946
0.51082
0.504507
0.504493
0.524977
0.539767
0.548736
0.441663
0.476811
0.508584
0.535401
0.381696
0.421446
0.461826
0.294396
0.317198
0.390432
0.395917
0.352381
0.288275
0.304
0.287645
0.291966
0.310973
0.46282
0.522916
0.478013
0.392357
0.32164
0.336041
0.40987
0.575421
0.591777
0.540468
0.324786
0.607575
0.507378
0.606784
0.614502
0.100005
0.100001
0.100001
0.100001
0.100001
0.100001
0.100001
0.100002
0.100002
0.100002
0.100002
0.100003
0.100004
0.100014
0.100121
0.10079
0.105374
0.121631
0.141658
0.142899
0.130728
0.112883
0.114206
0.15914
0.259655
0.330422
0.360172
0.385221
0.403001
0.414475
0.412732
0.415507
0.415388
0.412805
0.414836
0.398798
0.406188
0.378374
0.389458
0.353184
0.366091
0.293775
0.314491
0.227546
0.243667
0.243096
0.226741
0.338173
0.28297
0.499789
0.457744
0.552109
0.55072
0.543724
0.532793
0.556258
0.570683
0.578735
0.580487
0.499701
0.533009
0.560372
0.581145
0.434216
0.477888
0.518062
0.31415
0.351274
0.443283
0.44832
0.397815
0.28923
0.288458
0.286912
0.309457
0.291268
0.427639
0.496431
0.447137
0.353773
0.296193
0.305261
0.372943
0.561551
0.584261
0.519731
0.133669
0.5957
0.379917
0.60526
0.613005
0.100003
0.100001
0.100001
0.100001
0.100001
0.100001
0.100001
0.100002
0.100002
0.100002
0.100003
0.100004
0.100011
0.100078
0.100529
0.103349
0.115777
0.138523
0.144766
0.137014
0.11848
0.108514
0.125035
0.198632
0.301268
0.351844
0.378758
0.398473
0.413196
0.418168
0.417809
0.417406
0.418213
0.411668
0.415353
0.396251
0.405057
0.3706
0.38478
0.334959
0.35387
0.268144
0.294364
0.197958
0.210957
0.230047
0.202587
0.392552
0.309375
0.525762
0.506304
0.459866
0.487987
0.576844
0.567144
0.554251
0.540389
0.595023
0.601906
0.602335
0.596221
0.552548
0.580372
0.601049
0.614587
0.489788
0.532137
0.567999
0.34719
0.396062
0.49784
0.501974
0.44946
0.303501
0.285686
0.297199
0.340196
0.285157
0.394361
0.470831
0.418598
0.32055
0.286225
0.28963
0.341247
0.547273
0.576991
0.500278
0.125281
0.573161
0.360716
0.604018
0.610375
0.100002
0.1
0.100001
0.100001
0.100001
0.100001
0.100001
0.100002
0.100002
0.100003
0.100004
0.100013
0.100068
0.10035
0.102276
0.111551
0.133261
0.145257
0.141776
0.125684
0.108
0.10933
0.146289
0.230845
0.320493
0.364924
0.389995
0.406063
0.414711
0.410158
0.419448
0.418227
0.41862
0.419595
0.411533
0.416015
0.388204
0.397864
0.359869
0.375594
0.31909
0.341008
0.236351
0.264126
0.168039
0.172251
0.223097
0.17876
0.429464
0.387094
0.321807
0.518575
0.501227
0.457671
0.481983
0.584068
0.569175
0.552514
0.535243
0.620734
0.620501
0.613644
0.599996
0.596409
0.617274
0.630777
0.63687
0.542397
0.579933
0.609358
0.390569
0.44673
0.549306
0.552798
0.502443
0.330377
0.291906
0.318525
0.381204
0.286465
0.365381
0.448164
0.394468
0.29808
0.283399
0.283496
0.316409
0.534817
0.571865
0.484177
0.157326
0.567859
0.464065
0.60385
0.610128
0.100001
0.1
0.100001
0.100001
0.100001
0.100001
0.100002
0.100002
0.100003
0.100008
0.100022
0.10008
0.100322
0.101951
0.109157
0.128493
0.145026
0.144895
0.131822
0.111625
0.104553
0.116321
0.164353
0.242891
0.325319
0.369648
0.389049
0.390553
0.405513
0.394728
0.413325
0.410924
0.412883
0.413854
0.404923
0.409902
0.364506
0.37533
0.333564
0.350606
0.290296
0.313419
0.192342
0.217215
0.140826
0.136885
0.221904
0.161435
0.427311
0.388944
0.338522
0.290103
0.498356
0.482229
0.443622
0.465058
0.582314
0.560451
0.537492
0.516416
0.63688
0.630548
0.617245
0.598087
0.630687
0.644509
0.650983
0.651687
0.588806
0.619702
0.641944
0.439811
0.499035
0.594955
0.598292
0.553032
0.368143
0.306275
0.351112
0.428067
0.294175
0.343167
0.429916
0.376243
0.287623
0.285142
0.281822
0.301412
0.525643
0.569146
0.472421
0.340733
0.590213
0.548017
0.604573
0.61455
0.100001
0.1
0.100001
0.100001
0.100001
0.100002
0.100003
0.100006
0.100018
0.100054
0.100134
0.100396
0.101931
0.10843
0.125606
0.143871
0.146601
0.136665
0.117352
0.10399
0.104902
0.12403
0.170187
0.243493
0.313112
0.349018
0.354586
0.347837
0.330124
0.378215
0.363855
0.391527
0.386896
0.392063
0.392953
0.383279
0.38874
0.318393
0.330392
0.285273
0.30326
0.241922
0.264694
0.14352
0.159505
0.128935
0.119856
0.244405
0.198142
0.15508
0.415808
0.380496
0.326535
0.283747
0.469074
0.454081
0.421189
0.439501
0.572717
0.543517
0.514008
0.488535
0.646989
0.635397
0.617514
0.593035
0.656303
0.663386
0.66452
0.662254
0.627731
0.651349
0.666627
0.49104
0.549398
0.633597
0.63723
0.598762
0.411035
0.329269
0.385416
0.476886
0.306472
0.328614
0.417259
0.365504
0.284828
0.290355
0.283871
0.296588
0.519945
0.568468
0.465234
0.161586
0.607192
0.434412
0.606603
0.620527
0.100001
0.1
0.100001
0.100001
0.100002
0.100005
0.100014
0.100048
0.100128
0.100322
0.100782
0.102343
0.108575
0.124922
0.142987
0.147373
0.140133
0.122333
0.105289
0.101885
0.107017
0.126348
0.169432
0.224082
0.264553
0.273609
0.242169
0.287473
0.255287
0.326437
0.309457
0.345445
0.338131
0.348389
0.348628
0.339223
0.345176
0.250019
0.2626
0.217773
0.234809
0.178633
0.198775
0.117693
0.120122
0.1317
0.121443
0.114881
0.24063
0.199497
0.144583
0.171402
0.396692
0.364895
0.3111
0.274072
0.435084
0.420895
0.39378
0.408781
0.561606
0.525131
0.48787
0.456739
0.652983
0.637194
0.616004
0.587196
0.674667
0.676629
0.675444
0.668357
0.659035
0.675619
0.684797
0.540497
0.595085
0.664974
0.668934
0.638017
0.453079
0.352917
0.416888
0.52247
0.322103
0.323174
0.41118
0.363133
0.287071
0.299705
0.289598
0.299062
0.517751
0.56968
0.463365
0.134124
0.592878
0.345173
0.610219
0.622971
0.100001
0.1
0.100001
0.100002
0.100008
0.100034
0.100109
0.100332
0.100875
0.102002
0.104049
0.109852
0.125291
0.142847
0.14764
0.142281
0.126051
0.107528
0.101515
0.10179
0.107795
0.125469
0.153754
0.17773
0.182261
0.162738
0.151517
0.137387
0.210215
0.18064
0.253295
0.234398
0.275998
0.267028
0.280969
0.280565
0.272164
0.278055
0.170489
0.181033
0.146346
0.158669
0.126267
0.135614
0.109132
0.107211
0.13422
0.122816
0.117967
0.11229
0.236694
0.201336
0.152919
0.175545
0.372747
0.344758
0.293041
0.262227
0.400333
0.385947
0.363567
0.375733
0.550885
0.509008
0.465552
0.426577
0.655538
0.637325
0.612561
0.58037
0.687445
0.687151
0.681944
0.671786
0.683228
0.693678
0.697073
0.584062
0.633217
0.689291
0.692872
0.669071
0.488859
0.377452
0.447963
0.558435
0.341268
0.325318
0.411521
0.366635
0.293303
0.314585
0.301877
0.307403
0.519059
0.573153
0.466274
0.117478
0.565051
0.277266
0.616514
0.624404
0.100001
0.100001
0.100002
0.100013
0.100063
0.100268
0.100796
0.10232
0.105043
0.108725
0.114064
0.127067
0.143013
0.147657
0.143229
0.1283
0.109546
0.101764
0.100614
0.101912
0.107294
0.117229
0.125615
0.127072
0.118864
0.106476
0.111848
0.106015
0.138073
0.12301
0.169636
0.154467
0.190639
0.181968
0.19637
0.195468
0.189286
0.193968
0.118583
0.122109
0.111578
0.114953
0.107098
0.109015
0.108196
0.104383
0.143504
0.128625
0.123711
0.11476
0.231273
0.201711
0.160182
0.178914
0.345592
0.321625
0.273756
0.249604
0.368638
0.35167
0.332004
0.342226
0.540018
0.493445
0.444742
0.400406
0.657344
0.637355
0.610951
0.576371
0.697399
0.693773
0.686074
0.674936
0.700913
0.705008
0.70584
0.616623
0.660288
0.706384
0.709539
0.690583
0.522215
0.403879
0.478092
0.589858
0.363606
0.33637
0.418252
0.38121
0.30546
0.333138
0.319231
0.326407
0.52434
0.581315
0.476585
0.104489
0.53968
0.204669
0.624933
0.627324
0.100001
0.100002
0.100019
0.100112
0.10048
0.101805
0.104756
0.109709
0.11476
0.120804
0.131862
0.143651
0.147559
0.143299
0.129113
0.110857
0.102234
0.100421
0.100472
0.101694
0.104217
0.106309
0.106731
0.104406
0.101336
0.100162
0.101416
0.100667
0.105959
0.1031
0.114881
0.110014
0.12403
0.119837
0.127724
0.126762
0.12511
0.126859
0.10289
0.103401
0.102115
0.102416
0.102908
0.102237
0.113757
0.108397
0.103926
0.105835
0.147984
0.135255
0.128191
0.120358
0.225042
0.201069
0.162381
0.179208
0.316824
0.296903
0.253185
0.23509
0.339588
0.320349
0.29987
0.309827
0.533152
0.482129
0.427243
0.37633
0.659269
0.638451
0.610937
0.575326
0.704624
0.698671
0.690472
0.678856
0.711834
0.713509
0.713412
0.643852
0.68313
0.717933
0.723411
0.709995
0.551895
0.430145
0.50527
0.616171
0.386071
0.364507
0.437812
0.419544
0.3286
0.355467
0.350237
0.36266
0.537609
0.594327
0.499685
0.101665
0.510858
0.175229
0.633709
0.629952
0.100003
0.100023
0.100156
0.100799
0.102884
0.107938
0.114633
0.121024
0.127724
0.137246
0.144734
0.147212
0.142871
0.128962
0.111216
0.102532
0.100376
0.100201
0.100406
0.100831
0.101267
0.101368
0.100868
0.100252
0.100046
0.100012
0.100047
0.100011
0.100125
0.100578
0.100285
0.101703
0.101048
0.10328
0.102479
0.104246
0.1039
0.1039
0.104167
0.100503
0.100427
0.100844
0.100601
0.102692
0.101382
0.115626
0.111024
0.10469
0.107345
0.148855
0.137601
0.1286
0.121514
0.216179
0.197282
0.161734
0.175318
0.286816
0.270809
0.23086
0.2177
0.313051
0.290853
0.268965
0.279348
0.530995
0.477903
0.418823
0.360331
0.663012
0.642181
0.613628
0.577511
0.710562
0.705135
0.69675
0.68524
0.721459
0.722648
0.722
0.667948
0.705899
0.729127
0.73537
0.727256
0.579109
0.455655
0.536999
0.646863
0.416146
0.415737
0.479255
0.472918
0.373729
0.399655
0.412341
0.421967
0.558321
0.610061
0.536289
0.103232
0.50954
0.199077
0.642405
0.634848
0.100024
0.100195
0.101065
0.104273
0.111008
0.119579
0.127042
0.134302
0.140689
0.144929
0.146376
0.141355
0.127736
0.110878
0.10258
0.100387
0.100079
0.100145
0.100283
0.100257
0.100247
0.10016
0.100074
0.100014
0.100006
0.100009
0.100006
0.100006
0.100014
0.100047
0.100026
0.100136
0.100083
0.10028
0.1002
0.100388
0.100345
0.100405
0.1004
0.100336
0.100208
0.100828
0.100482
0.104109
0.102667
0.101701
0.115832
0.111587
0.105822
0.108295
0.146687
0.137363
0.127068
0.121246
0.203675
0.189383
0.156729
0.166896
0.256826
0.243822
0.20857
0.198312
0.299456
0.262717
0.23838
0.247046
0.532736
0.478623
0.417671
0.355034
0.669771
0.649707
0.624818
0.591563
0.718222
0.713188
0.705908
0.696301
0.731011
0.731672
0.730825
0.700049
0.730878
0.738127
0.74385
0.739328
0.62539
0.499169
0.606013
0.699466
0.481371
0.474514
0.52856
0.528764
0.450665
0.483193
0.505684
0.491549
0.583768
0.626363
0.572636
0.240521
0.537962
0.388392
0.650686
0.644088
0.100203
0.101299
0.10536
0.114201
0.124204
0.132601
0.138452
0.142524
0.144679
0.144667
0.137864
0.124312
0.109646
0.102397
0.100384
0.100053
0.100032
0.100078
0.100086
0.100077
0.100049
0.100019
0.100007
0.100006
0.100006
0.100006
0.100006
0.100006
0.100007
0.100009
0.100008
0.100015
0.100011
0.100025
0.100019
0.100041
0.100032
0.100118
0.100064
0.10032
0.100228
0.100945
0.100536
0.104256
0.10289
0.101393
0.102178
0.114782
0.111271
0.105972
0.108376
0.140507
0.133906
0.122664
0.118717
0.188008
0.177518
0.148019
0.155224
0.228689
0.218538
0.183202
0.177118
0.298096
0.249127
0.206387
0.221112
0.548394
0.494329
0.430692
0.362426
0.684315
0.669779
0.649614
0.620773
0.727741
0.722389
0.715819
0.707263
0.741205
0.742035
0.74159
0.733833
0.743772
0.752938
0.769652
0.752613
0.692249
0.589227
0.677389
0.730067
0.582182
0.535146
0.569701
0.571079
0.528489
0.58673
0.588038
0.556389
0.610347
0.642912
0.605751
0.546469
0.612761
0.613793
0.660227
0.660824
0.101345
0.106291
0.116608
0.128351
0.13641
0.140651
0.142805
0.143799
0.141425
0.132871
0.119277
0.107442
0.102104
0.100345
0.100046
0.100012
0.100015
0.100018
0.100019
0.100013
0.100007
0.100005
0.100005
0.100005
0.100006
0.100006
0.100006
0.100006
0.100006
0.100007
0.100006
0.100008
0.100007
0.100012
0.100009
0.100026
0.100016
0.100122
0.100054
0.100329
0.100203
0.100923
0.101399
0.100466
0.1044
0.103019
0.102072
0.11229
0.110008
0.105959
0.107993
0.13142
0.127487
0.116607
0.114419
0.170513
0.163297
0.136651
0.140709
0.197288
0.189966
0.161081
0.153451
0.326587
0.259923
0.195606
0.216448
0.582345
0.533071
0.471048
0.400286
0.69689
0.684584
0.672209
0.657372
0.737954
0.732884
0.727009
0.720271
0.755933
0.759092
0.762436
0.745451
0.755894
0.775705
0.772628
0.772387
0.718427
0.664745
0.697485
0.733081
0.652627
0.58277
0.606275
0.61294
0.595837
0.636146
0.62822
0.601486
0.633547
0.659128
0.631006
0.498895
0.662413
0.667845