/*--------------------------------*- C++ -*----------------------------------*\
  =========                 |
  \\      /  F ield         | OpenFOAM: The Open Source CFD Toolbox
   \\    /   O peration     | Website:  https://openfoam.org
    \\  /    A nd           | Version:  dev
     \\/     M anipulation  |
\*---------------------------------------------------------------------------*/
FoamFile
{
    version     2.0;
    format      ascii;
    class       volScalarField;
    location    "2500";
    object      alphat;
}
// * * * * * * * * * * * * * * * * * * * * * * * * * * * * * * * * * * * * * //

dimensions      [1 -1 -1 0 0 0 0];

internalField   nonuniform List<scalar> 
9834
(
0.000146865
0.000151495
0.000141308
0.000142155
0.000173164
0.000127162
0.000131533
0.000184981
0.000161519
0.000122001
0.00012755
0.000183148
0.00018389
0.000139679
0.000119758
0.000124059
0.00017345
0.000199133
0.000167947
0.000128477
0.000119303
0.000122454
0.000158365
0.000203978
0.000191773
0.000144954
0.000123424
0.000118775
0.000121702
0.000147017
0.00020142
0.000205266
0.00016928
0.000131247
0.000121778
0.000118064
0.000120911
0.000138045
0.000192078
0.000216093
0.000193899
0.000146992
0.000125067
0.000120695
0.000117689
0.000119943
0.000131494
0.000175028
0.000218712
0.0002108
0.000167855
0.000132636
0.000122717
0.000119335
0.000117567
0.000119183
0.000127336
0.000159337
0.000215826
0.00022021
0.000190936
0.000147496
0.000126033
0.000121462
0.000118346
0.00011753
0.00011866
0.000125042
0.000148642
0.00020698
0.000229055
0.000210569
0.000165349
0.000134156
0.000123159
0.00012011
0.000117794
0.000117514
0.000118317
0.000123776
0.000140189
0.000190155
0.000231647
0.000224478
0.000185789
0.000146721
0.000126986
0.000121726
0.000118863
0.00011753
0.000117499
0.000118176
0.000122955
0.000134255
0.000173112
0.000229012
0.000232131
0.000206289
0.00016197
0.000135092
0.000123526
0.000120528
0.000117963
0.000117444
0.000117489
0.000118179
0.00012239
0.000130256
0.000159748
0.000221009
0.000240285
0.000223227
0.000179644
0.000145608
0.000128008
0.00012182
0.000119275
0.000117447
0.000117433
0.000117477
0.000118184
0.000121899
0.000127626
0.000150061
0.000205492
0.000243135
0.000235261
0.000199264
0.000157926
0.00013551
0.000123952
0.000120662
0.000118232
0.000117204
0.000117464
0.000117484
0.00011823
0.000121469
0.00012594
0.00014267
0.000187945
0.000241161
0.000243014
0.000217663
0.000173855
0.000143836
0.000128893
0.000121896
0.000119563
0.000117513
0.000117118
0.000117526
0.000117512
0.000118315
0.000121143
0.000124925
0.00013753
0.000172938
0.000234322
0.000250475
0.000233501
0.000191212
0.000154502
0.000135394
0.000124514
0.000120683
0.00011851
0.00011708
0.000117165
0.000117599
0.000117553
0.000118402
0.00012094
0.000124336
0.000134082
0.000161555
0.000219681
0.000253682
0.000245344
0.00020931
0.000167683
0.000142286
0.000129619
0.000122076
0.0001197
0.000117688
0.000116879
0.000117298
0.000117682
0.000117587
0.000118503
0.000120841
0.000123989
0.000131852
0.000153394
0.000202966
0.000252296
0.000252628
0.000226739
0.000183708
0.0001512
0.000134847
0.000125329
0.0001207
0.000118755
0.000117149
0.000116891
0.000117461
0.000117839
0.000117606
0.000118629
0.000120804
0.000123787
0.000130383
0.000147631
0.000187447
0.000246639
0.000259184
0.000242233
0.000200757
0.00016259
0.0001411
0.0001297
0.000122437
0.000119762
0.00011796
0.000116869
0.000117055
0.000117651
0.000118063
0.000117615
0.000118772
0.000120776
0.000123669
0.000129348
0.000143775
0.000175274
0.000233719
0.000263385
0.000254035
0.000218206
0.000176533
0.000148389
0.000134613
0.000125888
0.000120821
0.000118982
0.000117402
0.000116851
0.000117322
0.00011789
0.000118312
0.000117619
0.000118926
0.000120754
0.000123552
0.000128556
0.000140946
0.000165961
0.000218109
0.00026246
0.000261208
0.000234644
0.000192709
0.000158233
0.000139723
0.000129962
0.000123088
0.000119864
0.000118337
0.000117136
0.000117024
0.000117658
0.000118183
0.000118555
0.000117622
0.00011909
0.00012076
0.00012344
0.000127888
0.000138659
0.000159196
0.000202622
0.000258872
0.000267287
0.000249343
0.000209254
0.000170481
0.000146529
0.000134119
0.000126429
0.000121228
0.000119243
0.000117921
0.00011716
0.000117384
0.000118069
0.000118525
0.000118715
0.000117632
0.000119243
0.000120782
0.000123337
0.00012734
0.000136794
0.000154429
0.000189327
0.00024895
0.000273022
0.000261874
0.00022593
0.000184918
0.000154729
0.000139249
0.000130166
0.000123862
0.000120184
0.000118878
0.000117829
0.00011741
0.000117903
0.000118547
0.000118901
0.00011878
0.000117622
0.000119361
0.000120809
0.000123241
0.000126922
0.000135349
0.000150964
0.000178919
0.000233344
0.00027322
0.000269805
0.000241606
0.000201016
0.000165623
0.000145088
0.000134318
0.000127257
0.000122108
0.000119689
0.00011883
0.000118034
0.000117918
0.000118554
0.000119082
0.000119221
0.000118765
0.000117571
0.000119437
0.000120837
0.000123159
0.0001266
0.000134254
0.00014828
0.000171221
0.000218191
0.000270854
0.000275765
0.000255874
0.00021713
0.000178661
0.000152833
0.000139179
0.000130859
0.000125201
0.000121105
0.000119637
0.000119137
0.000118631
0.000118643
0.000119262
0.000119628
0.000119454
0.000118671
0.000117527
0.000119479
0.000120893
0.000123097
0.000126344
0.000133355
0.000146067
0.000165658
0.000204415
0.00026439
0.000282591
0.000269307
0.000233332
0.000193238
0.000162173
0.000145081
0.000135257
0.000128581
0.000123942
0.000120806
0.000119979
0.000119842
0.00011972
0.000119701
0.000119919
0.000119944
0.000119402
0.00011846
0.000117469
0.000119492
0.000120957
0.000123032
0.000126126
0.000132514
0.000144212
0.000161548
0.00019322
0.000250216
0.000285346
0.000278728
0.000248645
0.000209294
0.000173803
0.000152122
0.000140337
0.000132669
0.000127323
0.0001235
0.00012121
0.000120755
0.000120997
0.000121186
0.000121224
0.000120914
0.000120193
0.000118947
0.000117935
0.00011742
0.000119486
0.000120989
0.000122889
0.000125891
0.000131721
0.00014267
0.000158377
0.000184515
0.000235392
0.000283558
0.000285547
0.000262821
0.000225052
0.000187604
0.000160895
0.000146536
0.000137509
0.000131354
0.000127191
0.000124069
0.00012229
0.000122119
0.000122468
0.000122789
0.000122741
0.000121993
0.000120614
0.000118643
0.000117164
0.000117356
0.000119459
0.000120993
0.000122671
0.000125599
0.000130965
0.000141257
0.000155906
0.000177935
0.000221558
0.000280327
0.000293141
0.000276785
0.000240998
0.000202193
0.000171551
0.000153714
0.000143518
0.000136404
0.000131585
0.00012819
0.000125648
0.000124355
0.000124303
0.000124442
0.0001243
0.000123808
0.000122607
0.000120781
0.000118509
0.000116496
0.000117106
0.00011941
0.000120967
0.000122439
0.000125278
0.000130237
0.000139909
0.000153887
0.000173044
0.000209415
0.000271415
0.000299038
0.000288299
0.000256527
0.00021829
0.000183658
0.000162338
0.000150399
0.000142815
0.000137273
0.000133333
0.000130731
0.000128808
0.000127619
0.000127388
0.000127044
0.000126206
0.000124674
0.000122521
0.000120444
0.000118439
0.000116437
0.000116845
0.00011934
0.000120886
0.000122208
0.000124948
0.000129555
0.000138662
0.000152187
0.000169431
0.000199602
0.000256218
0.000300064
0.000297006
0.000270779
0.000234209
0.000197858
0.000172209
0.000158524
0.000150404
0.000144586
0.000140451
0.000137485
0.000135529
0.000133875
0.000132362
0.000131611
0.000130795
0.000128784
0.000125649
0.000122404
0.000119906
0.000118501
0.000117176
0.000117136
0.000119249
0.000120759
0.000121955
0.000124622
0.000128945
0.000137556
0.000150635
0.000166712
0.00019182
0.000242416
0.000297863
0.000305695
0.000285177
0.00024956
0.000212585
0.000183579
0.000167823
0.000159235
0.000153765
0.000150047
0.000147333
0.000145089
0.00014303
0.000135318
0.000125762
0.000120638
0.000120313
0.000123483
0.000126837
0.000122473
0.000119759
0.000119047
0.00011817
0.000117273
0.000117727
0.000119132
0.000120595
0.000121683
0.000124289
0.000128387
0.000136624
0.000149163
0.000164605
0.000185742
0.000229453
0.00029405
0.000314323
0.000298819
0.0002653
0.000227778
0.000195809
0.000177962
0.000169307
0.000164802
0.000162628
0.00016147
0.000160515
0.000146648
0.000127625
0.000115248
0.000108819
0.000105917
0.000106604
0.000109261
0.000112112
0.000122478
0.000120556
0.000120557
0.000118259
0.000119774
0.000117429
0.000117813
0.000118999
0.000120414
0.000121433
0.000123945
0.000127857
0.000135775
0.000147781
0.000162845
0.000181069
0.000217919
0.000283749
0.000319494
0.000310011
0.000280119
0.000243633
0.000208792
0.000188751
0.000179812
0.000177356
0.000178215
0.0001805
0.000181199
0.000150684
0.000125826
0.000109921
0.00010139
9.6899e-05
9.54078e-05
9.76225e-05
9.94982e-05
0.000103043
0.000112387
0.000121575
0.000122682
0.000121214
0.000122789
0.000122311
0.000118773
0.000120393
0.000117453
0.000117929
0.000118861
0.000120212
0.000121191
0.000123613
0.000127344
0.000134937
0.000146514
0.000161287
0.000177566
0.000208388
0.000267586
0.000320003
0.000320479
0.000294509
0.000258608
0.000222675
0.000199605
0.000190465
0.00019036
0.000196012
0.000203631
0.000208235
0.000195777
0.000156541
0.000121831
0.000100331
8.9268e-05
8.52549e-05
8.34123e-05
8.3736e-05
8.46352e-05
8.56563e-05
0.000112702
9.57366e-05
0.000111266
0.000121505
0.000104625
0.000113442
0.000119148
0.000120356
0.000117437
0.000118027
0.000118729
0.000119999
0.000120934
0.00012328
0.000126847
0.000134145
0.000145365
0.000159751
0.000174907
0.000200473
0.00025367
0.000317522
0.000331268
0.000309666
0.000273449
0.000236565
0.00021054
0.000200642
0.000202862
0.000214391
0.00022886
0.000235904
0.000232975
0.000224071
0.000211172
0.000140682
9.9155e-05
8.31576e-05
7.85837e-05
7.56708e-05
7.34536e-05
7.1801e-05
7.98101e-05
7.14154e-05
9.43811e-05
8.53711e-05
9.35771e-05
0.00011446
9.96448e-05
0.000100584
0.000119094
0.00011394
0.000117428
0.000117956
0.000118604
0.000119793
0.00012069
0.000122931
0.000126374
0.000133406
0.000144329
0.000158163
0.000172819
0.00019424
0.000240546
0.000313043
0.000340268
0.000323776
0.000288993
0.000250896
0.00022126
0.000209983
0.000213994
0.000231405
0.000255092
0.000271885
0.000271918
0.000257708
0.000229151
0.000208495
0.000179298
0.000103501
8.13302e-05
7.6233e-05
7.17444e-05
7.06965e-05
6.70535e-05
6.48431e-05
7.31941e-05
6.95724e-05
8.1773e-05
7.40773e-05
8.75228e-05
0.000100778
8.85963e-05
8.94914e-05
0.000112444
0.000100889
0.000117407
0.000116334
0.000118465
0.000119588
0.000120501
0.000122593
0.000125936
0.000132725
0.000143349
0.000156596
0.000170942
0.000189256
0.000228641
0.00030117
0.000344998
0.000336211
0.000304063
0.000265739
0.000231919
0.000218648
0.000222698
0.000245274
0.000279407
0.000315489
0.000344895
0.000363786
0.000341379
0.000276734
0.000211847
0.000190637
0.00010408
7.86456e-05
7.30806e-05
6.90301e-05
6.75603e-05
6.71302e-05
6.37051e-05
6.43808e-05
6.75098e-05
6.50488e-05
7.6423e-05
6.98065e-05
7.83408e-05
9.03568e-05
7.92893e-05
8.06533e-05
0.000101353
9.1281e-05
0.000117367
0.000114408
0.000118296
0.000119387
0.000120373
0.000122308
0.000125533
0.000132079
0.000142429
0.00015513
0.000169033
0.000185435
0.000218682
0.000283689
0.00034492
0.000348375
0.000319233
0.000279969
0.000242975
0.000226384
0.000229279
0.00025433
0.000297424
0.000352659
0.000419125
0.000465923
0.000465085
0.000423357
0.000332937
0.000222676
0.000186907
9.84844e-05
7.57081e-05
6.99462e-05
6.99259e-05
7.11083e-05
6.25152e-05
6.78647e-05
6.17602e-05
6.41246e-05
6.40589e-05
6.2393e-05
7.02705e-05
6.51979e-05
7.11075e-05
8.21845e-05
7.17832e-05
7.30179e-05
9.40459e-05
8.40098e-05
0.000117303
0.000116808
0.00011808
0.000119159
0.00012027
0.000122102
0.000125214
0.000131457
0.000141622
0.000153744
0.000167109
0.000182508
0.000210451
0.000268522
0.000341724
0.000359946
0.000335288
0.000294408
0.000254777
0.000233135
0.000233522
0.00025907
0.000307401
0.000376721
0.000471988
0.000515973
0.00051619
0.000501755
0.000455023
0.000361943
0.000230313
0.00018062
9.21069e-05
7.15396e-05
7.27985e-05
8.71911e-05
7.51693e-05
9.81223e-05
7.24212e-05
0.000101723
6.85733e-05
9.51274e-05
6.52227e-05
8.06888e-05
6.61833e-05
7.00729e-05
6.7107e-05
7.43134e-05
6.78443e-05
6.87564e-05
8.93906e-05
7.63905e-05
0.000117191
0.000116048
0.000117818
0.000118897
0.000120154
0.000121928
0.000124995
0.000130964
0.000140915
0.000152523
0.00016529
0.000180154
0.000203678
0.000254734
0.000336431
0.0003686
0.000350475
0.000309985
0.000267558
0.00023944
0.000235823
0.000259024
0.000309562
0.000389203
0.000499992
0.000530748
0.000525779
0.000507325
0.00049263
0.000450074
0.000358987
0.000227173
0.000172767
9.52871e-05
9.59567e-05
0.000119682
0.000107442
0.000117617
0.000104541
0.000111834
0.00010425
0.000113283
0.000104452
0.00011139
9.95002e-05
0.000107513
7.57999e-05
0.000102415
8.03029e-05
6.8493e-05
8.16753e-05
7.87651e-05
8.34823e-05
6.77733e-05
0.000117089
0.000115336
0.000117514
0.000118592
0.000119991
0.000121736
0.000124845
0.000130664
0.000140342
0.00015159
0.000163676
0.000178229
0.000198189
0.00024215
0.00032337
0.000372369
0.000363438
0.000325908
0.000281226
0.000245682
0.000237501
0.000256361
0.000306519
0.000389132
0.00051211
0.000539665
0.00051215
0.000482771
0.000486383
0.000479533
0.000430042
0.000340545
0.000220286
0.000155274
0.000135706
0.000143538
0.000121749
0.000145628
0.00014009
0.00017326
0.000145037
0.000197375
0.000136929
0.000201052
0.000124439
0.000178448
0.000113322
0.000140914
0.000100746
0.000116777
9.89795e-05
7.30753e-05
9.62718e-05
9.27259e-05
6.98534e-05
6.24772e-05
0.000108979
7.80037e-05
0.000117211
0.000118278
0.0001198
0.000121553
0.000124729
0.000130515
0.000139985
0.000150974
0.000162392
0.000176634
0.000193983
0.000231319
0.000304908
0.000371173
0.000375375
0.000341738
0.000295288
0.000253586
0.000239287
0.000251115
0.000296029
0.000379669
0.000515317
0.000546511
0.000502498
0.000436298
0.000461245
0.000482051
0.000465869
0.000397075
0.000307603
0.000211168
0.000166735
0.000120222
0.000157351
0.000187597
0.000215671
0.000262161
0.000261014
0.000327642
0.00028068
0.000367186
0.00027169
0.000369252
0.000231885
0.000341099
0.000160763
0.000283915
0.000119255
0.000184956
0.000118448
9.02284e-05
0.000113371
0.000104672
5.38487e-05
8.9879e-05
4.22342e-05
3.88752e-05
0.000117061
0.000118047
0.000119626
0.00012144
0.000124678
0.000130512
0.000139823
0.000150649
0.000161437
0.000175286
0.000191129
0.000222539
0.000287788
0.000367423
0.000386504
0.000358142
0.00030976
0.000263945
0.000241012
0.000245774
0.000283008
0.000359309
0.000507434
0.000555268
0.000508321
0.0004054
0.000417301
0.000465663
0.000490908
0.000440318
0.000353059
0.000293028
0.000255456
0.000209251
0.00025849
0.000308786
0.000358308
0.000399497
0.000463498
0.000448542
0.000515987
0.00045755
0.000524375
0.00043856
0.000508631
0.000394777
0.000477664
0.000321349
0.000425285
0.000198595
0.000339192
0.000196575
9.76829e-05
0.000176966
0.000147511
5.08112e-05
8.80965e-05
1.98976e-05
2.37675e-05
0.000117623
0.000118226
0.000119641
0.00012151
0.000124755
0.000130741
0.000139858
0.00015053
0.000160811
0.000174198
0.000189232
0.000215701
0.000272246
0.000361247
0.000394429
0.000374029
0.000325452
0.000275844
0.000243126
0.000241205
0.000269921
0.00033619
0.000473729
0.000566008
0.000533551
0.000400079
0.000384522
0.00044013
0.000506267
0.000492329
0.000400502
0.000333987
0.000340277
0.000478844
0.000524778
0.000403319
0.000449119
0.000518735
0.000563143
0.000566434
0.000601952
0.000568821
0.000598666
0.000553947
0.000582332
0.000530166
0.000562226
0.000494873
0.000534056
0.00043772
0.000496385
0.00034151
0.000436626
0.00033106
0.000123662
0.000305445
0.000267121
6.51692e-05
0.00010154
1.02657e-05
1.72141e-05
0.000120587
0.00012044
0.000120251
0.000121889
0.000125046
0.000131179
0.000140205
0.000150488
0.000160441
0.00017339
0.000187879
0.000210451
0.000259117
0.000346815
0.000396952
0.000386937
0.000342205
0.000288944
0.000246963
0.000238099
0.00025748
0.000312803
0.000425514
0.000572339
0.000565681
0.000425172
0.000368489
0.000418307
0.000515468
0.000546215
0.000474978
0.000387829
0.000410755
0.000546451
0.00058407
0.000640817
0.000656732
0.00059666
0.000623074
0.00062863
0.000646647
0.000619006
0.0006308
0.000599549
0.000609624
0.000578365
0.000585298
0.000553263
0.000563066
0.000526244
0.000539306
0.000490222
0.000514376
0.000428556
0.000479001
0.000414204
0.000214486
0.000393219
0.000367115
8.90289e-05
0.000150746
5.20338e-06
2.15042e-05
0.000130875
0.000131328
0.000122998
0.000122783
0.000125648
0.000131943
0.000140731
0.000150548
0.000160369
0.000172751
0.000186937
0.000206453
0.00024841
0.00032965
0.000394851
0.000396846
0.000358701
0.00030321
0.000254637
0.000236225
0.000246359
0.000291577
0.000384481
0.00056249
0.000595278
0.000504387
0.000370269
0.000395945
0.000517565
0.000597178
0.000559849
0.000479213
0.000496654
0.000606887
0.000629282
0.000669766
0.000677782
0.000678634
0.000684229
0.000659972
0.000671888
0.000639546
0.000643914
0.000612425
0.000612736
0.000588783
0.000591201
0.000571228
0.000581252
0.00055365
0.000574333
0.00053388
0.000557904
0.000506309
0.000532508
0.000469438
0.000496788
0.000457716
0.000328742
0.000444994
0.000432687
0.000114026
0.000277844
3.52971e-06
5.31026e-05
0.000141621
0.000151521
0.000133622
0.000125714
0.000126876
0.00013305
0.000141469
0.000150741
0.000160538
0.000172322
0.000186309
0.000203454
0.000239603
0.00031331
0.000391351
0.000405644
0.000374353
0.000318296
0.000264755
0.000235345
0.000237225
0.000272134
0.000350683
0.000516077
0.000617278
0.000584259
0.000391943
0.000370858
0.000505791
0.000636078
0.000641603
0.000578027
0.000580158
0.000683691
0.000689308
0.0006998
0.000687819
0.000687568
0.000648051
0.000646925
0.000647331
0.000648803
0.000613536
0.000613477
0.000593841
0.000597685
0.000596018
0.000612352
0.000601848
0.000637302
0.000597419
0.000654999
0.000574748
0.000642498
0.000536547
0.000599526
0.000492942
0.000539307
0.000486744
0.000418472
0.000480603
0.000476803
0.000215198
0.000409496
2.66037e-05
0.000187089
0.000153569
0.000155669
0.000134746
0.000129448
0.000134182
0.000142262
0.000151004
0.000160905
0.000172206
0.000185899
0.000201483
0.000232561
0.000297018
0.000385639
0.000413112
0.000389089
0.000333893
0.000276463
0.000236388
0.000230545
0.000254745
0.000320188
0.000458574
0.000619753
0.000638428
0.000486855
0.000357905
0.000461265
0.000644363
0.000716621
0.000666559
0.000654623
0.000700582
0.000680039
0.000683928
0.000687065
0.000686517
0.000645486
0.000644221
0.000613676
0.000613803
0.000613511
0.000613638
0.000603486
0.000609928
0.000628767
0.000650171
0.00068034
0.000720253
0.000716178
0.000764437
0.000716576
0.000763844
0.000680761
0.000736438
0.000619421
0.000687834
0.00053936
0.000626395
0.000532759
0.00047955
0.000522286
0.000512815
0.000380569
0.000477604
0.000342029
0.000422901
0.000158262
0.0001548
0.000134968
0.000135169
0.000142763
0.000151374
0.000161376
0.000172314
0.000185746
0.00020025
0.000227156
0.000282647
0.000373324
0.000416881
0.000401828
0.000349952
0.000289652
0.000239891
0.000226099
0.000239825
0.000292004
0.00040458
0.000596235
0.000669662
0.000601917
0.000363395
0.000391298
0.000620512
0.000765427
0.000753823
0.000718337
0.000716387
0.000665248
0.000643793
0.000643553
0.000642778
0.000642674
0.000614185
0.000616065
0.000630522
0.000637283
0.000617593
0.00062414
0.000673392
0.000696079
0.000758047
0.000787956
0.000795752
0.000814439
0.000793402
0.000811025
0.000773611
0.000786937
0.000732447
0.000742804
0.000680218
0.000667222
0.00061602
0.000628535
0.00059345
0.000503862
0.00055978
0.000517231
0.000523615
0.000361778
0.00047825
0.000484694
0.000381378
0.000350646
0.000162789
0.000147723
0.000138525
0.000143024
0.000151589
0.000161866
0.000172582
0.000185657
0.000199552
0.000222956
0.000271237
0.000359211
0.000416271
0.00041134
0.000366004
0.000303872
0.000248934
0.000223162
0.000227895
0.000267592
0.000359739
0.000543203
0.000676205
0.000676643
0.000427631
0.000340987
0.000526283
0.000768293
0.000830458
0.000773217
0.000741649
0.000678782
0.000655961
0.000673159
0.000632723
0.000643124
0.000619825
0.000625256
0.000645834
0.000656409
0.000753429
0.000769885
0.000717629
0.000736112
0.000812242
0.00083359
0.000832059
0.000847989
0.00081876
0.000819195
0.000783766
0.000746262
0.000740038
0.00067884
0.000657866
0.00064676
0.000587818
0.000564147
0.000571443
0.000496797
0.000607733
0.000588079
0.000499784
0.000486657
0.000489062
0.00051018
0.000533052
0.000470608
0.000469369
0.000498325
0.000330999
0.000457248
0.000471311
0.000468862
0.0003218
0.000310011
0.000307314
0.000307498
0.000165856
0.000142552
0.000142523
0.000151471
0.000162169
0.000172673
0.000185724
0.00019884
0.000220032
0.000262557
0.00034644
0.000413437
0.000418247
0.000381317
0.000318849
0.000259404
0.000222255
0.000219024
0.000246712
0.000322227
0.000480996
0.000663194
0.000715481
0.000569426
0.00032818
0.000409741
0.000725222
0.000865164
0.000840804
0.000771933
0.00070585
0.000686034
0.0007002
0.000740646
0.00075886
0.000701587
0.000720471
0.000669664
0.000684858
0.00078615
0.000802645
0.000879663
0.000890021
0.000850694
0.000866435
0.000863791
0.000878742
0.000813961
0.000811641
0.000700706
0.000659611
0.000609528
0.000569654
0.00056834
0.000529435
0.000612719
0.000564333
0.00053793
0.000508715
0.000526678
0.000449883
0.00052089
0.000493903
0.000508673
0.00046085
0.000529668
0.000451486
0.000480767
0.000485321
0.000512596
0.000482932
0.000513294
0.00047623
0.000462536
0.000472837
0.000482013
0.000432719
0.000449555
0.000456832
0.000197337
0.000464542
0.00032633
0.00042387
0.000427318
0.000159278
0.000144883
0.000149983
0.00016214
0.00017256
0.000185594
0.000198664
0.000217596
0.000256355
0.000334363
0.000410282
0.000424362
0.000395195
0.00033418
0.000271289
0.000224105
0.000212703
0.000229316
0.000288757
0.000419575
0.000615936
0.000727923
0.000678984
0.000356378
0.000323434
0.000558046
0.000854241
0.00089496
0.000816007
0.000740114
0.000766511
0.000776507
0.000801039
0.000880008
0.000887901
0.00085174
0.000867146
0.000819431
0.000835389
0.00090029
0.000911188
0.000919334
0.000932769
0.00089279
0.00090613
0.000813442
0.000820435
0.000632768
0.000619922
0.000541411
0.000517703
0.000500967
0.00047391
0.000491729
0.00047494
0.000458854
0.00044676
0.000497659
0.000478408
0.000459448
0.000450161
0.000461905
0.000470708
0.000450418
0.000474073
0.000456377
0.000454993
0.000443003
0.000436842
0.000448259
0.000514394
0.000483805
0.000520164
0.000455827
0.000445899
0.000438687
0.000474026
0.000434763
0.000421677
0.000456573
0.000437671
0.000329232
0.000400156
0.000417519
0.000421839
0.000154359
0.00014908
0.000161216
0.000172035
0.000185399
0.000198216
0.000216274
0.000251557
0.000323294
0.000405588
0.000430357
0.000407451
0.000349497
0.000284396
0.000229064
0.000208136
0.000215135
0.000259838
0.000367201
0.000558936
0.00072574
0.000740242
0.000481967
0.00029235
0.00041011
0.000756365
0.000900732
0.000880668
0.000790955
0.00080076
0.000891728
0.00088276
0.000893618
0.00089513
0.000966065
0.000968993
0.000947294
0.000958248
0.000922781
0.000934874
0.000946827
0.000961835
0.000826619
0.000851071
0.000815263
0.000812664
0.000620773
0.000633768
0.000500973
0.00048891
0.000451792
0.000435456
0.000439591
0.000433928
0.000431163
0.000427501
0.000442974
0.000431114
0.000425793
0.00042373
0.000452344
0.000433105
0.000419166
0.000427497
0.000454742
0.000430498
0.000413044
0.000434573
0.000424802
0.000421728
0.000406476
0.000409461
0.000416682
0.000516224
0.000491586
0.000526696
0.000442885
0.000416563
0.000420649
0.000465577
0.000435907
0.000421868
0.000466367
0.000407367
0.000218312
0.000258106
0.00041358
0.00033074
0.0001551
0.000158981
0.000171106
0.000184965
0.000198202
0.000215042
0.0002485
0.000313452
0.00039963
0.000435742
0.000418188
0.000364599
0.000298673
0.000239275
0.000205834
0.000204136
0.000234991
0.000323017
0.000498707
0.000690925
0.000764752
0.000629768
0.000302873
0.000306226
0.000537517
0.000856556
0.000900194
0.000866164
0.000833882
0.000907792
0.00095153
0.000946474
0.000967917
0.000963199
0.00101827
0.00101595
0.00100476
0.00101418
0.000976915
0.000991538
0.000866113
0.000890018
0.000603628
0.000618846
0.000619621
0.000597165
0.000484424
0.00048872
0.000426363
0.000424763
0.000424961
0.000420582
0.000417366
0.000414046
0.000423766
0.000424347
0.000424431
0.000423688
0.000412853
0.000411157
0.000412187
0.000414492
0.000412749
0.000402104
0.000398153
0.000429698
0.000421923
0.000396302
0.000383615
0.000399367
0.000394522
0.00039337
0.000381154
0.00041262
0.000391451
0.000505579
0.000501694
0.000526952
0.00043391
0.000395931
0.00040772
0.000457948
0.000445645
0.000426064
0.000478332
0.00033617
0.000194785
0.000270913
0.000415169
0.000297175
0.000160328
0.000169638
0.000183811
0.00019831
0.000214624
0.000246304
0.000305994
0.000393878
0.000440309
0.000428185
0.000379254
0.000314023
0.000250598
0.00020658
0.000196717
0.00021371
0.000283723
0.000437577
0.000637208
0.000769332
0.000725461
0.000377159
0.000263976
0.000388183
0.000673622
0.000886906
0.000894098
0.000874339
0.000908184
0.000939461
0.000931329
0.000979346
0.000961446
0.00100798
0.00099498
0.00101124
0.00101847
0.000959035
0.000980726
0.000912991
0.000934388
0.00064676
0.000682662
0.00042938
0.000448837
0.000500292
0.000434393
0.000431784
0.000438819
0.000406873
0.000404286
0.000422254
0.000420092
0.000417529
0.000413487
0.000417035
0.000418905
0.000419439
0.000419535
0.000398225
0.000400326
0.000403297
0.000406323
0.000388046
0.000385016
0.00038546
0.000412335
0.000389749
0.000375594
0.000364642
0.000373355
0.000396349
0.000373516
0.000384691
0.000405561
0.000375654
0.000490034
0.00050871
0.000523669
0.000425982
0.000385739
0.000401896
0.000450354
0.000455813
0.000432181
0.000487878
6.22664e-05
0.000226193
0.000270426
0.000427213
0.000268347
0.000169729
0.000183535
0.000197837
0.00021496
0.000244825
0.000301027
0.00038945
0.000444681
0.000437526
0.00039448
0.000329329
0.000265243
0.00020979
0.000192628
0.000196453
0.000247642
0.000379312
0.000580751
0.000763451
0.000778509
0.000528975
0.000259839
0.000288299
0.000485009
0.000750837
0.000894802
0.000898694
0.00090906
0.000927754
0.000940069
0.000934121
0.000975535
0.000957808
0.00100786
0.00099203
0.000868994
0.000922928
0.000788158
0.000825544
0.000718728
0.000754862
0.000487316
0.000533592
0.000330071
0.000350368
0.000399653
0.00033903
0.000402868
0.000395968
0.000412882
0.000413916
0.000417384
0.000415306
0.000418573
0.000416386
0.000413768
0.000412917
0.000409302
0.00041067
0.000411564
0.000411846
0.000387401
0.000389984
0.000392818
0.000395807
0.000372752
0.000372447
0.000373505
0.000383628
0.000365451
0.000360894
0.000349797
0.000354786
0.000400762
0.000378357
0.000397808
0.00037981
0.000377879
0.000475208
0.000507663
0.00049705
0.000423268
0.000388772
0.000407356
0.000443916
0.000464958
0.00044192
0.000489921
6.58723e-05
0.000228762
0.000298532
0.00037673
0.000271616
0.000181602
0.00019786
0.000215178
0.000245296
0.000297295
0.000386726
0.000448499
0.000449248
0.000408436
0.000346663
0.000280417
0.000220688
0.000191725
0.000183799
0.000217495
0.000328351
0.000527117
0.000727714
0.000801987
0.000658032
0.000293297
0.000238107
0.000353854
0.000553957
0.000774873
0.000901072
0.000913003
0.000917272
0.000918291
0.000919625
0.000927912
0.000920206
0.000952459
0.000938837
0.000981123
0.00096739
0.000763936
0.000827263
0.000665062
0.000711065
0.000580388
0.000626058
0.000394898
0.000443907
0.000245595
0.000271279
0.000305058
0.000246158
0.000416009
0.00039532
0.000328959
0.000413015
0.000416395
0.000422095
0.000420279
0.000411026
0.000409752
0.000409986
0.000410608
0.000398211
0.000399445
0.000401079
0.000401681
0.000375108
0.000377094
0.000379454
0.000382688
0.000359513
0.000359042
0.000359253
0.000359261
0.000346061
0.000346858
0.00033498
0.000339685
0.000377678
0.000397329
0.000377229
0.000355676
0.000399745
0.000460476
0.000504705
0.000469867
0.000429728
0.000405218
0.000417036
0.000442922
0.000470241
0.000430345
0.000488866
0.000112449
0.00027432
0.000275591
0.000333666
0.000329281
0.000196782
0.000215922
0.000246539
0.00029745
0.000385953
0.000455511
0.000460409
0.000425922
0.000362108
0.000298382
0.000231576
0.000192486
0.000178022
0.000199676
0.000292889
0.000481083
0.000684159
0.000807753
0.000744271
0.000392817
0.0002224
0.000264177
0.000406304
0.000574051
0.000770329
0.000873792
0.000898638
0.000899497
0.000903333
0.000901374
0.000912883
0.000907998
0.000926607
0.000918694
0.00090009
0.000935751
0.000692383
0.000756542
0.000584383
0.000635468
0.000494422
0.000538631
0.000314999
0.000367392
0.000169536
0.000196652
0.00024215
0.000183779
0.000420289
0.000395887
0.000326599
0.000265008
0.000412274
0.00041847
0.000426228
0.000423857
0.000402142
0.000402341
0.000403938
0.000407024
0.000384027
0.000386589
0.000388212
0.000390536
0.000360039
0.000361505
0.000363523
0.000366584
0.000344671
0.000343049
0.000342112
0.000338704
0.000330829
0.000330818
0.000317986
0.000324232
0.000354397
0.000379279
0.000355627
0.000333521
0.0003829
0.000447713
0.000465537
0.000441427
0.000438388
0.00038824
0.000397868
0.000445642
0.000445527
0.000370836
0.000437834
0.000200059
0.000406055
0.000233934
0.000356511
0.000434702
0.000215905
0.000248249
0.000298869
0.000386083
0.000460999
0.000478306
0.000440833
0.000382243
0.000311204
0.000253338
0.000194512
0.000170003
0.000192587
0.000280471
0.000455364
0.000647414
0.000808389
0.000798026
0.000520974
0.000235333
0.000211
0.000297468
0.000421172
0.000572141
0.000716447
0.00082363
0.000850721
0.000840814
0.000809994
0.000877232
0.000863756
0.000889791
0.000885086
0.000896479
0.000893306
0.000821621
0.000893519
0.000625445
0.000684315
0.000511839
0.000566239
0.000415362
0.000463555
0.00024007
0.00030127
0.00013945
0.000165534
0.000240989
0.000204752
0.00015862
0.000385419
0.000334395
0.000298781
0.000258778
0.000412351
0.000420166
0.000368157
0.000425991
0.00039265
0.000394642
0.0003974
0.000404851
0.00036841
0.000370751
0.000374504
0.000378342
0.000341772
0.000342434
0.000344378
0.000348405
0.000327191
0.000324156
0.000321823
0.000323281
0.00031502
0.000312084
0.000298208
0.000306513
0.000330755
0.000359448
0.000331727
0.000317731
0.000367689
0.000435497
0.00042516
0.000418953
0.000415322
0.000377907
0.000390186
0.000442754
0.000392475
0.000369582