/*--------------------------------*- C++ -*----------------------------------*\
  =========                 |
  \\      /  F ield         | OpenFOAM: The Open Source CFD Toolbox
   \\    /   O peration     | Website:  https://openfoam.org
    \\  /    A nd           | Version:  dev
     \\/     M anipulation  |
\*---------------------------------------------------------------------------*/
FoamFile
{
    version     2.0;
    format      ascii;
    class       volScalarField;
    location    "2500";
    object      CO2;
}
// * * * * * * * * * * * * * * * * * * * * * * * * * * * * * * * * * * * * * //

dimensions      [0 0 0 0 0 0 0];

internalField   nonuniform List<scalar> 
9834
(
7.41687e-31
2.65282e-30
1.35177e-30
8.95612e-30
9.25208e-30
1.40332e-30
1.76292e-29
2.54704e-29
7.58327e-30
5.60804e-31
5.92892e-29
7.12155e-29
3.06705e-29
7.18307e-30
4.42171e-31
1.18e-28
1.92201e-28
7.6931e-29
2.42504e-29
4.00586e-30
1.0539e-31
4.6034e-28
7.71446e-28
2.51849e-28
6.76957e-29
2.09692e-29
1.6421e-30
6.20135e-32
1.55246e-27
2.30931e-27
9.26437e-28
2.53394e-28
7.04281e-29
1.34142e-29
1.21081e-30
3.32393e-32
2.44169e-27
6.47941e-27
3.73519e-27
1.11886e-27
2.18444e-28
4.53905e-29
8.57502e-30
6.47696e-31
2.86031e-32
7.34854e-27
1.89048e-26
1.08695e-26
4.7545e-27
1.04366e-27
2.60355e-28
4.16534e-29
4.81333e-30
2.56082e-31
5.60301e-33
2.51761e-26
4.5564e-26
3.52661e-26
1.46744e-26
4.88588e-27
1.00945e-27
1.94741e-28
2.6386e-29
2.80349e-30
1.22568e-31
3.87458e-33
7.56563e-26
1.09644e-25
9.67108e-26
4.62819e-26
1.56266e-26
3.49387e-27
6.36512e-28
1.02096e-28
1.44253e-29
7.70427e-31
4.17066e-32
1.26998e-33
1.82131e-25
2.69222e-25
2.30216e-25
1.38502e-25
4.66592e-26
1.46287e-26
3.3469e-27
4.07157e-28
5.89153e-29
7.00462e-30
4.04571e-31
2.24436e-32
9.3679e-33
3.60682e-25
7.08661e-25
7.21964e-25
3.8851e-25
1.52499e-25
4.13322e-26
1.08334e-26
2.33912e-27
2.55903e-28
3.19021e-29
3.02356e-30
2.65915e-31
1.64313e-31
2.0434e-31
8.35752e-25
1.51309e-24
1.34498e-24
1.03966e-24
4.56452e-25
1.41475e-25
3.34151e-26
7.82417e-27
1.14319e-27
1.3296e-28
1.55949e-29
2.54072e-30
2.98443e-30
4.44944e-30
3.03308e-30
2.00915e-24
3.2987e-24
2.98677e-24
2.49511e-24
1.20682e-24
4.32998e-25
1.1142e-25
2.33401e-26
5.44923e-27
7.6188e-28
7.96971e-29
2.29828e-29
3.68648e-29
6.71214e-29
9.05035e-29
5.6303e-29
3.53372e-24
8.32627e-24
8.40064e-24
6.1706e-24
3.39228e-24
1.20272e-24
3.14201e-25
6.19336e-26
1.60611e-26
3.08701e-27
5.56793e-28
3.12135e-28
5.60355e-28
8.37806e-28
1.54265e-27
1.42115e-27
1.45896e-27
4.61899e-24
1.53544e-23
1.99546e-23
1.97048e-23
7.76852e-24
3.52089e-24
8.49026e-25
2.07187e-25
3.67088e-26
1.10442e-26
3.69969e-27
4.4831e-27
7.8126e-27
1.15573e-26
1.97186e-26
2.90167e-26
2.29239e-26
2.34179e-26
1.19267e-23
2.7208e-23
3.62253e-23
3.67697e-23
2.57202e-23
1.03143e-23
2.48179e-24
7.93851e-25
1.29371e-25
3.75948e-26
3.20474e-26
4.75088e-26
1.04068e-25
1.50759e-25
2.03596e-25
3.89115e-25
4.74948e-25
4.21489e-25
2.83959e-25
2.05085e-23
5.15648e-23
7.72026e-23
6.88253e-23
6.6585e-23
2.86083e-23
9.60359e-24
2.18672e-24
5.50092e-25
1.71634e-25
2.79153e-25
7.32938e-25
1.12678e-24
2.24006e-24
2.68079e-24
4.98715e-24
6.34532e-24
7.09694e-24
4.2019e-24
3.57887e-24
2.4134e-23
9.46246e-23
1.27084e-22
1.74591e-22
1.28152e-22
6.95792e-23
2.42896e-23
7.20117e-24
1.7973e-24
7.437e-25
2.00327e-24
7.36757e-24
1.69714e-23
2.42369e-23
4.00109e-23
5.87895e-23
8.20472e-23
9.48323e-23
9.15834e-23
5.5475e-23
4.02155e-23
3.87693e-23
1.56845e-22
2.53957e-22
3.13124e-22
2.4536e-22
1.26146e-22
6.33047e-23
1.85388e-23
5.56438e-24
5.14204e-24
1.38933e-23
6.15473e-23
1.74004e-22
3.8276e-22
5.05492e-22
7.43698e-22
9.56963e-22
1.26138e-21
1.87004e-21
1.3497e-21
5.98723e-22
4.39195e-22
5.90335e-23
2.51108e-22
3.94972e-22
5.79163e-22
5.39581e-22
2.85716e-22
1.46544e-22
4.53375e-23
2.38086e-23
4.87974e-23
1.05153e-22
4.07986e-22
1.57133e-21
3.8929e-21
7.17824e-21
9.37047e-21
1.51819e-20
1.68036e-20
2.46185e-20
1.91321e-20
1.26881e-20
6.83243e-21
4.50813e-21
5.75447e-23
3.05886e-22
7.18889e-22
9.58923e-22
9.76181e-22
7.2237e-22
2.91081e-22
1.38986e-22
1.08259e-22
3.51089e-22
9.79007e-22
2.92293e-21
1.17192e-20
3.72932e-20
6.55983e-20
1.04374e-19
1.9167e-19
2.57236e-19
2.81078e-19
2.65811e-19
1.34623e-19
1.24102e-19
7.14761e-20
2.35891e-20
4.12134e-23
3.21513e-22
9.07008e-22
1.71228e-21
1.64697e-21
1.63995e-21
8.3707e-22
3.46022e-22
3.49611e-22
1.80332e-21
8.11683e-21
2.18139e-20
8.43976e-20
2.80175e-19
7.63162e-19
1.32617e-18
1.72108e-18
2.70951e-18
2.98755e-18
3.19409e-18
1.96811e-18
1.78024e-18
7.95558e-19
4.97168e-19
2.27984e-19
2.33525e-23
2.51926e-22
9.77167e-22
2.12085e-21
3.43323e-21
2.98559e-21
1.54834e-21
7.88353e-22
1.51385e-21
7.67887e-21
4.49286e-20
2.00018e-19
6.35147e-19
1.98689e-18
5.67439e-18
1.43275e-17
2.21938e-17
2.368e-17
3.42872e-17
2.59258e-17
3.07413e-17
1.7262e-17
1.49276e-17
7.89365e-18
3.85626e-18
1.67402e-18
2.26307e-23
1.84192e-22
8.77138e-22
2.39691e-21
5.15316e-21
5.23192e-21
3.67079e-21
1.91244e-21
4.25185e-21
3.32935e-20
2.27256e-19
1.05703e-18
4.72947e-18
1.67476e-17
5.46306e-17
9.99526e-17
2.08212e-16
3.0353e-16
2.92349e-16
3.33514e-16
3.12739e-16
1.76961e-16
1.53127e-16
9.22843e-17
3.19329e-17
2.53084e-17
7.69273e-18
2.3163e-23
1.62151e-22
8.13754e-22
2.68467e-21
6.43873e-21
8.53306e-21
6.1468e-21
3.96696e-21
1.04529e-20
1.0224e-19
8.32279e-19
5.65855e-18
2.54757e-17
1.11375e-16
3.81169e-16
1.08422e-15
1.71464e-15
2.56199e-15
3.00083e-15
2.6608e-15
2.54745e-15
1.85739e-15
1.26458e-15
9.44366e-16
4.23341e-16
2.43664e-16
9.75916e-17
3.45919e-17
2.51241e-23
1.59729e-22
7.61501e-22
2.52886e-21
7.5699e-21
1.18541e-20
1.16028e-20
7.01343e-21
2.12703e-20
2.78984e-19
2.74989e-18
2.02695e-17
1.39809e-16
6.74711e-16
2.27955e-15
7.12845e-15
1.58396e-14
2.64577e-14
3.54194e-14
3.24173e-14
3.02014e-14
2.33033e-14
1.56989e-14
9.39839e-15
5.18616e-15
2.41408e-15
1.26007e-15
3.68029e-16
9.59582e-17
2.80293e-23
1.87015e-22
7.04715e-22
2.36018e-21
8.1047e-21
1.54943e-20
1.56993e-20
1.44869e-20
3.401e-20
5.95621e-19
7.46533e-18
7.50496e-17
5.67991e-16
3.2376e-15
1.56688e-14
5.61549e-14
1.48043e-13
2.81424e-13
4.06522e-13
3.90776e-13
3.68957e-13
2.97968e-13
2.02276e-13
1.19004e-13
6.20578e-14
2.91165e-14
1.26333e-14
4.97263e-15
1.61801e-15
2.98383e-16
3.22939e-23
1.82053e-22
7.26711e-22
2.24734e-21
7.37275e-21
1.69623e-20
2.54185e-20
2.30165e-20
4.36654e-20
9.63537e-19
1.81079e-17
2.28667e-16
1.86656e-15
1.48654e-14
9.14182e-14
3.99137e-13
1.22451e-12
2.67618e-12
4.40961e-12
4.59064e-12
4.42697e-12
3.67931e-12
2.54159e-12
1.47869e-12
7.60189e-13
3.55305e-13
1.53004e-13
6.06198e-14
2.17532e-14
5.92713e-15
6.37346e-16
8.29877e-23
1.97361e-22
7.77531e-22
2.25776e-21
6.71811e-21
1.68057e-20
3.20019e-20
3.44007e-20
5.64643e-20
1.2504e-18
2.97928e-17
5.07191e-16
6.02929e-15
5.67569e-14
4.39797e-13
2.43633e-12
8.90529e-12
2.23069e-11
4.05165e-11
5.13309e-11
5.06153e-11
4.36273e-11
3.04585e-11
1.7538e-11
8.69762e-12
3.94934e-12
1.68368e-12
6.7909e-13
2.57537e-13
8.22598e-14
1.83942e-14
1.05996e-15
5.06512e-22
5.70992e-22
9.49187e-22
2.32255e-21
6.39992e-21
1.58447e-20
3.58378e-20
4.69901e-20
6.67996e-20
1.34541e-18
3.99493e-17
8.69273e-16
1.50257e-14
1.82956e-13
1.71147e-12
1.21126e-11
5.52958e-11
1.6221e-10
3.29456e-10
5.25839e-10
5.38243e-10
4.9338e-10
3.50236e-10
1.96239e-10
9.28665e-11
3.98577e-11
1.64355e-11
6.61308e-12
2.59439e-12
9.00414e-13
2.48304e-13
3.31904e-14
7.4715e-16
2.85148e-21
2.52786e-21
2.017e-21
2.8947e-21
6.4673e-21
1.61994e-20
4.09291e-20
6.31021e-20
7.88241e-20
1.21717e-18
4.46973e-17
1.19366e-15
2.52704e-14
4.48266e-13
5.49776e-12
4.90004e-11
2.84845e-10
9.9027e-10
2.30866e-09
3.96909e-09
5.11342e-09
5.18099e-09
3.84087e-09
2.10612e-09
9.45154e-10
3.82503e-10
1.48147e-10
5.75751e-11
2.24783e-11
8.31697e-12
2.5813e-12
4.23382e-13
2.5423e-14
4.0877e-17
1.16568e-15
1.54255e-20
1.64809e-20
9.60479e-21
6.05813e-21
7.98024e-21
1.8581e-20
4.43072e-20
7.51512e-20
9.80803e-20
9.20825e-19
4.2137e-17
1.35615e-15
3.47731e-14
7.42823e-13
1.36571e-11
1.52375e-10
1.13247e-09
5.20092e-09
1.29389e-08
2.61452e-08
4.35697e-08
4.82524e-08
3.9626e-08
2.23779e-08
9.78806e-09
3.70416e-09
1.33279e-09
4.81078e-10
1.80666e-10
6.82532e-11
2.29204e-11
4.1507e-12
1.50698e-13
9.58123e-15
7.63385e-14
2.05616e-16
4.21002e-15
6.74928e-20
9.06805e-20
5.37499e-20
2.93731e-20
1.56839e-20
2.06896e-20
4.66281e-20
8.88266e-20
1.20802e-19
6.19968e-19
3.29234e-17
1.31256e-15
3.98832e-14
1.025e-12
2.22433e-11
3.50802e-10
3.20653e-09
2.01787e-08
6.14788e-08
1.26557e-07
2.54558e-07
3.74272e-07
3.69093e-07
2.35494e-07
1.05848e-07
3.78641e-08
1.23342e-08
4.06709e-09
1.41606e-09
5.23751e-10
1.84346e-10
3.8093e-11
1.21859e-12
3.8942e-12
5.25811e-13
3.25711e-12
3.9627e-12
4.42729e-14
4.38717e-13
9.8053e-16
2.25573e-14
3.0173e-19
4.46538e-19
3.11779e-19
1.45855e-19
6.04445e-20
3.33572e-20
5.14017e-20
1.0601e-19
1.51931e-19
4.38884e-19
2.03742e-17
1.04302e-15
3.88991e-14
1.16795e-12
2.92976e-11
5.30686e-10
6.78878e-09
5.21474e-08
2.08023e-07
5.02382e-07
1.21909e-06
2.21036e-06
2.72671e-06
2.14812e-06
1.10343e-06
4.01916e-07
1.1972e-07
3.49917e-08
1.10556e-08
3.85762e-09
1.39029e-09
3.34958e-10
1.40885e-11
5.60137e-11
1.72071e-11
4.02249e-12
2.60583e-11
3.31191e-11
2.98595e-13
3.36589e-12
6.19485e-15
1.55743e-13
2.04688e-18
2.16534e-18
1.86226e-18
9.90795e-19
3.33874e-19
1.23761e-19
7.75343e-20
1.23928e-19
1.67564e-19
3.25128e-19
1.24609e-17
6.75556e-16
3.13833e-14
1.12292e-12
3.18442e-11
6.64161e-10
9.76262e-09
9.6486e-08
4.44779e-07
1.44359e-06
4.42108e-06
9.46781e-06
1.4379e-05
1.41654e-05
8.88749e-06
3.72331e-06
1.16125e-06
3.09568e-07
8.54396e-08
2.71996e-08
9.68e-09
2.73398e-09
1.94664e-10
7.2903e-10
8.84896e-11
4.3838e-10
1.66172e-10
3.36451e-11
2.48295e-10
2.96454e-10
2.23233e-12
2.69446e-11
4.37153e-14
1.13971e-12
1.05936e-17
9.92229e-18
8.77229e-18
5.03782e-18
2.09309e-18
6.3401e-19
1.84228e-19
1.56719e-19
1.98155e-19
3.05161e-19
6.20032e-18
4.18668e-16
1.92273e-14
8.96451e-13
2.92932e-11
6.95368e-10
1.1722e-08
1.35148e-07
6.41968e-07
2.78618e-06
1.08867e-05
2.85987e-05
5.24887e-05
6.54106e-05
5.15391e-05
2.62738e-05
9.57622e-06
2.73384e-06
6.79475e-07
1.8354e-07
5.97414e-08
1.91032e-08
2.50855e-09
8.34753e-09
1.98389e-09
8.15424e-09
9.4367e-10
4.84736e-09
1.66487e-09
2.85392e-10
2.28144e-09
2.59838e-09
1.71413e-11
2.17627e-10
3.23711e-13
8.61288e-12
4.31138e-17
5.3957e-17
4.79027e-17
2.29171e-17
1.07787e-17
3.6149e-18
8.23866e-19
2.89229e-19
2.77982e-19
3.22854e-19
2.82675e-18
2.00377e-16
1.18694e-14
5.48682e-13
2.04604e-11
6.11345e-10
1.19104e-08
1.58745e-07
8.65597e-07
4.21612e-06
1.88071e-05
5.77233e-05
0.000124285
0.000189863
0.000200469
0.000136489
6.16717e-05
1.9556e-05
4.85821e-06
1.15468e-06
3.22611e-07
1.07311e-07
2.47835e-08
7.1238e-08
3.00203e-08
1.01994e-07
2.2297e-08
9.12288e-08
9.70581e-09
4.93291e-08
1.54998e-08
2.3725e-09
2.00021e-08
2.16319e-08
1.3332e-10
1.71719e-09
2.50901e-12
6.60211e-11
1.62886e-16
2.24769e-16
1.93028e-16
1.24935e-16
5.70001e-17
1.82975e-17
5.10972e-18
1.03855e-18
4.00239e-19
4.10149e-19
1.43773e-18
9.13004e-17
5.74131e-15
3.03395e-13
1.21485e-11
4.06197e-10
9.92162e-09
1.58471e-07
1.02352e-06
5.146e-06
2.55264e-05
8.64636e-05
0.000203433
0.000344692
0.000438462
0.000414924
0.000254084
9.7701e-05
2.71569e-05
6.21334e-06
1.49705e-06
4.70049e-07
1.84937e-07
4.61144e-07
3.12089e-07
9.04171e-07
3.36709e-07
1.13441e-06
2.24796e-07
8.96197e-07
9.01964e-08
4.48232e-07
1.33589e-07
1.87044e-08
1.6325e-07
1.67397e-07
1.01226e-09
1.2865e-08
1.98136e-11
4.9764e-10
9.27407e-16
1.25656e-15
8.46158e-16
5.20251e-16
2.50756e-16
7.68191e-17
2.64597e-17
5.20657e-18
9.46457e-19
6.48447e-19
9.05914e-19
4.20736e-17
2.71945e-15
1.46175e-13
6.60936e-12
2.40674e-10
6.44804e-09
1.25804e-07
1.08452e-06
5.38702e-06
2.9671e-05
0.000106643
0.000263917
0.000470811
0.000655132
0.000733978
0.000631044
0.000346123
0.000111276
2.69523e-05
6.14761e-06
1.70545e-06
1.00738e-06
2.28937e-06
2.34871e-06
5.65469e-06
3.3742e-06
9.13664e-06
3.18227e-06
9.90876e-06
1.97465e-06
7.2847e-06
7.5396e-07
3.55602e-06
1.04525e-06
1.37197e-07
1.21257e-06
1.1784e-06
7.28387e-09
9.00645e-08
1.48138e-10
3.49292e-09
3.13698e-15
5.32184e-15
4.00493e-15
2.09746e-15
1.07713e-15
4.92478e-16
1.28705e-16
2.67601e-17
4.60994e-18
1.28385e-18
1.01129e-18
1.69838e-17
1.22219e-15
7.35657e-14
3.55932e-12
1.28648e-10
3.84123e-09
8.00526e-08
9.14001e-07
4.99416e-06
3.03356e-05
0.000118016
0.000296788
0.000535055
0.000777397
0.000968884
0.0010069
0.000790016
0.0003655
9.91721e-05
2.29176e-05
5.5443e-06
3.71782e-06
6.26884e-06
1.23383e-05
2.61595e-05
2.24816e-05
5.07324e-05
2.7122e-05
6.71017e-05
2.33535e-05
6.55902e-05
1.40046e-05
4.60588e-05
5.4514e-06
2.27157e-05
7.03312e-06
9.19594e-07
7.69852e-06
7.09419e-06
4.80371e-08
5.76895e-07
9.61705e-10
2.13575e-08
2.03161e-14
3.24594e-14
2.27054e-14
1.12591e-14
4.9142e-15
1.88252e-15
6.38856e-16
1.17744e-16
2.38991e-17
4.3337e-18
1.56437e-18
7.38725e-18
4.7705e-16
3.24432e-14
1.60054e-12
6.2693e-11
2.06318e-09
4.84921e-08
6.78022e-07
3.93796e-06
2.77895e-05
0.000117463
0.00031745
0.000540147
0.000769626
0.00102433
0.00121941
0.00119327
0.000820115
0.000312324
7.30978e-05
1.61502e-05
1.05522e-05
1.54721e-05
4.13245e-05
6.69766e-05
0.000101856
0.000173329
0.000150782
0.000284904
0.000160777
0.000345408
0.000132146
0.000322188
7.80761e-05
0.000226615
3.2019e-05
0.000116237
3.86171e-05
5.34846e-06
4.00329e-05
3.52709e-05
2.82949e-07
3.28196e-06
4.77219e-09
1.08871e-07
1.4331e-13
2.25074e-13
1.40273e-13
7.00375e-14
3.16695e-14
1.04296e-14
2.75202e-15
5.65809e-16
8.86769e-17
1.89965e-17
3.33342e-18
4.11117e-18
1.88101e-16
1.15232e-14
6.82e-13
2.82632e-11
1.01571e-09
2.65785e-08
4.65743e-07
2.88523e-06
2.16024e-05
0.000107008
0.000308042
0.000494554
0.000659174
0.000937981
0.00123538
0.00141693
0.00123295
0.000719354
0.000209044
4.57504e-05
2.90125e-05
9.45663e-06
8.70157e-05
0.000119304
0.000259436
0.000355759
0.000451923
0.000633068
0.000589771
0.000861316
0.000629614
0.000985653
0.0005445
0.000974668
0.000339398
0.000799875
0.000151969
0.000455422
0.000172338
2.59846e-05
0.000170179
0.000145066
1.51652e-06
1.56702e-05
1.50822e-08
4.67241e-07
1.01507e-12
1.55737e-12
8.97488e-13
3.87918e-13
1.49445e-13
6.30365e-14
1.35621e-14
2.53074e-15
3.94459e-16
7.68746e-17
1.40233e-17
5.24126e-18
7.59693e-17
4.58077e-15
2.45271e-13
1.24504e-11
4.64067e-10
1.32347e-08
2.73292e-07
2.09969e-06
1.51261e-05
8.57203e-05
0.000280768
0.000442099
0.0005292
0.000701726
0.00107987
0.00144346
0.00150222
0.00111021
0.000507601
0.000116203
0.000143947
0.00014451
0.000220562
0.000447854
0.000543246
0.000810886
0.000978149
0.00113228
0.00138575
0.00135117
0.00170426
0.0014364
0.0018898
0.00135013
0.00190951
0.00105022
0.001711
0.000546249
0.00125875
0.000582128
0.000104925
0.000555783
0.000478293
6.83516e-06
6.12748e-05
4.22759e-08
1.83944e-06
6.92532e-12
1.07907e-11
6.11478e-12
2.53322e-12
9.12084e-13
3.8445e-13
8.54834e-14
1.63138e-14
1.85828e-15
2.67913e-16
4.94998e-17
1.17665e-17
3.60746e-17
1.76762e-15
1.05383e-13
5.15787e-12
1.96488e-10
6.18985e-09
1.37334e-07
1.56973e-06
9.79111e-06
6.36927e-05
0.000239456
0.000408486
0.000455524
0.000516677
0.000781544
0.00131934
0.00162936
0.00142461
0.000822862
0.000274102
0.000230349
0.000781359
0.000858332
0.0006258
0.000706725
0.00112585
0.00126314
0.00161336
0.00181623
0.00202913
0.00232052
0.0023241
0.00272434
0.0024645
0.00296876
0.00239144
0.00303166
0.00203797
0.00282
0.00140479
0.0023017
0.00146059
0.000353696
0.00140562
0.0012338
2.67029e-05
0.000209375
1.13256e-07
6.17184e-06
4.10731e-11
7.02714e-11
4.08134e-11
1.65335e-11
5.76868e-12
1.89184e-12
4.02935e-13
7.72306e-14
1.20992e-14
1.15982e-15
2.05452e-16
4.24057e-17
3.05267e-17
6.65882e-16
4.03595e-14
1.88995e-12
7.80958e-11
2.69127e-09
6.64872e-08
9.71092e-07
6.29148e-06
4.41429e-05
0.000190589
0.000383642
0.000420554
0.000401343
0.000553456
0.00105619
0.00164869
0.00164962
0.00112106
0.000496822
0.000359828
0.000940141
0.00100191
0.00156788
0.00164813
0.00137949
0.0014805
0.00199119
0.00215059
0.00257597
0.00279805
0.00307358
0.00338727
0.0034507
0.00384517
0.00363906
0.00411478
0.00359182
0.00419514
0.00320733
0.00404759
0.00247265
0.0035065
0.00253521
0.000934442
0.00247519
0.00228484
8.94191e-05
0.00058256
3.28043e-07
2.05543e-05
1.6514e-10
3.74495e-10
2.51246e-10
1.05871e-10
3.68612e-11
1.11328e-11
2.39814e-12
3.38143e-13
4.51789e-14
5.73699e-15
6.11809e-16
1.44953e-16
5.43014e-17
3.0134e-16
1.31629e-14
6.66927e-13
2.94987e-11
1.09665e-09
3.01007e-08
5.54756e-07
3.75006e-06
2.85174e-05
0.000141463
0.000356573
0.000405482
0.000346706
0.000399776
0.000796177
0.0015527
0.00180459
0.00141837
0.000781541
0.000584225
0.00113371
0.00109349
0.00172457
0.00180429
0.00249348
0.00257744
0.00228483
0.00239779
0.00298595
0.00315166
0.00364609
0.00385427
0.0041474
0.00434413
0.00439377
0.00454757
0.00450443
0.00463324
0.00452006
0.00468867
0.00436647
0.00471377
0.00368362
0.00455763
0.00373172
0.00192951
0.0036348
0.00342415
0.000285686
0.00142533
1.48078e-06
7.94051e-05
3.09457e-10
1.27242e-09
1.26062e-09
6.32532e-10
2.24879e-10
6.05059e-11
1.09483e-11
2.02005e-12
2.41105e-13
2.55038e-14
2.46782e-15
3.99389e-16
1.29506e-16
2.77041e-16
4.93951e-15
2.29468e-13
1.10813e-11
4.23599e-10
1.26616e-08
2.74097e-07
2.28901e-06
1.71709e-05
9.95204e-05
0.000312439
0.000400005
0.000341759
0.000309003
0.000557625
0.00130586
0.0018947
0.00171923
0.00110614
0.000854015
0.00173064
0.00187879
0.00209336
0.00265487
0.00272649
0.00349126
0.00356707
0.00328791
0.00340076
0.00401998
0.00415297
0.0044717
0.00456013
0.00462802
0.00467073
0.00468034
0.00467716
0.00471848
0.00466877
0.00478521
0.00471027
0.00483647
0.00481929
0.00468103
0.00493414
0.00474377
0.00310737
0.00471794
0.00455098
0.000799844
0.00268123
2.60286e-05
0.000431014
1.78706e-09
4.1789e-09
3.11753e-09
1.21614e-09
3.065e-10
5.67921e-11
1.17881e-11
1.30892e-12
1.33569e-13
1.19176e-14
1.02983e-15
3.20787e-16
4.68448e-16
3.14103e-15
8.2857e-14
3.93093e-12
1.55739e-10
5.06891e-09
1.19201e-07
1.52133e-06
9.54024e-06
6.5687e-05
0.000249052
0.000394812
0.000362042
0.000264417
0.000373859
0.000981912
0.00186584
0.00196989
0.00146799
0.00113523
0.0019198
0.00295952
0.00290798
0.00280253
0.00287608
0.00363424
0.00368567
0.00436745
0.00439876
0.004253
0.00432338
0.00461889
0.00465656
0.0046986
0.00471415
0.00465321
0.00460316
0.00454324
0.00436146
0.00448818
0.00414723
0.00460932
0.00414269
0.00484479
0.00443042
0.00503289
0.00487854
0.00513069
0.00433818
0.00521754
0.00527158
0.0021492
0.00420104
0.000809792
0.00293706
5.95903e-09
1.09424e-08
5.4969e-09
1.4289e-09
2.72956e-10
5.18301e-11
6.7599e-12
6.62884e-13
5.84636e-14
4.31494e-15
6.55867e-16
9.29544e-16
3.80942e-15
4.11757e-14
1.35379e-12
5.54809e-11
1.9314e-09
5.04247e-08
8.37201e-07
5.8433e-06
4.07291e-05
0.000182214
0.000383103
0.0003903
0.00026159
0.00026573
0.000647652
0.00161758
0.00210291
0.00185635
0.00144407
0.0020632
0.00342412
0.00380025
0.00390806
0.00373964
0.00378261
0.00441609
0.00441448
0.00469087
0.00468406
0.00468115
0.00469224
0.00471124
0.00470018
0.00453407
0.00445727
0.00417872
0.00401797
0.0038151
0.00355147
0.00361037
0.00321853
0.00374766
0.00311142
0.00426253
0.00337555
0.0049554
0.00418798
0.00510145
0.00533506
0.00527618
0.00537283
0.00546817
0.00482092
0.00515958
0.0054603
0.00289161
0.00542815
2.04979e-08
1.96641e-08
6.01325e-09
1.22547e-09
2.21792e-10
2.90976e-11
3.10161e-12
2.82746e-13
2.06032e-14
2.16541e-15
2.33636e-15
7.19844e-15
4.04557e-14
5.76427e-13
1.97248e-11
7.11106e-10
2.00906e-08
4.12478e-07
3.32397e-06
2.38143e-05
0.000126396
0.000348359
0.000408404
0.00030781
0.000220701
0.000391336
0.00116926
0.00208147
0.00217048
0.00181646
0.00214934
0.00339291
0.00421114
0.00408742
0.00433663
0.00428007
0.00440595
0.00438326
0.004669
0.0046389
0.0046165
0.0045688
0.00468364
0.00465488
0.00437418
0.00428744
0.00387481
0.00374318
0.00335849
0.0032142
0.00303285
0.0029671
0.00281461
0.00277893
0.00274712
0.00257689
0.00312947
0.00248289
0.00421561
0.00303408
0.00361386
0.00484514
0.00428255
0.0054604
0.00563726
0.0055612
0.00509119
0.00454843
0.00440566
0.00520693
0.00572654
0.00588562
0.00569076
0.00577959
0.00124682
0.00608824
0.00463636
0.00592419
5.34406e-08
2.28278e-08
5.08408e-09
8.00319e-10
1.13545e-10
1.34251e-11
1.30627e-12
1.00052e-13
7.54942e-15
7.02613e-15
1.86456e-14
6.69509e-14
4.66106e-13
8.14215e-12
2.60517e-10
7.74568e-09
1.7444e-07
1.86114e-06
1.29779e-05
8.24892e-05
0.000283749
0.000414751
0.000366717
0.000216659
0.000242509
0.000727922
0.00182177
0.00228939
0.00219551
0.0022536
0.00329284
0.00401095
0.00385135
0.00425631
0.00415425
0.00444403
0.00435298
0.00458733
0.00452253
0.00451028
0.00444162
0.00404049
0.00396896
0.00420092
0.00411801
0.0036142
0.0034827
0.00308694
0.00294388
0.00293603
0.00287745
0.00283438
0.00293136
0.00266189
0.00294737
0.00245538
0.00246885
0.00257053
0.00277152
0.00262068
0.0023594
0.00241204
0.00240305
0.00231286
0.00301293
0.0036922
0.00303611
0.00254222
0.00376803
0.00531945
0.00570893
0.00543836
0.00473208
0.00407927
0.00390569
0.00487984
0.00608476
0.00593897
0.00584162
0.000990777
0.00404444
0.00506102
0.0061398
0.00598751
8.00622e-08
1.9911e-08
3.33755e-09
4.53945e-10
5.48542e-11
5.71569e-12
4.70465e-13
3.37839e-14
1.27967e-14
6.33487e-14
1.68775e-13
6.50719e-13
5.69347e-12
1.07106e-10
2.98053e-09
7.12708e-08
1.07542e-06
7.0793e-06
5.08328e-05
0.000211031
0.000410235
0.00041137
0.000267944
0.000183773
0.000400743
0.00128115
0.00223922
0.00242627
0.00245567
0.00312334
0.0037628
0.00404611
0.00395824
0.00404132
0.00397364
0.00419982
0.00411772
0.00436383
0.00428241
0.00390383
0.00384935
0.00319879
0.00315922
0.00336305
0.00326649
0.00278459
0.00262139
0.0027782
0.00261811
0.00300407
0.00300646
0.0033578
0.0037487
0.00302836
0.00335924
0.00368374
0.004051
0.00258477
0.00286
0.00321298
0.00229801
0.00225204
0.00262302
0.00266578
0.00237364
0.00252195
0.00312123
0.00254576
0.00225813
0.00322555
0.00500964
0.00556984
0.00513795
0.00426495
0.00337174
0.0035491
0.0044362
0.00597569
0.00609901
0.00570578
0.00387356
0.00568316
0.00568427
0.00615527
0.00615608
8.07093e-08
1.39232e-08
1.84809e-09
2.19626e-10
2.38096e-11
2.1219e-12
1.61544e-13
3.28674e-14
1.40892e-13
4.69715e-13
1.54604e-12
6.89787e-12
7.12984e-11
1.28648e-09
2.94029e-08
5.36811e-07
4.31339e-06
2.95293e-05
0.00014783
0.000379714
0.000436662
0.000340729
0.000176449
0.000213142
0.000762088
0.00190702
0.002458
0.00263622
0.00303195
0.00354314
0.00378249
0.00370974
0.00390731
0.00385069
0.00373887
0.00373687
0.00375752
0.00374466
0.00380739
0.00377803
0.00315771
0.00318191
0.00239049
0.00242588
0.00248965
0.00240666
0.00239042
0.00211913
0.00289444
0.00266379
0.00398407
0.0039985
0.0043504
0.00466004
0.00485596
0.00503483
0.00361472
0.00403763
0.00445071
0.00482752
0.00297072
0.00340054
0.00387736
0.0022161
0.0023557
0.00306981
0.00314203
0.00268488
0.00224323
0.00261055
0.00224773
0.00219096
0.00270939
0.00458784
0.00528123
0.0047392
0.00374186
0.00284982
0.00302553
0.00393568
0.00585946
0.00602609
0.00545049
0.00396796
0.0061981
0.00564981
0.00617282
0.00628557
6.91489e-08
8.17285e-09
8.93897e-10
9.63845e-11
9.19425e-12
7.64683e-13
1.06339e-13
2.78132e-13
1.29053e-12
4.44032e-12
1.4732e-11
8.06487e-11
8.76183e-10
1.36511e-08
2.50901e-07
2.30638e-06
1.63051e-05
9.78714e-05
0.000313968
0.000445349
0.000402691
0.00022965
0.000140935
0.000379331
0.00130177
0.0023423
0.00268407
0.00300067
0.00338409
0.00360932
0.00370848
0.00368503
0.00373393
0.00372666
0.00352621
0.00358845
0.00337695
0.00345339
0.00323456
0.00330309
0.00252363
0.00267176
0.00176599
0.00188603
0.00186166
0.00175073
0.00233727
0.00195382
0.00379758
0.00334887
0.00509807
0.00512296
0.00506229
0.00493522
0.00514375
0.00538475
0.00554306
0.00562024
0.00436422
0.00482603
0.0052329
0.00556346
0.00356574
0.00410576
0.00464496
0.00233229
0.00267737
0.00369293
0.00377324
0.00317542
0.00217054
0.00227105
0.00215405
0.00229572
0.00232633
0.00411942
0.00491703
0.0043088
0.00322053
0.00242111
0.00256477
0.00343426
0.00566172
0.00590394
0.00514364
0.0025122
0.00622647
0.00478756
0.00614531
0.00629746
4.75503e-08
4.18682e-09
4.01351e-10
3.92343e-11
3.57203e-12
4.14514e-13
6.61762e-13
3.42647e-12
1.29956e-11
4.2739e-11
1.57318e-10
9.73627e-10
9.84385e-09
1.28148e-07
1.39887e-06
9.10356e-06
6.1983e-05
0.000240933
0.000441286
0.000445579
0.000307611
0.000129698
0.000169833
0.000721527
0.00188808
0.00262903
0.00297477
0.00329782
0.00352492
0.00366909
0.00364594
0.00367955
0.00367951
0.00363574
0.00366662
0.00343553
0.00353611
0.0031642
0.00331048
0.00283674
0.00300388
0.00210604
0.00235733
0.00134593
0.00152723
0.00153364
0.00134251
0.00271026
0.00199905
0.0047899
0.00418387
0.00562295
0.00554532
0.00540679
0.00523359
0.00580445
0.005951
0.00600357
0.00596848
0.00514171
0.00556797
0.00590413
0.00614018
0.00428573
0.0048684
0.00539569
0.00263819
0.00316632
0.00441366
0.004486
0.00380318
0.00225072
0.00215828
0.00219877
0.00257171
0.00216989
0.00365398
0.00453547
0.00388978
0.00275415
0.00220286
0.00226886
0.00298068
0.00542918
0.00575717
0.00483107
0.000348422
0.00602768
0.00313216
0.00609017
0.00625673
2.79827e-08
2.02217e-09
1.78095e-10
1.71167e-11
1.90466e-12
1.62053e-12
8.6846e-12
3.71564e-11
1.31582e-10
4.5082e-10
1.81859e-09
1.10663e-08
9.8467e-08
8.7087e-07
6.11538e-06
3.87179e-05
0.000176797
0.000414893
0.000468807
0.000376636
0.000177206
9.39518e-05
0.000313045
0.00118697
0.00234857
0.00289296
0.00321933
0.003465
0.00364945
0.0037095
0.00370576
0.00369578
0.00370895
0.00361227
0.003665
0.00339652
0.00351517
0.00306059
0.00324477
0.00260982
0.00284708
0.00180935
0.00211754
0.00101626
0.00116116
0.00135382
0.00106363
0.0032945
0.0022352
0.00506881
0.00480413
0.00413737
0.00453209
0.00584395
0.00567054
0.00548179
0.00528223
0.00627336
0.00630013
0.00623937
0.00607276
0.00583764
0.00617963
0.00641372
0.00653647
0.00503463
0.00559192
0.00605275
0.00311423
0.00378267
0.00514828
0.00520868
0.00450484
0.00248245
0.00216451
0.00238346
0.00302078
0.00213951
0.00322739
0.0041767
0.00351226
0.00239605
0.00213246
0.00214514
0.00259933
0.00519809
0.00562274
0.00454444
0.000267811
0.00570532
0.00292149
0.00605134
0.00621076
1.53924e-08
1.04286e-09
9.36993e-11
1.04518e-11
3.95625e-12
2.19475e-11
1.00622e-10
3.98118e-10
1.44107e-09
5.08697e-09
2.03874e-08
1.13074e-07
7.36264e-07
4.02144e-06
2.59592e-05
0.000129495
0.000361682
0.000476414
0.000430325
0.000253908
7.98492e-05
0.000114984
0.000570898
0.00156434
0.00257477
0.00306484
0.00336475
0.00356416
0.00366809
0.00361319
0.00372165
0.0037088
0.00370512
0.00372165
0.00360372
0.00366664
0.00328613
0.00341484
0.00292012
0.00312142
0.00241448
0.00268359
0.00144522
0.00175982
0.000682567
0.000733416
0.00123482
0.000783193
0.00370145
0.00313712
0.00229658
0.00492476
0.00469201
0.00407229
0.00442089
0.0058672
0.00563134
0.00537976
0.00514509
0.00655082
0.00648318
0.00629335
0.00604776
0.00640281
0.00663988
0.00676195
0.00677728
0.00573646
0.00622087
0.00658508
0.00371074
0.00447082
0.00583553
0.00588817
0.00521914
0.00288825
0.00229272
0.00272469
0.0035859
0.00220794
0.0028707
0.0038638
0.00319704
0.00219609
0.00213473
0.00210033
0.00233314
0.00500065
0.0055285
0.00431052
0.000626906
0.00563257
0.00431086
0.00604007
0.00620018
9.37152e-09
6.98403e-10
7.19969e-11
1.33769e-11
4.34683e-11
2.67419e-10
1.12454e-09
4.52092e-09
1.55939e-08
5.51735e-08
2.05291e-07
8.33527e-07
3.54299e-06
2.16102e-05
0.000101589
0.000310573
0.00047551
0.000466733
0.000320461
0.00010898
5.18162e-05
0.000207371
0.000777427
0.00170511
0.00264854
0.00313535
0.0033655
0.00337778
0.00355017
0.00342221
0.00363815
0.00361267
0.00362359
0.00364139
0.00351061
0.00357939
0.00297501
0.00311642
0.00258459
0.00279747
0.00206323
0.00233869
0.000951304
0.00121902
0.000388952
0.00035516
0.00115433
0.000574156
0.0036437
0.0031308
0.0024535
0.00187488
0.00461146
0.00440874
0.00386472
0.00417248
0.00573748
0.00540318
0.00508973
0.00482741
0.00671796
0.00652984
0.00626797
0.0059151
0.00682921
0.00695772
0.00698102
0.00693996
0.00634769
0.00673272
0.00699029
0.00438056
0.0051771
0.00643773
0.00648973
0.00589677
0.003412
0.00254686
0.00318634
0.00422594
0.00235535
0.00259719
0.00361293
0.00296143
0.00210983
0.00219699
0.00209929
0.0021978
0.00485645
0.00547283
0.00413643
0.00277723
0.00596638
0.00543702
0.00604084
0.00626203
7.44398e-09
6.56673e-10
8.1658e-11
8.2187e-11
5.70267e-10
3.06274e-09
1.29728e-08
4.69512e-08
1.64326e-07
5.13565e-07
1.32781e-06
4.1635e-06
2.11351e-05
9.19932e-05
0.000277422
0.000465619
0.000487509
0.000374039
0.000167609
3.97502e-05
6.16384e-05
0.00029694
0.000844047
0.00170166
0.0025142
0.00291443
0.00296022
0.0028481
0.00264415
0.00320336
0.00303495
0.00335273
0.00330348
0.00334572
0.00336409
0.00322283
0.00329745
0.00239456
0.00254611
0.00199227
0.00220835
0.00149137
0.00175105
0.000423827
0.000585874
0.000264201
0.000185645
0.00136657
0.000889105
0.000497188
0.00347253
0.00299289
0.00230001
0.00179217
0.00419548
0.00402284
0.00356548
0.00382713
0.00550274
0.00507629
0.00469576
0.00440426
0.00678011
0.00653217
0.0061983
0.00576919
0.00712901
0.00716126
0.0071362
0.0070158
0.0068492
0.00712604
0.00728201
0.00507497
0.00585395
0.00693677
0.00699412
0.00650347
0.00400497
0.00290069
0.00368412
0.00489415
0.00256987
0.0024283
0.00343471
0.0028218
0.00209332
0.0022964
0.00213573
0.00216113
0.00475934
0.00544896
0.00402348
0.000687442
0.00621505
0.00398329
0.00605573
0.00634504
7.56489e-09
7.82746e-10
1.87654e-10
1.07343e-09
6.42492e-09
3.41307e-08
1.31316e-07
4.65132e-07
1.25243e-06
3.14015e-06
7.73878e-06
2.46644e-05
9.26825e-05
0.000267912
0.000455799
0.000497411
0.000413229
0.000220973
5.00317e-05
2.18192e-05
8.91513e-05
0.000323452
0.00083106
0.00146689
0.00193559
0.00203314
0.00163619
0.00212107
0.00176185
0.00256225
0.00236946
0.00277196
0.00269355
0.00278917
0.00280111
0.00266109
0.00274228
0.0015829
0.00173355
0.00121076
0.00140608
0.000783311
0.000999418
0.000166723
0.000191132
0.000282713
0.000193676
0.00013717
0.00131737
0.00089686
0.000392446
0.000635605
0.00321537
0.00278416
0.0021167
0.00168603
0.00373546
0.00358899
0.00321381
0.00343135
0.00526445
0.00473816
0.00427684
0.00394313
0.00680507
0.00650946
0.00611777
0.00562761