/*--------------------------------*- C++ -*----------------------------------*\
  =========                 |
  \\      /  F ield         | OpenFOAM: The Open Source CFD Toolbox
   \\    /   O peration     | Website:  https://openfoam.org
    \\  /    A nd           | Version:  dev
     \\/     M anipulation  |
\*---------------------------------------------------------------------------*/
FoamFile
{
    version     2.0;
    format      ascii;
    class       volScalarField;
    location    "2500";
    object      G;
}
// * * * * * * * * * * * * * * * * * * * * * * * * * * * * * * * * * * * * * //

dimensions      [1 0 -3 0 0 0 0];

internalField   nonuniform List<scalar> 
9834
(
3935.11
3940.69
3942.1
3945.56
3947.69
3949.81
3949.73
3952.57
3955.42
3958.27
3953.21
3956.75
3960.31
3963.89
3967.48
3956
3960.22
3964.48
3968.78
3973.11
3977.46
3958.13
3963.01
3967.95
3972.94
3977.99
3983.09
3988.23
3959.6
3965.13
3970.72
3976.38
3982.14
3987.97
3993.87
3999.8
3960.44
3966.59
3972.81
3979.12
3985.55
3992.09
3998.73
4005.45
4012.22
3960.67
3967.41
3974.23
3981.17
3988.24
3995.46
4002.81
4010.3
4017.87
4025.51
3960.31
3967.61
3975.01
3982.54
3990.22
3998.08
4006.12
4014.33
4022.69
4031.16
4039.71
3959.39
3967.23
3975.17
3983.26
3991.52
3999.99
4008.67
4017.57
4026.67
4035.95
4045.36
4054.85
3957.93
3966.28
3974.73
3983.34
3992.15
4001.19
4010.47
4020.01
4029.81
4039.86
4050.1
4060.5
4071
3955.97
3964.79
3973.72
3982.82
3992.14
4001.71
4011.55
4021.7
4032.15
4042.9
4053.93
4065.2
4076.64
4088.19
3953.54
3962.79
3972.17
3981.73
3991.52
4001.57
4011.94
4022.64
4033.69
4045.09
4056.85
4068.92
4081.27
4093.82
4106.51
3950.66
3960.32
3970.11
3980.09
3990.3
4000.81
4011.65
4022.86
4034.46
4046.47
4058.88
4071.7
4084.89
4098.39
4112.12
4126
3947.36
3957.4
3967.57
3977.93
3988.54
3999.46
4010.72
4022.39
4034.48
4047.04
4060.06
4073.56
4087.5
4101.87
4116.6
4131.59
4146.76
3943.68
3954.06
3964.57
3975.29
3986.25
3997.54
4009.19
4021.26
4033.8
4046.84
4060.4
4074.51
4089.15
4104.3
4119.93
4135.97
4152.32
4168.87
3939.65
3950.34
3961.17
3972.19
3983.48
3995.09
4007.08
4019.52
4032.44
4045.91
4059.95
4074.59
4089.84
4105.7
4122.14
4139.13
4156.59
4174.4
4192.44
3935.3
3946.26
3957.37
3968.68
3980.25
3992.15
4004.44
4017.19
4030.45
4044.28
4058.73
4073.83
4089.62
4106.1
4123.27
4141.1
4159.54
4178.52
4197.92
4217.59
3930.65
3941.87
3953.22
3964.78
3976.6
3988.75
4001.3
4014.31
4027.86
4042
4056.79
4072.29
4088.53
4105.54
4123.34
4141.91
4161.23
4181.25
4201.89
4223
4244.44
3925.74
3937.18
3948.76
3960.53
3972.56
3984.93
3997.69
4010.93
4024.71
4039.11
4054.18
4070
4086.61
4104.07
4122.39
4141.6
4161.68
4182.61
4204.34
4226.78
4249.78
4273.15
3920.6
3932.23
3944
3955.96
3968.18
3980.72
3993.67
4007.08
4021.05
4035.64
4050.94
4067.01
4083.92
4101.73
4120.49
4140.22
4160.95
4182.65
4205.32
4228.91
4253.32
4278.4
4303.91
3915.25
3927.05
3938.98
3951.1
3963.47
3976.16
3989.25
4002.81
4016.92
4031.66
4047.12
4063.38
4080.51
4098.59
4117.68
4137.82
4159.07
4181.43
4204.9
4229.47
4255.09
4281.67
4309.04
4336.93
3909.72
3921.66
3933.72
3945.98
3958.48
3971.29
3984.49
3998.15
4012.36
4027.21
4042.77
4059.15
4076.43
4094.7
4114.03
4134.48
4156.13
4179.01
4203.13
4228.51
4255.14
4283
4311.98
4341.9
4372.54
3904.02
3916.08
3928.27
3940.63
3953.23
3966.14
3979.42
3993.15
4007.42
4022.32
4037.94
4054.38
4071.74
4090.12
4109.6
4130.27
4152.19
4175.45
4200.08
4226.11
4253.56
4282.46
4312.79
4344.45
4377.31
4411.04
3898.2
3910.35
3922.63
3935.08
3947.76
3960.73
3974.07
3987.84
4002.14
4017.06
4032.68
4049.13
4066.5
4084.91
4104.46
4125.24
4147.34
4170.84
4195.83
4222.35
4250.45
4280.17
4311.56
4344.63
4379.36
4415.56
4452.76
3892.25
3904.48
3916.84
3929.35
3942.09
3955.11
3968.48
3982.26
3996.56
4011.45
4027.05
4043.45
4060.77
4079.14
4098.66
4119.46
4141.64
4165.29
4190.48
4217.32
4245.88
4276.22
4308.42
4342.57
4378.78
4417
4456.96
4498.16
3886.21
3898.5
3910.91
3923.48
3936.25
3949.3
3962.67
3976.45
3990.72
4005.56
4021.08
4037.39
4054.61
4072.86
4092.29
4113.02
4135.16
4158.84
4184.14
4211.15
4239.98
4270.74
4303.52
4338.45
4375.73
4415.49
4457.64
4501.94
4547.78
3880.08
3892.42
3904.87
3917.47
3930.27
3943.32
3956.69
3970.44
3984.65
3999.42
4014.83
4031.01
4048.08
4066.16
4085.41
4105.97
4127.99
4151.59
4176.87
4203.95
4232.9
4263.86
4296.99
4332.43
4370.41
4411.22
4454.98
4501.67
4551.03
4602.31
3873.89
3886.26
3898.74
3911.36
3924.16
3937.21
3950.55
3964.26
3978.4
3993.07
4008.35
4024.37
4041.24
4059.1
4078.1
4098.41
4120.19
4143.6
4168.76
4195.78
4224.74
4255.76
4288.99
4324.67
4363.05
4404.47
4449.25
4497.59
4549.56
4604.87
4662.55
3867.65
3880.04
3892.53
3905.15
3917.95
3930.98
3944.28
3957.93
3971.99
3986.54
4001.68
4017.5
4034.14
4051.73
4070.43
4090.42
4111.87
4134.97
4159.88
4186.72
4215.59
4246.56
4279.76
4315.41
4353.87
4395.52
4440.77
4490.05
4543.71
4601.89
4664.26
4729.59
3861.36
3873.76
3886.26
3898.87
3911.66
3924.65
3937.91
3951.49
3965.45
3979.87
3994.84
4010.46
4026.85
4044.14
4062.49
4082.08
4103.11
4125.79
4150.32
4176.86
4205.51
4236.35
4269.42
4304.9
4343.13
4384.64
4429.9
4479.45
4533.93
4593.82
4659.39
4730.26
4804.79
3855.05
3867.44
3879.94
3892.54
3905.3
3918.25
3931.45
3944.95
3958.8
3973.08
3987.88
4003.28
4019.4
4036.36
4054.33
4073.47
4094.01
4116.16
4140.18
4166.27
4194.58
4225.18
4258.08
4293.33
4331.18
4372.18
4416.99
4466.25
4520.74
4581.27
4648.5
4723.1
4804.16
4867.22
4868.91
3848.72
3861.09
3873.57
3886.16
3898.89
3911.8
3924.93
3938.34
3952.08
3966.22
3980.83
3996
4011.84
4028.46
4046.01
4064.68
4084.66
4106.2
4129.57
4155.05
4182.87
4213.12
4245.77
4280.79
4318.23
4358.56
4402.49
4450.89
4504.69
4564.87
4632.52
4708.47
4794.45
4867.91
4864.11
4912.62
4914.08
3842.4
3854.73
3867.19
3879.75
3892.44
3905.3
3918.36
3931.68
3945.3
3959.29
3973.72
3988.66
4004.21
4020.48
4037.61
4055.77
4075.15
4096
4118.62
4143.33
4170.45
4200.18
4232.53
4267.33
4304.44
4344.08
4386.93
4433.94
4486.34
4545.32
4612.16
4688.29
4763.9
4752.99
4857.8
4799.06
4848.6
4912.46
4907.88
4961.15
4962.34
3836.08
3848.37
3860.79
3873.32
3885.96
3898.76
3911.75
3924.98
3938.49
3952.33
3966.57
3981.29
3996.55
4012.48
4029.18
4046.82
4065.58
4085.69
4107.47
4131.25
4157.46
4186.44
4218.34
4252.93
4289.84
4328.94
4370.7
4416.06
4466.42
4523.33
4588.3
4662.97
4740.77
4726.89
4787.28
4900.39
4836.99
4889.96
4960.11
4954.57
5013.16
5014.12
3829.77
3842.02
3854.4
3866.88
3879.48
3892.21
3905.13
3918.26
3931.64
3945.34
3959.4
3973.89
3988.89
4004.48
4020.77
4037.9
4056.04
4075.39
4096.25
4118.99
4144.07
4172.01
4203.17
4237.49
4274.38
4313.22
4354.07
4397.76
4445.73
4499.77
4561.82
4633.79
4711.99
4695.79
4773.49
4758.01
4823.45
4945.84
4876.9
4933.96
5011.19
5004.55
5069.09
5069.78
3823.49
3835.69
3848.02
3860.44
3872.98
3885.66
3898.49
3911.53
3924.8
3938.34
3952.22
3966.5
3981.23
3996.5
4012.4
4029.05
4046.58
4065.2
4085.15
4106.76
4130.54
4157.13
4187.15
4220.88
4257.82
4296.83
4337.22
4379.42
4424.91
4475.65
4533.82
4601.78
4678.82
4660.82
4741.26
4723.34
4807.88
4790.53
4861.57
4994.39
4919.18
4980.84
5066.07
5058.15
5129.36
5129.71
3817.23
3829.37
3841.65
3854.02
3866.5
3879.1
3891.86
3904.79
3917.95
3931.36
3945.06
3959.13
3973.6
3988.56
4004.09
4020.28
4037.25
4055.17
4074.24
4094.75
4117.17
4142.18
4170.64
4203.21
4239.81
4279.31
4320.03
4361.31
4404.45
4451.73
4505.5
4568.32
4642.31
4623.15
4704.44
4684.64
4771.78
4751.84
4844.06
4824.62
4901.83
5046.34
4964.04
5030.82
5125.15
5115.81
5194.5
5194.45
3811.01
3823.09
3835.31
3847.62
3860.03
3872.56
3885.23
3898.07
3911.11
3924.38
3937.93
3951.79
3966.03
3980.69
3995.86
4011.62
4028.05
4045.32
4063.58
4083.06
4104.16
4127.55
4154.15
4184.92
4220.42
4260.04
4301.73
4343.3
4384.71
4428.57
4477.77
4534.89
4603.96
4584.62
4664.16
4643.21
4730.87
4709
4803.62
4781.4
4882.16
4860.34
4944.38
5102.06
5011.71
5084.24
5188.9
5177.93
5265.11
5264.55
3804.83
3816.84
3829
3841.24
3853.58
3866.03
3878.62
3891.36
3904.29
3917.43
3930.82
3944.49
3958.5
3972.9
3987.74
4003.09
4019.04
4035.69
4053.2
4071.73
4091.62
4113.48
4138.15
4166.69
4200.14
4238.8
4281.29
4324.37
4365.58
4406.59
4451.25
4502.57
4565.64
4546.91
4622.13
4601.1
4686.45
4663.48
4758.14
4734.01
4836.82
4812.09
4922.24
4897.78
4989.45
5161.96
5062.5
5141.51
5257.82
5244.99
5341.94
5340.74
3798.68
3810.63
3822.72
3834.89
3847.16
3859.53
3872.03
3884.68
3897.49
3910.5
3923.74
3937.24
3951.04
3965.18
3979.72
3994.71
4010.21
4026.32
4043.13
4060.8
4079.59
4100.04
4122.98
4149.18
4179.89
4216.33
4258.21
4302.92
4345.91
4385.72
4426.32
4472.01
4528.78
4511.11
4580.41
4560.18
4640.45
4617.64
4709.25
4684.25
4786.39
4759.97
4871.55
4844.23
4964.54
4937.22
5037.34
5226.53
5116.82
5203.11
5332.61
5317.69
5425.86
5423.87
3792.58
3804.46
3816.48
3828.58
3840.77
3853.07
3865.48
3878.02
3890.73
3903.61
3916.71
3930.04
3943.64
3957.55
3971.81
3986.46
4001.57
4017.19
4033.4
4050.31
4068.11
4087.31
4108.7
4132.83
4160.55
4193.77
4233.5
4278.31
4323.73
4364.95
4402.94
4443.51
4494.17
4477.79
4540.59
4521.66
4595.3
4573.6
4659.39
4634.91
4733.18
4706.37
4816.23
4787.87
4908.31
4878.77
5009.45
4979.42
5088.6
5296.43
5175.34
5269.77
5414.06
5396.72
5517.8
5514.84
3786.53
3798.33
3810.29
3822.31
3834.43
3846.64
3858.96
3871.41
3884
3896.77
3909.72
3922.89
3936.3
3949.99
3964
3978.35
3993.09
4008.28
4023.97
4040.22
4057.19
4075.27
4095.31
4117.75
4142.82
4172.21
4208.49
4251.69
4298.21
4342.2
4380.43
4416.97
4462.12
4447.16
4503.51
4486.1
4552.64
4532.46
4611.02
4587.9
4679.8
4653.79
4759.33
4730.98
4849.02
4819.18
4948.44
4917.55
5057.98
5026.15
5144.44
5372.32
5239.31
5342.67
5503
5482.84
5618.81
5614.84
3780.52
3792.25
3804.14
3816.09
3828.13
3840.25
3852.48
3864.83
3877.32
3889.96
3902.78
3915.8
3929.04
3942.52
3956.29
3970.37
3984.79
3999.59
4014.81
4030.51
4046.76
4063.9
4082.74
4103.83
4126.86
4152.71
4184.46
4224.51
4270.47
4316.38
4356.92
4392.14
4428.41
4469.51
4453.65
4513.12
4494.61
4565.64
4544.27
4628.54
4604.16
4703.1
4675.81
4789.53
4760.14
4886.94
4856.57
4994.45
4963.71
5112.34
5080.73
5207.35
5455.39
5311.4
5424.78
5600.62
5577.41
5730.16
5725.15
3774.57
3786.23
3798.04
3809.92
3821.87
3833.91
3846.05
3858.3
3870.68
3883.21
3895.89
3908.76
3921.84
3935.14
3948.69
3962.51
3976.64
3991.09
4005.91
4021.12
4036.77
4053.11
4070.86
4090.83
4112.39
4135.54
4162.74
4198.05
4241.85
4288.33
4331.08
4367.41
4401.28
4444.67
4429.36
4477
4460.39
4523.81
4504.22
4580.67
4558.07
4649.21
4623.37
4730.99
4702.13
4826.1
4795.43
4933.27
4902.35
5050.43
5020.67
5176.63
5147.92
5282.1
5548.58
5397.07
5522
5708.3
5682.78
5853.12
5846.9
3768.66
3780.25
3791.99
3803.79
3815.67
3827.63
3839.67
3851.83
3864.1
3876.5
3889.06
3901.79
3914.71
3927.83
3941.18
3954.77
3968.63
3982.78
3997.24
4012.02
4027.17
4042.83
4059.61
4078.52
4099
4120.31
4143.88
4173.71
4213.49
4259.13
4303.3
4341.43
4374.89
4414.98
4400.51
4451.41
4435.44
4485.61
4468.06
4536.38
4515.56
4598.35
4574.19
4673.71
4645.88
4764.48
4733.31
4870.62
4837.74
4990.31
4958
5119.79
5090.69
5256.04
5231.19
5374.59
5657.38
5503.35
5642.07
5827.44
5803.15
5989.38
5981.51
3762.81
3774.33
3786
3797.73
3809.52
3821.39
3833.35
3845.4
3857.57
3869.86
3882.29
3894.88
3907.65
3920.6
3933.77
3947.15
3960.77
3974.64
3988.78
4003.2
4017.91
4033.01
4048.94
4066.79
4086.41
4106.51
4127.46
4152.44
4186.59
4229.8
4274.31
4313.98
4348.17
4386.67
4372.56
4420.14
4405.16
4459.39
4442.47
4495.78
4477.11
4550.94
4528.6
4618.79
4592.55
4702.2
4671.5
4803.7
4768.85
4923.37
4886.4
5058.86
5022.89
5204.76
5174.04
5354.32
5332.65
5489.11
5790.06
5634.98
5791.24
5961.4
5947.64
6141.48
6130.88
3757.08
3768.45
3780.05
3791.71
3803.43
3815.21
3827.08
3839.04
3851.1
3863.27
3875.59
3888.04
3900.66
3913.46
3926.44
3939.63
3953.04
3966.66
3980.52
3994.61
4008.95
4023.58
4038.81
4055.61
4074.42
4093.75
4112.98
4134.21
4162.38
4201.27
4244.84
4285.49
4320.52
4352.98
4390.54
4375.85
4426.24
4410.49
4468.45
4450.42
4507.38
4487.38
4567.29
4543.06
4641.5
4612.47
4733.75
4699
4847.32
4807.02
4982.72
4939.14
5137.42
5094.41
5304.92
5268.41
5474.08
5451.59
5628.94
5956.73
5796.57
5976.37
6118.22
6131.41
6314.9
6304.67
3762.71
3774.16
3785.75
3797.39
3809.1
3820.87
3832.73
3844.69
3856.75
3868.94
3881.27
3893.75
3906.39
3919.21
3932.22
3945.42
3958.83
3972.43
3986.24
4000.26
4014.5
4029.14
4045
4062.95
4081.72
4099.97
4118.63
4141.53
4174.51
4215.62
4256.58
4292.27
4324.6
4365.22
4350.31
4395.06
4379.93
4433.17
4416.5
4478.23
4458.98
4520.1
4498.54
4584.59
4558.03
4665.11
4632.47
4766.42
4726.41
4892.94
4845.5
5045.82
4993.14
5223.09
5169.44
5417.54
5370.81
5614.6
5585.15
5794.01
6168.84
5990.31
6202.51
6320.04
6375.83
6560.59
6560.69
3768.41
3779.85
3791.42
3803.04
3814.73
3826.49
3838.34
3850.3
3862.37
3874.57
3886.91
3899.4
3912.07
3924.91
3937.92
3951.12
3964.51
3978.07
3991.8
4005.71
4019.9
4034.94
4051.95
4070.23
4088.04
4105.14
4124.1
4150.6
4187.53
4227.63
4264.03
4296.19
4329.38
4368.96
4353.57
4400.25
4384.39
4440.64
4423
4488.04
4467.56
4533.07
4509.8
4601.37
4572.15
4687.73
4650.83
4798.1
4751.86
4937.92
4882.02
5109.41
5045.58
5312.12
5244.42
5539.42
5476.81
5773.42
5729.45
5982.05
6439.46
6215.98
6407.41
6402.51
6632.21
6614.01
6643.31
7025.37
7034.96
3774.09
3785.5
3797.04
3808.64
3820.31
3832.07
3843.91
3855.86
3867.93
3880.14
3892.5
3905.01
3917.68
3930.53
3943.54
3956.73
3970.07
3983.56
3997.19
4011.01
4025.41
4041.44
4059.17
4076.8
4093.14
4109.62
4130.46
4161.5
4199.21
4235.98
4268.27
4300.39
4341.91
4326.46
4373.15
4357.37
4405.87
4389.25
4448.14
4429.55
4496.98
4475.39
4545.07
4520.11
4616.12
4584.09
4707.7
4666.1
4826.89
4773.8
4980.29
4915.45
5171.47
5096.09
5401.05
5318.86
5665.48
5583.62
5947.83
5825.61
5861.13
6148.38
6128.67
6543.36
6676.77
6691.21
6408.88
6395.87
6255.8
6549.53
6965.15
6985.09
6800.55
6833.4
7557.01
7204.93
7439.2
7445.28
3779.73
3791.11
3802.63
3814.21
3825.86
3837.59
3849.43
3861.38
3873.45
3885.66
3898.03
3910.55
3923.23
3936.08
3949.08
3962.22
3975.51
3988.91
4002.44
4016.33
4031.45
4048.5
4065.96
4082.18
4097.32
4114.17
4138.56
4172.34
4208.25
4241.08
4272.27
4311.82
4297.32
4345.3
4329.75
4377.52
4361.22
4411.58
4394.25
4455.01
4435.57
4504.31
4481.87
4554.97
4528.52
4627.63
4592.88
4723.75
4677.27
4852.27
4792.07
5020.13
4945.78
5232.5
5144.98
5490.81
5446.2
5398.53
5351.39
5783.55
5739.78
5537.76
5640.24
5689.86
5939.62
6101.5
6066.76
5898.7
6232.76
6701.35
6857.2
6867.61
6543.44
6524.2
6373.19
6699.34
7225.33
7015.17
7037.71
7940.41
7946.88
7703.97
7462.57
7720.59
3785.34
3796.68
3808.17
3819.72
3831.35
3843.07
3854.9
3866.84
3878.91
3891.13
3903.5
3916.03
3928.71
3941.55
3954.52
3967.62
3980.83
3994.12
4007.62
4021.98
4038.23
4055.45
4071.84
4086.48
4101
4119.72
4147.87
4181.53
4214.49
4245.3
4277.15
4314.72
4300.02
4348.71
4332.94
4381.76
4364.99
4416.92
4399.02
4460.75
4440.69
4509.51
4486.6
4561.96
4534.39
4635.07
4597.84
4735.95
4684.47
4874.26
4806.84
5058.06
4973.71
5302.46
5254.35
5205.09
5156.62
5488.97
5438.29
5386.86
5852.05
5801.91
5586.83
5693.36
5748.35
6022.62
6199.11
6156.43
5973.89
6340.75
6867.31
7050.43
7050.55
6684.17
6493.04
6655.88
6854.81
7242.24
7473.14
7251.72
8282.8
8314.54
7990.78
7729.51
8010.12
3790.9
3802.21
3813.66
3825.19
3836.79
3848.5
3860.31
3872.24
3884.32
3896.54
3908.92
3921.45
3934.14
3946.96
3959.89
3972.92
3986.02
3999.23
4013
4028.37
4045.23
4061.78
4076.58
4090.02
4104.93
4126.71
4156.75
4188.69
4219.39
4250.08
4288.42
4274.4
4317.67
4302.82
4351.88
4335.89
4385.57
4368.43
4421.58
4403.26
4465.1
4444.74
4512.3
4489.36
4565.52
4537.35
4638.53
4598.88
4744.59
4688.16
4893.36
4818.51
5108.19
5060.8
5014.42
4969.39
5334.86
5282.84
5230.4
5178.29
5533.15
5478.48
5423.02
5921.56
5866.19
5636.34
5748.47
5808.17
6106.03
6298.85
6248.53
6051.12
6451.28
7038.33
7251.12
7238.34
6829.12
6615.32
6790.61
7014.01
7477.01
7728.55
7472.14
8778.58
8333.9
8760.52
8008.45
8327.83
3796.41
3807.68
3819.1
3830.6
3842.18
3853.86
3865.66
3877.59
3889.67
3901.9
3914.29
3926.83
3939.5
3952.28
3965.16
3978.09
3991.1
4004.43
4018.99
4035.32
4051.9
4067.14
4080.39
4093.28
4109.78
4134.5
4164.33
4194.45
4224.34
4255.01
4290.86
4276.72
4320.41
4305.41
4354.55
4338.38
4388.72
4371.31
4425.36
4406.74
4467.87
4447.49
4512.5
4489.96
4565.5
4537.24
4638.53
4596.48
4749.96
4688.53
4926.03
4883.83
4844.26
4805.95
5126.69
5076.09
5026.78
4979.19
5367.25
5311.32
5255.15
5199.29
5578.29
5519.34
5459.58
5993.33
5932.89
5686.99
5805.44
5870.11
6191.94
6400.88
6343.68
6131.4
6564.42
7213.2
7456.62
7429.64
6977.15
6740.6
6928.46
7176.28
7717.87
7992.55
7697.02
9257.77
8717.33
9196.92
8303.73
8668.12
3801.87
3813.1
3824.49
3835.95
3847.5
3859.16
3870.95
3882.89
3894.97
3907.22
3919.61
3932.14
3944.79
3957.53
3970.32
3983.17
3996.2
4010.08
4025.74
4042.2
4057.84
4071.49
4083.68
4096.89
4115.75
4141.96
4170.74
4199.78
4229.21
4265.22
4252.01
4293.03
4278.89
4322.76
4307.65
4356.52
4340.27
4390.94
4373.39
4427.99
4409.15
4468.81
4448.62
4509.94
4488.14
4562.15
4534.04
4635.22
4590.91
4752.42
4686.86
4933.4
4889.45
4848.02
4809.02
5144.16
5090.2
5037.82
4987.51
5399.58
5339.44
5279.16
5219.32
5624.28
5560.65
5496.18
6068.04
6002.33
5738.81
5863.97
5934.28
6281.35
6506.21
6442.7
6215.1
6681.36
7391.16
7665.4
7623.37
7128.03
6869.49
7069.45
7341.45
7964.96
8266.71
7926.41
9583.14
9102.06
9547.72
8613.12
9015.49
3807.27
3818.46
3829.81
3841.24
3852.76
3864.41
3876.19
3888.13
3900.23
3912.48
3924.87
3937.39
3950.01
3962.68
3975.4
3988.22
4001.61
4016.53
4032.71
4048.59
4062.85
4075.13
4086.94
4101.38
4122.28
4148.62
4176.5
4204.83
4233.47
4266.99
4253.69
4294.81
4280.68
4324.58
4309.44
4357.65
4341.42
4392.01
4374.5
4429.11
4410.22
4467.62
4447.83
4504.83
4483.92
4555.95
4528.18
4630.15
4583.24
4771.59
4734.46
4668.7
4701.28
4939.33
4893.46
4850.36
4809.87
5160.42
5102.93
5047.36
4994.23
5431.55
5366.88
5302.22
5238.19
5670.91
5602.1
5532.5
6145.97
6074.4
5791.49
5923.57
6000.32
6374.57
6616.17
6546.37
6302.47
6803.14
7571.37
7877.75
7820.16
7282.08
7002.82
7214.59
7509.53
8218.95
8551.12
8161.21
9855.53
9457.49
9841.51
8931.51
9357.86
3812.62
3823.76
3835.07
3846.47
3857.97
3869.6
3881.37
3893.31
3905.42
3917.68
3930.08
3942.59
3955.15
3967.75
3980.43
3993.48
4007.73
4023.48
4039.4
4054.19
4066.99
4078.57
4090.74
4106.81
4128.82
4154.78
4181.91
4209.39
4242.45
4230.32
4268.39
4255.18
4296.11
4282.03
4325.77
4310.68
4357.84
4341.75
4391.83
4374.52
4428.52
4409.82
4464.22
4445
4498.02
4477.93
4547.74
4520.54
4640.34
4612.88
4575.54
4770.44
4733.56
4666.89
4699.24
4943.69
4895.92
4851.29
4809.58
5175.36
5114.24
5055.38
4999.4
5462.89
5393.44
5324.21
5255.88
5717.81
5643.34
5568.24
6227.06
6148.82
5844.61
5983.81
6067.75
6472.2
6731.34
6655.05
6393.67
6930.18
7754.45
8094.87
8021.58
7439.69
7141.44
7364.54
7681.32
8481.09
8844.86
8403.1
10176.8
9788.9
10182.1
9255.72
9698.48
3817.91
3829.01
3840.27
3851.62
3863.09
3874.71
3886.49
3898.44
3910.56
3922.84
3935.24
3947.72
3960.23
3972.79
3985.61
3999.34
4014.54
4030.33
4045.45
4058.9
4070.78
4082.3
4095.51
4112.95
4135.36
4160.69
4186.96
4213.46
4243.93
4231.93
4269.44
4256.44
4296.83
4282.89
4326.25
4311.29
4357.02
4341.19
4390.36
4373.41
4426.16
4407.92
4458.99
4440.43
4490.54
4471.06
4539.53
4512.39
4637.34
4610.11
4583.26
4560.37
4768.43
4731.46
4664.42
4696.85
4946.45
4896.76
4850.76
4808.1
5189.04
5124.21
5062.01
5003.09
5493.4
5419.01
5345.13
5272.44
5764.64
5684.08
5603.21
6311.1
6225.1
5897.88
6044.38
6136.09
6574.28
6852.05
6768.85
6488.39
7062.67
7942.27
8318.52
8229.16
7602.04
7284.83
7519.39
7858.14
8752.88
9148.5
8654.51
10674.9
10149
10659.8
9588.1
10059.1
3823.14
3834.18
3845.39
3856.7
3868.14
3879.75
3891.53
3903.51
3915.66
3927.97
3940.37
3952.81
3965.27
3977.92
3991.28
4005.95
4021.45
4036.7
4050.66
4063.03
4074.69
4086.79
4101.24
4119.68
4142.04
4166.52
4191.84
4222.07
4211.33
4245.24
4233.45
4270.18
4257.48
4297.01
4283.34
4325.92
4311.21
4355.24
4339.79
4387.68
4371.2
4422.26
4404.68
4452.68
4434.8
4483.33
4464.09
4543.02
4526.44
4504.74
4634.6
4607.45
4579.81
4557.83
4765.34
4728.34
4661.44
4693.78
4947.67
4896.08
4848.76
4805.36
5201.54
5132.99
5067.42
5005.52
5522.98
5443.56
5365
5287.94
5811.18
5724.16
5637.3
6397.61
6302.84
5951.14
6105.03
6205.02
6680.43
6978
6887.38
6586.1
7199.69
8136.31
8551.25
8445.3
7770.22
7432.74
7679.5
8040.86
9035.78
9465.07
8917.51
11212
10577.4
11173.2
9938.01
10457.4
3828.29
3839.27
3850.42
3861.68
3873.1
3884.71
3896.52
3908.54
3920.73
3933.06
3945.47
3957.88
3970.4
3983.48
3997.68
4012.81
4027.99
4042.28
4055.14
4067.15
4079.12
4092.18
4107.83
4126.99
4149.01
4172.58
4197.07
4223.96
4213.62
4246.42
4234.95
4270.68
4258.33
4296.75
4283.48
4324.89
4310.55
4352.69
4337.76
4384.07
4368.13
4417.38
4400.49
4445.99
4428.67
4483.76
4473.37
4457.23
4539.39
4523.18
4493.78
4507.09
4631.62
4604.43
4576.8
4555.19
4761.16
4724.23
4657.88
4689.91
4947.59
4894.03
4845.42
4801.36
5212.97
5140.72
5071.8
5006.93
5551.58
5467.09
5383.81
5302.36
5857.35
5763.48
5670.44
6486.05
6381.58
6004.08
6165.52
6274.29
6790.29
7108.32
7009.45
6686.38
7340.83
8338.25
8795.65
8672.95
7943.89
7584.98
7844.48
8230.74
9333.48
9799.33
9195.94
11626
11040.8
11606.3
10314.4
10883.4
3833.35
3844.26
3855.34
3866.57
3877.98
3889.6
3901.46
3913.54
3925.8
3938.17
3950.58
3963.03
3975.88
3989.7
4004.43
4019.4
4033.81
4047.05
4059.41
4071.58
4084.23
4098.39
4115.18
4134.74
4156.34
4179.2
4206.12
4197.4
4225.78
4215.69
4247.49
4236.4
4270.96
4259.01
4296.16
4283.34
4323.35
4309.48
4349.71
4335.34
4379.95
4364.59
4411.97
4395.75
4439.41
4422.62
4480.19
4469.83
4457.24
4447.78
4536.65
4520.6
4491.1
4503.71
4628.3
4601.28
4573.71
4552.51
4755.85
4719.13
4653.65
4685.2
4946.47
4890.91
4840.92
4796.16
5223.42
5147.53
5075.3
5007.52
5579.14
5489.53
5401.5
5315.77
5902.76
5801.85
5702.58
6575.95
6460.95
6056.3
6225.65
6343.69
6902.5
7241.79
7133.43
6787.77
7485.26
8550.81
9055.5
8915.32
8123.54
7741.41
8014.87
8429.98
9650.44
10156.6
9494.78
12011.6
11483.9
12005
10716.5
11315.6
3838.32
3849.14
3860.16
3871.35
3882.77
3894.44
3906.38
3918.56
3930.91
3943.33
3955.77
3968.48
3981.96
3996.29
4010.98
4025.35
4038.8
4051.44
4063.84
4076.48
4089.99
4105.27
4122.88
4142.6
4163.83
4186.04
4208.86
4200.21
4227.68
4218.01
4248.52
4237.87
4271.1
4259.6
4295.36
4283.01
4321.48
4308.16
4346.41
4332.66
4375.44
4360.67
4406.43
4390.71
4432.82
4416.63
4477.03
4466.7
4453.57
4444.13
4534.04
4517.83
4488.26
4500.83
4624.5
4597.8
4570.41
4549.68
4749.5
4713.07
4648.67
4679.62
4944.55
4886.93
4835.44
4789.91
5232.95
5153.53
5078.11
5007.46
5605.63
5510.78
5418.06
5328.11
5947.11
5839.19
5733.76
6666.14
6540.18
6107.57
6284.7
6412.55
7015.39
7377.36
7258.63
6888.77
7632.77
8777.19
9335.77
9177.18
8311.01
7902.53
8191.63
8641.99
9990.4
10540.8
9818.34
12368.1
11904.8
12368.7
11138.1
11748.2
3843.17
3853.9
3864.86
3876.03
3887.49
3899.26
3911.35
3923.66
3936.09
3948.57
3961.23
3974.42
3988.38
4002.74
4016.94
4030.47
4043.29
4055.86
4068.57
4081.83
4096.26
4112.44
4130.51
4150.15
4170.79
4191.59
4211.26
4202.7
4229.58
4220.21
4249.56
4239.36
4271.18
4260.17
4294.44
4282.61
4319.43
4306.7
4342.95
4329.83
4370.79
4356.6
4400.81
4385.52
4432.33
4423.93
4408.25
4415.97
4473.88
4463.38
4450.21
4440.95
4531.37
4515.1
4485.29
4497.92
4620.14
4593.95
4566.8
4546.51
4742.23
4706.13
4642.96
4673.2
4942.02
4882.29
4829.13
4782.74
5241.51
5158.71
5080.25
5006.86
5631
5530.75
5433.29
5339.18
5990.32
5875.44
5763.68
6755.53
6618.45
6157.49
6342.1
6480.12
7128.57
7514.79
7384.42
6989.22
7783.14
9022.36
9642.54
9467.11
8509.23
8068.24
8376.6
8872.17
10359
10953.2
10172.6
12705.4
12304.2
12708
11577
12183.2
3847.89
3858.52
3869.42
3880.62
3892.19
3904.16
3916.43
3928.88
3941.4
3954.04
3967.05
3980.66
3994.66
4008.64
4022.12
4035.03
4047.7
4060.45
4073.6
4087.53
4102.73
4119.45
4137.62
4156.81
4176.41
4198.68
4204.86
4191.16
4213.27
4231.11
4222.01
4250.39
4240.56
4271.13
4260.57
4293.38
4282.06
4317.23
4305.09
4339.24
4326.76
4365.87
4352.27
4394.92
4380.08
4429.09
4420.77
4404.81
4412.72
4470.64
4460.07
4446.9
4437.73
4528.35
4512.16
4482.16
4494.82
4615.18
4589.69
4562.66
4542.82
4734.17
4698.37
4636.55
4666.05
4939.11
4877.39
4822.47
4774.93
5248.95
5163
5081.75
5005.88
5654.83
5549.02
5446.77
5348.59
6032.17
5910.05
5791.43
6843.76
6695.1
6205.7
6397.51
6545.73
7241.08
7653.01
7509.33
7088.11
7935.88
9295.99
9982.95
9793.49
8724.13
8239.72
8575.62
9129.4
10762.2
11394.2
10565
13040.5
12692.7
13061.5
12035.4
12634
3852.46
3862.97
3873.86
3885.19
3897.02
3909.24
3921.7
3934.26
3946.9
3959.8
3973.11
3986.75
4000.44
4013.8
4026.73
4039.43
4052.19
4065.23
4078.84
4093.35
4109.04
4125.96
4143.89
4162.39
4180.9
4206.7
4200.47
4192.93
4214.95
4232.31
4223.48
4250.89
4241.44
4270.76
4260.66
4292.01
4281.21
4314.77
4303.2
4335.13
4323.29
4360.52
4347.51
4393.99
4386.77
4374.26
4425.87
4417.55
4401.63
4409.48
4467.33
4456.74
4443.62
4434.52
4524.91
4508.94
4478.85
4491.46
4609.5
4584.81
4557.9
4538.51
4725.51
4689.83
4629.6
4658.26
4936.03
4872.57
4816.01
4767.07
5254.93
5166.15
5082.54
5004.57
5676.19
5564.82
5457.82
5355.65
6072.1
5942.17
5816.04
6929.36
6768.51
6251.62
6450.29
6608.37
7351.93
7791.3
7632.45
7184.34
8092.25
9606.37
10363.7
10160.7
8964.29
8421.32
8795.74
9420.88
11200.6
11865.1
10997.5
13483.2
13121.2
13553.8
12524.7
13137.7
3856.83
3867.25
3878.26
3889.91
3902.09
3914.57
3927.16
3939.81
3952.62
3965.68
3979
3992.37
4005.56
4018.43
4031.13
4043.85
4056.78
4070.13
4084.15
4099.06
4114.98
4131.82
4149.31
4167.04
4184.58
4208.29
4202
4194.57
4216.35
4233.21
4224.65
4251.11
4242.03
4270.1
4260.46
4290.3
4280.04
4311.92
4300.93
4330.52
4319.35
4354.6
4342.22
4390.78
4383.4
4366.29
4372.93
4422.65
4414.3
4398.38
4406.22
4463.89
4453.36
4440.37
4431.32
4520.99
4505.38
4475.31
4487.75
4603.28
4579.35
4552.6
4533.64
4717
4681.02
4622.17
4649.96
4932.88
4867.92
4809.96
4759.63
5258.75
5167.42
5081.82
5002.3
5694.12
5577.03
5465.21
5358.97
6109.26
5970.51
5836.41
7011.09
6837.99
6294.04
6495
6667.77
7459.18
7929.88
7752.89
7276.85
8254.87
9955.78
10785.8
10567
9233.42
8617.49
9038.36
9746.97
11675.3
12373.7
11469.6
14402.3
13698.8
14427.9
13068.7
13747.1
3860.97
3871.44
3882.83
3894.96
3907.47
3920.1
3932.76
3945.5
3958.36
3971.39
3984.44
3997.42
4010.19
4022.83
4035.49
4048.3
4061.42
4075.05
4089.37
4104.49
4120.42
4137.01
4153.97
4170.95
4187.59
4196.04
4209.64
4203.32
4217.49
4233.85
4225.56
4251.06
4242.34
4269.19
4260.01
4288.3
4278.61
4308.63
4298.3
4325.37
4314.96
4348.05
4362.89
4336.32
4387.46
4380.09
4369.61
4419.4
4411.03
4395.07
4402.92
4460.32
4449.97
4437.09
4428.08
4516.6
4501.41
4471.53
4483.68
4596.68
4573.5
4546.63
4528.2
4709.29
4672.66
4614.42
4641.73
4929.34
4863.36
4804.53
4753.11
5258.84
5165.21
5078.16
4997.71
5707.46
5584.49
5467.73
5357.27
6142.14
5988.17
5844.31
7085.33
6896.64
6326.79
6559.46
6720.47
7558.35
8070.88
7875.36
7362.9
8421.45
10341
11248.4
11011.9
9529.24
8828.79
9297.49
10104.2
12191.1
12935.6
11983.7
15834.9
14495.9
15567.8
13692.4
14487.4
3864.89
3875.78
3887.8
3900.37
3913.08
3925.77
3938.44
3951.13
3963.88
3976.67
3989.42
4002.04
4014.59
4027.15
4039.84
4052.76
4066.06
4079.9
4094.39
4109.56
4125.36
4141.58
4157.98
4174.23
4192.83
4197.36
4198.54
4186.31
4210.79
4204.5
4218.42
4234.25
4226.25
4250.78
4242.42
4268.04
4259.32
4286.05
4276.94
4305
4295.39
4319.7
4310.2
4345.31
4355.64
4339.71
4359.36
4329.71
4384.02
4376.66
4366.03
4416.07
4407.68
4391.65
4399.54
4456.62
4446.55
4433.64
4424.71
4511.75
4497.02
4467.48
4479.23
4589.57
4567.03
4540.11
4522.18
4702.51
4664.97
4606.34
4633.55
4924.11
4857.8
4798.94
4747.19
5253.76
5157.68
5069.08
4988.03
5711
5584.49
5464.44
5350.6
6173.51
6031.85
5831.11
7176.24
6904.74
6325.61
6537.17
6737.96
7674.4
8211.26
8013.95
7390.64
8602.64
10760.2
11750.6
11492.1
9848.86
9051.53
9572.56
10500.2
12756.9
13564.1
12543.2
16525.6
15428.6
16461.7
14406.1
15327.8
3868.82
3880.57
3893.23
3906.07
3918.82
3931.43
3943.98
3956.5
3969.05
3981.56
3994.02
4006.44
4018.89
4031.43
4044.15
4057.18
4070.62
4084.59
4099.13
4114.23
4129.78
4145.6
4161.43
4177.02
4199.6
4193.94
4205.53
4187.41
4211.78
4219.21
4234.48
4226.78
4250.31
4242.33
4266.68
4258.43
4283.58
4275.07
4301.08
4292.24
4313.56
4305.13
4351.52
4341.29
4362.19
4335.87
4326.65
4322.03
4380.4
4373.04
4412.57
4404.18
4388.07
4396.01
4452.66
4442.92
4429.91
4421.14
4506.29
4492.1
4463.06
4474.33
4582.08
4560.11
4532.87
4515.52
4695.02
4657.14
4597.89
4625.27
4914.53
4848.92
4791.08
4739.78
5244.25
5146.2
5056.5
4975.37
5701.38
5577.15
5457.83
5343.64
6182.23
6009.81
5826.28
7150.76
6898.96
6320.36
6530.48
6733.5
7649.69
8279.49
7994.91
7384.79
8585.93
11210
12294.9
12011.2
10190.7
9043.37
9572.4
10916.3
13381.9
14262.5
13155.4
17016.2
16336.8
17154
15200.2
16215.2
3873.23
3885.95
3899.01
3911.87
3924.48
3936.89
3949.24
3961.56
3973.86
3986.14
3998.41
4010.72
4023.1
4035.64
4048.41
4061.52
4075.04
4089.05
4103.55
4118.48
4133.73
4149.11
4164.42
4179.49
4206.46
4200.58
4194.96
4212.65
4188.5
4219.87
4234.62
4227.19
4249.74
4242.14
4265.19
4257.43
4280.92
4273.03
4296.93
4288.88
4307.14
4318.45
4299.86
4347.16
4358
4336.89
4369.16
4331.68
4322.78
4376.52
4408.73
4400.38
4384.23
4392.2
4448.35
4438.96
4425.75
4417.18
4500.23
4486.65
4458.24
4468.87
4573.98
4552.39
4524.73
4507.97
4683.67
4646.65
4588.21
4615.34
4902.63
4837
4778.1
4727.62
5236.69
5138.38
5048.79
4968.18
5696.76
5572.7
5453.52
5339.47
6178.04
6004.07
5821.99
7143.64
6893.68
6315.64
6525.01
6728.92
7642.78
8272.63
7988.05
7379.2
8579.82
11689
12887
12595.5
10201.2
9037.57
9566.84
11334.6
10765.2
14066.2
15028.1
13822.4
17694.2
17230.9
18236.6
16057.4
17149.3
3878.47
3891.8
3904.91
3917.55
3929.89
3942.08
3954.21
3966.32
3978.42
3990.53
4002.67
4014.89
4027.24
4039.77
4052.57
4065.72
4079.26
4093.24
4107.62
4122.33
4137.24
4152.2
4167.06
4181.7
4189.56
4213.41
4207.31
4201.5
4195.94
4220.43
4234.68
4227.53
4249.13
4241.89
4263.67
4256.4
4278.2
4270.95
4292.64
4285.43
4314.6
4310.86
4303.75
4300.62
4294.57
4353.46
4342.48
4364.92
4332.26
4327.38
4318.66
4372.28
4404.34
4396.1
4379.99
4387.96
4443.49
4434.49
4420.9
4412.61
4493.35
4480.49
4452.82
4462.73
4564.75
4543.59
4515.09
4499.3
4668.3
4632.44
4575.35
4601.42
4896.02
4806.59
4756.81
4710.09
5232.67
5134.54
5045.07
4964.65
5692.67
5568.73
5449.69
5335.73
6173.87
5999.29