/*--------------------------------*- C++ -*----------------------------------*\
  =========                 |
  \\      /  F ield         | OpenFOAM: The Open Source CFD Toolbox
   \\    /   O peration     | Website:  https://openfoam.org
    \\  /    A nd           | Version:  dev
     \\/     M anipulation  |
\*---------------------------------------------------------------------------*/
FoamFile
{
    version     2.0;
    format      ascii;
    class       volScalarField;
    location    "2500";
    object      H2O;
}
// * * * * * * * * * * * * * * * * * * * * * * * * * * * * * * * * * * * * * //

dimensions      [0 0 0 0 0 0 0];

internalField   nonuniform List<scalar> 
9834
(
7.06884e-31
2.52835e-30
1.28834e-30
8.53587e-30
8.81795e-30
1.33747e-30
1.6802e-29
2.42752e-29
7.22744e-30
5.34489e-31
5.65072e-29
6.78738e-29
2.92313e-29
6.84602e-30
4.21423e-31
1.12463e-28
1.83183e-28
7.33211e-29
2.31125e-29
3.81789e-30
1.00445e-31
4.3874e-28
7.35247e-28
2.40031e-28
6.45192e-29
1.99853e-29
1.56504e-30
5.91036e-32
1.47961e-27
2.20095e-27
8.82966e-28
2.41504e-28
6.71234e-29
1.27848e-29
1.154e-30
3.16796e-32
2.32712e-27
6.17538e-27
3.55992e-27
1.06636e-27
2.08194e-28
4.32606e-29
8.17265e-30
6.17304e-31
2.72609e-32
7.00373e-27
1.80177e-26
1.03595e-26
4.5314e-27
9.94684e-28
2.48138e-28
3.96989e-29
4.58747e-30
2.44066e-31
5.3401e-33
2.39948e-26
4.3426e-26
3.36113e-26
1.39858e-26
4.65661e-27
9.62086e-28
1.85603e-28
2.51479e-29
2.67194e-30
1.16817e-31
3.69277e-33
7.21062e-26
1.04499e-25
9.21728e-26
4.41102e-26
1.48934e-26
3.32992e-27
6.06645e-28
9.73049e-29
1.37484e-29
7.34276e-31
3.97496e-32
1.21039e-33
1.73585e-25
2.5659e-25
2.19413e-25
1.32003e-25
4.44698e-26
1.39423e-26
3.18985e-27
3.88052e-28
5.61508e-29
6.67594e-30
3.85588e-31
2.13905e-32
8.92833e-33
3.43758e-25
6.75409e-25
6.88087e-25
3.7028e-25
1.45343e-25
3.93928e-26
1.0325e-26
2.22936e-27
2.43895e-28
3.04052e-29
2.88169e-30
2.53437e-31
1.56603e-31
1.94752e-31
7.96535e-25
1.44209e-24
1.28187e-24
9.90873e-25
4.35034e-25
1.34837e-25
3.18472e-26
7.45704e-27
1.08954e-27
1.26721e-28
1.48631e-29
2.4215e-30
2.84439e-30
4.24066e-30
2.89076e-30
1.91487e-24
3.14391e-24
2.84662e-24
2.37803e-24
1.15019e-24
4.1268e-25
1.06192e-25
2.22449e-26
5.19353e-27
7.26131e-28
7.59574e-29
2.19043e-29
3.5135e-29
6.39719e-29
8.62568e-29
5.36611e-29
3.3679e-24
7.93557e-24
8.00646e-24
5.88106e-24
3.2331e-24
1.14628e-24
2.99457e-25
5.90275e-26
1.53075e-26
2.94216e-27
5.30667e-28
2.97489e-28
5.34061e-28
7.98493e-28
1.47026e-27
1.35446e-27
1.3905e-27
4.40225e-24
1.46339e-23
1.90183e-23
1.87802e-23
7.404e-24
3.35568e-24
8.09187e-25
1.97465e-25
3.49863e-26
1.05259e-26
3.52609e-27
4.27274e-27
7.44601e-27
1.1015e-26
1.87934e-26
2.76552e-26
2.18482e-26
2.23191e-26
1.13671e-23
2.59313e-23
3.45255e-23
3.50444e-23
2.45133e-23
9.83033e-24
2.36534e-24
7.56601e-25
1.23301e-25
3.58307e-26
3.05436e-26
4.52795e-26
9.91848e-26
1.43685e-25
1.94042e-25
3.70857e-25
4.52662e-25
4.01711e-25
2.70635e-25
1.95462e-23
4.91452e-23
7.358e-23
6.55958e-23
6.34606e-23
2.72659e-23
9.15296e-24
2.08412e-24
5.2428e-25
1.63581e-25
2.66054e-25
6.98547e-25
1.07391e-24
2.13495e-24
2.555e-24
4.75314e-24
6.04758e-24
6.76393e-24
4.00473e-24
3.41093e-24
2.30016e-23
9.01845e-23
1.21121e-22
1.66398e-22
1.22139e-22
6.63143e-23
2.31499e-23
6.86327e-24
1.71296e-24
7.08803e-25
1.90927e-24
7.02186e-24
1.6175e-23
2.30996e-23
3.81334e-23
5.60309e-23
7.81973e-23
9.03825e-23
8.72861e-23
5.2872e-23
3.83285e-23
3.69501e-23
1.49485e-22
2.4204e-22
2.98432e-22
2.33847e-22
1.20227e-22
6.03342e-23
1.76689e-23
5.30328e-24
4.90076e-24
1.32414e-23
5.86593e-23
1.65839e-22
3.648e-22
4.81773e-22
7.08801e-22
9.1206e-22
1.20219e-21
1.78229e-21
1.28636e-21
5.70629e-22
4.18587e-22
5.62635e-23
2.39325e-22
3.76439e-22
5.51987e-22
5.14262e-22
2.72309e-22
1.39667e-22
4.32101e-23
2.26914e-23
4.65076e-23
1.00218e-22
3.88842e-22
1.4976e-21
3.71023e-21
6.84141e-21
8.93078e-21
1.44695e-20
1.60151e-20
2.34633e-20
1.82343e-20
1.20927e-20
6.51183e-21
4.2966e-21
5.48445e-23
2.91533e-22
6.85156e-22
9.13927e-22
9.30375e-22
6.88475e-22
2.77422e-22
1.32464e-22
1.0318e-22
3.34615e-22
9.33069e-22
2.78578e-21
1.11693e-20
3.55433e-20
6.25203e-20
9.94763e-20
1.82676e-19
2.45166e-19
2.67889e-19
2.53338e-19
1.28306e-19
1.18279e-19
6.81222e-20
2.24822e-20
3.92796e-23
3.06427e-22
8.64448e-22
1.63193e-21
1.56969e-21
1.563e-21
7.97792e-22
3.29785e-22
3.33207e-22
1.7187e-21
7.73596e-21
2.07903e-20
8.04374e-20
2.67028e-19
7.27352e-19
1.26395e-18
1.64032e-18
2.58237e-18
2.84736e-18
3.04421e-18
1.87576e-18
1.6967e-18
7.58228e-19
4.73839e-19
2.17286e-19
2.22568e-23
2.40105e-22
9.31316e-22
2.02133e-21
3.27213e-21
2.84549e-21
1.47569e-21
7.51361e-22
1.44282e-21
7.31855e-21
4.28204e-20
1.90632e-19
6.05344e-19
1.89366e-18
5.40813e-18
1.36552e-17
2.11524e-17
2.25689e-17
3.26783e-17
2.47093e-17
2.92988e-17
1.6452e-17
1.42271e-17
7.52325e-18
3.67531e-18
1.59547e-18
2.15688e-23
1.75549e-22
8.3598e-22
2.28444e-21
4.91136e-21
4.98642e-21
3.49854e-21
1.82271e-21
4.05234e-21
3.17313e-20
2.16592e-19
1.00743e-18
4.50755e-18
1.59617e-17
5.20672e-17
9.52625e-17
1.98442e-16
2.89287e-16
2.78631e-16
3.17865e-16
2.98065e-16
1.68657e-16
1.45942e-16
8.79541e-17
3.04345e-17
2.41208e-17
7.33176e-18
2.20761e-23
1.54543e-22
7.75571e-22
2.5587e-21
6.13661e-21
8.13266e-21
5.85838e-21
3.78081e-21
9.96242e-21
9.74426e-20
7.93226e-19
5.39303e-18
2.42803e-17
1.06149e-16
3.63283e-16
1.03335e-15
1.63418e-15
2.44178e-15
2.86003e-15
2.53595e-15
2.42792e-15
1.77023e-15
1.20525e-15
9.00053e-16
4.03476e-16
2.3223e-16
9.30123e-17
3.29687e-17
2.39452e-23
1.52234e-22
7.25769e-22
2.4102e-21
7.2147e-21
1.12979e-20
1.10584e-20
6.68434e-21
2.02723e-20
2.65893e-19
2.62085e-18
1.93184e-17
1.33249e-16
6.43052e-16
2.17258e-15
6.79396e-15
1.50964e-14
2.52162e-14
3.37574e-14
3.08962e-14
2.87843e-14
2.22099e-14
1.49623e-14
8.95739e-15
4.94281e-15
2.30081e-15
1.20095e-15
3.5076e-16
9.14555e-17
2.67141e-23
1.7824e-22
6.71647e-22
2.24943e-21
7.7244e-21
1.47673e-20
1.49626e-20
1.38071e-20
3.24141e-20
5.67673e-19
7.11504e-18
7.1528e-17
5.41339e-16
3.08568e-15
1.49336e-14
5.352e-14
1.41096e-13
2.68219e-13
3.87447e-13
3.72439e-13
3.51644e-13
2.83986e-13
1.92784e-13
1.1342e-13
5.91459e-14
2.77503e-14
1.20405e-14
4.7393e-15
1.54209e-15
2.84382e-16
3.07786e-23
1.73511e-22
6.92612e-22
2.14189e-21
7.02679e-21
1.61664e-20
2.42257e-20
2.19365e-20
4.16164e-20
9.18325e-19
1.72582e-17
2.17937e-16
1.77898e-15
1.41679e-14
8.71286e-14
3.80408e-13
1.16705e-12
2.5506e-12
4.2027e-12
4.37523e-12
4.21924e-12
3.50666e-12
2.42233e-12
1.4093e-12
7.24519e-13
3.38633e-13
1.45825e-13
5.77753e-14
2.07325e-14
5.64901e-15
6.07439e-16
7.90936e-23
1.881e-22
7.41046e-22
2.15181e-21
6.40288e-21
1.60171e-20
3.05003e-20
3.27865e-20
5.38148e-20
1.19173e-18
2.83949e-17
4.83392e-16
5.74638e-15
5.40937e-14
4.1916e-13
2.32201e-12
8.48743e-12
2.12602e-11
3.86153e-11
4.89223e-11
4.82403e-11
4.15802e-11
2.90293e-11
1.67151e-11
8.2895e-12
3.76402e-12
1.60467e-12
6.47225e-13
2.45453e-13
7.83999e-14
1.75311e-14
1.01022e-15
4.82745e-22
5.44199e-22
9.04649e-22
2.21357e-21
6.09962e-21
1.51012e-20
3.41562e-20
4.47852e-20
6.36652e-20
1.28228e-18
3.80748e-17
8.28484e-16
1.43207e-14
1.74371e-13
1.63117e-12
1.15442e-11
5.27012e-11
1.54598e-10
3.13997e-10
5.01165e-10
5.12987e-10
4.70229e-10
3.33802e-10
1.87031e-10
8.85089e-11
3.79874e-11
1.56643e-11
6.30277e-12
2.47265e-12
8.58164e-13
2.36652e-13
3.1633e-14
7.12092e-16
2.71768e-21
2.40925e-21
1.92235e-21
2.75887e-21
6.16384e-21
1.54393e-20
3.90086e-20
6.01411e-20
7.51254e-20
1.16005e-18
4.26e-17
1.13765e-15
2.40846e-14
4.27232e-13
5.23979e-12
4.67011e-11
2.71479e-10
9.43803e-10
2.20034e-09
3.78285e-09
4.87348e-09
4.93788e-09
3.66065e-09
2.0073e-09
9.00805e-10
3.64555e-10
1.41195e-10
5.48735e-11
2.14236e-11
7.92671e-12
2.46017e-12
4.03515e-13
2.42301e-14
3.89589e-17
1.11098e-15
1.47017e-20
1.57076e-20
9.1541e-21
5.77386e-21
7.60579e-21
1.77091e-20
4.22282e-20
7.16249e-20
9.3478e-20
8.77617e-19
4.01598e-17
1.29252e-15
3.31414e-14
7.07967e-13
1.30163e-11
1.45225e-10
1.07933e-09
4.95688e-09
1.23318e-08
2.49184e-08
4.15253e-08
4.59883e-08
3.77666e-08
2.13278e-08
9.32877e-09
3.53035e-09
1.27025e-09
4.58504e-10
1.72188e-10
6.50506e-11
2.18449e-11
3.95593e-12
1.43627e-13
9.13165e-15
7.27565e-14
1.95968e-16
4.01247e-15
6.43258e-20
8.64255e-20
5.12278e-20
2.79949e-20
1.4948e-20
1.97188e-20
4.44402e-20
8.46586e-20
1.15133e-19
5.90877e-19
3.13785e-17
1.25097e-15
3.80117e-14
9.76902e-13
2.11996e-11
3.34342e-10
3.05607e-09
1.92319e-08
5.8594e-08
1.20618e-07
2.42613e-07
3.5671e-07
3.51774e-07
2.24444e-07
1.00882e-07
3.60874e-08
1.17555e-08
3.87625e-09
1.34961e-09
4.99175e-10
1.75696e-10
3.63056e-11
1.16141e-12
3.71147e-12
5.01138e-13
3.10428e-12
3.77676e-12
4.21955e-14
4.18131e-13
9.34521e-16
2.14989e-14
2.87572e-19
4.25585e-19
2.97149e-19
1.39011e-19
5.76082e-20
3.1792e-20
4.89897e-20
1.01036e-19
1.44802e-19
4.1829e-19
1.94182e-17
9.94078e-16
3.70738e-14
1.11315e-12
2.79228e-11
5.05784e-10
6.47023e-09
4.97005e-08
1.98262e-07
4.78809e-07
1.16189e-06
2.10664e-06
2.59877e-06
2.04732e-06
1.05166e-06
3.83057e-07
1.14103e-07
3.33498e-08
1.05368e-08
3.67661e-09
1.32505e-09
3.1924e-10
1.34274e-11
5.33854e-11
1.63997e-11
3.83374e-12
2.48356e-11
3.15651e-11
2.84584e-13
3.20795e-12
5.90417e-15
1.48435e-13
1.95083e-18
2.06374e-18
1.77488e-18
9.44303e-19
3.18207e-19
1.17954e-19
7.38962e-20
1.18113e-19
1.59701e-19
3.09872e-19
1.18762e-17
6.43857e-16
2.99107e-14
1.07023e-12
3.035e-11
6.32997e-10
9.30453e-09
9.19586e-08
4.23909e-07
1.37585e-06
4.21362e-06
9.02355e-06
1.37043e-05
1.35007e-05
8.47046e-06
3.5486e-06
1.10676e-06
2.95042e-07
8.14305e-08
2.59233e-08
9.22578e-09
2.60569e-09
1.85529e-10
6.94822e-10
8.43373e-11
4.1781e-10
1.58375e-10
3.20663e-11
2.36644e-10
2.82543e-10
2.12758e-12
2.56803e-11
4.1664e-14
1.08623e-12
1.00966e-17
9.45671e-18
8.36066e-18
4.80143e-18
1.99487e-18
6.0426e-19
1.75584e-19
1.49366e-19
1.88857e-19
2.90842e-19
5.90938e-18
3.99023e-16
1.83251e-14
8.54387e-13
2.79187e-11
6.62739e-10
1.1172e-08
1.28807e-07
6.11845e-07
2.65544e-06
1.03758e-05
2.72568e-05
5.00258e-05
6.23413e-05
4.91207e-05
2.50409e-05
9.12688e-06
2.60556e-06
6.47592e-07
1.74928e-07
5.69382e-08
1.82069e-08
2.39084e-09
7.95584e-09
1.8908e-09
7.77162e-09
8.9939e-10
4.61991e-09
1.58675e-09
2.72e-10
2.17439e-09
2.47645e-09
1.6337e-11
2.07415e-10
3.08522e-13
8.20874e-12
4.10908e-17
5.14252e-17
4.5655e-17
2.18418e-17
1.02729e-17
3.44528e-18
7.85207e-19
2.75657e-19
2.64938e-19
3.07704e-19
2.69411e-18
1.90975e-16
1.13125e-14
5.22936e-13
1.95003e-11
5.82659e-10
1.13515e-08
1.51296e-07
8.24981e-07
4.01828e-06
1.79246e-05
5.50148e-05
0.000118454
0.000180954
0.000191063
0.000130085
5.87779e-05
1.86384e-05
4.63025e-06
1.1005e-06
3.07473e-07
1.02276e-07
2.36206e-08
6.78953e-08
2.86117e-08
9.72083e-08
2.12507e-08
8.69481e-08
9.25038e-09
4.70144e-08
1.47725e-08
2.26117e-09
1.90636e-08
2.06169e-08
1.27065e-10
1.63661e-09
2.39128e-12
6.29232e-11
1.55243e-16
2.14222e-16
1.83971e-16
1.19072e-16
5.43254e-17
1.74389e-17
4.86995e-18
9.89822e-19
3.81459e-19
3.90903e-19
1.37027e-18
8.70163e-17
5.47191e-15
2.89159e-13
1.15784e-11
3.87137e-10
9.45607e-09
1.51035e-07
9.75493e-07
4.90454e-06
2.43287e-05
8.24065e-05
0.000193887
0.000328518
0.000417888
0.000395454
0.000242162
9.31166e-05
2.58826e-05
5.92179e-06
1.4268e-06
4.47993e-07
1.76259e-07
4.39505e-07
2.97445e-07
8.61744e-07
3.2091e-07
1.08118e-06
2.14247e-07
8.54144e-07
8.59641e-08
4.272e-07
1.2732e-07
1.78268e-08
1.55589e-07
1.59542e-07
9.64759e-10
1.22613e-08
1.88839e-11
4.74289e-10
8.83891e-16
1.1976e-15
8.06454e-16
4.9584e-16
2.3899e-16
7.32145e-17
2.52181e-17
4.96227e-18
9.02046e-19
6.1802e-19
8.63406e-19
4.00994e-17
2.59185e-15
1.39316e-13
6.29923e-12
2.29381e-10
6.14548e-09
1.19901e-07
1.03363e-06
5.13425e-06
2.82788e-05
0.000101639
0.000251533
0.000448719
0.000624391
0.000699538
0.000601433
0.000329882
0.000106055
2.56876e-05
5.85914e-06
1.62542e-06
9.60114e-07
2.18195e-06
2.2385e-06
5.38935e-06
3.21587e-06
8.70792e-06
3.03294e-06
9.44381e-06
1.882e-06
6.94288e-06
7.18582e-07
3.38916e-06
9.96201e-07
1.30759e-07
1.15568e-06
1.1231e-06
6.94208e-09
8.58384e-08
1.41187e-10
3.32902e-09
2.98978e-15
5.07213e-15
3.817e-15
1.99904e-15
1.02658e-15
4.6937e-16
1.22666e-16
2.55044e-17
4.39363e-18
1.22361e-18
9.63835e-19
1.61869e-17
1.16484e-15
7.01138e-14
3.39231e-12
1.22612e-10
3.66099e-09
7.62963e-08
8.71113e-07
4.75982e-06
2.89121e-05
0.000112479
0.000282862
0.000509949
0.000740919
0.000923421
0.000959649
0.000752946
0.000348349
9.45187e-05
2.18422e-05
5.28414e-06
3.54336e-06
5.97469e-06
1.17594e-05
2.4932e-05
2.14267e-05
4.83518e-05
2.58493e-05
6.39531e-05
2.22577e-05
6.25125e-05
1.33475e-05
4.38976e-05
5.1956e-06
2.16498e-05
6.70311e-06
8.76444e-07
7.33728e-06
6.76131e-06
4.57831e-08
5.49825e-07
9.16579e-10
2.03554e-08
1.93628e-14
3.09363e-14
2.164e-14
1.07308e-14
4.68361e-15
1.79419e-15
6.08879e-16
1.12219e-16
2.27777e-17
4.13035e-18
1.49097e-18
7.04062e-18
4.54666e-16
3.09208e-14
1.52544e-12
5.97513e-11
1.96637e-09
4.62167e-08
6.46207e-07
3.75318e-06
2.64855e-05
0.000111951
0.000302554
0.000514801
0.000733513
0.000976264
0.00116219
0.00113728
0.000781632
0.000297669
6.96678e-05
1.53924e-05
1.0057e-05
1.47461e-05
3.93854e-05
6.38339e-05
9.70768e-05
0.000165196
0.000143707
0.000271535
0.000153233
0.000329201
0.000125946
0.00030707
7.44125e-05
0.000215982
3.05165e-05
0.000110783
3.68051e-05
5.09749e-06
3.81544e-05
3.36159e-05
2.69672e-07
3.12796e-06
4.54827e-09
1.03762e-07
1.36585e-13
2.14512e-13
1.33691e-13
6.67512e-14
3.01835e-14
9.94019e-15
2.62288e-15
5.39259e-16
8.45159e-17
1.81052e-17
3.17701e-18
3.91827e-18
1.79275e-16
1.09825e-14
6.49998e-13
2.6937e-11
9.68045e-10
2.53313e-08
4.43889e-07
2.74985e-06
2.05888e-05
0.000101987
0.000293588
0.000471348
0.000628243
0.000893968
0.00117741
0.00135045
0.00117509
0.000685599
0.000199235
4.36036e-05
2.76511e-05
9.0129e-06
8.29327e-05
0.000113706
0.000247263
0.000339066
0.000430717
0.000603362
0.000562097
0.0008209
0.000600071
0.000939403
0.000518951
0.000928934
0.000323472
0.000762342
0.000144838
0.000434053
0.000164251
2.47653e-05
0.000162194
0.000138259
1.44536e-06
1.49349e-05
1.43745e-08
4.45317e-07
9.67442e-13
1.4843e-12
8.55375e-13
3.69715e-13
1.42432e-13
6.00786e-14
1.29257e-14
2.41199e-15
3.7595e-16
7.32674e-17
1.33653e-17
4.99532e-18
7.24046e-17
4.36583e-15
2.33762e-13
1.18662e-11
4.42292e-10
1.26137e-08
2.60468e-07
2.00116e-06
1.44163e-05
8.1698e-05
0.000267594
0.000421354
0.000504368
0.000668799
0.00102919
0.00137573
0.00143173
0.00105811
0.000483783
0.00011075
0.000137193
0.000137729
0.000210212
0.00042684
0.000517755
0.000772836
0.000932251
0.00107915
0.00132073
0.00128777
0.00162429
0.001369
0.00180113
0.00128678
0.00181991
0.00100094
0.00163072
0.000520617
0.00119968
0.000554812
0.000100001
0.000529704
0.00045585
6.51443e-06
5.83996e-05
4.02922e-08
1.75313e-06
6.60036e-12
1.02843e-11
5.82786e-12
2.41436e-12
8.69286e-13
3.6641e-13
8.14723e-14
1.55483e-14
1.77108e-15
2.55341e-16
4.71771e-17
1.12143e-17
3.43819e-17
1.68468e-15
1.00438e-13
4.91585e-12
1.87268e-10
5.89941e-09
1.3089e-07
1.49607e-06
9.33168e-06
6.07041e-05
0.00022822
0.000389319
0.00043415
0.000492433
0.000744871
0.00125743
0.00155291
0.00135777
0.00078425
0.000261241
0.00021954
0.000744695
0.000818056
0.000596435
0.000673563
0.00107303
0.00120387
0.00153766
0.001731
0.00193391
0.00221163
0.00221505
0.0025965
0.00234886
0.00282946
0.00227923
0.00288941
0.00194234
0.00268768
0.00133887
0.00219369
0.00139205
0.0003371
0.00133966
0.0011759
2.54499e-05
0.00019955
1.07942e-07
5.88224e-06
3.91458e-11
6.6974e-11
3.88983e-11
1.57577e-11
5.498e-12
1.80307e-12
3.84028e-13
7.36067e-14
1.15315e-14
1.1054e-15
1.95812e-16
4.04159e-17
2.90943e-17
6.34637e-16
3.84657e-14
1.80126e-12
7.44313e-11
2.56499e-09
6.33674e-08
9.25525e-07
5.99626e-06
4.20715e-05
0.000181646
0.00036564
0.00040082
0.000382511
0.000527486
0.00100663
0.00157133
0.00157221
0.00106846
0.000473509
0.000342944
0.000896026
0.000954902
0.00149431
0.0015708
0.00131476
0.00141103
0.00189776
0.00204968
0.0024551
0.00266676
0.00292935
0.00322833
0.00328878
0.00366474
0.0034683
0.0039217
0.00342328
0.00399829
0.00305683
0.00385767
0.00235663
0.00334196
0.00241625
0.000890595
0.00235904
0.00217763
8.52233e-05
0.000555225
3.1265e-07
1.95898e-05
1.57391e-10
3.56922e-10
2.39457e-10
1.00903e-10
3.51316e-11
1.06104e-11
2.28561e-12
3.22277e-13
4.3059e-14
5.4678e-15
5.83101e-16
1.38152e-16
5.17534e-17
2.872e-16
1.25452e-14
6.35633e-13
2.81146e-11
1.04519e-09
2.86882e-08
5.28725e-07
3.5741e-06
2.71793e-05
0.000134826
0.000339842
0.000386456
0.000330438
0.000381017
0.000758818
0.00147985
0.00171991
0.00135182
0.000744869
0.000556811
0.00108051
0.00104218
0.00164365
0.00171963
0.00237648
0.0024565
0.00217762
0.00228528
0.00284584
0.00300377
0.00347501
0.00367342
0.00395279
0.00414029
0.0041876
0.00433419
0.00429306
0.00441583
0.00430796
0.00446866
0.00416159
0.00449258
0.00351077
0.00434378
0.00355662
0.00183897
0.00346424
0.00326348
0.000272281
0.00135845
1.4113e-06
7.56791e-05
2.94937e-10
1.21271e-09
1.20147e-09
6.02851e-10
2.14327e-10
5.76668e-11
1.04346e-11
1.92526e-12
2.29792e-13
2.43071e-14
2.35202e-15
3.80648e-16
1.2343e-16
2.64041e-16
4.70774e-15
2.187e-13
1.05613e-11
4.03723e-10
1.20675e-08
2.61236e-07
2.1816e-06
1.63652e-05
9.48506e-05
0.000297779
0.000381235
0.000325722
0.000294503
0.000531459
0.00124458
0.00180579
0.00163856
0.00105423
0.000813942
0.00164944
0.00179063
0.00199513
0.0025303
0.00259856
0.00332743
0.00339969
0.00313363
0.00324119
0.00383135
0.0039581
0.00426187
0.00434616
0.00441086
0.00445157
0.00446072
0.0044577
0.00449707
0.0044497
0.00456068
0.00448925
0.00460953
0.00459316
0.00446138
0.00470262
0.00452118
0.00296157
0.00449656
0.00433743
0.000762313
0.00255542
2.48072e-05
0.00041079
1.70321e-09
3.98281e-09
2.97125e-09
1.15908e-09
2.92118e-10
5.41273e-11
1.1235e-11
1.2475e-12
1.27301e-13
1.13584e-14
9.81508e-16
3.05735e-16
4.46467e-16
2.99364e-15
7.89691e-14
3.74648e-12
1.48431e-10
4.83106e-09
1.13608e-07
1.44995e-06
9.09258e-06
6.26048e-05
0.000237366
0.000376286
0.000345054
0.00025201
0.000356316
0.000935837
0.00177829
0.00187746
0.00139911
0.00108196
0.00182972
0.00282065
0.00277153
0.00267102
0.00274112
0.00346371
0.00351273
0.00416251
0.00419236
0.00405344
0.00412051
0.00440216
0.00443806
0.00447813
0.00449294
0.00443487
0.00438716
0.00433006
0.00415681
0.00427758
0.00395263
0.00439304
0.0039483
0.00461745
0.00422253
0.00479673
0.00464963
0.00488994
0.00413462
0.00497272
0.00502422
0.00204835
0.00400392
0.000771794
0.00279924
5.67941e-09
1.0429e-08
5.23897e-09
1.36185e-09
2.60148e-10
4.93981e-11
6.44271e-12
6.31779e-13
5.57203e-14
4.11247e-15
6.25092e-16
8.85927e-16
3.63067e-15
3.92436e-14
1.29027e-12
5.28775e-11
1.84077e-09
4.80587e-08
7.97917e-07
5.56911e-06
3.88179e-05
0.000173664
0.000365127
0.000371986
0.000249315
0.000253261
0.000617262
0.00154167
0.00200424
0.00176924
0.00137631
0.00196638
0.00326345
0.00362193
0.00372468
0.00356417
0.00360512
0.00420887
0.00420734
0.00447076
0.00446427
0.0044615
0.00447206
0.00449017
0.00447963
0.00432132
0.00424812
0.00398265
0.00382944
0.00363609
0.00338483
0.00344096
0.00306751
0.00357181
0.00296542
0.00406252
0.00321716
0.00472288
0.00399147
0.00486207
0.00508473
0.0050286
0.00512072
0.00521158
0.00459471
0.00491747
0.00520409
0.00275593
0.00517344
1.9536e-08
1.87414e-08
5.73109e-09
1.16797e-09
2.11385e-10
2.77322e-11
2.95608e-12
2.69479e-13
1.96364e-14
2.06381e-15
2.22673e-15
6.86067e-15
3.85574e-14
5.4938e-13
1.87993e-11
6.77739e-10
1.91479e-08
3.93123e-07
3.168e-06
2.26969e-05
0.000120465
0.000332013
0.000389241
0.000293367
0.000210345
0.000372974
0.00111439
0.0019838
0.00206864
0.00173123
0.00204849
0.0032337
0.00401354
0.00389563
0.00413314
0.00407923
0.00419921
0.00417759
0.00444992
0.00442123
0.00439988
0.00435442
0.00446387
0.00443646
0.00416893
0.00408626
0.00369299
0.00356754
0.0032009
0.00306338
0.00289054
0.00282787
0.00268254
0.00264854
0.00261822
0.00245598
0.00298263
0.00236639
0.0040178
0.00289171
0.00344429
0.00461779
0.0040816
0.00520418
0.00537275
0.00530025
0.00485229
0.004335
0.00419894
0.00496261
0.00545783
0.00560945
0.00542373
0.00550839
0.00118832
0.00580256
0.00441881
0.00564621
5.0933e-08
2.17566e-08
4.84552e-09
7.62766e-10
1.08217e-10
1.27951e-11
1.24498e-12
9.53573e-14
7.19517e-15
6.69644e-15
1.77707e-14
6.38094e-14
4.44235e-13
7.76009e-12
2.48293e-10
7.38223e-09
1.66255e-07
1.77381e-06
1.23689e-05
7.86186e-05
0.000270435
0.000395289
0.00034951
0.000206493
0.00023113
0.000693766
0.00173629
0.00218196
0.00209249
0.00214785
0.00313833
0.00382274
0.00367063
0.00405659
0.00395932
0.0042355
0.00414872
0.00437208
0.00431032
0.00429864
0.00423321
0.00385089
0.00378272
0.0040038
0.00392478
0.00344461
0.00331928
0.00294209
0.00280574
0.00279827
0.00274243
0.00270138
0.00279381
0.00253699
0.00280907
0.00234017
0.002353
0.00244991
0.00264147
0.00249771
0.00224869
0.00229886
0.0022903
0.00220433
0.00287156
0.00351895
0.00289365
0.00242293
0.00359122
0.00506984
0.00544105
0.00518318
0.00451004
0.00388786
0.00372242
0.00465087
0.00579924
0.0056603
0.00556752
0.000944286
0.00385466
0.00482354
0.0058517
0.00570656
7.63055e-08
1.89767e-08
3.18094e-09
4.32645e-10
5.22803e-11
5.44749e-12
4.48389e-13
3.21986e-14
1.21962e-14
6.03762e-14
1.60855e-13
6.20186e-13
5.42631e-12
1.0208e-10
2.84067e-09
6.79266e-08
1.02496e-06
6.74712e-06
4.84476e-05
0.000201129
0.000390985
0.000392067
0.000255372
0.00017515
0.000381939
0.00122103
0.00213415
0.00231242
0.00234044
0.00297678
0.00358624
0.00385625
0.00377251
0.00385169
0.00378718
0.00400275
0.0039245
0.00415907
0.00408147
0.00372065
0.00366873
0.0030487
0.00301098
0.00320525
0.00311322
0.00265392
0.00249839
0.00264784
0.00249526
0.00286311
0.00286538
0.00320024
0.0035728
0.00288626
0.00320161
0.00351089
0.00386092
0.00246349
0.0027258
0.00306222
0.00219018
0.00214637
0.00249994
0.0025407
0.00226226
0.00240361
0.00297478
0.00242631
0.00215217
0.0030742
0.00477457
0.00530849
0.00489686
0.00406482
0.00321352
0.00338257
0.00422804
0.00569529
0.00581282
0.00543805
0.0036918
0.00541649
0.00541755
0.00586644
0.00586721
7.69222e-08
1.32699e-08
1.76137e-09
2.09321e-10
2.26924e-11
2.02234e-12
1.53964e-13
3.13251e-14
1.34281e-13
4.47675e-13
1.4735e-12
6.5742e-12
6.79529e-11
1.22611e-09
2.80232e-08
5.11623e-07
4.11099e-06
2.81437e-05
0.000140893
0.000361896
0.000416173
0.000324741
0.000168169
0.000203141
0.000726328
0.00181753
0.00234266
0.00251252
0.00288968
0.00337688
0.003605
0.00353567
0.00372396
0.00367
0.00356343
0.00356153
0.00358121
0.00356895
0.00362873
0.00360075
0.00300954
0.0030326
0.00227832
0.00231205
0.00237283
0.00229373
0.00227825
0.00201969
0.00275863
0.0025388
0.00379713
0.00381088
0.00414627
0.00444138
0.0046281
0.00479858
0.00344511
0.00384818
0.00424187
0.00460099
0.00283132
0.00324098
0.00369542
0.00211211
0.00224516
0.00292577
0.00299459
0.0025589
0.00213797
0.00248806
0.00214226
0.00208816
0.00258225
0.00437257
0.00503342
0.00451683
0.00356628
0.0027161
0.00288356
0.00375101
0.00558452
0.00574332
0.00519474
0.00378177
0.00590727
0.0053847
0.00588318
0.00599063
6.59042e-08
7.78935e-09
8.51953e-10
9.18618e-11
8.76283e-12
7.28802e-13
1.01349e-13
2.65081e-13
1.22997e-12
4.23196e-12
1.40407e-11
7.68644e-11
8.3507e-10
1.30106e-08
2.39128e-07
2.19815e-06
1.55401e-05
9.3279e-05
0.000299235
0.000424451
0.000383796
0.000218875
0.000134322
0.000361531
0.00124069
0.00223239
0.00255813
0.00285987
0.0032253
0.00343996
0.00353446
0.00351211
0.00355873
0.00355179
0.00336075
0.00342007
0.0032185
0.00329134
0.00308279
0.0031481
0.00240522
0.0025464
0.00168312
0.00179753
0.00177431
0.00166858
0.0022276
0.00186214
0.00361939
0.00319173
0.00485886
0.00488258
0.00482475
0.00470365
0.00490239
0.00513208
0.00528296
0.00535652
0.00415944
0.00459958
0.00498736
0.00530241
0.00339843
0.0039131
0.004427
0.00222285
0.00255174
0.00351965
0.00359618
0.00302642
0.0020687
0.00216449
0.00205297
0.002188
0.00221717
0.00392612
0.00468631
0.00410662
0.00306941
0.0023075
0.00244442
0.00327311
0.00539606
0.00562691
0.00490228
0.00239432
0.0059343
0.00456291
0.00585696
0.00600196
4.53191e-08
3.99036e-09
3.82518e-10
3.73933e-11
3.40442e-12
3.95064e-13
6.3071e-13
3.26569e-12
1.23858e-11
4.07335e-11
1.49936e-10
9.27941e-10
9.38195e-09
1.22135e-07
1.33323e-06
8.67639e-06
5.90746e-05
0.000229627
0.00042058
0.000424671
0.000293177
0.000123612
0.000161864
0.000687671
0.00179948
0.00250567
0.00283519
0.00314308
0.00335952
0.00349692
0.00347486
0.00350689
0.00350685
0.00346514
0.00349458
0.00327432
0.00337019
0.00301573
0.00315514
0.00270363
0.00286293
0.00200722
0.00224671
0.00128277
0.00145557
0.00146167
0.00127952
0.00258308
0.00190525
0.00456515
0.00398755
0.00535911
0.00528512
0.00515308
0.00498801
0.00553209
0.00567176
0.00572187
0.00568842
0.00490044
0.0053067
0.00562709
0.00585207
0.00408463
0.00463996
0.0051425
0.00251439
0.00301774
0.00420656
0.00427551
0.00362472
0.00214511
0.002057
0.0020956
0.00245104
0.00206807
0.00348253
0.00432265
0.00370726
0.00262491
0.0020995
0.0021624
0.00284082
0.00517442
0.00548702
0.00460438
0.000332073
0.00574484
0.00298519
0.0058044
0.00596315
2.66696e-08
1.92728e-09
1.69738e-10
1.63136e-11
1.81528e-12
1.54449e-12
8.2771e-12
3.54129e-11
1.25408e-10
4.29666e-10
1.73326e-09
1.0547e-08
9.38466e-08
8.30006e-07
5.82843e-06
3.69012e-05
0.000168501
0.000395425
0.000446809
0.000358964
0.000168891
8.95433e-05
0.000298356
0.00113128
0.00223836
0.00275721
0.00306827
0.00330241
0.00347821
0.00353544
0.00353187
0.00352236
0.00353491
0.00344277
0.00349303
0.00323715
0.00335022
0.00291698
0.00309252
0.00248736
0.00271349
0.00172445
0.00201818
0.000968573
0.00110667
0.0012903
0.00101372
0.00313991
0.00213032
0.00483097
0.00457871
0.00394323
0.00431943
0.00556974
0.00540446
0.00522457
0.00503437
0.00597899
0.00600451
0.0059466
0.0057878
0.00556372
0.00588966
0.00611277
0.00622976
0.00479839
0.00532953
0.00576874
0.0029681
0.00360518
0.00490671
0.00496427
0.00429346
0.00236596
0.00206294
0.00227162
0.00287904
0.00203911
0.00307595
0.00398072
0.00334746
0.00228362
0.0020324
0.00204449
0.00247736
0.00495418
0.0053589
0.00433121
0.000255244
0.00543761
0.00278441
0.00576739
0.00591934
1.46702e-08
9.93927e-10
8.93026e-11
9.96132e-12
3.77061e-12
2.09177e-11
9.59006e-11
3.79437e-10
1.37345e-09
4.84828e-09
1.94307e-08
1.07768e-07
7.01717e-07
3.83274e-06
2.47411e-05
0.000123418
0.000344711
0.000454059
0.000410133
0.000241994
7.61024e-05
0.000109588
0.00054411
0.00149094
0.00245396
0.00292103
0.00320687
0.00339692
0.00349597
0.00344365
0.00354702
0.00353477
0.00353127
0.00354702
0.00343463
0.00349459
0.00313193
0.0032546
0.0027831
0.00297495
0.00230119
0.00255766
0.00137741
0.00167724
0.000650538
0.000699002
0.00117688
0.000746443
0.00352777
0.00298992
0.00218882
0.00469368
0.00447185
0.00388121
0.00421345
0.00559189
0.0053671
0.00512733
0.00490367
0.00624343
0.00617897
0.00599805
0.00576398
0.00610237
0.00632832
0.00644466
0.00645927
0.00546729
0.00592897
0.00627608
0.00353662
0.00426104
0.0055617
0.00561188
0.00497424
0.00275272
0.00218513
0.00259684
0.00341764
0.00210434
0.002736
0.00368249
0.00304702
0.00209304
0.00203456
0.00200177
0.00222366
0.004766
0.00526909
0.00410825
0.00059749
0.00536827
0.00410858
0.00575665
0.00590925
8.93178e-09
6.65632e-10
6.86185e-11
1.27492e-11
4.14286e-11
2.5487e-10
1.07178e-09
4.30878e-09
1.48622e-08
5.25846e-08
1.95658e-07
7.94415e-07
3.37674e-06
2.05962e-05
9.68217e-05
0.000296
0.000453198
0.000444832
0.000305424
0.000103867
4.93848e-05
0.000197641
0.000740947
0.0016251
0.00252426
0.00298823
0.00320758
0.00321929
0.00338358
0.00326163
0.00346744
0.00344315
0.00345356
0.00347053
0.00334588
0.00341143
0.00283541
0.00297018
0.00246331
0.0026662
0.00196642
0.00222895
0.000906665
0.00116182
0.000370701
0.000338495
0.00110016
0.000547215
0.00347272
0.00298389
0.00233837
0.00178691
0.00439508
0.00420187
0.00368338
0.00397669
0.00546826
0.00514965
0.00485091
0.00460089
0.00640273
0.00622344
0.00597386
0.00563754
0.00650876
0.00663124
0.00665345
0.00661432
0.00604984
0.0064168
0.00666228
0.00417501
0.00493418
0.00613565
0.00618521
0.00562007
0.0032519
0.00242735
0.00303683
0.00402764
0.00224483
0.00247533
0.0034434
0.00282247
0.00201083
0.0020939
0.00200079
0.00209467
0.00462857
0.00521603
0.00394234
0.00264691
0.00568642
0.00518189
0.00575739
0.0059682
7.09468e-09
6.2586e-10
7.78264e-11
7.83305e-11
5.43508e-10
2.91903e-09
1.23641e-08
4.47481e-08
1.56616e-07
4.89467e-07
1.26551e-06
3.96813e-06
2.01434e-05
8.76766e-05
0.000264404
0.000443771
0.000464633
0.000356488
0.000159744
3.7885e-05
5.87461e-05
0.000283006
0.000804442
0.00162181
0.00239623
0.00277767
0.00282132
0.00271446
0.00252008
0.00305305
0.00289255
0.00319541
0.00314847
0.00318873
0.00320624
0.0030716
0.00314272
0.0022822
0.00242664
0.00189878
0.00210473
0.00142139
0.00166889
0.000403939
0.000558383
0.000251804
0.000176934
0.00130245
0.000847386
0.000473859
0.00330959
0.00285245
0.00219209
0.00170808
0.00399861
0.00383407
0.00339818
0.00364755
0.00524453
0.0048381
0.00447542
0.0041976
0.00646197
0.00622566
0.00590745
0.00549849
0.0067945
0.00682523
0.00680134
0.0066866
0.00652782
0.00679166
0.00694032
0.00483684
0.00557926
0.00661128
0.00666594
0.00619831
0.00381705
0.00276459
0.00351125
0.0046645
0.00244929
0.00231435
0.00327355
0.00268939
0.00199509
0.00218865
0.00203551
0.00205972
0.00453602
0.00519328
0.00383469
0.000655185
0.00592343
0.00379638
0.00577158
0.00604731
7.20992e-09
7.46017e-10
1.78849e-10
1.02307e-09
6.12345e-09
3.25292e-08
1.25154e-07
4.43306e-07
1.19366e-06
2.9928e-06
7.37565e-06
2.3507e-05
8.83336e-05
0.00025534
0.000434411
0.000474071
0.000393839
0.000210604
4.7684e-05
2.07954e-05
8.4968e-05
0.000308275
0.000792064
0.00139806
0.00184477
0.00193774
0.00155941
0.00202155
0.00167918
0.00244202
0.00225828
0.00264189
0.00256716
0.00265829
0.00266967
0.00253622
0.0026136
0.00150862
0.00165221
0.00115395
0.0013401
0.000746555
0.000952522
0.000158899
0.000182163
0.000269447
0.000184588
0.000130733
0.00125555
0.000854777
0.000374031
0.00060578
0.0030645
0.00265352
0.00201738
0.00160692
0.00356018
0.00342058
0.00306301
0.00327034
0.00501743
0.00451583
0.00407616
0.0037581
0.00648576
0.00620401
0.00583071
0.00536355