/*--------------------------------*- C++ -*----------------------------------*\
  =========                 |
  \\      /  F ield         | OpenFOAM: The Open Source CFD Toolbox
   \\    /   O peration     | Website:  https://openfoam.org
    \\  /    A nd           | Version:  dev
     \\/     M anipulation  |
\*---------------------------------------------------------------------------*/
FoamFile
{
    version     2.0;
    format      ascii;
    class       volScalarField;
    location    "2500";
    object      k;
}
// * * * * * * * * * * * * * * * * * * * * * * * * * * * * * * * * * * * * * //

dimensions      [0 2 -2 0 0 0 0];

internalField   nonuniform List<scalar> 
9834
(
0.000150364
0.000157212
0.00013948
0.000140365
0.00018815
0.000114866
0.000120748
0.000203339
0.000165864
0.000105599
0.000112303
0.000197963
0.000198922
0.00012878
0.000102354
0.000106752
0.000178801
0.00021905
0.000169636
0.000111437
0.000101028
0.000103409
0.000152307
0.000223837
0.000204519
0.000131566
0.000104378
0.000100325
0.00010126
0.000133292
0.000217673
0.000223352
0.000166377
0.000112268
0.00010129
9.96557e-05
9.9616e-05
0.00012004
0.000200345
0.000236533
0.000201937
0.000130711
0.00010403
9.95742e-05
9.9315e-05
9.82502e-05
0.000110674
0.000172965
0.00023886
0.000225894
0.000159821
0.000111541
0.000100246
9.81305e-05
9.91999e-05
9.74499e-05
0.000104795
0.000147809
0.000233232
0.000238602
0.000192612
0.000128375
0.000103104
9.81113e-05
9.72182e-05
9.91698e-05
9.69975e-05
0.000101096
0.000130674
0.000218271
0.000249312
0.000220316
0.000152596
0.000110948
9.90117e-05
9.64716e-05
9.6754e-05
9.91673e-05
9.66882e-05
9.87386e-05
0.000118412
0.000192225
0.000252132
0.000239687
0.000180773
0.000125054
0.000102313
9.66497e-05
9.52426e-05
9.65518e-05
9.91879e-05
9.65479e-05
9.72097e-05
0.000110029
0.000165546
0.000248073
0.000250129
0.000209206
0.000144889
0.000109969
9.79063e-05
9.4983e-05
9.44487e-05
9.6526e-05
9.92172e-05
9.65288e-05
9.62323e-05
0.000104519
0.000144179
0.000235751
0.000260432
0.000232595
0.000168798
0.000121671
0.00010171
9.53437e-05
9.36226e-05
9.40235e-05
9.66041e-05
9.92487e-05
9.64716e-05
9.55523e-05
0.000100999
0.000129241
0.00021258
0.000264379
0.000249511
0.000195009
0.000137256
0.000108711
9.69709e-05
9.36183e-05
9.26447e-05
9.38685e-05
9.67289e-05
9.93106e-05
9.64607e-05
9.51009e-05
9.88187e-05
0.000118677
0.000185795
0.000261891
0.000260918
0.000219825
0.00015773
0.000117955
0.000101105
9.42036e-05
9.22955e-05
9.20189e-05
9.3888e-05
9.69032e-05
9.94031e-05
9.65211e-05
9.48418e-05
9.7465e-05
0.000111628
0.000161824
0.000252317
0.000270903
0.000241232
0.000180678
0.000130735
0.000107163
9.62478e-05
9.24287e-05
9.12411e-05
9.16694e-05
9.40572e-05
9.71115e-05
9.95114e-05
9.66144e-05
9.47511e-05
9.66447e-05
0.000107107
0.000143701
0.000231273
0.000275925
0.000258742
0.000204502
0.000147265
0.000114732
0.000100489
9.32885e-05
9.11302e-05
9.04862e-05
9.15777e-05
9.43345e-05
9.73459e-05
9.96246e-05
9.67388e-05
9.47721e-05
9.61865e-05
0.000104254
0.000131285
0.000205774
0.000274493
0.000270334
0.000227548
0.000167702
0.000124961
0.000105483
9.58243e-05
9.14013e-05
9.00964e-05
9.00262e-05
9.17185e-05
9.46679e-05
9.7667e-05
9.9732e-05
9.69073e-05
9.48722e-05
9.59799e-05
0.00010243
0.000122988
0.000181317
0.000267133
0.000279717
0.000248726
0.000189867
0.00013876
0.000112045
9.94906e-05
9.26102e-05
9.01171e-05
8.93413e-05
8.9853e-05
9.20384e-05
9.50624e-05
9.8071e-05
9.98327e-05
9.71152e-05
9.50197e-05
9.59195e-05
0.000101238
0.000117553
0.00016162
0.000249582
0.000286198
0.000266016
0.000212609
0.000156205
0.000120308
0.000104163
9.53005e-05
9.06097e-05
8.91849e-05
8.88752e-05
8.99711e-05
9.24931e-05
9.55406e-05
9.85139e-05
9.99256e-05
9.73621e-05
9.52091e-05
9.59074e-05
0.000100411
0.000113808
0.000147024
0.000226161
0.000286266
0.0002782
0.000234248
0.000176751
0.000131775
0.000109549
9.87651e-05
9.22766e-05
8.93393e-05
8.85283e-05
8.8733e-05
9.0322e-05
9.30604e-05
9.60982e-05
9.89647e-05
9.99998e-05
9.76446e-05
9.54415e-05
9.59304e-05
9.97841e-05
0.000111041
0.000136922
0.000202029
0.000282033
0.000287897
0.000254222
0.00019807
0.000146753
0.000116884
0.000102832
9.49091e-05
9.01962e-05
8.85348e-05
8.82064e-05
8.89159e-05
9.08982e-05
9.37491e-05
9.67264e-05
9.93463e-05
0.000100051
9.79371e-05
9.56962e-05
9.6001e-05
9.93263e-05
0.000108959
0.000130138
0.000180834
0.000269369
0.00029663
0.000272355
0.000219591
0.000164863
0.000126412
0.000108042
9.82073e-05
9.21852e-05
8.89554e-05
8.81278e-05
8.82707e-05
8.9388e-05
9.16828e-05
9.45507e-05
9.73951e-05
9.96186e-05
0.000100065
9.82061e-05
9.59629e-05
9.61144e-05
9.90211e-05
0.000107445
0.000125466
0.000164326
0.000247784
0.000299245
0.00028613
0.000240323
0.000185324
0.000139367
0.000114426
0.000102306
9.49594e-05
9.0359e-05
8.83532e-05
8.81622e-05
8.86954e-05
9.01851e-05
9.26571e-05
9.54381e-05
9.80032e-05
9.97608e-05
0.000100019
9.84432e-05
9.62296e-05
9.62639e-05
9.88241e-05
0.000106365
0.000122062
0.000152474
0.000224324
0.000297346
0.000296887
0.000259709
0.000206211
0.00015556
0.000123124
0.000107339
9.8378e-05
9.27917e-05
8.93473e-05
8.83373e-05
8.86391e-05
8.95851e-05
9.12931e-05
9.37594e-05
9.63347e-05
9.84894e-05
9.97439e-05
9.99364e-05
9.865e-05
9.65133e-05
9.64433e-05
9.87014e-05
0.000105538
0.00011944
0.000144299
0.000202417
0.000289723
0.00030771
0.000278947
0.000227153
0.000174189
0.00013429
0.000113731
0.000102832
9.58432e-05
9.15589e-05
8.91642e-05
8.88753e-05
8.96434e-05
9.10211e-05
9.28051e-05
9.49031e-05
9.70059e-05
9.86134e-05
9.95325e-05
9.98175e-05
9.88245e-05
9.67812e-05
9.662e-05
9.86214e-05
0.000104813
0.000117389
0.000138555
0.000184458
0.000271916
0.000314304
0.000294873
0.000247538
0.000194801
0.000148644
0.000121805
0.000108275
9.99993e-05
9.45502e-05
9.13109e-05
8.98094e-05
9.00743e-05
9.12754e-05
9.29174e-05
9.47569e-05
9.63837e-05
9.76027e-05
9.82647e-05
9.89279e-05
9.96874e-05
9.89787e-05
9.6997e-05
9.67204e-05
9.85168e-05
0.000104143
0.000115788
0.000134384
0.000170776
0.000250245
0.000315072
0.000307944
0.000267153
0.000215591
0.000166189
0.000132269
0.00011519
0.00010522
9.87301e-05
9.4636e-05
9.21979e-05
9.13526e-05
9.21356e-05
9.35761e-05
9.5227e-05
9.67059e-05
9.77696e-05
9.81863e-05
9.79871e-05
9.81312e-05
9.95492e-05
9.91097e-05
9.71817e-05
9.6732e-05
9.83329e-05
0.000103505
0.000114388
0.000131347
0.000160813
0.000228355
0.000312454
0.000321225
0.000287112
0.000236621
0.000185546
0.000145522
0.000123665
0.000111956
0.000104337
9.9323e-05
9.61198e-05
9.44034e-05
9.41726e-05
9.52164e-05
9.66168e-05
9.78639e-05
9.86773e-05
9.87706e-05
9.82196e-05
9.75318e-05
9.7424e-05
9.93289e-05
9.92074e-05
9.73405e-05
9.67e-05
9.81006e-05
0.000102861
0.000113088
0.000129029
0.000153721
0.00020886
0.00030227
0.000332725
0.000305832
0.000257449
0.000206873
0.000161338
0.000134232
0.000120167
0.000111732
0.00010584
0.00010194
9.96648e-05
9.86262e-05
9.86044e-05
9.95526e-05
0.000100461
0.000100854
0.000100516
9.93687e-05
9.79874e-05
9.70118e-05
9.71591e-05
9.91051e-05
9.92776e-05
9.74344e-05
9.66418e-05
9.78667e-05
0.000102239
0.00011188
0.000127175
0.000148718
0.000193022
0.000283268
0.000338905
0.000322361
0.000277604
0.000228407
0.000180176
0.00014693
0.000130263
0.000121002
0.000114738
0.000110552
0.0001079
0.000106359
0.000105485
0.000105126
0.000105419
0.000105542
0.000104498
0.000102295
9.96949e-05
9.76486e-05
9.69998e-05
9.78414e-05
9.92251e-05
9.93102e-05
9.74597e-05
9.65341e-05
9.76479e-05
0.000101699
0.000110792
0.000125527
0.000145111
0.000180753
0.000262364
0.00034009
0.000338783
0.000298576
0.000249454
0.000200511
0.000162027
0.000142333
0.000132397
0.000126569
0.000122966
0.0001207
0.000118961
0.000117282
0.000115842
0.000113825
0.000112107
0.000110527
0.000107844
0.000104104
0.000100129
9.78924e-05
9.80957e-05
9.94012e-05
9.97269e-05
9.9701e-05
9.92971e-05
9.74386e-05
9.63847e-05
9.7415e-05
0.000101213
0.000109867
0.000124009
0.000142458
0.000171444
0.00024126
0.000337509
0.000355362
0.000320083
0.000270867
0.00022173
0.000178922
0.000156081
0.000145961
0.000141686
0.000140455
0.000140556
0.000140613
0.000138436
0.000133266
0.000127177
0.000122069
0.000118353
0.00011502
0.000110535
0.000105448
0.00010094
9.9412e-05
0.000100796
0.000100151
0.000101668
9.99074e-05
0.000100092
9.92511e-05
9.7385e-05
9.62464e-05
9.71499e-05
0.000100741
0.000109013
0.000122608
0.000140363
0.000164491
0.000222212
0.000325822
0.000368496
0.000340562
0.000291906
0.000243621
0.000197243
0.000171063
0.000160825
0.00015988
0.000164147
0.00017098
0.000174977
0.000170342
0.000160402
0.000148663
0.000138433
0.000129476
0.000123191
0.000117977
0.000111897
0.000105777
0.00010222
0.000101558
0.000102617
0.000103474
0.000103399
0.000104961
0.000101084
0.000103191
0.000100015
0.000100462
9.91895e-05
9.72918e-05
9.61041e-05
9.68872e-05
0.000100271
0.000108161
0.000121307
0.000138596
0.000159461
0.000206311
0.000305346
0.000375656
0.000361004
0.000313403
0.000264663
0.000216894
0.000186595
0.000176246
0.00017999
0.000194529
0.000216782
0.000237549
0.000240889
0.000222992
0.000194461
0.00016933
0.000150285
0.000137373
0.000128358
0.000121885
0.000114298
0.000107919
0.000103855
0.0001051
0.000104441
0.000105417
0.000106442
0.000107154
0.000102057
0.000104717
0.000100103
0.000100829
9.91347e-05
9.71703e-05
9.59228e-05
9.66274e-05
9.97912e-05
0.000107356
0.000120073
0.000136862
0.000155771
0.000193342
0.000283412
0.000377443
0.000382281
0.000337013
0.000285499
0.000236896
0.000202479
0.000191352
0.000200373
0.000230611
0.000283827
0.000344747
0.000380867
0.00036512
0.000312214
0.000246241
0.000193819
0.000163374
0.000145056
0.000134049
0.000125114
0.000116707
0.000107622
0.00011073
0.000106023
0.00010735
0.000107594
0.000107255
0.000108675
0.000109433
0.000102957
0.000106142
0.000100164
0.000101104
9.90791e-05
9.70417e-05
9.57434e-05
9.63464e-05
9.93135e-05
0.000106582
0.00011891
0.000135003
0.000152951
0.00018346
0.000260939
0.000374516
0.000402128
0.000361552
0.00030736
0.000257334
0.000218232
0.000205412
0.000219103
0.000268406
0.000373218
0.000531495
0.000663103
0.000698219
0.000585498
0.00042525
0.000302909
0.000219234
0.000175651
0.000150877
0.00013614
0.000124262
0.0001157
0.000120276
0.000110092
0.000112655
0.000109092
0.000111114
0.000110126
0.000109222
0.000111385
0.000112073
0.000103729
0.000107613
0.000100188
0.000101298
9.89935e-05
9.691e-05
9.56293e-05
9.6056e-05
9.88394e-05
0.000105837
0.000117764
0.000133094
0.000150438
0.000175802
0.000240381
0.000360586
0.000416888
0.000386011
0.000329831
0.000278144
0.000233866
0.00021821
0.000234008
0.000301636
0.000469972
0.000784748
0.00116413
0.00142485
0.00133346
0.000964533
0.000566259
0.000344991
0.000239489
0.000183657
0.000154666
0.000134899
0.000126351
0.000131762
0.000117195
0.00012228
0.000113594
0.000116611
0.000111795
0.000114058
0.000113364
0.00011154
0.000114561
0.000114992
0.000104505
0.000109396
0.000100177
0.000101452
9.8853e-05
9.67669e-05
9.55827e-05
9.58073e-05
9.83773e-05
0.000105085
0.000116636
0.00013123
0.000147875
0.00016995
0.000222933
0.000337658
0.000424512
0.000410935
0.000353898
0.000298321
0.000249654
0.000229501
0.000244511
0.00032443
0.00055042
0.00103495
0.00172311
0.00217444
0.00219983
0.00190746
0.00132324
0.000695765
0.000380548
0.000251933
0.000190637
0.000156463
0.000138741
0.00014813
0.000129573
0.000139552
0.000121199
0.000129814
0.00011696
0.000123129
0.000115256
0.000118948
0.000116875
0.000114122
0.000117883
0.000117723
0.000105417
0.000111595
0.000100126
0.000101564
9.86388e-05
9.65791e-05
9.5552e-05
9.56344e-05
9.7996e-05
0.000104318
0.000115599
0.000129382
0.000145287
0.000165448
0.000208634
0.000313025
0.000425897
0.00043552
0.000380686
0.000318949
0.000266125
0.000239106
0.000250364
0.000334429
0.000598647
0.00122378
0.00215345
0.00259279
0.00261874
0.00249461
0.00213621
0.00150494
0.000761198
0.000397262
0.000261329
0.000197718
0.000161259
0.000193137
0.000155416
0.000188228
0.000148417
0.000191288
0.000138886
0.000181184
0.000128833
0.00015866
0.000121835
0.000137053
0.000124234
0.0001159
0.000125249
0.000124166
0.000106968
0.000112445
0.000100017
0.000101708
9.83343e-05
9.63141e-05
9.54779e-05
9.54893e-05
9.77277e-05
0.000103686
0.000114607
0.000127689
0.000142813
0.00016182
0.000197132
0.000287998
0.00042182
0.000456857
0.000408705
0.000341472
0.000283769
0.000247675
0.000252017
0.000332368
0.000609838
0.00132731
0.00239463
0.00274988
0.00273199
0.00259005
0.00244088
0.00210583
0.00149439
0.000751355
0.000402362
0.000283994
0.000226858
0.000280328
0.000250219
0.000383578
0.000284473
0.000473014
0.000285209
0.000526261
0.000246495
0.00047592
0.000189479
0.00034906
0.000145671
0.000224746
0.00015163
0.000120538
0.000152521
0.000147137
0.000107528
0.000115226
9.99255e-05
0.000101805
9.79487e-05
9.59637e-05
9.53222e-05
9.53031e-05
9.7499e-05
0.000103269
0.000113714
0.000126329
0.000140554
0.00015885
0.000188006
0.000264692
0.00040559
0.000471519
0.000436029
0.000365879
0.000302567
0.000255887
0.000251657
0.000318868
0.000591939
0.00133626
0.00250119
0.00283565
0.00267927
0.00247762
0.00245847
0.00234588
0.0019671
0.00138854
0.000726769
0.000424697
0.00036957
0.00046163
0.00052324
0.000808817
0.000847506
0.00136104
0.00103045
0.00186451
0.000988859
0.00202183
0.000781246
0.00173533
0.000480293
0.00116973
0.000257356
0.000620977
0.000274369
0.000136927
0.00026803
0.000238869
0.000107831
0.000124224
0.00010006
0.000101886
9.7529e-05
9.55723e-05
9.50979e-05
9.50858e-05
9.72615e-05
0.000102994
0.000113074
0.000125314
0.000138673
0.000156362
0.000181005
0.000244463
0.000380187
0.000477866
0.000462647
0.000392291
0.000322075
0.000265869
0.000251205
0.000298096
0.000530114
0.00127158
0.00252099
0.00288939
0.0026365
0.00224154
0.00236752
0.00244753
0.00225025
0.00175499
0.00122672
0.000761841
0.000668354
0.000475773
0.00101658
0.00144431
0.00205551
0.0028347
0.00294037
0.00408949
0.00336431
0.00483658
0.00327106
0.00493698
0.00264955
0.00448845
0.00157462
0.00352533
0.000729758
0.00195477
0.000761901
0.000197648
0.00070167
0.000565675
0.000111091
0.000157552
0.000100574
0.000103783
9.72669e-05
9.52611e-05
9.48666e-05
9.49032e-05
9.70726e-05
0.000102847
0.00011267
0.000124588
0.000137162
0.000154209
0.000176026
0.000227969
0.000351904
0.000477908
0.000487778
0.000421373
0.000342878
0.000279091
0.000251204
0.000278703
0.000456919
0.00110247
0.00245667
0.00294018
0.00268225
0.00206319
0.00215776
0.00247962
0.00255806
0.00210237
0.00153604
0.00130265
0.00199978
0.00173315
0.00257335
0.00365361
0.00447984
0.00529851
0.00638414
0.00623527
0.0074073
0.00647496
0.00768441
0.00620623
0.00750727
0.00545261
0.00699732
0.00415696
0.00603871
0.00216751
0.00447767
0.00214746
0.000409702
0.00187609
0.00145603
0.000124951
0.000269256
0.000101436
0.000108892
9.79217e-05
9.54527e-05
9.48289e-05
9.48553e-05
9.69986e-05
0.000102921
0.000112459
0.00012404
0.000136013
0.000152394
0.000172542
0.000215136
0.000323435
0.000471649
0.000508169
0.000451652
0.000366285
0.00029483
0.00025212
0.000262658
0.000390578
0.000903247
0.00221558
0.00299167
0.00283546
0.00200864
0.00197014
0.00244577
0.00290094
0.00264281
0.00194627
0.00170337
0.00293545
0.00635849
0.0069716
0.00524337
0.0059628
0.00731823
0.00806173
0.00828141
0.00890312
0.00850892
0.00906417
0.00839491
0.0089731
0.00805239
0.00875116
0.00741563
0.00830507
0.0063088
0.0075682
0.00454017
0.00634755
0.00438383
0.0010313
0.00396591
0.00332331
0.000173518
0.000625388
0.000102667
0.000123553
0.000102319
9.81815e-05
9.54994e-05
9.50789e-05
9.71207e-05
0.000103188
0.000112545
0.000123535
0.000135122
0.000150946
0.000170007
0.000205338
0.00029768
0.000452535
0.000520448
0.000479688
0.000392526
0.00031247
0.000255316
0.000250988
0.00033507
0.000721517
0.00184223
0.00299898
0.00302325
0.002142
0.00183636
0.00236642
0.00324438
0.00334048
0.00271002
0.00232585
0.00382584
0.00720634
0.00766649
0.00923067
0.0093956
0.00860582
0.00899516
0.00934653
0.00962836
0.00941556
0.00961008
0.00932012
0.00951891
0.00918042
0.00945566
0.00891218
0.00942919
0.00846449
0.00917627
0.0076384
0.00864117
0.00626071
0.00762695
0.00605355
0.00248116
0.00570491
0.00526405
0.000335699
0.00154551
0.000103566
0.000182776
0.000118611
0.000111785
9.89414e-05
9.59054e-05
9.75447e-05
0.000103742
0.00011281
0.000123169
0.000134535
0.000149675
0.000168153
0.000197892
0.000275627
0.000427426
0.000524462
0.000504118
0.000420465
0.00033206
0.00026347
0.000243141
0.000292035
0.000567744
0.00147664
0.00288339
0.00318593
0.00262112
0.00179375
0.0021977
0.003488
0.00413195
0.00371246
0.00338632
0.00490667
0.00786834
0.00804965
0.00947305
0.00949387
0.00994974
0.009919
0.00981284
0.009932
0.00972266
0.00972798
0.00958344
0.00958254
0.00968419
0.0098745
0.00995323
0.0105613
0.0100838
0.0112026
0.00981951
0.0112525
0.00896505
0.0106243
0.00764755
0.00920299
0.00757139
0.00464853
0.00739902
0.00722712
0.000949641
0.00390861
0.000110786
0.000593359
0.000138444
0.000144125
0.000112989
9.90572e-05
9.84323e-05
0.0001046
0.000113258
0.000122971
0.000134196
0.000148626
0.000166781
0.00019233
0.000257357
0.000399587
0.000523775
0.000525804
0.000449274
0.000353666
0.000275927
0.0002382
0.000260738
0.000446231
0.00114732
0.00254523
0.00329385
0.00312323
0.0018731
0.00191355
0.00346926
0.00490115
0.00479251
0.00461742
0.0059894
0.00885302
0.00945946
0.00956658
0.00984228
0.00968446
0.009505
0.00937016
0.00969994
0.00962556
0.00957206
0.00954305
0.0100614
0.0102574
0.0112547
0.0119293
0.0125411
0.0140563
0.0133223
0.0157101
0.0129726
0.0160868
0.0115448
0.0148581
0.00953691
0.0123172
0.00964733
0.00706374
0.00960184
0.00949737
0.00329231
0.00743002
0.000518169
0.00368136
0.00015337
0.000147359
0.000110972
0.000100539
0.000105332
0.000113753
0.000122835
0.000134098
0.000147946
0.000165705
0.000188452
0.000242819
0.000370769
0.000517645
0.000543976
0.000478138
0.00037727
0.000291208
0.000236577
0.000239452
0.000355785
0.000866589
0.00212572
0.00326284
0.00345291
0.00239566
0.0016988
0.00302273
0.00533334
0.0059166
0.00575988
0.0069
0.008756
0.00907823
0.00894915
0.00952125
0.00934394
0.00921586
0.00906471
0.00937101
0.00929828
0.00949704
0.00943855
0.0104659
0.0106728
0.0126142
0.0133319
0.0155705
0.0168461
0.0178487
0.0192206
0.0188117
0.0201779
0.0183919
0.020293
0.0163978
0.019429
0.0128495
0.0172656
0.0129233
0.0096889
0.0126336
0.0122168
0.009726
0.0110937
0.016912
0.0208582
0.000157976
0.000141773
0.00010673
0.000105594
0.000113812
0.000122834
0.000134151
0.00014753
0.000164992
0.000185659
0.000231741
0.000343971
0.000501132
0.000555979
0.00050496
0.000402915
0.000308628
0.000239043
0.000225822
0.000291891
0.000644319
0.00169548
0.00305896
0.00362401
0.00315721
0.00165237
0.00221126
0.00520232
0.00689041
0.00688323
0.00761068
0.0086584
0.00853896
0.00864537
0.00856328
0.00889977
0.00878153
0.009224
0.00916674
0.011058
0.0111368
0.0108385
0.0109579
0.0140172
0.0146067
0.017793
0.0184167
0.0198758
0.0200891
0.0206816
0.0207456
0.0210085
0.020865
0.0207553
0.0208988
0.0198653
0.0206304
0.0173928
0.0198978
0.0168165
0.0119659
0.0160016
0.0151407
0.013345
0.0141892
0.0120931
0.0116541
0.018576
0.0232538
0.000158269
0.000123502
0.00010761
0.000113106
0.000122606
0.000134281
0.000147327
0.000164281
0.000183848
0.000223061
0.00032122
0.000480975
0.000561229
0.000527578
0.000429919
0.000328119
0.000248648
0.000217034
0.000249168
0.000478914
0.001297
0.00268633
0.00362843
0.00366492
0.00195393
0.00161468
0.00412056
0.00726305
0.00796884
0.00819507
0.00866742
0.00840936
0.00919119
0.0092382
0.00912233
0.00913913
0.00914132
0.00912503
0.0112086
0.0112796
0.0155166
0.0155511
0.0150449
0.0153449
0.0188224
0.019055
0.0201759
0.0201728
0.020418
0.019804
0.0199993
0.0182704
0.0195372
0.0170572
0.0196147
0.0168524
0.0201456
0.017375
0.0195711
0.0193073
0.0198429
0.017919
0.0191868
0.0145599
0.012186
0.0135765
0.0167738
0.0182723
0.0188198
0.0161837
0.01415
0.0119455
0.0118318
0.0116543
0.00856727
0.01239
0.0186446
0.013627
0.000151931
0.000111428
0.000110692
0.000121647
0.000134232
0.000146716
0.000163903
0.000181948
0.00021682
0.000302413
0.00046021
0.000562141
0.000546101
0.000457328
0.000349507
0.000261668
0.000212224
0.000221479
0.000362905
0.000959153
0.00225643
0.0034742
0.00390394
0.00282036
0.00141301
0.00253824
0.00682099
0.00863779
0.00892032
0.00876337
0.00844602
0.00926245
0.00914452
0.0114538
0.0113884
0.0114481
0.0114708
0.0113605
0.0114185
0.015502
0.0153895
0.0188451
0.0185145
0.0191013
0.0190365
0.0201285
0.0200117
0.0190067
0.0182962
0.0164134
0.01475
0.0148421
0.0135044
0.0141794
0.0131999
0.0162199
0.0146019
0.0135152
0.0128198
0.0178388
0.0159305
0.0133713
0.0125472
0.0139926
0.0190645
0.0193699
0.0186936
0.0173465
0.0191546
0.0152818
0.0125778
0.0141641
0.017598
0.0182378
0.0187601
0.0168225
0.0111805
0.0112841
0.0117332
0.0085278
0.0504726
0.0196206
0.0114533
0.0132637
0.000132822
0.00011076
0.000118179
0.00013346
0.00014612
0.000162833
0.000181165
0.000211301
0.000287989
0.000439244
0.000561253
0.00056244
0.000483953
0.000372456
0.000276955
0.000211918
0.000203669
0.000284842
0.000695403
0.00181278
0.003127
0.00395559
0.00358376
0.00150327
0.0015378
0.00478155
0.00861947
0.00952641
0.00916412
0.00861243
0.00997842
0.0112332
0.0113347
0.0141246
0.0137209
0.0147456
0.014458
0.0152253
0.0149971
0.0181152
0.0176794
0.0191642
0.0187247
0.0198168
0.0195336
0.0177173
0.0172723
0.013461
0.0125174
0.0124457
0.0113933
0.0128567
0.0125017
0.0125994
0.0126521
0.0127817
0.0130672
0.0124546
0.0121099
0.0121146
0.0152717
0.0132133
0.0117805
0.0112491
0.0118178
0.0170054
0.0184787
0.0167552
0.0147881
0.0182841
0.0158178
0.0130543
0.0146832
0.0176466
0.0180226
0.017671
0.0168985
0.0111583
0.0110452
0.0121618
0.0283326
0.0394198
0.0232961
0.0115053
0.0136612
0.000122048
0.00011486
0.000130971
0.000144573
0.000162094
0.000179583
0.000208166
0.000275853
0.000420066
0.000557279
0.000577561
0.000509148
0.000396602
0.00029424
0.000216478
0.000192117
0.000233575
0.000503068
0.0013972
0.00273598
0.00387622
0.00401674
0.00218486
0.00118937
0.00263443
0.00740056
0.00956525
0.00986784
0.00910774
0.00993084
0.0122885
0.0118465
0.0132909
0.0128722
0.0153133
0.0147643
0.0163076
0.0158257
0.0172261
0.0167655
0.0182483
0.0177673
0.0164552
0.0162535
0.016946
0.0166866
0.0118958
0.0115639
0.0104109
0.00951359
0.0118995
0.0109849
0.0133555
0.0136206
0.0137284
0.0136664
0.0123571
0.0127881
0.0133825
0.0139696
0.011623
0.0117718
0.0122322
0.0126859
0.0113359
0.0112075
0.0108649
0.0108657
0.0144866
0.0166869
0.0143635
0.0123087
0.0166396
0.0160058
0.0136131
0.0150206
0.0171797
0.0165815
0.0164685
0.0165066
0.0116605
0.0114833
0.0128355
0.0243337
0.0182339
0.0257353
0.0117624
0.0132666
0.000121243
0.000125583
0.000142522
0.000160566
0.000178983
0.000204926
0.000267749
0.000402352
0.000551458
0.00059145
0.000532608
0.000421713
0.00031379
0.000227612
0.00018572
0.000200847
0.00036976
0.00104158
0.00233227
0.00357856
0.00416709
0.0031382
0.00117106
0.00144136
0.0045484
0.0088797
0.00998904
0.00993156
0.010044
0.0115826
0.0130088
0.0125812
0.014194
0.0136525
0.0153287
0.0147545
0.016359
0.0158616
0.0172941
0.016829
0.0160531
0.0158678
0.0117608
0.0121121
0.0114527
0.011539
0.0087904
0.00822334
0.00994808
0.00897673
0.0134383
0.0129816
0.0124748
0.0117968
0.0144783
0.0147915
0.0148797
0.0147233
0.0129371
0.0137359
0.0145168
0.0151918
0.01154
0.0121864
0.0130484
0.0109838
0.0105631
0.0113234
0.011123
0.0105954
0.0120992
0.0143922
0.0120395
0.0107377
0.0145111
0.0157566
0.0141209
0.015019
0.0162185
0.0146781
0.0148133
0.0157896
0.0123843
0.0120106
0.0134747
0.0157438
0.0177617
0.0267924
0.0121228
0.0142436
0.000126655
0.000138496
0.000158157
0.000178524
0.000203319
0.00026139
0.000388731
0.000546031
0.000604769
0.000555472
0.000447373
0.000335752
0.00024219
0.000184611
0.000181541
0.000281956
0.000762955
0.00192383
0.00319014
0.00416931
0.00382364
0.00153489
0.00100487
0.0024545
0.00639274
0.00952189
0.0101366
0.0103387
0.0111257
0.011763
0.0115703
0.012982
0.0124091
0.0141595
0.0135484
0.0144073
0.0139237
0.0151578
0.0148125
0.0156715
0.0154397
0.0125253
0.0129139
0.00773912
0.00848064
0.00775292
0.00750335
0.00815179
0.00736571
0.0110004
0.0097591
0.0143491
0.0137849
0.0131088
0.0123624
0.015682
0.0158996
0.0158574
0.0155398
0.013975
0.0148752
0.0156728
0.0163014
0.0121154
0.013066
0.0140724
0.0103256
0.0103641
0.0119843
0.0117968
0.0109145
0.0105822
0.0121328
0.0105076
0.0101331
0.0123672
0.015279
0.0144099
0.0147805
0.0148501
0.0127033
0.0130263
0.0147699
0.0130086
0.0126037
0.013929
0.00255566
0.0203441
0.0243346
0.0132128
0.0161534
0.000136805
0.00015638
0.000176654
0.000203207
0.000256917
0.000379227
0.000542682
0.000619668
0.000577688
0.000475264
0.000358689
0.000261522
0.000187599
0.000171977
0.000229381
0.000565981
0.00154918
0.00281698
0.00406473
0.00421389
0.00242587
0.000896285
0.00130245
0.00382349
0.00748523
0.00975567
0.0103203
0.0107275
0.0110983
0.0114109
0.0111997
0.0123558
0.0118871
0.013396
0.0128487
0.0130131
0.0127115
0.0133391
0.0132324
0.0131923
0.0133317
0.00940772
0.0102655
0.00544407
0.00610404
0.00630253
0.00555041
0.00860777
0.00729724
0.0118049
0.0110881
0.0100056
0.0105565
0.0149665
0.0141896
0.0133267
0.0125133
0.0166826
0.016758
0.0165485
0.0160241
0.0150422
0.0159207
0.0166539
0.0171912
0.0129883
0.0140293
0.0150379
0.010157
0.0106868
0.0128218
0.0125876
0.0115623
0.00997821
0.0105267
0.00986467
0.00996199
0.0106535
0.0146133
0.0143978
0.0144385
0.0133361
0.0109702
0.011401
0.0135941
0.0135545
0.0134396
0.0141618
0.00231934
0.0216695
0.0243518
0.0147555
0.0172675
0.000151094
0.000175676
0.000202046
0.000256595
0.000371166
0.000543436
0.000634097
0.000605441
0.000502171
0.000386225
0.000281762
0.00019996
0.000170081
0.000203928
0.000447684
0.00125704
0.00249617
0.0037755
0.00437454
0.0032814
0.00104367
0.000814832
0.00206341
0.00476665
0.00790197
0.00981783
0.010324
0.0104632
0.0105796
0.0105431
0.010908
0.0106829
0.0115232
0.0111873
0.012337
0.0119146
0.0116905
0.011567
0.0116226
0.0117143
0.010927
0.0113734
0.00714364
0.00816951
0.00393279
0.00412641
0.00563255
0.00426439
0.00942508
0.00869776
0.0074035
0.0116435
0.0110341
0.0100137
0.0105354
0.0152242
0.0142501
0.0132709
0.0123786
0.0174134
0.0173664
0.0169838
0.0162527
0.0159597
0.0167593
0.0174023
0.0178288
0.0138739
0.0148881
0.015825
0.0104353
0.0112863
0.0136338
0.0133377
0.0123142
0.00978794
0.00981171
0.00964501
0.0101794
0.00983467
0.0138107
0.0143266
0.0140222
0.0119296
0.00995824
0.0102377
0.0124721
0.0140919
0.0144651
0.0143431
0.00444321
0.0203419
0.0292337
0.0158163
0.0172728
0.00017137
0.000202181
0.000256037
0.000370825
0.000545652
0.00065763
0.000632358
0.000537385
0.00041111
0.00030923
0.00021638
0.000173377
0.000198623
0.000401031
0.00108884
0.0022476
0.00346546
0.00440607
0.00391578
0.00160625
0.000652599
0.00105406
0.00266024
0.00511729
0.00787975
0.00941386
0.00993008
0.0101371
0.0102462
0.0102193
0.0104932
0.0103643
0.0108489
0.0106446
0.0113676
0.0111033
0.0105615
0.0106153
0.0101154
0.010404
0.00902375
0.0096614
0.00499018
0.00597934
0.00241641
0.00232203
0.00496281
0.00302481
0.00942759
0.00870495
0.00746473
0.00628302
0.0112774
0.0107547
0.00987937
0.0103282
0.0152471
0.0140786
0.0129444
0.0119932
0.0179141
0.0177745
0.0172271
0.0163516
0.0166542
0.0173596
0.0179027
0.0182167
0.0146337
0.015556
0.0163789
0.0109836
0.0120145
0.0143107
0.0139536
0.0130202
0.00993686
0.00955731
0.00972066
0.0106622
0.00950379
0.0130401
0.0142764
0.0136238
0.0108282
0.00952546
0.00973454
0.0116095
0.014613
0.0153221
0.0145959
0.0160566
0.0188702
0.0256494
0.0163299
0.016694
0.00019972
0.000257883
0.000371155
0.000552853
0.000676939
0.000675315
0.000569495
0.000447844
0.000331977
0.000249731
0.000189139
0.000208187
0.000401957
0.0010448
0.00212328
0.00322667
0.00439011
0.00432868
0.00236914
0.000693589
0.000609413
0.00133252
0.00286498
0.00513943
0.00723753
0.00879206
0.00936244
0.0094507
0.0090191
0.00995049
0.00975851
0.0101785
0.0100821
0.0103756
0.0102692
0.0105869
0.0104954
0.00922776
0.00946901
0.00836736
0.00886585
0.00691722
0.00771922
0.00266235
0.00338615
0.00157166
0.00138367
0.00500449
0.00370539
0.00231124
0.00929264
0.00850099
0.00703288
0.00587355
0.0107734
0.0103215
0.00956354
0.0099693
0.0151603
0.0137911
0.0124806
0.0114648
0.0182585
0.0180188
0.0174415
0.0164939
0.0170799
0.0176634
0.018128
0.0184321
0.0152002
0.0159855
0.0166593
0.0116963
0.012696
0.0147933
0.0143745
0.0135947
0.0103405
0.00952195
0.010013
0.0113595
0.00941599
0.012455
0.0142361
0.0133804
0.0102423
0.00945608
0.0096626
0.0111287
0.0150952
0.0158672
0.0148187
0.00483383
0.0179384
0.0236271
0.0165335
0.0166151
0.000256229
0.000377303
0.000560491
0.000712854
0.000713636
0.000619303
0.000481314
0.000381098
0.000287556
0.000234725
0.000263095
0.000460249
0.00106836
0.00210727
0.00311829
0.00432127
0.0045669
0.00307726
0.000918221
0.000465294
0.00067215
0.0014125
0.00287373
0.00466973
0.00637184
0.00742778
0.00679901
0.00816656
0.00726637
0.00916727
0.00877516
0.00953757
0.00939974
0.00966391
0.00961903
0.00960829
0.00967109
0.00707975
0.00750026
0.00588998
0.00654436
0.00424633
0.00513812
0.00135621
0.0015275
0.00144001
0.00120403
0.00107379
0.00466022
0.00349048
0.00175101
0.00246501
0.00890054
0.0080603
0.00658345
0.00547846
0.0102268
0.0098245
0.00912729
0.00952922
0.0151626
0.0136263
0.012143
0.0109531
0.0184653
0.0182091
0.0175921
0.0166823
0.0172455
0.0177623
0.0182112
0.0185339
0.0155202
0.0161501
0.0167333
0.0123722
0.0132506
0.0150305
0.0145423
0.0139731
0.0109839
0.0097211
0.0105666
0.0120298
0.00952489
0.0122138
0.0142629
0.0133665
0.0101739
0.00955872
0.00986278
0.0111077
0.0154857
0.0163089
0.0150317
0.00318676
0.0195277
0.0168441
0.0168881
0.0180678
0.000377057
0.000580118
0.000739853
0.000773812
0.000669312
0.000537726
0.00042761
0.000373858
0.000351267
0.000451415
0.00069366
0.00122047
0.00214209
0.00310822
0.00428991
0.00470618
0.00362563
0.00126648
0.000461024
0.000416824
0.000687708
0.00139452
0.00249981
0.00370424
0.00436107
0.00384243
0.00360547
0.00293795
0.00577607
0.00469846
0.00727175
0.00665305
0.00790439
0.00767104
0.00803058
0.00801847
0.00779773
0.00795751
0.00408561
0.0045342
0.0029655
0.00355397
0.00187276
0.0023692
0.000969249
0.000950838
0.00141873