/*--------------------------------*- C++ -*----------------------------------*\
  =========                 |
  \\      /  F ield         | OpenFOAM: The Open Source CFD Toolbox
   \\    /   O peration     | Website:  https://openfoam.org
    \\  /    A nd           | Version:  dev
     \\/     M anipulation  |
\*---------------------------------------------------------------------------*/
FoamFile
{
    version     2.0;
    format      ascii;
    class       volScalarField;
    location    "2500";
    object      N2;
}
// * * * * * * * * * * * * * * * * * * * * * * * * * * * * * * * * * * * * * //

dimensions      [0 0 0 0 0 0 0];

internalField   nonuniform List<scalar> 
9834
(
0.76699
0.76699
0.76699
0.76699
0.76699
0.76699
0.76699
0.76699
0.76699
0.76699
0.76699
0.76699
0.76699
0.76699
0.76699
0.76699
0.76699
0.76699
0.76699
0.76699
0.76699
0.76699
0.76699
0.76699
0.76699
0.76699
0.76699
0.76699
0.76699
0.76699
0.76699
0.76699
0.76699
0.76699
0.76699
0.76699
0.76699
0.76699
0.76699
0.76699
0.76699
0.76699
0.76699
0.76699
0.76699
0.76699
0.76699
0.76699
0.76699
0.76699
0.76699
0.76699
0.76699
0.76699
0.76699
0.76699
0.76699
0.76699
0.76699
0.76699
0.76699
0.76699
0.76699
0.76699
0.76699
0.76699
0.76699
0.76699
0.76699
0.76699
0.76699
0.76699
0.76699
0.76699
0.76699
0.76699
0.76699
0.76699
0.76699
0.76699
0.76699
0.76699
0.76699
0.76699
0.76699
0.76699
0.76699
0.76699
0.76699
0.76699
0.76699
0.76699
0.76699
0.76699
0.76699
0.76699
0.76699
0.76699
0.76699
0.76699
0.76699
0.76699
0.76699
0.76699
0.76699
0.76699
0.76699
0.76699
0.76699
0.76699
0.76699
0.76699
0.76699
0.76699
0.76699
0.76699
0.76699
0.76699
0.76699
0.76699
0.76699
0.76699
0.76699
0.76699
0.76699
0.76699
0.76699
0.76699
0.76699
0.76699
0.76699
0.76699
0.76699
0.76699
0.76699
0.76699
0.76699
0.76699
0.76699
0.76699
0.76699
0.76699
0.76699
0.76699
0.76699
0.76699
0.76699
0.76699
0.76699
0.76699
0.76699
0.76699
0.76699
0.76699
0.76699
0.76699
0.76699
0.76699
0.76699
0.76699
0.76699
0.76699
0.76699
0.76699
0.76699
0.76699
0.76699
0.76699
0.76699
0.76699
0.76699
0.76699
0.76699
0.76699
0.76699
0.76699
0.76699
0.76699
0.76699
0.76699
0.76699
0.76699
0.76699
0.76699
0.76699
0.76699
0.76699
0.76699
0.76699
0.76699
0.76699
0.76699
0.76699
0.76699
0.76699
0.76699
0.76699
0.76699
0.76699
0.76699
0.76699
0.76699
0.76699
0.76699
0.76699
0.76699
0.76699
0.76699
0.76699
0.76699
0.76699
0.76699
0.76699
0.76699
0.76699
0.76699
0.76699
0.76699
0.76699
0.76699
0.76699
0.76699
0.76699
0.76699
0.76699
0.76699
0.76699
0.76699
0.76699
0.76699
0.76699
0.76699
0.76699
0.76699
0.76699
0.76699
0.76699
0.76699
0.76699
0.76699
0.76699
0.76699
0.76699
0.76699
0.76699
0.76699
0.76699
0.76699
0.76699
0.76699
0.76699
0.76699
0.76699
0.76699
0.76699
0.76699
0.76699
0.76699
0.76699
0.76699
0.76699
0.76699
0.76699
0.76699
0.76699
0.76699
0.76699
0.76699
0.76699
0.76699
0.76699
0.76699
0.76699
0.76699
0.76699
0.76699
0.76699
0.76699
0.76699
0.76699
0.76699
0.76699
0.76699
0.76699
0.76699
0.76699
0.76699
0.76699
0.76699
0.76699
0.76699
0.76699
0.76699
0.76699
0.76699
0.76699
0.76699
0.76699
0.76699
0.76699
0.76699
0.76699
0.76699
0.76699
0.76699
0.76699
0.76699
0.76699
0.76699
0.76699
0.76699
0.76699
0.76699
0.76699
0.76699
0.76699
0.76699
0.76699
0.76699
0.76699
0.76699
0.76699
0.76699
0.76699
0.76699
0.76699
0.76699
0.76699
0.76699
0.76699
0.76699
0.76699
0.76699
0.76699
0.76699
0.76699
0.76699
0.76699
0.76699
0.76699
0.76699
0.76699
0.76699
0.76699
0.76699
0.76699
0.76699
0.76699
0.76699
0.76699
0.76699
0.76699
0.76699
0.76699
0.76699
0.76699
0.76699
0.76699
0.76699
0.76699
0.76699
0.76699
0.76699
0.76699
0.76699
0.76699
0.76699
0.76699
0.76699
0.76699
0.76699
0.76699
0.76699
0.76699
0.76699
0.76699
0.76699
0.76699
0.76699
0.76699
0.76699
0.76699
0.76699
0.76699
0.76699
0.76699
0.76699
0.76699
0.76699
0.76699
0.76699
0.76699
0.76699
0.76699
0.76699
0.76699
0.76699
0.76699
0.76699
0.76699
0.76699
0.76699
0.76699
0.76699
0.76699
0.76699
0.76699
0.76699
0.76699
0.76699
0.76699
0.76699
0.76699
0.76699
0.76699
0.76699
0.76699
0.76699
0.76699
0.76699
0.76699
0.76699
0.76699
0.76699
0.76699
0.76699
0.76699
0.76699
0.76699
0.76699
0.76699
0.76699
0.76699
0.76699
0.76699
0.76699
0.76699
0.76699
0.76699
0.76699
0.76699
0.76699
0.76699
0.76699
0.76699
0.76699
0.76699
0.76699
0.76699
0.76699
0.76699
0.76699
0.76699
0.76699
0.76699
0.76699
0.76699
0.76699
0.76699
0.76699
0.76699
0.76699
0.76699
0.76699
0.76699
0.76699
0.76699
0.76699
0.76699
0.76699
0.76699
0.76699
0.76699
0.76699
0.76699
0.76699
0.76699
0.76699
0.76699
0.76699
0.76699
0.76699
0.76699
0.76699
0.76699
0.76699
0.76699
0.76699
0.76699
0.76699
0.76699
0.76699
0.76699
0.76699
0.76699
0.76699
0.76699
0.76699
0.76699
0.76699
0.76699
0.76699
0.76699
0.76699
0.76699
0.76699
0.76699
0.76699
0.76699
0.76699
0.76699
0.76699
0.76699
0.76699
0.76699
0.76699
0.76699
0.76699
0.76699
0.76699
0.76699
0.76699
0.76699
0.76699
0.76699
0.76699
0.76699
0.76699
0.76699
0.76699
0.76699
0.76699
0.76699
0.76699
0.76699
0.76699
0.76699
0.76699
0.76699
0.76699
0.76699
0.76699
0.76699
0.76699
0.76699
0.76699
0.76699
0.76699
0.76699
0.76699
0.76699
0.76699
0.76699
0.76699
0.76699
0.76699
0.76699
0.76699
0.76699
0.76699
0.76699
0.76699
0.76699
0.76699
0.76699
0.76699
0.76699
0.76699
0.76699
0.76699
0.76699
0.76699
0.76699
0.76699
0.76699
0.76699
0.76699
0.76699
0.76699
0.76699
0.76699
0.76699
0.76699
0.76699
0.76699
0.76699
0.76699
0.76699
0.76699
0.76699
0.76699
0.76699
0.76699
0.76699
0.76699
0.76699
0.76699
0.76699
0.76699
0.76699
0.76699
0.76699
0.76699
0.76699
0.76699
0.76699
0.76699
0.76699
0.76699
0.76699
0.76699
0.76699
0.76699
0.76699
0.76699
0.76699
0.76699
0.76699
0.76699
0.76699
0.76699
0.76699
0.76699
0.76699
0.76699
0.76699
0.76699
0.76699
0.76699
0.76699
0.76699
0.76699
0.76699
0.76699
0.76699
0.76699
0.76699
0.76699
0.76699
0.76699
0.76699
0.76699
0.76699
0.76699
0.76699
0.76699
0.76699
0.76699
0.76699
0.76699
0.76699
0.76699
0.76699
0.76699
0.76699
0.76699
0.76699
0.76699
0.76699
0.76699
0.76699
0.76699
0.76699
0.76699
0.76699
0.76699
0.76699
0.76699
0.76699
0.76699
0.76699
0.76699
0.76699
0.76699
0.76699
0.76699
0.76699
0.76699
0.76699
0.76699
0.76699
0.76699
0.76699
0.76699
0.76699
0.76699
0.76699
0.76699
0.76699
0.76699
0.76699
0.76699
0.76699
0.76699
0.76699
0.766989
0.766989
0.766989
0.76699
0.76699
0.76699
0.76699
0.76699
0.76699
0.76699
0.76699
0.76699
0.76699
0.76699
0.76699
0.76699
0.76699
0.76699
0.76699
0.76699
0.76699
0.76699
0.76699
0.76699
0.76699
0.76699
0.76699
0.76699
0.76699
0.76699
0.76699
0.76699
0.76699
0.76699
0.76699
0.76699
0.76699
0.76699
0.76699
0.76699
0.766989
0.766988
0.766986
0.766984
0.766984
0.766986
0.766988
0.76699
0.76699
0.76699
0.76699
0.76699
0.76699
0.76699
0.76699
0.76699
0.76699
0.76699
0.76699
0.76699
0.76699
0.76699
0.76699
0.76699
0.76699
0.76699
0.76699
0.76699
0.76699
0.76699
0.76699
0.76699
0.76699
0.76699
0.76699
0.76699
0.76699
0.76699
0.76699
0.76699
0.76699
0.76699
0.76699
0.76699
0.766989
0.766986
0.766978
0.766969
0.766963
0.766969
0.766979
0.766986
0.766989
0.76699
0.76699
0.76699
0.76699
0.76699
0.76699
0.76699
0.76699
0.76699
0.76699
0.76699
0.76699
0.76699
0.76699
0.76699
0.76699
0.76699
0.76699
0.76699
0.76699
0.76699
0.76699
0.76699
0.76699
0.76699
0.76699
0.76699
0.76699
0.76699
0.76699
0.76699
0.76699
0.76699
0.76699
0.76699
0.76699
0.76699
0.766988
0.766982
0.766967
0.766939
0.766913
0.766908
0.766934
0.766965
0.766982
0.766988
0.76699
0.76699
0.76699
0.76699
0.76699
0.76699
0.76699
0.76699
0.76699
0.76699
0.76699
0.76699
0.76699
0.76699
0.76699
0.76699
0.76699
0.76699
0.76699
0.76699
0.76699
0.76699
0.76699
0.76699
0.76699
0.76699
0.76699
0.76699
0.76699
0.76699
0.76699
0.76699
0.76699
0.76699
0.76699
0.76699
0.76699
0.76699
0.766988
0.76698
0.766955
0.766907
0.76685
0.766812
0.766821
0.766887
0.76695
0.766979
0.766987
0.766989
0.76699
0.76699
0.76699
0.76699
0.76699
0.76699
0.76699
0.76699
0.76699
0.76699
0.76699
0.76699
0.76699
0.76699
0.76699
0.76699
0.76699
0.76699
0.76699
0.76699
0.76699
0.76699
0.76699
0.76699
0.76699
0.76699
0.76699
0.76699
0.76699
0.76699
0.76699
0.76699
0.76699
0.76699
0.76699
0.76699
0.76699
0.76699
0.766988
0.766978
0.766947
0.766883
0.766798
0.766723
0.766691
0.766733
0.766849
0.766945
0.766979
0.766987
0.766989
0.76699
0.766989
0.766989
0.766988
0.766989
0.766986
0.766989
0.766986
0.766989
0.766987
0.76699
0.766989
0.76699
0.76699
0.76699
0.76699
0.76699
0.76699
0.76699
0.76699
0.76699
0.76699
0.76699
0.76699
0.76699
0.76699
0.76699
0.76699
0.76699
0.76699
0.76699
0.76699
0.76699
0.76699
0.76699
0.76699
0.76699
0.76699
0.76699
0.766988
0.766978
0.766942
0.766869
0.766772
0.766674
0.766596
0.76658
0.766669
0.766841
0.76695
0.766981
0.766988
0.766988
0.766987
0.766985
0.766979
0.766981
0.766969
0.766979
0.766963
0.76698
0.766963
0.766984
0.766971
0.766988
0.766981
0.766987
0.76699
0.766987
0.766987
0.76699
0.76699
0.76699
0.76699
0.76699
0.76699
0.76699
0.76699
0.76699
0.76699
0.76699
0.76699
0.76699
0.76699
0.76699
0.76699
0.76699
0.76699
0.76699
0.76699
0.76699
0.76699
0.76699
0.766988
0.766979
0.766942
0.766861
0.76677
0.766677
0.766573
0.766494
0.766505
0.766656
0.766863
0.76696
0.766983
0.766986
0.766984
0.766973
0.766963
0.766949
0.766919
0.766929
0.766874
0.766925
0.766849
0.766936
0.766859
0.766958
0.766898
0.766977
0.766943
0.766974
0.766988
0.766974
0.766976
0.76699
0.766989
0.76699
0.76699
0.76699
0.76699
0.76699
0.76699
0.76699
0.76699
0.76699
0.76699
0.76699
0.76699
0.76699
0.76699
0.76699
0.76699
0.76699
0.76699
0.76699
0.76699
0.76699
0.766989
0.766981
0.766946
0.766865
0.766789
0.766722
0.766608
0.766487
0.766414
0.766488
0.766697
0.766905
0.766971
0.766978
0.766986
0.766955
0.766941
0.766884
0.766845
0.766806
0.766732
0.76675
0.76664
0.766734
0.766589
0.766768
0.766593
0.766852
0.766665
0.766928
0.766805
0.76692
0.766979
0.766921
0.766931
0.766989
0.766984
0.76699
0.76699
0.76699
0.76699
0.76699
0.76699
0.76699
0.76699
0.76699
0.76699
0.76699
0.76699
0.76699
0.76699
0.76699
0.76699
0.76699
0.76699
0.76699
0.76699
0.76699
0.766989
0.766984
0.766955
0.766876
0.76681
0.766775
0.766705
0.766551
0.766403
0.766379
0.766538
0.766783
0.766943
0.766931
0.766931
0.7669
0.766808
0.766769
0.76666
0.766592
0.766529
0.766426
0.76644
0.766297
0.766406
0.766221
0.766441
0.766213
0.766563
0.766294
0.766768
0.766478
0.766753
0.766947
0.766764
0.766795
0.766987
0.766965
0.76699
0.766989
0.76699
0.76699
0.76699
0.76699
0.76699
0.76699
0.76699
0.76699
0.76699
0.76699
0.76699
0.76699
0.76699
0.76699
0.76699
0.76699
0.76699
0.76699
0.76699
0.766989
0.766986
0.766964
0.766893
0.766824
0.766805
0.76678
0.766672
0.766453
0.766327
0.76641
0.766655
0.766878
0.766896
0.766672
0.766641
0.766735
0.766702
0.766532
0.766476
0.766334
0.766251
0.766164
0.766046
0.766044
0.765882
0.765987
0.765782
0.766017
0.765757
0.766161
0.765843
0.766418
0.766054
0.766396
0.766846
0.766418
0.766488
0.766979
0.766905
0.76699
0.766987
0.76699
0.76699
0.76699
0.76699
0.76699
0.76699
0.76699
0.76699
0.76699
0.76699
0.76699
0.76699
0.76699
0.76699
0.76699
0.76699
0.76699
0.76699
0.76699
0.76699
0.766987
0.766972
0.766912
0.766834
0.766819
0.766827
0.766765
0.76656
0.766319
0.766319
0.766534
0.766788
0.766844
0.766608
0.766582
0.766352
0.766319
0.766429
0.766388
0.76618
0.766115
0.765942
0.765852
0.76574
0.765612
0.765586
0.765426
0.765509
0.765316
0.765529
0.765283
0.765685
0.765343
0.765984
0.765563
0.765959
0.76661
0.765983
0.76606
0.766954
0.766753
0.76699
0.766982
0.76699
0.76699
0.76699
0.76699
0.76699
0.76699
0.76699
0.76699
0.76699
0.76699
0.76699
0.76699
0.76699
0.76699
0.76699
0.76699
0.76699
0.76699
0.76699
0.76699
0.766988
0.766978
0.766932
0.766845
0.766825
0.766849
0.766827
0.766666
0.766358
0.766256
0.766413
0.766672
0.766752
0.766529
0.766545
0.766288
0.766256
0.765976
0.765941
0.76606
0.766014
0.765775
0.765708
0.765507
0.765422
0.765303
0.765223
0.765202
0.76514
0.765157
0.765105
0.765151
0.765082
0.765214
0.765072
0.765491
0.765136
0.765472
0.766205
0.765511
0.765597
0.766874
0.76641
0.766989
0.766958
0.76699
0.76699
0.76699
0.76699
0.76699
0.76699
0.76699
0.76699
0.76699
0.76699
0.76699
0.76699
0.76699
0.76699
0.76699
0.76699
0.76699
0.76699
0.76699
0.76699
0.766989
0.766983
0.76695
0.766863
0.766827
0.766851
0.766864
0.766763
0.766459
0.766219
0.766291
0.76654
0.766643
0.766286
0.766226
0.766138
0.76591
0.765881
0.76557
0.765539
0.765652
0.765606
0.765354
0.7653
0.765171
0.765135
0.765107
0.76509
0.765086
0.765087
0.76507
0.765091
0.765043
0.765074
0.765022
0.765029
0.765086
0.764983
0.76506
0.765726
0.765071
0.765138
0.766665
0.765899
0.766979
0.766815
0.76699
0.76699
0.76699
0.76699
0.76699
0.76699
0.76699
0.76699
0.76699
0.76699
0.76699
0.76699
0.76699
0.76699
0.76699
0.76699
0.76699
0.76699
0.76699
0.766989
0.766986
0.766963
0.766889
0.766829
0.766843
0.766882
0.766838
0.766591
0.766231
0.766189
0.766393
0.766528
0.766209
0.765786
0.765807
0.76585
0.76582
0.765511
0.76549
0.765213
0.7652
0.76526
0.765231
0.765111
0.765095
0.765078
0.765072
0.765097
0.765117
0.765142
0.765216
0.765164
0.765303
0.765115
0.765305
0.765019
0.765187
0.764942
0.765005
0.764903
0.765225
0.764867
0.764845
0.766116
0.765281
0.766661
0.765795
0.76699
0.76699
0.76699
0.76699
0.76699
0.76699
0.76699
0.76699
0.76699
0.76699
0.76699
0.76699
0.76699
0.76699
0.76699
0.76699
0.76699
0.76699
0.76699
0.766988
0.766973
0.766916
0.766834
0.766831
0.766884
0.766882
0.766727
0.766332
0.766134
0.766235
0.766402
0.766151
0.765597
0.765444
0.7654
0.765469
0.765451
0.765193
0.765194
0.765082
0.765084
0.765085
0.765081
0.765073
0.765078
0.765145
0.765177
0.76529
0.765355
0.765438
0.765545
0.765521
0.765681
0.765465
0.765724
0.765256
0.765617
0.764974
0.765286
0.764914
0.764819
0.764843
0.764804
0.764765
0.765029
0.764891
0.764768
0.765814
0.764782
0.76699
0.76699
0.76699
0.76699
0.76699
0.76699
0.76699
0.76699
0.76699
0.76699
0.76699
0.76699
0.76699
0.76699
0.76699
0.76699
0.76699
0.76699
0.766989
0.76698
0.766939
0.766848
0.766824
0.766865
0.7669
0.766831
0.766514
0.766143
0.766107
0.766251
0.766116
0.76561
0.765277
0.765327
0.765226
0.765249
0.765197
0.765207
0.76509
0.765103
0.765112
0.765131
0.765084
0.765096
0.76521
0.765246
0.765414
0.765467
0.765624
0.765682
0.765756
0.765783
0.765845
0.765859
0.765872
0.765942
0.765717
0.76598
0.765275
0.765756
0.76552
0.765019
0.765248
0.764768
0.764696
0.764727
0.764919
0.765139
0.765198
0.764872
0.76466
0.764595
0.764675
0.764639
0.766483
0.764513
0.765104
0.76458
0.76699
0.76699
0.76699
0.76699
0.76699
0.76699
0.76699
0.76699
0.76699
0.76699
0.76699
0.76699
0.76699
0.76699
0.76699
0.76699
0.76699
0.766989
0.766985
0.766956
0.766875
0.766821
0.766841
0.766902
0.766891
0.766694
0.766249
0.766059
0.766097
0.766073
0.76565
0.765358
0.765423
0.765258
0.7653
0.765182
0.765219
0.765124
0.76515
0.765155
0.765183
0.765346
0.765375
0.765281
0.765315
0.76552
0.765573
0.765734
0.765792
0.765795
0.765819
0.765837
0.765797
0.765907
0.765791
0.765991
0.765986
0.765944
0.765862
0.765924
0.76603
0.766009
0.766012
0.766049
0.765764
0.765488
0.765755
0.765956
0.765457
0.764826
0.764667
0.764777
0.765065
0.76533
0.765401
0.765005
0.764514
0.764574
0.764613
0.766587
0.765345
0.764931
0.764492
0.764554
0.76699
0.76699
0.76699
0.76699
0.76699
0.76699
0.76699
0.76699
0.76699
0.76699
0.76699
0.76699
0.76699
0.76699
0.76699
0.76699
0.76699
0.766987
0.766969
0.766904
0.766823
0.766823
0.766881
0.766915
0.766827
0.766469
0.766079
0.766003
0.765991
0.765719
0.765459
0.765344
0.76538
0.765346
0.765373
0.765281
0.765315
0.765215
0.765248
0.765402
0.765424
0.765689
0.765705
0.765622
0.765661
0.765857
0.765923
0.76586
0.765925
0.765768
0.765767
0.765624
0.765465
0.765758
0.765623
0.765491
0.765342
0.765938
0.765826
0.765683
0.766055
0.766074
0.765923
0.765905
0.766024
0.765964
0.76572
0.765954
0.766071
0.765678
0.764952
0.764724
0.7649
0.765255
0.765618
0.765546
0.765185
0.764559
0.764509
0.764669
0.765414
0.764678
0.764677
0.764486
0.764485
0.76699
0.76699
0.76699
0.76699
0.76699
0.76699
0.76699
0.76699
0.76699
0.76699
0.76699
0.76699
0.76699
0.76699
0.76699
0.76699
0.766988
0.766978
0.76693
0.766836
0.766812
0.766851
0.766918
0.766903
0.76668
0.766214
0.76599
0.765917
0.765756
0.765548
0.765451
0.765481
0.7654
0.765423
0.765469
0.76547
0.765461
0.765466
0.765441
0.765453
0.765705
0.765695
0.766017
0.766003
0.765977
0.766011
0.766017
0.766128
0.765812
0.765906
0.765369
0.765363
0.76522
0.765094
0.765014
0.764942
0.765519
0.765347
0.765179
0.765026
0.765781
0.765606
0.765413
0.766088
0.766032
0.765741
0.765712
0.765898
0.766077
0.765928
0.766076
0.766099
0.765888
0.765123
0.764841
0.765062
0.765468
0.765831
0.765759
0.765389
0.764606
0.764538
0.764772
0.765376
0.764468
0.764691
0.764479
0.764433
0.76699
0.76699
0.76699
0.76699
0.76699
0.76699
0.76699
0.76699
0.76699
0.76699
0.76699
0.76699
0.76699
0.76699
0.76699
0.766989
0.766983
0.76695
0.766862
0.766809
0.766826
0.766897
0.766933
0.766836
0.76646
0.766037
0.765898
0.765769
0.765613
0.765522
0.765481
0.765491
0.765471
0.765474
0.765555
0.76553
0.765616
0.765585
0.765674
0.765646
0.765963
0.765903
0.766272
0.766223
0.766233
0.766278
0.766039
0.766195
0.765445
0.765628
0.764916
0.764906
0.76493
0.764982
0.764897
0.764799
0.764735
0.764703
0.765214
0.765027
0.764861
0.764727
0.765539
0.76532
0.7651
0.766041
0.765901
0.765488
0.765455
0.765698
0.766107
0.766066
0.766114
0.766056
0.766044
0.765314
0.76499
0.765237
0.76568
0.766005
0.765947
0.765593
0.764687
0.764588
0.764897
0.765968
0.764457
0.765042
0.76449
0.764428
0.76699
0.76699
0.76699
0.76699
0.76699
0.76699
0.76699
0.76699
0.76699
0.76699
0.76699
0.76699
0.76699
0.76699
0.766989
0.766986
0.766965
0.766892
0.76681
0.766809
0.766865
0.766937
0.766921
0.766696
0.766222
0.76592
0.76578
0.765648
0.765556
0.765497
0.765507
0.765493
0.765493
0.765511
0.765498
0.765592
0.765551
0.765703
0.765643
0.765836
0.765768
0.766133
0.766031
0.766442
0.766369
0.766366
0.766444
0.765887
0.766177
0.765041
0.765288
0.764702
0.764734
0.76479
0.764861
0.764628
0.764569
0.764547
0.764562
0.764898
0.764725
0.764588
0.764492
0.765246
0.765009
0.764795
0.765917
0.765702
0.765194
0.765165
0.765443
0.766074
0.766112
0.766095
0.765944
0.766107
0.765503
0.765145
0.765407
0.765869
0.766094
0.766067
0.765777
0.764781
0.764648
0.765024
0.766848
0.764538
0.765716
0.764512
0.764444
0.76699
0.76699
0.76699
0.76699
0.76699
0.76699
0.76699
0.76699
0.76699
0.76699
0.76699
0.76699
0.76699
0.76699
0.766988
0.766974
0.766918
0.766821
0.766799
0.766837
0.766918
0.766952
0.766863
0.766507
0.766034
0.765813
0.76568
0.76558
0.765505
0.765481
0.765482
0.765486
0.765481
0.76552
0.765499
0.765608
0.76556
0.765745
0.76567
0.765928
0.765832
0.766254
0.766128
0.766577
0.766518
0.766439
0.766557
0.76565
0.766081
0.764928
0.765035
0.765307
0.765146
0.764612
0.764683
0.76476
0.764841
0.764438
0.764427
0.764452
0.764519
0.764615
0.764476
0.764381
0.764331
0.764942
0.764715
0.764527
0.765723
0.765451
0.764895
0.764871
0.765157
0.76598
0.766109
0.76602
0.765761
0.76612
0.765677
0.765291
0.765561
0.766015
0.766122
0.766117
0.765932
0.764875
0.764702
0.765141
0.766881
0.764669
0.765801
0.764528
0.764463
0.76699
0.76699
0.76699
0.76699
0.76699
0.76699
0.76699
0.76699
0.76699
0.76699
0.76699
0.76699
0.76699
0.766988
0.766979
0.766937
0.766843
0.766796
0.766815
0.766887
0.766958
0.766943
0.766758
0.766354
0.765942
0.765743
0.765621
0.76554
0.765498
0.76552
0.765476
0.765481
0.765483
0.765476
0.765524
0.765498
0.765653
0.765601
0.765802
0.76572
0.766008
0.765898
0.766402
0.766274
0.766712
0.766692
0.766488
0.766671
0.765484
0.765714
0.766056
0.764986
0.765081
0.765333
0.765191
0.764603
0.764699
0.764801
0.764897
0.764325
0.764352
0.76443
0.764529
0.764385
0.764289
0.764239
0.764233
0.764656
0.764459
0.764311
0.76548
0.765171
0.764616
0.764594
0.764867
0.765815
0.766057
0.765881
0.765531
0.766092
0.765822
0.765418
0.765689
0.766097
0.766121
0.766135
0.766041
0.764956
0.764741
0.765236
0.766735
0.764698
0.765236
0.764533
0.764467
0.76699
0.76699
0.76699
0.76699
0.76699
0.76699
0.76699
0.76699
0.76699
0.76699
0.76699
0.76699
0.766989
0.766981
0.766949
0.766864
0.766797
0.7668
0.76686
0.766946
0.766969
0.766906
0.766674
0.766296
0.765912
0.765714
0.765621
0.765616
0.765546
0.765598
0.76551
0.76552
0.765516
0.765509
0.765562
0.765534
0.76578
0.765722
0.765938
0.765852
0.766151
0.766039
0.766603
0.766494
0.766832
0.766846
0.76652
0.766756
0.765508
0.765716
0.765992
0.766227
0.765114
0.765196
0.765418
0.765292
0.764656
0.764792
0.764919
0.765026
0.764257
0.764333
0.76444
0.764583
0.764212
0.764159
0.76415
0.764166
0.764407
0.764251
0.764146
0.765208
0.764884
0.764371
0.76435
0.764591
0.765602
0.765954
0.765694
0.765271
0.766032
0.765933
0.76552
0.765785
0.766132
0.766096
0.766136
0.766096
0.765014
0.764763
0.765307
0.76586
0.764563
0.764778
0.764532
0.764442
0.76699
0.76699
0.76699
0.76699
0.76699
0.76699
0.76699
0.76699
0.76699
0.76699
0.766989
0.766988
0.766981
0.766953
0.766877
0.766801
0.766792
0.766838
0.766922
0.766974
0.766965
0.766869
0.766647
0.766298
0.765967
0.765804
0.765786
0.765831
0.765914
0.765687
0.765755
0.765626
0.765646
0.765629
0.765621
0.765679
0.765648
0.766016
0.765954
0.766179
0.766092
0.766383
0.766278
0.766818
0.766752
0.766883
0.766914
0.766434
0.766628
0.766788
0.765577
0.765772
0.766054
0.766261
0.765283
0.765353
0.765539
0.765433
0.764751
0.764925
0.76508
0.765198
0.764232
0.764332
0.764468
0.764643
0.76409
0.764076
0.764087
0.764136
0.764203
0.764091
0.764027
0.764925
0.764608
0.764168
0.764144
0.764344
0.765361
0.76581
0.765491
0.764999
0.765944
0.766002
0.765593
0.765842
0.766138
0.766056
0.766121
0.766111
0.765054
0.764773
0.765353
0.76671
0.764461
0.765369
0.764526
0.764409
0.76699
0.76699
0.76699
0.76699
0.76699
0.76699
0.76699
0.76699
0.766989
0.766989
0.766987
0.76698
0.766952
0.766881
0.766805
0.766788
0.766822
0.7669
0.76697
0.766981
0.766954
0.766858
0.766652
0.766393
0.766203
0.766163
0.766324
0.766127
0.766273
0.765948
0.766026
0.765862
0.765894
0.765855
0.76585
0.765907
0.765874
0.766346
0.766285
0.766497
0.766418
0.766671
0.766583
0.766922
0.766912
0.766875
0.766911
0.766934
0.766454
0.766625
0.76683
0.766731
0.765682
0.765857
0.766129
0.766304
0.76547
0.76553
0.765682
0.765594
0.764848
0.765062
0.76525
0.765386
0.764221
0.764342
0.764501
0.7647
0.76401
0.764014
0.764051
0.764122
0.764045
0.763973
0.76395
0.764653
0.76436
0.764008
0.763983
0.764136
0.765117
0.765669
0.765308
0.764741
0.765849
0.766026
0.76563
0.765858
0.766131
0.765994
0.766083
0.766099
0.765072
0.764772
0.765369
0.766836
0.764541
0.765836
0.764512
0.764398
0.76699
0.76699
0.76699
0.76699
0.76699
0.76699
0.76699
0.766989
0.766987
0.766982
0.766974
0.766948
0.76688
0.766805
0.766786
0.766812
0.766883
0.766961
0.766984
0.766981
0.76695
0.766864
0.766729
0.766615
0.766595
0.766691
0.766749
0.766812
0.76649
0.76662
0.7663
0.766383
0.766202
0.76624
0.766188
0.766185
0.766237
0.766204
0.766704
0.766656
0.766808
0.766756
0.766888
0.766851
0.766956
0.766963
0.766866
0.766906
0.766924
0.766944
0.766468
0.766614
0.766797
0.766711
0.765807
0.765958
0.766211
0.766353
0.765657
0.76571
0.765837
0.765762
0.764932
0.765175
0.765398
0.765565
0.764223
0.764362
0.764539
0.764758
0.76395
0.763977
0.764033
0.764114
0.763927
0.763899
0.763896
0.764412
0.764154
0.76389
0.763864
0.763974
0.764913
0.765529
0.765136
0.764538
0.765741
0.766013
0.765631
0.765844
0.766102
0.765912
0.76602
0.766062
0.76507
0.764759
0.765359
0.766907
0.764696
0.766163
0.76448
0.764392
0.76699
0.76699
0.76699
0.76699
0.76699
0.766989
0.766987
0.766981
0.76697
0.766955
0.766932
0.766873
0.766805
0.766786
0.766807
0.766873
0.766952
0.766983
0.766987
0.76698
0.766953
0.766904
0.766864
0.766857
0.766898
0.766958
0.766933
0.76696
0.766817
0.766883
0.766683
0.766747
0.766597
0.766632
0.76658
0.76658
0.766617
0.766593
0.766917
0.766902
0.766946
0.766932
0.766963
0.766956
0.766959
0.766973
0.766831
0.766886
0.766903
0.766935
0.766487
0.766609
0.766768
0.766696
0.765942
0.76607
0.766294
0.766403
0.765831
0.765885
0.765994
0.76593
0.765012
0.765279
0.765527
0.765719
0.764226
0.764372
0.76456
0.764791
0.763907
0.763956
0.764018
0.764107
0.763856
0.763848
0.763853
0.764233
0.76401
0.763821
0.763795
0.763863
0.764731
0.765385
0.764974
0.764369
0.765622
0.765961
0.765605
0.765777
0.76605
0.765816
0.765937
0.765988
0.765049
0.764723
0.765315
0.766968
0.764832
0.766507
0.764431
0.764379
0.76699
0.76699
0.76699
0.76699
0.766988
0.766983
0.76697
0.76695
0.766929
0.766903
0.766855
0.766803
0.766786
0.766806
0.766869
0.766946
0.766981
0.766988
0.766988
0.766981
0.766969
0.766958
0.766956
0.766968
0.766983
0.766989
0.766983
0.766987
0.766962
0.766975
0.766924
0.766945
0.766888
0.766904
0.766876
0.766878
0.766889
0.76688
0.766979
0.766977
0.766982
0.766981
0.766979
0.766982
0.76694
0.766959
0.766975
0.766968
0.766814
0.766862
0.766889
0.766917
0.766509
0.766608
0.76676
0.766694
0.766081
0.766183
0.766381
0.766461
0.765985
0.766046
0.766151
0.766093
0.765061
0.765355
0.765636
0.765857
0.764224
0.764375
0.764566
0.764801
0.763884
0.763934
0.764001
0.764091
0.763807
0.763806
0.763823
0.764088
0.763888
0.763768
0.763731
0.763781
0.764572
0.765245
0.764827
0.764227
0.765504
0.765843
0.765516
0.765605
0.765951
0.765708
0.765803
0.765843
0.764988
0.764654
0.765205
0.766984
0.765002
0.76669
0.764376
0.764365
0.76699
0.76699
0.766989
0.766987
0.766978
0.766957
0.766929
0.766902
0.766874
0.766832
0.766798
0.766788
0.766808
0.766869
0.766944
0.76698
0.766988
0.766989
0.766988
0.766986
0.766983
0.766983
0.766986
0.766989
0.76699
0.76699
0.76699
0.76699
0.766989
0.766987
0.766989
0.766982
0.766985
0.766976
0.766979
0.766973
0.766974
0.766974
0.766973
0.766988
0.766988
0.766987
0.766988
0.76698
0.766985
0.766934
0.76695
0.766972
0.766963
0.766812
0.766854
0.766888
0.766913
0.766543
0.766621
0.766762
0.766709
0.766221
0.766299
0.766475
0.766533
0.766125
0.766195
0.766297
0.766243
0.765078
0.765384
0.765693
0.765959
0.764207
0.764361
0.764553
0.764789
0.763857
0.763906
0.763972
0.764057
0.763758
0.763761
0.763785
0.763955
0.763793
0.763716
0.763684
0.763706
0.764422
0.765108
0.764653
0.764055
0.765355
0.765618
0.765312
0.76534
0.76576
0.765508
0.765522
0.765567
0.764878
0.764565
0.765003
0.766981
0.76506
0.766636
0.764322
0.76434
0.76699
0.766989
0.766985
0.766972
0.766943
0.766908
0.766876
0.766845
0.766816
0.766797
0.766791
0.766814
0.766873
0.766945
0.76698
0.766988
0.76699
0.766989
0.766989
0.766989
0.766989
0.766989
0.76699
0.76699
0.76699
0.76699
0.76699
0.76699
0.76699
0.76699
0.76699
0.766989
0.76699
0.766989
0.766989
0.766988
0.766989
0.766988
0.766988
0.766989
0.766989
0.766987
0.766988
0.766975
0.76698
0.766984
0.766934
0.766949
0.766969
0.76696
0.766821
0.766855
0.766894
0.766914
0.766593
0.766652
0.766782
0.766742
0.766357
0.766417
0.766569
0.766613
0.766223
0.766341
0.766435
0.766397
0.765067
0.765381
0.765704
0.765997
0.764167
0.764301
0.764473
0.764693
0.763822
0.763864
0.76392
0.763987
0.763715
0.76372
0.763746
0.763809
0.763697
0.763673
0.763647
0.763668
0.76417
0.764883
0.764293
0.763833
0.765039
0.765323
0.765043
0.76504
0.765385
0.765101
0.765046
0.765205
0.764727
0.764465
0.764791
0.766761
0.764928
0.766044
0.764269
0.76429
0.766989
0.766984
0.766967
0.766929
0.766888
0.766852
0.766826
0.766808
0.766798
0.766798
0.766828
0.766887
0.76695
0.76698
0.766988
0.76699
0.76699
0.76699
0.76699
0.76699
0.76699
0.76699
0.76699
0.76699
0.76699
0.76699
0.76699
0.76699
0.76699
0.76699
0.76699
0.76699
0.76699
0.76699
0.76699
0.76699
0.76699
0.76699
0.76699
0.766989
0.766989
0.766986
0.766988
0.766974
0.766979
0.766985
0.766982
0.766937
0.766949
0.766968
0.766959
0.766844
0.766868
0.76691
0.766923
0.766656
0.7667
0.766816
0.766789
0.766481
0.766525
0.766675
0.7667
0.766243
0.766423
0.766572
0.766517
0.764966
0.765286
0.765634
0.765968
0.764067
0.76417
0.764311
0.764499
0.76378
0.763822
0.763869
0.763928
0.763669
0.763678
0.763703
0.763705
0.763661
0.763627
0.763559
0.763601
0.763889
0.764432
0.763996
0.763738
0.764525
0.764998
0.764806
0.764782
0.764966
0.764562
0.764605
0.764839
0.764563
0.764356
0.764591
0.765022
0.76453
0.764557
0.764209
0.764195
0.766984
0.766962
0.766919
0.766869
0.766835
0.766816
0.766807
0.766802
0.766812
0.766849
0.766908
0.766959
0.766981
0.766989
0.76699
0.76699
0.76699
0.76699
0.76699
0.76699
0.76699
0.76699
0.76699
0.76699
0.76699
0.76699
0.76699
0.76699
0.76699
0.76699
0.76699
0.76699
0.76699
0.76699
0.76699
0.76699
0.76699
0.76699
0.76699
0.766989
0.766989
0.766986
0.766985
0.766988
0.766973
0.766979
0.766982
0.766941
0.76695
0.766966
0.766958
0.766879
0.766892
0.766926
0.766933
0.766727
0.766757
0.76686
0.766846
0.766612
0.766646
0.766759
0.766791
0.766116
0.766389
0.76661
0.766533
0.764745
0.765047
0.765402
0.765771
0.763996
0.764068
0.764139
0.764242
0.763739
0.763775
0.763815
0.763859
0.763627
0.763635
0.763639
0.763667
0.763598
0.763543
0.763544
0.763542
0.763806
0.764099
0.763932
0.763739
0.764196
0.76472
0.764589
0.76455
0.764605
0.764318
0.764384
0.764612
0.764417
0.764249
0.764437
0.765005
0.764188
0.764117
0.764137
0.764092
0.766961
0.76691
0.766856
0.766826
0.766813
0.766808
0.766811
0.766834
0.766876
0.766931
0.766967
0.766984
0.766989
0.76699
0.76699
0.76699
0.76699
0.76699
0.76699
0.76699
0.76699
0.76699
0.76699
0.76699
0.76699
0.76699
0.76699
0.76699
0.76699
0.76699
0.76699
0.76699
0.76699
0.76699
0.76699
0.76699
0.76699
0.76699
0.76699
0.76699
0.76699
0.766989
0.76699
0.766982
0.766982
0.766986
0.766984
0.766988
0.76697
0.766978
0.76698
0.766936
0.766944
0.766962
0.766952
0.766913
0.766918
0.766926
0.766931
0.766815
0.766825
0.766902
0.766894
0.766663
0.766713
0.766768
0.766815
0.765711
0.766087
0.766529
0.766365
0.764403
0.764652
0.764974
0.765337
0.763911
0.76397
0.764037
0.764099
0.763679
0.763718
0.763751
0.763774
0.763549
0.763557
0.763416
0.763685
0.763398
0.763377
0.763391
0.763389
0.763844
0.764086
0.763961
0.763463
0.764224
0.76449
0.764439
0.764428
0.764424
0.764313
0.764342
0.764396
0.764295
0.764153
0.764306
0.766884
0.764031
0.764522
0.764062
0.763993
0.766906
0.766847
0.766821
0.766814
0.766813
0.766829
0.766862
0.766908
0.76695
0.766975
0.766986
0.766989
0.76699
0.76699