/*--------------------------------*- C++ -*----------------------------------*\
  =========                 |
  \\      /  F ield         | OpenFOAM: The Open Source CFD Toolbox
   \\    /   O peration     | Website:  https://openfoam.org
    \\  /    A nd           | Version:  dev
     \\/     M anipulation  |
\*---------------------------------------------------------------------------*/
FoamFile
{
    version     2.0;
    format      ascii;
    class       volScalarField;
    location    "2500";
    object      nut;
}
// * * * * * * * * * * * * * * * * * * * * * * * * * * * * * * * * * * * * * //

dimensions      [0 2 -1 0 0 0 0];

internalField   nonuniform List<scalar> 
9834
(
0.000125342
0.000129311
0.000120607
0.000121347
0.000147857
0.000108531
0.000112275
0.000157973
0.000137911
0.000104119
0.000108879
0.000156427
0.000157064
0.000119259
0.000102203
0.000105892
0.000148146
0.000170115
0.000143441
0.000109684
0.00010181
0.000104524
0.000135268
0.000174275
0.000163835
0.000123796
0.000105362
0.000101358
0.000103886
0.000125573
0.000172099
0.000175399
0.000144614
0.000112079
0.000103954
0.00010075
0.000103205
0.000117904
0.000164123
0.000184681
0.000165684
0.00012556
0.000106794
0.000103025
0.000100431
0.000102379
0.00011231
0.000149556
0.000186933
0.000180166
0.000143424
0.000113289
0.000104781
0.000101861
0.000100325
0.000101733
0.000108754
0.000136148
0.000184474
0.000188238
0.000163184
0.000126015
0.000107641
0.000103704
0.000101016
0.000100294
0.000101289
0.00010679
0.000127009
0.000176915
0.000195818
0.000179996
0.000141301
0.000114606
0.000105179
0.000102546
0.000100543
0.000100279
0.000100997
0.000105704
0.000119782
0.000162535
0.000198047
0.000191918
0.000158808
0.00012537
0.000108472
0.000103951
0.000101479
0.000100317
0.000100266
0.000100877
0.000105006
0.000114707
0.000147966
0.000195801
0.000198483
0.000176364
0.000138435
0.000115422
0.000105511
0.000102924
0.00010071
0.000100242
0.000100257
0.00010088
0.000104523
0.000111283
0.000136535
0.000188963
0.000205473
0.000190874
0.000153574
0.000124436
0.000109362
0.000104049
0.000101851
0.000100267
0.000100232
0.000100246
0.000100885
0.000104101
0.00010903
0.000128255
0.000175695
0.000207923
0.00020119
0.000170378
0.000134995
0.000115796
0.000105891
0.000103055
0.000100958
0.000100058
0.000100259
0.000100252
0.000100924
0.000103734
0.000107587
0.000121934
0.000160691
0.000206247
0.00020784
0.000186138
0.000148641
0.000122937
0.000110134
0.00010413
0.000102115
0.000100343
9.99843e-05
0.00010031
0.000100276
0.000100995
0.000103457
0.000106721
0.000117535
0.00014785
0.000200398
0.000214238
0.000199712
0.000163508
0.000132081
0.000115711
0.000106387
0.000103091
0.000101214
9.99726e-05
0.000100024
0.000100372
0.000100311
0.000101072
0.000103284
0.000106215
0.000114579
0.000138109
0.000187879
0.000216991
0.000209865
0.000179014
0.000143376
0.000121625
0.000110769
0.0001043
0.000102248
0.00010051
9.98002e-05
0.000100137
0.000100443
0.00010034
0.000101159
0.000103197
0.00010592
0.000112671
0.000131133
0.00017358
0.000215815
0.000216114
0.000193951
0.000157107
0.00012927
0.000115257
0.000107097
0.00010312
0.00010144
0.000100049
9.98093e-05
0.000100276
0.000100576
0.000100355
0.000101264
0.000103165
0.000105743
0.000111414
0.000126202
0.0001603
0.000210977
0.000221736
0.000207229
0.000171714
0.000139033
0.000120624
0.000110851
0.000104621
0.000102316
0.000100759
9.98095e-05
9.99485e-05
0.000100437
0.000100766
0.000100363
0.000101386
0.000103142
0.000105642
0.000110528
0.000122897
0.000149883
0.000199924
0.00022534
0.000217345
0.000186668
0.000150982
0.000126877
0.000115069
0.000107588
0.000103238
0.000101648
0.000100282
9.97929e-05
0.000100177
0.000100641
0.000100978
0.000100365
0.000101519
0.000103122
0.00010554
0.000109846
0.000120472
0.000141911
0.000186567
0.000224553
0.000223499
0.000200757
0.000164845
0.000135317
0.000119457
0.000111087
0.000105191
0.000102418
0.000101097
0.000100054
9.99411e-05
0.000100464
0.000100891
0.000101185
0.000100369
0.000101658
0.000103125
0.000105443
0.000109272
0.000118509
0.000136115
0.000173313
0.000221484
0.000228715
0.000213355
0.000179025
0.000145815
0.000125298
0.000114658
0.000108062
0.000103599
0.000101887
0.000100741
0.000100074
0.000100249
0.000100813
0.000101182
0.000101322
0.000100375
0.000101788
0.000103141
0.000105353
0.000108802
0.000116911
0.000132032
0.000161931
0.000212994
0.00023363
0.000224096
0.000193318
0.00015819
0.000132331
0.000119063
0.000111274
0.000105866
0.000102705
0.000101574
0.000100662
0.000100289
0.000100691
0.000101222
0.000101502
0.000101377
0.000100367
0.000101887
0.000103163
0.000105269
0.00010844
0.000115673
0.000129063
0.000153019
0.000199636
0.000233804
0.000230898
0.000206754
0.000171989
0.00014167
0.000124073
0.000114839
0.000108783
0.000104364
0.000102281
0.000101533
0.000100837
0.000100723
0.000101247
0.000101679
0.000101775
0.000101363
0.000100323
0.000101952
0.000103185
0.000105196
0.000108161
0.000114735
0.000126759
0.000146423
0.000186666
0.000231781
0.000236012
0.000218984
0.000185801
0.000152847
0.000130718
0.000119012
0.000111876
0.000107022
0.000103506
0.000102236
0.000101795
0.000101348
0.000101342
0.000101852
0.000102144
0.000101972
0.000101282
0.000100286
0.000101986
0.00010323
0.000105141
0.000107941
0.000113962
0.000124861
0.000141662
0.000174875
0.000226249
0.000241862
0.000230499
0.000199688
0.000165342
0.000138728
0.000124078
0.000115653
0.000109926
0.000105943
0.000103249
0.000102529
0.000102397
0.000102278
0.000102245
0.000102412
0.000102413
0.000101927
0.000101101
0.000100235
0.000101996
0.000103283
0.000105084
0.000107752
0.00011324
0.000123273
0.000138133
0.000165288
0.000214114
0.000244225
0.000238577
0.000212814
0.000179105
0.000148698
0.000130116
0.000120011
0.000113434
0.000108847
0.000105565
0.000103595
0.000103192
0.000103385
0.000103531
0.000103547
0.000103262
0.000102625
0.000101538
0.000100652
0.000100193
0.00010199
0.00010331
0.000104959
0.000107548
0.000112559
0.000121947
0.000135414
0.000157829
0.000201421
0.000242695
0.000244423
0.000224969
0.000192613
0.000160526
0.000137639
0.000125329
0.000117588
0.000112306
0.000108733
0.000106052
0.000104519
0.000104359
0.000104643
0.000104901
0.000104842
0.000104184
0.000102984
0.000101277
9.99941e-05
0.000100138
0.000101967
0.00010331
0.000104771
0.000107297
0.00011191
0.000120735
0.000133294
0.000152189
0.000189575
0.000239927
0.000250934
0.000236938
0.00020628
0.000173032
0.000146773
0.000131484
0.00012274
0.000116639
0.000112503
0.000109587
0.000107402
0.000106284
0.000106227
0.00010633
0.000106193
0.000105754
0.000104707
0.000103125
0.000101163
9.94234e-05
9.99252e-05
0.000101922
0.000103285
0.000104571
0.00010702
0.000111283
0.000119579
0.000131564
0.000147995
0.000179173
0.000232295
0.000255986
0.000246806
0.000219594
0.000186829
0.000157151
0.000138876
0.000128639
0.000122134
0.00011738
0.000113998
0.000111761
0.000110104
0.000109075
0.000108864
0.000108555
0.000107822
0.000106494
0.000104634
0.000102837
0.000101103
9.93733e-05
9.97025e-05
0.000101862
0.000103216
0.000104372
0.000106735
0.000110696
0.000118507
0.000130105
0.000144894
0.000170765
0.00021928
0.000256866
0.000254274
0.000231813
0.000200476
0.000169323
0.000147338
0.000135601
0.000128637
0.000123646
0.000120096
0.000117548
0.000115864
0.000114437
0.00011313
0.000112474
0.000111761
0.000110025
0.000107327
0.000104533
0.000102378
0.000101156
0.000100005
9.99508e-05
0.000101783
0.000103104
0.000104152
0.000106455
0.000110172
0.000117559
0.000128773
0.000142561
0.000164095
0.00020746
0.000254979
0.00026172
0.000244157
0.000213642
0.00018195
0.000157087
0.000143572
0.000136202
0.000131508
0.000128314
0.000125981
0.000124051
0.000122278
0.000115672
0.000107491
0.000103097
0.000102805
0.000105496
0.000108342
0.000104593
0.000102253
0.000101623
0.000100853
0.00010006
0.000100456
0.000101683
0.000102963
0.000103918
0.000106168
0.000109694
0.00011676
0.000127511
0.000140754
0.000158884
0.000196355
0.00025171
0.00026911
0.000255853
0.000227137
0.000194979
0.000167575
0.000152267
0.000144833
0.00014096
0.000139086
0.000138083
0.000137255
0.000125386
0.00010911
9.85177e-05
9.30101e-05
9.0518e-05
9.10912e-05
9.33464e-05
9.57644e-05
0.000104598
0.000102934
0.000102911
0.00010092
0.000102224
0.000100193
0.00010053
0.000101568
0.000102807
0.000103701
0.000105873
0.000109239
0.000116032
0.000126325
0.000139244
0.000154878
0.000186474
0.000242886
0.000273538
0.000265444
0.000239844
0.000208573
0.000178708
0.000161521
0.000153841
0.000151715
0.000152431
0.000154372
0.000154958
0.000128852
0.000107586
9.3976e-05
8.66724e-05
8.28227e-05
8.1537e-05
8.34173e-05
8.5006e-05
8.80185e-05
9.59807e-05
0.000103797
0.000104752
0.000103464
0.000104829
0.000104413
0.000101359
0.000102752
0.000100214
0.000100629
0.000101448
0.000102633
0.000103493
0.000105587
0.000108799
0.000115313
0.000125238
0.000137906
0.000151873
0.000178305
0.000229039
0.000273971
0.000274413
0.000252177
0.000221412
0.000190609
0.000170824
0.000162974
0.000162859
0.000167673
0.000174175
0.000178102
0.000167436
0.000133868
0.000104174
8.57793e-05
7.63108e-05
7.28706e-05
7.12858e-05
7.15519e-05
7.23085e-05
7.31675e-05
9.62416e-05
8.17631e-05
9.50027e-05
0.000103713
8.93259e-05
9.68427e-05
0.00010168
0.000102722
0.0001002
0.000100714
0.000101336
0.00010245
0.000103273
0.000105301
0.000108371
0.000114634
0.000124253
0.000136588
0.000149592
0.000171523
0.000217118
0.000271842
0.000283656
0.000265165
0.000234134
0.000202516
0.000180198
0.000171691
0.000173571
0.000183419
0.00019579
0.000201818
0.000199317
0.000191684
0.000180617
0.000120301
8.47759e-05
7.1088e-05
6.71687e-05
6.46701e-05
6.2766e-05
6.13441e-05
6.8169e-05
6.10051e-05
8.05956e-05
7.29104e-05
7.99032e-05
9.77019e-05
8.50753e-05
8.58684e-05
0.000101635
9.72491e-05
0.000100193
0.000100654
0.000101228
0.000102271
0.000103064
0.000105001
0.000107965
0.000114002
0.000123365
0.000135227
0.0001478
0.00016618
0.000205874
0.000268002
0.000291364
0.000277261
0.000247456
0.0002148
0.000189389
0.000179698
0.000183105
0.000197995
0.000218279
0.000232714
0.000232836
0.000220709
0.000196183
0.000178393
0.000153344
8.84956e-05
6.95265e-05
6.51597e-05
6.13148e-05
6.04106e-05
5.72851e-05
5.54019e-05
6.25182e-05
5.94315e-05
6.98327e-05
6.32686e-05
7.47353e-05
8.60254e-05
7.56446e-05
7.64015e-05
9.59623e-05
8.61122e-05
0.000100175
9.92713e-05
0.000101109
0.000102097
0.000102902
0.000104709
0.000107589
0.000113419
0.000122527
0.000133886
0.000146191
0.000161907
0.000195673
0.000257827
0.000295413
0.000287921
0.000260381
0.000227524
0.000198524
0.000187128
0.000190565
0.000209877
0.000239137
0.000270212
0.000295772
0.000312359
0.00029316
0.000237327
0.000181393
0.000163075
8.89936e-05
6.72318e-05
6.24653e-05
5.89954e-05
5.77292e-05
5.73664e-05
5.44255e-05
5.50083e-05
5.76664e-05
5.55708e-05
6.52658e-05
5.96232e-05
6.68973e-05
7.71328e-05
6.77011e-05
6.88593e-05
8.6499e-05
7.79137e-05
0.000100141
9.76288e-05
0.000100963
0.000101922
0.00010279
0.000104467
0.000107247
0.000112866
0.000121739
0.00013263
0.000144553
0.000158628
0.00018714
0.000242851
0.000295343
0.000298344
0.00027339
0.000239736
0.000208008
0.000193758
0.000196209
0.000217641
0.000254602
0.000302234
0.000360014
0.000401311
0.000401303
0.000365103
0.000286194
0.0001908
0.000159906
8.42101e-05
6.47205e-05
5.9786e-05
5.97607e-05
6.07757e-05
5.34198e-05
5.79965e-05
5.27675e-05
5.47939e-05
5.47211e-05
5.33052e-05
6.00142e-05
5.56899e-05
6.07238e-05
7.01597e-05
6.12956e-05
6.23442e-05
8.02646e-05
7.17103e-05
0.000100088
9.96788e-05
0.00010078
0.000101729
0.000102701
0.000104289
0.000106971
0.000112333
0.000121049
0.000131443
0.000142904
0.00015612
0.000180083
0.000229857
0.0002926
0.000308256
0.000287154
0.000252121
0.000218139
0.000199556
0.000199848
0.000221708
0.000263173
0.000322994
0.000405922
0.000445546
0.000447318
0.000435444
0.000394065
0.000311685
0.000197393
0.000154523
7.87555e-05
6.11565e-05
6.22252e-05
7.45334e-05
6.4246e-05
8.38746e-05
6.18918e-05
8.69498e-05
5.85945e-05
8.13029e-05
5.572e-05
6.89483e-05
5.65274e-05
5.98613e-05
5.73122e-05
6.3444e-05
5.79374e-05
5.8711e-05
7.62939e-05
6.52098e-05
9.99924e-05
9.90318e-05
0.000100554
0.000101502
0.000102599
0.000104136
0.000106784
0.000111911
0.000120444
0.000130398
0.000141347
0.000154103
0.000174279
0.000218041
0.00028806
0.000315668
0.000300172
0.000265481
0.000229106
0.000204978
0.000201832
0.000221674
0.000265032
0.000333779
0.0004303
0.000458902
0.000456741
0.000442308
0.000429767
0.000390965
0.000309242
0.00019465
0.000147789
8.14716e-05
8.20326e-05
0.000102326
9.18584e-05
0.000100589
8.93872e-05
9.56783e-05
8.91361e-05
9.69378e-05
8.92906e-05
9.53042e-05
8.50282e-05
9.19409e-05
6.47515e-05
8.75282e-05
6.85954e-05
5.84799e-05
6.97632e-05
6.7271e-05
7.12541e-05
5.7858e-05
9.99056e-05
9.84271e-05
0.000100294
0.000101241
0.000102458
0.000103971
0.000106652
0.000111652
0.000119952
0.0001296
0.000139967
0.000152453
0.000169577
0.000207258
0.000276868
0.000318894
0.000311282
0.000279134
0.000240832
0.000210344
0.000203289
0.000219407
0.000262423
0.00033372
0.000440919
0.000466683
0.000444855
0.000421367
0.000426055
0.000419794
0.00037375
0.00029304
0.000188644
0.000132802
0.000116039
0.000122753
0.000104156
0.000124648
0.000119971
0.000148574
0.000124306
0.000169578
0.000117366
0.000172908
0.000106592
0.000153388
9.69606e-05
0.000120904
8.61116e-05
9.99811e-05
8.46067e-05
6.24029e-05
8.22886e-05
7.92444e-05
5.96246e-05
5.33435e-05
9.29862e-05
6.65696e-05
0.000100035
0.000100973
0.000102294
0.000103813
0.000106548
0.000111519
0.000119642
0.000129073
0.000138869
0.000151087
0.000165974
0.000197978
0.000261053
0.000317865
0.00032151
0.000292707
0.000252895
0.000217134
0.000204837
0.000214931
0.000253428
0.000325547
0.000443606
0.000472195
0.000435558
0.000380189
0.000404159
0.000423774
0.000408092
0.000344408
0.000264147
0.000180728
0.000142635
0.000102811
0.000134736
0.000160733
0.000185235
0.000225558
0.000224932
0.000283262
0.000242447
0.000318693
0.000234825
0.000321151
0.000200101
0.000296583
0.000138208
0.000246091
0.000102164
0.000159329
0.000101505
7.70885e-05
9.71444e-05
8.96438e-05
4.59673e-05
7.67644e-05
3.60366e-05
3.3178e-05
9.99078e-05
0.000100776
0.000102147
0.000103718
0.000106505
0.000111513
0.000119503
0.000128796
0.000138052
0.000149933
0.000163529
0.000190457
0.000246387
0.000314649
0.000331045
0.000306769
0.000265308
0.000226025
0.000206335
0.000210373
0.000242268
0.000307974
0.000436593
0.00047928
0.000439512
0.000351683
0.00036458
0.000409553
0.000432182
0.000384772
0.000304966
0.000251157
0.000219004
0.000179377
0.000221891
0.000266116
0.000309325
0.000346472
0.000403163
0.000391151
0.000451942
0.000400472
0.000461735
0.000384376
0.000449232
0.000345467
0.000421987
0.000279745
0.000374439
0.000171349
0.000296333
0.000169707
8.3588e-05
0.0001527
0.000127102
4.33818e-05
7.53131e-05
1.69779e-05
2.02855e-05
0.000100388
0.000100929
0.00010216
0.000103778
0.000106572
0.000111708
0.000119536
0.000128698
0.000137516
0.000149003
0.000161905
0.000184603
0.000233074
0.000309355
0.000337833
0.000320387
0.000278766
0.000236237
0.000208166
0.000206476
0.000231058
0.000288049
0.000407271
0.000488233
0.000460676
0.000345845
0.000334045
0.000386176
0.000446695
0.000432741
0.000348037
0.000287166
0.000292208
0.000415152
0.000455602
0.0003487
0.000388859
0.000452378
0.000492284
0.00049807
0.000531137
0.000503629
0.00053264
0.000492815
0.000521488
0.000472703
0.000505426
0.000440674
0.000480541
0.000387495
0.0004451
0.000299099
0.000388209
0.000290215
0.000106306
0.000267498
0.000233235
5.56651e-05
8.70492e-05
8.75943e-06
1.46938e-05
0.00010292
0.000102822
0.000102683
0.000104103
0.000106822
0.000112084
0.000119833
0.00012866
0.000137199
0.000148314
0.000160748
0.000180108
0.000221828
0.000296991
0.000339994
0.000331451
0.000293133
0.000247478
0.000211473
0.000203832
0.000220409
0.000267924
0.000365477
0.000493457
0.000488089
0.000366729
0.000318733
0.000365192
0.000454916
0.000482045
0.000415042
0.000334882
0.000353596
0.000475119
0.000508385
0.00056317
0.000577964
0.000522643
0.000546741
0.000556329
0.000573824
0.000553081
0.000565689
0.000539971
0.000551827
0.000523964
0.000533569
0.000502652
0.000515383
0.000477702
0.000494172
0.000442288
0.00047021
0.000382098
0.000434189
0.000369668
0.000186291
0.000350581
0.000326264
7.6138e-05
0.000130104
4.43988e-06
1.83609e-05
0.000111705
0.000112124
0.000105032
0.000104869
0.000107338
0.00011274
0.000120283
0.000128713
0.000137139
0.000147767
0.000159942
0.000176684
0.000212658
0.000282286
0.000338192
0.000339945
0.000307277
0.000259717
0.000218066
0.000202247
0.000210895
0.000249685
0.000329929
0.000484709
0.000513477
0.000434604
0.000319344
0.000343975
0.0004559
0.000528412
0.000491833
0.000415969
0.000429303
0.000529501
0.000548679
0.00059023
0.000598124
0.00060573
0.0006116
0.000586982
0.000598728
0.000575312
0.000580829
0.000556676
0.000558815
0.000539311
0.000543203
0.000525124
0.000535638
0.000509741
0.000529851
0.000491575
0.000515022
0.000465047
0.000491678
0.000426678
0.000457574
0.000416312
0.000290406
0.000404115
0.000391618
9.78676e-05
0.000243319
3.0118e-06
4.53894e-05
0.000120875
0.000129373
0.000114115
0.00010738
0.000108392
0.000113694
0.000120918
0.000128883
0.000137288
0.000147402
0.000159406
0.000174119
0.000205116
0.00026829
0.000335192
0.000347485
0.000320697
0.000272658
0.000226753
0.000201513
0.000203086
0.000233001
0.000300696
0.000444333
0.000532394
0.00050338
0.000337459
0.000320746
0.000443466
0.000563646
0.000566679
0.000504687
0.000503959
0.00060271
0.000609107
0.000620654
0.000615633
0.000616175
0.000587879
0.000587605
0.000585224
0.000587657
0.00056104
0.000562204
0.000546748
0.000551068
0.000549965
0.000565451
0.000555671
0.000588468
0.000551806
0.000604593
0.000531282
0.000593289
0.000496248
0.000554381
0.000454823
0.000499461
0.000449481
0.000376802
0.000443613
0.000438988
0.000186387
0.000366125
2.27098e-05
0.000160925
0.000131099
0.000132953
0.000115107
0.000110597
0.00011467
0.0001216
0.000129112
0.000137604
0.000147305
0.000159056
0.000172434
0.000199088
0.000254335
0.000330298
0.000353885
0.000333331
0.000286036
0.000236801
0.000202428
0.000197379
0.000218099
0.000274383
0.000394343
0.000534472
0.000550264
0.000418827
0.00030849
0.000402006
0.000570638
0.000635715
0.000585751
0.000571558
0.000619697
0.000611953
0.000614945
0.000616549
0.000616834
0.000586988
0.00058639
0.000564446
0.000564874
0.00056315
0.00056395
0.000556983
0.000563324
0.00058092
0.000600907
0.000628041
0.000664479
0.000659914
0.000702587
0.00065958
0.00069964
0.000627575
0.000674298
0.000572899
0.000632302
0.000500167
0.000579527
0.000494688
0.000440055
0.000485524
0.00047707
0.000337238
0.000437303
0.000296112
0.00037953
0.000135127
0.00013225
0.000115329
0.000115525
0.000122035
0.000129431
0.000138008
0.000147399
0.000158927
0.000171381
0.000194462
0.000242026
0.000319749
0.000357116
0.000344252
0.000299808
0.000248119
0.000205448
0.000193589
0.000205324
0.000250128
0.000347472
0.00051407
0.00057749
0.000517795
0.000312603
0.000338932
0.00054701
0.000680554
0.000667032
0.000630675
0.00063534
0.000603433
0.000587323
0.000588178
0.000585641
0.000586008
0.000565499
0.000567291
0.000582886
0.000589139
0.000570666
0.000576929
0.000622443
0.000643388
0.000698729
0.000725575
0.000729494
0.000744944
0.000723239
0.000736498
0.000702843
0.000710863
0.000666598
0.000669704
0.000623628
0.000603745
0.000570471
0.000575496
0.000550657
0.00046914
0.000520664
0.0004817
0.000488398
0.000334357
0.000444175
0.000452058
0.000341643
0.000326951
0.000139057
0.000126251
0.000118412
0.000122267
0.000129615
0.000138432
0.000147633
0.000158854
0.000170788
0.00019087
0.000232255
0.000307659
0.000356594
0.000352407
0.000313573
0.000260318
0.000213213
0.000191092
0.000195115
0.00022916
0.000308641
0.00046803
0.000583328
0.000582606
0.000367559
0.000293969
0.000460163
0.000682813
0.000738983
0.00068338
0.000658795
0.000615509
0.000602609
0.000617313
0.000582179
0.00059134
0.000570741
0.000575623
0.000596988
0.000606587
0.000695826
0.000710639
0.000663218
0.000680112
0.00074712
0.00076587
0.000759528
0.000772623
0.000741451
0.000740287
0.000706101
0.000671703
0.00066431
0.000609107
0.000589753
0.000578357
0.000529829
0.000503587
0.000523325
0.00044708
0.00055166
0.000543518
0.000458093
0.000453769
0.000457227
0.000476355
0.000494343
0.000432958
0.000430956
0.000462872
0.000309913
0.000428992
0.000441016
0.000439201
0.000280436
0.000291654
0.000282829
0.000288541
0.00014176
0.00012188
0.000121852
0.000129521
0.0001387
0.000147717
0.000158917
0.000170183
0.000188369
0.000224821
0.000296719
0.000354167
0.00035833
0.000326704
0.000273167
0.000222201
0.000190335
0.000187532
0.000211253
0.000276241
0.000413921
0.00057217
0.000616744
0.000489414
0.000282167
0.000355389
0.000641521
0.000771492
0.000748131
0.000686994
0.000639126
0.000628458
0.000639912
0.000681075
0.000696838
0.000646789
0.000663396
0.000618474
0.000632005
0.000725149
0.000739743
0.000805543
0.000814277
0.000780675
0.000794239
0.000785557
0.00079761
0.000734168
0.00073048
0.000630438
0.000592957
0.000547425
0.000512411
0.00050893
0.000476194
0.000546754
0.000503697
0.000480895
0.000456188
0.000471034
0.000400765
0.000464458
0.000440282
0.00045282
0.000414555
0.00048126
0.000406232
0.00042942
0.000441418
0.000476862
0.000451829
0.000478285
0.000439264
0.000422552
0.0004309
0.000445515
0.00040701
0.000422029
0.000428174
0.0001712
0.000423465
0.000302218
0.000398942
0.000401242
0.000136206
0.000123895
0.000128261
0.000138685
0.000147629
0.000158813
0.000170038
0.000186287
0.000219513
0.000286374
0.000351467
0.000363573
0.000338604
0.000286317
0.000232402
0.000191939
0.000182132
0.000196349
0.000247416
0.000360571
0.00053135
0.000627999
0.000584177
0.000306091
0.000278862
0.000488856
0.000761086
0.000799653
0.000728911
0.000668416
0.000699699
0.000711918
0.000733529
0.000806822
0.000813307
0.000782564
0.000795851
0.000754477
0.000768368
0.000823003
0.000832427
0.000831042
0.000842797
0.00080893
0.000819866
0.000730287
0.000734655
0.000567961
0.00055503
0.000487584
0.000466278
0.000453451
0.000431577
0.000442698
0.000429758
0.000417267
0.000408553
0.000444924
0.000429523
0.000414735
0.000400596
0.00041076
0.000421021
0.000403088
0.000422367
0.000407467
0.000409869
0.000395629
0.000388467
0.000404394
0.000476295
0.000451609
0.00048248
0.000417523
0.000403105
0.000397595
0.000435242
0.000408218
0.000396583
0.000426965
0.000397799
0.000307681
0.00037401
0.000392943
0.000396959
0.000132038
0.000127509
0.000137906
0.000147189
0.000158654
0.000169662
0.00018516
0.000215411
0.000276894
0.000347447
0.000368715
0.000349111
0.000299452
0.000243648
0.000196205
0.000178239
0.000184209
0.000222565
0.000315196
0.000481893
0.000626413
0.000637784
0.000413921
0.000251211
0.000355898
0.00066995
0.000805331
0.000789385
0.000713418
0.000728422
0.000814535
0.000805399
0.000817769
0.000818485
0.000881762
0.000884498
0.000864645
0.000874599
0.000842629
0.000853438
0.000855632
0.000869658
0.000737573
0.000759905
0.000728489
0.000725228
0.000553753
0.000562818
0.000450448
0.000438013
0.000412992
0.000398237
0.000403836
0.000400524
0.000399177
0.000396901
0.00040232
0.000394067
0.000391636
0.00039195
0.000406753
0.000392012
0.000382143
0.000379912
0.000404988
0.000387644
0.00037229
0.000388979
0.000377637
0.000376963
0.000361337
0.000363708
0.000372974
0.000474991
0.00045686
0.000485641
0.00040251
0.000373622
0.000378249
0.000424306
0.000408484
0.000396229
0.000434421
0.000370709
0.000205536
0.000241013
0.000389223
0.000311724
0.000132688
0.00013601
0.000146405
0.000158291
0.000169658
0.000184112
0.000212801
0.000268467
0.000342345
0.000373335
0.00035832
0.000312401
0.000255895
0.000204971
0.000176285
0.000174801
0.000201248
0.000277023
0.000429431
0.000596459
0.000659684
0.000541439
0.000259921
0.000263905
0.000470996
0.000764358
0.000807742
0.000781037
0.000756648
0.000826915
0.00086825
0.000863307
0.000883521
0.000879145
0.000926418
0.000925284
0.000911746
0.000921536
0.000884189
0.000898556
0.000774692
0.000798144
0.000532919
0.000547518
0.000547882
0.000527051
0.00043171
0.000432763
0.000388813
0.000384714
0.000394974
0.000391124
0.000387863
0.00038415
0.000393848
0.000395825
0.000396872
0.000396685
0.000379149
0.000380196
0.000383447
0.000387473
0.000374467
0.000367782
0.000367097
0.00038251
0.000377574
0.000360183
0.000349024
0.000360103
0.000350297
0.00034978
0.000338314
0.000367069
0.000348335
0.000461964
0.000463724
0.000482777
0.000391276
0.000352799
0.000364062
0.00041423
0.000416323
0.000399362
0.00044352
0.000298942
0.000183405
0.000249645
0.000390444
0.000280055
0.000137184
0.000145162
0.000157314
0.000169759
0.000183762
0.000210927
0.000262083
0.00033742
0.000377254
0.000366897
0.00032497
0.000269056
0.000214685
0.000176941
0.000168462
0.000183013
0.000243177
0.000376281
0.000550042
0.000664173
0.000624665
0.000323624
0.00022664
0.000336597
0.000596393
0.000795193
0.000806054
0.00079234
0.000826132
0.000856705
0.00084894
0.000893271
0.000876928
0.000918757
0.000907358
0.000918723
0.000926841
0.000867339
0.000889146
0.00082109
0.000842746
0.000574424
0.000608963
0.000376266
0.000394587
0.000439827
0.000380626
0.000387113
0.000388811
0.000376807
0.000371088
0.00039543
0.000393056
0.000389976
0.000385328
0.000391239
0.000393861
0.000394707
0.00039466
0.000369853
0.000374115
0.000378723
0.000382864
0.000355814
0.000356075
0.000359222
0.00036874
0.000351344
0.000344988
0.000335226
0.000339794
0.000352321
0.000331527
0.000341657
0.000362283
0.000333455
0.000444656
0.00046755
0.000476782
0.000381422
0.000342551
0.000357227
0.000404581
0.000424316
0.000404144
0.000450267
5.34381e-05
0.00021229
0.000242854
0.00040133
0.000252658
0.000145256
0.00015709
0.000169363
0.000184059
0.000209669
0.000257835
0.000333631
0.000381005
0.00037491
0.000338031
0.000282184
0.000227241
0.000179703
0.000164974
0.000168236
0.000212177
0.000325797
0.000501058
0.000659383
0.000671237
0.000454333
0.000222793
0.000248143
0.000424079
0.000670058
0.000805776
0.000813555
0.000826195
0.000845783
0.000857858
0.000852376
0.000890056
0.000874049
0.00091833
0.000904672
0.000788985
0.0008396
0.000711577
0.000747641
0.000643932
0.000679054
0.000430554
0.000473991
0.000287526
0.000306006
0.000350215
0.000295575
0.00036467
0.00035223
0.000383949
0.000383501
0.00038292
0.000383287
0.000393154
0.000390248
0.000386867
0.000385074
0.000386423
0.00038789
0.000388445
0.000387894
0.000363319
0.000367514
0.000371403
0.000374878
0.000345493
0.000347978
0.000351238
0.000345518
0.000332456
0.000334979
0.00032489
0.0003262
0.000357479
0.000335827
0.000354279
0.000341563
0.000335246
0.000428445
0.000464103
0.000449994
0.000376916
0.000344846
0.000361365
0.000396485
0.000431318
0.000412361
0.000450223
5.64568e-05
0.000213642
0.000267194
0.000353616
0.0002555
0.000155449
0.000169394
0.000184255
0.00021008
0.000254646
0.000331303
0.000384283
0.000384963
0.000350004
0.000297052
0.000240255
0.000189046
0.000164211
0.000157409
0.000186317
0.000281791
0.000454332
0.000628609
0.000692189
0.00056604
0.000251432
0.000204219
0.000305972
0.000487623
0.000694163
0.000813831
0.000828609
0.000835176
0.000837502
0.000837986
0.000846978
0.00083978
0.000869152
0.000856948
0.000893838
0.000882229
0.000692305
0.000751307
0.000598993
0.000642611
0.000518223
0.000561594
0.000346649
0.000391847
0.000212649
0.000235106
0.000266743
0.000213523
0.000379072
0.000356963
0.000292933
0.00038327
0.000385178
0.000386887
0.000387257
0.000386122
0.000383764
0.00038273
0.000382143
0.000377244
0.000378083
0.000378705
0.000378085
0.000354461
0.000357494
0.000360327
0.000363474
0.000336492
0.00033832
0.0003402
0.000326434
0.000317968
0.000325015
0.000314035
0.000315481
0.000338936
0.000353333
0.000337666
0.000322538
0.000354987
0.000412922
0.000459247
0.000423365
0.000381474
0.000359409
0.000369664
0.000393972
0.000434911
0.00040093
0.000447682
9.69548e-05
0.000255872
0.000252036
0.000313059
0.000309621
0.000168484
0.000184903
0.000211153
0.000254786
0.000330648
0.000390298
0.000394537
0.000364999
0.000310304
0.000255664
0.000198387
0.00016487
0.00015247
0.000171047
0.000251241
0.000414266
0.000590977
0.000697646
0.000641054
0.000336957
0.000190542
0.000226933
0.000352633
0.000506558
0.00069098
0.000790198
0.000815726
0.000816621
0.00082232
0.000818854
0.000832164
0.000827385
0.000844452
0.000837495
0.00081875
0.000852159
0.000624174
0.000683649
0.000523309
0.000571135
0.000438768
0.000480297
0.000274074
0.000321202
0.000146002
0.000169248
0.000211424
0.000158806
0.000382652
0.000357459
0.000291623
0.000234304
0.000380806
0.000385467
0.000389443
0.000389099
0.000376978
0.000375507
0.000375447
0.000377021
0.000364459
0.000365989
0.000366296
0.00036677
0.000342055
0.000344024
0.000346041
0.000348755
0.000325243
0.000325384
0.000325585
0.000310752
0.000307011
0.000312459
0.000300461
0.000303921
0.000320511
0.000338556
0.000320505
0.000305261
0.00034076
0.000399796
0.000422014
0.000396317
0.00038861
0.000344642
0.000352625
0.000395536
0.000411134
0.000345128
0.000399896
0.000178608
0.000380509
0.000217582
0.000334399
0.000408982
0.000184899
0.000212623
0.000256007
0.000330768
0.000395009
0.000409884
0.00037779
0.000327571
0.000266667
0.000217046
0.000166621
0.00014561
0.000164979
0.000240555
0.000391886
0.000559136
0.00069847
0.000688066
0.000447422
0.000201593
0.000180792
0.000255929
0.000365973
0.000504835
0.000641173
0.000742133
0.000767076
0.000756588
0.000726348
0.000794012
0.000779648
0.000807327
0.000802428
0.000813262
0.00081065
0.000743797
0.000809908
0.000558258
0.00061241
0.000453663
0.000503778
0.000364911
0.000409127
0.000206877
0.000260388
0.000119812
0.000142013
0.000211191
0.000177926
0.000136868
0.000349975
0.000301281
0.000266106
0.000228476
0.0003785
0.00038477
0.000334818
0.000388989
0.000366737
0.000366503
0.000367193
0.000372637
0.000349758
0.000350858
0.000352858
0.000354445
0.000325829
0.000326576
0.000328306
0.000331619
0.000310715
0.00030892
0.000307278
0.000299514
0.000295043
0.000296609
0.000283541
0.000289594
0.000301709
0.000322525
0.000301126
0.00029356
0.000328248
0.000387864
0.000384376
0.000375335
0.000368026
0.000335939
0.00034597