/*--------------------------------*- C++ -*----------------------------------*\
  =========                 |
  \\      /  F ield         | OpenFOAM: The Open Source CFD Toolbox
   \\    /   O peration     | Website:  https://openfoam.org
    \\  /    A nd           | Version:  dev
     \\/     M anipulation  |
\*---------------------------------------------------------------------------*/
FoamFile
{
    version     2.0;
    format      ascii;
    class       volScalarField;
    location    "2500";
    object      O2;
}
// * * * * * * * * * * * * * * * * * * * * * * * * * * * * * * * * * * * * * //

dimensions      [0 0 0 0 0 0 0];

internalField   nonuniform List<scalar> 
9834
(
0.23301
0.23301
0.23301
0.23301
0.23301
0.23301
0.23301
0.23301
0.23301
0.23301
0.23301
0.23301
0.23301
0.23301
0.23301
0.23301
0.23301
0.23301
0.23301
0.23301
0.23301
0.23301
0.23301
0.23301
0.23301
0.23301
0.23301
0.23301
0.23301
0.23301
0.23301
0.23301
0.23301
0.23301
0.23301
0.23301
0.23301
0.23301
0.23301
0.23301
0.23301
0.23301
0.23301
0.23301
0.23301
0.23301
0.23301
0.23301
0.23301
0.23301
0.23301
0.23301
0.23301
0.23301
0.23301
0.23301
0.23301
0.23301
0.23301
0.23301
0.23301
0.23301
0.23301
0.23301
0.23301
0.23301
0.23301
0.23301
0.23301
0.23301
0.23301
0.23301
0.23301
0.23301
0.23301
0.23301
0.23301
0.23301
0.23301
0.23301
0.23301
0.23301
0.23301
0.23301
0.23301
0.23301
0.23301
0.23301
0.23301
0.23301
0.23301
0.23301
0.23301
0.23301
0.23301
0.23301
0.23301
0.23301
0.23301
0.23301
0.23301
0.23301
0.23301
0.23301
0.23301
0.23301
0.23301
0.23301
0.23301
0.23301
0.23301
0.23301
0.23301
0.23301
0.23301
0.23301
0.23301
0.23301
0.23301
0.23301
0.23301
0.23301
0.23301
0.23301
0.23301
0.23301
0.23301
0.23301
0.23301
0.23301
0.23301
0.23301
0.23301
0.23301
0.23301
0.23301
0.23301
0.23301
0.23301
0.23301
0.23301
0.23301
0.23301
0.23301
0.23301
0.23301
0.23301
0.23301
0.23301
0.23301
0.23301
0.23301
0.23301
0.23301
0.23301
0.23301
0.23301
0.23301
0.23301
0.23301
0.23301
0.23301
0.23301
0.23301
0.23301
0.23301
0.23301
0.23301
0.23301
0.23301
0.23301
0.23301
0.23301
0.23301
0.23301
0.23301
0.23301
0.23301
0.23301
0.23301
0.23301
0.23301
0.23301
0.23301
0.23301
0.23301
0.23301
0.23301
0.23301
0.23301
0.23301
0.23301
0.23301
0.23301
0.23301
0.23301
0.23301
0.23301
0.23301
0.23301
0.23301
0.23301
0.23301
0.23301
0.23301
0.23301
0.23301
0.23301
0.23301
0.23301
0.23301
0.23301
0.23301
0.23301
0.23301
0.23301
0.23301
0.23301
0.23301
0.23301
0.23301
0.23301
0.23301
0.23301
0.23301
0.23301
0.23301
0.23301
0.23301
0.23301
0.23301
0.23301
0.23301
0.23301
0.23301
0.23301
0.23301
0.23301
0.23301
0.23301
0.23301
0.23301
0.23301
0.23301
0.23301
0.23301
0.23301
0.23301
0.23301
0.23301
0.23301
0.23301
0.23301
0.23301
0.23301
0.23301
0.23301
0.23301
0.23301
0.23301
0.23301
0.23301
0.23301
0.23301
0.23301
0.23301
0.23301
0.23301
0.23301
0.23301
0.23301
0.23301
0.23301
0.23301
0.23301
0.23301
0.23301
0.23301
0.23301
0.23301
0.23301
0.23301
0.23301
0.23301
0.23301
0.23301
0.23301
0.23301
0.23301
0.23301
0.23301
0.23301
0.23301
0.23301
0.23301
0.23301
0.23301
0.23301
0.23301
0.23301
0.23301
0.23301
0.23301
0.23301
0.23301
0.23301
0.23301
0.23301
0.23301
0.23301
0.23301
0.23301
0.23301
0.23301
0.23301
0.23301
0.23301
0.23301
0.23301
0.23301
0.23301
0.23301
0.23301
0.23301
0.23301
0.23301
0.23301
0.23301
0.23301
0.23301
0.23301
0.23301
0.23301
0.23301
0.23301
0.23301
0.23301
0.23301
0.23301
0.23301
0.23301
0.23301
0.23301
0.23301
0.23301
0.23301
0.23301
0.23301
0.23301
0.23301
0.23301
0.23301
0.23301
0.23301
0.23301
0.23301
0.23301
0.23301
0.23301
0.23301
0.23301
0.23301
0.23301
0.23301
0.23301
0.23301
0.23301
0.23301
0.23301
0.23301
0.23301
0.23301
0.23301
0.23301
0.23301
0.23301
0.23301
0.23301
0.23301
0.23301
0.23301
0.23301
0.23301
0.23301
0.23301
0.23301
0.23301
0.23301
0.23301
0.23301
0.23301
0.23301
0.23301
0.23301
0.23301
0.23301
0.23301
0.23301
0.23301
0.23301
0.23301
0.23301
0.23301
0.23301
0.23301
0.23301
0.23301
0.23301
0.23301
0.23301
0.23301
0.23301
0.23301
0.23301
0.23301
0.23301
0.23301
0.23301
0.23301
0.23301
0.23301
0.23301
0.23301
0.23301
0.23301
0.23301
0.23301
0.23301
0.23301
0.23301
0.23301
0.23301
0.23301
0.23301
0.23301
0.23301
0.23301
0.23301
0.23301
0.23301
0.23301
0.23301
0.23301
0.23301
0.23301
0.23301
0.23301
0.23301
0.23301
0.23301
0.23301
0.23301
0.23301
0.23301
0.23301
0.23301
0.23301
0.23301
0.23301
0.23301
0.23301
0.23301
0.23301
0.23301
0.23301
0.23301
0.23301
0.23301
0.23301
0.23301
0.23301
0.23301
0.23301
0.23301
0.23301
0.23301
0.23301
0.23301
0.23301
0.23301
0.23301
0.23301
0.23301
0.23301
0.23301
0.23301
0.23301
0.23301
0.23301
0.23301
0.23301
0.23301
0.23301
0.23301
0.23301
0.23301
0.23301
0.23301
0.23301
0.23301
0.23301
0.23301
0.23301
0.23301
0.23301
0.23301
0.23301
0.23301
0.23301
0.23301
0.23301
0.23301
0.23301
0.23301
0.23301
0.23301
0.23301
0.23301
0.23301
0.23301
0.23301
0.23301
0.23301
0.23301
0.23301
0.23301
0.23301
0.23301
0.23301
0.23301
0.23301
0.23301
0.23301
0.23301
0.23301
0.23301
0.23301
0.23301
0.23301
0.23301
0.23301
0.23301
0.23301
0.23301
0.23301
0.23301
0.23301
0.23301
0.23301
0.23301
0.23301
0.23301
0.23301
0.23301
0.23301
0.23301
0.23301
0.23301
0.23301
0.23301
0.23301
0.23301
0.23301
0.23301
0.23301
0.23301
0.23301
0.23301
0.23301
0.23301
0.23301
0.23301
0.23301
0.23301
0.23301
0.23301
0.23301
0.23301
0.23301
0.23301
0.23301
0.23301
0.23301
0.23301
0.23301
0.23301
0.23301
0.23301
0.23301
0.23301
0.23301
0.23301
0.23301
0.23301
0.23301
0.23301
0.23301
0.23301
0.23301
0.23301
0.23301
0.23301
0.23301
0.23301
0.23301
0.23301
0.23301
0.23301
0.23301
0.23301
0.23301
0.23301
0.23301
0.23301
0.23301
0.23301
0.23301
0.23301
0.23301
0.23301
0.23301
0.23301
0.23301
0.23301
0.23301
0.23301
0.23301
0.23301
0.23301
0.23301
0.23301
0.23301
0.23301
0.23301
0.23301
0.23301
0.23301
0.23301
0.23301
0.23301
0.23301
0.23301
0.23301
0.23301
0.23301
0.23301
0.23301
0.23301
0.23301
0.23301
0.23301
0.23301
0.23301
0.23301
0.233009
0.233009
0.23301
0.23301
0.23301
0.23301
0.23301
0.23301
0.23301
0.23301
0.23301
0.23301
0.23301
0.23301
0.23301
0.23301
0.23301
0.23301
0.23301
0.23301
0.23301
0.23301
0.23301
0.23301
0.23301
0.23301
0.23301
0.23301
0.23301
0.23301
0.23301
0.23301
0.23301
0.23301
0.23301
0.23301
0.23301
0.23301
0.23301
0.233009
0.233008
0.233007
0.233006
0.233007
0.233008
0.233009
0.23301
0.23301
0.23301
0.23301
0.23301
0.23301
0.23301
0.23301
0.23301
0.23301
0.23301
0.23301
0.23301
0.23301
0.23301
0.23301
0.23301
0.23301
0.23301
0.23301
0.23301
0.23301
0.23301
0.23301
0.23301
0.23301
0.23301
0.23301
0.23301
0.23301
0.23301
0.23301
0.23301
0.23301
0.233009
0.233008
0.233003
0.232995
0.232988
0.232988
0.232996
0.233004
0.233008
0.23301
0.23301
0.23301
0.23301
0.23301
0.23301
0.23301
0.23301
0.23301
0.23301
0.23301
0.23301
0.23301
0.23301
0.23301
0.23301
0.23301
0.23301
0.23301
0.23301
0.23301
0.23301
0.23301
0.23301
0.23301
0.23301
0.23301
0.23301
0.23301
0.23301
0.23301
0.23301
0.23301
0.23301
0.23301
0.233009
0.233006
0.232993
0.232966
0.232929
0.232909
0.23293
0.232969
0.232995
0.233006
0.233009
0.23301
0.23301
0.23301
0.23301
0.23301
0.23301
0.23301
0.23301
0.23301
0.23301
0.23301
0.23301
0.23301
0.23301
0.23301
0.23301
0.23301
0.23301
0.23301
0.23301
0.23301
0.23301
0.23301
0.23301
0.23301
0.23301
0.23301
0.23301
0.23301
0.23301
0.23301
0.23301
0.23301
0.23301
0.23301
0.233009
0.233003
0.232981
0.232921
0.232818
0.232716
0.2327
0.232799
0.232915
0.23298
0.233002
0.233008
0.23301
0.23301
0.23301
0.23301
0.23301
0.23301
0.23301
0.23301
0.23301
0.23301
0.23301
0.23301
0.23301
0.23301
0.23301
0.23301
0.23301
0.23301
0.23301
0.23301
0.23301
0.23301
0.23301
0.23301
0.23301
0.23301
0.23301
0.23301
0.23301
0.23301
0.23301
0.23301
0.23301
0.23301
0.23301
0.23301
0.233008
0.233002
0.232971
0.232876
0.232695
0.232477
0.232332
0.232368
0.232617
0.232859
0.232968
0.233
0.233008
0.233009
0.23301
0.233009
0.23301
0.233009
0.233009
0.233008
0.23301
0.233009
0.23301
0.233009
0.23301
0.23301
0.23301
0.23301
0.23301
0.23301
0.23301
0.23301
0.23301
0.23301
0.23301
0.23301
0.23301
0.23301
0.23301
0.23301
0.23301
0.23301
0.23301
0.23301
0.23301
0.23301
0.23301
0.23301
0.23301
0.23301
0.233008
0.233002
0.232964
0.232845
0.232602
0.232282
0.231997
0.231875
0.232034
0.232475
0.232838
0.232968
0.233
0.233007
0.233008
0.233006
0.233006
0.233001
0.233005
0.232996
0.233005
0.232995
0.233007
0.232999
0.233009
0.233005
0.233008
0.23301
0.233008
0.233008
0.23301
0.23301
0.23301
0.23301
0.23301
0.23301
0.23301
0.23301
0.23301
0.23301
0.23301
0.23301
0.23301
0.23301
0.23301
0.23301
0.23301
0.23301
0.23301
0.23301
0.23301
0.23301
0.233009
0.233002
0.232963
0.232828
0.232551
0.232183
0.231808
0.231512
0.231453
0.231788
0.232445
0.232857
0.232975
0.233001
0.233004
0.233
0.232991
0.23297
0.232975
0.232932
0.232968
0.232906
0.232974
0.232909
0.232988
0.232939
0.233002
0.232975
0.232999
0.233009
0.232998
0.232999
0.23301
0.233009
0.23301
0.23301
0.23301
0.23301
0.23301
0.23301
0.23301
0.23301
0.23301
0.23301
0.23301
0.23301
0.23301
0.23301
0.23301
0.23301
0.23301
0.23301
0.23301
0.23301
0.233009
0.233004
0.232967
0.232828
0.232519
0.232175
0.23182
0.231426
0.231125
0.231165
0.231742
0.232527
0.232897
0.232985
0.232994
0.232986
0.232946
0.232906
0.232853
0.232742
0.232777
0.232569
0.232761
0.232476
0.232806
0.232512
0.232889
0.23266
0.23296
0.23283
0.23295
0.233002
0.232948
0.232955
0.23301
0.233005
0.23301
0.23301
0.23301
0.23301
0.23301
0.23301
0.23301
0.23301
0.23301
0.23301
0.23301
0.23301
0.23301
0.23301
0.23301
0.23301
0.23301
0.23301
0.23301
0.23301
0.233009
0.233006
0.232977
0.232845
0.232534
0.232245
0.231991
0.23156
0.2311
0.230819
0.231104
0.231898
0.232687
0.232939
0.232965
0.232995
0.232875
0.232826
0.232609
0.23246
0.232311
0.232031
0.232098
0.231678
0.232036
0.231486
0.232168
0.231503
0.232485
0.231773
0.232775
0.232306
0.232744
0.23297
0.232747
0.232786
0.233008
0.232986
0.23301
0.233009
0.23301
0.23301
0.23301
0.23301
0.23301
0.23301
0.23301
0.23301
0.23301
0.23301
0.23301
0.23301
0.23301
0.23301
0.23301
0.23301
0.23301
0.23301
0.23301
0.233007
0.232987
0.232877
0.232576
0.232326
0.232192
0.231925
0.23134
0.230778
0.230687
0.231293
0.232225
0.23283
0.232787
0.232787
0.232669
0.232318
0.23217
0.231756
0.231498
0.231259
0.230867
0.230921
0.230375
0.230789
0.230088
0.230922
0.230057
0.231386
0.230364
0.232165
0.231064
0.23211
0.232848
0.232151
0.23227
0.232999
0.232915
0.23301
0.233007
0.23301
0.23301
0.23301
0.23301
0.23301
0.23301
0.23301
0.23301
0.23301
0.23301
0.23301
0.23301
0.23301
0.23301
0.23301
0.23301
0.23301
0.23301
0.23301
0.233008
0.232995
0.232912
0.23264
0.232378
0.232306
0.232211
0.231802
0.23097
0.230491
0.230807
0.231738
0.232586
0.232654
0.231802
0.231683
0.232042
0.231917
0.231269
0.231057
0.230515
0.230202
0.229873
0.229422
0.229416
0.228798
0.229199
0.22842
0.229312
0.228322
0.229859
0.22865
0.230838
0.229451
0.230752
0.232463
0.230837
0.231102
0.232969
0.232686
0.23301
0.233
0.23301
0.23301
0.23301
0.23301
0.23301
0.23301
0.23301
0.23301
0.23301
0.23301
0.23301
0.23301
0.23301
0.23301
0.23301
0.23301
0.23301
0.23301
0.23301
0.233008
0.233
0.232942
0.232715
0.232417
0.23236
0.232389
0.232154
0.231377
0.230461
0.230459
0.231277
0.232242
0.232454
0.231556
0.231461
0.230586
0.230462
0.230877
0.230721
0.229931
0.229685
0.229027
0.228684
0.228258
0.227773
0.227674
0.227064
0.227383
0.226648
0.227456
0.226523
0.228051
0.226751
0.229187
0.227588
0.22909
0.231565
0.229183
0.229477
0.232872
0.232109
0.233009
0.232978
0.23301
0.23301
0.23301
0.23301
0.23301
0.23301
0.23301
0.23301
0.23301
0.23301
0.23301
0.23301
0.23301
0.23301
0.23301
0.23301
0.23301
0.23301
0.23301
0.233009
0.233004
0.232966
0.232791
0.232459
0.232383
0.232474
0.232392
0.231779
0.230609
0.23022
0.230817
0.231802
0.232107
0.231257
0.231319
0.230343
0.23022
0.229154
0.229025
0.229477
0.229302
0.228393
0.228137
0.227372
0.22705
0.226597
0.226293
0.226216
0.225978
0.226045
0.225846
0.226021
0.22576
0.226258
0.225721
0.227314
0.225963
0.22724
0.230027
0.22739
0.227715
0.232568
0.230806
0.233008
0.232887
0.23301
0.23301
0.23301
0.23301
0.23301
0.23301
0.23301
0.23301
0.23301
0.23301
0.23301
0.23301
0.23301
0.23301
0.23301
0.23301
0.23301
0.23301
0.23301
0.23301
0.233006
0.232983
0.232856
0.232527
0.232392
0.232482
0.232532
0.232148
0.230991
0.23008
0.230352
0.2313
0.231689
0.230334
0.230105
0.229773
0.228905
0.228794
0.227612
0.227494
0.227926
0.227752
0.226794
0.226589
0.226096
0.225959
0.225854
0.225788
0.225773
0.225778
0.225714
0.225791
0.225611
0.225727
0.225532
0.225558
0.225772
0.225381
0.225675
0.228205
0.225715
0.225973
0.231773
0.228864
0.23297
0.232344
0.23301
0.23301
0.23301
0.23301
0.23301
0.23301
0.23301
0.23301
0.23301
0.23301
0.23301
0.23301
0.23301
0.23301
0.23301
0.23301
0.23301
0.23301
0.23301
0.233008
0.232995
0.232908
0.232625
0.2324
0.23245
0.232601
0.232432
0.231492
0.230125
0.229964
0.23074
0.231255
0.230042
0.228434
0.228514
0.228677
0.228563
0.227391
0.227311
0.226257
0.226209
0.226434
0.226325
0.225868
0.22581
0.225745
0.225721
0.225815
0.225892
0.225985
0.226266
0.22607
0.226597
0.225883
0.226604
0.225519
0.22616
0.225228
0.225467
0.225077
0.226302
0.224942
0.224859
0.229687
0.226514
0.231758
0.228469
0.23301
0.23301
0.23301
0.23301
0.23301
0.23301
0.23301
0.23301
0.23301
0.23301
0.23301
0.23301
0.23301
0.23301
0.23301
0.23301
0.23301
0.23301
0.233009
0.233001
0.232947
0.232728
0.232418
0.232407
0.232606
0.232599
0.232009
0.230509
0.229758
0.23014
0.230777
0.22982
0.227716
0.227134
0.226967
0.227228
0.227161
0.226182
0.226184
0.225757
0.225767
0.225772
0.225755
0.225725
0.225742
0.225999
0.226118
0.226549
0.226797
0.227111
0.227519
0.227428
0.228033
0.227215
0.228199
0.226419
0.227791
0.225348
0.226534
0.225122
0.224761
0.224852
0.224702
0.224555
0.225556
0.225032
0.224567
0.228539
0.224617
0.23301
0.23301
0.23301
0.23301
0.23301
0.23301
0.23301
0.23301
0.23301
0.23301
0.23301
0.23301
0.23301
0.23301
0.23301
0.23301
0.23301
0.233009
0.233005
0.232973
0.232815
0.232471
0.232379
0.232534
0.232669
0.232405
0.231202
0.229792
0.229654
0.230201
0.229687
0.227764
0.226499
0.22669
0.226305
0.226392
0.226197
0.226232
0.225791
0.225837
0.225872
0.225946
0.225768
0.225812
0.226247
0.226381
0.227019
0.227222
0.227817
0.22804
0.228321
0.228422
0.228658
0.228713
0.228762
0.229026
0.228171
0.229171
0.226492
0.228319
0.227422
0.225518
0.226388
0.224567
0.224293
0.224411
0.225138
0.225977
0.226198
0.224959
0.224155
0.223909
0.224211
0.224073
0.231082
0.223596
0.225841
0.22385
0.23301
0.23301
0.23301
0.23301
0.23301
0.23301
0.23301
0.23301
0.23301
0.23301
0.23301
0.23301
0.23301
0.23301
0.23301
0.23301
0.23301
0.233007
0.23299
0.232882
0.232571
0.232369
0.232443
0.232675
0.232635
0.231884
0.230193
0.22947
0.229615
0.229525
0.227919
0.226808
0.227055
0.226429
0.226587
0.226139
0.226279
0.225917
0.226017
0.226036
0.226142
0.226762
0.226873
0.226514
0.226643
0.227422
0.227625
0.228237
0.228458
0.22847
0.228561
0.228627
0.228477
0.228894
0.228453
0.229213
0.229193
0.229035
0.228725
0.228958
0.229362
0.22928
0.229294
0.229434
0.228351
0.227301
0.228315
0.229079
0.227184
0.224785
0.224183
0.224601
0.225693
0.226703
0.226971
0.225465
0.223602
0.223827
0.223978
0.231478
0.226756
0.225184
0.223516
0.223752
0.23301
0.23301
0.23301
0.23301
0.23301
0.23301
0.23301
0.23301
0.23301
0.23301
0.23301
0.23301
0.23301
0.23301
0.23301
0.23301
0.233008
0.232999
0.232931
0.232684
0.232376
0.232374
0.232596
0.232726
0.23239
0.231029
0.229548
0.229258
0.229213
0.228181
0.227192
0.226754
0.22689
0.226761
0.226866
0.226516
0.226643
0.226263
0.226388
0.226974
0.227058
0.228064
0.228125
0.22781
0.227959
0.228704
0.228957
0.228714
0.228962
0.228365
0.228361
0.227818
0.227214
0.228327
0.227816
0.227314
0.226746
0.229013
0.228588
0.228042
0.229457
0.229528
0.228954
0.228888
0.22934
0.22911
0.228184
0.229074
0.229518
0.228023
0.225264
0.224398
0.225066
0.226415
0.227797
0.227522
0.226151
0.22377
0.22358
0.224188
0.227021
0.224223
0.224221
0.223493
0.223491
0.23301
0.23301
0.23301
0.23301
0.23301
0.23301
0.23301
0.23301
0.23301
0.23301
0.23301
0.23301
0.23301
0.23301
0.23301
0.233009
0.233003
0.232964
0.232781
0.232423
0.232335
0.232483
0.232737
0.23268
0.231832
0.230061
0.229209
0.228934
0.228322
0.227531
0.227161
0.227274
0.226968
0.227056
0.227229
0.227232
0.2272
0.22722
0.227123
0.227168
0.228127
0.22809
0.229314
0.229259
0.22916
0.229289
0.229314
0.229733
0.228535
0.228891
0.22685
0.226827
0.226283
0.225805
0.225502
0.225225
0.227421
0.226767
0.226128
0.225546
0.228417
0.227752
0.227015
0.229583
0.229368
0.228263
0.228152
0.228859
0.229541
0.228973
0.229534
0.229622
0.228821
0.225916
0.224844
0.225682
0.227224
0.228604
0.228332
0.226925
0.22395
0.223692
0.224582
0.226875
0.223426
0.224274
0.223465
0.223291
0.23301
0.23301
0.23301
0.23301
0.23301
0.23301
0.23301
0.23301
0.23301
0.23301
0.23301
0.23301
0.23301
0.23301
0.23301
0.233006
0.232985
0.232859
0.232525
0.232321
0.232387
0.232655
0.232792
0.232423
0.230997
0.229388
0.22886
0.22837
0.227777
0.227429
0.227276
0.227312
0.227236
0.227248
0.227558
0.227461
0.227788
0.22767
0.228009
0.227903
0.229108
0.228879
0.230279
0.230094
0.230131
0.230303
0.229396
0.229989
0.227138
0.227832
0.225127
0.225089
0.225183
0.225379
0.225057
0.224684
0.224439
0.22432
0.226262
0.225548
0.224919
0.224408
0.227497
0.226662
0.225828
0.229404
0.22887
0.2273
0.227176
0.2281
0.229654
0.229498
0.229679
0.22946
0.229413
0.22664
0.225407
0.226348
0.22803
0.229266
0.229044
0.2277
0.224256
0.223881
0.225057
0.229126
0.223382
0.225607
0.223508
0.223273
0.23301
0.23301
0.23301
0.23301
0.23301
0.23301
0.23301
0.23301
0.23301
0.23301
0.23301
0.23301
0.23301
0.23301
0.233008
0.232996
0.232914
0.232637
0.232328
0.232321
0.232534
0.232809
0.232747
0.231894
0.230091
0.228945
0.22841
0.227911
0.22756
0.227337
0.227373
0.227321
0.227321
0.227388
0.227341
0.227698
0.227542
0.228117
0.227891
0.228624
0.228365
0.229754
0.229365
0.230929
0.230649
0.230639
0.230934
0.228819
0.229919
0.225604
0.226541
0.224316
0.224436
0.22465
0.224918
0.224035
0.223808
0.223727
0.223781
0.22506
0.224401
0.223881
0.223516
0.226383
0.225482
0.224667
0.228931
0.228114
0.226185
0.226074
0.227129
0.22953
0.229673
0.22961
0.229034
0.229655
0.22736
0.225997
0.226996
0.228751
0.229604
0.229502
0.228401
0.224615
0.224108
0.22554
0.232471
0.22369
0.228167
0.223593
0.223336
0.23301
0.23301
0.23301
0.23301
0.23301
0.23301
0.23301
0.23301
0.23301
0.23301
0.23301
0.23301
0.23301
0.233009
0.233001
0.23295
0.232737
0.232368
0.232285
0.232428
0.232736
0.232865
0.232526
0.231175
0.229379
0.228537
0.228032
0.227652
0.227367
0.227274
0.22728
0.227295
0.227275
0.227425
0.227343
0.227758
0.227575
0.228278
0.227993
0.228975
0.228608
0.230212
0.229736
0.231439
0.231215
0.230917
0.231365
0.227916
0.229554
0.225172
0.225582
0.226613
0.226002
0.223974
0.224242
0.224534
0.224842
0.22331
0.223269
0.223362
0.22362
0.223984
0.223455
0.223093
0.222903
0.225225
0.224364
0.223651
0.228195
0.227161
0.22505
0.224956
0.226044
0.229172
0.229663
0.229325
0.228339
0.229702
0.22802
0.226552
0.227579
0.229305
0.229713
0.229693
0.228991
0.224973
0.224316
0.225983
0.232596
0.224188
0.228493
0.223653
0.223407
0.23301
0.23301
0.23301
0.23301
0.23301
0.23301
0.23301
0.23301
0.23301
0.23301
0.23301
0.23301
0.233009
0.233004
0.23297
0.23281
0.232451
0.232273
0.232345
0.232617
0.232887
0.232832
0.232127
0.230591
0.229029
0.228271
0.227807
0.227499
0.227338
0.227423
0.227255
0.227275
0.227281
0.227255
0.227438
0.227341
0.227929
0.22773
0.228495
0.228184
0.229277
0.228861
0.230775
0.230289
0.231955
0.231876
0.231101
0.231799
0.227287
0.228159
0.229459
0.225395
0.225755
0.226713
0.226174
0.223938
0.224303
0.224692
0.225055
0.222881
0.222986
0.223279
0.223659
0.22311
0.222743
0.222554
0.222531
0.22414
0.223391
0.222828
0.227272
0.226097
0.223987
0.223906
0.22494
0.228544
0.229465
0.228797
0.227465
0.229596
0.228571
0.227036
0.228067
0.229614
0.229709
0.229762
0.229402
0.225278
0.224462
0.226345
0.232041
0.224301
0.226344
0.223671
0.223423
0.23301
0.23301
0.23301
0.23301
0.23301
0.23301
0.23301
0.23301
0.23301
0.23301
0.23301
0.233009
0.233005
0.232977
0.232853
0.23253
0.232275
0.232288
0.232514
0.232841
0.23293
0.232689
0.231808
0.230374
0.228915
0.228162
0.227806
0.227787
0.227521
0.227718
0.227385
0.227424
0.227407
0.22738
0.227582
0.227475
0.22841
0.228191
0.229014
0.228684
0.22982
0.229394
0.231539
0.231125
0.232409
0.232461
0.231225
0.232122
0.227376
0.228169
0.229216
0.230111
0.22588
0.226193
0.227034
0.226558
0.224139
0.224655
0.22514
0.225546
0.222622
0.222913
0.223318
0.223864
0.22245
0.222252
0.222216
0.222279
0.223195
0.2226
0.222201
0.226237
0.225005
0.223056
0.222975
0.223892
0.227734
0.229072
0.228083
0.226476
0.229368
0.228994
0.227424
0.228431
0.229748
0.229613
0.229764
0.229612
0.225501
0.224548
0.226614
0.228716
0.223785
0.224603
0.223669
0.223327
0.23301
0.23301
0.23301
0.23301
0.23301
0.23301
0.23301
0.23301
0.23301
0.233009
0.233008
0.233004
0.232977
0.232868
0.232581
0.23229
0.232256
0.232432
0.232751
0.232949
0.232915
0.232551
0.231705
0.230379
0.229122
0.228504
0.228433
0.228606
0.228922
0.228057
0.228317
0.227826
0.227902
0.227837
0.227808
0.228027
0.227911
0.229307
0.229073
0.229929
0.229595
0.230704
0.230302
0.232355
0.232104
0.232601
0.232723
0.230897
0.231635
0.232241
0.227641
0.228382
0.229454
0.230239
0.226523
0.22679
0.227497
0.227092
0.224502
0.225161
0.225749
0.2262
0.222526
0.22291
0.223426
0.22409
0.221987
0.221937
0.221976
0.222162
0.22242
0.221992
0.22175
0.225163
0.223958
0.222284
0.222195
0.222954
0.226817
0.228525
0.227314
0.225443
0.229036
0.229255
0.227699
0.228647
0.229773
0.229459
0.229708
0.229668
0.225651
0.224585
0.226789
0.231947
0.2234
0.226851
0.223646
0.223199
0.23301
0.23301
0.23301
0.23301
0.23301
0.23301
0.23301
0.233009
0.233008
0.233005
0.232998
0.232972
0.232867
0.232596
0.232305
0.232241
0.232371
0.232668
0.232933
0.232976
0.232872
0.23251
0.231725
0.230742
0.230017
0.229866
0.23048
0.22973
0.230286
0.229048
0.229346
0.228724
0.228845
0.228697
0.228679
0.228895
0.22877
0.230562
0.23033
0.231138
0.230836
0.231799
0.231465
0.232752
0.232714
0.232573
0.232711
0.232798
0.230973
0.231623
0.232403
0.232027
0.228038
0.228705
0.229737
0.230403
0.227234
0.227461
0.228041
0.227704
0.22487
0.225684
0.226397
0.226913
0.222488
0.222945
0.223551
0.224308
0.221683
0.221699
0.221841
0.22211
0.221816
0.221545
0.221457
0.224128
0.223015
0.221678
0.22158
0.222163
0.225892
0.22799
0.226619
0.224464
0.228673
0.229346
0.227841
0.228707
0.229744
0.229223
0.229562
0.229623
0.225722
0.224579
0.226847
0.232426
0.223702
0.228625
0.223591
0.223158
0.23301
0.23301
0.23301
0.23301
0.23301
0.233009
0.233008
0.233005
0.232997
0.23298
0.232947
0.232849
0.232592
0.232309
0.232235
0.232332
0.232605
0.232899
0.232987
0.232975
0.232858
0.232529
0.232017
0.231585
0.231507
0.231875
0.232093
0.232332
0.231108
0.231603
0.230388
0.230704
0.230017
0.230161
0.229961
0.229952
0.230146
0.230025
0.231923
0.231741
0.232318
0.23212
0.232623
0.232482
0.232879
0.232906
0.23254
0.232692
0.232759
0.232836
0.231028
0.231581
0.232277
0.231949
0.228513
0.229089
0.230049
0.230588
0.227945
0.228147
0.228628
0.228344
0.22519
0.226113
0.22696
0.227596
0.222495
0.223023
0.223696
0.224528
0.221455
0.221558
0.221771
0.22208
0.221371
0.221263
0.221249
0.223211
0.222232
0.221229
0.221131
0.221549
0.225116
0.227458
0.225964
0.223692
0.228264
0.229296
0.227847
0.228655
0.229637
0.228912
0.229323
0.229485
0.225714
0.22453
0.22681
0.232693
0.22429
0.229865
0.22347
0.223137
0.23301
0.23301
0.23301
0.23301
0.233009
0.233006
0.232998
0.232975
0.232934
0.232877
0.232789
0.232567
0.232307
0.232234
0.232314
0.232565
0.232866
0.232984
0.232999
0.232972
0.232869
0.232685
0.23253
0.232506
0.23266
0.232887
0.232793
0.232896
0.232352
0.232602
0.231842
0.232085
0.231517
0.231649
0.231451
0.23145
0.231593
0.2315
0.232733
0.232676
0.232842
0.23279
0.232908
0.23288
0.232893
0.232947
0.232405
0.232614
0.232679
0.232802
0.231099
0.231561
0.232166
0.231892
0.229028
0.229512
0.230365
0.230779
0.228606
0.228812
0.229225
0.228983
0.225493
0.226509
0.227449
0.228179
0.222505
0.223061
0.223775
0.224652
0.221295
0.221478
0.221715
0.222054
0.221099
0.221069
0.221089
0.22253
0.221686
0.220965
0.220866
0.221126
0.224425
0.226911
0.225347
0.223051
0.227812
0.229101
0.227747
0.228401
0.229439
0.228549
0.229007
0.229203
0.225634
0.224393
0.226645
0.232927
0.22481
0.231173
0.223283
0.223086
0.23301
0.23301
0.23301
0.233008
0.233002
0.232982
0.232936
0.232859
0.232779
0.232681
0.232496
0.232298
0.232236
0.232312
0.232549
0.232844
0.232977
0.233003
0.233001
0.232976
0.232928
0.232889
0.232882
0.232926
0.232984
0.233007
0.232984
0.232997
0.232905
0.232954
0.23276
0.232838
0.232621
0.232683
0.232576
0.232584
0.232626
0.232593
0.232968
0.232959
0.232979
0.232975
0.232968
0.232978
0.232818
0.232891
0.232954
0.232927
0.232342
0.232522
0.232625
0.232731
0.231181
0.231557
0.232134
0.231885
0.229554
0.229945
0.230695
0.231001
0.22919
0.229424
0.22982
0.229602
0.22568
0.226795
0.227865
0.228702
0.2225
0.223072
0.223798
0.224691
0.221205
0.221397
0.221652
0.221994
0.220913
0.22091
0.220975
0.22198
0.22122
0.220763
0.220623
0.220815
0.223819
0.226377
0.22479
0.22251
0.227364
0.228653
0.227409
0.227748
0.229061
0.228137
0.228499
0.228652
0.225402
0.22413
0.226227
0.232986
0.225456
0.231871
0.223075
0.223032
0.23301
0.23301
0.233007
0.232997
0.232964
0.232884
0.232779
0.232677
0.232568
0.232408
0.232281
0.232241
0.232317
0.23255
0.232837
0.232972
0.233004
0.233006
0.233002
0.232994
0.232985
0.232983
0.232993
0.233005
0.233009
0.23301
0.233009
0.23301
0.233008
0.233
0.233005
0.232981
0.232992
0.232957
0.232969
0.232944
0.232948
0.232951
0.232946
0.233003
0.233004
0.232998
0.233001
0.232971
0.23299
0.232798
0.232859
0.232943
0.232907
0.232332
0.232492
0.232621
0.232718
0.23131
0.231608
0.232144
0.231942
0.230087
0.230386
0.231052
0.231272
0.229724
0.229989
0.230377
0.230173
0.225742
0.226907
0.228081
0.229092
0.222434
0.22302
0.223749
0.224644
0.221101
0.221288
0.22154
0.221864
0.220726
0.220739
0.220831
0.221475
0.220858
0.220566
0.220446
0.22053
0.223249
0.225857
0.22413
0.221854
0.226795
0.227795
0.226634
0.226739
0.228335
0.227377
0.227433
0.227602
0.224982
0.223794
0.225458
0.232977
0.225676
0.231664
0.222872
0.222937
0.23301
0.233007
0.232992
0.23294
0.232833
0.232697
0.232578
0.232459
0.23235
0.232278
0.232254
0.23234
0.232567
0.232841
0.232971
0.233004
0.233009
0.233007
0.233005
0.233005
0.233005
0.233007
0.233009
0.23301
0.23301
0.23301
0.23301
0.23301
0.23301
0.233009
0.23301
0.233008
0.233009
0.233005
0.233007
0.233004
0.233005
0.233004
0.233004
0.233005
0.233007
0.232998
0.233003
0.232952
0.232973
0.232986
0.232796
0.232852
0.23293
0.232896
0.232366
0.232498
0.232643
0.232722
0.231501
0.231727
0.232219
0.232068
0.230605
0.230832
0.231409
0.231576
0.230094
0.230543
0.230902
0.230756
0.225703
0.226895
0.228121
0.229236
0.222283
0.222789
0.223443
0.224281
0.22097
0.22113
0.221341
0.221597
0.220562
0.220584
0.220683
0.220919
0.220494
0.220405
0.220303
0.220385
0.222292
0.225003
0.222762
0.221012
0.225594
0.226675
0.22561
0.225598
0.226911
0.225832
0.225623
0.226225
0.224409
0.223415
0.224654
0.23214
0.225173
0.229413
0.222669
0.222748
0.233006
0.232988
0.232922
0.23278
0.232621
0.232486
0.232388
0.232319
0.232282
0.232281
0.232394
0.232618
0.232857
0.232973
0.233004
0.233009
0.233009
0.233009
0.233008
0.233009
0.233009
0.23301
0.23301
0.23301
0.23301
0.23301
0.23301
0.23301
0.23301
0.23301
0.23301
0.23301
0.23301
0.23301
0.23301
0.233009
0.23301
0.233008
0.233009
0.233005
0.233007
0.232996
0.233002
0.23295
0.23297
0.23299
0.232979
0.232807
0.232854
0.232926
0.232893
0.232456
0.232548
0.232704
0.232755
0.231741
0.231906
0.232348
0.232244
0.231075
0.231244
0.231813
0.231908
0.230173
0.230857
0.23142
0.231213
0.225318
0.226534
0.227856
0.229125
0.221902
0.222291
0.222829
0.223545
0.22081
0.220971
0.22115
0.221374
0.220388
0.220421
0.220517
0.220524
0.22036
0.220229
0.219972
0.22013
0.221226
0.223287
0.221633
0.22065
0.223642
0.22544
0.224708
0.22462
0.225319
0.223783
0.223947
0.224836
0.223785
0.223
0.223891
0.22553
0.223661
0.223764
0.222442
0.222389
0.232987
0.232905
0.232739
0.232551
0.232421
0.23235
0.232313
0.232296
0.232333
0.232474
0.232697
0.232891
0.232977
0.233005
0.233009
0.23301
0.23301
0.23301
0.23301
0.23301
0.23301
0.23301
0.23301
0.23301
0.23301
0.23301
0.23301
0.23301
0.23301
0.23301
0.23301
0.23301
0.23301
0.23301
0.23301
0.23301
0.23301
0.233008
0.233009
0.233005
0.233007
0.232996
0.232989
0.233003
0.232944
0.232968
0.232979
0.232823
0.232856
0.23292
0.232887
0.232589
0.232638
0.232766
0.232794
0.232009
0.232123
0.232517
0.232463
0.231574
0.231704
0.232131
0.232255
0.229688
0.230726
0.231566
0.231274
0.224479
0.225624
0.226974
0.228377
0.221632
0.221905
0.222174
0.222565
0.220653
0.22079
0.220942
0.221109
0.220228
0.220259
0.220274
0.220381
0.220117
0.219911
0.219915
0.219905
0.220911
0.222024
0.221387
0.220656
0.222392
0.224381
0.223883
0.223737
0.223947
0.222856
0.223107
0.223971
0.223231
0.222593
0.223307
0.225468
0.22236
0.22209
0.222169
0.221995
0.2329
0.232704
0.232501
0.232386
0.232338
0.23232
0.232328
0.232415
0.232578
0.232786
0.232924
0.232988
0.233006
0.233009
0.23301
0.23301
0.23301
0.23301
0.23301
0.23301
0.23301
0.23301
0.23301
0.23301
0.23301
0.23301
0.23301
0.23301
0.23301
0.23301
0.23301
0.23301
0.23301
0.23301
0.23301
0.23301
0.23301
0.23301
0.23301
0.233008
0.233009
0.233006
0.233008
0.23298
0.232978
0.232996
0.232987
0.233002
0.232934
0.232964
0.232972
0.232805
0.232835
0.232903
0.232866
0.232719
0.232738
0.232765
0.232785
0.232343
0.232384
0.232675
0.232646
0.231767
0.231956
0.232168
0.232346
0.228149
0.22958
0.231257
0.230634
0.223178
0.224124
0.22535
0.226727
0.221309
0.221533
0.221787
0.222022
0.220428
0.220575
0.220699
0.220787
0.219931
0.219965
0.219427
0.220448
0.219357
0.21928
0.219333
0.219323
0.221053
0.221973
0.221497
0.219605
0.222497
0.223507
0.223317
0.223274
0.223257
0.222835
0.222947
0.22315
0.222767
0.222228
0.22281
0.232607
0.221764
0.223631
0.221882
0.22162
0.232689
0.232468
0.232369
0.23234
0.232339
0.232397
0.232522
0.2327
0.232857
0.232952