/*--------------------------------*- C++ -*----------------------------------*\
  =========                 |
  \\      /  F ield         | OpenFOAM: The Open Source CFD Toolbox
   \\    /   O peration     | Website:  https://openfoam.org
    \\  /    A nd           | Version:  dev
     \\/     M anipulation  |
\*---------------------------------------------------------------------------*/
FoamFile
{
    version     2.0;
    format      ascii;
    class       volScalarField;
    location    "2500";
    object      omega;
}
// * * * * * * * * * * * * * * * * * * * * * * * * * * * * * * * * * * * * * //

dimensions      [0 0 -1 0 0 0 0];

internalField   nonuniform List<scalar> 
9834
(
1.19963
1.21576
1.15648
1.15672
1.27251
1.05837
1.07547
1.28718
1.20269
1.01422
1.03145
1.26553
1.2665
1.07984
1.00148
1.00811
1.20692
1.28766
1.18261
1.01598
0.992311
0.989334
1.12596
1.28439
1.24833
1.06276
0.990656
0.989808
0.974726
1.06147
1.26482
1.27339
1.15049
1.00168
0.974374
0.989134
0.965221
1.01812
1.2207
1.28076
1.2188
1.04103
0.974126
0.966503
0.988884
0.959669
0.985431
1.15652
1.27778
1.25381
1.11433
0.984568
0.956725
0.96338
0.988788
0.957897
0.963599
1.08564
1.26431
1.26755
1.18034
1.01873
0.957847
0.946066
0.962401
0.988792
0.957634
0.946681
1.02886
1.23376
1.27319
1.224
1.07993
0.968081
0.941361
0.940767
0.962315
0.988914
0.957337
0.934101
0.988567
1.18266
1.27309
1.2489
1.13831
0.997482
0.943217
0.929759
0.938543
0.962464
0.989243
0.95709
0.925757
0.959219
1.11881
1.26696
1.26021
1.18622
1.04662
0.952748
0.927921
0.92285
0.937832
0.962932
0.989627
0.956871
0.920679
0.939218
1.05599
1.2476
1.26747
1.21858
1.09913
0.977783
0.930031
0.916339
0.919208
0.937728
0.9638
0.990049
0.956257
0.917878
0.926339
1.00769
1.20994
1.27153
1.24017
1.14457
1.01675
0.938813
0.915763
0.90843
0.917653
0.938136
0.964792
0.990609
0.955771
0.916773
0.918497
0.973285
1.15623
1.2698
1.25538
1.18098
1.06114
0.959472
0.918021
0.904675
0.903843
0.917042
0.939028
0.966038
0.991296
0.955701
0.91673
0.913272
0.949744
1.09452
1.25908
1.2645
1.2079
1.10501
0.98981
0.926121
0.904699
0.896578
0.901466
0.916945
0.940342
0.967519
0.992031
0.955897
0.917388
0.909893
0.934785
1.04049
1.23097
1.2716
1.23289
1.14238
1.02712
0.943319
0.907197
0.894428
0.891264
0.900269
0.91761
0.942054
0.969167
0.992874
0.956309
0.918359
0.908106
0.925292
1.00115
1.18547
1.27189
1.25089
1.17323
1.06744
0.966665
0.915201
0.894743
0.886357
0.888177
0.899819
0.918938
0.944077
0.971079
0.993787
0.956973
0.919615
0.907672
0.919361
0.97453
1.13111
1.26617
1.26149
1.20025
1.10571
0.998042
0.928884
0.897519
0.885195
0.88077
0.886686
0.900244
0.920858
0.946491
0.973256
0.994718
0.957874
0.921255
0.907969
0.915944
0.956515
1.0783
1.24838
1.27007
1.22394
1.13896
1.03459
0.948228
0.905222
0.88579
0.877681
0.877386
0.886257
0.901578
0.9233
0.949324
0.975599
0.995619
0.959054
0.923266
0.908732
0.914105
0.944678
1.03603
1.21222
1.27482
1.24475
1.16682
1.07223
0.973829
0.917058
0.889078
0.877228
0.872305
0.875677
0.886855
0.903753
0.926311
0.9525
0.97806
0.996326
0.960518
0.925497
0.909782
0.913169
0.936986
1.00593
1.16569
1.27338
1.25876
1.19155
1.10638
1.00643
0.932854
0.896856
0.878285
0.870625
0.868951
0.875574
0.888499
0.906728
0.929931
0.955962
0.980504
0.996768
0.962168
0.927815
0.911232
0.912908
0.93198
0.985654
1.11673
1.26468
1.26966
1.21535
1.13591
1.04218
0.955272
0.907433
0.882573
0.870775
0.866128
0.867619
0.876902
0.891309
0.910536
0.934095
0.959541
0.982659
0.996986
0.963873
0.930211
0.913036
0.913141
0.928873
0.972129
1.07389
1.24118
1.2799
1.23921
1.16236
1.07753
0.983743
0.922244
0.890862
0.872928
0.865805
0.863826
0.868314
0.879593
0.89538
0.915158
0.938625
0.962937
0.984194
0.996968
0.965587
0.932595
0.915093
0.913672
0.927054
0.96295
1.04132
1.20174
1.28287
1.25793
1.18597
1.10985
1.01775
0.941906
0.90192
0.879346
0.867031
0.863208
0.86405
0.87076
0.883935
0.900844
0.920544
0.943125
0.965847
0.98481
0.996519
0.967285
0.934936
0.917274
0.914403
0.92608
0.956582
1.01862
1.1575
1.28055
1.27225
1.21018
1.13754
1.05351
0.968011
0.916611
0.889139
0.871892
0.864225
0.86358
0.86683
0.875447
0.889937
0.907674
0.926677
0.947204
0.967488
0.984489
0.995832
0.968909
0.937052
0.919456
0.915265
0.925577
0.952268
1.00306
1.11598
1.26996
1.28695
1.23597
1.16317
1.08763
0.999637
0.936123
0.902202
0.881563
0.868651
0.86497
0.86693
0.872877
0.882869
0.89748
0.915114
0.933387
0.951063
0.967761
0.982873
0.994954
0.970476
0.938895
0.921506
0.916024
0.925235
0.949487
0.992389
1.08203
1.24239
1.29822
1.25988
1.18751
1.1193
1.03528
0.960985
0.919097
0.89482
0.879114
0.87035
0.869365
0.87403
0.882872
0.894244
0.907777
0.922393
0.938434
0.953417
0.967511
0.98137
0.994117
0.971982
0.940677
0.923272
0.916458
0.924899
0.947427
0.985394
1.05666
1.20456
1.30229
1.28012
1.21176
1.14709
1.07233
0.991475
0.940534
0.912141
0.89453
0.882846
0.877107
0.878968
0.886045
0.89635
0.908649
0.921569
0.93308
0.943301
0.952428
0.964108
0.97989
0.994033
0.973364
0.942442
0.924734
0.916658
0.924317
0.945721
0.980734
1.03869
1.16569
1.30123
1.29978
1.23916
1.17238
1.10728
1.02664
0.966563
0.934138
0.914834
0.90169
0.894231
0.891768
0.895753
0.904005
0.91447
0.925438
0.935379
0.943859
0.949677
0.952841
0.959531
0.977719
0.994008
0.974628
0.943984
0.925939
0.916909
0.923603
0.944084
0.977482
1.02639
1.13033
1.29181
1.31939
1.26777
1.19753
1.13933
1.0641
0.997232
0.960629
0.940646
0.927954
0.920527
0.917917
0.917964
0.921773
0.929245
0.937278
0.944356
0.94977
0.953118
0.953714
0.953805
0.958908
0.978369
0.992739
0.975706
0.94526
0.926856
0.917274
0.923089
0.942445
0.974795
1.01788
1.10151
1.26465
1.3338
1.29445
1.22288
1.16763
1.10201
1.03145
0.991374
0.97206
0.962439
0.958316
0.958076
0.958966
0.959142
0.959775
0.962038
0.964795
0.96535
0.964182
0.960888
0.957322
0.95735
0.965291
0.985609
0.996675
0.992483
0.976537
0.946341
0.92751
0.917552
0.922687
0.940966
0.97253
1.0121
1.07905
1.22869
1.34087
1.32051
1.25105
1.19253
1.1372
1.06771
1.02505
1.00779
1.00515
1.00985
1.01791
1.02447
1.02332
1.01787
1.00982
1.00353
0.99806
0.989112
0.978917
0.968962
0.962488
0.96578
0.97945
0.992376
0.994559
0.997152
0.995644
0.977188
0.947258
0.928111
0.917607
0.922212
0.939507
0.970572
1.00804
1.06207
1.19165
1.34146
1.34715
1.28299
1.21707
1.16804
1.10372
1.05908
1.0454
1.05382
1.07686
1.10759
1.12919
1.13093
1.1179
1.09658
1.07661
1.0527
1.03124
1.01043
0.99272
0.977426
0.972966
0.978423
0.979617
1.00009
0.986361
1.00525
0.997289
1.00427
0.998019
0.998334
0.977738
0.947957
0.928601
0.917606
0.921612
0.937976
0.968606
1.005
1.04996
1.15707
1.33316
1.37115
1.31555
1.24279
1.19534
1.1379
1.09232
1.08143
1.10519
1.16016
1.24463
1.33379
1.37119
1.34082
1.27706
1.21337
1.16096
1.12074
1.07763
1.04454
1.01278
0.996639
0.983186
0.991144
0.991479
1.01643
1.01432
1.02716
1.0037
1.01942
0.999023
1.00115
0.978279
0.948465
0.928826
0.917634
0.92083
0.936508
0.96636
1.002
1.0413
1.12721
1.30534
1.38846
1.34769
1.27096
1.21939
1.16976
1.12365
1.11452
1.15441
1.25729
1.44965
1.7082
1.91086
1.9048
1.7286
1.52159
1.363
1.26478
1.20357
1.14672
1.0952
1.05665
1.00917
1.03656
1.0022
1.01444
1.02322
1.0388
1.03972
1.05693
1.013
1.04024
0.999719
1.00447
0.978768
0.948869
0.928973
0.917574
0.919865
0.934913
0.96389
0.998342
1.03485
1.10398
1.26747
1.39744
1.38015
1.30401
1.24208
1.19802
1.1523
1.14309
1.19659
1.35562
1.70982
2.2839
2.84794
3.16353
2.98445
2.38378
1.82776
1.5296
1.37781
1.2731
1.18809
1.11608
1.08139
1.12498
1.04236
1.06671
1.03947
1.06347
1.05424
1.06897
1.07631
1.09719
1.02601
1.06731
1.00012
1.00857
0.979078
0.949199
0.929326
0.917364
0.91868
0.933154
0.961134
0.994085
1.02905
1.08582
1.22848
1.39856
1.4112
1.34069
1.26672
1.22249
1.17802
1.1661
1.22797
1.4372
1.96528
2.90419
3.9359
4.56157
4.54856
4.06415
3.12173
2.11554
1.68284
1.47241
1.3496
1.21406
1.17297
1.23008
1.11331
1.1641
1.09272
1.12792
1.07688
1.10794
1.10228
1.10905
1.12798
1.15005
1.04309
1.10264
1.00036
1.01336
0.979103
0.949421
0.929881
0.917108
0.917299
0.931052
0.958076
0.989446
1.02297
1.07137
1.19127
1.39039
1.43735
1.37738
1.29448
1.24437
1.20021
1.18448
1.24618
1.49067
2.16189
3.42434
4.78624
5.41835
5.48173
5.22445
4.62359
3.64656
2.37983
1.80902
1.60343
1.44531
1.28076
1.38487
1.24588
1.34902
1.1804
1.28841
1.14714
1.22998
1.12951
1.18256
1.16097
1.16045
1.19034
1.21015
1.06538
1.14912
1.00039
1.01891
0.978755
0.949379
0.930388
0.917013
0.9161
0.928647
0.954971
0.98432
1.01667
1.05975
1.15855
1.36183
1.45556
1.41285
1.32572
1.26506
1.21998
1.19819
1.25277
1.50842
2.27473
3.78887
5.30508
5.81934
5.85431
5.72889
5.42096
4.82839
3.85625
2.5709
1.94744
1.75707
1.53422
1.88168
1.54919
1.9554
1.52922
2.06516
1.44059
1.98172
1.32067
1.71629
1.23294
1.44745
1.28259
1.20993
1.3197
1.33268
1.10063
1.18218
1.00025
1.02702
0.977927
0.948893
0.930594
0.916964
0.915194
0.926506
0.951535
0.979225
1.01037
1.05008
1.13113
1.32084
1.46435
1.44727
1.36157
1.28624
1.23859
1.2083
1.24865
1.49936
2.301
3.9766
5.56503
5.9923
5.98149
5.85576
5.67953
5.38624
4.83242
3.86004
2.69624
2.25647
2.18617
2.70665
2.72396
3.81332
3.18248
4.94379
3.19971
5.42885
2.7606
4.9937
2.10903
3.79656
1.58638
2.5677
1.69766
1.30886
1.74841
1.71809
1.12357
1.25036
1.0002
1.03432
0.976617
0.947876
0.930353
0.916635
0.914179
0.924914
0.947992
0.974759
1.0042
1.04196
1.10868
1.27711
1.46492
1.47861
1.40075
1.31077
1.25634
1.21651
1.23793
1.45332
2.25567
4.00414
5.67267
6.07619
6.0228
5.87997
5.7703
5.58818
5.26314
4.73839
3.85259
2.90688
3.18487
3.76065
5.02362
6.48879
7.06428
9.16071
8.28962
10.995
8.42543
11.6931
7.32932
11.3133
4.95348
9.67484
2.98864
6.21094
3.24287
1.60729
3.25719
3.01434
1.14182
1.43385
1.00093
1.03639
0.97495
0.946517
0.929649
0.915931
0.912838
0.92355
0.945103
0.970873
0.998588
1.03491
1.09056
1.2348
1.45635
1.50336
1.43898
1.34022
1.27356
1.22445
1.22637
1.38694
2.09178
3.90597
5.68295
6.11905
6.05316
5.89585
5.85788
5.77556
5.51407
5.09568
4.64408
4.21541
4.68575
4.62765
7.54497
8.98579
11.0968
12.5675
13.0723
14.4371
13.8765
15.1763
13.9298
15.3728
13.2411
15.1339
11.3931
14.3253
7.14299
12.2688
7.50606
2.56391
7.22295
6.31025
1.21614
2.02011
1.00772
1.07093
0.973567
0.94528
0.92873
0.915014
0.91144
0.922291
0.942821
0.967327
0.993557
1.02852
1.07642
1.19696
1.42826
1.51886
1.47345
1.37358
1.29237
1.23478
1.21746
1.3248
1.88601
3.57975
5.62692
6.13457
6.10278
5.86661
5.91848
6.05446
5.91894
5.46394
5.03676
5.18661
9.13124
9.66208
11.5974
13.7294
14.4827
15.2927
15.8351
15.9408
16.39
16.1683
16.6425
16.1462
16.7113
15.7833
16.5818
14.8598
16.1273
12.6497
15.1102
12.6539
4.90144
12.2861
11.4556
1.50315
3.57515
1.03856
1.20892
0.975434
0.94574
0.928238
0.914019
0.910173
0.921335
0.940797
0.963807
0.98907
1.02276
1.0657
1.1654
1.38769
1.52462
1.5042
1.40971
1.31395
1.24802
1.21114
1.2721
1.69039
3.13574
5.44007
6.12753
6.15499
5.8079
5.89782
6.33329
6.49422
6.10715
5.59215
5.93166
10.0458
15.3161
15.3019
15.0369
15.3341
16.1772
16.3762
16.627
16.7624
16.8952
17.0174
17.0346
17.2067
17.0348
17.3144
16.8279
17.2827
16.281
17.0034
15.1795
16.3508
15.1055
9.70125
14.8259
14.2488
2.386
7.18431
1.12749
1.67611
0.994156
0.954872
0.930045
0.913312
0.909184
0.920633
0.939183
0.960165
0.984865
1.01775
1.0576
1.14008
1.34194
1.52373
1.53076
1.44723
1.33907
1.26262
1.20732
1.23135
1.52022
2.69299
5.0406
6.07749
6.19405
5.84084
5.76144
6.47994
7.13184
6.92981
6.52952
6.9453
10.8198
15.1675
15.0801
16.3906
16.2564
16.466
16.4523
16.8004
16.7793
17.0238
16.9883
17.2604
17.2498
17.5211
17.7215
17.7303
18.2955
17.7192
18.569
17.2702
18.3773
16.3851
17.566
16.3756
13.3187
16.2727
16.1343
4.40909
11.879
1.29957
3.0936
1.06182
0.996971
0.942009
0.914522
0.90876
0.920185
0.937873
0.956927
0.981011
1.01291
1.05134
1.12003
1.2961
1.51416
1.55078
1.48294
1.36836
1.27854
1.20821
1.2022
1.38474
2.27384
4.47565
5.9487
6.20463
6.03106
5.61698
6.38912
7.6508
7.81956
7.54823
8.1408
11.4294
14.8599
14.671
16.0498
15.8728
16.426
16.2181
16.7175
16.5885
16.8998
16.7484
17.2155
17.148
17.9566
18.1783
18.9541
19.7173
19.7821
21.1429
19.9756
21.8485
19.2777
21.6082
17.9235
20.1126
18.1868
16.007
18.3092
18.4545
9.70332
16.0637
1.92394
7.98411
1.14535
1.11403
0.990126
0.922495
0.908114
0.920012
0.936648
0.954126
0.97748
1.00831
1.04627
1.10459
1.25469
1.48939
1.56261
1.51317
1.40093
1.2971
1.21686
1.18206
1.28388
1.91514
3.81554
5.72821
6.18687
6.20452
5.55059
5.96592
7.82304
8.69544
8.45717
9.14907
11.8847
14.6887
15.53
15.4137
15.9873
15.7171
16.1683
15.9464
16.5748
16.3796
17.0613
16.9744
18.4023
18.6137
20.4644
21.0969
22.5692
23.8863
24.1432
25.9846
24.4175
27.1146
23.2642
26.8013
20.9684
24.661
21.4632
18.7466
21.6446
21.6347
17.6638
20.2937
8.65171
22.8762
1.16988
1.10835
0.964074
0.90906
0.918563
0.935464
0.951386
0.974523
1.00435
1.0418
1.09289
1.21966
1.4578
1.56721
1.53716
1.43443
1.31896
1.22976
1.1687
1.21316
1.6313
3.15832
5.39054
6.10478
6.27501
5.71993
5.50682
7.51911
9.34628
9.307
9.83332
12.0723
14.1295
14.8348
14.5528
15.4428
15.1482
15.7003
15.4585
16.6021
16.4608
16.8641
16.7365
18.7903
18.9462
21.7141
22.1863
24.7922
25.3524
27.0471
27.3569
28.5207
28.8404
29.3064
30.095
28.6224
30.7274
25.6904
29.7926
26.1241
22.0175
26.0205
25.608
26.4618
24.7569
40.4983
45.7266
1.16909
1.07201
0.92544
0.914031
0.932613
0.949033
0.97205
1.00088
1.03816
1.08331
1.1917
1.42122
1.56727
1.55686
1.46683
1.34391
1.24387
1.16352
1.1665
1.42161
2.57595
4.87946
5.95046
6.27545
6.0974
5.28583
6.5242
9.51047
10.1247
10.3192
12.0675
13.628
14.1506
14.72
14.559
15.1966
14.9853
16.3113
16.1588
18.9711
18.9036
18.9928
18.9935
22.5196
22.7028
25.4648
25.3822
27.246
26.9673
28.5958
28.1679
29.8908
29.3516
31.1362
30.6915
31.8544
31.946
30.4885
32.698
30.539
25.506
30.2314
29.6259
27.3241
31.1735
26.4779
25.78
42.8237
48.6235
1.13816
0.978225
0.908777
0.925075
0.945919
0.970014
0.997924
1.03416
1.07647
1.16866
1.38305
1.56334
1.57386
1.49707
1.37103
1.26045
1.16619
1.13576
1.27703
2.08987
4.20228
5.73965
6.22022
6.29055
5.31597
5.49266
8.95456
10.637
10.7835
11.992
13.1565
13.6624
15.2523
14.9652
15.6693
15.4549
16.0166
15.8524
18.7752
18.5952
22.2996
21.8833
22.6847
22.5623
25.1933
24.8802
26.5638
26.1095
27.5378
26.7518
28.3236
27.2002
29.4098
28.0036
31.0799
29.1385
32.7957
31.0319
33.2593
33.3386
33.3969
32.0371
33.4797
29.2202
26.652
28.5008
31.3922
33.1863
33.516
31.0751
32.0517
27.8456
26.8284
26.5352
30.5498
30.3034
43.26
33.3499
1.07174
0.914244
0.908414
0.939206
0.967783
0.99322
1.03137
1.06913
1.15104
1.34512
1.551
1.58722
1.52402
1.39982
1.27947
1.17762
1.115
1.18102
1.71787
3.47216
5.45137
6.07197
6.32992
5.76273
5.00771
7.14214
10.6325
11.1962
11.9235
12.7561
13.2149
14.7384
14.2903
16.8172
16.3429
17.6998
17.291
18.3686
18.0671
21.3777
20.8039
23.3943
22.7373
24.4677
23.9682
25.6232
25.0895
25.8887
25.0468
26.035
24.8753
27.1125
26.3547
27.8612
27.7197
29.6657
28.6454
28.1042
28.102
32.2634
31.0052
28.3713
28.1966
29.1833
33.7351
33.7821
33.8036
32.484
33.9493
30.3977
27.8375
29.6144
32.6503
33.5679
33.8586
32.0637
27.4697
26.7378
27.4028
49.8118
88.4972
45.3651
28.7091
33.0565
0.975158
0.893983
0.921392
0.962325
0.989782
1.02532
1.06544
1.13428
1.31194
1.53381
1.59689
1.54698
1.42926
1.30085
1.19171
1.10409
1.11825
1.45069
2.81066
5.02751
5.88501
6.29871
6.13471
4.9112
5.51457
9.78111
11.3252
11.9132
12.5723
12.8848
14.261
15.7788
15.4523
17.5064
16.8705
18.8427
18.1667
20.1799
19.5181
22.0111
21.2384
23.0604
22.2174
24.4975
23.8253
24.2608
23.5108
23.7006
22.5527
25.5253
24.4346
28.353
28.9674
28.4604
29.44
30.6319
31.9842
27.9927
28.1937
29.2104
30.8595
29.0167
27.9807
27.9072
27.98
32.6492
33.791
32.7316
30.8533
33.8344
31.2391
28.9062
30.4328
33.1489
33.7009
33.4449
32.5024
27.3342
27.8509
28.4842
71.2233
80.2284
53.0514
29.2798
34.4147
0.924339
0.900801
0.949713
0.98223
1.02168
1.05847
1.12425
1.28059
1.51706
1.60393
1.56641
1.45841
1.32442
1.20764
1.10333
1.07786
1.26799
2.26033
4.43281
5.67757
6.18796
6.29797
5.27845
4.73455
7.40219
11.0464
11.8774
12.5007
12.7663
13.6334
15.0865
14.7089
16.2526
15.7268
17.3667
16.6922
18.8604
18.0949
20.4433
19.6446
21.3272
20.4303
21.2298
20.4122
22.7677
22.0179
21.4821
20.5464
23.1123
21.7199
28.8129
27.5838
33.0716
34.0069
34.3919
34.4327
30.7146
32.4516
34.1709
35.6414
28.575
30.0291
32.0094
28.9192
27.9046
28.9117
29.184
27.9338
30.9108
32.936
31.0748
28.8894
33.0596
31.674
29.7972
30.9295
33.0031
33.0308
32.8781
32.3826
28.5458
28.9816
29.5461
65.6409
44.8112
55.324
30.2202
33.2925
0.913746
0.923337
0.973476
1.01437
1.05496
1.11305
1.25822
1.4987
1.61083
1.58423
1.4864
1.34991
1.22624
1.11046
1.05352
1.149
1.83733
3.75991
5.43109
5.99967
6.3168
5.79605
4.50545
5.46166
9.65699
11.6172
12.3666
12.7159
13.2744
14.007
14.9827
14.5733
16.0653
15.5293
16.5463
15.9459
17.9425
17.2122
19.5592
18.7289
19.5889
18.7945
18.4833
17.9338
19.7424
19.0765
20.3618
19.002
25.5858
23.3335
34.0231
33.1904
32.1628
30.7088
36.7611
37.3686
37.4924
37.1158
34.1213
36.1285
37.8587
39.2075
30.8172
33.1348
35.5448
27.8937
27.9762
31.438
31.869
29.4232
28.947
31.3275
29.083
27.9158
31.5396
31.6796
30.4511
31.1095
32.5019
31.6757
31.6748
31.9517
29.7469
30.0744
30.3814
50.9977
41.0442
68.221
31.0488
34.7212
0.923248
0.954074
1.00536
1.05164
1.10643
1.23924
1.48323
1.61825
1.60308
1.51397
1.37666
1.24789
1.12812
1.04335
1.07764
1.54063
3.13745
5.11275
5.79982
6.27745
6.12111
4.74284
4.43379
7.29212
10.719
11.9743
12.5755
13.0483
13.4672
13.7305
13.6292
14.5331
14.1507
15.4115
14.9317
15.5201
15.0227
16.6813
16.0736
18.0453
17.3409
17.3992
16.9009
15.4414
15.28
17.4361
15.9453
21.0579
18.9442
29.1938
26.2986
36.2873
35.071
33.6145
32.0829
40.0829
40.3685
40.1752
39.3752
37.7852
39.761
41.3832
42.5774
34.05
36.6945
39.1747
28.0024
29.4985
34.7383
35.1907
32.1209
27.9415
29.3125
27.9917
27.9701
29.5859
31.3853
30.8199
31.0006
31.4885
29.8447
30.0537
31.1769
30.6578
31.186
30.935
30.2534
48.0049
69.9859
32.9225
38.5467
0.941819
0.995485
1.04305
1.10403
1.22535
1.47081
1.62659
1.6264
1.54087
1.40598
1.27112
1.15086
1.04394
1.04245
1.36345
2.66749
4.75505
5.62206
6.16444
6.27779
5.33939
4.02295
5.24877
9.01598
11.171
12.1072
12.6854
12.9843
13.1219
13.3016
13.1394
13.882
13.6001
14.5874
14.2026
14.5586
14.152
15.4567
14.9984
16.4126
15.9276
15.2097
15.1422
13.3626
13.2946
16.7665
14.3113
23.6043
20.6958
30.746
28.9127
26.1297
27.5421
38.0678
36.3605
34.4478
32.4959
43.1719
43.2031
42.602
41.3106
41.4022
43.3201
44.8404
45.858
37.5936
40.3165
42.8141
29.3964
32.1451
38.2764
38.7441
35.4453
27.9127
28.064
27.8443
29.1659
28.1384
30.8989
31.0228
30.8521
30.1263
28.2447
28.4516
30.1261
31.4258
32.5919
31.455
35.3325
52.1472
70.8678
35.3881
41.0028
0.971985
1.03708
1.09655
1.22142
1.45757
1.6403
1.65008
1.57272
1.43476
1.30019
1.17276
1.05773
1.03575
1.29553
2.40281
4.4609
5.49416
6.00611
6.31987
5.79712
4.15091
3.98999
6.74379
9.77526
11.3835
12.0637
12.4594
12.5282
12.6324
12.5814
12.8787
12.7211
13.258
13.0548
13.8023
13.5051
13.8361
13.5277
14.4752
14.1604
14.9861
14.7549
13.553
13.8398
12.004
11.7367
17.2417
13.5001
24.8635
23.4283
21.2507
30.3795
28.6466
25.8827
27.2052
39.4286
37.1324
34.6742
32.3926
46.1595
45.9328
44.847
42.9869
45.0251
46.8798
48.2958
49.051
41.2311
44.006
46.5167
31.9675
35.495
41.9481
42.4722
39.033
28.8785
27.769
28.5638
31.5603
27.7043
30.2379
31.1958
30.6149
28.6959
27.7073
27.6946
29.0603
32.4018
34.2934
32.0385
45.8277
50.2127
77.3324
37.5349
41.233
1.01713
1.09344
1.21257
1.45544
1.65025
1.68494
1.60278
1.47229
1.32486
1.20952
1.0907
1.0516
1.3027
2.34457
4.33386
5.4255
5.86395
6.31563
6.10835
4.76694
3.42496
4.6448
7.54395
10.1021
11.4037
11.9133
12.1733
12.4134
12.4601
12.48
12.6095
12.5266
12.8472
12.7101
13.2565
13.0296
13.4421
13.2338
13.8266
13.6502
13.9539
13.9384
12.0389
12.5958
10.4179
9.85931
17.4845
12.9082
24.6375
23.3403
21.5301
19.9579
29.6146
27.9004
25.368
26.544
40.4457
37.4923
34.4772
31.8105
49.1525
48.5657
47.0306
44.5828
48.6887
50.4605
51.7358
52.2335
44.9931
47.8082
50.306
35.3453
39.1338
45.8002
46.4406
42.8407
31.0032
28.2297
30.3292
34.9281
27.89
29.6163
31.4122
30.4782
27.864
27.6387
27.606
28.348
33.5419
36.0616
32.7191
60.3767
47.2694
70.381
38.9187
40.8185
1.08016
1.21286
1.44978
1.67142
1.71373
1.64758
1.50744
1.36717
1.24491
1.15059
1.13515
1.42976
2.43641
4.3433
5.41811
5.77082
6.28533
6.29107
5.29509
3.44055
3.3708
5.20662
7.82837
10.1804
11.2879
11.847
12.2054
12.4912
12.4171
12.5319
12.5166
12.6077
12.5644
12.7579
12.6678
13.043
12.8826
13.1696
13.0761
13.2356
13.2363
12.9662
13.1541
9.98773
10.6253
9.59335
8.43985
18.0286
15.7862
12.7237
24.2215
23.0017
20.9769
19.4507
28.4634
26.8251
24.6211
25.6288
41.3384
37.6289
33.9892
30.7667
52.2031
51.3563
49.4294
46.5342
52.4198
54.0866
55.2169
55.5822
48.9202
51.7466
54.2158
39.051
43.0309
49.8749
50.6966
46.9441
34.2731
29.5231
33.2518
38.6958
28.6856
29.2551
31.7219
30.5154
27.8304
28.1482
27.929
28.3379
34.7563
37.6518
33.4535
45.333
45.6925
70.7459
40.1238
41.5087
1.20549
1.45715
1.68516
1.76181
1.68848
1.5602
1.40861
1.3214
1.2758
1.40085
1.89215
2.97448
4.52109
5.43857
5.74084
6.2331
6.38534
5.70315
3.91903
2.81996
3.54922
5.35839
7.86219
10.0434
11.1733
11.756
11.9998
12.4696
12.2603
12.6709
12.6048
12.7383
12.7068
12.8298
12.7782
12.9786
12.8947
12.5493
12.6239
12.1748
12.407
11.3464
11.811
8.07506
8.09904
10.2807
9.00262
8.22728
17.6784
15.7417
11.7554
13.8091
23.5179
22.3108
20.5336
19.1147
27.2139
25.6514
23.8535
24.6592
42.5754
37.9912
33.5042
29.8319
55.4704
54.3715
52.0817
48.842
56.2536
57.8604
58.9766
59.2627
53.0435
55.8707
58.3146
43.0399
47.2727
54.2061
55.2664
51.3832
37.9583
31.759
36.5325
42.7252
30.4378
29.2829
32.0984
30.7233
28.1396
29.4516
28.9825
28.7699
35.9998
39.1717
34.3004
43.2113
49.9263
60.0057
41.713
44.9273
1.45509
1.71529
1.79862
1.74905
1.61342
1.48112
1.4144
1.58175
2.06658
3.16965
4.35702
5.13174
5.52178
5.74422
6.20123
6.43799
5.99363
4.4484
2.71133
2.68519
3.58987
5.31198
7.41097
9.35236
10.4336
10.2538
10.4017
9.636
12.0283
11.4491
12.4928
12.3314
12.6377
12.585
12.6834
12.669
12.6626
12.6802
11.0591
11.3257
10.1938
10.6853
8.75428
9.49647
7.50847
7.23641
10.9783
9.50396
9.55597
8.6612
17.5107
15.7438
12.6562
14.2406
22.8479
21.7652
20.2459
18.9146
26.4005
24.8277
23.2961
24.0047
44.3833
39.1827
33.8144
29.2853
59.0904
57.7293
55.2029
51.6311
60.3243
62.0124
63.0838
63.3389
57.4205
60.2766
62.7298
47.3437
51.8366
58.8681
60.1322
56.1272
41.7908
34.9603
40.4826
46.9447
33.2248
29.859
32.6766
31.5332
29.0549
31.7833
30.859
29.7741
37.464
41.1018
35.5622
35.4759
52.6816
57.6245
44.5481
49.3124
1.73439
1.85112
1.812
1.68291
1.55634
1.61389
2.04334
3.20685
4.57856
5.38866
5.67178
5.69827
5.77056
6.19731
6.47315
6.18697
4.85039
2.8193
2.31867
2.62579
3.48438
4.80385
6.23038
7.06815
6.87983
5.9364
7.49572
6.38155
9.95808
8.82394
11.2584
10.759
11.6963
11.5479
11.7236
11.7483
11.5265
11.6531
8.5413
8.87048
7.62622
8.06692
7.15559
7.30859
8.04737
7.27444
12.3614
10.9692
11.1345
9.75449
17.4378
15.8594
13.7029
15.0134
22.442
21.429
20.2019
18.9583
26.1485
24.68
23.2474
23.8873
46.7874
41.0988
35.1258
29.7912
63.146
61.6933
58.9764
55.1811
64.8615
66.647
67.7341
68.0165
62.1833
65.1366
67.748
51.8986
56.6335
63.9062
65.4416
61.1329
46.0464
38.4441
44.2509
51.468
36.382
31.2075
34.0785
33.555
30.8184
34.5558
33.6871
31.9721
39.5326
43.7608
38.0377
22.519
55.9037
59.6044
48.4759
53.1856
1.91755
1.87338
1.769
1.66007
1.81354
2.69979
4.23645
5.51751
5.96562
5.98697
5.83329
5.81203
6.1985
6.49263
6.30313
5.12098
3.0512
2.18994
2.18016
2.52755
3.16143
3.91714
4.37769
4.46341
4.2343
3.97156
5.4135
4.87255
6.8653
6.10721
8.22985
7.59636
9.06968
8.72501
9.33964
9.27137
9.12575
9.27331
6.81302
6.89168
6.7365
6.73892
6.94279
6.79692
10.6082
9.4454
8.0578
8.74453
13.5067
12.4069
12.8465
11.9023
17.669
16.3521
14.6362
15.7429
22.4294
21.3835
20.4463
19.2622
27.3695
25.5134
23.9277
24.5994
50.1367
44.0898
37.675
31.7436
67.859
66.4512
63.6927
59.8192
70.0958
72.0102
73.2336
73.6063
67.4679
70.764
73.7896
56.5978
61.5064
69.6763
71.3567
66.3981
50.1221
42.1888
48.7671
55.996
40.0567
34.0781
37.3738
38.1696
34.6506
38.9665
40.1702
36.3186
42.9234
47.9694
42.4475
12.975
59.3602
65.6616
51.9077
55.7599
1.98598
1.83936
1.77858
2.10897
3.29374
5.13594
6.05671
6.26748
6.15992
5.89753
5.854
6.20962
6.49778
6.35037
5.26905
3.23584
2.16097
1.98282
2.09573
2.37516
2.74403
3.03409
3.23341
3.32062
3.36508
3.62424
4.17685
3.43035
4.53376
5.25996
4.88538
6.00904
5.64317
6.60113
6.33499
6.91641
6.79658
6.9308
6.94447
6.37119
6.2761
6.65284
6.49676
7.62594
6.97873
12.1537
11.0948
8.96383
10.0212
14.581
13.7691
13.6372
12.947
18.0727
16.9181
15.5415
16.4608
22.9538
21.7141
20.9286
19.6951
30.3226
27.6836
25.4416
26.4209
54.85
48.6378
41.9391
35.4851
73.5422
72.3495
69.7569
66.0238
76.4333
78.5879
80.0997
80.6237
73.823
77.8128
81.5415
62.0785
68.4175
76.4977
81.7942
74.9461
56.1713
47.4505
56.9216
64.5853
47.0051
41.1135
43.8928
47.2643
41.2569
49.3829
50.4274
47.0609
48.1612
51.3144
49.642
18.0409
66.6322
81.755
54.0106
57.8382
1.98587
1.88192
2.33031
3.95405
5.70959
6.39578
6.44175
6.19655
5.9335
5.89382
6.22933
6.48995
6.34767
5.30537
3.32507
2.15876
1.8886
1.89399
2.02305
2.21624
2.41342
2.61494
2.7833
2.91032
2.97593
3.7939
3.38314
3.17065
4.09622
4.59746
4.34481
5.08685
4.84463
5.53205
5.31874
5.88325
5.72136
6.17105
6.02088
6.31706
6.12273
7.0807
6.56403
9.57389
8.72197
8.09486
13.0774
12.2431
10.5565
11.5436
15.1359
14.4366
14.3859
13.6784
18.5308
17.5295
16.1306
16.9642
24.0865
22.4631
21.8823
20.2712
35.7541
31.61
28.0012
29.5313
61.2672
55.344
48.6133
41.7715
80.7075
79.9262
77.6511
74.3981
84.7912
87.4133
89.2983
90.1543
81.7835
87.269
92.6053
73.846
83.6254
88.983
104.291
93.2771
68.6815
58.5999
74.567
82.6627
63.2015
52.7884
52.7633
57.4144
57.0452
65.1832
72.6354
61.4761
51.9861
53.7798
54.1969
73.8904
74.639
103.84
55.47
57.7585
2.05608
2.58671
4.35512
6.14238
6.56973
6.54226
6.18179
5.9389
5.95637
6.22812
6.45406
6.29162
5.26296
3.32227
2.15482
1.83439
1.78464
1.84409
1.9526
2.0898
2.25669
2.4164
2.5469
2.63366
2.71228
3.59026
3.19304
3.02927
3.79285
4.23294
4.0129
4.66501
4.45221
5.07042
4.8713
5.45536
5.26095
5.93917
5.68619
6.45418
6.09056
8.20002
7.02995
10.5822
9.60762
8.87987
9.86189
14.0042
13.0571
11.4899
12.3704
15.8389
15.1556
15.3345
14.5108
18.9311
18.0412
16.84
17.5263
26.1638
24.0414
23.7243
21.4173
44.8886
39.0362
32.0819
34.6978
70.1143
64.7414
58.4787
51.6331
90.4206
90.0798
88.2686
85.4722
97.2054
100.689
103.152
104.354
96.3046
104.308
113.708
97.1821
115.212
119.052
164.927
135.221
95.4706
82.431
110.335
125.654
87.6824
64.7268
58.3052
65.3653
75.5063
98.2597
100.305
77.2126
56.2634
57.1981
61.4013
113.187
70.5545
101.322
55.3378
55.7325
2.75978
4.79312
6.36282
6.72633
6.57499
6.14103
5.93361
5.95959
6.19726
6.35431
6.1242
5.05564
3.20102
2.13933
1.79271
1.7149
1.73305
1.79418
1.88648
2.0141
2.14137
2.25587
2.34829
2.43567
2.52185
2.87276
3.37135
3.05375
3.57324
3.97422
3.76919
4.38806
4.18116
4.81156
4.5977
5.25847
5.0334
5.85827
5.55416
6.71963
6.10368
9.15519
9.57858
7.69293
11.6461
10.705
10.3881
15.4489
14.5196
12.683
13.6199
16.6661
15.9791
16.761
15.8968
19.4748
18.5894
17.5038
18.0727
29.5391
26.9363
27.3595
23.9323
59.2752
52.1411
39.9046
45.0965
81.9106
77.2728
72.1077
65.9166
104.856
104.877
103.299
100.562
119.879
125.284
127.646
128.894
136.212
162.75
194.018
167.351
198.212
197.822
215.51
207.128
155.649
123.506
172.092
200.377
148.278
77.2979
70.2291
85.2375
100.658
150.595
150.587
99.8511
61.9262
58.4163
69.4412
113.183
61.0611
129.626
54.2827
53.1966
4.94214
6.59183
6.79352
6.57744
6.08617
5.91336
5.94235
6.12436
6.20682
5.78718
4.61619
2.95363
2.09563
1.76005
1.65988
1.6551
1.6825
1.74381
1.83865
1.9322
2.0292
2.1129
2.19373
2.27214
2.48314
2.76918
2.65463
2.34367
3.21365
2.92266
3.39041
3.77399
3.57976
4.18266
3.97525
4.63026
4.39972
5.14534
4.87651
5.79795
5.48267
6.9018
6.085
10.6466
11.019
9.10368
10.2229
8.09433
12.9518
11.4468
11.394
17.5956
16.8104
14.3697
15.6029
17.8384
17.1718
18.9048
18.1683
20.5369
19.1966
18.4015
19.1352
35.1947
32.168
34.7463
29.8951
78.7999
72.1642
55.4683
62.8346
97.2848
92.9273
89.2861
84.4856
129.535
129.081
127.037
123.246
191.223
197.026
195.443
187.822
198.421
211.226
417.121
192.23
473.615
450.751
443.612
481.232
220.608
202.799
209.261
477.933
205.756
111.704
80.4299
96.7583
150.035
208.025
212.918
160.311
64.5401
60.3152
74.018
43.1621
61.982
156.267
54.3077
53.3402
6.71104
6.90003
6.56629
6.04135
5.86323
5.89607
6.01037
5.92197
5.36212
4.09225
2.73434
2.04778
1.73379
1.61725
1.59433
1.59362
1.63646
1.70379
1.77227
1.85391
1.92363
1.9947
2.06217
2.13053
2.57136
2.3698
2.81711
2.25276
3.07591
3.24567
3.60967
3.42292
4.01347
3.80561
4.47939
4.23716
5.05096
4.75018
5.7169
5.40394
7.03927
6.02147
13.1876
12.4708
13.3191
10.055
9.31646
7.87506
15.6376
13.3372
21.1814
20.4671
17.4534
19.1387
19.7944
19.1599
22.452
21.9855
23.4077
20.8901
20.4685
21.9924
46.4992
41.5298
47.4389
40.8984
100.893
96.8564
78.1767
86.6141
118.992
112.187
108.348
106.205
186.246
174.883
171.663
159.707
418.372
406.507
410.447
395.326
453.986
409.05
810.53
472.022
876.309
850.127
833.558
882.207
480.847
473.899
466.749
897.838
465.771
122.677
88.4805
112.121
206.405
460.647
463.558
148.272
70.257
63.0361
86.423
36.8392
65.9926
158.845
55.3501
55.6083
6.96623
6.57597
5.98981
5.79356
5.7967
5.79575
5.54023
4.78522
3.54776
2.55427
2.00508
1.71722
1.58854
1.53677
1.52041
1.55081
1.59342
1.64641
1.71395
1.77075
1.83454
1.89228
1.95406
2.02494
2.71465
2.51224
2.30637
2.96182
2.20867
3.12197
3.47593
3.29547
3.87384
3.66766
4.35234
4.10157
4.95666
4.63651
5.55396
5.29565
7.31571
8.4791
5.97848
16.9683
17.2109
16.0395
16.64
11.635
10.5025
19.703
26.5683
25.5959
22.1028
24.292
23.9713
22.835
28.0617
27.5088
31.4282
25.907
25.4715
28.9992
65.5138
57.5312
64.821
56.6339
123.452
120.585
105.069
112.092
155.333
144.593
128.832
128.898
398.543
388.536
388.395
377.733
813.744
795.716
804.601
782.77
855.964
788.734
2451.86
867.912
2496.07
2483.97
2454.89
2489.61
892.318
912.756
880.828
2508.87
896.862
163.346
114.195
168.995
456.225
895.527
894.402
262.903
471.821
74.7043
65.5719
92.2507
218.569
61.9116
155.093
58.6664
55.3548
6.57199
5.98792
5.70154