/*--------------------------------*- C++ -*----------------------------------*\
  =========                 |
  \\      /  F ield         | OpenFOAM: The Open Source CFD Toolbox
   \\    /   O peration     | Website:  https://openfoam.org
    \\  /    A nd           | Version:  dev
     \\/     M anipulation  |
\*---------------------------------------------------------------------------*/
FoamFile
{
    version     2.0;
    format      ascii;
    class       volScalarField;
    location    "2500";
    object      p_rgh;
}
// * * * * * * * * * * * * * * * * * * * * * * * * * * * * * * * * * * * * * //

dimensions      [1 -1 -2 0 0 0 0];

internalField   nonuniform List<scalar> 
9834
(
0.00461858
0.0059896
0.00513575
0.00655028
0.00949254
0.00467553
0.0059028
0.0110083
0.00902031
0.00367014
0.00613485
0.0120255
0.0122776
0.00836267
0.00321812
0.00522334
0.0118433
0.013906
0.0116342
0.0069635
0.00253329
0.00520853
0.0119931
0.0147813
0.0140453
0.0106859
0.00588872
0.00215769
0.00541748
0.0114292
0.0148902
0.0158227
0.0133694
0.00933089
0.00523973
0.00182993
0.00482614
0.0107104
0.0148511
0.0169914
0.0153647
0.011915
0.00815799
0.00459611
0.00168215
0.00473917
0.0104981
0.0145149
0.0172258
0.017098
0.0145578
0.0107364
0.00723227
0.00396049
0.00125333
0.00484861
0.00977543
0.0141184
0.0171352
0.0181703
0.0164042
0.0131059
0.0096056
0.00646757
0.00370742
0.0011365
0.00491763
0.00914297
0.0137008
0.0167572
0.0185354
0.0177272
0.0149832
0.0115773
0.00857213
0.00564284
0.00317428
0.000793056
0.00490106
0.00855248
0.0129323
0.01639
0.0186226
0.0187997
0.0169407
0.0135632
0.0104228
0.00777348
0.00519603
0.00286933
0.000637067
0.00479018
0.0085494
0.0122899
0.0158399
0.0184473
0.0192751
0.0181741
0.0155831
0.0121868
0.0094823
0.00700008
0.00475804
0.00242485
0.000429919
0.00472048
0.00834494
0.0114235
0.0148849
0.0181234
0.0195178
0.019082
0.0170711
0.0139204
0.0110013
0.00859324
0.00638665
0.00427317
0.00216145
0.000125762
0.00469436
0.00793255
0.0106935
0.0144967
0.0176312
0.0195102
0.019704
0.0182719
0.0156799
0.0126495
0.00999378
0.00772521
0.00574602
0.00375931
0.00185723
-0.000171892
0.00463248
0.00783781
0.0102696
0.0138566
0.0170398
0.0194804
0.0199555
0.0190969
0.0170269
0.01413
0.0114092
0.0090701
0.00711843
0.00523379
0.00339248
0.00147024
-0.000317782
0.00435622
0.00766694
0.0100759
0.0131109
0.0161008
0.0190051
0.020094
0.0198626
0.0180339
0.0155693
0.012762
0.0104057
0.0083488
0.00651658
0.00475523
0.00300195
0.00105186
-0.000581373
0.00445351
0.00754209
0.00968212
0.0121364
0.0151871
0.0186366
0.020004
0.0203533
0.0190147
0.0167654
0.0140734
0.0115863
0.00947814
0.0076036
0.00584724
0.00428378
0.0025491
0.000761925
-0.000874574
0.00437071
0.00727319
0.0095798
0.0117376
0.0148644
0.0180561
0.0198356
0.0205147
0.0198701
0.0178565
0.0153012
0.0127135
0.0104816
0.00863071
0.00689132
0.00535518
0.00374743
0.0020806
0.00032398
-0.00118066
0.00413755
0.00707767
0.00909442
0.0114137
0.0143315
0.0172683
0.0194455
0.0205207
0.0203757
0.018717
0.0164125
0.0138255
0.0114917
0.00948257
0.00780557
0.00622192
0.00475229
0.00316424
0.00159938
-8.30721e-05
-0.00151692
0.00403274
0.00695479
0.0088854
0.0111406
0.0135644
0.0166162
0.0189946
0.0204443
0.0206279
0.0196289
0.0174763
0.0149592
0.0125319
0.010424
0.00860802
0.00699475
0.00554549
0.00412499
0.00275395
0.00118129
-0.000512771
-0.00189866
0.00399744
0.00675473
0.00861277
0.0106157
0.0129578
0.0159068
0.0184708
0.0201755
0.0208199
0.0202982
0.0184675
0.0159667
0.0135304
0.0112967
0.00942457
0.00772773
0.00629293
0.00491203
0.00361404
0.0022139
0.000709436
-0.000934232
-0.00224551
0.00383808
0.00646526
0.00841792
0.0103102
0.0122367
0.0150188
0.0179022
0.019864
0.0209093
0.0207084
0.0193826
0.0169865
0.0145713
0.0121924
0.010112
0.00843928
0.00693517
0.00558612
0.00428608
0.00302709
0.00161122
0.000212154
-0.00133701
-0.00270195
0.00367681
0.00623989
0.00816641
0.0100144
0.011872
0.0144581
0.0171603
0.0194966
0.0208098
0.0210191
0.0200784
0.0180266
0.0155798
0.0131201
0.0109626
0.00906239
0.00742818
0.00607919
0.00481545
0.00363718
0.00241264
0.0011169
-0.000405358
-0.0018104
-0.00305862
0.00347492
0.00598768
0.0078869
0.00961618
0.0115408
0.0139438
0.0164942
0.019015
0.0206542
0.0211788
0.0206698
0.0190665
0.0165382
0.0139788
0.0117329
0.00973491
0.00797145
0.00646488
0.00522053
0.00401709
0.00300673
0.00178146
0.000577579
-0.000818231
-0.00225301
-0.00344286
0.00336882
0.00574593
0.00760481
0.00929304
0.0112845
0.0132812
0.015724
0.0185311
0.0204344
0.0213313
0.0211356
0.0198899
0.0176742
0.0150663
0.0125857
0.0103422
0.00850948
0.00689767
0.00549562
0.0043836
0.00332386
0.00227877
0.00121271
3.60785e-06
-0.00144534
-0.00273332
-0.00383365
0.00321557
0.0054972
0.0074132
0.00908318
0.0109441
0.0128988
0.0153947
0.0181192
0.0201856
0.0213335
0.0215083
0.02059
0.0186295
0.0161514
0.0135576
0.0111751
0.00903179
0.00723053
0.00573907
0.00449284
0.00343549
0.00252972
0.00158017
0.000584677
-0.000574952
-0.00192868
-0.00318946
-0.00416535
0.00302711
0.005282
0.0071648
0.00881374
0.010683
0.0126526
0.0146734
0.0175896
0.0198253
0.0212808
0.0217838
0.0211846
0.0196555
0.0171788
0.0144902
0.0119606
0.00965994
0.00764412
0.00597746
0.00460238
0.00348371
0.00258393
0.00176433
0.000948767
2.68887e-05
-0.00111254
-0.00237552
-0.00360347
-0.0044973
0.00288935
0.00511206
0.00690258
0.0085632
0.0104126
0.0122224
0.0142317
0.0169944
0.0194346
0.0211453
0.0219324
0.0217992
0.0204848
0.0182318
0.0155601
0.0129049
0.0104111
0.00814058
0.00624427
0.00467821
0.00342377
0.00246522
0.00170805
0.00103767
0.000337052
-0.000534584
-0.00161983
-0.00281973
-0.00389655
-0.00468682
0.00273588
0.00485355
0.00666927
0.00832171
0.0101187
0.0119034
0.0138159
0.0164513
0.019043
0.0209501
0.0221081
0.0222573
0.0212553
0.019307
0.0166537
0.0139056
0.011278
0.00878747
0.00656718
0.00476316
0.00330532
0.00220723
0.00143111
0.000862813
0.000354916
-0.00025164
-0.00105372
-0.00206612
-0.0031609
-0.00415556
-0.0047842
0.00250814
0.00458538
0.00644383
0.00809375
0.00979351
0.011594
0.0135642
0.015897
0.0185337
0.0207501
0.0221303
0.0225592
0.0220389
0.0203686
0.0178511
0.0149785
0.012213
0.00955505
0.00705199
0.00488873
0.00316133
0.00184411
0.000956461
0.000415908
6.32218e-05
-0.000294024
-0.000793268
-0.00151018
-0.00243128
-0.00341783
-0.00424418
-0.00476164
0.00240046
0.00443865
0.00618764
0.00781329
0.00950131
0.0112411
0.0132329
0.0153831
0.0180252
0.0204126
0.0220925
0.0229095
0.0226972
0.0213868
0.0191256
0.0162699
0.0132515
0.0104456
0.00768654
0.00513981
0.00302691
0.00140649
0.000311727
-0.000294307
-0.000554401
-0.000684531
-0.000880883
-0.00126842
-0.0018941
-0.00269428
-0.00354099
-0.00421926
-0.00465018
0.00222733
0.0041119
0.00589764
0.00756963
0.00921487
0.01097
0.0129278
0.0150107
0.0175201
0.0201012
0.0219806
0.0231032
0.0233029
0.0224599
0.0204401
0.0177413
0.0146031
0.0115038
0.00850603
0.00555401
0.00296879
0.000920258
-0.000490641
-0.00126259
-0.00150911
-0.00145468
-0.00134761
-0.00138661
-0.00166427
-0.00216715
-0.00283376
-0.00352224
-0.00414137
-0.00497208
-0.00483991
0.00208148
0.00392258
0.00562055
0.00730518
0.00895091
0.0107205
0.0126634
0.0147009
0.0170246
0.0197049
0.0217956
0.0231725
0.023786
0.0233466
0.0217959
0.0193468
0.016307
0.0129743
0.00959281
0.00622134
0.00306423
0.000445134
-0.00144411
-0.00250099
-0.00282117
-0.00263967
-0.00224797
-0.00191518
-0.00180882
-0.00195487
-0.00231944
-0.0028702
-0.00360791
-0.00457062
-0.00422242
-0.00482572
-0.00468954
0.001908
0.00369608
0.00531258
0.00705366
0.00868903
0.0104429
0.0123032
0.0143626
0.0165983
0.0192552
0.0215589
0.0231564
0.0240779
0.0240813
0.022958
0.020852
0.0181337
0.0148493
0.0111797
0.00737193
0.0035574
0.000137176
-0.00246544
-0.00402424
-0.00453526
-0.00427686
-0.0036169
-0.00290313
-0.00237513
-0.00212829
-0.00213041
-0.00240562
-0.00320408
-0.00301471
-0.0038471
-0.00369033
-0.0034609
-0.00442557
-0.00407287
-0.00462923
-0.00447874
0.00169536
0.00344426
0.00504024
0.00672444
0.00841403
0.0101223
0.0119823
0.0139991
0.0161458
0.0187602
0.0211808
0.023043
0.0242297
0.0246011
0.0239414
0.0221764
0.0196762
0.016784
0.0131899
0.00912049
0.00476466
0.000498294
-0.00311035
-0.00556744
-0.0066341
-0.00645452
-0.00552428
-0.00439503
-0.00341517
-0.00273125
-0.00235238
-0.00225217
-0.00284236
-0.00268797
-0.00333522
-0.00369499
-0.00310719
-0.00328831
-0.00418415
-0.00380324
-0.00440106
-0.00423367
0.00156753
0.0032257
0.00479743
0.0063964
0.00804134
0.00981351
0.011663
0.0136542
0.0157681
0.0182843
0.0208015
0.0228356
0.0243091
0.024934
0.024689
0.0233824
0.0211764
0.0183287
0.0152235
0.0113852
0.00701621
0.00248345
-0.0018436
-0.00561824
-0.00818705
-0.0089387
-0.00805772
-0.0064743
-0.00496828
-0.00380564
-0.00303142
-0.00251784
-0.00254753
-0.00255195
-0.00299126
-0.00273738
-0.00275613
-0.00338865
-0.0028669
-0.00294266
-0.00390673
-0.00347484
-0.00415358
-0.00397434
0.00141424
0.00292695
0.00451997
0.00608535
0.00771064
0.00952817
0.0112785
0.0132784
0.0153369
0.0177928
0.0203525
0.0225819
0.0242687
0.0252719
0.0252635
0.0243568
0.0226086
0.0200551
0.0171218
0.0137676
0.0101642
0.00699602
0.00435242
0.000794697
-0.0045429
-0.00915953
-0.0104786
-0.00913338
-0.00706395
-0.00534913
-0.00414366
-0.0032676
-0.00260895
-0.00284999
-0.00255925
-0.00249659
-0.0024241
-0.0021517
-0.00245522
-0.0029976
-0.00247092
-0.0024849
-0.00360153
-0.00309563
-0.00389999
-0.00371018
0.00123922
0.00271031
0.00424639
0.00569765
0.00730303
0.00914859
0.0109472
0.01292
0.0149307
0.0172495
0.0198246
0.022166
0.0241141
0.0254642
0.0259055
0.025246
0.0237643
0.0217384
0.0191053
0.0162015
0.0137254
0.0134272
0.0162683
0.0192191
0.0155146
0.00375096
-0.00706508
-0.0109531
-0.00969585
-0.0074092
-0.00566152
-0.00447687
-0.00314137
-0.00364897
-0.00252836
-0.00273429
-0.00197236
-0.00190114
-0.00208012
-0.00175946
-0.00200558
-0.00253224
-0.00193867
-0.00192083
-0.00327815
-0.00267576
-0.0036582
-0.00345821
0.00103618
0.00242699
0.00390167
0.0054101
0.0070498
0.00877549
0.0105616
0.0124788
0.0144544
0.01666
0.0192449
0.021672
0.0238321
0.0254608
0.0263287
0.02622
0.0249986
0.0230985
0.0210086
0.0185918
0.0172329
0.0201145
0.0297215
0.0426257
0.0496861
0.041873
0.0172256
-0.00439429
-0.0111516
-0.0100236
-0.0076586
-0.00607383
-0.00416433
-0.00483999
-0.00300198
-0.00341435
-0.00192484
-0.00203638
-0.00153023
-0.00133212
-0.00157406
-0.00115038
-0.00138114
-0.00199205
-0.00124533
-0.0012176
-0.00295341
-0.00222163
-0.00345099
-0.00323888
0.000896875
0.00221154
0.00357165
0.0050334
0.00660177
0.0083445
0.0101386
0.0120172
0.0139446
0.0161602
0.0185611
0.0211216
0.0234294
0.0252867
0.0265201
0.0268654
0.0262134
0.0245974
0.0226387
0.020807
0.0203955
0.0257326
0.0409106
0.0623317
0.0811115
0.086508
0.0686993
0.0276324
-0.00429105
-0.0117426
-0.010174
-0.00800737
-0.00552578
-0.00626034
-0.00373776
-0.00393697
-0.00202517
-0.00157718
-0.000997792
-6.6034e-05
-0.000650912
0.000415546
-0.000774841
0.000167367
-0.000427366
-0.00135494
-0.000210469
-0.000208749
-0.0026435
-0.00172658
-0.0033084
-0.00309414
0.000697771
0.00189679
0.00319938
0.0045921
0.00619525
0.0078961
0.00967071
0.0115385
0.0134495
0.0156234
0.0179159
0.0204536
0.0229153
0.0249763
0.0265051
0.0272542
0.0270898
0.0259895
0.0242451
0.0226825
0.0229165
0.030071
0.0483355
0.073792
0.0997482
0.119367
0.119806
0.0878552
0.028057
-0.00690598
-0.0122815
-0.0104715
-0.0071457
-0.00798077
-0.00363223
-0.0023305
-2.88981e-06
0.0039058
0.00250094
0.00873368
0.0032053
0.0103216
0.00236024
0.00827019
0.00100753
0.00473212
0.00172725
-0.0004972
0.0020888
0.00193524
-0.00236138
-0.00112888
-0.00327327
-0.00307337
0.000529465
0.00163674
0.00283653
0.00417038
0.00568673
0.0073664
0.00912871
0.0110191
0.0129391
0.015031
0.0172908
0.019742
0.022315
0.0245375
0.026304
0.0274097
0.0276755
0.0270567
0.0257373
0.0244792
0.0248965
0.0326458
0.0538006
0.0775973
0.101082
0.127865
0.147849
0.140773
0.0891663
0.0187696
-0.0107189
-0.0132196
-0.00887291
-0.00994704
-0.00102379
0.00173262
0.0114046
0.021838
0.0220653
0.0432217
0.0262283
0.0566751
0.0233843
0.05596
0.015185
0.0417908
0.00720435
0.0233804
0.00905003
0.0011904
0.00964054
0.00865034
-0.00210364
-6.82512e-05
-0.00342082
-0.00322873
0.000373679
0.00136935
0.00248949
0.0037423
0.00513548
0.00674347
0.00849199
0.010463
0.012372
0.0144125
0.0166388
0.0189808
0.0216446
0.023957
0.0259321
0.0273546
0.0280135
0.0278317
0.0269266
0.0259936
0.026312
0.033804
0.0550092
0.0745544
0.0896769
0.118359
0.149781
0.168297
0.142026
0.0728316
0.0029512
-0.0146416
-0.00978896
-0.0156643
0.00317549
0.00609911
0.0341314
0.0474164
0.0688672
0.09569
0.0956985
0.137376
0.10704
0.163628
0.0968775
0.16822
0.063922
0.144179
0.0312112
0.0870558
0.0360465
0.0062112
0.0362445
0.0314194
-0.00177677
0.00292334
-0.00383717
-0.00360539
0.00023338
0.00110455
0.00213687
0.0033289
0.00466525
0.00615849
0.00790852
0.00987266
0.0117375
0.0137631
0.0159202
0.0182185
0.0208616
0.0232744
0.0254003
0.0270898
0.0281163
0.0283418
0.0278496
0.0271815
0.0273843
0.0334717
0.0537612
0.0704348
0.0763734
0.0908717
0.130529
0.169951
0.174238
0.122089
0.0410152
-0.010897
-0.000407312
0.0075709
0.0162693
0.0593112
0.0708947
0.120858
0.143246
0.1771
0.212308
0.218882
0.269395
0.240804
0.307956
0.234977
0.321762
0.191188
0.299849
0.105823
0.231456
0.114402
0.02287
0.110971
0.096908
-0.000844414
0.0124584
-0.00472643
-0.00424502
0.000125677
0.000848306
0.0017738
0.0028898
0.00416456
0.00558124
0.00735867
0.00926923
0.0110339
0.0130733
0.0151776
0.0174513
0.0200226
0.022494
0.0247377
0.0266396
0.0279833
0.0285969
0.0284969
0.0280674
0.0282361
0.0327834
0.0506776
0.0682791
0.070372
0.0713146
0.0948494
0.153309
0.18695
0.159901
0.0800933
0.00603494
0.00485214
0.0937906
0.0996713
0.0797793
0.0874969
0.161552
0.177226
0.242069
0.266756
0.313179
0.349858
0.368349
0.420326
0.402302
0.470389
0.404227
0.495503
0.359582
0.478825
0.261057
0.409324
0.27468
0.0724428
0.267966
0.238873
0.00269268
0.0420979
-0.00663262
-0.00513989
6.86808e-05
0.000609736
0.00140777
0.00243743
0.00364862
0.00501651
0.00670727
0.00852484
0.0102974
0.0123373
0.014411
0.0166228
0.0191285
0.0216304
0.0239556
0.02602
0.0276352
0.0286045
0.0288736
0.0286846
0.0288994
0.0320833
0.0466558
0.0666883
0.0686999
0.0609882
0.0701487
0.121243
0.186593
0.184819
0.116224
0.0325161
0.0160375
0.106435
0.109535
0.203664
0.208321
0.18887
0.197441
0.286132
0.30217
0.37975
0.403505
0.462455
0.497551
0.531158
0.576338
0.575786
0.632676
0.587772
0.664909
0.54733
0.664841
0.443836
0.602245
0.460072
0.183586
0.454791
0.425613
0.0143666
0.114608
-0.0105892
-0.00549591
5.13457e-05
0.000403584
0.00104726
0.00196887
0.00310506
0.00443052
0.00601219
0.00780121
0.00955446
0.0115174
0.0135715
0.0157324
0.0181887
0.0206696
0.0230581
0.0252479
0.0270866
0.0283715
0.028992
0.0290821
0.0293753
0.0315384
0.0425552
0.0644539
0.0686383
0.057884
0.0561518
0.0927207
0.1738
0.200202
0.151498
0.0680451
0.0411195
0.122984
0.112501
0.212288
0.216452
0.326875
0.330019
0.313722
0.321666
0.421364
0.435238
0.523807
0.541967
0.60687
0.622045
0.65921
0.667796
0.696456
0.701591
0.722044
0.73358
0.722005
0.761486
0.638116
0.76078
0.653327
0.364268
0.644566
0.615104
0.0518601
0.2715
-0.0213698
0.000731816
1.87156e-05
0.000221309
0.000700922
0.00148688
0.00253507
0.00383153
0.005326
0.00707127
0.00876618
0.0106634
0.0126933
0.0148276
0.0172057
0.0196575
0.0220668
0.0243433
0.0263591
0.0279146
0.0288603
0.0292608
0.0296479
0.0311728
0.0390988
0.0602025
0.0690845
0.0602879
0.0503909
0.0693623
0.146096
0.208597
0.186357
0.108667
0.0744454
0.188606
0.220051
0.242617
0.332203
0.333594
0.452538
0.452704
0.444359
0.450026
0.553821
0.560884
0.627924
0.628314
0.666337
0.660019
0.694722
0.681522
0.725001
0.704317
0.760081
0.736721
0.79114
0.77799
0.788932
0.817246
0.806896
0.564208
0.810052
0.789527
0.149142
0.490568
-0.0436041
0.060726
2.08675e-05
0.000343841
0.00100571
0.00194318
0.0031893
0.00458448
0.00626143
0.00790918
0.00976464
0.0117457
0.0138648
0.0161757
0.0185686
0.0209953
0.0233259
0.0254711
0.0272517
0.028491
0.0291985
0.0296975
0.0309154
0.0363583
0.0540885
0.0689065
0.0644823
0.0497721
0.0538332
0.112931
0.205572
0.214709
0.153129
0.110531
0.206682
0.342459
0.330151
0.335827
0.337917
0.451993
0.449507
0.556938
0.550107
0.563023
0.561625
0.625245
0.619455
0.652292
0.643368
0.665353
0.646948
0.673856
0.636773
0.693163
0.63366
0.737174
0.660589
0.794971
0.726198
0.841811
0.811646
0.86415
0.757851
0.882333
0.8931
0.393609
0.735075
0.0414262
0.50201
-2.0709e-05
0.000487712
0.00134033
0.00249636
0.00380117
0.00538395
0.00698926
0.00881707
0.010751
0.0128452
0.0151046
0.0174258
0.0198485
0.0222091
0.0244477
0.0264056
0.0279093
0.0288952
0.0295636
0.030664
0.034343
0.0478588
0.0675263
0.068232
0.052544
0.0472743
0.0812669
0.180427
0.230179
0.200069
0.149767
0.222091
0.384786
0.440357
0.446575
0.447409
0.444427
0.542863
0.532972
0.591894
0.580341
0.611522
0.602808
0.63271
0.620853
0.627231
0.607566
0.60067
0.568779
0.575784
0.528013
0.574672
0.507941
0.620024
0.519371
0.715542
0.579911
0.832062
0.715123
0.859804
0.901897
0.888255
0.901521
0.91784
0.8261
0.874525
0.916063
0.301627
0.879146
6.92723e-06
0.00071389
0.00176253
0.00296955
0.00443311
0.00604082
0.007824
0.00971737
0.0117758
0.0139939
0.0162352
0.018629
0.0210058
0.0233062
0.0254044
0.0271273
0.028374
0.0292606
0.0303225
0.0329067
0.042721
0.0634665
0.0700661
0.0594145
0.0470254
0.0593847
0.136056
0.230025
0.237986
0.196416
0.232158
0.374614
0.473232
0.454603
0.499051
0.486512
0.522582
0.511552
0.568296
0.555178
0.579498
0.563788
0.60821
0.594382
0.58775
0.567753
0.540535
0.515045
0.490715
0.46118
0.469652
0.448015
0.465592
0.447722
0.479881
0.444985
0.555255
0.452224
0.726257
0.547099
0.634121
0.822698
0.739264
0.913007
0.938564
0.924332
0.858729
0.778042
0.758396
0.873551
0.944362
0.967161
0.945999
0.954946
0.173905
0.986231
0.757448
0.956607
9.95618e-05
0.0009996
0.00211074
0.00347606
0.00506394
0.00678805
0.00864178
0.0106584
0.0128219
0.0150047
0.0173519
0.0197316
0.0220606
0.0242648
0.0261694
0.027652
0.0287764
0.0298728
0.0318608
0.0386203
0.0567818
0.0701186
0.065993
0.0498168
0.0490168
0.0947024
0.20546
0.253624
0.242703
0.246615
0.360333
0.442559
0.423347
0.476541
0.460747
0.509153
0.492704
0.540445
0.525085
0.547293
0.530309
0.509283
0.491336
0.547783
0.528174
0.49066
0.466054
0.435315
0.40887
0.431612
0.413009
0.441569
0.441096
0.445155
0.471731
0.439046
0.4375
0.446845
0.47053
0.482523
0.440273
0.435723
0.438362
0.428748
0.547544
0.651037
0.552062
0.474027
0.662856
0.886853
0.94146
0.899827
0.80303
0.706296
0.682544
0.821449
0.985694
0.972383
0.955283
0.116145
0.630607
0.819588
0.986418
0.957263
0.000218126
0.0012353
0.0024981
0.00401868
0.00570038
0.00751357
0.00949154
0.0115882
0.013737
0.0160274
0.0183954
0.020739
0.0230024
0.0250611
0.0267488
0.028084
0.0292799
0.0309932
0.035629
0.0499766
0.0686024
0.0698307
0.0565235
0.0467473
0.0664523
0.15327
0.250809
0.271395
0.273758
0.343674
0.411022
0.445243
0.432842
0.451774
0.440059
0.480435
0.465345
0.513106
0.496403
0.474623
0.459866
0.404868
0.391434
0.442665
0.421944
0.381222
0.353061
0.391139
0.362949
0.438039
0.427217
0.512918
0.549421
0.500458
0.540355
0.577449
0.619127
0.455011
0.489104
0.533442
0.433964
0.423371
0.465906
0.475987
0.437163
0.472746
0.565192
0.47681
0.429914
0.580168
0.836133
0.913716
0.849737
0.730619
0.600308
0.623904
0.751665
0.968258
0.97944
0.927504
0.294095
0.783449
0.892167
0.980035
0.965276
0.000352097
0.0014898
0.00291562
0.00454821
0.00632229
0.00826516
0.010316
0.0124491
0.0146613
0.0170052
0.0193588
0.0216445
0.0238059
0.0256917
0.0272135
0.0285541
0.0301409
0.0334535
0.0441064
0.0643207
0.0710295
0.0636832
0.0486655
0.0521013
0.105116
0.219423
0.27702
0.297801
0.338091
0.388367
0.412055
0.404236
0.429375
0.420883
0.416859
0.41277
0.428934
0.422139
0.447434
0.437307
0.383069
0.378255
0.300169
0.296653
0.328507
0.309935
0.326469
0.283865
0.403597
0.366422
0.565027
0.554177
0.650256
0.68127
0.697066
0.709795
0.583055
0.633755
0.681065
0.721513
0.510857
0.566356
0.626518
0.420166
0.437353
0.530073
0.544474
0.48209
0.42848
0.485992
0.428839
0.417543
0.499316
0.768885
0.86498
0.785571
0.648654
0.517863
0.540651
0.672571
0.943484
0.960707
0.883711
0.263184
0.92577
0.716938
0.971032
0.963407
0.000475595
0.00177014
0.00332438
0.00506091
0.00696735
0.00899205
0.011099
0.0132547
0.0155641
0.0179213
0.0202371
0.0224286
0.0244536
0.0261873
0.0276753
0.0292691
0.0318359
0.0393409
0.0573051
0.0702211
0.068357
0.054354
0.047529
0.0715823
0.162203
0.266429
0.304899
0.338675
0.375
0.393801
0.402897
0.398835
0.409232
0.406212
0.391496
0.394846
0.383327
0.387403
0.377879
0.380039
0.301639
0.313547
0.214871
0.223755
0.242189
0.220109
0.317403
0.259949
0.519006
0.454996
0.708665
0.702599
0.688158
0.666378
0.75243
0.772215
0.780883
0.779031
0.685761
0.73916
0.782947
0.814775
0.595441
0.664586
0.730803
0.435537
0.483375
0.618253
0.633463
0.552395
0.414552
0.430929
0.410992
0.430648
0.436806
0.694382
0.806046
0.716942
0.565416
0.44769
0.465194
0.592295
0.908029
0.934744
0.833497
0.122992
0.901558
0.649584
0.955674
0.955351
0.000589827
0.00204612
0.00371624
0.00559546
0.00759323
0.00968955
0.0118064
0.014082
0.0164299
0.0187745
0.0210106
0.0230682
0.0249619
0.0266459
0.0283065
0.0305
0.0358147
0.0503942
0.067994
0.0703704
0.0607173
0.0472765
0.0541136
0.108902
0.223679
0.299497
0.338029
0.370206
0.388972
0.398134
0.397788
0.398561
0.398249
0.397134
0.398357
0.380045
0.388075
0.35679
0.369527
0.327846
0.342629
0.246049
0.272215
0.155288
0.173735
0.195166
0.161737
0.366091
0.264783
0.639037
0.559815
0.768461
0.749142
0.723946
0.696052
0.833622
0.839445
0.832893
0.81567
0.788523
0.834423
0.866498
0.884174
0.695023
0.767191
0.828782
0.478821
0.553065
0.717279
0.730791
0.640479
0.423294
0.409475
0.413643
0.468995
0.407973
0.619848
0.745233
0.650125
0.489051
0.40881
0.414065
0.518335
0.868511
0.907142
0.783451
-0.0211546
0.903698
0.476478
0.944032
0.963315
0.000703862
0.00230402
0.00412607
0.00611973
0.00819614
0.0103157
0.0125515
0.0148916
0.0172523
0.0195439
0.021655
0.0235718
0.0253923
0.0272055
0.0292502
0.0332388
0.0444699
0.0637629
0.070266
0.065162
0.051187
0.0480237
0.0721884
0.15835
0.272567
0.33019
0.365543
0.387906
0.401727
0.402289
0.402839
0.399923
0.401337
0.39379
0.397575
0.374987
0.385453
0.343414
0.36102
0.298304
0.322337
0.205607
0.24031
0.108251
0.122499
0.168907
0.121538
0.4426
0.296468
0.665259
0.630811
0.54756
0.59708
0.788715
0.757164
0.725648
0.694981
0.887767
0.877126
0.855392
0.821824
0.876483
0.909128
0.926427
0.928646
0.794808
0.860399
0.910461
0.54627
0.639167
0.814269
0.82545
0.73577
0.454506
0.405605
0.437292
0.532152
0.397945
0.550788
0.688401
0.589659
0.428383
0.392319
0.389168
0.454724
0.831128
0.886376
0.738653
0.0157008
0.900365
0.487086
0.945806
0.980075
0.000814035
0.00256713
0.00453613
0.00662366
0.00874149
0.0109741
0.0132992
0.0156763
0.0180158
0.0202047
0.0221654
0.0239918
0.0258823
0.0280409
0.0312916
0.0398587
0.0575728
0.068593
0.0675663
0.0564689
0.0458835
0.0545151
0.101319
0.199524
0.299482
0.351451
0.381915
0.398741
0.403738
0.401163
0.404702
0.405111
0.401573
0.403583
0.392934
0.39816
0.36248
0.374619
0.326286
0.346493
0.272966
0.30174
0.156123
0.193183
0.0599184
0.0617961
0.150882
0.0801706
0.492076
0.418077
0.301701
0.639607
0.610078
0.534196
0.577018
0.784435
0.744539
0.7048
0.669899
0.916414
0.893415
0.855997
0.812275
0.944092
0.961864
0.964227
0.952435
0.884084
0.937269
0.972733
0.629263
0.732217
0.900667
0.910022
0.828736
0.51099
0.420173
0.483931
0.610485
0.402942
0.492195
0.639231
0.538942
0.39202
0.386802
0.376519
0.408719
0.801773
0.876951
0.703498
0.0915673
0.918489
0.733378
0.957116
0.996836
0.000930791
0.00283
0.00493319
0.00707771
0.00931741
0.0116505
0.0140457
0.0164252
0.0186966
0.020737
0.022588
0.0244124
0.0266691
0.0296847
0.0365719
0.05191
0.0660285
0.0680633
0.0597961
0.0469388
0.047945
0.0673418
0.125419
0.218052
0.311647
0.361269
0.383912
0.382259
0.393395
0.382609
0.397963
0.397341
0.394475
0.396948
0.383545
0.390018
0.327287
0.341891
0.285982
0.308726
0.228116
0.259039
0.0879118
0.120738
0.0155903
0.0065888
0.137033
0.0475717
0.479984
0.412796
0.31855
0.238655
0.592473
0.567226
0.502187
0.539124
0.760851
0.708097
0.660332
0.621924
0.930667
0.893304
0.846985
0.78909
0.991516
0.995009
0.984743
0.965581
0.957561
0.995779
1.01633
0.719592
0.823739
0.971959
0.980313
0.912421
0.583271
0.453451
0.547113
0.696663
0.419803
0.446373
0.600443
0.501073
0.373319
0.390577
0.370612
0.383284
0.783298
0.87634
0.679072
0.285653
0.981433
0.884794
0.968889
1.01614
0.00105082
0.00308497
0.00529947
0.00756231
0.00992127
0.0123474
0.0147848
0.017115
0.019258
0.0211556
0.0230491
0.0251197
0.0281254
0.034334
0.0476712
0.0627165
0.0671338
0.0617148
0.0499678
0.0447099
0.0528138
0.0794452
0.135953
0.221833
0.302543
0.343095
0.345956
0.329295
0.312138
0.359773
0.345231
0.370303
0.367456
0.366662
0.36976
0.352972
0.360988
0.259778
0.277253
0.213231
0.238333
0.153759
0.184805
0.0130393
0.0332606
-0.00447929
-0.0189173
0.165167
0.0947161
0.0334928
0.453271
0.391035
0.294101
0.223704
0.532053
0.510938
0.457778
0.48833
0.724657
0.659777
0.602935
0.560518
0.932026
0.887803
0.831622
0.7643
1.0213
1.01273
0.996101
0.967786
1.01361
1.03665
1.04376
0.809397
0.90691
1.02656
1.03446
0.982596
0.662972
0.500645
0.613355
0.783064
0.446556
0.417262
0.573872
0.478937
0.365632
0.400035
0.370841
0.373752
0.773679
0.880359
0.665186
0.106351
1.02401
0.688844
0.979364
1.03592
0.00116818
0.00334007
0.00569639
0.00807187
0.0105654
0.0130678
0.0154961
0.0177166
0.0197549
0.0217225
0.0236623
0.0265991
0.0324353
0.0448511
0.0593653
0.0652129
0.0623242
0.0520009
0.0432883
0.0468387
0.0582333
0.0850509
0.13759
0.201866
0.249233
0.258114
0.212439
0.254494
0.21976
0.29411
0.277171
0.310298
0.304813
0.307646
0.310971
0.290794
0.300923
0.162015
0.181721
0.114094
0.139219
0.0587208
0.086796
-0.0237609
-0.0216464
-0.00282761
-0.0169502
-0.0263954
0.15559
0.0934563
0.0146764
0.0517136
0.414664
0.35908
0.265129
0.205565
0.465553
0.447943
0.406046
0.430674
0.688038
0.610116
0.542398
0.494042
0.929133
0.878566
0.814662
0.739309
1.03691
1.02264
0.9981
0.964273
1.05277
1.06222
1.05711
0.891497
0.977031
1.06454
1.07182
1.03669
0.740054
0.545756
0.670734
0.860514
0.475423
0.406414
0.561609
0.473614
0.364117
0.417017
0.379905
0.375448
0.77202
0.887383
0.663191
0.0723174
1.00689
0.517402
0.99145
1.04938
0.00129948
0.0036234
0.00611445
0.00863631
0.0112567
0.0138016
0.0161745
0.0182796
0.0204362
0.0226264
0.0255047
0.0308664
0.0424872
0.0563178
0.0627644
0.0617245
0.0527404
0.0429775
0.0434473
0.0494331
0.0612177
0.0856426
0.120658
0.149608
0.153654
0.123657
0.0975896
0.0849327
0.158959
0.128116
0.201341
0.183246
0.219801
0.213377
0.217021
0.22098
0.197781
0.209447
0.0525055
0.070444
0.0147389
0.0335005
-0.01382
-0.000751703
-0.034818
-0.0373421
-0.000599791
-0.015818
-0.023317
-0.0305358
0.147848
0.0952607
0.025447
0.0575037
0.368737
0.320996
0.233061
0.185125
0.398339
0.382871
0.349618
0.370012
0.654524
0.56726
0.488377
0.429651
0.919547
0.862315
0.793831
0.712384
1.04474
1.0233
0.994081
0.955737
1.07664
1.07304
1.06163
0.959237
1.02975
1.087
1.09252
1.07266
0.800952
0.58847
0.721473
0.916685
0.507385
0.411045
0.563768
0.480227
0.370571
0.440773
0.398068
0.388167
0.777791
0.897228
0.670746
0.0456116
0.962567
0.386611
1.0092
1.06014
0.00145167
0.00392547
0.00657618
0.00927305
0.0119963
0.0145468
0.0168739
0.0191919
0.0222278
0.0255588
0.0305607
0.0406628
0.0533367
0.0600116
0.060158
0.0525154
0.0427132
0.041037
0.0449124
0.0510345
0.0614334
0.0762919
0.0881233
0.0889864
0.0739467
0.0497481
0.0463033
0.0429682
0.0689753
0.0556266
0.0960036
0.0833787
0.109856
0.105115
0.105273
0.110032
0.0858887
0.0971414
-0.0124558
-0.00386818
-0.0276393
-0.020487
-0.0368444
-0.0329335
-0.0352057
-0.0390822
0.0113625
-0.00921684
-0.0159813
-0.0274116
0.138372
0.0948882
0.0346383
0.0609188
0.318664
0.279101
0.199927
0.163694
0.334381
0.318428
0.291238
0.307748
0.620989
0.525727
0.438869
0.37232
0.907868
0.849413
0.777381
0.692037
1.04496
1.01749
0.984702
0.943277
1.08501
1.07488
1.05979
1.00377
1.05988
1.0929
1.09589
1.08986
0.850631
0.630885
0.766861
0.957967
0.542891
0.431011
0.576193
0.507146
0.388785
0.470546
0.428146
0.415499
0.789236
0.913409
0.688627
0.013182
0.917428
0.236036
1.03056
1.06751
0.0016268
0.00427215
0.00711852
0.0099948
0.0128065
0.0154561
0.0182356
0.0218849
0.0260872
0.0314425
0.0402119
0.050519
0.0570578
0.0578691
0.0514047
0.0420897
0.039383
0.0417231
0.0458852
0.0511769
0.057652
0.062734
0.0633318
0.0571239
0.0467948
0.0366541
0.0311853
0.0339431
0.0276219
0.0289817
0.0273814
0.0272119
0.0263393
0.0273783
0.0186701
0.0235648
0.00463154
0.0120997
-0.0283935
-0.0237183
-0.0359182
-0.032468
-0.0394355
-0.0382261
-0.0286084
-0.0345667
-0.0382546
-0.0369046
0.0160047
-0.00114166
-0.0114155
-0.021016
0.127409
0.0925869
0.0356307
0.0590377
0.266784
0.235415
0.164435
0.138546
0.274825
0.256702
0.231616
0.24539
0.595943
0.491975
0.393439
0.317582
0.893308
0.833272
0.762459
0.677006
1.03638
1.00636
0.971261
0.928929
1.08429
1.07052
1.04886
1.03339
1.07833
1.0896
1.09001
1.09293
0.891446
0.671832
0.806808
0.988872
0.580247
0.476482
0.609063
0.568289
0.424382
0.508921
0.474091
0.47
0.811786
0.936187
0.726326
-0.0266405
0.852544
0.137502
1.05103
1.07112
0.00184643
0.00469532
0.00776737
0.0108313
0.0138544
0.0172197
0.0212717
0.0261933
0.0319493
0.039985
0.0480026
0.0538769
0.0551781
0.0495928
0.0409281
0.0379455
0.039315
0.042395
0.0459816
0.0498289
0.0530489
0.054114
0.0518122
0.0466858
0.0398212
0.0317522
0.0311802
0.0337219
0.0279563
0.0201578
0.0242472
0.0113218
0.0158156
0.00201054
0.00671851
-0.00805823
-0.0029075
-0.0186057
-0.0134132
-0.0280304
-0.0241731
-0.034181
-0.0313915
-0.0373498
-0.036314
-0.0267786
-0.0312535
-0.0363474
-0.0344845
0.0150361
0.00034217
-0.0123146
-0.0205175
0.11144
0.0845429
0.0319321
0.0502374
0.212702
0.189644
0.124934
0.107605
0.216359
0.196167
0.173301
0.185361
0.579374
0.471952
0.364111
0.272458
0.87909
0.820016
0.748691
0.665094
1.02208
0.99052
0.954163
0.913134
1.0768
1.0592
1.03212
1.05486
1.0819
1.07864
1.07474
1.08417
0.926536
0.712745