/*--------------------------------*- C++ -*----------------------------------*\
  =========                 |
  \\      /  F ield         | OpenFOAM: The Open Source CFD Toolbox
   \\    /   O peration     | Website:  https://openfoam.org
    \\  /    A nd           | Version:  dev
     \\/     M anipulation  |
\*---------------------------------------------------------------------------*/
FoamFile
{
    version     2.0;
    format      ascii;
    class       surfaceScalarField;
    location    "2500";
    object      phi;
}
// * * * * * * * * * * * * * * * * * * * * * * * * * * * * * * * * * * * * * //

dimensions      [1 0 -1 0 0 0 0];

internalField   nonuniform List<scalar> 
19497
(
1.66484e-07
1.0605e-07
1.49451e-07
2.58092e-07
4.51633e-07
9.25191e-08
1.27243e-07
3.46916e-07
4.57392e-07
2.52339e-07
6.37293e-07
7.41015e-08
1.08134e-07
4.009e-07
4.41796e-07
3.62506e-07
6.67643e-07
2.22012e-07
7.72858e-07
5.91937e-08
9.36631e-08
4.31857e-07
4.08537e-07
4.34175e-07
6.857e-07
3.44456e-07
8.10972e-07
1.83882e-07
8.85471e-07
4.932e-08
8.1401e-08
4.48028e-07
3.66135e-07
4.74254e-07
6.82165e-07
4.37703e-07
8.51984e-07
3.03456e-07
9.16748e-07
1.5253e-07
9.82091e-07
4.26106e-08
7.25402e-08
4.53777e-07
3.22524e-07
4.91642e-07
6.5632e-07
5.0011e-07
8.81946e-07
4.07715e-07
9.63977e-07
2.56257e-07
1.00528e-06
1.29321e-07
1.06928e-06
3.72479e-08
6.49534e-08
4.53425e-07
2.8258e-07
4.93682e-07
6.14076e-07
5.33901e-07
8.91543e-07
4.9051e-07
1.01344e-06
3.5825e-07
1.04467e-06
2.16856e-07
1.08609e-06
1.12511e-07
1.14655e-06
3.30456e-08
5.90048e-08
4.4535e-07
2.52187e-07
4.83845e-07
5.63262e-07
5.44554e-07
8.77619e-07
5.47864e-07
1.05324e-06
4.5071e-07
1.09668e-06
3.06239e-07
1.11571e-06
1.87212e-07
1.15951e-06
9.95448e-08
1.21653e-06
3.00201e-08
5.61842e-08
4.30291e-07
2.29603e-07
4.6798e-07
5.09335e-07
5.3783e-07
8.4272e-07
5.79456e-07
1.07531e-06
5.25833e-07
1.1528e-06
3.94607e-07
1.15864e-06
2.63289e-07
1.1815e-06
1.65194e-07
1.22588e-06
9.01604e-08
1.28054e-06
2.75392e-08
5.61912e-08
4.11241e-07
2.1307e-07
4.46771e-07
4.58607e-07
5.18786e-07
7.92313e-07
5.88287e-07
1.0737e-06
5.81079e-07
1.20135e-06
4.77297e-07
1.21264e-06
3.40616e-07
1.21401e-06
2.30771e-07
1.24289e-06
1.48179e-07
1.28774e-06
8.29311e-08
1.34088e-06
2.58321e-08
5.74206e-08
3.89777e-07
2.00396e-07
4.23963e-07
4.13262e-07
4.92276e-07
7.33307e-07
5.77822e-07
1.05072e-06
6.11309e-07
1.23496e-06
5.47522e-07
1.27185e-06
4.18102e-07
1.2575e-06
2.97182e-07
1.26722e-06
2.06443e-07
1.29976e-06
1.36148e-07
1.3457e-06
7.80921e-08
1.39813e-06
2.4692e-08
5.84377e-08
3.65556e-07
1.91918e-07
3.98314e-07
3.77427e-07
4.59927e-07
6.72335e-07
5.53351e-07
1.00983e-06
6.1882e-07
1.2462e-06
6.00064e-07
1.32761e-06
4.91781e-07
1.31167e-06
3.63961e-07
1.30057e-06
2.63865e-07
1.31849e-06
1.87713e-07
1.35455e-06
1.27272e-07
1.40158e-06
7.45648e-08
1.4535e-06
2.43032e-08
6.01117e-08
3.37424e-07
1.88063e-07
3.69499e-07
3.49296e-07
4.26596e-07
6.11104e-07
5.2127e-07
9.54249e-07
6.09e-07
1.23616e-06
6.28917e-07
1.37108e-06
5.56634e-07
1.37203e-06
4.31423e-07
1.34308e-06
3.214e-07
1.34323e-06
2.39143e-07
1.36766e-06
1.74609e-07
1.40704e-06
1.21776e-07
1.45495e-06
7.30739e-08
1.50885e-06
2.41572e-08
6.21052e-08
3.09025e-07
1.83445e-07
3.4214e-07
3.25161e-07
3.93737e-07
5.5608e-07
4.81736e-07
8.91433e-07
5.84173e-07
1.20874e-06
6.36462e-07
1.39557e-06
6.04462e-07
1.43174e-06
4.96961e-07
1.3953e-06
3.79255e-07
1.3751e-06
2.89595e-07
1.38531e-06
2.21502e-07
1.41492e-06
1.66768e-07
1.45745e-06
1.19255e-07
1.50845e-06
7.34363e-08
1.56407e-06
2.44887e-08
6.37292e-08
2.80401e-07
1.79229e-07
3.1336e-07
3.07561e-07
3.59876e-07
5.10796e-07
4.3922e-07
8.25151e-07
5.48133e-07
1.16482e-06
6.28159e-07
1.39886e-06
6.33211e-07
1.48379e-06
5.52446e-07
1.4552e-06
4.37137e-07
1.41488e-06
3.39493e-07
1.40768e-06
2.67268e-07
1.42601e-06
2.10439e-07
1.46149e-06
1.62717e-07
1.50848e-06
1.19202e-07
1.56283e-06
7.46419e-08
1.6202e-06
2.53585e-08
6.49348e-08
2.50604e-07
1.77381e-07
2.82386e-07
2.9546e-07
3.25622e-07
4.73767e-07
3.97114e-07
7.59345e-07
5.05159e-07
1.10704e-06
6.06015e-07
1.38458e-06
6.425e-07
1.5213e-06
5.95728e-07
1.51671e-06
4.90948e-07
1.46334e-06
3.88731e-07
1.43607e-06
3.1114e-07
1.44122e-06
2.52096e-07
1.46781e-06
2.04136e-07
1.509e-06
1.62163e-07
1.56033e-06
1.21671e-07
1.61802e-06
7.6779e-08
1.67929e-06
2.66726e-08
6.66208e-08
2.20533e-07
1.76367e-07
2.5177e-07
2.86219e-07
2.91807e-07
4.4307e-07
3.56531e-07
6.9921e-07
4.57423e-07
1.04254e-06
5.69784e-07
1.35571e-06
6.34925e-07
1.53968e-06
6.2416e-07
1.57442e-06
5.38036e-07
1.51945e-06
4.34865e-07
1.47146e-06
3.53394e-07
1.46046e-06
2.91944e-07
1.47602e-06
2.43936e-07
1.51003e-06
2.03144e-07
1.55697e-06
1.65502e-07
1.61369e-06
1.25961e-07
1.67552e-06
8.04927e-08
1.7412e-06
2.8219e-08
6.86679e-08
1.91904e-07
1.75801e-07
2.2129e-07
2.78939e-07
2.59229e-07
4.18617e-07
3.16522e-07
6.49525e-07
4.06388e-07
9.76485e-07
5.23614e-07
1.30986e-06
6.15748e-07
1.54121e-06
6.33485e-07
1.62263e-06
5.75992e-07
1.57999e-06
4.77555e-07
1.51495e-06
3.91425e-07
1.48411e-06
3.29788e-07
1.48657e-06
2.81434e-07
1.51168e-06
2.42327e-07
1.55287e-06
2.07257e-07
1.60735e-06
1.71826e-07
1.66936e-06
1.32071e-07
1.73667e-06
8.49624e-08
1.80624e-06
2.99423e-08
6.97541e-08
1.66136e-07
1.75697e-07
1.9219e-07
2.73463e-07
2.26962e-07
4.02604e-07
2.75506e-07
6.10547e-07
3.55655e-07
9.11806e-07
4.71253e-07
1.25309e-06
5.8051e-07
1.52649e-06
6.30541e-07
1.65519e-06
6.00995e-07
1.64071e-06
5.15311e-07
1.56599e-06
4.26571e-07
1.51382e-06
3.61793e-07
1.50007e-06
3.16363e-07
1.51404e-06
2.79117e-07
1.54858e-06
2.46655e-07
1.59915e-06
2.15455e-07
1.66005e-06
1.81112e-07
1.72868e-06
1.40001e-07
1.80084e-06
9.02854e-08
1.87531e-06
3.18035e-08
7.0593e-08
1.42503e-07
1.76248e-07
1.65778e-07
2.70278e-07
1.95598e-07
3.92269e-07
2.37527e-07
5.77702e-07
3.08544e-07
8.52241e-07
4.15422e-07
1.19205e-06
5.32427e-07
1.49663e-06
6.10468e-07
1.67297e-06
6.12747e-07
1.69605e-06
5.45702e-07
1.62317e-06
4.58157e-07
1.55061e-06
3.89859e-07
1.51767e-06
3.44237e-07
1.5179e-06
3.12568e-07
1.54379e-06
2.8395e-07
1.58887e-06
2.56975e-07
1.64767e-06
2.27836e-07
1.71672e-06
1.93029e-07
1.79195e-06
1.48815e-07
1.86969e-06
9.58183e-08
1.94836e-06
3.35463e-08
7.18542e-08
1.21498e-07
1.76878e-07
1.42083e-07
2.6926e-07
1.67026e-07
3.85415e-07
2.02694e-07
5.51868e-07
2.6363e-07
8.01442e-07
3.5957e-07
1.12917e-06
4.78475e-07
1.45391e-06
5.75273e-07
1.676e-06
6.07556e-07
1.74303e-06
5.658e-07
1.68427e-06
4.84663e-07
1.5949e-06
4.13918e-07
1.54054e-06
3.67085e-07
1.52422e-06
3.38002e-07
1.53875e-06
3.17683e-07
1.57664e-06
2.96218e-07
1.63211e-06
2.72555e-07
1.70088e-06
2.43666e-07
1.77901e-06
2.05931e-07
1.86031e-06
1.58117e-07
1.94303e-06
1.01064e-07
2.02523e-06
3.50243e-08
7.28071e-08
1.04433e-07
1.77097e-07
1.21496e-07
2.693e-07
1.42293e-07
3.80736e-07
1.71952e-07
5.31301e-07
2.23508e-07
7.58664e-07
3.06647e-07
1.06776e-06
4.21174e-07
1.40343e-06
5.29105e-07
1.66396e-06
5.87398e-07
1.7776e-06
5.73039e-07
1.74552e-06
5.04605e-07
1.64645e-06
4.33164e-07
1.56965e-06
3.84889e-07
1.53381e-06
3.57571e-07
1.53407e-06
3.42761e-07
1.56266e-06
3.31731e-07
1.61344e-06
3.14946e-07
1.68091e-06
2.92543e-07
1.76086e-06
2.61788e-07
1.84658e-06
2.19596e-07
1.934e-06
1.67049e-07
2.02086e-06
1.05327e-07
2.1055e-06
3.59376e-08
7.31032e-08
9.1629e-08
1.77769e-07
1.03984e-07
2.70837e-07
1.20202e-07
3.77664e-07
1.45608e-07
5.16053e-07
1.87476e-07
7.24968e-07
2.57492e-07
1.01156e-06
3.63073e-07
1.34947e-06
4.75298e-07
1.63973e-06
5.53435e-07
1.79945e-06
5.6562e-07
1.80277e-06
5.15854e-07
1.70508e-06
4.46052e-07
1.60661e-06
3.96269e-07
1.54804e-06
3.70753e-07
1.5309e-06
3.60828e-07
1.54734e-06
3.58158e-07
1.59083e-06
3.54396e-07
1.65588e-06
3.40028e-07
1.73704e-06
3.16377e-07
1.82718e-06
2.81155e-07
1.9203e-06
2.33222e-07
2.01304e-06
1.74764e-07
2.10253e-06
1.08192e-07
2.18787e-06
3.61435e-08
7.28933e-08
8.35242e-08
1.78629e-07
9.10017e-08
2.72342e-07
1.02729e-07
3.74972e-07
1.23145e-07
5.0747e-07
1.54451e-07
6.99708e-07
2.13005e-07
9.62717e-07
3.06581e-07
1.29495e-06
4.17794e-07
1.60672e-06
5.08427e-07
1.80877e-06
5.4419e-07
1.85297e-06
5.15472e-07
1.76903e-06
4.51969e-07
1.65165e-06
4.01088e-07
1.56817e-06
3.76221e-07
1.53073e-06
3.71024e-07
1.53153e-06
3.76731e-07
1.56495e-06
3.84135e-07
1.62502e-06
3.85324e-07
1.70645e-06
3.70654e-07
1.8009e-06
3.42655e-07
1.90104e-06
3.00361e-07
2.00121e-06
2.44965e-07
2.09721e-06
1.7996e-07
2.18732e-06
1.08642e-07
2.27953e-06
3.58629e-08
7.26055e-08
8.03058e-08
1.7897e-07
8.34233e-08
2.73359e-07
9.0233e-08
3.73702e-07
1.04269e-07
5.03478e-07
1.27404e-07
6.80406e-07
1.74036e-07
9.23285e-07
2.52746e-07
1.24318e-06
3.58569e-07
1.56837e-06
4.56305e-07
1.80648e-06
5.10805e-07
1.89466e-06
5.02558e-07
1.83464e-06
4.49913e-07
1.7061e-06
3.97595e-07
1.59636e-06
3.72994e-07
1.53474e-06
3.72326e-07
1.51599e-06
3.86682e-07
1.53633e-06
4.05423e-07
1.58822e-06
4.21008e-07
1.66799e-06
4.23847e-07
1.76641e-06
4.05165e-07
1.8741e-06
3.69581e-07
1.98354e-06
3.17976e-07
2.08867e-06
2.534e-07
2.18591e-06
1.81262e-07
2.2814e-06
1.06655e-07
2.36264e-06
3.50629e-08
7.22464e-08
8.1937e-08
1.79102e-07
8.04024e-08
2.75646e-07
8.13956e-08
3.75231e-07
8.89696e-08
5.02242e-07
1.05775e-07
6.69186e-07
1.38929e-07
8.94199e-07
2.03409e-07
1.19666e-06
2.99513e-07
1.52784e-06
3.9927e-07
1.79554e-06
4.67371e-07
1.92746e-06
4.78078e-07
1.89876e-06
4.38484e-07
1.77005e-06
3.86031e-07
1.63453e-06
3.59519e-07
1.54499e-06
3.62853e-07
1.50332e-06
3.85111e-07
1.50566e-06
4.17466e-07
1.54581e-06
4.47946e-07
1.6208e-06
4.68271e-07
1.72147e-06
4.68847e-07
1.83719e-06
4.42087e-07
1.95801e-06
3.95057e-07
2.07501e-06
3.3155e-07
2.18265e-06
2.56528e-07
2.28462e-06
1.77886e-07
2.36822e-06
1.00956e-07
2.44264e-06
3.32311e-08
7.13593e-08
8.86378e-08
1.79769e-07
8.15054e-08
2.78935e-07
7.73651e-08
3.78018e-07
7.88738e-08
5.03206e-07
8.82798e-08
6.64989e-07
1.10263e-07
8.72283e-07
1.61143e-07
1.15728e-06
2.4309e-07
1.4874e-06
3.4014e-07
1.77859e-06
4.16364e-07
1.95129e-06
4.43625e-07
1.96e-06
4.16911e-07
1.84171e-06
3.66916e-07
1.68432e-06
3.36331e-07
1.56444e-06
3.40165e-07
1.49579e-06
3.70511e-07
1.47479e-06
4.16111e-07
1.49854e-06
4.64849e-07
1.56454e-06
5.04306e-07
1.66482e-06
5.24992e-07
1.78767e-06
5.18416e-07
1.92154e-06
4.78554e-07
2.0536e-06
4.16407e-07
2.17551e-06
3.3856e-07
2.28793e-06
2.53072e-07
2.37845e-06
1.67517e-07
2.45184e-06
9.16086e-08
2.51576e-06
2.98386e-08
7.0401e-08
9.92236e-08
1.80933e-07
8.77056e-08
2.81775e-07
7.89079e-08
3.81878e-07
7.37742e-08
5.06241e-07
7.61152e-08
6.63493e-07
9.00685e-08
8.5733e-07
1.25551e-07
1.12658e-06
1.92095e-07
1.44869e-06
2.82049e-07
1.75785e-06
3.61043e-07
1.96721e-06
4.00553e-07
2.01751e-06
3.86156e-07
1.91838e-06
3.40278e-07
1.74723e-06
3.041e-07
1.59599e-06
3.04878e-07
1.49595e-06
3.40121e-07
1.44696e-06
3.9848e-07
1.44794e-06
4.66845e-07
1.49953e-06
5.29967e-07
1.59527e-06
5.7394e-07
1.72351e-06
5.89216e-07
1.87065e-06
5.69333e-07
2.02101e-06
5.11119e-07
2.16183e-06
4.30025e-07
2.28957e-06
3.36786e-07
2.39156e-06
2.39757e-07
2.46944e-06
1.49766e-07
2.52976e-06
7.74645e-08
2.58025e-06
2.35385e-08
6.94799e-08
1.13767e-07
1.81379e-07
9.90058e-08
2.84378e-07
8.53539e-08
3.8679e-07
7.42686e-08
5.10253e-07
7.00274e-08
6.63713e-07
7.61805e-08
8.51439e-07
9.63014e-08
1.10411e-06
1.48348e-07
1.41388e-06
2.27188e-07
1.73513e-06
3.04971e-07
1.977e-06
3.51371e-07
2.07002e-06
3.48157e-07
1.99834e-06
3.06275e-07
1.82341e-06
2.64147e-07
1.64261e-06
2.57593e-07
1.50772e-06
2.93236e-07
1.42546e-06
3.61756e-07
1.39716e-06
4.49396e-07
1.42679e-06
5.39718e-07
1.51182e-06
6.13533e-07
1.64192e-06
6.55606e-07
1.80157e-06
6.58347e-07
1.97273e-06
6.17626e-07
2.13777e-06
5.35135e-07
2.28664e-06
4.32852e-07
2.40598e-06
3.22205e-07
2.49359e-06
2.15411e-07
2.55567e-06
1.23687e-07
2.59974e-06
5.78174e-08
2.63267e-06
1.43144e-08
6.79779e-08
1.3327e-07
1.8078e-07
1.14582e-07
2.87052e-07
9.65803e-08
3.92053e-07
8.03563e-08
5.1515e-07
6.96501e-08
6.65954e-07
6.80802e-08
8.51747e-07
7.61829e-08
1.08814e-06
1.12592e-07
1.38519e-06
1.77323e-07
1.71254e-06
2.5002e-07
1.98225e-06
2.99892e-07
2.11729e-06
3.04192e-07
2.0808e-06
2.6574e-07
1.9122e-06
2.17554e-07
1.70648e-06
2.0039e-07
1.53517e-06
2.30282e-07
1.41504e-06
3.03804e-07
1.35091e-06
4.08158e-07
1.34962e-06
5.26715e-07
1.41464e-06
6.37024e-07
1.54014e-06
7.15417e-07
1.7102e-06
7.47047e-07
1.90381e-06
7.27304e-07
2.09785e-06
6.57535e-07
2.27509e-06
5.46615e-07
2.41951e-06
4.19191e-07
2.52304e-06
2.92564e-07
2.59221e-06
1.78659e-07
2.63346e-06
8.97787e-08
2.65535e-06
3.50258e-08
2.6705e-06
4.76629e-09
6.62822e-08
1.56218e-07
1.80596e-07
1.33674e-07
2.89653e-07
1.12228e-07
3.97287e-07
9.16052e-08
5.19462e-07
7.63105e-08
6.69363e-07
6.65318e-08
8.54649e-07
6.5488e-08
1.07985e-06
8.48338e-08
1.3639e-06
1.34226e-07
1.69173e-06
1.98407e-07
1.98456e-06
2.47891e-07
2.1596e-06
2.5773e-07
2.16362e-06
2.21417e-07
2.01178e-06
1.66225e-07
1.78934e-06
1.34785e-07
1.58292e-06
1.52776e-07
1.42146e-06
2.24026e-07
1.315e-06
3.39881e-07
1.27302e-06
4.8492e-07
1.30614e-06
6.35366e-07
1.41649e-06
7.60797e-07
1.59128e-06
8.34432e-07
1.80767e-06
8.43246e-07
2.03554e-06
7.89628e-07
2.24905e-06
6.83546e-07
2.42792e-06
5.38113e-07
2.5558e-06
3.86283e-07
2.63827e-06
2.46296e-07
2.68245e-06
1.29441e-07
2.69636e-06
4.85604e-08
2.69516e-06
1.02232e-08
2.68414e-06
-4.62063e-09
6.45931e-08
1.82518e-07
1.79957e-07
1.57055e-07
2.91184e-07
1.32381e-07
4.01491e-07
1.08283e-07
5.23633e-07
8.77069e-08
6.75072e-07
7.08955e-08
8.59937e-07
6.15477e-08
1.07965e-06
6.60533e-08
1.3499e-06
9.9186e-08
1.67373e-06
1.52505e-07
1.98522e-06
1.97964e-07
2.19734e-06
2.10277e-07
2.24604e-06
1.75399e-07
2.12099e-06
1.12236e-07
1.89197e-06
6.36679e-08
1.65428e-06
6.35338e-08
1.4511e-06
1.23315e-07
1.29735e-06
2.41851e-07
1.2048e-06
4.08276e-07
1.19156e-06
5.99666e-07
1.27107e-06
7.80931e-07
1.44011e-06
9.12076e-07
1.67594e-06
9.6624e-07
1.94206e-06
9.36766e-07
2.20125e-06
8.37421e-07
2.42639e-06
6.85016e-07
2.58916e-06
5.04623e-07
2.69382e-06
3.30543e-07
2.74714e-06
1.81382e-07
2.75938e-06
6.61905e-08
2.74319e-06
3.24004e-10
2.71579e-06
-2.156e-08
2.67233e-06
2.97301e-10
-7.44786e-09
6.26837e-08
2.12353e-07
1.78887e-07
1.83794e-07
2.91694e-07
1.56785e-07
4.04719e-07
1.29403e-07
5.29351e-07
1.02826e-07
6.82304e-07
8.07529e-08
8.67331e-07
6.37874e-08
1.08443e-06
5.71092e-08
1.34372e-06
7.26164e-08
1.65941e-06
1.13819e-07
1.9848e-06
1.53173e-07
2.2303e-06
1.65163e-07
2.32574e-06
1.30674e-07
2.23741e-06
5.90301e-08
2.01373e-06
-9.51444e-09
1.75151e-06
-3.35061e-08
1.50969e-06
5.06494e-09
1.30674e-06
1.14119e-07
1.15545e-06
2.91402e-07
1.08025e-06
5.19775e-07
1.10892e-06
7.61991e-07
1.25423e-06
9.66957e-07
1.50104e-06
1.08707e-06
1.8081e-06
1.10026e-06
2.12182e-06
1.01621e-06
2.40564e-06
8.58145e-07
2.61706e-06
6.57037e-07
2.75528e-06
4.43014e-07
2.82693e-06
2.50549e-07
2.84481e-06
9.57029e-08
2.81978e-06
-1.06492e-08
2.78002e-06
-6.41262e-08
2.71454e-06
-2.49007e-08
-3.90108e-08
1.3221e-06
-9.41444e-10
1.32609e-06
-1.14536e-08
6.07288e-08
2.4424e-07
1.78249e-07
2.13181e-07
2.91777e-07
1.83948e-07
4.07989e-07
1.53759e-07
5.36108e-07
1.22907e-07
6.89806e-07
9.55974e-08
8.76254e-07
7.21146e-08
1.09296e-06
5.55752e-08
1.34476e-06
5.64304e-08
1.64877e-06
8.35853e-08
1.98338e-06
1.15513e-07
2.25912e-06
1.24572e-07
2.40115e-06
8.98953e-08
2.35704e-06
1.11126e-08
2.15202e-06
-7.9224e-08
1.87562e-06
-1.33598e-07
1.60092e-06
-1.2468e-07
1.35125e-06
-3.9305e-08
1.13784e-06
1.31931e-07
9.87512e-07
3.84357e-07
9.40503e-07
6.88398e-07
1.03321e-06
9.83178e-07
1.27181e-06
1.19631e-06
1.61744e-06
1.27781e-06
2.00006e-06
1.22205e-06
2.35811e-06
1.06373e-06
2.63364e-06
8.41508e-07
2.81721e-06
5.94998e-07
2.91566e-06
3.54102e-07
2.94726e-06
1.47869e-07
2.92311e-06
-7.88497e-09
2.85805e-06
-3.84944e-08
-5.04264e-08
1.38256e-06
-5.7443e-08
1.39119e-06
-6.612e-08
1.33222e-06
-3.10579e-08
1.34478e-06
-5.16047e-08
1.31063e-06
-2.46553e-09
1.31475e-06
-1.55821e-08
5.84299e-08
2.78222e-07
1.76769e-07
2.45905e-07
2.91452e-07
2.13737e-07
4.10918e-07
1.81247e-07
5.41548e-07
1.48568e-07
6.97156e-07
1.15821e-07
8.86617e-07
8.55183e-08
1.10494e-06
6.0437e-08
1.35195e-06
4.87983e-08
1.64493e-06
6.06284e-08
1.98216e-06
8.51559e-08
2.28339e-06
9.14834e-08
2.4695e-06
5.64248e-08
2.47575e-06
-2.8703e-08
2.30124e-06
-1.38054e-07
2.0228e-06
-2.26348e-07
1.7247e-06
-2.57317e-07
1.43632e-06
-2.09683e-07
1.16491e-06
-6.62172e-08
9.33325e-07
1.8633e-07
7.88342e-07
5.36744e-07
7.90689e-07
9.31126e-07
9.79538e-07
1.2756e-06
1.341e-06
1.47283e-06
1.80199e-06
1.47593e-06
2.26538e-06
1.31478e-06
2.63833e-06
1.059e-06
2.88453e-06
7.74099e-07
3.01493e-06
4.95591e-07
3.05737e-06
2.4379e-07
3.04241e-06
2.83261e-08
2.9669e-06
-5.4371e-08
-6.26361e-08
1.41021e-06
-6.62017e-08
1.43529e-06
-7.55563e-08
1.35727e-06
-6.9984e-08
1.41055e-06
-8.56198e-08
1.37733e-06
-8.6234e-08
1.3222e-06
-3.85357e-08
1.33281e-06
-6.22511e-08
1.29824e-06
-4.30092e-09
1.30285e-06
-2.02028e-08
5.6531e-08
3.13498e-07
1.74675e-07
2.80498e-07
2.9096e-07
2.46598e-07
4.12435e-07
2.12427e-07
5.44365e-07
1.78667e-07
7.04992e-07
1.40994e-07
8.97369e-07
1.05337e-07
1.11844e-06
7.23259e-08
1.36411e-06
4.85928e-08
1.64871e-06
4.54044e-08
1.98253e-06
6.0558e-08
2.30556e-06
6.32454e-08
2.53146e-06
2.97162e-08
2.59e-06
-5.76418e-08
2.45524e-06
-1.82623e-07
2.18812e-06
-3.03313e-07
1.87718e-06
-3.78723e-07
1.56176e-06
-3.8263e-07
1.24524e-06
-2.89868e-07
9.38706e-07
-7.13974e-08
6.86817e-07
2.88097e-07
5.62631e-07
7.65024e-07
6.50478e-07
1.26032e-06
9.79137e-07
1.6375e-06
1.49155e-06
1.78326e-06
2.07152e-06
1.66976e-06
2.59196e-06
1.36111e-06
2.95741e-06
9.86044e-07
3.15088e-06
6.38038e-07
3.21005e-06
3.4275e-07
3.19286e-06
9.31274e-08
3.11559e-06
-5.74871e-08
-6.31359e-08
1.46126e-06
-8.0403e-08
1.49259e-06
-9.40323e-08
1.43592e-06
-1.00998e-07
1.34703e-06
-8.42563e-08
1.39993e-06
-1.0829e-07
1.36657e-06
-1.05827e-07
1.30909e-06
-4.48121e-08
1.31889e-06
-7.2088e-08
1.28465e-06
-6.24824e-09
1.2898e-06
-2.53788e-08
5.51879e-08
3.50174e-07
1.71994e-07
3.16336e-07
2.90251e-07
2.81403e-07
4.12945e-07
2.46326e-07
5.46729e-07
2.10311e-07
7.13763e-07
1.70143e-07
9.07679e-07
1.30943e-07
1.13216e-06
9.18949e-08
1.37924e-06
5.7544e-08
1.65532e-06
4.23476e-08
1.9844e-06
4.38907e-08
2.32605e-06
4.03695e-08
2.58811e-06
6.79588e-09
2.69954e-06
-7.96696e-08
2.61291e-06
-2.15144e-07
2.36902e-06
-3.6345e-07
2.05446e-06
-4.80521e-07
1.72311e-06
-5.39919e-07
1.378e-06
-5.15174e-07
1.01713e-06
-3.68039e-07
6.73435e-07
-5.77088e-08
4.19453e-07
4.31569e-07
3.69203e-07
1.04631e-06
6.07728e-07
1.63134e-06
1.119e-06
2.0096e-06
1.77493e-06
2.07957e-06
2.44198e-06
1.81959e-06
2.97107e-06
1.34736e-06
3.29035e-06
8.46473e-07
3.40695e-06
4.41007e-07
3.39297e-06
1.42462e-07
3.31269e-06
-5.05049e-08
-5.36968e-08
1.5327e-06
-9.76614e-08
1.57597e-06
-1.06475e-07
1.46713e-06
-1.11691e-07
1.5013e-06
-1.28271e-07
1.42799e-06
-1.29133e-07
1.33381e-06
-9.92288e-08
1.39064e-06
-1.32433e-07
1.35453e-06
-1.26618e-07
1.29374e-06
-4.87894e-08
1.30191e-06
-8.03006e-08
1.26743e-06
-7.45108e-09
1.27077e-06
-2.87509e-08
5.36825e-08
3.882e-07
1.69487e-07
3.52838e-07
2.8901e-07
3.17767e-07
4.12553e-07
2.82e-07
5.50362e-07
2.42921e-07
7.21381e-07
2.02935e-07
9.18313e-07
1.59758e-07
1.14665e-06
1.16722e-07
1.39541e-06
7.60407e-08
1.66579e-06
4.74482e-08
1.9867e-06
4.04758e-08
2.34022e-06
3.00681e-08
2.63768e-06
-8.95519e-09
2.80301e-06
-9.65759e-08
2.77e-06
-2.36693e-07
2.56255e-06
-4.08511e-07
2.2546e-06
-5.63513e-07
1.91625e-06
-6.73573e-07
1.55781e-06
-7.1948e-07
1.16836e-06
-6.66015e-07
7.6773e-07
-4.61674e-07
4.25031e-07
-6.25326e-08
2.6183e-07
5.39134e-07
3.7688e-07
1.27574e-06
8.10343e-07
1.9375e-06
1.49382e-06
2.28882e-06
2.24804e-06
2.27263e-06
2.91623e-06
1.87407e-06
3.3932e-06
1.24433e-06
3.61037e-06
6.42911e-07
3.62742e-06
2.06395e-07
3.53759e-06
-3.84598e-08
-4.41828e-08
1.62979e-06
-1.04398e-07
1.68398e-06
-1.07947e-07
1.54379e-06
-1.40226e-07
1.58959e-06
-1.52354e-07
1.46327e-06
-1.47055e-07
1.50273e-06
-1.67817e-07
1.4204e-06
-1.58976e-07
1.3158e-06
-1.13183e-07
1.37821e-06
-1.56181e-07
1.33522e-06
-1.46104e-07
1.27496e-06
-5.30152e-08
1.28147e-06
-8.68671e-08
1.24947e-06
-7.51282e-09
1.25129e-06
-3.06016e-08
5.17804e-08
4.27016e-07
1.67508e-07
3.90327e-07
2.86848e-07
3.55182e-07
4.12503e-07
3.18015e-07
5.54389e-07
2.78221e-07
7.26873e-07
2.37651e-07
9.30132e-07
1.9135e-07
1.16173e-06
1.4494e-07
1.41226e-06
1.00148e-07
1.681e-06
6.12214e-08
1.99186e-06
4.26613e-08
2.35098e-06
3.00965e-08
2.67718e-06
-9.15869e-09
2.89073e-06
-9.64993e-08
2.91935e-06
-2.4592e-07
2.75865e-06
-4.3288e-07
2.47381e-06
-6.27569e-07
2.13572e-06
-7.8288e-07
1.77791e-06
-8.93445e-07
1.38293e-06
-9.33548e-07
9.64646e-07
-8.61739e-07
5.89864e-07
-6.24459e-07
3.70175e-07
-1.69025e-07
3.97285e-07
5.17707e-07
6.95243e-07
1.38509e-06
1.30398e-06
2.11972e-06
2.13571e-06
2.39633e-06
2.90027e-06
2.28664e-06
3.50656e-06
1.76008e-06
3.83018e-06
1.02427e-06
3.89206e-06
3.7811e-07
3.80179e-06
-2.77564e-08
-3.02142e-08
1.74623e-06
-1.00772e-07
1.80599e-06
-1.03996e-07
1.64295e-06
-1.57824e-07
1.69889e-06
-1.63961e-07
1.54906e-06
-1.86632e-07
1.59867e-06
-2.02053e-07
1.45823e-06
-1.84969e-07
1.49938e-06
-2.09048e-07
1.4095e-06
-1.90344e-07
1.29357e-06
-1.25344e-07
1.36064e-06
-1.81677e-07
1.31207e-06
-1.64682e-07
1.25505e-06
-5.68282e-08
1.25828e-06
-9.01595e-08
1.23193e-06
-6.62044e-09
1.23035e-06
-2.90576e-08
4.96819e-08
4.66045e-07
1.64971e-07
4.2968e-07
2.83971e-07
3.93381e-07
4.13282e-07
3.54589e-07
5.57134e-07
3.15464e-07
7.32096e-07
2.73191e-07
9.41861e-07
2.26146e-07
1.17636e-06
1.76966e-07
1.4289e-06
1.28583e-07
1.69942e-06
8.20822e-08
2.00226e-06
5.12181e-08
2.35968e-06
3.42776e-08
2.71043e-06
-2.84111e-09
2.96571e-06
-8.39297e-08
3.0538e-06
-2.30874e-07
2.94492e-06
-4.3225e-07
2.6927e-06
-6.51943e-07
2.37283e-06
-8.64619e-07
2.02756e-06
-1.03229e-06
1.64751e-06
-1.15741e-06
1.24205e-06
-1.20921e-06
8.88373e-07
-1.1566e-06
6.68472e-07
-9.18197e-07
6.40521e-07
-4.10091e-07
8.31267e-07
3.77786e-07
1.28358e-06
1.39356e-06
2.06094e-06
2.17901e-06
2.94086e-06
2.34769e-06
3.67744e-06
2.11288e-06
4.12013e-06
1.46931e-06
4.23363e-06
6.82412e-07
4.12881e-06
1.68554e-08
3.40706e-08
1.87496e-06
-9.67777e-08
1.93836e-06
-9.36626e-08
1.7637e-06
-1.65643e-07
1.83026e-06
-1.70606e-07
1.65571e-06
-2.14934e-07
1.71856e-06
-2.26883e-07
1.54834e-06
-2.35678e-07
1.60433e-06
-2.58129e-07
1.44804e-06
-2.23593e-07
1.49381e-06
-2.54915e-07
1.39338e-06
-2.23164e-07
1.26754e-06
-1.34673e-07
1.33813e-06
-2.07819e-07
1.28437e-06
-1.81592e-07
1.22966e-06
-5.61976e-08
1.23066e-06
-9.12358e-08
1.21659e-06
-4.1623e-09
1.21115e-06
-2.36657e-08
4.68864e-08
5.04752e-07
1.60615e-07
4.70547e-07
2.80294e-07
4.33521e-07
4.132e-07
3.93629e-07
5.58566e-07
3.53347e-07
7.38749e-07
3.0902e-07
9.52736e-07
2.62529e-07
1.19088e-06
2.11866e-07
1.44618e-06
1.5997e-07
1.71952e-06
1.08778e-07
2.0169e-06
6.77713e-08
2.36742e-06
4.38517e-08
2.73849e-06
6.54364e-09
3.03139e-06
-6.82745e-08
3.17565e-06
-2.05655e-07
3.12273e-06
-4.08679e-07
2.90669e-06
-6.46353e-07
2.6113e-06
-8.90607e-07
2.28786e-06
-1.12463e-06
1.94265e-06
-1.32676e-06
1.57291e-06
-1.48604e-06
1.27345e-06
-1.58921e-06
1.10105e-06
-1.58213e-06
1.03008e-06
-1.30206e-06
1.09893e-06
-6.77343e-07
1.41064e-06
2.42046e-07
2.05301e-06
1.38243e-06
2.97221e-06
2.12489e-06
3.83851e-06
2.17658e-06
4.45836e-06
1.77168e-06
4.66933e-06
1.03282e-06
4.56781e-06
1.03087e-07
1.40043e-07
2.0229e-06
-6.77089e-08
2.10707e-06
-5.01104e-08
1.90601e-06
-1.72572e-07
1.98612e-06
-1.73808e-07
1.79152e-06
-2.3867e-07
1.87459e-06
-2.53741e-07
1.67047e-06
-2.81158e-07
1.74997e-06
-3.06486e-07
1.54897e-06
-2.90926e-07
1.6177e-06
-3.26975e-07
1.4348e-06
-2.65106e-07
1.48849e-06
-3.08707e-07
1.37311e-06
-2.58234e-07
1.23673e-06
-1.40835e-07
1.31027e-06
-2.33816e-07
1.25102e-06
-1.95978e-07
1.20461e-06
-4.97236e-08
1.20088e-06
-8.75986e-08
1.2062e-06
1.18898e-09
1.19529e-06
-1.28208e-08
4.3161e-08
5.41599e-07
1.53963e-07
5.1152e-07
2.75331e-07
4.75662e-07
4.12081e-07
4.34827e-07
5.59854e-07
3.92538e-07
7.45409e-07
3.46889e-07
9.61165e-07
3.00792e-07
1.20582e-06
2.47796e-07
1.465e-06
1.93296e-07
1.74008e-06
1.39677e-07
2.03563e-06
9.04145e-08
2.3762e-06
5.94036e-08
2.76107e-06
2.16079e-08
3.08708e-06
-4.88886e-08
3.28401e-06
-1.76481e-07
3.29122e-06
-3.74108e-07
3.11893e-06
-6.21007e-07
2.84925e-06
-8.84458e-07
2.54982e-06
-1.15256e-06
2.23628e-06
-1.41765e-06
1.91983e-06
-1.67121e-06
1.69922e-06
-1.90544e-06
1.60147e-06
-2.08091e-06
1.49586e-06
-2.04007e-06
1.3847e-06
-1.5828e-06
1.51391e-06
-7.82336e-07
2.04814e-06
2.32929e-07
2.96061e-06
1.36712e-06
3.96414e-06
1.97064e-06
4.75201e-06
1.87356e-06
5.14403e-06
1.2944e-06
5.11096e-06
2.11961e-07
2.77044e-07
2.22256e-06
-1.24149e-08
2.34603e-06
1.65804e-08
2.08591e-06
-1.67516e-07
2.19653e-06
-1.60685e-07
1.97748e-06
-2.75533e-07
2.10757e-06
-3.03973e-07
1.85645e-06
-3.45273e-07
2.00721e-06
-4.0468e-07
1.71359e-06
-3.77204e-07
1.86432e-06
-4.57454e-07
1.56112e-06
-3.63715e-07
1.68367e-06
-4.49769e-07
1.42053e-06
-3.12658e-07
1.49904e-06
-3.87426e-07
1.34953e-06
-2.97641e-07
1.20075e-06
-1.40818e-07
1.28018e-06
-2.63146e-07
1.21627e-06
-2.11687e-07
1.18134e-06
-3.58721e-08
1.16785e-06
-7.42278e-08
1.20422e-06
1.05034e-08
1.18421e-06
7.10463e-09
3.84687e-08
5.73977e-07
1.45137e-07
5.50529e-07
2.68738e-07
5.18256e-07
4.09672e-07
4.78237e-07
5.60232e-07
4.3463e-07
7.49569e-07
3.8857e-07
9.68506e-07
3.39759e-07
1.2222e-06
2.84596e-07
1.48463e-06
2.28376e-07
1.76139e-06
1.72247e-07
2.05776e-06
1.17848e-07
2.38779e-06
7.92725e-08
2.77981e-06
4.09949e-08
3.13422e-06
-2.52582e-08
3.37816e-06
-1.42839e-07
3.44594e-06
-3.3114e-07
3.32474e-06
-5.79967e-07
3.08505e-06
-8.56946e-07
2.80937e-06
-1.14406e-06
2.52545e-06
-1.44131e-06
2.25478e-06
-1.75018e-06
2.10439e-06
-2.06961e-06
2.11853e-06
-2.41211e-06
2.01628e-06
-2.59394e-06
1.66986e-06
-2.31767e-06
1.54601e-06
-1.60985e-06
1.94147e-06
-6.78441e-07
2.8465e-06
3.27156e-07
3.99792e-06
1.29958e-06
4.9899e-06
1.70543e-06
5.58508e-06
1.42506e-06
5.69728e-06
3.00577e-07
4.05719e-07
2.4933e-06
6.46918e-08
2.66056e-06
1.09717e-07
2.33251e-06
-1.48256e-07
2.48725e-06
-1.37806e-07
2.27144e-06
-3.31365e-07
2.4621e-06
-3.51112e-07
2.21164e-06
-4.80195e-07
2.46122e-06
-5.5367e-07
2.09108e-06
-5.72469e-07
2.3851e-06
-6.9916e-07
1.89589e-06
-5.89836e-07
2.20431e-06
-7.66595e-07
1.65489e-06
-5.1997e-07
1.93159e-06
-7.27154e-07
1.43026e-06
-3.93682e-07
1.61672e-06
-5.74539e-07
1.3565e-06
-3.74347e-07
1.16482e-06
-1.37976e-07
1.27926e-06
-3.26614e-07
1.20478e-06
-2.52176e-07
1.15645e-06
-8.24147e-09
1.13373e-06
-5.17012e-08
1.21396e-06
2.16209e-08
1.18056e-06
4.03932e-08
3.19573e-08
5.99528e-07
1.32595e-07
5.86608e-07
2.59596e-07
5.59792e-07
4.05706e-07
5.22363e-07
5.60631e-07
4.78016e-07
7.53173e-07
4.3123e-07
9.78936e-07
3.78389e-07
1.23955e-06
3.22583e-07
1.50484e-06
2.64615e-07
1.78418e-06
2.05821e-07
2.08195e-06
1.48327e-07
2.40386e-06
1.02123e-07
2.79591e-06
6.34707e-08
3.17354e-06
1.98261e-09
3.4579e-06
-1.04783e-07
3.58397e-06
-2.80778e-07
3.51839e-06
-5.2483e-07
3.3139e-06
-8.08947e-07
3.06172e-06
-1.10943e-06
2.80685e-06
-1.42517e-06
2.57464e-06
-1.75912e-06
2.4745e-06
-2.11323e-06
2.5906e-06
-2.53109e-06
2.55135e-06
-2.9415e-06
2.02915e-06
-2.94468e-06
1.5719e-06
-2.33235e-06
1.75825e-06
-1.42178e-06
2.61377e-06
-4.52437e-07
3.88098e-06
4.16932e-07
5.11166e-06
1.14374e-06
5.95412e-06
1.31426e-06
6.27403e-06
8.43668e-07
2.80875e-06
1.52164e-07
3.02765e-06
1.86435e-07
2.66233e-06
-1.09869e-07
2.87342e-06
-1.00752e-07
2.67841e-06
-3.64059e-07
2.90803e-06
-3.66582e-07
2.73653e-06
-6.0656e-07
3.01951e-06
-6.3368e-07
2.71516e-06
-8.10596e-07
3.05456e-06
-8.93145e-07
2.57102e-06
-9.39831e-07
2.9537e-06
-1.0823e-06
2.30377e-06
-9.62989e-07
2.71302e-06
-1.17664e-06
1.94394e-06
-8.48284e-07
2.35279e-06
-1.13746e-06
1.55801e-06
-5.96139e-07
1.91102e-06
-9.29439e-07
1.47425e-06
-5.70634e-07
1.14709e-06
-1.51849e-07
1.37043e-06
-4.93861e-07
1.26059e-06
-3.6741e-07
1.13659e-06
3.55549e-08
1.11351e-06
-2.90741e-08
1.24439e-06
3.82861e-08
1.18509e-06
9.95372e-08
2.18318e-08
6.14372e-07
1.14692e-07
6.1751e-07
2.46967e-07
5.9935e-07
3.99749e-07
5.65881e-07
5.61809e-07
5.2135e-07
7.58772e-07
4.72589e-07
9.92375e-07
4.17957e-07
1.25672e-06
3.61351e-07
1.52609e-06
3.01533e-07
1.80891e-06
2.40096e-07
2.10802e-06
1.79989e-07
2.42469e-06
1.27839e-07
2.81049e-06
8.78671e-08
3.20628e-06
3.10254e-08
3.52519e-06
-6.50653e-08
3.70501e-06
-2.25693e-07
3.69736e-06
-4.59766e-07
3.53299e-06
-7.44051e-07
3.30386e-06
-1.05129e-06
3.07431e-06
-1.3767e-06
2.87361e-06
-1.72261e-06
2.80795e-06
-2.08618e-06
3.00283e-06
-2.51408e-06
3.07166e-06
-3.04805e-06
2.46123e-06
-3.36944e-06
1.65128e-06
-3.01205e-06
1.59857e-06
-2.15469e-06
2.29945e-06
-1.10285e-06
3.67119e-06
-2.58717e-07
5.06908e-06
4.26512e-07
6.17786e-06
8.88819e-07
6.8007e-06
7.7589e-07
-3.31595e-06
7.19146e-06
4.7204e-09
-1.0591e-08
3.08509e-06
-5.89096e-08
-4.3876e-08
3.15583e-06
-3.56538e-07
3.40765e-06
-3.51219e-07
3.29919e-06
-6.42994e-07
3.57111e-06
-6.37401e-07
3.38252e-06
-9.34283e-07
3.69041e-06
-9.40984e-07
3.32647e-06
-1.18349e-06
3.68195e-06
-1.24831e-06
3.11987e-06
-1.34694e-06
3.5098e-06
-1.47212e-06
2.77606e-06
-1.38699e-06
3.19181e-06
-1.59246e-06
2.33116e-06
-1.27015e-06
2.75122e-06
-1.55866e-06
1.82561e-06
-9.50128e-07
2.23686e-06
-1.34305e-06
1.69965e-06
-9.03495e-07
1.16642e-06
-2.06431e-07
1.54621e-06
-7.83439e-07
1.38717e-06
-5.92629e-07
1.12482e-06
9.54735e-08
1.11479e-06
-2.04011e-08
1.29875e-06
7.32023e-08
1.20228e-06
1.95777e-07
5.86233e-09
6.09222e-07
8.97127e-08
6.3942e-07
2.28819e-07
6.35754e-07
3.90732e-07
6.0848e-07
5.6287e-07
5.64954e-07
7.66233e-07
5.14025e-07
1.00673e-06
4.58396e-07
1.27512e-06
3.99694e-07
1.54943e-06
3.38184e-07
1.83577e-06
2.74859e-07
2.13602e-06
2.12317e-07
2.44968e-06
1.55301e-07
2.82594e-06
1.12709e-07
3.23387e-06
6.05859e-08
3.58168e-06
-2.52134e-08
3.80932e-06
-1.69218e-07
3.85962e-06
-3.87934e-07
3.7396e-06
-6.66498e-07
3.53447e-06
-9.74869e-07
3.32553e-06
-1.30242e-06
3.14884e-06
-1.65089e-06
3.10095e-06
-2.01035e-06
3.34517e-06
-2.41647e-06
3.55913e-06
-2.99884e-06
2.97716e-06
-3.56398e-06
1.85702e-06
-3.56758e-06
1.52185e-06
-2.91506e-06
1.97678e-06