/*--------------------------------*- C++ -*----------------------------------*\
  =========                 |
  \\      /  F ield         | OpenFOAM: The Open Source CFD Toolbox
   \\    /   O peration     | Website:  https://openfoam.org
    \\  /    A nd           | Version:  dev
     \\/     M anipulation  |
\*---------------------------------------------------------------------------*/
FoamFile
{
    version     2.0;
    format      ascii;
    class       volScalarField;
    location    "2500";
    object      qr;
}
// * * * * * * * * * * * * * * * * * * * * * * * * * * * * * * * * * * * * * //

dimensions      [1 0 -3 0 0 0 0];

internalField   uniform 0;

boundaryField
{
    lowerOutlet
    {
        type            calculated;
        value           nonuniform List<scalar> 
146
(
1047.38
1050.87
1054.72
1058.94
1063.54
1068.53
1073.9
1079.68
1085.88
1092.52
1099.61
1107.17
1115.23
1123.82
1132.96
1142.7
1153.06
1164.1
1175.87
1188.43
1201.83
1216.17
1231.53
1248.02
1265.79
1285.02
1305.85
1328.52
1353.31
1380.54
1410.62
1444.1
1481.65
1513.97
1560.91
1614.85
1677.51
1751.18
1839.06
1945.19
2074.72
2237.34
2397.75
3050.08
3871.59
4685.37
5432.57
6703.62
-8245.22
3467.35
2920.43
2561.67
2307.73
2099.43
1959.42
1849.26
1760.18
1686.26
1623.92
1570.65
1524.5
1483.99
1448.1
1407.9
1379.72
1354.14
1330.78
1309.32
1289.53
1271.22
1254.23
1238.4
1223.64
1209.85
1196.91
1184.75
1173.3
1162.52
1152.34
1142.73
1133.66
1125.09
1116.98
1109.33
1102.1
1095.27
1088.83
1082.77
1077.06
1071.7
1066.68
1061.99
1057.62
1053.57
1049.83
1046.4
1889.54
2006.63
2150.72
2300.36
2856.01
3544.11
4248.05
5263.94
5910.07
6101.01
3658.99
3034.46
2639.47
2363.64
2162.89
2024.97
1901.23
1802.51
1721.59
1653.82
1712.79
1793.12
2976.76
4007.83
4892.66
5600.04
7341.36
4143.59
3303.9
2817.58
2490.22
2255.96
1596.28
1546.79
3467.29
4168.06
5085.59
5660.26
7586.42
3886.01
3161.25
2724.46
2424.32
2207.77
1536.66
1586.9
1644.96
1503.61
1465.53
1431.6
)
;
    }
    top
    {
        type            calculated;
        value           nonuniform List<scalar> 
100
(
958.536
961.346
964.192
962.961
963.561
964.509
966.182
968.492
970.581
972.565
974.48
976.217
978.003
980.064
982.072
983.847
985.592
987.366
989.206
991.05
992.419
991.35
985.134
977.28
976.083
979.98
990.748
1002.99
1009.09
1011.97
1012.31
1011.42
1010.34
1009.38
1009.6
1010.99
1013.14
1017.53
1023.16
1029.17
1034.28
1037.41
1039.4
1040.86
1042.08
1043.15
1044.09
1044.92
1045.64
1046.25
1046.75
1047.14
1047.45
1047.63
1047.7
1047.66
1047.53
1047.32
1047
1046.62
1046.04
1045.46
1044.69
1043.86
1042.91
1041.93
1040.73
1039.42
1037.98
1036.44
1034.73
1033.01
1031.08
1029.03
1026.88
1024.64
1022.36
1020.23
1018.25
1017.48
1028.12
1025.47
1022.78
1020.06
1017.3
1014.52
1011.71
1008.87
1006.02
1003.15
1000.27
997.376
994.477
991.572
988.664
982.723
979.041
975.882
973.509
972.252
)
;
    }
    sides
    {
        type            calculated;
        value           nonuniform List<scalar> 
100
(
1047.38
1050.17
1052.6
1054.68
1056.42
1057.82
1058.88
1059.61
1060.03
1060.15
1059.97
1059.51
1058.78
1057.8
1056.58
1055.14
1053.5
1051.66
1049.65
1047.48
1045.16
1042.71
1040.14
1037.47
1034.71
1031.86
1028.95
1025.99
1022.97
1019.91
1016.82
1013.71
1010.57
1007.42
1004.27
1001.11
997.959
994.814
991.68
988.56
985.455
982.369
979.304
976.26
973.24
970.243
967.272
964.326
961.404
958.548
1046.41
1049.24
1051.79
1054.03
1055.98
1057.65
1059.03
1060.13
1060.96
1061.52
1061.83
1061.89
1061.71
1061.3
1060.67
1059.84
1058.81
1057.59
1056.2
1054.64
1052.94
1051.09
1049.1
1047
1044.78
1042.47
1040.05
1037.56
1034.99
1032.35
1029.65
1026.9
1024.1
1021.26
1018.38
1015.48
1012.55
1009.61
1006.65
1003.69
1000.72
997.742
994.767
991.795
988.827
985.866
982.912
979.968
977.034
974.151
)
;
    }
    front
    {
        type            empty;
    }
    back
    {
        type            empty;
    }
    roller
    {
        type            calculated;
        value           nonuniform List<scalar> 
144
(
5961.77
2674.58
2084.68
1664.55
1360.63
1280.23
1236.23
1194.1
1205.35
9424.12
6781.84
2880.09
4170.5
3363.84
2169.83
1701.93
1425.76
1290.16
1244.99
1278.6
1249.5
6508.04
6014.43
5299.41
3866.22
2466.33
2011.62
2646.62
2524.86
1639.46
1395.56
1328.98
1228.71
1193.04
1198.12
8892.9
7421.58
5591.96
6880.99
4853.88
4297.49
3857
3068.23
2767.36
2442.71
1819.86
1772.55
1741.2
1448.16
1361.26
1343.99
1336.51
1202.45
1209.3
1213.54
8009.01
7404.4
4452.2
3210.36
2340.67
2236.21
1555.27
1474.85
1412.65
1405.07
1381.1
1191.19
1191.99
1195.92
9911.13
10509.8
10466.5
8809.73
9519.72
2078.21
1989.7
1577.51
1925.16
1746.91
1493.52
1693.66
1560.02
1426.47
1524.16
1482.12
1370.87
1347.65
1286.93
1242.73
1195.68
1198.54
1202.73
1191.97
1191.39
1191.55
1194.54
8464.93
8035.66
4747.3
2165.52
1533.9
1457.49
1306.43
1316.03
1268.19
1207.07
1228.85
1236.58
1223.24
1191.16
1192.61
10209.5
10416.5
10279.6
9959.18
5191.8
3483.28
3105.35
3592.49
2303.3
2895.85
1928.25
1871.61
1608
1863.26
1803.84
1513.34
1644.72
1600.1
1441.36
1381.17
1325.78
1315.48
1300.44
1295.11
1256.58
1268.45
1258.82
1219.27
1212.67
1200.59
1218.19
1191.28
1193.45
)
;
    }
    burner
    {
        type            calculated;
        value           nonuniform List<scalar> 
16
(
-123497
-117377
-114816
-116386
-118543
-115137
-115454
-123539
-121666
-116424
-114736
-117857
-119962
-115676
-114931
-120089
)
;
    }
}


// ************************************************************************* //
