/*--------------------------------*- C++ -*----------------------------------*\
  =========                 |
  \\      /  F ield         | OpenFOAM: The Open Source CFD Toolbox
   \\    /   O peration     | Website:  https://openfoam.org
    \\  /    A nd           | Version:  dev
     \\/     M anipulation  |
\*---------------------------------------------------------------------------*/
FoamFile
{
    version     2.0;
    format      ascii;
    class       volScalarField;
    location    "2500";
    object      rAU;
}
// * * * * * * * * * * * * * * * * * * * * * * * * * * * * * * * * * * * * * //

dimensions      [-1 3 1 0 0 0 0];

internalField   nonuniform List<scalar> 
9834
(
0.00822614
0.00829367
0.00824323
0.00828465
0.00840525
0.00818532
0.0082675
0.00839864
0.00841052
0.0081399
0.00825338
0.00839745
0.0083974
0.00842187
0.00809981
0.00824667
0.00839686
0.0083892
0.00840748
0.00842966
0.00806468
0.00824549
0.00840191
0.00838705
0.00839401
0.0084208
0.00843321
0.00803359
0.00824677
0.00840868
0.00838918
0.00838532
0.00840736
0.00842995
0.00843461
0.00800628
0.00825118
0.00841608
0.00839536
0.00838014
0.00839388
0.00842123
0.00843437
0.00843519
0.00798165
0.00826
0.00842239
0.00840483
0.00837918
0.0083837
0.0084093
0.00843066
0.0084361
0.00843566
0.00795904
0.00827191
0.00842728
0.00841426
0.00838198
0.00837751
0.00839633
0.00842273
0.00843536
0.00843689
0.00843625
0.00793784
0.00828145
0.00843417
0.00842197
0.0083882
0.00836049
0.00838506
0.00841199
0.00843127
0.00843733
0.00843741
0.0084364
0.00791768
0.00829094
0.00843655
0.00842777
0.0083976
0.00835982
0.0083768
0.00840032
0.00842439
0.00843604
0.00843829
0.00843809
0.00843654
0.00789829
0.00830133
0.00843759
0.00843199
0.00840759
0.00837505
0.00829755
0.00838878
0.00841566
0.00843216
0.00843841
0.00843889
0.00843861
0.00843642
0.0078791
0.00831188
0.00843815
0.00843459
0.00841608
0.00838078
0.00827172
0.00837905
0.00840541
0.00842644
0.00843667
0.00843953
0.0084395
0.00843887
0.00843638
0.00785992
0.0083228
0.00843834
0.00843628
0.00842327
0.00838985
0.00834414
0.00825027
0.00839418
0.00841966
0.00843328
0.00843924
0.00844012
0.00843999
0.00843893
0.00843627
0.00784048
0.00832956
0.00843874
0.00843753
0.00842851
0.0084001
0.00836844
0.00814398
0.00838299
0.00841067
0.00842909
0.00843739
0.00844056
0.00844076
0.0084404
0.00843899
0.00843609
0.00782022
0.00833524
0.00843896
0.00843847
0.00843203
0.00840943
0.00837365
0.00822556
0.00837338
0.0083999
0.00842345
0.00843482
0.00844004
0.00844137
0.00844132
0.00844066
0.00843895
0.00843586
0.00779913
0.00834105
0.00843913
0.00843883
0.008434
0.00841691
0.00838248
0.00832713
0.00823289
0.00838865
0.00841541
0.00843162
0.00843854
0.00844158
0.00844192
0.00844171
0.00844077
0.00843881
0.00843573
0.00777704
0.00834632
0.00843907
0.00843927
0.00843563
0.00842302
0.00839242
0.0083622
0.00819057
0.00837816
0.00840555
0.00842647
0.00843659
0.00844107
0.00844246
0.00844241
0.00844209
0.00844071
0.00843864
0.00843546
0.00775375
0.0083508
0.00843905
0.00843913
0.0084367
0.00842716
0.00840194
0.00836667
0.00831846
0.00832836
0.0083949
0.00841943
0.00843331
0.00843991
0.00844278
0.008443
0.00844284
0.00844222
0.00844052
0.00843844
0.00843518
0.0077293
0.00835473
0.00843909
0.00843922
0.00843745
0.00842967
0.00841
0.00837457
0.00835531
0.00829487
0.00838339
0.00841092
0.00842891
0.00843762
0.00844234
0.00844386
0.00844339
0.00844313
0.00844217
0.0084404
0.00843827
0.00843488
0.00770378
0.00835809
0.00843902
0.00843919
0.00843769
0.00843147
0.00841624
0.00838384
0.00835639
0.00833006
0.00837421
0.00840029
0.00842304
0.0084347
0.00844057
0.0084441
0.0084445
0.00844377
0.00844329
0.0084421
0.00844013
0.00843802
0.00843459
0.00767732
0.00836048
0.00843882
0.00843923
0.00843805
0.00843256
0.00842057
0.00839331
0.00835959
0.00835261
0.00836522
0.00838828
0.00841568
0.008431
0.00843835
0.00841133
0.0084453
0.00844495
0.00844401
0.00844328
0.00844185
0.00843977
0.00843774
0.00843434
0.00765038
0.00836189
0.00843868
0.00843918
0.00843828
0.00843367
0.00842388
0.00840175
0.00836616
0.00834999
0.00835763
0.00836355
0.00840427
0.00842619
0.00843578
0.00842879
0.00840956
0.00844599
0.00844517
0.00844401
0.0084431
0.00844147
0.00843945
0.00843736
0.00843412
0.00762366
0.00835588
0.00843849
0.00843905
0.00843826
0.00843449
0.00842619
0.00840853
0.00837507
0.00835022
0.00835202
0.00835402
0.00838017
0.00841969
0.00843253
0.00832171
0.00842002
0.00844206
0.0084464
0.0084452
0.00844378
0.00844276
0.008441
0.00843905
0.00843718
0.00843424
0.00759696
0.00835319
0.00842243
0.0084389
0.00843825
0.00843515
0.00842761
0.00841347
0.00838424
0.00835249
0.00834791
0.00836176
0.00836966
0.00841189
0.00842826
0.00829942
0.00844091
0.00843335
0.00844619
0.00844652
0.00844504
0.0084434
0.00844217
0.0084405
0.00843864
0.00843717
0.00843421
0.00757001
0.008358
0.00840978
0.00842337
0.00843834
0.00843552
0.00842891
0.00841747
0.00839311
0.00835739
0.00834444
0.00835374
0.00836627
0.00840212
0.0084227
0.00841285
0.00843372
0.00844232
0.00844467
0.00844638
0.00844636
0.00844452
0.00844262
0.00844137
0.00843989
0.00843853
0.00843728
0.00843413
0.00754395
0.00835778
0.00842547
0.00841792
0.00843275
0.00843593
0.00843007
0.00841987
0.0084004
0.0083655
0.00834326
0.00834736
0.00835076
0.00838236
0.00841556
0.00842925
0.00843105
0.00844039
0.00844304
0.0084449
0.00844619
0.00844591
0.00844378
0.00844162
0.00844039
0.00843943
0.00843832
0.00843767
0.00843399
0.00751963
0.0083547
0.00843792
0.00843332
0.00842957
0.00843628
0.00843076
0.00842185
0.008406
0.00837419
0.0083446
0.00834237
0.00835283
0.00836655
0.00840706
0.008424
0.00843286
0.0084379
0.00844106
0.00844308
0.00844453
0.00844551
0.00844505
0.00844271
0.00844043
0.00843959
0.00843886
0.00843809
0.00843819
0.00843376
0.00748635
0.00835061
0.00843777
0.00843869
0.00843523
0.00842539
0.0084297
0.00842334
0.0084103
0.00838271
0.00834745
0.00833808
0.00834942
0.00836559
0.00839782
0.0084174
0.00842859
0.00843458
0.00843838
0.00844078
0.00844234
0.00844341
0.00844415
0.00844364
0.00844127
0.00843935
0.00843883
0.0084384
0.00843811
0.00843881
0.00841821
0.00733641
0.00834537
0.00843762
0.00843872
0.00843857
0.00842568
0.00839298
0.00842476
0.00841346
0.00839058
0.00835346
0.008335
0.00834186
0.00835814
0.00838588
0.00840976
0.00842326
0.00843045
0.00843472
0.00843758
0.00843942
0.00844049
0.00844119
0.00844192
0.00844156
0.00843948
0.00843798
0.00843804
0.00843825
0.00843849
0.00843925
0.0082454
0.00735402
0.00833953
0.00843778
0.00843873
0.00843859
0.0084371
0.00839529
0.00839192
0.00841584
0.00839703
0.00836213
0.00833476
0.00833583
0.00835077
0.00837305
0.00840091
0.00841707
0.00842537
0.00843008
0.00843312
0.00843509
0.00843635
0.00843703
0.00843814
0.00844033
0.0084414
0.0084399
0.00843828
0.00843798
0.00843821
0.00843896
0.00843095
0.00826155
0.00745534
0.00833299
0.00843764
0.0084388
0.00843874
0.00843729
0.00843324
0.00839269
0.00835671
0.00840216
0.00837055
0.00833684
0.00833074
0.00834445
0.00836539
0.00839171
0.00840997
0.0084196
0.00842442
0.00842724
0.00842886
0.00842986
0.00843161
0.00843479
0.00844004
0.00844546
0.00844787
0.00844578
0.00844243
0.00844003
0.00843972
0.0084393
0.00841816
0.00840141
0.00646105
0.00815603
0.00832608
0.00843775
0.00843897
0.00843896
0.00843764
0.0084338
0.00842733
0.00834211
0.00840595
0.00837844
0.00834
0.00832629
0.00833649
0.00835817
0.00838269
0.00840262
0.00841353
0.00841816
0.00842001
0.00842045
0.00842039
0.00842307
0.00843238
0.00844305
0.00845068
0.00845593
0.00845738
0.00845386
0.00844948
0.00844703
0.00844202
0.00842877
0.00849826
0.00818286
0.00817645
0.00644892
0.00813058
0.00831827
0.00843772
0.00843899
0.00843925
0.00843801
0.0084344
0.00842812
0.00840391
0.00834318
0.00838582
0.00834612
0.00832297
0.00832887
0.0083488
0.00837307
0.00839503
0.0084075
0.00841203
0.00841211
0.00841018
0.00840774
0.00840745
0.00842307
0.00844089
0.00845379
0.00846134
0.00846558
0.00846596
0.00846184
0.00845814
0.00845471
0.00843795
0.00836342
0.00818104
0.0081712
0.00834535
0.00818121
0.00815479
0.00814924
0.00645704
0.00812959
0.0083041
0.0084376
0.00843901
0.00843928
0.00843831
0.00843482
0.00842891
0.00842109
0.00833998
0.00824987
0.00835498
0.0083224
0.00832124
0.00833899
0.00836314
0.00838626
0.00840091
0.00840604
0.00840445
0.00839906
0.00839318
0.00839006
0.00839674
0.00841669
0.00843916
0.00845843
0.0084689
0.0084731
0.00847337
0.00847
0.00846714
0.008456
0.00821016
0.00824437
0.00818178
0.00815223
0.00819072
0.00817603
0.0081547
0.00815569
0.00646828
0.00812861
0.00828958
0.0084376
0.00843914
0.00843932
0.00843838
0.00843519
0.00842948
0.00842199
0.00840756
0.00815363
0.00836393
0.00832486
0.00831493
0.00832888
0.0083528
0.00837684
0.00839352
0.00839929
0.0083968
0.00838797
0.00837629
0.00837194
0.00837428
0.00838464
0.00839866
0.00842966
0.00845649
0.00847298
0.0084781
0.00847899
0.00847668
0.00846689
0.00828104
0.00829845
0.00822281
0.00825474
0.00822254
0.00817288
0.00821308
0.00820611
0.00816095
0.00817728
0.00648185
0.00813281
0.00827484
0.00843739
0.00843923
0.00843947
0.0084386
0.00843568
0.00842992
0.00842269
0.00841456
0.00828085
0.00820173
0.00832904
0.00831075
0.00832055
0.00834269
0.00836761
0.00838616
0.00839275
0.00838921
0.00837697
0.00835714
0.00833821
0.00830612
0.00829594
0.00835099
0.00839118
0.00841284
0.00845524
0.008475
0.00848088
0.00848255
0.00847243
0.00831274
0.00831605
0.00828127
0.00829465
0.00825717
0.00828153
0.00824346
0.00820452
0.00824021
0.00823493
0.00818076
0.008208
0.0065011
0.00814624
0.00825987
0.00843743
0.00843935
0.00843946
0.00843869
0.00843606
0.0084306
0.00842359
0.0084156
0.00838853
0.00813321
0.00833578
0.00830792
0.00831304
0.00833401
0.00835884
0.00837975
0.00838726
0.0083832
0.00836771
0.00834555
0.00832085
0.00830317
0.00823481
0.00823387
0.00824708
0.00820632
0.00840846
0.00845568
0.00847718
0.0084833
0.00847758
0.00831854
0.00831775
0.00830567
0.00830771
0.00829856
0.00830544
0.00827291
0.00829538
0.00826686
0.00823391
0.00826474
0.00825894
0.0082051
0.00823399
0.00651986
0.00815414
0.00824473
0.00843728
0.00843926
0.00843974
0.00843923
0.00843651
0.00843124
0.00842447
0.00841669
0.00840676
0.00830721
0.00834469
0.00830719
0.00830466
0.0083244
0.00835048
0.00837346
0.00838348
0.00837962
0.00836212
0.00833465
0.00830418
0.00828153
0.0082787
0.00825695
0.00819348
0.00800995
0.00813685
0.00841009
0.00845885
0.00847973
0.00848062
0.00831647
0.00830744
0.00830706
0.00829098
0.00830903
0.00829499
0.0083083
0.00830384
0.00828786
0.00830229
0.0082862
0.00825785
0.00828347
0.00827818
0.00822204
0.00825364
0.00653252
0.00815041
0.00823024
0.00843741
0.00843924
0.00843977
0.00843926
0.00843686
0.00843184
0.00842536
0.00841783
0.00840886
0.00839098
0.00835347
0.008309
0.0082969
0.00831327
0.00834061
0.0083661
0.00837986
0.00837821
0.00836051
0.00832977
0.00829218
0.0082601
0.00826354
0.00829018
0.00831406
0.00816759
0.00791188
0.00823629
0.00841329
0.00846174
0.00847793
0.00830286
0.00827659
0.00827265
0.00823568
0.00827367
0.00822936
0.00827862
0.00823542
0.00829203
0.00825906
0.00829256
0.00827579
0.00828891
0.00827743
0.00828448
0.00828117
0.00823295
0.00827129
0.0065413
0.00803853
0.00821637
0.00843722
0.00843912
0.00843961
0.0084394
0.00843715
0.00843233
0.0084262
0.00841903
0.00841061
0.00839551
0.00836217
0.00831313
0.00829161
0.00830282
0.00832959
0.00835759
0.00837541
0.00837697
0.0083612
0.00832965
0.00828821
0.00824886
0.0081809
0.00829962
0.00833962
0.00835699
0.00815407
0.0080258
0.00838265
0.00841709
0.0084628
0.00825768
0.00821364
0.00820279
0.00816756
0.00820473
0.0081651
0.00820596
0.00815807
0.00821248
0.00816608
0.0082312
0.00819274
0.00826328
0.00822126
0.00825947
0.0082851
0.00825751
0.00826199
0.00813647
0.00828463
0.00653846
0.00793697
0.00820439
0.0084373
0.00843909
0.00843958
0.00843924
0.00843718
0.0084326
0.00842688
0.00842018
0.00841203
0.00839932
0.0083705
0.00832117
0.00828926
0.00829404
0.00831884
0.00834852
0.00837081
0.00837563
0.0083631
0.00833196
0.00828847
0.00824628
0.00820954
0.00802892
0.00836136
0.00838893
0.00839288
0.00818378
0.00823965
0.00838623
0.00843516
0.00817797
0.00807704
0.00813406
0.00807762
0.00809775
0.00801382
0.00808347
0.00797615
0.00809205
0.00797129
0.00812157
0.00800482
0.00816222
0.00806608
0.0082149
0.00813545
0.0081863
0.00822302
0.00815414
0.00813725
0.00804184
0.00825987
0.00651466
0.00795881
0.00819535
0.00843737
0.0084392
0.00843959
0.00843896
0.00843687
0.00843253
0.00842738
0.0084211
0.0084132
0.00840232
0.00837775
0.00833155
0.00829003
0.00828632
0.00830849
0.00833929
0.00836566
0.00837483
0.00836606
0.00833756
0.008292
0.00822451
0.00824655
0.00805941
0.00817154
0.00840859
0.00842187
0.00840629
0.00826023
0.00835603
0.0083846
0.00805687
0.00784144
0.00802466
0.00796341
0.00791963
0.00781856
0.0078471
0.00771315
0.007824
0.00767279
0.00784719
0.00768513
0.00791555
0.00773939
0.00801601
0.00784696
0.00807592
0.00796561
0.00802401
0.00810327
0.00798429
0.00795679
0.00799852
0.00806294
0.00661747
0.00819076
0.00818905
0.00843741
0.00843932
0.00843971
0.00843902
0.00843666
0.00843261
0.00842773
0.00842177
0.00841421
0.00840444
0.00838382
0.00834172
0.00829291
0.00827973
0.00829799
0.00832972
0.00835945
0.0083742
0.00836976
0.00834546
0.00830182
0.00820462
0.00821255
0.00817514
0.00791709
0.00841306
0.00843498
0.00842754
0.00840117
0.00836683
0.00834492
0.00813115
0.00778054
0.00743904
0.00772426
0.00763731
0.00758105
0.00746665
0.00753302
0.00741532
0.00754636
0.00744301
0.00759
0.00749018
0.00766795
0.00755126
0.00781049
0.00764262
0.00793001
0.00779896
0.00791751
0.00797732
0.00789392
0.00793349
0.0080527
0.00795056
0.00659256
0.00826363
0.00816999
0.00843712
0.00843931
0.00843971
0.00843899
0.00843645
0.00843283
0.00842806
0.00842216
0.00841505
0.00840599
0.00838871
0.00835161
0.00829805
0.0082753
0.00828789
0.00831942
0.00835221
0.00837297
0.0083733
0.00835415
0.00831544
0.00821228
0.0081791
0.0082465
0.00793673
0.00812843
0.00843303
0.00843571
0.00841185
0.00837651
0.00833368
0.00827449
0.00746549
0.00739989
0.00756104
0.00747077
0.00737454
0.00731526
0.00732664
0.0072666
0.00737129
0.00730116
0.00740081
0.00727281
0.00741744
0.00728964
0.00750734
0.00734507
0.00765756
0.007466
0.00780694
0.00764984
0.0078388
0.00789299
0.00787766
0.007805
0.00801235
0.00786033
0.00646848
0.00831909
0.00816318
0.00841104
0.00843889
0.00843957
0.00843889
0.0084363
0.00843267
0.00842798
0.00842243
0.00841573
0.00840722
0.0083925
0.00836033
0.0083068
0.00827392
0.00827951
0.00830861
0.00834385
0.0083704
0.00837612
0.00836259
0.00832905
0.00824732
0.00817053
0.00821727
0.00801981
0.00805865
0.00840782
0.00843352
0.00841002
0.00837077
0.00832334
0.00824272
0.00734678
0.00729816
0.00716776
0.00713598
0.00726166
0.00720514
0.00722846
0.00722231
0.00720969
0.00715716
0.00718282
0.00704568
0.0071487
0.00709589
0.00725905
0.00737478
0.00748882
0.00742557
0.00758702
0.00752958
0.00765266
0.00765946
0.00769814
0.0077842
0.00775355
0.00780451
0.00804825
0.00793302
0.00625102
0.00830888
0.00821876
0.00837217
0.00843284
0.00843903
0.00843862
0.00843606
0.00843235
0.00842805
0.00842269
0.00841617
0.00840809
0.00839543
0.00836768
0.00831676
0.00827543
0.008273
0.00829809
0.00833463
0.00836591
0.00837811
0.0083703
0.00834191
0.00829286
0.00819412
0.00819426
0.00809249
0.00784705
0.00838142
0.00841652
0.00840008
0.00836056
0.00830821
0.00826619
0.00727344
0.00691
0.00711531
0.00710164
0.00712995
0.00711156
0.00720124
0.00715418
0.00712005
0.00711512
0.00694712
0.00693616
0.00728933
0.00717099
0.00726124
0.00728291
0.00739115
0.00757285
0.00759234
0.00761292
0.00764639
0.00767235
0.00767098
0.00773753
0.00770707
0.0078075
0.00774969
0.00780346
0.00802435
0.00785716
0.00575114
0.00807653
0.00823494
0.00836988
0.0084171
0.00842608
0.00843804
0.00843589
0.00843221
0.00842824
0.00842282
0.00841653
0.00840875
0.00839777
0.00837398
0.00832672
0.00827824
0.00826764
0.00828815
0.00832482
0.00835994
0.00837898
0.00837683
0.00835423
0.00831077
0.00815325
0.0081818
0.00819516
0.00778285
0.00813099
0.00838747
0.00838762
0.00835068
0.00829504
0.00825441
0.007912
0.00701108
0.00668285
0.00707898
0.00705674
0.00705999
0.00706755
0.00708221
0.00705287
0.00699736
0.00725541
0.00712147
0.00713676
0.00753092
0.00748849
0.00743619
0.00736912
0.00670576
0.00651444
0.00688515
0.00661192
0.00708713
0.00683999
0.00776387
0.00755517
0.00778243
0.00780901
0.0078009
0.00780215
0.0079243
0.00780424
0.00476536
0.00708329
0.00830607
0.00840357
0.0084097
0.00840605
0.00843584
0.00843202
0.00842825
0.00842277
0.00841673
0.00840918
0.00839945
0.00837914
0.00833682
0.00828289
0.00826345
0.00827884
0.00831463
0.00835273
0.00837847
0.00838194
0.00836571
0.00832797
0.00817457
0.00809873
0.0081622
0.00802889
0.00796161
0.00836674
0.00837573
0.00833649
0.00828781
0.00825048
0.00823922
0.00713101
0.00672888
0.00703961
0.0070565
0.00705433
0.00703856
0.0072326
0.00724746
0.00722862
0.00721798
0.00722536
0.00750761
0.00744629
0.00740856
0.00737151
0.00728569
0.00717492
0.00719686
0.00709775
0.00717523
0.0072296
0.0072338
0.00741141
0.00736437
0.00763331
0.00747376
0.00769129
0.00778535
0.00773703
0.00761118
0.00759115
0.00769445
0.00608472
0.0074774
0.00830149
0.00840843
0.00835579
0.00843572
0.00843209
0.00842814
0.00842261
0.00841683
0.00840945
0.00840063
0.0083832
0.00834592
0.00829051
0.00826157
0.00827073
0.00830422
0.00834422
0.00837605
0.00838577
0.00837593
0.00834418
0.00821068
0.00811329
0.00814679
0.00806104
0.00770981
0.00835902
0.00835819
0.00832406
0.00828499
0.00825075
0.00737761
0.00681374
0.00681524
0.00567097
0.00702251
0.00705178
0.00725666
0.00725862
0.00744412
0.00742573
0.00749278
0.00746489
0.00738122
0.00735059
0.0072072
0.00715005
0.00711312
0.00704807
0.0070842
0.00702053
0.0071038
0.00704267
0.00721739
0.00713081
0.00738441
0.00729873
0.00755826
0.00726716
0.00744431
0.00760648
0.00744739
0.00530552
0.00557703
0.00767125
0.00576019
0.00553939
0.00510038
0.00748998
0.00842523
0.00836289
0.00836145
0.0084325
0.008428
0.00842262
0.00841692
0.00840975
0.00840149
0.00838637
0.00835334
0.00829902
0.00826243
0.00826451
0.00829395
0.00833506
0.00837113
0.00838833
0.00838432
0.00835922
0.00830966
0.008146
0.00814656
0.00813223
0.00790008
0.00776311
0.00835135
0.00832119
0.00828175
0.00825651
0.00707902
0.00661111
0.00641714
0.00601299
0.00724876
0.0070593
0.00727292
0.00727603
0.00740542
0.00738607
0.00721466
0.00718007
0.0073019
0.00725347
0.00711097
0.00706245
0.00699961
0.00697003
0.00699265
0.00693607
0.00701986
0.00697215
0.00708567
0.00700328
0.00701664
0.00688757
0.0072642
0.00704288
0.00726093
0.00517612
0.00515857
0.00532124
0.00523858
0.00542824
0.00552984
0.00543881
0.00531144
0.00545079
0.00538648
0.00523699
0.00606031
0.00546021
0.00540154
0.00532083
0.0050189
0.00571942
0.00602522
0.00569241
0.00839845
0.00830437
0.00836399
0.00842855
0.00842302
0.00841722
0.00841004
0.00840228
0.00838869
0.00835926
0.0083069
0.00826455
0.00825996
0.00828437
0.0083254
0.00836487
0.00838913
0.00839099
0.0083727
0.00832981
0.00814333
0.00815519
0.00811446
0.00801687
0.00788902
0.00836178
0.00832605
0.00827764
0.00826717
0.00776248
0.00725256
0.00638366
0.00654645
0.00719972
0.00714763
0.00727678
0.0072369
0.00737419
0.00733355
0.00715267
0.00712687
0.00693066
0.0069078
0.00700827
0.00696414
0.00693918
0.00689182
0.00692464
0.00696274
0.00694796
0.00694029
0.00712045
0.00727148
0.00699945
0.00717708
0.00497408
0.00498099
0.00507765
0.00515832
0.00524582
0.00539217
0.00512479
0.00531734
0.00529318
0.00531492
0.00528827
0.00545686
0.00526811
0.00526944
0.00518649
0.00539165
0.00525955
0.00528212
0.00536894
0.00534063
0.00526791
0.00559388
0.00532547
0.00549857
0.00307616
0.005457
0.00606145
0.00562238
0.00569117
0.00833291
0.00826374
0.00843016
0.00842374
0.00841779
0.00841052
0.00840288
0.00839052
0.00836384
0.00831431
0.008267
0.00825623
0.00827568
0.00831544
0.00835752
0.00838826
0.00839608
0.0083843
0.00834866
0.00816271
0.00807743
0.0081122
0.00806991
0.0078979
0.00813246
0.00834731
0.00828858
0.00826804
0.00813641
0.00814308
0.00801832
0.00681446
0.00648066
0.0069403
0.0069061
0.00700098
0.00697306
0.00709529
0.00704555
0.00689659
0.00687595
0.00679076
0.0067743
0.0068488
0.00681716
0.00670163
0.00653195
0.00707284
0.0072245
0.00724844
0.00727344
0.00727856
0.00741241
0.00524188
0.00532429
0.00539986
0.00545424
0.00513957
0.00521681
0.00531709
0.00531339
0.00537121
0.00527533
0.00537346
0.00533376
0.005379
0.00531886
0.00542895
0.00541318
0.00537952
0.00516319
0.00538103
0.0052263
0.00537219
0.00542348
0.00544735
0.00528682
0.00560524
0.00565723
0.00550154
0.00206518
0.00508351
0.00511368
0.00570327
0.00525583
0.00825628
0.00830037
0.00842521
0.00841868
0.0084111
0.00840354
0.00839182
0.0083676
0.00832115
0.00827022
0.00825275
0.00826798
0.00830554
0.00834905
0.00838493
0.0083997
0.0083942
0.00836602
0.00829906
0.00810138
0.00812241
0.00809601
0.00800658
0.00773403
0.00837058
0.00832334
0.00827184
0.00829365
0.00833923
0.00844719
0.00700853
0.00677561
0.00688235
0.0068703
0.00674982
0.00673528
0.00678832
0.00677302
0.00684139
0.00680678
0.00676476
0.00673482
0.00687938
0.0068636
0.00675349
0.00689377
0.00713547
0.0070602
0.00742082
0.00753223
0.00731582
0.00755081
0.00549643
0.00552003
0.00553966
0.00554759
0.00540288
0.00549302
0.00555897
0.00559884
0.00533686
0.00545031
0.00553825
0.00546174
0.00543549
0.00545128
0.00553653
0.00545083
0.00549947
0.00547974
0.00556868
0.00554656
0.00550617
0.00515916
0.00533628
0.00518963
0.00541628
0.00553267
0.00551127
0.00530532
0.00560372
0.00567784
0.00545331
0.00446644
0.00554534
0.00452599
0.00572099
0.00533246
0.0081949
0.00826564
0.00842001
0.00841189
0.00840404
0.00839297
0.00837033
0.00832713
0.0082739
0.00824998
0.00826108
0.0082957
0.00833958
0.00837925
0.00840151
0.00840233
0.00838195
0.00833213
0.00813317
0.00814649
0.00808716
0.00798279
0.00797716
0.00809683
0.00836487
0.00830807
0.00829266
0.00834573
0.00840895
0.00806737
0.0066666
0.00651714
0.00673438
0.00674403
0.00663952
0.00664239
0.006673
0.00665734
0.0067013
0.0066823
0.0068445
0.00680885
0.00721809
0.00720561
0.00712866
0.00719843
0.00752833
0.00746484
0.0078208
0.00779058
0.00558622
0.0052258
0.00562367
0.00586925
0.00562072
0.00563079
0.00562993
0.00562914
0.00560167
0.00565759
0.00568793
0.00569857
0.00555139
0.00564754
0.00570418
0.00552053
0.00551974
0.00564782
0.00572264
0.00560496
0.00563413
0.00560391
0.00568079
0.00560011
0.00561688
0.00519111
0.005276
0.0051596
0.00544622
0.00561359
0.00555121
0.00533954
0.00555877
0.00565804
0.0053883
0.00279775
0.0059697
0.0049
0.00557149
0.00570256
0.00813043
0.00842428
0.00841301
0.00840451
0.00839372
0.00837231
0.00833189
0.00827747
0.0082476
0.00825449
0.0082861
0.00832933
0.00837187
0.00840118
0.00840822
0.0083963
0.00835465
0.00818376
0.0080723
0.00809103
0.0080147
0.00791838
0.008
0.0083823
0.00836767
0.00831398
0.00833265
0.00838424
0.00839533
0.00696004
0.00687081
0.00671324
0.00674271
0.00665975
0.00668462
0.0066549
0.00664406
0.00673632
0.00669661
0.00678126
0.00676238
0.00717054
0.0071236
0.00753803
0.00752169
0.0073917
0.00747287
0.00771781
0.00763693
0.00772879
0.00777506
0.00564465
0.00565167
0.00564671
0.00588985
0.00569775
0.00569031
0.00567766
0.00566582
0.00573451
0.00576392
0.00577428
0.00577092
0.00572796
0.00579272
0.00582082
0.0055695
0.00565055
0.00581087
0.00587756
0.00577427
0.00566543
0.00569615
0.00569527
0.00562403
0.00569748
0.00524108
0.00522634
0.00516391
0.00546803
0.0056564
0.00556886
0.00538106
0.00550472
0.0056252
0.00533616
0.00271717
0.00602564
0.00531896
0.00553217
0.00598657
0.00825776
0.00841743
0.00840522
0.00839401
0.00837372
0.00833525
0.00828021
0.00824503
0.0082481
0.00827641
0.00831893
0.00836226
0.0083982
0.00841177
0.00840815
0.00837611
0.00825738
0.00811686
0.00810365
0.00807702
0.00780727
0.00807359
0.00824282
0.00838792
0.00838331
0.00834058
0.00836529
0.00839373
0.00817412
0.00679299
0.0067525
0.0067213
0.00675544
0.00665594
0.00668786
0.00685187
0.00677477
0.00698923
0.00692636
0.00708502
0.00704155
0.00746976
0.00741076
0.00740185
0.00770847
0.00752562
0.0072902
0.00770328
0.00778834
0.00572345
0.00573673
0.00573217
0.00574881
0.00567271
0.00567031
0.00566463
0.00567578
0.00576004
0.00574548
0.00572578
0.00570731
0.0058323
0.00585101
0.00585392
0.00584467
0.00586087
0.00590496
0.00592043
0.00568205
0.00581008
0.00593991
0.00600867
0.00592465
0.0056525
0.00570199
0.00566466
0.00571474
0.00570122
0.0052892
0.00522162
0.00524122
0.00547792
0.00564119
0.00555134
0.00541035
0.00545751
0.00557914
0.00530796
0.00345316
0.00621741
0.00592738
0.00568888
0.00613055
0.00821924
0.00840972
0.00839429
0.00837392
0.00833733
0.00828153
0.00824238
0.00824066
0.0082666
0.00830784
0.00835219
0.00839168
0.00841277
0.00841646
0.00839382
0.00831856
0.00809882
0.00812741
0.00806906
0.00796441
0.00778175
0.00824646
0.00838481
0.00839416
0.00839573
0.00836536
0.00831873
0.00791128
0.00703405
0.0069929
0.00682931
0.00684242
0.00676852
0.00679978
0.00671867
0.0067327
0.00704049
0.00693218
0.0072096
0.00713157
0.00734884
0.00727913
0.00765281
0.00758504
0.00716748
0.00730004
0.00778467
0.00766125
0.00571671
0.00609448
0.00785191
0.00567304
0.00565544
0.00557624
0.00563236
0.00570738
0.0057008
0.00568968
0.00568873
0.00582817
0.00580996
0.00578266
0.00575774
0.00592626
0.00594222
0.00594183
0.00592785
0.00597391
0.0060115
0.00602399
0.00583901
0.00595799
0.00605742
0.00613136
0.00605827
0.00572
0.00566288
0.00570319
0.00586534
0.00566219
0.00535079
0.00525999
0.00533382
0.00546371
0.00560348
0.00552254
0.00542452
0.0054321
0.00556352
0.00534185
0.00372717
0.00611694
0.00599862
0.0058307
0.00594065
0.00817849
0.00837295
0.00837346
0.00833761
0.00828208
0.00823808
0.00823291
0.00825577
0.00829692
0.0083406
0.0083837
0.00841231
0.0084212
0.00840454
0.00834894
0.0081602
0.0080643
0.00807154
0.00800095
0.00779884
0.00813985
0.0083899
0.00837934
0.00839628
0.00840563
0.00832759
0.00770716
0.00820059
0.00683768
0.00682913
0.00685014
0.00684738
0.00682335
0.00684061
0.00682927
0.00679968
0.00716631
0.00705885
0.00734917
0.00726302
0.00750745
0.00742743
0.00778309
0.00769779
0.00767808
0.00717669
0.00779024
0.0079011
0.00550769
0.00596292
0.00603957
0.00622118
0.00566745
0.00563618
0.00557032
0.00560586
0.00575098
0.00573147
0.00571066
0.00570015
0.00590744
0.0058197
0.00578478
0.00581627
0.0060298
0.00604562
0.00604172
0.00590364
0.00608903
0.00612732
0.00614077
0.00599621
0.00609481
0.00618049
0.00625874
0.00618579
0.00585297
0.00569783
0.00582585
0.00601676
0.00567455
0.00540566
0.00537082
0.00543398
0.00545821
0.0054918
0.00536711
0.00542917
0.00548216
0.00569787
0.00546688
0.00245735
0.00558242
0.0059361
0.00576958
0.00566832
0.0081092
0.00832662
0.00833669
0.0082812
0.00823372
0.00822229
0.00824543
0.0082839
0.00833058
0.0083651
0.00841154
0.00842687
0.00841086
0.00834245
0.00818562
0.00808886
0.00807686
0.00805213
0.0078519
0.00805844
0.00840188
0.00838239
0.00837606
0.00839747
0.00841394
0.00818029
0.00838387
0.00708699
0.0071632
0.00685726
0.00687054
0.00685508
0.00685321
0.00685747
0.00685678
0.00694591
0.00686319
0.00725576
0.0071501
0.00744147
0.0073532
0.00760687
0.00752213
0.00727265
0.00765075
0.00783561
0.00805988
0.00634187
0.00703813
0.00810864
0.00560912
0.00575299
0.00601406
0.00621064
0.00565567
0.00561175
0.00482321
0.00542707
0.00579442
0.00575899
0.00572603
0.00570321
0.0057417
0.00509056
0.00501358
0.00549996
0.00614896
0.00608708
0.00586766
0.00565329
0.00622025
0.00626063
0.00627577
0.00614079
0.0062305
0.00632043
0.00640355
0.0063228
0.00600149
0.00578521
0.00594729
0.00615754
0.0055246
0.00545323
0.00549051
0.00549486
0.00530822
0.00533704
0.00522716
0.00532332
0.00560817
0.00570268
0.00555526
0.00374206
0.00581361
0.00633061
0.00562825
0.00565213
0.00803248
0.00827347
0.00827934
0.00822711
0.00821181
0.0082313
0.00827227
0.00831668
0.00836637
0.00840096
0.0083246
0.00841334
0.0083037
0.00811858
0.00809876
0.00808147
0.00805114
0.00790796
0.00780986
0.00840572
0.00840178
0.00837874
0.00837508
0.00838973
0.00838617
0.00836489
0.00823523
0.00705046
0.00715985
0.0069385
0.00698059
0.00690395
0.00691496
0.00690533
0.00690031
0.00703259
0.00693099
0.00728852
0.00721646
0.00739178
0.00734548
0.00752726
0.00744645
0.00793517
0.00762901
0.00679829
0.00742768
0.00818334
0.00636673
0.00713502
0.00681575
0.00676632
0.00503563
0.00583007
0.00622031
0.00637441
0.00564204
0.00558856
0.00424463
0.00476742
0.00558035
0.00572101
0.00573615
0.0057001
0.00546267
0.00441341
0.00371047
0.00428026
0.00615815
0.00591641
0.00567232
0.00542989
0.00637507
0.00641535
0.00636222
0.00627847
0.00637744
0.00648319
0.00657968
0.0064803
0.00614081
0.00568753
0.00587021
0.0062939
0.00540724
0.00547048
0.00551125
0.00546763
0.00513246
0.0052033
0.0050871
0.00515154
0.00562573
0.00561687
0.00553254
0.00457496
0.00638803
0.00644139
0.00567082
0.00593734
0.00794979
0.00820778
0.00822063
0.00819799
0.00821676
0.00825649
0.00830566
0.00835475
0.00837229
0.00818249
0.00839247
0.00829626
0.00810704
0.00809644
0.00808238
0.00804206
0.00796809
0.00783352
0.00811998
0.0084169
0.00840136
0.00837851
0.00836799
0.0083615
0.00834737
0.00833679
0.00769618
0.00776784
0.00732987
0.0074516
0.00714878
0.00722443
0.00707091
0.0070998
0.00705398
0.00705611
0.0071278
0.00706821
0.00727353
0.00726638
0.00730797
0.0072816
0.00746406
0.007384
0.00807414
0.00789701
0.00696952
0.00769176
0.00690695
0.00755182
0.00655039
0.00672253
0.00692997
0.00685547
0.00500225
0.00603345
0.00641105
0.00653643
0.00562401
0.0054031
0.0048425
0.00451788
0.00516261
0.00525841
0.00544445
0.00569534
0.00521368
0.00409677
0.00337395
0.00392465
0.00603607
0.00577112
0.00550053
0.00523417
0.00655326
0.00659274
0.00629738
0.00642558
0.00654279
0.00667887
0.00673896
0.00666386
0.00601393
0.00556117
0.00573368
0.00618513
0.00528422
0.00527608
0.00543551
0.00536553
0.00498016
0.00507286
0.00493728
0.00500697
0.00556229
0.00563239
0.00546052
0.00477746
0.00652493
0.00660313
0.00589594
0.00635295
0.00785647
0.00813995
0.0081838
0.00819888
0.00823954
0.00828958
0.00834063
0.00833607
0.00814147
0.00833133
0.00827194
0.00813072
0.00808244
0.00808047
0.00803584
0.00803073
0.00790334
0.00813404
0.00841994