/*--------------------------------*- C++ -*----------------------------------*\
  =========                 |
  \\      /  F ield         | OpenFOAM: The Open Source CFD Toolbox
   \\    /   O peration     | Website:  https://openfoam.org
    \\  /    A nd           | Version:  dev
     \\/     M anipulation  |
\*---------------------------------------------------------------------------*/
FoamFile
{
    version     2.0;
    format      ascii;
    class       volScalarField;
    location    "2500";
    object      rDeltaT;
}
// * * * * * * * * * * * * * * * * * * * * * * * * * * * * * * * * * * * * * //

dimensions      [0 0 -1 0 0 0 0];

internalField   nonuniform List<scalar> 
9834
(
100
100
100
100
100
100
100
100
100
100
100
100
100
100
100
100
100
100
100
100
100
100
100
100
100
100
100
100
100
100
100
100
100
100
100
100
100
100
100
100
100
100
100
100
100
100
100
100
100
100
100
100
100
100
100
100
100
100
100
100
100
100
100
100
100
100
100
100
100
100
100
100
100
100
100
100
100
100
100
100
100
100
100
100
100
100
100
100
100
100
100
100
100
100
100
100
100
100
100
100
100
100
100
100
100
100
100
100
100
100
100
100
100
100
100
100
100
100
100
100
100
100
100
100
100
100
100
100
100
100
100
100
100
100
100
100
100
100
100
100
100
100
100
100
100
100
100
100
100
100
100
100
100
100
100
100
100
100
100
100
100
100
100
100
100
100
100
100
100
100
100
100
100
100
100
100
100
100
100
100
100
100
100
100
100
100
100
100
100
100
100
100
100
100
100
100
100
100
100
100
100
100
100
100
100
100
100
100
100
100
100
100
100
100
100
100
100
100
100
100
100
100
100
100
100
100
100
100
100
100
100
100
100
100
100
100
100
100
100
100
100
100
100
100
100
100
100
100
100
100
100
100
100
100
100
100
100
100
100
100
100
100
100
100
100
100
100
100
100
100
100
100
100
100
100
100
100
100
100
100
100
100
100
100
100
100
100
100
100
100
100
100
100
100
100
100
100
100
100
100
100
100
100
100
100
100
100
100
100
100
100
100
100
100
100
100
100
100
100
100
100
100
100
100
100
100
100
100
100
100
100
100
100
100
100
100
100
100
100
100
100
100
100
100
100
100
100
100
100
100
100
100
100
100
100
100
100
100
100
100
100
100
100
100
100
100
100
100
100
100
100
100
100
100
100
100
100
100
100
100
100
100
100
100
100
100
100
100
100
100
100
100
100
100
100
100
100
100
100
100
100
100
100
100
100
100
100
100
100
100
100
100
100
100
100
100
100
100
100
100
100
100
100
100
100
100
100
100
100
100
100
100
100
100
100
100
100
100
100
100
100
100
100
100
100
100
100
100
100
100
100
100
100
100
100
100
100
100
100
100
100
100
100
100
100
100
100
100
100
100
100
100
100
100
100
100
100
100
100
100
100
100
100
100
100
100
100
100
100
100
100
100
100
100
100
100
100
100
100
100
100
100
100
100
100
100
100
100
100
100
100
100
100
100
100
100
100
100
100
100
100
100
100
100
100
100
100
100
100
100
100
100
100
100
100
100
100
100
100
100
100
100
100
100
100
100
100
100
100
100
100
100
100
100
100
100
100
100
100
100
100
100
100
100
100
100
100
100
100
100
100
100
100
100
100
100
100
100
100
100
100
100
100
100
100
100
100
100
100
100
100
100
100
100
100
100
100
100
100
100
100
100
100
100
100
100
100
100
100
100
100
100
100
100
100
100
100
100
100
100
100
100
100
100
100
100
100
100
100
100
100
100
100
100
100
100
100
100
100
100
100
100
100
100
100
100
100
100
100
100
100
100
100
100
100
100
100
100
100
100
100
100
100
100
100
100
100
100
100
100
100
100
100
100
100
100
100
100
100
100
100
100
100
100
100
100
100
100
100
100
100
100
100
100
100
100
100
100
100
100
100
100
100
100
100
100
100
100
100
100
100
100
100
100
100
100
100
100
100
100
100
100
100
100
100
100
100
100
100
100
100
100
100
100
100
100
100
100
100
100
100
100
100
100
100
100
100
100
100
100
100
100
100
100
100
100
100
100
100
100
100
100
100
100
100
100
100
100
100
100
100
100
100
100
100
100
100
100
100
100
100
100
100
100
100
100
100
100
100
100
100
100
100
100
100
100
100
100
100
100
100
100
100
100
100
100
100
100
100
100
100
100
100
100
100
100
100
100
100
100
100
100
100
100
100
100
100
100
100
100
100
100
100
100
100
100
100
100
100
100
100
100
100
100
100
100
100
100
100
100
100
100
100
100
100
100
100
100
100
100
100
100
100
100
100
100
100
100
100
100
100
100
100
100
100
100
100
100
100
100
100
100
100
100
100
100
100
100
100
100
100
100
100
100
100
100
100
100
100
100
100
100
100
100
100
100
100
100
100
100
100
100
100
100
100
100
100
100
100
100
100
100
100
100
100
100
100
100
100
100
100
100
100
100
100
100
100
100
100
100
100
100
100
100
100
100
100
100
100
100
100
100
100
100
100
100
100
100
100
100
100
100
100
100
100
100
100
100
100
100
100
100
100
100
100
100
100
100
100
100
100
100
100
100
100
100
100
100
100
100
100
100
100
100
100
100
100
100
100
100
100
100
100
100
100
100
100
100
100
100
100
100
100
100
100
100
100
100
100
100
100
100
100
100
100
100
100
100
100
100
100
100
100
100
100
100
100
100
100
100
100
100
100
100
100
100
100
100
100
100
100
100
100
100
100
100
100
100
100
100
100
100
100
100
100
100
100
100
100
100
100
100
100
100
100
100
100
100
100
100
100
100
100
100
100
100
100
100
100
100
100
100
100
100
100
100
100
100
100
100
100
100
100
100
100
100
100
100
100
100
100
100
100
100
100
100
100
100
100
100
100
100
100
100
100
100
100
100
100
100
100
100
100
100
100
100
100
100
100
100
100
100
100
100
100
100
100
100
100
100
100
100
100
100
100
100
100
100
100
100
100
100
100
100
100
100
100
100
100
100
100
100
100
100
100
100
100
100
100
100
100
100
100
100
100
100
100
100
100
100
100
100
100
100
100
100
100
100
100
100
100
100
100
100
100
100
100
100
100
100
100
100
100
100
100
100
100
100
100
100
100
100
100
100
100
100
100
100
100
100
100
100
100
100
100
100
100
100
100
100
100
100
100
100
100
100
100
100
100
100
100
100
100
100
100
100
100
100
100
100
100
100
100
100
100
100
100
100
100
100
100
100
100
100
100
100
100
100
100
100
100
100
100
100
100
100
100
100
100
100
100
100
100
100
100
100
100
100
100
100
100
100
100
100
100
100
100
100
100
100
100
100
100
100
100
100
100
100
100
100
100
100
100
100
100
100
100
100
100
100
100
100
100
100
100
100
100
100
100
100
100
100
100
100
100
100
100
100
100
100
100
100
100
100
100
100
100
100
100
100
100
100
100
100
100
100
100
100
100
100
100
100
100
100
100
100
100
100
100
100
100
100
100
100
100
100
100
100
100
100
100
100
100
100
100
100
100
100
100
100
100
100
100
100
100
100
100
100
100
100
100
100
100
100
100
100
100
100
100
100
100
100
100
100
100
100
100
100
100
100
100
100
100
100
100
100
100
100
100
100
100
100
100
100
100
100
100
100
100
100
100
100
100
100
100
100
100
100
100
100
100
100
100
100
100
100
100
100
100
100
100
100
100
100
100
100
100
100
100
100
100
100
100
100
100
100
100
100
100
100
100
100
100
100
100
100
100
100
100
100
100
100
100
100
100
100
100
100
100
100
100
100
100
100
100
100
100
100
100
100
100
100
100
100
100
100
100
100
100
100
100
100
100
100
100
100
100
100
100
100
100
100
100
100
100
100
100
100
100
100
100
100
100
100
100
100
100
100
100
100
100
100
100
100
100
100
100
100
100
100
100
100
100
100
100
100
100
100
100
100
100
100
100
100
100
100
100
100
100
100
100
100
100
100
100
100
100
100
100
100
100
100
100
100
100
100
100
100
100
100
100
100
100
100
100
100
100
100
100
100
100
100
100
100
100
100
100
100
100
100
100
100
100
100
100
100
100
100
100
100
100
100
100
100
100
100
100
100
100
100
100
100
100
100
100
100
100
100
100
100
100
100
100
100
100
100
100
100
100
100
100
100
100
100
100
100
100
100
100
100
100
100
100
100
100
100
100
100
100
100
100
100
100
100
100
100
100
100
100
100
100
100
100
100
100
100
100
100
100
100
100
100
100
100
100
100
100
100
100
100
100
100
100
100
100
100
100
100
100
100
100
100
100
100
100
100
100
100
100
100
100
100
100
100
100
100
100
100
100
100
100
100
100
100
100
100
100
100
100
100
100
100
100
100
100
100
100
100
100
100
100
100
100
100
100
100
100
100
100
100
100
100
100
100
100
100
100
100
100
100
100
100
100
100
100
100
100
100
100
100
100
100
100
100
100
100
100
100
100
100
100
100
100
100
100
100
225.672
100
100
100
100
100
100
100
100
100
100
100
100
100
100
100
100
100
100
100
100
100
100
100
100
100
100
100
100
100
100
100
100
100
100
100
100
100
100
100
100
100
100
100
100
100
100
100
100
100
100
100
100
100
100
100
100
100
100
100
100
100
100
100
100
100
100
100
100
100
100
100
100
100
100
100
100
100
100
100
100
100
100
100
100
100
100
100
100
100
100
100
100
100
100
100
100
100
100
100
100
100
100
100
100
100
100
100
100
100
100
100
100
100
100
100
100
100
100
100
100
100
100
100
100
100
100
100
100
100
100
100
100
100
100
100
100
100
100
100
100
100
100
100
100
100
100
100
100
100
100
100
100
100
100
100
100
100
100
100
100
100
100
100
100
100
100
100
100
100
100
100
100
100
100
100
100
100
158.614
100
100
100
100
100
100
100
100
100
100
100
100
100
100
100
100
100
100
100
100
100
100
100
100
100
100
100
100
100
100
100
100
100
100
100
100
100
100
100
100
100
100
100
100
100
100
100
100
100
100
100
100
100
100
100
100
100
100
100
100
100
100
100
100
100
100
100
100
100
100
100
100
100
100
100
100
100
100
100
100
100
100
100
100
100
100
100
100
100
100
100
100
100
100
100
100
100
100
100
100
100
100
100
100
100
100
100
100
100
100
100
100
100
100
100
100
100
100
100
100
100
100
100
100
100
100
100
100
100
100
100
100
100
100
100
100
100
100
100
100
100
100
100
100
100
100
100
100
100
100
100
100
100
100
100
100
100
100
100
100
100
100
100
100
100
100
100
100
100
100
100
100
100
100
100
100
100
100
100
100
100
100
100
100
100
100
100
100
100
100
100
100
100
100
100
100
100
100
100
100
100
100
100
100
100
100
100
100
100
100
100
100
100
100
100
100
100
100
100
100
100
100
100
100
100
100
100
100
100
100
100
100
100
100
100
100
100
100
100
100
100
100
100
100
100
100
100
100
100
100
100
100
100
100
100
100
100
100
100
100
100
100
100
100
100
100
100
100
100
100
100
100
100
100
100
100
100
100
100
100
100
100
100
100
100
100
100
100
100
100
100
100
100
100
100
100
100
100
100
100
100
100
100
100
100
100
100
100
100
100
100
100
100
100
100
100
100
100
100
100
100
100
100
100
100
100
100
100
100
100
100
100
100
100
100
100
100
100
100
100
100
100
100
100
100
100
100
100
100
100
103.227
100
100
100
100
100
100
100
100
100
100
100
100
100
100
100
100
100
103.534
105.304
100
100
100
100
191.491
100
100
100
100
100
100
100
100
100
100
100
100
100
100
100
100
100
100
100
100
100
100
100
100
100
100
100
100
100
100
100
100
100
100
100
100
100
100
100
100
100
100
100
100
100
100
100
100
100
100
100
100
100
100
100
100
100
100
100
100
100
100
100
100
100
100
107.118
110.021
111.555
111.046
100
102.006
107.728
113.318
100
100
100
100
100
100
100
100
100
100.528
100.536
100
106.14
100
100
100
104.952
109.771
111.111
103.677
100
100
100
100
100
100
100
100
100
100
100
100
100
100
100
100
100
100
100
100
100
100
100
100
100
100
100
100
100
100
100
100
100
100
100
100
100
100
100
100
100
100
100
100
100
100
100
100
100
100
100
100
100
100
100
100
100
100
100
100
100
100
100
100
100
100
100
100
107.542
101.889
100
100
118.328
122.399
125.106
125.474
103.169
109.946
116.703
123.384
100
100
101.587
100
100
100
100
100
100
106.325
105.922
100
112.175
100
100
100
111.632
116.015
117.214
109.491
100
100
100
100
100
100
100
100
100
100
100
100
100
100
100
100
100
100
100
100
100
100
100
100
100
100
100
100
100
100
100
100
100
100
100
100
100
100
100
100
100
100
100
100
100
100
100
100
100
100
100
100
100
100
100
100
100
100
100
100
100
100
100
100
100
100
100
100
100
100
122.556
117.15
109.108
100
129.611
134.933
138.955
140.273
110.008
117.73
125.502
133.341
100
100
107.244
100
100
100
101.046
100
106.064
113.138
112.972
105.603
118.836
104.78
100
100
117.548
122.346
123.345
114.212
100
100
100
100
100
100
100
100
100
100
100
100
100
100
100
100
100
100
100
100
100
100
100
100
100
100
100
100
100
100
100
100
100
100
100
100
100
100
100
100
100
100
100
100
100
100
100
100
100
100
100
100
100
100
100
100
100
100
100
100
100
100
100
100
100
100
101.45
100
100
100
138.096
133.082
124.772
112.967
140.806
147.453
152.911
155.373
116.557
125.239
134.077
143.09
100
102.896
112.729
105.892
108.05
103.36
115.607
111.779
114.091
120.645
121.215
115.583
125.971
110.33
100
105.726
122.754
128.441
129.801
120.143
100
100
100
100
100
100
100
100
100
100
100
100
100
100
100
100
100
100
100
100
100
100
100
100
100
100
100
100
100
100
100
100
100
100
100
100
100
100
100
100
100
100
100
100
100
100
100
100
100
100
100
100
100
100
100
100
100
100
100
100
100
100
100
100
100
100
100
100
116.345
105.68
100
100
154.112
149.536
141.117
129.372
151.844
159.806
166.653
170.65
122.757
132.502
142.486
152.637
105.858
111.822
118.057
117.871
121.783
119.42
132.156
126.774
122.589
128.575
130.399
125.691
133.061
117.993
101.439
115.494
129.669
135.792
139.571
129.926
100
100
100
102.2
100
100
100
100
100
100
100
100
100
100
100
100
100
100
100
100
100
100
100
100
100
100
100
100
100
100
100
100
100
100
100
100
100
100
100
100
100
100
100
100
100
100
100
100
100
100
100
100
100
100
100
100
100
100
100
100
100.065
100
100
100
100
100
100
100
100
133.233
120.733
108.926
112.767
170.82
167.168
159.018
147.63
162.675
172.044
180.368
186.475
128.742
139.859
151.115
162.393
123.87
128.663
131.474
129.394
134.197
137.927
147.959
140.222
132.778
137.25
141.496
138.126
142.296
130.777
113.375
129.9
142.67
150.399
157.963
147.769
100
100
109.46
147.303
100
104.121
100
100
100
100
100
100
100
100
100
100
100
100
100
100
100
100
100
100
100
100
100
100
100
100
100
100
100
100
100
100
100
100
100
100
100
100
100
100
100
100
100
100
100
100
100
100
100
100
102.924
100.307
100
100
100.412
100
105.541
104.811
100
100
101.069
102.469
104.825
101.717
110.897
106.088
152.365
138.419
122.898
128.572
188.654
186.178
178.62
167.377
173.583
184.357
194.239
202.421
137.795
148.366
160.817
172.878
144.923
151.016
154.754
145.598
154.957
156.359
179.914
166.889
148.786
151.632
165.122
160.717
163.218
148.412
127.133
145.785
166.838
176.038
187.926
169.708
103.054
100
119.904
153.822
100
149.496
100
100
100
100
100
100
100
100
100
100
100
100
100
100
100
100
100
100
100
100
100
100
100
100
100
100
100
100
100
100
100
100
100
100
100
100
100
100
100
100
100
100
100
100
100
100
100
100
100
106.803
103.883
100
101.093
106.25
105.581
111.892
109.489
103.706
103.332
107.845
109.938
117.803
114.838
123.089
116.671
174.594
159.408
138.966
147.381
207.112
206.643
200.406
189.607
184.907
197.007
208.719
219.098
156.173
160.798
172.423
184.683
167.128
177.416
182.235
176.949
191.247
192.549
211.889
201.992
183.344
181.178
203.716
201.578
196.29
166.12
137.811
158.335
193.169
211.685
219.09
189.383
112.677
107.426
129.949
293.853
128.135
202.603
106.587
120.609
100
100
100
100
100
100
100
100
100
100
100
100
100
100
100
100
100
100
100
100
100
100
100
100
100
100
100
100
100
100
100
100
100
100
100
100
100
100
100
100
100
100
100
100
100
100
100
111.345
107.861
100.458
104.225
113.4
112.636
117.781
114.201
113.861
111.91
115.448
117.91
133.092
129.368
136.83
129.216
200.546
184.385
157.368
169.566
226.728
229.147
224.812
214.942
197.123
210.192
224.018
237.371
181.462
181.947
186.896
197.965
204.758
217.157
214.041
216.372
217.991
217.637
243.011
231.857
225.36
218.522
236.524
230.695
235.76
181.752
149.11
171.995
217.628
244.55
247.371
208.842
123.023
116.926
140.458
230.296
146.663
141.308
120.071
130.258
100
100
100
100
100
100
100
100
100
100
100
100
100
100
100
100
100
100
100
100
100
100
100
100
100
100
100
100
100
100
100
100
100
100
100
100
100
100
100
100
100
100
100
100
100
100
100
100
100
100
100
116.363
112.114
103.411
107.77
121.256
119.746
123.626
119.594
124.543
120.386
122.909
125.889
150.697
145.273
153.166
144.338
230.546
214.419
180.234
196.355
247.875
253.038
251.861
243.275
210.999
223.738
239.536
256.966
213.599
211.527
211.421
216.799
235.39
250.855
254.857
237.7
261.206
260.847
159.223
291.607
239.601
245.529
260.453
286.878
246.25
197.611
159.864
182.816
239.202
257.966
252.081
226.327
130.407
125.491
147.132
100
119.536
100
126.642
123.219
100
100
100
100
100
100
100
100
100
100
100
100
100
100
100
100
100
100
100
100
100
100
100
100
100
100
100
100
100
100
100
100
100
100
100
100
100
100
100
100
100
100
100
100
100
100
100
100
100.605
100
120.973
116.176
105.83
111.171
129.535
126.524
129.446
125.313
136.558
129.526
130.545
133.811
171.181
162.703
171.414
160.968
264.539
250.505
210.709
229.799
272.602
279.117
280.655
273.556
229.781
240.38
255.428
272.941
261.964
253.342
259.418
254.878
293.012
161.194
293.181
156.469
310.49
306.144
187.246
339.808
152.411
295.276
167.069
339.456
154.984
208.896
168.384
193.389
237.472
160.738
158.65
232.37
137.431
131.655
155.331
113.817
100
100
125.418
111.193
100
100
100
100
100
100
100
100
100
100
100
100
100
100
100
100
100
100
100
100
100
100
100
100
100
100
100
100
100
100
100
100
100
100
100
100
100
100
100
100
100
100
100
100
100
100
100
100
100
102.548
125.459
120.154
108.131
114.461
137.057
132.533
135.11
130.968
150.161
139.894
138.9
143.836
195.695
181.753
192.807
179.453
301.485
293.691
252.081
273.892
291.146
300.427
306.418
302.821
266.856
274.37
286.892
298.719
294.614
286.494
288.827
283.684
337.368
187.606
336.158
186.307
363.91
355.153
214.582
389.702
181.717
350.304
197.525
396.515
183.252
218.316
179.083
207.032
152.413
190.334
187.02
241.209
290.677
142.723
132.876
159.737
442.394
100
154.36
120.377
104.423
100
100
100
100
100
100
100
100
100
100
100
100
100
100
100
100
100
100
100
100
100
100
100
100
100
100
100
100
100
100
100
100
100
100
100
100
100
100
100
100
100
100
100
100
100
100
100
100
100
100
100
103.632
130.793
124.749
110.34
118.127
144.166
138.619
141.434
136.86
166.124
152.879
148.381
156.916
228.573
207.081
220.695
201.714
322.224
334.387
300.628
322.126
323.495
347.929
339.659
326.411
293.354
300.802
312.327
325.301
332.979
325.022
322.251
316.587
383.709
213.545
381.419
217.287
415.585
404.976
240.531
439.52
215.497
412.332
232.001
449.324
216.996
222.085
183.923
206.616
180.002
225.77
221.494
157.292
342.416
145.639
130.786
164.651
219.119
101.15
100
113.39
101.309
100
100
100
100
100
100
100
100
100
100
100
100
100
100
100
100
100
100
100
100
100
100
100
100
100
100
100
100
100
100
100
100
100
100
100
100
100
100
100
100
100
100
100
100
100
100
100
100
100
100
100
105.665
136.446
129.51
113.585
122.059
153.173
146.57
149.641
142.816
184.197
167.937
160.375
172.739
272.945
244.045
263.029
232.686
341.574
374.498
342.655
356.828
345.25
192.544
352.366
338.459
323.667
330.184
341.031
353.688
375.523
366.487
359.538
352.454
432.001
238.929
244.885
245.976
466.413
261.556
246.605
151.587
187.786
209.917
266.154
214.196
256.825
252.148
188.185
404.423
145.465
126.168
165.711
100
100
100
109.752
100
100
100
100
100
100
100
100
100
100
100
100
100
100
100
100
100
100
100
100
100
100
100
100
100
100
100
100
100
100
100
100
100
100
100
100
100
100
100
100
100
100
100
100
100
100
100
100
100
100
100
100
100
100
107.003
142.609
134.185
116.579
125.829
164.677
157.439
159.879
150.31
207.272
185.603
174.089
190.456
322.06
294.591
311.155
277.146
363.318
214.048
376.536
370.717
369.018
208.58
380.02
365.909
357.322
361.74
370.861
381.871
179.588
186.827
145.938
319.187
245.385
223.962
461.968
143.673
122.788
166.13
100
100
100
103.374
100
100
100
100
100
100
100
100
100
100
100
100
100
100
100
100
100
100
100
100
100
100
100
100
100
100
100
100
100
100
100
100
100
100
100
100
100
100
100
100
100
100
100
100
100
100
100
100
100
100
100
100
100
100
108.423
150.364
140.111
119.131
129.958
177.435
169.27
170.261
159.79
243.203
210.677
190.944
214.843
353.822
342.617
346.692
322.239
389.685
227.744
214.214
399.206
391.243
226.08
412.459
398.199
212.563
194.276
257.211
177.503
382.704
257.762
140.391
119.879
165.14
100
100
100
100
100
100
100
100
100
100
100
100
100
100
100
100
100
100
100
100
100
100
100
100
100
100
100
100
100
100
100
100
100
100
100
100
100
100
100
100
100
100
100
100
100
100
100
100
100
100
100
100
100
100
100
100.691
100
100
100
112.062
159.76
147.729
123.443
135.419
193.13
179.927
181.085
170.241
291.546
250.43
217.524
255.831
364.192
358.15
374.609
345.925
407.663
243.435
227.442
434.589
240.727
437.778
421.791
244.407
196.732
252.752
307.217
211.625
443.726
143.758
116.37
167.826
100
100
105.401
100
100
100
100
100
100
100
100
100
100
100
100
100
100
100
100
100
100
100
100
100
100
100
100
100
100
100
100
100
100
100
100
100
100
100
100
100
100
100
100
100
100
100
100
100
100
100
100
100
100
100
100
100
103.299
100
100
100
116.315
168.05
155.525
129.647
142.782
217.852
193.244
195.838
180.66
331.566
297.872
259.202
302.335
394.752
203.719
209.54
358.58
254.264
245.418
458.991
138.152
308.61
362.192
242.926
140.203
112.882
164.228
235.481
100
100
128.601
100
100
100
100
100
100
100
100
100
100
100
100
100
100
100
100
100
100
100
100
100
100
100
100
100
100
100
100
100
100
100
100
100
100
100
100
100
100
100
100
100
100
100
100
100
100
100
100
100
100
100
100
100
100
100
100
106.637
100
100
100
120.899
178.378
165.453
136.743
152.112
256.271
216.756
218.391
194.312
340.249
335.486
300.133
334.833
434.019
218.076
226.063
196.876
393.876
258.564
168.962
371.39
415.265
141.114
113.355
175.529
222.1
282.261
100
100
144.702
100
100
100
100
100
100
100
100
100
100
100
100
100
100
100
100
100
100
100
100
100
100
100
100
100
100
100
100
100
100
100
100
100
100
100
100
100
100
100
100
100
100
100
100
100
100
100
100
100
100
100
100
100
100
100
110.593
100
100
100
126.781
192.841
176.135
144.91
161.465
292.573
252.147
248.463
216.096
341.107
326.955
339.635
462.94
238.272
248.135
213.622
190.094
437.878
203.292
433.468
148.653
119.346
190.917
234.04
276.406
336.158
100
124.385
153.306
100
100.103
100
100
100
100
100
100
100
100
100
100
100
100
100
100
100
100
100
100
100
100
100
100
100
100
100
100
100
100
100
100
100
100
100
100
100
100
100
100
100
100
100
100
100
100
100
100
100
100
100
100
100
100
100
100
100
114.802
104.749
100
100
132.309
212.87
188.662
153.36
171.558
316.559
283.872
278.011
245.993
321.856
192.457
253.92
266.17
235.1
209.357
472.876
235.605
152.135
118.54
135.165
293.38
337.455
389.217
100
146.644
158.3
100
117.558
100
100
100
100
100
100
100
100
100
100
100
100
100
100
100
100
100
100
100
100
100
100
100
100
100
100
100
100
100
100
100
100
100
100
100
100
100
100
100
100
100
100
100
100
100
100
100
100
100
100
100
100
100
100
121.384
109.27
100
100
139.44
237.314
203.605
161.802
181.125
324.298
307.929
303.959
275.17
183.2
213.061
252.191
234.051
150.364
217.6
118.489
166.231
356.869
396.421
100
165.958
159.185
111.48
134.898
100
100
100
100
100
100
100
100
100
100
100
100
100
100
100
100
100
100
100
100
100
100
100
100
100
100
100
100
100
100
100
100
100
100
100
100
100
100
100
100
100
100
100
100
100
100
100
100
100
100
100
100
100
100
100
100
127.691
113.305
104.281
100
148.16
262.685
222.605
173.339
193.421
338.71
353.821
324.427
321.507
299.398
204.715
237.329
255.554
149.353
214.301
267.503
124.736
201.381
417.278
100
182.042
157.872
122.196
152.265
100
100
100
100
100
100
100
100
100
100
100
100
100
100
100
100
100
100
100
100
100
100
100
100
100
100
100
100
100
100
100
100
100
100
100
100
100
100
100
100
100
100
100
100
100
100
100
100
100
100
100
100
100
100
100
100
100
132.168
119.653
108.817
101.38
154.982
288.181
246.679
184.201
208.703
198.705
392.072
328.341
327
317.616
228.015
258.513
153.386
213.698
263.236
324.715
132.102
234.535
100
192.566
154.204
135.157
166.683
100
100
100
100
100
100
100
100
100
100
100
100
100
100
100
100
100
100
100
100
100
100
100
100
100
100
100
100
100
100
100
100
100
100
100
100
100
100
100
100
100
100
100
100
100
100
100
100
100
100
100
100
100
100
100
100
100
100
100
138.982
124.393
113.004
105.345
162.621
311.565
269.333
193.153
222.063
221.715
195.267
430.498
339.198
362.604
328.641
248.537
159.255
211.693
262.55
320.197
380.221
141.095
100
196.757
151.657
144.926
178.578
100
100
100
100
100
100
100
100
100
100
100
100
100
100
100
100
100
100
100
100
100
100
100
100
100
100
100
100
100
100
100
100
100
100
100
100
100
100
100
100
100
100
100
100
100
100
100
100
100
100
100
100
100
100
100
100
100
100
100
144.942
128.246
116.894
108.424
171.244
325.492
287.911
203.967
236.339
243.417
212.573
466.874
203.995
392.851
338.352
168.169
209.245
258.748
318.178
375.37
148.579
100
193.634
140.317
154.974
180.468
100
100
100
100
100
100
100
100
100
100
100
100
100
100
100
100
100
100
100
100
100
100
100
100
100
100
100
100
100
100
100
100
100
100
100
100
100
100
100
100
100
100
100
100
100
101.489
100
100
100
100
100
100
100
100
100
100
100
100
100
100
100
149.03
131.896
119.684
110.096
176.884
331.269
305.623
212.845
251.496
262.649
230.211
375.1
220.14
422.394
349.134
172.941
221.201
256.574
313.117
369.665
156.742
133.858
175.268
147.978
157.108
173.953
100
100
100
100
100
100
100
100
100
100
100
100
100
100
100
100
100
100
100
100
100
100
100
100
100
100
100
100
100
100
100
100
100
100
100
100
100
100
100
100
100
100
100
100
100
101.802
100
100
100
100
100
100
100
100
100
100
100
100
100
100
100
152.733
134.203
120.467
110.394
181.321
325.964
313.699
219.848
262.644
248.125
400.961
209.556
236.241
453.326
176.235
223.743
268.297
312.311
362.793
158.113
335.546
167.484
195.586
154.798
154.291
100
100
100
100
100
100
100
100
100
100
100
100
100
100
100
100
100
100
100
100
100
100
100
100
100
100
100
100
100
100
100
100
100
100
100
100
100
100
100
100
100
100
100
100
100
100.972
100
100
100
100
100
100
100
100
100
100
100
100
100
100
100
100
154.893
134.602
120.782
109.595
184.646
336.585
346.258
319.116
225.96
271.664
425.555
222.404
252.639
177.655
229.108
272.771
322.979
362.802
154.697
786.817
170.38
278.616
141.26
134.368
100
100
100
100
100
100
100
100
100
100
100
100
100
100
100
100
100
100
100
100
100
100
100
100
100
100
100
100
100
100
100
100
100
100
100
100
100
100
100
100
100
100
100
100
100
100
100
100
100
100
100
100
100
100
100
100
100
100
100
100
100
100
100
155.475
134.927
119.934
107.72
187.104
359.936
356.323
370.19
330.433
231.88
282.211
450.412
234.724
210.844
168.901
139.813
278.104
329.631
372.125
145.45
173.416
130.499
101.821
128.201
104.232
100
100
100
100
100
100
100
100
100
100
100
100
100
100
100
100
100
100
100
100
100
100
100
100
100
100
100
100
100
100
100
100
100
100
100
100
100
100
100
100
100
100
100
100
100
100
100
100
100
100
100
100
100
100
100
100
100
100
100
100
100
100
100
103.173
156.196
133.584
117.523
189.483
373.736
386.54
380.002
391.79
334.98
237.142
292.573
246.877
200.126
157.655
171.545
255.617
334.186
380.03
138.558
106.521
100
100
109.521
100
100
100
100
100
100
100
100
100
100
100
100
100
100
100
100
100
100
100
100
100
100
100
100
100
100
100
100
100
100
100
100
100
100
100
100
100
100
100
100
100
100
100
100
100
100
100
100
100
100
100
100
100
100
100
100
100
100
100
100
100
100
100
100
100
112.592
154.466
130.403
187.529
210.775
409.213
402.543
410.67
328.022
235.984
291.69
182.891
152.986
206.586
310.839
238.606
384.679
129.831
100
100
100
100
100
100
100
100
100
100
100
100
100
100
100
100
100
100
100
100
100
100
100
100
100
100
100
100
100
100
100
100
100
100
100
100
100
100
100
100
100
100
100
100
100
100
100
100
100
100
100
100
100
100
100
100
100
100
100
100
100
100
100
100
100
100
100
100
107.763
103.192
125.695
150.615
183.148
224.929
339.193
428.294
421.652
320.703
230.556
283.34
174.23
145.718
237.219
370.788
290.365
225.811
122.407
100
100
100
101.673
100
100
100
100
100
100
100
100
100
100
100
100
100
100
100
100
100
100
100
100
100
100
100
100
100
100
100
100
100
100
100
100
100
100
100
100
100
100
100
100
100
100
100
100
100
100
100
100
100
100
100
100
100
100
100
100
100
100
100
100
100
100
100
103.371
100
104.447
121.191
116.618
146.074
177.856
236.6
359.742
333.716
443.587
311.931
223.537
274.692
172.515
139.873
423.685
348.765
277.249
136.802
127.968
100
100
100
100
100
100
100
100
100
100
100
100
100
100
100
100
100
100
100
100
100
100
100
100
100
100
100
100
100
100
100
100
100
100
100
100
100
100
100
100
100
100
100
100
100
100
100
100
100
100.342
100
100
100
100
100
100
100
100
100
100
100
100.443
100
100.278
100.24
104.994
106.195
109.184
113.359
112.111
117.252
141.436
136.589
172.271
245.38
381.047
355.053
328.931
300.508
215.982
265.132
197.903
166.533
138.313
401.177
335.79
168.567
260.298
133.146
100
100
100
100
100
100
100
100
100
100
100
100
100
100
100
100
100
100
100
100
100
100
100
100
100
100
100
100
100
100
100
100
100
100
100
100
100
100
100
100
100
100
100
100
100
100
100
100
100
100
106.792
100
100
100
100
100
100
100
100
100
100
100
100.428
100.401
106.034
107.052
107.285
115.303
116.33
122.475
127.113
131.644
135.761
166.419
397.837
376.588
347.926
318.897
292.746
208.596
257.119
196.301
161.673
145.919
388.682
203.436
314.716
234.972
122.966
100
100
100
100
100
100
100
100
100
100
100
100
100
100
100
100
100
100
100
100
100
100
100
100
100
100
100
100
100
100
100
100
100
100
100
100
100
100
100
100
100
100
100
100
100
100
100
100
100
100
100
116.147
100
100
100
100
100
100
100
100
100
100
100.323
100
104.91
105.405
114.284
116.849
117.31
129.869
131.028
141.476
146.457
160.549
163.079
392.6
367.756
338.157
313.348
286.702
201.424
249.484
186.596
159.246
151.5
235.179
375.364
289.146
145.237
100.975
100
100
100
100
100
100
100
100
100
100
100
100
100
100
100
100
100
100
100
100
100
100
100
100
100
100
100
100
100
100
100
100
100
100
100
100
100
100
100
100
100
100
100
100
100
100
100
100
100
100
100
100
100
129.332
103.305
100
100
100
100
100
100
100
100
102.384
102.117
101.694
110.806
112.59
126.319
130.985
131.095
150.183
151.839
169.176
174.426
203.236
383.304
358.901
331.846
310.707
291.293
251.741
189.432
160.191
143.959
434.27
352.881
175.852
214.192
260.91
100
100
100
100
100
100
100
100
100
100
100
100
100
100
100
100
100
100
100
100
100
100
100
100
100
100
100
100
100
100
100
100
100
100
100
100
100
100
100
100
100
100
100
100
100
100
100
100
100
100
100
100
100
100
100
147.966
107.659
100
100
100
100
100
101.324
101.354
100.815
100.593
105.847
104.308
105.982
119.695
123.356
143.952
151.079
150.336
178.509
180.445
209.379
215.156
375.544
352.61
329.797
317.133
297.386
258.496
183.652
165.409
127.187
412.086
210.761
317.542