/*--------------------------------*- C++ -*----------------------------------*\
  =========                 |
  \\      /  F ield         | OpenFOAM: The Open Source CFD Toolbox
   \\    /   O peration     | Website:  https://openfoam.org
    \\  /    A nd           | Version:  dev
     \\/     M anipulation  |
\*---------------------------------------------------------------------------*/
FoamFile
{
    version     2.0;
    format      ascii;
    class       volScalarField;
    location    "2500";
    object      rho;
}
// * * * * * * * * * * * * * * * * * * * * * * * * * * * * * * * * * * * * * //

dimensions      [1 -3 0 0 0 0 0];

internalField   nonuniform List<scalar> 
9834
(
1.17171
1.17155
1.17164
1.17147
1.17116
1.17166
1.17152
1.17097
1.17118
1.17174
1.17148
1.17082
1.1708
1.17122
1.17177
1.17156
1.1708
1.17058
1.17084
1.17134
1.17181
1.17155
1.17075
1.17044
1.17053
1.17091
1.17143
1.17183
1.1715
1.17077
1.17037
1.17028
1.17057
1.17102
1.17147
1.17184
1.17156
1.17082
1.17033
1.17009
1.17029
1.17069
1.17111
1.17151
1.17184
1.17156
1.17081
1.17032
1.17
1.17003
1.17034
1.17078
1.17118
1.17155
1.17186
1.17153
1.17087
1.17032
1.16996
1.16985
1.17007
1.17046
1.17087
1.17123
1.17155
1.17186
1.1715
1.17092
1.17032
1.16994
1.16974
1.16985
1.17019
1.17059
1.17094
1.17129
1.17158
1.17187
1.17149
1.17097
1.17037
1.16993
1.16966
1.16965
1.16989
1.1703
1.17068
1.17099
1.1713
1.17159
1.17187
1.17149
1.17094
1.17041
1.16994
1.16961
1.16953
1.16968
1.17
1.17041
1.17074
1.17104
1.17132
1.17161
1.17187
1.17149
1.17094
1.17049
1.17001
1.16959
1.16942
1.1695
1.16976
1.17015
1.1705
1.17079
1.17107
1.17134
1.17161
1.17188
1.17147
1.17097
1.17055
1.17001
1.16959
1.16935
1.16934
1.16954
1.16987
1.17024
1.17057
1.17085
1.1711
1.17136
1.17161
1.17189
1.17147
1.17096
1.17058
1.17006
1.16961
1.16929
1.16924
1.16936
1.16963
1.17
1.17033
1.17062
1.17087
1.17111
1.17136
1.17162
1.17188
1.17149
1.17096
1.17057
1.17012
1.16968
1.16928
1.16915
1.16919
1.16943
1.16975
1.1701
1.17039
1.17065
1.17089
1.17112
1.17137
1.17164
1.17189
1.17146
1.17095
1.1706
1.17022
1.16976
1.16927
1.16909
1.16905
1.16924
1.16953
1.16987
1.17018
1.17044
1.17068
1.17091
1.17113
1.17138
1.17164
1.17189
1.17146
1.17097
1.17059
1.17024
1.16976
1.16929
1.16904
1.16896
1.16905
1.16932
1.16965
1.16997
1.17024
1.17047
1.1707
1.17091
1.17114
1.17138
1.17165
1.17189
1.17148
1.17098
1.17064
1.17026
1.1698
1.16935
1.16903
1.16889
1.16891
1.16914
1.16944
1.16976
1.17004
1.17029
1.1705
1.17071
1.17092
1.17116
1.17139
1.17165
1.1719
1.17148
1.17097
1.17065
1.17027
1.16988
1.1694
1.16904
1.16883
1.16881
1.16895
1.16923
1.16955
1.16984
1.1701
1.17032
1.17053
1.17073
1.17093
1.17115
1.17139
1.17166
1.1719
1.17147
1.17098
1.17067
1.17033
1.16994
1.16947
1.16907
1.16881
1.16872
1.16879
1.16904
1.16935
1.16965
1.16991
1.17013
1.17034
1.17053
1.17073
1.17093
1.17115
1.1714
1.17166
1.17191
1.17148
1.17101
1.17068
1.17036
1.17003
1.16957
1.16911
1.1688
1.16865
1.16868
1.16885
1.16916
1.16945
1.16973
1.16997
1.17016
1.17035
1.17053
1.17073
1.17093
1.17116
1.1714
1.17167
1.17192
1.17149
1.17103
1.1707
1.17038
1.17007
1.16963
1.16918
1.16881
1.16861
1.16858
1.1687
1.16896
1.16926
1.16954
1.16978
1.17
1.17019
1.17036
1.17054
1.17073
1.17093
1.17116
1.17142
1.17167
1.17192
1.17151
1.17106
1.17073
1.17043
1.1701
1.16969
1.16926
1.16884
1.16858
1.1685
1.16857
1.16877
1.16908
1.16937
1.16962
1.16983
1.17002
1.1702
1.17036
1.17054
1.17072
1.17094
1.17116
1.17142
1.17168
1.17192
1.17151
1.17108
1.17076
1.17047
1.17013
1.16978
1.16936
1.16889
1.16858
1.16844
1.16846
1.16861
1.16888
1.16918
1.16945
1.16968
1.16986
1.17003
1.1702
1.17036
1.17053
1.17072
1.17093
1.17117
1.17144
1.17169
1.17193
1.17152
1.1711
1.17077
1.17049
1.17017
1.16983
1.16939
1.16893
1.16858
1.1684
1.16837
1.16848
1.16872
1.169
1.16928
1.16951
1.16971
1.16989
1.17004
1.1702
1.17036
1.17053
1.17072
1.17094
1.17118
1.17144
1.1717
1.17193
1.17154
1.17112
1.1708
1.17053
1.1702
1.16986
1.16951
1.16899
1.16861
1.16838
1.16829
1.16837
1.16855
1.16884
1.16912
1.16936
1.16957
1.16974
1.16989
1.17004
1.17019
1.17035
1.17053
1.17072
1.17094
1.17119
1.17145
1.17171
1.17194
1.17154
1.17113
1.17083
1.17055
1.17024
1.16993
1.16957
1.16908
1.16866
1.16837
1.16825
1.16826
1.16842
1.16868
1.16896
1.16921
1.16942
1.1696
1.16975
1.16989
1.17003
1.17018
1.17034
1.17052
1.17072
1.17094
1.1712
1.17146
1.17171
1.17194
1.17155
1.17116
1.17085
1.17058
1.17028
1.16997
1.16964
1.16917
1.16871
1.16838
1.1682
1.16817
1.1683
1.16853
1.16882
1.16907
1.16928
1.16946
1.16961
1.16975
1.16988
1.17002
1.17017
1.17033
1.17051
1.17071
1.17095
1.1712
1.17147
1.17172
1.17194
1.17158
1.17119
1.17087
1.1706
1.17032
1.17002
1.16967
1.16926
1.16879
1.1684
1.16818
1.16812
1.16819
1.16839
1.16867
1.16894
1.16915
1.16933
1.16948
1.16961
1.16974
1.16987
1.17001
1.17016
1.17032
1.1705
1.17071
1.17095
1.17121
1.17147
1.17172
1.17194
1.17158
1.17119
1.17089
1.17063
1.17036
1.17007
1.16973
1.16935
1.16887
1.16845
1.16818
1.16806
1.16809
1.16826
1.16852
1.1688
1.16904
1.16921
1.16935
1.16949
1.1696
1.16973
1.16986
1.17
1.17015
1.17031
1.1705
1.17071
1.17095
1.17121
1.17147
1.17171
1.17194
1.1716
1.17124
1.17093
1.17066
1.17039
1.17011
1.16977
1.16941
1.16896
1.1685
1.16819
1.16802
1.16801
1.16813
1.16837
1.16865
1.16891
1.16911
1.16924
1.16937
1.16948
1.16959
1.16971
1.16984
1.16998
1.17013
1.1703
1.1705
1.17071
1.17095
1.1712
1.17146
1.17171
1.17203
1.17193
1.1716
1.17124
1.17095
1.17068
1.17042
1.17013
1.1698
1.16945
1.16904
1.16856
1.16821
1.16801
1.16794
1.16802
1.16822
1.16848
1.16875
1.16898
1.16914
1.16926
1.16937
1.16946
1.16957
1.16969
1.16982
1.16997
1.17012
1.1703
1.17049
1.17071
1.17094
1.17119
1.17147
1.17181
1.17169
1.17203
1.17192
1.17162
1.17126
1.17099
1.17069
1.17044
1.17015
1.16985
1.1695
1.16911
1.16863
1.16824
1.168
1.16789
1.16792
1.16809
1.16834
1.16859
1.16882
1.16901
1.16915
1.16926
1.16935
1.16943
1.16954
1.16967
1.16981
1.16996
1.17012
1.17029
1.17048
1.1707
1.17093
1.17128
1.17116
1.17155
1.17133
1.17142
1.17181
1.17168
1.17203
1.17192
1.17164
1.17128
1.17101
1.17072
1.17045
1.17018
1.16988
1.16954
1.16918
1.16871
1.1683
1.16802
1.16787
1.16786
1.16799
1.16823
1.16848
1.16868
1.16887
1.16901
1.16912
1.16919
1.16926
1.16936
1.1695
1.16964
1.1698
1.16995
1.17011
1.17028
1.17047
1.17069
1.17103
1.1709
1.17119
1.17154
1.17128
1.1714
1.17179
1.17166
1.17202
1.17191
1.17164
1.17129
1.17101
1.17075
1.17049
1.1702
1.1699
1.16958
1.16922
1.16878
1.16835
1.16804
1.16785
1.16782
1.16792
1.16813
1.16838
1.16862
1.16875
1.16886
1.16891
1.16889
1.16887
1.16896
1.16917
1.16941
1.16961
1.16978
1.16994
1.17011
1.17028
1.17046
1.17077
1.17065
1.17105
1.1709
1.17113
1.17152
1.17125
1.17137
1.17178
1.17164
1.17202
1.17189
1.17164
1.17133
1.17102
1.17076
1.1705
1.1702
1.16994
1.16961
1.16928
1.16885
1.16841
1.16806
1.16784
1.16777
1.16786
1.16805
1.16829
1.16853
1.16869
1.16874
1.16865
1.16832
1.16785
1.16764
1.16805
1.16874
1.16926
1.16957
1.16977
1.16994
1.1701
1.17027
1.17052
1.17041
1.17076
1.17063
1.17098
1.17084
1.1711
1.17149
1.17122
1.17133
1.17175
1.1716
1.17202
1.17188
1.17165
1.17133
1.17103
1.1708
1.17054
1.17022
1.16994
1.16962
1.16931
1.16892
1.16848
1.16811
1.16785
1.16772
1.16776
1.16796
1.16822
1.16844
1.16862
1.16865
1.1684
1.16756
1.16608
1.16464
1.16448
1.16604
1.16789
1.16902
1.16952
1.16977
1.16994
1.17009
1.1703
1.1702
1.1705
1.17038
1.1707
1.17056
1.17095
1.1708
1.17106
1.17144
1.17117
1.17128
1.17173
1.17157
1.17201
1.17186
1.17168
1.17135
1.17105
1.17079
1.17051
1.17023
1.16995
1.16965
1.16935
1.16899
1.16855
1.16816
1.16786
1.16769
1.16768
1.16783
1.1681
1.16839
1.16855
1.16858
1.16819
1.16684
1.16419
1.161
1.15894
1.15956
1.16333
1.16706
1.16885
1.16951
1.16977
1.16994
1.1701
1.17001
1.17026
1.17015
1.17042
1.17029
1.17064
1.17049
1.1709
1.17073
1.171
1.17139
1.1711
1.17121
1.1717
1.17152
1.172
1.17184
1.17167
1.17134
1.17107
1.17081
1.17054
1.17024
1.16996
1.16967
1.16938
1.16902
1.16863
1.16822
1.16789
1.16768
1.16762
1.16772
1.16796
1.16827
1.1685
1.16852
1.16806
1.16634
1.16275
1.15807
1.15397
1.15228
1.15469
1.16125
1.16677
1.16889
1.16953
1.16978
1.16992
1.16983
1.17002
1.16987
1.17013
1.1699
1.1703
1.17004
1.17054
1.17028
1.17082
1.17059
1.1709
1.17132
1.17099
1.1711
1.17166
1.17146
1.172
1.17182
1.17169
1.17138
1.1711
1.17085
1.17054
1.17025
1.16996
1.16967
1.16939
1.16905
1.16869
1.16829
1.16792
1.16768
1.16758
1.16764
1.16783
1.16813
1.16841
1.16849
1.16802
1.16605
1.16196
1.15656
1.15115
1.14699
1.14627
1.15119
1.16086
1.16709
1.16901
1.16957
1.16974
1.16962
1.16965
1.16929
1.16953
1.16885
1.16956
1.16862
1.1698
1.16879
1.1702
1.16937
1.17063
1.17008
1.17067
1.17122
1.17075
1.17086
1.17161
1.17137
1.17199
1.17179
1.1717
1.17138
1.17112
1.17087
1.17058
1.17028
1.16998
1.16968
1.16939
1.16907
1.16873
1.16835
1.16796
1.16769
1.16755
1.16757
1.16773
1.168
1.1683
1.16842
1.16804
1.16604
1.16146
1.15638
1.15127
1.14573
1.1416
1.14231
1.15061
1.16211
1.16773
1.16922
1.16949
1.16933
1.16891
1.16831
1.1677
1.16615
1.16677
1.16391
1.16669
1.16277
1.16743
1.16337
1.16874
1.1655
1.16995
1.16799
1.16988
1.17102
1.16993
1.17013
1.17155
1.17122
1.17199
1.17176
1.1717
1.17139
1.17113
1.17088
1.17064
1.17034
1.17003
1.16968
1.16939
1.16909
1.16875
1.16841
1.16799
1.1677
1.16754
1.16751
1.16763
1.16788
1.16818
1.16835
1.1681
1.16625
1.16166
1.15738
1.15369
1.14758
1.14125
1.13752
1.14158
1.15292
1.16451
1.16843
1.16896
1.16935
1.16785
1.16714
1.16431
1.16227
1.16042
1.15667
1.15769
1.15216
1.15699
1.14978
1.15884
1.1501
1.1632
1.1537
1.16729
1.16084
1.16692
1.17045
1.16703
1.16765
1.17146
1.17084
1.17198
1.17172
1.17169
1.17138
1.17112
1.17087
1.17063
1.17037
1.17004
1.16967
1.16939
1.16909
1.16878
1.16845
1.16803
1.16772
1.16753
1.16746
1.16755
1.16777
1.16806
1.16828
1.16816
1.16669
1.16226
1.15855
1.15656
1.15274
1.14461
1.137
1.13588
1.14436
1.1577
1.16671
1.16644
1.16655
1.16494
1.16034
1.15836
1.15304
1.14965
1.14672
1.14171
1.14253
1.13566
1.14097
1.13222
1.14273
1.13194
1.14872
1.13579
1.15901
1.14463
1.15832
1.16862
1.15891
1.16057
1.17126
1.16974
1.17197
1.17165
1.17168
1.17137
1.17112
1.17087
1.17062
1.17038
1.17001
1.16964
1.1694
1.16909
1.16879
1.16846
1.16807
1.16774
1.16753
1.16743
1.16747
1.16766
1.16794
1.1682
1.16819
1.16713
1.16318
1.1593
1.15819
1.15681
1.15111
1.13971
1.13336
1.1377
1.15074
1.16304
1.1645
1.15342
1.15183
1.15664
1.15497
1.14668
1.14394
1.13726
1.13333
1.12945
1.12396
1.12405
1.11667
1.12156
1.11238
1.12299
1.11136
1.12962
1.11522
1.14179
1.12472
1.14074
1.16327
1.14186
1.14529
1.17074
1.16647
1.17196
1.17152
1.17165
1.17135
1.1711
1.17085
1.1706
1.17036
1.17
1.16966
1.1694
1.16907
1.16878
1.16847
1.1681
1.16776
1.16753
1.1674
1.16741
1.16756
1.16782
1.16811
1.16819
1.1675
1.16427
1.15986
1.15897
1.15936
1.1561
1.14544
1.13311
1.13312
1.14441
1.15811
1.16165
1.15014
1.14887
1.13787
1.13628
1.14162
1.13961
1.12996
1.12691
1.1192
1.1151
1.11034
1.10474
1.10383
1.09695
1.10069
1.09252
1.10162
1.09133
1.10838
1.09393
1.12159
1.10321
1.12048
1.15135
1.12162
1.12521
1.16931
1.15866
1.17197
1.17119
1.17161
1.17128
1.17104
1.17081
1.17058
1.17032
1.17
1.16964
1.16938
1.16907
1.16878
1.16849
1.16812
1.16779
1.16753
1.16738
1.16735
1.16746
1.16771
1.16801
1.16816
1.16778
1.16534
1.16047
1.15931
1.16057
1.15947
1.15109
1.13526
1.13014
1.13829
1.15204
1.15688
1.14615
1.1469
1.13475
1.13318
1.12036
1.11875
1.12435
1.12219
1.11165
1.10861
1.10015
1.09649
1.09173
1.08836
1.0878
1.08516
1.08614
1.08395
1.08606
1.08326
1.08872
1.08304
1.10022
1.0857
1.09945
1.13201
1.10116
1.10487
1.16511
1.14189
1.17196
1.16993
1.17163
1.17119
1.17094
1.17075
1.17053
1.17025
1.16996
1.16959
1.16935
1.16906
1.16877
1.16848
1.16813
1.1678
1.16754
1.16737
1.16731
1.16738
1.16759
1.16789
1.1681
1.16795
1.16624
1.16146
1.15944
1.16067
1.16145
1.15624
1.14054
1.12851
1.13222
1.14532
1.1512
1.13436
1.13167
1.12752
1.11726
1.11586
1.10236
1.10095
1.10613
1.10405
1.09357
1.0912
1.08613
1.08459
1.08374
1.08294
1.0831
1.08299
1.08266
1.08337
1.08181
1.08294
1.08121
1.08143
1.08381
1.07978
1.0829
1.11059
1.08339
1.08614
1.15457
1.11846
1.17146
1.16258
1.17139
1.17086
1.17062
1.17045
1.17016
1.16991
1.16956
1.16933
1.16905
1.16876
1.16846
1.16813
1.16782
1.16755
1.16736
1.16728
1.16731
1.16749
1.16777
1.16803
1.16803
1.16694
1.16288
1.15956
1.16022
1.16242
1.16018
1.14741
1.1292
1.12727
1.13796
1.14533
1.13052
1.11126
1.11218
1.11437
1.11297
1.09966
1.09862
1.08722
1.08662
1.08943
1.08811
1.08349
1.08273
1.08236
1.08198
1.08327
1.08394
1.08526
1.08803
1.08641
1.09177
1.08475
1.09216
1.0812
1.08782
1.07836
1.08087
1.07696
1.08975
1.07572
1.07493
1.12849
1.09216
1.15507
1.11427
1.17121
1.17051
1.17029
1.17003
1.16985
1.16953
1.16932
1.16903
1.16875
1.16845
1.16813
1.16784
1.16755
1.16736
1.16725
1.16726
1.16739
1.16765
1.16794
1.16803
1.16742
1.16435
1.15983
1.15961
1.16246
1.16248
1.1545
1.13437
1.12471
1.13011
1.139
1.12756
1.10244
1.09615
1.09415
1.09756
1.0967
1.08609
1.08598
1.08172
1.08172
1.08223
1.08183
1.08185
1.08189
1.08489
1.08598
1.09083
1.09329
1.09701
1.10119
1.10069
1.10702
1.09878
1.10915
1.09074
1.10514
1.07985
1.09216
1.07771
1.07401
1.07513
1.07376
1.07211
1.08201
1.07672
1.07219
1.11631
1.07248
1.17067
1.17007
1.16986
1.16977
1.16953
1.16928
1.16899
1.16872
1.16842
1.16811
1.16785
1.16756
1.16735
1.16723
1.1672
1.16731
1.16754
1.16782
1.168
1.16771
1.16556
1.16061
1.15922
1.16141
1.16344
1.15994
1.14369
1.12519
1.12379
1.13146
1.12577
1.1028
1.08854
1.09047
1.08682
1.08757
1.086
1.08623
1.08182
1.08213
1.08278
1.08337
1.08204
1.08234
1.08716
1.08842
1.09549
1.09755
1.10427
1.10659
1.10999
1.111
1.114
1.11448
1.11549
1.11827
1.10945
1.12026
1.09195
1.1112
1.10164
1.08199
1.09101
1.07248
1.06962
1.07101
1.0783
1.08696
1.08913
1.07659
1.06804
1.06586
1.06869
1.06753
1.1475
1.06294
1.08657
1.0657
1.16998
1.16961
1.16964
1.16947
1.1692
1.16894
1.16868
1.16839
1.16809
1.16785
1.16757
1.16735
1.16721
1.16716
1.16723
1.16743
1.1677
1.16793
1.16785
1.16647
1.16205
1.15909
1.16009
1.16348
1.16307
1.15294
1.13047
1.12142
1.12387
1.12364
1.1044
1.09161
1.09421
1.08747
1.08901
1.08472
1.08603
1.08277
1.08363
1.08412
1.08503
1.09201
1.09302
1.08969
1.0909
1.09959
1.10172
1.10869
1.11111
1.11146
1.11241
1.11345
1.11171
1.11674
1.11181
1.12065
1.12038
1.1186
1.11514
1.11813
1.12256
1.1215
1.12179
1.12335
1.11168
1.10059
1.1114
1.11958
1.09946
1.07493
1.06884
1.0732
1.08415
1.09462
1.09732
1.08192
1.06317
1.06522
1.06693
1.15266
1.097
1.07978
1.06249
1.06499
1.16939
1.1694
1.16936
1.16913
1.16888
1.16863
1.16835
1.16807
1.16783
1.16757
1.16734
1.1672
1.16713
1.16717
1.16733
1.16759
1.16785
1.1679
1.16709
1.16364
1.15919
1.15912
1.16229
1.16429
1.15984
1.14154
1.1224
1.11919
1.11949
1.10727
1.09549
1.09073
1.09203
1.09071
1.09172
1.0884
1.08958
1.08609
1.08722
1.09391
1.09462
1.10624
1.10675
1.10367
1.10522
1.11387
1.11676
1.1141
1.11692
1.1104
1.11029
1.10479
1.09809
1.11075
1.10513
1.09966
1.09352
1.11853
1.11381
1.10781
1.12373
1.12452
1.11802
1.11742
1.12242
1.12004
1.1101
1.11974
1.12453
1.10847
1.07999
1.07129
1.0781
1.09174
1.10616
1.10335
1.08911
1.06503
1.06328
1.06934
1.10023
1.07004
1.06991
1.06255
1.06268
1.16905
1.16917
1.16903
1.1688
1.16857
1.1683
1.16804
1.1678
1.16757
1.16734
1.16718
1.16711
1.16712
1.16724
1.16747
1.16774
1.16788
1.16747
1.16499
1.15987
1.15857
1.16065
1.16439
1.16376
1.15232
1.12899
1.11846
1.11564
1.10868
1.09931
1.09477
1.09605
1.09275
1.09364
1.09561
1.09553
1.09559
1.09564
1.09512
1.09542
1.10658
1.10599
1.12073
1.11997
1.11912
1.12056
1.12103
1.12606
1.11217
1.1162
1.09395
1.09346
1.08854
1.0834
1.08013
1.0771
1.10105
1.09401
1.08722
1.08108
1.11208
1.10483
1.09688
1.12525
1.12285
1.11055
1.10947
1.11722
1.1249
1.11875
1.12492
1.1258
1.11719
1.08681
1.07601
1.08454
1.10031
1.11493
1.1121
1.09727
1.06713
1.06471
1.07354
1.09889
1.06216
1.07092
1.06258
1.061
1.16891
1.16889
1.16871
1.16851
1.16825
1.16799
1.16776
1.16756
1.16733
1.16716
1.16708
1.16709
1.16717
1.16736
1.16762
1.16782
1.16767
1.16603
1.16132
1.15838
1.15927
1.16314
1.16525
1.16036
1.14124
1.12062
1.11446
1.10899
1.10207
1.09781
1.09592
1.09634
1.09552
1.09561
1.09915
1.09799
1.10202
1.10054
1.10487
1.10348
1.11801
1.11511
1.13268
1.13028
1.13094
1.13303
1.12211
1.1293
1.09658
1.1041
1.07592
1.07532
1.07606
1.07782
1.07596
1.07206
1.06944
1.06807
1.08889
1.08143
1.07495
1.06973
1.10223
1.09332
1.0846
1.12336
1.11746
1.10028
1.09911
1.10904
1.12625
1.12462
1.12663
1.12409
1.12378
1.09441
1.08188
1.0915
1.10896
1.12226
1.11992
1.10554
1.07043
1.06686
1.07849
1.12453
1.06205
1.0852
1.06332
1.06113
1.16871
1.16861
1.16844
1.16819
1.16794
1.16772
1.16754
1.16732
1.16714
1.16705
1.16704
1.16713
1.16728
1.1675
1.16773
1.16773
1.16673
1.1629
1.15847
1.15833
1.16136
1.16543
1.16474
1.15326
1.12949
1.11533
1.10923
1.10349
1.09932
1.0966
1.09705
1.09636
1.09638
1.09712
1.09657
1.1007
1.09886
1.10572
1.103
1.11193
1.10874
1.12593
1.12102
1.14116
1.13748
1.13748
1.14126
1.1154
1.12862
1.07979
1.08946
1.06784
1.06879
1.07065
1.07308
1.06593
1.06359
1.06266
1.06303
1.07671
1.07006
1.06489
1.06127
1.09059
1.08128
1.07304
1.11823
1.10931
1.08872
1.08775
1.09877
1.12496
1.12665
1.12596
1.11946
1.12655
1.10205
1.08803
1.09834
1.11683
1.12608
1.12504
1.11314
1.07423
1.06937
1.08353
1.1652
1.06549
1.11354
1.06449
1.0621
1.16848
1.16835
1.16812
1.16789
1.16768
1.16752
1.16731
1.16713
1.16702
1.16699
1.16707
1.16723
1.16743
1.16763
1.16772
1.16715
1.16426
1.15905
1.15783
1.15981
1.16429
1.16628
1.16183
1.14367
1.12055
1.11048
1.10465
1.1003
1.09692
1.09583
1.0959
1.09604
1.09583
1.09749
1.09656
1.10141
1.09925
1.10762
1.1042
1.11616
1.11164
1.13184
1.12574
1.14797
1.14497
1.14117
1.14702
1.10475
1.12417
1.07536
1.07931
1.09
1.08354
1.06465
1.06698
1.06954
1.0723
1.05921
1.05873
1.05952
1.06175
1.06628
1.06114
1.05766
1.05583
1.0789
1.07032
1.0634
1.1103
1.09925
1.07737
1.07666
1.08763
1.12108
1.12664
1.12286
1.11198
1.12717
1.10915
1.09386
1.10457
1.12298
1.12738
1.12727
1.11963
1.07799
1.07168
1.08817
1.16677
1.07077
1.11729
1.06537
1.06308
1.16824
1.16805
1.16783
1.16763
1.16748
1.16729
1.16711
1.16699
1.16695
1.16701
1.16716
1.16737
1.16755
1.16765
1.16734
1.16523
1.1602
1.15766
1.15862
1.16252
1.16651
1.16594
1.15649
1.13603
1.11627
1.1072
1.10185
1.0983
1.09646
1.09742
1.09556
1.09577
1.09585
1.09556
1.09765
1.09653
1.10347
1.1011
1.1103
1.10652
1.11996
1.11479
1.13919
1.13286
1.15493
1.15386
1.14364
1.15284
1.09744
1.10745
1.12298
1.07761
1.08104
1.091
1.08527
1.0645
1.06772
1.07122
1.07449
1.05558
1.0565
1.05908
1.06241
1.05825
1.05483
1.05308
1.05286
1.06841
1.06125
1.05601
1.10056
1.08835
1.06721
1.0667
1.07672
1.11431
1.12452
1.11717
1.10274
1.12608
1.11516
1.09898
1.10984
1.12649
1.12746
1.12815
1.12425
1.08123
1.07337
1.09199
1.15981
1.0721
1.09346
1.06582
1.0635
1.16796
1.16776
1.16759
1.16745
1.16726
1.16708
1.16696
1.16691
1.16695
1.16709
1.1673
1.1675
1.16759
1.16737
1.16577
1.16129
1.15767
1.15783
1.16101
1.16578
1.1672
1.16412
1.1522
1.13324
1.11484
1.10579
1.10164
1.10149
1.09852
1.10078
1.097
1.09743
1.09729
1.09695
1.09935
1.09809
1.10928
1.10662
1.11671
1.11264
1.12684
1.12145
1.14932
1.14381
1.16119
1.16191
1.14532
1.15726
1.09836
1.1075
1.11994
1.13104
1.08263
1.08562
1.09446
1.08933
1.06675
1.07146
1.07589
1.07958
1.05369
1.05629
1.05983
1.0648
1.05258
1.05081
1.05052
1.05112
1.05973
1.05429
1.05076
1.08995
1.07758
1.05876
1.05832
1.06683
1.10573
1.12029
1.10958
1.09257
1.12367
1.11985
1.10313
1.11382
1.12809
1.1265
1.12831
1.12668
1.08365
1.07449
1.09487
1.1201
1.06714
1.07515
1.06613
1.06289
1.16769
1.16755
1.16743
1.16723
1.16706
1.16693
1.16687
1.1669
1.16701
1.16721
1.16739
1.16752
1.16734
1.16593
1.16198
1.15788
1.15737
1.15981
1.16439
1.16737
1.16709
1.16231
1.15083
1.13332
1.1174
1.10981
1.10904
1.11132
1.11516
1.10481
1.10788
1.10214
1.10301
1.10232
1.10196
1.10463
1.10324
1.12035
1.11741
1.12824
1.12398
1.13826
1.13303
1.16044
1.157
1.16391
1.16563
1.1411
1.15077
1.15893
1.10127
1.10991
1.12279
1.13262
1.08943
1.09199
1.09957
1.09512
1.07066
1.07678
1.08227
1.08645
1.05333
1.0567
1.06134
1.06742
1.04893
1.04856
1.04895
1.05062
1.05303
1.04932
1.04734
1.07935
1.06771
1.05218
1.05173
1.05842
1.09627
1.11448
1.10162
1.08234
1.12015
1.12281
1.10611
1.11621
1.12851
1.12493
1.1278
1.12742
1.08536
1.07518
1.09679
1.15872
1.06363
1.09948
1.06627
1.06203
1.16753
1.1674
1.16721
1.16703
1.1669
1.16683
1.16685
1.16695
1.16709
1.16727
1.16739
1.16722
1.1659
1.16217
1.15808
1.15715
1.15894
1.16315
1.16705
1.16783
1.16663
1.16177
1.15114
1.13812
1.12876
1.1269
1.1349
1.12533
1.13243
1.11687
1.12054
1.11296
1.11441
1.1127
1.11244
1.11519
1.11362
1.13637
1.13333
1.14396
1.13996
1.15284
1.14833
1.16604
1.1655
1.16357
1.16549
1.16674
1.14207
1.15062
1.16121
1.15607
1.10578
1.11367
1.12624
1.13466
1.09713
1.09934
1.10574
1.10193
1.07469
1.08238
1.08918
1.0941
1.05341
1.05746
1.06299
1.07001
1.04686
1.04709
1.04839
1.05069
1.0482
1.04604
1.04543
1.06957
1.05926
1.04741
1.04695
1.05177
1.08705
1.1089
1.09463
1.07304
1.1164
1.12386
1.10766
1.11686
1.12829
1.12254
1.12635
1.12699
1.08632
1.07546
1.09753
1.16461
1.06701
1.11924
1.06615
1.06209
1.16737
1.16718
1.16699
1.16686
1.16679
1.16679
1.16686
1.16699
1.16708
1.16708
1.16684
1.16563
1.1621
1.15812
1.15706
1.15838
1.16221
1.16646
1.16789
1.16791
1.1665
1.1621
1.15521
1.14943
1.14843
1.15345
1.15649
1.15978
1.14324
1.14984
1.13386
1.13794
1.12916
1.13097
1.12852
1.12836
1.13095
1.12936
1.15448
1.15199
1.15993
1.1572
1.16421
1.16222
1.1679
1.16829
1.16313
1.16525
1.16625
1.16735
1.14275
1.15006
1.15949
1.15501
1.11128
1.11823
1.13008
1.13698
1.10507
1.10708
1.11257
1.10925
1.0783
1.08716
1.0954
1.10166
1.05415
1.05894
1.06503
1.07272
1.04553
1.04657
1.04841
1.05118
1.04503
1.04432
1.04438
1.06134
1.0527
1.04429
1.04392
1.04705
1.07962
1.10357
1.08835
1.06609
1.11229
1.1233
1.10776
1.11628
1.12722
1.11939
1.1239
1.12539
1.0865
1.0754
1.09729
1.16798
1.07321
1.13359
1.06553
1.06237
1.16715
1.16696
1.16683
1.16674
1.16673
1.16677
1.16682
1.16673
1.16639
1.16581
1.16476
1.16174
1.15809
1.15704
1.15811
1.1616
1.16592
1.16776
1.16813
1.16797
1.16678
1.16439
1.16232
1.16203
1.16425
1.16753
1.16625
1.16769
1.16011
1.16358
1.15317
1.15646
1.14884
1.15058
1.14802
1.14797
1.14997
1.1487
1.16573
1.1649
1.16733
1.16656
1.16831
1.16789
1.16817
1.16894
1.16131
1.16423
1.16519
1.16692
1.14364
1.14977
1.15799
1.15424
1.11738
1.12334
1.13403
1.1394
1.11271
1.11483
1.1197
1.11678
1.08184
1.0917
1.10101
1.10838
1.05495
1.05985
1.06637
1.07445
1.04492
1.04663
1.04882
1.05188
1.04348
1.04345
1.04384
1.05565
1.04857
1.04291
1.0427
1.04432
1.0734
1.09823
1.0826
1.06073
1.10777
1.12109
1.10677
1.11353
1.12488
1.11557
1.12012
1.1222
1.08607
1.07469
1.09596
1.17097
1.07879
1.14921
1.06445
1.06252
1.16693
1.16678
1.1667
1.16667
1.16666
1.16654
1.16615
1.16533
1.16443
1.16322
1.16073
1.15796
1.15705
1.15806
1.16134
1.16554
1.16754
1.16811
1.16826
1.16817
1.1677
1.16724
1.16722
1.16794
1.16887
1.16932
1.169
1.16918
1.16791
1.16859
1.1659
1.16698
1.16399
1.16484
1.16341
1.16349
1.16417
1.16368
1.16915
1.16899
1.16939
1.16928
1.16925
1.16938
1.16723
1.16826
1.16913
1.16876
1.16045
1.16298
1.16445
1.16599
1.14469
1.14971
1.15757
1.15414
1.12377
1.12867
1.13824
1.14226
1.11974
1.12223
1.12701
1.12431
1.08417
1.09513
1.10597
1.11464
1.05586
1.06092
1.06723
1.07527
1.0451
1.04703
1.04938
1.05246
1.04277
1.04303
1.04408
1.05152
1.04563
1.04236
1.04235
1.04306
1.06807
1.093
1.07737
1.05642
1.10299
1.11611
1.10363
1.10713
1.12062
1.11074
1.11452
1.116
1.08446
1.07324
1.09253
1.17174
1.08577
1.15779
1.06317
1.06249
1.16675
1.16666
1.16661
1.16653
1.16625
1.16541
1.16421
1.163
1.16164
1.15946
1.15771
1.15711
1.15813
1.16134
1.16539
1.16738
1.16801
1.16825
1.16841
1.16849
1.1685
1.16858
1.16882
1.16911
1.16931
1.16945
1.16942
1.16942
1.16942
1.16934
1.16939
1.16911
1.16924
1.1688
1.16895
1.16868
1.1687
1.16884
1.16874
1.16976
1.16974
1.16975
1.16977
1.16939
1.16965
1.16698
1.16786
1.16904
1.16855
1.16033
1.1626
1.16442
1.16584
1.14637
1.15038
1.15774
1.15493
1.1304
1.13423
1.1429
1.14584
1.12644
1.12931
1.13407
1.13149
1.08518
1.09664
1.10872
1.11951
1.05632
1.0612
1.0675
1.07547
1.04563
1.04757
1.04992
1.0527
1.04256
1.04312
1.04461
1.0482
1.04428
1.04239
1.04271
1.04296
1.06329
1.0877
1.07176
1.05225
1.09707
1.10768
1.09668
1.09792
1.11255
1.1031
1.10376
1.10593
1.08177
1.07123
1.08677
1.1716
1.08832
1.15526
1.06205
1.06199
1.16662
1.16654
1.16642
1.1659
1.1647
1.16308
1.16162
1.1601
1.15864
1.15762
1.15728
1.15841
1.16154
1.1654
1.1673
1.16791
1.16814
1.16836
1.16854
1.16869
1.16881
1.16895
1.16911
1.16925
1.1694
1.16948
1.1695
1.16947
1.16951
1.16955
1.16954
1.16958
1.16957
1.16959
1.16958
1.16963
1.16961
1.1697
1.16967
1.1699
1.16988
1.16985
1.16989
1.16926
1.16951
1.16972
1.16698
1.1678
1.16891
1.16845
1.16082
1.16274
1.16479
1.16596
1.14892
1.15199
1.15883
1.15667
1.13703
1.13999
1.1477
1.14994
1.13123
1.13651
1.14097
1.1391
1.08533
1.09696
1.10954
1.12152
1.05622
1.06057
1.06621
1.07348
1.04646
1.04817
1.0502
1.05246
1.04282
1.04359
1.04566
1.04673
1.04476
1.04297
1.04466
1.04421
1.05751
1.08069
1.06371
1.05042
1.08699
1.09764
1.08878
1.08932
1.1
1.09013
1.09011
1.09461
1.07776
1.06908
1.08076
1.16089
1.08323
1.12873
1.06084
1.06072
1.1665
1.16631
1.16561
1.16396
1.16202
1.16035
1.15908
1.15817
1.15765
1.15761
1.15911
1.1622
1.16557
1.16726
1.16784
1.16804
1.1682
1.16842
1.16862
1.16879
1.16893
1.16905
1.16918
1.16932
1.16946
1.16953
1.16954
1.1695
1.16957
1.16963
1.1696
1.16968
1.16966
1.16974
1.16971
1.16981
1.16977
1.16987
1.16984
1.17
1.16999
1.16993
1.16998
1.16927
1.16953
1.16983
1.16972
1.16726
1.16787
1.1689
1.16846
1.16211
1.16354
1.16576
1.16652
1.15219
1.15448
1.16073
1.15913
1.14325
1.14548
1.15329
1.15456
1.13254
1.14071
1.14802
1.14524
1.08282
1.09431
1.1075
1.12087
1.05511
1.0583
1.06259
1.06833
1.0475
1.04916
1.0507
1.05251
1.04367
1.04524
1.04762
1.04778
1.04709
1.04612
1.05084
1.04841
1.05541
1.06991
1.06083
1.05254
1.07488
1.08884
1.08186
1.08221
1.08874
1.07833
1.08098
1.08608
1.07377
1.0662
1.07579
1.08756
1.06869
1.07004
1.05935
1.05813
1.16625
1.16533
1.16338
1.16107
1.15943
1.15854
1.15803
1.1578
1.15827
1.16016
1.16322
1.16596
1.16726
1.16775
1.16794
1.16809
1.16825
1.16843
1.16865
1.16883
1.16896
1.16909
1.16924
1.16936
1.16951
1.16954
1.16958
1.16958
1.16961
1.16968
1.16965
1.16975
1.16972
1.16981
1.16978
1.1699
1.16986
1.16995
1.16993
1.17012
1.17008
1.17005
1.16987
1.17011
1.16926
1.16953
1.16976
1.16763
1.16801
1.16888
1.16849
1.16402
1.16494
1.1668
1.16715
1.15589
1.15759
1.16327
1.16222
1.1501
1.15178
1.15775
1.15956
1.12768
1.13954
1.15007
1.14625
1.07623
1.08649
1.09935
1.11359
1.05436
1.05644
1.05865
1.06154
1.04968
1.05102
1.05234
1.05344
1.04793
1.05218
1.05462
1.05175
1.05367
1.05411
1.05446
1.05448
1.05717
1.066
1.06185
1.05643
1.07104
1.08207
1.07679
1.07831
1.08193
1.07573
1.07873
1.08108
1.06979
1.0633
1.07202
1.08786
1.05724
1.05465
1.05767
1.05508
1.16523
1.16288
1.16036
1.15893
1.1583
1.15808
1.15819
1.15932
1.16152
1.16437
1.16632
1.16729
1.16765
1.16783
1.16798
1.16812
1.16827
1.16846
1.16867
1.16885
1.169
1.16914
1.16928
1.16941
1.16959
1.16958
1.16962
1.16952
1.16961
1.16962
1.16965
1.16973
1.16968
1.16981
1.16977
1.16991
1.16986
1.16997
1.16995
1.17005
1.17
1.17023
1.17022
1.1699
1.16982
1.17011
1.16991
1.17019
1.16918
1.16954
1.16974
1.16744
1.16777
1.16871
1.16826
1.16599
1.16644
1.16688
1.16707
1.16057
1.16146
1.16565
1.16491
1.1529
1.15534
1.15823
1.16104
1.11148
1.12684
1.14631
1.13889
1.06613
1.07356
1.08432
1.09732
1.05472
1.05582
1.05724
1.05856
1.05669
1.0576
1.05805
1.05801
1.0549
1.05536
1.08042
1.05619
1.07899
1.07971
1.07749
1.07861
1.06028
1.06842
1.06539
1.07925
1.07351
1.07928
1.07371
1.07563
1.07999
1.0775
1.07975
1.07997
1.06723
1.06091
1.06984
1.1672
1.05252
1.06986
1.05569
1.05305
1.16263
1.15988
1.15864
1.15829
1.1583
1.15905
1.1607
1.1631
1.16528
1.16662
1.16728
1.16758
1.16772
1.16786
1.16801
1.16814
1.16829
1.16849
1.1687
1.16888
1.16903
1.16916
1.16931
1.16946
1.16964
1.16961
1.16966
1.16956
1.16966
1.1697
1.16977
1.16974
1.16986
1.16981
1.16994
1.1699
1.17004
1.16998
1.17017
1.17012
1.17027
1.17027
1.16929
1.16935
1.1693
1.16996
1.17005
1.17021
1.16847
1.16927
1.16557
1.166
1.16751
1.16669
1.16639
1.16666
1.16536
1.16539
1.1627
1.16422
1.16613
1.16531
1.15115
1.15476
1.15343
1.15914
1.08435
1.09939
1.12916
1.11606
1.06003
1.06235
1.06665
1.07435
1.05821
1.05823
1.05829
1.05837
1.07966
1.07888
1.07887
1.07725
1.07935
1.07745
1.1019
1.077
1.10248
1.10283
1.1022
1.10276
1.08016
1.08263
1.07894
1.10205
1.08486
1.07671
1.07184
1.07394
1.08015
1.08726
1.08935
1.07829
1.06557
1.0597
1.06796
1.16646
1.05131
1.07768
1.05456
1.0515
1.15968
1.15859
1.15836
1.15882
1.16018
1.16231
1.16447
1.16594
1.16684
1.16726
1.16749
1.16762
1.16774
1.16788
1.16802
1.16815
1.16831
1.16853
1.16874
1.1689
1.16905
1.16918
1.16934
1.1695
1.16969
1.16967
1.16964
1.16971
1.16957
1.16975
1.16983
1.16978
1.16992
1.16987
1.17002
1.16997
1.17016
1.17009
1.17025
1.17021
1.17025
1.17013
1.17032
1.16773
1.16777
1.16797
1.16804
1.1695
1.16972
1.16616
1.16125
1.16183
1.16437
1.16293
1.16518
1.16526
1.16095
1.16095
1.16223
1.16454
1.16479
1.16373
1.13972
1.14663
1.13898
1.14915
1.06376
1.06915
1.09641
1.08003
1.05864
1.05906
1.05922
1.06143
1.0774
1.07572
1.07527
1.07321
1.10123
1.10031
1.10028
1.09832
1.10291
1.10051
1.12911
1.10175
1.13013
1.13012
1.1299
1.13017
1.10226
1.10263
1.10163
1.12977
1.10338
1.07634
1.07048
1.07436
1.08987
1.10467
1.10616
1.08045
1.09273
1.06333
1.05704
1.06612
0.878077
1.05134
1.06313
1.05305
1.05062
1.15864
1.15854
1.1596
1.16156
1.1638
1.16536
1.16634
1.1669
1.16722
1.16738
1.16752
1.16764
1.16776
1.16789
1.16804
1.16817
1.16834
1.16857
1.16876
1.1689
1.16906
1.1692
1.16937
1.16952
1.16959
1.16974
1.16973
1.1697
1.16965
1.16979
1.16989
1.16984
1.17
1.16994
1.17011
1.17005
1.17021
1.17016
1.17028
1.17025
1.16991
1.16961
1.16996
1.17027
1.17036
1.16419
1.1644
1.16474
1.16525
1.16846
1.16904
1.16132
1.15351
1.15443
1.15836
1.15607
1.16079
1.16094
1.15311
1.15312
1.15692
1.16188
1.15979
1.15795
1.11411
1.12718
1.11453
1.12977
1.0583
1.05822
1.06576
1.06041
1.07215
1.06025
1.05806
1.05844