/*--------------------------------*- C++ -*----------------------------------*\
  =========                 |
  \\      /  F ield         | OpenFOAM: The Open Source CFD Toolbox
   \\    /   O peration     | Website:  https://openfoam.org
    \\  /    A nd           | Version:  dev
     \\/     M anipulation  |
\*---------------------------------------------------------------------------*/
FoamFile
{
    version     2.0;
    format      ascii;
    class       volVectorField;
    location    "2500";
    object      U;
}
// * * * * * * * * * * * * * * * * * * * * * * * * * * * * * * * * * * * * * //

dimensions      [0 1 -1 0 0 0 0];

internalField   nonuniform List<vector> 
9834
(
(0.0043903 0.00730431 6.98717e-28)
(0.0103091 0.00671389 9.82524e-28)
(0.00424183 0.0187893 -6.90772e-29)
(0.0138717 0.00586565 0)
(0.0110671 0.019418 0)
(0.00349647 0.0265304 -7.82029e-29)
(0.0163011 0.00493708 -1.0142e-27)
(0.0153461 0.019342 0)
(0.0102099 0.0278266 0)
(0.00276492 0.0324769 0)
(0.017814 0.00429897 -1.84461e-27)
(0.0178567 0.0183433 -1.86224e-27)
(0.0153511 0.0290644 -2.1737e-27)
(0.00857187 0.0337102 -9.6576e-29)
(0.00227759 0.0375093 -1.60788e-27)
(0.0185963 0.00373043 -8.35782e-28)
(0.0191477 0.0165776 -1.88868e-27)
(0.0189109 0.0294774 8.92925e-33)
(0.0139486 0.0355828 -1.06501e-28)
(0.00701515 0.0384107 -4.0451e-27)
(0.00194398 0.0417786 1.839e-27)
(0.0189807 0.00326982 3.89959e-28)
(0.0197396 0.0146666 0)
(0.0210416 0.0288199 4.89946e-27)
(0.0183348 0.0372647 -2.50086e-27)
(0.0118555 0.0401304 -2.30182e-27)
(0.00591019 0.0424318 2.13355e-27)
(0.00169379 0.0455677 -2.09611e-27)
(0.0190218 0.00291305 3.67771e-28)
(0.0198937 0.0128673 0)
(0.0220127 0.0273134 2.41113e-27)
(0.0215274 0.0382014 1.24954e-28)
(0.0164533 0.0423513 -2.60819e-27)
(0.00995144 0.0437471 0)
(0.00510258 0.0460819 -2.33973e-27)
(0.00149335 0.048924 0)
(0.0187469 0.00264443 0)
(0.0197174 0.0113674 -1.35518e-28)
(0.0221094 0.0252584 -1.32234e-27)
(0.0234832 0.0381013 2.79597e-27)
(0.0203715 0.0444096 -2.94982e-27)
(0.0140874 0.0457686 -2.66418e-27)
(0.00852159 0.0470418 -2.54106e-27)
(0.00448486 0.0493366 -1.76212e-28)
(0.00134023 0.0519665 -2.64883e-27)
(0.0182343 0.00246596 6.35524e-28)
(0.01926 0.010251 -6.50772e-28)
(0.0216157 0.0229767 -1.29157e-27)
(0.0242831 0.0370159 1.27066e-27)
(0.0233042 0.0458185 -1.34763e-28)
(0.0181009 0.0481926 -3.01797e-27)
(0.0120248 0.0486056 -5.49825e-27)
(0.00745532 0.050046 0)
(0.00402015 0.0522863 -1.72918e-28)
(0.00122298 0.0547319 0)
(0.0175401 0.00239189 6.24038e-28)
(0.0185468 0.00945354 -7.265e-28)
(0.0208114 0.0206931 -9.50278e-28)
(0.0241733 0.0351691 1.38419e-27)
(0.0251905 0.0463121 1.5309e-27)
(0.021645 0.0505636 -2.75493e-28)
(0.0155878 0.0507248 -5.8503e-27)
(0.0104515 0.0512311 0)
(0.0066416 0.0527966 5.81228e-27)
(0.00367153 0.0550004 -3.42134e-28)
(0.00113416 0.057347 0)
(0.0166758 0.00244116 0)
(0.0176905 0.00887366 0)
(0.0197914 0.0186103 7.38402e-28)
(0.0233929 0.0327873 1.32982e-27)
(0.0259365 0.045696 2.11777e-27)
(0.0244315 0.0523903 -2.16208e-27)
(0.0191167 0.0532321 -3.22562e-27)
(0.0134901 0.0528767 -1.32527e-28)
(0.00926305 0.0537031 -9.59e-33)
(0.00603288 0.0553518 -4.13542e-28)
(0.0034149 0.0575576 3.03585e-27)
(0.00107208 0.0598178 2.43495e-28)
(0.0156327 0.00248981 0)
(0.0167155 0.0084116 0)
(0.0186317 0.0168833 1.93264e-27)
(0.0221835 0.0301557 9.59299e-28)
(0.0258197 0.0443888 -1.50855e-27)
(0.0262348 0.053506 -8.15003e-28)
(0.0223305 0.0557897 -1.19037e-27)
(0.016577 0.0549876 0)
(0.0118894 0.05496 -3.23684e-27)
(0.00836282 0.0560312 -3.20584e-27)
(0.00559597 0.0577702 2.9688e-27)
(0.00323634 0.0599948 0)
(0.0010379 0.0622192 -4.95591e-32)
(0.0144594 0.0025482 0)
(0.0156124 0.00814493 1.1546e-27)
(0.0174123 0.01553 0)
(0.0207491 0.0274884 2.37352e-27)
(0.0250074 0.0422536 -1.45697e-27)
(0.0270041 0.0533894 1.79883e-27)
(0.0249296 0.0580391 -6.15163e-28)
(0.0196434 0.0574978 9.97039e-28)
(0.0145156 0.0565855 0)
(0.0106794 0.0569877 -3.2566e-27)
(0.00769924 0.0582592 0)
(0.00529442 0.0600946 0)
(0.00313346 0.0623464 0)
(0.00102629 0.0646014 -2.54111e-28)
(0.013261 0.00262765 0)
(0.0144207 0.00796777 1.0919e-27)
(0.016141 0.0144442 0)
(0.0191648 0.0249691 2.19617e-27)
(0.0236409 0.0396652 0)
(0.0269611 0.0526509 1.55847e-27)
(0.0267035 0.0595813 0)
(0.0225104 0.0601651 -2.78091e-28)
(0.0171581 0.0586278 2.23749e-27)
(0.0129617 0.0582067 0)
(0.00978294 0.0589562 -3.44446e-27)
(0.00725606 0.0604097 0)
(0.00511911 0.0623207 -3.96822e-27)
(0.00311023 0.0647093 0)
(0.00102655 0.0669814 0)
(0.012024 0.00270441 -1.27124e-28)
(0.0132021 0.00778708 0)
(0.0148589 0.0135616 0)
(0.0175487 0.0228067 0)
(0.0219072 0.0368487 0)
(0.0262586 0.0511416 2.86208e-27)
(0.0275371 0.060199 0)
(0.0248922 0.0626841 -9.87284e-28)
(0.0197823 0.0610688 1.82903e-27)
(0.0152083 0.0597425 -4.08987e-32)
(0.0118215 0.0598243 -3.11597e-27)
(0.0091762 0.0608606 0)
(0.00700548 0.0624887 -7.93442e-27)
(0.00506823 0.0645682 0)
(0.00314298 0.0670798 -3.8273e-28)
(0.00105128 0.0694059 5.04665e-27)
(0.0107351 0.00276448 0)
(0.0119447 0.00765093 -1.23629e-28)
(0.0135429 0.0129124 -1.32817e-28)
(0.015967 0.0210497 -1.99512e-27)
(0.0200107 0.0339677 -1.5213e-28)
(0.0248531 0.0488444 2.72395e-27)
(0.0274798 0.0598643 -1.53842e-28)
(0.0265977 0.0646497 -1.62873e-27)
(0.0222486 0.0637746 8.89055e-28)
(0.0174215 0.061647 -8.08211e-32)
(0.0137805 0.0609153 3.40119e-28)
(0.0110355 0.0614215 3.21848e-28)
(0.00881863 0.062758 -7.55699e-27)
(0.00691393 0.0645924 -5.40948e-28)
(0.00512637 0.0668474 0)
(0.00321826 0.069487 5.51567e-27)
(0.00109845 0.0719529 -5.94144e-28)
(0.00947233 0.00282576 5.68832e-28)
(0.0106533 0.00758401 -1.03782e-27)
(0.0121867 0.0124619 0)
(0.0144152 0.0196181 -1.92112e-27)
(0.0180527 0.0312218 -1.46687e-28)
(0.0230175 0.0461885 -3.0529e-28)
(0.0269661 0.0590434 2.95343e-27)
(0.027545 0.0659137 0)
(0.0243751 0.0663833 -1.59852e-27)
(0.0196066 0.0639365 -1.60381e-27)
(0.0156551 0.0622894 1.65562e-27)
(0.0127852 0.0621559 -3.18114e-27)
(0.0105511 0.0630713 -4.18824e-27)
(0.00867041 0.0646853 2.96694e-42)
(0.00697328 0.0667326 -5.65882e-28)
(0.00527047 0.0691819 -4.97982e-28)
(0.00334083 0.072021 8.47602e-28)
(0.00115585 0.0746085 5.2032e-27)
(0.00826546 0.00290638 -8.24062e-29)
(0.00935936 0.00755294 -9.80686e-28)
(0.0108485 0.0121168 -2.19959e-28)
(0.0128698 0.0184536 7.22086e-28)
(0.0160816 0.0288557 6.85449e-28)
(0.0209076 0.0433522 -1.47768e-28)
(0.0256977 0.0573848 2.65224e-27)
(0.0274472 0.0663228 1.58258e-28)
(0.0259195 0.0687928 1.55437e-27)
(0.0216461 0.0664787 -8.21709e-28)
(0.0174711 0.0639984 1.52917e-27)
(0.01442 0.0630897 2.99797e-29)
(0.0121612 0.0634745 -2.2347e-27)
(0.0103406 0.0647546 3.54776e-28)
(0.00873411 0.0666474 4.22783e-27)
(0.00717708 0.0689494 4.9895e-27)
(0.00549129 0.071636 -1.04479e-27)
(0.00351068 0.07468 6.80694e-27)
(0.00122488 0.0774026 6.23014e-27)
(0.00712589 0.00297341 -1.15933e-27)
(0.00812727 0.00754138 -7.84341e-29)
(0.00952539 0.011844 -1.90221e-28)
(0.0113319 0.0175907 4.13058e-28)
(0.0141642 0.0269607 8.58184e-28)
(0.0186269 0.0405036 -1.3975e-28)
(0.0237884 0.0550804 -2.93087e-28)
(0.0270231 0.0660287 3.05336e-28)
(0.0267912 0.0704992 5.9612e-27)
(0.0234025 0.069177 0)
(0.0191871 0.0660393 5.27265e-29)
(0.01594 0.0642541 3.45625e-27)
(0.0136373 0.0640023 -1.62207e-27)
(0.0118867 0.0648397 4.16232e-28)
(0.0104041 0.0664781 5.19163e-27)
(0.00899581 0.0687159 4.92839e-27)
(0.00751412 0.0712724 -5.37377e-27)
(0.00579056 0.074224 -1.09616e-27)
(0.00371859 0.0774814 7.2562e-27)
(0.00130009 0.0803601 6.60813e-27)
(0.00610744 0.00301262 -5.77671e-28)
(0.00701025 0.00755094 3.46305e-28)
(0.00824761 0.0116584 -7.75444e-29)
(0.00985649 0.0170237 9.42357e-28)
(0.0123214 0.0254397 -2.27041e-28)
(0.0163054 0.0378006 -1.28955e-28)
(0.0215398 0.0525372 0)
(0.0259079 0.0650971 -1.47177e-28)
(0.0270253 0.071634 2.78146e-27)
(0.0247352 0.0716997 0)
(0.0207364 0.0684042 1.44579e-27)
(0.0173196 0.0656888 8.51917e-28)
(0.0149511 0.0646906 1.7927e-27)
(0.0132748 0.0649823 1.6939e-28)
(0.0119447 0.0662645 2.14506e-27)
(0.010722 0.0683396 0)
(0.00944242 0.0708871 -1.06494e-26)
(0.00796778 0.073759 6.50882e-28)
(0.00614383 0.0769633 -5.73119e-28)
(0.00394963 0.0804698 6.70273e-27)
(0.00137365 0.0834813 0)
(0.00522901 0.00305681 -2.02155e-29)
(0.00599445 0.00757286 3.93967e-28)
(0.00708146 0.0115685 -5.84121e-29)
(0.00846634 0.0166655 2.09668e-27)
(0.0105779 0.024201 -9.72547e-29)
(0.0140795 0.0354181 1.158e-28)
(0.0190844 0.0498564 -1.29112e-28)
(0.0240137 0.0634522 2.77769e-28)
(0.0264514 0.0720924 3.07556e-28)
(0.0255178 0.0739643 -3.55855e-28)
(0.0220354 0.0709782 2.47929e-27)
(0.0185183 0.0674461 0)
(0.0160674 0.0655677 -1.84963e-31)
(0.0144561 0.0652163 1.87273e-27)
(0.0133056 0.0660644 1.89532e-28)
(0.0123103 0.0678443 1.78317e-27)
(0.0112739 0.0703205 -5.21461e-27)
(0.0100488 0.0732497 -5.75057e-27)
(0.00849717 0.0764467 1.35449e-27)
(0.00653132 0.0799113 6.58063e-27)
(0.00417356 0.0836402 -1.04379e-27)
(0.00143876 0.0867547 0)
(0.00448807 0.00310588 0)
(0.00509577 0.00758932 7.28584e-28)
(0.0060478 0.011548 0)
(0.00721465 0.0164276 1.34652e-27)
(0.00898784 0.0232176 1.59332e-28)
(0.0119981 0.033422 0)
(0.0165927 0.0471566 2.33445e-28)
(0.0217687 0.0614261 0)
(0.0252812 0.0718741 2.84899e-28)
(0.0256378 0.0757434 6.74291e-28)
(0.0230016 0.0736786 0)
(0.0195122 0.0695228 2.75423e-27)
(0.0169599 0.0666912 4.20594e-27)
(0.0153944 0.0655672 0)
(0.0144259 0.065885 -1.90463e-27)
(0.0137043 0.0672895 -3.9743e-27)
(0.0129687 0.0695661 3.78463e-27)
(0.01204 0.072515 -5.66643e-27)
(0.0107762 0.0758655 -6.21479e-27)
(0.00906801 0.0793556 7.33944e-27)
(0.00692067 0.0830688 6.96747e-27)
(0.00437025 0.0869806 -7.42518e-27)
(0.00148475 0.0901709 0)
(0.00391483 0.00313359 -2.95095e-28)
(0.00435309 0.0076104 7.43903e-28)
(0.00513313 0.0115818 -3.31632e-29)
(0.0061318 0.0162627 4.00433e-28)
(0.00757823 0.022458 -9.12896e-28)
(0.0101145 0.0317904 -1.64413e-28)
(0.0141775 0.0445871 -1.56011e-27)
(0.019293 0.0591575 0)
(0.0235396 0.0710718 0)
(0.0251225 0.0769666 6.17806e-28)
(0.0235291 0.0762735 1.12254e-27)
(0.0202752 0.0719221 2.22234e-27)
(0.0176113 0.0681102 3.42756e-27)
(0.0160605 0.0660891 0)
(0.0152742 0.0657335 -1.72163e-27)
(0.0148591 0.0666901 2.07181e-27)
(0.0144772 0.0686952 -6.381e-27)
(0.0139028 0.0715307 4.77002e-27)
(0.0129793 0.0750095 -5.25077e-27)
(0.0115783 0.0787418 -6.69479e-27)
(0.00965158 0.0825015 1.41417e-26)
(0.00727308 0.0864401 -6.08591e-27)
(0.00451392 0.0904846 2.21457e-27)
(0.00150281 0.0936632 0)
(0.00354833 0.0031342 -5.39019e-28)
(0.00380059 0.0076444 2.74468e-29)
(0.00438319 0.0116455 -3.66591e-28)
(0.00519356 0.0161423 -1.65705e-29)
(0.00634144 0.0219424 -6.24916e-28)
(0.00842917 0.0305186 2.48373e-28)
(0.0119042 0.0423036 -1.13574e-27)
(0.0167203 0.0567998 0)
(0.0213758 0.0698109 -1.41511e-27)
(0.0239494 0.0776528 0)
(0.0234248 0.0785991 6.88613e-28)
(0.0207353 0.0745791 1.68584e-27)
(0.0180007 0.0698792 0)
(0.0164197 0.0668329 1.74258e-42)
(0.0157806 0.0656657 1.16301e-27)
(0.0156796 0.066035 2.38642e-27)
(0.0157241 0.0676754 -2.28513e-27)
(0.0156016 0.0703343 -1.85428e-27)
(0.0150937 0.0738312 5.13897e-27)
(0.0140563 0.0778154 -4.80682e-27)
(0.0124098 0.0819041 -1.66678e-32)
(0.0101948 0.0859184 1.44681e-27)
(0.00754127 0.0900125 2.5253e-27)
(0.0045718 0.0940842 -2.00224e-31)
(0.00148454 0.0971943 -1.99036e-27)
(0.00340778 0.00312185 -5.88841e-28)
(0.00345632 0.00766949 4.9814e-29)
(0.0038356 0.0117047 -6.43852e-28)
(0.00442474 0.0160608 -2.34701e-29)
(0.00531012 0.0216647 0)
(0.00692301 0.0295706 1.55262e-36)
(0.00980451 0.0404066 5.3064e-28)
(0.0141754 0.0544872 1.00777e-27)
(0.0189515 0.0682458 -1.21874e-27)
(0.0222435 0.0777701 9.32663e-28)
(0.0227774 0.0806182 -1.01645e-27)
(0.0208387 0.0774151 0)
(0.0180818 0.0720316 1.92112e-27)
(0.016438 0.0678753 0)
(0.0159041 0.0657531 -6.04181e-28)
(0.0161099 0.0653632 -1.97599e-27)
(0.0166268 0.0665202 5.37541e-28)
(0.017065 0.0689141 -2.54986e-27)
(0.0170812 0.0723547 8.15391e-27)
(0.0164851 0.0764952 5.51974e-27)
(0.0151974 0.0809738 -6.29788e-27)
(0.0132006 0.0854009 0)
(0.0106256 0.0895924 1.44111e-27)
(0.00767018 0.0937459 1.24922e-27)
(0.00451425 0.0977386 -3.15292e-27)
(0.00141757 0.100666 0)
(0.00347511 0.00310866 -2.03709e-28)
(0.00331421 0.00767814 -2.83957e-28)
(0.00348961 0.0117772 -3.45674e-28)
(0.00383794 0.0160593 -2.84737e-28)
(0.00447328 0.0215538 -3.65406e-29)
(0.00561229 0.028927 6.80645e-29)
(0.00792902 0.0389426 4.24996e-28)
(0.0117229 0.0523426 3.14988e-28)
(0.0163793 0.0665285 3.01082e-28)
(0.0201695 0.0774718 -1.04905e-27)
(0.0216257 0.0822078 -1.61517e-28)
(0.0204318 0.0802454 6.97616e-28)
(0.0178405 0.0746011 0)
(0.0160754 0.0693008 1.78502e-27)
(0.015635 0.0660434 0)
(0.0161164 0.0647579 1.33767e-27)
(0.0171274 0.0652606 1.43723e-27)
(0.0181741 0.067246 -2.35991e-27)
(0.018854 0.0705477 3.2296e-27)
(0.0188468 0.0747942 3.3156e-27)
(0.0180124 0.0795924 0)
(0.0163237 0.084549 -9.70741e-28)
(0.0138696 0.0892334 8.28589e-28)
(0.0108694 0.0934946 0)
(0.00760605 0.0975708 -3.45234e-27)
(0.00430438 0.101352 -2.09733e-27)
(0.00129304 0.103976 -3.26541e-26)
(0.00373945 0.00308121 0)
(0.00336941 0.00769324 -4.50513e-28)
(0.00334058 0.0118877 2.16981e-28)
(0.00344369 0.0161449 -6.18035e-28)
(0.00379516 0.0215546 -2.9171e-28)
(0.00454988 0.0285937 -2.87881e-29)
(0.00630458 0.0378711 -2.72253e-28)
(0.00943445 0.0504769 1.53527e-28)
(0.0137554 0.0647711 5.48924e-28)
(0.0178056 0.076846 -6.18386e-28)
(0.0199965 0.0834386 5.47345e-28)
(0.019489 0.082944 8.96098e-28)
(0.0172786 0.07754 3.65166e-28)
(0.0153415 0.0711938 3.91126e-28)
(0.0148626 0.0667042 0)
(0.0156132 0.0643321 3.41079e-27)
(0.0170631 0.0639433 0)
(0.0188023 0.0653268 1.59624e-27)
(0.0202821 0.0683555 5.82033e-27)
(0.0210655 0.0726513 0)
(0.0208512 0.0777437 7.29384e-31)
(0.0195823 0.0832122 1.74862e-27)
(0.017336 0.0885646 -1.26236e-35)
(0.0143124 0.0933891 -7.82524e-27)
(0.0108456 0.097558 1.63382e-27)
(0.00728557 0.101422 -1.75441e-27)
(0.00390929 0.104809 -2.76078e-26)
(0.00110237 0.107 0)
(0.00418876 0.00304088 1.33265e-28)
(0.00363978 0.00772939 0)
(0.00339455 0.0120165 -3.73639e-28)
(0.00325651 0.0162923 -1.66516e-28)
(0.00331909 0.021645 -2.86627e-28)
(0.00375601 0.0284852 4.047e-28)
(0.00495103 0.0370988 2.73208e-28)
(0.00742378 0.0489618 0)
(0.0112312 0.0630555 4.41705e-28)
(0.0152922 0.0760117 0)
(0.0179528 0.0842762 1.07686e-32)
(0.0181559 0.0855272 6.0563e-28)
(0.0164016 0.0807647 5.51707e-28)
(0.0142867 0.0736229 0)
(0.0136124 0.0677944 0)
(0.0144673 0.0641757 0)
(0.016362 0.0626839 3.3279e-27)
(0.0188093 0.0632221 0)
(0.0212203 0.0657678 0)
(0.0229805 0.0699769 9.84984e-27)
(0.0236433 0.0753474 0)
(0.0229815 0.0813464 9.41249e-27)
(0.0210617 0.0874065 2.12867e-27)
(0.0180932 0.0930461 -8.06714e-27)
(0.0144089 0.0978148 3.06359e-27)
(0.0104613 0.101724 3.08255e-27)
(0.00665345 0.105156 7.58579e-27)
(0.00330386 0.107987 6.70634e-27)
(0.000844809 0.109626 0)
(0.00481115 0.00300305 6.19837e-28)
(0.0040979 0.00776479 1.31647e-28)
(0.00366101 0.0121419 4.54078e-28)
(0.00329718 0.0164806 1.90836e-28)
(0.00307688 0.0218009 -5.90181e-28)
(0.00322006 0.0284698 -2.21939e-31)
(0.00390905 0.0366351 1.96837e-28)
(0.00574462 0.0478176 6.35339e-28)
(0.00892576 0.06145 7.03641e-28)
(0.0127811 0.0750681 0)
(0.0156931 0.0848125 0)
(0.0165067 0.0878972 -6.47996e-28)
(0.0151464 0.0841597 -1.06456e-27)
(0.0129268 0.0766207 -1.04613e-27)
(0.0119234 0.0694607 0)
(0.0127122 0.0644246 0)
(0.0149357 0.061621 0)
(0.0180598 0.0610458 1.91553e-27)
(0.0214682 0.062817 4.23126e-27)
(0.024412 0.0667134 6.88393e-27)
(0.0262226 0.072262 1.82688e-31)
(0.0264823 0.0788249 -4.21775e-27)
(0.025087 0.0856875 4.56035e-27)
(0.0222796 0.0922498 0)
(0.0184302 0.0979406 0)
(0.0140376 0.102435 -1.17842e-27)
(0.00963899 0.105845 -2.28403e-27)
(0.00567219 0.108663 -3.65387e-27)
(0.00245514 0.110748 4.04555e-26)
(0.000506383 0.111845 0)
(0.0056135 0.00295302 9.46537e-28)
(0.00472988 0.00776683 5.94141e-28)
(0.00413553 0.0122565 5.2751e-28)
(0.00356647 0.0166999 4.62363e-28)
(0.0030855 0.0219927 -2.38134e-28)
(0.00293972 0.0285201 -1.56932e-27)
(0.00320886 0.0365028 4.30102e-28)
(0.00438868 0.0470152 -1.49664e-28)
(0.00690159 0.0600513 6.5016e-28)
(0.0103492 0.0740777 -6.06157e-28)
(0.013352 0.0851217 7.02381e-29)
(0.0145554 0.0900345 0)
(0.0135365 0.0876546 7.23476e-28)
(0.0112946 0.0801827 -1.85516e-27)
(0.00986915 0.071827 -2.17662e-27)
(0.0103572 0.0652575 0)
(0.0127029 0.0609274 -1.29959e-28)
(0.0163995 0.05896 -4.099e-27)
(0.0208123 0.0595916 2.73112e-27)
(0.0251229 0.0628479 7.48095e-27)
(0.0283927 0.0683549 8.89123e-32)
(0.0299419 0.0754377 -8.02365e-27)
(0.0294299 0.0832375 1.48842e-27)
(0.0269662 0.0908975 0)
(0.023026 0.0976998 0)
(0.0181811 0.103166 -4.47198e-27)
(0.0130825 0.107103 -6.31415e-27)
(0.00831696 0.109789 8.38265e-28)
(0.00428623 0.111796 3.30084e-26)
(0.00147625 0.112947 -1.77825e-26)
(0.00013713 0.113503 0)
(0.00658226 0.002888 6.4437e-28)
(0.00554083 0.00774664 8.25497e-28)
(0.00479478 0.0123651 2.30855e-27)
(0.00404847 0.0169242 5.35618e-28)
(0.00335599 0.0221863 -9.45019e-28)
(0.00290768 0.0286348 -1.94753e-27)
(0.00282587 0.0365911 9.61618e-28)
(0.0033754 0.0465045 -1.38384e-27)
(0.00520801 0.0589591 0)
(0.00810476 0.0731197 -5.09611e-28)
(0.0110102 0.0852581 1.74211e-28)
(0.012458 0.0919657 9.50908e-29)
(0.0117187 0.0912206 0)
(0.00945272 0.0842489 2.18611e-27)
(0.00752084 0.0749838 0)
(0.00748732 0.0668584 -8.24491e-28)
(0.00966072 0.0608258 1.06012e-27)
(0.0137098 0.0571814 0)
(0.0190399 0.0562782 1.03151e-27)
(0.0248098 0.0584295 -2.53948e-27)
(0.0298749 0.063536 1.66488e-31)
(0.0331485 0.0709648 1.31311e-26)
(0.0339795 0.0797662 -1.22635e-27)
(0.0322431 0.0887878 1.22396e-26)
(0.0283575 0.0969905 -9.59903e-27)
(0.0230855 0.103698 0)
(0.0171902 0.108605 -2.87112e-27)
(0.0114495 0.111671 -6.93765e-27)
(0.0064201 0.113396 1.66939e-27)
(0.00258115 0.114303 -1.83485e-26)
(0.000428784 0.114332 1.72696e-27)
(-0.000368618 0.113999 8.29408e-28)
(0.00770172 0.00282324 3.32736e-28)
(0.00651089 0.00771942 2.60162e-27)
(0.00561606 0.0124519 1.84296e-27)
(0.00473461 0.0171307 1.20214e-27)
(0.00384147 0.0223712 -1.57133e-27)
(0.00314964 0.0288292 3.62773e-28)
(0.00272546 0.0367644 2.77261e-28)
(0.00278191 0.0462983 -9.57768e-28)
(0.00387966 0.058194 5.58855e-28)
(0.00616211 0.072256 -9.24355e-28)
(0.0087911 0.0853028 0)
(0.0103281 0.0936777 2.7401e-28)
(0.00981062 0.0947914 0)
(0.00748119 0.088753 0)
(0.00497556 0.0789667 1.46971e-27)
(0.00420886 0.0693991 -1.24376e-27)
(0.00587434 0.0615746 0)
(0.00992842 0.0560042 0)
(0.0159517 0.053151 5.18675e-27)
(0.0231448 0.0536278 7.23605e-27)
(0.0302706 0.0577743 0)
(0.0358101 0.0652069 5.79515e-27)
(0.0385881 0.0749531 2.33852e-27)
(0.0380985 0.0855451 7.52316e-27)
(0.0346015 0.0955624 5.76501e-27)
(0.0289349 0.103895 -8.69605e-27)
(0.0222028 0.110081 0)
(0.0153112 0.11403 -1.33906e-27)
(0.00907998 0.115931 -3.72163e-27)
(0.00399236 0.116436 -2.56645e-27)
(0.000666784 0.116123 2.53792e-27)
(-0.000602338 0.115037 7.29174e-26)
(-0.000628801 0.113608 2.50165e-27)
(0.00895662 0.00275424 0)
(0.00762883 0.00768095 9.63362e-27)
(0.0066103 0.0124923 2.80567e-27)
(0.00560397 0.0172936 0)
(0.00453056 0.0225814 9.65971e-29)
(0.00361381 0.029097 3.83356e-34)
(0.00289293 0.0370316 3.46313e-28)
(0.00253506 0.0463945 1.10871e-27)
(0.0029208 0.0577427 4.9123e-28)
(0.00457979 0.0715244 0)
(0.00679483 0.0852932 -1.25896e-27)
(0.00827642 0.0951754 1.1349e-27)
(0.00789738 0.0982746 0)
(0.00547699 0.0936061 0)
(0.00236852 0.0837807 4.83249e-27)
(0.00066904 0.0730029 0)
(0.00147619 0.0634354 -6.4073e-27)
(0.00508492 0.0557859 0)
(0.0113849 0.0505834 -1.27811e-27)
(0.0198119 0.0487481 6.96045e-27)
(0.02912 0.0511621 6.79353e-27)
(0.0374549 0.0579853 0)
(0.0428954 0.0683783 8.01843e-27)
(0.0443505 0.0806937 0)
(0.041793 0.0929677 1.02847e-26)
(0.0360142 0.10355 0)
(0.0283258 0.111511 0)
(0.0201305 0.116654 0)
(0.0123715 0.119237 1.37199e-27)
(0.00578997 0.119612 -1.4759e-27)
(0.00105709 0.118614 1.08226e-29)
(-0.001632 0.117111 7.77816e-26)
(-0.00208132 0.114806 2.32815e-27)
(-0.00044598 0.112365 7.53794e-27)
(-0.00146275 0.11314 1.02393e-26)
(0.0103087 0.00267637 0)
(0.00888565 0.00764314 1.92816e-27)
(0.00774755 0.0124956 5.9394e-27)
(0.00663444 0.0174181 7.17897e-27)
(0.0054216 0.0228315 -2.05184e-27)
(0.00427109 0.0294068 6.89505e-27)
(0.00329944 0.0373795 0)
(0.00255605 0.0466559 3.30634e-28)
(0.00240334 0.0576384 7.01938e-28)
(0.00336262 0.0709716 2.80273e-27)
(0.00507365 0.0852329 -1.65773e-27)
(0.00641805 0.0964854 0)
(0.00609467 0.101596 1.26304e-27)
(0.00360638 0.0986806 5.51264e-27)
(-0.000109757 0.0893578 3.06268e-27)
(-0.00293274 0.0777294 1.43478e-26)
(-0.00330779 0.0666141 -4.2698e-27)
(-0.000664735 0.0568942 -1.17005e-26)
(0.00530139 0.0490795 -3.23712e-27)
(0.0144631 0.0442945 -6.78506e-27)
(0.0258472 0.0440032 0)
(0.0373661 0.0492662 8.04964e-27)
(0.0463734 0.0598395 1.11228e-26)
(0.05076 0.0739243 -3.04199e-27)
(0.0498785 0.0887869 2.05294e-26)
(0.0445194 0.102089 0)
(0.0360912 0.112449 2.79177e-28)
(0.0263252 0.119347 0)
(0.0168604 0.123003 2.98796e-27)
(0.00835051 0.124042 0)
(0.0017026 0.122771 2.15945e-27)
(-0.00249171 0.120258 9.66629e-28)
(-0.00442289 0.117068 8.14035e-27)
(-0.00252816 0.113535 0)
(-0.00418828 0.114216 0)
(-0.000644884 0.111522 0)
(-0.00188998 0.112363 0)
(0.011746 0.00258515 3.66269e-28)
(0.0102565 0.00759438 0)
(0.00900367 0.0124856 6.20412e-27)
(0.00779135 0.0175338 4.81734e-27)
(0.00648366 0.0230813 -3.97643e-27)
(0.00514208 0.0297262 4.39034e-27)
(0.00393704 0.0377756 2.594e-27)
(0.00288592 0.0471141 -3.49775e-27)
(0.00223598 0.0578029 0)
(0.00250422 0.0706276 6.13405e-27)
(0.00370497 0.0851555 1.06934e-27)
(0.00482136 0.0976054 -2.55848e-27)
(0.00450726 0.104691 1.88399e-27)
(0.00197852 0.103817 4.73541e-27)
(-0.00227306 0.0955269 -9.62159e-27)
(-0.00628296 0.0835348 -3.3733e-27)
(-0.00817019 0.0711873 7.88706e-27)
(-0.00697406 0.0596232 0)
(-0.00211061 0.0491998 4.06286e-28)
(0.00691636 0.0410222 0)
(0.0197853 0.03698 -8.67549e-27)
(0.0347168 0.0391783 -4.58532e-27)
(0.0483264 0.0485773 0)
(0.0570365 0.0639946 0)
(0.0589419 0.0822714 1.75386e-26)
(0.0544484 0.0995513 -6.15367e-27)
(0.0455707 0.113175 2.0529e-27)
(0.0344833 0.122212 2.23974e-28)
(0.0230355 0.127125 6.89207e-27)
(0.0125306 0.128753 0)
(0.00346357 0.127809 0)
(-0.0029418 0.124583 6.86348e-28)
(-0.00491176 0.119335 9.81336e-27)
(-0.00593183 0.121447 0)
(-0.00555153 0.115236 -1.68222e-27)
(-0.00627244 0.119487 9.80086e-27)
(-0.00707909 0.116711 0)
(-0.00338222 0.112706 -1.10775e-27)
(-0.00508632 0.113262 1.621e-27)
(-0.000750843 0.110534 0)
(-0.00225978 0.111366 0)
(0.0132713 0.00249497 3.76618e-28)
(0.011714 0.00751283 -6.55882e-27)
(0.0103929 0.0124692 -6.38411e-27)
(0.0090753 0.0176297 3.59206e-27)
(0.00769668 0.0232658 -5.30908e-27)
(0.00620223 0.0300506 7.34886e-28)
(0.00479365 0.0382176 0)
(0.00345896 0.0476503 -3.26546e-27)
(0.00237722 0.0581615 3.77667e-27)
(0.00208851 0.0705725 3.3388e-27)
(0.0027342 0.085084 1.42061e-27)
(0.00353893 0.0985619 -5.77603e-27)
(0.00318634 0.107492 0)
(0.00065527 0.108858 2.02031e-27)
(-0.00399671 0.102084 -7.4641e-27)
(-0.00912945 0.0902653 -1.45889e-26)
(-0.0126718 0.0770987 0)
(-0.0133642 0.064095 -1.46049e-26)
(-0.0103507 0.0514087 4.52856e-26)
(-0.00263445 0.0398281 3.77353e-26)
(0.0104298 0.0312955 -3.16718e-26)
(0.0280278 0.0287883 2.80816e-26)
(0.0469399 0.0348787 -1.17972e-26)
(0.0622167 0.0499768 0)
(0.0694019 0.0712734 8.19666e-27)
(0.0668987 0.0937864 -1.06812e-26)
(0.0568863 0.112687 -4.23613e-27)
(0.0435464 0.125309 -1.02275e-27)
(0.0300041 0.131818 1.88272e-27)
(0.0178585 0.133958 4.47536e-27)
(0.00710882 0.133334 -1.25096e-26)
(-0.00170174 0.129964 0)
(-0.00612171 0.123521 1.44775e-29)
(-0.00705921 0.126224 5.4935e-27)
(-0.00752835 0.12151 2.04021e-26)
(-0.00684745 0.114304 1.2183e-27)
(-0.00864544 0.118527 2.08533e-27)
(-0.00867709 0.1158 -5.84934e-28)
(-0.00401899 0.111625 -3.4214e-27)
(-0.00597364 0.112082 1.4101e-27)
(-0.000850176 0.109324 1.00224e-26)
(-0.00255897 0.110159 7.46996e-27)
(0.0148618 0.00242994 -6.73334e-27)
(0.0132277 0.00740712 0)
(0.0118702 0.012436 -6.49482e-27)
(0.0104964 0.017676 -9.29016e-27)
(0.00902663 0.0233745 -2.95148e-27)
(0.00744533 0.0303953 3.08751e-27)
(0.00584016 0.0386756 0)
(0.00427429 0.0482328 -1.34724e-26)
(0.00288535 0.0587692 1.60343e-26)
(0.00201596 0.0707538 0)
(0.00213535 0.0850643 0)
(0.00258537 0.0993828 0)
(0.00215234 0.109973 3.96301e-31)
(-0.000337693 0.113648 2.04675e-27)
(-0.00522634 0.108831 0)
(-0.0113171 0.0977213 1.35273e-27)
(-0.0165013 0.0842029 1.01436e-26)
(-0.0192901 0.0702518 -3.46146e-26)
(-0.0187074 0.0559366 3.20139e-26)
(-0.013477 0.0415048 5.76029e-26)
(-0.00208765 0.0285713 -1.80725e-26)
(0.0159846 0.0201887 -1.94566e-26)
(0.0391721 0.0207068 -2.19822e-26)
(0.0618136 0.0325705 1.21645e-26)
(0.0775791 0.0547858 1.15377e-26)
(0.0819525 0.0822314 -1.30318e-26)
(0.0740242 0.108711 3.14547e-27)
(0.0573463 0.128605 5.73278e-28)
(0.0385584 0.139342 1.49472e-27)
(0.0226693 0.142455 0)
(0.00969954 0.141472 -9.64269e-27)
(-0.000369897 0.137833 2.0888e-27)
(-0.00675091 0.129208 5.76917e-27)
(-0.00752698 0.132885 4.9368e-28)
(-0.00838841 0.123946 1.06906e-26)
(-0.00947623 0.126788 0)
(-0.0101698 0.12074 2.31231e-27)
(-0.00807448 0.113113 8.20257e-28)
(-0.0106114 0.117682 -5.16755e-27)
(-0.0102979 0.114635 -1.08692e-26)
(-0.00457151 0.110309 -3.48384e-29)
(-0.00681612 0.110653 8.91532e-28)
(-0.000918565 0.107952 0)
(-0.0027625 0.108783 8.21809e-27)
(0.0164764 0.00237501 -2.02163e-28)
(0.01479 0.00729924 -6.6062e-27)
(0.013408 0.0123836 -6.5302e-27)
(0.0120094 0.0176695 -6.51006e-27)
(0.0104467 0.0234817 -5.75579e-29)
(0.00881614 0.0307335 -3.19712e-27)
(0.00705523 0.0391316 3.15022e-27)
(0.00530929 0.0488371 -6.51295e-27)
(0.00363793 0.0594544 -3.04381e-27)
(0.00224062 0.0711146 5.87167e-27)
(0.00192863 0.0851377 0)
(0.00197705 0.100085 -3.98629e-27)
(0.00142654 0.112172 0)
(-0.000994384 0.118108 6.65421e-27)
(-0.00595752 0.11555 0)
(-0.0127784 0.105698 0)
(-0.0194631 0.0922915 9.50617e-27)
(-0.0243484 0.077907 0)
(-0.0264374 0.0626917 2.34659e-26)
(-0.0245161 0.046431 4.0092e-26)
(-0.0166908 0.0301838 -3.95408e-26)
(-0.00138482 0.0169519 2.77188e-26)
(0.0217764 0.0118338 6.16325e-26)
(0.0499747 0.0188871 -4.5258e-26)
(0.0762467 0.0387493 1.02071e-25)
(0.091877 0.0673772 -1.39565e-26)
(0.0926809 0.0983529 -9.69653e-27)
(0.0782537 0.125507 1.0419e-26)
(0.054718 0.143928 4.1221e-27)
(0.0312719 0.15152 0)
(0.0132242 0.151278 -7.19133e-27)
(0.000446264 0.147365 3.76674e-27)
(-0.00666536 0.137047 5.28059e-28)
(-0.00715655 0.14182 -1.8464e-27)
(-0.0101052 0.130146 0)
(-0.0110008 0.133995 -1.54707e-27)
(-0.0115467 0.12347 -1.13347e-26)
(-0.0128875 0.126712 -1.1545e-26)
(-0.0125386 0.120009 5.3617e-27)
(-0.00929013 0.111634 -2.52306e-27)
(-0.0126852 0.116592 -1.04629e-26)
(-0.0119484 0.113131 -2.57536e-27)
(-0.00501001 0.108782 1.02024e-26)
(-0.007562 0.108963 -1.31353e-27)
(-0.000946903 0.106493 8.40994e-28)
(-0.00285275 0.107308 1.1784e-27)
(0.0181166 0.00230592 6.28551e-27)
(0.016403 0.00720613 0)
(0.0149881 0.0123119 0)
(0.0135508 0.0176478 -4.86903e-27)
(0.0119587 0.0236375 -1.31136e-26)
(0.0102486 0.0310171 6.5328e-27)
(0.00841892 0.0396046 3.76165e-31)
(0.00650627 0.0494644 -2.09826e-27)
(0.00463222 0.0601815 -2.00224e-28)
(0.0029281 0.0717548 -3.30072e-27)
(0.00197229 0.0853054 0)
(0.00170489 0.100663 -5.34939e-27)
(0.0010207 0.114083 -2.88569e-27)
(-0.00130357 0.122179 -1.712e-27)
(-0.00622847 0.122075 0)
(-0.0135034 0.113934 0)
(-0.0214652 0.101131 3.20921e-26)
(-0.0282647 0.0867648 -2.24108e-27)
(-0.032983 0.0713228 6.81844e-27)
(-0.0346059 0.0543627 2.13771e-26)
(-0.0315227 0.0365528 2.78636e-26)
(-0.0218363 0.0207926 0)
(-0.00401703 0.0120298 -4.72676e-26)
(0.02265 0.0143622 5.50158e-26)
(0.056214 0.0292328 1.1214e-25)
(0.0856775 0.0561816 1.34698e-25)
(0.0997301 0.089819 -3.66943e-27)
(0.0978745 0.121302 -5.0643e-27)
(0.0782516 0.145209 9.54028e-27)
(0.0487387 0.158351 1.03741e-26)
(0.0221184 0.16093 8.55684e-27)
(0.00276984 0.156796 2.85748e-28)
(-0.0058431 0.146933 -1.79281e-27)
(-0.00598246 0.152018 0)
(-0.0111712 0.138265 -3.25178e-27)
(-0.0116228 0.143056 -2.93461e-28)
(-0.0141006 0.130486 -1.51861e-27)
(-0.0151596 0.134661 -1.59706e-27)
(-0.0144797 0.122885 1.12171e-26)
(-0.016369 0.126361 0)
(-0.0151117 0.119025 4.77923e-27)
(-0.0104354 0.109846 2.56095e-27)
(-0.0148461 0.115104 2.63754e-27)
(-0.01356 0.111246 5.77449e-27)
(-0.00528514 0.107084 2.03333e-26)
(-0.00813841 0.107034 2.0296e-26)
(-0.000918661 0.10506 2.3275e-27)
(-0.00277601 0.10583 2.23648e-27)
(0.0197721 0.00222266 -6.47187e-27)
(0.0180713 0.00711035 6.36536e-27)
(0.0166128 0.0122101 -6.4266e-27)
(0.0151227 0.0176605 4.89231e-31)
(0.0135239 0.0237896 8.54942e-27)
(0.0117507 0.031241 -1.07822e-26)
(0.00988972 0.0400919 4.27335e-27)
(0.00785161 0.0501001 -1.93282e-27)
(0.00582049 0.0609137 -1.02745e-31)
(0.00387418 0.0724789 -4.17501e-27)
(0.00235603 0.0856363 8.19991e-28)
(0.00171863 0.101111 5.09029e-27)
(0.000918993 0.115699 9.43459e-27)
(-0.00129636 0.125765 -3.94349e-27)
(-0.00604715 0.128227 0)
(-0.0135442 0.122179 1.88679e-26)
(-0.0224421 0.110434 5.02126e-26)
(-0.0309539 0.0964719 0)
(-0.0379888 0.081365 -5.89009e-27)
(-0.0429763 0.0646482 -2.22084e-29)
(-0.0446857 0.0469136 0)
(-0.0419192 0.0310953 -2.74397e-26)
(-0.0322679 0.021485 0)
(-0.0124442 0.0215842 -5.34251e-26)
(0.0184385 0.0320413 1.50773e-25)
(0.0585624 0.0541853 -3.79725e-26)
(0.0917146 0.0874886 0)
(0.101959 0.122842 1.77236e-25)
(0.0949456 0.151544 6.0563e-28)
(0.0705417 0.167119 1.52948e-26)
(0.0388253 0.171595 2.07982e-26)
(0.0101335 0.168227 6.75488e-26)
(-0.00461119 0.157889 0)
(-0.00426839 0.162778 0)
(-0.0113273 0.148175 1.80162e-27)
(-0.0114712 0.153914 -1.13311e-27)
(-0.0158955 0.139241 -4.90698e-28)
(-0.0166164 0.144396 3.04842e-27)
(-0.0180788 0.13033 0)
(-0.0195553 0.134834 2.39859e-28)
(-0.0176929 0.122097 5.70774e-27)
(-0.0200347 0.125753 5.28081e-27)
(-0.0178886 0.117683 1.93704e-27)
(-0.0114284 0.10774 0)
(-0.0170535 0.113243 1.32054e-27)
(-0.0150778 0.109 3.11018e-28)
(-0.00530495 0.105285 1.09263e-26)
(-0.00844553 0.104903 1.06432e-26)
(-0.000807512 0.103813 0)