/*--------------------------------*- C++ -*----------------------------------*\
  =========                 |
  \\      /  F ield         | OpenFOAM: The Open Source CFD Toolbox
   \\    /   O peration     | Website:  https://openfoam.org
    \\  /    A nd           | Version:  dev
     \\/     M anipulation  |
\*---------------------------------------------------------------------------*/
FoamFile
{
    version     2.0;
    format      ascii;
    class       volScalarField;
    location    "2500";
    object      a;
}
// * * * * * * * * * * * * * * * * * * * * * * * * * * * * * * * * * * * * * //

dimensions      [0 -1 0 0 0 0 0];

internalField   nonuniform List<scalar> 
9842
(
0.100011
0.100011
0.100011
0.100011
0.100011
0.100011
0.100011
0.100011
0.100011
0.100011
0.10001
0.100011
0.100011
0.100011
0.100011
0.10001
0.10001
0.100011
0.100011
0.100011
0.100011
0.10001
0.10001
0.10001
0.100011
0.100011
0.100011
0.100011
0.10001
0.10001
0.10001
0.10001
0.100011
0.100011
0.100011
0.100011
0.100009
0.10001
0.10001
0.10001
0.10001
0.100011
0.100011
0.100011
0.100011
0.100009
0.100009
0.10001
0.10001
0.10001
0.10001
0.100011
0.100011
0.100011
0.100011
0.100009
0.100009
0.100009
0.10001
0.10001
0.10001
0.10001
0.100011
0.100011
0.100011
0.100011
0.100009
0.100009
0.100009
0.100009
0.10001
0.10001
0.10001
0.10001
0.100011
0.100011
0.100011
0.100011
0.100009
0.100009
0.100009
0.100009
0.100009
0.10001
0.10001
0.10001
0.10001
0.100011
0.100011
0.100011
0.100011
0.100008
0.100009
0.100009
0.100009
0.100009
0.100009
0.10001
0.10001
0.10001
0.10001
0.100011
0.100011
0.100011
0.100011
0.100008
0.100008
0.100009
0.100009
0.100009
0.100009
0.100009
0.10001
0.10001
0.10001
0.10001
0.100011
0.100011
0.100011
0.100011
0.100008
0.100008
0.100008
0.100009
0.100009
0.100009
0.100009
0.100009
0.10001
0.10001
0.10001
0.10001
0.100011
0.100011
0.100011
0.100011
0.100008
0.100008
0.100008
0.100008
0.100009
0.100009
0.100009
0.100009
0.100009
0.10001
0.10001
0.10001
0.10001
0.100011
0.100011
0.100011
0.100011
0.100007
0.100008
0.100008
0.100008
0.100008
0.100009
0.100009
0.100009
0.100009
0.100009
0.10001
0.10001
0.10001
0.10001
0.100011
0.100011
0.100011
0.100011
0.100007
0.100007
0.100008
0.100008
0.100008
0.100008
0.100009
0.100009
0.100009
0.100009
0.100009
0.10001
0.10001
0.10001
0.10001
0.100011
0.100011
0.100011
0.100011
0.100007
0.100007
0.100007
0.100008
0.100008
0.100008
0.100008
0.100009
0.100009
0.100009
0.100009
0.100009
0.10001
0.10001
0.10001
0.10001
0.100011
0.100011
0.100011
0.100011
0.100007
0.100007
0.100007
0.100007
0.100008
0.100008
0.100008
0.100008
0.100009
0.100009
0.100009
0.100009
0.100009
0.10001
0.10001
0.10001
0.10001
0.100011
0.100011
0.100011
0.100011
0.100006
0.100007
0.100007
0.100007
0.100007
0.100008
0.100008
0.100008
0.100008
0.100009
0.100009
0.100009
0.100009
0.100009
0.10001
0.10001
0.10001
0.10001
0.100011
0.100011
0.100011
0.100011
0.100006
0.100006
0.100007
0.100007
0.100007
0.100007
0.100008
0.100008
0.100008
0.100008
0.100009
0.100009
0.100009
0.100009
0.100009
0.10001
0.10001
0.10001
0.10001
0.100011
0.100011
0.100011
0.100011
0.100006
0.100006
0.100006
0.100007
0.100007
0.100007
0.100007
0.100008
0.100008
0.100008
0.100008
0.100009
0.100009
0.100009
0.100009
0.100009
0.10001
0.10001
0.10001
0.10001
0.100011
0.100011
0.100011
0.100011
0.100006
0.100006
0.100006
0.100006
0.100007
0.100007
0.100007
0.100007
0.100008
0.100008
0.100008
0.100008
0.100009
0.100009
0.100009
0.100009
0.100009
0.10001
0.10001
0.10001
0.10001
0.100011
0.100011
0.100011
0.100011
0.100006
0.100006
0.100006
0.100006
0.100006
0.100007
0.100007
0.100007
0.100007
0.100008
0.100008
0.100008
0.100008
0.100009
0.100009
0.100009
0.100009
0.100009
0.10001
0.10001
0.10001
0.10001
0.100011
0.100011
0.100011
0.100011
0.100005
0.100006
0.100006
0.100006
0.100006
0.100006
0.100007
0.100007
0.100007
0.100007
0.100008
0.100008
0.100008
0.100008
0.100009
0.100009
0.100009
0.100009
0.100009
0.10001
0.10001
0.10001
0.10001
0.100011
0.100011
0.100011
0.100011
0.100005
0.100005
0.100006
0.100006
0.100006
0.100006
0.100006
0.100007
0.100007
0.100007
0.100007
0.100008
0.100008
0.100008
0.100008
0.100009
0.100009
0.100009
0.100009
0.100009
0.10001
0.10001
0.10001
0.10001
0.100011
0.100011
0.100011
0.100011
0.100005
0.100005
0.100005
0.100006
0.100006
0.100006
0.100006
0.100006
0.100007
0.100007
0.100007
0.100007
0.100008
0.100008
0.100008
0.100008
0.100009
0.100009
0.100009
0.100009
0.100009
0.10001
0.10001
0.10001
0.10001
0.100011
0.100011
0.100011
0.100011
0.100005
0.100005
0.100005
0.100005
0.100006
0.100006
0.100006
0.100006
0.100006
0.100007
0.100007
0.100007
0.100007
0.100008
0.100008
0.100008
0.100008
0.100009
0.100009
0.100009
0.100009
0.100009
0.10001
0.10001
0.10001
0.10001
0.100011
0.100011
0.100011
0.100011
0.100004
0.100005
0.100005
0.100005
0.100005
0.100006
0.100006
0.100006
0.100006
0.100006
0.100007
0.100007
0.100007
0.100007
0.100008
0.100008
0.100008
0.100008
0.100009
0.100009
0.100009
0.100009
0.100009
0.10001
0.10001
0.10001
0.10001
0.100011
0.100011
0.100011
0.100011
0.100004
0.100004
0.100005
0.100005
0.100005
0.100005
0.100006
0.100006
0.100006
0.100006
0.100006
0.100007
0.100007
0.100007
0.100007
0.100008
0.100008
0.100008
0.100008
0.100009
0.100009
0.100009
0.100009
0.100009
0.10001
0.10001
0.10001
0.10001
0.100011
0.100011
0.100011
0.100011
0.100004
0.100004
0.100004
0.100005
0.100005
0.100005
0.100005
0.100006
0.100006
0.100006
0.100006
0.100006
0.100007
0.100007
0.100007
0.100007
0.100008
0.100008
0.100008
0.100008
0.100009
0.100009
0.100009
0.100009
0.100009
0.10001
0.10001
0.10001
0.10001
0.100011
0.100011
0.100011
0.100011
0.100004
0.100004
0.100004
0.100004
0.100005
0.100005
0.100005
0.100005
0.100006
0.100006
0.100006
0.100006
0.100006
0.100007
0.100007
0.100007
0.100007
0.100008
0.100008
0.100008
0.100008
0.100009
0.100009
0.100009
0.100009
0.100009
0.10001
0.10001
0.10001
0.10001
0.100011
0.100011
0.100011
0.100011
0.100011
0.100004
0.100004
0.100004
0.100004
0.100004
0.100005
0.100005
0.100005
0.100005
0.100006
0.100006
0.100006
0.100006
0.100006
0.100007
0.100007
0.100007
0.100007
0.100008
0.100008
0.100008
0.100008
0.100009
0.100009
0.100009
0.100009
0.100009
0.10001
0.10001
0.10001
0.10001
0.100011
0.100011
0.100011
0.100011
0.100011
0.100011
0.100003
0.100004
0.100004
0.100004
0.100004
0.100004
0.100005
0.100005
0.100005
0.100005
0.100006
0.100006
0.100006
0.100006
0.100006
0.100007
0.100007
0.100007
0.100007
0.100008
0.100008
0.100008
0.100008
0.100009
0.100009
0.100009
0.10001
0.10001
0.10001
0.10001
0.10001
0.10001
0.100011
0.10001
0.100011
0.100011
0.100011
0.100011
0.100011
0.100011
0.100011
0.100003
0.100003
0.100004
0.100004
0.100004
0.100004
0.100004
0.100005
0.100005
0.100005
0.100005
0.100006
0.100006
0.100006
0.100006
0.100006
0.100007
0.100007
0.100007
0.100007
0.100008
0.100008
0.100009
0.10001
0.100011
0.100013
0.100013
0.100013
0.100012
0.100011
0.10001
0.10001
0.10001
0.10001
0.10001
0.100011
0.100011
0.100011
0.100011
0.100011
0.100011
0.100011
0.100003
0.100003
0.100003
0.100004
0.100004
0.100004
0.100004
0.100004
0.100005
0.100005
0.100005
0.100005
0.100006
0.100006
0.100006
0.100006
0.100006
0.100007
0.100007
0.100007
0.100008
0.100009
0.100011
0.100018
0.100028
0.100037
0.100043
0.100042
0.100035
0.100025
0.100016
0.100012
0.10001
0.10001
0.10001
0.10001
0.100011
0.100011
0.100011
0.100011
0.100011
0.100011
0.100011
0.100011
0.100003
0.100003
0.100003
0.100003
0.100004
0.100004
0.100004
0.100004
0.100004
0.100005
0.100005
0.100005
0.100005
0.100006
0.100006
0.100006
0.100006
0.100006
0.100007
0.100007
0.100008
0.100011
0.100019
0.100052
0.100116
0.100193
0.100244
0.100259
0.100225
0.10016
0.100086
0.100035
0.100011
0.100013
0.10001
0.100011
0.10001
0.10001
0.100011
0.100011
0.100011
0.100011
0.100011
0.100011
0.100011
0.100011
0.100002
0.100003
0.100003
0.100003
0.100003
0.100004
0.100004
0.100004
0.100004
0.100004
0.100005
0.100005
0.100005
0.100005
0.100006
0.100006
0.100006
0.100006
0.100006
0.100007
0.100008
0.100015
0.10004
0.100157
0.100464
0.10097
0.101446
0.10164
0.101538
0.10118
0.100737
0.100302
0.100023
0.100058
0.100012
0.100019
0.100011
0.100012
0.100011
0.100011
0.100011
0.100011
0.100011
0.100011
0.100011
0.100011
0.100011
0.100011
0.100002
0.100002
0.100003
0.100003
0.100003
0.100003
0.100004
0.100004
0.100004
0.100004
0.100004
0.100005
0.100005
0.100005
0.100005
0.100006
0.100006
0.100006
0.100006
0.100007
0.100008
0.10002
0.100071
0.100373
0.101397
0.103582
0.10652
0.108662
0.10868
0.10719
0.104968
0.102699
0.100197
0.100678
0.100041
0.100122
0.100018
0.100037
0.100012
0.100018
0.100011
0.100012
0.100011
0.100011
0.100011
0.100011
0.100011
0.100011
0.100011
0.100011
0.100002
0.100002
0.100002
0.100003
0.100003
0.100003
0.100003
0.100004
0.100004
0.100004
0.100004
0.100004
0.100005
0.100005
0.100005
0.100005
0.100006
0.100006
0.100006
0.100006
0.100008
0.100024
0.100106
0.100656
0.102884
0.108928
0.119157
0.129028
0.132705
0.128644
0.122183
0.115095
0.102339
0.10732
0.10041
0.101404
0.100104
0.100343
0.100036
0.1001
0.100018
0.100037
0.100013
0.100019
0.100013
0.100011
0.100013
0.100012
0.100011
0.100011
0.100011
0.100011
0.100002
0.100002
0.100002
0.100002
0.100003
0.100003
0.100003
0.100003
0.100004
0.100004
0.100004
0.100004
0.100004
0.100005
0.100005
0.100005
0.100005
0.100006
0.100006
0.100006
0.100008
0.100026
0.100131
0.100933
0.104617
0.115295
0.135361
0.158791
0.173847
0.175619
0.163588
0.151383
0.119997
0.142833
0.104666
0.114346
0.10114
0.103724
0.100323
0.101059
0.100106
0.100348
0.100041
0.100125
0.100019
0.100048
0.10002
0.100012
0.10002
0.100019
0.100011
0.100012
0.100011
0.100011
0.100001
0.100002
0.100002
0.100002
0.100002
0.100003
0.100003
0.100003
0.100003
0.100004
0.100004
0.100004
0.100004
0.100004
0.100005
0.100005
0.100005
0.100005
0.100006
0.100006
0.100007
0.100026
0.100144
0.101117
0.106054
0.121708
0.150345
0.185517
0.214787
0.227943
0.22206
0.202185
0.164684
0.194298
0.134416
0.158754
0.111363
0.129293
0.10338
0.110207
0.101142
0.103566
0.100429
0.101421
0.10016
0.10059
0.100056
0.100213
0.100063
0.100017
0.100065
0.100059
0.100012
0.100015
0.100011
0.100011
0.100001
0.100001
0.100002
0.100002
0.100002
0.100002
0.100003
0.100003
0.100003
0.100003
0.100004
0.100004
0.100004
0.100004
0.100004
0.100005
0.100005
0.100005
0.100005
0.100006
0.100007
0.100025
0.100143
0.101177
0.106898
0.126063
0.163429
0.205681
0.244476
0.271844
0.280993
0.268168
0.220671
0.251048
0.185541
0.215747
0.153142
0.180398
0.126715
0.150551
0.110485
0.126944
0.104382
0.112406
0.102007
0.106085
0.100849
0.102989
0.100279
0.101202
0.10033
0.100047
0.100348
0.100311
0.100013
0.100032
0.100011
0.100012
0.100001
0.100001
0.100001
0.100002
0.100002
0.100002
0.100002
0.100003
0.100003
0.100003
0.100003
0.100004
0.100004
0.100004
0.100004
0.100004
0.100005
0.100005
0.100005
0.100005
0.100007
0.100024
0.100139
0.10116
0.107114
0.128315
0.170949
0.221155
0.261309
0.293873
0.316944
0.324191
0.315526
0.245768
0.284536
0.210383
0.243303
0.178202
0.208837
0.151543
0.180163
0.130604
0.156874
0.11645
0.138427
0.109073
0.123283
0.104403
0.113386
0.101604
0.10615
0.101898
0.10023
0.101989
0.101788
0.100021
0.100139
0.100011
0.100015
0.100001
0.100001
0.100001
0.100001
0.100002
0.100002
0.100002
0.100002
0.100003
0.100003
0.100003
0.100003
0.100004
0.100004
0.100004
0.100004
0.100004
0.100005
0.100005
0.100005
0.100006
0.100024
0.100137
0.101118
0.107003
0.128499
0.173626
0.219085
0.257441
0.29334
0.322406
0.34675
0.362146
0.338177
0.366825
0.277591
0.31185
0.242084
0.277723
0.211783
0.245711
0.187247
0.220293
0.167403
0.200353
0.150853
0.183872
0.133812
0.167535
0.118927
0.146718
0.107926
0.125013
0.109099
0.101337
0.109408
0.108551
0.100069
0.100798
0.100012
0.100031
0.100001
0.100001
0.100001
0.100001
0.100001
0.100002
0.100002
0.100002
0.100002
0.100003
0.100003
0.100003
0.100003
0.100004
0.100004
0.100004
0.100004
0.100004
0.100005
0.100005
0.100006
0.100024
0.10014
0.1011
0.106798
0.12793
0.172209
0.209678
0.236715
0.272007
0.309698
0.34536
0.372349
0.379728
0.385619
0.371273
0.385136
0.313054
0.34473
0.28149
0.31761
0.255054
0.2909
0.235183
0.270918
0.219687
0.256729
0.205794
0.245074
0.188117
0.231715
0.161319
0.210233
0.130464
0.175491
0.133731
0.106618
0.134368
0.131408
0.100359
0.104153
0.100015
0.100122
0.1
0.100001
0.100001
0.100001
0.100001
0.100001
0.100002
0.100002
0.100002
0.100002
0.100003
0.100003
0.100003
0.100003
0.100004
0.100004
0.100004
0.100004
0.100004
0.100005
0.100006
0.100026
0.100156
0.101139
0.106769
0.127186
0.16925
0.199287
0.215322
0.229191
0.259933
0.315259
0.357562
0.384886
0.379534
0.389582
0.388939
0.389131
0.392637
0.350407
0.376299
0.326113
0.35822
0.306376
0.340006
0.293207
0.327848
0.283912
0.320641
0.274756
0.314852
0.259622
0.305657
0.231952
0.286507
0.186674
0.251189
0.192735
0.125133
0.193208
0.185808
0.101949
0.116988
0.100034
0.10064
0.1
0.1
0.100001
0.100001
0.100001
0.100001
0.100001
0.100002
0.100002
0.100002
0.100002
0.100003
0.100003
0.100003
0.100003
0.100004
0.100004
0.100004
0.100004
0.100004
0.100006
0.100028
0.100192
0.101306
0.107064
0.127062
0.166668
0.192092
0.201088
0.196208
0.189698
0.220993
0.296281
0.347389
0.38485
0.370533
0.391685
0.3871
0.396106
0.39425
0.382435
0.394071
0.369273
0.390276
0.358842
0.384257
0.353712
0.381335
0.350974
0.381502
0.346679
0.381381
0.335039
0.376205
0.309786
0.360292
0.265676
0.328678
0.27356
0.170976
0.27436
0.265436
0.108652
0.151606
0.100142
0.102912
0.1
0.1
0.100001
0.100001
0.100001
0.100001
0.100001
0.100002
0.100002
0.100002
0.100002
0.100003
0.100003
0.100003
0.100003
0.100004
0.100004
0.100004
0.100004
0.100005
0.100027
0.100239
0.101637
0.108022
0.127786
0.165264
0.187395
0.192278
0.176068
0.146388
0.147795
0.188746
0.254601
0.329172
0.282675
0.375597
0.353202
0.387696
0.373083
0.397921
0.388254
0.400725
0.401255
0.401485
0.40968
0.402295
0.415855
0.405781
0.422883
0.409581
0.430837
0.410066
0.437032
0.401904
0.435932
0.380493
0.423661
0.34108
0.395947
0.346553
0.245064
0.344775
0.334377
0.12885
0.213077
0.100642
0.110709
0.1
0.100001
0.100001
0.100001
0.100001
0.100001
0.100001
0.100002
0.100002
0.100002
0.100002
0.100003
0.100003
0.100003
0.100003
0.100004
0.100004
0.100004
0.100005
0.100024
0.100266
0.102079
0.109548
0.129949
0.165081
0.184486
0.186968
0.165725
0.128121
0.117526
0.128324
0.158735
0.240439
0.182235
0.287731
0.242671
0.351502
0.324194
0.369067
0.345482
0.390768
0.367529
0.409596
0.404296
0.421435
0.420623
0.433185
0.436555
0.445752
0.453788
0.456588
0.468624
0.462879
0.478035
0.458641
0.484708
0.441219
0.480024
0.405702
0.455826
0.409446
0.314499
0.406913
0.400043
0.359989
0.171111
0.280085
0.102479
0.130706
0.1
0.100001
0.100001
0.100001
0.100001
0.100001
0.100001
0.100002
0.100002
0.100002
0.100002
0.100003
0.100003
0.100003
0.100003
0.100004
0.100004
0.100005
0.10002
0.100266
0.102435
0.111507
0.132871
0.165854
0.182751
0.183718
0.160764
0.122248
0.10801
0.107668
0.115744
0.125255
0.192192
0.148869
0.242056
0.194958
0.317608
0.283769
0.340056
0.309679
0.373439
0.342116
0.414633
0.399122
0.435394
0.429862
0.455806
0.454506
0.474038
0.47483
0.483975
0.484798
0.492839
0.492138
0.50182
0.50351
0.49645
0.516314
0.465592
0.508982
0.487487
0.439358
0.470435
0.390757
0.334765
0.381067
0.433527
0.469724
0.469476
0.428978
0.228702
0.365267
0.348191
0.29575
0.112632
0.169898
0.100001
0.100001
0.100002
0.100002
0.100002
0.100001
0.100002
0.100002
0.100002
0.100002
0.100002
0.100003
0.100003
0.100003
0.100003
0.100004
0.100004
0.100015
0.10025
0.102535
0.113303
0.136316
0.167195
0.181569
0.181373
0.157837
0.120312
0.105453
0.102308
0.103866
0.108583
0.121876
0.114437
0.156667
0.134146
0.194852
0.16281
0.275428
0.235999
0.30741
0.270529
0.363196
0.327327
0.415966
0.393363
0.449332
0.437645
0.473407
0.469523
0.483786
0.481678
0.490223
0.486328
0.497971
0.488298
0.514179
0.510547
0.504293
0.494532
0.521967
0.528468
0.513428
0.516884
0.525736
0.513445
0.495486
0.520575
0.529658
0.498745
0.420567
0.408777
0.464828
0.49862
0.499843
0.458918
0.324729
0.242585
0.299159
0.393513
0.374303
0.126508
0.26879
0.233485
0.178164
0.100003
0.100007
0.100008
0.100006
0.100003
0.100002
0.100002
0.100002
0.100002
0.100002
0.100002
0.100003
0.100003
0.100003
0.100003
0.100004
0.100012
0.100203
0.102481
0.114126
0.139663
0.168422
0.180585
0.179006
0.154929
0.119142
0.104653
0.101069
0.100949
0.102626
0.109736
0.12675
0.123014
0.142763
0.13168
0.172459
0.154046
0.233638
0.199435
0.288611
0.250468
0.361966
0.325033
0.418768
0.393645
0.461784
0.449143
0.47841
0.4734
0.482731
0.479392
0.480486
0.478362
0.485861
0.477369
0.474329
0.474099
0.504446
0.492238
0.480752
0.535181
0.531961
0.504086
0.504883
0.521351
0.536251
0.523397
0.541578
0.541886
0.526506
0.449827
0.437335
0.495166
0.527952
0.52751
0.488927
0.350932
0.323305
0.421038
0.400595
0.193106
0.111872
0.142393
0.290266
0.250128
0.100032
0.100056
0.100046
0.100023
0.100009
0.100004
0.100002
0.100002
0.100002
0.100002
0.100002
0.100003
0.100003
0.100003
0.100004
0.100009
0.100141
0.10224
0.11408
0.141501
0.169446
0.179508
0.176113
0.150734
0.117497
0.104192
0.100738
0.100305
0.100693
0.103105
0.127287
0.113614
0.147255
0.140213
0.147091
0.147693
0.171967
0.171802
0.216277
0.188784
0.285956
0.249383
0.378602
0.344961
0.43152
0.408015
0.466273
0.457033
0.475793
0.470408
0.478319
0.477313
0.475945
0.479874
0.484569
0.489722
0.472952
0.470983
0.472817
0.478104
0.489294
0.476333
0.469437
0.537873
0.52552
0.487153
0.486208
0.506647
0.548383
0.546277
0.55461
0.544243
0.550162
0.479418
0.46607
0.524669
0.55274
0.553654
0.518671
0.375742
0.345687
0.448532
0.426439
0.196399
0.104512
0.133101
0.308781
0.260711
0.100244
0.100315
0.10019
0.100071
0.100021
0.100006
0.100003
0.100002
0.100002
0.100002
0.100002
0.100003
0.100003
0.100003
0.100007
0.100093
0.101808
0.11369
0.141648
0.169353
0.178344
0.172316
0.145158
0.115207
0.103609
0.100609
0.100169
0.100223
0.10076
0.104651
0.135573
0.116812
0.181551
0.163204
0.1773
0.182984
0.208202
0.216905
0.221172
0.207698
0.311232
0.283176
0.40975
0.386633
0.445198
0.42962
0.463286
0.455747
0.474705
0.467873
0.493773
0.496689
0.497233
0.495564
0.487095
0.497032
0.506766
0.515114
0.469207
0.474304
0.485219
0.499738
0.472664
0.466948
0.468731
0.530717
0.509739
0.469908
0.468383
0.486472
0.551087
0.560486
0.558268
0.537015
0.565954
0.508968
0.494842
0.552062
0.57048
0.573595
0.547078
0.399342
0.366084
0.475862
0.451721
0.19487
0.102692
0.12438
0.323756
0.26659
0.101296
0.101236
0.100578
0.10018
0.100045
0.100011
0.100004
0.100002
0.100002
0.100002
0.100002
0.100003
0.100003
0.100005
0.10006
0.101224
0.11263
0.141157
0.168918
0.176825
0.168091
0.138695
0.112465
0.102966
0.100464
0.100085
0.100101
0.100231
0.1009
0.107502
0.102208
0.138002
0.117212
0.214162
0.172377
0.228814
0.231394
0.270265
0.282291
0.267506
0.266122
0.364229
0.346783
0.421403
0.4066
0.44626
0.434883
0.457125
0.444508
0.497032
0.480283
0.521029
0.523926
0.523758
0.520332
0.51536
0.53021
0.542719
0.551755
0.478602
0.495025
0.51541
0.53659
0.46537
0.468926
0.483626
0.514426
0.488618
0.46381
0.463628
0.468551
0.54455
0.565478
0.552938
0.520958
0.572598
0.537731
0.523198
0.574742
0.579444
0.585357
0.572425
0.421758
0.384371
0.5028
0.47632
0.188577
0.101063
0.114214
0.335763
0.268673
0.10447
0.103416
0.101378
0.10035
0.100075
0.100016
0.100004
0.100002
0.100002
0.100002
0.100002
0.100003
0.100004
0.100037
0.100818
0.110256
0.139747
0.168094
0.175236
0.163737
0.132559
0.110163
0.102246
0.100376
0.100057
0.100031
0.100087
0.100185
0.100313
0.105023
0.10146
0.136481
0.114964
0.222648
0.173617
0.282246
0.265803
0.330584
0.323617
0.337227
0.333906
0.391926
0.378877
0.409536
0.396806
0.433138
0.421796
0.45929
0.438025
0.539489
0.526842
0.498288
0.514546
0.556703
0.557409
0.554909
0.548613
0.55608
0.572019
0.583219
0.589063
0.506107
0.532072
0.558064
0.581192
0.4703
0.489325
0.516659
0.493069
0.470561
0.471613
0.472644
0.46446
0.529464
0.561979
0.539336
0.500116
0.571513
0.564834
0.550426
0.589569
0.581246
0.590703
0.591328
0.443016
0.400926
0.529074
0.500176
0.175188
0.100334
0.107348
0.345508
0.266301
0.110405
0.106837
0.102288
0.100499
0.100099
0.10002
0.100005
0.100002
0.100002
0.100002
0.100002
0.100003
0.100023
0.100484
0.107175
0.136525
0.166867
0.174145
0.160186
0.127767
0.108355
0.101993
0.100364
0.100057
0.100017
0.100022
0.100064
0.100076
0.100179
0.100061
0.102505
0.100589
0.12714
0.109104
0.216866
0.163632
0.306731
0.270539
0.347503
0.330926
0.368049
0.358498
0.383962
0.371392
0.372929
0.353814
0.41481
0.393071
0.483263
0.464352
0.439257
0.550601
0.536617
0.506529
0.522222
0.589866
0.585557
0.575792
0.563817
0.599357
0.611388
0.616808
0.615778
0.547665
0.57768
0.603374
0.622728
0.493781
0.525573
0.560842
0.474727
0.467285
0.496757
0.497922
0.472815
0.509501
0.550432
0.520938
0.481395
0.562662
0.58816
0.576164
0.598685
0.576031
0.590207
0.603945
0.463286
0.416446
0.554183
0.523406
0.156484
0.100115
0.104017
0.353935
0.25931
0.117005
0.109922
0.102845
0.100566
0.100105
0.10002
0.100005
0.100002
0.100002
0.100002
0.100003
0.100014
0.100275
0.104496
0.130938
0.164727
0.173558
0.158655
0.12507
0.107832
0.102016
0.100444
0.10008
0.100018
0.10001
0.100016
0.100019
0.100014
0.100059
0.100024
0.100776
0.100179
0.11237
0.10324
0.188207
0.13849
0.300964
0.249608
0.326759
0.298226
0.358818
0.344948
0.335358
0.317707
0.330736
0.297209
0.402555
0.366333
0.489768
0.471197
0.450559
0.428006
0.548464
0.533766
0.504363
0.519376
0.606928
0.59363
0.579208
0.563788
0.63469
0.638598
0.635681
0.624011
0.59416
0.621819
0.641829
0.653555
0.531802
0.570794
0.607178
0.471122
0.47472
0.535101
0.535409
0.497106
0.490949
0.534282
0.503224
0.476471
0.549518
0.605507
0.598788
0.603647
0.566756
0.585847
0.61339
0.483063
0.432045
0.578597
0.545961
0.143526
0.100066
0.102996
0.362107
0.256303
0.122476
0.111512
0.102845
0.100537
0.100097
0.100018
0.100004
0.100002
0.100002
0.100002
0.100009
0.100157
0.102645
0.123922
0.160866
0.17325
0.158644
0.125191
0.108324
0.102538
0.100779
0.100172
0.100034
0.10001
0.100007
0.100007
0.100007
0.100008
0.100007
0.100025
0.100011
0.100202
0.100056
0.103472
0.100845
0.139801
0.112807
0.253066
0.192634
0.253674
0.215369
0.300048
0.280354
0.265482
0.237137
0.301296
0.259536
0.40697
0.382634
0.345685
0.488142
0.470252
0.44101
0.420405
0.528397
0.513765
0.488755
0.501129
0.608393
0.589148
0.567308
0.54642
0.656431
0.653027
0.64015
0.621964
0.636566
0.657247
0.669015
0.671688
0.577309
0.616657
0.648062
0.477209
0.495756
0.580255
0.579753
0.53281
0.484144
0.518543
0.494351
0.481521
0.536458
0.618607
0.616807
0.605242
0.557041
0.580795
0.620668
0.503113
0.449325
0.601202
0.568316
0.140672
0.100068
0.103482
0.373588
0.262949
0.126044
0.111073
0.102486
0.100464
0.100081
0.100015
0.100004
0.100002
0.100002
0.100005
0.100088
0.10145
0.116669
0.155028
0.172929
0.159699
0.127041
0.110508
0.104092
0.101612
0.10044
0.100098
0.100018
0.100007
0.100006
0.100006
0.100006
0.100007
0.100006
0.100012
0.100008
0.100058
0.100026
0.100752
0.100194
0.110031
0.102879
0.167604
0.129392
0.159588
0.135306
0.211181
0.18558
0.221388
0.187962
0.296592
0.272792
0.238688
0.39896
0.376564
0.31695
0.339878
0.475142
0.459408
0.421945
0.40331
0.49302
0.479354
0.461163
0.46982
0.597365
0.568611
0.539266
0.513134
0.668823
0.656657
0.638097
0.61223
0.669681
0.681896
0.684863
0.682941
0.622791
0.656622
0.679768
0.494356
0.528776
0.625512
0.625027
0.575991
0.488081
0.508716
0.497511
0.495157
0.527272
0.629157
0.631579
0.60569
0.550852
0.57818
0.626832
0.524838
0.468117
0.621204
0.591308
0.149369
0.100319
0.107921
0.391534
0.288857
0.127337
0.109672
0.102048
0.100354
0.100062
0.100011
0.100003
0.100002
0.100004
0.100047
0.100989
0.110357
0.146555
0.172082
0.162868
0.13167
0.115931
0.107806
0.103466
0.10119
0.100307
0.10005
0.100011
0.100006
0.100006
0.100006
0.100006
0.100006
0.100007
0.100006
0.100009
0.100007
0.100032
0.100015
0.100191
0.100066
0.102048
0.100638
0.116499
0.106166
0.120846
0.110467
0.159931
0.137515
0.202651
0.170963
0.280981
0.262281
0.226695
0.211054
0.383216
0.361829
0.299917
0.319256
0.450996
0.438096
0.391202
0.375129
0.448301
0.43566
0.423099
0.428783
0.579316
0.541795
0.503977
0.471267
0.673028
0.656599
0.633643
0.602877
0.692755
0.696236
0.695185
0.687404
0.662523
0.687736
0.701884
0.523707
0.569862
0.665732
0.666071
0.620996
0.498208
0.509733
0.50622
0.520013
0.526014
0.639368
0.644466
0.607086
0.549987
0.579808
0.633359
0.546271
0.488136
0.638603
0.612637
0.183781
0.111351
0.137049
0.417142
0.340002
0.126405
0.107625
0.101454
0.100255
0.100044
0.100008
0.100003
0.100003
0.100023
0.100595
0.105803
0.135591
0.169604
0.167968
0.138104
0.122891
0.11468
0.107634
0.103171
0.100907
0.100156
0.100027
0.100007
0.100005
0.100006
0.100006
0.100006
0.100006
0.100006
0.100006
0.100008
0.100007
0.100022
0.100011
0.100096
0.100044
0.100735
0.100263
0.104708
0.10191
0.113123
0.106478
0.145298
0.125702
0.198942
0.182968
0.162328
0.256945
0.241421
0.203672
0.193479
0.357526
0.338643
0.272498
0.288101
0.415638
0.405064
0.347403
0.334081
0.400209
0.387028
0.375079
0.380065
0.56388
0.518312
0.470823
0.428699
0.674171
0.654989
0.628244
0.593085
0.706011
0.705728
0.699728
0.689242
0.693945
0.709304
0.714372
0.561649
0.613411
0.698243
0.699028
0.66185
0.519259
0.517469
0.520931
0.553698
0.533112
0.649359
0.656586
0.613175
0.557434
0.589945
0.64166
0.566411
0.50894
0.653262
0.63137
0.268182
0.234805
0.266081
0.446966
0.396926
0.123858
0.105506
0.100996
0.100174
0.100028
0.100006
0.100003
0.100011
0.100264
0.102998
0.124102
0.163729
0.171308
0.146159
0.129969
0.122817
0.116909
0.107709
0.102558
0.100511
0.100086
0.100013
0.100006
0.100005
0.100006
0.100006
0.100006
0.100006
0.100006
0.100006
0.100007
0.100007
0.100016
0.100009
0.100075
0.100037
0.100485
0.100173
0.102938
0.101217
0.111354
0.105398
0.140184
0.122569
0.183213
0.173562
0.147822
0.15842
0.224821
0.214
0.191676
0.184823
0.319477
0.303822
0.235806
0.247031
0.368809
0.359504
0.292732
0.28174
0.356275
0.337254
0.320564
0.327401
0.548823
0.497065
0.442623
0.392763
0.6737
0.651902
0.6229
0.585038
0.714868
0.710782
0.702892
0.690515
0.715278
0.721342
0.722406
0.600982
0.650309
0.719761
0.721061
0.691775
0.544602
0.530254
0.541523
0.583248
0.549514
0.661008
0.668136
0.626167
0.580756
0.618534
0.656783
0.585335
0.529015
0.66566
0.646757
0.37935
0.288424
0.398667
0.477513
0.445361
0.119777
0.103775
0.100659
0.100109
0.100019
0.100005
0.100006
0.100115
0.101416
0.114574
0.15396
0.171868
0.155909
0.136722
0.131231
0.128217
0.11792
0.106926
0.101707
0.100295
0.100035
0.100008
0.100005
0.100005
0.100006
0.100006
0.100006
0.100006
0.100006
0.100006
0.100006
0.100007
0.100007
0.100013
0.100009
0.100064
0.100027
0.100375
0.100131
0.102357
0.100949
0.111598
0.10519
0.13859
0.122971
0.176034
0.167399
0.15729
0.168214
0.201282
0.197006
0.1991
0.194237
0.2702
0.258347
0.205525
0.209594
0.313164
0.303712
0.238485
0.229218
0.316098
0.291659
0.268493
0.278183
0.537125
0.479725
0.417215
0.359495
0.673358
0.650671
0.620887
0.582221
0.720994
0.714613
0.705394
0.691973
0.727862
0.730474
0.730245
0.630262
0.677762
0.73385
0.73865
0.718277
0.570712
0.553747
0.576432
0.614871
0.584097
0.672627
0.678677
0.650927
0.621395
0.656428
0.671747
0.602721
0.55059
0.67659
0.660469
0.440289
0.151567
0.363532
0.506758
0.480291
0.115391
0.102496
0.100418
0.100076
0.100014
0.100006
0.100053
0.100929
0.107863
0.140359
0.170735
0.164641
0.143748
0.138828
0.139272
0.132437
0.117813
0.105346
0.101033
0.10012
0.100017
0.100006
0.100005
0.100005
0.100006
0.100006
0.100006
0.100006
0.100006
0.100006
0.100006
0.100007
0.100007
0.10001
0.100008
0.100045
0.100019
0.100312
0.100103
0.102113
0.100815
0.122912
0.109137
0.171422
0.154885
0.145908
0.188073
0.178651
0.188487
0.204714
0.202292
0.201817
0.241076
0.239138
0.221111
0.214483
0.201954
0.20102
0.258858
0.248684
0.203825
0.201248
0.282298
0.250536
0.224328
0.23497
0.532757
0.472407
0.4044
0.337199
0.67426
0.65123
0.621717
0.583125
0.726102
0.718881
0.709304
0.695756
0.738454
0.739369
0.737505
0.668871
0.719606
0.745473
0.750028
0.744372
0.618357
0.604247
0.642491
0.67533
0.637983
0.685317
0.689321
0.67508
0.664817
0.683802
0.688556
0.622074
0.572848
0.686913
0.673546
0.452804
0.117527
0.277056
0.532146
0.50165
0.111358
0.101609
0.100269
0.100048
0.10001
0.100024
0.100563
0.103883
0.126003
0.166152
0.170091
0.152625
0.145135
0.148799
0.147083
0.133919
0.115468
0.103597
0.100449
0.100053
0.100009
0.100005
0.100005
0.100005
0.100006
0.100006
0.100006
0.100006
0.100006
0.100006
0.100006
0.100007
0.100007
0.10001
0.100008
0.10004
0.100016
0.100344
0.100097
0.103081
0.100957
0.163172
0.124979
0.220186
0.194686
0.186837
0.219158
0.23141
0.219384
0.244386
0.266599
0.234126
0.239399
0.305382
0.30619
0.200625
0.200677
0.225906
0.218444
0.215454
0.208306
0.197396
0.199377
0.268524
0.227494
0.201364
0.210253
0.533082
0.471976
0.402008
0.330444
0.678538
0.656712
0.628959
0.591754
0.732468
0.724823
0.715446
0.703286
0.747334
0.747744
0.745724
0.73066
0.748129
0.75453
0.769641
0.75401
0.690055
0.669241
0.703333
0.731606
0.687477
0.69766
0.699661
0.693103
0.693507
0.698941
0.701332
0.64066
0.593574
0.69549
0.685184
0.435652
0.107418
0.238193
0.552021
0.504685
0.108039
0.101024
0.100168
0.10003
0.100018
0.100223
0.10173
0.11479
0.154639
0.171384
0.162287
0.150918
0.155979
0.159523
0.151811
0.133778
0.111229
0.101815
0.100201
0.100022
0.100006
0.100005
0.100005
0.100005
0.100006
0.100006
0.100005
0.100006
0.100006
0.100006
0.100006
0.100006
0.100007
0.100007
0.10001
0.100008
0.100043
0.100016
0.100484
0.100119
0.107753
0.101968
0.232569
0.237483
0.194351
0.157213
0.281909
0.250596
0.269896
0.299865
0.285517
0.311572
0.337818
0.291329
0.300889
0.375582
0.377071
0.204343
0.209521
0.279305
0.266303
0.197824
0.1966
0.216392
0.227902
0.271869
0.224435
0.202409
0.208405
0.546062
0.486784
0.416114
0.340957
0.688437
0.670669
0.649345
0.623161
0.740174
0.732442
0.723973
0.713928
0.758251
0.760385
0.761735
0.74842
0.757574
0.775285
0.771334
0.765723
0.72616
0.706164
0.721482
0.739181
0.701481
0.707839
0.710615
0.702413
0.704241
0.706678
0.708645
0.658504
0.611594