/*--------------------------------*- C++ -*----------------------------------*\
  =========                 |
  \\      /  F ield         | OpenFOAM: The Open Source CFD Toolbox
   \\    /   O peration     | Website:  https://openfoam.org
    \\  /    A nd           | Version:  dev
     \\/     M anipulation  |
\*---------------------------------------------------------------------------*/
FoamFile
{
    version     2.0;
    format      ascii;
    class       volScalarField;
    location    "2500";
    object      alphat;
}
// * * * * * * * * * * * * * * * * * * * * * * * * * * * * * * * * * * * * * //

dimensions      [1 -1 -1 0 0 0 0];

internalField   nonuniform List<scalar> 
9842
(
0.00014712
0.000152323
0.000143544
0.000141164
0.000182056
0.000128833
0.000131277
0.000193499
0.000172302
0.000123247
0.000126443
0.000188206
0.000198569
0.000147856
0.000120607
0.000122733
0.000171407
0.000213988
0.000183193
0.00013421
0.00011934
0.00012091
0.000153278
0.000214382
0.000208748
0.000156992
0.00012781
0.000118776
0.000120138
0.000142015
0.000207316
0.000223513
0.000186733
0.000141295
0.000123926
0.000118565
0.000119746
0.000132966
0.000188574
0.000231765
0.000212808
0.000160674
0.000133282
0.000121595
0.000118388
0.000119302
0.000127603
0.000165711
0.000229932
0.00022911
0.000185078
0.000144839
0.000128121
0.00012038
0.00011806
0.000118973
0.00012444
0.000151923
0.000221033
0.000239943
0.000211442
0.000160798
0.000136418
0.00012434
0.000119809
0.000117665
0.000118683
0.000122701
0.000141023
0.000200256
0.000245377
0.000231539
0.000181396
0.00014656
0.000130882
0.000122001
0.000119367
0.000117388
0.000118391
0.000121851
0.000134072
0.000176421
0.000242479
0.000243829
0.00020605
0.000159207
0.000138351
0.000126679
0.000120853
0.000118741
0.000117248
0.000118169
0.000121419
0.000129683
0.000160552
0.000232255
0.000253028
0.000229397
0.00017755
0.000146408
0.00013274
0.000123645
0.000120172
0.000118109
0.000117189
0.000118052
0.000121153
0.000127103
0.000148713
0.000210507
0.000256905
0.000246386
0.000198529
0.000157584
0.00013885
0.000128472
0.000121816
0.000119488
0.000117603
0.000117175
0.00011801
0.000120992
0.000125528
0.000140853
0.000185686
0.000253321
0.000256206
0.000223389
0.000171976
0.000146104
0.000133569
0.000125148
0.000120802
0.000118755
0.000117259
0.000117166
0.000117995
0.000120875
0.000124546
0.000135865
0.000168399
0.000241919
0.000264466
0.000243986
0.000192057
0.000154791
0.000139129
0.000129454
0.000122774
0.000119976
0.000118028
0.000117075
0.00011714
0.000118014
0.000120752
0.0001239
0.0001328
0.00015691
0.000219982
0.000266334
0.000258756
0.000214141
0.000167419
0.000145153
0.000133968
0.000126173
0.000121355
0.000119204
0.000117429
0.000117004
0.000117105
0.000118038
0.000120583
0.000123416
0.000130919
0.000148954
0.000195434
0.000262291
0.000266178
0.000237931
0.000184792
0.000152423
0.000138849
0.000129935
0.00012362
0.000120347
0.000118395
0.000117048
0.000116941
0.000117105
0.000118043
0.000120457
0.000123138
0.000129554
0.000144284
0.000177534
0.000250369
0.000274119
0.000256063
0.000205796
0.000163325
0.000144047
0.000133958
0.000126706
0.000121823
0.000119483
0.000117633
0.000116882
0.000116854
0.000117097
0.000118066
0.000120348
0.000122969
0.000128463
0.000141532
0.000166084
0.00022901
0.000275266
0.000269326
0.00022827
0.000178064
0.000150542
0.000138325
0.000130181
0.000124158
0.000120628
0.000118652
0.000117098
0.000116759
0.000116842
0.00011709
0.000118128
0.000120242
0.00012283
0.000127559
0.000139306
0.000157975
0.000204548
0.000271246
0.000275999
0.000250646
0.000197564
0.000159409
0.00014302
0.000133792
0.000127164
0.000122184
0.000119668
0.000117837
0.000116821
0.000116622
0.00011685
0.000117096
0.000118187
0.000120144
0.0001227
0.000126798
0.000137074
0.000152715
0.000186418
0.000259618
0.000284172
0.000267502
0.000218606
0.000172781
0.000148828
0.000137791
0.000130194
0.000124622
0.000120837
0.000118829
0.000117185
0.000116676
0.000116556
0.000116835
0.000117103
0.00011821
0.000120032
0.000122609
0.000126164
0.000134979
0.000149257
0.000174439
0.000237952
0.000285079
0.000280033
0.000241008
0.000189175
0.000156742
0.000142447
0.000133694
0.000127325
0.000122559
0.000119824
0.000118045
0.000116786
0.000116559
0.000116583
0.000116828
0.000117104
0.000118211
0.000119902
0.00012251
0.000125659
0.0001331
0.000146747
0.000165947
0.000213015
0.000281139
0.000286535
0.000262557
0.000209536
0.000167698
0.000147593
0.000137647
0.000130374
0.000124931
0.000121039
0.000118979
0.000117369
0.000116598
0.000116466
0.000116643
0.000116837
0.000117099
0.000118209
0.00011979
0.000122334
0.000125243
0.000131563
0.000144651
0.000160394
0.000194789
0.000269977
0.000295155
0.000278743
0.000230524
0.000182567
0.000154764
0.000141897
0.000133773
0.000127701
0.000122975
0.000120005
0.000118272
0.000116889
0.000116534
0.000116456
0.000116709
0.000116849
0.000117086
0.000118188
0.000119702
0.000122083
0.000124868
0.000130437
0.00014263
0.000156873
0.000182696
0.000248266
0.000296275
0.000291332
0.000252514
0.000200109
0.000163977
0.000147164
0.000137618
0.000130694
0.000125474
0.000121383
0.000119204
0.000117691
0.000116627
0.000116551
0.000116522
0.000116795
0.000116871
0.000117072
0.000118128
0.000119635
0.000121827
0.000124512
0.000129501
0.00014056
0.000154457
0.000174022
0.000222799
0.000292491
0.000297812
0.000274188
0.000220627
0.000176626
0.000153141
0.000141952
0.000134186
0.000128244
0.000123584
0.000120261
0.00011859
0.000117288
0.000116556
0.000116653
0.000116657
0.000116874
0.00011689
0.000117064
0.000118031
0.000119562
0.000121572
0.000124174
0.000128623
0.000138618
0.000152391
0.000167983
0.000204176
0.000282499
0.000307221
0.000290122
0.000242037
0.000192268
0.000161596
0.000146828
0.00013805
0.000131445
0.000126252
0.000122121
0.000119527
0.000118175
0.000117103
0.000116642
0.000116832
0.00011689
0.000116931
0.000116857
0.00011705
0.000117938
0.000119446
0.000121263
0.000123841
0.000127796
0.000136823
0.000150313
0.000164109
0.000191948
0.000262112
0.000309886
0.000303521
0.000263442
0.000210821
0.000171935
0.000152784
0.000142499
0.000135066
0.000129306
0.000124647
0.00012105
0.000119048
0.000118
0.000117133
0.000116853
0.000117042
0.000117178
0.000117032
0.000116797
0.000117016
0.000117855
0.000119283
0.000120883
0.000123427
0.000127025
0.000135123
0.000148257
0.00016133
0.000182499
0.00023628
0.000306138
0.000310724
0.000285798
0.000231128
0.000185819
0.000159928
0.000147355
0.000139229
0.000132811
0.000127617
0.000123448
0.000120353
0.000118833
0.000118083
0.000117439
0.000117216
0.000117316
0.000117404
0.000117112
0.000116778
0.000116975
0.000117767
0.000119033
0.000120438
0.000122935
0.000126276
0.000133591
0.000146232
0.000159143
0.000175854
0.00021538
0.00029839
0.000320147
0.000302216
0.000253022
0.000201983
0.000169329
0.000153177
0.000143728
0.000136821
0.000131087
0.000126375
0.000122763
0.000120093
0.000118875
0.00011844
0.000118085
0.000117848
0.000117781
0.000117628
0.000117157
0.000116787
0.000116957
0.000117681
0.000118755
0.000119975
0.000122425
0.000125554
0.000132336
0.000144256
0.00015731
0.000170972
0.000202688
0.000281088
0.000326837
0.000316367
0.000274067
0.000220996
0.000180905
0.000159889
0.000148966
0.000141278
0.000135119
0.000129953
0.00012582
0.000122625
0.000120221
0.000119226
0.000119003
0.000118968
0.000118852
0.000118629
0.000118123
0.00011744
0.000116841
0.000117053
0.000117584
0.000118436
0.000119498
0.000121895
0.000124852
0.000131223
0.000142523
0.000155498
0.000167578
0.000192379
0.000255685
0.000323351
0.000326469
0.000296775
0.000241237
0.000195047
0.000168446
0.000154692
0.000146332
0.00013985
0.000134291
0.000129671
0.000125959
0.000123035
0.000120884
0.000120006
0.0001198
0.000119897
0.000119894
0.000119429
0.000118691
0.000118
0.000117168
0.000117339
0.000117454
0.000117473
0.000118091
0.000119045
0.000121347
0.000124156
0.00013014
0.000141028
0.000153615
0.000165222
0.000184713
0.000231129
0.000317841
0.00033486
0.000315803
0.000263109
0.000211896
0.000178177
0.000161616
0.000151883
0.000145116
0.000139513
0.000134425
0.00013029
0.000126965
0.000124329
0.000122314
0.000121329
0.000120991
0.000120988
0.000120757
0.000120092
0.000119151
0.00011833
0.000117476
0.000117663
0.000117438
0.000117791
0.000117355
0.000117768
0.000118672
0.000120792
0.000123444
0.000129065
0.000139542
0.000151728
0.00016316
0.000179147
0.000215937
0.000305301
0.00034534
0.000330245
0.000284762
0.00023043
0.000190789
0.000169181
0.000158076
0.000150919
0.000145182
0.000140353
0.00013589
0.000132229
0.000129284
0.000126907
0.000124689
0.000123377
0.000122853
0.000122541
0.000122084
0.00012095
0.000118942
0.000119713
0.000118318
0.000118961
0.000118748
0.000117858
0.000118143
0.000117559
0.000118129
0.000117242
0.000117483
0.000118374
0.000120202
0.000122741
0.000128
0.000138014
0.000149868
0.000161365
0.000174866
0.00020531
0.000282027
0.000346255
0.000344013
0.000307305
0.000251104
0.000204401
0.000178508
0.000164946
0.000157135
0.000151606
0.000146891
0.000143009
0.00013937
0.00013617
0.000133407
0.000130848
0.000128112
0.000126417
0.000112137
0.000108057
0.00010822
0.000114575
0.00010158
0.000114702
0.000116505
0.000105807
0.00010049
0.000115817
0.000105717
0.000107227
9.89605e-05
0.000117144
0.000117238
0.000118112
0.000119524
0.000122033
0.000126966
0.000136507
0.000148006
0.000159471
0.000171437
0.000196334
0.000255823
0.000340899
0.000352849
0.000329775
0.000272434
0.000221516
0.000188277
0.000172567
0.00016381
0.000158384
0.000154519
0.000151279
0.000148542
0.000145876
0.000142506
0.000139
0.000125503
0.000108276
9.30979e-05
8.48213e-05
8.43122e-05
8.98323e-05
8.0706e-05
9.67661e-05
8.59001e-05
9.5185e-05
9.55696e-05
8.87685e-05
8.43898e-05
9.35719e-05
8.67895e-05
8.64835e-05
8.0459e-05
0.000117069
0.000117078
0.000117888
0.000118835
0.000121366
0.000126056
0.000135059
0.000146113
0.000157275
0.000169121
0.000189465
0.000233895
0.000333076
0.00036399
0.0003461
0.000295074
0.00023932
0.000200521
0.000180531
0.000170828
0.000165381
0.00016246
0.000160943
0.000159947
0.00015758
0.000153663
0.000147878
0.000141568
0.000134113
0.000105425
7.75556e-05
6.91771e-05
7.52676e-05
6.74488e-05
7.54144e-05
6.97957e-05
8.37422e-05
7.44697e-05
7.95611e-05
7.93359e-05
7.492e-05
7.14781e-05
7.68706e-05
7.23045e-05
7.10706e-05
6.69377e-05
0.000117044
0.000117011
0.000117634
0.000118146
0.000120711
0.000125322
0.000133681
0.000144227
0.000155096
0.000167161
0.000184328
0.000220801
0.000315382
0.000372473
0.000361326
0.000317746
0.000259761
0.000214057
0.00018922
0.000178201
0.000172325
0.000170338
0.000171217
0.000173881
0.000174264
0.000168884
0.000156189
0.000143555
0.000133701
0.000127647
0.000124718
8.07319e-05
5.96378e-05
5.64612e-05
6.24514e-05
5.89454e-05
6.61038e-05
6.04663e-05
7.16344e-05
6.42429e-05
6.75623e-05
6.68382e-05
6.40343e-05
6.08818e-05
6.44705e-05
6.13417e-05
5.96356e-05
5.698e-05
0.000117091
0.000117034
0.000117458
0.000117589
0.000120129
0.000124695
0.000132389
0.000142386
0.000153228
0.000164803
0.000180272
0.000211876
0.000289803
0.000368799
0.000374022
0.000341804
0.000281181
0.00022982
0.000199251
0.000185487
0.000179292
0.000177726
0.000180961
0.000190518
0.000201908
0.000204131
0.000203595
0.000192798
0.000171992
0.000151632
0.000136591
0.000121137
5.77269e-05
8.98049e-05
5.32079e-05
5.34918e-05
5.50391e-05
5.20134e-05
5.79072e-05
5.3095e-05
6.11284e-05
5.53727e-05
5.79774e-05
5.71806e-05
5.50126e-05
5.23984e-05
5.52423e-05
5.30436e-05
5.10367e-05
4.94343e-05
0.000117226
0.000117186
0.000117388
0.000117191
0.000119679
0.000124101
0.000131184
0.000140622
0.000151451
0.000162068
0.000177505
0.000203965
0.000264428
0.000362782
0.000383901
0.000363465
0.000303965
0.000248163
0.000210276
0.000193051
0.00018582
0.000184525
0.000189439
0.000206253
0.000235861
0.000277818
0.000310823
0.00034222
0.000332417
0.000283833
0.00022499
0.000168476
0.00010502
0.000109319
6.44272e-05
0.000103924
4.98672e-05
5.77035e-05
4.9114e-05
4.75713e-05
5.07676e-05
4.69288e-05
5.27035e-05
4.86022e-05
5.0178e-05
4.96735e-05
4.76717e-05
4.55788e-05
4.82776e-05
4.66337e-05
4.42469e-05
4.36967e-05
0.000117471
0.000117508
0.000117485
0.000116957
0.000119234
0.000123567
0.000130052
0.000138997
0.000149645
0.000159643
0.000175589
0.000198121
0.000243428
0.000352525
0.000395848
0.00037906
0.000327883
0.000266999
0.000223855
0.000200953
0.000192101
0.00019032
0.000196271
0.000220086
0.000267992
0.000340324
0.000455315
0.000534422
0.00054153
0.000512491
0.000465327
0.000387391
0.00017871
0.000316145
9.77894e-05
0.000143699
9.47727e-05
9.67272e-05
5.31998e-05
8.29485e-05
4.49444e-05
5.07384e-05
4.50487e-05
4.31405e-05
4.61538e-05
4.33386e-05
4.39952e-05
4.37076e-05
4.1941e-05
4.03308e-05
4.29522e-05
4.15737e-05
3.91373e-05
3.91791e-05
0.000118103
0.000118048
0.00011786
0.000117027
0.000119088
0.00012328
0.000129138
0.00013757
0.000147813
0.000157592
0.000173661
0.00019373
0.000230798
0.000332086
0.000401412
0.000394825
0.000352265
0.000289208
0.000238103
0.000210106
0.000198462
0.00019532
0.000201197
0.000228197
0.000293859
0.000406425
0.000563693
0.000617985
0.00060995
0.000589105
0.000564391
0.000550178
0.000414899
0.00051052
0.00027352
0.000387755
0.000128829
0.000245812
9.82608e-05
0.000124327
7.92045e-05
0.000100815
5.00095e-05
8.09915e-05
4.22547e-05
5.09381e-05
4.15085e-05
4.17146e-05
3.99053e-05
3.89918e-05
3.84682e-05
3.70137e-05
3.88226e-05
3.7539e-05
3.51915e-05
3.57701e-05
0.000119451
0.000119092
0.000118598
0.000117618
0.000119382
0.000123256
0.000128599
0.000136406
0.000146021
0.000155695
0.00017169
0.000191179
0.00022266
0.000306879
0.000395874
0.000407125
0.000377551
0.000311888
0.000255411
0.000220513
0.000205142
0.000199936
0.000204185
0.000231076
0.000305998
0.000451779
0.000616135
0.000651318
0.000624424
0.000583582
0.000560833
0.000559545
0.000549793
0.000573006
0.000479109
0.000539297
0.000363893
0.000457541
0.000231075
0.000348813
0.000126933
0.000229013
0.000104564
0.000135917
8.90642e-05
0.000110682
5.38e-05
0.00010073
4.0989e-05
5.76971e-05
4.01156e-05
3.58761e-05
3.89788e-05
3.69289e-05
3.55455e-05
3.46987e-05
3.22687e-05
3.32007e-05
0.000121438
0.00012085
0.000119883
0.000118796
0.000120164
0.000123429
0.000128252
0.000135502
0.000144333
0.00015378
0.000169711
0.000189762
0.000217594
0.000283534
0.000389665
0.000418047
0.000398167
0.000336347
0.000274822
0.000232473
0.00021262
0.000204785
0.000206038
0.0002284
0.00030749
0.000476055
0.000638079
0.000654228
0.000615114
0.000561871
0.000542798
0.000543776
0.000551439
0.00056458
0.000561588
0.000524752
0.000556597
0.000443483
0.000512343
0.000343817
0.000436686
0.000239174
0.000349456
0.000150847
0.000259998
0.000119411
0.000174571
0.000105898
0.000128864
6.08226e-05
0.000108625
6.18462e-05
3.49592e-05
5.9842e-05
5.39016e-05
3.31765e-05
3.32557e-05
3.0339e-05
3.13051e-05
0.000124873
0.000123762
0.000121589
0.000120247
0.000121347
0.000123911
0.000127926
0.000134712
0.000142733
0.000152058
0.000168009
0.000188837
0.000213076
0.000262447
0.000377918
0.000430304
0.000414411
0.000362133
0.000295797
0.000247185
0.00022136
0.000210415
0.000207474
0.000224326
0.0002996
0.000484465
0.000641577
0.000654756
0.000586483
0.000528814
0.000531522
0.000525413
0.000520749
0.000538414
0.000527089
0.000558255
0.000554126
0.000547461
0.000551371
0.000503907
0.000539651
0.00043721
0.000500699
0.000362514
0.000444674
0.00028434
0.000381286
0.000201407
0.000309843
0.000138362
0.000225492
0.0001097
0.000146077
0.000108479
4.57705e-05
0.000105559
9.97777e-05
3.18691e-05
3.80524e-05
2.93415e-05
3.02433e-05
0.000132391
0.00013022
0.000124508
0.000122102
0.000122786
0.000124625
0.000127741
0.000134008
0.000141406
0.000151285
0.000167009
0.000188379
0.000209544
0.000248256
0.00035716
0.000433714
0.000430523
0.000388698
0.000320228
0.000263575
0.000232083
0.000217682
0.00020998
0.000219105
0.000289506
0.000479855
0.000639981
0.000649119
0.000570967
0.000471466
0.00050838
0.000516266
0.000518191
0.000522576
0.000523704
0.000530873
0.00053055
0.000550392
0.000539131
0.00054409
0.000545172
0.000533708
0.000537595
0.000500963
0.000529529
0.000454394
0.000503505
0.00040079
0.000466195
0.000334587
0.000419148
0.000247748
0.000354697
0.000150172
0.000262516
0.000149099
9.191e-05
0.000144932
0.000135596
3.29291e-05
7.97358e-05
2.98274e-05
3.0688e-05
0.000147648
0.0001465
0.000130856
0.000124903
0.000124418
0.000125538
0.000127915
0.000133517
0.000140889
0.000151565
0.000166637
0.000188245
0.000206809
0.000239925
0.000333966
0.000428179
0.000443536
0.000415093
0.000344918
0.000283828
0.000244696
0.00022673
0.000214683
0.000214342
0.000277833
0.000471603
0.000633939
0.000646436
0.000565883
0.00043777
0.000436403
0.000496233
0.000526157
0.000530887
0.000550839
0.00053574
0.000547348
0.000540309
0.000551883
0.000537759
0.000536368
0.000539552
0.000539438
0.000533804
0.000537536
0.000526121
0.000533629
0.000506738
0.000528461
0.000477441
0.000514949
0.000435148
0.000490237
0.000370083
0.000449462
0.000267247
0.000379528
0.000262005
0.000122073
0.000250083
0.000226195
5.18361e-05
0.000105361
3.44137e-05
3.6239e-05
0.000152387
0.00017075
0.000147544
0.000130409
0.000126532
0.000126669
0.000128662
0.000133698
0.000141547
0.00015254
0.000167076
0.000188605
0.00020602
0.000234481
0.000311758
0.00042239
0.000455563
0.000435506
0.000371597
0.000305501
0.00025997
0.000238006
0.000222349
0.000214044
0.000269433
0.000465112
0.000629506
0.000644985
0.000575599
0.00044958
0.000367968
0.000421824
0.000496385
0.00054194
0.000564596
0.0005703
0.000567772
0.000582466
0.000570407
0.000588396
0.000541567
0.00055169
0.000538493
0.000546065
0.000535964
0.000541115
0.000537389
0.000543683
0.000535487
0.000547441
0.000525379
0.000546489
0.000503542
0.000537331
0.000461326
0.000515378
0.000384862
0.000470407
0.000383182
0.000194021
0.000377184
0.000357605
8.43515e-05
0.000159867
4.08176e-05
6.89636e-05
0.000169398
0.000171735
0.000145201
0.00013058
0.000128485
0.000130379
0.000135284
0.000143756
0.000154697
0.000168344
0.000189416
0.000206959
0.000231012
0.000292275
0.000409711
0.000467472
0.00045291
0.00039945
0.000329039
0.000277684
0.000251239
0.000232881
0.000223861
0.000277127
0.000468087
0.00062926
0.000648085
0.000589998
0.000465668
0.000347908
0.000291186
0.000363923
0.00045174
0.00055388
0.000503266
0.000582922
0.000575438
0.000593999
0.000594664
0.000594056
0.000599113
0.000564956
0.000584016
0.000553193
0.000571007
0.000547127
0.000555084
0.000550452
0.000554586
0.000556505
0.000559246
0.000555119
0.000562079
0.000545702
0.000558466
0.000523023
0.000547375
0.000475801
0.000525802
0.000474691
0.000320642
0.000467952
0.000450939
0.000119276
0.000263525
1.84906e-05
8.07792e-05
0.00016625
0.000169372
0.000141571
0.000132666
0.000134067
0.000139802
0.000149224
0.000159917
0.000172412
0.000191124
0.000207861
0.000229184
0.000277586
0.000389842
0.00046907
0.000468655
0.000428204
0.0003551
0.00029664
0.000266878
0.000245492
0.000239395
0.000303579
0.000495305
0.00063273
0.000657658
0.000614791
0.000503775
0.000357671
0.000220757
0.000230496
0.000287927
0.000431908
0.000338191
0.000524006
0.000449121
0.000589506
0.000569715
0.0006032
0.00059472
0.000594269
0.000600359
0.000579457
0.000587333
0.000562734
0.000566337
0.00055501
0.000553262
0.000557062
0.000553923
0.000563479
0.0005571
0.000560311
0.000560042
0.00055259
0.000551432
0.000539884
0.000539233
0.000520899
0.000527446
0.00051488
0.000424501
0.000506709
0.000495547
0.000471569
0.000193229
0.000375856
3.36373e-05
0.000127624
0.000169587
0.000165264
0.0001435
0.000141668
0.000149324
0.000157908
0.00016763
0.000179886
0.000195192
0.000211043
0.000229251
0.000269311
0.000370793
0.000464842
0.000481976
0.000454413
0.000381206
0.000318328
0.00028233
0.000260482
0.000257655
0.000345854
0.00054291
0.000644933
0.000669765
0.000645711
0.000563547
0.000385715
0.000204404
0.00016111
0.000179601
0.000201779
0.00035999
0.000267241
0.000449062
0.000358203
0.000568586
0.000520784
0.000583819
0.000549144
0.000578321
0.000554486
0.000570033
0.000577838
0.000548505
0.000546071
0.000547752
0.000535162
0.000551519
0.000544875
0.000559023
0.00055415
0.000553323
0.000559968
0.000537141
0.000544789
0.000519192
0.000520304
0.000513709
0.000501482
0.000508666
0.000509151
0.000502131
0.000487827
0.000444884
0.000482031
0.000501069
0.000493006
0.000496504
0.000498184
0.00029735
0.000469225
0.000455261
0.000398493
4.9223e-05
0.000207625
0.000173827
0.000166877
0.000156026
0.000163857
0.000170447
0.000177484
0.000187008
0.000200865
0.000218083
0.000230666
0.000265698
0.000354303
0.00045941
0.00049381
0.000474276
0.000409493
0.000340425
0.000298314
0.000274345
0.000277277
0.000393317
0.000599095
0.0006698
0.000687854
0.000674044
0.000616671
0.000426135
0.000212861
0.000141098
0.000128952
0.000135143
0.000173487
0.000138751
0.000271707
0.000207529
0.000337572
0.000261195
0.000498183
0.000423857
0.000513207
0.000457072
0.000509298
0.000472044
0.000544553
0.000533276
0.000523771
0.000514173
0.00052974
0.000513131
0.000550693
0.000543209
0.000566637
0.00056624
0.000558917
0.000564335
0.00053144
0.000540239
0.000549754
0.000557643
0.00050034
0.000504237
0.000536205
0.000527197
0.000513903
0.000492283
0.000492386
0.000481328
0.000489367
0.000484428
0.000495488
0.000491311
0.000491529
0.000475147
0.000478787
0.000490713
0.000431656
0.000326782
0.000402008
0.00048504
0.000474215
0.000100665
0.000364167
0.000316829
0.000170772
0.000186997
0.000180811
0.000184778
0.000187749
0.000191159
0.000198939
0.000209089
0.000223442
0.000235409
0.000266131
0.000341722
0.000447595
0.000504466
0.000491571
0.000438405
0.000364586
0.00031451
0.000288315
0.000287312
0.000433941
0.000654321
0.000701146
0.000713005
0.00070213
0.000658948
0.000458912
0.000223612
0.000144853
0.000117471
0.000112793
0.000115445
0.000159483
0.000134233
0.000209762
0.000181789
0.000251666
0.000214662
0.000385344
0.000313128
0.000424485
0.000368033
0.000458303
0.000425486
0.000501535
0.000483464
0.00049796
0.000482436
0.000528934
0.000514067
0.00055938
0.000548335
0.000557163
0.000546359
0.000557496
0.000556157
0.000551982
0.00054497
0.000545871
0.000549514
0.000550144
0.000494093
0.000504798
0.000536283
0.000525286
0.000517663
0.000478312
0.000472718
0.000467468
0.000483376
0.000464241
0.000490743
0.000490759
0.000473553
0.000457388
0.000452713
0.00047429
0.000456616
0.000430128
0.000489227
0.000483626
0.000185517
6.1982e-05
0.00012024
0.000393584
0.000345664
0.000211585
0.000216364
0.000215695
0.000212861
0.000214679
0.00022115
0.000234447
0.000248125
0.000269315
0.000334817
0.00043207
0.000505673
0.000506132
0.000467713
0.000390902
0.000332142
0.000301764
0.000288715
0.000454429
0.00070574
0.00073745
0.000739359
0.000728412
0.000691983
0.000478152
0.000241535
0.000153517
0.000123013
0.000110036
0.000105838
0.000118979
0.000108192
0.000154066
0.000133537
0.000190768
0.000171804
0.000224636
0.000201734
0.000310668
0.000261838
0.000383526
0.000334061
0.000419243
0.000388012
0.000465527
0.000444804
0.000497009
0.000477655
0.000535248
0.000524164
0.000533379
0.00052273
0.000536365
0.000526186
0.000516176
0.00050607
0.000546715
0.000539019
0.000527279
0.000513577
0.000539873
0.000539288
0.000531905
0.000494486
0.000507237
0.000528185
0.000498705
0.000505097
0.000471669
0.000456507
0.000459278
0.000483099
0.000446298
0.00047698
0.000480798
0.000450927
0.000437517
0.00043106
0.000452436
0.000471329
0.000449632
0.000484059
0.000484307
0.00026039
2.5055e-05
0.00011654
0.000415812
0.000362952
0.000259463
0.000258103
0.000244209
0.000240178
0.000240976
0.000248632
0.000265717
0.00027581
0.000335141
0.000420318
0.000503469
0.000518989
0.000492384
0.000417169
0.000352538
0.000316487
0.00028981
0.000455602
0.000749222
0.00077837
0.000768733
0.000757052
0.000715216
0.000486959
0.000260188
0.000167565
0.000132559
0.000117386
0.000107261
0.000105321
0.00012796
0.000118854
0.000172268
0.000147431
0.000192725
0.000183955
0.000229345
0.000223413
0.000284613
0.000246854
0.000350917
0.000317105
0.00041104
0.000386233
0.000456834
0.000434701
0.000514244
0.000502508
0.000511885
0.000507134
0.000498705
0.000491451
0.000486867
0.000483219
0.000499982
0.00048812
0.000478828
0.000470892
0.000518565
0.000502182
0.000485018
0.000470547
0.000524829
0.00051245
0.000494771
0.000484012
0.000468344
0.000502621
0.000471171
0.000461284
0.000470473
0.000446719
0.000457081
0.000458005
0.000434439
0.00045701
0.000463918
0.000427899
0.0004232
0.000413954
0.00042883
0.000478433
0.000463202
0.000471677
0.000478249
0.000264451
2.81152e-05
0.000114269
0.000433459
0.000373999
0.000325142
0.00029558
0.000277573
0.000268632
0.000272014
0.000281959
0.000291696
0.000338408
0.000414484
0.000498547
0.000529432
0.000511254
0.000446997
0.000373672
0.000332175
0.000291238
0.000447948
0.000779469
0.000823854
0.000799666
0.000786725
0.00073498
0.000490903
0.000281373
0.00018928
0.000147423
0.000128037
0.00011608
0.000108397
0.000118719
0.000114407
0.000145733
0.000129753
0.000200004
0.000169647
0.000217505
0.000212191
0.000262882
0.000258681
0.000289688
0.000271101
0.000362012
0.000341466
0.000454104
0.000435102
0.000488977
0.000472087
0.000505173
0.000503904
0.000469578
0.000473115
0.000464628
0.000459736
0.000456883
0.000455182
0.000459141
0.000448985
0.000441283
0.000435939
0.000474482
0.000456418
0.00044199
0.000429842
0.000491481
0.000470276
0.000448454
0.000438303
0.000431658
0.000471827
0.000455269
0.000443162
0.000437169
0.000443191
0.00042286
0.000417046
0.000429091
0.000434003
0.000443
0.00040802
0.000415302
0.000402687
0.000406675
0.000480422
0.000473247
0.000454855
0.000467759
0.000251916
3.64957e-05
8.73996e-05
0.000447582
0.000378559
0.000438204
0.000371453
0.000312381
0.000300445
0.000306658
0.000314764
0.000344093
0.000413939
0.000492866
0.000537519
0.000526341
0.000475654
0.000397526
0.00034745
0.00029664
0.000425044
0.000790514
0.000870389
0.000831636
0.00081351
0.000751179
0.000498294
0.000312085
0.000215718
0.000169587
0.000143519
0.000127554
0.000117024
0.000115773
0.000123566
0.000118477
0.000153092
0.000133267
0.000222685
0.000182087
0.000254614
0.000247335
0.000307048
0.00030408
0.000325605
0.000313977
0.000416969
0.000402005
0.000495678
0.000487
0.000503023
0.000500874
0.000481035
0.000488006
0.000433386
0.000437502
0.0004485
0.000441445
0.000432629
0.000430979
0.000430565
0.000431402
0.000420615
0.000415016
0.000412207
0.000411187
0.000430261
0.000414883
0.000403227
0.000396539
0.000448208
0.000426469
0.000406624
0.000409393
0.000421933
0.000430539
0.000417601
0.000442394
0.000400017
0.000414044
0.000389134
0.000393362
0.000412219
0.000410821
0.00042075
0.000393029
0.000412062
0.000396311
0.000388067
0.000479032
0.00048102
0.000435922
0.000455068
0.000228156
9.7706e-06
6.74993e-05
0.000457695
0.000375226
0.000581679
0.000462397
0.00034116
0.000333368
0.000344424
0.000358472
0.000415643
0.000490343
0.000543612
0.000538771
0.000501794
0.000422628
0.000362452
0.000312551
0.000382479
0.000783348
0.000915481
0.000867747
0.000836431
0.000763781
0.000512044
0.000347507
0.000252953
0.000196251
0.000165053
0.000143527
0.000128509
0.000121115
0.000119271
0.000121067
0.000126453
0.000121321
0.000156777
0.000137369
0.000227921
0.000187187
0.000295492
0.000272405
0.000361077
0.000343414
0.00038861
0.000374513
0.000474159
0.000457186
0.000500412
0.000492437
0.000497464
0.000502065
0.000454019
0.000461793
0.000464861
0.000422356
0.000428125
0.000440861
0.000434165
0.000411401
0.00041303
0.000414904
0.000417671
0.000393526
0.000393017
0.00039396
0.000396474
0.000390889
0.000380516
0.000375717
0.000374631
0.000407734
0.000386395
0.000370164
0.000406196
0.00043016
0.000393076
0.000382415
0.000408447
0.000380369
0.000385074
0.00037209
0.000392402
0.000386636
0.000389617
0.000399117
0.000382453
0.000392892
0.000394556
0.000373042
0.000475048
0.000486012
0.000416712
0.000441328
0.000194126
3.50661e-06
4.64941e-05
0.000464181
0.000305954
0.000716343
0.000529611
0.000363911
0.000370391
0.000383605
0.0004209
0.000489122
0.000545874
0.000552542
0.000523891
0.000446622
0.000376697
0.000333878
0.00034311
0.000752885
0.00095813
0.000908718
0.000862413
0.000780275
0.000530503
0.000389249
0.000298405
0.00023207
0.000190802
0.000163068
0.00014184
0.000129759
0.000124229
0.000121973
0.000121293
0.000129314
0.000123981
0.000155596
0.000138672
0.000227389
0.00018463
0.000313182
0.000275958
0.000387534
0.000355212
0.000437313
0.000413976
0.000477475
0.000455979
0.000441321
0.000414997
0.000464891
0.000455256
0.000447575
0.000453743
0.000455768
0.000454786
0.000420961
0.000429334
0.000445159
0.000437584
0.000399306
0.00040193
0.0004067
0.000413519
0.000376414
0.000378079
0.00038206
0.000385042
0.000361096
0.000357189
0.000356944
0.000359207
0.000369739
0.000353256
0.000344035
0.000417586
0.000402111
0.000356934
0.000347847
0.000375413
0.000382078
0.000369291
0.000376062
0.000405777
0.00037312
0.000371402
0.000379284
0.000376145
0.000377282
0.000381814
0.000361198
0.000469063
0.000487327
0.000398085
0.000426968
0.000167267
1.91025e-06
2.77391e-05
0.000393079
0.000253537
0.000817387
0.000555959
0.000388995
0.000407578
0.00043537
0.000490544
0.000547048
0.00056248
0.000543831
0.000477147
0.000391248
0.000354563
0.000320194
0.000660018
0.000986054
0.000950748
0.000896715
0.000813715
0.000569628
0.000428123
0.000348017
0.000279167
0.000221724
0.000182125
0.000157462
0.000142067
0.000131015
0.000122435
0.000126361
0.000120993
0.00012152
0.000127152
0.000122789
0.000146296
0.000134672
0.000200238
0.000165266
0.00031169
0.000253744
0.000351511
0.000295213
0.000428126
0.000394289
0.000381143
0.000342982
0.000383035
0.000338902
0.000449291
0.000441568
0.000421423
0.000451281
0.000455192
0.0004226
0.000414328
0.000424323
0.000435459
0.000435455
0.000446062
0.00038935
0.00039564
0.000403714
0.000413222
0.000362051
0.000364189
0.00036859
0.000373494
0.000339896
0.000339035
0.00034029
0.000342945
0.000339294
0.000328905
0.000323492
0.000399747
0.000373021
0.000328136
0.000319805
0.000343047
0.000397638
0.000372795
0.00039184
0.00039999
0.000372317
0.000355833
0.000361916
0.000371327
0.000371836
0.000373088
0.000352138
0.000460853
0.000436085
0.00038007
0.000411611
0.000140397