/*--------------------------------*- C++ -*----------------------------------*\
  =========                 |
  \\      /  F ield         | OpenFOAM: The Open Source CFD Toolbox
   \\    /   O peration     | Website:  https://openfoam.org
    \\  /    A nd           | Version:  dev
     \\/     M anipulation  |
\*---------------------------------------------------------------------------*/
FoamFile
{
    version     2.0;
    format      ascii;
    class       volScalarField;
    location    "2500";
    object      CO2;
}
// * * * * * * * * * * * * * * * * * * * * * * * * * * * * * * * * * * * * * //

dimensions      [0 0 0 0 0 0 0];

internalField   nonuniform List<scalar> 
9842
(
2.9527e-29
8.49545e-29
5.56545e-29
1.46255e-28
1.83726e-28
5.17648e-29
1.78362e-28
4.17573e-28
1.75169e-28
4.04047e-29
1.88268e-28
7.33058e-28
5.52126e-28
1.93435e-28
1.07599e-29
2.46192e-28
1.38684e-27
1.04542e-27
5.3117e-28
1.35616e-28
1.0921e-29
4.1766e-28
1.92136e-27
2.03179e-27
1.05131e-27
3.28745e-28
8.37481e-29
3.75503e-30
5.69483e-28
1.73615e-27
3.34036e-27
2.17862e-27
9.16697e-28
2.82071e-28
2.96924e-29
1.50455e-30
9.06686e-28
2.22249e-27
5.48481e-27
4.31039e-27
2.03349e-27
7.31838e-28
1.58954e-28
1.23865e-29
8.19861e-31
1.24998e-27
4.29224e-27
8.10147e-27
7.10574e-27
4.28407e-27
1.56399e-27
4.43998e-28
5.46008e-29
6.67114e-30
1.97954e-31
4.4183e-27
1.15577e-26
1.38046e-26
1.19931e-26
8.12049e-27
3.78829e-27
9.8628e-28
2.49804e-28
3.34663e-29
2.34367e-30
8.16837e-32
9.69537e-27
1.87894e-26
2.892e-26
2.16935e-26
1.37021e-26
7.41018e-27
2.63225e-27
7.23601e-28
1.43227e-28
1.29373e-29
8.18326e-31
2.26113e-32
1.49948e-26
4.37252e-26
5.82354e-26
4.07401e-26
2.76111e-26
1.37965e-26
6.52216e-27
1.96936e-27
4.61393e-28
4.23095e-29
4.68734e-30
2.74493e-31
6.15702e-33
2.88292e-26
8.76285e-26
1.14823e-25
1.00402e-25
5.48291e-26
2.80887e-26
1.07666e-26
4.91511e-27
1.3282e-27
2.04406e-28
2.2813e-29
1.70182e-30
4.84108e-32
1.00386e-33
4.32489e-26
2.02671e-25
2.88389e-25
2.63e-25
1.24998e-25
5.89049e-26
2.72053e-26
9.01079e-27
3.5806e-27
6.88954e-28
9.31705e-29
8.40646e-30
3.88718e-31
1.9109e-32
4.98282e-34
4.9019e-26
2.36138e-25
6.38086e-25
5.58354e-25
3.39643e-25
1.53248e-25
5.81788e-26
2.12734e-26
7.33915e-27
1.85374e-27
3.14847e-28
3.79485e-29
2.59825e-30
1.16721e-31
1.26126e-32
8.22965e-33
1.64615e-25
5.0809e-25
1.28097e-24
1.12847e-24
8.40074e-25
3.80416e-25
1.45201e-25
4.6648e-26
1.58951e-26
4.48872e-27
9.71262e-28
1.09726e-28
8.39731e-30
7.37987e-31
1.02641e-31
1.77892e-31
1.69638e-31
4.87239e-25
1.39506e-24
2.97663e-24
3.10818e-24
1.69981e-24
9.12088e-25
3.62319e-25
1.24809e-25
3.78568e-26
9.40505e-27
1.76408e-27
4.28927e-28
4.79749e-29
3.05403e-30
9.85013e-31
2.2139e-30
4.62777e-30
4.33139e-30
1.10296e-24
2.6523e-24
5.69001e-24
7.53564e-24
4.67215e-24
1.94094e-24
8.60875e-25
3.14373e-25
9.6015e-26
2.68162e-26
5.92061e-27
9.29067e-28
1.77121e-28
1.79827e-29
8.18365e-30
2.17287e-29
6.0354e-29
9.91513e-29
1.24903e-28
1.97363e-24
5.1932e-24
1.22156e-23
1.42476e-23
1.51912e-23
5.4296e-24
1.80425e-24
7.88669e-25
2.37354e-25
5.69352e-26
1.53753e-26
3.21094e-27
4.98216e-28
7.76904e-29
6.20744e-29
2.11399e-28
5.83403e-28
1.59352e-27
2.32643e-27
2.38963e-27
1.57995e-24
1.27353e-23
2.89805e-23
4.02591e-23
2.82062e-23
2.07471e-23
6.77717e-24
1.98381e-24
6.34399e-25
1.86375e-25
4.3412e-26
9.68383e-27
1.6295e-27
2.46036e-28
5.69648e-28
1.78749e-27
6.96245e-27
1.87295e-26
3.58936e-26
4.19934e-26
3.48343e-26
2.42472e-24
2.34692e-23
4.16612e-23
7.22889e-23
7.24837e-23
4.36711e-23
1.93492e-23
6.1841e-24
1.68769e-24
4.71907e-25
1.24673e-25
2.66957e-26
4.17781e-27
1.5948e-27
4.76773e-27
2.03159e-26
5.9856e-26
1.81467e-25
4.66667e-25
6.63046e-25
6.07507e-25
4.14828e-25
4.36256e-24
2.17843e-23
8.58421e-23
1.92421e-22
1.99993e-22
1.44798e-22
6.07134e-23
1.63615e-23
5.29511e-24
1.08255e-24
2.83103e-25
7.48146e-26
1.20423e-26
1.44956e-26
5.39189e-26
1.88144e-25
7.47988e-25
1.98278e-24
5.2153e-24
1.02152e-23
1.25094e-23
1.03627e-23
1.00447e-23
6.75559e-24
2.63998e-23
1.17087e-22
3.67519e-22
3.86824e-22
2.91497e-22
1.6143e-22
5.7032e-23
1.56818e-23
3.64894e-24
8.50934e-25
1.83096e-25
5.37889e-26
1.08815e-25
5.4811e-25
2.46759e-24
7.01523e-24
2.46989e-23
4.95979e-23
1.17587e-22
1.89877e-22
2.23898e-22
1.46176e-22
1.38434e-22
3.01003e-23
9.64103e-23
1.42808e-22
4.71067e-22
8.23127e-22
7.97959e-22
3.75273e-22
1.41293e-22
4.70062e-23
1.03827e-23
2.44199e-24
6.33126e-25
1.63813e-25
5.84973e-25
4.95939e-24
2.3312e-23
9.28623e-23
2.58379e-22
6.77063e-22
1.32301e-21
2.17944e-21
2.95782e-21
2.71056e-21
2.00818e-21
1.38168e-21
2.4902e-23
1.81262e-22
2.68045e-22
5.16889e-22
1.35118e-21
1.53973e-21
1.07753e-21
4.04347e-22
1.2535e-22
3.54036e-23
8.15627e-24
1.70462e-24
7.97171e-25
4.10537e-24
3.01366e-23
2.33222e-22
1.013e-21
3.04793e-21
6.99688e-21
1.54779e-20
2.36154e-20
3.56855e-20
3.8936e-20
3.21577e-20
2.27362e-20
1.20086e-20
2.92638e-23
2.24785e-22
5.46261e-22
7.96446e-22
1.59861e-21
2.81181e-21
2.0006e-21
1.06666e-21
3.52242e-22
1.15623e-22
2.64556e-23
5.25904e-24
3.16592e-24
2.29511e-23
1.97826e-22
1.44995e-21
9.78328e-21
3.39081e-20
8.7856e-20
1.99359e-19
2.75462e-19
3.28655e-19
4.94768e-19
3.68799e-19
3.06719e-19
1.93213e-19
1.31424e-19
2.09731e-23
1.74419e-22
8.49307e-22
2.13901e-21
2.37552e-21
4.42997e-21
4.4307e-21
2.58574e-21
7.71619e-22
2.95093e-22
6.8464e-23
1.37313e-23
1.09278e-23
1.1055e-22
1.20985e-21
9.53381e-21
6.5103e-20
3.7669e-19
1.18737e-18
2.58062e-18
3.53257e-18
4.80115e-18
5.69002e-18
5.49072e-18
5.99997e-18
3.15737e-18
2.66518e-18
1.21614e-18
1.09157e-23
1.20726e-22
1.03061e-21
3.44719e-21
5.33611e-21
6.32902e-21
7.0502e-21
5.68679e-21
2.1321e-21
6.77156e-22
2.33042e-22
5.58863e-23
4.49474e-23
4.3849e-22
5.58602e-21
6.32984e-20
4.16945e-19
2.80419e-18
1.24467e-17
2.97211e-17
5.95721e-17
6.48359e-17
9.14212e-17
8.96924e-17
8.36608e-17
6.32111e-17
3.77195e-17
2.13151e-17
8.34456e-18
1.13981e-23
2.17799e-22
9.69047e-22
3.22431e-21
8.94796e-21
1.24864e-20
1.13505e-20
1.0013e-20
5.77599e-21
1.65463e-21
5.4063e-22
1.60396e-22
1.58106e-22
1.71188e-21
2.32039e-20
2.85662e-19
3.07904e-18
1.90334e-17
1.00089e-16
3.43695e-16
5.69498e-16
9.47491e-16
9.59546e-16
1.17844e-15
9.30407e-16
7.59131e-16
5.11764e-16
2.86221e-16
1.52234e-16
2.5333e-17
3.91432e-23
1.86421e-22
9.2606e-22
2.57596e-21
9.55565e-21
1.8729e-20
2.34426e-20
1.67868e-20
9.7493e-21
4.66383e-21
1.14104e-21
4.04146e-22
5.08884e-22
6.60047e-21
8.51901e-20
1.33449e-18
1.66743e-17
1.37912e-16
7.97175e-16
2.85225e-15
7.1206e-15
9.77247e-15
1.37309e-14
1.58852e-14
1.49597e-14
1.22231e-14
7.70725e-15
4.13499e-15
2.06258e-15
8.08771e-16
2.03314e-16
1.02626e-22
3.02593e-22
5.11199e-22
2.71125e-21
1.20349e-20
2.46465e-20
3.10609e-20
3.16931e-20
2.02934e-20
1.0783e-20
3.43616e-21
1.0331e-21
1.14424e-21
1.76232e-20
3.29878e-19
5.02145e-18
6.95724e-17
8.30812e-16
5.46271e-15
2.61063e-14
7.12671e-14
1.16226e-13
1.72077e-13
2.23496e-13
2.28282e-13
1.90793e-13
1.31994e-13
7.5584e-14
3.58268e-14
1.36403e-14
3.78409e-15
5.1572e-16
3.16727e-22
6.38945e-22
1.08113e-21
1.95265e-21
9.97734e-21
2.43697e-20
5.07952e-20
5.68913e-20
3.56276e-20
2.19457e-20
8.36917e-21
2.70675e-21
2.29204e-21
3.67146e-20
8.53627e-19
1.74486e-17
3.04128e-16
4.08186e-15
3.6842e-14
2.02476e-13
6.9728e-13
1.25185e-12
1.93811e-12
2.79553e-12
3.16613e-12
2.85188e-12
2.11409e-12
1.29759e-12
6.56552e-13
2.65468e-13
8.00969e-14
1.35249e-14
1.27015e-16
1.23151e-21
2.08814e-21
1.94822e-21
3.17475e-21
8.84974e-21
3.06263e-20
6.41222e-20
7.8509e-20
7.53659e-20
4.24737e-20
1.98233e-20
6.73335e-21
4.52974e-21
6.56604e-20
1.66762e-18
4.67458e-17
1.06793e-15
1.70141e-14
1.96082e-13
1.34347e-12
5.58601e-12
1.21799e-11
1.92613e-11
3.05457e-11
3.84281e-11
3.84918e-11
3.0698e-11
2.01642e-11
1.09295e-11
4.75994e-12
1.52979e-12
2.81572e-13
5.15783e-15
2.78697e-16
2.89432e-15
5.3131e-21
8.65108e-21
8.28353e-21
7.2795e-21
7.50448e-21
2.73593e-20
7.13903e-20
1.27099e-19
1.1952e-19
7.67976e-20
3.79163e-20
1.52591e-20
9.91181e-21
1.15668e-19
2.89474e-18
8.30235e-17
2.56448e-15
6.02803e-14
8.7211e-13
7.14014e-12
3.75709e-11
9.9998e-11
1.65465e-10
2.94282e-10
4.03886e-10
4.50368e-10
3.99949e-10
2.82428e-10
1.63529e-10
7.65237e-11
2.68603e-11
5.4161e-12
4.48804e-16
2.29615e-14
1.66035e-13
8.25696e-16
1.18892e-14
1.48885e-20
3.95861e-20
3.32643e-20
3.07701e-20
1.79063e-20
3.08715e-20
8.77515e-20
1.32308e-19
1.74679e-19
1.30879e-19
6.73228e-20
3.04688e-20
1.85708e-20
1.73125e-19
4.70658e-18
1.44883e-16
4.81449e-15
1.6287e-13
3.10947e-12
3.15356e-11
1.95973e-10
6.53241e-10
1.21632e-09
2.46893e-09
3.698e-09
4.5118e-09
4.48438e-09
3.517e-09
2.18424e-09
1.08594e-09
4.1252e-10
9.52436e-11
2.4068e-12
1.03648e-11
9.37787e-13
6.49179e-12
5.43777e-12
9.72763e-14
6.53738e-13
3.03019e-15
4.92114e-14
2.1593e-20
1.43192e-19
2.30918e-19
1.63236e-19
7.53373e-20
4.64994e-20
9.68744e-20
1.73901e-19
2.42185e-19
2.27776e-19
1.43173e-19
5.74419e-20
3.84921e-20
2.34832e-19
6.40312e-18
2.12264e-16
7.8708e-15
2.86065e-13
8.12486e-12
1.11998e-10
8.47512e-10
3.38951e-09
7.45456e-09
1.77283e-08
2.9749e-08
3.90326e-08
4.25298e-08
3.72179e-08
2.5447e-08
1.34786e-08
5.44918e-09
1.41826e-09
4.1831e-11
1.78642e-10
3.04918e-11
3.79224e-12
2.57396e-11
1.94804e-11
3.90891e-13
2.48761e-12
1.04662e-14
1.74539e-13
1.565e-19
4.55193e-19
9.02659e-19
6.59147e-19
3.33213e-19
1.40467e-19
1.15771e-19
1.89081e-19
3.07684e-19
3.58726e-19
2.80802e-19
1.22002e-19
7.97579e-20
3.28739e-19
7.94521e-18
2.50793e-16
9.96432e-15
4.49298e-13
1.40511e-11
2.77432e-10
2.96983e-09
1.35188e-08
3.62616e-08
1.0522e-07
2.05936e-07
2.93275e-07
3.45468e-07
3.33268e-07
2.56356e-07
1.51687e-07
6.56227e-08
1.88149e-08
6.60923e-10
2.53946e-09
1.30244e-10
5.20247e-10
1.13578e-10
1.39152e-11
9.20008e-11
7.03637e-11
1.39002e-12
8.86394e-12
3.18403e-14
5.78275e-13
2.10204e-18
1.91191e-18
4.61193e-18
2.46118e-18
1.39552e-18
5.82698e-19
2.37457e-19
2.45406e-19
4.55439e-19
5.20084e-19
4.03094e-19
3.35296e-19
1.49499e-19
5.5032e-19
1.02054e-17
2.85807e-16
1.1002e-14
5.12278e-13
2.23926e-11
4.66697e-10
6.88926e-09
4.10904e-08
1.34988e-07
4.8815e-07
1.16778e-06
1.93549e-06
2.42061e-06
2.52916e-06
2.15416e-06
1.47881e-06
7.49988e-07
2.41549e-07
9.04581e-09
3.35217e-08
1.94624e-09
6.99257e-09
4.64585e-10
1.7865e-09
4.00126e-10
4.99901e-11
3.28528e-10
2.553e-10
4.83424e-12
3.17596e-11
9.97769e-14
1.96328e-12
5.35336e-18
1.17214e-17
1.74756e-17
1.45228e-17
7.87594e-18
2.42859e-18
9.83392e-19
5.42515e-19
7.17537e-19
1.01198e-18
9.33369e-19
6.36209e-19
4.99426e-19
8.44799e-19
1.28133e-17
3.23907e-16
1.13613e-14
5.27629e-13
2.50194e-11
7.46238e-10
1.12356e-08
9.31302e-08
3.76488e-07
1.68914e-06
5.01761e-06
1.02873e-05
1.49424e-05
1.66348e-05
1.52885e-05
1.15116e-05
7.06426e-06
2.81666e-06
1.22115e-07
4.54862e-07
2.41919e-08
8.31759e-08
6.46106e-09
2.24032e-08
1.60703e-09
6.06301e-09
1.41768e-09
1.83334e-10
1.19763e-09
9.59574e-10
1.72987e-11
1.17959e-10
3.33554e-13
7.00691e-12
1.49125e-17
9.07784e-17
5.48038e-17
5.61718e-17
3.11761e-17
1.12377e-17
4.89242e-18
2.44156e-18
1.73471e-18
2.56759e-18
2.17828e-18
1.27571e-18
1.32881e-18
1.74084e-18
1.82961e-17
3.79856e-16
1.12012e-14
4.96611e-13
2.56062e-11
7.94846e-10
1.76296e-08
1.56829e-07
7.52264e-07
4.20143e-06
1.55204e-05
3.88882e-05
6.91405e-05
8.96336e-05
8.76264e-05
7.10071e-05
4.81932e-05
2.56998e-05
1.75378e-06
6.24978e-06
2.87993e-07
1.03831e-06
7.58599e-08
2.56171e-07
2.1566e-08
7.39221e-08
5.65878e-09
2.12936e-08
5.23227e-09
7.05197e-10
4.62748e-09
3.86873e-09
6.46415e-11
4.60161e-10
1.18303e-12
2.62356e-11
7.03474e-17
3.18098e-16
2.67741e-16
1.94838e-16
1.05286e-16
5.49642e-17
1.97769e-17
8.96603e-18
4.88506e-18
5.59239e-18
6.44097e-18
4.34746e-18
2.92958e-18
4.63827e-18
3.04479e-17
4.80505e-16
1.1685e-14
4.33946e-13
2.22235e-11
8.6384e-10
1.66753e-08
2.07432e-07
1.17015e-06
7.54158e-06
3.25155e-05
9.84559e-05
0.000206752
0.000306774
0.000337883
0.000289061
0.000219366
0.000146496
2.17592e-05
6.80599e-05
3.71195e-06
1.28936e-05
8.80694e-07
3.10521e-06
2.50155e-07
8.5264e-07
7.62794e-08
2.66371e-07
2.13276e-08
8.23781e-08
2.11443e-08
2.90679e-09
1.9929e-08
1.73443e-08
2.52581e-10
1.90489e-09
4.42955e-12
1.02587e-10
3.66835e-16
9.05542e-16
8.379e-16
7.21331e-16
5.17307e-16
2.20844e-16
9.11545e-17
3.08249e-17
2.24751e-17
1.6143e-17
1.5612e-17
1.43012e-17
6.99137e-18
1.05822e-17
4.61858e-17
7.22689e-16
1.40746e-14
4.13488e-13
1.74825e-11
7.53641e-10
2.00092e-08
2.40891e-07
1.48171e-06
1.08355e-05
5.25452e-05
0.000170057
0.000386155
0.000633296
0.000784784
0.000788186
0.000647774
0.000514519
0.000188583
0.000422718
4.28546e-05
0.000132729
1.05137e-05
3.43179e-05
2.95263e-06
9.87176e-06
9.30161e-07
3.25296e-06
3.08936e-07
1.14058e-06
9.16711e-08
3.7843e-07
9.92573e-08
1.31679e-08
9.97605e-08
8.9065e-08
1.03724e-09
8.50346e-09
1.74663e-11
4.18533e-10
1.41378e-15
3.64024e-15
3.5249e-15
2.50657e-15
1.91578e-15
8.35694e-16
4.45261e-16
1.64361e-16
7.17503e-17
6.72518e-17
3.78248e-17
3.89772e-17
2.02145e-17
1.78745e-17
6.86448e-17
1.01138e-15
1.83276e-14
4.32318e-13
1.50654e-11
6.25674e-10
1.63623e-08
2.36315e-07
1.63264e-06
1.30412e-05
6.92656e-05
0.000242706
0.000553715
0.00093407
0.00124709
0.00137616
0.00128851
0.00105882
0.000652355
0.000969883
0.000333329
0.000587473
0.000105771
0.000280712
3.1577e-05
9.61343e-05
1.08745e-05
3.40658e-05
4.14762e-06
1.39195e-05
1.52795e-06
5.89917e-06
4.73106e-07
2.10542e-06
5.51654e-07
6.70701e-08
5.78939e-07
5.19359e-07
4.53491e-09
4.18872e-08
7.2127e-11
1.78193e-09
1.08605e-14
2.62708e-14
2.24015e-14
1.41419e-14
8.24384e-15
4.24954e-15
1.58278e-15
6.93491e-16
3.24025e-16
1.66032e-16
1.22528e-16
1.0376e-16
7.12026e-17
3.80601e-17
1.03294e-16
1.31653e-15
2.47008e-14
5.05055e-13
1.45927e-11
5.47344e-10
1.44041e-08
2.2865e-07
1.62175e-06
1.37627e-05
7.91609e-05
0.000292587
0.000701414
0.00116482
0.00159646
0.00189678
0.00197767
0.00180395
0.00126064
0.00160214
0.000873066
0.00120332
0.000527823
0.000817054
0.000256564
0.000502214
0.000100709
0.000262283
4.30283e-05
0.000122231
2.0273e-05
6.1418e-05
8.72914e-06
3.09326e-05
2.83183e-06
1.25949e-05
3.41026e-06
3.84294e-07
3.62371e-06
3.24778e-06
2.13815e-08
2.30481e-07
3.14578e-10
8.05035e-09
8.91231e-14
1.98727e-13
1.5875e-13
9.33341e-14
4.98261e-14
2.1074e-14
6.73175e-15
2.0864e-15
1.05738e-15
7.61394e-16
3.78572e-16
2.89336e-16
2.64774e-16
1.6573e-16
1.74812e-16
1.51294e-15
2.99559e-14
6.14274e-13
1.53599e-11
4.9014e-10
1.38311e-08
2.18591e-07
1.56675e-06
1.35576e-05
8.16039e-05
0.000318334
0.000787893
0.00134163
0.00179902
0.00217682
0.00243552
0.00249247
0.00236445
0.00153916
0.00198951
0.00114277
0.00150986
0.000794653
0.00112672
0.000516099
0.000819199
0.000304389
0.000577911
0.000166381
0.000391609
9.37769e-05
0.000240486
4.63237e-05
0.000140653
1.70087e-05
6.53964e-05
2.02773e-05
2.38219e-06
2.13744e-05
1.93195e-05
1.11171e-07
1.3998e-06
1.47533e-09
3.9536e-08
7.25427e-13
1.5167e-12
1.15166e-12
6.38479e-13
3.51611e-13
1.27088e-13
3.29692e-14
1.04055e-14
4.5954e-15
2.34014e-15
1.65944e-15
8.80056e-16
7.37928e-16
4.26386e-16
3.70795e-16
1.78894e-15
3.41468e-14
7.33266e-13
1.68436e-11
4.68644e-10
1.34682e-08
2.12285e-07
1.53215e-06
1.29816e-05
8.02278e-05
0.000319856
0.000817535
0.00132029
0.00176455
0.0021785
0.00252332
0.00280669
0.002967
0.00264079
0.0030113
0.0019044
0.00231453
0.00149629
0.00190515
0.00116244
0.00154037
0.000901702
0.00126284
0.000697406
0.00105312
0.000529987
0.000884224
0.000355848
0.000716284
0.000201163
0.000498226
8.48099e-05
0.000267812
9.78039e-05
1.45201e-05
0.000101588
9.27218e-05
6.38787e-07
8.71526e-06
7.60412e-09
2.1394e-07
5.16244e-12
1.09484e-11
8.28256e-12
4.46179e-12
2.35766e-12
7.25181e-13
1.96121e-13
5.98723e-14
2.47799e-14
1.29743e-14
7.08041e-15
4.00586e-15
2.57424e-15
1.60515e-15
7.63202e-16
2.00219e-15
3.71805e-14
7.88759e-13
1.7585e-11
4.74236e-10
1.32207e-08
2.1809e-07
1.55372e-06
1.26504e-05
7.73377e-05
0.000312788
0.000799924
0.0012078
0.00152512
0.00194909
0.0023925
0.00280796
0.00312802
0.00318931
0.00328169
0.00306297
0.00325801
0.0023259
0.00271787
0.0019509
0.00238113
0.00165255
0.00206659
0.00143853
0.00184428
0.00127756
0.00169461
0.00113472
0.0015752
0.000947749
0.0014344
0.000660601
0.00119941
0.000327723
0.000819202
0.000364299
7.21507e-05
0.000372437
0.000341242
3.90197e-06
4.57017e-05
4.32795e-08
1.24583e-06
2.15253e-11
6.36829e-11
5.61143e-11
3.07326e-11
1.46483e-11
3.96751e-12
1.129e-12
3.71825e-13
1.5984e-13
8.23525e-14
4.33453e-14
2.10584e-14
8.92928e-15
4.33808e-15
2.72267e-15
2.80114e-15
3.72329e-14
8.35589e-13
1.87477e-11
4.67831e-10
1.30617e-08
2.44177e-07
1.70831e-06
1.29228e-05
7.63685e-05
0.000302145
0.000763033
0.00108149
0.00126548
0.00143747
0.00183215
0.00248162
0.00296554
0.00327801
0.00322095
0.00332751
0.00332403
0.00330881
0.00336721
0.00278671
0.0031254
0.00248825
0.00288723
0.00225891
0.00266613
0.00211675
0.00252953
0.0020228
0.00245797
0.0019289
0.00240338
0.00176177
0.00230415
0.00144968
0.00208248
0.000945101
0.00167366
0.00101484
0.000273667
0.00102179
0.000941205
2.16322e-05
0.000186088
2.60886e-07
7.11627e-06
4.71562e-11
1.90328e-10
2.69573e-10
2.08708e-10
7.84214e-11
2.10798e-11
6.32111e-12
2.34274e-12
1.09775e-12
5.71524e-13
2.87831e-13
1.32221e-13
5.3636e-14
2.00633e-14
1.41612e-14
6.63103e-15
3.555e-14
7.99024e-13
1.82545e-11
4.42203e-10
1.22376e-08
2.70797e-07
2.08442e-06
1.44869e-05
7.86001e-05
0.000298924
0.000730105
0.000994945
0.00109366
0.00104194
0.00100318
0.00141753
0.00229531
0.00285489
0.00328136
0.00311607
0.00335832
0.00330684
0.00341604
0.00339497
0.00320676
0.00337473
0.00303479
0.00331576
0.00291137
0.00323725
0.00286177
0.0032098
0.00284359
0.00322672
0.00280336
0.0032396
0.00266792
0.00318364
0.00236521
0.00298738
0.00184301
0.0025975
0.00193607
0.000777888
0.00194599
0.00184408
9.58732e-05
0.000565973
1.50289e-06
3.27103e-05
2.70407e-10
6.83311e-10
9.19121e-10
3.54693e-10
1.04926e-10
3.53304e-11
1.53972e-11
7.96067e-12
4.14835e-12
2.00992e-12
8.79634e-13
3.41502e-13
1.1987e-13
4.22574e-14
1.93119e-14
3.46214e-14
7.13758e-13
1.69715e-11
3.92009e-10
1.06712e-08
2.68633e-07
2.61995e-06
1.79564e-05
8.76814e-05
0.000303884
0.000710197
0.000939307
0.000988361
0.000800598
0.000496445
0.000550004
0.00103955
0.0017993
0.00262063
0.00208234
0.00317271
0.00290412
0.00331671
0.00313975
0.00345072
0.0033351
0.00346784
0.00349131
0.00347113
0.00359568
0.00348417
0.00367048
0.00354012
0.00376791
0.00360159
0.00388505
0.00361826
0.00397631
0.00351935
0.00397139
0.00324722
0.00380857
0.00275066
0.00344815
0.00281912
0.00161247
0.00279771
0.00267028
0.000318911
0.00125233
6.95693e-06
0.00011979
7.9214e-10
1.97692e-09
1.35518e-09
4.92372e-10
2.0694e-10
1.11764e-10
6.22229e-11
3.18222e-11
1.46447e-11
6.07004e-12
2.24958e-12
7.5872e-13
2.36048e-13
9.03453e-14
4.63826e-14
5.65652e-13
1.41839e-11
3.29453e-10
8.83743e-09
2.39775e-07
2.96134e-06
2.27314e-05
0.000103398
0.000323972
0.000704198
0.000904593
0.000925308
0.000679342
0.000287462
0.000195688
0.000334278
0.000684703
0.00160265
0.000948005
0.00212481
0.00161301
0.00287521
0.00254827
0.00309638
0.00280229
0.00338469
0.00309375
0.00360471
0.00354547
0.00375843
0.00375456
0.00391131
0.00396668
0.00408443
0.00419453
0.00423029
0.00437837
0.0043195
0.00449345
0.0042755
0.00458461
0.00404155
0.00455714
0.00357497
0.00423672
0.00362417
0.00243006
0.00359125
0.00350362
0.00299238
0.00078887
0.00202611
2.71288e-05
0.000346395
1.96614e-09
3.42037e-09
2.31771e-09
1.39884e-09
9.33612e-10
5.37325e-10
2.61515e-10
1.11993e-10
4.33915e-11
1.52873e-11
4.93998e-12
1.47125e-12
4.38012e-13
1.43159e-13
4.60057e-13
1.09843e-11
2.54413e-10
6.97891e-09
1.86356e-07
2.98698e-06
2.6839e-05
0.000123947
0.000353861
0.000708028
0.000883744
0.000887417
0.000623457
0.00022073
8.4041e-05
8.97355e-05
0.000185847
0.00029182
0.00104808
0.000558182
0.00159361
0.0010677
0.00246384
0.00206719
0.00274936
0.0023759
0.00319073
0.00280018
0.00368894
0.00350926
0.00395646
0.00389459
0.00422692
0.00421296
0.00444493
0.00445616
0.00456216
0.00456908
0.00466943
0.00465685
0.00479859
0.00479405
0.0047688
0.00497141
0.00436681
0.00492827
0.00465249
0.00401693
0.00442994
0.003385
0.00268362
0.00326336
0.00394103
0.00442104
0.00441622
0.00388249
0.00144521
0.00306617
0.00285689
0.00221928
0.000152299
0.000810655
4.84315e-09
1.00604e-08
1.06121e-08
8.65206e-09
5.11387e-09
2.33734e-09
9.12409e-10
3.2436e-10
1.07081e-10
3.31167e-11
9.40924e-12
2.66747e-12
7.41448e-13
4.97357e-13
8.06398e-12
2.01864e-10
5.18437e-09
1.38305e-07
2.83864e-06
2.82029e-05
0.000143663
0.000389228
0.000719623
0.000869703
0.000860855
0.000592752
0.000199909
5.41253e-05
2.58461e-05
4.60916e-05
0.000100559
0.00024835
0.000166257
0.000639102
0.000385291
0.00105857
0.000701798
0.00196879
0.00151864
0.00237144
0.00192713
0.00308215
0.00264013
0.00373197
0.00345472
0.00415273
0.00401177
0.00443972
0.00439369
0.00455887
0.00453478
0.00462949
0.00458682
0.00471653
0.00459694
0.00493141
0.00486989
0.0047787
0.00464972
0.00507786
0.00512283
0.00489607
0.00493183
0.00506923
0.0049866
0.00476038
0.00508382
0.00518116
0.00480475
0.00377403
0.00362303
0.00435676
0.00480597
0.00482079
0.00427982
0.00257435
0.00161726
0.00227551
0.00342974
0.00318997
0.000332838
0.00192951
0.00154137
0.000930244
3.1629e-08
7.33366e-08
7.82889e-08
5.06313e-08
2.25415e-08
8.01645e-09
2.57626e-09
7.84426e-10
2.29589e-10
6.18532e-11
1.63977e-11
4.22142e-12
1.1577e-12
5.83657e-12
1.48687e-10
3.62322e-09
9.84181e-08
2.34712e-06
2.77401e-05
0.000153691
0.000424745
0.000730744
0.000858266
0.000834769
0.000563742
0.000189077
4.53033e-05
1.10357e-05
1.12716e-05
3.13459e-05
0.000115227
0.000301772
0.000267033
0.000478025
0.000354182
0.000807643
0.000600241
0.00149898
0.00111093
0.0021685
0.00171265
0.00307338
0.00261954
0.0037785
0.00346553
0.00430194
0.00415042
0.00449419
0.00443314
0.00455051
0.00451231
0.00453086
0.00452906
0.00455103
0.00447389
0.00447279
0.00449482
0.00476724
0.00461726
0.00449416
0.00521502
0.00514553
0.00475485
0.00475744
0.00497905
0.00526939
0.00512372
0.00534307
0.00530364
0.0051679
0.00416159
0.00399998
0.00476187
0.0051905
0.00518824
0.0046813
0.00290441
0.00257501
0.00379089
0.00353208
0.00109967
0.000144025
0.00051315
0.00219137
0.00173696
3.32757e-07
5.69963e-07
4.60242e-07
2.20226e-07
7.50015e-08
2.19529e-08
6.11216e-09
1.65793e-09
4.19825e-10
1.03155e-10
2.44886e-11
5.46742e-12
5.20024e-12
1.02754e-10
2.4247e-09
6.61587e-08
1.6472e-06
2.51962e-05
0.0001537
0.000445699
0.000740604
0.000845842
0.000803326
0.000521768
0.000174193
4.09075e-05
7.23276e-06
3.347e-06
8.34908e-06
3.73305e-05
0.000323438
0.000162785
0.000531798
0.000470301
0.000519933
0.000529726
0.00079835
0.000790546
0.00131122
0.000994032
0.00214522
0.00170714
0.00327924
0.00286321
0.00393431
0.0036436
0.00434295
0.00422531
0.00446809
0.00439446
0.0045417
0.00452857
0.004542
0.004615
0.0046987
0.00477872
0.00444172
0.00444924
0.00451172
0.00462634
0.00457767
0.00444975
0.00442165
0.00522087
0.00502763
0.00454812
0.00453163
0.00477333
0.00539208
0.00540898
0.00547965
0.00530431
0.00546586
0.00455785
0.00438437
0.0051549
0.00550692
0.00552713
0.00508008
0.00322315
0.00285746
0.00415738
0.00387402
0.00112479
5.16398e-05
0.000391953
0.00241794
0.00185425
2.52788e-06
3.21274e-06
1.91446e-06
7.01439e-07
1.97161e-07
5.07849e-08
1.24935e-08
2.94875e-09
6.64019e-10
1.45528e-10
3.0945e-11
8.35599e-12
6.81788e-11
1.5561e-09
4.27366e-08
1.07327e-06
2.11532e-05
0.00015003
0.000448368
0.000739378
0.000832553
0.00076202
0.000464834
0.000152707
3.5451e-05
5.93805e-06
1.78096e-06
2.50223e-06
9.27984e-06
5.61212e-05
0.000419026
0.000200058
0.000922312
0.000736394
0.000850906
0.000927291
0.00120208
0.00129015
0.001371
0.0012032
0.00244908
0.00210336
0.00363348
0.00334709
0.00407452
0.00387999
0.00429562
0.00419354
0.00448461
0.00438203
0.00483273
0.00486652
0.00486323
0.00482599
0.00477239
0.00492285
0.00505997
0.00516809
0.00445773
0.0045828
0.00477137
0.0049947
0.00441871
0.004402
0.00448537
0.00509192
0.00480665
0.0043971
0.00438499
0.0045304
0.00539728
0.00556469
0.00549757
0.00517358
0.00564515
0.00495593
0.00477291
0.00551501
0.00571495
0.00576882
0.00545894
0.00353127
0.00311767
0.00452613
0.004213
0.00109774
3.41989e-05
0.000296593
0.00260063
0.00191971
1.33007e-05
1.25162e-05
5.77886e-06
1.77159e-06
4.32714e-07
9.64837e-08
2.09709e-08
4.34142e-09
8.81554e-10
1.76407e-10
3.25238e-11
4.79171e-11
9.71721e-10
2.65902e-08
6.85219e-07
1.41877e-05
0.000139815
0.000443671
0.000734625
0.000815537
0.00071565
0.000398002
0.000125783
2.93732e-05
4.51858e-06
8.47965e-07
1.11026e-06
2.57291e-06
1.09448e-05
9.00369e-05
2.68006e-05
0.000446586
0.000204471
0.001302
0.000842926
0.00143487
0.00147878
0.00191321
0.00204836
0.00190105
0.00187243
0.00306656
0.00284348
0.00374799
0.00355773
0.00406947
0.00392168
0.00422794
0.00404787
0.0048271
0.00456922
0.00523502
0.00525728
0.00523363
0.00516584
0.00521992
0.00542086
0.00557751
0.00567729
0.00468259
0.00494943
0.00525205
0.00554849
0.00439751
0.0045267
0.00478938
0.00486185
0.00455063
0.00439289
0.00439598
0.00438712
0.00527517
0.00560121
0.00539169
0.0049432
0.0057065
0.00534341
0.00515775
0.00579717
0.00580775
0.00590223
0.00578608
0.00382746
0.00335263
0.00489282
0.00454601
0.00102774
1.50879e-05
0.000181585
0.00274828
0.0019461
4.56775e-05
3.44693e-05
1.37222e-05
3.42872e-06
7.19225e-07
1.44819e-07
2.79849e-08
5.33165e-09
9.98847e-10
1.7282e-10
5.74151e-11
6.4856e-10
1.60056e-08
4.1762e-07
9.6821e-06
0.000116143
0.000429877
0.000725617
0.000797366
0.000667849
0.000333376
0.000102701
2.22639e-05
3.62815e-06
5.12619e-07
2.99758e-07
9.69082e-07
2.11597e-06
3.69219e-06
5.9769e-05
1.74148e-05
0.000426214
0.000176583
0.00141073
0.000852841
0.00205397
0.00187972
0.00261579
0.00253224
0.00271286
0.00266051
0.00336885
0.00320026
0.00356831
0.00340049
0.00388926
0.00373263
0.00426298
0.00396128
0.00535806
0.00515698
0.00475633
0.00498869
0.00571305
0.00569801
0.00562456
0.00550804
0.00580492
0.00599767
0.00611309
0.00614834
0.00513769
0.00551432
0.00587113
0.00616876
0.0045687
0.00489391
0.00531126
0.00459939
0.00440618
0.00460027
0.0046172
0.00440389
0.00505382
0.0055198
0.00518672
0.00467991
0.00565725
0.00570404
0.00552903
0.0059721
0.00580114
0.00594724
0.00601609
0.00411087
0.00356714
0.00525154
0.0048716
0.000888161
4.89366e-06
9.74839e-05
0.00287088
0.00192675
0.000106397
6.8678e-05
2.26388e-05
4.85616e-06
9.36158e-07
1.725e-07
3.1039e-08
5.52816e-09
9.44521e-10
1.67238e-10
4.16964e-10
9.21203e-09
2.44707e-07
5.95307e-06
8.30239e-05
0.000398384
0.000712996
0.000784398
0.000627199
0.000282421
8.41108e-05
1.96686e-05
3.47098e-06
4.9932e-07
1.1638e-07
2.06832e-07
6.84491e-07
8.37081e-07
1.99873e-06
5.81279e-07
2.93131e-05
6.8904e-06
0.000313586
0.000105949
0.00133416
0.000729366
0.00234235
0.00194232
0.00280674
0.00261245
0.0030607
0.00294024
0.00323352
0.00307244
0.00309005
0.00284184
0.00364574
0.00335603
0.00455062
0.0042918
0.00394077
0.00543732
0.00524225
0.00482716
0.00504478
0.00610025
0.00596868
0.00580128
0.00562377
0.0063797
0.00649236
0.0065001
0.00638728
0.00575402
0.00616051
0.00648564
0.00670314
0.00497446
0.00545401
0.00595432
0.00444782
0.00442654
0.0050246
0.00504013
0.00461401
0.00479361
0.00534048
0.00494178
0.00451272
0.00551182
0.00599963
0.00587178
0.0060752
0.00570108
0.00590643
0.00616867
0.00438321
0.00377011
0.005598
0.00518961
0.00068001
1.55953e-06
5.28597e-05
0.00297837
0.00185039
0.000174223
9.93914e-05
2.79558e-05
5.45231e-06
9.82015e-07
1.71131e-07
2.96897e-08
5.04322e-09
7.95028e-10
3.8529e-10
5.14669e-09
1.39494e-07
3.30647e-06
5.27643e-05
0.00034125
0.000692178
0.000777418
0.00060758
0.000252454
7.76445e-05
1.96647e-05
4.16011e-06
6.97703e-07
1.21422e-07
5.10408e-08
1.24639e-07
1.60746e-07
9.14531e-08
5.63156e-07
1.96864e-07
8.96139e-06
2.0311e-06
0.000140452
3.72436e-05
0.000991872
0.000434029
0.00226897
0.00168395
0.00252611
0.00219501
0.00291413
0.00274368
0.00260698
0.00238783
0.00254654
0.00214186
0.00345322
0.0029883
0.00459738
0.00434494
0.00402871
0.00373291
0.00533581
0.00514406
0.00475611
0.00495614
0.00620265
0.00599539
0.00577112
0.00554365
0.0067959
0.00677637
0.00662546
0.0064044
0.00640173
0.0067479
0.00696821
0.00704658
0.00555339
0.00610564
0.00659258
0.0044629
0.00461602
0.00560587
0.00561013
0.00501946
0.00460582
0.00511752
0.00474086
0.00451422
0.00532104
0.00621404
0.00616112
0.00611371
0.00555588
0.00582278
0.00627901
0.0046504
0.00397345
0.00592801
0.00549815
0.000520647
7.11726e-07
3.59125e-05
0.00308322
0.00180473
0.000230374
0.000114578
2.76596e-05
5.14064e-06
9.05731e-07
1.54124e-07
2.57077e-08
4.03818e-09
7.44326e-10
3.15102e-09
7.69018e-08
1.86976e-06
3.13653e-05
0.000267891
0.000654125
0.000774127
0.000606407
0.000252627
8.18056e-05
2.43236e-05
7.22795e-06
1.51522e-06
2.58006e-07
4.76549e-08
2.16915e-08
1.96985e-08
1.28752e-08
1.78991e-08
6.85909e-09
2.05299e-07
5.27009e-08
2.23214e-06
5.55299e-07
3.89852e-05
9.54688e-06
0.000435825
0.000142048
0.00168444
0.00101344
0.00164038
0.00122067
0.00217492
0.00194407
0.00176764
0.00144056
0.00215522
0.00167737
0.00346042
0.00315198
0.00268473
0.00453672
0.00429417
0.00387031
0.00359962
0.00499193
0.00482295
0.00451598
0.00467374
0.00612693
0.00579921
0.00548214
0.00520871
0.00701773
0.00685085
0.0065951
0.00624175
0.00695847
0.00718553
0.00726011
0.00723556
0.00620588
0.0067333
0.00712496
0.00461595
0.00497789
0.00625358
0.00624944
0.00556719
0.00459457
0.00492053
0.00469751
0.00462591
0.00514588
0.00637278
0.00638477
0.00610544
0.00541841
0.00573566
0.00635686
0.00492275
0.00420355
0.00622677
0.00581048
0.000464631
6.08896e-07
3.74495e-05
0.00322066
0.00185995
0.000266681
0.000109012
2.39829e-05
4.39584e-06
7.43241e-07
1.23714e-07
1.97293e-08
2.8621e-09
2.35943e-09
4.0147e-08
1.03312e-06
1.72652e-05
0.000189812
0.000595666
0.000771492
0.000616275
0.000270057
0.00010188
3.86991e-05
1.49633e-05
3.94028e-06
8.28021e-07
1.14745e-07
1.83896e-08
4.21403e-09
1.80354e-09
7.91792e-10
4.86804e-09
1.52113e-09
6.56736e-08
1.67707e-08
5.6939e-07
2.18058e-07
8.24661e-06
2.09083e-06
0.000107949
3.14016e-05
0.000710686
0.000311936
0.000605846
0.000360124
0.00114936
0.000873743
0.00125795
0.000901375
0.00206509
0.00179619
0.0014173
0.00332536
0.00304748
0.00229617
0.00256446
0.00433332
0.00411878