/*--------------------------------*- C++ -*----------------------------------*\
  =========                 |
  \\      /  F ield         | OpenFOAM: The Open Source CFD Toolbox
   \\    /   O peration     | Website:  https://openfoam.org
    \\  /    A nd           | Version:  dev
     \\/     M anipulation  |
\*---------------------------------------------------------------------------*/
FoamFile
{
    version     2.0;
    format      ascii;
    class       volScalarField;
    location    "2500";
    object      G;
}
// * * * * * * * * * * * * * * * * * * * * * * * * * * * * * * * * * * * * * //

dimensions      [1 0 -3 0 0 0 0];

internalField   nonuniform List<scalar> 
9842
(
4073.42
4079.31
4080.92
4084.39
4086.82
4089.26
4088.66
4091.91
4095.17
4098.44
4092.15
4096.19
4100.27
4104.37
4108.49
4094.85
4099.68
4104.54
4109.46
4114.43
4119.42
4096.79
4102.37
4108.01
4113.72
4119.51
4125.36
4131.25
4097.99
4104.3
4110.68
4117.16
4123.75
4130.44
4137.2
4144.02
4098.47
4105.48
4112.57
4119.79
4127.14
4134.63
4142.25
4149.97
4157.75
4098.25
4105.93
4113.71
4121.63
4129.71
4137.97
4146.4
4154.99
4163.7
4172.49
4097.37
4105.68
4114.11
4122.7
4131.47
4140.46
4149.66
4159.08
4168.69
4178.44
4188.28
4095.85
4104.77
4113.81
4123.02
4132.45
4142.12
4152.05
4162.25
4172.7
4183.38
4194.22
4205.17
4093.73
4103.21
4112.83
4122.63
4132.66
4142.98
4153.59
4164.52
4175.76
4187.3
4199.11
4211.1
4223.22
4091.04
4101.05
4111.2
4121.55
4132.15
4143.06
4154.3
4165.9
4177.88
4190.23
4202.92
4215.92
4229.14
4242.51
4087.82
4098.32
4108.97
4119.82
4130.95
4142.4
4154.22
4166.44
4179.09
4192.18
4205.69
4219.61
4233.88
4248.41
4263.1
4084.1
4095.05
4106.16
4117.48
4129.08
4141.03
4153.37
4166.15
4179.41
4193.17
4207.44
4222.2
4237.43
4253.05
4268.97
4285.09
4079.91
4091.28
4102.81
4114.56
4126.59
4138.99
4151.8
4165.09
4178.89
4193.26
4208.2
4223.72
4239.81
4256.43
4273.5
4290.93
4308.57
4075.31
4087.05
4098.96
4111.09
4123.52
4136.32
4149.55
4163.28
4177.57
4192.46
4207.99
4224.19
4241.05
4258.57
4276.68
4295.32
4314.36
4333.66
4070.31
4082.4
4094.64
4107.12
4119.9
4133.05
4146.66
4160.77
4175.48
4190.83
4206.87
4223.66
4241.2
4259.51
4278.55
4298.28
4318.61
4339.4
4360.48
4064.95
4077.35
4089.9
4102.68
4115.77
4129.24
4143.16
4157.62
4172.68
4188.41
4204.89
4222.17
4240.3
4259.29
4279.13
4299.83
4321.3
4343.47
4366.16
4389.19
4059.28
4071.94
4084.77
4097.82
4111.18
4124.91
4139.11
4153.85
4169.21
4185.27
4202.1
4219.79
4238.39
4257.95
4278.49
4300.01
4322.49
4345.86
4370.02
4394.78
4419.94
4053.31
4066.22
4079.28
4092.57
4106.15
4120.12
4134.55
4149.52
4165.12
4181.44
4198.56
4216.57
4235.55
4255.56
4276.67
4298.88
4322.21
4346.63
4372.06
4398.4
4425.43
4452.92
4047.09
4060.2
4073.47
4086.96
4100.74
4114.9
4129.51
4144.67
4160.46
4176.98
4194.32
4212.58
4231.84
4252.2
4273.73
4296.5
4320.54
4345.82
4372.35
4400.04
4428.76
4458.3
4488.36
4040.65
4053.94
4067.37
4081.03
4094.98
4109.29
4124.06
4139.36
4155.29
4171.95
4189.44
4207.87
4227.33
4247.93
4269.77
4292.95
4317.52
4343.52
4370.95
4399.78
4429.95
4461.3
4493.59
4526.5
4034.01
4047.44
4061.03
4074.82
4088.9
4103.34
4118.21
4133.62
4149.65
4166.4
4183.98
4202.5
4222.08
4242.84
4264.88
4288.32
4313.26
4339.79
4367.94
4397.7
4429.06
4461.95
4496.2
4531.56
4567.72
4027.2
4040.76
4054.46
4068.36
4082.54
4097.07
4112.03
4127.5
4143.58
4160.38
4178
4196.55
4216.18
4236.99
4259.12
4282.71
4307.87
4334.73
4363.39
4393.88
4426.19
4460.33
4496.23
4533.71
4572.55
4612.38
4020.25
4033.9
4047.69
4061.69
4075.94
4090.54
4105.54
4121.05
4137.15
4153.95
4171.55
4190.08
4209.68
4230.46
4252.59
4276.2
4301.45
4328.48
4357.43
4388.4
4421.45
4456.57
4493.77
4533
4574.15
4616.94
4660.83
4013.18
4026.91
4040.77
4054.82
4069.13
4083.76
4098.79
4114.3
4130.39
4147.15
4164.7
4183.16
4202.65
4223.34
4245.37
4268.9
4294.11
4321.15
4350.2
4381.41
4414.92
4450.77
4488.98
4529.58
4572.58
4617.86
4665.04
4713.55
4006.02
4019.79
4033.7
4047.79
4062.13
4076.78
4091.81
4107.3
4123.34
4140.04
4157.49
4175.83
4195.18
4215.7
4237.55
4260.9
4285.94
4312.86
4341.84
4373.09
4406.77
4443.05
4481.97
4523.59
4568.01
4615.26
4665.14
4717.31
4771.11
3998.78
4012.59
4026.52
4040.63
4054.98
4069.62
4084.63
4100.08
4116.05
4132.65
4149.98
4168.16
4187.32
4207.62
4229.21
4252.29
4277.06
4303.71
4332.48
4363.57
4397.2
4433.59
4472.9
4515.21
4560.63
4609.34
4661.31
4716.41
4774.32
4834.25
3991.47
4005.3
4019.25
4033.36
4047.7
4062.32
4077.28
4092.67
4108.56
4125.04
4142.21
4160.2
4179.14
4199.16
4220.45
4243.18
4267.57
4293.84
4322.24
4353.01
4386.39
4422.62
4461.95
4504.59
4550.66
4600.34
4653.79
4711.08
4772.17
4836.78
4903.89
3984.13
3997.95
4011.9
4026
4040.31
4054.89
4069.79
4085.1
4100.88
4117.23
4134.23
4152.01
4170.69
4190.41
4211.33
4233.66
4257.59
4283.37
4311.26
4341.53
4374.47
4410.34
4449.41
4491.96
4538.26
4588.52
4642.89
4701.65
4765
4833.05
4905.52
4981.08
3976.76
3990.56
4004.5
4018.57
4032.84
4047.36
4062.19
4077.4
4093.06
4109.25
4126.07
4143.62
4162.02
4181.41
4201.94
4223.8
4247.21
4272.41
4299.67
4329.3
4361.6
4396.89
4435.48
4477.64
4523.73
4574.09
4628.93
4688.5
4753.25
4823.58
4899.82
4981.64
5067.23
3969.39
3983.15
3997.06
4011.1
4025.32
4039.77
4054.51
4069.61
4085.13
4101.16
4117.77
4135.08
4153.18
4172.22
4192.34
4213.71
4236.54
4261.09
4287.62
4316.47
4347.96
4382.47
4420.33
4461.87
4507.41
4557.4
4612.19
4672.04
4737.41
4808.98
4887.38
4973.5
5066.47
5138.36
5140.25
3962.04
3975.75
3989.6
4003.59
4017.75
4032.12
4046.77
4061.75
4077.12
4092.97
4109.37
4126.42
4144.21
4162.88
4182.57
4203.43
4225.66
4249.51
4275.24
4303.19
4333.73
4367.25
4404.16
4444.82
4489.58
4538.84
4593.05
4652.62
4717.99
4789.88
4869.27
4957.09
5055.65
5139.22
5134.96
5190
5191.63
3954.71
3968.35
3982.15
3996.07
4010.15
4024.44
4038.98
4053.83
4069.05
4084.72
4100.9
4117.68
4135.16
4153.46
4172.69
4193.03
4214.65
4237.76
4262.65
4289.62
4319.07
4351.43
4387.16
4426.69
4470.42
4518.72
4572
4630.72
4695.47
4766.94
4846.18
4934.7
5020.91
5008.86
5128.03
5061.82
5117.76
5189.91
5184.83
5245.21
5246.48
3947.42
3960.98
3974.71
3988.55
4002.55
4016.74
4031.17
4045.89
4060.95
4076.42
4092.38
4108.9
4126.07
4143.99
4162.78
4182.58
4203.56
4225.93
4249.94
4275.89
4304.16
4335.21
4369.55
4407.69
4450.11
4497.21
4549.35
4606.88
4670.41
4740.76
4818.99
4906.64
4995.59
4980.19
5048.65
5176.53
5105.1
5164.97
5244.01
5237.87
5304.39
5305.22
3940.18
3953.66
3967.3
3981.05
3994.96
4009.05
4023.36
4037.94
4052.84
4068.11
4083.84
4100.09
4116.94
4134.49
4152.85
4172.13
4192.49
4214.11
4237.22
4262.11
4289.15
4318.79
4351.55
4388.06
4428.88
4474.51
4525.29
4581.47
4643.47
4712.09
4788.48
4874.22
4964.07
4946.17
5033.51
5016.57
5090.23
5228.15
5150.62
5214.94
5301.86
5294.47
5367.97
5368.34
3932.99
3946.38
3959.92
3973.59
3987.39
4001.37
4015.55
4029.99
4044.72
4059.81
4075.31
4091.29
4107.83
4125.01
4142.94
4161.71
4181.47
4202.37
4224.61
4248.44
4274.21
4302.34
4333.39
4368.02
4406.95
4450.79
4499.98
4554.67
4615.06
4681.69
4755.63
4838.46
4927.85
4907.93
4998.39
4978.92
5073.19
5054.31
5133.83
5283.15
5198.65
5268.03
5363.92
5355.04
5436.47
5436.31
3925.87
3939.16
3952.61
3966.17
3979.86
3993.72
4007.77
4022.06
4036.62
4051.51
4066.79
4082.51
4098.75
4115.57
4133.08
4151.36
4170.54
4190.74
4212.15
4234.97
4259.5
4286.11
4315.33
4347.87
4384.57
4426.27
4473.57
4526.63
4585.35
4649.99
4721.35
4800.68
4887.92
4866.63
4958.5
4937.04
5034.08
5012.6
5114.68
5093.6
5179.65
5341.84
5249.48
5324.5
5430.63
5420
5510.4
5509.67
3918.83
3932
3945.35
3958.8
3972.38
3986.11
4000.02
4014.16
4028.55
4043.25
4058.3
4073.77
4089.71
4106.19
4123.29
4141.11
4159.73
4179.27
4199.89
4221.75
4245.1
4270.26
4297.68
4328
4362.16
4401.25
4446.24
4497.37
4554.42
4617.09
4685.91
4761.98
4845.79
4824.03
4914.93
4892.19
4990.09
4966.65
5071.08
5047.32
5158.14
5134.56
5227.94
5404.59
5303.32
5384.6
5502.62
5489.9
5590.61
5589.3
3911.86
3924.93
3938.16
3951.49
3964.95
3978.55
3992.33
4006.3
4020.52
4035.02
4049.86
4065.07
4080.72
4096.87
4113.59
4130.96
4149.06
4167.99
4187.87
4208.84
4231.09
4254.88
4280.58
4308.74
4340.25
4376.33
4418.33
4466.93
4521.96
4582.86
4649.19
4722.08
4803.1
4781.16
4869.35
4846.33
4942.49
4917.88
5022.5
4996.78
5109.44
5083.08
5203.76
5177.33
5278.85
5471.86
5360.36
5448.76
5580.67
5565.41
5678.02
5676.04
3904.98
3917.93
3931.05
3944.26
3957.59
3971.06
3984.69
3998.51
4012.55
4026.86
4041.47
4056.43
4071.8
4087.63
4103.99
4120.93
4138.54
4156.9
4176.1
4196.26
4217.51
4240.04
4264.15
4290.27
4319.18
4352.15
4390.53
4435.53
4487.64
4546.43
4610.72
4680.37
4759.96
4736.69
4823.51
4800.47
4893.14
4868.41
4970.4
4943.69
5055.67
5027.38
5149.21
5119.89
5251.62
5221.91
5332.52
5544.2
5420.97
5517.44
5665.52
5647.25
5773.65
5770.79
3898.19
3911.02
3924.02
3937.11
3950.31
3963.64
3977.12
3990.78
4004.64
4018.75
4033.15
4047.87
4062.96
4078.48
4094.48
4111.02
4128.17
4146
4164.58
4184
4204.36
4225.79
4248.47
4272.74
4299.23
4329.1
4363.73
4404.28
4451.95
4507.09
4569
4635.89
4714.07
4688.93
4777.19
4752.82
4843.79
4819.02
4916.92
4890.25
4998.55
4969.57
5089.56
5058.42
5190.39
5157.74
5301.74
5268.3
5389.24
5622.23
5485.57
5591.14
5758.11
5736.35
5878.79
5874.82
3891.5
3904.2
3917.08
3930.04
3943.11
3956.3
3969.63
3983.13
3996.82
4010.73
4024.91
4039.38
4054.21
4069.42
4085.08
4101.24
4117.96
4135.29
4153.3
4172.06
4191.63
4212.1
4233.57
4256.25
4280.6
4307.61
4338.55
4374.54
4416.69
4466.33
4523.76
4587.64
4664.5
4637.7
4727.69
4701.24
4793.72
4767.46
4863.63
4836.74
4940.61
4911.74
5026.95
4995.52
5124.22
5090.05
5233.01
5196.75
5354.32
5316.67
5449.34
5706.7
5554.51
5670.36
5859.53
5833.61
5995.06
5989.59
3884.9
3897.48
3910.23
3923.07
3936
3949.05
3962.23
3975.56
3989.07
4002.79
4016.75
4030.99
4045.55
4060.47
4075.81
4091.6
4107.9
4124.76
4142.25
4160.4
4179.27
4198.91
4219.37
4240.75
4263.36
4287.95
4315.6
4347.12
4383.49
4426.48
4477.39
4536.18
4600.41
4674.1
4645.85
4740.18
4711.68
4809.2
4780.74
4882.78
4853.44
4964.14
4932.7
5055.79
5021.67
5159.85
5122.6
5277.31
5237.34
5409.68
5367.47
5513.15
5798.44
5628.18
5755.87
5971.01
5940.16
6124.47
6117.03
3878.41
3890.86
3903.48
3916.18
3928.98
3941.89
3954.92
3968.09
3981.42
3994.95
4008.7
4022.7
4037
4051.64
4066.65
4082.09
4098
4114.42
4131.41
4149.01
4167.25
4186.17
4205.78
4226.11
4247.34
4270.06
4295.16
4322.92
4353.86
4389.75
4433
4484.62
4543.4
4621.72
4590.15
4682.23
4652.11
4751.19
4720.38
4823.44
4792.53
4901.07
4869.03
4987.46
4953.14
5085.33
5048.14
5197.1
5156.54
5324.03
5280.47
5468.42
5421.78
5581.36
5898.54
5707.63
5848.99
6094.25
6057.37
6269.57
6259.54
3872.02
3884.34
3896.83
3909.4
3922.07
3934.83
3947.7
3960.71
3973.87
3987.21
4000.75
4014.52
4028.57
4042.92
4057.63
4072.73
4088.26
4104.26
4120.79
4137.87
4155.55
4173.82
4192.71
4212.18
4232.36
4253.68
4276.92
4302.14
4328.95
4358.18
4392.93
4436.16
4487.74
4559.99
4529.88
4623.88
4591.37
4688.62
4656.37
4760.51
4727.21
4836.33
4802.72
4918.56
4883.55
5010.83
4973.3
5116.01
5075.52
5236.79
5192.85
5374.56
5327.47
5531.93
5481.56
5655.81
6008.37
5795.13
5952.28
6231.23
6186.85
6433.48
6420.14
3865.74
3877.93
3890.29
3902.73
3915.25
3927.87
3940.59
3953.44
3966.43
3979.58
3992.91
4006.46
4020.26
4034.34
4048.74
4063.51
4078.68
4094.28
4110.37
4126.98
4144.12
4161.83
4180.08
4198.86
4218.21
4238.49
4260.4
4284.02
4308.4
4333.11
4359.98
4393.35
4436.22
4501.43
4474.04
4559.85
4529.33
4624.48
4590.97
4693.05
4658.67
4768.01
4732.1
4847.87
4811.3
4935.42
4897.09
5034.71
4993.51
5148.78
5104.45
5280.4
5232.7
5430.97
5380.37
5602.72
5549.43
5739.79
6130.67
5894.83
6070.75
6384.79
6332.1
6620.28
6603.01
3859.65
3871.62
3883.86
3896.16
3908.54
3921.01
3933.59
3946.28
3959.1
3972.06
3985.19
3998.52
4012.07
4025.89
4040
4054.44
4069.26
4084.49
4100.16
4116.31
4132.96
4150.14
4167.83
4186.03
4204.74
4224.24
4245.18
4267.71
4290.77
4313.3
4335.55
4360.67
4392.91
4434.02
4500.17
4472.46
4558.63
4527.61
4623.79
4589.37
4695.57
4659.31
4773.71
4735.23
4858.15
4818.43
4951.89
4909.9
5059.52
5014.05
5184.36
5135.36
5329.22
5276.76
5495.47
5440.35
5684.23
5627.63
5837.67
6271.51
6012.19
6211.37
6559.18
6500.18
6835.51
6813.2
3865.51
3877.53
3889.7
3901.94
3914.27
3926.7
3939.23
3951.88
3964.66
3977.6
3990.71
4004.02
4017.58
4031.4
4045.54
4060.01
4074.87
4090.14
4105.86
4122.05
4138.73
4155.9
4173.58
4191.79
4210.72
4230.92
4252.63
4274.88
4296.48
4316.9
4337.87
4362.08
4392.97
4444.34
4422.09
4498.07
4470.25
4556.37
4525.02
4622.11
4586.84
4696.64
4658.81
4777.94
4737.12
4867.49
4824.6
4968.23
4922.29
5085.52
5035.15
5223.07
5168.39
5383.75
5325.17
5568.96
5507.69
5778.94
5717
5952.07
6439.65
6150.64
6377.95
6761.2
6701.66
7085.64
7057.16
3871.4
3883.35
3895.45
3907.64
3919.91
3932.29
3944.78
3957.39
3970.13
3983.03
3996.11
4009.41
4022.96
4036.79
4050.94
4065.44
4080.32
4095.63
4111.37
4127.58
4144.27
4161.46
4179.24
4197.74
4217.38
4238.42
4260.06
4281.17
4300.95
4320.26
4340.67
4364.57
4402.39
4387.02
4443.28
4421.7
4495.51
4468.11
4553.43
4522.1
4619.74
4583.9
4696.79
4657.55
4781.36
4738.43
4876.31
4830.27
4984.69
4934.56
5112.78
5056.84
5264.88
5203.35
5443.94
5377.74
5651.67
5582.48
5887.6
5817.38
6083.79
6642.22
6311.77
6505.36
6543.41
7001.78
6945.44
7379.88
7346.12
3877.2
3889.08
3901.12
3913.24
3925.46
3937.8
3950.24
3962.8
3975.49
3988.35
4001.4
4014.68
4028.21
4042.04
4056.19
4070.7
4085.6
4100.93
4116.68
4132.9
4149.62
4167.01
4185.18
4204.41
4224.89
4245.97
4266.66
4286.12
4304.74
4323.56
4343.91
4367.94
4403.35
4388.27
4442.68
4422.28
4492.96
4466.35
4550.39
4519.31
4617.35
4581.2
4696.49
4655.95
4784.48
4739.6
4884.91
4835.74
5001.29
4946.71
5141.02
5078.84
5309.41
5239.92
5509.38
5434.18
5743.62
5664.8
6011.38
5881.75
5923.01
6217.66
6176.73
6647.45
6838.73
6800.35
6468.96
6426.59
6297.07
6609.04
7294.55
6964.99
7142.83
7180.12
7739.01
7702.21
3882.92
3894.72
3906.68
3918.75
3930.93
3943.21
3955.6
3968.1
3980.74
3993.55
4006.56
4019.8
4033.31
4047.13
4061.28
4075.79
4090.7
4106.03
4121.79
4138.05
4155.03
4172.94
4191.88
4211.91
4232.45
4252.69
4271.83
4290.06
4308.14
4326.79
4347.15
4376.59
4364.9
4404.92
4389.95
4443.13
4423.81
4490.87
4465.41
4547.75
4517.19
4615.52
4579.17
4696.21
4654.68
4787.47
4740.81
4893.27
4840.97
5017.73
4958.34
5169.94
5100.65
5356.53
5277.62
5583.92
5542.17
5500.61
5457.68
5841.48
5797.9
5621.01
5707.58
5754.08
5982.36
6137.05
6092.16
5939.9
6255.33
6761.99
6927.32
6567.76
6523.27
6383.88
6719.98
7334.33
7578.52
7542.44
7105.77
7299.11
8190.22
7767.73
8017.5
8054.23
3888.54
3900.25
3912.15
3924.17
3936.3
3948.53
3960.85
3973.28
3985.85
3998.6
4011.57
4024.77
4038.26
4052.06
4066.19
4080.7
4095.6
4110.92
4126.74
4143.29
4160.95
4179.7
4199.38
4219.43
4239.17
4257.95
4275.84
4293.43
4311.18
4329.53
4349.04
4377.93
4365.51
4406.85
4391.69
4444.42
4425.63
4489.79
4465.63
4545.92
4516.04
4614.36
4577.9
4696.2
4653.92
4790.34
4742.07
4900.88
4845.43
5033.3
4968.67
5198.71
5121.4
5414.94
5371.51
5328.13
5284.36
5577.43
5532.72
5487
5895.86
5849.59
5660.98
5752.28
5801.71
6047.31
6211.43
6164.53
6000.91
6338.48
6885.18
7063.9
6674.4
6476.38
6625.69
6838.82
7508.41
7736.26
7257.71
7468.15
8287.18
8588.12
8578.54
7985.78
8258.78
3894.06
3905.66
3917.51
3929.5
3941.58
3953.74
3965.97
3978.32
3990.82
4003.51
4016.42
4029.58
4043.03
4056.8
4070.92
4085.41
4100.3
4115.67
4131.82
4149.17
4167.8
4187.24
4206.87
4226.09
4244.47
4262.04
4279.21
4296.35
4313.65
4331.15
4354
4344.47
4378.45
4365.4
4408.64
4392.96
4445.87
4427.14
4489.63
4466.43
4544.88
4515.61
4613.59
4577.05
4696.39
4653.47
4792.54
4742.75
4906.9
4848.21
5047.09
4976.73
5241.19
5198.08
5156.15
5114.54
5441.08
5394.83
5348.33
5301.84
5613.82
5565.73
5516.79
5952.97
5903.03
5702.1
5798.29
5851.3
6115.5
6290.65
6240.01
6064.66
6426.69
7017.07
7210.6
6788.35
6574.26
6734.36
6965.55
7697.19
7947.26
7421.28
7650.75
8553.73
8853.27
8849.44
8220.51
8516.83
3899.45
3910.96
3922.8
3934.76
3946.77
3958.82
3970.95
3983.21
3995.63
4008.25
4021.1
4034.21
4047.62
4061.35
4075.43
4089.9
4104.83
4120.56
4137.6
4156.09
4175.41
4194.72
4213.45
4231.41
4248.64
4265.45
4282.1
4298.74
4315.31
4331.42
4353.21
4343.8
4377.89
4364.43
4409.62
4393.15
4446.57
4427.36
4489.94
4467.2
4544.23
4515.29
4612.44
4575.71
4696.12
4652.65
4793.06
4741.75
4910.31
4848.38
5074.86
5035.61
4998.67
4962.09
5255.73
5210.12
5165.43
5121.78
5467.58
5418.14
5368.42
5318.78
5651.2
5599.5
5547.01
6012.43
5958.34
5744.28
5845.52
5902.52
6186.53
6374.26
6318.92
6131.03
6519.64
7158.14
7368.04
6909.61
6677.42
6849.64
7100.58
7901.03
8173.87
7597.11
7846.98
8825.18
9118.02
9118.26
8469.68
8783.54
3904.67
3916.17
3928.04
3939.94
3951.84
3963.77
3975.79
3987.94
4000.27
4012.81
4025.59
4038.64
4052
4065.69
4079.74
4094.22
4109.47
4126.19
4144.54
4163.79
4182.92
4201.24
4218.79
4235.67
4252.13
4268.37
4284.51
4300.52
4316.19
4335.26
4327.77
4352.21
4343.25
4376.13
4362.91
4409.1
4391.84
4445.53
4425.62
4489.72
4466.69
4542.82
4513.68
4609.53
4572.56
4694.18
4650.14
4791.06
4738.28
4909.7
4845.21
5079.72
5039.05
5000.21
4963.02
5269.58
5221.07
5173.61
5127.54
5494.27
5441.29
5388.02
5334.9
5689.43
5633.84
5577.5
6074.12
6015.59
5787.39
5894.12
5955.49
6260.65
6461.86
6401.17
6200.14
6617.13
7308.8
7536.53
7038.3
6786.08
6971.44
7243.88
8119.05
8413.88
7785.18
8056.17
9098.44
9382.6
9384.62
8728.96
9054.83
3909.72
3921.32
3933.21
3945.02
3956.77
3968.56
3980.46
3992.5
4004.73
4017.19
4029.89
4042.88
4056.18
4069.83
4083.86
4098.57
4114.87
4133.07
4152.31
4171.37
4189.41
4206.59
4223.14
4239.28
4255.15
4270.87
4286.43
4301.74
4316.71
4335.12
4327.68
4351.33
4342.84
4373.86
4361.38
4406.71
4389.18
4442.32
4422.01
4487.67
4464.07
4539.44
4509.92
4604.21
4567.03
4689.83
4645.21
4786.26
4732.07
4925.09
4889.24
4824.76
4857.03
5083.27
5040.84
5000.38
4961.81
5282.32
5230.65
5180.27
5131.62
5520.86
5463.93
5406.75
5349.81
5728.37
5668.57
5607.91
6138.11
6074.85
5831.43
5943.95
6010.21
6337.72
6553.42
6486.74
6271.77
6719.1
7469.15
7715.83
7173.86
6900.18
7099.02
7395.53
8349.88
8664.67
7985.18
8277.53
9370.61
9645.63
9647.18
8994.75
9327.54
3914.65
3926.42
3938.3
3949.95
3961.54
3973.18
3984.95
3996.88
4009.01
4021.37
4034.01
4046.93
4060.17
4073.78
4087.94
4103.65
4121.62
4140.88
4159.98
4177.9
4194.8
4211.04
4226.87
4242.42
4257.76
4272.92
4287.87
4302.54
4320.62
4313.52
4335.19
4327.83
4350.84
4342.75
4371.67
4360.17
4403.09
4386.05
4437.63
4417.46
4483.46
4459.53
4533.77
4504.07
4596.67
4559.56
4682.81
4637.76
4795.68
4766.7
4723.82
4921.9
4886.44
4821.37
4853.23
5085.13
5040.9
4999.03
4959.4
5293.62
5238.58
5185.17
5133.88
5546.91
5485.65
5424.23
5363.25
5767.8
5703.29
5637.8
6204.3
6136.01
5876.15
5994.6
6066.28
6417.51
6648.74
6575.56
6345.8
6825.36
7639.12
7905.87
7316.38
7019.37
7232.4
7555.64
8591.83
8923.82
8196.57
8510.28
9636.87
9909.43
9908.89
9264.55
9597.54
3919.54
3931.47
3943.25
3954.71
3966.12
3977.62
3989.25
4001.07
4013.1
4025.38
4037.93
4050.78
4063.96
4077.61
4092.61
4110.16
4129.41
4148.64
4166.61
4183.36
4199.37
4214.92
4230.15
4245.15
4259.95
4274.53
4288.86
4302.96
4320.63
4313.44
4335.34
4327.91
4350.88
4342.94
4370.05
4359.63
4399.09
4383.1
4432.15
4412.67
4477.54
4453.72
4526.39
4496.89
4588.16
4551.36
4674.43
4629.08
4791.43
4762.65
4731.68
4704.69
4917.84
4882.4
4817.27
4849.03
5085.17
5039.24
4996.17
4955.75
5303.27
5244.77
5188.29
5134.43
5572.02
5506.12
5440.26
5375.13
5807.33
5737.54
5666.77
6272.75
6198.91
5921.12
6045.71
6123.45
6500.2
6747.64
6667.68
6422.72
6936.14
7818.73
8106.71
7466.37
7143.88
7372.19
7724.38
8843.57
9189.55
8419.28
8753.85
9897.87
10178.3
10174.9
9536.54
9864.53
3924.42
3936.43
3948.02
3959.27
3970.51
3981.86
3993.37
4005.07
4017
4029.18
4041.63
4054.4
4067.58
4081.83
4098.72
4117.84
4137.21
4155.37
4172.17
4188.08
4203.42
4218.35
4233.02
4247.46
4261.69
4275.68
4289.42
4306.51
4299.73
4320.59
4313.45
4335.42
4327.9
4351.25
4343.18
4369.51
4359.85
4395.49
4381.12
4426.95
4408.83
4470.77
4447.58
4518.64
4489.8
4580.66
4544.19
4680.54
4656.93
4620.95
4787.26
4758.76
4727.16
4700.9
4912.68
4877.36
4812.68
4844.19
5083.58
5035.92
4991.71
4950.73
5311.33
5249.35
5189.81
5133.36
5595.89
5525.19
5454.83
5385.59
5846.51
5770.89
5694.5
6343.8
6263.57
5965.95
6096.92
6181.49
6585.95
6850.7
6763.57
6502.53
7052
8008.33
8318.65
7623.99
7274.03
7518.63
7902.38
9104.43
9461.79
8653.73
9008.29
10160
10457.8
10450.8
9811.31
10134.1
3929.28
3941.23
3952.58
3963.62
3974.69
3985.9
3997.28
4008.87
4020.68
4032.75
4045.11
4057.83
4071.36
4087.36
4106.14
4125.61
4144.02
4161.07
4177.08
4192.32
4207.01
4221.35
4235.44
4249.32
4262.99
4276.39
4289.53
4306.31
4299.45
4320.41
4313.28
4335.33
4327.75
4351.51
4343.23
4369.84
4360.29
4393.42
4380.64
4423.32
4406.85
4464.54
4442.48
4512.04
4483.94
4586.24
4567.43
4538.71
4676.33
4652.57
4605.94
4627.32
4782.85
4754.46
4722.95
4697.14
4906.45
4871.41
4807.61
4838.64
5080.34
5031.03
4985.82
4944.44
5318.01
5252.6
5189.97
5130.8
5618.38
5542.85
5468.09
5394.81
5884.95
5803.06
5720.87
6417.12
6329.71
6010.32
6147.89
6240.04
6675.07
6958.28
6863.44
6584.97
7173
8208.64
8542.7
7789.99
7410.08
7672.82
8090.47
9375.12
9742.72
8900.2
9274.97
10431.7
10752.8
10742.6
10094.8
10417.7
3934.08
3945.84
3956.92
3967.76
3978.67
3989.74
4000.99
4012.44
4024.14
4036.09
4048.37
4061.25
4076.19
4094.34
4113.82
4132.45
4149.83
4166.18
4181.54
4196.1
4210.14
4223.88
4237.41
4250.75
4263.85
4276.66
4292.6
4286.19
4305.98
4299.19
4320.05
4312.93
4334.99
4327.39
4351.35
4342.95
4370.01
4360.32
4392.8
4380.7
4420.8
4405.39
4459.62
4438.71
4507.15
4479.34
4583.68
4564.36
4544.69
4527.88
4672.78
4649.43
4603.59
4624.5
4778.16
4750.03
4718.8
4693.57
4899.24
4864.65
4802.05
4832.45
5075.63
5024.79
4978.67
4937.02
5323.54
5254.81
5189.16
5127.29
5639.49
5559.22
5480.14
5402.92
5922.48
5833.99
5745.9
6492.48
6397.14
6053.87
6198.39
6298.91
6767.48
7070.37
6967.27
6669.78
7299.46
8421.05
8779.64
7965.44
7553.27
7836.02
8290.32
9658.55
10037.8
9160.31
9556.77
10728.3
11081.5
11076
10398.5
10738.5
3938.77
3950.23
3961.03
3971.68
3982.44
3993.35
4004.46
4015.78
4027.35
4039.19
4051.5
4065.35
4082.53
4101.8
4120.64
4138.29
4155.09
4170.9
4185.56
4199.4
4212.8
4225.97
4238.96
4251.76
4264.31
4276.5
4292.24
4285.81
4305.49
4298.78
4319.45
4312.38
4334.34
4326.76
4350.69
4342.29
4369.43
4359.69
4391.97
4380.11
4418.05
4403.22
4455.5
4435.25
4511.98
4497.43
4475.28
4581.82
4562.69
4543.35
4526.35
4669.57
4646.49
4601.71
4622.36
4773.13
4745.4
4714.82
4690.27
4891.18
4857.2
4796.08
4825.7
5069.95
5017.56
4970.49
4928.61
5328.12
5256.19
5187.66
5123.23
5659.32
5574.36
5491.02
5410
5958.77
5863.64
5769.77
6569.31
6465.01
6096.29
6247.93
6357.44
6862.95
7187.49
7074.88
6756.4
7432.07
8647.01
9030.87
8152.29
7704.49
8009.95
8504.13
9959.53
10356.6
9436.83
9858.12
11090.6
11565.8
11551.5
10741.7
11133.5
3943.27
3954.37
3964.9
3975.38
3985.97
3996.74
4007.7
4018.88
4030.31
4042.1
4054.96
4070.88
4089.62
4108.61
4126.42
4143.61
4160.07
4175.21
4189.08
4202.2
4214.99
4227.62
4240.1
4252.38
4264.39
4276.07
4291.8
4285.53
4304.84
4298.24
4318.6
4311.62
4333.34
4325.82
4349.5
4341.2
4368
4358.38
4390.18
4378.53
4414.48
4399.99
4451.38
4431.34
4510.25
4495.12
4466.12
4478.77
4580.41
4561.36
4542.1
4524.84
4666.69
4643.99
4600.28
4620.76
4767.89
4740.75
4711.25
4687.38
4882.48
4849.26
4789.96
4818.64
5063.79
5009.8
4961.65
4919.48
5331.8
5256.85
5185.66
5118.89
5677.95
5588.22
5500.68
5415.95
5993.7
5892.14
5792.62
6646.55
6532.33
6137.38
6295.89
6414.84
6960.97
7309.37
7185.66
6844.25
7571.34
8888.06
9298.87
8353.33
7865.48
8197.4
8733.57
10285.3
10711.8
9733.37
10183.9
11595.9
12432.6
12323.9
11147.5
11633.8
3947.54
3958.25
3968.55
3978.85
3989.28
3999.89
4010.7
4021.73
4033.05
4045.07
4059.56
4077.44
4096.35
4114.3
4131.7
4148.73
4164.71
4179.02
4192.04
4204.49
4216.73
4228.86
4240.86
4252.64
4264.13
4278.45
4284.96
4272.6
4291.22
4304.04
4297.56
4317.52
4310.69
4331.96
4324.6
4347.78
4339.67
4365.75
4356.42
4387.29
4375.97
4409.76
4395.56
4446.61
4426.51
4508.47
4493.1
4463.3
4476.45
4579.27
4560.23
4540.54
4523.05
4664.28
4642.01
4599.1
4619.53
4762.67
4736.35
4708.15
4684.97
4873.57
4841.24
4784.04
4811.69
5057.44
5001.85
4952.62
4910.13
5334.54
5256.82
5183.23
5114.38
5695.36
5600.65
5508.86
5420.52
6027.27
5919.26
5813.81
6723.75
6598.93
6176.8
6341.95
6470.93
7060.68
7436.45
7300.32
6932.5
7719.05
9145.49
9586.71
8570.02
8038.8
8400.08
8979.22
10644
11117.7
10053.8
10539.9
12274.4
13214.4
13139.9
11629.7
12235.9
3951.55
3961.88
3971.96
3982.08
3992.35
4002.79
4013.43
4024.32
4035.66
4048.76
4065.41
4083.95
4102.02
4119.44
4136.8
4153.63
4168.87
4182.24
4194.45
4206.29
4218.05
4229.72
4241.26
4252.58
4263.51
4284.44
4277.87
4271.99
4290.55
4303.11
4296.77
4316.25
4309.59
4330.25
4323.11
4345.52
4337.7
4362.73
4353.82
4383.28
4372.46
4403.43
4389.72
4447.48
4436.76
4419.86
4506.44
4490.86
4459.96
4473.41
4577.92
4558.84
4538.27
4520.56
4662.38
4640.55
4597.72
4618.16
4757.67
4732.31
4705.56
4682.87
4864.77
4833.42
4778.61
4805.12
5051.12
4994.17
4943.98
4901.03
5336.09
5255.89
5180.27
5109.72
5710.87
5611.05
5515.01
5423.22
6059.1
5944.17
5832.34
6799.96
6663.42
6214.18
6385.62
6524.28
7162.35
7570.61
7419.94
7020.65
7877.43
9421.58
9897.51
8802.07
8225.82
8616.69
9241.28
11045
11583.1
10402.4
10933.1
13001.9
13814.4
13790.5
12183.2
12890
3955.28
3965.27
3975.14
3985.08
3995.17
4005.44
4015.91
4026.71
4038.61
4053.7
4071.53
4089.62
4106.98
4124.41
4141.81
4158.14
4172.46
4184.81
4196.3
4207.64
4218.97
4230.23
4241.35
4252.2
4262.73
4283.78
4277.25
4271.53
4289.78
4302.05
4295.87
4314.8
4308.36
4328.24
4321.41
4342.76
4335.34
4358.95
4350.58
4378.12
4368.02
4395.2
4382.39
4443.81
4432.85
4409.26
4417.94
4503.75
4488.01
4456.11
4469.58
4575.95
4556.76
4534.67
4516.91
4660.67
4639.13
4595.75
4616.22
4753.22
4728.86
4702.88
4680.47
4856.64
4826.13
4773.63
4799.04
5045.06
4987.1
4936.23
4892.83
5336.01
5253.64
5176.41
5104.73
5723.49
5618.53
5518.31
5423.2
6088.77
5966.34
5847.62
6873.89
6724.26
6249.01
6422.65
6574.77
7266.16
7713
7544.5
7108.75
8047.19
9718.94
10234.7
9048.33
8424.42
8844.91
9522.05
11494.9
12103.9
10784.8
11368.1
13674
14350.1
14367.8
12785.8
13541.1
3958.74
3968.42
3978.08
3987.83
3997.74
4007.82
4018.14
4029.13
4042.52
4059.29
4077.14
4094.45
4111.71
4129.36
4146.57
4162.14
4175.34
4186.74
4197.66
4208.59
4219.53
4230.42
4241.14
4251.59
4264.76
4270.83
4259.34
4283.05
4276.53
4288.92
4300.88
4294.86
4313.2
4306.99
4326.01
4319.53
4339.59
4332.68
4354.48
4346.83
4371.81
4362.71
4404.47
4391.32
4384.75
4373.8
4439.11
4428.09
4412.98
4500.04
4484.23
4451.28
4464.63
4572.46
4553.22
4529.21
4511.6
4658.54
4637.17
4592.32
4612.81
4749.2
4725.68
4699.42
4677.14
4849.5
4819.53
4768.62
4793.25
5039.25
4980.69
4929.43
4885.72
5333.42
5249.19
5170.79
5098.46
5732.5
5622.22
5517.79
5419.41
6115.31
5979.37
5852.44
6939.82
6776.37
6276.53
6481.24
6622.87
7372.18
7862.87
7669.01
7199.59
8225.64
10040.5
10602.1
9309.98
8632.76
9086.23
9824.11
11991.9
12669.6
11203.4
11843.7
14290.6
14828.2
14882.1
13409.1
14171.7
3961.93
3971.32
3980.77
3990.33
4000.03
4009.94
4020.23
4032.1
4047.41
4064.67
4081.93
4098.92
4116.48
4134.2
4150.92
4165.5
4177.47
4188.1
4198.6
4209.17
4219.78
4230.32
4240.69
4250.78
4270.25
4264.18
4258.71
4282.24
4275.81
4287.98
4299.62
4293.78
4311.48
4305.52
4323.63
4317.51
4336.19
4329.84
4349.52
4342.72
4364.59
4356.71
4398.86
4385.9
4379.79
4364.57
4433.43
4422.68
4407.15
4494.87
4479.17
4445.31
4458.37
4566.79
4547.62
4521.66
4504.38
4655.28
4633.84
4586.63
4607.13
4744.94
4721.99
4694.07
4671.75
4842.73
4812.88
4762.72
4786.97
5032.68
4974.13
4923.02
4879.22
5327.07
5240.95
5161.47
5088.91
5733.59
5620.06
5512.89
5412.13
6141.97
6017.23
5839.7
7025.69
6784.82
6275.61
6459.44
6639.62
7477.21
8018.52
7809.55
7306.45
8411.31
10388.8
11002.4
9590.85
8851.93
9344.46
10150.5
12530.1
13267.4
11658.4
12357.6
14862.4
15229.6
15348.2
14038.6
14787.3
3964.86
3973.98
3983.21
3992.56
4002.06
4011.82
4022.51
4036.05
4052.4
4069.44
4086.2
4103.41
4121.26
4138.79
4154.74
4168.06
4178.9
4188.98
4199.15
4209.43
4219.74
4229.99
4240.07
4249.98
4269.62
4263.6
4258.27
4281.39
4275.07
4287
4298.3
4292.64
4309.68
4303.98
4321.14
4315.4
4332.67
4326.9
4344.32
4338.46
4356.86
4350.34
4392.86
4380.07
4374.39
4368.99
4359.43
4355.72
4426.75
4416.43
4400.66
4488
4472.63
4438.18
4450.79
4558.67
4539.77
4512.04
4495.27
4649.83
4628.24
4578.33
4598.69
4739.45
4716.69
4685.65
4663.29
4834.91
4804.64
4754.43
4778.58
5023.42
4965.6
4915.41
4871.79
5317.67
5229.88
5149.65
5077.38
5724.02
5612.4
5506.03
5405.23
6149.38
5996.29
5834.84
6999.91
6779.1
6270.36
6453.13
6634.76
7520.77
8189.09
7788.6
7287.43
8613.28
10768.1
11437.6
9893.79
9089.06
9621.79
10505.1
13105
13886.1
12148.9
12909.3
15407.7
15702.9
15944.8
14675.3
15411.6
3967.52
3976.38
3985.38
3994.51
4003.83
4013.66
4025.45
4040.52
4057.03
4073.61
4090.37
4107.98
4125.92
4142.96
4157.88
4169.78
4179.73
4189.47
4199.38
4209.41
4219.48
4229.49
4239.4
4249.15
4257.67
4268.95
4263
4280.55
4274.32
4286.02
4296.96
4291.5
4307.86
4302.42
4318.63
4313.27
4329.15
4323.93
4339.18
4334.23
4349.18
4344.06
4386.47
4374.08
4363.49
4354.55
4351.4
4419.18
4409.41
4393.67
4479.44
4464.58
4430.03
4442.05
4548.05
4529.65
4500.54
4484.52
4641.29
4619.72
4567.25
4587.19
4731.21
4708.34
4673.19
4650.98
4823.29
4792.56
4742.18
4766.41
5012.97
4955.65
4904.22
4860.53
5310.34
5222.35
5142.27
5070.49
5719.35
5607.89
5501.67
5401.02
6144.91
5990.67
5830.6
6993.73
6773.92
6265.7
6447.88
6630.15
7515.67
8174.08
7782.05
7280.83
8601.85
11191.8
11905.4
10215.4
9082.01
9619.66
10885.4
13708.1
14526.4
12676.2
13495.3
16077.8
17835
16997.7
15336.5
16122.1
3969.92
3978.51
3987.28
3996.19
4005.4
4015.78
4029.17
4044.87
4061.14
4077.52
4094.65
4112.58
4130.33
4146.6
4160.17
4170.71
4180.1
4189.62
4199.33
4209.17
4219.05
4228.9
4238.68
4248.36
4257.27
4256.73
4268.3
4262.48
4279.69
4273.59
4285.05
4295.66
4290.37
4306.08
4300.89
4316.18
4311.18
4325.75
4321.05
4334.39
4330.21
4345.07
4342.81
4338.3
4379.84
4368.02
4358.07
4349.99
4347.36
4410.88
4401.77
4386.35
4469.39
4455.21
4421.07
4432.39
4535.04
4517.39
4487.45
4472.39
4629.16
4607.85
4553.48
4572.65
4718.83
4695.84
4656.13
4634.45
4807.85
4776.86
4724.43
4749.29
5006.59
4927.66
4884.28
4843.69
5306.26
5218.44
5138.5
5066.9
5715.29