/*--------------------------------*- C++ -*----------------------------------*\
  =========                 |
  \\      /  F ield         | OpenFOAM: The Open Source CFD Toolbox
   \\    /   O peration     | Website:  https://openfoam.org
    \\  /    A nd           | Version:  dev
     \\/     M anipulation  |
\*---------------------------------------------------------------------------*/
FoamFile
{
    version     2.0;
    format      ascii;
    class       volScalarField;
    location    "2500";
    object      H2O;
}
// * * * * * * * * * * * * * * * * * * * * * * * * * * * * * * * * * * * * * //

dimensions      [0 0 0 0 0 0 0];

internalField   nonuniform List<scalar> 
9842
(
2.81415e-29
8.09682e-29
5.3043e-29
1.39392e-28
1.75105e-28
4.93359e-29
1.69993e-28
3.97979e-28
1.66949e-28
3.85088e-29
1.79434e-28
6.98661e-28
5.26218e-28
1.84359e-28
1.0255e-29
2.3464e-28
1.32176e-27
9.96364e-28
5.06246e-28
1.29253e-28
1.04085e-29
3.98062e-28
1.83121e-27
1.93645e-27
1.00198e-27
3.1332e-28
7.98184e-29
3.57883e-30
5.42761e-28
1.65468e-27
3.18362e-27
2.07639e-27
8.73683e-28
2.68836e-28
2.82992e-29
1.43395e-30
8.64141e-28
2.11821e-27
5.22745e-27
4.10813e-27
1.93808e-27
6.97498e-28
1.51496e-28
1.18053e-29
7.8139e-31
1.19132e-27
4.09083e-27
7.72132e-27
6.77232e-27
4.08305e-27
1.4906e-27
4.23165e-28
5.20388e-29
6.35811e-30
1.88665e-31
4.21098e-27
1.10154e-26
1.31568e-26
1.14303e-26
7.73946e-27
3.61053e-27
9.40001e-28
2.38083e-28
3.1896e-29
2.2337e-30
7.78509e-32
9.24043e-27
1.79077e-26
2.7563e-26
2.06756e-26
1.30591e-26
7.06247e-27
2.50874e-27
6.89648e-28
1.36506e-28
1.23302e-29
7.79928e-31
2.15503e-32
1.42912e-26
4.16734e-26
5.55028e-26
3.88284e-26
2.63155e-26
1.31491e-26
6.21612e-27
1.87696e-27
4.39743e-28
4.03242e-29
4.4674e-30
2.61613e-31
5.86812e-33
2.74764e-26
8.35167e-26
1.09435e-25
9.56904e-26
5.22564e-26
2.67706e-26
1.02614e-26
4.68448e-27
1.26588e-27
1.94814e-28
2.17425e-29
1.62197e-30
4.61392e-32
9.56754e-34
4.12195e-26
1.93161e-25
2.74857e-25
2.50659e-25
1.19133e-25
5.61409e-26
2.59287e-26
8.58798e-27
3.41258e-27
6.56626e-28
8.87986e-29
8.012e-30
3.70478e-31
1.82123e-32
4.74901e-34
4.67189e-26
2.25058e-25
6.08145e-25
5.32154e-25
3.23706e-25
1.46057e-25
5.54489e-26
2.02752e-26
6.99478e-27
1.76675e-27
3.00073e-28
3.61678e-29
2.47633e-30
1.11244e-31
1.20208e-32
7.84349e-33
1.56891e-25
4.84248e-25
1.22086e-24
1.07552e-24
8.00655e-25
3.62566e-25
1.38388e-25
4.44591e-26
1.51492e-26
4.2781e-27
9.25687e-28
1.04578e-28
8.00329e-30
7.03358e-31
9.78248e-32
1.69544e-31
1.61678e-31
4.64376e-25
1.3296e-24
2.83696e-24
2.96233e-24
1.62005e-24
8.6929e-25
3.45318e-25
1.18953e-25
3.60805e-26
8.96374e-27
1.6813e-27
4.088e-28
4.57238e-29
2.91073e-30
9.38793e-31
2.11002e-30
4.41062e-30
4.12815e-30
1.05121e-24
2.52785e-24
5.42302e-24
7.18205e-24
4.45291e-24
1.84987e-24
8.2048e-25
2.99622e-25
9.15097e-26
2.55579e-26
5.6428e-27
8.85472e-28
1.6881e-28
1.71389e-29
7.79965e-30
2.07091e-29
5.7522e-29
9.44988e-29
1.19042e-28
1.88102e-24
4.94952e-24
1.16424e-23
1.35791e-23
1.44784e-23
5.17483e-24
1.71959e-24
7.51663e-25
2.26217e-25
5.42636e-26
1.46538e-26
3.06027e-27
4.74839e-28
7.4045e-29
5.91617e-29
2.0148e-28
5.56028e-28
1.51875e-27
2.21727e-27
2.2775e-27
1.50581e-24
1.21377e-23
2.76207e-23
3.837e-23
2.68827e-23
1.97736e-23
6.45916e-24
1.89073e-24
6.04631e-25
1.77629e-25
4.13749e-26
9.22944e-27
1.55304e-27
2.34491e-28
5.42918e-28
1.70362e-27
6.63575e-27
1.78507e-26
3.42094e-26
4.00229e-26
3.31998e-26
2.31094e-24
2.23679e-23
3.97063e-23
6.88969e-23
6.90825e-23
4.16219e-23
1.84413e-23
5.89393e-24
1.60849e-24
4.49764e-25
1.18822e-25
2.5443e-26
3.98178e-27
1.51997e-27
4.54401e-27
1.93626e-26
5.70474e-26
1.72952e-25
4.44769e-25
6.31933e-25
5.79001e-25
3.95363e-25
4.15786e-24
2.07621e-23
8.18141e-23
1.83392e-22
1.90608e-22
1.38004e-22
5.78645e-23
1.55938e-23
5.04665e-24
1.03175e-24
2.69819e-25
7.1304e-26
1.14773e-26
1.38154e-26
5.13888e-26
1.79316e-25
7.1289e-25
1.88975e-24
4.97058e-24
9.7359e-24
1.19224e-23
9.87647e-24
9.57339e-24
6.4386e-24
2.5161e-23
1.11593e-22
3.50273e-22
3.68673e-22
2.77819e-22
1.53855e-22
5.43559e-23
1.49459e-23
3.47772e-24
8.11006e-25
1.74504e-25
5.1265e-26
1.03709e-25
5.22391e-25
2.35181e-24
6.68605e-24
2.35399e-23
4.72706e-23
1.12069e-22
1.80967e-22
2.13392e-22
1.39317e-22
1.31939e-22
2.86879e-23
9.18864e-23
1.36107e-22
4.48964e-22
7.84504e-22
7.60516e-22
3.57664e-22
1.34664e-22
4.48005e-23
9.89555e-24
2.3274e-24
6.03418e-25
1.56126e-25
5.57525e-25
4.72668e-24
2.22181e-23
8.85049e-23
2.46255e-22
6.45293e-22
1.26093e-21
2.07717e-21
2.81903e-21
2.58337e-21
1.91395e-21
1.31685e-21
2.37335e-23
1.72756e-22
2.55468e-22
4.92635e-22
1.28777e-21
1.46748e-21
1.02697e-21
3.85374e-22
1.19468e-22
3.37424e-23
7.77355e-24
1.62463e-24
7.59766e-25
3.91273e-24
2.87225e-23
2.22278e-22
9.65471e-22
2.90491e-21
6.66857e-21
1.47516e-20
2.25072e-20
3.4011e-20
3.7109e-20
3.06487e-20
2.16693e-20
1.14451e-20
2.78907e-23
2.14237e-22
5.20629e-22
7.59074e-22
1.52359e-21
2.67987e-21
1.90673e-21
1.01661e-21
3.35714e-22
1.10197e-22
2.52143e-23
5.01227e-24
3.01736e-24
2.18742e-23
1.88544e-22
1.38192e-21
9.32422e-21
3.23171e-20
8.37335e-20
1.90005e-19
2.62537e-19
3.13233e-19
4.71552e-19
3.51494e-19
2.92327e-19
1.84147e-19
1.25257e-19
1.9989e-23
1.66234e-22
8.09455e-22
2.03864e-21
2.26405e-21
4.2221e-21
4.2228e-21
2.46441e-21
7.35412e-22
2.81246e-22
6.52515e-23
1.3087e-23
1.0415e-23
1.05362e-22
1.15308e-21
9.08646e-21
6.20481e-20
3.59015e-19
1.13165e-18
2.45953e-18
3.36681e-18
4.57587e-18
5.42303e-18
5.23308e-18
5.71844e-18
3.00922e-18
2.54013e-18
1.15907e-18
1.04035e-23
1.15061e-22
9.82255e-22
3.28543e-21
5.08572e-21
6.03205e-21
6.71938e-21
5.41995e-21
2.03206e-21
6.45382e-22
2.22107e-22
5.32639e-23
4.28383e-23
4.17914e-22
5.32391e-21
6.03282e-20
3.97381e-19
2.67261e-18
1.18627e-17
2.83265e-17
5.67768e-17
6.17936e-17
8.71314e-17
8.54837e-17
7.97352e-17
6.02451e-17
3.59496e-17
2.03149e-17
7.95301e-18
1.08632e-23
2.07579e-22
9.23577e-22
3.07302e-21
8.52809e-21
1.19005e-20
1.08179e-20
9.54314e-21
5.50496e-21
1.57699e-21
5.15262e-22
1.5287e-22
1.50687e-22
1.63155e-21
2.21151e-20
2.72258e-19
2.93456e-18
1.81403e-17
9.5393e-17
3.27568e-16
5.42775e-16
9.03031e-16
9.14521e-16
1.12314e-15
8.86749e-16
7.2351e-16
4.87751e-16
2.72791e-16
1.4509e-16
2.41443e-17
3.73065e-23
1.77673e-22
8.82607e-22
2.45509e-21
9.10727e-21
1.78502e-20
2.23426e-20
1.59991e-20
9.29183e-21
4.44499e-21
1.0875e-21
3.85182e-22
4.85005e-22
6.29075e-21
8.11927e-20
1.27187e-18
1.58919e-17
1.31441e-16
7.59769e-16
2.71841e-15
6.78648e-15
9.31392e-15
1.30866e-14
1.51398e-14
1.42577e-14
1.16495e-14
7.3456e-15
3.94097e-15
1.9658e-15
7.70821e-16
1.93774e-16
9.78101e-23
2.88395e-22
4.87212e-22
2.58403e-21
1.14702e-20
2.349e-20
2.96034e-20
3.02059e-20
1.93412e-20
1.0277e-20
3.27493e-21
9.84627e-22
1.09055e-21
1.67963e-20
3.14399e-19
4.78582e-18
6.63079e-17
7.91828e-16
5.20639e-15
2.48813e-14
6.7923e-14
1.10772e-13
1.64003e-13
2.13009e-13
2.17571e-13
1.81841e-13
1.258e-13
7.20374e-14
3.41457e-14
1.30002e-14
3.60653e-15
4.91521e-16
3.01865e-22
6.08964e-22
1.0304e-21
1.86103e-21
9.50917e-21
2.32262e-20
4.84117e-20
5.42218e-20
3.39558e-20
2.09159e-20
7.97647e-21
2.57974e-21
2.18449e-21
3.49919e-20
8.13572e-19
1.66298e-17
2.89858e-16
3.89033e-15
3.51132e-14
1.92975e-13
6.64561e-13
1.19311e-12
1.84717e-12
2.66436e-12
3.01757e-12
2.71806e-12
2.01489e-12
1.2367e-12
6.25745e-13
2.53012e-13
7.63385e-14
1.28903e-14
1.21055e-16
1.17372e-21
1.99016e-21
1.8568e-21
3.02578e-21
8.43448e-21
2.91892e-20
6.11134e-20
7.48251e-20
7.18295e-20
4.04807e-20
1.88931e-20
6.4174e-21
4.31719e-21
6.25795e-20
1.58937e-18
4.45524e-17
1.01782e-15
1.62157e-14
1.86881e-13
1.28043e-12
5.3239e-12
1.16084e-11
1.83575e-11
2.91124e-11
3.66249e-11
3.66857e-11
2.92575e-11
1.9218e-11
1.04166e-11
4.53659e-12
1.45801e-12
2.6836e-13
4.91581e-15
2.6562e-16
2.75851e-15
5.06379e-21
8.24514e-21
7.89484e-21
6.93792e-21
7.15234e-21
2.60755e-20
6.80405e-20
1.21136e-19
1.13912e-19
7.3194e-20
3.61372e-20
1.45431e-20
9.44672e-21
1.1024e-19
2.75891e-18
7.91278e-17
2.44415e-15
5.74517e-14
8.31188e-13
6.8051e-12
3.5808e-11
9.53058e-11
1.57701e-10
2.80473e-10
3.84935e-10
4.29235e-10
3.81182e-10
2.69176e-10
1.55855e-10
7.2933e-11
2.55999e-11
5.16196e-12
4.27745e-16
2.18841e-14
1.58244e-13
7.86952e-16
1.13313e-14
1.41899e-20
3.77286e-20
3.17034e-20
2.93262e-20
1.70661e-20
2.94229e-20
8.36339e-20
1.261e-19
1.66482e-19
1.24738e-19
6.41638e-20
2.90392e-20
1.76994e-20
1.65001e-19
4.48573e-18
1.38085e-16
4.58858e-15
1.55228e-13
2.96356e-12
3.00559e-11
1.86777e-10
6.22589e-10
1.15925e-09
2.35308e-09
3.52448e-09
4.30009e-09
4.27396e-09
3.35197e-09
2.08175e-09
1.03498e-09
3.93164e-10
9.07745e-11
2.29387e-12
9.87844e-12
8.93783e-13
6.18718e-12
5.18261e-12
9.27118e-14
6.23062e-13
2.888e-15
4.69022e-14
2.05798e-20
1.36473e-19
2.20082e-19
1.55576e-19
7.18022e-20
4.43175e-20
9.23288e-20
1.65741e-19
2.30821e-19
2.17088e-19
1.36455e-19
5.47465e-20
3.66859e-20
2.23813e-19
6.10266e-18
2.02304e-16
7.50147e-15
2.72642e-13
7.74362e-12
1.06743e-10
8.07744e-10
3.23046e-09
7.10477e-09
1.68964e-08
2.83531e-08
3.72011e-08
4.05342e-08
3.54716e-08
2.4253e-08
1.28461e-08
5.19349e-09
1.35171e-09
3.98682e-11
1.7026e-10
2.9061e-11
3.6143e-12
2.45318e-11
1.85664e-11
3.72549e-13
2.37088e-12
9.97505e-15
1.66349e-13
1.49156e-19
4.33834e-19
8.60303e-19
6.28218e-19
3.17578e-19
1.33876e-19
1.10339e-19
1.80208e-19
2.93246e-19
3.41894e-19
2.67626e-19
1.16277e-19
7.60154e-20
3.13314e-19
7.5724e-18
2.39025e-16
9.49677e-15
4.28216e-13
1.33918e-11
2.64414e-10
2.83047e-09
1.28844e-08
3.45601e-08
1.00282e-07
1.96273e-07
2.79514e-07
3.29258e-07
3.1763e-07
2.44327e-07
1.4457e-07
6.25435e-08
1.79321e-08
6.2991e-10
2.4203e-09
1.24133e-10
4.95836e-10
1.08249e-10
1.32622e-11
8.76839e-11
6.7062e-11
1.32479e-12
8.44801e-12
3.03462e-14
5.5114e-13
2.00341e-18
1.8222e-18
4.39552e-18
2.34569e-18
1.33004e-18
5.55356e-19
2.26315e-19
2.33891e-19
4.34069e-19
4.9568e-19
3.84179e-19
3.19563e-19
1.42484e-19
5.24497e-19
9.72649e-18
2.72396e-16
1.04858e-14
4.88241e-13
2.13419e-11
4.44798e-10
6.56599e-09
3.91623e-08
1.28654e-07
4.65244e-07
1.11298e-06
1.84467e-06
2.30702e-06
2.41048e-06
2.05308e-06
1.40942e-06
7.14797e-07
2.30215e-07
8.62135e-09
3.19488e-08
1.85491e-09
6.66445e-09
4.42785e-10
1.70268e-09
3.81351e-10
4.76444e-11
3.13113e-10
2.43321e-10
4.60741e-12
3.02693e-11
9.50951e-14
1.87115e-12
5.10216e-18
1.11714e-17
1.66556e-17
1.38414e-17
7.50638e-18
2.31463e-18
9.37248e-19
5.17059e-19
6.83868e-19
9.64496e-19
8.89573e-19
6.06356e-19
4.75992e-19
8.05159e-19
1.22121e-17
3.08708e-16
1.08282e-14
5.02871e-13
2.38454e-11
7.11223e-10
1.07084e-08
8.87602e-08
3.58822e-07
1.60988e-06
4.78216e-06
9.80455e-06
1.42413e-05
1.58542e-05
1.45711e-05
1.09714e-05
6.73279e-06
2.68449e-06
1.16385e-07
4.33518e-07
2.30568e-08
7.9273e-08
6.15788e-09
2.1352e-08
1.53163e-09
5.77851e-09
1.35116e-09
1.74731e-10
1.14143e-09
9.14548e-10
1.6487e-11
1.12424e-10
3.17902e-13
6.67812e-12
1.42127e-17
8.65188e-17
5.22322e-17
5.35361e-17
2.97133e-17
1.07104e-17
4.66285e-18
2.32699e-18
1.65331e-18
2.44711e-18
2.07607e-18
1.21585e-18
1.26646e-18
1.65915e-18
1.74376e-17
3.62032e-16
1.06756e-14
4.73308e-13
2.44047e-11
7.57549e-10
1.68024e-08
1.4947e-07
7.16965e-07
4.00429e-06
1.47922e-05
3.70634e-05
6.58962e-05
8.54277e-05
8.35147e-05
6.76752e-05
4.59318e-05
2.44939e-05
1.67148e-06
5.95652e-06
2.7448e-07
9.89591e-07
7.23004e-08
2.44151e-07
2.05541e-08
7.04535e-08
5.39325e-09
2.02944e-08
4.98676e-09
6.72107e-10
4.41034e-09
3.68719e-09
6.16084e-11
4.38569e-10
1.12751e-12
2.50045e-11
6.70465e-17
3.03172e-16
2.55178e-16
1.85695e-16
1.00346e-16
5.23851e-17
1.88489e-17
8.54532e-18
4.65583e-18
5.32998e-18
6.13874e-18
4.14346e-18
2.79212e-18
4.42062e-18
2.90192e-17
4.57958e-16
1.11368e-14
4.13584e-13
2.11807e-11
8.23306e-10
1.58929e-08
1.97699e-07
1.11524e-06
7.18771e-06
3.09898e-05
9.38361e-05
0.00019705
0.000292379
0.000322028
0.000275497
0.000209073
0.000139622
2.07382e-05
6.48663e-05
3.53777e-06
1.22886e-05
8.39369e-07
2.95951e-06
2.38417e-07
8.12631e-07
7.27002e-08
2.53872e-07
2.03268e-08
7.85126e-08
2.01521e-08
2.7704e-09
1.89938e-08
1.65305e-08
2.40729e-10
1.8155e-09
4.2217e-12
9.77737e-11
3.49622e-16
8.63052e-16
7.98584e-16
6.87484e-16
4.93033e-16
2.10481e-16
8.68773e-17
2.93785e-17
2.14205e-17
1.53856e-17
1.48794e-17
1.36301e-17
6.66331e-18
1.00857e-17
4.40186e-17
6.88778e-16
1.34142e-14
3.94085e-13
1.66621e-11
7.18278e-10
1.90703e-08
2.29587e-07
1.41218e-06
1.03271e-05
5.00797e-05
0.000162078
0.000368035
0.00060358
0.00074796
0.000751202
0.000617379
0.000490377
0.000179734
0.000402883
4.08437e-05
0.000126501
1.00204e-05
3.27076e-05
2.81409e-06
9.40855e-06
8.86515e-07
3.10032e-06
2.9444e-07
1.08706e-06
8.73696e-08
3.60673e-07
9.45999e-08
1.255e-08
9.50794e-08
8.48858e-08
9.88571e-10
8.10445e-09
1.66467e-11
3.98894e-10
1.34745e-15
3.46943e-15
3.3595e-15
2.38896e-15
1.82589e-15
7.96481e-16
4.24368e-16
1.56649e-16
6.83836e-17
6.40961e-17
3.60499e-17
3.71482e-17
1.9266e-17
1.70358e-17
6.54237e-17
9.63928e-16
1.74676e-14
4.12032e-13
1.43585e-11
5.96315e-10
1.55945e-08
2.25226e-07
1.55603e-06
1.24292e-05
6.60154e-05
0.000231317
0.000527733
0.000890241
0.00118857
0.00131158
0.00122805
0.00100914
0.000621745
0.000924373
0.000317688
0.000559907
0.000100807
0.00026754
3.00953e-05
9.16234e-05
1.03642e-05
3.24673e-05
3.953e-06
1.32664e-05
1.45626e-06
5.62237e-06
4.50906e-07
2.00663e-06
5.25769e-07
6.39229e-08
5.51774e-07
4.94989e-07
4.32212e-09
3.99217e-08
6.87426e-11
1.69832e-09
1.03509e-14
2.50381e-14
2.13504e-14
1.34783e-14
7.85701e-15
4.05014e-15
1.50851e-15
6.60951e-16
3.08821e-16
1.58242e-16
1.16778e-16
9.88913e-17
6.78615e-17
3.62742e-17
9.84474e-17
1.25475e-15
2.35418e-14
4.81356e-13
1.3908e-11
5.21661e-10
1.37283e-08
2.17921e-07
1.54565e-06
1.31169e-05
7.54464e-05
0.000278858
0.000668502
0.00111016
0.00152155
0.00180778
0.00188488
0.00171931
0.00120149
0.00152697
0.000832099
0.00114686
0.000503056
0.000778715
0.000244525
0.000478649
9.5983e-05
0.000249976
4.10093e-05
0.000116495
1.93217e-05
5.85361e-05
8.31954e-06
2.94812e-05
2.69895e-06
1.20039e-05
3.25024e-06
3.66261e-07
3.45367e-06
3.09538e-06
2.03782e-08
2.19666e-07
2.99817e-10
7.6726e-09
8.49411e-14
1.89402e-13
1.51301e-13
8.89546e-14
4.74882e-14
2.00852e-14
6.41588e-15
1.9885e-15
1.00776e-15
7.25667e-16
3.60808e-16
2.7576e-16
2.5235e-16
1.57954e-16
1.66609e-16
1.44194e-15
2.85503e-14
5.85451e-13
1.46391e-11
4.67141e-10
1.31821e-08
2.08334e-07
1.49323e-06
1.29214e-05
7.77748e-05
0.000303397
0.000750922
0.00127868
0.0017146
0.00207468
0.00232124
0.00237551
0.0022535
0.00146694
0.00189616
0.00108915
0.00143901
0.000757366
0.00107386
0.000491882
0.00078076
0.000290106
0.000550794
0.000158574
0.000373233
8.93766e-05
0.000229202
4.41501e-05
0.000134053
1.62106e-05
6.23278e-05
1.93258e-05
2.27041e-06
2.03714e-05
1.84129e-05
1.05954e-07
1.33412e-06
1.4061e-09
3.76809e-08
6.91388e-13
1.44553e-12
1.09762e-12
6.0852e-13
3.35112e-13
1.21124e-13
3.14222e-14
9.91722e-15
4.37977e-15
2.23034e-15
1.58157e-15
8.38761e-16
7.03303e-16
4.06379e-16
3.53396e-16
1.70499e-15
3.25445e-14
6.98859e-13
1.60532e-11
4.46654e-10
1.28363e-08
2.02324e-07
1.46026e-06
1.23724e-05
7.64632e-05
0.000304848
0.000779174
0.00125834
0.00168175
0.00207628
0.00240492
0.00267499
0.00282778
0.00251688
0.00287
0.00181504
0.00220593
0.00142608
0.00181576
0.00110789
0.00146809
0.000859392
0.00120359
0.000664681
0.0010037
0.000505118
0.000842733
0.00033915
0.000682674
0.000191724
0.000474848
8.08303e-05
0.000255245
9.32147e-05
1.38388e-05
9.68212e-05
8.8371e-05
6.08813e-07
8.30632e-06
7.24732e-09
2.03901e-07
4.9202e-12
1.04347e-11
7.89392e-12
4.25243e-12
2.24703e-12
6.91153e-13
1.86918e-13
5.70629e-14
2.36172e-14
1.23655e-14
6.74818e-15
3.81789e-15
2.45344e-15
1.52983e-15
7.27391e-16
1.90824e-15
3.54359e-14
7.51748e-13
1.67598e-11
4.51983e-10
1.26003e-08
2.07857e-07
1.48081e-06
1.20568e-05
7.37088e-05
0.000298111
0.000762389
0.00115112
0.00145356
0.00185763
0.00228023
0.0026762
0.00298124
0.00303966
0.0031277
0.00291924
0.00310514
0.00221676
0.00259034
0.00185936
0.0022694
0.00157501
0.00196962
0.00137103
0.00175774
0.00121761
0.00161509
0.00108148
0.00150128
0.000903277
0.00136709
0.000629603
0.00114313
0.000312345
0.000780762
0.000347205
6.87652e-05
0.000354961
0.00032523
3.71888e-06
4.35572e-05
4.12487e-08
1.18737e-06
2.05152e-11
6.06947e-11
5.34813e-11
2.92906e-11
1.39609e-11
3.78134e-12
1.07602e-12
3.54378e-13
1.5234e-13
7.84883e-14
4.13114e-14
2.00703e-14
8.51029e-15
4.13452e-15
2.59492e-15
2.6697e-15
3.54858e-14
7.96381e-13
1.7868e-11
4.45879e-10
1.24488e-08
2.3272e-07
1.62815e-06
1.23164e-05
7.2785e-05
0.000287968
0.000727229
0.00103074
0.0012061
0.00137002
0.00174618
0.00236518
0.00282638
0.0031242
0.00306981
0.00317137
0.00316805
0.00315355
0.00320921
0.00265595
0.00297875
0.0023715
0.00275175
0.00215291
0.00254103
0.00201743
0.00241084
0.00192788
0.00234264
0.00183839
0.00229061
0.0016791
0.00219603
0.00138166
0.00198477
0.000900754
0.00159513
0.000967225
0.000260826
0.000973843
0.000897041
2.06171e-05
0.000177356
2.48644e-07
6.78236e-06
4.49435e-11
1.81398e-10
2.56924e-10
1.98914e-10
7.47417e-11
2.00907e-11
6.0245e-12
2.23281e-12
1.04624e-12
5.44707e-13
2.74325e-13
1.26017e-13
5.11192e-14
1.91219e-14
1.34967e-14
6.31988e-15
3.38818e-14
7.61532e-13
1.73979e-11
4.21454e-10
1.16634e-08
2.5809e-07
1.98661e-06
1.38071e-05
7.4912e-05
0.000284898
0.000695846
0.000948259
0.00104234
0.000993053
0.000956107
0.00135102
0.00218761
0.00272093
0.00312738
0.00296985
0.00320074
0.00315167
0.00325575
0.00323567
0.00305629
0.00321638
0.00289239
0.00316017
0.00277476
0.00308535
0.00272749
0.00305918
0.00271016
0.00307531
0.00267182
0.00308759
0.00254274
0.00303426
0.00225423
0.0028472
0.00175653
0.00247562
0.00184523
0.000741387
0.00185467
0.00175755
9.13745e-05
0.000539416
1.43237e-06
3.11754e-05
2.57719e-10
6.51248e-10
8.75993e-10
3.3805e-10
1.00003e-10
3.36726e-11
1.46747e-11
7.58713e-12
3.95369e-12
1.91561e-12
8.38359e-13
3.25477e-13
1.14246e-13
4.02746e-14
1.84057e-14
3.29969e-14
6.80266e-13
1.61751e-11
3.73614e-10
1.01704e-08
2.56028e-07
2.49701e-06
1.71138e-05
8.35671e-05
0.000289625
0.000676872
0.000895232
0.000941985
0.000763031
0.00047315
0.000524196
0.000990775
0.00171487
0.00249766
0.00198463
0.00302384
0.00276785
0.00316108
0.00299242
0.0032888
0.00317861
0.00330512
0.00332749
0.00330825
0.00342696
0.00332068
0.00349825
0.00337401
0.00359111
0.00343259
0.00370275
0.00344848
0.00378973
0.00335421
0.00378504
0.00309485
0.00362986
0.00262159
0.00328635
0.00268683
0.0015368
0.00266643
0.00254499
0.000303947
0.00119356
6.63049e-06
0.000114169
7.54971e-10
1.88416e-09
1.29159e-09
4.69268e-10
1.9723e-10
1.06519e-10
5.93032e-11
3.0329e-11
1.39575e-11
5.78521e-12
2.14402e-12
7.23118e-13
2.24972e-13
8.6106e-14
4.42062e-14
5.3911e-13
1.35184e-11
3.13994e-10
8.42275e-09
2.28524e-07
2.82239e-06
2.16648e-05
9.8546e-05
0.00030877
0.000671155
0.000862146
0.00088189
0.000647465
0.000273973
0.000186506
0.000318593
0.000652575
0.00152745
0.000903521
0.0020251
0.00153732
0.0027403
0.0024287
0.00295109
0.0026708
0.00322587
0.00294859
0.00343556
0.0033791
0.00358207
0.00357838
0.00372778
0.00378055
0.00389277
0.00399771
0.00403179
0.00417292
0.00411682
0.00428261
0.00407488
0.00436949
0.00385191
0.00434331
0.00340722
0.00403792
0.00345412
0.00231603
0.00342274
0.00333922
0.00285196
0.000751854
0.00193104
2.58558e-05
0.000330141
1.87388e-09
3.25988e-09
2.20896e-09
1.3332e-09
8.89804e-10
5.12112e-10
2.49244e-10
1.06738e-10
4.13554e-11
1.457e-11
4.70818e-12
1.40221e-12
4.17459e-13
1.36442e-13
4.38469e-13
1.04688e-11
2.42475e-10
6.65144e-09
1.77611e-07
2.84683e-06
2.55797e-05
0.000118131
0.000337256
0.000674805
0.000842276
0.000845776
0.000594202
0.000210372
8.00975e-05
8.55248e-05
0.000177126
0.000278127
0.000998903
0.00053199
0.00151884
0.0010176
0.00234823
0.00197019
0.00262035
0.00226441
0.00304102
0.00266879
0.00351584
0.0033446
0.00377081
0.00371184
0.00402858
0.00401528
0.00423636
0.00424706
0.00434809
0.00435468
0.00445033
0.00443833
0.00457342
0.0045691
0.00454503
0.00473814
0.0041619
0.00469702
0.00443418
0.00382844
0.00422207
0.00322617
0.0025577
0.00311023
0.00375611
0.00421359
0.004209
0.00370031
0.00137739
0.0029223
0.00272283
0.00211515
0.000145152
0.000772617
4.61589e-09
9.58836e-09
1.01141e-08
8.24608e-09
4.87391e-09
2.22766e-09
8.69596e-10
3.0914e-10
1.02057e-10
3.15628e-11
8.96773e-12
2.54231e-12
7.06657e-13
4.74019e-13
7.68559e-12
1.92392e-10
4.9411e-09
1.31816e-07
2.70544e-06
2.68796e-05
0.000136922
0.000370964
0.000685856
0.000828894
0.000820461
0.000564938
0.000190528
5.15855e-05
2.46333e-05
4.39288e-05
9.58409e-05
0.000236697
0.000158455
0.000609114
0.000367212
0.0010089
0.000668867
0.00187641
0.00144738
0.00226016
0.0018367
0.00293752
0.00251625
0.00355685
0.00329262
0.00395787
0.00382353
0.00423139
0.00418753
0.00434495
0.00432199
0.00441226
0.0043716
0.00449521
0.00438124
0.00470001
0.00464138
0.00455447
0.00443154
0.00483959
0.00488245
0.00466633
0.00470041
0.00483136
0.00475261
0.00453701
0.00484527
0.00493804
0.00457929
0.00359694
0.00345303
0.00415233
0.00458046
0.00459459
0.004079
0.00245356
0.00154137
0.00216873
0.0032688
0.00304029
0.000317221
0.00183897
0.00146904
0.000886594
3.01449e-08
6.98954e-08
7.46153e-08
4.82555e-08
2.14837e-08
7.64029e-09
2.45537e-09
7.47619e-10
2.18816e-10
5.89508e-11
1.56283e-11
4.02334e-12
1.10338e-12
5.5627e-12
1.4171e-10
3.45321e-09
9.38e-08
2.23699e-06
2.64385e-05
0.00014648
0.000404814
0.000696455
0.000817993
0.000795599
0.00053729
0.000180205
4.31775e-05
1.05179e-05
1.07427e-05
2.9875e-05
0.00010982
0.000287612
0.000254503
0.000455594
0.000337563
0.000769746
0.000572075
0.00142864
0.0010588
0.00206675
0.00163229
0.00292916
0.00249662
0.0036012
0.00330292
0.00410008
0.00395567
0.0042833
0.00422512
0.00433699
0.00430057
0.00431826
0.00431654
0.00433748
0.00426396
0.00426291
0.00428391
0.00454355
0.00440061
0.00428328
0.00497032
0.00490409
0.00453174
0.00453421
0.00474542
0.00502213
0.00488329
0.00509236
0.00505477
0.00492541
0.00396632
0.00381229
0.00453843
0.00494694
0.00494479
0.00446164
0.00276812
0.00245418
0.00361301
0.00336635
0.00104807
0.000137267
0.000489071
0.00208854
0.00165545
3.17143e-07
5.43218e-07
4.38646e-07
2.09892e-07
7.14822e-08
2.09228e-08
5.82536e-09
1.58014e-09
4.00125e-10
9.83143e-11
2.33396e-11
5.21087e-12
4.95623e-12
9.79328e-11
2.31092e-09
6.30543e-08
1.56991e-06
2.4014e-05
0.000146488
0.000424785
0.000705853
0.000806152
0.000765632
0.000497285
0.00016602
3.8988e-05
6.89338e-06
3.18995e-06
7.95732e-06
3.55788e-05
0.000308262
0.000155147
0.000506844
0.000448233
0.000495537
0.000504869
0.000760889
0.000753451
0.00124969
0.000947389
0.00204456
0.00162704
0.00312537
0.00272886
0.0037497
0.00347263
0.00413917
0.00402705
0.00425844
0.00418826
0.00432859
0.00431608
0.00432888
0.00439845
0.00447822
0.00455448
0.0042333
0.00424047
0.00430002
0.00440926
0.00436287
0.00424096
0.00421417
0.00497589
0.00479171
0.00433471
0.00431899
0.00454935
0.00513907
0.00515517
0.00522252
0.00505542
0.00520939
0.00434398
0.00417865
0.00491302
0.00524852
0.00526778
0.00484171
0.00307191
0.00272338
0.0039623
0.00369224
0.00107201
4.92167e-05
0.000373562
0.00230448
0.00176725
2.40927e-06
3.06199e-06
1.82463e-06
6.68526e-07
1.8791e-07
4.84019e-08
1.19073e-08
2.81038e-09
6.32861e-10
1.38699e-10
2.94929e-11
7.9639e-12
6.49796e-11
1.48308e-09
4.07312e-08
1.02291e-06
2.01606e-05
0.00014299
0.000427329
0.000704684
0.000793487
0.000726263
0.000443023
0.000145541
3.37876e-05
5.65942e-06
1.69739e-06
2.38482e-06
8.8444e-06
5.34878e-05
0.000399364
0.000190671
0.000879035
0.00070184
0.000810979
0.00088378
0.00114567
0.00122961
0.00130667
0.00114674
0.00233416
0.00200466
0.00346298
0.00319004
0.00388333
0.00369793
0.00409406
0.00399677
0.00427418
0.00417641
0.00460596
0.00463817
0.00463503
0.00459954
0.00454845
0.00469185
0.00482254
0.00492559
0.00424856
0.00436776
0.00454749
0.00476033
0.00421137
0.00419544
0.0042749
0.004853
0.00458111
0.00419078
0.00417923
0.00431782
0.00514403
0.00530358
0.0052396
0.00493082
0.00538027
0.00472338
0.00454896
0.00525623
0.00544679
0.00549813
0.00520279
0.00336558
0.00297138
0.00431375
0.00401531
0.00104623
3.25942e-05
0.000282676
0.0024786
0.00182963
1.26766e-05
1.19289e-05
5.5077e-06
1.68846e-06
4.12409e-07
9.19564e-08
1.99868e-08
4.1377e-09
8.40189e-10
1.68129e-10
3.09976e-11
4.56687e-11
9.26125e-10
2.53425e-08
6.53066e-07
1.3522e-05
0.000133255
0.000422853
0.000700154
0.000777269
0.00068207
0.000379327
0.000119881
2.79949e-05
4.30655e-06
8.08175e-07
1.05816e-06
2.45219e-06
1.04312e-05
8.58121e-05
2.55431e-05
0.000425631
0.000194877
0.0012409
0.000803373
0.00136754
0.00140939
0.00182344
0.00195225
0.00181185
0.00178457
0.00292267
0.00271006
0.00357212
0.00339079
0.00387852
0.00373766
0.00402955
0.00385794
0.0046006
0.00435482
0.00498938
0.0050106
0.00498806
0.00492344
0.00497498
0.00516649
0.0053158
0.0054109
0.00446287
0.00471719
0.00500561
0.00528813
0.00419116
0.00431429
0.00456465
0.00463371
0.0043371
0.00418676
0.0041897
0.00418127
0.00502764
0.00533839
0.00513869
0.00471125
0.00543874
0.00509268
0.00491574
0.00552515
0.00553523
0.00562528
0.00551458
0.00364786
0.00319532
0.00466324
0.0043327
0.000979514
1.43799e-05
0.000173064
0.00261932
0.00185478
4.35342e-05
3.28519e-05
1.30783e-05
3.26783e-06
6.85476e-07
1.38023e-07
2.66718e-08
5.08147e-09
9.51978e-10
1.6471e-10
5.4721e-11
6.18127e-10
1.52546e-08
3.98024e-07
9.22779e-06
0.000110693
0.000409706
0.000691569
0.000759952
0.000636512
0.000317733
9.7882e-05
2.12192e-05
3.4579e-06
4.88565e-07
2.85693e-07
9.23609e-07
2.01668e-06
3.51895e-06
5.69645e-05
1.65976e-05
0.000406215
0.000168297
0.00134454
0.000812823
0.00195759
0.00179151
0.00249305
0.00241342
0.00258556
0.00253567
0.00321077
0.00305009
0.00340087
0.00324093
0.00370677
0.00355748
0.00406295
0.00377541
0.00510664
0.004915
0.00453315
0.00475461
0.00544497
0.00543064
0.00536064
0.00524958
0.00553254
0.00571624
0.00582624
0.00585984
0.00489661
0.00525557
0.00559564
0.0058793
0.00435433
0.00466428
0.00506204
0.00438357
0.00419942
0.00438441
0.00440055
0.00419724
0.00481668
0.00526079
0.00494335
0.00446031
0.00539179
0.00543639
0.00526959
0.00569187
0.00552894
0.00566818
0.00573379
0.00391798
0.00339976
0.00500512
0.00464301
0.000846486
4.66403e-06
9.29097e-05
0.00273617
0.00183634
0.000101404
6.54554e-05
2.15766e-05
4.6283e-06
8.92231e-07
1.64406e-07
2.95826e-08
5.26876e-09
9.00201e-10
1.59391e-10
3.97398e-10
8.77978e-09
2.33224e-07
5.67374e-06
7.91281e-05
0.000379691
0.00067954
0.000747591
0.000597769
0.000269169
8.01641e-05
1.87456e-05
3.30811e-06
4.75891e-07
1.10919e-07
1.97127e-07
6.52373e-07
7.97802e-07
1.90494e-06
5.54004e-07
2.79377e-05
6.56708e-06
0.000298871
0.000100978
0.00127155
0.000695142
0.00223244
0.00185118
0.00267504
0.00248987
0.00291709
0.00280227
0.00308179
0.00292827
0.00294505
0.00270849
0.00347467
0.00319856
0.00433709
0.00409041
0.00375586
0.00518218
0.00499627
0.00460066
0.00480806
0.00581401
0.00568861
0.00552906
0.00535989
0.00608034
0.00618772
0.0061951
0.00608757
0.00548402
0.00587144
0.00618131
0.0063886
0.00474104
0.00519809
0.00567492
0.00423912
0.00421883
0.00478883
0.00480364
0.00439751
0.00456868
0.00508989
0.0047099
0.00430097
0.00525319
0.00571811
0.00559625
0.00579013
0.00543357
0.00562928
0.00587922
0.00417753
0.0035932
0.00533532
0.0049461
0.000648101
1.48635e-06
5.03793e-05
0.00283861
0.00176356
0.000166048
9.47277e-05
2.6644e-05
5.19647e-06
9.35936e-07
1.63101e-07
2.82966e-08
4.80658e-09
7.57723e-10
3.67211e-10
4.90519e-09
1.32949e-07
3.15132e-06
5.02885e-05
0.000325238
0.000659699
0.00074094
0.00057907
0.000240608
7.40012e-05
1.8742e-05
3.9649e-06
6.64965e-07
1.15725e-07
4.86458e-08
1.1879e-07
1.53203e-07
8.71618e-08
5.36731e-07
1.87626e-07
8.54089e-06
1.9358e-06
0.000133862
3.5496e-05
0.00094533
0.000413663
0.0021625
0.00160494
0.00240758
0.00209202
0.00277739
0.00261494
0.00248466
0.00227579
0.00242704
0.00204136
0.00329118
0.00284808
0.00438166
0.00414106
0.00383967
0.00355775
0.00508544
0.00490269
0.00453294
0.00472358
0.00591161
0.00571407
0.00550033
0.00528352
0.00647701
0.00645841
0.00631457
0.00610388
0.00610134
0.00643127
0.00664124
0.00671593
0.00529281
0.00581915
0.00628323
0.00425348
0.00439942
0.00534282
0.00534688
0.00478393
0.0043897
0.00487739
0.00451841
0.0043024
0.00507136
0.00592246
0.00587202
0.00582683
0.00529518
0.00554956
0.00598438
0.00443218
0.00378701
0.00564984
0.00524016
0.000496216
6.7833e-07
3.42274e-05
0.00293855
0.00172005
0.000219564
0.000109201
2.63617e-05
4.89942e-06
8.63231e-07
1.46892e-07
2.45015e-08
3.84869e-09
7.094e-10
3.00316e-09
7.32933e-08
1.78203e-06
2.98935e-05
0.000255321
0.000623432
0.000737803
0.000577953
0.000240773
7.7967e-05
2.31822e-05
6.88879e-06
1.44412e-06
2.45899e-07
4.54188e-08
2.06736e-08
1.87742e-08
1.2271e-08
1.70592e-08
6.53724e-09
1.95666e-07
5.0228e-08
2.1274e-06
5.29243e-07
3.71559e-05
9.09891e-06
0.000415375
0.000135382
0.00160541
0.00096589
0.00156341
0.0011634
0.00207287
0.00185285
0.00168469
0.00137297
0.00205409
0.00159867
0.00329805
0.00300408
0.00255875
0.00432385
0.00409268
0.0036887
0.00343071
0.00475769
0.00459664
0.00430408
0.00445443
0.00583943
0.00552709
0.0052249
0.0049643
0.00668843
0.00652939
0.00628564
0.00594886
0.00663196
0.00684836
0.00691944
0.00689605
0.00591468
0.00641735
0.00679064
0.00439936
0.00474431
0.00596014
0.0059562
0.00530596
0.00437898
0.00468964
0.00447708
0.00440885
0.00490441
0.00607375
0.00608518
0.00581896
0.00516416
0.00546652
0.00605858
0.00469176
0.00400631
0.00593459
0.00553783
0.000442829
5.80325e-07
3.56923e-05
0.00306953
0.00177267
0.000254167
0.000103897
2.28576e-05
4.18958e-06
7.08366e-07
1.17909e-07
1.88035e-08
2.7278e-09
2.24872e-09
3.82632e-08
9.84642e-07
1.64551e-05
0.000180905
0.000567716
0.000735291
0.000587358
0.000257385
9.7099e-05
3.68833e-05
1.42612e-05
3.75539e-06
7.89167e-07
1.09361e-07
1.75267e-08
4.0163e-09
1.71891e-09
7.54639e-10
4.63962e-09
1.44976e-09
6.2592e-08
1.59837e-08
5.42672e-07
2.07826e-07
7.85966e-06
1.99272e-06
0.000102883
2.99281e-05
0.000677339
0.000297299
0.000577418
0.000343226
0.00109542
0.000832744
0.00119892
0.00085908
0.00196819
0.00171191
0.00135079
0.00316932
0.00290448
0.00218843
0.00244413
0.00412999