/*--------------------------------*- C++ -*----------------------------------*\
  =========                 |
  \\      /  F ield         | OpenFOAM: The Open Source CFD Toolbox
   \\    /   O peration     | Website:  https://openfoam.org
    \\  /    A nd           | Version:  dev
     \\/     M anipulation  |
\*---------------------------------------------------------------------------*/
FoamFile
{
    version     2.0;
    format      ascii;
    class       volScalarField;
    location    "2500";
    object      k;
}
// * * * * * * * * * * * * * * * * * * * * * * * * * * * * * * * * * * * * * //

dimensions      [0 2 -2 0 0 0 0];

internalField   nonuniform List<scalar> 
9842
(
0.000153194
0.000161821
0.000145811
0.000141392
0.000207274
0.000119509
0.000120786
0.000222972
0.000187422
0.000107688
0.000111197
0.000211831
0.000228273
0.000144432
0.000103613
0.00010538
0.000180523
0.000250876
0.000199672
0.000120565
0.000101865
0.000102406
0.000147927
0.000249887
0.000239748
0.000154144
0.000110777
0.000100918
0.000100702
0.000128888
0.00023549
0.000261395
0.000199917
0.000127971
0.000105702
0.000100361
9.97281e-05
0.000115805
0.00020215
0.00027217
0.000240748
0.000155653
0.000115764
0.000102801
9.99807e-05
9.90219e-05
0.000108107
0.000164979
0.00026798
0.000265561
0.000192573
0.00013062
0.000108981
0.000101002
9.96e-05
9.86443e-05
0.000103796
0.000140624
0.000251568
0.0002805
0.000233045
0.00015254
0.00011829
0.000104471
9.99008e-05
9.92305e-05
9.84704e-05
0.000101488
0.000124331
0.000217517
0.000287286
0.000263819
0.000182521
0.000130843
0.000110828
0.000101567
9.9124e-05
9.89709e-05
9.83726e-05
0.00010025
0.000114443
0.000179136
0.000282393
0.000282261
0.000219372
0.000147629
0.000119235
0.000105705
9.97899e-05
9.83815e-05
9.88274e-05
9.83438e-05
9.95461e-05
0.000108644
0.000151384
0.000265463
0.000294657
0.000254759
0.000173066
0.000128845
0.000111692
0.000102111
9.85853e-05
9.77113e-05
9.87658e-05
9.83998e-05
9.91412e-05
0.000105275
0.000133215
0.00023117
0.000300441
0.000280659
0.000203736
0.000142935
0.000118376
0.000106385
9.96611e-05
9.76515e-05
9.71823e-05
9.87515e-05
9.84955e-05
9.89585e-05
0.000103276
0.000121877
0.000191747
0.000295289
0.000296169
0.000240082
0.000162295
0.00012665
0.000111441
0.000102451
9.80692e-05
9.67852e-05
9.68204e-05
9.87481e-05
9.85935e-05
9.89113e-05
0.000102124
0.000115032
0.000162111
0.000277727
0.000307827
0.000271398
0.000190206
0.000137237
0.000117309
0.00010628
9.95274e-05
9.69077e-05
9.59851e-05
9.6617e-05
9.87323e-05
9.87216e-05
9.89223e-05
0.000101468
0.000111049
0.000143184
0.000243643
0.000311261
0.000294553
0.000221885
0.000153534
0.000123936
0.000110742
0.00010237
9.75472e-05
9.59212e-05
9.53412e-05
9.65298e-05
9.87108e-05
9.88664e-05
9.8991e-05
0.000101058
0.000108725
0.000131355
0.00020485
0.000305741
0.000307174
0.000256545
0.000176629
0.000132626
0.000115739
0.000105745
9.93099e-05
9.61538e-05
9.49828e-05
9.49176e-05
9.64683e-05
9.87192e-05
9.89897e-05
9.9108e-05
0.000100816
0.000107181
0.000124517
0.000174502
0.000288065
0.000318886
0.000284678
0.000205998
0.000145884
0.000121362
0.000109684
0.000101895
9.70038e-05
9.50303e-05
9.41518e-05
9.47011e-05
9.64007e-05
9.87231e-05
9.91186e-05
9.92171e-05
0.000100696
0.000106027
0.000120552
0.000154872
0.00025535
0.000321926
0.000306442
0.000237919
0.000165088
0.000128709
0.000114034
0.000105045
9.88677e-05
9.53912e-05
9.40259e-05
9.3562e-05
9.45526e-05
9.64045e-05
9.87283e-05
9.92746e-05
9.9336e-05
0.000100613
0.0001051
0.00011774
0.000142306
0.000217094
0.000316765
0.000318721
0.000270853
0.000190952
0.000139308
0.000118916
0.000108515
0.000101397
9.64275e-05
9.41466e-05
9.31172e-05
9.3219e-05
9.4422e-05
9.64298e-05
9.87455e-05
9.94038e-05
9.9501e-05
0.000100563
0.000104348
0.000115186
0.000134654
0.000186352
0.000300071
0.000331144
0.000297696
0.00022072
0.000155616
0.000125221
0.000112397
0.000104185
9.83909e-05
9.46471e-05
9.31057e-05
9.24083e-05
9.30208e-05
9.43721e-05
9.64402e-05
9.87651e-05
9.94799e-05
9.96515e-05
0.000100587
0.000103753
0.000112863
0.000129938
0.000165799
0.000267804
0.000334794
0.000319194
0.000252567
0.000177289
0.000134239
0.000117004
0.000107457
0.000100704
9.59289e-05
9.33198e-05
9.21977e-05
9.19559e-05
9.2887e-05
9.4416e-05
9.64561e-05
9.87818e-05
9.95407e-05
9.97307e-05
0.000100629
0.000103318
0.000110917
0.000126687
0.00015248
0.000229111
0.000330185
0.000332273
0.000284799
0.000204689
0.000147441
0.000122506
0.000111196
0.000103493
9.78606e-05
9.40191e-05
9.2267e-05
9.14522e-05
9.17162e-05
9.28146e-05
9.44978e-05
9.64913e-05
9.87915e-05
9.96013e-05
9.97713e-05
0.000100609
0.000102992
0.000109374
0.000124065
0.000144231
0.00019781
0.000314704
0.000345834
0.000311523
0.000234796
0.000166206
0.000130411
0.000115406
0.000106648
0.000100266
9.55416e-05
9.26417e-05
9.14189e-05
9.09326e-05
9.16212e-05
9.2837e-05
9.45943e-05
9.65268e-05
9.87939e-05
9.9646e-05
9.98065e-05
0.000100527
0.000102668
0.000108231
0.000121658
0.000139239
0.000176731
0.000283073
0.000350852
0.000333842
0.000266617
0.000189898
0.00014138
0.000120832
0.000110298
0.000103056
9.76215e-05
9.36463e-05
9.16078e-05
9.07529e-05
9.06508e-05
9.16448e-05
9.29393e-05
9.47132e-05
9.65623e-05
9.87948e-05
9.9648e-05
9.98305e-05
0.000100441
0.000102291
0.000107264
0.000119285
0.000135959
0.000162928
0.000244012
0.000347138
0.000348143
0.000299418
0.000218238
0.0001571
0.000127562
0.00011459
0.000106348
0.000100141
9.54273e-05
9.225e-05
9.08484e-05
9.03091e-05
9.05826e-05
9.17886e-05
9.313e-05
9.48412e-05
9.65995e-05
9.88054e-05
9.96005e-05
9.98005e-05
0.000100352
0.000101917
0.000106342
0.000117125
0.000133293
0.000153901
0.000211811
0.000333763
0.000363528
0.000326953
0.00024922
0.0001777
0.000137334
0.000119733
0.000110108
0.000103193
9.77525e-05
9.37309e-05
9.1305e-05
9.03467e-05
9.01253e-05
9.07067e-05
9.20257e-05
9.34235e-05
9.49433e-05
9.6577e-05
9.8807e-05
9.95443e-05
9.96845e-05
0.000100166
0.000101552
0.000105465
0.000115187
0.000130722
0.000148217
0.00018976
0.000304905
0.000371641
0.000351055
0.000281142
0.000203168
0.000150277
0.000126353
0.000114616
0.000106773
0.000100708
9.58997e-05
9.25026e-05
9.07005e-05
9.0133e-05
9.0207e-05
9.09986e-05
9.23337e-05
9.37783e-05
9.50721e-05
9.65126e-05
9.87816e-05
9.94857e-05
9.94964e-05
9.9849e-05
0.0001011
0.000104646
0.000113368
0.000128288
0.000144305
0.000174482
0.000265866
0.000369848
0.000367692
0.000315171
0.000232056
0.000168109
0.000134843
0.000119902
0.000111003
0.000104272
9.87539e-05
9.45481e-05
9.17252e-05
9.04545e-05
9.02153e-05
9.05866e-05
9.14747e-05
9.27584e-05
9.41097e-05
9.51871e-05
9.64804e-05
9.87471e-05
9.94148e-05
9.922e-05
9.94163e-05
0.000100567
0.00010384
0.000111711
0.000125927
0.000141321
0.000164169
0.000230827
0.00036001
0.000384827
0.000344455
0.000263933
0.000190163
0.000146377
0.000126528
0.000115844
0.000108451
0.000102355
9.73524e-05
9.38007e-05
9.14625e-05
9.05687e-05
9.06468e-05
9.12903e-05
9.22442e-05
9.34086e-05
9.44888e-05
9.52793e-05
9.64562e-05
9.87508e-05
9.93377e-05
9.88976e-05
9.89172e-05
0.000100022
0.000103042
0.000110299
0.000123581
0.000138883
0.000156962
0.000206532
0.000336149
0.000399053
0.000370995
0.000296254
0.000216759
0.00016135
0.000134647
0.000121701
0.000113316
0.00010672
0.000101173
9.67925e-05
9.36957e-05
9.16908e-05
9.1141e-05
9.14721e-05
9.22934e-05
9.33536e-05
9.44023e-05
9.51374e-05
9.5636e-05
9.65525e-05
9.89206e-05
9.92386e-05
9.85129e-05
9.83821e-05
9.94507e-05
0.000102273
0.000109015
0.000121497
0.000136462
0.00015197
0.000188906
0.000298939
0.000400432
0.000392773
0.000331391
0.000246248
0.000180353
0.000145201
0.00012851
0.000119053
0.000112027
0.000106016
0.000101014
9.70757e-05
9.42793e-05
9.26043e-05
9.2281e-05
9.2727e-05
9.3612e-05
9.46521e-05
9.53912e-05
9.5798e-05
9.61337e-05
9.69259e-05
9.97753e-05
9.90572e-05
9.91093e-05
9.80896e-05
9.78639e-05
9.88243e-05
0.00010149
0.00010773
0.000119678
0.000133993
0.000148448
0.000176468
0.000259646
0.000394903
0.000411593
0.000364925
0.000278594
0.000203744
0.00015796
0.000136942
0.000125623
0.000118193
0.000112084
0.000106546
0.000102018
9.84428e-05
9.59507e-05
9.44616e-05
9.41147e-05
9.45233e-05
9.53896e-05
9.61743e-05
9.65763e-05
9.65927e-05
9.66784e-05
9.81062e-05
9.73131e-05
9.99396e-05
9.95497e-05
9.89601e-05
9.76931e-05
9.74052e-05
9.81859e-05
0.000100643
0.000106408
0.000117786
0.000131579
0.000145452
0.000167676
0.000230562
0.000378039
0.000431834
0.000394285
0.000312371
0.000230539
0.000174597
0.000146693
0.000133218
0.000125247
0.000119033
0.000113714
0.00010883
0.000104752
0.000101523
9.92409e-05
9.75434e-05
9.68826e-05
9.71612e-05
9.77885e-05
9.83233e-05
9.81759e-05
9.69247e-05
9.7635e-05
9.72124e-05
9.72181e-05
9.74466e-05
9.86721e-05
9.80095e-05
0.000100147
0.000100117
9.88084e-05
9.73398e-05
9.7016e-05
9.75331e-05
9.97368e-05
0.000105064
0.000115739
0.000129115
0.00014286
0.000161158
0.000209479
0.000344989
0.000440957
0.000422506
0.000348604
0.000260962
0.000193872
0.000158717
0.000141956
0.000133025
0.000127137
0.000122135
0.000117933
0.000113953
0.000110316
0.000107174
0.000104601
0.000102233
0.000101125
0.000101111
0.000101091
0.000100973
9.91486e-05
0.000100781
9.82635e-05
9.80057e-05
9.8114e-05
9.82446e-05
9.95988e-05
9.89909e-05
0.000100489
0.000100771
9.8672e-05
9.70323e-05
9.66717e-05
9.6802e-05
9.87944e-05
0.000103694
0.000113626
0.000126476
0.000140182
0.00015608
0.000193861
0.000304068
0.000439238
0.000444925
0.000387216
0.000293513
0.000217954
0.000172143
0.000151898
0.000141579
0.000135977
0.000132238
0.0001293
0.000126873
0.000124292
0.000120887
0.0001171
0.000113123
0.000109415
0.000107056
0.0001054
0.000104249
0.000102381
0.000104131
0.000100133
0.000101943
9.95077e-05
9.89437e-05
9.8973e-05
9.91574e-05
0.000100561
9.99911e-05
0.000100732
0.000101409
9.85679e-05
9.68273e-05
9.63925e-05
9.60348e-05
9.78696e-05
0.000102356
0.000111509
0.000123694
0.000137067
0.000152356
0.000182445
0.000266442
0.000429366
0.000468433
0.000421394
0.000329021
0.000244439
0.000188953
0.000162598
0.000150865
0.000145314
0.000143239
0.000143417
0.000145653
0.000147734
0.000148141
0.000144343
0.000137173
0.00012864
0.000120741
0.000114444
0.000109818
0.000106006
0.000108154
0.000103791
0.000105609
0.000101282
0.000103093
0.000100519
9.99418e-05
9.98847e-05
0.000100161
0.000101374
0.000100984
0.000100964
0.00010206
9.85222e-05
9.67516e-05
9.61153e-05
9.52649e-05
9.69209e-05
0.000101042
0.000109387
0.000120866
0.000133794
0.000149086
0.000173997
0.000240024
0.00040452
0.000488579
0.000454374
0.000366686
0.000274955
0.000208448
0.000174538
0.000160791
0.000154724
0.000154458
0.000159761
0.00017398
0.000199036
0.000226049
0.00023643
0.000228118
0.000204012
0.00017511
0.000148447
0.000126655
0.000110775
0.000114702
0.000107726
0.000109781
0.000105056
0.000107009
0.000102331
0.000104261
0.000101536
0.000100967
0.000100925
0.000101232
0.000102184
0.000102003
0.000101219
0.000102747
9.85666e-05
9.68167e-05
9.59262e-05
9.46105e-05
9.59097e-05
9.96881e-05
0.000107322
0.00011802
0.000130742
0.000145482
0.000167338
0.000220405
0.000365997
0.00049244
0.000483886
0.00040837
0.000308173
0.000231512
0.000188534
0.000170875
0.000164268
0.000165113
0.000176428
0.00021484
0.0003088
0.000459486
0.000619074
0.000690989
0.000616525
0.000488791
0.000354091
0.000236034
0.000123855
0.000147687
0.000112797
0.000119099
0.000108956
0.000111567
0.000106238
0.000108051
0.000103515
0.000105505
0.000102744
0.000102044
0.000102157
0.000102412
0.000103069
0.000103064
0.000101507
0.000103488
9.87679e-05
9.70906e-05
9.58693e-05
9.40658e-05
9.48793e-05
9.82463e-05
0.000105283
0.000115209
0.000127745
0.000141547
0.000162305
0.000205317
0.000324697
0.000488345
0.000509274
0.00045068
0.000344617
0.000258641
0.000204481
0.000181455
0.000173362
0.000174949
0.000191815
0.000262109
0.0004796
0.000962391
0.00160017
0.00213
0.00217028
0.00180167
0.0013256
0.000868966
0.000221777
0.000460897
0.000135642
0.000186192
0.000117006
0.000131541
0.000110523
0.000115688
0.000107276
0.000109744
0.000104803
0.000106594
0.000104136
0.000103196
0.000103631
0.000103729
0.000104024
0.000104173
0.000101841
0.000104281
9.91542e-05
9.76451e-05
9.60115e-05
9.36296e-05
9.37856e-05
9.67495e-05
0.000103225
0.000112525
0.000124707
0.000137904
0.00015852
0.000194184
0.00028737
0.000474383
0.000535623
0.000487581
0.000384734
0.000287976
0.000223983
0.000192748
0.000182122
0.000183314
0.000204799
0.000310519
0.000682236
0.00158401
0.0030207
0.00400286
0.00421582
0.00405302
0.00368658
0.00306631
0.00115143
0.00254555
0.000353182
0.000906075
0.000177003
0.000321086
0.000129734
0.000174867
0.000115142
0.000130563
0.000109218
0.000115392
0.000105951
0.000108876
0.00010535
0.000104465
0.000105054
0.000105309
0.000105058
0.000105345
0.000102263
0.00010515
9.99822e-05
9.84547e-05
9.64639e-05
9.34091e-05
9.29032e-05
9.54257e-05
0.000101347
0.000110035
0.000121642
0.000134609
0.000155213
0.000185798
0.000260901
0.000444461
0.000553488
0.00052373
0.00042808
0.000322414
0.000245614
0.000205901
0.000191054
0.000190385
0.000214069
0.000346008
0.000872015
0.00226087
0.00413991
0.00489071
0.00495483
0.00485343
0.00481065
0.00491699
0.00364217
0.00480712
0.00220492
0.00348522
0.00078945
0.00198538
0.000316573
0.000758378
0.000181543
0.000339541
0.00013458
0.000198948
0.000116463
0.00014242
0.000108681
0.00011824
0.000108407
0.000105935
0.000108184
0.000108164
0.00010613
0.000106651
0.000102782
0.00010613
0.000101558
9.98056e-05
9.72808e-05
9.35827e-05
9.23544e-05
9.43705e-05
9.98407e-05
0.000107853
0.00011866
0.000131435
0.000152098
0.000180028
0.000241499
0.000404452
0.00055478
0.000555236
0.000475891
0.000359477
0.000271729
0.000221163
0.000200684
0.000196778
0.000219569
0.000364658
0.000998521
0.0027721
0.00471462
0.00521874
0.00502681
0.00472916
0.0047308
0.00502669
0.0052345
0.00551595
0.0045787
0.00528567
0.00333224
0.00447076
0.00189954
0.00328484
0.000803425
0.00195779
0.000395743
0.000932544
0.000231781
0.000496959
0.000154214
0.000281029
0.00012023
0.000168678
0.00012116
0.000108247
0.000120838
0.00011887
0.000107214
0.000108424
0.000103422
0.000107108
0.000104204
0.000101957
9.86625e-05
9.42214e-05
9.22806e-05
9.36181e-05
9.85415e-05
0.000106031
0.000115907
0.000128335
0.000149096
0.000176224
0.00022674
0.00036367
0.0005492
0.000583553
0.00052169
0.000400906
0.000301902
0.000239083
0.000211625
0.000203585
0.000222516
0.000366514
0.00105956
0.00306574
0.0049389
0.00520742
0.00475128
0.00430109
0.00431957
0.00464977
0.00515505
0.0055932
0.00554462
0.00529438
0.00568032
0.00447516
0.00534852
0.00337508
0.00459248
0.00217553
0.00362391
0.00115893
0.00256271
0.000649362
0.00151899
0.000343659
0.000839037
0.000182754
0.000411287
0.000189908
0.000115917
0.000188131
0.000176098
0.000108457
0.000113146
0.000104186
0.000107913
0.000109403
0.00010576
0.000100646
9.51519e-05
9.26748e-05
9.33238e-05
9.73739e-05
0.00010443
0.000113425
0.000125509
0.000146231
0.000173484
0.000215431
0.000325247
0.000532063
0.000612294
0.000562715
0.000446997
0.000335728
0.000261366
0.000224739
0.000211843
0.000225254
0.00036287
0.00106318
0.00318204
0.00494991
0.00511938
0.00431565
0.00390236
0.00404268
0.00426297
0.00461312
0.00522892
0.00501805
0.00568816
0.00552296
0.00577878
0.00581702
0.00548008
0.0059185
0.00483598
0.00570537
0.00400322
0.00520559
0.00305511
0.00449939
0.00197176
0.00360635
0.0010527
0.00243492
0.00046796
0.00125076
0.000491005
0.000157188
0.00047956
0.000429471
0.000111058
0.00013734
0.000105017
0.000108749
0.000121305
0.000114207
0.00010402
9.65835e-05
9.34793e-05
9.35093e-05
9.65368e-05
0.000102978
0.000111375
0.000123583
0.000143947
0.000171508
0.000206672
0.000295088
0.000499723
0.000628314
0.000602273
0.000497631
0.000375453
0.000287441
0.000241267
0.000223053
0.000230933
0.000360808
0.00105131
0.00317484
0.00489475
0.00495875
0.00403623
0.00336098
0.00377352
0.00412528
0.00456497
0.00497409
0.00500125
0.00533337
0.00535738
0.0057045
0.00546269
0.00595955
0.00587498
0.00611494
0.00614102
0.00600078
0.00636706
0.00563025
0.00635364
0.00504119
0.00609521
0.00416962
0.00557249
0.00288871
0.00466858
0.00138757
0.00324077
0.00142682
0.000349121
0.00138179
0.00122739
0.000122039
0.000257603
0.000105515
0.000112712
0.000147686
0.000137611
0.000111999
9.89347e-05
9.46762e-05
9.4167e-05
9.62959e-05
0.000101914
0.000110125
0.00012275
0.00014237
0.000170051
0.000199843
0.000273367
0.000459547
0.00062831
0.000637032
0.000552562
0.000418139
0.000319487
0.000261506
0.000237879
0.000242932
0.000368134
0.0010497
0.00314246
0.00479378
0.00483175
0.00388492
0.00291942
0.00313934
0.00394518
0.00467787
0.00510351
0.00537626
0.00546038
0.0056392
0.00579965
0.00601695
0.0056994
0.00570804
0.00606337
0.00603706
0.00638722
0.00637165
0.00666929
0.0067519
0.00675533
0.00711716
0.00658274
0.00728599
0.00607919
0.00714636
0.00509319
0.0065891
0.00343273
0.00543785
0.00346031
0.000983807
0.00335827
0.0030257
0.000178286
0.000696408
0.000105263
0.000131731
0.000158537
0.00018012
0.000135818
0.00010481
9.6522e-05
9.53039e-05
9.68332e-05
0.000101727
0.000110116
0.000122983
0.000141765
0.000169288
0.000195997
0.000256074
0.000417778
0.000621247
0.000667775
0.000602992
0.000466291
0.000355155
0.000286208
0.000257106
0.000262934
0.000399486
0.00108792
0.00313977
0.00472078
0.00473319
0.00388693
0.00282997
0.00241053
0.00317522
0.00431658
0.00533219
0.00589139
0.00594073
0.00629929
0.00648961
0.00667511
0.00702141
0.00611249
0.00632067
0.00641426
0.0065704
0.00680109
0.00691757
0.0073033
0.00747229
0.00774881
0.00811199
0.00795522
0.00858692
0.00778847
0.0087539
0.00708546
0.00844179
0.00571566
0.00754312
0.00585892
0.00249685
0.00587269
0.00558375
0.000412334
0.00184257
0.000108594
0.000213612
0.000182467
0.000177783
0.000124297
0.000100629
9.72926e-05
9.84851e-05
0.000103041
0.000111802
0.000124749
0.000142324
0.000169427
0.000194986
0.000243379
0.000378927
0.000601235
0.0006971
0.000648309
0.000519631
0.000394652
0.000315254
0.000280091
0.000291944
0.000466058
0.00122503
0.0032226
0.00469316
0.00469633
0.00395219
0.00289303
0.00205513
0.0018273
0.00278157
0.00405206
0.00571767
0.00494503
0.00642627
0.00615316
0.00706645
0.00692782
0.00757163
0.00755917
0.00692065
0.00734415
0.00715677
0.00751327
0.00761047
0.00780431
0.00830954
0.00849051
0.00904851
0.00935723
0.00950038
0.0100641
0.0095271
0.010379
0.00899531
0.0101294
0.00789932
0.00939778
0.00806692
0.0049546
0.00805831
0.00779229
0.00109834
0.0039247
0.000127112
0.000504381
0.000172691
0.000165096
0.00011371
0.00010171
0.000102252
0.00010735
0.000116875
0.000129737
0.000145859
0.000170985
0.000195389
0.000235831
0.000348054
0.000567354
0.000710009
0.000689437
0.000578503
0.000439239
0.000347071
0.000306869
0.000326202
0.000563925
0.00147824
0.00348993
0.00470686
0.00470536
0.00412159
0.00314399
0.00201726
0.00107987
0.00125567
0.0020092
0.0039732
0.00281715
0.00538079
0.00430813
0.00661018
0.00611701
0.0073731
0.00695911
0.00788401
0.00767628
0.00777806
0.00790656
0.00800089
0.00807822
0.00855997
0.00853181
0.00949159
0.00946516
0.0104902
0.0106633
0.0110423
0.0116371
0.0110582
0.0119298
0.0104519
0.0114855
0.00957732
0.01057
0.00961976
0.00727643
0.00956298
0.00938554
0.00848996
0.00258467
0.00628874
0.000194365
0.0013544
0.000172812
0.000149303
0.000113971
0.000110365
0.000117369
0.00012639
0.000138027
0.000153329
0.000175191
0.00019857
0.00023298
0.000327108
0.00053002
0.000708727
0.000725022
0.000638737
0.000486812
0.000383031
0.000333804
0.000360574
0.000677245
0.00184133
0.00391333
0.00479612
0.00474564
0.00435622
0.00359368
0.00216401
0.000868136
0.000667907
0.000899612
0.00125516
0.00315085
0.00198777
0.00441731
0.00318244
0.0063384
0.00549485
0.00710418
0.00628061
0.00770365
0.00697492
0.00808327
0.00800995
0.00840429
0.00822641
0.00932489
0.00898975
0.0106397
0.0104767
0.012086
0.0122579
0.0128375
0.0136911
0.0126473
0.0140132
0.0115919
0.0131352
0.0105366
0.0115987
0.0109979
0.0100229
0.0104339
0.00921665
0.00790948
0.00908218
0.00992444
0.0103524
0.0103682
0.0098921
0.00474685
0.00875461
0.00839647
0.0068717
0.000765858
0.00307809
0.000172774
0.00014547
0.000127461
0.000135128
0.000141942
0.000150353
0.000162668
0.000181871
0.000206578
0.000233985
0.000313637
0.000495014
0.000700262
0.000754855
0.000691224
0.000540512
0.000420707
0.000361362
0.000386398
0.000778356
0.00224969
0.00440822
0.00498723
0.00485262
0.00459811
0.00405038
0.00242111
0.0008545
0.000500063
0.000508026
0.000647887
0.00108569
0.000777492
0.00210139
0.00141417
0.00295138
0.00201427
0.0053172
0.00416003
0.00598243
0.0048655
0.00667052
0.00573193
0.0079347
0.00741871
0.00853257
0.00802165
0.0100501
0.00943672
0.0121957
0.0119217
0.0142911
0.0144051
0.0152603
0.0158413
0.0139909
0.0149474
0.0156081
0.0162136
0.0123164
0.013362
0.015273
0.0154792
0.0143252
0.0115484
0.0108225
0.0114381
0.012334
0.010749
0.00982322
0.0096823
0.0103129
0.010627
0.0106822
0.0102964
0.00780961
0.00533715
0.00711363
0.0094647
0.0091088
0.00167462
0.00625952
0.0053271
0.00378276
0.000187817
0.000162431
0.000163471
0.000165065
0.000168178
0.000177887
0.000193118
0.000216156
0.000239469
0.000307423
0.000465243
0.000679632
0.000781631
0.000736853
0.000599302
0.000461792
0.000389448
0.000405601
0.000817302
0.0026062
0.0049082
0.00523766
0.00503554
0.00483742
0.00442994
0.00266254
0.000883277
0.00047318
0.000400038
0.000439052
0.000569054
0.0010013
0.000804287
0.00148302
0.00120724
0.00195593
0.00154928
0.00369826
0.00268638
0.0046923
0.00366776
0.0059662
0.00511248
0.00742715
0.00674144
0.00874602
0.00802681
0.011347
0.0106016
0.0141125
0.0135515
0.0157119
0.0152723
0.0163065
0.016364
0.0162448
0.0160525
0.0160247
0.0163899
0.0165013
0.0133481
0.0144584
0.0161291
0.0160866
0.0154577
0.0122344
0.0112743
0.0120691
0.0132901
0.011141
0.0102606
0.0101812
0.0106027
0.0110154
0.0109215
0.0105978
0.00859024
0.00787472
0.0100192
0.00971912
0.00454519
0.00109619
0.00301328
0.00700251
0.00603255
0.000216032
0.000222215
0.000214196
0.000202296
0.000201196
0.000210068
0.000232688
0.00025566
0.000307812
0.000444676
0.000649027
0.000790987
0.000776133
0.000663652
0.000507782
0.000418931
0.000421192
0.000814129
0.00278701
0.00539649
0.00554664
0.00524162
0.00506859
0.00473101
0.00280646
0.000954475
0.000479416
0.000382617
0.000373731
0.000422978
0.000748016
0.000569315
0.00108663
0.00091074
0.00134182
0.00121418
0.00172325
0.00155508
0.00277646
0.00212554
0.0041913
0.00331614
0.00577128
0.00498299
0.00730029
0.00654668
0.00975981
0.00887691
0.0127816
0.0119715
0.0146165
0.013858
0.015806
0.015513
0.0152146
0.0148565
0.0164269
0.0162195
0.015932
0.0156262
0.0164393
0.0164676
0.0162581
0.0144253
0.0154163
0.0163266
0.0161142
0.0159587
0.0131302
0.0118693
0.0128978
0.0142959
0.0116596
0.0105943
0.0105596
0.0108711
0.0114583
0.0112963
0.0108579
0.00923802
0.00855318
0.0104494
0.0102122
0.00472391
0.000431257
0.00237687
0.00769279
0.00664629
0.000329886
0.000345799
0.000292278
0.000254519
0.000243297
0.00025468
0.000280932
0.000315355
0.000437317
0.000619727
0.000788689
0.000808671
0.000725404
0.000557178
0.000451633
0.000434156
0.000789758
0.00279613
0.00583705
0.00591707
0.00548497
0.00531158
0.00494266
0.00286458
0.00103005
0.000510371
0.000387405
0.000362027
0.000369387
0.000460171
0.000909739
0.000690488
0.00142177
0.00118487
0.00154021
0.00151541
0.00205037
0.00206044
0.00259435
0.00219423
0.00418287
0.00357112
0.00639
0.00566216
0.008008
0.00717492
0.0111626
0.0103504
0.0130115
0.012235
0.0145481
0.0141376
0.0137821
0.0133271
0.0153603
0.0151394
0.0149484
0.0147168
0.0159082
0.0155567
0.0152762
0.0151392
0.0162447
0.0158788
0.0154353
0.0152853
0.0157889
0.0158798
0.0154837
0.0158611
0.0140709
0.0126254
0.0137782
0.0150862
0.0123315
0.0108627
0.0108508
0.0111854
0.0120416
0.0117859
0.0111289
0.00980047
0.00919405
0.010784
0.0106269
0.00486953
0.0003378
0.0018279
0.00840157
0.00722897
0.00062257
0.000582578
0.000421962
0.000324203
0.000299608
0.000310326
0.000336147
0.0004383
0.000600351
0.000779289
0.000833379
0.000775909
0.000615435
0.000485638
0.000449051
0.000725346
0.00271918
0.00617795
0.00636175
0.00574884
0.00556011
0.00508515
0.00287008
0.00110928
0.000571824
0.000411254
0.000366177
0.000356891
0.000379267
0.000594769
0.000469162
0.00109873
0.000773901
0.00190955
0.00153019
0.00207019
0.00204172
0.00285121
0.00282061
0.00316661
0.00293671
0.00504975
0.004582
0.00800412
0.00730478
0.00955097
0.00875201
0.0115324
0.0108815
0.012671
0.0119062
0.0144327
0.0140825
0.0136961
0.013279
0.015102
0.0150427
0.0149398
0.01477
0.0150597
0.014891
0.0149262
0.0150367
0.0153906
0.014882
0.0145584
0.0155754
0.0155909
0.014888
0.0144469
0.0151211
0.01482
0.0134434
0.0144992
0.0153408
0.0130808
0.0111076
0.0110955
0.0115821
0.0127113
0.0123587
0.0114452
0.010333
0.00986281
0.0110721
0.0110125
0.00490072
0.000207427
0.00130745
0.00915121
0.00776659
0.00120484
0.000998269
0.000587709
0.000405545
0.000367186
0.000372677
0.000445595
0.000592042
0.000765164
0.00085265
0.000815447
0.00067721
0.000524206
0.000465711
0.000639099
0.00249156
0.00635443
0.00685767
0.00603389
0.00577968
0.00518459
0.00286785
0.00121053
0.000652459
0.000461237
0.000386582
0.000359626
0.000355885
0.000398872
0.000593484
0.000477968
0.00116483
0.000798978
0.0023488
0.00171656
0.00277967
0.00268602
0.00383557
0.00373254
0.00424444
0.00399947
0.00669419
0.00621071
0.00934625
0.00884907
0.0103299
0.00983038
0.0112771
0.010718
0.0128376
0.0123514
0.0115782
0.0119678
0.0145127
0.0141648
0.0137431
0.013285
0.0151628
0.0152639
0.0152584
0.0151202
0.0145333
0.0146943
0.0149765
0.0153367
0.0143509
0.0141295
0.0141888
0.0153464
0.0148283
0.0139131
0.0135993
0.0141099
0.0150771
0.014148
0.0147989
0.015123
0.0137599
0.0113621
0.011333
0.0120553
0.0133476
0.0129373
0.0118145
0.0108833
0.0105891
0.0113618
0.0114264
0.00474582
0.000145153
0.000910767
0.00992288
0.00824785
0.00196257
0.0014583
0.00073419
0.000487619
0.000439266
0.000468846
0.000591703
0.000753086
0.0008658
0.000847317
0.000739049
0.000567317
0.000484072
0.000581028
0.00203926
0.0063528
0.00737138
0.00636801
0.00596553
0.00525228
0.00289517
0.00134482
0.000768492
0.00053128
0.000428095
0.000375991
0.000351088
0.000356268
0.000425529
0.000383093
0.000589841
0.000477569
0.00116448
0.000792322
0.00251051
0.00176003
0.00357891
0.00321526
0.00499702
0.00458954
0.00579371
0.00538082
0.00829855
0.00768316
0.00947462
0.00896762
0.0103114
0.00989683
0.0112535
0.0109298
0.0104116
0.0129006
0.0124639
0.0117064
0.0120717
0.0148287
0.0144174
0.013914
0.013386
0.0156565
0.0158219
0.0158072
0.015588
0.0144774
0.0149336
0.0154864
0.0160011
0.0137617
0.013886
0.014272
0.0146265
0.0138987
0.0134723
0.0132686
0.013393
0.0149078
0.0145086
0.0147019
0.0145117
0.0141915
0.011645
0.0116
0.0125582
0.0138369
0.0134484
0.0122096
0.0114716
0.0113556
0.0117013
0.0119037
0.00431525
0.000119098
0.000661055
0.010736
0.00861488
0.00267151
0.00178531
0.000828239
0.000564715
0.000524964
0.000601892
0.000747007
0.000869197
0.000877953
0.000795235
0.00061194
0.000502298
0.000547991
0.00154462
0.00610338
0.00789846
0.00676882
0.00617364
0.00536336
0.00299483
0.00152315
0.000920312
0.00063123
0.000488579
0.000399758
0.000350934
0.000340014
0.000350948
0.000412662
0.000374621
0.000562026
0.000469373
0.00105103
0.000732318
0.00247906
0.00162693
0.00404025
0.00336652
0.00565187
0.00491033
0.00703435
0.00635213
0.00834322
0.00760708
0.00795185
0.0069994
0.0096134
0.00878068
0.0113574
0.0109918
0.0107307
0.010185
0.0129584
0.0125912
0.0119808
0.0122797
0.0151614
0.0145705
0.0139703
0.013422
0.0163576
0.0164375
0.0163197
0.0158698
0.0148806
0.015565
0.0162137
0.0167256
0.0136297
0.0141012
0.0147893
0.0137985
0.0132862
0.0134309
0.0132993
0.0131525
0.0144515
0.0144837
0.0144099
0.0138112
0.0142775
0.0119676
0.0119362
0.0130166
0.0140569
0.0138001
0.012603
0.0121041
0.0121343
0.01213
0.0124466
0.00398047
0.00011034
0.000554989
0.0115583
0.00905412
0.00319141
0.00190403
0.000875973
0.000636155
0.000639454
0.000750952
0.000870079
0.00089821
0.000844998
0.000672448
0.000521755
0.000530993
0.00115253
0.00526706
0.00835193
0.00722025
0.00645338
0.00560734
0.00325323
0.00174612
0.00111484
0.000774824
0.000568287
0.000427352
0.000358182
0.000338018
0.000329296
0.000353642
0.000335449
0.000399547
0.000370081
0.000515425
0.00044304
0.000842511
0.000633347
0.00194067
0.00123025
0.00406675
0.00299013
0.00493602
0.00383312
0.00678631
0.0059073
0.00599926
0.00501495
0.0067009
0.0054341
0.00961785
0.00898996
0.00806788
0.0116504
0.0112479
0.0109917
0.0103824
0.012948
0.0126995
0.0122902
0.0125079
0.0152375
0.0145297
0.0138546
0.013315
0.0169334
0.016857
0.0165124
0.0158778
0.0155401
0.0162508
0.016839
0.0171838
0.0139433
0.0146564
0.0154215
0.0132912
0.0131454
0.0138052
0.0137084
0.0132595
0.0138953
0.0143204
0.0140082
0.0133914
0.0142123
0.0123523
0.0123955
0.013399
0.0141194
0.0139969
0.012996
0.0127528
0.0128874
0.0126506
0.0130114
0.00400449
0.000109691
0.000627652
0.0123705
0.00977045
0.00347418
0.00183038
0.000890109
0.000721493
0.000772179
0.000876969
0.000910835
0.00087816
0.00074345
0.000558166
0.000523502
0.00087708
0.00409634
0.0085035
0.00776635
0.00682274
0.00605509
0.00384633
0.00211444
0.00134859
0.000964122
0.000692586
0.000467213
0.000377223
0.000342002
0.000317479
0.000313002
0.000344262
0.000325745
0.000387816
0.00036433
0.000470042
0.000421765
0.000663451
0.000546372
0.0011594
0.000848073
0.00266744
0.00173668
0.00241805
0.00177462
0.00407495
0.00320446
0.00424682
0.00326283
0.00689802
0.00611902
0.00524859
0.00972658
0.00906036
0.0075934
0.0083825
0.0119876
0.0115547
0.0111645
0.0105303
0.0127784
0.0127013
0.0124479
0.0126128
0.0150497
0.0141601
0.0134261
0.0129724
0.0172375
0.0169758
0.0164537
0.0156629
0.0161263
0.0167129
0.017138
0.0173589
0.0145003
0.0152266
0.0158802
0.0132335
0.0132812
0.0143483
0.0142432
0.0136636
0.0135645
0.0140987
0.0137836
0.0133918
0.014151
0.0128783
0.0129871
0.013688
0.0141753
0.0141526
0.0135266
0.0133491
0.0135468
0.0132198
0.013533
0.00478113
0.000133783
0.00130439
0.013091
0.0109319
0.00351319
0.0016483
0.000905966
0.000823384
0.000900966
0.000935943
0.000897413
0.000801141
0.000614553
0.00052315
0.000702216
0.00292653
0.0083901
0.00852139
0.00726218
0.00660807
0.00479005