/*--------------------------------*- C++ -*----------------------------------*\
  =========                 |
  \\      /  F ield         | OpenFOAM: The Open Source CFD Toolbox
   \\    /   O peration     | Website:  https://openfoam.org
    \\  /    A nd           | Version:  dev
     \\/     M anipulation  |
\*---------------------------------------------------------------------------*/
FoamFile
{
    version     2.0;
    format      ascii;
    class       volScalarField;
    location    "2500";
    object      N2;
}
// * * * * * * * * * * * * * * * * * * * * * * * * * * * * * * * * * * * * * //

dimensions      [0 0 0 0 0 0 0];

internalField   nonuniform List<scalar> 
9842
(
0.76699
0.76699
0.76699
0.76699
0.76699
0.76699
0.76699
0.76699
0.76699
0.76699
0.76699
0.76699
0.76699
0.76699
0.76699
0.76699
0.76699
0.76699
0.76699
0.76699
0.76699
0.76699
0.76699
0.76699
0.76699
0.76699
0.76699
0.76699
0.76699
0.76699
0.76699
0.76699
0.76699
0.76699
0.76699
0.76699
0.76699
0.76699
0.76699
0.76699
0.76699
0.76699
0.76699
0.76699
0.76699
0.76699
0.76699
0.76699
0.76699
0.76699
0.76699
0.76699
0.76699
0.76699
0.76699
0.76699
0.76699
0.76699
0.76699
0.76699
0.76699
0.76699
0.76699
0.76699
0.76699
0.76699
0.76699
0.76699
0.76699
0.76699
0.76699
0.76699
0.76699
0.76699
0.76699
0.76699
0.76699
0.76699
0.76699
0.76699
0.76699
0.76699
0.76699
0.76699
0.76699
0.76699
0.76699
0.76699
0.76699
0.76699
0.76699
0.76699
0.76699
0.76699
0.76699
0.76699
0.76699
0.76699
0.76699
0.76699
0.76699
0.76699
0.76699
0.76699
0.76699
0.76699
0.76699
0.76699
0.76699
0.76699
0.76699
0.76699
0.76699
0.76699
0.76699
0.76699
0.76699
0.76699
0.76699
0.76699
0.76699
0.76699
0.76699
0.76699
0.76699
0.76699
0.76699
0.76699
0.76699
0.76699
0.76699
0.76699
0.76699
0.76699
0.76699
0.76699
0.76699
0.76699
0.76699
0.76699
0.76699
0.76699
0.76699
0.76699
0.76699
0.76699
0.76699
0.76699
0.76699
0.76699
0.76699
0.76699
0.76699
0.76699
0.76699
0.76699
0.76699
0.76699
0.76699
0.76699
0.76699
0.76699
0.76699
0.76699
0.76699
0.76699
0.76699
0.76699
0.76699
0.76699
0.76699
0.76699
0.76699
0.76699
0.76699
0.76699
0.76699
0.76699
0.76699
0.76699
0.76699
0.76699
0.76699
0.76699
0.76699
0.76699
0.76699
0.76699
0.76699
0.76699
0.76699
0.76699
0.76699
0.76699
0.76699
0.76699
0.76699
0.76699
0.76699
0.76699
0.76699
0.76699
0.76699
0.76699
0.76699
0.76699
0.76699
0.76699
0.76699
0.76699
0.76699
0.76699
0.76699
0.76699
0.76699
0.76699
0.76699
0.76699
0.76699
0.76699
0.76699
0.76699
0.76699
0.76699
0.76699
0.76699
0.76699
0.76699
0.76699
0.76699
0.76699
0.76699
0.76699
0.76699
0.76699
0.76699
0.76699
0.76699
0.76699
0.76699
0.76699
0.76699
0.76699
0.76699
0.76699
0.76699
0.76699
0.76699
0.76699
0.76699
0.76699
0.76699
0.76699
0.76699
0.76699
0.76699
0.76699
0.76699
0.76699
0.76699
0.76699
0.76699
0.76699
0.76699
0.76699
0.76699
0.76699
0.76699
0.76699
0.76699
0.76699
0.76699
0.76699
0.76699
0.76699
0.76699
0.76699
0.76699
0.76699
0.76699
0.76699
0.76699
0.76699
0.76699
0.76699
0.76699
0.76699
0.76699
0.76699
0.76699
0.76699
0.76699
0.76699
0.76699
0.76699
0.76699
0.76699
0.76699
0.76699
0.76699
0.76699
0.76699
0.76699
0.76699
0.76699
0.76699
0.76699
0.76699
0.76699
0.76699
0.76699
0.76699
0.76699
0.76699
0.76699
0.76699
0.76699
0.76699
0.76699
0.76699
0.76699
0.76699
0.76699
0.76699
0.76699
0.76699
0.76699
0.76699
0.76699
0.76699
0.76699
0.76699
0.76699
0.76699
0.76699
0.76699
0.76699
0.76699
0.76699
0.76699
0.76699
0.76699
0.76699
0.76699
0.76699
0.76699
0.76699
0.76699
0.76699
0.76699
0.76699
0.76699
0.76699
0.76699
0.76699
0.76699
0.76699
0.76699
0.76699
0.76699
0.76699
0.76699
0.76699
0.76699
0.76699
0.76699
0.76699
0.76699
0.76699
0.76699
0.76699
0.76699
0.76699
0.76699
0.76699
0.76699
0.76699
0.76699
0.76699
0.76699
0.76699
0.76699
0.76699
0.76699
0.76699
0.76699
0.76699
0.76699
0.76699
0.76699
0.76699
0.76699
0.76699
0.76699
0.76699
0.76699
0.76699
0.76699
0.76699
0.76699
0.76699
0.76699
0.76699
0.76699
0.76699
0.76699
0.76699
0.76699
0.76699
0.76699
0.76699
0.76699
0.76699
0.76699
0.76699
0.76699
0.76699
0.76699
0.76699
0.76699
0.76699
0.76699
0.76699
0.76699
0.76699
0.76699
0.76699
0.76699
0.76699
0.76699
0.76699
0.76699
0.76699
0.76699
0.76699
0.76699
0.76699
0.76699
0.76699
0.76699
0.76699
0.76699
0.76699
0.76699
0.76699
0.76699
0.76699
0.76699
0.76699
0.76699
0.76699
0.76699
0.76699
0.76699
0.76699
0.76699
0.76699
0.76699
0.76699
0.76699
0.76699
0.76699
0.76699
0.76699
0.76699
0.76699
0.76699
0.76699
0.76699
0.76699
0.76699
0.76699
0.76699
0.76699
0.76699
0.76699
0.76699
0.76699
0.76699
0.76699
0.76699
0.76699
0.76699
0.76699
0.76699
0.76699
0.76699
0.76699
0.76699
0.76699
0.76699
0.76699
0.76699
0.76699
0.76699
0.76699
0.76699
0.76699
0.76699
0.76699
0.76699
0.76699
0.76699
0.76699
0.76699
0.76699
0.76699
0.76699
0.76699
0.76699
0.76699
0.76699
0.76699
0.76699
0.76699
0.76699
0.76699
0.76699
0.76699
0.76699
0.76699
0.76699
0.76699
0.76699
0.76699
0.76699
0.76699
0.76699
0.76699
0.76699
0.76699
0.76699
0.76699
0.76699
0.76699
0.76699
0.76699
0.76699
0.76699
0.76699
0.76699
0.76699
0.76699
0.76699
0.76699
0.76699
0.76699
0.76699
0.76699
0.76699
0.76699
0.76699
0.76699
0.76699
0.76699
0.76699
0.76699
0.76699
0.76699
0.76699
0.76699
0.76699
0.76699
0.76699
0.76699
0.76699
0.76699
0.76699
0.76699
0.76699
0.76699
0.76699
0.76699
0.76699
0.76699
0.76699
0.76699
0.76699
0.76699
0.76699
0.76699
0.76699
0.76699
0.76699
0.76699
0.76699
0.76699
0.76699
0.76699
0.76699
0.76699
0.76699
0.76699
0.76699
0.76699
0.76699
0.76699
0.76699
0.76699
0.76699
0.76699
0.76699
0.76699
0.76699
0.76699
0.76699
0.76699
0.76699
0.76699
0.76699
0.76699
0.76699
0.76699
0.76699
0.76699
0.76699
0.76699
0.76699
0.76699
0.76699
0.76699
0.76699
0.76699
0.76699
0.76699
0.76699
0.76699
0.76699
0.76699
0.76699
0.76699
0.76699
0.76699
0.76699
0.76699
0.76699
0.76699
0.76699
0.76699
0.76699
0.76699
0.76699
0.76699
0.76699
0.76699
0.76699
0.76699
0.76699
0.76699
0.76699
0.76699
0.76699
0.76699
0.76699
0.76699
0.76699
0.76699
0.76699
0.76699
0.76699
0.76699
0.76699
0.76699
0.76699
0.76699
0.76699
0.76699
0.76699
0.76699
0.76699
0.76699
0.76699
0.76699
0.76699
0.76699
0.76699
0.76699
0.76699
0.76699
0.76699
0.76699
0.76699
0.76699
0.76699
0.76699
0.76699
0.76699
0.76699
0.76699
0.76699
0.76699
0.76699
0.76699
0.76699
0.76699
0.76699
0.76699
0.76699
0.76699
0.76699
0.76699
0.76699
0.76699
0.76699
0.76699
0.76699
0.76699
0.76699
0.76699
0.76699
0.76699
0.76699
0.76699
0.76699
0.76699
0.76699
0.76699
0.76699
0.76699
0.76699
0.76699
0.76699
0.76699
0.76699
0.76699
0.76699
0.76699
0.76699
0.76699
0.76699
0.76699
0.76699
0.76699
0.76699
0.76699
0.76699
0.76699
0.76699
0.76699
0.76699
0.76699
0.76699
0.76699
0.76699
0.76699
0.76699
0.76699
0.76699
0.76699
0.76699
0.76699
0.76699
0.76699
0.76699
0.76699
0.76699
0.76699
0.76699
0.76699
0.76699
0.76699
0.76699
0.76699
0.76699
0.76699
0.76699
0.76699
0.76699
0.76699
0.76699
0.76699
0.76699
0.76699
0.76699
0.76699
0.76699
0.76699
0.76699
0.76699
0.76699
0.76699
0.76699
0.76699
0.76699
0.76699
0.766989
0.766989
0.766989
0.766989
0.766989
0.76699
0.76699
0.76699
0.76699
0.76699
0.76699
0.76699
0.76699
0.76699
0.76699
0.76699
0.76699
0.76699
0.76699
0.76699
0.76699
0.76699
0.76699
0.76699
0.76699
0.76699
0.76699
0.76699
0.76699
0.76699
0.76699
0.76699
0.76699
0.76699
0.76699
0.76699
0.76699
0.76699
0.76699
0.76699
0.76699
0.76699
0.76699
0.76699
0.766989
0.766988
0.766986
0.766984
0.766983
0.766984
0.766985
0.766987
0.766989
0.76699
0.76699
0.76699
0.76699
0.76699
0.76699
0.76699
0.76699
0.76699
0.76699
0.76699
0.76699
0.76699
0.76699
0.76699
0.76699
0.76699
0.76699
0.76699
0.76699
0.76699
0.76699
0.76699
0.76699
0.76699
0.76699
0.76699
0.76699
0.76699
0.76699
0.76699
0.76699
0.76699
0.76699
0.76699
0.76699
0.76699
0.76699
0.76699
0.766988
0.766984
0.766974
0.766962
0.766954
0.766954
0.766961
0.76697
0.76698
0.766989
0.766987
0.76699
0.76699
0.76699
0.76699
0.76699
0.76699
0.76699
0.76699
0.76699
0.76699
0.76699
0.76699
0.76699
0.76699
0.76699
0.76699
0.76699
0.76699
0.76699
0.76699
0.76699
0.76699
0.76699
0.76699
0.76699
0.76699
0.76699
0.76699
0.76699
0.76699
0.76699
0.76699
0.76699
0.76699
0.76699
0.76699
0.76699
0.76699
0.76699
0.766987
0.766977
0.76695
0.766906
0.766865
0.766853
0.766872
0.766901
0.76693
0.766981
0.766962
0.766988
0.766985
0.76699
0.766989
0.76699
0.76699
0.76699
0.76699
0.76699
0.76699
0.76699
0.76699
0.76699
0.76699
0.76699
0.76699
0.76699
0.76699
0.76699
0.76699
0.76699
0.76699
0.76699
0.76699
0.76699
0.76699
0.76699
0.76699
0.76699
0.76699
0.76699
0.76699
0.76699
0.76699
0.76699
0.76699
0.76699
0.76699
0.76699
0.76699
0.766989
0.766986
0.766969
0.766921
0.766833
0.766732
0.766671
0.766669
0.766726
0.766781
0.766913
0.766818
0.766973
0.766936
0.766986
0.766976
0.766989
0.766986
0.76699
0.766989
0.76699
0.76699
0.76699
0.76699
0.76699
0.76699
0.76699
0.76699
0.76699
0.76699
0.76699
0.76699
0.76699
0.76699
0.76699
0.76699
0.76699
0.76699
0.76699
0.76699
0.76699
0.76699
0.76699
0.76699
0.76699
0.76699
0.76699
0.76699
0.76699
0.76699
0.76699
0.76699
0.76699
0.76699
0.766989
0.766985
0.766962
0.766891
0.766765
0.76661
0.766483
0.76643
0.766466
0.766559
0.766725
0.766595
0.766854
0.766751
0.766947
0.766876
0.766977
0.766951
0.766986
0.766976
0.766988
0.766984
0.766989
0.766988
0.76699
0.766989
0.76699
0.76699
0.76699
0.76699
0.76699
0.76699
0.76699
0.76699
0.76699
0.76699
0.76699
0.76699
0.76699
0.76699
0.76699
0.76699
0.76699
0.76699
0.76699
0.76699
0.76699
0.76699
0.76699
0.76699
0.76699
0.76699
0.76699
0.76699
0.76699
0.76699
0.766989
0.766984
0.766958
0.766871
0.766705
0.766516
0.76634
0.766218
0.766185
0.766256
0.766477
0.766338
0.766635
0.7665
0.766775
0.766658
0.766886
0.766786
0.766949
0.766883
0.766972
0.76694
0.766982
0.766965
0.766986
0.766977
0.766989
0.766985
0.766989
0.76699
0.766989
0.766989
0.76699
0.76699
0.76699
0.76699
0.76699
0.76699
0.76699
0.76699
0.76699
0.76699
0.76699
0.76699
0.76699
0.76699
0.76699
0.76699
0.76699
0.76699
0.76699
0.76699
0.76699
0.76699
0.76699
0.76699
0.76699
0.76699
0.766989
0.766984
0.766957
0.76686
0.766669
0.766444
0.766258
0.766104
0.765999
0.765976
0.766028
0.766364
0.766181
0.766525
0.766376
0.766667
0.766532
0.76678
0.766657
0.766866
0.766755
0.766922
0.766831
0.766952
0.766892
0.766971
0.766933
0.766983
0.766963
0.766982
0.766989
0.766981
0.766982
0.76699
0.766989
0.76699
0.76699
0.76699
0.76699
0.76699
0.76699
0.76699
0.76699
0.76699
0.76699
0.76699
0.76699
0.76699
0.76699
0.76699
0.76699
0.76699
0.76699
0.76699
0.76699
0.76699
0.76699
0.76699
0.76699
0.766989
0.766985
0.766957
0.76686
0.766657
0.766453
0.766272
0.766104
0.765963
0.765848
0.765783
0.765916
0.765765
0.766215
0.766048
0.766381
0.766215
0.766517
0.766363
0.766623
0.766476
0.766706
0.766562
0.766774
0.76663
0.766845
0.766699
0.766908
0.766787
0.766955
0.766881
0.76695
0.766984
0.766949
0.766952
0.76699
0.766986
0.76699
0.76699
0.76699
0.76699
0.76699
0.76699
0.76699
0.76699
0.76699
0.76699
0.76699
0.76699
0.76699
0.76699
0.76699
0.76699
0.76699
0.76699
0.76699
0.76699
0.76699
0.76699
0.76699
0.76699
0.766989
0.766985
0.766959
0.766863
0.766665
0.766499
0.76637
0.766197
0.766017
0.765848
0.765717
0.765692
0.765655
0.765744
0.765664
0.766044
0.765884
0.766196
0.766021
0.766318
0.766149
0.766405
0.76624
0.76647
0.766301
0.766528
0.766349
0.766604
0.766406
0.766721
0.766502
0.766857
0.766657
0.766842
0.766961
0.766838
0.766851
0.766988
0.766971
0.76699
0.766989
0.76699
0.76699
0.76699
0.76699
0.76699
0.76699
0.76699
0.76699
0.76699
0.76699
0.76699
0.76699
0.76699
0.76699
0.76699
0.76699
0.76699
0.76699
0.76699
0.76699
0.76699
0.76699
0.766989
0.766985
0.766959
0.766867
0.76668
0.76655
0.766475
0.766405
0.766245
0.76598
0.765783
0.765656
0.76568
0.765636
0.765638
0.765644
0.76562
0.765856
0.765718
0.765978
0.765815
0.766071
0.765905
0.766129
0.765961
0.766167
0.76599
0.766205
0.766012
0.766273
0.766053
0.7664
0.766143
0.766605
0.766309
0.766577
0.766879
0.766574
0.766607
0.766981
0.766914
0.76699
0.766987
0.76699
0.76699
0.76699
0.76699
0.76699
0.76699
0.76699
0.76699
0.76699
0.76699
0.76699
0.76699
0.76699
0.76699
0.76699
0.76699
0.76699
0.76699
0.76699
0.76699
0.76699
0.76699
0.766989
0.766984
0.766958
0.766868
0.766693
0.766585
0.766545
0.766566
0.766582
0.766413
0.766056
0.765828
0.765655
0.765722
0.765624
0.765645
0.7656
0.765609
0.765685
0.765617
0.765755
0.765641
0.765806
0.765673
0.765826
0.765684
0.765833
0.765677
0.765849
0.765672
0.765905
0.765695
0.766028
0.765775
0.76624
0.765933
0.766202
0.766674
0.766198
0.76624
0.766951
0.76676
0.766989
0.766977
0.76699
0.76699
0.76699
0.76699
0.76699
0.76699
0.76699
0.76699
0.76699
0.76699
0.76699
0.76699
0.76699
0.76699
0.76699
0.76699
0.76699
0.76699
0.76699
0.76699
0.76699
0.766989
0.766983
0.766954
0.766866
0.766701
0.766608
0.766588
0.766664
0.766788
0.766766
0.766567
0.766258
0.765924
0.766143
0.765699
0.765808
0.765641
0.765713
0.765586
0.765633
0.765579
0.76557
0.765578
0.765527
0.765572
0.765497
0.76555
0.765457
0.765525
0.765409
0.765518
0.765372
0.765558
0.765374
0.765669
0.76544
0.765871
0.765587
0.765843
0.766334
0.765852
0.765904
0.76686
0.76648
0.766987
0.766941
0.76699
0.76699
0.76699
0.76699
0.76699
0.76699
0.76699
0.76699
0.76699
0.76699
0.76699
0.76699
0.76699
0.76699
0.76699
0.76699
0.76699
0.76699
0.76699
0.76699
0.766989
0.766981
0.766948
0.766858
0.766703
0.766622
0.766614
0.766714
0.766873
0.76691
0.766854
0.766711
0.766338
0.766604
0.766126
0.766334
0.76582
0.765953
0.76573
0.76585
0.765613
0.765731
0.765523
0.765548
0.765461
0.765462
0.765399
0.765376
0.765328
0.765283
0.765269
0.765209
0.765233
0.765162
0.765251
0.765125
0.765346
0.765136
0.765536
0.765266
0.765516
0.766001
0.765529
0.765565
0.765773
0.766669
0.766166
0.766979
0.766849
0.76699
0.76699
0.76699
0.76699
0.76699
0.76699
0.76699
0.76699
0.76699
0.76699
0.76699
0.76699
0.76699
0.76699
0.76699
0.76699
0.76699
0.76699
0.76699
0.766989
0.766979
0.76694
0.766846
0.766702
0.76663
0.766629
0.766736
0.7669
0.766956
0.766953
0.766914
0.766871
0.766564
0.766763
0.766342
0.766556
0.765988
0.766149
0.765871
0.766023
0.765692
0.765851
0.765489
0.765562
0.76538
0.765406
0.76527
0.765276
0.765182
0.765177
0.765134
0.765131
0.76509
0.765095
0.765038
0.76504
0.76505
0.764967
0.765213
0.764985
0.765097
0.765356
0.765188
0.765613
0.765898
0.765662
0.765387
0.765191
0.765193
0.76541
0.766402
0.765743
0.765828
0.766087
0.766928
0.76666
0.76699
0.76699
0.76699
0.76699
0.76699
0.76699
0.76699
0.76699
0.76699
0.76699
0.76699
0.76699
0.76699
0.76699
0.76699
0.76699
0.76699
0.76699
0.766989
0.766979
0.766932
0.766832
0.766697
0.766636
0.76664
0.766749
0.766909
0.766968
0.766979
0.766971
0.766949
0.766889
0.766922
0.76673
0.766833
0.766559
0.766704
0.766189
0.766372
0.766025
0.766206
0.765736
0.765916
0.765472
0.765584
0.7653
0.765358
0.765184
0.765202
0.765135
0.765145
0.765107
0.765124
0.765071
0.76512
0.764984
0.765009
0.765046
0.765098
0.764924
0.764906
0.764998
0.764984
0.764928
0.764961
0.765053
0.764922
0.764882
0.765035
0.765455
0.765516
0.765217
0.765035
0.765029
0.765249
0.765943
0.766332
0.766064
0.765595
0.765692
0.766854
0.766205
0.766363
0.766611
0.76699
0.76699
0.76699
0.76699
0.76699
0.76699
0.76699
0.76699
0.76699
0.76699
0.76699
0.76699
0.76699
0.76699
0.76699
0.76699
0.76699
0.766989
0.766979
0.766927
0.766817
0.766693
0.766641
0.76665
0.766761
0.766913
0.766972
0.766986
0.766985
0.766977
0.766943
0.766867
0.766881
0.766796
0.766846
0.766661
0.766746
0.76638
0.766538
0.766108
0.766293
0.76574
0.765924
0.765453
0.76558
0.76524
0.765301
0.765162
0.765186
0.765139
0.765154
0.765147
0.765147
0.765138
0.76517
0.76517
0.765161
0.76505
0.765111
0.765162
0.764868
0.764897
0.765056
0.765054
0.764964
0.764846
0.764905
0.764816
0.764832
0.764887
0.765297
0.765363
0.765053
0.764878
0.764879
0.765085
0.765808
0.765942
0.765448
0.765553
0.766543
0.766931
0.766781
0.766098
0.766283
0.76699
0.76699
0.76699
0.76699
0.76699
0.76699
0.76699
0.76699
0.76699
0.76699
0.76699
0.76699
0.76699
0.76699
0.76699
0.76699
0.766989
0.76698
0.766927
0.766809
0.766689
0.766646
0.766663
0.766778
0.766919
0.766973
0.766987
0.766989
0.766987
0.766975
0.766858
0.766924
0.766774
0.766799
0.766778
0.766774
0.766665
0.766668
0.766457
0.766586
0.766117
0.766295
0.765656
0.765825
0.765389
0.765508
0.765223
0.765271
0.765172
0.765202
0.765142
0.765148
0.765142
0.765112
0.765078
0.765046
0.765183
0.76518
0.765154
0.765108
0.765128
0.76518
0.765191
0.764866
0.764945
0.76514
0.765146
0.765048
0.764796
0.764789
0.764761
0.764832
0.764766
0.765136
0.765206
0.764893
0.76475
0.764741
0.764923
0.765679
0.765827
0.765299
0.765414
0.766532
0.766969
0.76683
0.766006
0.766236
0.766989
0.766989
0.766989
0.76699
0.76699
0.76699
0.76699
0.76699
0.76699
0.76699
0.76699
0.76699
0.76699
0.76699
0.76699
0.76699
0.766981
0.766929
0.766808
0.766689
0.766651
0.76668
0.766801
0.766928
0.766976
0.766988
0.766989
0.766989
0.766986
0.766967
0.76682
0.766909
0.766615
0.76669
0.766644
0.766613
0.766501
0.766465
0.766432
0.7665
0.765994
0.766134
0.765512
0.765628
0.765332
0.765411
0.765242
0.765284
0.765165
0.765207
0.765024
0.76501
0.765011
0.765027
0.765048
0.764987
0.764931
0.764887
0.765176
0.765126
0.765049
0.764958
0.765192
0.765199
0.765165
0.764918
0.765034
0.765201
0.765206
0.765147
0.764794
0.764726
0.764753
0.764885
0.764693
0.764974
0.765048
0.764746
0.764665
0.764643
0.764769
0.765553
0.765722
0.765149
0.765276
0.766543
0.766976
0.766869
0.765932
0.766209
0.766985
0.766985
0.766988
0.766989
0.76699
0.76699
0.76699
0.76699
0.76699
0.76699
0.76699
0.76699
0.76699
0.76699
0.76699
0.766984
0.766933
0.766809
0.766691
0.766658
0.766699
0.766828
0.766939
0.766978
0.766988
0.76699
0.76699
0.766989
0.766986
0.766953
0.766979
0.766808
0.766907
0.76646
0.766647
0.766406
0.766388
0.766212
0.766157
0.766217
0.766228
0.765742
0.765833
0.765465
0.765543
0.765334
0.765394
0.76527
0.765343
0.765026
0.765131
0.76486
0.764851
0.764861
0.764888
0.764866
0.764785
0.764721
0.76468
0.765085
0.764976
0.764853
0.764733
0.765201
0.765148
0.765041
0.765012
0.765139
0.765203
0.765202
0.765205
0.764844
0.764711
0.764796
0.764979
0.764668
0.764816
0.764892
0.764631
0.764627
0.764589
0.764636
0.765433
0.765626
0.764999
0.76514
0.766572
0.766984
0.766916
0.765872
0.766198
0.766971
0.766976
0.766984
0.766989
0.76699
0.76699
0.76699
0.76699
0.76699
0.76699
0.76699
0.76699
0.76699
0.76699
0.766986
0.766943
0.766815
0.766695
0.766666
0.766718
0.766854
0.766948
0.766981
0.766989
0.76699
0.76699
0.76699
0.766989
0.766988
0.766966
0.766983
0.766817
0.766918
0.766416
0.766643
0.766154
0.766225
0.765926
0.76596
0.765886
0.765908
0.765619
0.765688
0.765538
0.765607
0.765408
0.765471
0.765256
0.765378
0.76481
0.764892
0.765055
0.76496
0.764666
0.764672
0.764702
0.764749
0.764628
0.76455
0.764503
0.764489
0.7649
0.764747
0.764601
0.76448
0.765131
0.764999
0.764829
0.765119
0.765197
0.765118
0.765112
0.765198
0.764934
0.764744
0.76488
0.765086
0.764688
0.764669
0.764741
0.76456
0.76463
0.76457
0.764542
0.765317
0.765539
0.764853
0.765008
0.766629
0.766988
0.76695
0.765822
0.766206
0.766947
0.766962
0.766981
0.766988
0.76699
0.76699
0.76699
0.76699
0.76699
0.76699
0.76699
0.76699
0.76699
0.766988
0.766956
0.766828
0.7667
0.766671
0.766735
0.766875
0.766956
0.766982
0.766989
0.76699
0.76699
0.76699
0.76699
0.76699
0.766989
0.76699
0.766978
0.766987
0.766862
0.766947
0.766447
0.766693
0.766037
0.7662
0.765848
0.765927
0.765745
0.765794
0.765674
0.76574
0.765733
0.765834
0.765507
0.765625
0.765139
0.765244
0.765387
0.764778
0.764857
0.765026
0.764938
0.764508
0.764562
0.76463
0.764702
0.764394
0.764349
0.764345
0.764391
0.764649
0.764484
0.764351
0.764263
0.764966
0.764771
0.764568
0.76518
0.765189
0.764946
0.764939
0.765113
0.76504
0.764817
0.764979
0.765154
0.764748
0.764549
0.764601
0.764518
0.764671
0.764587
0.76448
0.765207
0.765456
0.764712
0.764879
0.766713
0.766989
0.766968
0.765778
0.766237
0.766919
0.76695
0.766979
0.766988
0.76699
0.76699
0.76699
0.76699
0.76699
0.76699
0.76699
0.76699
0.766989
0.766969
0.766851
0.766708
0.766674
0.766743
0.766887
0.766958
0.766982
0.766988
0.76699
0.76699
0.76699
0.76699
0.76699
0.76699
0.76699
0.76699
0.766986
0.766989
0.766933
0.766975
0.766586
0.766813
0.766067
0.766305
0.765962
0.766097
0.765804
0.765874
0.765929
0.766019
0.765954
0.766119
0.765585
0.765774
0.76512
0.765222
0.765351
0.765471
0.764819
0.764897
0.765055
0.764974
0.764466
0.764551
0.764642
0.764735
0.764225
0.764233
0.764294
0.764384
0.764385
0.764245
0.764155
0.764123
0.764731
0.764506
0.764308
0.765174
0.765112
0.764709
0.764708
0.764948
0.765116
0.764908
0.765061
0.765153
0.764825
0.764462
0.764483
0.764503
0.76473
0.764621
0.764435
0.765098
0.765373
0.764578
0.764753
0.766778
0.76699
0.766975
0.765736
0.766256
0.766896
0.766943
0.766979
0.766988
0.76699
0.76699
0.76699
0.76699
0.76699
0.76699
0.76699
0.766989
0.766977
0.766881
0.766724
0.766675
0.766743
0.766887
0.766957
0.76698
0.766987
0.766989
0.76699
0.76699
0.76699
0.76699
0.76699
0.76699
0.76699
0.76699
0.76699
0.766989
0.76699
0.766974
0.766986
0.766813
0.766932
0.766305
0.766578
0.766323
0.766493
0.766105
0.766199
0.766271
0.766404
0.766113
0.766308
0.765582
0.765708
0.765898
0.765144
0.765243
0.765415
0.765526
0.764959
0.765028
0.765153
0.765089
0.764497
0.764631
0.76476
0.764871
0.764135
0.764203
0.764307
0.764451
0.764159
0.764067
0.764036
0.764046
0.764465
0.764251
0.764091
0.765112
0.764965
0.764446
0.764447
0.764725
0.765121
0.764988
0.765079
0.765108
0.764896
0.764397
0.764392
0.764506
0.764786
0.764656
0.764404
0.764987
0.76528
0.764457
0.764626
0.766801
0.76699
0.766975
0.76568
0.766233
0.766882
0.766946
0.76698
0.766988
0.76699
0.76699
0.76699
0.76699
0.76699
0.76699
0.76699
0.766983
0.766913
0.766748
0.766676
0.766739
0.76688
0.766949
0.766974
0.766984
0.766988
0.76699
0.76699
0.76699
0.76699
0.76699
0.76699
0.76699
0.76699
0.76699
0.76699
0.76699
0.76699
0.766987
0.766989
0.766946
0.766977
0.766701
0.766863
0.766744
0.766843
0.766522
0.766635
0.766478
0.766623
0.76615
0.766259
0.766413
0.765637
0.76575
0.766056
0.765947
0.765227
0.765314
0.765529
0.765629
0.76517
0.765224
0.765309
0.765264
0.76462
0.764797
0.764958
0.765084
0.76411
0.764215
0.764366
0.764554
0.763994
0.763962
0.763968
0.764021
0.764212
0.76404
0.763934
0.764986
0.764756
0.764194
0.764193
0.76447
0.765087
0.765019
0.765051
0.765002
0.764936
0.764342
0.764317
0.764513
0.764821
0.764675
0.764381
0.764866
0.765179
0.764354
0.764499
0.766775
0.766989
0.766962
0.765594
0.766131
0.766877
0.766951
0.766982
0.766989
0.76699
0.76699
0.76699
0.76699
0.76699
0.76699
0.766986
0.766941
0.766782
0.766679
0.766727
0.766861
0.766927
0.76696
0.766977
0.766986
0.766989
0.76699
0.76699
0.76699
0.76699
0.76699
0.76699
0.76699
0.76699
0.76699
0.76699
0.76699
0.76699
0.76699
0.766989
0.76699
0.766981
0.766987
0.766921
0.766964
0.766905
0.766947
0.766743
0.766836
0.766568
0.7667
0.766233
0.766315
0.766476
0.766541
0.765732
0.765839
0.766148
0.76606
0.765366
0.76544
0.765703
0.765787
0.765417
0.76546
0.765519
0.765488
0.764769
0.76499
0.765187
0.765332
0.764113
0.764245
0.764421
0.764639
0.763899
0.763899
0.763941
0.764017
0.764003
0.763886
0.763845
0.764797
0.76451
0.763981
0.763973
0.764215
0.765006
0.764996
0.764989
0.764837
0.764925
0.764292
0.764252
0.764513
0.764819
0.764668
0.764356
0.764746
0.76507
0.764265
0.764381
0.766647
0.76697
0.766874
0.765467
0.765898
0.766881
0.76696
0.766984
0.766989
0.76699
0.76699
0.76699
0.76699
0.76699
0.766987
0.766962
0.766829
0.766688
0.766703
0.766834
0.766898
0.766932
0.766961
0.766978
0.766987
0.766989
0.76699
0.76699
0.76699
0.76699
0.76699
0.76699
0.76699
0.76699
0.76699
0.76699
0.76699
0.76699
0.76699
0.76699
0.76699
0.766987
0.766989
0.76697
0.766982
0.766936
0.766963
0.766805
0.766885
0.766589
0.766654
0.766735
0.766351
0.766415
0.766561
0.766601
0.765876
0.765968
0.766285
0.766217
0.765564
0.765626
0.765936
0.766003
0.765674
0.76572
0.765776
0.765747
0.764892
0.765158
0.7654
0.76558
0.764126
0.764279
0.764477
0.764722
0.763841
0.763873
0.763933
0.764023
0.763848
0.763802
0.763794
0.764568
0.764259
0.763821
0.763804
0.763991
0.764867
0.764949
0.764887
0.764632
0.76488
0.764243
0.764188
0.764489
0.764771
0.764612
0.764314
0.764629
0.764955
0.764189
0.764282
0.76632
0.766532
0.766402
0.765312
0.765607
0.766893
0.766968
0.766986
0.766989
0.76699
0.76699
0.76699
0.76699
0.766989
0.766975
0.766879
0.76671
0.766686
0.766801
0.766868
0.766898
0.766925
0.766961
0.766981
0.766988
0.76699
0.76699
0.76699
0.76699
0.76699
0.76699
0.76699
0.76699
0.76699
0.76699
0.76699
0.76699
0.76699
0.76699
0.76699
0.76699
0.766988
0.766989
0.766978
0.766985
0.766942
0.766967
0.766822
0.766895
0.766643
0.766684
0.76677
0.766724
0.766484
0.766523
0.766573
0.766604
0.766074
0.766146
0.766443
0.7664
0.765817
0.765871
0.766202
0.766253
0.765915
0.765978
0.766054
0.766017
0.765003
0.765301
0.765574
0.765786
0.76415
0.764315
0.764524
0.764782
0.763808
0.76386
0.763932
0.764033
0.763765
0.763752
0.763759
0.764336
0.764051
0.763733
0.763715
0.763828
0.76471
0.764872
0.764765
0.764456
0.764795
0.764183
0.764127
0.764419
0.764652
0.764457
0.764238
0.76452
0.764844
0.764121
0.764201
0.765726
0.766105
0.765618
0.765147
0.765339
0.76691
0.766975
0.766987
0.76699
0.76699
0.76699
0.76699
0.766989
0.766983
0.766922
0.76675
0.766681
0.766759
0.766838
0.766862
0.766877
0.766922
0.766964
0.766984
0.766989
0.76699
0.76699
0.76699
0.76699
0.76699
0.76699
0.76699
0.76699
0.76699
0.76699
0.76699
0.76699
0.76699
0.76699
0.76699
0.76699
0.76699
0.766988
0.766989
0.76698
0.766986
0.766936
0.766966
0.766808
0.766881
0.766642
0.766682
0.766695
0.766636
0.766534
0.766549
0.766472
0.766495
0.766306
0.766356
0.766517
0.766508
0.766098
0.766149
0.766432
0.766463
0.766125
0.766203
0.7663
0.766255
0.765086
0.765415
0.765729
0.765972
0.764163
0.76433
0.764541
0.764804
0.763794
0.763854
0.763932
0.764036
0.763711
0.763708
0.763734
0.764167
0.76389
0.763671
0.763642
0.763714
0.764561
0.764743
0.764583
0.764279
0.764618
0.764121
0.764066
0.76427
0.764439
0.764252
0.764139
0.764425
0.764728
0.764062
0.764132
0.765369
0.766711
0.765688
0.764985
0.765137
0.766928
0.76698
0.766988
0.76699
0.76699
0.76699
0.76699
0.766986
0.766953
0.766807
0.766685
0.766719
0.766809
0.766828
0.766828
0.766861
0.766923
0.766971
0.766986
0.76699
0.76699
0.76699
0.76699
0.76699
0.76699
0.76699
0.76699
0.76699
0.76699
0.76699
0.76699
0.76699
0.76699
0.76699
0.76699
0.76699
0.76699
0.766989
0.76699
0.766981
0.766986
0.766869
0.766943
0.766602
0.766691
0.766743
0.76653
0.76658
0.766509
0.76642
0.766468
0.766462
0.766215
0.766228
0.766485
0.7665
0.766482
0.766498
0.766347
0.766393
0.76653
0.766528
0.766298
0.766392
0.766482
0.766445
0.765117
0.765464
0.765811
0.766101
0.764167
0.76433
0.764539
0.764802
0.763781
0.763843
0.763921
0.764022
0.763662
0.76367
0.763709
0.763951
0.763717
0.763625
0.763609
0.763631
0.76431
0.764482
0.764234
0.763956
0.764324
0.764048
0.764008
0.764121
0.764179
0.764074
0.764042
0.764322
0.764605
0.764014
0.764064
0.765253
0.766903
0.766108
0.764839
0.765003
0.766945
0.766984
0.766989
0.76699
0.76699
0.76699
0.766987
0.766971
0.766869
0.766701
0.766692
0.766772
0.766801
0.766786
0.766796
0.766856
0.766933
0.766977
0.766988
0.76699
0.76699
0.76699
0.76699
0.76699
0.76699
0.76699
0.76699
0.76699
0.76699
0.76699
0.76699
0.76699
0.76699
0.76699
0.76699
0.76699
0.76699
0.766988
0.76699
0.766974
0.766985
0.766666
0.766863
0.766348
0.766483
0.766539
0.766371
0.766272
0.766339
0.766219
0.766099
0.766251
0.766223
0.765871
0.765871
0.766524
0.766516
0.766299
0.766347
0.766509
0.766525
0.766517
0.76649
0.76637
0.766476
0.766543
0.766525
0.765115
0.765466
0.765827
0.766143
0.764144
0.764295
0.764489
0.764725
0.763759
0.763821
0.763891
0.763978
0.763623
0.763638
0.763678
0.763702
0.763626
0.76359
0.763536
0.763589
0.763933
0.764124
0.763904
0.763719
0.76403
0.763974
0.763944
0.764018
0.76402
0.763982
0.763969
0.764222
0.764483
0.763959
0.764002
0.765328
0.766948
0.766286
0.76472
0.76497
0.766959
0.766986
0.766989
0.76699
0.76699
0.766989
0.766982
0.76692
0.766745
0.766684
0.76673
0.766776
0.766753
0.76674
0.766778
0.766857
0.766949
0.766984
0.766989
0.76699
0.76699
0.76699
0.76699
0.76699
0.76699
0.76699
0.76699
0.76699
0.76699
0.76699
0.76699
0.76699
0.76699
0.76699
0.76699
0.76699
0.76699
0.76699
0.766988
0.766989
0.76695
0.76698
0.766324
0.766319
0.766531
0.766715
0.766049
0.766211
0.76614
0.765913
0.765994
0.765892
0.765749
0.765937
0.765891
0.765511
0.765509
0.766446
0.766403
0.765998
0.766067
0.766544
0.766538
0.766359
0.766288
0.766356
0.766464
0.766497
0.766499
0.765018
0.765367
0.765742
0.76609
0.764078
0.764197
0.764325
0.764508
0.763732
0.763789
0.76385
0.763918
0.763593
0.763618
0.763642
0.763642
0.763598
0.763527
0.763534
0.763547
0.763769
0.763915
0.763818
0.763693
0.763943
0.763922
0.76389
0.763958
0.76396
0.763945
0.763922
0.764132
0.764378
0.763907
0.763957
0.765425
0.766984
0.766675
0.764649
0.764984
0.766969
0.766988
0.76699
0.76699
0.76699
0.766985
0.766954
0.766815
0.766689
0.766696
0.766748
0.766731
0.766697
0.766705
0.766772
0.766876
0.766965
0.766987
0.76699
0.76699
0.76699
0.76699
0.76699
0.76699
0.76699
0.76699
0.76699
0.76699
0.76699
0.76699
0.76699
0.76699
0.76699
0.76699
0.76699
0.76699
0.76699
0.76699
0.766986
0.766989
0.7669
0.766968
0.766136
0.766201
0.766392
0.76656
0.765769
0.765952
0.765939
0.765543
0.765629
0.765596
0.765439
0.765572
0.765531
0.765165
0.765178
0.766216
0.766142
0.765628
0.765696
0.766466
0.766416
0.766049
0.765956
0.76614
0.766283
0.766294
0.766308
0.764762
0.765083
0.765449
0.765825
0.763995
0.764085
0.764183
0.764276
0.763702
0.763751
0.763798
0.763871
0.76353
0.763545
0.763479
0.763653
0.763426
0.763423
0.76343
0.763423
0.763753
0.763873
0.763783
0.763705
0.763892
0.763886
0.76385
0.763927
0.763896
0.763879
0.763889
0.764058
0.764298
0.763872
0.763908
0.765639
0.766988
0.766852
0.764613
0.76503
0.766976
0.766988
0.76699
0.76699
0.766987
0.766973
0.766883
0.766712
0.766679
0.766715
0.766718
0.766668
0.766648
0.766687
0.766778
0.766909
0.766978
0.766989
0.76699
0.76699
0.76699
0.76699
0.76699
0.76699
0.76699
0.76699
0.76699
0.76699
0.76699
0.76699
0.76699
0.76699
0.76699