/*--------------------------------*- C++ -*----------------------------------*\
  =========                 |
  \\      /  F ield         | OpenFOAM: The Open Source CFD Toolbox
   \\    /   O peration     | Website:  https://openfoam.org
    \\  /    A nd           | Version:  dev
     \\/     M anipulation  |
\*---------------------------------------------------------------------------*/
FoamFile
{
    version     2.0;
    format      ascii;
    class       volScalarField;
    location    "2500";
    object      nut;
}
// * * * * * * * * * * * * * * * * * * * * * * * * * * * * * * * * * * * * * //

dimensions      [0 2 -1 0 0 0 0];

internalField   nonuniform List<scalar> 
9842
(
0.000125561
0.000130021
0.000122518
0.000120498
0.000155439
0.000109959
0.000112055
0.000165238
0.00014711
0.000105186
0.000107925
0.000160733
0.000169591
0.000126235
0.000102925
0.000104755
0.000146391
0.000182791
0.000156454
0.000114577
0.000101844
0.000103202
0.000130903
0.000183145
0.000178322
0.000134062
0.000109105
0.00010136
0.000102541
0.000121268
0.000177115
0.000190972
0.000159511
0.000120652
0.000105782
0.000101179
0.000102204
0.000113533
0.000161105
0.000198045
0.000181828
0.000137239
0.0001138
0.000103789
0.000101026
0.000101821
0.000108949
0.000141567
0.000196487
0.000195792
0.000158122
0.000123699
0.000109384
0.00010275
0.000100745
0.000101542
0.000106253
0.000129782
0.000188884
0.000205079
0.000180689
0.000137361
0.000116498
0.000106153
0.00010226
0.000100408
0.000101294
0.000104761
0.00012046
0.000171129
0.00020974
0.000197901
0.000154999
0.000125188
0.000111762
0.000104152
0.000101881
0.000100171
0.000101043
0.000104032
0.000114514
0.000150755
0.000207267
0.000208434
0.00017611
0.000136026
0.000118167
0.000108166
0.00010317
0.000101346
0.000100051
0.000100852
0.00010366
0.000110755
0.000137184
0.000198522
0.000216318
0.000196095
0.000151736
0.000125078
0.000113366
0.000105573
0.000102586
0.000100804
0.0001
0.000100753
0.000103433
0.000108548
0.000127058
0.000179919
0.000219644
0.000210654
0.000169699
0.000134659
0.000118609
0.000109714
0.000104008
0.000102
0.000100373
9.99873e-05
0.000100714
0.00010329
0.0001072
0.000120331
0.000158699
0.000216587
0.000219071
0.000190987
0.000146989
0.000124831
0.000114088
0.000106871
0.00010314
0.000101373
0.000100079
9.99802e-05
0.000100701
0.00010319
0.000106359
0.000116057
0.000143919
0.000206832
0.00022615
0.000208627
0.000164186
0.000132283
0.000118862
0.000110566
0.000104839
0.000102433
0.000100752
9.99213e-05
9.99577e-05
0.000100718
0.000103083
0.000105803
0.000113439
0.000134095
0.00018807
0.000227754
0.000221284
0.0001831
0.000143105
0.000124029
0.000114444
0.000107761
0.000103626
0.000101773
0.00010024
9.98604e-05
9.99275e-05
0.000100738
0.000102936
0.000105385
0.000111826
0.000127283
0.000167076
0.000224299
0.000227649
0.000203473
0.000157992
0.000130273
0.000118634
0.000110993
0.000105578
0.000102764
0.000101081
9.99148e-05
9.98067e-05
9.99278e-05
0.000100742
0.000102826
0.000105143
0.000110652
0.000123281
0.000151752
0.000214102
0.000234452
0.000219007
0.000175979
0.000139619
0.0001231
0.000114448
0.000108229
0.000104039
0.000102025
0.000100429
9.97725e-05
9.97322e-05
9.99216e-05
0.000100759
0.000102733
0.000104998
0.000109718
0.000120921
0.000141957
0.000195833
0.00023544
0.000230373
0.000195233
0.000152251
0.000128678
0.0001182
0.000111213
0.00010605
0.000103017
0.000101314
9.99722e-05
9.96676e-05
9.97217e-05
9.99157e-05
0.000100812
0.000102642
0.000104874
0.000108941
0.000119008
0.000135019
0.000174898
0.000232001
0.000236095
0.000214398
0.000168957
0.000136285
0.000122232
0.000114318
0.000108633
0.000104362
0.000102196
0.000100618
9.97361e-05
9.95509e-05
9.9728e-05
9.99203e-05
0.000100862
0.000102556
0.000104761
0.000108291
0.000117102
0.00013051
0.000159389
0.000222052
0.000243097
0.00022884
0.000186981
0.000147746
0.000127221
0.000117757
0.000111238
0.000106459
0.000103209
0.000101479
0.000100061
9.96124e-05
9.94948e-05
9.97167e-05
9.99262e-05
0.00010088
0.000102457
0.000104682
0.000107747
0.000115305
0.000127546
0.000149136
0.000203505
0.000243879
0.000239578
0.000206172
0.000161793
0.000134016
0.000121756
0.000114247
0.000108784
0.000104694
0.000102343
0.000100809
9.97205e-05
9.95121e-05
9.95186e-05
9.97098e-05
9.99277e-05
0.000100882
0.000102348
0.000104595
0.000107311
0.000113697
0.000125395
0.00014186
0.000182168
0.000240509
0.000245154
0.000224633
0.000179238
0.000143406
0.000126177
0.000117645
0.000111404
0.000106736
0.000103394
0.00010162
0.000100231
9.95596e-05
9.94338e-05
9.95696e-05
9.97187e-05
9.99238e-05
0.000100879
0.000102251
0.000104442
0.000106951
0.000112379
0.000123599
0.000137102
0.000166572
0.000230951
0.000252538
0.000238501
0.000197217
0.00015615
0.000132331
0.000121296
0.000114327
0.000109117
0.000105062
0.000102509
0.000101016
9.98219e-05
9.95053e-05
9.94256e-05
9.96268e-05
9.97292e-05
9.99125e-05
0.000100861
0.000102174
0.000104226
0.000106627
0.000111411
0.000121866
0.000134083
0.000156219
0.000212366
0.000253501
0.000249288
0.000216056
0.000171182
0.000140233
0.00012582
0.00011763
0.000111691
0.000107211
0.0001037
0.000101825
0.000100519
9.95984e-05
9.95212e-05
9.94824e-05
9.97005e-05
9.97481e-05
9.99006e-05
0.000100809
0.000102115
0.000104006
0.000106322
0.000110608
0.000120093
0.000132004
0.000148792
0.000190571
0.000250258
0.000254846
0.000234622
0.00018876
0.000151077
0.000130953
0.000121354
0.00011469
0.000109594
0.000105594
0.00010274
0.000101301
0.000100176
9.95382e-05
9.96091e-05
9.95988e-05
9.97686e-05
9.97654e-05
9.98941e-05
0.000100725
0.000102051
0.000103788
0.000106032
0.000109856
0.000118428
0.000130236
0.00014362
0.000174629
0.000241698
0.000262904
0.000248279
0.000207105
0.000164481
0.000138204
0.000125542
0.00011801
0.000112343
0.000107888
0.000104342
0.000102114
0.000100946
0.000100019
9.96141e-05
9.97636e-05
9.97992e-05
9.98191e-05
9.9738e-05
9.98824e-05
0.000100645
0.000101953
0.000103523
0.000105744
0.000109149
0.000116888
0.000128454
0.000140298
0.00016416
0.000224244
0.000265186
0.000259761
0.000225444
0.00018038
0.000147069
0.000130652
0.000121831
0.000115452
0.000110513
0.000106514
0.000103428
0.000101705
0.000100798
0.000100046
9.9795e-05
9.99441e-05
0.000100046
9.99058e-05
9.96873e-05
9.98531e-05
0.000100574
0.000101813
0.000103196
0.000105387
0.000108485
0.000115433
0.000126691
0.000137909
0.000156069
0.000202129
0.000261975
0.000265936
0.000244601
0.000197779
0.000158969
0.000136785
0.000126
0.000119028
0.000113522
0.000109065
0.00010549
0.000102832
0.000101522
0.00010087
0.000100309
0.000100107
0.00010018
0.00010024
9.99749e-05
9.96722e-05
9.9819e-05
0.0001005
0.000101599
0.000102813
0.000104965
0.000107845
0.00011412
0.000124952
0.000136024
0.000150369
0.000184241
0.000255337
0.000274005
0.000258669
0.000216541
0.000172825
0.000144845
0.000130993
0.000122888
0.000116963
0.000112045
0.000108003
0.000104904
0.000102611
0.000101559
0.000101177
0.000100863
0.000100648
0.000100578
0.000100433
0.000100015
9.96804e-05
9.98037e-05
0.000100426
0.00010136
0.000102419
0.000104528
0.000107224
0.000113041
0.000123261
0.000134457
0.000146191
0.000173379
0.000240518
0.000279732
0.000270793
0.000234574
0.000189118
0.000154772
0.000136757
0.000127382
0.000120788
0.000115505
0.000111073
0.000107528
0.000104786
0.000102721
0.000101861
0.00010166
0.000101619
0.000101508
0.000101305
0.000100858
0.000100258
9.97272e-05
9.98857e-05
0.000100343
0.000101087
0.00010201
0.000104076
0.000106624
0.000112092
0.000121778
0.000132905
0.00014327
0.000164552
0.000218769
0.000276743
0.00027945
0.000254026
0.000206463
0.000166896
0.000144098
0.000132295
0.000125124
0.000119562
0.000114793
0.000110832
0.000107647
0.000105138
0.00010329
0.00010253
0.000102344
0.000102415
0.000102401
0.000101991
0.000101345
0.000100737
0.000100007
0.000100119
0.00010023
0.000100248
0.000100792
0.000101623
0.000103608
0.000106025
0.000111163
0.000120497
0.000131293
0.000141253
0.000157989
0.000197751
0.00027202
0.000286638
0.000270334
0.000225201
0.000181329
0.000152436
0.000138237
0.000129883
0.000124078
0.00011927
0.000114907
0.000111361
0.000108508
0.000106246
0.000104515
0.000103663
0.000103365
0.00010335
0.000103141
0.000102559
0.00010174
0.000101017
0.000100261
0.000100432
0.000100204
0.000100517
0.000100147
0.000100516
0.000101302
0.000103134
0.000105418
0.000110245
0.000119227
0.00012967
0.000139483
0.000153213
0.000184746
0.00026128
0.00029561
0.000282712
0.000243757
0.000197215
0.000163251
0.000144726
0.000135196
0.000129052
0.00012413
0.000119986
0.000116159
0.000113019
0.000110492
0.000108452
0.000106548
0.000105417
0.000104958
0.000104681
0.000104278
0.000103294
0.000101555
0.000102224
0.000101003
0.000101567
0.000101381
0.000100587
0.000100841
0.000100307
0.000100806
0.00010005
0.000100272
0.00010105
0.000102631
0.00010482
0.000109335
0.000117918
0.000128081
0.00013795
0.000149544
0.000175641
0.000241353
0.000296389
0.000294506
0.00026308
0.000214941
0.00017492
0.000152727
0.000141088
0.000134382
0.000129634
0.000125587
0.000122257
0.000119135
0.000116391
0.00011402
0.000111824
0.000109477
0.000108019
9.58072e-05
9.2311e-05
9.24383e-05
9.78462e-05
8.67566e-05
9.79413e-05
9.94558e-05
9.03419e-05
8.57937e-05
9.88455e-05
9.02362e-05
9.14908e-05
8.44488e-05
9.99651e-05
0.000100063
0.000100825
0.000102051
0.000104214
0.000108452
0.000116629
0.000126485
0.000136325
0.000146602
0.000167951
0.000218916
0.000291797
0.000302075
0.000282332
0.000233218
0.000189597
0.000161101
0.000147628
0.000140106
0.000135444
0.000132122
0.000129338
0.000126988
0.0001247
0.000121811
0.000118806
0.000107263
9.25312e-05
7.95524e-05
7.24722e-05
7.20284e-05
7.673e-05
6.89403e-05
8.26356e-05
7.33638e-05
8.12806e-05
8.15845e-05
7.57951e-05
7.20492e-05
7.98606e-05
7.40812e-05
7.37921e-05
6.86609e-05
9.99031e-05
9.99258e-05
0.000100636
0.000101459
0.000103638
0.000107674
0.00011539
0.000124866
0.000134444
0.000144615
0.000162066
0.000200139
0.000285093
0.000311614
0.000296322
0.00025262
0.000204852
0.000171602
0.000154456
0.000146127
0.000141443
0.000138925
0.000137614
0.000136752
0.00013472
0.000131366
0.000126414
0.000121012
0.000114631
9.01008e-05
6.62751e-05
5.91079e-05
6.43002e-05
5.76252e-05
6.44146e-05
5.96207e-05
7.15165e-05
6.36039e-05
6.79407e-05
6.77273e-05
6.39716e-05
6.10266e-05
6.56072e-05
6.1718e-05
6.06413e-05
5.71229e-05
9.98819e-05
9.98678e-05
0.000100419
0.000100875
0.000103087
0.000107048
0.000114214
0.000123256
0.000132579
0.000142935
0.000157662
0.000188921
0.000269933
0.000318875
0.000309365
0.000272049
0.000222377
0.000183212
0.000161915
0.000152447
0.000147398
0.000145677
0.000146413
0.000148682
0.000149009
0.000144415
0.000133565
0.000122758
0.000114321
0.000109129
0.000106606
6.89948e-05
5.09562e-05
4.82462e-05
5.33518e-05
5.0361e-05
5.64638e-05
5.16531e-05
6.11781e-05
5.48709e-05
5.76956e-05
5.70592e-05
5.46778e-05
5.19807e-05
5.50248e-05
5.23612e-05
5.08847e-05
4.86259e-05
9.99214e-05
9.98904e-05
0.000100267
0.0001004
0.000102589
0.000106507
0.000113115
0.000121684
0.000130983
0.000140918
0.000154187
0.000181275
0.000248032
0.000315726
0.000320242
0.000292663
0.000240733
0.000196721
0.000170513
0.0001587
0.00015337
0.00015201
0.000154761
0.000162931
0.000172697
0.000174665
0.000174297
0.000165108
0.000147277
0.000129795
0.000116861
0.000103585
4.93332e-05
7.67594e-05
4.54632e-05
4.57103e-05
4.70211e-05
4.44401e-05
4.94641e-05
4.53578e-05
5.22068e-05
4.72961e-05
4.95116e-05
4.88156e-05
4.69755e-05
4.47388e-05
4.71494e-05
4.52789e-05
4.3548e-05
4.2187e-05
0.000100038
0.000100021
0.000100209
0.000100059
0.000102201
0.000106004
0.000112089
0.000120178
0.000129462
0.000138579
0.000151818
0.000174503
0.000226304
0.00031057
0.000328706
0.000311223
0.000260259
0.00021245
0.000179968
0.000165194
0.00015897
0.000157837
0.000162027
0.000176413
0.000201819
0.000238
0.000266797
0.000294273
0.000285988
0.000243961
0.000193125
0.000144408
8.97977e-05
9.35603e-05
5.50624e-05
8.88405e-05
4.26106e-05
4.93129e-05
4.19608e-05
4.06469e-05
4.3367e-05
4.00917e-05
4.50128e-05
4.15145e-05
4.28523e-05
4.24078e-05
4.07082e-05
3.89173e-05
4.12058e-05
3.98083e-05
3.77549e-05
3.72912e-05
0.000100248
0.000100296
0.000100291
9.98598e-05
0.000101826
0.000105549
0.000111123
0.000118794
0.000127924
0.000136508
0.000150179
0.000169498
0.000208325
0.000301786
0.000338936
0.000324588
0.000280757
0.000228595
0.000191617
0.000171965
0.000164362
0.000162813
0.000167884
0.000188271
0.000229414
0.000291954
0.000392142
0.000462331
0.000469734
0.000444536
0.00040259
0.000334328
0.0001533
0.00027237
8.36498e-05
0.000123134
8.10101e-05
8.2724e-05
4.54619e-05
7.08989e-05
3.84005e-05
4.33567e-05
3.84833e-05
3.68574e-05
3.94202e-05
3.70201e-05
3.75735e-05
3.73157e-05
3.5816e-05
3.44376e-05
3.66613e-05
3.549e-05
3.33953e-05
3.34365e-05
0.000100787
0.000100756
0.000100611
9.99208e-05
0.000101701
0.000105301
0.000110347
0.000117579
0.000126361
0.000134754
0.000148531
0.00016574
0.00019751
0.00028428
0.0003437
0.000338097
0.00030165
0.000247624
0.000203834
0.000179822
0.000169816
0.0001671
0.000172114
0.000195231
0.000251652
0.000349148
0.000487002
0.000537582
0.00053354
0.000516424
0.000493935
0.000479517
0.000358952
0.000444206
0.000235252
0.000335058
0.000110332
0.000211207
8.40276e-05
0.000106453
6.7697e-05
8.62122e-05
4.27324e-05
6.92251e-05
3.60989e-05
4.35252e-05
3.54544e-05
3.56357e-05
3.40824e-05
3.32908e-05
3.28521e-05
3.16069e-05
3.31375e-05
3.20468e-05
3.00288e-05
3.05279e-05
0.000101938
0.000101649
0.000101244
0.000100429
0.000101951
0.000105277
0.000109887
0.00011659
0.000124832
0.000133131
0.000146845
0.000163555
0.000190542
0.000262691
0.000338957
0.000348636
0.000323321
0.000267064
0.000218665
0.000188749
0.000175553
0.000171067
0.000174683
0.000197713
0.00026211
0.000388485
0.000533773
0.000568983
0.000549672
0.00051637
0.000496827
0.000494099
0.000480853
0.000504176
0.000416132
0.000471162
0.000314082
0.000396974
0.000198447
0.000300909
0.000108688
0.000196685
8.94287e-05
0.000116421
7.61305e-05
9.46892e-05
4.59707e-05
8.61152e-05
3.50139e-05
4.93014e-05
3.42656e-05
3.06322e-05
3.32919e-05
3.15379e-05
3.03413e-05
2.96234e-05
2.75353e-05
2.8336e-05
0.000103636
0.000103152
0.000102344
0.00010144
0.000102623
0.000105427
0.000109587
0.000115819
0.000123394
0.000131499
0.000145155
0.000162345
0.000186202
0.000242697
0.000333638
0.000357993
0.00034099
0.000288033
0.000235302
0.000199003
0.000181968
0.000175229
0.000176282
0.000195433
0.000263418
0.000409572
0.000553676
0.000573388
0.000543493
0.000499699
0.000484784
0.000485957
0.00049159
0.000496169
0.000497398
0.000457931
0.000488859
0.000384597
0.00044694
0.000296654
0.00037884
0.000205558
0.000301833
0.000129307
0.000223794
0.000102213
0.000149837
9.05544e-05
0.000110394
5.1973e-05
9.29139e-05
5.28472e-05
2.98521e-05
5.11314e-05
4.60496e-05
2.83203e-05
2.83935e-05
2.58892e-05
2.67191e-05
0.00010657
0.000105642
0.000103808
0.000102684
0.000103637
0.000105845
0.000109315
0.000115153
0.000122033
0.00013003
0.000143701
0.000161556
0.000182336
0.000224645
0.000323576
0.00036849
0.000354913
0.000310135
0.000253289
0.00021161
0.000189459
0.00018006
0.000177522
0.000191963
0.000256664
0.000416839
0.000557032
0.000573653
0.00051791
0.000470352
0.000475512
0.000472185
0.000469066
0.000482177
0.000475031
0.000493678
0.000493492
0.000480678
0.00048755
0.000439822
0.000474141
0.00037982
0.000437754
0.000313759
0.000387309
0.000245341
0.00033108
0.000173223
0.00026822
0.000118655
0.000194425
9.38612e-05
0.000125416
9.28326e-05
3.90954e-05
9.03331e-05
8.5364e-05
2.72058e-05
3.24954e-05
2.50386e-05
2.58141e-05
0.000112989
0.00011116
0.000106307
0.000104272
0.000104871
0.000106463
0.000109167
0.00011456
0.000120909
0.000129377
0.00014285
0.000161165
0.000179312
0.000212488
0.000305795
0.00037141
0.000368721
0.000332905
0.000274233
0.000225679
0.000198665
0.000186287
0.000179678
0.000187505
0.000248021
0.000412831
0.000555476
0.000567584
0.000502097
0.000417699
0.000453836
0.000464047
0.000468151
0.000472421
0.000474244
0.000478798
0.000480126
0.000490208
0.000483396
0.000481445
0.000485966
0.000469791
0.000476597
0.000439293
0.000467613
0.000397304
0.000443447
0.000349531
0.000409706
0.000290814
0.000367434
0.000214225
0.000309644
0.000129064
0.000227624
0.000128218
7.85949e-05
0.000124644
0.000116541
2.8114e-05
6.81428e-05
2.54541e-05
2.61955e-05
0.000126016
0.000125067
0.000111736
0.000106668
0.000106271
0.000107255
0.00010933
0.000114151
0.000120478
0.000129628
0.000142541
0.000161055
0.000176973
0.000205361
0.000285933
0.000366669
0.000379871
0.000355531
0.000295412
0.000243045
0.000209483
0.000194057
0.000183713
0.000183437
0.000238027
0.000405669
0.000549872
0.000563964
0.000495343
0.0003844
0.000385861
0.000443655
0.000474173
0.000480763
0.000498417
0.00048546
0.000495997
0.000489315
0.000500364
0.000482673
0.000484205
0.000481783
0.000484946
0.000474745
0.000481374
0.000466732
0.000476716
0.000448775
0.000471477
0.000422118
0.000458954
0.000383601
0.000436168
0.000324473
0.000398376
0.000232231
0.000334031
0.000227945
0.00010478
0.000217588
0.000196512
4.42739e-05
9.02806e-05
2.93692e-05
3.09391e-05
0.00013006
0.000145779
0.000126
0.000111381
0.000108088
0.000108241
0.000109984
0.000114317
0.000121051
0.000130473
0.000142927
0.000161371
0.000176304
0.000200703
0.000266911
0.000361711
0.000390177
0.000373022
0.000318275
0.000261626
0.000222584
0.000203739
0.000190295
0.000183198
0.00023085
0.000400073
0.000545708
0.000561822
0.000502302
0.000392005
0.000320632
0.000370252
0.000442373
0.000487555
0.000511329
0.000515169
0.000514747
0.000527686
0.000517516
0.00053371
0.000489507
0.000500109
0.000485238
0.000494402
0.000481883
0.000489173
0.000482691
0.000491168
0.000480773
0.000494606
0.000471335
0.000493769
0.000450705
0.000485006
0.000410828
0.000463689
0.000339699
0.00042052
0.000338743
0.00016806
0.000333483
0.000315609
7.21491e-05
0.000137939
3.48366e-05
5.89093e-05
0.000144604
0.000146661
0.000124034
0.000111564
0.000109818
0.000111466
0.000115684
0.000122951
0.00013233
0.000144023
0.000162075
0.000177115
0.000197738
0.000250232
0.000350855
0.000400384
0.000387939
0.000342144
0.000281805
0.000237777
0.000215081
0.000199338
0.000191631
0.000237495
0.000402679
0.000545301
0.000563954
0.000513891
0.000404272
0.000300392
0.000251652
0.000317276
0.000399187
0.000496337
0.000446894
0.000527024
0.000518038
0.000538179
0.000537317
0.000539268
0.000542923
0.000512867
0.000530444
0.000502061
0.000519369
0.000496523
0.000505308
0.000499859
0.000505464
0.000505733
0.000510488
0.000504518
0.000513659
0.000495141
0.000510232
0.000472505
0.000498818
0.000426397
0.000476484
0.000425858
0.000281846
0.000419642
0.000403521
0.000102445
0.000230176
1.57836e-05
6.91176e-05
0.000141934
0.000144685
0.000120984
0.000113414
0.000114633
0.000119559
0.000127639
0.000136807
0.000147517
0.000163549
0.000177896
0.000196181
0.00023766
0.00033384
0.000401758
0.000401441
0.000366791
0.000304145
0.00025403
0.000228489
0.000210158
0.000204969
0.000260255
0.000426265
0.000548251
0.000571923
0.000534873
0.000436391
0.000307639
0.000189549
0.000198397
0.000249413
0.00038036
0.000294371
0.000465646
0.000395582
0.000530423
0.000509886
0.000544606
0.000534438
0.0005389
0.000541961
0.000527181
0.000533901
0.000513074
0.000516375
0.000507034
0.00050594
0.000510064
0.000508068
0.000516905
0.000512181
0.000514545
0.000515589
0.000507059
0.000508209
0.000493661
0.000496714
0.00047293
0.000483614
0.000467778
0.000378341
0.000460082
0.00044929
0.000424146
0.000167382
0.000332704
2.87235e-05
0.000109658
0.000144806
0.000141249
0.000122699
0.000121149
0.000127716
0.00013508
0.000143418
0.000153926
0.000167044
0.000180632
0.000196248
0.000230582
0.00031753
0.000398142
0.000412867
0.000389262
0.000326528
0.000272625
0.000241742
0.000223002
0.000220643
0.000296626
0.000467503
0.000558866
0.000582228
0.000561385
0.000487667
0.000331352
0.000175142
0.000138046
0.000154146
0.000173525
0.000313909
0.000230955
0.000395392
0.000312457
0.000508132
0.000462315
0.000524137
0.000489999
0.000522794
0.000498143
0.000519261
0.000524946
0.000501549
0.000498897
0.000502699
0.000491072
0.000507563
0.000501575
0.000515168
0.00051077
0.000510547
0.000516611
0.000496426
0.000503428
0.000479614
0.000481909
0.000471849
0.000464205
0.000469089
0.000465241
0.000461566
0.000441451
0.000398127
0.000435373
0.000457295
0.00045307
0.000456268
0.000454241
0.000260577
0.000422468
0.00040852
0.000353862
4.21369e-05
0.000179905
0.00014848
0.000142698
0.000133449
0.000140165
0.000145822
0.000151865
0.000160035
0.000171914
0.000186674
0.000197472
0.000227498
0.000303417
0.000393494
0.000423014
0.000406297
0.000350781
0.000291574
0.00025545
0.00023488
0.000237467
0.000337481
0.000516224
0.000580545
0.000597801
0.000585733
0.00053334
0.000365937
0.000182291
0.000120757
0.000110388
0.000115798
0.000149065
0.000119032
0.000235166
0.000178775
0.000294412
0.000226327
0.00044149
0.000372703
0.000457843
0.000404733
0.000459552
0.000422924
0.000496325
0.000484001
0.000480231
0.00047049
0.000487559
0.000471998
0.000507551
0.000500537
0.000522589
0.00052197
0.000515917
0.000520058
0.000491937
0.000499625
0.000507755
0.000514086
0.000464053
0.0004679
0.000495993
0.000487832
0.00047648
0.000456018
0.000454702
0.000446438
0.000454471
0.000447599
0.000451031
0.000446189
0.000451274
0.000438983
0.000442462
0.000450003
0.000385547
0.000287208
0.000357291
0.000439174
0.000427758
8.6461e-05
0.00032177
0.000278076
0.000148282
0.000159819
0.00015467
0.000158086
0.000160648
0.000163585
0.000170263
0.000178971
0.000191278
0.000201547
0.000227881
0.000292653
0.000383382
0.000432153
0.000421134
0.000375572
0.000312295
0.000269343
0.000246858
0.000246066
0.000372435
0.000564192
0.000607836
0.000619535
0.000609855
0.000569608
0.000394016
0.000191472
0.00012394
0.000100498
9.652e-05
9.89318e-05
0.000137154
0.000115353
0.000181008
0.0001565
0.000218484
0.000185646
0.000338707
0.000273344
0.000377367
0.000324658
0.000413416
0.000381021
0.000457358
0.000438794
0.000457473
0.000442262
0.00048716
0.000473104
0.000515452
0.000505089
0.000513054
0.000503219
0.000513255
0.000511511
0.000507727
0.000501507
0.000503987
0.000506278
0.000506006
0.000459018
0.000468466
0.00049497
0.000484763
0.000479238
0.000444704
0.000438665
0.000435024
0.000449559
0.000431031
0.000449238
0.000448169
0.000437218
0.000424772
0.000420392
0.000437382
0.000410008
0.000384159
0.000445364
0.000438526
0.000161564
5.30418e-05
0.000103612
0.000349285
0.000304393
0.000181001
0.000185147
0.000184595
0.000182185
0.000183758
0.000189316
0.000200719
0.000212452
0.000230624
0.000286753
0.000370096
0.000433197
0.000433623
0.000400703
0.000334863
0.000284471
0.000258394
0.000247268
0.000390031
0.000608796
0.00063944
0.000642296
0.000632333
0.000597723
0.000410439
0.000206812
0.000131351
0.000105229
9.41242e-05
9.05673e-05
0.000102341
9.27876e-05
0.000133039
0.000115179
0.00016472
0.000148357
0.000194952
0.000175033
0.000272145
0.00022807
0.000340763
0.00029461
0.000379301
0.000348731
0.000425416
0.000404704
0.000456852
0.00043834
0.000492808
0.000482161
0.000491472
0.000481684
0.000493991
0.000485199
0.000476616
0.000467899
0.000502534
0.00049558
0.000485295
0.000473541
0.000497045
0.000495645
0.000488726
0.000459314
0.000469834
0.000486014
0.000458718
0.000466168
0.000439157
0.000425171
0.000428088
0.000449197
0.000415953
0.000439076
0.00044148
0.00041852
0.000407965
0.000402027
0.000419471
0.000425325
0.000403388
0.000443001
0.000441365
0.000226855
2.14006e-05
0.000100191
0.000370373
0.000320229
0.00022208
0.000220955
0.000209068
0.000205623
0.000206318
0.000212889
0.000227539
0.000236206
0.000287048
0.000360045
0.000431321
0.000444655
0.000421865
0.000357392
0.000301968
0.000271025
0.000248203
0.000391021
0.000646361
0.000674921
0.000667664
0.000656725
0.000617181
0.000417853
0.000222774
0.000143375
0.000113397
0.000100405
9.17395e-05
9.01473e-05
0.000110257
0.000101999
0.000149805
0.000127774
0.000167389
0.000159984
0.000200437
0.000195551
0.000249524
0.000215755
0.000313267
0.000281449
0.000373897
0.000349773
0.000418321
0.000396906
0.000472412
0.00046097
0.000471488
0.000466492
0.000461512
0.000455092
0.000450885
0.000447327
0.000462047
0.000452128
0.00044446
0.000437835
0.00047678
0.000462622
0.000448091
0.000436177
0.000482084
0.000470658
0.000455033
0.000448662
0.000432389
0.000461484
0.000432478
0.000424233
0.000437964
0.000416821
0.00042603
0.000424979
0.000405765
0.000422971
0.000428261
0.000398991
0.000395601
0.000387207
0.000399541
0.000433748
0.000417237
0.0004339
0.000437959
0.000230261
2.40067e-05
9.80609e-05
0.000387204
0.000330303
0.00027848
0.00025318
0.00023772
0.000230045
0.000232946
0.000241477
0.000249835
0.000289869
0.000355067
0.000427123
0.000453619
0.000438055
0.000382973
0.000320101
0.000284487
0.000249421
0.000384394
0.000672414
0.000714314
0.000694329
0.000681919
0.000633501
0.000421059
0.000240899
0.000161962
0.000126121
0.000109519
9.92779e-05
9.27085e-05
0.000101673
9.7868e-05
0.000125633
0.00011136
0.000175105
0.000147308
0.000190868
0.000186355
0.000232576
0.000229417
0.000256229
0.000239674
0.000326385
0.000306765
0.000413835
0.000395367
0.000447754
0.000431347
0.000463703
0.000461357
0.000434819
0.000436551
0.00043249
0.000428138
0.000425404
0.000423477
0.000427031
0.000418833
0.000412618
0.000408255
0.000437679
0.000422683
0.000411137
0.000401561
0.000451316
0.000432707
0.00041424
0.000404911
0.000397047
0.000433181
0.000417939
0.000406728
0.000406161
0.000413617
0.000393444
0.000385658
0.000400983
0.000403719
0.000411043
0.000381774
0.000388581
0.000377215
0.000380439
0.000437443
0.00042779
0.000420502
0.000430327
0.000219054
3.11503e-05
7.48396e-05
0.000400719
0.000334434
0.00037572
0.000318415
0.000267646
0.000257358
0.000262671
0.000269624
0.000294765
0.000354624
0.000422279
0.000460566
0.000450999
0.000407553
0.000340566
0.0002976
0.000254047
0.000364609
0.000681793
0.000754561
0.000721874
0.000704553
0.000646749
0.000427241
0.000267183
0.000184595
0.000145096
0.000122775
0.000109094
0.000100075
9.89959e-05
0.000105761
0.000101327
0.000131924
0.000114312
0.000195335
0.000158135
0.00022585
0.000218746
0.000274912
0.000271908
0.000291922
0.000281287
0.000377787
0.000363279
0.000450538
0.000441495
0.000459466
0.000456414
0.000441911
0.00044631
0.000404406
0.000407154
0.000415095
0.000409897
0.00040542
0.000403855
0.000403128
0.000403332
0.0003944
0.000390241
0.000388268
0.000387544
0.000399456
0.00038727
0.000378304
0.000373596
0.000412594
0.000394454
0.000378361
0.000376775
0.000387297
0.000396446
0.000384565
0.000406108
0.000370428
0.000385865
0.00036096
0.000362381
0.00038483
0.000383891
0.000392253
0.000368474
0.000385378
0.000371333
0.000364009
0.000437931
0.000436174
0.000404884
0.00042047
0.000197884
8.33764e-06
5.77062e-05
0.000410508
0.000331334
0.000499505
0.000396747
0.00029242
0.000285624
0.000295075
0.000307116
0.000356118
0.000420146
0.000465808
0.00046167
0.000429981
0.000362103
0.000310482
0.000267684
0.000327932
0.00067526
0.000793498
0.000753069
0.000723918
0.000657035
0.000438918
0.00029751
0.000216472
0.000167918
0.000141208
0.00012277
0.000109902
0.000103563
0.000101978
0.000103514
0.000108167
0.000103736
0.000134813
0.000117671
0.00019965
0.000162194
0.000263409
0.00024118
0.000324329
0.000307506
0.000350423
0.000337093
0.00042873
0.000412338
0.000451475
0.000442484
0.000452784
0.000454903
0.000418973
0.000424525
0.000425121
0.000394564
0.000398935
0.000408492
0.000403497
0.000387547
0.000388454
0.0003894
0.000391121
0.000371863
0.000371983
0.000372942
0.000374803
0.000366006
0.000358322
0.000355397
0.00035543
0.000377489
0.000360179
0.000347469
0.000373023
0.00039495
0.000364107
0.000354243
0.000376055
0.000350918
0.000357894
0.000343933
0.000360635
0.000360126
0.000365368
0.000373647
0.00035892
0.000366827
0.000369338
0.000350488
0.000435912
0.000441963
0.000388717
0.000409438
0.000167732
2.99205e-06
3.97137e-05
0.000416964
0.000269781
0.00061609
0.000454772
0.000312006
0.000317407
0.000328702
0.000360662
0.000419127
0.00046777
0.000473494
0.000448935
0.000382692
0.000322717
0.000285972
0.000294052
0.000648376
0.000830182
0.000788548
0.000746186
0.000670922
0.000454722
0.000333268
0.00025539
0.00019858
0.000163247
0.000139502
0.00012132
0.000110967
0.000106222
0.000104283
0.000103703
0.00011057
0.000105999
0.000133365
0.000118632
0.000197959
0.00015911
0.000278833
0.000243218
0.000346475
0.000315823
0.00039343
0.000371426
0.000427381
0.000406653
0.000394671
0.000368607
0.000421927
0.000410111
0.000413361
0.00041751
0.000417424
0.000414627
0.000392675
0.000399499
0.000412075
0.00040617
0.000376606
0.000378095
0.000381491
0.000386757
0.000357579
0.000359075
0.000362166
0.000363978
0.00034105
0.000338945
0.000339711
0.000342216
0.000345051
0.000332195
0.000325667
0.000383548
0.000370174
0.000333266
0.000324729
0.00034759
0.000351554
0.000342115
0.000346615
0.000372917
0.000346558
0.000349121
0.000356262
0.000353031
0.000351468
0.000356895
0.00033971
0.000431946
0.000444408
0.000372795
0.000397615
0.000144102
1.62988e-06
2.36855e-05
0.000353624
0.000223358
0.000703841
0.000477599
0.000333565
0.000349319
0.000373101
0.00042038
0.000468807
0.000482037
0.000466045
0.000408879
0.000335217
0.000303718
0.000274341
0.000567702
0.000853829
0.00082499
0.000775868
0.000699708
0.000488321
0.00036661
0.000297896
0.000238911
0.000189722
0.000155815
0.000134699
0.000121512
0.000112038
0.000104684
0.000108044
0.000103441
0.000103896
0.000108706
0.000104975
0.000125154
0.000115148
0.000172562
0.000141654
0.000274698
0.000220981
0.000309527
0.000258043
0.000380452
0.000349016
0.000336367
0.000300966
0.000340309
0.000298632
0.000407859
0.000398865
0.000377771
0.000416446
0.000418566
0.000386122
0.000376969
0.000393816
0.000403295
0.000401675
0.000412329
0.000366735
0.000371056
0.000377058
0.000384573
0.000344785
0.000346082
0.000349124
0.000352119
0.000323318
0.000323453
0.00032495
0.00032736
0.000319411
0.000311827
0.00030827
0.000367941
0.000345114
0.000309022
0.000301081
0.00031999
0.000365797
0.000344393
0.000360923
0.000368156
0.00034494
0.000335017
0.000340745
0.000348326
0.000345688
0.000348243
0.000331366
0.000425875
0.000398944
0.000357099
0.000384714