/*--------------------------------*- C++ -*----------------------------------*\
  =========                 |
  \\      /  F ield         | OpenFOAM: The Open Source CFD Toolbox
   \\    /   O peration     | Website:  https://openfoam.org
    \\  /    A nd           | Version:  dev
     \\/     M anipulation  |
\*---------------------------------------------------------------------------*/
FoamFile
{
    version     2.0;
    format      ascii;
    class       volScalarField;
    location    "2500";
    object      O2;
}
// * * * * * * * * * * * * * * * * * * * * * * * * * * * * * * * * * * * * * //

dimensions      [0 0 0 0 0 0 0];

internalField   nonuniform List<scalar> 
9842
(
0.23301
0.23301
0.23301
0.23301
0.23301
0.23301
0.23301
0.23301
0.23301
0.23301
0.23301
0.23301
0.23301
0.23301
0.23301
0.23301
0.23301
0.23301
0.23301
0.23301
0.23301
0.23301
0.23301
0.23301
0.23301
0.23301
0.23301
0.23301
0.23301
0.23301
0.23301
0.23301
0.23301
0.23301
0.23301
0.23301
0.23301
0.23301
0.23301
0.23301
0.23301
0.23301
0.23301
0.23301
0.23301
0.23301
0.23301
0.23301
0.23301
0.23301
0.23301
0.23301
0.23301
0.23301
0.23301
0.23301
0.23301
0.23301
0.23301
0.23301
0.23301
0.23301
0.23301
0.23301
0.23301
0.23301
0.23301
0.23301
0.23301
0.23301
0.23301
0.23301
0.23301
0.23301
0.23301
0.23301
0.23301
0.23301
0.23301
0.23301
0.23301
0.23301
0.23301
0.23301
0.23301
0.23301
0.23301
0.23301
0.23301
0.23301
0.23301
0.23301
0.23301
0.23301
0.23301
0.23301
0.23301
0.23301
0.23301
0.23301
0.23301
0.23301
0.23301
0.23301
0.23301
0.23301
0.23301
0.23301
0.23301
0.23301
0.23301
0.23301
0.23301
0.23301
0.23301
0.23301
0.23301
0.23301
0.23301
0.23301
0.23301
0.23301
0.23301
0.23301
0.23301
0.23301
0.23301
0.23301
0.23301
0.23301
0.23301
0.23301
0.23301
0.23301
0.23301
0.23301
0.23301
0.23301
0.23301
0.23301
0.23301
0.23301
0.23301
0.23301
0.23301
0.23301
0.23301
0.23301
0.23301
0.23301
0.23301
0.23301
0.23301
0.23301
0.23301
0.23301
0.23301
0.23301
0.23301
0.23301
0.23301
0.23301
0.23301
0.23301
0.23301
0.23301
0.23301
0.23301
0.23301
0.23301
0.23301
0.23301
0.23301
0.23301
0.23301
0.23301
0.23301
0.23301
0.23301
0.23301
0.23301
0.23301
0.23301
0.23301
0.23301
0.23301
0.23301
0.23301
0.23301
0.23301
0.23301
0.23301
0.23301
0.23301
0.23301
0.23301
0.23301
0.23301
0.23301
0.23301
0.23301
0.23301
0.23301
0.23301
0.23301
0.23301
0.23301
0.23301
0.23301
0.23301
0.23301
0.23301
0.23301
0.23301
0.23301
0.23301
0.23301
0.23301
0.23301
0.23301
0.23301
0.23301
0.23301
0.23301
0.23301
0.23301
0.23301
0.23301
0.23301
0.23301
0.23301
0.23301
0.23301
0.23301
0.23301
0.23301
0.23301
0.23301
0.23301
0.23301
0.23301
0.23301
0.23301
0.23301
0.23301
0.23301
0.23301
0.23301
0.23301
0.23301
0.23301
0.23301
0.23301
0.23301
0.23301
0.23301
0.23301
0.23301
0.23301
0.23301
0.23301
0.23301
0.23301
0.23301
0.23301
0.23301
0.23301
0.23301
0.23301
0.23301
0.23301
0.23301
0.23301
0.23301
0.23301
0.23301
0.23301
0.23301
0.23301
0.23301
0.23301
0.23301
0.23301
0.23301
0.23301
0.23301
0.23301
0.23301
0.23301
0.23301
0.23301
0.23301
0.23301
0.23301
0.23301
0.23301
0.23301
0.23301
0.23301
0.23301
0.23301
0.23301
0.23301
0.23301
0.23301
0.23301
0.23301
0.23301
0.23301
0.23301
0.23301
0.23301
0.23301
0.23301
0.23301
0.23301
0.23301
0.23301
0.23301
0.23301
0.23301
0.23301
0.23301
0.23301
0.23301
0.23301
0.23301
0.23301
0.23301
0.23301
0.23301
0.23301
0.23301
0.23301
0.23301
0.23301
0.23301
0.23301
0.23301
0.23301
0.23301
0.23301
0.23301
0.23301
0.23301
0.23301
0.23301
0.23301
0.23301
0.23301
0.23301
0.23301
0.23301
0.23301
0.23301
0.23301
0.23301
0.23301
0.23301
0.23301
0.23301
0.23301
0.23301
0.23301
0.23301
0.23301
0.23301
0.23301
0.23301
0.23301
0.23301
0.23301
0.23301
0.23301
0.23301
0.23301
0.23301
0.23301
0.23301
0.23301
0.23301
0.23301
0.23301
0.23301
0.23301
0.23301
0.23301
0.23301
0.23301
0.23301
0.23301
0.23301
0.23301
0.23301
0.23301
0.23301
0.23301
0.23301
0.23301
0.23301
0.23301
0.23301
0.23301
0.23301
0.23301
0.23301
0.23301
0.23301
0.23301
0.23301
0.23301
0.23301
0.23301
0.23301
0.23301
0.23301
0.23301
0.23301
0.23301
0.23301
0.23301
0.23301
0.23301
0.23301
0.23301
0.23301
0.23301
0.23301
0.23301
0.23301
0.23301
0.23301
0.23301
0.23301
0.23301
0.23301
0.23301
0.23301
0.23301
0.23301
0.23301
0.23301
0.23301
0.23301
0.23301
0.23301
0.23301
0.23301
0.23301
0.23301
0.23301
0.23301
0.23301
0.23301
0.23301
0.23301
0.23301
0.23301
0.23301
0.23301
0.23301
0.23301
0.23301
0.23301
0.23301
0.23301
0.23301
0.23301
0.23301
0.23301
0.23301
0.23301
0.23301
0.23301
0.23301
0.23301
0.23301
0.23301
0.23301
0.23301
0.23301
0.23301
0.23301
0.23301
0.23301
0.23301
0.23301
0.23301
0.23301
0.23301
0.23301
0.23301
0.23301
0.23301
0.23301
0.23301
0.23301
0.23301
0.23301
0.23301
0.23301
0.23301
0.23301
0.23301
0.23301
0.23301
0.23301
0.23301
0.23301
0.23301
0.23301
0.23301
0.23301
0.23301
0.23301
0.23301
0.23301
0.23301
0.23301
0.23301
0.23301
0.23301
0.23301
0.23301
0.23301
0.23301
0.23301
0.23301
0.23301
0.23301
0.23301
0.23301
0.23301
0.23301
0.23301
0.23301
0.23301
0.23301
0.23301
0.23301
0.23301
0.23301
0.23301
0.23301
0.23301
0.23301
0.23301
0.23301
0.23301
0.23301
0.23301
0.23301
0.23301
0.23301
0.23301
0.23301
0.23301
0.23301
0.23301
0.23301
0.23301
0.23301
0.23301
0.23301
0.23301
0.23301
0.23301
0.23301
0.23301
0.23301
0.23301
0.23301
0.23301
0.23301
0.23301
0.23301
0.23301
0.23301
0.23301
0.23301
0.23301
0.23301
0.23301
0.23301
0.23301
0.23301
0.23301
0.23301
0.23301
0.23301
0.23301
0.23301
0.23301
0.23301
0.23301
0.23301
0.23301
0.23301
0.23301
0.23301
0.23301
0.23301
0.23301
0.23301
0.23301
0.23301
0.23301
0.23301
0.23301
0.23301
0.23301
0.23301
0.23301
0.23301
0.23301
0.23301
0.23301
0.23301
0.23301
0.23301
0.23301
0.23301
0.23301
0.23301
0.23301
0.23301
0.23301
0.23301
0.23301
0.23301
0.23301
0.23301
0.23301
0.23301
0.23301
0.23301
0.23301
0.23301
0.23301
0.23301
0.23301
0.23301
0.23301
0.23301
0.23301
0.23301
0.23301
0.23301
0.23301
0.23301
0.23301
0.23301
0.23301
0.23301
0.23301
0.23301
0.23301
0.23301
0.23301
0.23301
0.23301
0.23301
0.23301
0.23301
0.23301
0.23301
0.23301
0.23301
0.23301
0.23301
0.23301
0.23301
0.23301
0.23301
0.23301
0.23301
0.23301
0.23301
0.23301
0.23301
0.23301
0.23301
0.23301
0.23301
0.23301
0.23301
0.23301
0.23301
0.23301
0.23301
0.23301
0.23301
0.23301
0.23301
0.23301
0.23301
0.23301
0.23301
0.23301
0.23301
0.23301
0.23301
0.23301
0.23301
0.23301
0.23301
0.23301
0.23301
0.23301
0.23301
0.23301
0.23301
0.23301
0.23301
0.23301
0.23301
0.23301
0.23301
0.23301
0.23301
0.23301
0.23301
0.23301
0.23301
0.23301
0.23301
0.23301
0.23301
0.23301
0.23301
0.23301
0.23301
0.23301
0.23301
0.23301
0.23301
0.23301
0.23301
0.23301
0.23301
0.23301
0.23301
0.233009
0.233009
0.23301
0.23301
0.23301
0.23301
0.23301
0.23301
0.23301
0.23301
0.23301
0.23301
0.23301
0.23301
0.23301
0.23301
0.23301
0.23301
0.23301
0.23301
0.23301
0.23301
0.23301
0.23301
0.23301
0.23301
0.23301
0.23301
0.23301
0.23301
0.23301
0.23301
0.23301
0.23301
0.23301
0.23301
0.23301
0.23301
0.23301
0.23301
0.23301
0.233009
0.233008
0.233007
0.233006
0.233006
0.233007
0.233008
0.233009
0.23301
0.23301
0.23301
0.23301
0.23301
0.23301
0.23301
0.23301
0.23301
0.23301
0.23301
0.23301
0.23301
0.23301
0.23301
0.23301
0.23301
0.23301
0.23301
0.23301
0.23301
0.23301
0.23301
0.23301
0.23301
0.23301
0.23301
0.23301
0.23301
0.23301
0.23301
0.23301
0.23301
0.23301
0.23301
0.23301
0.23301
0.233009
0.233007
0.233002
0.232994
0.232987
0.232984
0.232986
0.232992
0.232999
0.233006
0.23301
0.233009
0.23301
0.23301
0.23301
0.23301
0.23301
0.23301
0.23301
0.23301
0.23301
0.23301
0.23301
0.23301
0.23301
0.23301
0.23301
0.23301
0.23301
0.23301
0.23301
0.23301
0.23301
0.23301
0.23301
0.23301
0.23301
0.23301
0.23301
0.23301
0.23301
0.23301
0.23301
0.23301
0.23301
0.23301
0.23301
0.23301
0.233009
0.233004
0.232986
0.23295
0.232903
0.232871
0.232875
0.2329
0.232935
0.23297
0.233007
0.233
0.23301
0.233008
0.23301
0.23301
0.23301
0.23301
0.23301
0.23301
0.23301
0.23301
0.23301
0.23301
0.23301
0.23301
0.23301
0.23301
0.23301
0.23301
0.23301
0.23301
0.23301
0.23301
0.23301
0.23301
0.23301
0.23301
0.23301
0.23301
0.23301
0.23301
0.23301
0.23301
0.23301
0.23301
0.23301
0.23301
0.23301
0.23301
0.233008
0.232998
0.23296
0.232858
0.23269
0.232536
0.232488
0.232563
0.232671
0.232783
0.232976
0.232905
0.233004
0.23299
0.233009
0.233005
0.23301
0.233009
0.23301
0.23301
0.23301
0.23301
0.23301
0.23301
0.23301
0.23301
0.23301
0.23301
0.23301
0.23301
0.23301
0.23301
0.23301
0.23301
0.23301
0.23301
0.23301
0.23301
0.23301
0.23301
0.23301
0.23301
0.23301
0.23301
0.23301
0.23301
0.23301
0.23301
0.23301
0.23301
0.23301
0.23301
0.233008
0.232993
0.232929
0.232747
0.232413
0.232031
0.231797
0.231791
0.232008
0.232214
0.232718
0.232356
0.232944
0.232805
0.232994
0.232957
0.233005
0.232995
0.233009
0.233005
0.23301
0.233008
0.23301
0.233009
0.23301
0.23301
0.23301
0.23301
0.23301
0.23301
0.23301
0.23301
0.23301
0.23301
0.23301
0.23301
0.23301
0.23301
0.23301
0.23301
0.23301
0.23301
0.23301
0.23301
0.23301
0.23301
0.23301
0.23301
0.23301
0.23301
0.23301
0.23301
0.23301
0.23301
0.233007
0.23299
0.232903
0.232635
0.232154
0.231566
0.231082
0.230882
0.231018
0.231373
0.232001
0.23151
0.232495
0.232102
0.232846
0.232576
0.232961
0.232861
0.232993
0.232957
0.233004
0.232988
0.233008
0.233001
0.233009
0.233007
0.233009
0.23301
0.233009
0.233009
0.23301
0.23301
0.23301
0.23301
0.23301
0.23301
0.23301
0.23301
0.23301
0.23301
0.23301
0.23301
0.23301
0.23301
0.23301
0.23301
0.23301
0.23301
0.23301
0.23301
0.23301
0.23301
0.23301
0.23301
0.23301
0.23301
0.233007
0.232989
0.232888
0.232558
0.231925
0.231209
0.230542
0.230077
0.229952
0.230221
0.231061
0.230533
0.23166
0.231149
0.232194
0.231747
0.232613
0.232233
0.232854
0.232604
0.232943
0.232821
0.232979
0.232915
0.232997
0.232962
0.233006
0.232991
0.233005
0.233009
0.233004
0.233005
0.23301
0.23301
0.23301
0.23301
0.23301
0.23301
0.23301
0.23301
0.23301
0.23301
0.23301
0.23301
0.23301
0.23301
0.23301
0.23301
0.23301
0.23301
0.23301
0.23301
0.23301
0.23301
0.23301
0.23301
0.23301
0.23301
0.233008
0.232989
0.232884
0.232518
0.231792
0.230936
0.230228
0.229644
0.229244
0.229156
0.229354
0.23063
0.229934
0.231243
0.230675
0.231781
0.231268
0.232212
0.231743
0.232539
0.232116
0.232753
0.232404
0.232865
0.232638
0.232938
0.232793
0.232984
0.232909
0.232979
0.233006
0.232977
0.23298
0.23301
0.233008
0.23301
0.23301
0.23301
0.23301
0.23301
0.23301
0.23301
0.23301
0.23301
0.23301
0.23301
0.23301
0.23301
0.23301
0.23301
0.23301
0.23301
0.23301
0.23301
0.23301
0.23301
0.23301
0.23301
0.23301
0.233008
0.23299
0.232886
0.232515
0.231746
0.230969
0.230282
0.229642
0.229108
0.22867
0.228422
0.228927
0.228354
0.230065
0.229431
0.230696
0.230064
0.231213
0.230628
0.231616
0.231057
0.231932
0.231382
0.232191
0.231643
0.23246
0.231902
0.232699
0.23224
0.232879
0.232596
0.232859
0.232988
0.232853
0.232867
0.233009
0.232997
0.23301
0.23301
0.23301
0.23301
0.23301
0.23301
0.23301
0.23301
0.23301
0.23301
0.23301
0.23301
0.23301
0.23301
0.23301
0.23301
0.23301
0.23301
0.23301
0.23301
0.23301
0.23301
0.23301
0.23301
0.233008
0.23299
0.23289
0.232526
0.231773
0.231142
0.230652
0.229996
0.229311
0.228668
0.228173
0.228079
0.227936
0.228274
0.227972
0.229414
0.228808
0.229993
0.229328
0.230455
0.229815
0.230786
0.230158
0.231035
0.23039
0.231255
0.230574
0.231545
0.230792
0.231989
0.231155
0.232503
0.231743
0.232447
0.232898
0.232434
0.232482
0.233004
0.232939
0.23301
0.233008
0.23301
0.23301
0.23301
0.23301
0.23301
0.23301
0.23301
0.23301
0.23301
0.23301
0.23301
0.23301
0.23301
0.23301
0.23301
0.23301
0.23301
0.23301
0.23301
0.23301
0.23301
0.23301
0.233007
0.23299
0.232892
0.232543
0.23183
0.231338
0.231053
0.230787
0.230177
0.229173
0.228425
0.227941
0.22803
0.227865
0.22787
0.227894
0.227804
0.228701
0.228177
0.229163
0.228546
0.229517
0.228888
0.229737
0.229099
0.229882
0.229209
0.230027
0.229294
0.230286
0.229447
0.230768
0.22979
0.231549
0.230422
0.231441
0.232587
0.23143
0.231555
0.232977
0.232722
0.23301
0.232999
0.23301
0.23301
0.23301
0.23301
0.23301
0.23301
0.23301
0.23301
0.23301
0.23301
0.23301
0.23301
0.23301
0.23301
0.23301
0.23301
0.23301
0.23301
0.23301
0.23301
0.23301
0.23301
0.233007
0.232988
0.232888
0.232548
0.231881
0.231472
0.231319
0.231399
0.231459
0.230818
0.229461
0.228596
0.227936
0.228192
0.227817
0.227897
0.227728
0.227761
0.228052
0.227792
0.228318
0.227883
0.228508
0.228004
0.228585
0.228047
0.228613
0.228021
0.228675
0.228001
0.228885
0.228087
0.229353
0.228391
0.23016
0.228994
0.230016
0.231807
0.230001
0.230159
0.232862
0.232135
0.233008
0.232959
0.23301
0.23301
0.23301
0.23301
0.23301
0.23301
0.23301
0.23301
0.23301
0.23301
0.23301
0.23301
0.23301
0.23301
0.23301
0.23301
0.23301
0.23301
0.23301
0.23301
0.23301
0.233006
0.232982
0.232874
0.23254
0.231912
0.231558
0.231482
0.231772
0.232242
0.23216
0.231403
0.230228
0.228958
0.22979
0.228104
0.22852
0.227882
0.228155
0.227674
0.227853
0.227648
0.227612
0.227643
0.22745
0.227623
0.227335
0.227536
0.227184
0.227441
0.227003
0.227415
0.226862
0.227568
0.226869
0.227989
0.227121
0.228757
0.227678
0.228651
0.230517
0.228684
0.228881
0.232517
0.231074
0.232999
0.232825
0.23301
0.23301
0.23301
0.23301
0.23301
0.23301
0.23301
0.23301
0.23301
0.23301
0.23301
0.23301
0.23301
0.23301
0.23301
0.23301
0.23301
0.23301
0.23301
0.23301
0.233005
0.232975
0.23285
0.232509
0.231921
0.231611
0.231579
0.23196
0.232566
0.232707
0.232493
0.231951
0.230532
0.231544
0.229725
0.230516
0.228564
0.22907
0.228222
0.228677
0.227776
0.228226
0.227436
0.227528
0.227199
0.227205
0.226962
0.226877
0.226695
0.226524
0.226469
0.22624
0.226331
0.226062
0.226399
0.225921
0.226761
0.225964
0.227482
0.226459
0.227406
0.229253
0.227457
0.227593
0.228383
0.23179
0.229877
0.232968
0.232474
0.23301
0.23301
0.23301
0.23301
0.23301
0.23301
0.23301
0.23301
0.23301
0.23301
0.23301
0.23301
0.23301
0.23301
0.23301
0.23301
0.23301
0.23301
0.23301
0.233005
0.232969
0.232818
0.232463
0.231915
0.231644
0.231638
0.232046
0.232669
0.23288
0.232871
0.232723
0.232559
0.231389
0.232147
0.230546
0.231359
0.2292
0.229814
0.228759
0.229336
0.228076
0.22868
0.227306
0.227584
0.226892
0.226988
0.226474
0.226496
0.226137
0.22612
0.225956
0.225945
0.22579
0.225809
0.22559
0.225597
0.225636
0.225323
0.226258
0.22539
0.225816
0.226799
0.22616
0.227776
0.22886
0.227964
0.226916
0.226174
0.226182
0.227007
0.230775
0.228269
0.228593
0.229578
0.232775
0.231757
0.23301
0.23301
0.23301
0.23301
0.23301
0.23301
0.23301
0.23301
0.23301
0.23301
0.23301
0.23301
0.23301
0.23301
0.23301
0.23301
0.23301
0.23301
0.233006
0.232966
0.232788
0.232408
0.231897
0.231665
0.231679
0.232093
0.232701
0.232926
0.23297
0.232939
0.232855
0.232626
0.232753
0.232022
0.232414
0.231373
0.231925
0.229966
0.230662
0.229343
0.23003
0.228244
0.228928
0.22724
0.227668
0.226589
0.226807
0.226145
0.226216
0.225961
0.225998
0.225852
0.225918
0.225717
0.225902
0.225385
0.22548
0.225621
0.22582
0.225158
0.225089
0.22544
0.225384
0.225172
0.2253
0.225649
0.225149
0.224999
0.225581
0.227174
0.227408
0.226273
0.225579
0.225556
0.226392
0.229029
0.230509
0.229492
0.227707
0.228078
0.232495
0.230027
0.230627
0.231572
0.23301
0.23301
0.23301
0.23301
0.23301
0.23301
0.23301
0.23301
0.23301
0.23301
0.23301
0.23301
0.23301
0.23301
0.23301
0.23301
0.23301
0.233006
0.232967
0.232772
0.232353
0.23188
0.231683
0.231719
0.232138
0.232718
0.23294
0.232993
0.232993
0.232962
0.232832
0.232543
0.232597
0.232271
0.232462
0.231761
0.232082
0.230692
0.231292
0.229657
0.230362
0.228258
0.22896
0.227168
0.227651
0.226358
0.226592
0.226061
0.226155
0.225974
0.226033
0.226004
0.226007
0.225973
0.226092
0.226094
0.22606
0.225639
0.225871
0.226061
0.224946
0.225054
0.225658
0.225654
0.225311
0.224862
0.225088
0.224748
0.224809
0.225019
0.226575
0.226825
0.225647
0.224984
0.224988
0.225772
0.228519
0.229028
0.227148
0.227549
0.23131
0.232787
0.232217
0.229622
0.230324
0.233009
0.233009
0.233009
0.23301
0.23301
0.23301
0.23301
0.23301
0.23301
0.23301
0.23301
0.23301
0.23301
0.23301
0.23301
0.23301
0.233007
0.232971
0.232772
0.232321
0.231865
0.231702
0.231768
0.232203
0.232741
0.232947
0.232999
0.233005
0.232997
0.232952
0.23251
0.232758
0.232188
0.232283
0.232206
0.232191
0.231776
0.231788
0.230983
0.231473
0.229693
0.23037
0.22794
0.228583
0.226927
0.227376
0.226295
0.226477
0.226101
0.226215
0.225987
0.226008
0.225987
0.225874
0.225745
0.225621
0.226142
0.22613
0.226034
0.225857
0.225932
0.22613
0.226173
0.224937
0.225236
0.225978
0.226003
0.225629
0.224673
0.224646
0.224537
0.224808
0.224559
0.225963
0.226231
0.225039
0.224495
0.224464
0.225155
0.228026
0.228592
0.226582
0.22702
0.231271
0.23293
0.232404
0.229271
0.230143
0.233006
0.233005
0.233007
0.233009
0.23301
0.23301
0.23301
0.23301
0.23301
0.23301
0.23301
0.23301
0.23301
0.23301
0.23301
0.233008
0.232977
0.232778
0.232317
0.231867
0.231723
0.231832
0.232291
0.232774
0.232955
0.233001
0.233007
0.233006
0.232996
0.232923
0.232362
0.232701
0.231584
0.231871
0.231694
0.231576
0.231151
0.231015
0.23089
0.23115
0.229223
0.229758
0.227392
0.227835
0.22671
0.227011
0.226368
0.226526
0.226076
0.226234
0.225537
0.225485
0.22549
0.225548
0.225631
0.225398
0.225186
0.225019
0.226117
0.225924
0.225632
0.225287
0.226178
0.226203
0.226075
0.225137
0.225578
0.226211
0.22623
0.226005
0.224665
0.224406
0.224509
0.22501
0.224281
0.225347
0.22563
0.224483
0.224173
0.22409
0.224569
0.22755
0.228189
0.226012
0.226496
0.231313
0.232957
0.232551
0.228989
0.230042
0.232989
0.232991
0.233001
0.233007
0.233009
0.23301
0.23301
0.23301
0.23301
0.23301
0.23301
0.23301
0.23301
0.23301
0.233009
0.232988
0.232794
0.232324
0.231874
0.231749
0.231903
0.232395
0.232816
0.232965
0.233003
0.233009
0.233008
0.233006
0.232993
0.232871
0.232969
0.232319
0.232694
0.230997
0.231707
0.230791
0.230723
0.230052
0.229843
0.230071
0.230115
0.228268
0.228613
0.227215
0.227509
0.226718
0.226946
0.226473
0.226751
0.225546
0.225945
0.224915
0.224881
0.224918
0.225022
0.224939
0.224628
0.224386
0.224232
0.22577
0.225357
0.224889
0.224431
0.22621
0.226011
0.225605
0.225492
0.225974
0.226218
0.226213
0.226226
0.224853
0.224349
0.224673
0.225367
0.224186
0.224748
0.225035
0.224046
0.22403
0.223884
0.224063
0.227092
0.227826
0.225445
0.225981
0.231421
0.232987
0.232729
0.228761
0.230001
0.232939
0.232957
0.232989
0.233005
0.233009
0.23301
0.23301
0.23301
0.23301
0.23301
0.23301
0.23301
0.23301
0.233009
0.232995
0.23283
0.232345
0.231888
0.231777
0.231977
0.232495
0.232851
0.232976
0.233004
0.233009
0.23301
0.233009
0.233007
0.233004
0.232918
0.232983
0.232351
0.232737
0.230829
0.231691
0.229834
0.230104
0.228965
0.229095
0.228815
0.228896
0.227801
0.228062
0.227493
0.227752
0.226996
0.227238
0.226418
0.226885
0.224725
0.225036
0.225656
0.225296
0.224176
0.2242
0.224313
0.224493
0.224034
0.223736
0.223558
0.223503
0.225066
0.224484
0.223932
0.223472
0.225946
0.225443
0.224798
0.225898
0.226197
0.225897
0.225871
0.226201
0.225196
0.224475
0.22499
0.225774
0.224263
0.22419
0.224461
0.223776
0.22404
0.223814
0.223708
0.226654
0.227494
0.22489
0.225477
0.231637
0.233002
0.232859
0.228571
0.230031
0.232845
0.232904
0.232975
0.233002
0.233009
0.23301
0.23301
0.23301
0.23301
0.23301
0.23301
0.23301
0.23301
0.233001
0.232882
0.232394
0.231908
0.231797
0.23204
0.232573
0.23288
0.23298
0.233005
0.233009
0.23301
0.23301
0.233009
0.233009
0.233007
0.233009
0.232965
0.232999
0.232525
0.232846
0.230947
0.231882
0.229388
0.230007
0.22867
0.228971
0.228277
0.228464
0.22801
0.228259
0.228232
0.228616
0.227373
0.227821
0.225974
0.226374
0.226917
0.224603
0.224904
0.225546
0.22521
0.223578
0.223781
0.22404
0.224314
0.223146
0.222971
0.222959
0.223134
0.224113
0.223484
0.222982
0.222645
0.225318
0.224577
0.223803
0.226133
0.226166
0.225241
0.225217
0.225876
0.225598
0.224752
0.225369
0.226032
0.224487
0.223733
0.223931
0.223616
0.224195
0.223877
0.223472
0.226233
0.227181
0.224354
0.224986
0.231959
0.233008
0.232928
0.228405
0.230149
0.232741
0.232856
0.232967
0.233002
0.233008
0.23301
0.23301
0.23301
0.23301
0.23301
0.23301
0.23301
0.233005
0.232928
0.232482
0.23194
0.231808
0.232071
0.23262
0.23289
0.23298
0.233004
0.233009
0.23301
0.23301
0.23301
0.23301
0.23301
0.233009
0.23301
0.232996
0.233007
0.232793
0.232952
0.231476
0.232339
0.229502
0.230406
0.229104
0.229616
0.228504
0.228768
0.228979
0.229318
0.229072
0.229698
0.227671
0.228389
0.225901
0.226292
0.226781
0.227238
0.22476
0.225056
0.225656
0.225347
0.223419
0.22374
0.224087
0.224438
0.222502
0.222532
0.222766
0.223107
0.223111
0.222576
0.222236
0.222114
0.224423
0.223569
0.222816
0.226109
0.225873
0.224342
0.224335
0.225249
0.225888
0.225097
0.22568
0.22603
0.224782
0.223402
0.223483
0.223557
0.224419
0.224007
0.223301
0.225819
0.226866
0.223844
0.224509
0.232205
0.233009
0.232954
0.228243
0.23022
0.232654
0.232833
0.232967
0.233002
0.233009
0.23301
0.23301
0.23301
0.23301
0.23301
0.23301
0.233007
0.232962
0.232596
0.231999
0.231813
0.232072
0.232619
0.232884
0.232972
0.232999
0.233008
0.23301
0.23301
0.23301
0.23301
0.23301
0.23301
0.23301
0.23301
0.23301
0.233007
0.233009
0.23295
0.232995
0.232336
0.23279
0.230405
0.231443
0.230474
0.231123
0.229647
0.230004
0.230277
0.230783
0.229678
0.230416
0.227659
0.228136
0.228859
0.225995
0.22637
0.227026
0.227444
0.225291
0.225553
0.226027
0.225783
0.223536
0.224043
0.224533
0.224956
0.222159
0.222417
0.222812
0.223359
0.222251
0.2219
0.221784
0.221822
0.223414
0.222599
0.221993
0.225873
0.225313
0.223341
0.223347
0.224402
0.225906
0.225402
0.225747
0.225857
0.225053
0.223156
0.223138
0.22357
0.224632
0.224141
0.223181
0.225398
0.22651
0.223382
0.224026
0.232292
0.233009
0.232952
0.22803
0.230134
0.232598
0.232841
0.232973
0.233003
0.233009
0.23301
0.23301
0.23301
0.23301
0.23301
0.233008
0.232983
0.232717
0.232089
0.231817
0.232057
0.232592
0.232852
0.23295
0.232987
0.233004
0.233009
0.23301
0.23301
0.23301
0.23301
0.23301
0.23301
0.23301
0.23301
0.23301
0.233009
0.23301
0.232997
0.233007
0.232843
0.232961
0.231911
0.232528
0.232073
0.232453
0.231233
0.231659
0.231065
0.231616
0.229817
0.230233
0.230819
0.227868
0.228298
0.22946
0.229045
0.22631
0.226641
0.227458
0.227836
0.226093
0.226297
0.22662
0.226452
0.224003
0.224675
0.225287
0.225768
0.222065
0.222464
0.223037
0.22375
0.221624
0.221502
0.221524
0.221727
0.222454
0.221797
0.221396
0.225395
0.224519
0.222382
0.222381
0.223433
0.225778
0.225518
0.22564
0.225456
0.225205
0.222948
0.222852
0.223598
0.224766
0.22421
0.223095
0.224939
0.226126
0.222992
0.223543
0.232191
0.233007
0.232904
0.227704
0.229745
0.232579
0.232863
0.23298
0.233005
0.233009
0.23301
0.23301
0.23301
0.23301
0.233009
0.232993
0.232824
0.232221
0.231827
0.232009
0.232521
0.232771
0.232897
0.23296
0.232993
0.233006
0.233009
0.23301
0.23301
0.23301
0.23301
0.23301
0.23301
0.23301
0.23301
0.23301
0.23301
0.23301
0.23301
0.233007
0.233009
0.232976
0.232999
0.232747
0.23291
0.232686
0.232846
0.232071
0.232427
0.231405
0.231908
0.230133
0.230444
0.231055
0.231302
0.22823
0.228637
0.229811
0.229474
0.226839
0.227119
0.228118
0.228438
0.227034
0.227195
0.227419
0.2273
0.224571
0.225411
0.226157
0.22671
0.222076
0.222579
0.223245
0.224075
0.221261
0.221264
0.221423
0.22171
0.221657
0.221213
0.221057
0.224676
0.223586
0.221573
0.221543
0.222462
0.22547
0.225431
0.225405
0.224829
0.225161
0.222758
0.222605
0.223595
0.224759
0.224184
0.222998
0.224481
0.225712
0.222655
0.223095
0.231706
0.232933
0.232569
0.227223
0.228859
0.232596
0.232895
0.232989
0.233006
0.233009
0.23301
0.23301
0.23301
0.23301
0.232999
0.232904
0.232397
0.231862
0.231921
0.232418
0.23266
0.232791
0.232901
0.232965
0.232997
0.233008
0.23301
0.23301
0.23301
0.23301
0.23301
0.23301
0.23301
0.23301
0.23301
0.23301
0.23301
0.23301
0.23301
0.233009
0.233009
0.232998
0.233006
0.232935
0.232979
0.232806
0.232909
0.232308
0.232613
0.231488
0.231735
0.232041
0.23058
0.230825
0.231381
0.231533
0.228776
0.229126
0.230329
0.230072
0.227592
0.227828
0.229003
0.229259
0.22801
0.228183
0.228397
0.228288
0.225037
0.226048
0.226966
0.227652
0.222126
0.222708
0.22346
0.224389
0.221043
0.221165
0.221392
0.221736
0.22107
0.220892
0.220864
0.223805
0.222631
0.220964
0.220903
0.221611
0.22494
0.225253
0.225016
0.224047
0.224993
0.222569
0.222362
0.223503
0.224577
0.223972
0.222839
0.224037
0.225277
0.222363
0.222719
0.230463
0.231269
0.230775
0.226632
0.227755
0.23264
0.232928
0.232996
0.233008
0.23301
0.23301
0.23301
0.23301
0.233005
0.232955
0.232587
0.231947
0.231855
0.232291
0.232545
0.232661
0.232762
0.2329
0.232974
0.233003
0.233009
0.23301
0.23301
0.23301
0.23301
0.23301
0.23301
0.23301
0.23301
0.23301
0.23301
0.23301
0.23301
0.23301
0.233009
0.233009
0.233002
0.233007
0.232964
0.232991
0.232827
0.232924
0.232373
0.232648
0.231692
0.231846
0.232174
0.232001
0.231087
0.231234
0.231425
0.231541
0.229527
0.229804
0.23093
0.230769
0.22855
0.228757
0.230017
0.230209
0.228925
0.229163
0.229452
0.229312
0.22546
0.226589
0.227627
0.228434
0.222215
0.222842
0.223637
0.22462
0.220916
0.221116
0.221386
0.22177
0.220752
0.220703
0.220729
0.222925
0.221839
0.220632
0.220563
0.220991
0.224346
0.224961
0.224555
0.223379
0.224668
0.222343
0.222128
0.223238
0.224125
0.223385
0.22255
0.223624
0.224855
0.222107
0.222409
0.228207
0.229647
0.227796
0.226006
0.226736
0.232706
0.232954
0.233
0.233008
0.23301
0.23301
0.23301
0.233008
0.232984
0.23275
0.232098
0.231837
0.232132
0.232434
0.232523
0.232579
0.23275
0.232913
0.232987
0.233006
0.23301
0.23301
0.23301
0.23301
0.23301
0.23301
0.23301
0.23301
0.23301
0.23301
0.23301
0.23301
0.23301
0.23301
0.23301
0.233009
0.23301
0.233004
0.233008
0.232972
0.232995
0.232805
0.23292
0.232318
0.232598
0.231687
0.23184
0.231891
0.231664
0.231276
0.231336
0.231041
0.231128
0.230409
0.2306
0.231213
0.231179
0.229619
0.229815
0.23089
0.231009
0.229723
0.23002
0.230386
0.230216
0.225772
0.227026
0.228218
0.229142
0.222266
0.222901
0.223704
0.224704
0.220864
0.221091
0.221386
0.221784
0.220547
0.220537
0.220634
0.22228
0.221228
0.220395
0.220285
0.220559
0.223778
0.224471
0.223861
0.222707
0.223996
0.222107
0.221899
0.222672
0.223314
0.222603
0.222176
0.22326
0.224414
0.221883
0.222148
0.226848
0.231951
0.228062
0.22539
0.225967
0.232776
0.232973
0.233004
0.233009
0.23301
0.23301
0.233009
0.232994
0.232868
0.232314
0.23185
0.231981
0.232322
0.232396
0.232395
0.232519
0.232754
0.232936
0.232996
0.233008
0.23301
0.23301
0.23301
0.23301
0.23301
0.23301
0.23301
0.23301
0.23301
0.23301
0.23301
0.23301
0.23301
0.23301
0.23301
0.233009
0.23301
0.233005
0.233008
0.232974
0.232996
0.232551
0.23283
0.231536
0.231874
0.232072
0.231261
0.231451
0.231183
0.230844
0.231027
0.231002
0.230063
0.230113
0.231091
0.231147
0.23108
0.23114
0.230568
0.23074
0.231261
0.231255
0.230379
0.230738
0.231079
0.230937
0.22589
0.22721
0.228528
0.229633
0.22228
0.222902
0.223695
0.224695
0.220814
0.22105
0.221344
0.22173
0.220361
0.220394
0.220539
0.22146
0.220571
0.220222
0.220161
0.220246
0.222824
0.223478
0.222536
0.22148
0.222877
0.22183
0.221676
0.222107
0.222325
0.221927
0.221805
0.22287
0.223945
0.221701
0.221888
0.226409
0.232679
0.229657
0.224835
0.225457
0.232839
0.232987
0.233006
0.233009
0.23301
0.23301
0.233
0.232939
0.232552
0.231913
0.231879
0.232182
0.23229
0.232233
0.232274
0.232499
0.232794
0.232961
0.233004
0.233009
0.23301
0.23301
0.23301
0.23301
0.23301
0.23301
0.23301
0.23301
0.23301
0.23301
0.23301
0.23301
0.23301
0.23301
0.23301
0.233009
0.23301
0.233004
0.233008
0.232951
0.232993
0.231779
0.232526
0.230572
0.231084
0.231294
0.230656
0.230282
0.230537
0.23008
0.229622
0.2302
0.230095
0.228758
0.228756
0.23124
0.231207
0.230383
0.230567
0.23118
0.231244
0.231214
0.231109
0.230653
0.231056
0.231311
0.231244
0.225883
0.227219
0.228589
0.22979
0.222195
0.222769
0.223506
0.224403
0.22073
0.220966
0.221233
0.221562
0.220213
0.220271
0.220421
0.220512
0.220226
0.220089
0.219881
0.220084
0.221392
0.222119
0.221282
0.22058
0.221761
0.221548
0.221435
0.221715
0.221721
0.221577
0.221527
0.222489
0.22348
0.221489
0.221654
0.226694
0.232851
0.230337
0.224383
0.225333
0.23289
0.232995
0.233008
0.23301
0.23301
0.233006
0.232978
0.232745
0.23208
0.231845
0.232021
0.232196
0.232108
0.232061
0.232205
0.232505
0.232855
0.232986
0.233007
0.23301
0.23301
0.23301
0.23301
0.23301
0.23301
0.23301
0.23301
0.23301
0.23301
0.23301
0.23301
0.23301
0.23301
0.23301
0.23301
0.23301
0.233009
0.23301
0.233001
0.233008
0.23286
0.232972
0.230478
0.230462
0.231264
0.231963
0.229434
0.230051
0.229779
0.228916
0.229225
0.228836
0.228292
0.229008
0.228832
0.227388
0.22738
0.230942
0.230778
0.229241
0.229504
0.231316
0.231293
0.230611
0.230341
0.230599
0.231013
0.231138
0.231144
0.225514
0.226841
0.228267
0.22959
0.221944
0.222395
0.222883
0.223576
0.220628
0.220843
0.221077
0.221335
0.220099
0.220195
0.220285
0.220285
0.22012
0.21985
0.219876
0.219926
0.22077
0.221324
0.220955
0.220479
0.22143
0.22135
0.221228
0.221489
0.221494
0.221436
0.221348
0.222149
0.223085
0.221292
0.221482
0.227063
0.232986
0.231808
0.224114
0.225386
0.232929
0.233001
0.233009
0.23301
0.233008
0.232992
0.232872
0.232344
0.231865
0.231894
0.23209
0.232027
0.231895
0.231928
0.232183
0.232578
0.232915
0.232999
0.233009
0.23301
0.23301
0.23301
0.23301
0.23301
0.23301
0.23301
0.23301
0.23301
0.23301
0.23301
0.23301
0.23301
0.23301
0.23301
0.23301
0.23301
0.233009
0.23301
0.232993
0.233007
0.232669
0.232927
0.229765
0.230012
0.230736
0.231375
0.22837
0.229066
0.229017
0.227512
0.227838
0.227711
0.227115
0.22762
0.227465
0.226073
0.226125
0.230069
0.229786
0.227832
0.228093
0.231018
0.230828
0.229432
0.22908
0.229779
0.230323
0.230364
0.230417
0.224544
0.225763
0.227154
0.228583
0.221629
0.221968
0.222343
0.222696
0.220514
0.220699
0.220878
0.221155
0.219862
0.219916
0.219666
0.220327
0.219463
0.219455
0.21948
0.219452
0.220707
0.221164
0.22082
0.220525
0.221234
0.221215
0.221076
0.22137
0.221251
0.221188
0.221225
0.221868
0.22278
0.221162
0.221298
0.227873
0.233004
0.232489
0.223977
0.225562
0.232956
0.233004
0.233009
0.233009
0.232998
0.232944
0.232605
0.231954
0.231829
0.231963
0.231975
0.231787
0.231709
0.231858
0.232204
0.232701
0.232965
0.233006
0.23301
0.23301
0.23301
0.23301
0.23301
0.23301
0.23301