/*--------------------------------*- C++ -*----------------------------------*\
  =========                 |
  \\      /  F ield         | OpenFOAM: The Open Source CFD Toolbox
   \\    /   O peration     | Website:  https://openfoam.org
    \\  /    A nd           | Version:  dev
     \\/     M anipulation  |
\*---------------------------------------------------------------------------*/
FoamFile
{
    version     2.0;
    format      ascii;
    class       volScalarField;
    location    "2500";
    object      omega;
}
// * * * * * * * * * * * * * * * * * * * * * * * * * * * * * * * * * * * * * //

dimensions      [0 0 -1 0 0 0 0];

internalField   nonuniform List<scalar> 
9842
(
1.22008
1.24458
1.19012
1.1734
1.33347
1.08685
1.07791
1.3494
1.27403
1.02379
1.03032
1.3179
1.34602
1.14415
1.00668
1.00596
1.23316
1.37248
1.27623
1.05226
1.00021
0.992286
1.13005
1.36443
1.34447
1.14979
1.01533
0.995641
0.982065
1.06284
1.32958
1.36876
1.25331
1.06067
0.999246
0.991916
0.975774
1.02001
1.25477
1.37428
1.32404
1.13418
1.01726
0.990482
0.989649
0.97251
0.992268
1.16538
1.36386
1.35634
1.21788
1.05595
0.996311
0.982985
0.988631
0.971459
0.97688
1.08354
1.33186
1.36776
1.28976
1.1105
1.01538
0.984154
0.976928
0.98827
0.97212
0.968765
1.03213
1.27107
1.36973
1.33309
1.17756
1.04517
0.991638
0.975181
0.972938
0.98802
0.973572
0.963647
0.999372
1.18826
1.36246
1.3542
1.24565
1.0853
1.00904
0.977253
0.967241
0.970749
0.987766
0.975126
0.960312
0.980942
1.10351
1.3372
1.36215
1.29916
1.14058
1.03012
0.985234
0.967209
0.961001
0.969318
0.987657
0.976647
0.958506
0.969846
1.04846
1.28486
1.36785
1.33232
1.20057
1.06146
0.998035
0.969654
0.958208
0.957367
0.968212
0.98764
0.977974
0.958063
0.963398
1.01285
1.20825
1.36337
1.35193
1.25705
1.10413
1.01457
0.976803
0.958634
0.950832
0.95474
0.967441
0.987677
0.979072
0.95854
0.96018
0.991169
1.12641
1.34277
1.36117
1.30088
1.15848
1.03745
0.986937
0.961234
0.949333
0.946064
0.952686
0.966931
0.987741
0.980177
0.959635
0.959029
0.978939
1.06778
1.29549
1.36665
1.33111
1.21183
1.07288
0.999253
0.967647
0.94997
0.941337
0.942503
0.951127
0.966647
0.987824
0.981422
0.961674
0.958948
0.972269
1.03199
1.22608
1.36309
1.34933
1.26083
1.11796
1.01806
0.975599
0.952722
0.940635
0.935674
0.939672
0.949986
0.966552
0.987905
0.98261
0.963838
0.958851
0.968634
1.01002
1.14992
1.34546
1.36013
1.29986
1.17058
1.04487
0.985884
0.958378
0.941471
0.932376
0.931446
0.937494
0.949171
0.966596
0.988005
0.98372
0.965773
0.959029
0.966357
0.996953
1.09098
1.30392
1.36734
1.3302
1.21864
1.08431
1.00024
0.964752
0.944542
0.932276
0.925975
0.92806
0.93588
0.948679
0.966735
0.988116
0.984754
0.96779
0.959373
0.964749
0.989345
1.05397
1.24126
1.36536
1.34997
1.26331
1.13018
1.02219
0.972871
0.949246
0.933395
0.923975
0.921237
0.925456
0.934656
0.948479
0.966928
0.988243
0.98554
0.970211
0.959927
0.963595
0.983641
1.03175
1.16917
1.35135
1.36219
1.30089
1.18044
1.05327
0.984276
0.954487
0.936589
0.924214
0.917043
0.91749
0.92352
0.933827
0.948513
0.967142
0.988381
0.986117
0.972614
0.960883
0.96294
0.978822
1.01875
1.11173
1.31596
1.37279
1.33232
1.22503
1.09578
1.00167
0.960967
0.940562
0.925722
0.91628
0.911838
0.914582
0.922136
0.933424
0.948727
0.967369
0.988533
0.986704
0.974427
0.96208
0.962791
0.975554
1.0103
1.07486
1.25769
1.37286
1.35536
1.26784
1.142
1.02814
0.970906
0.945183
0.928991
0.916848
0.909325
0.907958
0.912412
0.921219
0.933431
0.949063
0.967634
0.988668
0.987337
0.975752
0.9633
0.962981
0.973254
1.00378
1.052
1.18754
1.36265
1.36944
1.30617
1.19055
1.0644
0.985494
0.951441
0.932839
0.918888
0.909383
0.903738
0.904996
0.910948
0.920767
0.933734
0.949486
0.967889
0.988804
0.987957
0.976826
0.964508
0.962874
0.971461
0.998289
1.03845
1.1313
1.33295
1.38403
1.33918
1.23402
1.10933
1.00818
0.960357
0.937674
0.922691
0.910553
0.903049
0.89966
0.90284
0.910163
0.920857
0.934229
0.949977
0.968062
0.988931
0.98848
0.977631
0.965723
0.962084
0.969761
0.993278
1.02996
1.095
1.28043
1.38712
1.3661
1.27617
1.15617
1.03987
0.974104
0.944266
0.927263
0.91375
0.903716
0.897893
0.89682
0.901503
0.910028
0.921488
0.935052
0.950612
0.968266
0.989101
0.988833
0.97795
0.966898
0.961187
0.968013
0.989003
1.02347
1.07158
1.21292
1.38091
1.38274
1.31688
1.20335
1.08036
0.993708
0.953732
0.933045
0.918553
0.906054
0.898302
0.89415
0.894997
0.901081
0.910581
0.922438
0.936115
0.951154
0.968307
0.989234
0.98906
0.97775
0.967568
0.960355
0.966253
0.985442
1.01766
1.05644
1.15595
1.35971
1.40143
1.35145
1.24706
1.12633
1.02181
0.967095
0.940781
0.924822
0.911281
0.900348
0.894369
0.891797
0.894194
0.901653
0.911856
0.923853
0.937351
0.951617
0.968153
0.989269
0.989175
0.97725
0.967563
0.959317
0.96461
0.982105
1.0126
1.04638
1.11798
1.31533
1.41176
1.38264
1.28851
1.17331
1.0575
0.985803
0.951609
0.932582
0.918522
0.905458
0.89628
0.89199
0.890987
0.894368
0.903073
0.91377
0.92592
0.93884
0.952111
0.967977
0.989261
0.989201
0.976585
0.966966
0.958096
0.962864
0.978888
1.00781
1.03894
1.09177
1.25285
1.40994
1.40445
1.33165
1.21886
1.10032
1.01058
0.965912
0.942677
0.927226
0.91352
0.901385
0.894158
0.891356
0.891781
0.89592
0.905091
0.916501
0.928717
0.940811
0.95265
0.967654
0.98945
0.989166
0.975707
0.965806
0.956891
0.960998
0.975738
1.00259
1.03292
1.07368
1.19122
1.3976
1.42656
1.37003
1.26294
1.14615
1.04251
0.984574
0.955397
0.93814
0.923947
0.910867
0.900158
0.89416
0.892618
0.894755
0.899786
0.908227
0.919663
0.931865
0.94328
0.9539
0.968167
0.990338
0.98899
0.974537
0.964436
0.95556
0.959191
0.972554
0.997699
1.02677
1.06072
1.148
1.36646
1.44695
1.40552
1.30455
1.1927
1.08063
1.00765
0.971392
0.951481
0.936978
0.92354
0.911415
0.901795
0.896717
0.896546
0.900038
0.906033
0.914045
0.924332
0.935292
0.945266
0.954305
0.969193
0.996567
0.988304
0.988639
0.973193
0.963009
0.953832
0.95722
0.969115
0.993205
1.02057
1.05094
1.11696
1.31299
1.45174
1.43593
1.34991
1.23709
1.12362
1.03623
0.99063
0.9672
0.95257
0.93975
0.927235
0.916108
0.907236
0.903101
0.903814
0.907889
0.914466
0.922975
0.932457
0.941662
0.949406
0.957052
0.97851
0.968944
0.997366
0.990381
0.988146
0.971916
0.961528
0.952025
0.954704
0.9652
0.987917
1.01473
1.04279
1.0944
1.248
1.44687
1.46082
1.39465
1.28149
1.16897
1.06951
1.01359
0.98537
0.970516
0.958933
0.947727
0.936901
0.926856
0.91882
0.915064
0.915491
0.919045
0.92571
0.934161
0.942898
0.950449
0.954401
0.95511
0.962469
0.957186
0.96119
0.980967
0.971917
0.998404
0.993164
0.987589
0.970753
0.960079
0.950326
0.95151
0.960939
0.98152
1.00808
1.03559
1.07766
1.19265
1.4294
1.48777
1.43463
1.32509
1.21411
1.10835
1.03922
1.00615
0.9899
0.980738
0.972507
0.964637
0.956507
0.947805
0.93996
0.935402
0.933832
0.936175
0.94216
0.948772
0.955047
0.957142
0.960733
0.958663
0.966522
0.962135
0.966473
0.984638
0.976202
0.999703
0.997238
0.987064
0.969715
0.958806
0.948565
0.947996
0.956133
0.974258
0.999929
1.0283
1.06465
1.15427
1.38897
1.50528
1.47289
1.37149
1.25853
1.14956
1.06854
1.02893
1.01051
1.00394
1.00088
0.99971
0.999092
0.99673
0.992413
0.985637
0.977291
0.9701
0.966662
0.966557
0.967509
0.965471
0.972694
0.962937
0.968832
0.965017
0.972465
0.968261
0.973136
0.990118
0.982446
1.00177
1.00215
0.986634
0.968992
0.957833
0.946543
0.944345
0.950604
0.966366
0.990612
1.01951
1.05353
1.12575
1.33128
1.50606
1.50324
1.42208
1.30243
1.19325
1.10111
1.05271
1.03243
1.02737
1.03105
1.04217
1.06509
1.0966
1.1277
1.14183
1.13355
1.10323
1.06396
1.03022
1.00364
0.979903
0.990689
0.977083
0.985158
0.971592
0.979743
0.973506
0.980773
0.976444
0.982391
0.998404
0.991895
1.00522
1.00968
0.986387
0.968797
0.957143
0.944386
0.940189
0.943893
0.957738
0.980611
1.00916
1.04303
1.10361
1.2705
1.49859
1.53219
1.46873
1.34787
1.23644
1.13775
1.07796
1.05473
1.0497
1.06028
1.09117
1.17015
1.33573
1.56527
1.77015
1.85827
1.78454
1.60461
1.39248
1.193
1.01095
1.05172
0.996376
1.01141
0.990094
1.0009
0.982597
0.993278
0.984882
0.991965
0.987759
0.994914
1.00857
1.00518
1.00978
1.02061
0.986441
0.969229
0.956705
0.942333
0.93489
0.935976
0.948784
0.969892
0.998156
1.03239
1.08529
1.21586
1.4756
1.55971
1.511
1.39536
1.28015
1.17685
1.10569
1.07672
1.07105
1.0862
1.14
1.31859
1.7881
2.63067
3.55184
4.18506
4.18615
3.76587
3.03001
2.27866
1.16609
1.50051
1.04249
1.1195
1.01623
1.04469
1.00542
1.0206
0.997274
1.01052
1.00044
1.00642
1.00389
1.01185
1.02191
1.02234
1.01579
1.03489
0.987309
0.970702
0.956696
0.940101
0.928357
0.926821
0.939276
0.958651
0.986734
1.02142
1.06907
1.17659
1.43478
1.57241
1.54933
1.4481
1.32413
1.21742
1.13621
1.09844
1.09053
1.10842
1.18384
1.48577
2.37639
4.04367
5.99772
7.23818
7.58869
7.3851
6.86393
6.01742
2.46974
4.9262
1.35533
2.0958
1.11327
1.32438
1.04941
1.11719
1.02652
1.05714
1.01577
1.0332
1.02044
1.02534
1.02566
1.03456
1.04008
1.04316
1.02399
1.05301
0.989092
0.973567
0.957333
0.93761
0.921037
0.916628
0.928918
0.947228
0.974856
1.01023
1.05554
1.14564
1.37943
1.57192
1.58031
1.50215
1.37034
1.25976
1.16891
1.12085
1.10805
1.12592
1.21988
1.64932
2.97382
5.42555
7.70308
8.65799
8.97493
9.11743
9.15717
9.17157
7.51094
9.34594
4.22215
7.35847
1.9866
3.88141
1.32455
1.97478
1.13136
1.36067
1.06756
1.15588
1.04004
1.07991
1.047
1.05002
1.05499
1.06706
1.06304
1.06948
1.03499
1.07612
0.992016
0.977163
0.958782
0.934831
0.91349
0.906216
0.918436
0.935841
0.962658
0.998926
1.04499
1.12102
1.32095
1.56346
1.61038
1.54905
1.41913
1.30203
1.20497
1.14503
1.12506
1.13934
1.24376
1.7723
3.46517
6.4754
8.50079
9.09761
9.2867
9.39815
9.73944
10.254
10.1467
10.8218
9.37258
10.4018
7.15521
9.40017
3.76749
7.12409
2.07289
3.93843
1.43918
2.29587
1.19148
1.56711
1.09362
1.23673
1.10574
1.0833
1.11674
1.12725
1.091
1.10299
1.04983
1.10505
0.996268
0.981863
0.960856
0.931828
0.905869
0.8964
0.908575
0.925062
0.950559
0.987261
1.03577
1.10072
1.26743
1.53965
1.63673
1.5926
1.47189
1.34603
1.24267
1.17173
1.14315
1.1503
1.25696
1.84438
3.80955
7.13567
8.83264
9.17205
9.14512
9.15847
9.52202
10.1735
10.8859
10.9405
11.003
11.2184
10.6095
11.2621
9.57202
10.9164
7.39206
9.95391
4.42524
8.01012
2.67038
5.24832
1.74346
3.18415
1.28709
1.95197
1.32579
1.13764
1.34446
1.33423
1.12428
1.15102
1.06957
1.13803
1.00549
0.98841
0.964024
0.928842
0.899219
0.88799
0.899207
0.915489
0.939318
0.975942
1.02715
1.08549
1.21771
1.49845
1.6461
1.63007
1.52993
1.39188
1.28304
1.20141
1.16298
1.16183
1.26227
1.8754
4.02234
7.48522
8.92019
9.08185
8.74212
8.60736
8.9103
9.56828
10.4865
11.2728
11.1472
11.5615
11.6196
11.636
11.967
11.3772
12.1225
10.5836
12.0063
8.96267
11.4512
6.35304
10.1376
3.79505
7.60042
2.16125
4.42654
2.30151
1.30095
2.33811
2.24855
1.16591
1.26475
1.09489
1.1717
1.02659
1.00112
0.969539
0.92665
0.89422
0.881703
0.890766
0.906878
0.929462
0.965236
1.01761
1.07383
1.18151
1.44782
1.64432
1.66163
1.5855
1.4413
1.32547
1.23513
1.18621
1.17651
1.26888
1.89031
4.14231
7.63374
8.88624
8.92417
8.33282
8.29668
8.50172
9.02818
9.83469
10.8444
10.5636
11.522
11.1916
12.0222
11.9311
12.4598
12.4826
12.7323
13.0333
12.7589
13.4404
12.4525
13.5901
11.3828
13.4455
8.87194
12.5237
4.98566
9.97293
5.28914
2.04434
5.30879
5.03106
1.23925
1.77611
1.12498
1.20919
1.0736
1.02741
0.978485
0.926268
0.891373
0.878326
0.884301
0.898901
0.92115
0.955219
1.00768
1.06418
1.15258
1.38872
1.63418
1.6917
1.63341
1.49481
1.3691
1.27367
1.21444
1.19736
1.28526
1.92426
4.23881
7.6904
8.8118
8.7366
8.03876
8.04642
8.31473
8.88979
9.75107
10.5289
10.5457
11.1391
11.1583
11.6369
11.3006
12.3785
12.0893
13.0163
12.8851
13.6601
13.6161
14.1711
14.3278
14.4227
14.877
14.3378
15.166
13.4845
15.0773
10.7511
14.2374
11.1281
4.44203
11.0859
10.5319
1.5176
3.61429
1.14857
1.32182
1.17196
1.1003
1.00235
0.927502
0.890895
0.877973
0.88078
0.892797
0.91407
0.946943
0.998801
1.05586
1.12923
1.33116
1.60719
1.71356
1.67697
1.55419
1.41545
1.31452
1.24834
1.22582
1.32234
2.00687
4.40999
7.74637
8.71799
8.56748
7.84289
7.59474
8.13593
8.89244
9.86532
10.6154
10.7867
11.2478
11.3694
11.8526
12.0251
11.808
11.7885
12.5853
12.4489
13.454
13.2364
14.2893
14.1633
15.0528
15.0955
15.5946
15.8752
15.8477
16.3844
15.6968
16.5399
14.7816
16.2795
15.1804
9.3893
15.4341
15.397
2.6782
7.71381
1.14579
1.86076
1.21895
1.23557
1.07792
0.940999
0.892995
0.880475
0.88043
0.889867
0.909666
0.942593
0.99187
1.04906
1.1117
1.27588
1.56523
1.71752
1.71147
1.61651
1.46506
1.35749
1.28584
1.26194
1.38171
2.18063
4.71267
7.84799
8.65075
8.42471
7.73824
7.21922
7.51805
8.57584
9.7578
10.9366
11.5217
11.5316
12.2376
12.2982
12.8984
13.1559
12.487
12.6386
13.2188
13.2896
14.1136
14.1414
15.1304
15.2133
16.1174
16.4009
16.8781
17.3906
17.2806
18.0491
17.2468
18.2057
16.8256
17.9376
17.2961
14.8569
17.6102
17.692
5.71503
13.3579
1.27076
3.62612
1.26184
1.2122
1.00212
0.901984
0.885946
0.883545
0.890716
0.909323
0.942716
0.988203
1.04536
1.1009
1.23081
1.5143
1.71363
1.74108
1.67116
1.51875
1.40044
1.32584
1.30225
1.46457
2.43206
5.15813
8.0029
8.60654
8.32751
7.69072
7.15615
6.8415
7.26121
8.76702
10.1508
11.5197
11.0653
12.1935
11.8778
13.1303
12.8934
14.0406
13.9231
13.494
13.8453
14.2548
14.4662
15.3275
15.4447
16.6238
16.7975
17.8919
18.33
18.8306
19.5929
19.2412
20.3417
19.0375
20.3068
18.5258
19.7232
18.9427
17.5791
19.2028
19.3108
10.7213
17.0509
1.95464
7.29743
1.2167
1.14107
0.939874
0.896807
0.891992
0.897881
0.915667
0.948323
0.988762
1.04547
1.09833
1.20211
1.4645
1.69948
1.76726
1.7174
1.5772
1.44418
1.36626
1.34303
1.55218
2.75127
5.67997
8.18725
8.58523
8.22725
7.70573
7.20452
6.55724
5.69707
6.32905
8.05573
10.4459
9.57005
11.5555
10.8906
12.4621
11.9968
13.5384
13.0214
14.6298
14.1639
14.7541
14.809
15.594
15.6441
16.8824
16.8633
18.6086
18.6297
20.2942
20.8194
21.4602
22.5706
21.8086
23.4743
21.1723
23.123
20.251
21.8562
20.5648
19.2324
20.7854
20.8897
20.0166
15.4418
18.9019
3.57836
12.3511
1.1934
1.05702
0.92887
0.910989
0.91898
0.935667
0.962407
0.996125
1.04878
1.09931
1.18717
1.41862
1.66919
1.78009
1.75607
1.64089
1.49087
1.40498
1.38082
1.61691
3.06942
6.20758
8.3707
8.58188
8.15083
7.75977
7.36913
6.53085
4.95674
4.83828
5.83609
7.23332
10.0375
8.60673
11.172
10.1852
12.4739
11.8855
13.554
12.8176
14.7355
14.0018
15.5669
15.2586
16.7567
16.4892
18.5497
18.3064
20.9623
20.8877
23.4603
23.9989
25.1445
26.5018
25.4767
27.8356
24.1692
27.2567
22.3306
24.9861
23.4452
21.5435
22.6055
20.8781
19.8667
20.8607
21.7025
22.8495
22.724
21.7772
18.2167
20.7225
20.5534
19.4191
8.5662
17.1095
1.16361
1.01943
0.955131
0.964064
0.97339
0.990048
1.01646
1.05792
1.10663
1.1849
1.37864
1.63147
1.7796
1.78447
1.70128
1.54088
1.44288
1.41461
1.64508
3.27774
6.66613
8.53936
8.5906
8.11744
7.85017
7.59437
6.61618
4.68757
4.14108
4.60219
5.595
7.28335
6.53181
8.93575
7.91033
10.0247
8.89986
12.0438
11.1618
13.0665
12.0215
14.5153
13.5531
15.9869
15.3279
17.7676
17.0496
20.6132
19.9931
24.0285
23.8178
27.3467
27.5976
29.5791
30.4607
28.4404
29.9173
30.7396
31.5387
26.541
28.5574
30.7928
31.7307
30.0647
25.3245
23.8014
25.6208
27.1392
24.0147
21.7795
21.7
22.8529
24.2081
24.1425
22.8808
20.2559
18.5829
19.9099
21.5511
21.2943
13.3145
19.4534
19.157
18.1619
1.17519
1.05018
1.03406
1.0275
1.02808
1.04477
1.07905
1.13006
1.18815
1.34905
1.58974
1.77273
1.80869
1.74969
1.59571
1.47871
1.44592
1.64306
3.32148
6.99773
8.69952
8.61689
8.12792
7.93209
7.77717
6.75742
4.61308
3.81781
3.98057
4.54882
5.75198
7.30059
6.97238
8.19312
7.71402
8.95229
8.34535
10.9188
9.82784
12.4343
11.2973
14.4315
13.4178
16.2393
15.3635
19.1181
18.1494
23.2921
22.4087
27.3789
26.8299
30.6244
30.3492
31.7707
31.9915
31.9952
32.0086
31.7958
32.3734
32.6109
29.0797
30.8632
32.586
33.1844
32.2547
27.5112
25.7014
27.7435
29.5624
25.8473
22.8399
22.7174
24.2503
25.9325
25.9793
24.2302
20.9514
20.4986
22.4966
22.1631
19.6973
14.378
20.1133
20.0481
19.8183
1.19354
1.2002
1.16036
1.11039
1.0949
1.10962
1.15927
1.20337
1.3347
1.55073
1.75367
1.82593
1.78988
1.65622
1.51639
1.47267
1.63004
3.29249
7.14561
8.8642
8.67421
8.16076
8.01569
7.91505
6.8377
4.61518
3.64988
3.63605
3.97061
4.67032
7.30908
6.13568
8.16779
7.90717
8.14606
8.18415
8.83934
8.88451
10.2021
9.31967
12.2997
11.2561
15.2155
14.2889
17.1603
16.1765
21.3632
20.2512
25.9362
24.8289
29.7403
28.7698
31.9965
31.9724
31.9222
31.7515
32.6881
32.7282
32.8296
32.9986
33.074
33.2245
33.2663
31.4061
32.8122
33.5929
34.0111
33.6828
29.8986
27.9165
30.1289
31.8255
28.031
24.1287
23.9186
25.9751
28.0864
28.0983
25.8848
21.7199
21.2034
23.5879
23.1378
20.085
10.6442
19.5352
20.7704
20.7548
1.48544
1.56502
1.398
1.2378
1.17923
1.19631
1.23466
1.33509
1.5235
1.72125
1.82854
1.81865
1.71952
1.55901
1.49563
1.6019
3.1819
7.15086
9.03063
8.76705
8.21517
8.08797
8.00846
6.85546
4.62375
3.5597
3.41636
3.60568
4.02647
5.10466
8.25107
6.76958
9.49078
9.27318
9.20139
9.47227
10.2295
10.5366
10.3972
10.17
13.3524
12.6883
17.0902
16.1881
19.1432
18.0771
23.6289
22.4534
27.5967
26.2278
31.5227
31.0653
30.5669
29.7927
33.244
33.4847
33.6328
33.6126
33.366
33.6273
34.0918
34.7088
33.6969
33.7373
33.9212
33.2701
34.1103
34.0625
34.3401
34.3553
32.1279
30.2899
32.3409
33.6348
30.3907
25.6819
25.3369
28.0341
30.4389
30.4383
27.8543
22.5948
22.0355
24.8536
24.2645
21.1479
9.39346
18.6404
21.698
21.8859
2.2356
2.30105
1.77504
1.4093
1.28617
1.28512
1.34548
1.51207
1.69081
1.82451
1.83718
1.77126
1.60699
1.51714
1.57846
2.90812
7.07395
9.18771
8.9061
8.2797
8.15363
8.02706
6.81633
4.60476
3.5306
3.26078
3.34349
3.59487
4.09096
5.84982
4.79382
8.74562
6.94955
10.9052
10.3877
10.8462
10.9561
12.2593
12.2947
12.3585
12.2529
15.4717
14.9365
19.3413
18.4759
21.3308
20.29
24.8702
23.5859
29.1409
27.2734
33.3712
32.8925
32.1956
31.3571
35.3651
35.9157
36.2074
36.1784
34.4081
35.2297
36.3047
37.4457
34.1016
34.3929
35.1447
34.4607
34.6637
34.369
34.5669
34.5798
33.9032
32.502
34.1096
34.7476
32.6217
27.5132
26.9935
30.3377
32.7121
32.7629
30.0841
23.6214
23.0552
26.3307
25.591
22.3722
6.23694
17.4701
22.837
23.2231
3.20676
3.13512
2.19585
1.5758
1.39789
1.38221
1.51169
1.66949
1.81199
1.85131
1.80809
1.66165
1.53922
1.56489
2.51567
6.83351
9.32017
9.08829
8.35865
8.20334
8.0164
6.7125
4.53071
3.53454
3.17884
3.14871
3.29647
3.55617
4.02917
5.61153
4.7171
8.82954
6.98946
12.0245
10.855
12.3076
12.2792
13.952
13.7272
14.5396
14.2184
17.7195
17.0962
20.7447
20.0434
22.4823
21.5383
25.5188
24.0148
31.7443
30.3358
27.8929
29.197
35.7966
35.0741
34.0911
32.9382
38.4452
39.1141
39.2986
39.0154
36.3826
37.9433
39.5886
41.0515
34.7822
35.8204
37.5007
34.9362
34.7914
35.0945
35.3628
34.7442
34.9873
34.2912
35.2132
35.1904
34.4488
29.5971
28.8921
32.7168
34.635
34.84
32.4567
24.8517
24.2773
28.0618
27.1754
23.9829
4.1531
15.7828
24.1722
24.8929
3.92903
3.67564
2.51073
1.70721
1.48866
1.52661
1.66154
1.79244
1.85871
1.83533
1.71879
1.56673
1.5591
2.17057
6.21853
9.40793
9.28973
8.45608
8.24062
7.99392
6.59615
4.52024
3.55007
3.16393
3.03166
3.06257
3.19456
3.4401
4.17275
3.70089
5.45307
4.60369
8.63776
6.73337
12.5745
10.8514
13.5869
13.3314
15.4072
14.925
16.5335
15.9624
19.3561
18.6332
20.9859
20.2665
22.7733
21.7559
26.8597
25.7459
24.4909
32.6959
31.2429
28.6576
29.9178
38.2631
37.1148
35.732
34.2247
42.1029
42.5339
42.3851
41.5898
39.5552
41.6765
43.5749
45.0189
36.4558
38.5531
41.0741
35.0145
34.9506
37.001
37.4562
35.6145
35.4521
35.4283
35.719
35.2923
35.6586
31.8719
31.0453
34.9888
35.9702
36.4121
34.8359
26.3163
25.6936
30.1024
29.0732
25.727
3.00503
14.2898
25.748
27.0173
4.33624
3.92572
2.65456
1.77915
1.59708
1.66885
1.78229
1.85817
1.8542
1.77138
1.59904
1.55647
1.91624
5.25287
9.41333
9.51414
8.58391
8.27359
7.99401
6.58608
4.57034
3.60356
3.17872
2.99288
2.8656
2.89263
3.06409
3.30392
3.95715
3.61244
5.08298
4.42807
7.88086
6.17303
12.5231
10.2252
14.4898
13.8416
16.3125
15.5477
17.8795
17.102
19.5218
18.7065
20.148
18.9888
22.7845
21.4105
27.4758
26.3271
25.707
24.5643
33.0003
31.5175
29.0743
30.233
40.2579
38.5365
36.6203
34.7039
45.7454
45.7773
45.0613
43.6008
43.6318
45.9221
47.7279
48.8743
39.5006
42.4487
45.4124
35.2234
35.8917
40.3008
40.9551
37.8392
35.6159
36.0042
35.982
35.5273
36.366
34.2792
33.5039
36.8709
36.9093
37.6491
37.0993
28.0223
27.3044
32.5381
31.3032
27.6226
2.61315
14.0098
27.6382
29.5408
4.53427
3.98668
2.62609
1.82113
1.71389
1.78636
1.85594
1.86336
1.81313
1.64461
1.55647
1.74831
4.20109
9.27786
9.78173
8.75192
8.31763
8.01382
6.66208
4.76287
3.74237
3.24314
2.99537
2.74268
2.65914
2.78178
2.93914
3.37819
3.10474
3.86255
3.56203
4.74144
4.22042
6.73181
5.50026
11.2462
8.68489
14.8045
13.5312
15.947
14.8546
17.8375
16.9256
17.8355
16.6628
19.6906
18.1966
23.5813
22.5388
21.3565
27.9758
26.8724
26.2295
25.1501
32.8782
31.4892
29.3174
30.3348
41.549
39.1576
36.7441
34.6227
49.1129
48.7081
47.2968
45.0922
48.0645
50.2418
51.8203
52.4921
43.6532
47.0017
50.0261
36.1232
38.0901
44.674
45.5305
41.4374
35.8819
36.3997
36.3036
36.3743
36.9716
36.8705
36.3776
38.4667
37.8058
38.837
39.2194
29.9449
29.136
35.4261
33.8211
30.193
2.94324
16.7004
29.7084
31.9672
4.60116
3.92253
2.51938
1.86624
1.81548
1.86057
1.86764
1.83837
1.70512
1.5619
1.64769
3.23691
8.74434
10.0193
8.97287
8.38483
8.07112
6.87584
5.21683
4.04698
3.3981
3.0249
2.69636
2.50646
2.55522
2.63498
2.82222
3.27778
3.06105
3.78954
3.52237
4.51792
4.12246
5.81642
5.05762
8.70538
6.94694
13.2994
11.0878
13.0562
11.5503
15.4831
14.3099
16.7064
15.2747
21.0153
20.0275
19.2977
24.0888
23.045
21.8521
22.874
28.3434
27.3301
26.9299
25.9188
32.2905
31.1731
29.5745
30.326
42.2466
39.1402
36.2308
33.9182
52.4603
51.3868
49.3258
46.3957
52.5652
54.5517
55.8374
56.1679
48.4211
51.8243
54.7676
38.2515
41.7472
49.6825
50.8364
46.2193
36.7015
36.8641
37.1637
38.4021
37.7213
39.7848
39.7831
40.0552
38.8714
40.1966
41.6095
32.0883
31.0272
38.6688
36.6178
35.5911
6.56041
27.3164
31.4642
33.2037
4.58011
3.76507
2.33798
1.91276
1.88386
1.87693
1.8501
1.75819
1.584
1.59247
2.49768
7.43385
10.1082
9.31696
8.48568
8.15476
7.17213
5.80227
4.62946
3.70717
3.10189
2.69868
2.45696
2.39138
2.39205
2.53665
2.88104
2.6739
3.23526
3.01828
3.73405
3.46156
4.41205
4.04073
5.4082
4.84969
7.09921
6.14064
9.90905
8.37426
11.3245
9.92075
13.9353
12.6586
17.5952
15.935
22.277
21.3203
22.5459
21.5255
24.9009
23.8868
23.1983
24.0898
28.8087
27.9024
27.8173
26.8911
31.494
30.7956
29.9449
30.3462
42.7306
38.8068
35.3475
32.8605
55.9491
54.4579
51.8728
48.2468
57.1787
58.9814
59.9697
60.1429
53.5109
56.8681
59.743
41.9179
46.7414
55.1044
56.6707
51.8578
38.6735
37.8508
39.1646
42.1158
38.8693
43.3041
43.5949
42.1387
40.1864
42.2891
45.2147
34.3386
32.6834
42.3005
39.6411
40.7071
16.3993
49.408
32.1716
33.1428
4.50317
3.48801
2.21227
1.94965
1.9002
1.86461
1.78962
1.61933
1.56294
2.01611
5.74907
10.0653
9.674
8.62654
8.23757
7.44961
6.37481
5.34495
4.2461
3.27279
2.75027
2.46575
2.29046
2.23673
2.31008
2.44991
2.79142
2.62701
3.18031
2.98468
3.67459
3.41655
4.32464
3.97976
5.20913
4.73146
6.51146
5.79418
8.57331
7.40246
11.3312
9.70515
14.4339
12.9285
20.7968
19.7947
19.2387
24.1942
23.4017
24.811
23.9002
25.9524
25.0151
24.9851
25.7582
29.3865
28.6681
28.842
28.0828
30.8072
30.4747
30.3069
30.3905
43.8061
38.949
34.745
31.812
59.781
57.9187
54.8155
50.5288
62.0296
63.7006
64.611
64.7662
58.9346
62.2907
65.1318
47.1789
52.83
60.9955
63.072
58.1892
42.322
39.6057
41.9627
47.2301
40.5709
47.3738
48.0003
46.0185
42.733
46.8168
49.6756
36.5728
33.7917
46.3091
42.813
40.396
71.3915
58.1356
32.1317
32.3811
4.34548
3.10973
2.13634
1.95148
1.89143
1.81948
1.65581
1.5511
1.74813
4.15695
9.7694
9.9936
8.82993
8.32018
7.6832
6.86374
6.04191
5.01587
3.68624
2.9218
2.52558
2.26057
2.13254
2.15869
2.20854
2.37727
2.75553
2.59724
3.13079
2.92323
3.61139
3.3511
4.24399
3.90286
5.08566
4.63221
6.27905
5.625
8.24128
7.1138
12.3696
10.0337
17.1006
14.7988
22.8384
21.7159
21.7232
23.4324
26.4176
25.6741
28.1959
27.2268
27.3037
26.5414
27.0816
27.6872
30.0612
29.5495
29.732
29.2571
30.3045
30.1378
30.4256
30.2441
45.3683
39.7
34.6753
31.3162
64.1467
62.1145
58.5471
53.7541
67.3666
69.1193
70.0459
70.2102
64.8975
68.3377
71.2976
52.99
58.7229
67.5081
69.337
64.1182
46.2472
42.2742
45.9898
51.993
44.208
52.5875
52.997
51.4493
48.9035
54.3151
56.275
38.4098
34.483
50.4338
45.4944
37.4636
86.3695
90.1537
31.7528
31.2631
4.11494
2.71537
2.07592
1.93476
1.85684
1.71219
1.55275
1.61558
2.95126
8.76487
10.1742
9.18836
8.42026
7.88159
7.23766
6.63083
5.81717
4.51928
3.32493
2.67615
2.2706
2.09158
2.05029
2.05014
2.14664
2.41656
2.54427
2.25177
2.71614
3.08125
2.89129
3.547
3.30348
4.15779
3.83345
4.96929
4.53474
6.16396
5.50052
8.23813
7.05384
13.8947
10.8382
20.6942
17.2562
26.1168
24.825
25.29
27.2896
29.5045
28.9621
32.7417
31.7914
28.7495
28.2463
29.8691
30.1325
30.4033
30.1493
30.5861
30.4903
30.1501
29.941
30.4893
30.0669
47.8614
41.3183
35.3708
31.2842
69.6015
67.4347
63.6382
58.516
73.7537
75.7758
76.7998
77.0194
71.6319
75.5074
79.0854
58.6189
65.8026
74.4637
80.2447
73.0371
52.0207
47.8143
54.2536
60.2939
54.0242
58.6887
57.9129
60.5346
59.7706
66.9202
63.9898
40.1698
35.2026
53.9785
48.6376
40.7913
69.0858
93.3301
31.1864
31.3807
3.81916
2.42417
2.02065
1.89453
1.77227
1.57065
1.54359
2.18678
6.5617
10.1528
9.631
8.56073
8.05919
7.5002
7.08257
6.50214
5.46488
4.12131
2.98078
2.34625
2.10116
1.96792
1.9396
1.99718
2.07713
2.51902
2.35776
2.23908
2.67227
3.0404
2.84519
3.49412
3.25132
4.08027
3.76634
4.84973
4.43788
6.08988
5.37142
8.58048
7.0975
17.3756
12.6746
27.8977
24.9263
22.7489
30.6152
29.0749
30.2077
32.3647
33.5755
33.3253
37.7933
36.9528
30.386
30.2834
33.5275
33.3624
30.6028
30.6376
32.0091
32.3864
30.67
30.2662
30.8676
30.3602
52.129
44.7558
37.6574
32.393
76.7138
74.5741
70.8539
65.7104
82.1289
84.5235
85.9215
86.3601
79.6745
84.9556
90.043
70.5228
81.313
87.5663
103.41
92.2366
64.0922
62.6972
75.0187
77.1861
68.1294
64.5226
62.4079
70.5551
76.0662
79.4717
71.4789
42.3333
35.9101
58.3635
51.8632
45.3697
57.3758
78.7038
31.4797
32.7766
3.44589
2.24206
1.95671
1.81712
1.62838
1.51592
1.77304
4.45436
9.85695
9.96369
8.77017
8.19411
7.69381
7.39311
7.01988
6.30204
5.13026
3.64794
2.57076
2.16624
1.94146
1.85089
1.8847
1.93402
2.04135
2.49621
2.33794
2.20791
2.64378
3.00366
2.81518
3.45327
3.21764
4.03171
3.72499
4.75751
4.3736
6.07656
5.27563
9.36471
7.31107
23.4913
16.4986
32.1418
29.441
26.8612
30.7452
35.8325
34.2548
34.7318
37.0313
38.0632
38.0949
42.2592
41.5932
32.7043
33.047
37.8988
37.4961
31.2805
31.6276
34.8988
35.701
32.7866
32.0129
32.5789
32.0596
59.1861
51.2989
43.0977
36.0749
86.2628
84.6396
81.3016
76.4975
94.2805
97.4781
99.5436
100.272
94.5638
101.979
111.014
92.7169
113.096
118.272
165.393
134.245
91.1237
79.7785
98.1971
114.084
88.7886
70.4601
67.6064
80.3762
91.8754
93.0787
79.418
43.9918
37.7414
61.9527
54.5161
47.1711
53.754
67.7633
32.8108
35.7099
3.05801
2.10498
1.86739
1.6967
1.52129
1.58776
2.97775
8.85935
10.1092
9.21702
8.31045
7.87457
7.58827
7.37713
6.93666
6.08908
4.70252
3.09674
2.33754
1.95256
1.80288
1.79203
1.81221
1.90298
2.073
2.18542
1.95776
2.4626
2.31324
2.61431
2.97574
2.78361
3.43015
3.1877
4.0136
3.70595
4.72867
4.35127
6.16962
5.25561
11.2194
7.92363
30.1775
29.5873
25.3446
21.4574
35.8983
33.2588
32.8368
40.5489
38.9889
38.4521
40.8237
42.5655
42.4713
46.0968
45.3556
36.3867
37.0062
42.5497
42.3123
33.2978
34.0562
39.7011
40.6948
39.0981
36.977
36.8542
36.6458
70.2989
62.4683
53.8546
45.2627
100.485
99.5763
96.6695
92.3583
116.756
121.201
123.481
124.448
135.208
161.784
194.144
155.255
202.827
201.109
223.842
201.969
127.556
110.88
154.989
169.243
115.105
76.7127
72.1406
92.7613
118.079
119.238
90.7324
48.0719
40.3596
66.4168
61.71
46.3614
35.53
79.6356
35.3074
38.1072
2.72222
1.97528
1.74655
1.55924
1.51832
2.12365
6.32363
10.045
9.69544
8.49314
8.02122
7.7215
7.59628
7.37323
6.84011
5.78972
4.13237
2.68736
2.03767
1.80597
1.72486
1.71613
1.77758
1.86598
2.16637
2.03358
1.95841
2.44638
2.2913
2.58998
2.95363
2.76188
3.41588
3.17178
4.00861
3.69702
4.7292
4.34835
6.48323
5.29401
14.1906
9.10428
31.8785
30.0149
27.384
23.979
38.4686
35.6969
34.6566
44.3939
42.8598
41.241
43.8772
46.9851
46.5401
49.8154
48.7318
41.3985
41.97
47.3358
47.4151
37.6863
38.6718
46.1935
46.8724
54.5666
48.2531
45.1683
45.8763
86.6612
79.3266
71.8675
62.7537
124.81
123.523
121.002
116.4
190.584
191.136
191.941
183.346
200.796
206.343
428.565
215.004
482.679
466.222
457.366
489.955
205.027
160.707
210.716
213.885
167.591
86.8763
81.6701
118.478
172.572
175.223
115.571
51.5121
43.9412
80.7368
67.3587
50.333
13.2805
84.9461
39.1877
40.5708
2.44238
1.83443
1.61123
1.50555
1.7161
4.06326
9.58105
9.95197
8.85984
8.12354
7.84813
7.72181
7.6468
7.36061
6.68527
5.35747
3.47354
2.27868
1.85694
1.70058
1.65147
1.66864
1.74167
1.84078
2.15241
2.01941
1.93832
2.42026
2.27444
2.57002
2.93606
2.73977
3.40711
3.15653
4.00818
3.69168
4.7566
4.35403
7.00592
5.41719
17.184
10.6707
32.831
30.5435
27.9449
28.0952
25.8023
22.367
40.4342
37.4689
35.6156
47.6248
46.0839
43.5537
46.5444
51.5135
50.6321
53.672
52.1117
47.2979
47.4816
52.3132
52.8311
45.0091
45.5253
54.3025
54.0572
80.3038
71.7162
58.975
62.4837
110.887
102.129
95.9843
89.841
181.23
168.847
165.66
153.87
430.236
405.427
413.697
402.11
474.092
412.279
837.569
477.809
902.156
881.743
859.336
908.033
496.477
227.004
487.962
486.899
238.951
109.159
114.436
176.856
246.515
255.359
173.331
59.2082
50.1749
90.1143
82.6265
64.5506
192.524
118.839
42.3049
42.3807
2.20056
1.68511
1.51333
1.55994
2.66385
8.04203
9.98169
9.4194
8.28338
7.94977
7.80923
7.7986
7.70079
7.31656
6.41784
4.75844
2.80367
2.00196
1.7126
1.61395
1.59868
1.62539
1.71274
1.81385
1.92626
2.12729
1.99919
2.40616
2.25428
2.55046
2.92015
2.72347
3.39689
3.14462
4.00832
3.68618
4.80014
4.36658
7.33404
5.54407
18.0195
11.3923
33.1508
30.4937
27.7507
24.7146
22.4719
41.8692
38.5859
35.967
50.6336
48.9521
45.4594
48.9043
56.3557
54.9743
57.8218
55.626
53.762
53.6106
57.6756
58.7349
55.9381
54.961
64.5037
62.8555
113.616
107.617
82.6078
89.2969
149.989
137.957
122.78
122.261
402.919
389.748
389.717
378.366
848.127
800.321
817.843
811.837
899.52
804.658
2485.16
887.358
2517.96
2512.18
2467.94
2526.97
916.435
502.827
902.678
889.741
509.425
178.706
125.158
257.438
511.412
523.733
244.846
67.3649
53.593
117.761
90.264
60.7327
350.13
158.4
45.0141
44.1656