/*--------------------------------*- C++ -*----------------------------------*\
  =========                 |
  \\      /  F ield         | OpenFOAM: The Open Source CFD Toolbox
   \\    /   O peration     | Website:  https://openfoam.org
    \\  /    A nd           | Version:  dev
     \\/     M anipulation  |
\*---------------------------------------------------------------------------*/
FoamFile
{
    version     2.0;
    format      ascii;
    class       volScalarField;
    location    "2500";
    object      p_rgh;
}
// * * * * * * * * * * * * * * * * * * * * * * * * * * * * * * * * * * * * * //

dimensions      [1 -1 -2 0 0 0 0];

internalField   nonuniform List<scalar> 
9842
(
0.0047116
0.00624223
0.00550148
0.00637179
0.0089277
0.00498821
0.00593662
0.0107454
0.00881669
0.00424725
0.00535247
0.0115483
0.0121472
0.00837012
0.00329876
0.00503961
0.0116346
0.0137923
0.0117771
0.00752948
0.0030685
0.00508568
0.0111264
0.014601
0.0141849
0.0104199
0.00653953
0.00262971
0.00484285
0.00954606
0.0147858
0.016058
0.0138174
0.0097175
0.00558693
0.00232357
0.00456703
0.00877154
0.0146733
0.0170208
0.0161635
0.012752
0.00878718
0.00513258
0.00210517
0.00411995
0.00824403
0.0140713
0.0171888
0.0178249
0.0152729
0.0114586
0.0077213
0.00480271
0.00179854
0.0042041
0.00845806
0.0134435
0.0171047
0.0190982
0.017629
0.0139397
0.0105458
0.00729682
0.00445222
0.00164431
0.00407727
0.00773222
0.0124688
0.0169107
0.0196495
0.0193866
0.0167117
0.0131064
0.0097523
0.00682856
0.00415915
0.00144143
0.00383007
0.00743579
0.0116536
0.0163124
0.0196335
0.0205857
0.0191695
0.0156828
0.012202
0.00892832
0.00643157
0.00392811
0.00131816
0.00369656
0.00708646
0.0106769
0.015484
0.0192202
0.0212917
0.0205911
0.0181726
0.0146452
0.0113504
0.0086354
0.00615522
0.00357973
0.00109413
0.00360692
0.00698909
0.0102882
0.0146464
0.0183229
0.0215888
0.0220797
0.0201286
0.0171985
0.0135761
0.0107248
0.00822148
0.00581756
0.0035527
0.000964817
0.00332254
0.00649919
0.00997226
0.0136813
0.0178139
0.0217309
0.0228409
0.0220086
0.0193414
0.0158152
0.0127604
0.0102289
0.00793855
0.00560949
0.00340773
0.000933633
0.00323132
0.00634026
0.00973057
0.0126567
0.0173756
0.0212863
0.0233255
0.0232635
0.0213096
0.0181069
0.0149912
0.0120441
0.00968105
0.00759533
0.00541535
0.00322183
0.000801865
0.00319721
0.0061569
0.00933172
0.0125706
0.0170067
0.0208589
0.0234975
0.0242827
0.0230709
0.0202077
0.0167347
0.0142239
0.0117733
0.00941911
0.00738204
0.00525911
0.00312609
0.000740323
0.00308916
0.00588187
0.00892331
0.0120917
0.0160518
0.0203617
0.0234407
0.0249108
0.0244597
0.0224364
0.0192493
0.0160952
0.0136481
0.0113442
0.00919314
0.00711017
0.00509395
0.00297549
0.000692172
0.00295025
0.00568962
0.00858314
0.0114608
0.0152972
0.0191304
0.0232458
0.0252234
0.0255383
0.0240388
0.021313
0.0182946
0.0155265
0.0131749
0.0109757
0.00890692
0.00686825
0.00493513
0.00283107
0.00063765
0.00273532
0.00560292
0.00846905
0.0113393
0.0146409
0.0186356
0.0230045
0.0253617
0.0263568
0.0257026
0.0233958
0.0204704
0.0175101
0.0147944
0.0127808
0.0106626
0.00869131
0.00670526
0.00473839
0.00268698
0.000570031
0.00261462
0.00550968
0.00804346
0.0109101
0.0139524
0.018167
0.0221246
0.0253112
0.0268178
0.026846
0.0252435
0.0225136
0.019364
0.0167628
0.0144621
0.012422
0.0103534
0.00838494
0.00648731
0.00454541
0.00251894
0.00041352
0.00253197
0.00528861
0.00788905
0.0108617
0.0139203
0.0173632
0.021742
0.0251121
0.0271628
0.0277159
0.0266986
0.0244895
0.0214313
0.0188987
0.0162539
0.0141076
0.0120681
0.0100743
0.00814274
0.00627428
0.00436618
0.00242942
0.00039627
0.00231164
0.00499611
0.00772497
0.0106765
0.013497
0.016897
0.0211802
0.0244635
0.0273075
0.0283973
0.0280498
0.026244
0.0237168
0.0207611
0.0181753
0.0159217
0.0136914
0.0117134
0.00971506
0.00785101
0.00603747
0.00422436
0.00224108
0.000353202
0.00223613
0.00496463
0.00751609
0.0103259
0.0132977
0.0165229
0.0203547
0.0240358
0.0273257
0.0288585
0.0291306
0.0279193
0.0253929
0.0227488
0.0201547
0.0176827
0.0155321
0.0133645
0.0113429
0.00938088
0.00754815
0.0057632
0.00398123
0.00213119
0.000275676
0.0020431
0.004759
0.00728021
0.0100041
0.0130105
0.0162154
0.0197802
0.0236018
0.0270109
0.0291463
0.0299144
0.0292417
0.0273356
0.024723
0.0220381
0.0195755
0.0173179
0.0150521
0.0129331
0.0109172
0.00901346
0.00721634
0.0055007
0.00378407
0.00201406
0.000182491
0.001907
0.00456468
0.00707478
0.0097306
0.0125764
0.0159183
0.0193145
0.0231014
0.0265891
0.0293046
0.0304882
0.0304117
0.0290264
0.02668
0.0240588
0.0214741
0.0191426
0.0168205
0.0145741
0.0125052
0.0104728
0.00856383
0.00686468
0.0051431
0.00351382
0.00181407
7.42007e-05
0.00172985
0.00431372
0.00691019
0.009607
0.0123593
0.0155811
0.0186008
0.0226201
0.0262142
0.0292084
0.030946
0.031308
0.0304131
0.0285486
0.0260531
0.0234657
0.0209617
0.0187014
0.0163577
0.014086
0.0119829
0.00997672
0.00814038
0.00644866
0.00488774
0.00330878
0.0017399
3.0472e-05
0.00149946
0.00408303
0.0067384
0.00941383
0.0121145
0.0152633
0.0184316
0.0222165
0.0257265
0.0288955
0.0311957
0.0321449
0.0317797
0.0302071
0.0279016
0.0254787
0.0229439
0.0205653
0.0181565
0.0157664
0.0135876
0.0114426
0.00950622
0.00772222
0.00610296
0.00463728
0.00316353
0.00163799
-4.45294e-06
0.00130387
0.00394607
0.00650501
0.00909835
0.0119618
0.0148795
0.0181353
0.0217239
0.0252619
0.0285475
0.0313045
0.0326954
0.0328193
0.0318048
0.0297876
0.0272963
0.0249569
0.0224085
0.0200763
0.0175747
0.0151814
0.0129457
0.0107803
0.00889214
0.00715565
0.00567598
0.00431337
0.00298153
0.00157687
-9.65999e-05
0.00113117
0.00371623
0.00623237
0.00877229
0.0115692
0.0146443
0.0177555
0.0210997
0.0248573
0.0280945
0.0312613
0.0330962
0.0337999
0.0331688
0.0315287
0.0294109
0.0269357
0.024536
0.0220381
0.0194435
0.0169587
0.0144907
0.0121683
0.010069
0.0082161
0.00664638
0.0052718
0.0040548
0.00285474
0.00158157
6.26467e-06
0.000946151
0.00348013
0.00585617
0.00848976
0.0114025
0.0142859
0.017237
0.0203401
0.0241085
0.0277711
0.0310404
0.0333062
0.0344587
0.0344265
0.0332888
0.0312288
0.0287445
0.0264708
0.0240497
0.0214729
0.0188217
0.0162084
0.01365
0.0113131
0.00925803
0.00752976
0.0061055
0.00493004
0.00389383
0.00286718
0.00161083
9.59443e-05
0.000731257
0.00319928
0.00569238
0.00819401
0.011008
0.0138025
0.0170246
0.020227
0.0238696
0.0275479
0.0306918
0.0333601
0.0349366
0.0354027
0.0347557
0.0331179
0.0310154
0.0285026
0.0261648
0.0236117
0.0208406
0.0180653
0.0152768
0.0126524
0.010329
0.0083748
0.00681128
0.00561194
0.00467571
0.00386979
0.00296521
0.00183291
0.000269426
0.000513358
0.00291387
0.00534228
0.00795384
0.0107402
0.0136343
0.0167008
0.0199331
0.0229986
0.0271569
0.0303134
0.0332308
0.0352569
0.0360952
0.0360107
0.0348869
0.0330409
0.0305402
0.0283269
0.0257653
0.0230253
0.0201002
0.0170877
0.0141516
0.0114858
0.00922641
0.00743711
0.00612407
0.00520865
0.00455859
0.00396223
0.00320787
0.00215842
-0.000542967
0.000513312
0.000302516
0.00263458
0.00504998
0.00764887
0.0102734
0.0132108
0.0163157
0.0196153
0.022732
0.0267801
0.0299988
0.0330377
0.0354243
0.0367635
0.0369388
0.036104
0.0345566
0.032725
0.0303393
0.0280603
0.0253224
0.0223436
0.0191327
0.0158733
0.0128107
0.0101448
0.00802777
0.0064998
0.00551268
0.00494386
0.00458971
0.0042029
0.00323547
0.00158368
0.00254074
-0.000414193
0.000722414
8.71155e-05
0.00235157
0.00466571
0.00731742
0.00997396
0.0128842
0.0160086
0.0189666
0.02224
0.0260346
0.0296289
0.032768
0.0354086
0.0372026
0.0378182
0.0375217
0.0364131
0.0346971
0.0326324
0.030286
0.0278057
0.0247783
0.0214485
0.0178858
0.014382
0.0112221
0.00863963
0.00677278
0.00560859
0.00503055
0.0048446
0.00479319
0.00409407
0.00453057
0.00339854
0.0037477
0.00410485
0.0018111
0.00280391
-0.000206642
0.00101478
-0.000143577
0.00206108
0.00440606
0.00698294
0.00963854
0.0125069
0.0155407
0.0186514
0.0220049
0.0255383
0.0290277
0.0324065
0.03524
0.037377
0.0386349
0.0388862
0.037925
0.0366577
0.0347134
0.03269
0.0302392
0.0273775
0.0240469
0.020255
0.0162955
0.0125532
0.00937421
0.00699211
0.00550901
0.00482219
0.00471634
0.00493068
0.00490442
0.0050571
0.00433895
0.00369963
0.00466956
0.00449319
0.0021487
0.00318448
5.50789e-05
0.00135363
-0.000348444
0.00176373
0.00401404
0.00652348
0.00919146
0.0120532
0.0150378
0.0181073
0.0214462
0.0248575
0.0284122
0.031892
0.0349563
0.0374013
0.0390484
0.0396906
0.0395382
0.0381743
0.0368691
0.0349738
0.0328163
0.0301396
0.0268729
0.0230229
0.0186739
0.0142886
0.0103674
0.00729928
0.00527212
0.00432143
0.00420311
0.00460996
0.00516014
0.00504337
0.00481198
0.00510176
0.00513656
0.00412792
0.00516549
0.00497727
0.00255279
0.0036492
0.000379503
0.00175563
-0.00047224
0.00147093
0.0036995
0.00596234
0.00847268
0.0115769
0.0144951
0.0176118
0.020897
0.0242591
0.0277985
0.0313001
0.0345634
0.0372645
0.0392652
0.040343
0.0404174
0.0397784
0.0385203
0.037167
0.0353435
0.0329757
0.0300016
0.0262118
0.0216967
0.0167538
0.0120092
0.00806094
0.0052786
0.00373955
0.00336252
0.00386403
0.00487464
0.00450432
0.00523248
0.00518994
0.00549668
0.00571296
0.00570483
0.00465188
0.0057102
0.00556015
0.00302512
0.00418762
0.000752831
0.0022173
-0.000632468
0.00116327
0.00332638
0.0056417
0.00823284
0.0110261
0.0139785
0.0170867
0.0203004
0.0236692
0.0270603
0.0305738
0.033971
0.0369959
0.0392671
0.0407718
0.0414198
0.0411901
0.040357
0.0389442
0.0376766
0.0357782
0.0332597
0.0298714
0.0256784
0.0209136
0.0157781
0.0109404
0.00711843
0.00446091
0.00306746
0.00294007
0.00409853
0.00351403
0.00501041
0.0046689
0.00578416
0.00570483
0.00610506
0.00634297
0.00630565
0.00525856
0.00635687
0.00623769
0.00356217
0.0047975
0.00117024
0.00273122
-0.000753958
0.000976965
0.00288288
0.00517984
0.00766336
0.0102821
0.0135161
0.016524
0.0197161
0.0230923
0.0263736
0.0298387
0.0334091
0.0365954
0.0391242
0.0409549
0.0419403
0.0420576
0.0415082
0.0407697
0.0396635
0.0383686
0.0364337
0.0339533
0.0311984
0.0288105
0.0267083
0.0234727
0.0183603
0.0129632
0.00823203
0.00485003
0.0030281
0.00277589
0.00422083
0.00368807
0.00548462
0.00512848
0.00642034
0.00634361
0.00675207
0.00702981
0.00701296
0.00594827
0.00711107
0.00701495
0.00415862
0.00547615
0.00162565
0.00328976
-0.000833213
0.000744518
0.00251844
0.00464857
0.00696295
0.0097226
0.0129148
0.0158572
0.0189739
0.0223982
0.0256958
0.0292023
0.0327149
0.0360852
0.0388421
0.0409348
0.042309
0.0429767
0.042613
0.0423431
0.0414375
0.0404794
0.0393448
0.0379323
0.0377751
0.0417196
0.0506159
0.0584414
0.0573377
0.0463211
0.0341805
0.0226515
0.00433966
0.0108041
0.00334652
0.00387745
0.00469194
0.00437372
0.00612699
0.00581575
0.00714007
0.00710239
0.00751304
0.00784929
0.00784389
0.00672139
0.00798243
0.00789663
0.00480783
0.00622075
0.00211576
0.00388872
-0.000867597
0.000513009
0.00210726
0.00412637
0.00646953
0.00907107
0.0121592
0.0151878
0.0183154
0.0216924
0.0249608
0.0284104
0.0319633
0.0355023
0.0384128
0.040779
0.0424692
0.043433
0.0436807
0.0431785
0.0429975
0.0424908
0.0417543
0.04154
0.0444509
0.0561012
0.080201
0.108819
0.125003
0.121633
0.0993206
0.0796456
0.0296778
0.066502
0.00780241
0.0216202
0.00476609
0.00776183
0.00560206
0.00604632
0.00696781
0.00694721
0.0080268
0.00812332
0.00842119
0.00886248
0.00882045
0.00757878
0.00898748
0.00889294
0.00550269
0.00702564
0.00263752
0.00452466
-0.000879223
0.000289058
0.00173416
0.00361307
0.00579086
0.00821917
0.0114294
0.0144215
0.0175158
0.0208112
0.0241599
0.0276039
0.0311365
0.034733
0.0378401
0.040434
0.0423783
0.0435923
0.0442736
0.0442035
0.0439254
0.0437624
0.0437511
0.0444137
0.0500859
0.069898
0.107266
0.153927
0.192704
0.20716
0.193003
0.160528
0.101636
0.149461
0.0534295
0.0928613
0.0186354
0.0464772
0.00882847
0.0186991
0.00767011
0.0108771
0.0084126
0.00970369
0.00925432
0.0100254
0.00954182
0.0103109
0.0100133
0.008523
0.0101995
0.0100628
0.0062354
0.0078833
0.00318528
0.00518689
-0.000821011
0.000151944
0.00142041
0.00313609
0.00508841
0.00734074
0.0105236
0.0135758
0.0165986
0.0198441
0.0232299
0.0266732
0.0302563
0.0338168
0.0371399
0.0399372
0.0421838
0.0436755
0.0444945
0.0448587
0.0449067
0.0449525
0.0452005
0.046557
0.0539826
0.0795153
0.129932
0.187661
0.242264
0.280556
0.290065
0.266264
0.191291
0.240235
0.136089
0.184787
0.0851518
0.129247
0.0443525
0.0831157
0.0212819
0.0473691
0.0141352
0.0269126
0.0123723
0.0191638
0.0117789
0.0158366
0.0112087
0.0136054
0.0118333
0.00958915
0.0120567
0.0117983
0.00699244
0.00879767
0.00375198
0.00586172
-0.000703778
5.43222e-05
0.00114364
0.00267708
0.00444066
0.0065534
0.00947379
0.0125809
0.0156551
0.0188817
0.0222476
0.0257261
0.0292166
0.0327873
0.0363174
0.0392723
0.0417854
0.0436436
0.0446088
0.0452066
0.0454423
0.0456388
0.0461875
0.0477834
0.0561333
0.0846634
0.142368
0.211889
0.269858
0.319392
0.352989
0.360532
0.345924
0.232845
0.296302
0.177671
0.230927
0.128003
0.177612
0.0877315
0.134501
0.0567296
0.100545
0.0366838
0.0741198
0.0268201
0.0519968
0.0201453
0.0372284
0.0153303
0.0250457
0.0165515
0.0110509
0.0169564
0.0162959
0.00776557
0.00992046
0.00432925
0.00653006
-0.000534353
1.15787e-06
0.000904148
0.00221122
0.00379732
0.00578741
0.00856258
0.0116364
0.0146324
0.0177588
0.0211015
0.0246306
0.0281509
0.0317669
0.035351
0.0384619
0.0412046
0.0433398
0.044732
0.0452663
0.0456269
0.0460833
0.046729
0.0487021
0.0568668
0.085602
0.14571
0.208399
0.264777
0.319119
0.365251
0.402968
0.425869
0.386419
0.43594
0.286603
0.343031
0.231457
0.28958
0.185953
0.241078
0.150639
0.204776
0.123333
0.178442
0.100746
0.157948
0.074991
0.136172
0.0502421
0.103196
0.0298345
0.0644297
0.0331001
0.0146128
0.03414
0.0321733
0.00859709
0.0122874
0.00490571
0.00718549
-0.000314678
3.22463e-06
0.000687986
0.00174189
0.00313864
0.00502354
0.00767002
0.0105884
0.0135608
0.016634
0.0199173
0.0234089
0.0269255
0.0304766
0.0342039
0.0374917
0.0404493
0.0428784
0.0445631
0.0456929
0.0460891
0.0461596
0.0470423
0.0490138
0.0569371
0.0843692
0.141819
0.191917
0.232969
0.28861
0.348453
0.402993
0.44642
0.458207
0.469529
0.446099
0.470634
0.347877
0.400724
0.299443
0.359153
0.261445
0.32007
0.235894
0.294337
0.218717
0.280337
0.203917
0.27163
0.180026
0.258833
0.135363
0.227971
0.0773175
0.167109
0.0855664
0.0272846
0.087946
0.0821332
0.00993536
0.0206517
0.00545877
0.00792468
-8.82671e-05
5.65879e-05
0.00050785
0.00129489
0.00250409
0.00428188
0.00676477
0.00948862
0.0123924
0.01544
0.018669
0.0220935
0.0256283
0.0292638
0.0329821
0.0363747
0.0394985
0.0422348
0.0443696
0.0456013
0.0462132
0.0465952
0.047082
0.0489829
0.0566455
0.0821622
0.134858
0.173222
0.197967
0.223699
0.277721
0.362651
0.425295
0.467929
0.460064
0.478517
0.476828
0.481359
0.487708
0.413973
0.45848
0.378363
0.431956
0.35238
0.407808
0.340204
0.396566
0.336956
0.397256
0.334375
0.402519
0.319082
0.401348
0.27619
0.378813
0.192979
0.320102
0.20846
0.0683533
0.21187
0.198135
0.0141557
0.0497055
0.00595349
0.00948608
3.02125e-05
9.9967e-05
0.000370157
0.000926581
0.00192416
0.00358199
0.00580311
0.00832224
0.011122
0.0141387
0.0173326
0.0207081
0.0242436
0.0278874
0.0315479
0.0351197
0.0383977
0.041279
0.0436826
0.0453025
0.0462211
0.0469559
0.0473234
0.0490281
0.0563564
0.080342
0.12799
0.159168
0.173264
0.172109
0.172991
0.230098
0.342835
0.41585
0.470444
0.449007
0.484989
0.47709
0.498526
0.494031
0.473573
0.494361
0.456669
0.492557
0.447014
0.488758
0.450528
0.494129
0.461689
0.509595
0.471625
0.528029
0.467022
0.538225
0.432635
0.525925
0.354519
0.478062
0.375361
0.167421
0.380886
0.365514
0.0297477
0.125692
0.00637975
0.0148073
3.64535e-05
0.000218778
0.000616615
0.00140401
0.0028796
0.00477577
0.00708981
0.00976519
0.0127219
0.0158894
0.0192329
0.0227463
0.0263981
0.0300925
0.033743
0.0371576
0.0401836
0.0427824
0.0447869
0.0460578
0.0467667
0.0476215
0.0493238
0.0566361
0.079107
0.122377
0.14864
0.156677
0.139024
0.107464
0.118362
0.184429
0.283678
0.389456
0.321132
0.459306
0.425219
0.482437
0.458953
0.505582
0.489255
0.511076
0.512499
0.517377
0.531736
0.526814
0.547516
0.545856
0.569723
0.570338
0.599523
0.592176
0.631181
0.598323
0.652776
0.575485
0.651163
0.510084
0.615316
0.527339
0.325136
0.528479
0.510561
0.0751433
0.258563
0.00681498
0.0322455
2.96588e-06
0.000302007
0.000938432
0.00211588
0.00371807
0.00581135
0.00833379
0.0112026
0.0143311
0.0176517
0.021141
0.0247909
0.0285083
0.0321856
0.0357266
0.0389606
0.0417531
0.0440204
0.0456126
0.0465339
0.0476803
0.0497345
0.0574631
0.0792145
0.118174
0.140576
0.145191
0.120809
0.0785541
0.0705652
0.091417
0.138842
0.259836
0.174544
0.328083
0.261709
0.424681
0.382615
0.457605
0.418925
0.499501
0.461124
0.530797
0.521434
0.555804
0.552471
0.582276
0.584465
0.616344
0.621931
0.653416
0.660744
0.688079
0.697906
0.706633
0.735411
0.695613
0.756974
0.642694
0.733448
0.656754
0.47191
0.656775
0.645512
0.56457
0.168464
0.401794
0.00677019
0.0763799
-4.04486e-05
0.000435791
0.00135033
0.00267717
0.00452012
0.00685028
0.00959515
0.0126607
0.015956
0.0194252
0.0230633
0.0267936
0.0305026
0.0341268
0.0375355
0.0405314
0.0430592
0.0449332
0.0461827
0.0473204
0.0499837
0.0586169
0.0801057
0.114986
0.134182
0.136838
0.110806
0.06776
0.0538746
0.0568293
0.0711485
0.0860073
0.187525
0.121693
0.259986
0.189935
0.374504
0.322423
0.415638
0.366009
0.475982
0.42471
0.542047
0.517688
0.579008
0.568411
0.618708
0.610931
0.657992
0.649815
0.693344
0.681403
0.732955
0.717731
0.776975
0.76324
0.797801
0.813532
0.760596
0.826848
0.793809
0.716857
0.774139
0.62825
0.515204
0.610431
0.710556
0.778473
0.775067
0.703697
0.293943
0.579241
0.545434
0.435367
0.0188051
0.164128
-7.90573e-05
0.000578784
0.00168397
0.00325346
0.00534438
0.00792028
0.0108884
0.0141408
0.0175919
0.0212161
0.0249494
0.0286911
0.0323559
0.0358949
0.0390934
0.0418638
0.0440397
0.0455662
0.0467621
0.0497311
0.0596207
0.0812351
0.112521
0.12877
0.130169
0.104306
0.0632844
0.0480562
0.0459866
0.0499439
0.058278
0.0785797
0.0668933
0.132114
0.0973915
0.188483
0.139613
0.311593
0.251004
0.367823
0.307977
0.461867
0.40389
0.546349
0.510237
0.599374
0.57956
0.639668
0.628025
0.668134
0.654974
0.69997
0.680937
0.739314
0.709438
0.798013
0.783848
0.765274
0.741597
0.842002
0.842375
0.79511
0.806428
0.830187
0.839671
0.817269
0.857044
0.860699
0.826569
0.688995
0.667148
0.771513
0.832344
0.831799
0.76243
0.497407
0.323108
0.444477
0.637968
0.600176
0.045017
0.380311
0.304664
0.179981
-0.000124476
0.000750215
0.00205616
0.00385449
0.00620422
0.00903116
0.012213
0.0156372
0.0192469
0.0229759
0.0267415
0.0304463
0.0340744
0.0374504
0.0404202
0.042899
0.0447162
0.0461083
0.0490191
0.0596422
0.0822006
0.109818
0.123698
0.123915
0.098667
0.0605944
0.0455515
0.0420362
0.0428179
0.0463417
0.0575359
0.084001
0.0781811
0.108798
0.0917004
0.153297
0.12419
0.249442
0.195716
0.341008
0.279015
0.459097
0.399785
0.549406
0.509524
0.612845
0.592066
0.641945
0.628659
0.663875
0.648736
0.686792
0.67273
0.721837
0.705647
0.698644
0.694911
0.771254
0.74525
0.723018
0.860327
0.846142
0.777039
0.784236
0.818722
0.877225
0.86637
0.891255
0.877087
0.87558
0.746949
0.724486
0.828537
0.881516
0.883775
0.819413
0.553118
0.496364
0.694055
0.654628
0.214439
0.0142807
0.100172
0.427277
0.342038
-2.54512e-05
0.000982963
0.00243626
0.00448309
0.00710803
0.0101816
0.0135633
0.0171555
0.0208779
0.0246516
0.0283899
0.0320573
0.0355635
0.0387309
0.0414781
0.0436114
0.0452487
0.0480485
0.0584883
0.0818143
0.107001
0.118494
0.11734
0.0922559
0.0580294
0.0440341
0.0401886
0.0396108
0.0408305
0.0450199
0.0832333
0.0614933
0.112429
0.103579
0.112248
0.11289
0.149912
0.147369
0.223456
0.178637
0.336561
0.276738
0.481513
0.427805
0.564384
0.52774
0.614029
0.597765
0.635335
0.620938
0.661284
0.648792
0.693622
0.695642
0.698809
0.701367
0.710062
0.704815
0.706239
0.714021
0.747931
0.72557
0.716331
0.861546
0.830972
0.75153
0.756169
0.792646
0.893308
0.903607
0.908719
0.87735
0.914212
0.803922
0.780778
0.881653
0.922334
0.927469
0.873772
0.605415
0.544457
0.748985
0.707435
0.2259
0.0108036
0.0837112
0.468082
0.366967
0.000126296
0.00118082
0.00281672
0.00515053
0.00806127
0.011368
0.0149331
0.0186556
0.0224295
0.0261873
0.0298829
0.0334808
0.0368195
0.0397747
0.0422114
0.0441146
0.0467835
0.0568399
0.0796755
0.103066
0.113101
0.110007
0.084843
0.0551434
0.0426946
0.0386739
0.0375142
0.03768
0.0387601
0.0455151
0.095121
0.0655828
0.162184
0.13719
0.154596
0.163671
0.202117
0.212129
0.229393
0.204219
0.37304
0.325937
0.523081
0.48642
0.578463
0.554109
0.605919
0.5921
0.63512
0.617527
0.700987
0.698295
0.692101
0.682356
0.725042
0.735963
0.744693
0.749599
0.715085
0.725112
0.742404
0.763037
0.729492
0.72216
0.727727
0.844653
0.802672
0.733966
0.738824
0.762032
0.893746
0.923063
0.910326
0.85985
0.936287
0.858954
0.835579
0.928303
0.947697
0.95703
0.923337
0.654818
0.588389
0.802416
0.758322
0.226173
0.0127108
0.0686771
0.50181
0.382415
0.00019561
0.00135032
0.00321429
0.00587226
0.00906626
0.0125783
0.0162879
0.0200768
0.0238467
0.0275695
0.0312103
0.0346681
0.0378022
0.0405001
0.0426772
0.0452011
0.0545682
0.076693
0.0986802
0.107264
0.102166
0.0767346
0.0519796
0.0414003
0.0373887
0.0359729
0.0354434
0.0355392
0.0371813
0.0493913
0.0398365
0.0983432
0.065711
0.210518
0.15065
0.229724
0.234214
0.294063
0.309645
0.297155
0.291119
0.449684
0.419456
0.53702
0.512623
0.576665
0.558618
0.59669
0.574707
0.675255
0.639763
0.749643
0.74468
0.735012
0.720825
0.782709
0.798331
0.807811
0.81012
0.747499
0.774987
0.80544
0.833448
0.729383
0.741556
0.770235
0.814735
0.769855
0.735655
0.742061
0.744651
0.876899
0.926571
0.895022
0.829414
0.942559
0.910451
0.887897
0.963106
0.957611
0.971885
0.96426
0.701428
0.627961
0.853844
0.807029
0.216217
0.0100158
0.0472824
0.529444
0.390079
0.000212985
0.00152098
0.00366471
0.0066593
0.0101016
0.0137808
0.0175707
0.0213653
0.0251206
0.0287666
0.0322762
0.03558
0.0384927
0.0409166
0.0433538
0.0513473
0.0728699
0.093918
0.10118
0.0940652
0.0688536
0.0489392
0.0401332
0.036291
0.0345965
0.0337645
0.0329963
0.0332277
0.0339728
0.0446776
0.0374633
0.0954094
0.0614218
0.224433
0.151915
0.308512
0.284927
0.383292
0.370549
0.40057
0.391349
0.487669
0.464633
0.51664
0.495069
0.555685
0.536904
0.601435
0.564949
0.736839
0.70993
0.660414
0.688757
0.804993
0.794549
0.778441
0.758694
0.854981
0.867583
0.870133
0.863013
0.808366
0.848048
0.883115
0.908995
0.754612
0.791939
0.839097
0.780519
0.751763
0.765302
0.773107
0.748128
0.84707
0.913959
0.866765
0.794529
0.933583
0.956478
0.936549
0.983137
0.953846
0.974726
0.991512
0.745313
0.663832
0.902562
0.853446
0.191532
0.00835508
0.0316724
0.552423
0.38891
0.000195638
0.00169579
0.00417645
0.00749662
0.0111414
0.0149247
0.0187451
0.0225263
0.0261831
0.0297331
0.0331523
0.0362176
0.0388505
0.0412837
0.0474916
0.0677842
0.0888299
0.0952364
0.0864142
0.0618718
0.0459825
0.0387573
0.0350602
0.0329535
0.0319584
0.031073
0.0304925
0.0306025
0.0327151
0.0309358
0.0396726
0.034981
0.0803088
0.0514656
0.215115
0.135969
0.344958
0.293435
0.407659
0.381275
0.444649
0.426833
0.472624
0.450155
0.459035
0.426841
0.527368
0.492274
0.636293
0.605803
0.563855
0.741682
0.716428
0.666936
0.692385
0.846705
0.821945
0.794516
0.767701
0.922885
0.923915
0.911869
0.886518
0.887066
0.928047
0.956854
0.971048
0.809519
0.865023
0.920272
0.760916
0.755171
0.822178
0.829353
0.777128
0.812007
0.888453
0.833171
0.772251
0.911908
0.992553
0.979745
0.993491
0.937583
0.965661
1.00835
0.786712
0.697329
0.948029
0.897504
0.152532
0.00751968
0.0239196
0.572442
0.376891
0.000125119
0.00189862
0.0047501
0.00838209
0.0121761
0.0159931
0.0197459
0.0234541
0.0270482
0.0304772
0.0337025
0.0365104
0.0390128
0.0436839
0.0612099
0.0831149
0.0894798
0.0799636
0.0561569
0.0431762
0.0370185
0.0335028
0.0312536
0.0298662
0.0290972
0.0283853
0.0280323
0.0278676
0.0310663
0.0293245
0.0357583
0.0330369
0.056765
0.0413361
0.171279
0.0970684
0.336694
0.261447
0.373576
0.329659
0.427648
0.403522
0.395213
0.364796
0.390858
0.337234
0.505194
0.447568
0.640316
0.610567
0.574104
0.53937
0.724206
0.700107
0.655805
0.67813
0.853775
0.819704
0.785227
0.752358
0.969182
0.95315
0.922112
0.88372
0.966182
0.997387
1.01176
1.0081
0.884403
0.946414
0.997194
0.763042
0.780837
0.896811
0.902071
0.830652
0.786416
0.857228
0.805333
0.771962
0.884414
1.01733
1.01453
0.994755
0.915672
0.951528
1.01918
0.826428
0.73022
0.989623
0.938862
0.122491
0.00534969
0.0206566
0.591711
0.369703
7.04796e-05
0.00217376
0.00540538
0.00924027
0.0130896
0.0168602
0.0205722
0.024222
0.0276861
0.0309951
0.0339304
0.0365218
0.0401667
0.0540155
0.0762845
0.0837913
0.0742425
0.0517014
0.0400262
0.0347719
0.0316775
0.0293975
0.027748
0.0266572
0.0261468
0.0257581
0.025257
0.0262555
0.0248158
0.0293175
0.027731
0.0332096
0.0311442
0.0418123
0.0360572
0.0976516
0.0572024
0.263111
0.17497
0.260591
0.203806
0.334761
0.302342
0.286111
0.240267
0.340754
0.276136
0.506741
0.468985
0.409995
0.631532
0.604276
0.55388
0.522446
0.676795
0.656201
0.623566
0.639804
0.839248
0.789842
0.743837
0.70556
0.990876
0.95757
0.913783
0.858398
1.03073
1.04596
1.04204
1.02546
0.965152
1.02107
1.05772
0.78326
0.828164
0.976321
0.980008
0.900145
0.783996
0.829426
0.798138
0.785935
0.859139
1.03424
1.03979
0.989843
0.895167
0.937243
1.02509
0.865732
0.766459
1.02541
0.978918
0.112015
-0.00208716
0.0171872
0.615512
0.380284
2.95397e-05
0.00248099
0.00606144
0.010039
0.0138865
0.0175995
0.0212441
0.0247703
0.0281154
0.0311586
0.0338213
0.0368833
0.0469127
0.0684363
0.0780641
0.0688585
0.0475908
0.0369328
0.0321711
0.0292586
0.0271161
0.0253615
0.0241131
0.0234598
0.0231848
0.0227644
0.0219284
0.0244796
0.0229551
0.0274858
0.0259379
0.0309378
0.0291019
0.0355157
0.0329327
0.051856
0.040232
0.134839
0.08036
0.120964
0.0862148
0.198711
0.159178
0.217596
0.166559
0.329283
0.293378
0.241736
0.489564
0.455149
0.35955
0.393757
0.604738
0.581696
0.517331
0.489446
0.607146
0.591815
0.572918
0.582319
0.796469
0.733667
0.677756
0.634852
0.993431
0.949227
0.890391
0.82195
1.07441
1.07135
1.05632
1.02738
1.03814
1.07882
1.09791
0.823108
0.89298
1.04834
1.05189
0.976144
0.793386
0.817601
0.805159
0.81884
0.844278
1.04729
1.05887
0.983321
0.881896
0.9286
1.02692
0.906946
0.804067
1.05354
1.01656
0.123039
-0.0195419
0.0111254
0.649928
0.424502
1.1641e-05
0.00286285
0.00671039
0.0107355
0.0145412
0.0181798
0.0217114
0.0250711
0.0282317
0.0309541
0.03369
0.0405215
0.0597003
0.0722264
0.0646709
0.0447059
0.0349282
0.0295715
0.0262075
0.024077
0.0224211
0.0213123
0.0206127
0.0202342
0.0199966
0.0194683
0.0196839
0.0185127
0.0224671
0.0210604
0.0254044
0.0239198
0.0284871
0.0269031
0.0319937
0.030216
0.037443
0.0341505
0.0593985
0.0442429
0.064492
0.0488523
0.123631
0.0895445
0.188021
0.140579
0.301498
0.274814
0.219972
0.197999
0.459184
0.426857
0.328454
0.356002
0.559863
0.541318
0.459921
0.436662
0.524986
0.513575
0.5038
0.508705
0.745689
0.668856
0.601565
0.552403
0.987217
0.933625
0.867451
0.789625
1.09612
1.08297
1.0576
1.02254
1.09445
1.11669
1.11651
0.881274
0.965742
1.1045
1.10906
1.04783
0.817615
0.822769
0.822226
0.868916
0.846419
1.05716
1.07346
0.978968
0.881315
0.927898
1.02734
0.946099
0.842282
1.07512
1.04909
0.178938
-0.0299697
0.0350781
0.697714
0.521531
0.000129762
0.00331301
0.00732662
0.0113075
0.0150408
0.0185754
0.0219321
0.0251564
0.0279607
0.0304877
0.0351207
0.0503225
0.0659292
0.0618654
0.0425266
0.0330335
0.0278679
0.0231361
0.0202376
0.0187183
0.0178944
0.0174293
0.0171797
0.0169901
0.0166144
0.0158103
0.017716
0.0164725
0.0203248
0.0190373
0.0230749
0.0216986
0.0258012
0.0244537
0.0287954
0.027255
0.0322363
0.0303603
0.0398331
0.0349562
0.0514023
0.0402196
0.101713
0.0713568
0.180784
0.157388
0.127668
0.260697
0.240114
0.18903
0.175984
0.411191
0.383886
0.281
0.30129
0.494595
0.479865
0.379604
0.361945
0.437381
0.424966
0.416002
0.420161
0.701599
0.610409
0.528553
0.468031
0.976777
0.91627
0.842375
0.756051
1.10501
1.08275
1.05213
1.01167
1.13105
1.13231
1.12151
0.948806
1.03561
1.14099
1.1456
1.1047
0.858516
0.835403
0.85229
0.928218
0.859311
1.06511
1.08495
0.978863
0.894461
0.940024
1.02939
0.981726
0.879578
1.09156
1.07429
0.324904
0.0679084
0.234603
0.753
0.636091
0.000347166
0.00376243
0.00783731
0.0117328
0.0153705
0.0187398
0.0219221
0.0248497
0.027349
0.030648
0.0412919
0.0582332
0.0582839
0.0409031
0.0303648
0.0256807
0.0219816
0.0164006
0.0141666
0.0135281
0.0135936
0.0137382
0.0138409
0.0137038
0.0130907
0.0119441
0.015692
0.0144574
0.0181101
0.0168957
0.0205463
0.0193374
0.0229126
0.0217406
0.0252821
0.0240713
0.028025
0.0265079
0.0338071
0.0301786
0.0461023
0.0348307
0.0942609
0.065646
0.161684
0.147168
0.112878
0.130719
0.212288
0.201055
0.183704
0.174272
0.342534
0.321818
0.223579
0.234676
0.408384
0.395933
0.283352
0.271475
0.3512
0.333001
0.316442
0.323649
0.658646
0.557081
0.464523
0.393222
0.959383
0.894887
0.817118
0.726349
1.10372
1.07393
1.03876
0.99451
1.14456
1.13503
1.11853
1.01192
1.08698
1.15256
1.15424
1.13789
0.904504
0.858753
0.890179
0.97752
0.884237
1.07241
1.09388
0.99009
0.923714
0.971728
1.03678
1.01181
0.912882
1.10506
1.09196
0.578734
0.245763
0.596408
0.808624
0.736011
0.000584379
0.00415465
0.00821462
0.0120013
0.0154861
0.018681
0.0216513
0.0241855
0.0268463
0.0336687
0.0492822
0.0536565
0.0402532
0.027307
0.0228419
0.0209042
0.0146527
0.00939816
0.00811267
0.00883608
0.00962803
0.0102412
0.0105881
0.0102646
0.0095217
0.00924819
0.0123979
0.00843455
0.0136335
0.0158138
0.0147095
0.0179135
0.0168865
0.0198122
0.0188877
0.0215128
0.0206632
0.0235045
0.0224115
0.0285869
0.0252843
0.0437437
0.0303372
0.0965243
0.0665188
0.16141
0.146843
0.138324
0.160529
0.192301
0.189732
0.216747
0.210436
0.258479
0.245823
0.19409
0.192524
0.307407
0.295864
0.195678
0.190879
0.270588
0.247359
0.223123
0.233288
0.622485
0.5099
0.402909
0.320459
0.941301
0.876729
0.799059
0.70659
1.092
1.05826
1.02027
0.974138
1.14483
1.12961
1.10378
1.05495
1.11936
1.14975
1.1476
1.14704
0.949022
0.898175
0.941426
1.02362
0.926812
1.07799
1.10352
1.01557
0.965394
1.00241
1.05487
1.03545
0.946134
1.11339
1.10421
0.723121
0.127386
0.615717
0.861813
0.810865
0.000809058
0.00446899
0.00845921
0.012094
0.0154088
0.0183974
0.0209842
0.0233717
0.0275983
0.0398804
0.0487729
0.0396549
0.0245206
0.0191638
0.018351
0.014437
0.00695059
0.00229149
0.00286922
0.00459848
0.00598213
0.00701375