/*--------------------------------*- C++ -*----------------------------------*\
  =========                 |
  \\      /  F ield         | OpenFOAM: The Open Source CFD Toolbox
   \\    /   O peration     | Website:  https://openfoam.org
    \\  /    A nd           | Version:  dev
     \\/     M anipulation  |
\*---------------------------------------------------------------------------*/
FoamFile
{
    version     2.0;
    format      ascii;
    class       surfaceScalarField;
    location    "2500";
    object      phi;
}
// * * * * * * * * * * * * * * * * * * * * * * * * * * * * * * * * * * * * * //

dimensions      [1 0 -1 0 0 0 0];

internalField   nonuniform List<scalar> 
19515
(
1.51671e-07
9.54749e-08
1.32599e-07
2.30413e-07
4.08432e-07
8.56319e-08
1.08385e-07
3.07073e-07
4.05301e-07
2.33584e-07
5.80025e-07
7.04242e-08
8.74445e-08
3.54313e-07
3.77728e-07
3.34672e-07
6.01755e-07
2.11888e-07
7.11015e-07
5.73693e-08
7.13097e-08
3.82078e-07
3.32412e-07
3.99718e-07
6.07705e-07
3.28783e-07
7.43113e-07
1.79828e-07
8.19185e-07
4.84097e-08
5.90466e-08
3.99135e-07
2.78467e-07
4.36105e-07
5.8872e-07
4.18749e-07
7.74281e-07
2.9766e-07
8.47873e-07
1.51185e-07
9.17539e-07
4.17379e-08
4.96689e-08
4.12867e-07
2.24474e-07
4.53227e-07
5.46413e-07
4.78455e-07
7.9033e-07
4.02713e-07
8.88994e-07
2.56586e-07
9.40103e-07
1.2869e-07
1.00344e-06
3.65721e-08
4.24435e-08
4.25979e-07
1.8027e-07
4.57182e-07
4.89335e-07
5.10339e-07
7.83266e-07
4.85652e-07
9.31337e-07
3.60437e-07
9.78046e-07
2.1869e-07
1.0213e-06
1.10847e-07
1.08138e-06
3.21492e-08
3.70785e-08
4.37154e-07
1.51253e-07
4.55113e-07
4.25528e-07
5.21086e-07
7.5057e-07
5.43139e-07
9.60369e-07
4.56692e-07
1.02612e-06
3.1242e-07
1.05194e-06
1.88131e-07
1.09526e-06
9.70214e-08
1.15098e-06
2.81519e-08
3.42365e-08
4.44227e-07
1.35469e-07
4.53044e-07
3.62537e-07
5.18225e-07
6.97218e-07
5.7451e-07
9.67134e-07
5.36433e-07
1.07648e-06
4.06415e-07
1.0954e-06
2.69046e-07
1.12024e-06
1.63176e-07
1.16341e-06
8.46417e-08
1.21253e-06
2.47743e-08
3.31843e-08
4.50384e-07
1.25191e-07
4.54636e-07
3.08741e-07
5.06984e-07
6.31446e-07
5.84103e-07
9.47931e-07
5.9376e-07
1.11724e-06
4.95713e-07
1.14961e-06
3.5222e-07
1.15726e-06
2.32131e-07
1.18504e-06
1.4161e-07
1.22354e-06
7.36668e-08
1.26835e-06
2.16169e-08
3.21419e-08
4.58415e-07
1.17304e-07
4.58436e-07
2.69016e-07
4.94504e-07
5.61267e-07
5.77275e-07
9.04473e-07
6.27619e-07
1.13835e-06
5.727e-07
1.20814e-06
4.37196e-07
1.20568e-06
3.03745e-07
1.21624e-06
2.01003e-07
1.24185e-06
1.23313e-07
1.27784e-06
6.42245e-08
1.31806e-06
1.8718e-08
3.12574e-08
4.67023e-07
1.12169e-07
4.63697e-07
2.40532e-07
4.87059e-07
4.9439e-07
5.61517e-07
8.43077e-07
6.38765e-07
1.13413e-06
6.31892e-07
1.26039e-06
5.20557e-07
1.26487e-06
3.78177e-07
1.25756e-06
2.62504e-07
1.26846e-06
1.74503e-07
1.29441e-06
1.06819e-07
1.32659e-06
5.57351e-08
1.36226e-06
1.6352e-08
3.10053e-08
4.76007e-07
1.07524e-07
4.71765e-07
2.21038e-07
4.83344e-07
4.37442e-07
5.44147e-07
7.70638e-07
6.34098e-07
1.10501e-06
6.67948e-07
1.29661e-06
5.95733e-07
1.32996e-06
4.55511e-07
1.31041e-06
3.25386e-07
1.30426e-06
2.26804e-07
1.31775e-06
1.51234e-07
1.34083e-06
9.26489e-08
1.36962e-06
4.84183e-08
1.40213e-06
1.41807e-08
3.10217e-08
4.86721e-07
1.03463e-07
4.80251e-07
2.0952e-07
4.83501e-07
3.90545e-07
5.30404e-07
6.95895e-07
6.19032e-07
1.0569e-06
6.8226e-07
1.31068e-06
6.53925e-07
1.39238e-06
5.33313e-07
1.37384e-06
3.92097e-07
1.3486e-06
2.81127e-07
1.34861e-06
1.96035e-07
1.36179e-06
1.30357e-07
1.38249e-06
7.9871e-08
1.40883e-06
4.17519e-08
1.43811e-06
1.22231e-08
3.10429e-08
5.00283e-07
1.0097e-07
4.89363e-07
2.00484e-07
4.89447e-07
3.53413e-07
5.20816e-07
6.28007e-07
5.98478e-07
9.95511e-07
6.80524e-07
1.30033e-06
6.92685e-07
1.44294e-06
6.03391e-07
1.44408e-06
4.63102e-07
1.40391e-06
3.36883e-07
1.38763e-06
2.42195e-07
1.38862e-06
1.69297e-07
1.40063e-06
1.12287e-07
1.42003e-06
6.87514e-08
1.44385e-06
3.60656e-08
1.47069e-06
1.06638e-08
3.15009e-08
5.16204e-07
1.01224e-07
5.00163e-07
1.93286e-07
4.96726e-07
3.29377e-07
5.13631e-07
5.72022e-07
5.76935e-07
9.26562e-07
6.67521e-07
1.26832e-06
7.1259e-07
1.47488e-06
6.60847e-07
1.51475e-06
5.32656e-07
1.47003e-06
3.9707e-07
1.43435e-06
2.90213e-07
1.42289e-06
2.08048e-07
1.42504e-06
1.44973e-07
1.43635e-06
9.6055e-08
1.45379e-06
5.88659e-08
1.47545e-06
3.13824e-08
1.50041e-06
9.28147e-09
3.22316e-08
5.35134e-07
1.0182e-07
5.15754e-07
1.88484e-07
5.05143e-07
3.1341e-07
5.12863e-07
5.28056e-07
5.5779e-07
8.5642e-07
6.47188e-07
1.2194e-06
7.16494e-07
1.48402e-06
7.03566e-07
1.57824e-06
5.97507e-07
1.54501e-06
4.57658e-07
1.49172e-06
3.39778e-07
1.46521e-06
2.47956e-07
1.45577e-06
1.77418e-07
1.45799e-06
1.23405e-07
1.46815e-06
8.1803e-08
1.48382e-06
5.05678e-08
1.504e-06
2.7849e-08
1.52767e-06
8.09141e-09
3.27885e-08
5.57274e-07
1.01996e-07
5.35093e-07
1.85776e-07
5.18667e-07
3.00341e-07
5.18401e-07
4.95111e-07
5.45978e-07
7.89825e-07
6.24538e-07
1.16004e-06
7.0665e-07
1.47127e-06
7.29338e-07
1.62724e-06
6.54617e-07
1.62409e-06
5.18498e-07
1.56024e-06
3.89197e-07
1.51569e-06
2.89324e-07
1.49365e-06
2.10164e-07
1.4848e-06
1.50673e-07
1.48698e-06
1.04683e-07
1.49618e-06
6.95418e-08
1.511e-06
4.36464e-08
1.53047e-06
2.5098e-08
1.55292e-06
7.10946e-09
3.31157e-08
5.82456e-07
1.0357e-07
5.55846e-07
1.85964e-07
5.35109e-07
2.93745e-07
5.25403e-07
4.71409e-07
5.42274e-07
7.33457e-07
6.02504e-07
1.09577e-06
6.88922e-07
1.44004e-06
7.37944e-07
1.6567e-06
6.99933e-07
1.69971e-06
5.79099e-07
1.63836e-06
4.40451e-07
1.57614e-06
3.28873e-07
1.53887e-06
2.44198e-07
1.51746e-06
1.77658e-07
1.51086e-06
1.26894e-07
1.51244e-06
8.85066e-08
1.52117e-06
5.94622e-08
1.53571e-06
3.85006e-08
1.55553e-06
2.25387e-08
1.5771e-06
6.6448e-09
3.37758e-08
6.10448e-07
1.06024e-07
5.80152e-07
1.86119e-07
5.55854e-07
2.90333e-07
5.38671e-07
4.53025e-07
5.4396e-07
6.90754e-07
5.85135e-07
1.03033e-06
6.68086e-07
1.39383e-06
7.35229e-07
1.66422e-06
7.30492e-07
1.7657e-06
6.33926e-07
1.72387e-06
4.93637e-07
1.64689e-06
3.69757e-07
1.59169e-06
2.76126e-07
1.55758e-06
2.04193e-07
1.54037e-06
1.48245e-07
1.53312e-06
1.06326e-07
1.53476e-06
7.5026e-08
1.54365e-06
5.1625e-08
1.55877e-06
3.53417e-08
1.57913e-06
2.0554e-08
1.60129e-06
6.51294e-09
3.47067e-08
6.4191e-07
1.07743e-07
6.08876e-07
1.86408e-07
5.80028e-07
2.89175e-07
5.57168e-07
4.40655e-07
5.51183e-07
6.58145e-07
5.76714e-07
9.69107e-07
6.46484e-07
1.33895e-06
7.23103e-07
1.65276e-06
7.46779e-07
1.81559e-06
6.80648e-07
1.81025e-06
5.4757e-07
1.72723e-06
4.13205e-07
1.65376e-06
3.0778e-07
1.60597e-06
2.27817e-07
1.57563e-06
1.69034e-07
1.55898e-06
1.2251e-07
1.55222e-06
8.89622e-08
1.55423e-06
6.45343e-08
1.56392e-06
4.65689e-08
1.58098e-06
3.35614e-08
1.60224e-06
1.96531e-08
1.6258e-06
6.62853e-09
3.51636e-08
6.77841e-07
1.09552e-07
6.40275e-07
1.89493e-07
6.05938e-07
2.90634e-07
5.78733e-07
4.3198e-07
5.66025e-07
6.33406e-07
5.7607e-07
9.18037e-07
6.27997e-07
1.27993e-06
7.05695e-07
1.62597e-06
7.49972e-07
1.8467e-06
7.15699e-07
1.89183e-06
5.99135e-07
1.81693e-06
4.58039e-07
1.72673e-06
3.40201e-07
1.662e-06
2.51805e-07
1.61803e-06
1.85513e-07
1.59047e-06
1.37637e-07
1.57372e-06
1.01141e-07
1.5679e-06
7.54026e-08
1.57152e-06
5.70459e-08
1.58324e-06
4.4409e-08
1.60265e-06
3.32161e-08
1.62587e-06
1.96301e-08
1.65157e-06
7.08535e-09
3.56064e-08
7.16865e-07
1.12205e-07
6.75324e-07
1.93436e-07
6.36499e-07
2.91058e-07
6.05685e-07
4.25357e-07
5.85559e-07
6.16886e-07
5.82744e-07
8.77897e-07
6.16481e-07
1.22139e-06
6.86724e-07
1.58695e-06
7.44801e-07
1.85829e-06
7.38475e-07
1.96235e-06
6.45115e-07
1.91201e-06
5.04046e-07
1.81007e-06
3.74743e-07
1.7268e-06
2.7549e-07
1.66881e-06
2.01139e-07
1.62828e-06
1.47821e-07
1.60064e-06
1.10831e-07
1.58534e-06
8.38403e-08
1.58137e-06
6.56662e-08
1.58727e-06
5.31311e-08
1.60258e-06
4.45942e-08
1.62498e-06
3.41821e-08
1.65035e-06
2.08794e-08
1.67903e-06
7.58874e-09
3.62347e-08
7.58598e-07
1.14582e-07
7.14623e-07
1.97449e-07
6.71487e-07
2.92063e-07
6.35664e-07
4.22721e-07
6.08493e-07
6.05931e-07
5.96668e-07
8.48811e-07
6.11995e-07
1.16856e-06
6.69453e-07
1.54022e-06
7.33573e-07
1.85327e-06
7.49917e-07
2.01756e-06
6.83342e-07
2.00714e-06
5.50075e-07
1.9038e-06
4.10395e-07
1.80258e-06
2.99026e-07
1.72781e-06
2.16504e-07
1.67317e-06
1.56359e-07
1.63415e-06
1.14425e-07
1.60745e-06
8.88428e-08
1.59404e-06
7.13005e-08
1.59289e-06
6.01745e-08
1.603e-06
5.28258e-08
1.62298e-06
4.66931e-08
1.64839e-06
3.62001e-08
1.67741e-06
2.25375e-08
1.71436e-06
8.31323e-09
3.69305e-08
8.03166e-07
1.15853e-07
7.57456e-07
2.00661e-07
7.11535e-07
2.94452e-07
6.6926e-07
4.2191e-07
6.36626e-07
5.98753e-07
6.1583e-07
8.29612e-07
6.16022e-07
1.12434e-06
6.5638e-07
1.4905e-06
7.19344e-07
1.83512e-06
7.51785e-07
2.05571e-06
7.11876e-07
2.09701e-06
5.93533e-07
2.00629e-06
4.47601e-07
1.88971e-06
3.2331e-07
1.79666e-06
2.30308e-07
1.72695e-06
1.62809e-07
1.67427e-06
1.16343e-07
1.63499e-06
8.7014e-08
1.61018e-06
7.28427e-08
1.60035e-06
6.39552e-08
1.6041e-06
5.91951e-08
1.61962e-06
5.63052e-08
1.64471e-06
5.04814e-08
1.67447e-06
3.92058e-08
1.71276e-06
2.41791e-08
1.74569e-06
9.45158e-09
3.7485e-08
8.50381e-07
1.16258e-07
8.02879e-07
2.03444e-07
7.54836e-07
2.98359e-07
7.07844e-07
4.21445e-07
6.69844e-07
5.93869e-07
6.41649e-07
8.15406e-07
6.30125e-07
1.09098e-06
6.49544e-07
1.44216e-06
7.04881e-07
1.80643e-06
7.48206e-07
2.0765e-06
7.31067e-07
2.17615e-06
6.32784e-07
2.11373e-06
4.86115e-07
1.98841e-06
3.48853e-07
1.87654e-06
2.43479e-07
1.78995e-06
1.67393e-07
1.72199e-06
1.15189e-07
1.66925e-06
8.21826e-08
1.63112e-06
6.61838e-08
1.61008e-06
6.32629e-08
1.60549e-06
6.26908e-08
1.61544e-06
6.34985e-08
1.6387e-06
6.24359e-08
1.66936e-06
5.56813e-08
1.70924e-06
4.278e-08
1.7447e-06
2.51899e-08
1.77907e-06
1.03774e-08
3.72504e-08
9.00418e-07
1.16236e-07
8.50537e-07
2.06885e-07
7.99588e-07
3.02512e-07
7.50811e-07
4.22489e-07
7.06905e-07
5.90984e-07
6.72925e-07
8.0621e-07
6.50951e-07
1.06964e-06
6.51735e-07
1.39836e-06
6.93545e-07
1.77072e-06
7.40713e-07
2.08198e-06
7.42853e-07
2.24139e-06
6.65875e-07
2.22129e-06
5.25225e-07
2.09806e-06
3.76572e-07
1.96851e-06
2.56922e-07
1.8637e-06
1.69791e-07
1.77969e-06
1.09801e-07
1.71161e-06
7.2946e-08
1.6584e-06
5.50371e-08
1.62358e-06
5.28103e-08
1.60835e-06
6.05414e-08
1.61083e-06
6.7431e-08
1.63013e-06
7.2186e-08
1.66109e-06
7.08114e-08
1.70323e-06
6.17893e-08
1.74284e-06
4.47061e-08
1.77969e-06
2.45907e-08
1.81242e-06
1.03337e-08
3.6459e-08
9.5207e-07
1.16885e-07
8.99884e-07
2.09945e-07
8.47597e-07
3.05288e-07
7.96937e-07
4.25137e-07
7.48317e-07
5.90256e-07
7.07798e-07
8.0181e-07
6.77369e-07
1.05667e-06
6.64135e-07
1.36231e-06
6.87949e-07
1.73197e-06
7.325e-07
2.07563e-06
7.47169e-07
2.29176e-06
6.92567e-07
2.32391e-06
5.63339e-07
2.21636e-06
4.06973e-07
2.07316e-06
2.71992e-07
1.94939e-06
1.7128e-07
1.84784e-06
1.01687e-07
1.76308e-06
5.84328e-08
1.69364e-06
3.78251e-08
1.64248e-06
3.62859e-08
1.61362e-06
4.76875e-08
1.60572e-06
6.58048e-08
1.61893e-06
7.87737e-08
1.649e-06
8.44045e-08
1.69298e-06
8.11619e-08
1.73825e-06
6.64542e-08
1.77998e-06
4.44658e-08
1.81588e-06
2.11426e-08
1.84573e-06
7.88735e-09
3.58977e-08
1.00522e-06
1.17693e-07
9.51372e-07
2.1037e-07
8.99588e-07
3.06341e-07
8.46693e-07
4.27387e-07
7.94814e-07
5.90667e-07
7.4805e-07
7.99182e-07
7.10561e-07
1.04781e-06
6.86537e-07
1.33673e-06
6.89913e-07
1.69416e-06
7.25917e-07
2.05998e-06
7.48226e-07
2.32636e-06
7.12657e-07
2.41725e-06
5.99273e-07
2.33983e-06
4.39889e-07
2.19036e-06
2.89703e-07
2.04829e-06
1.7311e-07
1.9284e-06
9.08235e-08
1.82643e-06
3.84702e-08
1.73874e-06
1.34463e-08
1.66885e-06
1.15815e-08
1.62285e-06
2.71962e-08
1.60126e-06
5.22955e-08
1.6049e-06
7.99724e-08
1.63154e-06
9.63678e-08
1.67693e-06
1.00574e-07
1.72861e-06
9.09094e-08
1.77787e-06
6.86436e-08
1.82066e-06
3.97272e-08
1.85252e-06
1.43656e-08
1.87658e-06
3.6599e-09
3.48368e-08
1.05895e-06
1.17175e-07
1.00585e-06
2.09212e-07
9.52657e-07
3.07299e-07
8.98756e-07
4.29479e-07
8.4466e-07
5.90941e-07
7.94664e-07
7.9703e-07
7.50307e-07
1.04122e-06
7.1729e-07
1.3212e-06
7.02271e-07
1.6601e-06
7.24175e-07
2.03809e-06
7.48012e-07
2.34691e-06
7.27777e-07
2.49806e-06
6.31887e-07
2.46384e-06
4.75307e-07
2.31899e-06
3.11311e-07
2.16133e-06
1.76727e-07
2.02278e-06
7.87957e-08
1.90241e-06
1.49013e-08
1.7958e-06
-1.84851e-08
1.70545e-06
-2.30385e-08
1.63826e-06
-3.68722e-09
1.59862e-06
2.99729e-08
1.58844e-06
6.89114e-08
1.60813e-06
1.03531e-07
1.65331e-06
1.20122e-07
1.71191e-06
1.17391e-07
1.7708e-06
9.80635e-08
1.82404e-06
6.53282e-08
1.86373e-06
2.85535e-08
1.88803e-06
2.92411e-09
1.89804e-06
-3.70363e-09
3.35969e-08
1.11169e-06
1.15277e-07
1.06099e-06
2.0764e-07
1.00754e-06
3.07164e-07
9.52885e-07
4.30408e-07
8.9793e-07
5.90954e-07
8.44831e-07
7.9679e-07
7.95107e-07
1.03999e-06
7.51689e-07
1.31376e-06
7.24832e-07
1.63305e-06
7.29523e-07
2.01315e-06
7.49257e-07
2.35534e-06
7.39695e-07
2.56461e-06
6.61301e-07
2.5836e-06
5.12145e-07
2.45701e-06
3.37224e-07
2.28785e-06
1.8474e-07
2.13173e-06
6.78177e-08
1.99293e-06
-1.16084e-08
1.86748e-06
-5.66872e-08
1.75452e-06
-6.7435e-08
1.66271e-06
-4.73534e-08
1.60036e-06
-5.28027e-09
1.5713e-06
4.7264e-08
1.57896e-06
9.8229e-08
1.62029e-06
1.367e-07
1.685e-06
1.47165e-07
1.75578e-06
1.32525e-07
1.82307e-06
9.91256e-08
1.87621e-06
5.29021e-08
1.90816e-06
8.44417e-09
1.91863e-06
-1.7677e-08
1.90844e-06
-1.37501e-08
3.24261e-08
1.16271e-06
1.12341e-07
1.11472e-06
2.04591e-07
1.06415e-06
3.05041e-07
1.00977e-06
4.29193e-07
9.5426e-07
5.91204e-07
8.97785e-07
7.98447e-07
8.43265e-07
1.04212e-06
7.92924e-07
1.3096e-06
7.56009e-07
1.61542e-06
7.42658e-07
1.98811e-06
7.54773e-07
2.35461e-06
7.5012e-07
2.61629e-06
6.88109e-07
2.6952e-06
5.49744e-07
2.60048e-06
3.68757e-07
2.42787e-06
1.97165e-07
2.25652e-06
5.99976e-08
2.09995e-06
-3.91563e-08
1.95535e-06
-9.93907e-08
1.8191e-06
-1.21154e-07
1.70082e-06
-1.05406e-07
1.61056e-06
-5.74023e-08
1.55615e-06
1.00292e-08
1.54495e-06
8.14413e-08
1.5765e-06
1.42173e-07
1.64523e-06
1.76611e-07
1.7282e-06
1.74869e-07
1.81392e-06
1.41775e-07
1.8861e-06
8.93119e-08
1.93332e-06
2.77883e-08
1.95166e-06
-2.45684e-08
1.93945e-06
-4.86867e-08
1.90114e-06
-7.21117e-09
-1.80955e-08
3.10315e-08
1.211e-06
1.08502e-07
1.16658e-06
1.99343e-07
1.12004e-06
3.0083e-07
1.06846e-06
4.264e-07
1.01267e-06
5.9058e-07
9.54939e-07
7.9978e-07
8.96513e-07
1.04353e-06
8.41936e-07
1.30924e-06
7.93506e-07
1.60747e-06
7.64085e-07
1.96649e-06
7.6449e-07
2.34864e-06
7.60907e-07
2.65439e-06
7.12114e-07
2.79539e-06
5.88038e-07
2.74489e-06
4.05424e-07
2.57979e-06
2.16957e-07
2.39584e-06
5.78285e-08
2.22374e-06
-6.37788e-08
2.0609e-06
-1.44627e-07
1.90313e-06
-1.83306e-07
1.75684e-06
-1.77032e-07
1.6337e-06
-1.28385e-07
1.54678e-06
-4.78706e-08
1.5084e-06
4.67495e-08
1.52277e-06
1.35335e-07
1.58953e-06
1.98029e-07
1.68411e-06
2.20839e-07
1.79039e-06
1.98517e-07
1.88809e-06
1.39873e-07
1.95912e-06
6.35736e-08
1.99283e-06
-1.33404e-08
1.98996e-06
-7.50703e-08
1.9413e-06
-4.03687e-08
-4.84914e-08
9.3076e-07
-6.9087e-09
9.3897e-07
-2.63149e-08
2.90664e-08
1.25617e-06
1.02968e-07
1.21662e-06
1.91436e-07
1.17458e-06
2.9416e-07
1.12683e-06
4.22693e-07
1.07224e-06
5.88579e-07
1.01469e-06
8.00383e-07
9.54421e-07
1.04541e-06
8.94748e-07
1.31379e-06
8.37494e-07
1.60524e-06
7.95887e-07
1.94891e-06
7.81847e-07
2.33944e-06
7.73844e-07
2.68132e-06
7.34078e-07
2.88201e-06
6.25444e-07
2.88542e-06
4.47503e-07
2.741e-06
2.442e-07
2.55005e-06
6.27112e-08
2.36459e-06
-8.30537e-08
2.18607e-06
-1.88859e-07
2.00859e-06
-2.49977e-07
1.8349e-06
-2.61236e-07
1.67619e-06
-2.19367e-07
1.54965e-06
-1.31082e-07
1.47405e-06
-1.33503e-08
1.46162e-06
1.08074e-07
1.51653e-06
2.0849e-07
1.61753e-06
2.64757e-07
1.74734e-06
2.64011e-07
1.87495e-06
2.11757e-07
1.97886e-06
1.20214e-07
2.03965e-06
1.67978e-08
2.05017e-06
-3.71864e-08
-3.63454e-08
9.95374e-07
-6.31007e-08
1.00005e-06
-6.60705e-08
9.45349e-07
-4.67511e-08
9.60712e-07
-6.38565e-08
9.20787e-07
-6.81448e-09
9.2659e-07
-3.21241e-08
2.62709e-08
1.29723e-06
9.54894e-08
1.26369e-06
1.81855e-07
1.22628e-06
2.85799e-07
1.18307e-06
4.16421e-07
1.13314e-06
5.84922e-07
1.07597e-06
8.00048e-07
1.01512e-06
1.04862e-06
9.51231e-07
1.31926e-06
8.89297e-07
1.60773e-06
8.35199e-07
1.93784e-06
8.07167e-07
2.32939e-06
7.92076e-07
2.69832e-06
7.56964e-07
2.95383e-06
6.62393e-07
3.01911e-06
4.91776e-07
2.90809e-06
2.80371e-07
2.71797e-06
7.62535e-08
2.52245e-06
-9.51747e-08
2.33147e-06
-2.2847e-07
2.13731e-06
-3.1749e-07
1.93936e-06
-3.54329e-07
1.74484e-06
-3.29727e-07
1.57296e-06
-2.42503e-07
1.449e-06
-1.05846e-07
1.39558e-06
5.28709e-08
1.42564e-06
1.99139e-07
1.52567e-06
3.00499e-07
1.67466e-06
3.37562e-07
1.84113e-06
2.97938e-07
1.98672e-06
2.0398e-07
2.08477e-06
7.5155e-08
2.12132e-06
-2.87791e-08
-2.55395e-08
1.01588e-06
-5.77005e-08
1.0376e-06
-5.80662e-08
9.76542e-07
-7.89318e-08
1.02026e-06
-7.79047e-08
1.00008e-06
-8.96067e-08
9.36778e-07
-5.69427e-08
9.51916e-07
-7.89972e-08
9.07473e-07
-6.09758e-09
9.12794e-07
-3.74493e-08
2.27945e-08
1.333e-06
8.62303e-08
1.30657e-06
1.70925e-07
1.27473e-06
2.74573e-07
1.23755e-06
4.05899e-07
1.19363e-06
5.80019e-07
1.1381e-06
7.98163e-07
1.07789e-06
1.05113e-06
1.01265e-06
1.32457e-06
9.46038e-07
1.61397e-06
8.83269e-07
1.93211e-06
8.41068e-07
2.32013e-06
8.16632e-07
2.71017e-06
7.80385e-07
3.01253e-06
6.98383e-07
3.14098e-06
5.4063e-07
3.07469e-06
3.25245e-07
2.89646e-06
1.01819e-07
2.69421e-06
-9.55086e-08
2.49577e-06
-2.59484e-07
2.29035e-06
-3.81506e-07
2.07386e-06
-4.5188e-07
1.84644e-06
-4.55786e-07
1.6272e-06
-3.83786e-07
1.44395e-06
-2.37258e-07
1.33259e-06
-4.26564e-08
1.31985e-06
1.58853e-07
1.40524e-06
3.19729e-07
1.5655e-06
4.09791e-07
1.77055e-06
4.08243e-07
1.97031e-06
3.14426e-07
2.12837e-06
1.60445e-07
2.20134e-06
-6.86954e-09
2.04942e-09
1.06197e-06
-5.31488e-08
1.08589e-06
-4.94612e-08
1.04436e-06
-8.21725e-08
9.7107e-07
-9.8088e-08
1.02414e-06
-1.01966e-07
9.95373e-07
-1.13912e-07
9.24053e-07
-6.82042e-08
9.40399e-07
-9.5344e-08
8.89408e-07
-7.16596e-09
8.95106e-07
-4.31506e-08
1.88832e-08
1.36186e-06
7.52774e-08
1.34401e-06
1.56866e-07
1.3207e-06
2.58069e-07
1.29127e-06
3.91702e-07
1.25165e-06
5.72758e-07
1.20091e-06
7.94159e-07
1.14214e-06
1.05105e-06
1.07794e-06
1.32934e-06
1.00796e-06
1.62124e-06
9.38869e-07
1.93206e-06
8.83497e-07
2.31124e-06
8.50146e-07
2.7162e-06
8.10769e-07
3.05865e-06
7.34381e-07
3.25062e-06
5.88736e-07
3.2385e-06
3.76891e-07
3.08141e-06
1.40256e-07
2.87726e-06
-8.12351e-08
2.67494e-06
-2.74684e-07
2.46429e-06
-4.33391e-07
2.23784e-06
-5.4545e-07
1.9868e-06
-5.92113e-07
1.72435e-06
-5.52762e-07
1.47519e-06
-4.14832e-07
1.28602e-06
-1.90478e-07
1.20259e-06
7.48051e-08
1.25383e-06
3.10449e-07
1.41254e-06
4.72828e-07
1.64471e-06
5.35737e-07
1.90085e-06
4.77778e-07
2.13699e-06
3.05862e-07
2.27758e-06
3.49877e-08
4.92667e-08
1.11603e-06
-3.70022e-08
1.14104e-06
-2.29515e-08
1.07219e-06
-8.09765e-08
1.10251e-06
-7.97774e-08
1.05234e-06
-1.10373e-07
9.61724e-07
-1.19415e-07
1.02363e-06
-1.30228e-07
9.88482e-07
-1.40672e-07
9.07157e-07
-8.02557e-08
9.24872e-07
-1.13059e-07
8.67797e-07
-1.02436e-08
8.73392e-07
-4.87462e-08
1.40752e-08
1.38329e-06
6.31203e-08
1.37405e-06
1.39878e-07
1.36105e-06
2.39726e-07
1.33914e-06
3.77514e-07
1.30546e-06
5.62369e-07
1.26218e-06
7.8903e-07
1.20597e-06
1.04987e-06
1.14334e-06
1.33343e-06
1.07383e-06
1.62909e-06
1.0002e-06
1.9373e-06
9.33768e-07
2.30431e-06
8.90555e-07
2.71841e-06
8.48121e-07
3.09226e-06
7.7729e-07
3.34217e-06
6.42961e-07
3.39354e-06
4.3373e-07
3.27236e-06
1.85984e-07
3.07183e-06
-5.43812e-08
2.86651e-06
-2.72844e-07
2.65416e-06
-4.64517e-07
2.42561e-06
-6.21126e-07
2.1641e-06
-7.22648e-07
1.87216e-06
-7.39759e-07
1.56386e-06
-6.41198e-07
1.28692e-06
-4.15469e-07
1.10772e-06
-9.53751e-08
1.09331e-06
2.35508e-07
1.23867e-06
4.84431e-07
1.49188e-06
6.257e-07
1.78771e-06
6.48884e-07
2.0875e-06
5.27273e-07
2.34676e-06
1.06689e-07
1.30015e-07
1.1741e-06
1.93108e-09
1.19596e-06
2.74176e-08
1.13619e-06
-7.06798e-08
1.17031e-06
-5.70733e-08
1.08444e-06
-1.13077e-07
1.11955e-06
-1.14883e-07
1.05604e-06
-1.42785e-07
9.48343e-07
-1.42885e-07
1.01982e-06
-1.61569e-07
9.78045e-07
-1.70374e-07
8.85866e-07
-9.27271e-08
9.0465e-07
-1.3184e-07
8.3728e-07
-1.33916e-08
8.45127e-07
-5.65915e-08
8.23848e-09
1.39515e-06
4.97819e-08
1.39673e-06
1.20227e-07
1.39374e-06
2.21023e-07
1.37977e-06
3.60657e-07
1.35589e-06
5.47773e-07
1.31995e-06
7.82239e-07
1.26886e-06
1.04745e-06
1.20846e-06
1.33516e-06
1.14153e-06
1.63634e-06
1.06661e-06
1.9457e-06
9.91916e-07
2.30096e-06
9.37256e-07
2.71918e-06
8.89966e-07
3.11825e-06
8.22276e-07
3.41765e-06
7.01908e-07
3.53337e-06
5.03162e-07
3.45695e-06
2.49238e-07
3.27284e-06
-1.49855e-08
3.07101e-06
-2.58947e-07
2.86055e-06
-4.7923e-07
2.6344e-06
-6.73257e-07
2.37133e-06
-8.2826e-07
2.06743e-06
-9.17757e-07
1.72263e-06
-8.98238e-07
1.37626e-06
-7.30068e-07
1.10821e-06
-4.1546e-07
1.016e-06
-1.78338e-08
1.11614e-06
3.57955e-07
1.38643e-06
5.89495e-07
1.72681e-06
6.86119e-07
2.07517e-06
6.60821e-07
2.42396e-06
2.11842e-07
2.38043e-07
1.23284e-06
6.98097e-08
1.25024e-06
1.12601e-07
1.20738e-06
-3.51276e-08
1.24243e-06
-7.63287e-09
1.15835e-06
-1.09473e-07
1.19934e-06
-9.80569e-08
1.09338e-06
-1.50408e-07
1.13428e-06
-1.5578e-07
1.05662e-06
-1.79586e-07
9.29668e-07
-1.67899e-07
1.01215e-06
-1.95672e-07
9.61083e-07
-2.01788e-07
8.58972e-07
-1.06566e-07
8.79189e-07
-1.5205e-07
8.0314e-07
-1.66922e-08
8.12881e-07
-6.63268e-08
2.07044e-09
1.3935e-06
3.51572e-08
1.40984e-06
9.87293e-08
1.41825e-06
1.99354e-07
1.41541e-06
3.39035e-07
1.40138e-06
5.30911e-07
1.37266e-06
7.72944e-07
1.32928e-06
1.04308e-06
1.27324e-06
1.33443e-06
1.20915e-06
1.64215e-06
1.13575e-06
1.95629e-06
1.05625e-06
2.30278e-06
9.90225e-07
2.71948e-06
9.37169e-07
3.139e-06
8.69344e-07
3.48033e-06
7.59723e-07
3.65901e-06
5.76328e-07
3.63486e-06
3.25306e-07
3.47304e-06
4.89243e-08
3.27524e-06
-2.1904e-07
3.07435e-06
-4.72849e-07
2.86234e-06
-7.0702e-07
2.60603e-06
-9.0786e-07
2.30562e-06
-1.06625e-06
1.95213e-06
-1.14673e-06
1.58107e-06
-1.10189e-06
1.28169e-06
-9.01792e-07
1.15937e-06
-5.57383e-07
1.24486e-06
-1.46751e-07
1.48944e-06
2.52811e-07
1.82909e-06
4.84093e-07
2.19988e-06
5.58532e-07
2.55895e-06
2.76943e-07
2.46922e-07
1.29305e-06
1.68986e-07
1.3242e-06
2.06728e-07
1.28028e-06
3.19422e-08
1.31656e-06
7.62867e-08
1.24304e-06
-7.88359e-08
1.28683e-06
-5.14238e-08
1.17902e-06
-1.54219e-07
1.2269e-06
-1.4593e-07
1.09897e-06
-1.92761e-07
1.14571e-06
-2.02513e-07
1.05295e-06
-2.20389e-07
9.05632e-07
-1.94336e-07
9.98903e-07
-2.33492e-07
9.3914e-07
-2.3529e-07
8.27308e-07
-1.20983e-07
8.48182e-07
-1.72912e-07
7.651e-07
-2.04179e-08
7.75986e-07
-7.72035e-08
-4.98341e-09
1.37928e-06
1.69689e-08
1.41173e-06
7.50633e-08
1.43355e-06
1.75734e-07
1.44187e-06
3.17154e-07
1.43722e-06
5.11061e-07
1.42122e-06
7.58725e-07
1.38682e-06
1.03524e-06
1.33696e-06
1.33124e-06
1.27635e-06
1.64542e-06
1.20583e-06
1.967e-06
1.12508e-06
2.30896e-06
1.05012e-06
2.72002e-06
9.89848e-07
3.15601e-06
9.20232e-07
3.53185e-06
8.17918e-07
3.76982e-06
6.49007e-07
3.80501e-06
4.06159e-07
3.67415e-06
1.24117e-07
3.48178e-06
-1.5788e-07
3.28707e-06
-4.31705e-07
3.08829e-06
-6.98794e-07
2.85837e-06
-9.59285e-07
2.57966e-06
-1.18165e-06
2.24838e-06
-1.36164e-06
1.90075e-06
-1.46392e-06
1.65668e-06
-1.47183e-06
1.62852e-06
-1.36496e-06
1.80013e-06
-1.11027e-06
2.05099e-06
-7.12638e-07
2.33858e-06
-2.6596e-07
2.66171e-06
1.16059e-08
2.97503e-06
1.70868e-07
-3.7774e-08
1.38822e-06
2.12381e-07
1.48408e-06
1.4931e-07
1.36305e-06
1.22389e-07
1.42712e-06
1.42286e-07
1.33365e-06
-1.4906e-08
1.38439e-06
2.54511e-08
1.27808e-06
-1.30029e-07
1.33202e-06
-1.05384e-07
1.19692e-06
-2.05433e-07
1.25263e-06
-2.01644e-07
1.10094e-06
-2.40751e-07
1.15319e-06
-2.5476e-07
1.0441e-06
-2.65585e-07
8.75978e-07
-2.22121e-07
9.8076e-07
-2.75109e-07
9.11637e-07
-2.7094e-07
7.90382e-07
-1.35364e-07
8.11489e-07
-1.94002e-07
7.20383e-07
-2.36353e-08
7.31103e-07
-8.79095e-08
-1.43432e-08
1.35109e-06
-5.80808e-09
1.40212e-06
4.78529e-08
1.43899e-06
1.49225e-07
1.46006e-06
2.92271e-07
1.46668e-06
4.84165e-07
1.46397e-06
7.39731e-07
1.44e-06
1.02386e-06
1.39812e-06
1.32532e-06
1.34277e-06
1.64542e-06
1.27629e-06
1.97563e-06
1.19721e-06
2.31802e-06
1.11605e-06
2.72158e-06
1.04861e-06
3.16979e-06
9.76153e-07
3.57396e-06
8.78207e-07
3.86521e-06
7.22574e-07
3.9639e-06
4.90083e-07
3.87396e-06
2.06508e-07
3.69216e-06
-8.63925e-08
3.50153e-06
-3.72419e-07
3.31264e-06
-6.56191e-07
3.10768e-06
-9.47995e-07
2.86422e-06
-1.2436e-06
2.58751e-06
-1.51959e-06
2.31581e-06
-1.77253e-06
2.20628e-06
-2.00428e-06
2.34211e-06
-2.17269e-06
2.65364e-06
-2.20916e-06
2.96772e-06
-2.02782e-06
3.26245e-06
-1.65051e-06
3.54608e-06
-1.17231e-06
3.86779e-06
-3.16741e-07
-5.87962e-07
1.6665e-06
-1.58959e-08
1.90644e-06
-2.83638e-07
1.53665e-06
1.01631e-07
1.72268e-06
-4.03541e-08
1.4559e-06
5.05924e-08
1.57516e-06
2.20669e-08
1.3913e-06
-7.42597e-08
1.46941e-06
-5.28995e-08
1.31349e-06
-1.90905e-07
1.37997e-06
-1.71923e-07
1.21151e-06
-2.63755e-07
1.27705e-06
-2.67196e-07
1.09639e-06
-2.9304e-07
1.15562e-06
-3.13993e-07
1.02953e-06
-3.14351e-07
8.40329e-07
-2.50944e-07
9.56025e-07
-3.19489e-07
8.7793e-07
-3.08527e-07
7.47167e-07
-1.51408e-07
7.68611e-07
-2.15422e-07
6.71143e-07
-2.67179e-08
6.8189e-07
-9.86383e-08
-2.49795e-08
1.30598e-06
-3.28961e-08
1.37819e-06
1.7953e-08
1.43203e-06
1.18418e-07
1.46971e-06
2.6246e-07
1.48983e-06
4.52855e-07
1.49787e-06
7.16589e-07
1.48703e-06
1.00828e-06
1.45544e-06
1.31564e-06
1.40769e-06
1.64183e-06
1.34628e-06
1.98153e-06
1.27036e-06
2.32884e-06
1.18639e-06
2.72476e-06
1.11293e-06
3.18052e-06
1.03804e-06
3.60913e-06
9.41099e-07
3.94662e-06
7.96852e-07
4.10889e-06
5.77651e-07
4.06845e-06
2.95599e-07
3.9046e-06
-5.93635e-09
3.71757e-06
-3.0259e-07
3.53739e-06
-5.97283e-07
3.35282e-06
-9.0134e-07
3.14538e-06
-1.22879e-06
2.92403e-06
-1.57871e-06
2.76662e-06
-1.96475e-06
2.85956e-06
-2.41207e-06
3.20072e-06
-2.84396e-06
3.64393e-06
-3.14607e-06
3.97088e-06
-3.20598e-06
4.23739e-06
-3.01223e-06
4.55843e-06
-2.6891e-06
4.91841e-06
-1.0134e-06
-1.24152e-06
2.15709e-06
-5.74387e-07
2.47068e-06
-9.09861e-07
1.97831e-06
-2.77429e-07
2.24849e-06
-5.60956e-07
1.77571e-06
-1.01644e-07
2.04325e-06
-3.1347e-07
1.59961e-06
-8.03793e-08
1.81636e-06
-1.96887e-07
1.46787e-06
-1.62369e-07
1.61242e-06
-1.98096e-07
1.35147e-06
-2.65381e-07
1.44994e-06
-2.70557e-07
1.22313e-06
-3.31265e-07
1.30336e-06
-3.47455e-07
1.08666e-06
-3.50163e-07
1.15429e-06
-3.81627e-07
1.00825e-06
-3.6657e-07
7.98476e-07
-2.80786e-07
9.2442e-07
-3.65964e-07
8.36799e-07
-3.46827e-07
6.98642e-07
-1.68131e-07
7.20247e-07
-2.36996e-07
6.17113e-07
-2.96362e-08
6.26839e-07
-1.08339e-07
-3.70282e-08
1.23997e-06
-6.2678e-08
1.33578e-06
-1.37899e-08
1.40993e-06
8.49444e-08
1.46541e-06
2.28833e-07
1.50329e-06
4.19131e-07
1.52341e-06
6.86996e-07
1.52732e-06
9.87009e-07
1.50812e-06
1.30148e-06
1.46937e-06
1.63439e-06
1.41508e-06
1.98351e-06
1.34425e-06
2.33838e-06
1.26083e-06
2.72924e-06
1.18192e-06
3.18863e-06
1.10488e-06
3.63919e-06
1.00808e-06
4.01544e-06
8.72382e-07
4.23884e-06
6.6693e-07
4.25493e-06
3.91084e-07
4.11676e-06
8.36498e-08
3.93371e-06
-2.22143e-07
3.75883e-06
-5.24141e-07
3.59089e-06
-8.35394e-07
3.41646e-06
-1.17227e-06
3.24809e-06
-1.55131e-06
3.19997e-06
-2.00554e-06
3.49731e-06
-2.58545e-06
4.10529e-06
-3.2922e-06
4.6392e-06
-3.81657e-06
4.89808e-06
-4.05758e-06
5.03989e-06
-4.00696e-06
5.35589e-06
-3.82877e-06
5.82457e-06
-3.63177e-06
2.7031e-06
-1.25483e-06
3.03023e-06
-1.57839e-06
2.53807e-06
-8.72305e-07
2.83291e-06
-1.21406e-06
2.33125e-06
-5.72403e-07
2.62212e-06
-8.60037e-07
2.10168e-06
-3.91907e-07
2.40685e-06
-6.25158e-07
1.84856e-06
-3.18356e-07
2.15479e-06
-5.07366e-07
1.61453e-06
-3.27497e-07
1.87632e-06
-4.61391e-07
1.41486e-06
-3.7699e-07
1.6067e-06
-4.62782e-07
1.23834e-06
-4.15303e-07
1.36427e-06
-4.7339e-07
1.07237e-06
-4.14262e-07
1.15904e-06
-4.68247e-07
9.81551e-07
-4.2367e-07
7.50248e-07
-3.10755e-07
8.85873e-07
-4.14993e-07
7.89781e-07
-3.86304e-07
6.42919e-07
-1.84173e-07
6.65429e-07
-2.59464e-07
5.59078e-07
-3.22127e-08
5.67736e-07
-1.16963e-07
-5.18938e-08
1.14869e-06
-9.44109e-08
1.27171e-06
-4.79058e-08
1.36987e-06
4.97115e-08
1.44506e-06
1.90644e-07
1.50353e-06
3.82832e-07
1.53945e-06
6.52288e-07
1.55776e-06
9.60293e-07
1.55378e-06
1.28261e-06
1.52684e-06
1.62231e-06
1.48143e-06
1.98078e-06
1.41767e-06
2.34535e-06
1.33728e-06
2.73529e-06
1.25481e-06
3.19478e-06
1.17575e-06
3.66453e-06
1.0796e-06
4.07362e-06
9.49988e-07
4.35357e-06
7.57699e-07
4.43084e-06
4.90982e-07
4.32709e-06
1.80542e-07
4.14975e-06
-1.32387e-07
3.97626e-06
-4.39586e-07
3.81851e-06
-7.51761e-07
3.67006e-06
-1.08885e-06
3.5515e-06
-1.47434e-06
3.59926e-06
-1.94395e-06
4.07498e-06
-2.56471e-06
4.92343e-06
-3.37538e-06
5.46701e-06
-4.09501e-06
5.5813e-06
-4.47802e-06
5.55807e-06
-4.55943e-06
5.79874e-06
-4.44844e-06
6.32495e-06
-4.35051e-06
-3.31942e-06
6.88157e-06
-2.05764e-06
-2.14301e-06
3.0983e-06
-1.53046e-06
-1.80965e-06
2.91132e-06
-1.17088e-06
3.19756e-06
-1.51071e-06
2.71277e-06
-8.86174e-07
3.00658e-06
-1.16288e-06
2.48072e-06
-7.23692e-07
2.80199e-06
-9.53626e-07
2.20469e-06
-6.50234e-07
2.55221e-06
-8.5981e-07
1.89846e-06
-6.20372e-07
2.2506e-06
-8.16107e-07
1.58472e-06
-5.97558e-07
1.90987e-06
-7.8855e-07
1.30089e-06
-5.56998e-07
1.54948e-06
-7.21705e-07
1.06639e-06
-4.98989e-07
1.22147e-06
-6.22978e-07
9.64558e-07
-5.02188e-07
6.95165e-07
-3.40428e-07
8.58396e-07
-4.834e-07
7.49912e-07
-4.40827e-07
5.82812e-07
-1.99201e-07
6.03989e-07
-2.80573e-07
4.97802e-07
-3.41703e-08
5.04998e-07
-1.24114e-07
-7.18614e-08
1.02494e-06
-1.30471e-07
1.18475e-06
-8.66487e-08
1.31039e-06
1.07867e-08
1.4087e-06
1.47661e-07
1.48794e-06
3.44457e-07
1.54171e-06
6.15466e-07
1.5759e-06
9.28077e-07
1.58975e-06
1.25824e-06
1.57794e-06
1.60523e-06
1.54374e-06
1.97259e-06
1.48945e-06
2.34793e-06
1.41498e-06
2.7409e-06
1.33162e-06
3.19857e-06
1.25101e-06
3.685e-06
1.15543e-06
4.12272e-06
1.03059e-06
4.45391e-06
8.49705e-07
4.59507e-06
5.93459e-07
4.53514e-06
2.82827e-07
4.36846e-06
-3.79204e-08
4.19285e-06
-3.49027e-07
4.03771e-06
-6.58672e-07
3.9055e-06
-9.86867e-07
3.82572e-06
-1.36191e-06
3.95319e-06
-1.82201e-06
4.57775e-06
-2.42868e-06