/*--------------------------------*- C++ -*----------------------------------*\
  =========                 |
  \\      /  F ield         | OpenFOAM: The Open Source CFD Toolbox
   \\    /   O peration     | Website:  https://openfoam.org
    \\  /    A nd           | Version:  dev
     \\/     M anipulation  |
\*---------------------------------------------------------------------------*/
FoamFile
{
    version     2.0;
    format      ascii;
    class       volScalarField;
    location    "2500";
    object      qr;
}
// * * * * * * * * * * * * * * * * * * * * * * * * * * * * * * * * * * * * * //

dimensions      [1 0 -3 0 0 0 0];

internalField   uniform 0;

boundaryField
{
    lowerOutlet
    {
        type            calculated;
        value           nonuniform List<scalar> 
144
(
1116.43
1120.17
1124.34
1128.93
1133.94
1139.4
1145.31
1151.68
1158.54
1165.9
1173.78
1182.22
1191.23
1200.86
1211.15
1222.12
1233.85
1246.38
1259.77
1274.1
1289.45
1305.92
1323.62
1342.66
1363.24
1385.54
1409.73
1436.06
1464.8
1496.34
1531.12
1569.66
1612.68
1649.44
1702.83
1764.18
1835.36
1919.12
2019.44
2142.2
2296.61
2497.52
2769.5
3156.74
3639.41
4169.42
4743.46
6254.4
-8542.27
3483.71
2877.01
2514.43
2267.25
2065.79
1932.7
1827.58
1742.64
1672.45
1613.28
1562.56
1518.5
1479.72
1445.35
1406.94
1379.95
1355.39
1332.91
1312.26
1293.19
1275.52
1259.09
1243.77
1229.46
1216.07
1203.5
1191.66
1180.51
1169.98
1160.04
1150.65
1141.76
1133.36
1125.4
1117.88
1110.76
1104.03
1097.68
1091.68
1086.04
1080.72
1075.74
1071.07
1066.71
1062.66
1058.92
1055.47
2077.54
2214.71
2389.96
2622.5
2939.35
3507.06
4035.04
4605.89
5986.53
5392.3
3718.48
2996.62
2591.32
2321.46
2147.06
1995.03
1877.23
1782.98
1705.96
1641.67
1875.44
1966.9
3771.69
4309.12
5163.4
6493.44
4277.65
3293.56
2771.21
2444.44
2217.25
1587
1539.79
3366.24
3903.18
4456.58
5686.15
6694
3990.94
3133.82
2676.47
2380.34
1675.24
1732.4
1798.41
1498.51
1462.03
1429.58
)
;
    }
    top
    {
        type            calculated;
        value           nonuniform List<scalar> 
100
(
1009.74
1012.67
1015.61
1018.51
1021.36
1024.17
1017.44
1018.13
1018.23
1016.62
1013.09
1009.5
1007.11
1006.38
1007.46
1010.29
1014.33
1019.49
1024.82
1029.79
1034.12
1037.74
1040.71
1043.13
1045.15
1046.89
1048.43
1049.67
1050.52
1050.93
1050.75
1049.34
1045.53
1038.01
1027.38
1015.06
1002.89
991.727
981.224
970.395
958.249
946.556
941.712
947.076
965.617
1003.42
1048.56
1072.59
1076.35
1076.98
1077.19
1077.19
1077.01
1076.69
1076.26
1075.67
1074.96
1074.17
1073.27
1072.28
1071.19
1070.03
1068.76
1067.38
1065.91
1064.32
1062.58
1060.74
1058.84
1056.79
1054.74
1052.59
1050.57
1048.75
1047.53
1058.29
1055.62
1052.9
1050.14
1047.33
1044.49
1041.61
1038.71
1035.77
1032.82
1029.84
1026.85
1023.86
1020.85
1017.83
1014.82
1011.8
1005.3
1000.87
996.782
993.244
990.289
987.927
986.483
987.844
)
;
    }
    sides
    {
        type            calculated;
        value           nonuniform List<scalar> 
100
(
1116.43
1119.37
1121.91
1124.05
1125.79
1127.14
1128.1
1128.7
1128.94
1128.83
1128.39
1127.63
1126.57
1125.23
1123.62
1121.77
1119.68
1117.38
1114.88
1112.21
1109.37
1106.4
1103.29
1100.08
1096.76
1093.36
1089.89
1086.36
1082.79
1079.17
1075.53
1071.86
1068.19
1064.51
1060.85
1057.19
1053.55
1049.94
1046.36
1042.8
1039.29
1035.81
1032.38
1028.99
1025.65
1022.36
1019.12
1015.94
1012.8
1009.76
1055.48
1058.35
1060.94
1063.24
1065.26
1067
1068.46
1069.66
1070.59
1071.26
1071.68
1071.87
1071.82
1071.54
1071.06
1070.37
1069.48
1068.42
1067.18
1065.78
1064.22
1062.53
1060.7
1058.75
1056.68
1054.51
1052.25
1049.89
1047.46
1044.95
1042.38
1039.75
1037.06
1034.33
1031.56
1028.75
1025.91
1023.05
1020.17
1017.27
1014.35
1011.42
1008.48
1005.54
1002.59
999.639
996.686
993.732
990.778
987.862
)
;
    }
    front
    {
        type            empty;
    }
    back
    {
        type            empty;
    }
    roller
    {
        type            calculated;
        value           nonuniform List<scalar> 
142
(
7020.59
5536.36
4177.99
3158.04
1654.18
1369.57
1318.39
1251.71
1213.92
1222.75
8236.1
8342.45
6589.67
6149.82
2843.23
2116.11
1689.84
1492.1
1339.91
1265.45
1290.96
1223.48
1234.04
5480.95
5847.98
5109.12
2602.96
2006.49
2572.09
2465.11
1630.19
1401.34
1452.23
1394.51
1298.84
1225.51
7883.97
8886.83
6865.44
4517.77
5127.07
6273.73
4130.68
4566.3
3141.25
3371.26
2715.36
2393.42
1806.69
1758.84
1728.03
2071.61
1511.96
1432.01
1412.84
1358.08
1347.74
1337.82
1219.73
8544.61
7913.4
2302.23
2211.36
1551.04
1475.45
1417.16
1473.84
1209.66
1208.42
1212.36
9207.85
9197.2
3741.77
1994.09
1572.06
1936.51
1777.71
1492.88
1730.44
1611.06
1430.01
1579.3
1378.8
1301.59
1263.46
1255.54
1215.68
1219.52
1210.47
1208.31
1210.9
7512.45
7407.66
3878.79
2965.44
1875.57
2149.01
1530.69
1459.11
1542.17
1319.21
1328.47
1281.08
1271.94
1243.02
1244.99
1212.45
1209.03
1208.94
1214.17
9119.91
9082.09
8791.97
4818.88
3427.03
3610.51
2406.58
2246.86
2833.09
1935.72
1600.48
1880.88
1827.92
1511.31
1686.65
1646.76
1443.96
1388.21
1375.74
1358.41
1310.47
1281.17
1235.72
1227.87
1217.16
1229.74
1238.68
1249.96
1211.41
1208.56
1209.78
1216.32
)
;
    }
    burner
    {
        type            calculated;
        value           nonuniform List<scalar> 
16
(
-125192
-119426
-116341
-117320
-120696
-116795
-116557
-123698
-123747
-118350
-116127
-118589
-122164
-117469
-116184
-120572
)
;
    }
}


// ************************************************************************* //
