/*--------------------------------*- C++ -*----------------------------------*\
  =========                 |
  \\      /  F ield         | OpenFOAM: The Open Source CFD Toolbox
   \\    /   O peration     | Website:  https://openfoam.org
    \\  /    A nd           | Version:  dev
     \\/     M anipulation  |
\*---------------------------------------------------------------------------*/
FoamFile
{
    version     2.0;
    format      ascii;
    class       volScalarField;
    location    "2500";
    object      rAU;
}
// * * * * * * * * * * * * * * * * * * * * * * * * * * * * * * * * * * * * * //

dimensions      [-1 3 1 0 0 0 0];

internalField   nonuniform List<scalar> 
9842
(
0.00823032
0.00829806
0.00825562
0.00829261
0.00839944
0.0082025
0.00828422
0.00839266
0.00840325
0.0081594
0.00827196
0.00839289
0.00838726
0.0084156
0.00812089
0.00826745
0.00839678
0.00837909
0.00839698
0.00842521
0.00808576
0.00826713
0.00840601
0.00837922
0.0083815
0.00841125
0.00842989
0.00805478
0.00826625
0.00841688
0.00838455
0.00837257
0.00839506
0.00842232
0.00843217
0.0080268
0.00826183
0.00842703
0.00839511
0.00836868
0.00838026
0.00841074
0.00842816
0.00843365
0.00800192
0.00825827
0.00843095
0.00840744
0.00837047
0.00836969
0.00839634
0.00842136
0.00843128
0.00843449
0.00797988
0.00825561
0.00843398
0.00841729
0.0083774
0.00836363
0.0083818
0.00841172
0.00842734
0.00843365
0.00843485
0.00796017
0.00825264
0.00843502
0.00842464
0.00838917
0.00836159
0.00836979
0.0083996
0.00842179
0.00843095
0.00843509
0.00843505
0.00794261
0.00824924
0.00843575
0.00842939
0.00840226
0.00836434
0.00836179
0.0083857
0.00841421
0.0084274
0.00843332
0.00843585
0.00843529
0.00792684
0.00824553
0.00843601
0.00843211
0.00841291
0.00837153
0.00834833
0.00837246
0.00840363
0.00842309
0.00843091
0.00843528
0.00843635
0.00843544
0.00791263
0.00824131
0.00843629
0.008434
0.00842115
0.00838324
0.00834676
0.0083622
0.00839104
0.00841692
0.00842805
0.00843352
0.0084364
0.00843667
0.00843577
0.00789983
0.00823588
0.00843607
0.00843514
0.00842638
0.00839715
0.00835849
0.00832026
0.00837728
0.00840852
0.0084244
0.00843131
0.00843548
0.00843713
0.00843709
0.00843592
0.00788819
0.00822959
0.0084361
0.00843581
0.00842938
0.00840884
0.00836649
0.00830881
0.00836471
0.00839688
0.00841995
0.008429
0.00843373
0.00843677
0.00843758
0.00843751
0.00843595
0.00787763
0.00822232
0.00843609
0.008436
0.00843185
0.0084175
0.00837903
0.00834305
0.00835495
0.00838313
0.00841285
0.00842622
0.0084321
0.00843589
0.00843775
0.00843807
0.00843788
0.00843598
0.00786797
0.00821396
0.00843596
0.00843601
0.00843295
0.00842274
0.00839292
0.00835362
0.00827942
0.00836901
0.00840243
0.008423
0.00843041
0.00843453
0.00843738
0.00843845
0.00843852
0.00843813
0.00843594
0.00785902
0.0082045
0.0084359
0.00843597
0.00843336
0.00842581
0.00840388
0.00836208
0.00826042
0.00835769
0.00838908
0.00841652
0.00842867
0.00843343
0.00843645
0.00843845
0.00843898
0.00843895
0.00843828
0.0084359
0.00785039
0.00819374
0.00843595
0.0084361
0.00843408
0.00842759
0.00841236
0.00837461
0.00832987
0.00830675
0.00837536
0.00840729
0.00842526
0.00843231
0.00843558
0.00843798
0.00843923
0.00843954
0.00843933
0.00843836
0.00843585
0.00784186
0.00818187
0.008436
0.00843581
0.00843434
0.00842867
0.00841809
0.00838796
0.00834881
0.00821546
0.00836203
0.00839545
0.00841976
0.00842997
0.00843495
0.00843755
0.00843916
0.00843984
0.00844
0.00843955
0.00843844
0.00843578
0.00783317
0.00816876
0.00843588
0.00843582
0.00843493
0.00843021
0.00842139
0.00839985
0.00835715
0.00823314
0.00835135
0.0083821
0.00841173
0.00842676
0.00843344
0.00843717
0.00843915
0.00844002
0.0084404
0.00844043
0.00843971
0.00843851
0.00843576
0.00782422
0.00815426
0.00843568
0.0084358
0.00843527
0.00843114
0.00842375
0.00840852
0.00836933
0.0083196
0.00834298
0.00836835
0.00840151
0.00842243
0.00843098
0.0084358
0.0084391
0.00844038
0.00844067
0.00844087
0.00844072
0.00843982
0.00843858
0.00843567
0.00781481
0.00813901
0.00843585
0.00843572
0.00843532
0.00843216
0.00842539
0.00841409
0.00838327
0.00834343
0.0081789
0.00835542
0.00838907
0.00841565
0.00842829
0.00843389
0.00843784
0.00844065
0.00844141
0.00844122
0.00844131
0.00844091
0.0084399
0.00843856
0.00843568
0.0078052
0.00812272
0.0084358
0.00843566
0.00843531
0.00843289
0.00842666
0.00841775
0.00839514
0.00835143
0.00811869
0.00834498
0.00837556
0.00840675
0.00842447
0.00843184
0.00843614
0.00843961
0.00844188
0.00844212
0.00844167
0.00844166
0.00844103
0.00843996
0.00843862
0.00843595
0.00779457
0.00810575
0.00843577
0.00843568
0.00843533
0.00843324
0.00842776
0.00842011
0.00840395
0.00836382
0.00827512
0.0083365
0.00836181
0.00839574
0.00841902
0.00842944
0.00843442
0.00843803
0.00844099
0.0084429
0.00844271
0.00830149
0.00844184
0.00844109
0.00843996
0.00843884
0.00843595
0.00778241
0.00808809
0.00843567
0.00843579
0.00843559
0.00843374
0.00842873
0.0084213
0.00840998
0.00837787
0.00833668
0.00815337
0.00834866
0.00838279
0.00841137
0.00842622
0.00843257
0.00843643
0.00843956
0.00844222
0.00844371
0.00826278
0.00840598
0.00844198
0.0084411
0.00844022
0.00843896
0.00843595
0.00776985
0.00806985
0.00843564
0.00843593
0.00843575
0.00843417
0.00842969
0.00842277
0.00841403
0.00838971
0.00834403
0.00802436
0.00833834
0.00836908
0.00840154
0.00842136
0.0084303
0.00843482
0.00843813
0.00844076
0.00844314
0.00840713
0.00835724
0.00844259
0.00844208
0.00844135
0.00844028
0.0084392
0.00843587
0.00770756
0.00805097
0.00843583
0.00843606
0.0084358
0.00843476
0.00843052
0.00842396
0.00841658
0.00839872
0.00835593
0.00818942
0.00832936
0.00835536
0.00838986
0.00841501
0.00842702
0.00843285
0.00843647
0.00843942
0.00844175
0.00844392
0.00840259
0.00843859
0.00844264
0.00844219
0.00844136
0.00844021
0.0084394
0.00837813
0.00760605
0.00803165
0.00843594
0.0084362
0.00843591
0.00843502
0.00843158
0.00842507
0.0084182
0.00840544
0.00836984
0.00832181
0.00832358
0.00834195
0.0083768
0.0084064
0.00842309
0.00843042
0.00843474
0.00843789
0.00844037
0.00844256
0.00844446
0.00844378
0.0084434
0.00844269
0.00844216
0.00844125
0.00844017
0.00843963
0.00827402
0.00767882
0.00801232
0.00843607
0.00843627
0.00843613
0.00843561
0.00843236
0.00842599
0.00841918
0.00840969
0.00838268
0.00833439
0.00831833
0.00833108
0.00836277
0.00839623
0.00841738
0.00842717
0.00843242
0.00843601
0.00843885
0.00844114
0.00844305
0.00844473
0.00844497
0.00844388
0.00844253
0.00844187
0.00844102
0.00844014
0.00843723
0.00837166
0.00772853
0.00799342
0.00843611
0.00843686
0.00843644
0.00843584
0.00843279
0.00842723
0.00842077
0.0084133
0.0083928
0.00834555
0.00821154
0.00832152
0.00834891
0.00838403
0.00841019
0.00842357
0.0084297
0.0084338
0.00843693
0.00843946
0.00844152
0.00844317
0.00844477
0.00844521
0.00844377
0.00844214
0.00844141
0.00844067
0.0084402
0.00844005
0.00843432
0.00772173
0.00797538
0.00843612
0.00843712
0.00843696
0.0084364
0.00843374
0.00842821
0.00842191
0.00841488
0.00840041
0.00835961
0.00821406
0.00831473
0.0083351
0.00837083
0.00840117
0.0084186
0.00842647
0.00843115
0.00843445
0.00843728
0.00843961
0.00844141
0.00844293
0.00844451
0.00844501
0.00844338
0.00844163
0.0084409
0.0084404
0.0084403
0.00843955
0.00842302
0.00688718
0.00816683
0.00795859
0.00843609
0.00843743
0.00843738
0.00843664
0.00843431
0.00842918
0.00842313
0.00841683
0.00840575
0.00837334
0.00832265
0.00830975
0.00832393
0.00835707
0.00839028
0.00841199
0.0084226
0.00842784
0.00843158
0.00843444
0.00843704
0.00843911
0.00844071
0.00844215
0.00844389
0.00844432
0.0084427
0.00844098
0.0084404
0.00844027
0.00842998
0.00847772
0.00818148
0.00818089
0.00687677
0.00813823
0.0079434
0.00843607
0.00843754
0.00843776
0.00843721
0.00843504
0.00843025
0.00842389
0.00841818
0.00840932
0.00838424
0.0083314
0.00830452
0.00831394
0.00834342
0.00837911
0.00840488
0.00841821
0.00842445
0.00842812
0.00843118
0.00843364
0.0084359
0.00843771
0.00843917
0.00844076
0.00844248
0.00844312
0.00844262
0.00844236
0.00844224
0.00843359
0.00832649
0.00818516
0.00817919
0.00830421
0.00819048
0.00815506
0.0081584
0.00688968
0.00814412
0.00793008
0.00843603
0.00843795
0.0084383
0.00843785
0.00843577
0.00843102
0.00842511
0.00841964
0.00841228
0.00839261
0.0083449
0.00830443
0.00830443
0.00832919
0.00836622
0.00839648
0.00841347
0.008421
0.00842484
0.00842736
0.0084296
0.00843158
0.00843338
0.008435
0.0084367
0.00843909
0.00844313
0.00844647
0.00845094
0.00845146
0.00844499
0.00820265
0.0082294
0.00817418
0.00816781
0.0081896
0.0082003
0.00816696
0.00818641
0.00692648
0.00818477
0.00791914
0.00843597
0.00843809
0.00843864
0.00843834
0.00843648
0.00843189
0.00842604
0.00842049
0.00841398
0.00839882
0.00835927
0.0083083
0.00829862
0.00831569
0.00835186
0.00838585
0.00840713
0.00841727
0.00842176
0.00842398
0.00842527
0.00842642
0.00842764
0.00842916
0.00843136
0.0084338
0.00843904
0.00844871
0.00846008
0.00846584
0.00846236
0.00825878
0.00827977
0.00821147
0.00824469
0.00821515
0.00821104
0.00823271
0.00824423
0.00821679
0.00823482
0.00698814
0.0082341
0.00791119
0.00843588
0.00843845
0.00843877
0.00843828
0.00843721
0.00843286
0.00842729
0.00842167
0.00841535
0.00840312
0.00837173
0.00831404
0.0082926
0.00830515
0.00833777
0.00837406
0.00839934
0.00841204
0.00841786
0.00842048
0.00842124
0.00842099
0.0084206
0.00840819
0.00841262
0.00842932
0.00843449
0.00844004
0.00845367
0.00846961
0.00847961
0.00830356
0.00832302
0.00827028
0.00828889
0.00825026
0.0082778
0.00825764
0.00825614
0.00827164
0.00828032
0.00826472
0.00827638
0.00704951
0.00827212
0.00790589
0.00843567
0.00843867
0.00843959
0.00843944
0.00843783
0.00843398
0.00842866
0.00842307
0.00841678
0.00840621
0.0083809
0.00832443
0.00828796
0.00829411
0.00832338
0.00836183
0.0083915
0.00840715
0.00841317
0.0084161
0.00841662
0.00841506
0.00841191
0.00835655
0.00839895
0.00840349
0.00832262
0.00826665
0.00828279
0.00826531
0.00847991
0.00835103
0.00836157
0.00830622
0.00832053
0.00829898
0.00831469
0.00828407
0.00830653
0.00829213
0.00829164
0.00830293
0.00830956
0.00830042
0.00830819
0.00711371
0.00830079
0.00788201
0.00843579
0.00843864
0.00844002
0.00843983
0.00843802
0.00843531
0.00843011
0.00842455
0.00841849
0.00840888
0.00838799
0.00833828
0.00828925
0.00828439
0.00830744
0.00834718
0.00838138
0.00840141
0.00840975
0.00841229
0.00841176
0.00840855
0.00840125
0.00839199
0.00833445
0.00835184
0.00827574
0.00818261
0.00806782
0.00805935
0.00825963
0.00835105
0.00829147
0.00833545
0.0083323
0.00832916
0.00833854
0.00832287
0.0083358
0.00831304
0.00833136
0.00832004
0.00831944
0.00832839
0.00833353
0.00832708
0.00833277
0.0071799
0.00832239
0.0078022
0.00840303
0.00843878
0.00844023
0.0084399
0.00843872
0.00843646
0.00843148
0.00842585
0.00842024
0.00841102
0.00839412
0.00835253
0.00829354
0.00827769
0.00829313
0.00833123
0.00836904
0.00839396
0.0084057
0.00840933
0.00840857
0.00840311
0.00839071
0.00837188
0.00834969
0.00830561
0.00829185
0.00827197
0.00815009
0.00810617
0.00809165
0.00819648
0.0080646
0.00828935
0.00823144
0.00834144
0.00830665
0.00834583
0.00834698
0.0083438
0.00835266
0.00833596
0.0083508
0.00834268
0.00834146
0.0083492
0.00835303
0.00834696
0.00835234
0.00724945
0.00833903
0.00789278
0.00828548
0.00843221
0.00844038
0.0084406
0.00843934
0.00843737
0.00843295
0.00842748
0.008422
0.00841274
0.00839836
0.00836537
0.00830122
0.0082715
0.00828183
0.00831514
0.00835557
0.00838477
0.00839957
0.00840549
0.00840599
0.00840019
0.00838306
0.00835355
0.00831595
0.0082838
0.00828172
0.00830001
0.00826894
0.00823863
0.00817582
0.00791422
0.00774136
0.00810561
0.00796114
0.00824369
0.00815331
0.00832001
0.0082637
0.00835288
0.00832579
0.0083602
0.00835814
0.00835363
0.00836413
0.00836041
0.00835937
0.00836506
0.00836789
0.00836153
0.00836767
0.00732562
0.00835288
0.00793602
0.0083613
0.00840534
0.00844038
0.00844063
0.00843933
0.0084383
0.00843431
0.008429
0.00842344
0.00841428
0.00840145
0.00837478
0.0083136
0.00826911
0.00827107
0.00829945
0.00834084
0.00837482
0.00839327
0.00840061
0.00840211
0.00839772
0.0083792
0.0083407
0.008291
0.00824676
0.00826271
0.00830767
0.0083406
0.00834557
0.00822755
0.00754018
0.0074063
0.00779419
0.00756072
0.00803831
0.00785238
0.00817956
0.00807571
0.00826926
0.00818881
0.00832425
0.00826595
0.00836231
0.00831992
0.0083655
0.00836091
0.00837115
0.00837356
0.00837355
0.00837689
0.00837265
0.00837904
0.00740801
0.00836441
0.00795852
0.00836856
0.00837965
0.00843784
0.00844041
0.00843912
0.00843874
0.00843554
0.00843046
0.00842481
0.00841567
0.00840339
0.00838147
0.00832751
0.00827201
0.00826262
0.00828387
0.00832565
0.00836313
0.00838644
0.00839631
0.00839896
0.0083954
0.0083775
0.00833373
0.00827352
0.00823512
0.00820479
0.00833935
0.00840548
0.00843241
0.00841133
0.0073198
0.00714305
0.00740546
0.00733008
0.00761125
0.00743993
0.00788757
0.00764867
0.00808189
0.00789771
0.00818752
0.00807017
0.0082492
0.00817165
0.00831478
0.00823063
0.0083584
0.0083073
0.00836057
0.00838303
0.00836162
0.00836866
0.00838125
0.00838615
0.00749629
0.00837392
0.00799028
0.008374
0.00835197
0.00842436
0.00844015
0.0084392
0.00843883
0.00843643
0.00843202
0.00842646
0.00841716
0.00840492
0.00838621
0.0083411
0.0082768
0.00825604
0.00827043
0.00830958
0.00835031
0.00837832
0.00839143
0.00839593
0.00839423
0.0083782
0.00833179
0.00826286
0.00816535
0.0081394
0.00805881
0.00845467
0.0085039
0.0083771
0.0080221
0.00732656
0.00717184
0.00734508
0.00733626
0.00747061
0.0073657
0.00767168
0.00749556
0.00788419
0.0076752
0.0080457
0.00785363
0.00814211
0.00801017
0.00822143
0.00811647
0.00830118
0.00821249
0.00830137
0.00837903
0.00830512
0.00831871
0.00838799
0.00838501
0.00758938
0.00838142
0.00803368
0.00842589
0.008362
0.00841908
0.00843972
0.00843934
0.0084395
0.00843766
0.00843349
0.00842776
0.00841829
0.00840599
0.00838994
0.0083539
0.00828506
0.00824999
0.00825889
0.00829284
0.00833641
0.00836835
0.00838542
0.00839245
0.0083935
0.00838113
0.00833516
0.00825784
0.0081031
0.00801471
0.00787405
0.00810675
0.00802683
0.00789691
0.00755506
0.00671436
0.00671787
0.00736767
0.00724372
0.00733885
0.0072935
0.00738995
0.00735627
0.00751463
0.00741485
0.00766314
0.00752457
0.00782116
0.00764393
0.00796623
0.00779021
0.00809953
0.00793695
0.00820618
0.00808597
0.00819908
0.00833644
0.00820424
0.00821907
0.00839057
0.00835159
0.00768553
0.0083861
0.00809229
0.00842697
0.00842653
0.00842253
0.00843909
0.00843949
0.00844039
0.00843873
0.00843488
0.00842886
0.00841927
0.00840674
0.00839257
0.00836341
0.00829745
0.00824845
0.00824792
0.0082762
0.00832055
0.00835797
0.00837867
0.0083876
0.0083923
0.00838469
0.00834127
0.00825912
0.00807409
0.00786308
0.00783366
0.00810092
0.0074948
0.00770826
0.00723361
0.00605181
0.00592679
0.00648299
0.0061717
0.00719099
0.00679026
0.00724161
0.00687391
0.00732911
0.00721418
0.00744358
0.00727255
0.00752981
0.00739816
0.00763158
0.00751055
0.00775755
0.00760811
0.00792064
0.00772704
0.00807059
0.0079044
0.00807673
0.00823246
0.00808683
0.00810631
0.00837286
0.00827954
0.0077795
0.00838107
0.00817621
0.00841729
0.00842826
0.0084334
0.00843842
0.00843979
0.00844126
0.00843965
0.0084358
0.00842947
0.00841993
0.00840715
0.00839455
0.00837043
0.00831082
0.00825139
0.00823936
0.00826005
0.00830432
0.00834475
0.00837027
0.0083822
0.00838921
0.00838721
0.00834786
0.00824428
0.00805858
0.00786013
0.0080328
0.00808901
0.0077401
0.0081059
0.00794911
0.00656539
0.0071007
0.00599937
0.0071207
0.00658248
0.00687373
0.00675923
0.00697771
0.0068448
0.00655486
0.00709487
0.00682946
0.00729517
0.00688769
0.00739678
0.00727809
0.00749304
0.00747922
0.00758977
0.00753626
0.00771784
0.00760523
0.00787186
0.0077366
0.0078829
0.008159
0.00794183
0.00798852
0.00833109
0.00820296
0.00785536
0.00835367
0.00819285
0.008404
0.0084144
0.00843048
0.00843762
0.00844036
0.0084417
0.00844003
0.00843594
0.00842953
0.00842019
0.00840727
0.00839554
0.00837537
0.00832379
0.00825602
0.00823237
0.00824621
0.00828665
0.00833036
0.00836017
0.00837533
0.00838424
0.0083857
0.00835101
0.00823334
0.0080248
0.00807369
0.00804326
0.00836845
0.00813126
0.00837721
0.00839787
0.00824814
0.00749234
0.00729964
0.00726599
0.00745468
0.00703566
0.00744403
0.00699739
0.00706461
0.00701799
0.00645661
0.00676793
0.00703717
0.00730487
0.0070553
0.00741123
0.00738065
0.00747225
0.00751279
0.00752744
0.00753509
0.00760462
0.00756631
0.007712
0.00763051
0.0077213
0.00803425
0.00777937
0.00782689
0.00825384
0.00808672
0.0078829
0.00828861
0.00826957
0.00838689
0.00841695
0.00843559
0.00844056
0.00844119
0.0084392
0.00843474
0.00842843
0.00841975
0.0084072
0.00839566
0.00837871
0.00833595
0.00826463
0.00822672
0.00823409
0.00826867
0.00831467
0.00834855
0.0083663
0.00837743
0.00837887
0.00834466
0.00822255
0.00800888
0.00804872
0.00826705
0.00831979
0.00829185
0.00841172
0.00844352
0.0084098
0.00745687
0.00751389
0.00744684
0.00745492
0.00742339
0.00741149
0.00743147
0.00740678
0.006499
0.00702585
0.00664972
0.00650955
0.00624209
0.0061619
0.00732108
0.00664136
0.00753531
0.00755738
0.00753474
0.00755149
0.00754282
0.0075596
0.00757922
0.00757291
0.00763975
0.0075897
0.00765058
0.00787927
0.00766698
0.00751365
0.00816536
0.00795222
0.00781438
0.00819222
0.00824807
0.0083781
0.00842803
0.00843852
0.00843896
0.00843635
0.00843161
0.00842547
0.00841758
0.00840632
0.00839533
0.00838053
0.00834542
0.0082762
0.00822588
0.00822346
0.008251
0.00829764
0.00833579
0.00835616
0.00836886
0.00836793
0.00832821
0.0081907
0.00800948
0.00803736
0.00824087
0.00822742
0.00822511
0.00832869
0.00842342
0.00843867
0.00762981
0.0075996
0.00750968
0.00761092
0.00741885
0.00744887
0.00738953
0.00739753
0.00741977
0.00739769
0.00731234
0.00745032
0.00686665
0.00742242
0.00661576
0.00734603
0.00757447
0.00758266
0.00755439
0.00758087
0.00758279
0.00742438
0.00759174
0.00731573
0.00760662
0.00765058
0.00761838
0.00739587
0.00741294
0.00751183
0.00738547
0.00531289
0.00559296
0.00804804
0.0075947
0.00744488
0.00812893
0.00822199
0.00840281
0.00843156
0.00843399
0.00843054
0.00842631
0.00842093
0.00841365
0.00840385
0.00839368
0.00838111
0.00835156
0.00828759
0.0082285
0.00821527
0.00823486
0.0082802
0.00832171
0.00834601
0.00835861
0.00835481
0.00830439
0.00815075
0.0079895
0.00803842
0.00821615
0.00818246
0.00813172
0.00822615
0.00843234
0.00840967
0.00821995
0.00773014
0.0076667
0.00758999
0.00764023
0.0074376
0.00750623
0.00741073
0.00746186
0.00745456
0.00747007
0.00750278
0.00747234
0.0075881
0.00758258
0.00760145
0.00763791
0.00761891
0.00763012
0.00738849
0.00757526
0.00725643
0.00755407
0.00738705
0.0073751
0.00745028
0.00742206
0.00742627
0.00516728
0.0053976
0.00547427
0.00527362
0.00544357
0.00567797
0.00537397
0.00527553
0.00532161
0.00544694
0.00521126
0.00772612
0.00548785
0.0055002
0.00586842
0.00775441
0.00784331
0.00822841
0.00841648
0.00842449
0.00842143
0.00841827
0.00841437
0.00840863
0.00840022
0.00839012
0.00838017
0.00835473
0.00829776
0.00823262
0.00820847
0.00822144
0.00826204
0.00830711
0.00833532
0.00834953
0.00834191
0.00827852
0.00811268
0.00796273
0.00803119
0.0080536
0.00814789
0.00808394
0.00821164
0.00836671
0.00844953
0.00829157
0.00799477
0.00790793
0.00765431
0.00776014
0.00758446
0.00747024
0.00751832
0.00757471
0.00750847
0.00753684
0.00758046
0.00762349
0.00756714
0.00756397
0.00766218
0.00766438
0.00766124
0.00770476
0.00763411
0.00764446
0.00761534
0.00761179
0.0073485
0.00732807
0.00523828
0.00495622
0.00508739
0.00505981
0.00528586
0.00529093
0.0053343
0.00521564
0.0052683
0.00551372
0.00533894
0.00540824
0.00528924
0.00528857
0.00521232
0.00522063
0.00524382
0.00532261
0.00531593
0.00525474
0.00562494
0.00619175
0.0057568
0.00524288
0.00528248
0.0073387
0.00590085
0.00597825
0.00665905
0.00828294
0.0084082
0.00840782
0.00840674
0.00840527
0.0084011
0.0083947
0.00838546
0.00837653
0.0083551
0.00830568
0.00823988
0.00820331
0.00820964
0.00824377
0.00829115
0.00832427
0.00834123
0.00833452
0.00825569
0.00808291
0.00793729
0.00801763
0.00788947
0.00812422
0.00809926
0.008155
0.00804738
0.00845355
0.00845984
0.00805638
0.00810864
0.00802866
0.00732017
0.00772892
0.0072756
0.00715459
0.00756378
0.00759372
0.00763064
0.0076279
0.00770055
0.00770073
0.00766506
0.00767706
0.00773271
0.00774592
0.00767512
0.00771379
0.0076143
0.00762634
0.00733021
0.00732774
0.00503418
0.00504049
0.00504877
0.00506431
0.00505885
0.00503909
0.00502402
0.00528221
0.00525661
0.00509905
0.00516721
0.00521175
0.00537001
0.00536448
0.00542102
0.00534078
0.00539993
0.00524032
0.0052301
0.00534473
0.0054296
0.00544592
0.00533405
0.00535702
0.00547237
0.00523151
0.00524795
0.00633855
0.00674714
0.00707486
0.00547886
0.00559478
0.0084118
0.0083873
0.00838932
0.00839199
0.00839073
0.00838675
0.00837859
0.00836984
0.00835328
0.00830985
0.00824838
0.00820237
0.00819957
0.00822599
0.00827395
0.00831217
0.00833287
0.00833151
0.00824242
0.00806279
0.00791755
0.00800128
0.00792991
0.00810182
0.00812734
0.00824702
0.00772096
0.00845017
0.00845993
0.00840202
0.00761382
0.00787246
0.0081497
0.00819375
0.00746873
0.00807707
0.00749172
0.00749461
0.00764999
0.00777573
0.00767143
0.00778996
0.00781104
0.00767439
0.00776099
0.00778213
0.00774319
0.00776711
0.0076566
0.00768471
0.00735654
0.00741594
0.00509698
0.00514338
0.00518133
0.00521305
0.00502054
0.00505109
0.0050975
0.0051504
0.005063
0.00506287
0.00507909
0.00529645
0.00526887
0.00513177
0.00526691
0.00525866
0.00542189
0.00545927
0.00547628
0.00537103
0.00550723
0.00530925
0.00528279
0.00546709
0.00554075
0.00557614
0.00544494
0.00529695
0.00538846
0.0052621
0.00525227
0.00635859
0.00574711
0.00713623
0.00530866
0.00580642
0.0083745
0.00836143
0.00837145
0.00837537
0.00837496
0.00837012
0.00836088
0.00835003
0.00831117
0.00825561
0.00820467
0.00819254
0.00821114
0.00825702
0.00829938
0.00832476
0.00833004
0.00823883
0.00805716
0.00790498
0.00798451
0.00805203
0.00808444
0.00814707
0.00829391
0.00803983
0.00841356
0.00845518
0.00846175
0.00820742
0.00800599
0.0080536
0.00806596
0.00808009
0.00788174
0.00810732
0.00747825
0.00783057
0.00784834
0.00758539
0.00768534
0.00734122
0.00786734
0.0077686
0.00779506
0.00782845
0.00770057
0.00771451
0.00770415
0.00771384
0.00524241
0.00527342
0.00529825
0.00549837
0.00520763
0.00526327
0.00531151
0.00534621
0.00511479
0.00518663
0.0052665
0.00534165
0.00511512
0.0051541
0.00521496
0.00534744
0.00538789
0.00525622
0.00539445
0.0054142
0.00546589
0.00552473
0.00552428
0.00546323
0.0055853
0.00541201
0.0053704
0.00559553
0.00563268
0.00569118
0.00557162
0.00526932
0.00533062
0.00532372
0.00528438
0.00634562
0.00677766
0.00725945
0.00546229
0.00574692
0.00833066
0.00832934
0.00834786
0.00835758
0.00835656
0.00835045
0.00834227
0.00831201
0.00826085
0.00820919
0.00818839
0.00820044
0.00824052
0.0082872
0.00831716
0.00833111
0.00824278
0.00807113
0.0079062
0.00796964
0.0081051
0.00806965
0.00816364
0.00830884
0.00840124
0.00836495
0.00844785
0.00845559
0.00846142
0.00804493
0.00790054
0.0081721
0.00817875
0.0078723
0.00804656
0.00785588
0.00775862
0.00773526
0.007738
0.00703475
0.00738483
0.00729391
0.00718549
0.00779866
0.00782954
0.00773353
0.00776228
0.00770498
0.00769251
0.00749803
0.00760337
0.00537013
0.00539852
0.00541263
0.00561154
0.00540793
0.00546456
0.00550894
0.00553557
0.00529237
0.00539485
0.00548665
0.00556208
0.00524537
0.00531898
0.00541961
0.00550376
0.00554599
0.00537524
0.00548192
0.0055222
0.00556746
0.00558085
0.00562133
0.00562569
0.0056385
0.00553546
0.0054798
0.00570738
0.00569845
0.00576978
0.00569978
0.0052652
0.00528893
0.00540945
0.00533586
0.00640438
0.00674563
0.00733078
0.00539974
0.00573162
0.00825971
0.00828096
0.00831711
0.00833806
0.00833454
0.00832831
0.00830844
0.00826383
0.00821371
0.00818601
0.00819199
0.00822487
0.00827386
0.00830855
0.00833105
0.00825581
0.00807809
0.00793261
0.00795825
0.00808524
0.00806799
0.00815939
0.00831223
0.00838227
0.0084173
0.00843642
0.00844728
0.00845394
0.00825433
0.00816796
0.00804003
0.00814834
0.0081598
0.00792991
0.00813272
0.00755791
0.00775068
0.00781281
0.00777189
0.00769878
0.00784289
0.00767201
0.00741424
0.00769439
0.00770005
0.00768283
0.00768455
0.00757996
0.00772038
0.00561107
0.00559316
0.00557045
0.0055936
0.00554858
0.00556428
0.0055688
0.00557919
0.00562268
0.00566666
0.00569186
0.00569679
0.00551802
0.00562656
0.0057126
0.00577318
0.00541684
0.005535
0.00565013
0.00564905
0.00561728
0.00551872
0.00559658
0.00556698
0.00571125
0.00566927
0.00575522
0.00575202
0.00568899
0.00566823
0.00559978
0.00579846
0.00575444
0.00581259
0.0058178
0.00527608
0.00525999
0.00550885
0.00540083
0.0065418
0.0064414
0.00755088
0.00535593
0.00581404
0.00819122
0.00822326
0.00827897
0.00831668
0.00830934
0.00829747
0.00826254
0.00821587
0.00818322
0.00818402
0.00820962
0.00825864
0.00829806
0.00832471
0.00827453
0.00809021
0.00795483
0.00795746
0.00806603
0.00807535
0.00816249
0.00829017
0.0083572
0.00839728
0.00842095
0.00843621
0.00844613
0.0084504
0.00802195
0.00789064
0.00815626
0.00816729
0.00812198
0.00813999
0.00808289
0.00810453
0.00773868
0.00805527
0.00792259
0.00785382
0.0075082
0.00780848
0.00771128
0.007732
0.00763753
0.00763151
0.00767734
0.00765395
0.00554168
0.00576962
0.00738226
0.0056421
0.00560567
0.00553672
0.00557798
0.00569073
0.00568752
0.00567458
0.00567075
0.0058101
0.00582587
0.00582329
0.00580311
0.00575054
0.00584849
0.00591038
0.00593994
0.00562519
0.00576419
0.00587799
0.00569282
0.00562625
0.00571232
0.0057741
0.00564584
0.00581683
0.00577446
0.00584143
0.00578143
0.00577988
0.00579264
0.00572541
0.00587218
0.00579405
0.00584321
0.0059122
0.00529745
0.00524287
0.00561294
0.00547363
0.00676385
0.00570927
0.00773499
0.00538928
0.00613502
0.008131
0.0081681
0.00823855
0.00829319
0.00828162
0.00825678
0.00821488
0.00818071
0.00817517
0.00819447
0.00824203
0.00828696
0.00831445
0.00829301
0.00810477
0.00797085
0.00796435
0.00804327
0.00805579
0.00816975
0.00826421
0.00832712
0.00837188
0.00840279
0.00842309
0.00843703
0.00844509
0.00824459
0.00816245
0.00804369
0.00814891
0.00815991
0.00809855
0.00812758
0.0080457
0.00807005
0.00786796
0.00799402
0.00742602
0.00739714
0.00775861
0.00779392
0.00764196
0.00766647
0.00769034
0.00770019
0.00734917
0.00770623
0.00525913
0.00547788
0.00552274
0.0054984
0.00566634
0.00561736
0.00553214
0.00557983
0.00577789
0.00575762
0.00573268
0.00571295
0.00594483
0.00593324
0.00590758
0.0058699
0.00596176
0.0060307
0.00606065
0.00606238
0.00584902
0.00598689
0.00607819
0.00568277
0.00567294
0.00592955
0.00598424
0.00580389
0.00582292
0.00585209
0.0058376
0.00574686
0.00584045
0.00590766
0.00584306
0.00592316
0.00584693
0.00586168
0.00599305
0.00532949
0.00527522
0.00572231
0.00555021
0.00696704
0.00481968
0.0078155
0.00571738
0.00642691
0.00805724
0.00812682
0.00819514
0.00826908
0.00824721
0.00821227
0.00817821
0.00816802
0.00818061
0.00822273
0.00827507
0.00830376
0.00830151
0.00814151
0.00796817
0.00796587
0.00801595
0.00802717
0.0081411
0.00823856
0.00829565
0.00834093
0.00838087
0.00840942
0.00842627
0.00843776
0.00844498
0.0079932
0.00787391
0.0081605
0.00815959
0.00815083
0.00815856
0.00810564
0.00813379
0.00802692
0.00806836
0.00785598
0.00798703
0.00779329
0.00782043
0.00770614
0.00775682
0.00772933
0.00775024
0.00759691
0.00781234
0.00554446
0.00591477
0.00767739
0.00548141
0.00546914
0.00504695
0.00552848
0.00565324
0.00559041
0.00552424
0.00555877
0.00583927
0.0058033
0.00575602
0.00571642
0.0060454
0.00548878
0.00545316
0.00593569
0.0061329
0.00617563
0.00618479
0.00617147
0.00606622
0.00618216
0.00624553
0.00571041
0.00580901
0.00614188
0.00619104
0.0060024
0.00575974
0.00584996
0.00577818
0.00572909
0.00586092
0.00600461
0.00595572
0.00596439
0.00586872
0.00588834
0.00605999
0.00538759
0.00553959
0.005828
0.00563588
0.00713931
0.00399831
0.00779019
0.00601612
0.00660909
0.00799331
0.00804579
0.00814726
0.00823998
0.00820809
0.00817448
0.00816224
0.00817076
0.00820289
0.0082582
0.00829375
0.00830429
0.00818013
0.00798777
0.00795041
0.00798706
0.00798889
0.0080893
0.00820491
0.00826929
0.00830853
0.00835087
0.00839292
0.00841384
0.00842771
0.00843827
0.00823708
0.00816009
0.00804837
0.00816344
0.00816186
0.00815947
0.00816316
0.0081332
0.00815023
0.00797968
0.00810865
0.00766502
0.00773939
0.00788319
0.00797365
0.00777913
0.0078284
0.00786721
0.00790596
0.00580605
0.00627833
0.00778094
0.00550722
0.00590571
0.00578655
0.00584904
0.00516096
0.00474388
0.00584842
0.00581915
0.00562949
0.00560017
0.00540213
0.00565012
0.00589085
0.00583513
0.00576995
0.0057085
0.0061403
0.00519971
0.00516988
0.00600788
0.00628094
0.0063131
0.00631456
0.0062674
0.0062639
0.00635767
0.00640663
0.00582587
0.00600593
0.00634145
0.00639644
0.00621424
0.00572573
0.00580103
0.00575113
0.00581289
0.00584667
0.00609108
0.00606002
0.0060083
0.0058731
0.00592514
0.00611433
0.00556946
0.00580721
0.00593136
0.00576342
0.00721365
0.00329065
0.00739787
0.00615146
0.00657562
0.00788594
0.00796612
0.00811365
0.00820637
0.00816933
0.00815327
0.00816358
0.00818837
0.0082381
0.00828333
0.0083105
0.00821393
0.00799707
0.00794262
0.00795878
0.00794955
0.00802005
0.00814018
0.00823805
0.00828127
0.00831685
0.00836511
0.00839792
0.00841596
0.00842866
0.00843869
0.00796162
0.00784682
0.00816339
0.00815522
0.008169
0.00816738
0.00816776
0.0081695
0.00815682
0.008164
0.00812872
0.00814479
0.007991
0.00810619
0.00804331
0.00812063
0.00793648
0.00797924
0.00771003
0.0079826
0.00591421
0.00634608
0.00603831
0.00602146
0.00581325
0.00581032
0.00594223
0.00598777
0.0048047
0.00511282
0.00609863
0.00607928
0.00568271
0.00577808
0.00592645
0.0058342
0.00594622
0.0058776
0.00579692
0.00571627
0.00603936
0.00483952
0.00474645
0.00562037
0.00643747
0.00646686
0.0062955
0.00601177
0.00645813
0.00654111
0.00658725
0.00601172
0.00622893
0.00654468
0.00661762
0.00643318
0.00580096
0.00578636
0.00581698
0.0059801
0.0058507
0.00617896
0.00615592
0.00605325
0.00588458
0.00598477
0.00618694
0.00579911
0.00593661
0.00604647
0.00595158
0.00716862
0.0034629
0.0064728
0.00605412
0.00632401
0.00778211
0.00790674
0.00819458
0.00817005
0.00814115
0.00815151
0.00817849
0.00822227
0.00827183
0.00830132
0.00825189
0.00803063
0.0079233
0.00793377
0.00791258
0.00794685
0.00804655
0.0081721
0.0082536
0.00828839
0.00832902