/*--------------------------------*- C++ -*----------------------------------*\
  =========                 |
  \\      /  F ield         | OpenFOAM: The Open Source CFD Toolbox
   \\    /   O peration     | Website:  https://openfoam.org
    \\  /    A nd           | Version:  dev
     \\/     M anipulation  |
\*---------------------------------------------------------------------------*/
FoamFile
{
    version     2.0;
    format      ascii;
    class       volScalarField;
    location    "2500";
    object      rDeltaT;
}
// * * * * * * * * * * * * * * * * * * * * * * * * * * * * * * * * * * * * * //

dimensions      [0 0 -1 0 0 0 0];

internalField   nonuniform List<scalar> 
9842
(
100
100
100
100
100
100
100
100
100
100
100
100
100
100
100
100
100
100
100
100
100
100
100
100
100
100
100
100
100
100
100
100
100
100
100
100
100
100
100
100
100
100
100
100
100
100
100
100
100
100
100
100
100
100
100
100
100
100
100
100
100
100
100
100
100
100
100
100
100
100
100
100
100
100
100
100
100
100
100
100
100
100
100
100
100
100
100
100
100
100
100
100
100
100
100
100
100
100
100
100
100
100
100
100
100
100
100
100
100
100
100
100
100
100
100
100
100
100
100
100
100
100
100
100
100
100
100
100
100
100
100
100
100
100
100
100
100
100
100
100
100
100
100
100
100
100
100
100
100
100
100
100
100
100
100
100
100
100
100
100
100
100
100
100
100
100
100
100
100
100
100
100
100
100
100
100
100
100
100
100
100
100
100
100
100
100
100
100
100
100
100
100
100
100
100
100
100
100
100
100
100
100
100
100
100
100
100
100
100
100
100
100
100
100
100
100
100
100
100
100
100
100
100
100
100
100
100
100
100
100
100
100
100
100
100
100
100
100
100
100
100
100
100
100
100
100
100
100
100
100
100
100
100
100
100
100
100
100
100
100
100
100
100
100
100
100
100
100
100
100
100
100
100
100
100
100
100
100
100
100
100
100
100
100
100
100
100
100
100
100
100
100
100
100
100
100
100
100
100
100
100
100
100
100
100
100
100
100
100
100
100
100
100
100
100
100
100
100
100
100
100
100
100
100
100
100
100
100
100
100
100
100
100
100
100
100
100
100
100
100
100
100
100
100
100
100
100
100
100
100
100
100
100
100
100
100
100
100
100
100
100
100
100
100
100
100
100
100
100
100
100
100
100
100
100
100
100
100
100
100
100
100
100
100
100
100
100
100
100
100
100
100
100
100
100
100
100
100
100
100
100
100
100
100
100
100
100
100
100
100
100
100
100
100
100
100
100
100
100
100
100
100
100
100
100
100
100
100
100
100
100
100
100
100
100
100
100
100
100
100
100
100
100
100
100
100
100
100
100
100
100
100
100
100
100
100
100
100
100
100
100
100
100
100
100
100
100
100
100
100
100
100
100
100
100
100
100
100
100
100
100
100
100
100
100
100
100
100
100
100
100
100
100
100
100
100
100
100
100
100
100
100
100
100
100
100
100
100
100
100
100
100
100
100
100
100
100
100
100
100
100
100
100
100
100
100
100
100
100
100
100
100
100
100
100
100
100
100
100
100
100
100
100
100
100
100
100
100
100
100
100
100
100
100
100
100
100
100
100
100
100
100
100
100
100
100
100
100
100
100
100
100
100
100
100
100
100
100
100
100
100
100
100
100
100
100
100
100
100
100
100
100
100
100
100
100
100
100
100
100
100
100
100
100
100
100
100
100
100
100
100
100
100
100
100
100
100
100
100
100
100
100
100
100
100
100
100
100
100
100
100
100
100
100
100
100
100
100
100
100
100
100
100
100
100
100
100
100
100
100
100
100
100
100
100
100
100
100
100
100
100
100
100
100
100
100
100
100
100
100
100
100
100
100
100
100
100
100
100
100
100
100
100
100
100
100
100
100
100
100
100
100
100
100
100
100
100
100
100
100
100
100
100
100
100
100
100
100
100
100
100
100
100
100
100
100
100
100
100
100
100
100
100
100
100
100
100
100
100
100
100
100
100
100
100
100
100
100
100
100
100
100
100
100
100
100
100
100
100
100
100
100
100
100
100
100
100
100
100
100
100
100
100
100
100
100
100
100
100
100
100
100
100
100
100
100
100
100
100
100
100
100
100
100
100
100
100
100
100
100
100
100
100
100
100
100
100
100
100
100
100
100
100
100
100
100
100
100
100
100
100
100
100
100
100
100
100
100
100
100
100
100
100
100
100
100
100
100
100
100
100
100
100
100
100
100
100
100
100
100
100
100
100
100
100
100
100
100
100
100
100
100
100
100
100
100
100
100
100
100
100
100
100
100
100
100
100
100
100
100
100
100
100
100
100
100
100
100
100
100
100
100
100
100
100
100
100
100
100
100
100
100
100
100
100
100
100
100
100
100
100
100
100
100
100
100
100
100
100
100
100
100
100
100
100
100
100
100
100
100
100
100
100
100
100
100
100
100
100
100
100
100
100
100
100
100
100
100
100
100
100
100
100
100
100
100
100
100
100
100
100
100
100
100
100
100
100
100
100
100
100
100
100
100
100
100
100
100
100
100
100
100
100
100
100
100
100
100
100
100
100
100
100
100
100
100
100
100
100
100
100
100
100
100
100
100
100
100
100
100
100
100
100
100
100
100
100
100
100
100
100
100
100
100
100
100
100
100
100
100
100
100
100
100
100
100
100
100
100
100
100
100
100
100
100
100
100
100
100
100
100
100
100
100
100
100
100
100
100
100
100
100
100
100
100
100
100
100
100
100
100
100
100
100
100
100
100
100
100
100
100
100
100
100
100
100
100
100
100
100
100
100
100
100
100
100
100
100
100
100
100
100
100
100
100
100
100
100
100
100
100
100
100
100
100
100
100
100
100
100
100
100
100
100
100
100
100
100
100
100
100
100
100
100
100
100
100
100
100
100
100
100
100
100
100
100
100
100
100
100
100
100
100
100
100
100
100
100
100
100
100
100
100
100
100
100
100
100
100
100
100
100
100
100
100
100
100
100
100
100
100
100
100
100
100
100
100
100
100
100
100
100
100
100
100
100
100
100
100
100
100
100
100
100
100
100
100
100
100
100
100
100
100
100
100
100
100
100
100
100
100
100
100
100
100
100
100
100
100
100
100
100
100
100
100
100
100
100
100
100
100
100
100
100
100
100
100
100
100
100
100
100
100
100
100
100
100
100
100
100
100
100
100
100
100
100
100
100
100
100
100
100
100
100
100
100
100
100
100
100
100
100
100
100
100
100
100
100
100
100
100
100
100
100
100
100
100
100
100
100
100
100
100
100
100
100
100
100
100
100
100
100
100
100
100
100
100
100
100
100
100
100
100
100
100
100
100
100
100
100
100
100
100
100
100
100
100
100
100
100
100
100
100
100
100
100
100
100
100
100
100
100
100
100
100
100
100
100
100
100
100
100
100
100
100
100
100
100
100
100
100
100
100
100
100
100
100
100
100
100
100
100
100
100
100
100
100
100
100
100
100
100
100
100
100
100
100
100
100
100
100
100
100
100
100
100
100
100
100
100
100
100
100
100
100
100
100
100
100
100
100
100
100
100
100
100
100
100
100
100
100
100
100
100
100
100
100
100
100
100
100
100
100
100
100
100
100
100
100
100
100
100
100
100
100
100
100
100
100
100
100
100
100
100
100
100
100
100
100
100
100
100
100
100
100
100
100
100
100
100
100
100
100
100
100
100
100
100
100
100
100
100
100
100
100
100
100
100
100
100
100
100
100
100
100
100
100
100
100
100
100
100
100
100
100
100
100
100
100
100
100
100
100
100
100
100
100
100
100
100
100
100
100
100
100
100
100
100
100
100
100
100
100
100
100
100
100
100
100
100
100
100
100
100
100
100
100
100
100
100
100
100
100
100
100
100
100
100
100
100
100
100
100
100
100
100
100
100
100
100
100
100
100
100
100
100
100
100
100
100
100
100
100
100
100
100
100
100
100
100
100
100
100
100
100
100
100
100
100
100
100
100
100
100
100
100
100
100
100
100
100
100
100
100
100
100
100
100
100
100
100
100
100
100
100
100
100
100
100
100
100
100
100
100
100
100
100
100
100
100
100
100
100
100
100
100
100
100
100
100
100
100
100
100
100
100
100
100
100
100
100
100
100
100
100
100
100
100
100
100
100
100
100
100
100
100
100
100
100
100
100
100
100
100
100
100
100
100
100
100
100
100
100
100
100
100
100
100
100
100
100
100
100
100
100
100
100
100
100
100
100
100
100
100
100
100
100
100
100
100
100
100
100
100
100
100
100
100
100
100
100
100
100
100
100
100
100
100
100
100
100
100
100
100
100
100
100
100
100
100
100
100
100
100
100
100
100
100
100
100
100
100
100
100
100
100
100
100
100
100
100
100
100
100
100
100
100
100
100
100
100
100
100
100
100
100
100
100
100
100
100
100
100
100
100
100
100
100
100
100
100
100
100
100
100
100
100
100
100
100
100
100
100
100
100
100
100
100
100
100
100
100
100
100
100
100
100
100
100
100
100
100
100
100
100
100
100
100
100
100
100
100
100
100
100
100
100
100
100
100
100
100
100
100
100
100
100
100
100
100
100
100
100
100
100
100
100
100
100
100
100
100
100
100
100
100
100
100
100
100
100
100
100
100
100
100
100
100
100
100
100
100
100
100
100
100
100
100
100
100
100
100
100
100
100
100
100
100
100
100
100
100
100
100
100
100
100
100
100
100
100
100
100
100
100
100
100
100
100
100
100
100
100
100
100
100
100
100
100
100
100
100
100
100
100
100
100
100
100
100
100
100
100
100
100
100
100
100
100
100
100
100
100
100
100
100
100
100
100
100
100
100
100
100
100
100
100
100
100
100
100
100
100
100
100
100
100
100
100
100
100
100
100
100
100
100
100
100
100
100
100
100
100
100
100
100
100
100
100
100
100
100
100
100
100
100
100
100
100
100
100
100
100
100
100
100
100
100
100
100
100
100
100
100
100
100
100
100
100
100
100
100
100
100
100
100
100
100
100
100
100
100
100
100
100
100
100
100
100
100
100
100
100
100
100
100
100
100
100
100
100
100
100
100
100
100
100
100
100
100
100
100
100
100
100
100
100
100
100
100
100
100
100
100
100
100
100
100
100
100
100
100
100
100
100
100
100
100
100
100
100
100
100
100
100
100
100
100
100
100
100
100
100
100
100
100
100
100
100
100
100
100
100
100
100
100
100
100
100
100
100
100
100
100
100
100
100
100
100
100
100
100
100
100
100
100
100
100
100
100
100
100
100
100
100
100
100
100
100
100
100
100
100
100
100
100
100
100
100
100
100
100
100
100
100
100
100
100
100
100
100
100
100
100
100
100
100
100
100
100
100
100
100
100
100
100
100
100
100
100
100
100
100
100
100
100
100
100
100
100
100
100
100
100
100
100
100
100
100
100
100
100
100
100
100
100
100
100
100
100
100
100
100
100
100
100
100
100
100
100
100
100
100
100
100
100
100
100
100
100
100
100
100
100
100
100
100
100
100
100
100
100
100
100
100
100
100
100
100
100
100
100
100
100
100
100
100
100
100
100
100
100
100
100
100
100
100
100
100
100
100
100
100
100
100
100
100
100
100
100
100
100
100
100
100
100
100
100
100
100
100
100
100
100
100
100
100
100
100
100
100
100
100
100
100
100
100
100
100
100
100
100
100
100
100
100
100
100
100
100
100
100
100
100
100
100
100
100
100
100
100
100
100
100
100
100
100
100
100
100
100
100
100
100
100
100
100
100
100
100
100
100
100
100
100
100
100
100
100
100
100
100
100
100
100
100
100
100
100
100
100
100
100
100
100
100
100
100
100
100
100
100
100
100
100
100
100
100
100
100
100
100
100
100
100
100
100
100
100
100
100
100
100
100
100
100
100
100
100
100
100
100
100
100
100
100
100
100
100
100
100
100
100
100
100
100
100
100
100
100
100
100
100
100
100
100
100
100
100
100
100
100
100
100
100
100
100
100
100
100
100
100
100
100
100
100
100
100
100
100
100
100
100
100
100
100
100
100
100
100
100
100
100
100
100
100
100
100
100
100
100
100
100
100
100
100
100
100
100
100
100
100
100
100
100
100
100
100
100
100
100
100
100
100
100
100
100
100
100
100
100
100.723
100
100
100
100
100
100
100
100
100
100
100
100
100
100
100
100
100
100
100
100
100
100
100
100
100
100
100
100
100
100
100
100
100
100
100
100
100
100
100
100
100
100
100
100
100
100
100
100
100
100
100
100
100
100
100
100
100
100
100
100
100
100
100
100
100
100
100
100
100
100
100
100
100
100
100
100
100
100
100
100
100
100
100
100
100
100
100
100
100
100
100
100
100
100
105.767
110.072
112.437
113.097
100
100
104.025
110.578
100
100
100
100
100
100
100
100
100
100
100
100
100
100
100
100
100
100
100
100
100
100
100
100
100
100
100
100
100
100
100
100
100
100
100
100
100
100
100
100
100
100
100
100
100
100
100
100
100
100
100
100
100
100
100
100
100
100
100
100
100
100
100
100
100
100
100
100
100
100
100
100
100
100
100
100
100
100
100
100
100
100
100
100
100
100
100
100
100
100
100
112.443
109.215
104.806
100
116.746
122.207
125.712
126.964
100
105.154
112.881
120.573
100
100
100
100
100
100
100
100
100
100
100
100
100
100
100
100
100
100
100
100
100
100
100
100
178.177
113.387
100
100
100
100
100
100
100
100
100
100
100
100
100
100
100
100
100
100
100
100
100
100
100
100
100
100
100
100
100
100
100
100
100
100
100
100
100
100
100
100
100
100
100
100
100
100
100
100
100
100
100
100
100
100
100
100
100
100
100
100
100
100
108.282
105.782
103.977
104.673
126.999
123.449
118.243
112.819
127.882
134.476
139.425
141.421
104.304
113.024
121.893
130.785
100
100
100.866
100
102.998
100.943
114.197
108.364
100.874
100
104.171
106.665
100
100
100
100
100
101.566
100
100
100
100
100
100
173.329
100
100
100
100
100
100
100
100
100
100
100
100
100
100
100
100
100
100
100
100
100
100
100
100
100
100
100
100
100
100
100
100
100
100
100
100
100
100
100
100
100
100
100
100
100
100
100
100
100
100
100
100
100
100
100
100
100
100
100
100.403
102.107
100
113.45
110.098
120.419
117.878
116.905
116.987
141.855
138.219
132.053
126.041
139.316
147.142
153.557
156.697
111.204
121.266
131.528
141.583
105.824
111.32
114.862
111.861
116.395
120.249
131.009
122.563
112.409
106.826
118.259
120.256
113.486
100
100
103.51
118.933
122.46
103.202
100
100
100
100
100
100
100
100
100
100
100
100
100
100
100
100
100
100
100
100
100
100
100
100
100
100
100
100
100
100
100
100
100
100
100
100
100
100
100
100
100
100
100
100
100
100
100
100
100
100
100
100
100
100
100
100
100
100
100
101.746
100
100
100
106.114
104.025
105.891
110.386
115.364
114.275
126.2
121.923
132.131
129.485
128.433
128.51
157.578
154.545
147.078
139.368
151.29
160.444
168.413
173.415
121.297
130.849
142.571
153.663
127.483
134.981
139.176
129.544
139.779
139.937
165.841
150.993
131.265
129.396
147.555
147.511
138.398
100
100
122.037
143.764
143.251
118.669
100
100
100
100
100
100
100
100
100
100
100
100
100
100
100
100
100
100
100
100
100
100
100
100
100
100
100
100
100
100
100
100
100
100
100
100
100
100
100
100
100
100
100
100
100
100
100
100
100
100
100
100
100
100
100
100
100
100
100
100
110.623
104.465
104.478
100
118.433
115.327
115.522
119.673
127.409
127.75
136.806
132.437
145.719
141.674
139.451
140.118
175.256
173.419
165.13
155.226
164.328
174.779
184.533
192.054
140.924
145.335
155.903
167.773
150.67
162.78
168.516
166.589
181.255
180.348
203.018
191.863
168.86
160.667
183.99
192.697
167.2
112.371
105.958
139.117
166.17
161.644
132.688
100
100
100
100
100
100
100
100
100
100
100
100
100
100
100
100
100
100
100
100
100
100
100
100
100
100
100
100
100
100
100
100
100
100
100
100
100
100
100
100
100
100
100
100
100
100
100
100
100
100
100
100
100
100
100
100
100
100
100
100
100
100
118.075
111.362
112.085
103.693
129.564
125.075
124.009
128.556
138.807
139.481
145.963
142.542
162.558
154.674
150.399
151.633
195.755
195.119
187.12
175.217
178.847
190.223
202.107
212.799
167.038
168.184
173.028
183.768
191.577
206.162
202.809
213.856
211.24
209.222
235.064
224.329
207.448
193.241
219.982
225.445
192.571
125.515
117.466
154.287
187.938
180.852
147.004
100
100
107.712
100.353
100
100
100
100
100
100
100
100
100
100
100
100
100
100
100
100
100
100
100
100
100
100
100
100
100
100
100
100
100
100
100
100
100
100
100
100
100
100
100
100
100
100
100
100
100
100
100
100
100
100
100
100
100
100
100
100
100
100
126.282
119.454
120.435
111.605
139.419
133.608
132.651
138.202
149.929
149.485
155.576
153.063
185.131
171.796
161.562
164.341
219.358
219.952
213.757
200.407
194.99
206.119
220.084
235.17
199.999
198.112
198.972
204.909
223.28
243.174
246.86
229.339
258.02
257.522
155.8
283.134
230.266
221.364
229.17
244.641
216.712
139.157
130.055
173.422
211.036
204.684
167.141
100
100
121.483
107.486
100
147.839
110.618
100
100
100
100
100
100
100
100
100
100
100
100
100
100
100
100
100
100
100
100
100
100
100
100
100
100
100
100
100
100
100
100
100
100
100
100
100
100
100
100
100
100
100
100
100
100
100
100
100
100
100
100
100
102.714
100
100
100
135.926
128.521
129.727
120.673
149.008
142.859
142.299
148.371
160.764
158.9
166.025
163.403
215.789
198.597
175.904
183.583
247.292
248.504
244.126
230.448
214.901
223.846
237.02
252.836
252.505
240.551
244.613
244.056
284.955
159.372
288.602
152.321
308.831
305.446
185.692
337.086
285.151
230.094
151.596
160.511
223.798
159.442
149.861
201.255
218.124
217.007
195.633
100
100
132.631
118.358
100
387.995
149.12
100
100
100
100
100
100
100
100
100
100
100
100
100
100
100
100
100
100
100
100
100
100
100
100
100
100
100
100
100
100
100
100
100
100
100
100
100
100
100
100
100
100
100
100
100
100
100
100
100
100
100
100
111.281
100.467
100
100
146.449
138.249
140.852
131.568
158.528
153.415
153.31
159.831
172.272
168.612
178.269
174.865
255.077
238.787
199.65
216.248
268.878
274.063
273.95
262.993
251.921
257.398
267.679
277.497
287.576
278.477
277.254
275.727
332.36
187.939
334.452
183.056
366.002
355.935
215.443
392.607
341.288
155.777
182.783
192.878
151.286
186.398
164.857
212.551
149.575
151.122
201.933
103.792
100
148.172
127.264
100
198.042
100
100
100
100
100
100
100
100
100
100
100
100
100
100
100
100
100
100
100
100
100
100
100
100
100
100
100
100
100
100
100
100
100
100
100
100
100
100
100
100
100
100
100
100
100
100
100
100
100
100
100
100
100
100
100
121.553
110.118
100
107.642
158.33
149.541
153.753
143.596
169.813
166.019
166.135
173.099
188.519
181.777
194.325
189.587
283.443
286.292
237.758
263.429
301.54
319.711
307.988
288.663
281.101
286.77
296.103
306.917
329.107
321.498
316.833
314.12
380.33
215.574
381.632
214.82
419.199
406.393
242.309
444.744
401.517
186.714
216.265
228.154
182.295
192.619
181.581
147.167
181.175
183.112
144.355
110.355
100
158.703
137.33
100
100
100
100
100
100
100
100
100
100
100
100
100
100
100
100
100
100
100
100
100
100
100
100
100
100
100
100
100
100
100
100
100
100
100
100
100
100
100
100
100
100
100
100
100
100
100
100
100
100
100
100
100
100
100
100
100
132.669
120.881
102.284
118.133
171.788
162.753
168.148
156.446
183.22
179.846
180.516
188.435
215.355
203.006
220.935
211.59
299.928
327.352
284.314
300.459
327.266
179.356
320.473
304.168
317.032
322.391
331.77
343.361
372.747
365.05
359.565
355.444
428.508
241.719
243.055
454.628
219.891
245.82
259.295
216.504
204.137
261.963
188.683
180.324
215.819
217.366
175.688
118.746
103.353
171.89
148.807
100
100
100
100
100
100
100
100
100
100
100
100
100
100
100
100
100
100
100
100
100
100
100
100
100
100
100
100
100
100
100
100
100
100
100
100
100
100
100
100
100
100
100
100
100
100
100
100
100
100
100
100
100
100
100
100
100
100
100
100
144.616
132.339
112.241
129.182
188.11
178.344
184.026
170.598
200.526
195.612
197.517
206.593
256.429
238.289
257.719
243.608
190.566
330.122
324.398
317.511
359.287
198.038
351.796
337.346
355.687
359.663
368.316
379.249
249.348
247.993
143.241
319.289
201.109
253.74
216.225
247.765
249.192
210.422
124.787
106.621
178.255
155.302
100
100
100
100
100
100
100
100
100
100
100
100
100
100
100
100
100
100
100
100
100
100
100
100
100
100
100
100
100
100
100
100
100
100
100
100
100
100
100
100
100
100
100
100
100
100
100
100
100
100
100
100
100
100
100
100
100
104.671
100
100
157.557
144.132
122.505
140.74
208.5
196.63
202.113
186.581
225.991
215.551
218.821
229.46
292.407
280.023
287.256
284.041
205.17
373.716
189.684
352.058
388.745
220.161
394.392
379.394
175.845
384.763
144.702
311.723
249.302
242.973
130.337
109.383
190.879
249.762
164.739
100
100
115.065
100
100
100
100
100
100
100
100
100
100
100
100
100
100
100
100
100
100
100
100
100
100
100
100
100
100
100
100
100
100
100
100
100
100
100
100
100
100
100
100
100
100
100
100
100
100
100
100
100
100
100
100
100
100
100
113.839
100
100
171.334
156.234
133.75
153.713
232.002
217.452
223.902
205.876
259.449
241.9
243.944
256.649
317.269
312.182
316.172
297.971
227.264
407.265
207.145
399.417
239.503
431.743
411.897
212.587
446.322
176.01
377.841
137.144
109.364
204.359
251.133
300.886
167.6
100
100.289
143.258
100
100
100
100
100
100
100
100
100
100
100
100
100
100
100
100
100
100
100
100
100
100
100
100
100
100
100
100
100
100
100
100
100
100
100
100
100
100
100
100
100
100
100
100
100
100
100
100
100
100
100
100
100
100
100
100
100
122.573
106.034
101.325
187.686
170.073
144.068
166.249
256.624
240.702
248.501
227.781
294.733
272.61
270.919
285.071
354.169
184.309
179.423
353.975
247.55
231.804
441.079
246.688
210.841
438.82
138.08
111.08
143.243
307.38
358.629
167.656
232.942
110.007
100
160.331
100
100
100
100
100
100
100
100
100
100
100
100
100
100
100
100
100
100
100
100
100
100
100
100
100
100
100
100
100
100
100
100
100
100
100
100
100
100
100
100
100
100
100
100
100
100
100
100
100
100
100
100
100
100
100
100
100
100
132.903
115.699
109.004
205.855
184.599
155.574
178.577
281.497
266.064
275.011
252.923
304.054
300.413
295.705
308.499
400.59
204.865
181.777
201.361
399.336
254.07
242.039
140.731
116.549
173.371
371.436
411.859
173.423
221.066
280.976
133.932
100
170.033
100
110.381
100
100
100
100
100
100
100
100
100
100
100
100
100
100
100
100
100
100
100
100
100
100
100
100
100
100
100
100
100
100
100
100
100
100
100
100
100
100
100
100
100
100
100
100
100
100
100
100
100
100
100
100
105.426
103.397
102.719
100
100
142.303
123.749
116.549
227.079
200.044
167.694
191.47
304.918
291.476
301.196
278.093
308.957
315.579
316.961
443.779
230.221
205.13
189.175
224.872
444.859
150.393
125.219
207.521
432.065
193.286
228.749
271.521
336.061
156.641
100
173.054
108.256
128.163
100
100
100
100
100
100
100
100
100
100
100
100
100
100
100
100
100
100
100
100
100
100
100
100
100
100
100
100
100
100
100
100
100
100
100
100
100
100
100
100
100
100
100
100
100
100
100
100
100
100
100
100
100
111.864
110.4
106.905
101.592
100
150.322
131.225
122.672
248.626
216.082
178.984
205.996
324.556
314.067
323.251
302.476
323.125
196.517
253.968
228.906
208.916
248.935
169.43
131.525
237.451
225.967
242.749
278.795
330.813
385.98
176.99
100
172.413
121.05
147.052
100
100
100
100
100
100
100
100
100
100
100
100
100
100
100
100
100
100
100
100
100
100
100
100
100
100
100
100
100
100
100
100
100
100
100
100
100
100
100
100
100
100
100
100
100
100
100
100
100
100
100
100
100
100
118.691
115.144
109.86
103.702
158.284
137.96
128.742
273.109
236.608
189.699
219.598
328.137
332.254
344.701
328.121
200.262
214.627
252.219
228.493
174.769
133.28
149.657
296.515
338.409
384.897
193.775
100
169.459
136.787
166.212
100
100
100
100
100
100
100
100
100
100
100
100
100
100
100
100
100
100
100
100
100
100
100
100
100
100
100
100
100
100
100
100
100
100
100
100
100
100
100
100
100
100
100
100
100
100
100
100
100
100
100
100
100
100
100
124.133
118.444
111.661
105.045
164.683
143.418
134.849
299.747
258.072
199.366
233.34
201.652
344.963
359.76
352.134
217.348
232.609
250.806
172.356
239.538
147.301
177.186
358.543
391.988
203.025
100
165.749
152.799
179.947
100
100
100
100
100
100
100
100
100
100
100
100
100
100
100
100
100
100
100
100
100
100
100
100
100
100
100
100
100
100
100
100
100
100
100
100
100
100
100
100
100
100
100
100
100
100
100
100
100
100
100
100
100
100
100
100
127.673
120.333
112.565
104.632
170.956
149.565
138.71
325.523
279.753
207.145
246.345
216.819
386.782
364.822
369.451
367.919
233.263
253.11
181.736
247.019
287.275
162.794
210.948
415.099
207.439
100
159.722
163.755
188.202
100
100
100
100
100
100
100
100
100
100
100
100
100
100
100
100
100
100
100
100
100
100
100
100
100
100
100
100
100
100
100
100
100
100
100
100
100
100
100
100
100
100
100
100
100
100
100
100
100
100
100
100
100
100
100
100
100
100
129.734
121.113
112.482
103.408
177.584
154.223
141.012
347.111
301.112
217.288
263.212
230.579
415.5
221.427
221.502
372.88
251.876
194.934
245.166
291.091
346.833
171.856
241.09
200.152
100
152.135
170.223
186.954
100
100
100
100
100
100
100
100
100
100
100
100
100
100
100
100
100
100
100
100
100
100
100
100
100
100
100
100
100
100
100
100
100
100
100
100
100
100
100
100
100
100
100
100
100
100
100
100
100
100
100
100
100
100
100
100
100
100
130.798
121.521
111.021
101.013
182.292
157.131
142.583
362.119
323.065
225.042
277.972
246.861
439.058
235.848
397.72
234.703
384.372
200.894
251.934
292.065
347.631
399.686
172.265
182.088
140.112
165.775
166.889
173.564
100
100
100
100
100
100
100
100
100
100
100
100
100
100
100
100
100
100
100
100
100
100
100
100
100
100
100
100
100
100
100
100
100
100
100
100
100
100
100
100
100
100
100
100
100
100
100
100
100
100
100
100
100
100
100
100
100
100
100
100
131.781
119.88
108.561
100
186.189
159.427
144.031
366.477
340.013
231.679
288.773
464.694
249.127
421.964
222.676
244.993
191.284
254.339
297.163
159.889
349.055
397.673
167.319
176.965
329.599
201.708
159.435
156.632
100
100
100
100
100
100
100
100
100
100
100
100
100
100
100
100
100
100
100
100
100
100
100
100
100
100
100
100
100
100
100
100
100
100
100
100
100
100
100
100
100
100
100
100
100
100
100
100
100
100
100
100
100
100
100
100
100
100
100
100
100
130.396
117.602
106.04
189.418
161.186
143.514
363.199
346.98
237.591
298.436
263.511
442.615
235.357
371.579
254.11
226.029
181.017
351.987
187.14
272.941
397.665
162.784
177.644
791.014
286.351
146.832
139.11
100
100
100
100
100
100
100
100
100
100
100
100
100
100
100
100
100
100
100
100
100
100
100
100
100
100
100
100
100
100
100
100
100
100
100
100
100
100
100
100
100
100
100
100
100
100
100
100
100
100
100
100
100
100
100
100
100
100
100
100
100
103.881
128.507
115.393
192.432
162.05
142.423
383.343
352.907
243.187
306.252
461.507
245.885
397.183
400.452
208.622
173.977
399.964
218.586
322.872
247.533
156.665
140.076
170.573
102.031
132.638
108.579
100
100
100
100
100
100
100
100
100
100
100
100
100
100
100
100
100
100
100
100
100
100
100
100
100
100
100
100
100
100
100
100
100
100
100
100
100
100
100
100
100
100
100
100
100
100
100
100
100
100
100
100
100
100
100
100
100
100
100
100
100
101.995
100
113.471
126.788
193.988
162.309
141.482
394.914
352
244.369
302.753
253.942
421.329
422.022
219.68
201.532
170.831
244.559
378.211
293.897
248.517
147.908
100
101.139
100
116.065
100
100
100
100
100
100
100
100
100
100
100
100
100
100
100
100
100
100
100
100
100
100
100
100
100
100
100
100
100
100
100
100
100
100
100
100
100
100
100
100
100
100
100
100
100
100
100
100
100
100
100
100
100
100
100
100
100
100
100
101.611
101.208
103.965
100.039
104.811
111.874
108.265
125.406
193.613
162.139
140.89
336.721
240.976
292.719
436.724
444.155
231.004
346.373
197.069
162.988
423.657
349.246
292.814
240.386
136.568
100
100
100
100.138
100
100
100
100
100
100
100
100
100
100
100
100
100
100
100
100
100
100
100
100
100
100
100
100
100
100
100
100
100
100
100
100
100
100
100
100
100
100
100
100
100
100
100
100
100
100
100
100
100
100.827
100
100
100
100
100
100
100
101.648
101.61
106.373
108.645
108.994
112.474
107.852
113.475
124.358
121.15
192.378
161.92
140.199
326.073
235.94
282.864
461.221
240.786
365.891
338.34
194.89
154.299
396.596
344.516
285.048
147.517
126.972
100
100
100
100
100
100
100
100
100
100
100
100
100
100
100
100
100
100
100
100
100
100
100
100
100
100
100
100
100
100
100
100
100
100
100
100
100
100
100
100
100
100
100
100
100
100
100
100
100
100
100
100
100
101.824
102.395
100
100
100
100
100
100
101.831
101.502
108.565
108.059
115.438
118.259
118.485
122.808
118.944
124.224
137.377
189.657
160.789
313.731
229.503
271.586
248.375
386.06
358.124
330.436
221.567
185.812
144.666
388.492
338.444
176.069
277.364
122.116
100
100
100
100
100
100
100
100
100
100
100
100
100
100
100
100
100
100
100
100
100
100
100
100
100
100
100
100
100
100
100
100
100
100
100
100
100
100
100
100
100
100
100
100
100
100
100
100
100
100
101.129
100
102.099
103.595
100
103.657
103.747
102.512
101.724
101.383
100
101.214
101.688
107.557
106.696
118.388
117.747
126.601
130.239
130.202
135.427
134.896
137.41
158.22
186.565
298.605
223.814
262.299
402.361
379.709
349.099
316.691
215.7
175.476
138.443
384.6
208.216
325.961
246.404
121.056
100
100
100
100
100
100
100
100
100
100
100
100
100
100
100
100
100
100
100
100
100
100
100
100
100
100
100
100
100
100
100
100
100
100
100
100
100
100
100
100
100
100
100
100
100
100
100
100
100
103.449
100
100
103.843
107.749
100
106.182
105.551
105.472
103.593
103.298
100
105.263
104.285
116.68
115.024
130.879
130.524
140.284
144.907
144.406
150.542
156.195
155.479
184.638
288.647
220.926
258.433
396.289
369.017
336.222
310.892
199.199
165.725
134.067
236.086
380.06
296.46
147.564
121.195
100
100
100
100
100
100
100
100
100
100
100
100
100
100
100
100
100
100
100
100
100
100
100
100
100
100
100
100
100
100
100
100
100
100
100
100
100
100
100
100
100
100
100
100
100
100
100
100
100
100
105.244
100
107.717
107.089
100
105.859
106.311
100
108.212
107.662
107.535
106.556
107.298
112.457
109.47
129.334
127.19
146.361
146.638
156.413
162.09
162.381
169.178
182.686
284.846
219.272
257.678
385.21
357.02
332.341
307.908
197.168
155.701
134.275
431.581
354.1
175.78
215.848
259.946
116.241
100
100
100
100
100
100
100
100
100
100
100
100
100
100
100
100
100
100
100
100
100
100
100
100
100
100
100
100
100
100
100
100
100
100
100
100
100
100
100
100
100
100
100
100
100
100
100
100
100
100
100
107.353
108.388
100
108.692
110.108
109.521
100
109.026
109.723
109.945
110.008
109.339
111.823
114.652
123.854
118.7
145.818
143.711
164.745
165.959
175.636
182.187
186.572
193.555
284.663
218.422
253.898
374.957
353.334
328.187
309.31
189.507
148.912
138.64
407.612
207.84
315.411
211.418
151.471
102.913
100
100
100
100
100
100
100
100
100
100
100
100
100
100
100
100
100
100
100
100
100
100
100
100
100
100
100
100
100
100
100
100
100
100
100
100
100
100
100
100
100
100
100
100
100
100
100
100
100
100
100
100
100
110.701
109.991
100
100
110.147
112.687
112.618
111.892
112.411
111.429
112.545
111.232
121.105
126.708
139.934
133.031
165.948
164.281
186.631
189.091
199.943
206.929
224.532
278.131
257.454
370.395
349.124
327.514
298.139
177.346
148.254
134.416
238.754
377.529
181.487
208.092
229.565
269.992
100
100
100
100
100
100
100
100
100
100
100
100
100
100
100
100
100
100
100
100
100
100
100
100
100
100
100
100
100
100
100
100
100
100
100
100
100
100
100
100
100
100
100
100
100
100
100
100
100
100
100
100
100
100
100
117.049
111.635
100
111.191
110.833
110.821
115.084
115.786
114.411
115.017
114.184
115.884
114.683
136.068
144.558
160.415
152.838
190.208
188.998
213.311
217.682
229.872
236.62
281.107
260.877
366.361
346.096
317.286
304.133
165.132
152.984
121.566
436.467
215.091
324.546