/*--------------------------------*- C++ -*----------------------------------*\
  =========                 |
  \\      /  F ield         | OpenFOAM: The Open Source CFD Toolbox
   \\    /   O peration     | Website:  https://openfoam.org
    \\  /    A nd           | Version:  dev
     \\/     M anipulation  |
\*---------------------------------------------------------------------------*/
FoamFile
{
    version     2.0;
    format      ascii;
    class       volScalarField;
    location    "2500";
    object      rho;
}
// * * * * * * * * * * * * * * * * * * * * * * * * * * * * * * * * * * * * * //

dimensions      [1 -3 0 0 0 0 0];

internalField   nonuniform List<scalar> 
9842
(
1.1717
1.17153
1.17161
1.1715
1.17124
1.17165
1.17154
1.17103
1.17124
1.17171
1.17159
1.17092
1.17087
1.17127
1.17179
1.17161
1.17089
1.17067
1.1709
1.17135
1.17179
1.17159
1.17093
1.17056
1.17062
1.17104
1.17144
1.17182
1.17161
1.17109
1.17051
1.1704
1.17066
1.1711
1.17153
1.17184
1.17163
1.17116
1.1705
1.17026
1.17038
1.17077
1.17119
1.17156
1.17185
1.17168
1.17121
1.17055
1.17022
1.17017
1.17048
1.1709
1.17129
1.17158
1.17187
1.17166
1.17117
1.1706
1.1702
1.17
1.1702
1.17062
1.17099
1.17133
1.17161
1.17187
1.17167
1.17125
1.1707
1.1702
1.16991
1.16998
1.1703
1.17071
1.17107
1.17137
1.17163
1.17188
1.17169
1.17128
1.17079
1.17025
1.16989
1.16981
1.17001
1.17042
1.17081
1.17116
1.1714
1.17164
1.17188
1.1717
1.17131
1.1709
1.17034
1.16992
1.1697
1.16982
1.17013
1.17054
1.1709
1.17118
1.17142
1.17167
1.17189
1.1717
1.17132
1.17094
1.17043
1.17001
1.16964
1.16963
1.16989
1.17025
1.17066
1.17097
1.17122
1.17145
1.17166
1.1719
1.17173
1.17137
1.17097
1.17054
1.17006
1.1696
1.16951
1.16965
1.16999
1.17041
1.17075
1.17101
1.17124
1.17146
1.17166
1.17189
1.17173
1.17139
1.171
1.17067
1.1701
1.16964
1.16943
1.16948
1.16975
1.17015
1.17051
1.17083
1.17107
1.17127
1.17147
1.17167
1.1719
1.17173
1.17141
1.17105
1.17068
1.17013
1.16968
1.16939
1.16934
1.16953
1.1699
1.17032
1.1706
1.17086
1.17109
1.17128
1.17148
1.17167
1.1719
1.17173
1.17144
1.1711
1.17074
1.17026
1.16973
1.16938
1.16924
1.16935
1.16963
1.17003
1.1704
1.17066
1.1709
1.1711
1.17129
1.17148
1.17168
1.17189
1.17174
1.17146
1.17114
1.17083
1.17036
1.1699
1.16939
1.16919
1.1692
1.16943
1.16979
1.17016
1.17047
1.17071
1.17093
1.17112
1.17131
1.17148
1.17168
1.17189
1.17176
1.17146
1.17115
1.17084
1.17045
1.16996
1.16941
1.16916
1.16909
1.16922
1.16954
1.16991
1.17026
1.17055
1.17075
1.17095
1.17112
1.1713
1.17148
1.17168
1.17189
1.17177
1.17147
1.17122
1.1709
1.17056
1.17002
1.16953
1.16915
1.16902
1.16907
1.16932
1.16968
1.17006
1.17035
1.17059
1.17078
1.17096
1.17114
1.17131
1.17149
1.17168
1.1719
1.17177
1.17149
1.17123
1.17091
1.17056
1.17015
1.16958
1.16918
1.16896
1.16895
1.16914
1.16945
1.16984
1.17013
1.17041
1.17061
1.1708
1.17097
1.17114
1.1713
1.17148
1.17167
1.17189
1.17179
1.17153
1.17125
1.17093
1.17063
1.17022
1.16967
1.16927
1.16894
1.16886
1.16897
1.16924
1.16958
1.16994
1.17022
1.17044
1.17064
1.17081
1.17098
1.17114
1.1713
1.17147
1.17168
1.17189
1.17178
1.17152
1.17128
1.17099
1.17066
1.17028
1.16979
1.16933
1.16893
1.1688
1.16883
1.16904
1.1694
1.16973
1.17002
1.17028
1.17047
1.17066
1.17082
1.17098
1.17113
1.1713
1.17147
1.17167
1.17188
1.17179
1.17154
1.17131
1.17103
1.1707
1.17033
1.16989
1.1694
1.16898
1.16876
1.16873
1.16888
1.16918
1.16952
1.16984
1.1701
1.17031
1.1705
1.17067
1.17083
1.17098
1.17113
1.17129
1.17146
1.17166
1.17188
1.17179
1.17155
1.17133
1.17107
1.17077
1.17038
1.16997
1.16948
1.16905
1.16874
1.16865
1.16874
1.16898
1.16931
1.16964
1.16992
1.17014
1.17034
1.17052
1.17067
1.17083
1.17098
1.17112
1.17128
1.17146
1.17166
1.17188
1.1718
1.17158
1.17134
1.17108
1.17081
1.17043
1.17009
1.16957
1.16911
1.16876
1.1686
1.16863
1.16883
1.16911
1.16944
1.16974
1.16999
1.17018
1.17036
1.17053
1.17068
1.17082
1.17096
1.17111
1.17127
1.17145
1.17165
1.17188
1.17181
1.17159
1.17135
1.1711
1.17084
1.17048
1.17012
1.16963
1.1692
1.16881
1.16857
1.16853
1.16867
1.16894
1.16926
1.16955
1.16982
1.17003
1.17021
1.17038
1.17052
1.17067
1.1708
1.17094
1.17109
1.17125
1.17143
1.17164
1.17187
1.17182
1.17158
1.17137
1.17114
1.17085
1.17054
1.17017
1.16972
1.16928
1.16887
1.16856
1.16846
1.16855
1.16876
1.16907
1.1694
1.16965
1.16989
1.17006
1.17024
1.17039
1.17052
1.17066
1.17079
1.17093
1.17108
1.17124
1.17142
1.17163
1.17188
1.17182
1.17159
1.17139
1.17117
1.1709
1.17057
1.17023
1.16983
1.16935
1.16896
1.16857
1.16842
1.16843
1.16861
1.1689
1.1692
1.16949
1.16972
1.16992
1.1701
1.17024
1.17038
1.17051
1.17064
1.17077
1.17091
1.17106
1.17122
1.17141
1.17162
1.17187
1.17181
1.1716
1.17143
1.1712
1.1709
1.17062
1.17031
1.16996
1.16948
1.16901
1.16862
1.1684
1.16835
1.16847
1.16871
1.16903
1.16935
1.16958
1.16978
1.16995
1.17011
1.17024
1.17037
1.1705
1.17062
1.17075
1.17089
1.17104
1.1712
1.17139
1.17162
1.17187
1.17182
1.17161
1.17141
1.17122
1.17095
1.17069
1.17033
1.16997
1.16951
1.16905
1.16868
1.16839
1.1683
1.16836
1.16856
1.16885
1.16915
1.16944
1.16964
1.16981
1.16998
1.17011
1.17024
1.17036
1.17048
1.1706
1.17072
1.17086
1.17101
1.17118
1.17138
1.17161
1.17187
1.17182
1.17163
1.17144
1.17121
1.17095
1.17067
1.17036
1.17
1.16967
1.16911
1.16874
1.16842
1.16826
1.16828
1.16843
1.16868
1.16897
1.16929
1.1695
1.16969
1.16985
1.16998
1.17011
1.17022
1.17034
1.17045
1.17057
1.17069
1.17083
1.17098
1.17116
1.17136
1.1716
1.17199
1.17185
1.17182
1.17163
1.17144
1.17121
1.171
1.17071
1.17039
1.17002
1.16969
1.16915
1.16879
1.16845
1.16823
1.1682
1.16833
1.16857
1.16886
1.16912
1.16939
1.16956
1.16972
1.16986
1.16998
1.1701
1.1702
1.17031
1.17041
1.17053
1.17066
1.17079
1.17095
1.17114
1.17139
1.17171
1.17157
1.172
1.17185
1.17183
1.17164
1.17146
1.17122
1.17099
1.17071
1.17039
1.17011
1.16975
1.16927
1.16883
1.16848
1.16823
1.16813
1.16822
1.16842
1.16868
1.16897
1.16923
1.16945
1.1696
1.16974
1.16986
1.16997
1.17007
1.17017
1.17027
1.17037
1.17049
1.17062
1.17076
1.17092
1.1712
1.17108
1.17143
1.17126
1.17131
1.17171
1.17157
1.172
1.17185
1.17184
1.17164
1.17144
1.1712
1.17098
1.17071
1.17042
1.17011
1.16974
1.16933
1.16892
1.16853
1.16825
1.1681
1.1681
1.16825
1.16854
1.1688
1.1691
1.16931
1.16949
1.16963
1.16975
1.16985
1.16994
1.17003
1.17012
1.17022
1.17033
1.17044
1.17058
1.17073
1.17097
1.17087
1.17113
1.17143
1.17119
1.1713
1.1717
1.17156
1.17199
1.17184
1.17184
1.17165
1.17145
1.17122
1.17099
1.17072
1.17044
1.17015
1.16979
1.16941
1.169
1.16859
1.16827
1.16808
1.16804
1.16815
1.16835
1.16869
1.16893
1.16918
1.16937
1.16952
1.16964
1.16973
1.16982
1.16989
1.16997
1.17006
1.17016
1.17027
1.1704
1.17054
1.17076
1.17067
1.171
1.17088
1.17107
1.17142
1.17116
1.17128
1.17169
1.17155
1.17199
1.17183
1.17182
1.17165
1.17143
1.17127
1.17107
1.17071
1.17045
1.17015
1.16981
1.16946
1.16906
1.16866
1.16831
1.16808
1.16799
1.16805
1.16826
1.16852
1.16882
1.16904
1.16924
1.16941
1.16953
1.16962
1.16968
1.16973
1.16979
1.16986
1.16996
1.17007
1.17021
1.17035
1.17057
1.17047
1.17077
1.17066
1.17095
1.17084
1.17104
1.1714
1.17115
1.17126
1.17168
1.17153
1.17198
1.17182
1.17183
1.17166
1.17143
1.17122
1.17097
1.17071
1.17044
1.17015
1.16983
1.16949
1.16913
1.16874
1.16837
1.16808
1.16796
1.16797
1.16811
1.16836
1.16864
1.16894
1.16912
1.16929
1.16941
1.16949
1.16949
1.16943
1.16939
1.16941
1.16952
1.16969
1.1699
1.17012
1.17037
1.17027
1.17056
1.17046
1.17073
1.17062
1.17092
1.1708
1.17101
1.17138
1.17112
1.17124
1.17166
1.17151
1.17197
1.17181
1.17183
1.17163
1.17145
1.1712
1.17098
1.17076
1.17039
1.17013
1.16983
1.16949
1.16918
1.16881
1.16841
1.1681
1.16793
1.16791
1.16802
1.16825
1.16854
1.16879
1.16902
1.16917
1.16929
1.16932
1.16915
1.1687
1.16809
1.1677
1.16781
1.16824
1.16883
1.16944
1.17014
1.16995
1.17035
1.17024
1.17052
1.17041
1.17069
1.17058
1.17089
1.17077
1.17099
1.17136
1.17109
1.17121
1.17164
1.17149
1.17196
1.17179
1.17182
1.17161
1.17144
1.17121
1.17102
1.17073
1.17035
1.17011
1.16984
1.1695
1.16919
1.16884
1.16846
1.16812
1.16792
1.16786
1.16793
1.1681
1.16841
1.16863
1.1689
1.16908
1.16918
1.16915
1.16868
1.1673
1.16502
1.16293
1.16234
1.16344
1.165
1.16667
1.16952
1.16843
1.17008
1.16978
1.1703
1.17015
1.17047
1.17036
1.17065
1.17054
1.17086
1.17073
1.17095
1.17133
1.17106
1.17117
1.17162
1.17146
1.17195
1.17177
1.17181
1.17161
1.17145
1.17121
1.17096
1.1707
1.17034
1.17007
1.1698
1.16948
1.1692
1.16887
1.16851
1.16813
1.16791
1.16782
1.16785
1.168
1.16824
1.16857
1.16876
1.16895
1.16908
1.16899
1.16816
1.16568
1.1611
1.15593
1.15285
1.15287
1.15583
1.15872
1.16576
1.16072
1.16903
1.16702
1.16989
1.16928
1.17021
1.16995
1.17041
1.17026
1.1706
1.17047
1.17082
1.17068
1.17091
1.17129
1.17101
1.17113
1.17159
1.17142
1.17194
1.17175
1.17181
1.17162
1.17144
1.1712
1.17096
1.17074
1.17029
1.17002
1.16977
1.16948
1.16919
1.16888
1.16854
1.16816
1.16791
1.16779
1.1678
1.16793
1.16812
1.16841
1.16869
1.16888
1.16898
1.16886
1.16772
1.16405
1.15747
1.14956
1.14321
1.14074
1.14264
1.14736
1.15586
1.14929
1.16267
1.15728
1.16765
1.16384
1.16939
1.16791
1.16999
1.16939
1.17029
1.16997
1.17053
1.17031
1.17076
1.17059
1.17085
1.17125
1.17095
1.17106
1.17156
1.17138
1.17192
1.17172
1.1718
1.1716
1.17141
1.17116
1.17097
1.17078
1.17028
1.16997
1.16974
1.16948
1.16919
1.1689
1.16856
1.16821
1.16792
1.16776
1.16773
1.16784
1.16805
1.16829
1.16855
1.16876
1.16889
1.16875
1.16744
1.16293
1.1543
1.1447
1.136
1.13016
1.12883
1.13246
1.14337
1.13652
1.15134
1.14461
1.15859
1.15257
1.16442
1.1592
1.16787
1.16436
1.16924
1.16746
1.16989
1.1689
1.17031
1.16971
1.17065
1.17029
1.17072
1.17119
1.17082
1.17094
1.17152
1.17133
1.1719
1.17168
1.17178
1.17157
1.17137
1.1711
1.17093
1.17075
1.17032
1.16994
1.16969
1.16944
1.16917
1.16888
1.16859
1.16826
1.16793
1.16775
1.16768
1.16774
1.16795
1.16819
1.16845
1.16867
1.1688
1.16869
1.16731
1.16232
1.15244
1.14099
1.13178
1.12442
1.11967
1.11898
1.12175
1.13788
1.12905
1.14592
1.13857
1.15311
1.14634
1.15898
1.15269
1.16354
1.15778
1.16658
1.16177
1.16826
1.16507
1.16944
1.16732
1.17027
1.16909
1.17028
1.17108
1.17036
1.17051
1.17147
1.17124
1.17188
1.17164
1.17175
1.17153
1.17129
1.17104
1.17088
1.17069
1.17025
1.16985
1.16962
1.16941
1.16916
1.16887
1.16859
1.16827
1.16794
1.16775
1.16764
1.16766
1.16782
1.16812
1.16838
1.16858
1.16873
1.16859
1.16728
1.16224
1.15178
1.14138
1.1324
1.12429
1.11779
1.11273
1.11018
1.11663
1.10959
1.13081
1.12287
1.13893
1.1309
1.14571
1.13816
1.1511
1.14379
1.15539
1.14811
1.15896
1.15164
1.1627
1.15518
1.16609
1.15979
1.16874
1.16475
1.16854
1.17074
1.16855
1.16885
1.17141
1.17101
1.17185
1.17158
1.17172
1.17147
1.17121
1.17099
1.17083
1.1706
1.17014
1.16976
1.16952
1.16933
1.16912
1.16885
1.1686
1.16833
1.16797
1.16775
1.16761
1.16759
1.16772
1.16792
1.16822
1.16853
1.16864
1.16853
1.16727
1.16235
1.15213
1.14365
1.13717
1.12872
1.12018
1.11253
1.10689
1.10617
1.10429
1.10876
1.10502
1.12277
1.1153
1.13012
1.12183
1.13605
1.12799
1.14039
1.13241
1.14369
1.13544
1.14665
1.13788
1.15052
1.14074
1.15649
1.1455
1.16355
1.15329
1.16285
1.16942
1.16276
1.16351
1.17127
1.17013
1.17181
1.1715
1.17166
1.17137
1.17111
1.17095
1.17076
1.17046
1.16999
1.16966
1.16942
1.16924
1.16905
1.16883
1.16859
1.16831
1.16799
1.16775
1.1676
1.16753
1.16758
1.1678
1.16809
1.16837
1.16858
1.16848
1.16724
1.16253
1.15288
1.14624
1.14241
1.13884
1.13098
1.11851
1.10963
1.10426
1.10518
1.10357
1.10353
1.10421
1.10296
1.11413
1.10773
1.11991
1.11237
1.1244
1.11667
1.12725
1.11938
1.12916
1.12086
1.13106
1.12201
1.13438
1.12396
1.14056
1.12824
1.15078
1.13621
1.14942
1.16505
1.14934
1.15105
1.17081
1.16704
1.17176
1.1713
1.17167
1.17129
1.17099
1.17083
1.17064
1.17025
1.16982
1.16954
1.16932
1.16913
1.16896
1.16877
1.16855
1.1683
1.16802
1.16776
1.16758
1.16751
1.16753
1.1677
1.16796
1.16819
1.16844
1.16837
1.16714
1.16257
1.15356
1.14802
1.14592
1.14687
1.14763
1.13929
1.1221
1.11155
1.10417
1.10701
1.10301
1.10381
1.1022
1.10246
1.10635
1.10314
1.10975
1.1045
1.11223
1.10618
1.11332
1.10692
1.1138
1.10682
1.11466
1.10677
1.11723
1.10789
1.12292
1.11147
1.13295
1.11863
1.13119
1.15448
1.13104
1.13306
1.16913
1.15897
1.17169
1.17067
1.17146
1.17096
1.17066
1.17045
1.16998
1.16968
1.16943
1.16921
1.16903
1.16886
1.1687
1.1685
1.16827
1.16802
1.16775
1.16756
1.16748
1.16749
1.16761
1.16784
1.16811
1.16827
1.16819
1.16688
1.16243
1.15397
1.14918
1.1481
1.15187
1.15818
1.1571
1.14702
1.13165
1.11594
1.12614
1.10606
1.1108
1.10372
1.10673
1.1016
1.10349
1.10156
1.10099
1.10184
1.09942
1.10192
1.09851
1.10122
1.09718
1.10039
1.09551
1.1003
1.09427
1.10211
1.09453
1.10691
1.09734
1.11587
1.1035
1.11467
1.13765
1.11512
1.11751
1.1643
1.14489
1.17151
1.16872
1.17132
1.17062
1.17016
1.16975
1.16953
1.16931
1.16911
1.16892
1.16876
1.16861
1.16844
1.16823
1.168
1.16775
1.16754
1.16743
1.16743
1.16753
1.16774
1.16801
1.16813
1.16796
1.16647
1.16197
1.15409
1.14991
1.14942
1.15441
1.16263
1.16465
1.16179
1.15442
1.13552
1.14886
1.12533
1.13534
1.11139
1.11734
1.10759
1.11279
1.10274
1.10775
1.09916
1.10008
1.09679
1.09676
1.09462
1.09353
1.09214
1.09025
1.0901
1.0877
1.08894
1.08622
1.08979
1.08505
1.09363
1.0856
1.10143
1.09063
1.10069
1.12201
1.10134
1.10296
1.11181
1.15442
1.1297
1.17107
1.16384
1.17113
1.17002
1.16953
1.16937
1.16918
1.169
1.16882
1.16866
1.16851
1.16836
1.16817
1.16796
1.16774
1.16753
1.16739
1.16737
1.16745
1.16764
1.1679
1.16807
1.16775
1.16596
1.1613
1.154
1.15035
1.15021
1.1556
1.16406
1.16707
1.16707
1.16513
1.16282
1.1468
1.15711
1.13574
1.14641
1.11897
1.12647
1.11387
1.1207
1.10621
1.11311
1.09778
1.10076
1.09362
1.09456
1.08962
1.08978
1.0866
1.08633
1.08513
1.08493
1.08378
1.08393
1.08202
1.08216
1.08252
1.07967
1.08872
1.0803
1.08437
1.09438
1.08788
1.10505
1.11744
1.10717
1.09572
1.08815
1.08818
1.09674
1.14112
1.11068
1.11442
1.12612
1.16817
1.15408
1.17071
1.16945
1.16918
1.16903
1.16887
1.1687
1.16855
1.1684
1.16826
1.1681
1.16791
1.16771
1.16752
1.16736
1.16731
1.16737
1.16754
1.1678
1.16802
1.16764
1.16545
1.16053
1.15374
1.15064
1.15077
1.15624
1.1645
1.1677
1.16845
1.16817
1.16706
1.16383
1.16567
1.15538
1.16084
1.1466
1.15406
1.12841
1.13725
1.12092
1.12932
1.10825
1.11614
1.09717
1.10181
1.09066
1.09285
1.08652
1.08715
1.085
1.08525
1.08429
1.08481
1.08335
1.08514
1.0803
1.08129
1.08272
1.08473
1.0782
1.07766
1.08107
1.08069
1.07854
1.07952
1.08288
1.07815
1.07678
1.08228
1.09857
1.10113
1.0892
1.08238
1.0821
1.09047
1.11959
1.13779
1.12516
1.10444
1.10861
1.16428
1.13176
1.13936
1.15167
1.17005
1.16901
1.16884
1.1687
1.16856
1.16842
1.16829
1.16815
1.16801
1.16785
1.16767
1.16749
1.16733
1.16726
1.1673
1.16744
1.16769
1.16794
1.16762
1.16515
1.15975
1.15351
1.15087
1.15131
1.15684
1.1647
1.16786
1.16873
1.16889
1.1686
1.16692
1.1628
1.16367
1.15886
1.16159
1.15188
1.1563
1.13769
1.14554
1.12486
1.1336
1.10858
1.1167
1.09659
1.1018
1.0885
1.09084
1.08575
1.08659
1.08522
1.08562
1.08597
1.08573
1.0862
1.08728
1.08716
1.08667
1.08311
1.0854
1.08723
1.07641
1.07756
1.08347
1.08359
1.08018
1.07557
1.07763
1.07458
1.07522
1.07705
1.09239
1.09503
1.08311
1.07678
1.07688
1.08438
1.11368
1.11966
1.09849
1.10284
1.14826
1.16855
1.16049
1.12683
1.13558
1.16897
1.1686
1.16848
1.16837
1.16827
1.16815
1.16804
1.16791
1.16777
1.16761
1.16745
1.16731
1.16721
1.16723
1.16735
1.16758
1.16784
1.16762
1.16511
1.15924
1.15327
1.15112
1.15194
1.1577
1.16498
1.1679
1.16875
1.169
1.16905
1.16861
1.16258
1.16602
1.15806
1.15938
1.15814
1.15804
1.15226
1.15255
1.14155
1.14806
1.12549
1.13391
1.1053
1.11264
1.09429
1.09909
1.0879
1.08969
1.08612
1.08711
1.08527
1.08521
1.08578
1.08448
1.083
1.08158
1.08792
1.08765
1.08651
1.08455
1.08617
1.08805
1.08835
1.07658
1.07961
1.08677
1.08717
1.08351
1.07403
1.0737
1.07286
1.07547
1.07295
1.08633
1.08906
1.07743
1.07244
1.07222
1.07859
1.10816
1.11464
1.09268
1.09729
1.14782
1.17076
1.16318
1.12269
1.13341
1.16833
1.16812
1.16808
1.16805
1.16799
1.16789
1.16779
1.16767
1.16754
1.16741
1.16727
1.16717
1.16716
1.16726
1.16747
1.16774
1.16763
1.16516
1.15914
1.15327
1.15138
1.15277
1.15884
1.16538
1.16794
1.16872
1.16898
1.16913
1.16919
1.16832
1.16056
1.16525
1.14995
1.15384
1.15136
1.14983
1.14423
1.14248
1.14063
1.14414
1.12019
1.12669
1.09934
1.10424
1.09207
1.09522
1.08855
1.09011
1.08568
1.08712
1.08059
1.07989
1.0798
1.08023
1.0821
1.07961
1.07733
1.0755
1.08764
1.08551
1.08241
1.0788
1.08867
1.08879
1.08733
1.07879
1.08315
1.08914
1.08947
1.08734
1.07423
1.07173
1.07288
1.07771
1.07067
1.08048
1.08326
1.07245
1.06977
1.06908
1.07331
1.10302
1.11016
1.08706
1.09199
1.14848
1.17114
1.16529
1.11946
1.13229
1.16756
1.16747
1.16765
1.16773
1.16771
1.16764
1.16756
1.16745
1.16734
1.16722
1.16713
1.1671
1.16718
1.16736
1.16763
1.16765
1.16533
1.15921
1.15335
1.15171
1.15369
1.16019
1.16588
1.16801
1.16866
1.1689
1.16908
1.16925
1.16922
1.16765
1.169
1.15999
1.16517
1.14219
1.15165
1.13955
1.13864
1.13031
1.12756
1.13058
1.13112
1.10916
1.11312
1.09731
1.1005
1.09206
1.09445
1.08943
1.09222
1.07994
1.08376
1.07431
1.0738
1.074
1.07487
1.07519
1.07199
1.06947
1.06781
1.08409
1.07981
1.07504
1.07043
1.089
1.08682
1.08259
1.08247
1.08717
1.08922
1.08932
1.08958
1.07634
1.0715
1.07477
1.08139
1.0701
1.07501
1.07775
1.06875
1.06877
1.06753
1.06896
1.09825
1.10626
1.08169
1.08699
1.15002
1.1716
1.16783
1.11695
1.13194
1.1663
1.16657
1.16715
1.16742
1.16746
1.16742
1.16735
1.16726
1.16716
1.16708
1.16706
1.1671
1.16725
1.16751
1.16766
1.16575
1.15946
1.1535
1.15205
1.15465
1.16147
1.16631
1.16806
1.1686
1.16879
1.16896
1.16921
1.16936
1.16948
1.16834
1.16926
1.16046
1.16582
1.14002
1.15146
1.12736
1.1307
1.11689
1.11832
1.11538
1.11622
1.10372
1.1066
1.10019
1.10307
1.0948
1.09741
1.08853
1.09342
1.07166
1.07454
1.08048
1.07697
1.06711
1.06716
1.06806
1.0696
1.06647
1.06349
1.06166
1.06101
1.07711
1.0713
1.06588
1.06141
1.08632
1.08116
1.0747
1.08657
1.08943
1.086
1.0859
1.08935
1.07988
1.07303
1.07805
1.08549
1.07117
1.07015
1.07265
1.06664
1.06924
1.06727
1.06609
1.09385
1.10282
1.07666
1.08228
1.15298
1.17187
1.16971
1.11495
1.13247
1.16451
1.16547
1.16668
1.16716
1.16724
1.16722
1.16715
1.16708
1.16703
1.167
1.16701
1.16715
1.16739
1.16761
1.16634
1.16007
1.15373
1.15228
1.15542
1.16247
1.16661
1.16805
1.16852
1.16873
1.16886
1.16907
1.16931
1.16947
1.16957
1.16958
1.16905
1.16951
1.16292
1.1674
1.1416
1.15409
1.1218
1.12947
1.1133
1.11677
1.10897
1.11101
1.10596
1.10877
1.10839
1.11289
1.09868
1.10367
1.08365
1.08779
1.09348
1.07044
1.07317
1.07924
1.07601
1.06155
1.06327
1.0655
1.06788
1.05825
1.05655
1.05636
1.05782
1.06798
1.06194
1.05718
1.05402
1.08012
1.07279
1.06531
1.08893
1.08915
1.07956
1.07953
1.08614
1.08393
1.07595
1.08187
1.08809
1.07361
1.06637
1.06817
1.06557
1.07105
1.06828
1.06435
1.08978
1.09966
1.07202
1.07789
1.15736
1.17198
1.17073
1.11324
1.13408
1.16273
1.16456
1.16636
1.16693
1.16703
1.16702
1.167
1.16697
1.16695
1.16697
1.16705
1.16727
1.16752
1.16684
1.16119
1.15412
1.15239
1.15576
1.16299
1.16665
1.16798
1.16843
1.16865
1.1688
1.16893
1.16914
1.16935
1.16953
1.16964
1.16962
1.16952
1.16964
1.16669
1.16893
1.14867
1.16039
1.12319
1.13461
1.1185
1.12472
1.11154
1.11456
1.11721
1.1213
1.1182
1.12585
1.10183
1.11008
1.08277
1.08678
1.09186
1.09685
1.07203
1.07468
1.08029
1.07734
1.06028
1.06304
1.06608
1.06919
1.05267
1.05293
1.05493
1.05787
1.05878
1.05383
1.05073
1.04965
1.07155
1.0634
1.0564
1.08875
1.08628
1.07102
1.07119
1.08005
1.08683
1.07944
1.08496
1.08812
1.07664
1.06382
1.06462
1.06547
1.07345
1.06982
1.06325
1.08593
1.09658
1.06784
1.07382
1.16075
1.17202
1.17114
1.11157
1.13511
1.16132
1.16407
1.16617
1.16678
1.1669
1.16691
1.16689
1.16688
1.16691
1.16696
1.16715
1.16741
1.16714
1.16261
1.15486
1.15244
1.15576
1.16293
1.16651
1.16779
1.16825
1.1685
1.16868
1.16885
1.16899
1.16917
1.16937
1.16958
1.16953
1.16968
1.16963
1.16969
1.1697
1.16893
1.16955
1.16038
1.16669
1.13467
1.14826
1.13564
1.14405
1.12531
1.12972
1.13312
1.1396
1.12555
1.13485
1.10158
1.10706
1.11555
1.08365
1.0875
1.09447
1.0991
1.07746
1.07975
1.0841
1.08181
1.06166
1.06625
1.0707
1.0745
1.05008
1.05232
1.05576
1.0607
1.05127
1.04817
1.04721
1.04761
1.06225
1.05477
1.04938
1.08644
1.08086
1.06185
1.06219
1.07206
1.08704
1.08247
1.08566
1.08647
1.07937
1.06213
1.06213
1.06603
1.07564
1.07134
1.06269
1.08213
1.0931
1.06432
1.06992
1.16198
1.17204
1.17113
1.10936
1.13417
1.16043
1.16409
1.16614
1.16667
1.16678
1.1668
1.16681
1.16683
1.16689
1.16704
1.16729
1.16727
1.16411
1.15601
1.15246
1.15553
1.16252
1.166
1.16737
1.16795
1.16828
1.16852
1.16872
1.16889
1.16903
1.16921
1.16943
1.1696
1.16956
1.1697
1.16966
1.16975
1.16974
1.16963
1.16974
1.16746
1.16913
1.15457
1.16304
1.15677
1.16201
1.14549
1.15116
1.14324
1.15055
1.12729
1.13253
1.14006
1.10391
1.1089
1.12285
1.11778
1.0869
1.09034
1.09927
1.10353
1.08579
1.08752
1.09039
1.08884
1.06659
1.0728
1.07847
1.08289
1.04975
1.05322
1.0584
1.06494
1.0462
1.04523
1.04551
1.04733
1.0538
1.04805
1.04469
1.08184
1.07338
1.0535
1.05381
1.06325
1.08586
1.08365
1.0847
1.08261
1.08088
1.06089
1.06035
1.06674
1.07698
1.07221
1.06257
1.0781
1.08941
1.06165
1.06624
1.16068
1.17201
1.17045
1.10591
1.12954
1.16009
1.16434
1.16616
1.16658
1.16668
1.16672
1.16676
1.16683
1.16693
1.16716
1.16729
1.16542
1.1577
1.15258
1.15487
1.1615
1.16479
1.16652
1.16744
1.16796
1.16831
1.16855
1.16875
1.16893
1.16908
1.16925
1.16953
1.16945
1.16964
1.16959
1.16973
1.16968
1.1698
1.16977
1.1698
1.1698
1.16938
1.1697
1.16612
1.16844
1.16527
1.16754
1.15672
1.16163
1.14777
1.15454
1.13129
1.13525
1.14325
1.1465
1.10808
1.11288
1.12724
1.12305
1.09258
1.09555
1.10685
1.11058
1.09584
1.0972
1.09917
1.09807
1.07256
1.08049
1.08761
1.09287
1.05039
1.0549
1.06093
1.06859
1.04365
1.04379
1.04522
1.04773
1.04722
1.04359
1.04244
1.07508
1.06491
1.04688
1.04699
1.05483
1.08294
1.08289
1.08255
1.07673
1.08046
1.06002
1.05908
1.0672
1.07688
1.07217
1.06263
1.07423
1.08554
1.05967
1.06306
1.1543
1.17091
1.16578
1.10089
1.11913
1.1603
1.16474
1.16619
1.16652
1.16662
1.16667
1.16675
1.16683
1.16704
1.16726
1.16633
1.15993
1.15301
1.15371
1.16007
1.16318
1.16493
1.16645
1.16744
1.16801
1.16834
1.16856
1.16877
1.16896
1.16914
1.16931
1.16957
1.16949
1.16968
1.16962
1.16976
1.16972
1.16984
1.1698
1.16986
1.16986
1.16974
1.16984
1.16883
1.16947
1.16704
1.16851
1.16004
1.16429
1.14898
1.1523
1.15649
1.13707
1.14025
1.14769
1.14971
1.11457
1.11879
1.13386
1.13059
1.10097
1.10356
1.11743
1.12051
1.1067
1.10831
1.11039
1.10928
1.07766
1.0874
1.09641
1.10321
1.05139
1.05667
1.06358
1.07224
1.04244
1.04357
1.04558
1.04866
1.04284
1.04159
1.04156
1.06716
1.05664
1.0424
1.04239
1.04796
1.07805
1.08122
1.07886
1.06969
1.07879
1.05941
1.05814
1.06722
1.07521
1.07073
1.06257
1.07063
1.08162
1.05818
1.06056
1.13838
1.14866
1.14245
1.09485
1.10662
1.1609
1.16514
1.16623
1.16648
1.16657
1.16667
1.16677
1.16691
1.16716
1.16683
1.16234
1.15409
1.15284
1.15836
1.16156
1.16304
1.16435
1.16639
1.1675
1.16808
1.16836
1.16858
1.16879
1.169
1.16918
1.16939
1.16959
1.16954
1.1697
1.16965
1.1698
1.16975
1.16988
1.16984
1.16993
1.16992
1.16987
1.16993
1.16931
1.1697
1.16746
1.16884
1.16106
1.16492
1.15182
1.1539
1.15845
1.15608
1.1438
1.14575
1.1484
1.14994
1.1238
1.12723
1.14175
1.13965
1.11211
1.11451
1.13004
1.13246
1.11734
1.11983
1.12309
1.12147
1.08244
1.0935
1.10394
1.11224
1.05306
1.05877
1.06602
1.07514
1.04219
1.04416
1.04664
1.05007
1.04096
1.04083
1.04132
1.05959
1.05029
1.0406
1.04079
1.04362
1.07247
1.07829
1.0742
1.06362
1.07569
1.05888
1.05745
1.06606
1.07176
1.06723
1.06198
1.06749
1.07795
1.05693
1.05875
1.11126
1.12818
1.10595
1.08863
1.09565
1.16182
1.16548
1.16626
1.16645
1.16657
1.16669
1.16679
1.16703
1.16701
1.16434
1.15601
1.1526
1.15628
1.16002
1.16104
1.16167
1.16413
1.16648
1.16767
1.16812
1.16839
1.16861
1.16883
1.16904
1.16922
1.16953
1.16957
1.1694
1.16961
1.16973
1.16968
1.16984
1.16979
1.16993
1.16989
1.17001
1.16998
1.16998
1.17001
1.16954
1.16986
1.16721
1.16884
1.16044
1.16431
1.15186
1.15392
1.1547
1.15168
1.14643
1.14723
1.14354
1.14465
1.13501
1.13746
1.14562
1.14517
1.12511
1.12752
1.14134
1.14291
1.12705
1.13038
1.13484
1.13272
1.08617
1.09861
1.1109
1.12072
1.05447
1.06011
1.06732
1.07649
1.0429
1.04523
1.04791
1.05143
1.04031
1.04067
1.04212
1.05411
1.04596
1.04017
1.04066
1.04187
1.06694
1.07347
1.06794
1.0578
1.0706
1.05849
1.05658
1.06342
1.06701
1.06387
1.06018
1.06489
1.0742
1.05609
1.05736
1.09619
1.15775
1.10887
1.08271
1.08779
1.16279
1.16572
1.16628
1.16646
1.16659
1.16671
1.1669
1.16703
1.16573
1.15876
1.15277
1.15433
1.1585
1.15924
1.15905
1.16077
1.16413
1.16678
1.16779
1.16818
1.16842
1.16864
1.16886
1.16908
1.16927
1.16958
1.16955
1.16945
1.16964
1.16976
1.16971
1.16988
1.16982
1.16998
1.16994
1.17006
1.17003
1.17004
1.17007
1.16962
1.16993
1.16376
1.16765
1.15
1.15452
1.15721
1.14637
1.14887
1.14535
1.14094
1.14337
1.14304
1.13113
1.13171
1.144
1.14474
1.14406
1.14483
1.13715
1.13939
1.14637
1.1463
1.13531
1.13957
1.14391
1.14205
1.08781
1.10096
1.11473
1.12681
1.05566
1.06114
1.06814
1.0771
1.04419
1.04664
1.04933
1.05273
1.04038
1.04109
1.04336
1.04875
1.044
1.04055
1.0421
1.04245
1.05993
1.06677
1.06072
1.05152
1.06472
1.05769
1.0561
1.0617
1.06327
1.06216
1.05959
1.06215
1.07035
1.05543
1.05599
1.09121
1.16743
1.12826
1.07767
1.08273
1.16368
1.1659
1.16631
1.16648
1.16664
1.16677
1.167
1.16649
1.16177
1.15357
1.15302
1.1567
1.15777
1.15678
1.1573
1.16045
1.16462
1.16712
1.16792
1.16822
1.16845
1.16868
1.1689
1.16912
1.16933
1.16961
1.16957
1.1695
1.16968
1.1698
1.16974
1.16992
1.16987
1.17002
1.16997
1.17009
1.17006
1.17008
1.1701
1.16935
1.16992
1.15319
1.16344
1.13732
1.14399
1.1467
1.13829
1.13379
1.137
1.13104
1.1253
1.13292
1.13157
1.11496
1.11487
1.14611
1.1457
1.1353
1.13767
1.14525
1.14611
1.14596
1.14461
1.13889
1.14382
1.14713
1.14622
1.08828
1.10146
1.11574
1.12891
1.05667
1.06153
1.06776
1.07568
1.04579
1.04824
1.05066
1.05355
1.04097
1.04261
1.0454
1.04717
1.04548
1.04323
1.0479
1.04559
1.05462
1.06093
1.05698
1.05107
1.0615
1.05755
1.05582
1.06083
1.06207
1.06179
1.05895
1.05963
1.06683
1.05467
1.05491
1.09426
1.1698
1.13686
1.0738
1.08149
1.1644
1.16602
1.16634
1.16652
1.16666
1.16689
1.1668
1.16415
1.1557
1.1526
1.15467
1.15654
1.15504
1.15432
1.15628
1.16048
1.16546
1.16748
1.168
1.16826
1.16849
1.16872
1.16894
1.16915
1.16947
1.16953
1.16931
1.16964
1.1696
1.16971
1.16985
1.16978
1.16995
1.1699
1.17004
1.17
1.17013
1.17008
1.17008
1.17015
1.16812
1.16969
1.13589
1.13559
1.14619
1.15566
1.12274
1.13051
1.12693
1.11671
1.12042
1.1154
1.10886
1.11819
1.11594
1.09861
1.09841
1.14248
1.14038
1.12117
1.12448
1.14723
1.14695
1.13855
1.13512
1.13848
1.14349
1.14519
1.14519
1.08586
1.0985
1.11291
1.12707
1.0567
1.06039
1.06466
1.0703
1.0483
1.05036
1.05273
1.05474
1.04466
1.04938
1.05411
1.04982
1.04995
1.05045
1.0501
1.05059
1.05389
1.05938
1.05738
1.05203
1.06131
1.05701
1.05522
1.06038
1.06239
1.06237
1.05929
1.05774
1.06413
1.0541
1.05458
1.09852
1.17171
1.15581
1.07162
1.08209
1.16496
1.16612
1.16639
1.16659
1.16676
1.16684
1.16564
1.15905
1.15287
1.15306
1.1552
1.15396
1.15201
1.15243
1.15595
1.16145
1.16631
1.16769
1.16806
1.1683
1.16853
1.16876
1.16898
1.16918
1.16955
1.1695
1.16937
1.16967
1.16963
1.16975
1.16988
1.16982
1.16998
1.16993
1.17009
1.17003
1.17018
1.17014
1.17002
1.17018
1.16548
1.16912
1.12665
1.12971
1.13912
1.1476
1.10955
1.11802
1.11728
1.09979
1.10352
1.10173
1.09484
1.10163
1.09964
1.08354
1.08396
1.13165
1.12807
1.10434
1.10756
1.14372
1.14132
1.1243
1.11988
1.12928
1.13549
1.13595
1.13656
1.07835
1.0891
1.10226
1.11659
1.05717
1.05947
1.06224
1.06489
1.05611
1.05683
1.05902
1.05961
1.05196
1.05228
1.07939
1.052
1.07589
1.07678
1.07362
1.07528
1.05704
1.06051
1.06055
1.05663
1.06289
1.0572
1.05537
1.06103
1.06439
1.06458
1.06022
1.05652
1.06224
1.05451
1.05431
1.10772
1.17198
1.16492
1.07067
1.08405
1.16536
1.1662
1.16647
1.16662
1.16682
1.16639
1.16231
1.15402
1.15229
1.15363
1.15335
1.15052
1.14941
1.15144
1.1562
1.16317
1.16701
1.16782
1.16811
1.16835
1.16858
1.1688
1.16902
1.16921
1.16956
1.16951
1.16941
1.16971
1.16965
1.16978
1.1699
1.16984
1.17002
1.16996
1.17014
1.17008
1.17024
1.1702
1.16991
1.17022
1.16198
1.16825
1.12003
1.1258
1.13506
1.13338
1.14074
1.15074
1.09961
1.10821
1.11077
1.08573
1.08931
1.09157
1.08433
1.08488
1.0838
1.06968
1.07155
1.11537
1.11139
1.08678
1.08931
1.13288
1.12857
1.10549
1.10073
1.1063
1.11607
1.11827
1.11847
1.06824
1.07389
1.08321
1.09492
1.06047
1.06133
1.06232
1.06333
1.07963
1.07831
1.0791
1.0786
1.07734
1.07563
1.10128
1.07568
1.10031
1.10092
1.09937
1.10045
1.07774
1.064
1.07924
1.07576
1.06635
1.0586
1.05709
1.06384
1.06753
1.06743
1.06249
1.0558
1.06078
1.05474
1.05423
1.1161
0.913329
1.15553
1.0704
1.08566
1.16566
1.16629
1.16655
1.16673
1.16667
1.16459
1.1569
1.15236
1.15229
1.15261
1.14994
1.14732
1.14755
1.15119
1.15769
1.16499
1.16742
1.1679
1.16816
1.16839
1.16862
1.16885
1.16905
1.16925
1.16943
1.16959
1.16953
1.16973
1.16967
1.1698
1.16993
1.16986
1.17007
1.17
1.17019
1.17013
1.17029
1.17025
1.16986
1.17025
1.16041
1.1678
1.11704
1.12497
1.13362
1.1434
1.15048
1.09333
1.10191
1.10857
1.07443
1.07847
1.08505
1.07715
1.06896
1.06891
1.05745
1.06072
1.09632
1.09252
1.06965
1.07126
1.11521
1.11034
1.08443
1.08024
1.07368
1.0829
1.09233
1.09008
1.06438
1.0656
1.06656
1.06989
1.07863
1.07761
1.07723
1.0756
1.10144
1.09953
1.10035
1.09929
1.10158
1.09926
1.12892
1.09997
1.12914
1.12917
1.12827
1.12908
1.10117
1.08141
1.10189
1.10025
1.08317
1.06059
1.05686
1.06652
1.08441
1.086
1.06418
1.0552
1.0598
1.0553
1.05407
1.10669
0.507184
1.09387
1.07056
1.08437
1.16588
1.1664
1.16658
1.1667
1.16584
1.16053
1.15317
1.15169
1.15166
1.14989
1.14636
1.14475
1.14674
1.15188
1.16015
1.16643
1.16763
1.16797
1.16821
1.16844
1.16867
1.16889
1.16908
1.16932
1.16946
1.16948
1.16961
1.16955
1.16974
1.16969
1.16982
1.16997
1.1699
1.1701
1.17004
1.17023
1.17016
1.17031
1.17028
1.16988
1.17027
1.15758
1.16409
1.16798
1.11682
1.12605
1.13601
1.14575
1.15209
1.09104
1.10001
1.10879
1.06504
1.07051
1.08165
1.07255
1.05419
1.05533
1.04678
1.05132
1.07668
1.07346
1.05413
1.05455
1.09169
1.08832
1.06256
1.05955
1.05929
1.05769
1.06162
1.05895
1.07424
1.06461
1.06275
1.06216
1.09913
1.09722
1.0967