/*--------------------------------*- C++ -*----------------------------------*\
  =========                 |
  \\      /  F ield         | OpenFOAM: The Open Source CFD Toolbox
   \\    /   O peration     | Website:  https://openfoam.org
    \\  /    A nd           | Version:  dev
     \\/     M anipulation  |
\*---------------------------------------------------------------------------*/
FoamFile
{
    version     2.0;
    format      ascii;
    class       volScalarField;
    location    "2500";
    object      T;
}
// * * * * * * * * * * * * * * * * * * * * * * * * * * * * * * * * * * * * * //

dimensions      [0 0 0 1 0 0 0];

internalField   nonuniform List<scalar> 
9842
(
300.102
300.145
300.126
300.152
300.22
300.116
300.143
300.273
300.22
300.101
300.129
300.3
300.314
300.211
300.081
300.122
300.308
300.364
300.306
300.192
300.079
300.126
300.298
300.393
300.377
300.272
300.169
300.071
300.121
300.255
300.404
300.435
300.368
300.255
300.147
300.067
300.114
300.235
300.406
300.468
300.438
300.34
300.232
300.138
300.065
300.102
300.222
300.393
300.479
300.491
300.414
300.306
300.206
300.133
300.061
300.107
300.232
300.379
300.482
300.534
300.485
300.376
300.282
300.197
300.126
300.06
300.104
300.211
300.352
300.482
300.557
300.541
300.458
300.353
300.262
300.186
300.121
300.057
300.098
300.204
300.329
300.468
300.562
300.583
300.533
300.428
300.328
300.24
300.178
300.118
300.057
300.095
300.194
300.3
300.446
300.555
300.61
300.58
300.502
300.397
300.305
300.234
300.173
300.111
300.054
300.093
300.193
300.289
300.421
300.53
300.625
300.63
300.563
300.472
300.366
300.288
300.225
300.166
300.113
300.052
300.085
300.177
300.28
300.391
300.517
300.634
300.658
300.623
300.536
300.429
300.343
300.276
300.219
300.163
300.112
300.054
300.083
300.173
300.273
300.358
300.506
300.624
300.679
300.666
300.597
300.496
300.404
300.323
300.262
300.212
300.16
300.109
300.052
300.084
300.167
300.26
300.356
300.496
300.613
300.689
300.702
300.653
300.559
300.452
300.381
300.316
300.257
300.209
300.159
300.11
300.053
300.082
300.158
300.246
300.34
300.463
300.599
300.69
300.726
300.699
300.627
300.526
300.432
300.365
300.306
300.254
300.205
300.158
300.108
300.054
300.079
300.152
300.234
300.316
300.436
300.556
300.687
300.74
300.737
300.678
300.586
300.493
300.414
300.352
300.298
300.249
300.202
300.158
300.108
300.054
300.073
300.151
300.23
300.312
300.412
300.539
300.68
300.747
300.766
300.732
300.65
300.555
300.467
300.392
300.343
300.292
300.248
300.202
300.157
300.108
300.054
300.071
300.149
300.214
300.295
300.385
300.522
300.649
300.747
300.783
300.77
300.707
300.615
300.517
300.443
300.384
300.336
300.288
300.245
300.202
300.157
300.107
300.052
300.071
300.142
300.209
300.294
300.383
300.49
300.635
300.741
300.796
300.8
300.753
300.673
300.574
300.5
300.428
300.376
300.33
300.287
300.245
300.203
300.157
300.109
300.054
300.065
300.132
300.203
300.286
300.365
300.471
300.613
300.716
300.802
300.823
300.796
300.725
300.64
300.548
300.476
300.421
300.369
300.327
300.284
300.244
300.204
300.16
300.108
300.056
300.066
300.134
300.196
300.272
300.357
300.455
300.58
300.699
300.803
300.839
300.831
300.777
300.686
300.601
300.526
300.462
300.413
300.366
300.324
300.284
300.245
300.205
300.16
300.11
300.056
300.062
300.129
300.188
300.259
300.345
300.441
300.555
300.681
300.79
300.848
300.856
300.817
300.742
300.654
300.573
300.507
300.454
300.405
300.362
300.323
300.285
300.247
300.207
300.163
300.113
300.056
300.062
300.124
300.181
300.248
300.325
300.428
300.534
300.659
300.772
300.853
300.874
300.852
300.791
300.707
300.624
300.551
300.495
300.445
300.4
300.361
300.323
300.285
300.249
300.208
300.163
300.113
300.056
300.06
300.117
300.178
300.245
300.317
300.413
300.501
300.637
300.754
300.847
300.888
300.879
300.831
300.758
300.674
300.598
300.535
300.486
300.44
300.398
300.361
300.324
300.288
300.251
300.212
300.166
300.116
300.058
300.055
300.112
300.175
300.24
300.308
300.399
300.494
300.619
300.732
300.832
300.895
300.905
300.871
300.802
300.719
300.645
300.578
300.525
300.477
300.434
300.399
300.363
300.329
300.294
300.256
300.217
300.17
300.118
300.058
300.053
300.113
300.17
300.229
300.304
300.383
300.481
300.596
300.71
300.815
300.897
300.922
300.901
300.846
300.767
300.685
300.621
300.56
300.516
300.472
300.434
300.4
300.365
300.332
300.297
300.26
300.219
300.173
300.12
300.057
300.053
300.11
300.164
300.219
300.289
300.376
300.465
300.568
300.692
300.793
300.892
300.933
300.931
300.884
300.811
300.736
300.661
300.603
300.552
300.507
300.47
300.435
300.402
300.369
300.336
300.302
300.265
300.223
300.176
300.122
300.059
300.053
300.108
300.153
300.213
300.289
300.363
300.442
300.532
300.657
300.778
300.881
300.938
300.95
300.92
300.859
300.777
300.695
300.637
300.587
300.543
300.504
300.47
300.437
300.406
300.375
300.342
300.308
300.27
300.228
300.18
300.123
300.06
300.051
300.104
300.156
300.207
300.277
300.345
300.438
300.531
300.648
300.768
300.864
300.938
300.964
300.948
300.897
300.823
300.747
300.673
300.623
300.578
300.537
300.503
300.471
300.441
300.411
300.381
300.349
300.315
300.277
300.234
300.184
300.126
300.059
300.05
300.1
300.149
300.208
300.274
300.347
300.429
300.523
300.608
300.753
300.847
300.931
300.973
300.967
300.931
300.867
300.792
300.71
300.657
300.609
300.57
300.535
300.504
300.474
300.446
300.418
300.389
300.357
300.323
300.285
300.24
300.188
300.128
300.029
300.064
300.049
300.098
300.148
300.206
300.262
300.336
300.42
300.516
300.601
300.74
300.835
300.923
300.979
300.989
300.955
300.893
300.819
300.753
300.685
300.642
300.6
300.566
300.536
300.507
300.481
300.454
300.427
300.398
300.366
300.332
300.292
300.246
300.181
300.101
300.136
300.027
300.064
300.047
300.096
300.141
300.205
300.263
300.335
300.419
300.492
300.585
300.709
300.822
300.913
300.978
301.005
300.982
300.932
300.864
300.791
300.725
300.67
300.632
300.596
300.566
300.539
300.514
300.489
300.465
300.438
300.409
300.377
300.341
300.299
300.23
300.258
300.17
300.214
300.202
300.101
300.136
300.027
300.065
300.043
300.094
300.146
300.207
300.266
300.335
300.411
300.492
300.587
300.694
300.799
300.901
300.974
301.012
301.012
300.975
300.901
300.834
300.759
300.705
300.659
300.623
300.595
300.569
300.546
300.524
300.501
300.477
300.45
300.42
300.387
300.349
300.288
300.314
300.248
300.171
300.233
300.205
300.102
300.138
300.028
300.067
300.041
300.092
300.142
300.202
300.264
300.333
300.405
300.481
300.574
300.672
300.779
300.883
300.966
301.016
301.028
301
300.95
300.863
300.801
300.738
300.69
300.651
300.621
300.598
300.577
300.558
300.539
300.517
300.492
300.464
300.432
300.396
300.341
300.365
300.28
300.311
300.263
300.174
300.238
300.209
300.105
300.142
300.029
300.069
300.045
300.09
300.147
300.19
300.243
300.333
300.401
300.479
300.566
300.658
300.762
300.865
300.957
301.016
301.041
301.024
300.972
300.905
300.829
300.773
300.722
300.68
300.65
300.627
300.611
300.599
300.585
300.566
300.543
300.513
300.48
300.444
300.39
300.413
300.339
300.366
300.293
300.321
300.27
300.178
300.243
300.214
300.108
300.146
300.031
300.072
300.044
300.086
300.147
300.203
300.266
300.333
300.403
300.48
300.56
300.65
300.742
300.843
300.94
301.015
301.048
301.045
301.009
300.947
300.875
300.798
300.753
300.71
300.679
300.66
300.659
300.674
300.686
300.68
300.654
300.611
300.559
300.503
300.439
300.464
300.392
300.418
300.349
300.375
300.301
300.331
300.276
300.183
300.249
300.22
300.112
300.151
300.033
300.076
300.043
300.096
300.141
300.205
300.264
300.32
300.417
300.484
300.561
300.649
300.73
300.824
300.929
301.01
301.053
301.06
301.031
300.973
300.899
300.837
300.779
300.739
300.708
300.703
300.745
300.859
301.012
301.111
301.085
300.976
300.827
300.673
300.497
300.545
300.444
300.474
300.402
300.428
300.359
300.386
300.308
300.339
300.284
300.189
300.257
300.227
300.117
300.157
300.036
300.08
300.043
300.098
300.144
300.202
300.253
300.328
300.426
300.488
300.557
300.647
300.725
300.818
300.915
301.005
301.056
301.071
301.054
301.011
300.932
300.876
300.808
300.761
300.737
300.745
300.864
301.212
301.791
302.322
302.472
302.194
301.798
301.375
300.654
300.928
300.514
300.589
300.458
300.496
300.414
300.443
300.369
300.398
300.317
300.349
300.292
300.197
300.266
300.237
300.123
300.164
300.038
300.085
300.047
300.098
300.14
300.202
300.268
300.334
300.428
300.499
300.567
300.651
300.723
300.808
300.903
301.001
301.058
301.083
301.074
301.036
300.975
300.892
300.842
300.795
300.761
300.786
300.995
301.623
302.789
304.116
304.913
304.907
304.141
303.401
301.606
302.888
300.777
301.287
300.562
300.716
300.481
300.545
300.429
300.469
300.381
300.415
300.327
300.362
300.303
300.206
300.277
300.248
300.13
300.173
300.042
300.091
300.046
300.095
300.141
300.205
300.266
300.324
300.44
300.509
300.574
300.649
300.724
300.805
300.893
300.991
301.056
301.09
301.088
301.054
301.005
300.931
300.861
300.812
300.787
300.818
301.105
302.036
303.718
305.765
307.43
308.082
307.58
306.342
304.134
305.838
302.391
303.77
301.126
302.091
300.688
301.06
300.537
300.688
300.459
300.54
300.4
300.455
300.342
300.386
300.319
300.217
300.293
300.264
300.138
300.184
300.046
300.099
300.049
300.1
300.148
300.214
300.264
300.313
300.44
300.522
300.58
300.649
300.724
300.8
300.888
300.978
301.054
301.095
301.104
301.077
301.024
300.962
300.896
300.843
300.811
300.846
301.175
302.322
304.535
307.037
309.342
310.905
311.264
310.287
307.388
309.201
305.304
307.061
303.432
304.985
301.945
303.277
301.071
301.96
300.724
301.173
300.562
300.81
300.455
300.606
300.369
300.459
300.35
300.233
300.326
300.296
300.148
300.198
300.051
300.108
300.052
300.107
300.159
300.228
300.272
300.319
300.432
300.528
300.594
300.659
300.73
300.804
300.879
300.965
301.051
301.097
301.117
301.102
301.047
300.987
300.921
300.864
300.833
300.859
301.209
302.474
305.016
308.016
310.47
312.46
313.756
313.943
313.185
308.839
311.202
306.718
308.657
304.844
306.609
303.332
304.953
302.169
303.642
301.397
302.618
300.972
301.78
300.675
301.211
300.465
300.763
300.461
300.26
300.443
300.404
300.16
300.219
300.057
300.119
300.058
300.116
300.177
300.242
300.284
300.335
300.447
300.551
300.611
300.666
300.731
300.807
300.878
300.961
301.047
301.098
301.126
301.12
301.081
301.006
300.938
300.886
300.85
300.884
301.215
302.497
305.188
307.912
310.303
312.494
314.273
315.671
316.376
314.587
316.541
310.729
312.879
308.559
310.704
306.773
308.763
305.367
307.276
304.256
306.144
303.339
305.225
302.381
304.31
301.521
303.126
300.85
301.862
300.9
300.346
300.898
300.823
300.177
300.278
300.065
300.133
300.067
300.131
300.197
300.254
300.296
300.357
300.476
300.573
300.635
300.684
300.741
300.809
300.875
300.946
301.038
301.097
301.133
301.138
301.106
301.056
300.979
300.899
300.871
300.899
301.219
302.466
305.096
307.312
309.03
311.294
313.616
315.726
317.298
317.499
318.026
316.771
317.82
312.904
314.955
310.914
313.16
309.324
311.488
308.174
310.298
307.302
309.489
306.526
308.839
305.517
308.08
303.974
306.828
302.166
304.799
302.343
300.68
302.366
302.176
300.212
300.5
300.075
300.154
300.08
300.156
300.222
300.265
300.313
300.392
300.514
300.6
300.661
300.709
300.758
300.816
300.878
300.95
301.034
301.095
301.136
301.154
301.14
301.085
301.01
300.941
300.887
300.911
301.226
302.42
304.9
306.633
307.641
308.585
310.684
314.074
316.532
318.036
317.778
318.229
318.241
318.047
318.4
315.279
317.059
313.687
315.766
312.459
314.576
311.689
313.829
311.172
313.424
310.66
313.112
309.772
312.579
308.127
311.421
305.449
309.284
305.803
301.785
305.823
305.379
300.329
301.28
300.087
300.204
300.078
300.175
300.254
300.293
300.343
300.446
300.555
300.628
300.687
300.735
300.779
300.829
300.887
300.952
301.024
301.093
301.14
301.159
301.153
301.11
301.043
300.986
300.921
300.938
301.25
302.41
304.724
306.165
306.716
306.468
306.27
308.467
313.092
315.999
318.06
317.263
318.387
318.162
318.615
318.541
317.446
318.35
316.493
317.966
315.804
317.491
315.501
317.284
315.366
317.311
315.129
317.325
314.42
317.012
312.864
316.013
310.154
314.036
310.627
304.491
310.666
310.124
300.752
303.334
300.107
300.362
300.131
300.26
300.337
300.393
300.512
300.592
300.657
300.713
300.761
300.804
300.848
300.898
300.959
301.025
301.094
301.145
301.166
301.163
301.133
301.075
301.005
300.965
300.985
301.316
302.445
304.618
305.862
306.145
305.165
303.537
303.816
306.43
310.506
314.784
311.993
317.53
316.206
318.187
317.343
318.786
318.251
318.794
318.956
318.714
319.4
318.691
319.659
318.888
320.034
319.121
320.508
319.147
320.864
318.633
320.786
317.284
319.985
314.797
318.242
315.127
308.9
315.002
314.344
301.975
306.989
300.15
300.855
300.166
300.347
300.467
300.571
300.629
300.686
300.739
300.787
300.83
300.87
300.915
300.969
301.03
301.093
301.148
301.177
301.178
301.152
301.101
301.03
301
301.043
301.419
302.563
304.586
305.672
305.801
304.506
302.397
301.885
302.612
304.506
309.469
305.951
312.213
309.517
316.043
314.397
317.102
315.653
318.462
317.055
319.475
319.215
320.149
320.158
320.765
321.078
321.474
322.017
322.059
322.751
322.391
323.179
322.146
323.518
321.044
323.357
318.827
321.904
319.034
313.113
318.85
318.394
315.919
304.506
311.027
300.261
302.091
300.215
300.502
300.628
300.67
300.718
300.767
300.814
300.856
300.895
300.935
300.983
301.038
301.096
301.151
301.187
301.193
301.173
301.124
301.059
301.015
301.096
301.548
302.733
304.608
305.557
305.593
304.199
302.032
301.27
301.269
301.761
302.35
306.489
303.813
309.412
306.592
313.948
311.904
315.355
313.474
317.487
315.565
319.868
319.022
321.052
320.785
322.2
322.153
323.07
323.149
323.495
323.553
323.885
323.843
324.399
324.356
324.252
325.083
322.456
324.899
323.714
320.828
322.695
317.804
314.363
317.212
320.444
322.619
322.608
320.155
307.981
316.233
315.196
311.992
300.994
304.593
300.323
300.649
300.717
300.756
300.8
300.843
300.884
300.922
300.958
301.001
301.05
301.102
301.153
301.194
301.207
301.192
301.149
301.084
301.027
301.122
301.677
302.928
304.675
305.48
305.447
304.032
301.92
301.109
300.92
300.99
301.272
302.092
301.626
304.259
302.856
306.542
304.599
311.379
309.01
313.414
311.135
316.916
314.725
320.04
318.725
321.9
321.273
323.095
322.913
323.533
323.46
323.738
323.585
324.01
323.488
324.898
324.608
324.192
323.606
325.516
325.672
324.67
324.78
325.413
325.126
324.148
325.53
325.931
324.32
319.635
318.909
322.313
324.291
324.374
321.95
313.771
308.863
312.255
317.977
316.809
301.978
310.471
308.445
305.218
300.492
300.76
300.804
300.841
300.878
300.915
300.95
300.985
301.023
301.065
301.112
301.159
301.201
301.221
301.211
301.174
301.111
301.047
301.127
301.753
303.128
304.733
305.419
305.307
303.876
301.868
301.07
300.848
300.809
300.882
301.307
302.353
302.132
303.363
302.664
305.166
304.022
308.893
306.819
312.34
309.983
316.823
314.571
320.203
318.725
322.522
321.848
323.316
323.075
323.468
323.353
323.247
323.32
323.179
322.865
322.901
323.046
324.076
323.409
322.88
326.039
325.701
323.97
323.932
324.929
326.287
325.682
326.581
326.389
325.853
321.396
320.64
324.079
325.931
325.902
323.707
315.4
313.753
319.656
318.424
306.106
300.896
302.945
311.801
309.449
300.77
300.865
300.898
300.926
300.954
300.984
301.015
301.049
301.086
301.126
301.168
301.207
301.231
301.228
301.198
301.139
301.071
301.127
301.762
303.258
304.794
305.354
305.141
303.657
301.799
301.06
300.844
300.78
300.768
300.878
302.409
301.535
303.566
303.226
303.547
303.572
305.065
304.99
307.869
306.159
312.168
309.899
317.737
315.69
320.859
319.492
322.695
322.178
323.21
322.923
323.455
323.473
323.304
323.684
324.113
324.53
322.681
322.759
323.09
323.661
323.185
322.64
322.555
325.989
325.096
323.01
322.893
323.955
326.741
326.84
327.088
326.314
327.06
323.144
322.353
325.739
327.213
327.279
325.399
316.932
315.133
321.311
319.995
306.218
300.338
302.258
312.925
310.028
300.934
300.989
301
301.009
301.026
301.051
301.079
301.11
301.144
301.18
301.215
301.241
301.245
301.22
301.167
301.097
301.124
301.749
303.284
304.794
305.286
304.926
303.362
301.695
301.048
300.85
300.784
300.748
300.732
300.951
302.924
301.728
305.664
304.653
305.296
305.694
307.161
307.621
308.113
307.185
313.611
311.84
319.419
318.035
321.495
320.591
322.508
322.058
323.339
322.921
324.821
325.027
325.053
324.928
324.375
325.107
325.778
326.318
322.762
323.379
324.283
325.342
322.462
322.426
322.851
325.335
324.058
322.325
322.229
322.844
326.68
327.423
327.078
325.65
327.738
324.846
324.032
327.209
328.005
328.21
326.954
318.373
316.373
322.928
321.507
306.046
300.242
301.722
313.806
310.329
301.133
301.156
301.112
301.091
301.097
301.115
301.139
301.166
301.196
301.227
301.252
301.26
301.241
301.195
301.126
301.118
301.704
303.265
304.774
305.199
304.687
303.017
301.569
301.029
300.865
300.805
300.759
300.717
300.724
301.121
300.78
303.069
301.749
307.696
305.221
308.394
308.636
310.863
311.605
310.789
310.644
316.658
315.555
319.997
319.09
321.496
320.813
322.254
321.453
325.017
323.902
326.672
326.822
326.766
326.509
326.406
327.357
328.109
328.606
323.792
325.042
326.448
327.819
322.367
322.996
324.226
324.257
322.891
322.303
322.273
322.197
326.053
327.488
326.518
324.571
327.905
326.45
325.644
328.308
328.301
328.671
328.244
319.721
317.462
324.487
322.949
305.645
300.127
301.079
314.494
310.421
301.453
301.387
301.241
301.171
301.162
301.174
301.193
301.216
301.243
301.263
301.27
301.261
301.222
301.156
301.118
301.598
303.2
304.733
305.11
304.439
302.689
301.46
301.018
300.882
300.832
300.789
300.726
300.688
300.659
300.945
300.714
302.95
301.583
308.271
305.268
311.659
310.758
314.515
314.123
314.93
314.701
318.183
317.373
319.179
318.366
320.714
319.969
322.516
321.11
327.463
326.611
324.863
325.894
328.817
328.803
328.535
328.077
329.005
329.904
330.458
330.657
325.834
327.556
329.179
330.529
323.142
324.644
326.546
323.064
322.239
323.234
323.259
322.262
325.012
327.031
325.546
323.375
327.581
327.89
327.147
328.936
328.156
328.746
329.1
320.974
318.428
325.962
324.314
304.876
300.06
300.603
315.045
310.278
301.91
301.666
301.36
301.239
301.218
301.225
301.244
301.263
301.276
301.284
301.282
301.247
301.187
301.129
301.45
303.044
304.675
305.05
304.239
302.435
301.385
301.02
300.901
300.847
300.814
300.762
300.702
300.659
300.634
300.634
300.766
300.649
302.321
301.184
307.851
304.587
313.17
311.089
315.507
314.549
316.71
316.143
317.553
316.768
316.873
315.621
319.611
318.197
323.936
322.735
321.096
327.828
327.017
325.227
326.178
330.492
329.975
329.304
328.59
331.489
332.011
332.068
331.624
328.545
330.366
331.814
332.781
324.947
327.111
329.345
322.382
322.319
325.109
325.118
323.191
323.829
326.166
324.428
322.624
326.854
329.016
328.478
329.254
327.612
328.439
329.62
322.141
319.317
327.331
325.598
303.745
300.033
300.345
315.515
309.846
302.366
301.898
301.443
301.298
301.273
301.276
301.282
301.291
301.297
301.293
301.271
301.217
301.152
301.324
302.758
304.573
305.02
304.151
302.302
301.372
301.038
300.923
300.869
300.831
300.797
300.743
300.691
300.646
300.617
300.623
300.648
300.619
301.362
300.798
305.996
302.968
312.792
309.709
314.072
312.375
315.996
315.159
314.427
313.307
314.158
312.068
318.72
316.404
324.194
323.026
321.562
320.132
327.352
326.568
324.92
325.784
330.877
330.042
329.128
328.196
333.195
333.117
332.502
331.605
331.323
332.837
333.792
334.124
327.477
329.919
332.045
322.435
323.149
327.634
327.58
324.965
322.988
325.138
323.528
322.615
325.957
329.779
329.537
329.279
326.9
327.975
329.946
323.251
320.193
328.572
326.794
302.876
300.021
300.242
315.976
309.57
302.725
302.024
301.49
301.336
301.308
301.305
301.31
301.314
301.308
301.294
301.246
301.18
301.247
302.394
304.381
305.009
304.152
302.315
301.409
301.084
300.969
300.906
300.86
300.817
300.78
300.737
300.685
300.633
300.644
300.607
300.619
300.606
300.603
300.798
300.64
302.97
301.363
309.694
306.102
309.434
307.208
312.214
311.022
310.11
308.381
312.151
309.647
318.789
317.248
314.888
323.938
322.818
320.812
319.493
325.743
325.073
323.806
324.473
330.454
329.071
327.744
326.617
333.992
333.3
332.246
330.74
333.62
334.578
334.878
334.752
330.265
332.543
334.202
323.1
324.725
330.382
330.278
327.321
322.924
324.251
323.323
323.091
325.155
330.283
330.283
329.108
326.25
327.52
330.113
324.353
321.184
329.621
327.949
302.562
300.017
300.245
316.592
309.82
302.955
302.021
301.499
301.365
301.338
301.334
301.332
301.326
301.313
301.275
301.211
301.214
302.012
304.085
305.002
304.209
302.419
301.536
301.192
301.044
300.962
300.901
300.849
300.806
300.771
300.727
300.669
300.626
300.636
300.602
300.613
300.589
300.592
300.621
300.592
301.17
300.747
304.463
302.291
303.897
302.555
306.828
305.348
307.421
305.507
311.68
310.269
308.262
318.132
316.735
312.886
314.274
322.992
321.998
319.444
318.24
323.306
322.808
321.984
322.43
328.963
327.112
325.44
324.149
334.088
333.02
331.433
329.455
335.186
335.488
335.401
334.834
332.836
334.609
335.653
324.438
326.927
332.927
332.829
329.956
323.267
323.905
323.601
324.212
324.711
330.655
330.816
328.89
325.853
327.26
330.143
325.53
322.243
330.421
329.041
302.894
300.023
300.416
317.553
311.061
303.041
301.957
301.494
301.388
301.362
301.354
301.345
301.327
301.302
301.242
301.208
301.681
303.651
304.97
304.379
302.681
301.842
301.406
301.174
301.042
300.953
300.894
300.843
300.797
300.758
300.715
300.644
300.665
300.617
300.63
300.595
300.606
300.578
300.585
300.578
300.576
300.684
300.602
301.508
300.923
301.725
301.149
303.912
302.651
306.232
304.475
310.6
309.541
307.418
306.565
316.963
315.626
311.693
312.83
321.355
320.504
317.306
316.266
320.413
320.028
319.472
319.784
327.177
324.84
322.772
321.259
333.884
332.499
330.661
328.353
335.976
335.932
335.484
334.704
334.863
335.993
336.353
326.42
329.455
334.967
334.928
332.511
324.115
324.127
324.226
325.934
324.835
330.909
331.193
328.749
325.883
327.272
330.115
326.669
323.36
331.013
329.992
304.531
300.301
301.594
318.966
313.888
302.987
301.856
301.486
301.404
301.38
301.367
301.346
301.327
301.274
301.216
301.45
303.077
304.86
304.678
303.046
302.253
301.809
301.423
301.175
301.029
300.947
300.889
300.838
300.788
300.743
300.699
300.635
300.654
300.607
300.622
300.586
300.597
300.566
300.577
300.562
300.561
300.594
300.568
300.824
300.662
301.276
300.903
303.06
301.973
305.918
305.054
303.969
309.054
308.212
306.252
305.727
315.158
313.996
309.911
310.789
318.963
318.232
314.369
313.524
317.344
316.896
316.317
316.627
325.666
322.826
320.243
318.321
333.571
331.95
329.853
327.26
336.349
335.996
335.367
334.408
336.226
336.613
336.62
328.776
331.957
336.357
336.356
334.624
325.543
324.614
325.304
328.018
325.326
331.087
331.466
328.737
326.377
327.694
330.121
327.733
324.498
331.453
330.74
308.699
305.996
307.624
320.681
317.353
302.835
301.753
301.478
301.415
301.391
301.368
301.342
301.306
301.242
301.326
302.463
304.579
304.902
303.483
302.664
302.29
301.957
301.439
301.159
301.012
300.941
300.885
300.831
300.778
300.732
300.679
300.629
300.642
300.6
300.614
300.576
300.588
300.555
300.565
300.544
300.547
300.561
300.545
300.702
300.603
301.169
300.82
302.796
301.814
305.177
304.639
303.466
304.074
307.274
306.762
306.068
305.666
312.626
311.695
307.814
308.37
315.84
315.174
310.937
310.286
314.39
313.708
312.82
313.261
324.259
321.065
318.109
315.796
333.05
331.304
329.111
326.397
336.42
335.802
335.029
333.964
336.807
336.843
336.686
331.057
333.899
336.913
336.846
335.966
327.19
325.472
326.681
329.838
326.238
331.235
331.665
329.074
327.392
328.724
330.283
328.663
325.57
331.828
331.281
316.062
311.431
317.548
322.464
320.454
302.6
301.669
301.471
301.421
301.392
301.363
301.337
301.274
301.28
301.953
304.082
304.964
304.017
303.057
302.8
302.64
302.012
301.418
301.115
301.001
300.935
300.877
300.823
300.769
300.722
300.644
300.635
300.676
300.623
300.593
300.606
300.567
300.58
300.543
300.555
300.524
300.531
300.531
300.523
300.642
300.562
301.232
300.819
302.954
301.967
305.166
304.632
304.429
305.212
306.583
306.373
307.34
307.047
309.605
308.95
306.795
306.914
312.269
311.617
307.921
307.508
311.741
310.844
309.648
310.216
323.171
319.607
316.159
313.459
332.607
330.89
328.717
325.994
336.189
335.454
334.621
333.533
337
336.883
336.421
332.725
335.233
337.034
336.867
336.497
328.842
326.895
328.541
331.599
327.734
331.336
331.92
329.845
328.787
329.7
330.814
329.439
326.67
332.072
331.696
320.303
303.643
316.733
324.179
322.712
302.351
301.606
301.465
301.42
301.388
301.356
301.307
301.275
301.602
303.377
304.921
304.518
303.447
303.26
303.309
302.87
302.013
301.341
301.085
300.988
300.925
300.869
300.813
300.758
300.71
300.63
300.638
300.664
300.615
300.585
300.599
300.556
300.57
300.53
300.542
300.51
300.519
300.515
300.507
300.623
300.543
302.107
301.12
305.648
304.477
303.783
306.595
305.943
306.864
308.025
307.386
307.472
310.64
310.483
307.221
307.025
307.203
307.002
309.033
308.438
306.599
306.616
309.521
308.39
307.243
307.734
322.693
318.939
315.097
311.802
332.235
330.566
328.463
325.807
335.77
335
334.165
333.115
336.963
336.734
336.014
334.361
335.81
336.897
336.392
336.285
330.943
328.872
330.673
333.482
329.458
331.566
332.053
330.334
329.863
330.177
330.968
330.255
327.809
332.268
332.105
321.733
301.177
311.41
325.654
324.178
302.125
301.562
301.458
301.416
301.375
301.341
301.283
301.409
302.608
304.712
304.855
303.909
303.635
303.893
303.759
302.953
301.888
301.255
301.053
300.975
300.917
300.86
300.803
300.749
300.693
300.624
300.633
300.65
300.606
300.574
300.591
300.544
300.558
300.521
300.532
300.502
300.511
300.505
300.5
300.691
300.546
304.821
302.187
308.985
307.221
306.51
308.726
309.927
309.07
310.664
312.214
310.158
310.522
315.047
315.07
306.665
306.774
309.521
308.892
306.892
306.666
306.706
307.058
308.567
307.268
306.4
306.638
322.553
318.793
314.816
311.232
331.912
330.437
328.564
326.216
335.249
334.483
333.732
332.843
336.76
336.235
335.35
334.79
335.309
336.018
334.507
335.263
332.494
330.575
331.746
333.552
330.369
331.588
332.121
330.575
330.19
330.265
331.148
331.012
328.856
332.49
332.428
320.859
300.58
309.104
326.79
324.54
301.941
301.53
301.449
301.404
301.368
301.31
301.332
302.002
304.161
304.963
304.431
303.951
304.34
304.527
304.021
302.944
301.675
301.165
301.032
300.966
300.907
300.849
300.792
300.739
300.659
300.644
300.698
300.615
300.626
300.597
300.563
300.581
300.537
300.549
300.515
300.526
300.493
300.505
300.505
300.489
301
300.603
309.366
309.448
306.644
304.18
312.911
310.807
311.774
314.565
313.545
314.927
316.744
314.155
314.775
319.631
319.688
307.618
308.173
313.337
312.436
306.373
306.445
308.656
309.569
308.675
307.352
306.906
306.905
323.242
319.624
315.592
311.726
331.882
330.76
329.474
327.789
334.437
333.797
333.066
332.448
335.559
334.057
332.567
333.927
333.871
333.691
333.804
333.654
332.676
330.997
331.593
333.241
330.402
331.742
332.294
330.696
330.071
330.074
331.028
331.578
329.658
332.652
332.517
319.641
300.1
304.142
327.436
324.364
301.8
301.506
301.437
301.385
301.344
301.321
301.625
303.302
304.894
304.845
304.296
304.619
305.126
305.017
304.108
302.696
301.46
301.112
301.017
300.955
300.896
300.838
300.782
300.733
300.639
300.651
300.682
300.607
300.618
300.588
300.555
300.57
300.53
300.543
300.503
300.516
300.48
300.49
300.52
300.479
301.668
300.748
311.852
311.024
308.507
306.275
316.551
314.205
314.41
319.296
318.242
318.749
320.709
318.771
319.338
323.974
323.852
310.497
311.461
318.007
317.101
307.291
307.922
312.481
313.687
311.13
309.466
309.345
309.184
325.419
322.301
318.556
314.576
331.709
331.017
330.181
329.387
331.953
331.743
331.071
330.907
333.212
333.117
324.729
333.239
325.773
325.501
326.46
325.956
331.679
330.631
330.591
331.792
329.895
331.671
332.236
330.486
329.433
329.369
330.727
331.936
330.221
332.515
332.588
317.048
300.031
301.812
327.715
323.792
301.697
301.485
301.416
301.378
301.326
301.435
302.468
304.596
305.044
304.699
304.775
305.511
305.802
305.274
304.043
302.259
301.282
301.079
301.004
300.944
300.885
300.827
300.773
300.725
300.635
300.647
300.674
300.599
300.612
300.58
300.55
300.564
300.519
300.535
300.489
300.504
300.465
300.475
300.548
300.471
302.558
300.967
313.654
312.083
309.589
310.039
308.078
305.456
319.352
316.927
316.212
323.337
322.3
321.65
323.748
323.582
323.897
328.073
327.517
314.928
316.033
323.027
322.292
310.165
311.323
317.672
319.018
317.43
314.722
314.121
314.065
328.388
326.725
323.999
320.633
330.649
330.399
330.114
329.821
324.665
325.078
324.841
325.003
325.335
325.863
318.246
325.843
318.516
318.34
318.791
318.475
325.233
329.531
324.789
325.829
328.811
331.217
331.673
329.588
328.445
328.469
329.993
332.145
330.655
332.419
332.598
314.719
383.231
304.215
327.791
323.32
301.623
301.462
301.397
301.349
301.365
301.889
303.852
305.024
305.046
304.967
305.663
306.346
306.289
305.34
303.659
301.795
301.179
301.057
300.991
300.931
300.873
300.817
300.764
300.715
300.668
300.629
300.643
300.593
300.607
300.574
300.541
300.559
300.507
300.524
300.476
300.491
300.453
300.461
300.561
300.462
302.962
301.081
314.476
312.306
309.975
307.377
305.523
321.143
318.698
316.827
326.661
325.464
323.539
325.855
328.286
328.302
331.779
330.781
320.273
321.364
328.074
327.592
314.964
316.315
323.691
324.921
326.805
324.103
321.39
322.037
329.516
329.169
328.908
327.907
324.997
325.318
325.432
325.935
318.201
318.764
318.524
318.836
318.153
318.832
310.433
318.615
310.365
310.359
310.607
310.381
318.274
324.141
318.07
318.54
323.622
330.569
331.736
328.737
323.254
322.783
329.449
332.32
330.946
332.224
332.64
317.332
678.202
321.021
327.741
323.692
301.566
301.433
301.388
301.358
301.572
302.923
304.816
305.198
305.21
305.672
306.596
307.02
306.501
305.16
303.028
301.429
301.126
301.041
300.979
300.919
300.862
300.806
300.758
300.696
300.66
300.656
300.623
300.638
300.589
300.602
300.569
300.532
300.55
300.499
300.515
300.468
300.483
300.446
300.454
300.554
300.457
303.686
302.022
301.034
314.536
312.013
309.334
306.759
305.105
321.803
319.237
316.766
329.473
327.829
324.531
327.219
332.769
332.426
335.075
333.668
325.975
326.933
332.783
332.651
321.581
322.557
330.172
331.099
331.1
331.59
330.43
331.236
326.347
329.419
330.038
330.212
318.88
319.436
319.586
320.085